default_name
304381
  96.5045342  65.9655808  79.2350384  96.0171639  65.2246023  78.7517978
  97.5099850  66.0353636  79.1694743  96.0175342  67.2765808  78.7700384
  95.2522898  67.1246957  78.0088339  96.8492271  67.8360620  78.3418239
  95.4715342  67.9235808  80.0200384  94.3839078  67.9458181  79.9516820
  95.8523981  68.9432744  80.0772113  95.9285342  67.1165808  81.1930384
  95.1474610  67.1014492  81.9531666  96.8572550  67.4783540  81.6342842
  96.1325342  65.7075808  80.6280384  96.9589416  65.1761249  81.0999530
  94.8475342  64.8755808  80.7600384  93.8875342  65.1035808  80.0170384
  94.8395342  63.9385808  81.7100384  95.6541053  63.8346591  82.2980636
  93.7155342  63.0065808  81.9030384  93.3865226  62.6244228  80.9367021
  94.1355342  61.8185808  82.7840384  94.4939756  62.2073113  83.7371951
  93.2653321  61.1848066  82.9548561  95.2365342  60.9745808  82.1580384
  95.4025342  60.9375808  80.9370384  95.9935342  60.2865808  83.0000384
  96.7410314  59.7076656  82.6447850  95.8196239  60.3441927  83.9932840
  92.5025342  63.7055808  82.5200384  92.6495342  64.7125808  83.2150384
  91.3175342  63.1435808  82.2730384  91.2979304  62.2764841  81.7554881
  90.0315342  63.7815808  82.6190384  90.0574304  64.7485656  82.1166751
  88.8725342  62.9695808  82.0530384  88.8279938  62.0018928  82.5527346
  87.9380124  63.5060583  82.2172365  89.0215463  62.8192537  80.9837880
  89.8095342  64.0425808  84.1180384  89.1405342  65.0175808  84.4820384
  90.3615342  63.1735808  84.9710384  90.8136197  62.3500497  84.6002088
  90.2835342  63.3285808  86.4340384  89.2416578  63.4204793  86.7408728
  90.8965342  62.1075808  87.1370384  91.9319418  62.0428785  86.8026075
  90.8730963  62.3193123  88.2060194  90.1785342  60.7585808  86.8610384
  90.4005597  60.1185998  87.7149879  89.1156883  61.0002959  86.8554226
  90.5425342  60.0245808  85.5640384  91.4275342  60.5155808  84.8290384
  89.9275342  58.9595808  85.3330384  90.9615342  64.6025808  86.9580384
  90.4935342  65.1885808  87.9320384  92.0425342  65.0275808  86.2990384
  92.3208657  64.5308138  85.4648601  92.8855342  66.1445808  86.7610384
  92.7067898  66.3439443  87.8176385  94.3705342  65.7725808  86.5740384
  94.5828244  65.7904441  85.5050608  94.9701741  66.5320574  87.0757628
  94.7175342  64.3925808  87.1400384  94.2565342  64.0655808  88.2540384
  95.4545342  63.6365808  86.4690384  92.6085342  67.4955808  86.0620384
  93.3655342  68.4495808  86.2560384  91.5275342  67.5895808  85.2800384
  90.8795537  66.8164057  85.2308368  91.2825342  68.7635808  84.4200384
  92.2328754  69.1624454  84.0652738  90.4265342  68.3805808  83.2040384
  89.6018177  67.7672830  83.5670918  90.0325309  69.3041159  82.7798400
  91.1915342  67.6185808  82.1350384  92.0332780  68.2403649  81.8301567
  91.5643637  66.7016248  82.5914287  90.2075342  67.2005808  80.6840384
  90.0605342  68.8015808  79.8940384  91.0534430  69.1798692  79.6508737
  89.4755581  68.7037212  78.9795292  89.5630262  69.4967189  80.5703298
  90.6215342  69.9415808  85.1440384  89.7085342  69.7555808  85.9480384
  91.0975342  71.1495808  84.8350384  91.9463420  71.1960386  84.2896336
  90.4905342  72.4065808  85.2850384  89.7571274  72.2182926  86.0691055
  91.5735342  73.3665808  85.8400384  91.0876682  74.2658828  86.2185754
  92.3595342  72.6985808  86.9690384  92.8460926  71.7993927  86.5911212
  93.1146280  73.3890726  87.3447425  91.6789066  72.4304745  87.7771013
  92.4795342  73.7505808  84.7960384  93.1446602  74.3443425  85.1519243
  89.7275342  73.0515808  84.1100384  89.6105342  72.4445808  83.0390384
  89.2055342  74.2665808  84.3110384  89.1944748  74.6469007  85.2466311
  88.5205342  75.0185808  83.2420384  87.7675460  74.3839110  82.7748102
  87.8265342  76.2715808  83.8060384  87.3370197  76.7920392  82.9828751
  87.0770241  75.9516820  84.5299164  88.7475342  77.1445808  84.4350384
  88.2808311  77.9121679  84.7735617  89.3985342  75.3995808  82.0230384
  88.8545342  75.6125808  80.9330384  90.7085342  75.5485808  82.2520384
  91.0416127  75.4458505  83.1999859  91.6775342  75.8915808  81.2090384
  91.2439247  76.6229340  80.5269794  92.9425342  76.4925808  81.8320384
  93.3266491  75.7631147  82.5450842  93.6641731  76.6270870  81.0262807
  92.7175342  77.8215808  82.5380384  92.4878554  78.5756054  81.7851803
  91.8685741  77.7123219  83.2128948  93.9435342  78.2535808  83.3310384
  94.1944469  77.4597593  84.0345931  94.7700094  78.3959074  82.6347760
  93.6945342  79.5475808  84.0940384  93.5359663  80.3413693  83.3640681
  92.7910239  79.4164850  84.6895064  94.8295342  79.9145808  84.9880384
  95.6667513  80.0365249  84.4364072  94.6144585  80.7764981  85.4686015
  94.9763574  79.1793620  85.6647920  92.0435342  74.6615808  80.3800384
  92.2665342  74.7615808  79.1720384  92.1155342  73.5035808  81.0320384
  92.0724195  73.4770576  82.0407688  92.2935342  72.2495808  80.3160384
  93.1650568  72.3209124  79.6653008  92.5045342  71.0895808  81.2900384
  91.6962360  71.1180054  82.0207540  92.4508416  70.1586209  80.7256531
  93.8355342  71.1685808  82.0070384  94.8485342  71.4745808  81.3450384
  93.8745342  70.9215808  83.2290384  91.0625342  72.0025808  79.4520384
  91.1585342  71.4535808  78.3550384  89.9035342  72.4175808  79.9540384
  89.8579332  72.7546829  80.9050284  88.6635342  72.3305808  79.1910384
  88.6026361  71.3604660  78.6978164  87.4495342  72.4885808  80.1120384
  87.7017497  73.2855145  80.8115978  86.5979299  72.7950532  79.5046302
  87.0935342  71.2325808  80.8840384  86.9505342  70.0135808  80.2370384
  87.1017985  69.9706903  79.1584379  86.6225342  68.8665808  80.9350384
  86.5246104  67.9140886  80.4142011  86.4185342  68.9315808  82.2920384
  86.0885342  67.7915808  82.9820384  86.0288490  67.0163470  82.4189665
  86.5445342  70.1295808  82.9580384  86.3859737  70.1790158  84.0353105
  86.8735342  71.2725808  82.2550384  86.9642085  72.2257026  82.7760347
  88.6205342  73.3685808  78.0630384  87.9655342  73.1505808  77.0400384
  89.3115342  74.4935808  78.2550384  89.6768748  74.7076038  79.1720007
  89.5085342  75.4735808  77.1820384  88.6557076  75.4423300  76.5039460
  89.6395342  76.8935808  77.7380384  89.6432836  76.8178597  78.8253983
  90.5951649  77.2933911  77.3988898  88.5235342  77.8165808  77.3010384
  87.1905342  77.4755808  77.5050384  86.9599645  76.5277526  77.9914116
  86.1655342  78.3145808  77.1030384  85.1254231  78.0328377  77.2670248
  86.4675342  79.5135808  76.4860384  85.4485342  80.3565808  76.0830384
  84.5751619  80.0105679  76.2807643  87.7855342  79.8745808  76.2750384
  88.0248652  80.8214133  75.7909627  88.8025342  79.0285808  76.6810384
  89.8429393  79.3087182  76.5161738  90.7385342  75.1185808  76.3500384
  91.4955342  75.9985808  75.9250384  90.9295342  73.8145808  76.1560384
  90.3770552  73.1723898  76.7059993  91.9075342  73.2615808  75.2190384
  91.9430082  73.8846716  74.3253950  93.3105342  73.2105808  75.8370384
  93.2712794  72.6743541  76.7852047  94.0060830  72.7083168  75.1646971
  93.8985342  74.5645808  76.1320384  93.9245342  75.5525808  75.1580384
  93.5128119  75.3376804  74.1719337  94.4645342  76.7985808  75.4260384
  94.4737094  77.5673413  74.6533653  94.9925342  77.0675808  76.6750384
  95.4188902  78.0471738  76.8911817  94.9785342  76.0895808  77.6510384
  95.3943641  76.2977504  78.6368635  94.4365342  74.8455808  77.3770384
  94.4296296  74.0728019  78.1457159  91.4335342  71.8555808  74.8380384
  91.9825342  71.2235808  73.9350384  90.4015342  71.3915808  75.5470384
  90.0452906  71.9680907  76.2959216  89.8005342  70.0695808  75.3410384
  89.8401438  69.8079332  74.2836497  90.5575342  69.0025808  76.1380384
  91.6238437  69.1749577  75.9918552  90.3102406  69.1316961  77.1917343
  90.2095342  67.5875808  75.7060384  89.4315342  67.4385808  74.7410384
  90.7115342  66.6285808  76.3340384  88.3095342  70.1055808  75.7360384
  87.8855342  69.5325808  76.7420384  87.5455342  70.8055808  74.9050384
  88.0387085  71.2570591  74.1480405  86.0795342  70.9895808  74.9960384
  85.8317994  71.5071048  75.9228045  85.5635342  71.8175808  73.8220384
  85.8581144  71.3288752  72.8933357  84.4759896  71.8642041  73.8783681
  86.0895342  73.1185808  73.8530384  85.7511177  73.6184194  73.1065564
  85.2815342  69.7005808  75.0030384  84.3005342  69.5855808  75.7290384
  85.6945342  68.7455808  74.1740384  86.4259842  68.9458935  73.5069889
  85.0235342  67.4435808  74.1000384  83.9429583  67.5850525  74.1210288
  85.3985342  66.7125808  72.7990384  86.4583780  66.8902551  72.6166588
  85.2309746  65.6469733  72.9555776  84.5965342  67.1785808  71.6040384
  83.2435342  66.8695808  71.4930384  82.7730195  66.2833143  72.2823463
  82.4985342  67.2915808  70.4080384  81.4370843  67.0531440  70.3404083
  83.1035342  68.0285808  69.4140384  82.3625342  68.4315808  68.3360384
  81.4472231  68.1457741  68.3820784  84.4425342  68.3495808  69.4920384
  84.9182937  68.9338138  68.7043677  85.1835342  67.9235808  70.5820384
  86.2431211  68.1699133  70.6505664  85.2425342  66.5345808  75.3250384
  84.6035342  65.4885808  75.4250384  86.1315342  66.9235808  76.2430384
  86.7677906  67.6775140  76.0265622  86.2845342  66.2305808  77.5300384
  86.3388208  65.1679615  77.2934112  87.5825342  66.6445808  78.2100384
  87.5396901  67.7043441  78.4613671  87.7185124  66.0609790  79.1205433
  88.4198770  66.4651980  77.5356659  85.1025342  66.4335808  78.4890384
  84.9205342  65.6415808  79.4170384  84.3235342  67.4935808  78.2800384
  84.5607696  68.1461783  77.5465977  83.1155342  67.7435808  79.0670384
  83.3674450  67.7421604  80.1275280  82.4905342  69.1005808  78.7130384
  82.5663325  69.2426995  77.6350049  81.4430096  69.1412875  79.0115935
  83.1625342  70.2765808  79.3480384  83.4065342  71.4495808  78.6620384
  83.1753498  71.6080046  77.6917006  83.9845342  72.3175808  79.4750384
  84.2595364  73.3110208  79.1207084  84.1235342  71.7505808  80.6610384
  84.5360351  72.1766202  81.4786161  83.6135342  70.4755808  80.6090384
  83.6321244  69.8445019  81.4975738  82.0645342  66.6775808  78.7930384
  81.7365342  66.4355808  77.6330384  81.5215342  66.0825808  79.8580384
  81.9032294  66.2469240  80.7785814  80.4615342  65.0805808  79.7140384
  80.7643158  64.3546780  78.9593944  80.1745342  64.3295808  81.0350384
  79.4502773  63.5281812  80.8890594  81.1154431  63.9082448  81.3889685
  79.6415342  65.1955808  82.1520384  78.2945342  65.5135808  82.2310384
  77.6150827  65.1367071  81.4665701  77.8105342  66.2955808  83.2590384
  76.7516539  66.5514548  83.2964771  78.6655342  66.7535808  84.2390384
  78.2867784  67.3683673  85.0555440  80.0055342  66.4305808  84.1830384
  80.6846736  66.7921809  84.9551234  80.4865342  65.6505808  83.1510384
  81.5431646  65.3853597  83.1151228  79.1905342  65.6955808  79.1250384
  78.4635342  65.0215808  78.4000384  78.9415342  66.9675808  79.4400384
  79.5982311  67.4601840  80.0284181  77.7615342  67.6825808  78.9730384
  76.8869598  67.1619560  79.3631263  77.8011113  68.6886193  79.3906740
  77.6465342  67.7785808  77.4690384  76.5355342  67.7495808  76.9400384
  78.7875342  67.8725808  76.7830384  79.6640097  67.9427424  77.2799967
  78.8125342  67.9295808  75.3190384  78.1056125  68.6700659  74.9448157
  80.2285342  68.2385808  74.7620384  80.9238460  67.4862904  75.1344644
  80.2295342  68.2205808  73.2340384  79.5347515  68.9729794  72.8608443
  81.2326409  68.4398215  72.8682362  79.9219233  67.2360846  72.8815587
  80.7675342  69.5895808  75.2910384  80.8007594  69.5014515  76.3769620
  81.7817410  69.6869359  74.9037323  79.9605342  70.8155808  74.9080384
  78.9462684  70.7191569  75.2954235  80.4273764  71.7051596  75.3308943
  79.9272482  70.9046399  73.8221929  78.3085342  66.6025808  74.7430384
  77.4595342  66.5895808  73.8490384  78.8265342  65.4985808  75.2710384
  79.5867487  65.5737183  75.9317408  78.4155342  64.1645808  74.8360384
  78.3556109  64.1327956  73.7481514  79.4275342  63.1145808  75.3010384
  79.5502536  63.2312174  76.3778091  79.1270789  62.0906216  75.0789253
  80.7785342  63.3045808  74.6940384  81.1215342  62.7775808  73.4710384
  80.5139603  62.2081337  72.8994759  82.3585342  63.1345808  73.1730384
  82.8229822  62.8044337  72.2438506  82.8215342  63.8875808  74.1520384
  83.7403052  64.3045073  74.1982132  81.8485342  64.0185808  75.1110384
  82.0372024  64.6200861  76.0002497  76.9985342  63.8205808  75.2780384
  76.2785342  63.1205808  74.5670384  76.6005342  64.3345808  76.4360384
  77.2757031  64.7881585  77.0347985  75.2215342  64.2135808  76.9120384
  74.9555808  63.1619386  77.0188868  75.0715342  64.8965808  78.2730384
  75.9092951  64.5735721  78.8910364  75.1381801  65.9714172  78.1045597
  73.7675342  64.5755808  78.9810384  72.9599984  64.8903247  78.3200370
  73.7167839  63.4966709  79.1275888  73.6265342  65.2725808  80.3160384
  74.6545342  65.6315808  80.9470384  72.4685342  65.4475808  80.7400384
  74.2125342  64.8005808  75.9130384  73.2095342  64.1595808  75.5950384
  74.4915342  66.0115808  75.4310384  75.2831475  66.5137814  75.8068607
  73.6665342  66.6735808  74.4190384  72.6370241  66.7417315  74.7705544
  74.1875342  68.0985808  74.1400384  74.2585723  68.6101087  75.0999301
  75.1829876  67.9994489  73.7072041  73.2995342  68.9095808  73.1950384
  73.2425266  68.3567553  72.2573631  72.3096603  68.9572164  73.6488883
  73.8005342  70.3205808  72.9220384  74.8995342  70.6975808  73.3940384
  73.0795342  71.0645808  72.2220384  73.6135342  65.8765808  73.1070384
  72.5615342  65.7905808  72.4730384  74.7565342  65.3235808  72.7020384
  75.6033104  65.5122498  73.2192168  74.8495342  64.4965808  71.4910384
  74.3897534  65.0225943  70.6543721  76.3185342  64.1975808  71.1370384
  76.8112477  63.8861184  72.0580834  76.3134514  63.3681107  70.4298938
  77.0715342  65.3755808  70.5320384  76.4533361  65.7900750  69.7357178
  77.2029105  66.1221647  71.3152720  78.6915342  64.9295808  69.8570384
  79.6155342  64.5795808  71.3470384  79.1359854  63.7648904  71.8896354
  80.6333934  64.2911103  71.0846490  79.6413637  65.4690547  71.9765383
  74.0765342  63.1875808  71.6400384  73.3675342  62.7805808  70.7250384
  74.2225342  62.5385808  72.7910384  74.8733101  62.8936602  73.4769747
  73.5395342  61.2685808  73.0710384  73.6314612  60.6007847  72.2144772
  74.1655342  60.5875808  74.2920384  74.1710634  61.3749075  75.0458191
  73.5205873  59.7733902  74.6225488  75.5925342  60.0605808  74.0930384
  76.1373365  60.7682249  73.4681135  76.3185342  59.8935808  75.4220384
  75.7745372  59.1856775  76.0473695  77.3260217  59.5186936  75.2416794
  76.3751871  60.8567245  75.9292316  75.5865342  58.7515808  73.3170384
  75.1331587  58.9106804  72.3386533  76.6101855  58.3994353  73.1896301
  75.0119541  58.0056757  73.8662035  72.0235342  61.4285808  73.2640384
  71.2585342  60.5525808  72.8610384  71.5975342  62.5355808  73.8760384
  72.2616694  63.1237860  74.3587789  70.1635342  62.8635808  73.9860384
  69.5980792  61.9554687  74.1950656  69.9115342  63.8665808  75.1130384
  70.6370022  64.6746444  75.0190770  68.9048011  64.2672097  74.9943591
  70.0425342  63.2265808  76.4820384  69.3143189  62.4177330  76.5417749
  71.0488531  62.8153893  76.5616996  69.8055342  64.2035808  77.6150384
  70.5527939  64.9958316  77.5698646  68.8105369  64.6371817  77.5146894
  69.9115342  63.4835808  78.9480384  69.0338275  62.8457629  79.0525368
  70.8085571  62.8649064  78.9217504  69.9865342  64.4145808  80.1020384
  69.1552279  64.9876557  80.1268301  70.0553887  63.8840187  80.9586964
  70.8000058  65.0053993  80.0056192  69.5235342  63.3485808  72.6790384
  68.2955342  63.3935808  72.5790384  70.3435342  63.7165808  71.6940384
  71.3194595  63.8763795  71.8993033  69.8735342  63.9525808  70.3260384
  68.9668327  64.5572914  70.3438324  70.9495342  64.7015808  69.5140384
  71.2050383  65.6015974  70.0733120  71.8247090  64.0552862  69.4471616
  70.4935342  65.0885808  68.1070384  69.4575342  64.5865808  67.6170384
  71.1975342  65.9105808  67.4780384  69.5305342  62.5895808  69.7070384
  70.3995342  61.8995808  69.1730384  68.2575342  62.2125808  69.7950384
  67.5845715  62.8285540  70.2283945  67.8085342  60.8785808  69.3690384
  68.5256601  60.1278985  69.7011616  66.4405342  60.5465808  69.9680384
  65.7863846  61.4009809  69.7942915  66.0495694  59.6769705  69.4398107
  66.5005342  60.2495808  71.4570384  67.0701907  59.3301275  71.5919384
  67.0263978  61.0757168  71.9356468  65.1315342  60.0915808  72.0850384
  64.9495342  60.5675808  73.2260384  64.2385342  59.4975808  71.4400384
  67.7705342  60.6925808  67.8540384  68.0755342  59.6085808  67.3690384
  67.3965342  61.7395808  67.1190384  67.0517643  62.5695171  67.5799492
  67.4035342  61.7105808  65.6490384  66.7782743  60.9099812  65.2538301
  66.9185342  63.0575808  65.0540384  67.4244145  63.8658870  65.5820777
  67.2165342  63.1615808  63.5580384  66.7105790  62.3538182  63.0292380
  66.8602639  64.1205775  63.1818772  68.2915133  63.0845937  63.3949595
  65.4265342  63.2405808  65.3140384  65.2413463  63.2377138  66.3881889
  65.0973525  64.1899628  64.8916491  64.8733228  62.4250055  64.8483186
  68.8065342  61.3685808  65.1350384  68.9685342  60.5115808  64.2620384
  69.8065342  62.0465808  65.6930384  69.5904520  62.7867153  66.3454253
  71.2095342  61.7895808  65.3770384  71.3861157  61.9174512  64.3090649
  72.0935342  62.7765808  66.1400384  71.7486191  63.7742968  65.8685693
  71.9063523  62.6038670  67.1998652  73.5845342  62.6635808  65.8640384
  73.8471325  61.6110674  65.7574621  73.8151937  63.1906123  64.9382220
  74.3845342  63.2725808  67.0070384  75.3520558  63.6175842  66.6423830
  73.8389027  64.1120064  67.4380260  74.6075342  62.2685808  68.0550384
  73.7864507  61.9893040  68.5726538  75.7755342  61.6975808  68.3570384
  76.8935342  62.0355808  67.7270384  76.8684684  62.7388637  67.0025628
  77.7643437  61.5879870  67.9749301  75.8275342  60.7835808  69.3230384
  74.9854130  60.5292484  69.8192711  76.7088785  60.3484830  69.5554623
  71.6275342  60.3605808  65.7260384  72.0465342  59.6065808  64.8540384
  71.5015342  60.0015808  67.0000384  71.0659381  60.6363158  67.6538479
  72.0755342  58.7595808  67.5170384  73.0929465  58.6372113  67.1455587
  72.1105342  58.7585808  69.0650384  71.0857906  58.7362158  69.4358491
  72.8705342  57.5505808  69.6000384  73.8955671  57.5725076  69.2300028
  72.8774783  57.5784413  70.6896598  72.3828404  56.6356696  69.2635969
  72.7465342  59.9555808  69.5350384  72.7664942  59.9516276  70.4948229
  71.3545342  57.5145808  66.9810384  72.0175342  56.5515808  66.5820384
  70.0175342  57.5455808  66.9530384  69.5277513  58.3327753  67.3537087
  69.2225342  56.4155808  66.4400384  69.6077649  55.4900880  66.8680098
  67.7335342  56.5395808  66.7980384  67.4658984  57.5253369  66.4175713
  67.2068455  55.7749935  66.2269822  67.3375342  56.4375808  68.2730384
  67.8566531  57.2089368  68.8419200  65.8345342  56.6295808  68.4130384
  65.3147005  55.8582602  67.8447636  65.5547317  56.5565843  69.4639822
  65.5560107  57.6116274  68.0307956  67.7545342  55.1035808  68.8770384
  68.8365180  54.9935446  68.8042191  67.4560715  55.0694061  69.9248234
  67.2699638  54.2914380  68.3350840  69.3615342  56.2075808  64.9300384
  69.2635342  55.0655808  64.4670384  69.5705342  57.2825808  64.1660384
  69.5011358  58.2090807  64.5621206  69.8285342  57.1585808  62.7240384
  69.0633008  56.5217440  62.2802413  69.8125342  58.5255808  62.0030384
  70.5395364  59.1809346  62.4827045  70.1625342  58.3735808  60.5240384
  69.4356524  57.7186855  60.0435651  70.1432714  59.3516012  60.0432016
  71.1588003  57.9418292  60.4284083  68.5065342  59.1115808  62.1080384
  68.4996227  59.9602913  61.6594373  71.1645342  56.4465808  62.4740384
  71.2565342  55.5915808  61.5890384  72.1865342  56.8055808  63.2500384
  72.1169063  57.6372527  63.8188733  73.4605342  56.0795808  63.2330384
  73.8280863  56.0357027  62.2078168  74.5305342  56.7555808  64.1110384
  74.0104933  57.2175470  64.9502308  75.1933518  55.9733953  64.4811179
  75.3475342  57.8075808  63.3810384  74.9125342  59.1275808  63.2990384
  73.9700574  59.3967826  63.7758689  75.6515342  60.0925808  62.6280384
  75.2996399  61.1230200  62.5783679  76.8425342  59.7415808  62.0300384
  77.5675342  60.6945808  61.3640384  77.1529252  61.5602896  61.3797621
  77.2995342  58.4345808  62.0930384  78.2394988  58.1567163  61.6162173
  76.5555342  57.4795808  62.7660384  76.9116812  56.4509123  62.8217202
  73.2565342  54.6225808  63.6480384  73.7625342  53.7195808  62.9770384
  72.5025342  54.3895808  64.7230384  72.1512338  55.1513164  65.2855739
  72.2405342  53.0155808  65.1700384  73.1906692  52.4921136  65.2764565
  71.5045342  52.9705808  66.5110384  71.9600509  53.7092609  67.1705500
  70.4626632  53.2367730  66.3328627  71.5725342  51.5955808  67.1650384
  71.1895896  50.8654680  66.4520240  72.6185573  51.3778920  67.3807917
  70.7655342  51.5205808  68.4480384  71.0142288  50.5945394  68.9663987
  71.0269969  52.3706190  69.0782540  69.3215342  51.5465808  68.2000384
  69.0286456  51.5211082  67.2337741  68.3835342  51.5935808  69.1490384
  68.7115342  51.6215808  70.4410384  69.6842980  51.6071935  70.7123752
  67.9857376  51.6570486  71.1425090  67.1015342  51.6205808  68.8050384
  66.8433880  51.6054357  67.8287028  66.3902916  51.6561437  69.5212562
  71.4635342  52.2165808  64.1190384  71.8095342  51.0725808  63.8400384
  70.4305342  52.8265808  63.5420384  70.1461471  53.7380691  63.8712988
  69.6255342  52.1815808  62.5000384  69.2492082  51.2273632  62.8687480
  68.4285342  53.0615808  62.1030384  68.7854157  54.0765899  61.9284210
  67.9988523  52.6648003  61.1832348  67.3395342  53.1045808  63.1710384
  67.3895342  52.3845808  64.1680384  66.3505342  53.9575808  62.9600384
  65.5998184  54.0317928  63.6316172  66.3507836  54.5306384  62.1283499
  70.4365342  51.8085808  61.2560384  70.2025342  50.7575808  60.6690384
  71.3935342  52.6525808  60.8710384  71.4954653  53.5420719  61.3384942
  72.2605342  52.3675808  59.7180384  71.6449569  52.1899721  58.8362114
  73.2035342  53.5425808  59.4290384  73.6564548  53.3895545  58.4494746
  72.6175521  54.4616066  59.4182471  74.2225342  53.6435808  60.4100384
  74.7945568  54.3859406  60.2019714  73.0715342  51.0735808  59.8900384
  73.3035342  50.3565808  58.9190384  73.4745342  50.7765808  61.1240384
  73.3055322  51.4338980  61.8720168  74.2195342  49.5525808  61.4300384
  74.7895784  49.2413988  60.5546444  75.1945342  49.7855808  62.5930384
  74.6010420  49.8624628  63.5040573  75.8418648  48.9107733  62.6544805
  76.0465342  51.0365808  62.4360384  76.4632266  51.0178289  61.4290048
  75.3811088  51.8939193  62.5374377  77.3865342  51.1835808  63.6280384
  77.4435342  52.9655808  63.7970384  76.4818949  53.3275064  64.1608497
  78.2256526  53.2390644  64.5052744  77.6577970  53.4162963  62.8279934
  73.2695342  48.3955808  61.7520384  73.3825342  47.3175808  61.1590384
  72.3295342  48.6295808  62.6680384  72.2678170  49.5489409  63.0816412
  71.4295342  47.5715808  63.1740384  72.0220690  46.7170384  63.5007784
  70.5915342  48.0745808  64.3660384  70.2924633  49.1127916  64.2219064
  69.7026868  47.4493027  64.4501670  71.2955342  48.0085808  65.7040384
  72.6875342  48.1055808  65.8220384  73.2912418  48.2238806  64.9222372
  73.3005342  48.0525808  67.0680384  74.3861652  48.1172214  67.1410293
  72.5335342  47.9175808  68.2190384  73.0153722  47.8784632  69.1959734
  71.1525342  47.8325808  68.1230384  70.5464229  47.7292118  69.0230629
  70.5405342  47.8795808  66.8730384  69.4552378  47.8154371  66.7948265
  70.4995342  46.9845808  62.1080384  70.2495342  45.7795808  62.1150384
  69.9985342  47.8275808  61.2050384  70.1468105  48.8204535  61.3160215
  69.1535342  47.3685808  60.0910384  68.5825294  46.4939802  60.4026897
  68.1705342  48.4675808  59.6560384  68.7192366  49.3364181  59.2925186
  67.5195286  48.0930357  58.8660968  67.2755342  48.9545808  60.7540384
  66.8455342  48.3525808  61.8880384  66.0355342  49.2495808  62.5420384
  65.5749121  48.9765815  63.4914580  65.9665342  50.3615808  61.8340384
  65.4392972  51.1914749  62.0651157  66.7125342  50.2135808  60.7520384
  66.7984635  51.0287965  60.0336090  69.9345342  46.8715808  58.8590384
  69.3185342  46.5125808  57.8600384  71.2695342  46.8575808  58.9230384
  71.7161462  47.2075633  59.7585917  72.1215342  46.3965808  57.8190384
  71.5515241  45.7472923  57.1544993  72.6335342  47.5955808  57.0120384
  73.2143919  48.2352197  57.6765424  73.2731129  47.2320835  56.2077319
  71.5165342  48.4145808  56.4080384  71.0555342  48.1245808  55.3130384
  71.0805342  49.4465808  57.1180384  70.3352139  50.0249497  56.7573630
  71.4958555  49.6493085  58.0160977  73.3035342  45.5765808  58.3470384
  74.4535342  45.8245808  57.9840384  73.0035342  44.5905808  59.1930384
  72.0373743  44.4540540  59.4537965  74.0265342  43.7335808  59.8240384
  74.7393871  44.3530759  60.3682496  73.3795342  42.7495808  60.8090384
  72.5723712  42.2429710  60.2799509  74.1413740  42.0225662  61.0903744
  72.8275342  43.4125808  62.0580384  73.6597768  43.6030034  62.7356905
  72.3736996  44.3595184  61.7657280  71.7925342  42.5505808  62.7580384
  71.1460098  42.0897608  62.0112118  72.3006310  41.7725531  63.3277840
  70.9625342  43.3395808  63.6760384  70.0407958  43.5769548  63.3381757
  71.3215342  43.7545808  64.8950384  72.5275342  43.4815808  65.3990384
  73.1907410  42.9496465  64.8537836  72.7710179  43.8082671  66.3232091
  70.4575342  44.4595808  65.6210384  69.5441737  44.6732334  65.2465720
  70.7190570  44.7778111  66.5432282  74.8785342  42.9545808  58.8230384
  76.0565342  42.6985808  59.0880384  74.2875342  42.5775808  57.6880384
  73.2847802  42.6636253  57.6033035  75.0255342  41.9055808  56.6030384
  75.4898868  40.9997445  56.9928287  74.0915342  41.5175808  55.4300384
  74.6074963  40.8812146  54.7110666  73.2350912  40.9819506  55.8395573
  73.5405342  42.6815808  54.6560384  72.5305342  43.4915808  55.1370384
  72.2445342  44.4195808  54.2380384  71.4756040  45.1664275  54.4356876
  73.0225342  44.2335808  53.1860384  73.0252945  44.7903371  52.3433554
  73.8385342  43.1505808  53.4190384  74.5526924  42.8328456  52.6593518
  76.2385342  42.7045808  56.1070384  77.2585342  42.1175808  55.7540384
  76.1275342  44.0325808  56.1090384  75.2346192  44.4545720  56.3205223
  77.2415342  44.9105808  55.7450384  77.7285238  44.5338757  54.8455754
  76.7395342  46.3355808  55.4710384  76.3158327  46.6325207  56.4304147
  77.6117483  46.9519522  55.2532568  75.6905342  46.5265808  54.3680384
  74.7801214  45.9897714  54.6346563  75.3795342  48.0065808  54.2160384
  76.2894357  48.5440216  53.9489511  74.6342293  48.1431627  53.4324781
  74.9915928  48.3954244  55.1575279  76.1415342  45.9365808  53.0370384
  76.3185762  44.8674651  53.1542873  75.3666591  46.0959328  52.2871873
  77.0623584  46.4238063  52.7164247  78.3445342  44.9485808  56.8110384
  79.5055342  45.1855808  56.4850384  77.9785342  44.7185808  58.0730384
  77.0003523  44.5676087  58.2742023  78.9225342  44.7735808  59.2010384
  79.8225356  45.3145056  58.9086395  78.2785342  45.4995808  60.3910384
  77.2400562  45.1826331  60.4869901  78.8097423  45.2877331  61.3189601
  78.2595342  46.9865808  60.2390384  77.2495342  47.6095808  59.5200384
  76.4588970  47.0065714  59.0735270  77.2405342  48.9895808  59.3670384
  76.4404990  49.4709455  58.8046041  78.2515342  49.7565808  59.9310384
  78.2479598  50.8399466  59.8110154  79.2655342  49.1425808  60.6470384
  80.0598663  49.7401545  61.0942993  79.2685342  47.7655808  60.7940384
  80.0691409  47.2786690  61.3508560  79.4835342  43.4325808  59.6730384
  80.4905342  43.4225808  60.3760384  78.8545342  42.3175808  59.3030384
  78.0433932  42.3688825  58.7034404  79.2465342  41.0055808  59.8330384
  79.2448757  41.0366384  60.9225942  78.2715342  39.9135808  59.3720384
  77.2919905  40.1685254  59.7765090  78.2366342  39.9554250  58.2834011
  78.6525342  38.5055808  59.8140384  79.2810555  38.0718133  59.0362803
  79.2250438  38.5907546  60.7376619  77.4405342  37.6075808  60.0480384
  76.6119760  37.9899625  59.4519055  77.6923253  36.6005418  59.7155129
  77.0335342  37.5705808  61.5210384  77.8898554  37.2102410  62.0910997
  76.7991225  38.5909335  61.8244039  75.8555342  36.6905808  61.7830384
  76.0726896  35.7449668  61.5024008  75.6355294  36.7071616  62.7686463
  75.0618235  37.0245597  61.2552313  80.6925342  40.6325808  59.4750384
  81.0625342  40.6175808  58.3020384  81.4865342  40.3525808  60.5140384
  81.1032880  40.5224876  61.4329254  82.9055342  39.9655808  60.4090384
  83.3434248  39.9032619  61.4052650  83.0485342  38.5925808  59.7210384
  82.6073450  38.6813546  58.7282794  84.1095481  38.3611943  59.6271775
  82.3525342  37.4775808  60.4870384  82.5295342  37.4005808  61.7280384
  81.6395342  36.6665808  59.8480384  83.8295342  41.0115808  59.7550384
  84.8575342  40.6575808  59.1770384  83.4785342  42.2905808  59.8800384
  82.6263957  42.5256128  60.3686273  84.2675342  43.3785808  59.2970384
  84.9665671  42.9745609  58.5647678  83.3565342  44.3915808  58.5970384
  82.7312880  44.8330966  59.3730733  84.0097094  45.1570934  58.1781676
  82.4735342  43.8225808  57.4980384  81.8121804  43.0834502  57.9501422
  81.8790505  44.6402169  57.0904084  83.2705342  43.1725808  56.3830384
  84.0321774  43.8749421  56.0443835  83.7518592  42.2768679  56.7756249
  82.3755342  42.7955808  55.2160384  81.4827577  42.3100330  55.6101120
  82.0909640  43.7080215  54.6920433  83.0645342  41.8745808  54.2700384
  83.3279248  41.0288487  54.7552831  82.4413277  41.6458423  53.5088601
  83.8915982  42.3244716  53.9044396  85.1045342  44.1065808  60.3470384
  84.8355342  44.0265808  61.5500384  86.1235342  44.8105808  59.8590384
  86.3308394  44.7292840  58.8738913  86.9685342  45.6745808  60.6740384
  86.8969384  45.4345674  61.7348715  88.4485342  45.5775808  60.2450384
  88.5317438  45.8760080  59.1999946  89.3255342  46.4875808  61.1060384
  89.2432008  46.1894513  62.1512374  90.3637038  46.4021710  60.7850873
  88.9956910  47.5206717  60.9963654  88.9175342  44.1295808  60.3200384
  88.3101795  43.5154970  59.6551148  89.9625116  44.0693666  60.0159066
  88.8158461  43.7666960  61.3428165  86.4585342  47.1055808  60.5090384
  86.5105342  47.6505808  59.4100384  85.9645342  47.6945808  61.5980384
  85.9912168  47.1918640  62.4736315  85.3535342  49.0275808  61.5800384
  85.2204651  49.4057948  60.5664576  83.9795342  49.0225808  62.2900384
  84.1211875  48.6984964  63.3210587  83.3465342  50.4125808  62.2760384
  83.2041352  50.7371710  61.2452792  82.3817705  50.3781495  62.7821470
  84.0013310  51.1157756  62.7906838  83.0535342  47.9995808  61.6470384
  83.4971010  47.0070449  61.7259253  82.0907917  48.0083903  62.1580656
  82.9087405  48.2497818  60.5960698  86.2725342  50.0445808  62.2620384
  86.8315342  49.7615808  63.3250384  86.4255342  51.2175808  61.6400384
  86.0476641  51.3244538  60.7095054  87.1345342  52.3535808  62.2370384
  87.6356662  52.0369927  63.1517722  88.1865342  52.8985808  61.2660384
  88.8688474  52.0569142  61.1471040  87.6849462  53.0957032  60.3185933
  88.9785342  54.1425808  61.6940384  88.2804129  54.9554322  61.8940384
  89.7895342  53.8535808  62.9440384  90.4882538  53.0410909  62.7446645
  90.3441548  54.7465062  63.2324495  89.1194343  53.5653062  63.7539546
  89.8825342  54.6225808  60.5710384  89.2779242  54.8750347  59.6999396
  90.4328204  55.5045807  60.8987006  90.5862756  53.8329503  60.3077309
  86.1325342  53.4545808  62.5830384  85.4315342  53.9545808  61.6970384
  86.0675342  53.8235808  63.8640384  86.5641992  53.2780329  64.5538216
  85.2595342  54.9595808  64.3250384  84.5091362  55.2108952  63.5754765
  84.5445342  54.6035808  65.6340384  83.9597364  53.7033669  65.4450258
  85.3101819  54.3889682  66.3795752  83.6165342  55.7185808  66.1570384
  83.4805342  56.8145808  65.5470384  83.0095342  55.4805808  67.2230384
  86.1655342  56.1835808  64.5000384  86.9765342  56.2345808  65.4210384
  86.0195342  57.1605808  63.6100384  85.3297977  57.0617362  62.8788800
  86.8585342  58.3575808  63.6140384  87.8450990  58.1591749  64.0328752
  87.0325342  58.9155808  62.1830384  86.0451146  59.0396485  61.7383938
  87.7575342  60.2545808  62.1900384  88.7452829  60.1312100  62.6341479
  87.8622220  60.6170107  61.1674019  87.1848180  60.9753928  62.7735860
  87.7825342  57.9095808  61.3260384  87.2197739  56.9770826  61.2830265
  87.9024985  58.3077549  60.3184842  88.7640904  57.7212459  61.7609846
  86.2295342  59.4035808  64.5370384  85.1825342  59.9735808  64.2110384
  86.8775342  59.6555808  65.6740384  87.7731022  59.2194177  65.8408292
  86.3415342  60.5425808  66.6950384  87.1491281  60.8792449  67.3450757
  85.8751558  61.4052763  66.2192791  85.3055342  59.8205808  67.5300384
  84.1245342  60.1615808  67.4980384  85.7555342  58.8245808  68.2880384
  86.7512294  58.6719837  68.3615542  84.8525342  57.8505808  68.9190384
  84.0069162  57.6486119  68.2615903  85.5955342  56.5275808  69.1860384
  84.9711883  55.9038576  69.8257734  85.7562848  56.0233535  68.2331407
  86.8455342  56.7515808  69.8190384  87.2824021  55.9104096  69.9712794
  84.1425342  58.3335808  70.1900384  83.1205342  57.7585808  70.5670384
  84.6865342  59.3665808  70.8410384  85.5807292  59.7173389  70.5288150
  84.0465342  60.0175808  71.9900384  84.6913655  60.8396671  72.3006280
  83.0904683  60.4151247  71.6494562  83.8055342  59.0995808  73.1810384
  84.7555342  58.5745808  73.7610384  82.5325342  58.9005808  73.5350384
  81.7999427  59.4053394  73.0568881  82.1555342  57.9935808  74.6230384
  82.8393655  58.1039709  75.4646368  80.7145342  58.2525808  75.1200384
  80.4729068  57.5161716  75.8864704  80.5765342  59.6465808  75.6980384
  80.8175697  60.3835967  74.9320038  79.5525932  59.7993390  76.0390792
  81.2600384  59.7609287  76.5393750  79.7915342  58.0815808  74.0400384
  78.8986979  58.2433883  74.3535061  82.2435342  56.5125808  74.2390384
  82.1065342  55.6475808  75.1100384  82.4485342  56.2235808  72.9510384
  82.5852957  56.9834861  72.2999320  82.4845342  54.8555808  72.4370384
  83.2058882  54.8232877  71.6205185  82.8198710  54.2033548  73.2434192
  81.1405342  54.3625808  71.9290384  81.0205342  53.1965808  71.5710384
  80.1365342  55.2435808  71.8780384  80.3033987  56.1943146  72.1752937
  78.7525342  54.8455808  71.5480384  78.4365762  54.0107836  72.1736449
  77.7405342  56.0235808  71.7030384  77.8211604  56.4079923  72.7198115
  78.0115342  57.1535808  70.7080384  77.9306258  56.7700142  69.6909685
  77.2820146  57.9501027  70.8545127  79.0153246  57.5468952  70.8686863
  76.2845342  55.5515808  71.5490384  75.6565516  56.4385282  71.6330795
  76.1936947  55.1364997  70.5452678  75.8385342  54.5195808  72.5640384
  75.9286576  54.9341298  73.5680935  74.7997299  54.2487872  72.3752113
  76.4658028  53.6321017  72.4802832  78.6215342  54.1845808  70.1710384
  77.9895342  53.1315808  70.0550384  79.2345342  54.7745808  69.1470384
  79.7172650  55.6524720  69.2750120  79.1335342  54.2285808  67.7910384
  78.1104708  53.8971290  67.6133303  79.5015342  55.2735808  66.7300384
  80.5613809  55.4485216  66.9150249  79.3740327  54.8292568  65.7429115
  78.7435342  56.6095808  66.7920384  78.9509735  57.0888073  67.7488099
  79.1805342  57.5305808  65.6570384  78.9729716  57.0521970  64.6998730
  78.6320043  58.4704338  65.7194250  80.2492981  57.7280796  65.7397328
  77.2355342  56.4165808  66.7650384  76.9303669  55.8146749  67.6210067
  76.7434966  57.3881298  66.8107842  76.9501909  55.9083880  65.8439422
  79.9765342  52.9595808  67.6280384  79.6075342  52.0785808  66.8480384
  81.0895342  52.8645808  68.3610384  81.3978325  53.6574439  68.9054827
  81.9015342  51.6385808  68.3930384  82.2355278  51.4044289  67.3822365
  83.1305342  51.7945808  69.2900384  82.8372050  52.1596210  70.2743162
  83.6458556  50.8399383  69.3958764  84.3555342  52.9565808  68.6720384
  85.2093377  52.8081811  69.6809464  81.1105342  50.4505808  68.9030384
  81.2085342  49.3535808  68.3500384  80.3485342  50.6765808  69.9710384
  80.3815379  51.5783685  70.4246781  79.5495342  49.6215808  70.5860384
  80.1407781  48.7084850  70.6552190  79.1025342  50.0255808  72.0000384
  78.5918525  50.9859782  71.9297516  78.4053707  49.2695287  72.3612148
  80.2745342  50.1425808  72.9720384  80.8511561  49.2228170  72.8738410
  80.8757607  50.9857770  72.6319664  79.8375342  50.3865808  74.7060384
  78.9445342  51.9395808  74.6020384  78.0831799  51.8206929  73.9447460
  78.6050061  52.2313217  75.5958737  79.6022156  52.7114043  74.2022323
  78.3645342  49.2255808  69.7040384  78.0035342  48.0505808  69.6670384
  77.7785342  50.1865808  68.9880384  78.0176546  51.1554613  69.1435739
  76.7595342  49.8755808  67.9830384  75.9437656  49.3336138  68.4614655
  76.1875342  51.1445808  67.3240384  77.0371842  51.7748421  67.0614268
  75.6183407  50.9096809  66.4246270  75.2805342  51.9835808  68.2050384
  74.5695342  51.4535808  69.2860384  74.6841172  50.3976564  69.5309759
  73.7255342  52.2545808  70.0440384  73.1856346  51.8287976  70.8898030
  73.5695342  53.5935808  69.7260384  72.9095432  54.2242822  70.3216284
  74.2515342  54.1285808  68.6530384  74.1295178  55.1819361  68.4007395
  75.0925342  53.3265808  67.8950384  75.6204223  53.7465185  67.0388337
  77.3385342  48.9805808  66.8890384  76.7185342  47.9805808  66.5140384
  78.5205342  49.3445808  66.3830384  78.9284355  50.2246599  66.6644218
  79.2185342  48.5465808  65.3600384  78.5520635  48.4692712  64.5010045
  80.5015342  49.2415808  64.9200384  81.1828150  49.3182645  65.7674322
  80.9741805  48.6639911  64.1256229  80.2665170  50.2402591  64.5519246
  79.5205342  47.1205808  65.8370384  79.3305342  46.1575808  65.0890384
  79.9735342  46.9955808  67.0820384  80.2013474  47.8268091  67.6085933
  80.2315342  45.6915808  67.6970384  80.9229437  45.1542205  67.0479651
  80.8815342  45.8655808  69.0620384  80.1975409  46.3941314  69.7260319
  81.1118222  44.8867931  69.4828026  81.8014555  46.4406209  68.9563364
  78.9585342  44.8425808  67.8160384  78.9745342  43.6575808  67.4810384
  77.8645342  45.4525808  68.2730384  77.9279896  46.3944353  68.6321802
  76.5805342  44.7495808  68.3860384  76.7392226  43.7749294  68.8475272
  75.5885342  45.5435808  69.2460384  75.5229484  46.5467955  68.8248994
  74.6195117  45.0513649  69.1634615  75.9895342  45.6345808  70.7180384
  76.6896354  44.8238759  70.9198223  76.4904334  46.5914814  70.8648147
  74.8035342  45.5305808  71.6710384  75.0393852  46.1085835  72.5645629
  73.9358304  45.9662353  71.1756651  74.4935342  44.0895808  72.0650384
  73.5300347  44.0883211  72.5747124  74.4191201  43.5066866  71.1469992
  75.5285342  43.4845808  72.9560384  75.5973405  44.0243055  73.8069571
  75.2667378  42.5351131  73.1798101  76.4213255  43.4852620  72.4837859
  75.9515342  44.3855808  67.0330384  75.1995342  43.4155808  66.9500384
  76.2795342  45.1465808  65.9860384  76.7843492  46.0055727  66.1515497
  75.8565342  44.8405808  64.6120384  74.8113352  44.5403493  64.6863307
  75.9435342  46.0885808  63.7460384  76.9852262  46.3962329  63.6547798
  75.5407163  45.8734716  62.7563081  75.3670757  46.8913619  64.2057528
  76.6275342  43.6875808  63.9460384  76.3075342  43.3255808  62.8130384
  77.6415342  43.1375808  64.6240384  77.9532982  43.5889062  65.4720997
  78.3265342  41.9065808  64.1960384  78.2907604  41.2292366  65.0492818
  77.7290469  41.4963969  63.3818778  79.7715342  42.0425808  63.7310384
  80.3315342  41.0835808  63.1900384  80.3875342  43.2055808  63.9440384
  79.8904132  43.9643113  64.3882208  81.7545342  43.4475808  63.4840384
  81.8111730  43.1585024  62.4345981  82.1095342  44.9245808  63.6020384
  82.0660855  45.2267676  64.6484109  83.1166002  45.0885051  63.2185711
  81.4002424  45.5166071  63.0236707  82.7645342  42.5955808  64.2480384
  82.5985342  42.3385808  65.4340384  83.8015342  42.1555808  63.5410384
  83.8426311  42.3804725  62.5572528  84.8695342  41.3275808  64.1100384
  84.4428549  40.5327855  64.7218753  85.6925342  40.6885808  62.9780384
  85.0210784  40.0057177  62.4575152  85.9755986  41.5002485  62.3078369
  86.9405342  39.9355808  63.4180384  87.7231275  40.6627364  63.6345871
  86.7041963  39.3764699  64.3233789  87.4255342  38.9735808  62.3390384
  88.3466145  38.5035590  62.6836971  86.6626287  38.2097190  62.1887391
  87.6875342  39.6365808  61.0540384  86.9589796  39.5503224  60.3598720
  88.7945342  40.3205808  60.7370384  89.7925342  40.4845808  61.6120384
  89.7192175  40.0866110  62.5374274  90.6149991  41.0056586  61.3434698
  88.9015342  40.8615808  59.5220384  88.1507649  40.7511447  58.8555180
  89.7328072  41.3790480  59.2744265  85.7705342  42.1705808  65.0110384
  86.0815342  41.7815808  66.1390384  86.1825342  43.3205808  64.4800384
  85.8709949  43.5442224  63.5456793  87.0665342  44.2605808  65.1570384
  87.1251199  44.0301542  66.2207914  88.4725342  44.1525808  64.5540384
  88.6915039  43.0895677  64.4532680  88.4273694  44.6090369  63.5652472
  89.5685342  44.8205808  65.3710384  89.2431338  45.8332225  65.6093073
  89.6957506  44.2538990  66.2934211  90.8975342  44.8765808  64.6210384
  90.6908495  45.2226852  63.6083232  91.5333371  45.6013805  65.1294865
  91.6095342  43.5295808  64.5620384  90.9403061  42.8210558  64.0739537
  92.5082364  43.6549097  63.9581127  91.9845342  43.0115808  65.9090384
  91.1518752  42.8949693  66.4686637  92.4507251  42.1211558  65.8094919
  92.6049956  43.6677672  66.3613061  86.5155342  45.6815808  64.9860384
  86.1165342  46.0635808  63.8890384  86.4745342  46.4485808  66.0720384
  86.6813623  46.0403227  66.9723977  86.1145342  47.8685808  66.0190384
  86.0430753  48.2204141  64.9898610  84.7755342  48.1665808  66.7380384
  84.8746088  47.9069812  67.7920268  84.4145342  49.6445808  66.6100384
  84.3148273  49.9048374  65.5562709  83.4708339  49.8342448  67.1214656
  85.1998588  50.2513087  67.0608689  83.6505342  47.2925808  66.1910384
  83.8998991  46.2421977  66.3414201  82.7228394  47.5237891  66.7145120
  83.5241568  47.4865837  65.1259128  87.2395342  48.6625808  66.6760384
  87.6245342  48.3675808  67.8000384  87.7725342  49.6515808  65.9660384
  87.4690573  49.7919085  65.0129858  88.8025342  50.5405808  66.5040384
  89.0393288  50.2546879  67.5288764  90.0905342  50.5175808  65.6530384
  89.8351459  50.7478233  64.6186953  91.0965342  51.5475808  66.1710384
  91.3527755  51.3177094  67.2052532  91.9975483  51.5161679  65.5584312
  90.6569367  52.5436437  66.1189621  90.7145342  49.1125808  65.6700384
  91.2191550  48.9980304  66.6293803  89.8946688  48.3973780  65.6036668
  91.6995342  48.8565808  64.5480384  92.5199797  49.5711534  64.6140315
  92.0929064  47.8436179  64.6332667  91.1954936  48.9705034  63.5883174
  88.2445342  51.9555808  66.5410384  87.7935342  52.4655808  65.5220384
  88.2635342  52.5745808  67.7190384  88.5456370  52.0610041  68.5416905
  87.8905342  53.9765808  67.8730384  87.3867576  54.3229902  66.9706478
  87.2217336  54.0861927  68.7267306  89.1255342  54.8215808  68.1030384
  90.0005342  54.4235808  68.8710384  89.2125342  55.9655808  67.4250384
  88.5367117  56.1629210  66.7008699  90.2755342  56.9485808  67.6720384
  90.9555381  56.5505451  68.4252061  91.0705342  57.3065808  66.4000384
  90.3872645  57.7115363  65.6535440  92.1435342  58.3445808  66.7240384
  92.8275001  57.9401456  67.4701774  92.6982350  58.5894028  65.8182404
  91.6715533  59.2458699  67.1152047  91.7285342  56.0565808  65.7990384
  92.5261814  55.7528740  66.4769926  90.9679305  55.2767387  65.7612522
  92.3005342  56.2725808  64.4100384  93.0615902  57.0520159  64.4471127
  92.7480849  55.3452048  64.0525871  91.5033390  56.5758830  63.7313725
  89.6435342  58.2145808  68.2400384  88.7065342  58.7575808  67.6500384
  90.1725342  58.6735808  69.3740384  90.9483826  58.1698609  69.7795318
  89.6675342  59.8555808  70.0780384  89.2098966  60.5475828  69.3710729
  88.6055342  59.4315808  71.1090384  87.7822946  59.0016890  70.5384521
  89.0673976  58.6560529  71.7200529  88.0735342  60.5405808  72.0120384
  87.2652610  60.1154052  72.6070350  88.8763901  60.8684878  72.6723403
  87.5515342  61.7255808  71.2250384  86.5015342  61.5885808  70.5630384
  88.1995342  62.7875808  71.2560384  90.8275342  60.5745808  70.7720384
  91.5635342  59.9495808  71.5440384  90.9645342  61.8745808  70.4990384
  90.3147315  62.3004558  69.8536810  92.0505342  62.6995808  71.0380384
  92.9407559  62.0899045  71.1926325  92.3925342  63.8255808  70.0560384
  93.1305454  64.4926846  70.5014722  92.7943837  63.4031399  69.1350820
  91.0005342  64.8745808  69.5620384  91.7025690  65.6672648  68.7572419
  91.7275342  63.2915808  72.4110384  92.6305342  63.5085808  73.2200384
  90.4475342  63.5665808  72.6580384  89.7702441  63.4031639  71.9268255
  89.9735342  64.1055808  73.9370384  90.5690837  64.9728786  74.2220198
  88.5165342  64.5355808  73.8100384  88.4401768  65.2911659  73.0281434
  87.9168096  63.6677191  73.5357275  88.0425342  65.0685808  75.0260384
  87.1251631  65.3323539  74.9237944  90.0715342  63.0895808  75.0690384
  90.0305342  61.8805808  74.8320384  90.1465342  63.6025808  76.3000384
  90.2160269  64.6042571  76.4091929  90.2315342  62.7645808  77.5010384
  90.9138609  61.9338355  77.3210613  90.7515342  63.5765808  78.6960384
  91.0123431  62.8815322  79.4941521  91.6436320  64.1171973  78.3798178
  89.7835342  64.4985808  79.1700384  90.1435740  64.9860680  79.9145700
  88.9005342  62.0795808  77.8570384  88.8445342  61.2825808  78.8000384
  87.8265342  62.3855808  77.1150384  87.8411018  63.2050724  76.5248514
  86.5785342  61.6035808  77.1950384  86.1917643  61.5589304  78.2131320
  85.4795342  62.1665808  76.2470384  85.3929552  63.2389085  76.4223029
  85.8135342  61.9165808  74.7780384  85.8998220  60.8443743  74.6018895
  85.0215007  62.3248158  74.1502425  86.7580202  62.4018531  74.5319568
  84.0885342  61.6035808  76.5880384  83.4592999  61.7458942  75.7094533
  84.2104760  60.5372281  76.7780953  83.4365342  62.2575808  77.7860384
  83.3138310  63.3239433  77.5965264  82.4602637  61.8054665  77.9609319
  84.0650088  62.1152789  78.6651685  86.8615342  60.1195808  76.8890384
  86.1855342  59.2325808  77.4050384  87.8705342  59.8785808  76.0480384
  88.2487534  60.6677405  75.5437800  88.4185342  58.5435808  75.7660384
  87.7142441  57.9609055  75.1722674  89.7265342  58.6905808  74.9720384
  89.5425409  59.3429691  74.1184371  90.4765142  59.1439537  75.6201765
  90.1955342  57.4355808  74.5140384  91.0112419  57.5586000  74.0230321
  88.6835342  57.6635808  76.9980384  88.4935342  56.4545808  76.9390384
  89.1335342  58.2695808  78.0930384  89.3565511  59.2537571  78.0510890
  89.3595342  57.5535808  79.3660384  90.1058609  56.7733478  79.2165988
  89.8615342  58.5105808  80.4590384  89.0941913  59.2685032  80.6166385
  89.9873678  57.9266173  81.3707689  91.1775342  59.1875808  80.1050384
  91.9195342  58.6705808  79.2350384  91.4625342  60.2495808  80.7040384
  88.0965342  56.8565808  79.8750384  88.1635342  55.7465808  80.4070384
  86.9565342  57.5235808  79.7080384  86.9929328  58.4812502  79.3892222
  85.6575342  56.9625808  80.0670384  85.7435195  56.3943538  80.9932262
  84.6295342  58.0805808  80.2720384  84.5322669  58.6906399  79.3740038
  83.6783552  57.5921154  80.4836043  85.0125342  58.9565808  81.4340384
  84.8505342  58.5085808  82.7450384  84.4194365  57.5218018  82.9139217
  85.2275342  59.2955808  83.8250384  85.0906201  58.9373177  84.8453344
  85.7855342  60.5425808  83.5980384  86.1615342  61.3285808  84.6710384
  85.9906796  60.9122956  85.5190449  85.9635342  61.0055808  82.3060384
  86.3953683  61.9907682  82.1298975  85.5895342  60.2095808  81.2320384
  85.7456807  60.5616115  80.2123361  85.1675342  55.9385808  79.0480384
  84.5625342  54.9385808  79.4330384  85.4355342  56.1775808  77.7640384
  85.8404603  57.0624664  77.4936466  85.0825342  55.2205808  76.7060384
  83.9975135  55.1181698  76.7245122  85.4975342  55.7485808  75.3420384
  86.5823692  55.8478762  75.3049776  85.1700939  55.0543618  74.5681243
  85.0380915  56.7225839  75.1737247  85.6835342  53.8305808  76.9330384
  85.0185342  52.8245808  76.6980384  86.9295342  53.7905808  77.4000384
  87.4471733  54.6522562  77.4983472  87.6165342  52.5295808  77.6950384
  87.5587155  51.8420989  76.8511635  89.1135342  52.7545808  78.0510384
  89.1732102  53.5300123  78.8147425  89.7655342  51.4765808  78.5720384
  89.7066539  50.7007703  77.8086563  90.8109658  51.6725110  78.8103339
  89.2452428  51.1425289  79.4697064  89.8815342  53.2715808  76.8390384
  89.4506036  54.2177671  76.5117276  90.9269196  53.4228066  77.1081106
  89.8167381  52.5441882  76.0298398  86.8895342  51.7765808  78.8180384
  86.6295342  50.5835808  78.6880384  86.5595342  52.4795808  79.9000384
  86.8840279  53.4319495  79.9883384  85.7845342  51.9015808  81.0080384
  86.2689940  50.9895981  81.3568728  85.6905342  52.8845808  82.1790384
  85.3118495  53.8245339  81.7775595  84.9677185  52.4737062  82.8838926
  87.0085342  53.1335808  82.8930384  87.2846316  52.2366379  83.4474430
  87.7763183  53.3520622  82.1508285  86.8855342  54.3025808  83.8520384
  86.6307739  55.1943139  83.2793185  86.0861755  54.0858481  84.5606652
  88.1795342  54.5395808  84.6070384  88.3586012  53.7000095  85.2787196
  88.9996792  54.6142716  83.8929776  88.0945342  55.7965808  85.3970384
  87.3349014  55.7274098  86.0590603  88.9619374  55.9412966  85.8937970
  87.9290354  56.5747272  84.7747865  84.3725342  51.4825808  80.5910384
  83.8895342  50.4285808  81.0160384  83.7205342  52.3085808  79.7730384
  84.1316058  53.2038920  79.5504687  82.3745342  52.0125808  79.2600384
  81.7110225  51.7812904  80.0933187  81.7965342  53.2075808  78.4550384
  82.5710066  53.5720432  77.7801606  80.5645342  52.8055808  77.6460384
  79.7894014  52.4414226  78.3203221  80.1913056  53.6704383  77.0975654
  80.8326307  52.0176516  76.9421982  81.4205342  54.3405808  79.4160384
  80.4575582  54.0769127  79.8533679  82.1810542  54.3576736  80.1966898
  81.3255342  55.7075808  78.7750384  80.5648349  55.6913938  77.9945422
  81.0548919  56.4455368  79.5302025  82.2883310  55.9721537  78.3378619
  82.3735342  50.7285808  78.4270384  81.5335342  49.8495808  78.6390384
  83.3185342  50.6335808  77.4930384  83.9039563  51.4346668  77.3042491
  83.4835342  49.4365808  76.6550384  82.5749382  49.1969201  76.1026660
  84.6495342  49.6135808  75.6410384  85.4847258  50.0799691  76.1635671
  85.1025342  48.2835808  75.0430384  84.2679425  47.8167833  74.5199154
  85.9180187  48.4590642  74.3414038  85.4454617  47.6241601  75.8403256
  84.2435342  50.5755808  74.5330384  83.9975386  51.5454879  74.9653211
  85.0688300  50.6903559  73.8303200  83.3731461  50.1806115  74.0090875
  83.6845342  48.1805808  77.5150384  83.0675342  47.1485808  77.2510384
  84.5385342  48.2825808  78.5320384  85.0678611  49.1352744  78.6452907
  84.7885342  47.1805808  79.4650384  85.0591042  46.2807423  78.9126058
  85.9385342  47.5375808  80.4130384  86.7695895  47.8633919  79.7875039
  85.5935839  48.3731033  81.0221454  86.4015342  46.4015808  81.3230384
  85.5299182  45.9537958  81.8004009  86.9104672  45.6503164  80.7191417
  87.3535342  46.9235808  82.3920384  88.3322190  47.0573784  81.9311986
  86.9774900  47.8886090  82.7317600  87.4775342  45.9795808  83.5820384
  87.8705357  46.5390062  84.4309751  86.4870626  45.5962896  83.8272995
  88.3835342  44.8465808  83.2750384  89.3014966  45.2015089  83.0481664
  88.4468505  44.2387337  84.0791609  88.0193265  44.3278217  82.4886919
  83.5355342  46.8145808  80.2770384  83.2195342  45.6345808  80.4290384
  82.8325342  47.8285808  80.7820384  83.1729478  48.7707150  80.6531933
  81.6255342  47.6285808  81.6000384  81.9154516  46.9752629  82.4229739
  81.1475342  48.9585808  82.1780384  80.8451267  49.6203366  81.3664173
  80.2987031  48.7839182  82.8391579  81.9570632  49.4222696  82.7417359
  80.4835342  46.9395808  80.8440384  79.6835342  46.2255808  81.4520384
  80.4195342  47.1445808  79.5290384  81.0447784  47.8141846  79.1038328
  79.4045342  46.5085808  78.6850384  78.5615919  46.1757172  79.2906366
  78.8975342  47.5185808  77.6550384  79.7400375  47.9063602  77.0824001
  78.2063329  47.0090657  76.9836703  78.1755342  48.6815808  78.3010384
  77.0495342  48.5385808  78.7560384  78.8245342  49.8335808  78.3550384
  78.3839392  50.6386268  78.7767927  79.7574642  49.9024461  77.9742496
  79.8895342  45.2185808  78.0020384  79.2335342  44.7255808  77.0840384
  81.0135342  44.6675808  78.4710384  81.5491731  45.1999796  79.1416663
  81.5785342  43.4015808  77.9730384  82.5680540  43.2476733  78.4034596
  80.6845342  42.2145808  78.3610384  79.7445342  42.3361865  77.8227901
  81.1873204  41.3119659  78.0137740  80.4035342  42.0965808  79.8510384
  81.2341890  42.5476542  80.3938517  79.4865191  42.6428862  80.0718000
  80.2445342  40.6395808  80.2830384  79.8116512  40.0880630  79.4484490
  81.2366136  40.2452107  80.5029253  79.3535342  40.4855808  81.5100384
  78.3211547  40.6150142  81.1851690  79.4899339  39.4733215  81.8905980
  79.6615342  41.4675808  82.5890384  79.5347880  42.4056198  82.2367348
  79.0404383  41.3147111  83.3706845  80.6179869  41.3475268  82.8905089
  81.8825342  43.3865808  76.4650384  81.6845342  42.3705808  75.7890384
  82.3745342  44.5145808  75.9540384  82.4546012  45.3269445  76.5488105
  82.7135342  44.6565808  74.5320384  82.5069007  43.7281964  73.9995873
  81.8665342  45.7755808  73.9130384  82.0347881  46.6245343  74.5756603
  82.2484668  46.0096540  72.9193396  80.3625342  45.4845808  73.8270384
  80.0057380  45.1633272  74.8056054  79.6055342  46.7325808  73.3960384
  79.9614829  47.0541890  72.4172803  78.5399111  46.5104157  73.3395516
  79.7722831  47.5282143  74.1221669  80.0605342  44.3225808  72.8870384
  80.5615273  43.4238781  73.2468146  78.9847041  44.1502585  72.8554816
  80.4191823  44.5617766  71.8859111  84.2105342  44.8955808  74.2710384
  84.5995342  45.1605808  73.1350384  85.0455342  44.7735808  75.3040384
  84.6714908  44.6355573  76.2320149  86.4925342  45.0195808  75.1630384
  86.6438310  45.9102977  74.5532582  87.1805342  45.2345808  76.5310384
  88.2460273  45.3240826  76.3193470  86.8169729  46.1667726  76.9634059
  86.9525342  44.0935808  77.5180384  85.8655342  43.4675808  77.4970384
  87.8585342  43.8435808  78.3460384  87.2465342  43.9785808  74.3080384
  88.3565342  44.2595808  73.8490384  86.6485342  42.8015808  74.1000384
  85.8231980  42.5874803  74.6414074  87.1825342  41.7645808  73.2020384
  88.2636789  41.6955353  73.3222805  86.5605342  40.3875808  73.5270384
  87.1036811  39.5797164  73.0366857  86.6008954  40.2485024  74.6073755
  85.1185342  40.2405808  73.1280384  84.1095342  41.0215808  73.6530384
  82.9535342  40.6555808  73.1310384  82.0313382  41.1633105  73.4136405
  83.1715342  39.6555808  72.2950384  82.4715772  39.1721605  71.7505526
  84.5155342  39.3715808  72.2810384  84.8955284  38.5644911  71.6546904
  87.0025342  42.0965808  71.7130384  87.6825342  41.5295808  70.8590384
  86.0645342  42.9975808  71.4030384  85.4772256  43.3474192  72.1465308
  85.7985342  43.4585808  70.0240384  86.3716392  42.8959945  69.2870536
  84.2885342  43.3315808  69.6810384  83.7207235  43.8674286  70.4416680
  83.9615342  43.9075808  68.3000384  84.5286612  43.3718915  67.5387862
  82.8952195  43.7970798  68.1029014  84.2276786  44.9642748  68.2742202
  83.8555342  41.8775808  69.7570384  84.0257729  41.4994554  70.7650771
  82.7955971  41.8004488  69.5147915  84.4340842  41.2879984  69.0458609
  86.2635342  44.9105808  69.7900384  86.8455342  45.2115808  68.7400384
  85.9925342  45.7975808  70.7510384  85.5590070  45.4673802  71.6014037
  86.2805342  47.2325808  70.6280384  86.4263439  47.5424933  69.5932471
  85.1345342  48.0785808  71.2420384  84.9970065  47.7754786  72.2799760
  85.4545342  49.5695808  71.1860384  85.5917502  49.8735428  70.1483102
  84.6319399  50.1349626  71.6239682  86.3688151  49.7667669  71.7457792
  83.8015342  47.7955808  70.5520384  83.5505760  46.7407913  70.6640262
  83.0200965  48.4046731  71.0064185  83.8813330  48.0390357  69.4925750
  87.5875342  47.5855808  71.3420384  87.7505342  47.2625808  72.5170384
  88.5115342  48.2385808  70.6380384  88.4208261  48.2943607  69.6336680
  89.6755342  48.8735808  71.2680384  89.6268453  48.7281085  72.3471892
  91.0305342  48.3315808  70.7570384  91.8262311  48.9761664  71.1305035
  91.2685342  46.9035808  71.2330384  90.4734326  46.2582730  70.8595536
  92.2289610  46.5502584  70.8577480  91.2736786  46.8793815  72.3227579
  91.0645342  48.3705808  69.3300384  91.9082212  48.0327764  69.0207152
  89.6315342  50.3695808  70.9970384  89.2925342  50.7925808  69.8970384
  89.9765342  51.1575808  72.0100384  90.2041166  50.7358887  72.8991286
  90.0315342  52.6065808  71.9000384  89.5963344  52.9633432  70.9665391
  89.3215342  53.2855808  73.0910384  89.7951322  52.9578363  74.0164512
  89.4145342  54.7985808  72.9830384  88.9407047  55.1271392  72.0580327
  88.9075222  55.2558574  73.8327076  90.4621743  55.0994867  72.9808004
  87.8575342  52.8245808  73.2100384  87.8883188  51.7502140  73.3913921
  87.4476787  53.3286684  74.0852605  86.9805342  53.1085808  72.0070384
  87.3895271  52.6044071  71.1314623  85.9715575  52.7430169  72.1979001
  86.9488890  54.1828620  71.8253293  91.5015342  53.0225808  71.8700384
  92.2985342  52.5545808  72.6880384  91.8455342  53.8895808  70.9180384
  91.1598749  54.1307286  70.2167408  93.1695342  54.5005808  70.8310384
  93.8482242  54.0446983  71.5519061  93.7675342  54.3725808  69.4060384
  93.0501172  54.7690133  68.6875299  95.0825342  55.1475808  69.2940384
  95.8006560  54.7513845  70.0119732  95.4821348  55.0423258  68.2854049
  94.9026771  56.2017653  69.5048595  93.9855342  52.8945808  69.0470384
  94.8497944  52.5527708  69.6165303  93.0980120  52.3531625  69.3745594
  94.2185342  52.6365808  67.5730384  95.1062214  53.1773390  67.2448739
  94.3628787  51.5687166  67.4089349  93.3544392  52.9777331  67.0029026
  93.0245342  55.9765808  71.1990384  92.2445342  56.6935808  70.5700384
  93.7735342  56.4235808  72.2120384  94.3026089  55.7731993  72.7752287
  93.8015342  57.8345808  72.5760384  92.8468044  58.2922145  72.3168829
  94.0425342  58.0225808  74.0710384  93.3073684  57.4199680  74.6044128
  95.0440336  57.6551650  74.2948793  93.9245342  59.4755808  74.5130384
  94.7567273  60.0334591  74.0837049  92.9848001  59.8749833  74.1316207
  93.9535342  59.6075808  76.0220384  93.1897297  58.9553383  76.4454547
  94.9348462  59.2983600  76.3819115  93.6875342  61.0395808  76.4470384
  94.4483778  61.6862028  76.0098913  92.7043425  61.3399955  76.0848449
  93.7275342  61.1595808  77.9320384  94.6386396  60.8816661  78.2678213
  93.5487606  62.1175856  78.1973058  93.0223088  60.5608072  78.3372869
  94.8715342  58.5705808  71.7690384  96.0655342  58.4145808  72.0130384
  94.4305342  59.3755808  70.8090384  93.4410058  59.4251957  70.6128975
  95.3335342  60.2005808  70.0180384  95.8118389  60.9246274  70.6776446
  96.0931810  59.5577881  69.5732309  94.6085342  60.9425808  68.9150384
  93.4175342  60.7315808  68.6870384  95.3395342  61.8225808  68.2400384
  96.2522328  62.0828999  68.5854579  94.8535342  62.4595808  67.0150384
  93.8321614  62.8069720  67.1706534  95.7285342  63.6645808  66.6190384
  96.6740776  63.5514537  67.1493678  95.9025829  63.5847489  65.5459895
  95.1305342  65.0255808  66.9350384  94.2527749  65.1767826  66.3067252
  94.8334075  65.0425573  67.9836229  96.1425342  66.1425808  66.6740384
  96.6113404  66.3929369  67.6256904  96.8961322  65.7526750  65.9898140
  95.5095342  67.3965808  66.0730384  94.5176727  67.5160800  66.5089640
  96.1301215  68.2508134  66.3436992  95.3935342  67.3175808  64.5900384
  94.8181671  66.5263458  64.3390411  94.9712414  68.1655574  64.2397465
  96.3125479  67.2072776  64.1858773  94.8475342  61.4335808  65.8820384
  95.7955342  60.6585808  65.7440384  93.7945342  61.4495808  65.0660384
  93.0184257  62.0610875  65.2753573  93.6905342  60.5665808  63.8930384
  93.7241113  59.5121066  64.1670017  92.3855342  60.8315808  63.1070384
  92.2658184  61.9096648  62.9997902  92.4065342  60.1825808  61.7260384
  92.5257657  59.1043637  61.8324941  91.4702074  60.3948689  61.2099703
  93.2386533  60.5842907  61.1478441  91.1785342  60.3485808  63.9000384
  91.1325201  60.8784692  64.8514600  90.2686507  60.5428498  63.3321730
  91.2692619  59.2782098  64.0849040  94.8965342  60.7405808  62.9690384
  95.4635342  59.7565808  62.4910384  95.3055342  61.9915808  62.7660384
  94.8020245  62.7491241  63.2050207  96.3985342  62.3225808  61.8550384
  96.3131575  61.7261311  60.9467115  96.3545342  63.8125808  61.4710384
  96.4489424  64.3783591  62.3979048  97.2242422  64.0000938  60.8413187
  95.0865342  64.2505808  60.7330384  95.3830913  65.0825673  60.0943262
  94.7628885  63.4145937  60.1129754  93.9305342  64.6905808  61.6420384
  93.9945342  64.4545808  62.8760384  92.9425342  65.2605808  61.1120384
  97.7985342  61.9655808  62.3880384  98.7735342  62.1025808  61.6470384
  97.8995342  61.5275808  63.6500384  97.0570718  61.4705834  64.2042114
  99.1835342  61.1775808  64.2900384 100.0087636  61.3453258  63.5979710
  99.3955342  62.0565808  65.5270384  98.4956601  61.9683561  66.1357601
 100.2433536  61.6391097  66.0701960  99.6605342  63.5235808  65.2240384
 100.6281139  63.5918889  64.7268218  98.8791078  63.8664096  64.5458495
  99.6685342  64.3985808  66.4740384  99.7575342  63.8545808  67.6040384
  99.5875342  65.6435808  66.3240384  99.3495342  59.7085808  64.7160384
 100.4325342  59.3385808  65.1560384  98.3125342  58.8795808  64.5960384
  97.4285995  59.2223762  64.2478287  98.3835342  57.4835808  65.0720384
  99.3236751  57.2671919  65.5793945  97.2075342  57.1015808  66.0190384
  97.3278898  56.0640209  66.3306204  97.1925342  58.0035808  67.2500384
  97.0717372  59.0413317  66.9392620  96.3635999  57.7202448  67.8986439
  98.1315399  57.8942985  67.7926500  95.8545342  57.1195808  65.3150384
  95.8637931  56.4065193  64.4906843  95.0723372  56.8455876  66.0229898
  95.6592270  58.1195178  64.9276344  98.4775342  56.4815808  63.9200384
  98.1335342  56.7965808  62.7770384  98.9675342  55.2845808  64.2430384
  99.3635533  55.1648884  65.1644189  98.9605342  54.1355808  63.3360384
  98.6297645  54.4500112  62.3461778 100.3655342  53.5345808  63.2150384
 100.6697573  53.2571919  64.2242970 100.2646549  52.6358480  62.6065954
 101.4195342  54.4485808  62.6000384 101.4777686  55.3334595  63.2338358
 102.3693807  53.9149611  62.6338149 101.1245342  54.8705808  61.1640384
 101.6165342  55.9435808  60.7530384 100.4035342  54.1495808  60.4390384
  98.0105342  53.0835808  63.8920384  97.8725342  52.9585808  65.1060384
  97.3435342  52.3455808  63.0070384  97.4133455  52.5648218  62.0235959
  96.4745342  51.2295808  63.4130384  96.0717062  51.4217266  64.4074773
  95.3055342  51.0655808  62.4340384  95.7973277  50.9299676  61.4707900
  94.7884954  50.1465521  62.7100043  94.2915342  52.2115808  62.3330384
  94.8060129  53.1213218  62.0235488  93.2215342  51.8655808  61.3160384
  92.7062730  50.9561405  61.6251064  92.5046471  52.6839535  61.2494078
  93.6833703  51.7075555  60.3414432  93.6365342  52.5315808  63.6650384
  94.4006092  52.8240577  64.3852787  92.9283249  53.3498857  63.5349697
  93.1098127  51.6508354  64.0323950  97.2925342  49.9365808  63.4690384
  98.3535342  49.8575808  62.8570384  96.8085342  48.9225808  64.2120384
  95.6175342  48.9275808  65.0840384  94.7590158  49.2839063  64.5147596
  95.7950691  49.5940034  65.9281126  95.4745342  47.4965808  65.5060384
  94.7658119  46.9927067  64.8488302  95.1103452  47.4548009  66.5325481
  96.8305342  46.9005808  65.4000384  96.7506931  45.8348981  65.1854580
  97.4271816  47.0456363  66.3006329  97.4825342  47.6195808  64.2220384
  98.5470170  47.8043298  64.3664080  97.2745342  46.8095808  62.9350384
  98.0325342  45.8705808  62.6740384  96.2395342  47.1625808  62.1700384
  95.6002876  47.8585032  62.5266266  95.9445342  46.5485808  60.8770384
  96.6393810  45.7390450  60.6535679  94.5005342  45.9935808  60.8110384
  94.3144732  45.5944944  59.8139373  94.3205342  44.8905808  61.8390384
  94.5059915  45.2890465  62.8365010  93.3020240  44.5060337  61.7855510
  95.0241980  44.0837770  61.6340346  93.4485342  47.0835808  61.0200384
  93.5530416  47.8434113  60.2455465  92.4528005  46.6436378  60.9646826
  93.5888445  47.5417390  61.9990711  96.1865342  47.5765808  59.7770384
  96.0745342  48.7835808  60.0080384  96.5195342  47.0905808  58.5870384
  96.5778342  46.0897005  58.4648129  96.8765342  47.9495808  57.4570384
  97.5691418  48.7287860  57.7752100  97.5565342  47.1015808  56.3730384
  98.3576672  46.5586761  56.8745757  96.8018518  46.3957944  56.0260226
  98.1275342  47.8625808  55.1800384  98.4816298  47.1082277  54.4774229
  97.3112562  48.4254024  54.7272458  99.2665342  48.8095808  55.5230384
  99.5955342  49.6615808  54.6730384  99.8475342  48.7055808  56.6210384
  95.6715342  48.7045808  56.8690384  95.7975342  49.8735808  56.4920384
  94.5235342  48.0265808  56.7840384  94.5041680  47.0712547  57.1112637
  93.2865342  48.6005808  56.2360384  93.3708380  49.6869196  56.2067115
  93.0255342  48.0905808  54.8130384  92.9355417  47.0068517  54.8874146
  92.0690824  48.5138616  54.5062270  94.0865342  48.4405808  53.7850384
  95.0584279  48.1441835  54.1795915  93.8792429  47.8809476  52.8729293
  94.0985342  49.9305808  53.4740384  93.1326490  50.2034832  53.0489632
  94.2530814  50.4773393  54.4042372  95.2015342  50.2825808  52.4910384
  96.1244516  49.7935328  52.8027374  94.9200547  49.9280547  51.4994842
  95.4105342  51.7565808  52.4500384  95.6717872  52.0852327  53.3686431
  96.1459656  51.9741667  51.7928497  94.5555787  52.2099050  52.1608200
  92.0805342  48.2355808  57.0870384  92.1105342  47.2635808  57.8470384
  91.0165342  49.0225808  56.9230384  91.1280630  49.8718751  56.3879123
  89.7185342  48.7565808  57.5370384  89.6848289  47.7690166  57.9971254
  89.3455342  49.8145808  58.6070384  88.4279982  49.5066523  59.1084434
  90.4655342  49.9455808  59.6330384  91.3833485  50.2539509  59.1324130
  90.1905991  50.6917246  60.3785453  90.6245601  48.9848585  60.1227578
  89.0275342  51.1735808  57.9830384  88.1857121  51.0714700  57.2981947
  88.7716316  51.8839735  58.7691400  89.8982174  51.5355822  57.4362600
  88.6555342  48.6865808  56.4470384  88.8015342  49.2935808  55.3810384
  87.5925342  47.9395808  56.7320384  87.5407880  47.5014478  57.6405874
  86.5065342  47.6945808  55.7800384  86.9025140  47.6676022  54.7648678
  85.8295342  46.3505808  56.0780384  85.3885471  46.4189401  57.0725014
  85.0410124  46.1974546  55.3412306  86.8025342  45.1755808  56.0330384
  87.4775342  44.9995808  54.9890384  86.8815342  44.4295808  57.0400384
  85.4595342  48.8005808  55.8240384  84.8895342  49.1585808  54.8000384
  85.1925342  49.3195808  57.0210384  85.6980202  48.9817499  57.8275454
  84.1715342  50.3425808  57.2230384  83.8691066  50.7923817  56.2773556
  82.9275342  49.7615808  57.9390384  83.2297763  49.3644516  58.9080784
  81.8685342  50.8475808  58.1410384  81.5654373  51.2448937  57.1723407
  81.0015956  50.4210388  58.6455976  82.2831708  51.6514690  58.7492648
  82.3565342  48.5725808  57.1500384  81.9942825  48.9684909  56.2012868
  83.1855549  47.8894402  56.9652598  81.2365342  47.8295808  57.8470384
  80.4069107  48.5120082  58.0317478  80.8970325  47.0081019  57.2161579
  81.5981830  47.4329592  58.7957224  84.7395342  51.4945808  58.0500384
  85.4505342  51.2715808  59.0280384  84.4355342  52.7195808  57.6350384
  84.0658415  52.8479688  56.7039406  84.6655342  53.9025808  58.4570384
  85.1915440  53.6177843  59.3682485  85.4745342  54.9905808  57.7140384
  85.0643976  55.1081383  56.7110087  85.4025342  56.3315808  58.4560384
  85.8129476  56.2149205  59.4590598  85.9797885  57.0795848  57.9125605
  84.3636433  56.6542779  58.5243852  86.9355342  54.5415808  57.5700384
  87.3454897  54.4798475  58.5781189  86.9155124  53.5467907  57.1249638
  87.8045342  55.4555808  56.7260384  87.8254179  56.4505056  57.1707725
  88.8178108  55.0562234  56.6826394  87.3954389  55.5174505  55.7176174
  83.3045342  54.4425808  58.8940384  82.4095342  54.6235808  58.0710384
  83.1665342  54.6925808  60.1930384  83.8750668  54.3626002  60.8327210
  81.9925342  55.3565808  60.7450384  81.3360584  55.6920336  59.9421623
  81.1975342  54.4475808  61.7160384  80.3571401  55.0107223  62.1218827
  80.6755342  53.2105808  60.9830384  81.5154386  52.6466432  60.5772852
  80.1194703  52.5827422  61.6792513  80.0192072  53.5196597  60.1695249
  82.0385342  54.0205808  62.9300384  82.9278945  53.5195647  62.5477793
  82.3318029  54.9288833  63.4564219  81.3105342  53.0975808  63.8840384
  81.0173371  52.1887932  63.3584527  81.9681330  52.8403575  64.7143994
  80.4212437  53.5981113  64.2670936  82.4705342  56.6345808  61.4210384
  83.5465342  56.6585808  62.0260384  81.6995342  57.7075808  61.2860384
  80.8587144  57.6756854  60.7273757  82.0665342  58.9725808  61.9110384
  82.4012123  58.7873518  62.9317147  83.1945342  59.6675808  61.1450384
  84.0231766  58.9702937  61.0215808  82.8255928  59.9698238  60.1649204
  83.6425342  60.8145808  61.8570384  84.3490982  61.2402616  61.3659549
  80.8975342  59.9245808  62.0030384  80.1245342  60.0655808  61.0560384
  80.7815342  60.5695808  63.1570384  81.2514152  60.2159571  63.9781727
  79.9325342  61.7295808  63.3000384  79.2965559  61.8289037  62.4203989
  79.0435342  61.6015808  64.5320384  78.7347740  60.5588404  64.6059225
  79.6480289  61.8633775  65.4004558  77.8145342  62.4905808  64.4850384
  77.4555130  62.5618507  63.4583324  77.0552770  62.0104733  65.1023912
  78.0945342  63.8795808  65.0190384  77.9055342  64.0875808  66.2430384
  78.5315342  64.7445808  64.2250384  80.8645342  62.9335808  63.3440384
  81.4915342  63.2145808  64.3590384  80.9445342  63.6155808  62.2050384
  80.3082234  63.3553209  61.4651245  81.9255342  64.6765808  61.9390384
  82.5988034  64.7867784  62.7891351  82.7585342  64.3175808  60.6950384
  83.4016612  65.1501856  60.4099838  83.3719453  63.4431038  60.9121024
  81.9325342  63.9745808  59.4800384  81.5515342  62.7285808  59.0800384
  81.8827394  61.8932908  59.6970421  80.8005342  62.8055808  57.9360384
  80.4058159  62.0198826  57.4390723  80.6765342  64.1185808  57.5730384
  80.0115342  64.6935808  56.4860384  79.4934268  64.0379970  55.7861290
  80.0545342  66.0625808  56.3690384  79.5471564  66.5480938  55.5354049
  80.7425342  66.8575808  57.3060384  80.7709199  67.9427771  57.2078414
  81.4065342  66.2815808  58.3850384  81.9262157  66.9390352  59.0820216
  81.3785342  64.8885808  58.5270384  81.2975342  66.0595808  61.7400384
  82.0195342  67.0555808  61.6080384  79.9665342  66.1215808  61.7370384
  79.4313711  65.3220591  62.0443900  79.2465342  67.2995808  61.2840384
  79.7398993  67.7191822  60.4073259  77.8075342  66.9375808  60.9090384
  77.3600387  66.4606119  61.7810176  77.2868625  67.8719540  60.6994015
  77.6895342  66.0125808  59.7100384  76.7071393  66.1893706  59.2721499
  78.4617826  66.3148412  59.0026678  77.8705342  64.2545808  60.0700384
  76.3775342  63.9525808  61.0090384  75.5078899  64.1859087  60.3947291
  76.3407382  62.9047109  61.3068899  76.3732342  64.5829024  61.8982951
  79.2255342  68.3655808  62.3680384  78.7935342  68.1025808  63.4900384
  79.6865342  69.5645808  62.0250384  80.1369190  69.6921434  61.1300632
  79.5635342  70.7165808  62.9060384  79.4648875  70.3740072  63.9360925
  80.4544631  71.3377725  62.8140277  78.3515342  71.5395808  62.5440384
  77.5825342  71.1805808  61.6420384  78.1885342  72.6535808  63.2490384
  78.7723884  72.8303757  64.0539963  77.1655342  73.6365808  62.9070384
  76.1810872  73.1715827  62.9593839  77.1985342  74.8255808  63.8770384
  78.1648183  75.3102868  63.7375592  76.4037248  75.5066470  63.5728563
  77.0215342  74.4635808  65.3380384  75.9455342  73.6815808  65.7590384
  75.2312853  73.3252934  65.0167398  75.7765342  73.3565808  67.0940384
  74.9283446  72.7493161  67.4101173  76.6925342  73.8105808  68.0320384
  76.5355342  73.4855808  69.3630384  75.7609488  72.9429349  69.5278186
  77.7665342  74.5865808  67.6410384  78.4857740  74.9447048  68.3776128
  77.9265342  74.9095808  66.3010384  78.7710111  75.5220888  65.9851383
  77.4145342  74.1255808  61.4730384  78.5675342  74.2995808  61.0640384
  76.3395342  74.3195808  60.7130384  75.4259871  74.1466165  61.1075183
  76.4275342  74.6775808  59.2930384  75.4341735  74.6747733  58.8443451
  77.0295342  76.0815808  59.1430384  76.6728378  76.7262390  59.9463333
  78.1174537  76.0248783  59.1793178  76.6235342  76.9305808  57.6020384
  77.3052094  78.0404735  57.8710282  77.2175342  73.6285808  58.4870384
  77.9105342  73.9585808  57.5220384  77.1035342  72.3675808  58.9180384
  76.5705853  72.2464003  59.7673793  77.8085342  71.2015808  58.3650384
  77.4913783  70.3050438  58.8977041  77.5105342  71.0145808  56.8660384
  76.4249150  71.1048059  56.8287630  77.9626388  71.8513581  56.3335863
  77.9385342  69.6925808  56.2020384  79.0279297  69.6738811  56.1709156
  77.4305342  68.4625808  56.9460384  76.3411242  68.4803422  56.9771708
  77.7641330  67.5619829  56.4305424  77.8226455  68.4648065  57.9630655
  77.4665342  69.6645808  54.7600384  77.9080023  70.4998465  54.2164057
  77.7720878  68.7271531  54.2953152  76.3800084  69.7466033  54.7311800
  79.3185342  71.1605808  58.6400384  79.8015342  70.1975808  59.2470384
  80.0555342  72.1915808  58.2170384  79.5923959  73.0065658  57.8410045
  81.5295342  72.1395808  58.1680384  81.8745706  71.1063545  58.2066719
  82.0155342  72.7695808  56.8580384  81.6835687  73.8063263  56.8027493
  83.1032352  72.7331754  56.7973640  81.4915342  72.0825808  55.6230384
  81.7905342  70.7495808  55.3770384  82.4064190  70.2029135  56.0911398
  81.3155342  70.1115808  54.2380384  81.5603607  69.0644314  54.0601655
  80.5345342  70.8015808  53.3320384  80.1599248  70.3017519  52.4387642
  80.2275342  72.1325808  53.5610384  79.6103150  72.6805319  52.8490762
  80.7055342  72.7675808  54.6960384  80.4686487  73.8164872  54.8743092
  82.2985342  72.7555808  59.3530384  83.5225342  72.6295808  59.4080384
  81.6115342  73.3965808  60.3010384  80.6129285  73.5213758  60.2155278
  82.2935342  74.0025808  61.4540384  83.0544600  74.6984945  61.1007747
  81.3075342  74.7655808  62.3430384  80.7363498  75.4315217  61.6962230
  80.6391227  74.0250281  62.7822511  81.9605342  75.5705808  63.4440384
  82.7415342  76.6855808  63.1470384  82.8777391  76.9689143  62.1033575
  83.3415342  77.4315808  64.1530384  83.9465624  78.3035096  63.9044768
  83.1625342  77.0695808  65.4720384  83.7655342  77.8105808  66.4570384
  84.2786169  78.5453069  66.1127661  82.3905342  75.9675808  65.7950384
  82.2481658  75.6816650  66.8371919  81.7965342  75.2255808  64.7850384
  81.1887558  74.3554880  65.0333208  83.0325342  72.9225808  62.2550384
  82.5765342  71.7815808  62.3280384  84.1835342  73.2965808  62.8160384
  84.4239459  74.2749066  62.7440651  85.1705342  72.3745808  63.4180384
  85.8403787  72.9590724  64.0487342  84.5385342  71.2595808  64.2720384
  84.0458494  70.5817364  63.5749818  85.3644648  70.7414978  64.7594075
  83.5395342  71.7205808  65.3220384  84.0631760  72.3524138  66.0394554
  82.7704832  72.3052345  64.8172219  82.8945342  70.5595808  66.0490384
  83.6315342  69.6325808  66.4630384  81.6535342  70.5775808  66.2110384
  86.1335342  71.7405808  62.4040384  87.2295342  71.3415808  62.7880384
  85.7275342  71.6395808  61.1350384  84.7748880  71.9017038  60.9256200
  86.5475342  71.0705808  60.0550384  85.9539212  71.0067607  59.1430900
  87.7795342  71.9415808  59.7780384  88.4433951  71.9004706  60.6415764
  88.2987275  71.5519936  58.9023899  87.3985342  73.2775808  59.5420384
  88.1803018  73.8077769  59.3707741  86.9555342  69.6235808  60.3200384
  88.0865342  69.2235808  60.0370384  86.0205342  68.8445808  60.8580384
  85.1274412  69.2343386  61.1236941  86.2825342  67.4435808  61.1660384
  87.3213600  67.3259821  61.4744388  85.3795342  66.9535808  62.2960384
  85.2573850  67.7735781  63.0036988  84.4117374  66.7009974  61.8628283
  85.9415342  65.7435808  63.0170384  86.1503413  64.9772908  62.2705131
  86.8720957  66.0442173  63.4984687  84.8295342  65.0755808  64.2510384
  85.2485342  63.3345808  64.1430384  86.3038969  63.1989815  64.3795158
  84.6425038  62.7698623  64.8515021  85.0541450  62.9755738  63.1323812
  86.1455342  66.5315808  59.9480384  86.6645342  65.4215808  59.9700384
  85.4625342  66.9775808  58.8910384  84.9211788  67.8284946  58.9456217
  85.4275342  66.2085808  57.6390384  84.9851683  65.2313898  57.8327117
  84.6015342  66.9145808  56.5580384  83.6366735  67.0722235  57.0400050
  85.0724718  67.8784598  56.3650229  84.3945342  66.1705808  55.2290384
  85.3575258  66.0968304  54.7237574  83.8265342  64.7725808  55.4460384
  82.8632605  64.8455440  55.9508937  83.6948961  64.2797670  54.4827592
  84.5147566  64.1914588  56.0598362  83.4795342  66.9645808  54.3170384
  83.9247419  67.9384135  54.1132261  83.3424080  66.4250448  53.3799159
  82.5127992  67.1018377  54.8014793  86.8415342  65.9455808  57.1180384
  87.1265342  64.8435808  56.6560384  87.7105342  66.9525808  57.2290384
  87.3756776  67.8410423  57.5734312  89.1255342  66.8425808  56.8440384
  89.2015960  66.7195225  55.7636818  89.9055342  68.1035808  57.2510384
  89.8800968  68.2064450  58.3358753  90.9369926  67.9751565  56.9228602
  89.3525342  69.3765808  56.6290384  88.1505342  69.6465808  56.6990384
  90.2305342  70.1735808  56.0350384  89.9182222  71.0325273  55.6051875
  91.2074402  69.9179158  56.0152682  89.8125342  65.6225808  57.4780384
  90.6265342  64.9495808  56.8360384  89.4895342  65.3645808  58.7440384
  88.9131015  66.0280178  59.2417089  89.9895342  64.2005808  59.4700384
  91.0720091  64.1288681  59.3641866  89.6455342  64.3005808  60.9750384
  88.5623243  64.3637105  61.0788222  90.1605342  63.0885808  61.7470384
  91.2438011  63.0250516  61.6440994  89.9016385  63.1915364  62.8008279
  89.7044276  62.1824823  61.3482240  90.2345342  65.4855808  61.5220384
  90.0208926  65.5473396  62.4559246  89.4485342  62.8865808  58.8930384
  90.1985342  61.9255808  58.7540384  88.1555342  62.8505808  58.5690384
  87.5670267  63.6394135  58.7959770  87.5285342  61.6625808  57.9640384
  87.7365997  60.7706464  58.5550215  85.9875342  61.8195808  57.8270384
  85.7821833  62.7415852  57.2831284  85.3665342  60.6405808  57.0820384
  85.5710843  59.7182080  57.6256271  84.2888922  60.7853258  57.0056387
  85.7956190  60.5752331  56.0821796  85.3385342  61.9575808  59.1950384
  85.7386230  62.8364797  59.7005756  84.2604141  62.0663003  59.0769843
  85.5506329  61.0690363  59.7896843  88.1595342  61.3485808  56.5990384
  88.3815342  60.1825808  56.2790384  88.4545342  62.3885808  55.8130384
  88.1944661  63.3197238  56.1053338  89.0855342  62.2225808  54.4970384
  88.5369248  61.4732236  53.9264328  89.0885342  63.5415808  53.7020384
  89.7513138  64.1561581  54.3112323  89.5643409  63.3353065  52.7433106
  87.7665342  64.2915808  53.4670384  87.3921344  64.6569813  54.4232853
  87.9785342  65.4655808  52.5240384  88.3525157  65.1008979  51.5673550
  87.0321519  65.9839360  52.3698658  88.7031108  66.1546106  52.9580052
  86.6615342  63.3865808  52.9410384  86.4695046  62.5908047  53.6607359
  85.7525774  63.9699192  52.7940180  86.9700767  62.9500024  51.9911438
  90.5125342  61.6875808  54.6330384  90.9335342  60.8255808  53.8550384
  91.2525342  62.2045808  55.6150384  90.9211871  63.0172410  56.1149302
  92.5775342  61.6665808  55.9590384  93.2380366  61.7398705  55.0950567
  93.2015342  62.4525808  57.1220384  93.2965213  63.4842945  56.7834480
  92.5004877  62.4073260  57.9554565  94.5555342  61.9425808  57.5730384
  94.6625342  60.8325808  58.4230384  93.7495628  60.3429812  58.7619704
  95.8955342  60.3565808  58.8320384  95.9622099  59.4799530  59.4763830
  97.0495342  60.9965808  58.4120384  98.2735342  60.5275808  58.8350384
  98.2035636  59.7621898  59.4102605  96.9745342  62.1025808  57.5800384
  97.8839856  62.6064880  57.2528134  95.7335342  62.5685808  57.1630384
  95.6697487  63.4356759  56.5056363  92.4895342  60.1775808  56.3100384
  93.3065342  59.3795808  55.8370384  91.5045342  59.8245808  57.1390384
  90.9300782  60.5486543  57.5462449  91.2655342  58.4365808  57.5460384
  92.1951025  58.0603127  57.9731500  90.1805342  58.3735808  58.6110384
  89.2412690  58.7386650  58.1955935  90.0546143  57.3425830  58.9416258
  90.4673975  58.9943019  59.4598694  90.8995342  57.5345808  56.3730384
  91.3395342  56.3855808  56.3070384  90.0975342  58.0685808  55.4540384
  89.7132930  58.9869027  55.6247513  89.7025342  57.3675808  54.2320384
  89.2614570  56.4018579  54.4788772  88.6635342  58.2005808  53.4680384
  87.7983045  58.2775420  54.1264863  89.1082877  59.1869928  53.3365638
  88.2235342  57.6565808  52.1120384  89.0844931  57.2127627  51.6121623
  87.4608484  56.8934520  52.2671090  87.6575342  58.7685808  51.2510384
  87.2241698  58.3285959  50.3528694  86.8796682  59.2845125  51.8139223
  88.6735342  59.7445808  50.8520384  89.6331365  59.4982134  51.0484205
  88.4245342  60.9155808  50.2570384  87.1785342  61.3015808  49.9770384
  86.4016242  60.7022365  50.2164067  87.0178733  62.1913750  49.5269785
  89.4355342  61.7185808  49.9350384  90.3838776  61.4392220  50.1416869
  89.2499284  62.6037536  49.4854628  90.9005342  57.0705808  53.3310384
  91.0725342  55.9335808  52.8960384  91.7055342  58.0935808  53.0480384
  91.5088563  59.0027922  53.4414234  92.8665342  57.9565808  52.1530384
  92.5336226  57.5637217  51.1923455  93.5675342  59.3085808  51.9160384
  93.8359674  59.7045373  52.8954573  94.4736055  59.1193907  51.3404152
  92.6955342  60.3275808  51.1750384  91.6915342  59.9515808  50.5280384
  93.0365342  61.5265808  51.2390384  93.8965342  56.9785808  52.7110384
  94.4755342  56.1995808  51.9620384  94.1115342  57.0225808  54.0240384
  93.5823291  57.6684357  54.5922924  95.1355342  56.2075808  54.6730384
  96.0262909  56.1569847  54.0468661  95.5185342  56.8265808  56.0190384
  95.7059447  57.8848633  55.8373391  94.6534325  56.7184171  56.6732553
  96.7355342  56.2035808  56.6820384  96.5103308  55.1640849  56.9204341
  97.5723321  56.2427974  55.9846622  97.1025342  56.9465808  57.9550384
  97.4542262  57.9408394  57.6796086  96.2055118  57.0358744  58.5678000
  98.1855342  56.2265808  58.7440384  98.0424040  56.4474817  59.8017799
  98.0740327  55.1549528  58.5788713  99.5485342  56.6525808  58.3290384
  99.6522073  57.6454702  58.4824076 100.2375369  56.1539983  58.8738235
  99.6815195  56.4475861  57.3490429  94.6975342  54.7545808  54.8790384
  95.4585342  53.8325808  54.5720384  93.4825342  54.5615808  55.3970384
  92.8520731  55.3451584  55.4899051  93.0515342  53.2565808  55.9130384
  93.8674662  52.5374047  55.8413445  92.6425342  53.3865808  57.3800384
  91.9010211  54.1802774  57.4711600  92.2220435  52.4526604  57.7529730
  93.7595342  53.7425808  58.2900384  94.9445342  53.0805808  58.4390384
  95.0950335  52.1977257  57.8177359  95.7195342  53.7025808  59.3820384
  96.6410063  53.4108182  59.6750630  95.0355342  54.7845808  59.8690384
  95.4015342  55.7175808  60.8400384  96.3750834  55.6192022  61.3202699
  94.4995342  56.7105808  61.1300384  94.7492292  57.4621147  61.8790038
  93.2525342  56.7825808  60.4800384  92.5413126  57.5730878  60.7195419
  92.8935342  55.8565808  59.5220384  91.9191575  55.9605486  59.0446691
  93.7925342  54.8345808  59.2030384  91.9225342  52.5505808  55.1770384
  91.7935342  51.3445808  55.3300384  91.0885342  53.2575808  54.4180384
  91.2122544  54.2499882  54.2768997  89.9185342  52.6085808  53.8120384
  89.4124318  52.0092793  54.5688721  88.9265342  53.6255808  53.2510384
  88.7725243  54.3147026  54.0813945  89.4029578  54.1535435  52.4249779
  87.5705342  53.0695808  52.7890384  87.7510926  52.3010054  52.0375123
  86.7875342  52.4715808  53.9470384  86.6061783  53.2397269  54.6988099
  85.8344086  52.0885109  53.5824705  87.3598775  51.6571821  54.3911988
  86.7645342  54.1615808  52.1030384  87.3140091  54.5295264  51.2365554
  85.8054426  53.7571432  51.7795036  86.5956299  54.9818765  52.8006667
  90.3385342  51.6435808  52.7070384  91.0255342  52.0345808  51.7630384
  89.9165342  50.3875808  52.8380384  89.4183381  50.1200536  53.6748951
  90.1815342  49.3585808  51.8280384  91.2489299  49.3247776  51.6098115
  89.7445342  47.9885808  52.3380384  88.6759154  48.0039950  52.5523191
  89.9514376  47.2346287  51.5785336  90.2936143  47.7470065  53.2481220
  89.4525342  49.6875808  50.5240384  88.4845342  50.4495808  50.5420384
  89.9185342  49.1275808  49.3860384  91.1685342  48.3755808  49.1680384
  91.2934771  47.6459726  49.9681393  92.0103938  49.0679246  49.1736479
  90.9665342  47.7335808  47.8310384  90.5817082  46.7245036  47.9785889
  91.9251031  47.6843970  47.3144844  89.9985342  48.5805808  47.0770384
  89.3515309  47.9194741  46.5004765  90.4807025  49.2917914  46.4063724
  89.1695342  49.3335808  48.1330384  89.1254641  50.4028751  47.9262394
  87.7475342  48.7755808  48.2370384  87.5485342  47.6965808  48.8010384
  86.7765342  49.5375808  47.7350384  87.0336629  50.4167947  47.3096362
  85.3455342  49.2245808  47.8800384  84.7502199  50.0468866  47.4831590
  84.9805342  47.9355808  47.1120384  85.4819865  47.1063571  47.6110704
  83.9011568  47.7968333  47.1736294  85.4055342  47.9785808  45.6440384
  85.3755342  49.0695808  45.0340384  85.7625342  46.9125808  45.0940384
  84.8895342  49.1485808  49.3500384  83.9265342  48.4455808  49.6720384
  85.5735342  49.8875808  50.2290384  86.3795274  50.4040868  49.9070200
  85.2075342  49.9835808  51.6420384  84.8710097  49.0134198  52.0076039
  86.0646198  50.3148403  52.2283581  84.0845342  50.9865808  51.8010384
  83.8695342  51.8215808  50.9190384  83.3775342  50.9105808  52.9250384
  83.6544240  50.2491678  53.6363501  82.1765342  51.7205808  53.1580384
  81.8653827  52.2010341  52.2304348  81.0315342  50.8335808  53.6580384
  81.3494854  50.5546067  54.6626178  80.1290665  51.4418129  53.7189136
  80.7405342  49.5695808  52.8460384  81.6348128  48.9468415  52.8223216
  79.5975342  48.7905808  53.4770384  78.7027208  49.4125523  53.5006851
  79.4005763  47.8937185  52.8897171  79.8686749  48.5061796  54.4937484
  80.4275342  49.9065808  51.3960384  81.2801790  50.4177786  50.9490784
  80.2251511  48.9883927  50.8446103  79.5526766  50.5553895  51.3539637
  82.4395342  52.8385808  54.1630384  83.2825342  52.6985808  55.0480384
  81.7115342  53.9445808  54.0100384  81.1264387  54.0259678  53.1908079
  81.7615342  55.0735808  54.9430384  82.3311842  54.7805095  55.8249155
  82.4045342  56.3275808  54.3080384  81.7445372  56.7034475  53.5262273
  82.6225342  57.4165808  55.3570384  83.2828519  57.0415842  56.1389967
  83.0759849  58.2891605  54.8868387  81.6645298  57.6970979  55.7948018
  83.7515342  55.9735808  53.6630384  84.3912101  55.5881197  54.4569750
  83.5573796  55.1834290  52.9377359  84.4435342  57.1305808  52.9750384
  84.6384478  57.9209902  53.6998567  85.3865947  56.7888605  52.5484668
  83.8046157  57.5163011  52.1806186  80.3295342  55.3595808  55.4060384
  79.4045342  55.3605808  54.5920384  80.1595342  55.5745808  56.7120384
  80.9738048  55.5618864  57.3094509  78.8515342  55.8255808  57.3250384
  78.0848026  55.8935474  56.5532857  78.4885342  54.6815808  58.2760384
  79.3492440  54.3850242  58.8754816  77.6847969  55.0121891  58.9339172
  77.9955342  53.4375808  57.5850384  78.8575342  52.6575808  56.8210384
  79.8995862  52.9605741  56.7189475  78.4045342  51.5045808  56.1920384
  79.0895615  50.9068838  55.5907093  77.0825342  51.1145808  56.3290384
  76.7230025  50.2096329  55.8392363  76.2165342  51.8795808  57.0920384
  75.1745724  51.5780368  57.1992159  76.6735342  53.0275808  57.7190384
  75.9936075  53.6235436  58.3278305  78.8825342  57.1445808  58.1190384
  79.5915342  57.2245808  59.1200384  78.1595342  58.1875808  57.6980384
  77.9675342  59.4055808  58.5060384  78.9362539  59.7627393  58.8554954
  77.3355863  59.1735677  59.3633077  77.3115342  60.3595808  57.5540384
  78.0625887  60.9294913  57.0070299  76.6567134  61.0450264  58.0920675
  76.5265342  59.4785808  56.6430384  76.4026963  60.0158120  55.7027481
  75.5514228  59.1551649  57.0072629  77.4335342  58.2655808  56.4330384
  76.9137179  57.3219731  56.2672256  78.3865342  58.5285808  55.2770384
  79.5685342  58.7995808  55.4980384  77.8635342  58.4525808  54.0580384
  76.9206369  58.1077053  53.9480167  78.6555342  58.7115808  52.8490384
  79.6596714  59.0277323  53.1316263  78.7645342  57.4485808  51.9810384
  79.2305964  57.7330602  51.0376632  79.4135004  56.7510030  52.5104987
  77.4245342  56.7835808  51.7040384  76.3645342  57.4445808  51.7750384
  77.4425342  55.5715808  51.4010384  78.1935342  59.9115808  52.0060384
  78.8445342  60.2395808  51.0150384  77.0925342  60.5565808  52.3900384
  76.5686605  60.2218428  53.1860322  76.5725342  61.7045808  51.6520384
  77.3741834  62.1714740  51.0797897  75.4745342  61.2605808  50.6830384
  75.8893015  60.4463536  50.0888149  74.6517971  60.8837390  51.2906518
  74.9615342  62.3535808  49.7570384  74.5128053  63.1373994  50.3672609
  75.8089139  62.7625537  49.2067740  73.9275342  61.8215808  48.7740384
  74.4350479  61.3004336  47.9622906  73.2615563  61.1293804  49.2892388
  73.1255342  62.9095808  48.2050384  72.2166629  63.0494021  48.6227730
  73.4965342  63.7115808  47.1990384  74.6795342  63.5745808  46.5980384
  75.3163785  62.8520710  46.9021913  74.9329698  64.1939906  45.8415984
  72.6655342  64.6725808  46.7850384  71.7671739  64.7863804  47.2323620
  72.9395701  65.2807707  46.0266796  76.0495342  62.7795808  52.6030384
  75.3255342  62.4795808  53.5530384  76.4425342  64.0235808  52.3400384
  77.1302130  64.1671862  51.6143837  75.9545342  65.1875808  53.0700384
  75.0509349  64.9420501  53.6280009  77.0065342  65.6855808  54.0450384
  77.9144026  65.9441180  53.5000306  76.6321617  66.5672317  54.5652663
  77.2293369  64.9034120  54.7707589  75.5915342  66.2835808  52.0730384
  76.2805342  66.4715808  51.0680384  74.5025342  66.9935808  52.3590384
  73.9685777  66.7629231  53.1847422  74.0275342  68.0775808  51.5100384
  74.7998582  68.3415925  50.7876032  72.7505342  67.6805808  50.7430384
  72.2911963  68.5820022  50.3373928  73.0745342  66.7175808  49.6030384
  73.5335095  65.8156590  50.0079808  72.1565899  66.4532267  49.0780678
  73.7651009  67.1955040  48.9081948  71.8305342  67.0505808  51.6380384
  71.0360051  66.8040198  51.1589440  73.7455342  69.3075808  52.3650384
  73.1945342  69.1845808  53.4540384  74.1295342  70.4805808  51.8580384
  74.5934620  70.4792980  50.9608937  73.9295342  71.7585808  52.5310384
  73.5523498  71.5941572  53.5403927  75.2555342  72.5155808  52.6220384
  75.9401235  71.7603969  53.0082172  75.5369501  72.7720834  51.6007101
  75.3285342  73.7675808  53.5010384  74.5664580  74.4683088  53.1599801
  75.1005342  73.4465808  54.9700384  75.8625548  72.7462147  55.3119607
  75.1610592  74.3633921  55.5564636  74.1143471  72.9997450  55.0960271
  76.6745342  74.4555808  53.3300384  76.8052252  74.7452879  52.2874028
  76.7119228  75.3437430  53.9608088  77.4722365  73.7713648  53.6192072
  72.9125342  72.5765808  51.7400384  73.0545342  72.7435808  50.5280384
  71.8845342  73.0665808  52.4310384  71.8076362  72.8457592  53.4135983
  70.8455342  73.8935808  51.8240384  71.0466572  74.0093403  50.7590274
  69.4695342  73.2535808  51.9940384  69.2805318  73.1726825  53.0644742
  68.7367636  73.9246573  51.5459273  69.3565342  71.8935808  51.3610384
  69.7615342  70.7545808  52.0500384  70.1605859  70.8629388  53.0585600
  69.6645342  69.5005808  51.4760384  69.9868285  68.6163315  52.0258851
  69.1605342  69.3725808  50.1980384  69.0675342  68.1235808  49.6370384
  69.3784313  67.4266668  50.2194932  68.7495342  70.4855808  49.4910384
  68.3487061  70.3828466  48.4826323  68.8495342  71.7385808  50.0720384
  68.5292716  72.6223305  49.5202066  70.8275342  75.2765808  52.4500384
  71.3025342  75.4685808  53.5630384  70.2745342  76.2305808  51.7090384
  70.0671831  76.0340313  50.7402902  70.0225342  77.5775808  52.2110384
  70.1028361  77.6212301  53.2971993  70.9835342  78.6315808  51.6000384
  72.0067252  78.2924416  51.7617914  70.7435342  78.8305808  50.1030384
  69.7206187  79.1701872  49.9405198  71.4389448  79.5769753  49.7191115
  70.8997157  77.8866322  49.5808602  70.8555342  79.9555808  52.3390384
  71.1077792  79.8117343  53.3896490  71.5356616  80.6850081  51.8991950
  69.8313399  80.3197540  52.2583863  68.5625342  77.9415808  51.9380384
  67.9855342  77.5255808  50.9350384  67.9765342  78.6965808  52.8570384
  68.4585209  78.8698992  53.7275262  66.6185342  79.2115808  52.7030384
  66.3593290  79.3485803  51.6532084  65.5825342  78.2605808  53.3480384
  65.7082360  77.2712261  52.9081786  65.7555342  78.1685808  54.8760384
  65.6295020  79.1575443  55.3166819  65.0075408  77.4903895  55.2867226
  66.7521432  77.7926222  55.1073959  64.2565342  78.6995808  53.0290384
  63.6176898  78.1065795  53.4313165  66.5795342  80.6215808  53.2890384
  67.6115342  81.1335808  53.7110384  65.4105342  81.2525808  53.2890384
  64.5920189  80.7857261  52.9254745  65.2695342  82.6275808  53.7670384
  66.1587956  82.9162746  54.3273681  65.1055342  83.5775808  52.5940384
  64.2139570  83.3068375  52.0284519  65.0047599  84.5980464  52.9636256
  65.9799828  83.5108276  51.9467495  64.0835342  82.7475808  54.6960384
  63.0675342  82.0725808  54.4970384  64.2085342  83.6205808  55.6970384
  65.0580111  84.1597126  55.7854982  63.1745342  83.7835808  56.7180384
  62.2153498  83.4054724  56.3643459  63.5555342  83.0695808  58.0340384
  62.7653817  83.2264100  58.7683163  63.7305342  81.5765808  57.7880384
  64.5208938  81.4189273  57.0541599  63.9989572  81.0829342  58.7220421
  62.7971593  81.1579830  57.4116260  64.8345342  83.6685808  58.6590384
  65.6720403  83.3654800  58.0306959  64.7307779  84.7531564  58.6269464
  65.0885342  83.2285808  60.0840384  65.1928697  82.1440825  60.1168623
  66.0043896  83.6924348  60.4503001  64.2516055  83.5317571  60.7131126
  62.8385342  85.2305808  57.0550384  63.6525342  86.1435808  56.8790384
  61.6175342  85.4025808  57.5530384  60.9359230  84.6703218  57.4141060
  61.2145342  86.5865808  58.2860384  61.6585902  87.4761923  57.8393787
  59.6925342  86.7245808  58.2400384  59.4021608  86.6564093  57.1916419
  59.2830892  85.8746018  58.7859235  59.1495342  88.0185808  58.8340384
  59.8403110  88.8147153  58.5563732  58.1773425  88.2064547  58.3783567
  59.0015342  87.9815808  60.3430384  58.6805342  86.9035808  60.8890384
  59.2035342  89.0365808  60.9780384  61.7005342  86.3925808  59.7220384
  61.6035342  85.2895808  60.2650384  62.2255342  87.4555808  60.3310384
  62.3031564  88.3269815  59.8263256  62.7765342  87.3865808  61.6850384
  62.0893101  86.8630093  62.3496399  64.1135342  86.6145808  61.6500384
  64.0645131  85.8681821  60.8572048  64.8875751  87.3446975  61.4136270
  64.4455342  85.9335808  62.9660384  63.5295342  85.6475808  63.7590384
  65.6375342  85.6575808  63.2000384  62.9605342  88.7745808  62.3400384
  63.9765342  89.0305808  62.9840384  61.9615342  89.6485808  62.2060384
  61.1545787  89.3939164  61.6546147  62.0355342  91.0165808  62.7440384
  62.9250386  91.5153967  62.3592478  60.7915342  91.8345808  62.3280384
  60.8661315  91.9416952  61.2458827  59.9371112  91.2033160  62.5720998
  60.6045342  93.2175808  62.9670384  59.8385708  93.7294968  62.3845069
  60.2370833  93.0467053  63.9789097  61.8665342  94.0825808  63.0220384
  61.6047303  95.0291436  63.4948771  62.6036568  93.5628956  63.6341472
  62.4595342  94.3615808  61.7060384  61.8406350  94.2624766  60.9140526
  63.7335342  94.7095808  61.4820384  64.1365342  94.9515808  60.2420384
  63.4819550  94.8720874  59.4769849  65.0961908  95.2142700  60.0683915
  64.6215342  94.8015808  62.4680384  64.3391174  94.6057837  63.4177775
  65.5741580  95.0668153  62.2624727  62.2285342  91.0355808  64.2680384
  63.1865342  91.6325808  64.7610384  61.3245342  90.3815808  64.9940384
  60.5758669  89.9036446  64.5132333  61.3105342  90.3975808  66.4640384
  61.1582749  91.4135727  66.8282865  60.1605342  89.5115808  66.9810384
  59.2468771  89.9289435  66.5577912  60.3343613  88.5202243  66.5625929
  60.0165342  89.4055808  68.4960384  60.7815718  88.7237402  68.8674030
  60.1658098  90.3920978  68.9349039  58.6465342  88.8825808  68.9250384
  57.6665342  89.6315808  68.9520384  58.5755342  87.5965808  69.2680384
  57.6921923  87.2027435  69.5590721  59.4053987  87.0218134  69.2353477
  62.6535342  89.9715808  67.0790384  63.1925342  90.6605808  67.9410384
  63.1985342  88.8555808  66.6150384  62.7141255  88.3024303  65.9225992
  64.4465342  88.3385808  67.1630384  64.4502130  88.4715478  68.2448912
  64.6135342  86.8455808  66.8520384  63.6206192  86.3959389  66.8584497
  65.0394144  86.7703878  65.8515025  65.5055342  86.1145808  67.8370384
  65.0725342  85.8505808  69.1430384  64.0781106  86.1809705  69.4431447
  65.8855342  85.1805808  70.0500384  65.5409843  84.9885849  71.0661707
  67.1515342  84.7615808  69.6540384  67.9685342  84.0945808  70.5350384
  67.5671084  83.9700707  71.3981457  67.5995342  85.0035808  68.3680384
  68.5886272  84.6666004  68.0578129  66.7825342  85.6795808  67.4700384
  67.1338479  85.8798224  66.4578220  65.6585342  89.1445808  66.6810384
  66.6235342  89.2945808  67.4310384  65.6145342  89.6725808  65.4560384
  64.8915316  89.4068293  64.8027830  66.6675342  90.5825808  64.9950384
  67.6356859  90.1104474  65.1619866  66.5405342  90.9265808  63.5070384
  66.3088139  90.0067564  62.9700765  65.7148319  91.6294066  63.3959009
  67.8105342  91.5415808  62.9350384  68.1345734  92.3349224  63.6086172
  68.5739705  90.7645813  62.8958090  67.5995342  92.1125808  61.5470384
  67.3104579  91.3055546  60.8738055  66.8016706  92.8540792  61.5881867
  68.8725342  92.7665808  61.0360384  69.2243566  93.4582087  61.8015268
  69.6150223  91.9827363  60.8863775  68.6655342  93.5025808  59.7610384
  67.9778773  94.2292342  59.8996109  69.5381673  93.9166984  59.4658807
  68.3399350  92.8618004  59.0514718  66.7005342  91.8655808  65.8260384
  67.7855342  92.3645808  66.1330384  65.5275342  92.3965808  66.1810384
  64.6664431  92.0415938  65.7903908  65.4565342  93.5435808  67.0950384
  66.0158230  94.3741760  66.6644496  64.0055342  94.0025808  67.3430384
  63.4061458  93.1012152  67.4709946  63.9869932  94.5844675  68.2645394
  63.4285342  94.8405808  66.1990384  64.1835342  95.2925808  65.3130384
  62.1925342  95.0635808  66.1960384  66.1275342  93.2005808  68.4260384
  66.9135342  93.9885808  68.9450384  65.8245342  92.0105808  68.9430384
  65.1559684  91.4357067  68.4504546  66.3435342  91.5285808  70.2240384
  66.1806753  92.2666598  71.0094145  65.5975342  90.2405808  70.5990384
  64.5332725  90.4329281  70.4632127  65.9290328  89.5027972  69.8683646
  65.8395342  89.7115808  71.9940384  65.4155342  90.4265808  73.1160384
  64.9116066  91.3824730  72.9731173  65.6265342  89.9385808  74.3970384
  65.3004468  90.5095800  75.2663650  66.2585342  88.7125808  74.5680384
  66.4665342  88.2225808  75.8350384  66.1368650  88.8066463  76.5219047
  66.6825342  87.9765808  73.4720384  67.1804287  87.0163021  73.6064502
  66.4675342  88.4735808  72.1950384  66.7884916  87.8997267  71.3256835
  67.8705342  91.3015808  70.2310384  68.5375342  91.6355808  71.2110384
  68.4125342  90.7535808  69.1410384  67.8138888  90.5525004  68.3528191
  69.8325342  90.3735808  69.0540384  70.2475342  90.2447648  70.0536787
  69.9735342  89.0515808  68.2910384  69.5473975  89.2195025  67.3019434
  71.0428531  88.8618625  68.1979572  69.3015342  87.8525808  68.9340384
  68.2481914  88.1010855  69.0637115  69.3944437  87.0170414  68.2402489
  69.9025342  87.4625808  70.2840384  69.9765410  88.3658654  70.8895950
  69.2201652  86.7599853  70.7624018  71.2745342  86.8265808  70.1550384
  71.1887767  85.9287062  69.5430193  71.9450611  87.5347830  69.6682709
  71.8215342  86.4645808  71.4940384  71.2005746  85.8080199  71.9450780
  72.7330555  86.0440281  71.3828431  71.9014796  87.2964951  72.0611595
  70.7625342  91.3995808  68.3970384  71.9505342  91.4455808  68.7310384
  70.2475342  92.1895808  67.4510384  69.2695810  92.1093023  67.2117433
  71.0785342  93.1185808  66.6780384  72.1289448  93.0090949  66.9477598
  70.9125342  92.9035808  65.1560384  69.8889907  93.1521214  64.8755270
  71.8825342  93.7855808  64.3740384  72.9063717  93.5372841  64.6536921
  71.7471888  93.6169624  63.3056985  71.6876380  94.8331659  64.6035596
  71.1185342  91.4255808  64.7810384  70.3312873  90.8660255  65.2862521
  70.9768140  91.3578505  63.7024154  72.4705342  90.8425808  65.1510384
  72.6127860  90.9095405  66.2296397  72.5126115  89.7976520  64.8437070
  73.2583134  91.4013674  64.6458044  70.7885342  94.5715808  67.0410384
  71.6795342  95.2775808  67.5230384  69.5535342  95.0135808  66.8240384
  68.8634973  94.4069661  66.4045542  69.1985342  96.4195808  67.0500384
  69.9842460  97.0640562  66.6558205  67.8815342  96.7675808  66.3480384
  67.1117979  96.0775374  66.6936471  67.5658175  97.7919333  66.5458383
  67.9515342  96.6205808  64.8580384  68.6795342  97.4795808  64.0590384
  69.2038046  98.2728698  64.3995275  68.5785342  97.0985808  62.7970384
  69.0772663  97.6574275  62.0051700  67.8225342  96.0165808  62.7500384
  67.4205342  95.6935808  64.0250384  66.7889123  94.8212183  64.1927841
  69.1685342  96.8135808  68.5310384  69.2865342  97.9965808  68.8560384
  69.0335342  95.8265808  69.4150384  68.8083467  94.9050891  69.0682777
  69.1185342  96.0225808  70.8710384  68.2966389  96.6467467  71.2217579
  69.0275342  94.6575808  71.5640384  68.0499282  94.2136377  71.3761545
  69.8048958  94.0042055  71.1679201  69.2055342  94.6845808  73.0370384
  68.2345342  94.8415808  73.9750384  67.2141567  94.9638706  73.6117553
  68.7815342  94.8095808  75.2300384  68.2701282  94.9022243  76.0960526
  70.1335342  94.6285808  75.1210384  71.1145342  94.5315808  76.1120384
  70.8117355  94.6061242  77.1564784  72.4105342  94.3465808  75.7000384
  73.2038745  94.2686248  76.4434320  72.7425342  94.2545808  74.3360384
  73.7744187  94.1031795  74.0191923  71.7685342  94.3535808  73.3550384
  72.0767532  94.2871004  72.3116391  70.4355342  94.5415808  73.7470384
  70.3875342  96.7715808  71.3250384  70.3315342  97.5625808  72.2670384
  71.5125342  96.5305808  70.6480384  71.5142203  95.8117873  69.9385087
  72.7845342  97.2175808  70.9520384  73.0041180  97.1347737  72.0164750
  73.9375342  96.5845808  70.1630384  73.7086498  96.5822430  69.0973435
  74.8429890  97.1655330  70.3383841  74.2585342  95.1645808  70.5370384
  73.8925342  94.0365808  69.8600384  73.3022572  94.1789977  68.9548367
  74.3705342  92.9225808  70.4980384  74.2324513  91.9679243  70.1985996
  75.0715342  93.3145808  71.6070384  75.7465342  92.5485808  72.5630384
  75.7467573  91.4640837  72.4536556  76.3705342  93.2165808  73.5860384
  76.9017726  92.6515564  74.3519582  76.3415342  94.6165808  73.6710384
  76.8424696  95.1392550  74.4858850  75.6705342  95.3825808  72.7150384
  75.6714835  96.4668923  72.8262513  75.0235342  94.7245808  71.6620384
  72.7865342  98.7475808  70.7010384  73.6675342  99.4505808  71.1920384
  71.8165342  99.2535808  69.9420384  71.1666266  98.6298319  69.4852487
  71.6895342 100.6965808  69.6930384  72.6607362 101.1110448  69.4226949
  70.7065342 100.9605808  68.5440384  69.7460955 100.5500249  68.8556481
  70.6241939 102.0431690  68.4474833  71.1045342 100.3585808  67.1980384
  71.9138368 100.9633048  66.7888453  71.4674534  99.3488751  67.3900889
  69.9565342 100.3035808  66.1980384  70.0935342  99.6055808  65.1720384
  68.9125342 100.9485808  66.4320384  71.2395342 101.5015808  70.9250384
  71.4795342 102.7085808  70.9840384  70.5735342 100.8455808  71.8800384
  70.3660514  99.8666063  71.7434399  70.0605342 101.5055808  73.0930384
  70.6770419 102.3703513  73.3383737  68.6145342 101.9825808  72.8580384
  68.5608730 102.4297440  71.8654334  67.9504606 101.1194244  72.9035055
  68.1475342 103.0105808  73.8810384  68.4715342 102.9385808  75.0700384
  67.3695342 103.9785808  73.4150384  67.0258261 104.6919610  74.0419780
  67.1244336 103.9978077  72.4354177  70.1535342 100.5595808  74.3040384
  69.2025342  99.8435808  74.6300384  71.3165342 100.5695808  74.9540384
  72.0587468 101.1504112  74.5909188  71.5895342  99.7545808  76.1430384
  70.8167338  99.0068760  76.3214092  72.9555342  99.0345808  76.0180384
  73.7301898  99.7827138  75.8497978  73.2785342  98.2435808  77.2840384
  72.5045076  97.4948895  77.4526952  74.2427660  97.7487560  77.1678229
  73.3191678  98.9217899  78.1363781  72.9645342  98.1275808  74.7860384
  72.7945825  98.7270128  73.8916673  73.9299571  97.6273786  74.7095136
  72.1754809  97.3812206  74.8779193  71.5635342 100.6795808  77.3590384
  72.5765342 101.3095808  77.6820384  70.3925342 100.7705808  78.0010384
  69.6185903 100.2420066  77.6245819  70.1345342 101.6755808  79.1380384
  69.0683218 101.6794154  79.3644793  70.9015342 101.2245808  80.3920384
  71.9682159 101.2840003  80.1758005  70.6531583 101.9261081  81.1884484
  70.5545342  99.8215808  80.8310384  69.4525342  99.5765808  81.6570384
  68.8485973 100.4210565  81.9890332  69.1225342  98.2895808  82.0540384
  68.2598642  98.1115477  82.6960714  69.8985342  97.2245808  81.6250384
  69.5845342  95.9405808  82.0150384  68.8108835  95.8993495  82.5819284
  70.9945342  97.4455808  80.8050384  71.6038798  96.6069805  80.4680695
  71.3145342  98.7355808  80.4140384  72.1750168  98.9118023  79.7685805
  70.4315342 103.1385808  78.7940384  71.0245342 103.8745808  79.5850384
  70.0015342 103.5435808  77.5990384  69.4813669 102.8915672  77.0294740
  70.2455342 104.8885808  77.0690384  69.3953940 105.1229258  76.4283801
  70.2480862 105.5592697  77.9282644  71.5335342 105.0905808  76.2780384
  71.6985342 106.1385808  75.6520384  72.4395342 104.1075808  76.2940384
  72.2327294 103.2618508  76.8059680  73.7525342 104.2285808  75.6530384
  73.9518358 105.2743328  75.4189853  74.8575342 103.7155808  76.5800384
  74.6956058 102.6655520  76.8235911  75.8291859 103.8309617  76.0997464
  74.9335342 104.4515808  77.8840384  75.2065342 105.8145808  77.9100384
  75.3720120 106.3413132  76.9702140  75.2695342 106.5035808  79.1110384
  75.4821802 107.5726131  79.1182705  75.0615342 105.8305808  80.3040384
  75.1119161 106.3686646  81.2506256  74.7895342 104.4735808  80.2930384
  74.6256677 103.9430509  81.2310075  74.7255342 103.7895808  79.0900384
  74.5102903 102.7210792  79.0814108  73.8285342 103.4945808  74.3170384
  73.2685342 102.4115808  74.1510384  74.5425342 104.1085808  73.3800384
  74.9414965 105.0076139  73.6095333  74.7555342 103.5815808  72.0430384
  73.8789947 103.0361390  71.6933658  75.0045342 104.7695808  71.0980384
  74.1773699 105.4695655  71.2160207  75.9306645 105.2444196  71.4219379
  75.1245342 104.3705808  69.6400384  74.7315342 103.2465808  69.2590384
  75.6155342 105.2135808  68.8620384  75.9435342 102.6145808  72.0370384
  77.0825342 103.0315808  72.2290384  75.6655342 101.3245808  71.8330384
  74.6998579 101.0287080  71.8383264  76.7085342 100.2995808  71.6650384
  77.6917062 100.7564351  71.7779817  76.5595342  99.1875808  72.7170384
  75.6187052  98.6803142  72.5034487  77.3879575  98.4968037  72.5600606
  76.5625342  99.6625808  74.1630384  77.3677124 100.3877325  74.2811229
  75.6065212 100.1459846  74.3641898  76.8035342  98.3105808  75.3380384
  76.8345342  99.2255808  76.8770384  75.8909678  99.7563342  77.0038543
  76.9768528  98.5348917  77.7081790  77.6546805  99.9432627  76.8571894
  76.6705342  99.7045808  70.2470384  76.8945342  98.5095808  70.0590384
  76.4085342 100.5565808  69.2550384  76.1889513 101.5147190  69.4871029
  76.3675342 100.1555808  67.8440384  75.6244641  99.3706055  67.7034690
  75.9915342 101.3485808  66.9620384  76.6579068 102.1799370  67.1920247
  76.1125921 101.0650848  65.9165361  74.6565342 101.7395808  67.1910384
  74.4413427 102.4876506  66.6291807  77.6675342  99.5545808  67.3070384
  77.6255342  98.7585808  66.3710384  78.8135342  99.9405808  67.8680384
  78.8299240 100.6802285  68.5556080  80.0895342  99.3735808  67.4280384
  80.1776919  99.4807056  66.3469040  81.2735342 100.0805808  68.0870384
  82.2120222  99.6498320  67.7380470  81.2543032 101.1452846  67.8543672
  81.3075342  99.9625808  69.8840384  82.4247238 100.6652714  70.0483905
  80.1515342  97.8665808  67.6730384  80.8235342  97.1565808  66.9270384
  79.4465342  97.3875808  68.7040384  79.0924046  98.0356431  69.3930281
  79.2545342  95.9485808  68.9370384  80.1728237  95.4023089  68.7215603
  78.8045342  95.6505808  70.3960384  77.9823654  96.3194188  70.6505861
  78.3465342  94.2005808  70.5470384  79.1683676  93.5311027  70.2930903
  78.0380157  94.0218494  71.5770734  77.5060606  94.0130207  69.8788136
  79.9585342  95.9625808  71.3600384  80.7713870  95.2830952  71.1037758
  80.2656902  96.9885438  71.1571723  79.6245342  95.8175808  72.8280384
  79.3177149  94.7916895  73.0317754  80.5028229  96.0592700  73.4266154
  78.8120159  96.4971369  73.0851713  78.2725342  95.3475808  67.9210384
  78.5275342  94.2665808  67.3880384  77.1565342  96.0365808  67.6690384
  76.9574926  96.8605548  68.2181727  76.1785342  95.6275808  66.6400384
  75.6537006  94.7302506  66.9678302  75.1475342  96.7385808  66.4000384
  74.7151152  96.9837617  67.3700896  75.6945434  97.6006516  66.0183123
  74.0365342  96.3725808  65.4280384  74.4934708  96.0688680  64.4861953
  73.4785202  95.5353059  65.8471963  73.0915342  97.5375808  65.1800384
  72.1736776  97.1466476  64.7409377  72.8649139  98.0048318  66.1383803
  73.7005342  98.5695808  64.2450384  74.4927147  99.0907053  64.7826069
  74.1267242  98.0449171  63.3899423  72.6915342  99.5565808  63.7690384
  72.2968058 100.0431586  64.5612071  73.1360734 100.2218325  63.1526578
  71.9576126  99.0739456  63.2705191  76.8355342  95.2845808  65.3030384
  76.5255342  94.2585808  64.6950384  77.7455342  96.1545808  64.8680384
  77.9593417  96.9632812  65.4340678  78.3935342  96.0315808  63.5590384
  77.6344157  95.9214676  62.7846268  79.2385342  97.2765808  63.2450384
  80.0118228  97.3545592  64.0092657  79.7044678  97.1213547  62.2719450
  78.4195342  98.5645808  63.2170384  77.1915342  98.5155808  62.9720384
  79.0225342  99.6385808  63.4470384  79.2595342  94.7745808  63.4270384
  79.4825342  94.3065808  62.3090384  79.7435342  94.2455808  64.5530384
  79.6529790  94.7627577  65.4158403  80.4755342  92.9795808  64.5770384
  80.9061572  92.7649003  63.5989917  81.6135342  93.0085808  65.6220384
  81.1738235  93.0398097  66.6189228  82.4995342  91.7735808  65.4960384
  82.9399965  91.7419086  64.4994990  83.2929315  91.8173121  66.2421676
  81.8997824  90.8776313  65.6562693  82.4595342  94.2695808  65.4450384
  81.8314336  95.1506006  65.5769316  83.2581614  94.2790180  66.1867966
  82.8930516  94.2794820  64.4450056  79.5495342  91.7845808  64.8370384
  79.7175342  90.7315808  64.2170384  78.5865342  91.9405808  65.7470384
  78.5437341  92.8040074  66.2693045  77.6255342  90.8755808  66.0790384
  78.2109545  90.0125946  66.3962720  76.7405342  91.3145808  67.2360384
  76.1414294  92.1724564  66.9307142  76.0813021  90.4947386  67.5212963
  77.3639059  91.5915194  68.0862219  76.7525342  90.4395808  64.8990384
  76.3675342  89.2715808  64.7990384  76.4475342  91.3805808  64.0100384
  76.7026600  92.3384993  64.2034353  75.6505342  91.1025808  62.8140384
  74.7962608  90.4541788  63.0086944  75.1575342  92.4295808  62.1690384
  74.8034191  93.0852894  62.9644937  76.2695342  93.1315808  61.3870384
  76.6238639  92.4766223  60.5910607  75.8828451  94.0536481  60.9530291
  77.0952360  93.3653032  62.0591170  73.9245342  92.2005808  61.2940384
  74.2354678  91.6002035  60.4390716  73.2007863  91.6408214  61.8864553
  73.2895342  93.4855808  60.8040384  74.0125849  94.0457019  60.2111119
  72.4205322  93.2506939  60.1894142  72.9779053  94.0863211  61.6584963
  76.4045342  90.2195808  61.8000384  75.7775342  89.6035808  60.9410384
  77.7365342  90.1625808  61.9250384  78.1604011  90.7403738  62.6367908
  78.6115342  89.3345808  61.0900384  78.1462230  89.1782964  60.1168170
  79.9775342  90.0145808  60.8790384  80.5413019  89.8153554  61.7903970
  80.4367270  89.4838522  60.0450305  79.9855342  91.5125808  60.5940384
  79.3494224  91.9868817  61.3413678  81.0114277  91.8594028  60.7179706
  79.4925342  91.8775808  59.2050384  79.8971332  91.1668636  58.4844278
  78.4036709  91.8305106  59.1888968  79.9455342  93.2865808  58.8380384
  79.5582928  93.9656243  59.5976729  81.0352045  93.2991000  58.8617286
  79.4735342  93.7235808  57.4950384  78.4638358  93.7124635  57.4730126
  79.8040415  94.6599208  57.3102889  79.8326019  93.0947425  56.7909561
  78.8805342  87.9415808  61.6850384  79.6605342  87.1745808  61.1220384
  78.2865342  87.6255808  62.8340384  77.7416844  88.3189231  63.3264960
  78.4295342  86.3055808  63.4340384  79.2093831  85.7529731  62.9100539
  78.8095342  86.4035808  64.9140384  78.0862112  87.0616582  65.3955331
  78.7299350  85.4034434  65.3400538  80.2255342  86.9455808  65.1440384
  80.8275421  86.6195380  64.2958736  80.1527916  88.0331450  65.1405998
  80.8855342  86.4825808  66.4460384  82.0045342  86.9775808  66.7380384
  80.3085342  85.6325808  67.1810384  77.1055342  85.5765808  63.2580384
  76.0715342  86.0895808  63.6880384  77.1215342  84.3975808  62.6010384
  78.2285342  83.7325808  61.8890384  78.8352049  83.1722314  62.6004170
  78.8473606  84.4821878  61.3958425  77.5245342  82.8505808  60.9190384
  78.1381397  81.9722805  60.7185990  77.3576021  83.3961753  59.9902965
  76.2345342  82.4775808  61.5540384  76.3925208  81.5780044  62.1489347
  75.4323349  82.3022706  60.8372105  75.8695342  83.6515808  62.4710384
  75.1214124  84.3141109  62.0357616  75.3695342  83.1355808  63.8160384
  76.1755342  82.7795808  64.6690384  74.0525342  83.1215808  63.9940384
  73.4543589  83.5091513  63.2784445  73.4315342  82.5775808  65.1920384
  74.1395403  82.6241122  66.0194811  72.1755342  83.3675808  65.5770384
  71.6477066  83.4782064  64.6298008  71.5800353  82.7560919  66.2549487
  72.4005342  84.7485808  66.2000384  73.1248913  84.6471374  67.0081949
  72.9205342  85.7525808  65.1740384  72.1964518  85.8549115  64.3657489
  73.0677004  86.7201112  65.6539631  73.8692151  85.4005096  64.7688829
  71.1095342  85.2485808  66.8360384  70.7928434  84.5520759  67.6123678
  71.2778528  86.2311614  67.2768394  70.3329613  85.3207326  66.0745743
  73.0585342  81.1255808  64.9210384  72.4205342  80.8295808  63.9070384
  73.4705342  80.2265808  65.8100384  74.1318726  80.4901957  66.5264448
  73.0155342  78.8495808  65.7670384  72.6976926  78.5713462  64.7622193
  74.1015342  77.8575808  66.2330384  74.4361455  78.1445759  67.2299177
  73.5535342  76.4335808  66.2710384  73.2191278  76.1456897  65.2743479
  74.3363044  75.7512012  66.6022930  72.7132532  76.3854461  66.9636512
  75.3145342  77.9445808  65.3220384  75.7190419  78.9563476  65.3503837
  76.0747020  77.2403215  65.6600670  75.0212350  77.6995738  64.3012309
  71.7965342  78.7895808  66.6720384  71.9265342  78.9015808  67.8900384
  70.6175342  78.6435808  66.0720384  70.5658414  78.6341556  65.0634065
  69.3655342  78.5785808  66.8330384  69.4984666  77.9587391  67.7197314
  68.9475342  79.9925808  67.2790384  69.7998172  80.6532646  67.1202625
  68.1176956  80.3131340  66.6491864  68.5255342  80.0505808  68.7440384
  67.8205342  79.1175808  69.2150384  68.8985342  81.0385808  69.4230384
  68.2335342  77.9005808  66.0450384  68.3415342  77.6975808  64.8290384
  67.1605342  77.5485808  66.7540384  67.1305039  77.7670706  67.7396650
  66.0245342  76.8355808  66.1660384  66.3579664  76.1224139  65.4121716
  65.1965342  76.0805808  67.2270384  64.8572482  76.7924998  67.9794715
  63.9855342  75.3975808  66.5890384  64.3240658  74.6851286  65.8367690
  63.4177519  74.8721068  67.3568931  63.3506615  76.1481459  66.1181985
  66.0595342  75.0565808  67.9500384  66.8885174  75.5633151  68.4441125
  65.4581476  74.5344111  68.6941974  66.4509242  74.3375569  67.2303722
  65.1155342  77.8265808  65.4480384  64.6205342  78.7745808  66.0580384
  64.8965342  77.5895808  64.1560384  65.3694950  76.8131953  63.7160008
  64.0365342  78.4255808  63.3370384  63.8622953  79.3986935  63.7961589
  64.6415342  78.6435808  61.9330384  64.8353204  77.6704665  61.4818237
  63.6925342  79.4355808  61.0430384  63.4986272  80.4090669  61.4934002
  64.1448600  79.5737577  60.0609951  62.7540176  78.8914996  60.9369076
  65.9885342  79.3515808  62.0450384  66.6715216  78.7426280  62.6373279
  66.4055586  79.4999026  61.0489506  65.8521301  80.3186962  62.5289624
  62.6635342  77.7625808  63.2330384  62.5535342  76.5955808  62.8600384
  61.6275342  78.5215808  63.5750384  61.8014935  79.4382730  63.9617074
  60.2465342  78.0865808  63.4250384  60.1070690  77.1069757  63.8822282
  59.3145342  79.0895808  64.1200384  59.7522288  79.2885948  65.0982593
  59.2949087  80.0104575  63.5371997  57.8945342  78.5705808  64.2960384
  57.3325342  77.9655808  63.3610384  57.3215342  78.7975808  65.3810384
  59.9295342  78.0105808  61.9240384  60.1375342  78.9945808  61.2070384
  59.4195342  76.8555808  61.4400384  59.1305342  75.5975808  62.1570384
  58.6408522  75.8245401  63.1040343  60.0633451  75.0673304  62.3488649
  58.2365342  74.8565808  61.2100384  57.1966755  75.1090866  61.4174840
  58.3814642  73.7836435  61.3361424  58.6385342  75.2895808  59.8460384
  57.8174904  75.2317231  59.1314487  59.4688461  74.6767976  59.4950704
  59.0935342  76.7495808  60.0020384  60.0263228  76.9161157  59.4632713
  58.0165342  77.7335808  59.4840384  57.9285342  77.9535808  58.2740384
  57.2245342  78.3205808  60.3830384  57.2231952  77.9936207  61.3386506
  56.3015342  79.4005808  60.0160384  55.6569261  79.0682752  59.2023108
  55.4215342  79.8005808  61.2060384  56.1047218  80.0864470  62.0058099
  54.8544816  80.6739139  60.8837953  54.4615342  78.7315808  61.7160384
  53.8061867  78.4211338  60.9022552  55.0348050  77.8737495  62.0675895
  53.6175342  79.2875808  62.8670384  54.1758788  80.1154315  63.3040894
  52.6909425  79.6637424  62.4334146  53.2925342  78.2645808  63.9520384
  54.0227578  77.4592915  63.8721429  53.4049425  78.7620238  64.9153732
  51.9175342  77.7005808  63.8420384  51.8133050  77.2392210  62.9496354
  51.7667273  77.0337323  64.5854564  51.2407276  78.4465640  63.9164751
  57.0225342  80.6575808  59.4850384  56.4255342  81.4395808  58.7440384
  58.2865342  80.8525808  59.8720384  58.6997118  80.2222283  60.5443771
  59.0775342  82.0025808  59.4190384  58.4461846  82.8897735  59.3701921
  60.2295342  82.2745808  60.3910384  60.7605204  81.3324478  60.5271945
  60.8890368  82.9964060  59.9092452  59.7935342  82.8125808  61.7490384
  59.3926650  83.8198720  61.6360380  59.0151106  82.1532687  62.1330517
  60.9355342  82.8535808  62.7540384  60.9185342  82.1345808  63.7540384
  61.9455342  83.6745808  62.4810384  62.7273149  83.7375188  63.1174024
  61.9261571  84.2313763  61.6385987  59.6375342  81.8725808  57.9930384
  60.0665342  82.8735808  57.4190384  59.6405342  80.6585808  57.4340384
  59.3082969  79.8685602  57.9684401  60.1425342  80.4185808  56.0780384
  61.1753098  80.7593041  56.0046794  60.0935342  78.9235808  55.7330384
  59.0520060  78.6621322  55.9200219  60.3061089  78.8278441  54.6682631
  61.0045342  77.9815808  56.5210384  60.9265085  78.2132634  57.5832700
  60.5915342  76.5375808  56.2860384  60.6697481  76.3050032  55.2240172
  61.2466647  75.8750975  56.8517422  59.5616369  76.3957876  56.6136152
  62.4655342  78.1915808  56.1430384  62.7537242  79.2198307  56.3615517
  63.0917766  77.5093022  56.7178582  62.5977704  77.9960552  55.0789039
  59.3385342  81.1945808  55.0340384  58.1305342  81.0155808  54.9230384
  60.0265342  82.0595808  54.2900384  60.9956190  82.2170887  54.5270306
  59.4375342  82.8555808  53.2120384  58.3487959  82.8767924  53.2599767
  59.9635342  84.3075808  53.2830384  61.0528060  84.2739840  53.2616485
  59.4585342  85.1635808  52.1250384  58.3692808  85.1980320  52.1460411
  59.8553932  86.1743488  52.2196505  59.7897040  84.7306523  51.1811098
  59.5595342  84.9285808  54.6100384  59.9854088  84.3477787  55.4282082
  59.9302160  85.9523720  54.6604988  58.4728145  84.9316042  54.6944896
  59.6955342  82.2355808  51.8220384  58.9525342  82.5095808  50.8720384
  60.7245342  81.3945808  51.7060384  61.2601365  81.1523572  52.5273527
  61.1225342  80.8185808  50.4260384  60.3890731  81.0554426  49.6553048
  62.5015342  81.3615808  49.9800384  62.7327065  80.9568922  48.9947025
  62.5005342  82.8835808  49.9160384  62.2698794  83.2890260  50.9011842
  63.4826622  83.2351039  49.5998814  61.7483422  83.2171992  49.2011912
  63.5265342  80.9305808  50.8900384  64.3753935  81.2740350  50.6018068
  61.2115342  79.2995808  50.4840384  61.0875342  78.6935808  51.5470384
  61.4415342  78.6985808  49.3200384  61.2354803  79.1886948  48.4613013
  61.8865342  77.3065808  49.2350384  61.3254992  76.6982872  49.9444873
  61.6595342  76.7455808  47.8180384  61.9188923  75.6872574  47.8460444
  60.6083183  76.8545789  47.5512717  62.5065342  77.4265808  46.7490384
  63.0755342  78.4975808  46.9630384  62.5675342  76.8115808  45.5750384
  63.1129013  77.2131561  44.8257642  62.0683243  75.9446573  45.4359920
  63.3585342  77.1875808  49.6810384  63.9475342  78.1515808  50.1840384
  63.9355342  75.9995808  49.5310384  63.3845269  75.2155804  49.2119245
  65.3425342  75.7715808  49.8550384  65.7597308  76.6494670  50.3483558
  65.4845342  74.5775808  50.7860384  65.0793688  73.6887972  50.3022980
  66.5382350  74.4177554  51.0146666  64.9379246  74.7691480  51.7094122
  66.1375342  75.5465808  48.5780384  65.6115342  75.0195808  47.5940384
  67.4035342  75.9515808  48.6050384  67.7415994  76.4525417  49.4142661
  68.3195342  75.7385808  47.4920384  67.8293787  75.1525389  46.7146057
  68.7485342  77.0785808  46.8960384  67.8839875  77.7123646  46.6986143
  69.4358440  77.5997480  47.5624392  69.6105342  76.9065808  45.3250384
  69.8114953  78.2072964  45.1335918  69.5455342  74.9505808  47.9550384
  70.1785342  75.2905808  48.9590384  69.8595342  73.8925808  47.2140384
  69.2581670  73.6456271  46.4410761  71.0305342  73.0565808  47.4760384
  71.0778365  72.7968138  48.5335746  70.9375342  71.7625808  46.6570384
  70.0565379  71.2864269  47.0874130  70.7185780  72.0754986  45.6361365
  72.1015342  70.7675808  46.6470384  73.0022346  71.2858641  46.3180671
  72.3305342  70.1835808  48.0310384  71.4303598  69.6647070  48.3605151
  73.1624908  69.4802133  47.9960639  72.5632537  70.9863062  48.7307340
  71.8215342  69.6645808  45.6380384  71.7090226  70.0998044  44.6450525
  72.6510352  68.9574757  45.6323919  70.9035864  69.1448312  45.9125035
  72.2765342  73.8445808  47.0910384  72.4035342  74.2575808  45.9430384
  73.1765342  74.0645808  48.0480384  72.9472031  73.8320194  49.0037694
  74.4355342  74.7855808  47.7870384  74.5151409  75.0452285  46.7314130
  74.5645342  76.0715808  48.6470384  75.5341898  76.5335102  48.4613244
  73.4585342  77.0505808  48.2820384  72.4885113  76.5894962  48.4679339
  73.5546039  77.9508614  48.8889701  73.5390114  77.3137452  47.2273503
  74.5315342  75.7675808  50.1470384  73.5172928  75.4528801  50.3927591
  75.2209610  74.9426797  50.3268392  74.9185342  76.9475808  51.0160384
  74.2292284  77.7727747  50.8371188  74.8721829  76.6571885  52.0656208
  75.9328964  77.2625758  50.7711970  75.7155342  73.9395808  47.8980384
  76.7835342  74.4095808  47.5140384  75.6235342  72.7105808  48.4060384
  74.7561995  72.3863640  48.8094157  76.7855342  71.8165808  48.4450384
  77.3396938  71.8888835  47.5092079  77.7195342  72.2035808  49.5990384
  77.8326176  73.2870051  49.5602674  77.2097231  71.9247780  50.5212432
  79.0955342  71.5475808  49.5610384  79.5982716  71.7588305  50.5048231
  78.9556538  70.4715747  49.4573731  79.9465342  72.0625808  48.4060384
  79.4648591  71.7873528  47.4677753  80.0100718  73.1484510  48.4763824
  81.3455342  71.4695808  48.4500384  81.8780621  71.9101875  49.2928790
  81.2569858  70.3934889  48.5993185  82.0985342  71.7355808  47.1940384
  82.1810700  72.7326584  47.0557498  83.0200095  71.3275597  47.2611364
  81.6054693  71.3270187  46.4129730  76.3685342  70.3565808  48.5850384
  75.6135342  70.0165808  49.4940384  76.8475342  69.5185808  47.6640384
  77.3227205  69.9131228  46.8648926  76.7605342  68.0595808  47.7700384
  76.0325501  67.7933368  48.5363624  76.3245342  67.4365808  46.4450384
  77.1063766  67.6536108  45.7172199  76.2643741  66.3597167  46.6026603
  74.9955342  67.9455808  45.9250384  74.2626576  67.8956511  46.7303332
  75.1448682  68.9854307  45.6343313  74.4905342  67.1545808  44.7320384
  74.3425342  65.9175808  44.8640384  74.2225342  67.7695808  43.6730384
  78.1365342  67.5205808  48.0950384  79.1025342  67.8705808  47.4160384
  78.2275342  66.6635808  49.1090384  77.4161894  66.4845202  49.6832824
  79.4815342  65.9965808  49.4540384  80.2917477  66.3167491  48.7989463
  79.8845342  66.2855808  50.9130384  79.0731942  65.9705326  51.5692177
  81.1585342  65.5375808  51.2860384  81.9704934  65.8524625  50.6305441
  81.4208048  65.7589897  52.3205879  80.9969664  64.4654393  51.1741893
  80.0755342  67.7795808  51.1120384  79.1436311  68.2985898  50.8877881
  80.3602488  67.9754854  52.1457979  80.8599519  68.1380788  50.4455034
  79.3475342  64.4895808  49.2400384  78.5115342  63.8515808  49.8760384
  80.1565342  63.9455808  48.3270384  80.6478324  64.5577330  47.6914323
  80.3545342  62.4965808  48.1910384  79.5115056  61.9703606  48.6388042
  80.4585342  62.0895808  46.7140384  79.5244510  62.3703399  46.2274563
  81.2804504  62.6554618  46.2754811  80.7085342  60.5835808  46.5140384
  80.7945342  59.8185808  47.5030384  80.8185342  60.1625808  45.3390384
  81.6425342  62.1605808  48.9370384  82.7385342  62.4705808  48.4710384
  81.5075342  61.4995808  50.0810384  80.5876220  61.2244012  50.3943068
  82.6365342  61.3085808  50.9920384  83.2363246  62.2186528  51.0029726
  82.1505342  60.9905808  52.4360384  81.5805676  60.0617515  52.4133544
  83.3245342  60.8425808  53.3970384  83.8947471  61.7712369  53.4206119
  82.9507650  60.6208562  54.3966561  83.9687552  60.0296725  53.0619881
  81.2415342  62.1295808  52.9420384  81.8905397  62.9826297  53.1400286
  80.5616377  62.3727690  52.1255216  80.4405342  61.8055808  54.1860384
  81.1198089  61.5627246  55.0031716  79.8336295  62.6676558  54.4627921
  79.7909082  60.9528618  53.9886650  83.6555342  60.2785808  50.4510384
  84.8095342  60.2745808  50.8910384  83.2525342  59.4415808  49.4870384
  82.2719773  59.3797724  49.2529717  84.1915342  58.5275808  48.8110384
  84.8142793  58.0362723  49.5586371  83.4525342  57.4495808  48.0020384
  82.8582333  57.9560246  47.2414989  84.2152485  56.8386503  47.5192021
  82.5525342  56.5645808  48.8390384  83.0855342  55.6315808  49.7320384
  84.1686500  55.5406667  49.8138577  82.2605342  54.8275808  50.5080384
  82.6885132  54.1042037  51.2020567  80.8825342  54.9505808  50.3960384
  80.0425342  54.1685808  51.1550384  80.5134276  53.5655440  51.7348709
  80.3325342  55.8635808  49.5160384  79.2501544  55.9542363  49.4247366
  81.1625342  56.6655808  48.7480384  80.7327391  57.3913038  48.0576021
  85.2005342  59.2495808  47.9010384  86.3425342  58.8025808  47.7750384
  84.7785342  60.3505808  47.2730384  83.8409063  60.6844052  47.4448364
  85.6075342  61.0705808  46.2890384  86.5807341  60.5919854  46.1798250
  84.9125342  61.0915808  44.9150384  85.5250572  61.6636930  44.2181858
  84.7285342  59.6775808  44.3850384  84.1156819  59.1049564  45.0811799
  84.2357938  59.7144229  43.4134682  85.7021001  59.1987562  44.2801712
  83.6355342  61.7345808  45.0320384  83.2036929  61.7468145  44.1747382
  85.9815342  62.5195808  46.6330384  86.8565342  63.0825808  45.9780384
  85.3335342  63.1255808  47.6280384  84.6161884  62.6306057  48.1384442
  85.5555342  64.5495808  47.9380384  85.5582891  65.1726807  47.0437017
  84.4945342  65.1045808  48.9260384  83.5053503  64.8253651  48.5631981
  84.6955342  64.5485808  50.3340384  85.6843940  64.8278022  50.6977592
  83.9352994  64.9583893  50.9990200  84.6105840  63.4621237  50.3117636
  84.5005342  66.6275808  48.9380384  84.2748129  67.0002076  47.9388882
  83.7477487  66.9888912  49.6386584  85.4833440  66.9851535  49.2451662
  86.9765342  64.8025808  48.4630384  87.5555342  63.9505808  49.1340384
  87.5225342  65.9715808  48.1270384  86.9869070  66.5972429  47.5424447
  88.8705342  66.3735808  48.5180384  89.3410586  65.5844674  49.1045587
  89.7205342  66.6295808  47.2720384  89.3150393  67.5052493  46.7652073
  90.7388150  66.8390969  47.5996163  89.7295342  65.4425808  46.3090384
  89.4694315  64.5599787  46.8933851  88.9512731  65.6302528  45.5693149
  91.0635342  65.2075808  45.5970384  91.8476813  65.6612651  46.2031595
  91.2249760  64.1310335  45.5415233  91.1005342  65.7995808  44.1930384
  90.8795357  66.8627933  44.2870565  92.1157890  65.6718648  43.8174781
  90.1345342  65.1725808  43.2400384  89.1936819  65.2911915  43.5876417
  90.2178526  65.6154671  42.3361525  90.3394117  64.1874654  43.1524488
  88.8125342  67.6155808  49.3970384  87.8125342  68.3405808  49.3900384
  89.8875342  67.8615808  50.1470384  90.6550826  67.2052059  50.1351685
  89.9655342  69.0125808  51.0670384  89.1392641  69.0065350  51.7779113
  91.3015342  69.0325808  51.8590384  92.1220442  68.9087941  51.1522574
  91.4835342  70.3415808  52.6260384  90.6635902  70.4658481  53.3333929
  92.4292691  70.3175950  53.1674354  91.4877534  71.1763847  51.9251916
  91.3675342  67.8505808  52.8220384  91.3027327  66.9190732  52.2597249
  92.3097878  67.8792543  53.3692455  90.5372869  67.9079571  53.5259547
  89.7635342  70.3335808  50.3130384  89.0295342  71.2045808  50.7820384
  90.3975342  70.4605808  49.1460384  91.0916188  69.7724675  48.8913896
  90.2155342  71.6275808  48.2660384  90.5298098  72.5312229  48.7883035
  91.0555342  71.4845808  46.9780384  90.9885551  72.4376517  46.4533778
  92.0851939  71.3154779  47.2931657  90.6175342  70.3575808  46.0440384
  90.3533791  69.5132062  46.6807130  89.7347687  70.6904909  45.4981493
  91.6955342  69.9295808  45.0540384  91.9475342  70.6695808  44.0720384
  92.2835342  68.8355808  45.2430384  88.7405342  71.9335808  47.9180384
  88.3685342  73.1015808  47.7970384  87.9135342  70.8935808  47.7840384
  88.2814829  69.9575315  47.8763690  86.4895342  71.0535808  47.4480384
  86.3933008  71.7232300  46.5933992  85.8415342  69.7045808  47.0910384
  85.9042631  69.0750963  47.9786834  84.7945637  69.8882437  46.8497489
  86.5175342  68.9985808  45.9180384  87.0695342  69.6665808  45.0150384
  86.4815342  67.7505808  45.9020384  85.6665342  71.7055808  48.5690384
  84.5955342  72.2595808  48.3080384  86.1615342  71.6275808  49.8060384
  87.0188008  71.1148196  49.9552677  85.4775342  72.1925808  50.9730384
  84.3984943  72.0922417  50.8559742  85.9025342  71.4535808  52.2450384
  86.9427251  71.7535764  52.3719430  85.3098447  71.8395634  53.0743975
  85.8115342  69.9215808  52.2210384  86.4613109  69.5381102  51.4343736
  86.2445342  69.3465808  53.5610384  85.5948859  69.7292611  54.3481926
  86.1750730  68.2592410  53.5299235  87.2743699  69.6386150  53.7665983
  84.4055342  69.4555808  51.8660384  84.1348427  69.8339562  50.8803115
  84.3746304  68.3660518  51.8575014  83.6995402  69.8327828  52.6058965
  85.7185342  73.6965808  51.1390384  85.1315342  74.3145808  52.0260384
  86.6015342  74.2645808  50.3180384  87.2275410  73.6656038  49.7989609
  86.7185342  75.7055808  50.1400384  86.1802467  76.2350159  50.9261963
  88.1975342  76.1525808  50.1670384  88.7549855  75.5355658  49.4623109
  88.3525342  77.6275808  49.7870384  87.7956965  78.2452916  50.4916409
  89.4068542  77.9024416  49.8180215  87.9655572  77.7866140  48.7805307
  88.7365342  75.9365808  51.4790384  89.6554234  76.2139186  51.4971178
  86.0765342  76.0025808  48.7840384  86.6605342  75.7065808  47.7330384
  84.8715342  76.5735808  48.8130384  84.4981269  76.9057017  49.6907411
  84.0485342  76.7185808  47.6080384  84.6826479  76.7903049  46.7243786
  83.1395342  75.4995808  47.4590384  82.5602248  75.5460952  46.5369016
  83.7491583  74.5959998  47.4593390  82.1515342  75.3515808  48.5800384
  82.5085342  74.7125808  49.7570384  83.5131810  74.3023896  49.8596448
  81.6005342  74.5925808  50.7990384  81.8925388  74.0853661  51.7185857
  80.3235342  75.1165808  50.6720384  79.6083369  75.0198526  51.4888838
  79.9575342  75.7635808  49.5050384  78.9565277  76.1819749  49.4000029
  80.8685342  75.8785808  48.4680384  80.5845762  76.3878551  47.5471109
  83.1855342  77.9705808  47.6410384  82.9705342  78.5535808  48.6950384
  82.6985342  78.3615808  46.4670384  83.0821905  77.9496084  45.6284766
  81.6455342  79.3615808  46.3270384  81.2523876  79.6251800  47.3088991
  82.1645342  80.6425808  45.6440384  82.4754443  80.3966406  44.6286820
  81.0845342  81.7105808  45.5980384  80.7734246  81.9573938  46.6131215
  81.4765086  82.6036988  45.1114221  80.2278809  81.3378155  45.0365300
  83.2975342  81.1475808  46.3620384  83.6180466  81.9449602  45.9341854
  80.5375342  78.7385808  45.4860384  80.7925342  78.3075808  44.3650384
  79.3255342  78.6735808  46.0380384  79.1925547  79.0357983  46.9714270
  78.1655342  78.1095808  45.3390384  78.4866297  77.6646041  44.3972355
  77.4955342  77.0345808  46.1810384  77.1673610  77.4764937  47.1218437
  76.6311037  76.6499266  45.6398350  78.3905342  75.9805808  46.4450384
  77.9507911  75.3129362  46.9765235  77.1315342  79.1825808  45.0620384
  76.9055342  80.0485808  45.9060384  76.4625342  79.1055808  43.8990384
  76.5515342  78.0925808  42.8250384  76.2472845  77.1234696  43.2204569
  77.5812806  78.0335503  42.4725660  75.6075342  78.6085808  41.7630384
  74.7072287  77.9942031  41.7535958  76.0957555  78.5517886  40.7901478
  75.2985342  80.0205808  42.1210384  74.2740471  80.2133461  41.8026572
  75.9570884  80.7835876  41.7060363  75.3795342  80.0355808  43.6420384
  75.6335229  81.0062614  44.0679106  74.0855342  79.5265808  44.2730384
  73.9755342  78.3405808  44.5680384  73.1305342  80.4235808  44.4940384
  73.3292517  81.4048547  44.3609513  71.8015342  80.0435808  44.9830384
  71.5714946  79.0304778  44.6531848  71.7345342  80.0875808  46.5240384
  70.8085954  79.6251343  46.8659152  72.5848614  79.5554640  46.9505305
  71.7615342  81.4815808  47.1050384  70.5885342  82.2125808  47.2650384
  69.6413219  81.7586757  46.9737330  70.6105342  83.4975808  47.7850384
  69.6815086  84.0566206  47.8967819  71.8085342  84.0685808  48.1610384
  71.8318638  85.0784112  48.5706700  72.9855342  83.3525808  48.0160384
  73.9336952  83.7989152  48.3158326  72.9585342  82.0665808  47.4890384
  73.8857899  81.5053960  47.3734161  70.7335342  80.9555808  44.3870384
  71.0205342  82.0955808  44.0040384  69.5105342  80.4315808  44.3200384
  69.4030967  79.4533402  44.5471990  68.3235342  81.1855808  43.9290384
  68.4749842  82.2431474  44.1451748  68.0435342  81.0275808  42.4340384
  68.7995885  81.5545312  41.8519693  68.0452230  79.9724744  42.1604554
  66.4465342  81.6835808  41.8930384  66.5922889  81.3639511  40.6102716
  67.1545342  80.6445808  44.7450384  66.9505342  79.4305808  44.7890384
  66.4105342  81.5335808  45.4030384  66.6259319  82.5165425  45.3164974
  65.2765342  81.1435808  46.2390384  65.1913578  80.0579073  46.2854841
  65.4945342  81.6775808  47.6550384  65.4943991  82.7601138  47.5276753
  64.6357358  81.3831259  48.2582478  66.7855342  81.2465808  48.3600384
  67.6278257  81.4198506  47.6902448  66.9875342  82.0375808  49.6430384
  66.1458056  81.8644413  50.3135714  67.9094508  81.7158915  50.1274830
  67.0523385  83.1001807  49.4089824  66.7565342  79.7565808  48.6540384
  66.6609303  79.2031787  47.7198513  67.6802583  79.4664579  49.1547018
  65.9075745  79.5293983  49.2988286  64.0035342  81.7445808  45.6700384
  63.9695342  82.9405808  45.4030384  62.9785342  80.9115808  45.4750384
  63.1192418  79.9224492  45.6230905  61.6585342  81.3665808  45.0250384
  61.7726240  82.2346249  44.3757449  60.9355342  80.2605808  44.2430384
  61.6570814  79.8386477  43.5434375  60.6409884  79.4982566  44.9642905
  59.7025342  80.7395808  43.4760384  59.0078545  81.1978406  44.1799694
  60.0242111  81.4836203  42.7473195  58.9825342  79.6205808  42.7420384
  58.9395342  78.4795808  43.2050384  58.4055342  79.9465808  41.5940384
  57.9124957  79.2433382  41.0625647  58.4615898  80.8967140  41.2560945
  60.8215342  81.7785808  46.2370384  60.6555342  80.9985808  47.1750384
  60.2905342  83.0005808  46.2050384  60.5082020  83.6015388  45.4230093
  59.4555342  83.5385808  47.2840384  59.8282313  83.2702272  48.2725638
  59.3755342  85.0885808  47.1870384  59.0794177  85.3539566  46.1721542
  58.3715342  85.6645808  48.1750384  58.6672569  85.3999935  49.1902441
  58.3451350  86.7497515  48.0760029  57.3820725  85.2571412  47.9675289
  60.7525342  85.7125808  47.4070384  61.4433918  85.3466305  46.6475003
  60.6760061  86.7975262  47.3353696  61.1220744  85.4394308  48.3954361
  58.0525342  82.9045808  47.2280384  57.4125342  82.9125808  46.1770384
  57.5825342  82.3785808  48.3610384  58.1641029  82.4094303  49.1862206
  56.2825342  81.6775808  48.4450384  55.9873324  81.3234252  47.4573497
  56.3885342  80.4735808  49.3850384  56.9082369  80.8054018  50.2838727
  55.3739634  80.1704371  49.6435921  57.1285342  79.2965808  48.7790384
  56.6299348  79.0135969  47.8519895  58.1512013  79.6047176  48.5615395
  57.1485342  78.1035808  49.7300384  57.8906642  78.2913554  50.5059784
  56.1631980  78.0073722  50.1860602  57.4965342  76.8135808  48.9960384
  56.6904339  76.5877446  48.2979690  58.4219425  76.9726225  48.4424821
  57.6715342  75.6725808  49.9380384  56.8140035  75.5247671  50.4507682
  57.9004974  74.8380857  49.4171797  58.4187247  75.8814641  50.5847015
  55.0945342  82.5455808  48.8810384  53.9445342  82.2205808  48.5690384
  55.3705342  83.6255808  49.6110384  56.3330558  83.8349612  49.8342229
  54.3245342  84.5195808  50.1290384  53.4692271  84.5220867  49.4533590
  53.8575342  84.0435808  51.5080384  52.9239455  84.5624249  51.7255517
  53.6677926  82.9731458  51.4288734  54.8545342  84.3005808  52.6310384
  55.8508087  84.0687052  52.2545124  54.8018273  85.3578709  52.8907722
  54.5725342  83.4625808  53.8640384  53.5389066  83.6101910  54.1769667
  54.7352740  82.4095124  53.6345559  55.4545342  83.8435808  54.9660384
  55.9049749  84.7430741  54.8759583  55.6995342  83.1165808  56.0540384
  55.1335342  81.9285808  56.2330384  54.5032199  81.5624266  55.5339426
  55.3360038  81.3967193  57.0674418  56.5335342  83.5875808  56.9800384
  56.9712715  84.4884186  56.8497410  56.7242446  83.0416568  57.8081056
  54.8525342  85.9405808  50.2320384  56.0655342  86.1545808  50.2230384
  53.9405342  86.9015808  50.3470384  52.9594925  86.6857343  50.2418392
  54.3185342  88.2815808  50.6240384  55.0793940  88.5964952  49.9098812
  53.1185342  89.2275808  50.5100384  52.3138361  88.8525719  51.1424374
  53.4304513  90.2101077  50.8642257  52.5925342  89.3675808  49.0820384
  53.0205342  88.6695808  48.1580384  51.6445342  90.2745808  48.9060384
  51.2522475  90.4187223  47.9865635  51.3178908  90.8182748  49.6920420
  54.8725342  88.3435808  52.0410384  54.2195342  87.8845808  52.9810384
  56.0845342  88.8775808  52.1930384  56.6372023  89.1307019  51.3864487
  56.6755342  89.0535808  53.5240384  55.9489813  89.5171822  54.1913418
  57.0915342  87.6905808  54.1180384  56.5940034  86.9179590  53.5318492
  58.1714065  87.5888709  54.0101914  56.7105342  87.5375808  55.5890384
  56.6985342  88.5535808  56.3310384  56.4325342  86.3865808  56.0030384
  57.8795342  89.9955808  53.5050384  58.2465342  90.5435808  52.4570384
  58.4485342  90.2025808  54.6910384  57.9321282  89.9517701  55.5220126
  59.7615342  90.8005808  54.8510384  60.0585539  91.2968942  53.9271599
  59.7385342  91.8355808  55.9760384  59.4698792  91.3501636  56.9142782
  60.7495148  92.2360403  56.0512082  58.7715342  92.9605808  55.6970384
  59.1285342  94.0175808  54.8600384  60.1248981  94.0271010  54.4181471
  58.2365342  95.0485808  54.5860384  58.5337062  95.8727993  53.9376137
  56.9605342  95.0255808  55.1420384  56.0755342  96.0515808  54.8680384
  56.4452300  96.7208247  54.2874893  56.5795342  93.9775808  55.9680384
  55.5809679  93.9544531  56.4044223  57.4805342  92.9525808  56.2380384
  57.1859764  92.1234182  56.8813309  60.7595342  89.6915808  55.1540384
  60.4385342  88.7555808  55.8820384  61.9595342  89.7955808  54.5860384
  62.1412681  90.5721145  53.9663065  63.0175342  88.7995808  54.7810384
  62.6965280  87.9925453  55.4396339  63.4665342  88.1895808  53.4360384
  63.7399482  89.0013091  52.7619159  64.6595342  87.2565808  53.6180384
  64.3867233  86.4442838  54.2917214  64.9498711  86.8444323  52.6516334
  65.4956982  87.8133897  54.0409986  62.3055342  87.4505808  52.7860384
  61.4854679  88.1461965  52.6079599  62.6314002  87.0234362  51.8376405
  61.9670936  86.6521191  53.4463547  64.1965342  89.4555808  55.4960384
  64.7335342  90.4595808  55.0160384  64.5905342  88.8765808  56.6340384
  64.0976871  88.0556800  56.9554771  65.6595342  89.4235808  57.4810384
  65.9985607  90.3849287  57.0950716  65.1215342  89.6275808  58.8900384
  64.7900644  88.6922543  59.3410277  65.9070940  90.0680487  59.5040285
  63.9605342  90.5635808  58.9460384  62.6565342  90.1335808  58.8400384
  61.8475342  91.1745808  58.9090384  60.7670296  91.0410896  58.8562296
  62.5805342  92.2655808  59.0400384  62.2318792  93.2105867  59.1142229
  63.9075342  91.9115808  59.0600384  64.6751013  92.6796050  59.1553314
  66.9475342  88.6025808  57.5530384  67.9885342  89.1145808  57.9930384
  66.8885342  87.3405808  57.1380384  66.0284966  86.9632420  56.7664875
  68.0375342  86.4545808  57.2540384  68.9348541  87.0264137  57.0175571
  68.1575342  85.9275808  58.6770384  67.2703116  85.3451072  58.9253537
  69.0412865  85.2946206  58.7573105  68.2470548  86.7651061  59.3688741
  67.9615342  85.2925808  56.2900384  66.8825342  84.9225808  55.8180384
  69.1325342  84.7415808  55.9910384  69.9827355  85.2324869  56.2282478
  69.2425342  83.4605808  55.3240384  68.3121501  83.2415818  54.8000881
  70.3825342  83.4665808  54.3110384  71.2545001  83.7320422  54.9087884
  70.5075176  82.4589450  53.9146176  70.2385342  84.4545808  53.1540384
  70.1716020  85.4710354  53.5419054  71.4565342  84.3355808  52.2540384
  71.5238800  83.3194513  51.8653943  71.3654677  85.0362012  51.4240151
  72.3554470  84.5655820  52.8260136  68.9445342  84.2285808  52.3750384
  68.0915960  84.3553229  53.0417709  68.8791099  84.9504624  51.5609697
  68.9380260  83.2184261  51.9655946  69.4965342  82.4255808  56.3990384
  70.0745342  82.7335808  57.4440384  69.0435342  81.2065808  56.1470384
  68.5527477  81.0252640  55.2831217  69.1995342  80.1155808  57.0920384
  69.8768241  80.3907681  57.9005244  67.8465342  79.6935808  57.7040384
  67.1748281  79.4012721  56.8969041  68.0195342  78.5255808  58.6690384
  68.6907958  78.8173035  59.4767553  67.0501666  78.2502044  59.0844836
  68.4414777  77.6731674  58.1366318  67.2045342  80.8705808  58.4180384
  67.0376276  81.6801383  57.7075028  66.2509559  80.5606844  58.8455337
  67.8636744  81.2167263  59.2141656  69.8365342  78.9495808  56.3520384
  69.3435342  78.5345808  55.3000384  70.9365342  78.4415808  56.8990384
  71.3538740  78.8930673  57.7003415  71.5945342  77.2675808  56.3490384
  71.2023102  77.0471445  55.3562306  73.0935342  77.4925808  56.2400384
  73.5022818  77.7054757  57.2278143  73.5673751  76.5977645  55.8364559
  73.2876240  78.3361118  55.5775553  71.2965342  76.0645808  57.2310384
  71.2395342  76.1825808  58.4600384  71.0845342  74.9165808  56.5940384
  70.9650908  74.9231713  55.5911480  70.9665342  73.6455808  57.2950384
  71.5948545  73.6590755  58.1856173  69.5175342  73.3905808  57.7220384
  69.5166085  72.4807547  58.3223007  69.2227174  74.2358317  58.3439178
  68.5375342  73.2405808  56.5770384  68.3415342  72.0045808  55.9570384
  68.9045460  71.1427946  56.3154262  67.4505342  71.8615808  54.9040384
  67.3152395  70.8917814  54.4251999  66.7305342  72.9545808  54.4650384
  65.8445342  72.8015808  53.4270384  65.8114602  71.9027365  53.0915020
  66.9015342  74.1905808  55.0610384  66.3369834  75.0545356  54.7103750
  67.7995342  74.3275808  56.1130384  67.9361098  75.2980569  56.5901373
  71.4695342  72.5345808  56.3890384  71.7145342  72.7615808  55.2010384
  71.5965342  71.3325808  56.9410384  71.3927677  71.2055047  57.9220737
  72.1205342  70.1955808  56.1900384  72.0196323  70.3791898  55.1203629
  73.6095342  69.9825808  56.5140384  74.0446703  69.2119598  55.8777216
  74.1346903  70.9242640  56.3542141  73.8845342  69.5715808  57.9390384
  73.8185342  68.2365808  58.3090384  73.5525954  67.4984982  57.5523280
  74.0815342  67.8335808  59.6060384  74.0133374  66.7809795  59.8807754
  74.4325342  68.7745808  60.5560384  74.6448191  68.4667379  61.5798879
  74.5145342  70.1185808  60.2020384  74.7918040  70.8622940  60.9491075
  74.2435342  70.5115808  58.8990384  74.3113597  71.5635475  58.6217917
  71.3375342  68.9115808  56.4150384  70.6255342  68.7735808  57.4090384
  71.4825342  67.9875808  55.4660384  72.0006659  68.2370757  54.6357425
  70.9455342  66.6295808  55.5670384  70.4530788  66.5081778  56.5318432
  69.9255342  66.3425808  54.4560384  70.4374995  66.4168880  53.4966275
  69.5472823  65.3288531  54.5878782  68.7485342  67.3035808  54.4540384
  68.4905342  68.0095808  55.4290384  68.0225342  67.3285808  53.3450384
  67.2261222  67.9463471  53.2802885  68.2691983  66.7297458  52.5700195
  72.0925342  65.6385808  55.4290384  73.0965342  65.9325808  54.7750384
  71.9235342  64.4625808  56.0330384  71.0945403  64.3366881  56.5960831
  72.8985342  63.3665808  55.9750384  73.6778334  63.6402676  55.2637807
  73.5395342  63.1245808  57.3840384  72.9069338  63.6263533  58.1162552
  73.6795342  61.6495808  57.7580384  74.3124249  61.1472089  57.0264835
  74.1311012  61.5661467  58.7465862  72.6950818  61.1817674  57.7681989
  74.9475342  63.7035808  57.4390384  75.3795808  63.4109189  58.3960052
  75.5162162  63.2464785  56.6292496  74.9975342  65.1955808  57.3040384
  74.4294171  65.6534295  58.1138022  76.0335436  65.5308284  57.3529555
  74.5660501  65.4889892  56.3470469  72.1645342  62.1335808  55.4510384
  71.0375342  61.8815808  55.8630384  72.8185342  61.3825808  54.5630384
  73.7221291  61.6998546  54.2421754  72.2795342  60.1365808  54.0040384
  71.3815221  59.8459453  54.5492030  71.9165342  60.3225808  52.5250384
  72.8506758  60.5142665  51.9970844  71.4960772  59.3756835  52.1863624
  70.9315342  61.4465808  52.2370384  69.9668159  61.1649448  52.6590580
  71.2962372  62.3457093  52.7336860  70.7735342  61.7185808  50.7480384
  70.6535342  60.7475808  49.9730384  70.7665342  62.9015808  50.3430384
  73.3005342  58.9975808  54.1450384  74.5025342  59.2105808  53.9550384
  72.8115342  57.8025808  54.4870384  71.8287821  57.7361076  54.7103744
  73.6195342  56.5825808  54.5400384  74.6785435  56.8376078  54.5005443
  73.3465342  55.8155808  55.8470384  72.2900381  55.5655183  55.9439092
  73.9368178  54.8993021  55.8371048  73.7295342  56.5615808  57.0990384
  72.9785342  57.6465808  57.5490384  72.1042952  57.9604935  56.9787185
  73.3315342  58.3245808  58.7070384  72.7430595  59.1801070  59.0385094
  74.4335342  57.9135808  59.4430384  74.7126172  58.4400346  60.3557590
  75.1805342  56.8285808  59.0130384  76.0488089  56.5022756  59.5855104
  74.8225342  56.1575808  57.8530384  75.4031070  55.2973725  57.5197564
  73.1815342  55.7475808  53.3280384  72.3205342  54.8705808  53.4460384
  73.7665342  56.0345808  52.1640384  74.5483058  56.6737315  52.1435712
  73.2525342  55.5135808  50.8780384  72.1646113  55.5716437  50.8441028
  73.8265342  56.2715808  49.6570384  73.3598128  55.8781827  48.7539829
  73.5565342  57.7765808  49.7570384  74.0233747  58.1708057  50.6596714
  73.9724421  58.2796480  48.8840876  72.4814466  57.9513957  49.7985947
  75.2335342  56.0235808  49.5470384  75.5834003  56.4962467  48.7882361
  73.4745342  54.0175808  50.6370384  72.8075342  53.4345808  49.7820384
  74.4075342  53.4085808  51.3680384  75.0098534  53.9600935  51.9622982
  74.6565342  51.9615808  51.2730384  74.5572454  51.6386835  50.2367092
  76.0755342  51.6215808  51.7600384  76.1602129  51.9846792  52.7842885
  76.1674869  50.5355010  51.7513488  77.1845342  52.2315808  50.9120384
  76.9370809  53.2786078  50.7371037  78.1141556  52.1680767  51.4776119
  77.3545342  51.5175808  49.5710384  78.0348125  50.6766637  49.7058677
  76.3820188  51.1488385  49.2449368  77.8965342  52.3985808  48.5300384
  78.8646690  52.2495226  48.2838758  77.2165342  53.3555808  47.8920384
  75.9375342  53.6035808  48.1720384  75.4644540  53.0610001  48.8804883
  75.4470832  54.3329898  47.6745247  77.8255342  54.0875808  46.9620384
  78.7966868  53.9156750  46.7442973  77.3137074  54.8115816  46.4783497
  73.6295342  51.1085808  52.0250384  73.6155342  49.8925808  51.8540384
  72.7885342  51.7325808  52.8530384  72.9214482  52.7150647  53.0458038
  71.6985342  51.0305808  53.5390384  72.0813085  50.1234573  54.0067029
  71.0845342  51.9195808  54.6250384  70.7360820  52.8589839  54.1958507
  70.2506983  51.4098269  55.1077066  72.2305342  52.3675808  55.9470384
  71.3622130  53.0961918  56.6427701  70.6085342  50.5885808  52.5610384
  70.3255342  51.2805808  51.5840384  70.0015342  49.4365808  52.8410384
  70.3013254  48.9071435  53.6472150  68.9605342  48.8625808  51.9790384
  69.3433577  48.7548751  50.9641764  68.5285342  47.4755808  52.4920384
  69.3779619  46.7928080  52.4722055  68.1493035  47.5533960  53.5109736
  67.4435342  46.8345808  51.6780384  67.5315342  46.6735808  50.3100384
  66.4345342  46.0855808  49.8650384  66.3100484  45.8735759  48.8031268
  65.6395342  45.8535808  50.8940384  64.7316039  45.4127993  50.8556446
  66.2465342  46.3105808  52.0400384  65.7437496  46.2069369  53.0015824
  67.7625342  49.8065808  51.8780384  67.3075342  50.1155808  50.7780384
  67.2755342  50.2625808  53.0310384  67.6401342  49.8832398  53.8931675
  66.2095342  51.2645808  53.1090384  65.5872639  51.2208946  52.2151870
  65.3255342  50.9905808  54.3370384  65.1860498  49.9103326  54.3783570
  65.8988942  51.3158401  55.2051195  63.9655342  51.6785808  54.3400384
  63.5643873  51.6295288  55.3523505  64.1137631  52.7211468  54.0586378
  62.9835342  51.0255808  53.3720384  63.5074073  50.8278937  52.4368508
  62.6510346  50.0834320  53.8078126  61.7745342  51.9135808  53.0990384
  61.0580152  51.3253493  52.5257281  61.3381181  52.1789898  54.0619497
  62.1125342  53.1595808  52.3450384  62.5165454  52.9138664  51.4525704
  61.2732396  53.7015598  52.1969060  62.7761404  53.7050001  52.8763046
  66.8435342  52.6575808  53.1900384  67.9965342  52.7965808  53.6140384
  66.0965342  53.6785808  52.7640384  65.1962060  53.4996528  52.3427391
  66.5635342  55.0645808  52.8420384  67.5218550  55.1504229  52.3298357
  65.5685342  56.0335808  52.1870384  65.2416405  55.5799045  51.2514009
  64.7170882  56.1291817  52.8608337  66.1525342  57.4175808  51.9050384
  66.7524568  57.7097096  52.7669285  66.7935353  57.3378636  51.0270493
  65.0775342  58.4685808  51.6550384  65.5544445  59.3847444  51.3067571
  64.3959443  58.1002547  50.8883113  64.3045342  58.7715808  52.8650384
  64.5275886  58.2252041  53.6846838  63.3435342  59.6965808  52.9570384
  63.0075342  60.4515808  51.9060384  63.4843384  60.3256529  51.0246191
  62.2784425  61.1444098  51.9983028  62.7095342  59.8755808  54.1170384
  62.9588133  59.3122824  54.9174477  61.9831493  60.5735804  54.1895659
  66.7855342  55.4415808  54.3080384  65.8615342  55.3655808  55.1180384
  68.0185342  55.8315808  54.6280384  68.6995970  55.9360485  53.8895675
  68.4435342  56.0805808  56.0010384  67.5758233  56.1700776  56.6546187
  69.3275342  54.9285808  56.5120384  70.2458650  54.9116034  55.9251136
  69.6715342  55.0995808  57.9900384  68.7536612  55.1161838  58.5776889
  70.2964845  54.2684145  58.3166865  70.2103409  56.0363739  58.1321885
  68.6355342  53.6865808  56.3330384  69.1842960  52.9658393  56.6508316
  69.2075342  57.4025808  56.0710384  70.1485342  57.6335808  55.3090384
  68.7945342  58.2605808  56.9960384  68.0746955  57.9878469  57.6499098
  69.3495342  59.5965808  57.1020384  70.3334765  59.5272170  57.5658761
  69.4497539  60.0107344  56.0987776  68.4805342  60.5145808  57.9280384
  67.3945342  60.1335808  58.3550384  68.9745342  61.7215808  58.1720384
  69.9431923  61.9183438  57.9644685  68.1875342  62.7515808  58.8460384
  67.1282518  62.5538136  58.6820013  68.4535342  62.7815808  60.3630384
  67.8149447  63.5062984  60.8680998  68.2488311  61.7842455  60.7522929
  69.8705342  63.1125808  60.7500384  70.2805342  64.4325808  60.8910384
  69.5663094  65.2326961  60.6966206  71.5805342  64.7395808  61.2740384
  71.8896829  65.7805118  61.3688565  72.4825342  63.7235808  61.5350384
  73.5035859  63.9578430  61.8361608  72.0825342  62.4035808  61.4120384
  72.7890781  61.5997312  61.6187307  70.7835342  62.1035808  61.0260384
  70.4680253  61.0641345  60.9360082  68.4145342  64.1125808  58.2150384
  69.3925342  64.3205808  57.4940384  67.4785342  65.0185808  58.4860384
  66.6692155  64.7273380  59.0154533  67.5555342  66.4005808  58.0520384
  68.4615208  66.5616021  57.4677785  66.3465342  66.7345808  57.1800384
  66.3962035  66.1306443  56.2740070  65.4413538  66.4846766  57.7334788
  66.3225342  68.1085808  56.8310384  65.5534765  68.2865687  56.2847140
  67.5785342  67.2965808  59.2770384  66.9815342  66.9625808  60.2990384
  68.2655342  68.4305808  59.1690384  68.8420504  68.5783198  58.3530105
  68.2835342  69.4455808  60.2250384  67.7757101  69.0755715  61.1157162
  69.7295342  69.8285808  60.6050384  69.6998278  70.5731058  61.4005887
  70.5025342  68.6055808  61.0830384  70.5330668  67.8607507  60.2878054
  71.5192667  68.8976104  61.3458557  70.0090207  68.1822603  61.9578782
  70.3935342  70.4025808  59.4770384  71.2917881  70.6382953  59.7203057
  67.4895342  70.6985808  59.8270384  67.6845342  71.7715808  60.3970384
  66.5605342  70.5485808  58.8850384  66.4079630  69.6374260  58.4768493
  65.7645342  71.6665808  58.3960384  66.4208389  72.4981127  58.1392934
  64.9685342  71.2665808  57.1470384  64.6962878  72.1719607  56.6045734
  65.6024139  70.6427881  56.5168168  63.7935342  70.5505808  57.4910384
  63.3172877  70.3142468  56.6917041  64.7965342  72.1505808  59.4700384
  64.4515342  71.3835808  60.3750384  64.3375342  73.4155808  59.3650384
  64.8655342  74.4695808  58.4760384  64.5556246  74.2654704  57.4511505
  65.9541055  74.4761018  58.5314371  64.2575342  75.7275808  59.0220384
  64.1030572  76.4445157  58.2156637  64.9176768  76.1623591  59.7725589
  62.9705342  75.3085808  59.6280384  62.1851307  75.2136821  58.8782154
  62.6474464  75.9998784  60.4063838  63.2745342  73.9375808  60.2400384
  63.7018323  74.0103387  61.2401489  61.9945342  73.0875808  60.2910384
  61.3565342  73.0275808  61.3360384  61.6375342  72.4445808  59.1770384
  62.1667880  72.6020296  58.3313436  60.4455342  71.5785808  59.1050384
  59.6571547  71.9763388  59.7440575  59.9235342  71.5165808  57.6630384
  60.7673986  71.2676449  57.0195921  59.1837045  70.7174626  57.6165401
  59.2915342  72.8225808  57.1900384  58.2781003  72.8385397  57.5910344
  59.8606997  73.6522858  57.6092514  59.2395342  72.9575808  55.6770384
  60.3155342  72.9755808  55.0460384  58.1255342  73.0695808  55.1170384
  60.6645342  70.1535808  59.6400384  59.7035342  69.3895808  59.7610384
  61.9155342  69.7985808  59.9380384  62.6572550  70.4647737  59.7763700
  62.2685342  68.4845808  60.4730384  61.5132686  67.7503722  60.1926620
  63.6175342  68.0385808  59.9070384  64.3899524  68.7226060  60.2585764
  63.8338361  67.0320957  60.2652302  63.5945342  68.0405808  58.4930384
  64.4489811  67.7581813  58.1587169  62.3465342  68.5445808  61.9990384
  62.4625342  69.6355808  62.5650384  62.2975342  67.3755808  62.6760384
  62.0245342  66.0285808  62.1410384  62.9338377  65.6245847  61.6960051
  61.2457499  66.0918001  61.3810402  61.5835342  65.2585808  63.3480384
  61.8298310  64.2035735  63.2280525  60.5077926  65.3665226  63.4867106
  62.3275342  65.8635808  64.4820384  63.3341025  65.4510729  64.5510062
  61.8114974  65.7218499  65.4316267  62.3985342  67.3575808  64.1430384
  61.5453102  67.9163612  64.5275790  63.6895342  67.9575808  64.6950384
  64.6775342  68.0805808  63.9740384  63.6615342  68.3275808  65.9730384
  62.8150753  68.2000654  66.5090855  64.8025342  68.9615808  66.6230384
  65.0390200  69.8982840  66.1183002  64.4895342  69.2635808  68.0980384
  63.6636286  69.9748799  68.1037478  64.1719624  68.3350534  68.5724698
  65.6625342  69.8455808  68.8620384  65.9225342  71.2185808  68.8340384
  65.2607036  71.8659619  68.2587321  66.9995342  71.7615808  69.5210384
  67.1834464  72.8356420  69.4951418  67.8455342  70.9295808  70.2420384
  68.9135342  71.4825808  70.9130384  68.9687141  72.4354187  70.8098169
  67.6135342  69.5595808  70.2850384  68.2766361  68.9045267  70.8501053
  66.5255342  69.0255808  69.6000384  66.3340496  67.9530280  69.6326609
  66.0535342  68.0855808  66.5310384  65.9715342  66.8585808  66.6650384
  67.1885342  68.7265808  66.2590384  67.1310711  69.6516607  65.8577599
  68.5135342  68.1555808  66.4980384  68.4394915  67.2855962  67.1505289
  69.2425342  67.7385808  65.1990384  70.0319812  67.0329523  65.4578089
  68.2875342  67.0895808  64.2050384  67.4980170  67.7948186  63.9454200
  68.8344304  66.8096280  63.3046884  67.8459501  66.1993243  64.6528636
  69.8755342  68.8755808  64.5990384  70.3241082  68.6046670  63.7946831
  69.3395342  69.2145808  67.2210384  68.9785342  70.3925808  67.2260384
  70.4575342  68.8035808  67.8110384  70.6897195  67.8207820  67.8282428
  71.3195342  69.7355808  68.5490384  70.7046802  70.4143689  69.1400548
  72.2565342  68.9765808  69.4930384  72.6589140  69.6629013  70.2381249
  71.7213503  68.1700458  69.9942165  73.4275342  68.3525808  68.8110384
  73.3235342  67.2055808  68.0550384  72.4672008  66.6912781  67.9057551
  74.5105342  66.8955808  67.5660384  74.6388785  66.0176106  66.9329546
  75.3795342  67.7965808  67.9830384  76.3664936  67.8124039  67.7691208
  74.7275342  68.7205808  68.7620384  75.2805669  69.5514593  69.2000988
  72.1125342  70.6825808  67.6350384  72.6685342  71.6745808  68.1120384
  72.1755342  70.3745808  66.3400384  71.8924255  69.4563163  66.0290092
  72.7035342  71.3165808  65.3420384  73.6425648  71.7391745  65.6994392
  72.9605342  70.6125808  64.0080384  72.1056268  69.9975932  63.7269284
  73.1525829  71.3464435  63.2253106  74.1355342  69.7135808  64.0430384
  75.4445342  70.0885808  64.0090384  75.6483617  71.1578891  63.9530568
  76.2545342  68.9835808  64.0550384  77.2644079  68.9933456  64.0424150
  75.4715342  67.8635808  64.1250384  75.8355342  66.5235808  64.1920384
  76.8973307  66.2772393  64.1936918  74.8335342  65.5925808  64.2520384
  75.0846711  64.5332651  64.3057083  73.4805342  65.9725808  64.2460384
  72.6857919  65.2281048  64.2933631  73.1145342  67.3195808  64.1790384
  72.0537422  67.5690917  64.1552626  74.1265342  68.2855808  64.1240384
  71.7805342  72.5115808  65.1030384  72.2485342  73.5925808  64.7500384
  70.4795342  72.3075808  65.3090384  70.1933895  71.3554906  65.4872094
  69.4425342  73.3025808  65.0220384  68.4957175  72.7878036  64.8588154
  69.2615342  74.3175808  66.1810384  69.0354192  75.2703567  65.7023012
  68.3886146  73.9743403  66.7362837  70.4315342  74.4955808  67.1360384
  70.7883529  73.5008889  67.4031889  71.2141997  75.0290489  66.5966419
  70.0735342  75.2645808  68.4040384  70.7021292  76.1541189  68.4451405
  69.0275754  75.5625024  68.3311526  70.2795342  74.4375808  69.6700384
  69.4153768  73.7871472  69.8052000  71.1755942  73.8293990  69.5463827
  70.4345342  75.3125808  70.8670384  69.6041534  75.8759101  70.9820486
  70.5689726  74.7395350  71.6877971  71.2354815  75.9150701  70.7421818
  69.6305342  73.8635808  63.5970384  69.7095342  73.0575808  62.6690384
  69.6905342  75.1815808  63.3980384  69.4772938  75.8091752  64.1601100
  70.0155342  75.7605808  62.0910384  70.5542169  75.0250061  61.4936691
  68.7455342  76.1755808  61.3310384  68.2362561  76.9053115  61.9605048
  69.0814389  76.6592742  60.4138096  67.7795342  75.0385808  60.9840384
  67.2128766  75.3274928  60.0988663  68.3748550  74.1532387  60.7607346
  66.7965342  74.6965808  62.1030384  66.3335342  75.5775808  62.8260384
  66.4695342  73.4105808  62.2420384  65.8234808  73.1324489  62.9668549
  66.8695387  72.7210778  61.6218099  70.9315342  76.9675808  62.2900384
  71.0705342  77.4555808  63.4040384  71.5575342  77.4315808  61.2120384
  71.4292831  76.9577669  60.3293429  72.4675342  78.5675808  61.2600384
  72.6288944  78.8478912  62.3009458  73.8345342  78.2285808  60.6220384
  73.6751042  77.9891143  59.5706878  74.8095342  79.3965808  60.7350384
  74.9698307  79.6363406  61.7861901  75.7597155  79.1230535  60.2763037
  74.3966327  80.2660120  60.2234700  74.4115342  77.1025808  61.2920384
  75.2600162  76.8939042  60.8943794  71.8235342  79.7585808  60.5490384
  71.5005342  79.6765808  59.3620384  71.6825342  80.8645808  61.2840384
  72.0460526  80.8514759  62.2262603  70.9955342  82.0695808  60.8230384
  70.4429772  81.8985877  59.8991655  70.0085342  82.5805808  61.9030384
  70.5708207  82.8028453  62.8099737  69.2785342  83.8365808  61.4370384
  68.7156123  83.6149656  60.5303375  68.5937839  84.1698905  62.2168602
  70.0039157  84.6235167  61.2305069  69.0125342  81.4845808  62.2600384
  69.5484990  80.6175940  62.6462736  68.3230231  81.8528805  63.0196629
  68.4524144  81.1979443  61.3699788  72.0145342  83.1575808  60.4760384
  72.8865342  83.4635808  61.2830384  71.8875342  83.7245808  59.2730384
  71.1226873  83.4171030  58.6894581  72.7785342  84.7685808  58.7580384
  73.5869847  84.9478741  59.4668127  73.3875342  84.3385808  57.4190384
  72.6041923  84.0657672  56.7118982  73.9755428  85.1601606  57.0099509
  74.3105342  83.1555808  57.5160384  73.8065342  81.8595808  57.4910384
  72.7306812  81.7106046  57.3991345  74.6515342  80.7665808  57.5810384
  74.2405509  79.7570596  57.5732683  76.0205342  80.9565808  57.6810384
  76.6902440  80.0990014  57.7454304  76.5375342  82.2425808  57.6990384
  77.6137964  82.3957000  57.7785020  75.6865342  83.3335808  57.6160384
  76.0937166  84.3445906  57.6287522  71.9785342  86.0455808  58.5420384
  71.2315342  86.1535808  57.5660384  72.1245342  87.0095808  59.4480384
  72.6636931  86.8457890  60.2862385  71.4415342  88.2945808  59.3030384
  70.4225611  88.1232312  58.9560048  71.3845342  89.0585808  60.6380384
  72.3846560  89.0795974  61.0709517  71.0664562  90.0758879  60.4099757
  70.4205342  88.4385808  61.6260384  69.0545342  88.4135808  61.3640384
  68.6897219  88.8603869  60.4391732  68.1635342  87.8355808  62.2520384
  67.0956792  87.8305268  62.0334934  68.6315342  87.2675808  63.4190384
  67.7395342  86.6915808  64.2920384  66.8303964  86.7437217  63.9881480
  69.9855342  87.2745808  63.7060384  70.3570895  86.8260004  64.6273542
  70.8715342  87.8575808  62.8120384  71.9393256  87.8669289  63.0307489
  72.0945342  89.1515808  58.2230384  73.2775342  89.0135808  57.9350384
  71.2965342  90.0335808  57.6350384  70.3234393  90.0515566  57.9049690
  71.7525342  90.9835808  56.6190384  72.7881514  90.7698222  56.3546454
  70.8895342  90.8785808  55.3500384  70.0842668  91.6052567  55.4576755
  71.5267436  91.1644496  54.5131732  70.2975342  89.5005808  55.0890384
  71.1258674  88.8040025  54.9596409  69.7192126  89.2172389  55.9684493
  69.2375342  89.4345808  53.6380384  67.7765342  90.2985808  54.1940384
  68.0422723  91.3164283  54.4794657  67.0424028  90.3275010  53.3888581
  67.3520567  89.7798332  55.0535854  71.6075342  92.3595808  57.2620384
  70.8115342  92.5105808  58.1890384  72.3655342  93.3525808  56.7940384
  73.0519370  93.1876997  56.0717055  72.2825342  94.6975808  57.3830384
  72.3708809  94.6077392  58.4657307  73.3835342  95.6445808  56.8770384
  74.2753931  95.0523793  56.6721374  73.0364858  96.1090692  55.9540498
  73.7185342  96.7345808  57.9030384  72.7994958  96.9609969  58.4435982
  74.4476677  96.3059776  58.5906160  74.2805342  98.0135808  57.3010384
  73.8645342  99.1075808  57.7530384  75.1345342  97.9345808  56.3870384
  70.9065342  95.3095808  57.1320384  70.2725342  95.8175808  58.0540384
  70.4625342  95.2415808  55.8800384  71.0913559  94.9195821  55.1582354
  69.1165342  95.6635808  55.4900384  68.7053215  96.3434535  56.2362129
  69.1705342  96.3905808  54.1420384  69.7392868  95.7723531  53.4474779
  68.1504035  96.5039248  53.7751781  69.8205342  97.7525808  54.2530384
  69.2515342  98.6125808  54.9600384  70.8885342  97.9665808  53.6400384
  68.1985342  94.4515808  55.4260384  68.6305342  93.3365808  55.6760384
  66.9275342  94.6815808  55.1180384  66.5982954  95.6350472  55.0670194
  65.9635342  93.6015808  54.8980384  66.4707800  92.6399450  54.9758688
  64.8375342  93.6465808  55.9360384  64.1421389  92.8453474  55.6859391
  65.2990891  93.4382772  56.9012724  64.0905342  94.9565808  56.0080384
  62.9955342  95.2055808  55.1780384  62.6826367  94.4358386  54.4725658
  62.3075342  96.4115808  55.2410384  61.4596129  96.6012375  54.5828883
  62.7095342  97.3795808  56.1520384  62.0295342  98.5675808  56.2240384
  61.2993334  98.6200585  55.6030291  63.7905342  97.1535808  56.9880384
  64.1059761  97.9145108  57.7018888  64.4735342  95.9475808  56.9120384
  65.3256020  95.7616582  57.5658835  65.3935342  93.6995808  53.4950384
  65.5225342  94.7295808  52.8320384  64.7715342  92.6135808  53.0500384
  64.7765460  91.7760962  53.6145681  64.0765342  92.5795808  51.7700384
  64.3880419  93.4289983  51.1621305  64.3945342  91.2965808  51.0130384
  63.9236241  90.5187989  51.6142025  63.8909492  91.3646054  50.0487382
  65.8605342  90.9515808  50.7960384  66.3707813  90.9005805  51.7578844
  65.9595342  89.6105808  50.1010384  65.4498774  89.6609387  49.1388467
  67.0083254  89.3590373  49.9433563  65.4917918  88.8447135  50.7197182
  66.5495342  92.0275808  49.9830384  66.4864870  92.9790424  50.5110964
  67.5966361  91.7608775  49.8396913  66.0620908  92.1183731  49.0123404
  62.5775342  92.6485808  51.9920384  62.0655342  92.1585808  53.0000384
  61.8895342  93.2725808  51.0410384  62.3976991  93.7762175  50.3281444
  60.4385342  93.2825808  50.9890384  60.0282427  92.7745522  51.8617738
  59.8955342  94.7195808  50.9570384  60.2026740  95.1885305  50.0222381
  58.3715342  94.7325808  51.0560384  58.0636355  94.2641785  51.9908632
  58.0140616  95.7619924  51.0310534  57.9476901  94.1808603  50.2169548
  60.4515342  95.4595808  52.0530384  60.1143166  96.3582465  52.0361711
  60.0785342  92.5195808  49.7250384  60.3365342  92.9895808  48.6220384
  59.4975342  91.3365808  49.9010384  59.2256041  91.0572043  50.8327584
  59.3105342  90.3825808  48.8090384  59.6004307  90.7980479  47.8439238
  60.1155342  89.0765808  49.0490384  59.9650429  88.4079710  48.2014462
  61.6035342  89.3815808  49.1980384  61.7548743  90.0498176  50.0457746
  62.1501877  88.4535529  49.3654739  61.9697528  89.8595091  48.2894295
  59.6135342  88.2945808  50.2620384  58.5688914  88.0218486  50.1122366
  60.2104439  87.3908507  50.3847996  59.7026613  88.9124246  51.1555854
  57.8345342  90.0615808  48.5870384  57.0345342  90.0865808  49.5210384
  57.4935342  89.7595808  47.3380384  58.1935599  89.8394297  46.6143758
  56.1555342  89.3205808  46.9600384  55.5076109  89.3205221  47.8365626
  55.5565342  90.2555808  45.9100384  56.1583687  90.1487757  45.0075490
  54.5427940  89.9065686  45.7135155  55.5175342  91.7165808  46.3220384
  55.0825623  91.7830595  47.3192750  56.5389099  92.0964968  46.3456502
  54.6895342  92.5475808  45.3510384  55.0369248  93.5796384  45.3987451
  54.8460296  92.1582224  44.3450520  53.2055342  92.4955808  45.6900384
  52.9374253  91.4590686  45.8946375  53.0373801  93.0969638  46.5834374
  52.3665342  93.0135808  44.5800384  52.5218789  92.4561948  43.7522167
  51.3924936  92.9627489  44.8422615  52.6145162  93.9741583  44.3905791
  56.2475342  87.9165808  46.3900384  57.2915342  87.5335808  45.8580384
  55.1485342  87.1675808  46.5030384  54.3577219  87.5603839  46.9933657
  55.0245342  85.8085808  45.9560384  55.6268059  85.1001373  46.5247878
  53.5515342  85.3425808  45.9890384  52.9786897  85.9658573  45.3023975
  53.4125342  83.8705808  45.5800384  53.9847736  83.2466026  46.2665462
  52.3624161  83.5806235  45.6157583  53.7915118  83.7371339  44.5667919
  53.0265342  85.5305808  47.3080384  52.1112475  85.2420261  47.3322610
  55.5035342  85.7355808  44.5060384  55.1225342  86.5725808  43.6860384
  56.3505342  84.7475808  44.2150384  56.6597741  84.1376209  44.9582873
  56.8555342  84.5045808  42.8620384  56.9515266  83.4239495  42.7565832
  56.0913193  84.8696157  42.1758720  58.1845342  85.1555808  42.5140384
  58.8015342  84.7855808  41.5130384  58.6345342  86.1165808  43.3220384
  58.0685115  86.4217493  44.1008771  59.8955342  86.8195808  43.0610384
  60.0307263  86.9469199  41.9869774  59.8885342  88.2045808  43.7220384
  59.7719924  88.0611134  44.7962518  60.8510007  88.6751161  43.5211532
  58.7665342  89.1005808  43.2040384  58.8870499  89.1928915  42.1246610
  57.8332041  88.5813803  43.4218111  58.7335342  90.4895808  43.8320384
  58.4915342  91.4685808  43.0860384  58.9305342  90.6145808  45.0670384
  61.0745342  85.9635808  43.5270384  60.8865342  84.9865808  44.2570384
  62.2795342  86.3295808  43.0910384  62.3716718  87.1964731  42.5810309
  63.4735342  85.4975808  43.2690384  63.2430896  84.6388030  43.8995106
  63.9575342  84.9885808  41.9050384  64.0768635  85.8559692  41.2558103
  64.9267418  84.5139397  42.0581808  63.0025342  83.9945808  41.2540384
  63.0494042  83.0895883  41.8597550  61.9962166  84.4107910  41.3008682
  63.3465342  83.6545808  39.8020384  63.8435342  84.5305808  39.0510384
  63.0915342  82.4955808  39.3990384  64.6125342  86.2345808  43.9800384
  64.9935342  87.3345808  43.5780384  65.1475342  85.6145808  45.0320384
  64.7275191  84.7514468  45.3461822  66.3385342  86.1025808  45.7320384
  66.5320350  87.1476784  45.4903205  66.2125342  85.9435808  47.2620384
  66.0965876  84.8859551  47.4988605  67.4555342  86.4895808  47.9650384
  67.5718917  87.5473475  47.7290488  67.3468775  86.3681085  49.0427856
  68.3352988  85.9431156  47.6252013  64.9485342  86.6305808  47.7890384
  65.1441446  87.7027013  47.8089129  64.1450238  86.4214092  47.0828389
  64.5385342  86.1665808  49.1720384  65.3414150  86.3758561  49.8789233
  63.6365455  86.6950736  49.4806010  64.3422963  85.0945629  49.1528496
  67.5035342  85.2465808  45.2590384  67.4045342  84.0285808  45.3060384
  68.5945342  85.8635808  44.8060384  68.6072578  86.8683634  44.7043066
  69.7435342  85.1005808  44.3110384  69.7451740  84.1125434  44.7713412
  69.6915342  84.9305808  42.7800384  70.3973497  84.1749385  42.4351783
  68.6782668  84.6281769  42.5155746  69.9855342  86.1845808  41.9970384
  71.2915342  86.5015808  41.6210384  72.1034339  85.8371612  41.9167841
  71.5645342  87.6455808  40.8800384  72.5921420  87.8855957  40.6070624
  70.5295342  88.4815808  40.4880384  70.7394149  89.3780209  39.9045616
  69.2235342  88.1735808  40.8410384  68.4078480  88.8287233  40.5351881
  68.9545342  87.0275808  41.5860384  67.9273718  86.7807484  41.8545732
  71.0815342  85.6685808  44.7580384  71.1585342  86.7635808  45.3070384
  72.1295342  84.8875808  44.5280384  71.9981243  83.9876893  44.0886911
  73.4755342  85.2855808  44.8900384  73.8378688  85.9796180  44.1316683
  73.4299817  85.7926758  45.8538220  74.4345342  84.1235808  44.9910384
  74.2525342  83.1055808  44.3300384  75.4635342  84.2965808  45.8160384
  75.5686401  85.1887089  46.2777305  76.4625342  83.2625808  46.0720384
  76.0730455  82.2918066  45.7654520  77.7755342  83.5315808  45.3060384
  78.5049856  82.7717986  45.5866306  77.5535342  83.4885808  43.8140384
  76.8244951  84.2484489  43.5326101  78.4953424  83.6814766  43.3003384
  77.1801810  82.5047126  43.5299410  78.2895342  84.8175808  45.6640384
  79.1056707  84.9805118  45.1855249  76.7835342  83.1785808  47.5590384
  76.7235342  84.1805808  48.2680384  77.1185342  81.9725808  48.0140384
  77.0290423  81.1813025  47.3927742  77.5905342  81.7335808  49.3780384
  77.6856286  82.6905502  49.8911326  76.6415342  80.8115808  50.1790384
  76.5208489  79.8731532  49.6378461  77.2105342  80.5285808  51.5670384
  77.3310746  81.4665587  52.1090422  76.5280948  79.8783726  52.1144015
  78.1792908  80.0384566  51.4701458  75.2625342  81.4645808  50.3170384
  75.3666105  82.2741230  51.0394720  75.0097327  81.8793591  49.3412568
  74.1635342  80.5265808  50.7660384  74.4154251  80.1117364  51.7420276
  73.2237726  81.0743260  50.8361988  74.0585488  79.7169707  50.0438130
  78.9685342  81.0955808  49.2660384  79.1155342  80.0285808  48.6650384
  79.9685342  81.7685808  49.8310384  79.7642938  82.6583526  50.2631163
  81.3445342  81.2865808  49.8580384  81.4567416  80.4583121  49.1584101
  82.0212871  82.0933889  49.5766746  81.7005342  80.8075808  51.2500384
  81.2505342  81.3885808  52.2370384  82.4975342  79.7425808  51.3190384
  82.8400402  79.3378894  50.4593792  82.9175342  79.1425808  52.5820384
  82.7616908  79.8487103  53.3976321  82.1075342  77.8845808  52.8660384
  82.0090894  77.3485946  51.9220434  82.6873552  77.2830179  53.5660597
  80.7365342  78.1445808  53.4420384  80.8313122  78.8089632  54.3009412
  80.1155124  78.6196887  52.6826265  79.9585342  76.6065808  53.9660384
  80.9405342  76.2395808  55.4200384  80.8429843  77.0524367  56.1396551
  80.5896972  75.3114700  55.8712861  81.9869101  76.1313517  55.1345822
  84.3775342  78.7545808  52.5010384  84.8255342  78.2375808  51.4850384
  85.1105342  78.9935808  53.5790384  84.7254086  79.5331479  54.3410390
  86.4935342  78.5425808  53.6810384  86.5890009  77.5463761  53.2491106
  87.4315342  79.4985808  52.9240384  88.4086585  79.0163666  52.8958090
  87.0382292  79.5810388  51.9108198  87.5695342  80.8905808  53.5300384
  86.6168270  81.1595724  53.9862108  88.3418022  80.8526842  54.2983275
  87.9445342  81.9345808  52.4840384  88.2691255  82.8467912  52.9846497
  88.7565707  81.5511498  51.8662383  86.8035342  82.2545808  51.6160384
  86.7809685  81.7677753  50.7313856  85.8175342  83.1185808  51.8960384
  84.8315342  83.2935808  51.0150384  84.8356124  82.7759991  50.1477480
  84.0853333  83.9428792  51.2192330  85.7915342  83.8155808  53.0360384
  86.5305608  83.6965573  53.7141042  85.0329772  84.4581636  53.2143003
  86.8795342  78.4455808  55.1500384  86.2515342  79.0995808  55.9930384
  87.9005342  77.6265808  55.4710384  88.6765342  76.7085808  54.6190384
  88.9191593  77.2051258  53.6795298  88.0843704  75.8163842  54.4155039
  89.8925342  76.4115808  55.4440384  90.6757916  77.1406804  55.2366242
  90.2616288  75.4099467  55.2235849  89.4235342  76.5055808  56.8460384
  90.2857789  76.7795945  57.4539443  88.9616577  75.6072112  57.2555525
  88.4125342  77.6515808  56.8320384  87.5824341  77.5230990  57.5266783
  89.1075342  78.9745808  57.1130384  89.7135342  79.5525808  56.2070384
  89.0015342  79.4485808  58.3520384  88.3866935  78.9886038  59.0081569
  89.7025342  80.6565808  58.7880384  89.5034180  81.4725227  58.0932790
  89.2245342  81.0735808  60.1830384  88.1360191  81.1304346  60.1843185
  89.5489842  80.3135826  60.8938372  89.7785342  82.4105808  60.6190384
  90.7525342  82.4705808  61.3710384  89.1705342  83.4905808  60.1410384
  89.5008320  84.4089600  60.4010053  88.3807507  83.3883939  59.5198294
  91.2185342  80.4065808  58.7710384  91.6835342  79.3465808  59.1980384
  91.9735342  81.3765808  58.2560384  91.5321013  82.2314861  57.9488362
  93.4175342  81.2165808  58.0280384  93.5405150  80.2992224  57.4523401
  93.9615342  82.3825808  57.2090384  93.8536861  83.3071706  57.7761385
  95.0155463  82.2125062  56.9894172  93.4046969  82.4625424  56.2754231
  94.2185342  81.0545808  59.3260384  95.1985342  80.3125808  59.3500384
  93.7875342  81.7345808  60.3920384  92.9853359  82.3408524  60.2971078
  94.4595342  81.6675808  61.6970384  95.5391422  81.6519353  61.5477032
  94.1025342  82.8785808  62.5720384  93.0470074  82.7678191  62.8204213
  94.7006886  82.7802421  63.4779307  94.3375342  84.2525808  61.9550384
  93.6782053  84.3422785  61.0917073  94.0628249  84.9989070  62.7004470
  95.7795342  84.4785808  61.5180384  96.4341612  84.3192551  62.3748802
  96.0249123  83.7605633  60.7355168  95.9735342  85.8945808  60.9870384
  95.7611291  86.5929857  61.7964920  97.0134065  86.0021739  60.6785119
  95.0775342  86.1885808  59.8280384  94.1139066  86.0893584  60.1138291
  95.2385807  87.1332992  59.5091794  95.2744870  85.5418059  59.0777112
  94.0925342  80.3855808  62.4490384  94.9435342  79.7735808  63.1010384
  92.8175342  80.0015808  62.3710384  92.1652069  80.5777798  61.8586293
  92.3095342  78.8095808  63.0400384  93.1310895  78.1592639  63.3404282
  91.5395342  79.2335808  64.2910384  92.1675296  79.9188951  64.8603057
  90.6287188  79.7470300  63.9830039  91.1605342  78.0685808  65.1840384
  91.2565342  76.8955808  64.8040384  90.7155342  78.3935808  66.3900384
  90.4448380  77.6673961  67.0377105  90.6493126  79.3658304  66.6554552
  91.4245342  78.0125808  62.0700384  90.2785342  78.3875808  61.8090384
  91.9615342  76.9065808  61.5510384  92.8978561  76.6423827  61.8223316
  91.2845342  76.1105808  60.5140384  90.9989501  76.7579234  59.6848892
  92.2105342  75.0045808  59.9780384  92.5982945  74.4266582  60.8169346
  91.6207835  74.3547202  59.3315283  93.3875342  75.5505808  59.1770384
  94.5365342  74.8885808  59.2950384  93.2675342  76.5435808  58.4530384
  94.0633163  76.8847274  57.9329906  92.3741883  77.0097676  58.3844549
  89.9415342  75.4955808  60.9430384  89.1175342  75.1845808  60.0850384
  89.7225342  75.3225808  62.2470384  90.4777609  75.4645980  62.9024491
  88.4395342  74.8165808  62.7600384  88.0840493  74.0030618  62.1276488
  88.6035342  74.2895808  64.1900384  88.9349542  75.1190398  64.8147446
  87.6275797  73.9451569  64.5320690  89.6095342  73.1455808  64.2880384
  89.4724845  72.5036407  63.4178481  90.6103231  73.5769356  64.2666695
  89.4395342  72.3245808  65.5540384  89.6110711  72.9610874  66.4221014
  88.4259037  71.9255095  65.5913848  90.3845342  71.2085808  65.5970384
  91.1876234  71.3329582  66.1967696  90.2675342  70.0625808  64.9160384
  89.2285342  69.8385808  64.1020384  88.5140244  70.5442530  63.9943236
  89.1639371  68.9649394  63.5993679  91.2035342  69.1195808  65.0490384
  91.9913862  69.2771417  65.6610547  91.1193742  68.2530680  64.5370116
  87.2915342  75.8395808  62.6860384  86.1245342  75.4535808  62.7090384
  87.6225342  77.1285808  62.5940384  88.5840275  77.4023713  62.7378048
  86.6275342  78.1815808  62.3500384  85.6913084  77.9252918  62.8459178
  87.1185342  79.5245808  62.8960384  88.0856770  79.7300063  62.4371981
  86.4055026  80.2937858  62.5993744  87.2655342  79.5265808  64.4120384
  86.6025342  78.7185808  65.1030384  88.0485342  80.3545808  64.9140384
  86.2905342  78.3205808  60.8710384  87.0355342  77.8485808  60.0080384
  85.1595342  78.9655808  60.5930384  84.6043876  79.3250182  61.3563970
  84.6805342  79.1785808  59.2260384  85.3847051  78.7467778  58.5148502
  83.3195342  78.5125808  59.0310384  82.7338359  78.9167166  59.8567084
  82.9219459  78.8859226  58.0873015  83.2395342  76.9895808  59.0490384
  83.6484278  76.6122554  59.9863390  81.7835342  76.5635808  58.9230384
  81.3740576  76.9401719  57.9856981  81.7204177  75.4754791  58.9353558
  81.2120913  76.9696260  59.7577123  84.0805342  76.3875808  57.9360384
  85.1213530  76.6843908  58.0652652  84.0061777  75.3006829  57.9710425
  83.7182702  76.7451756  56.9721973  84.5305342  80.6585808  58.9170384
  83.9335342  81.3975808  59.7000384  85.0715342  81.0765808  57.7730384
  85.7303432  80.4777053  57.2961545  84.7595342  82.3785808  57.1780384
  84.3384648  83.0330638  57.9412237  86.0115342  83.0425808  56.6010384
  86.4527892  82.3450523  55.8891063  85.7001468  83.9466371  56.0777601
  87.0395342  83.4005808  57.6630384  86.7395342  83.3285808  58.8780384
  88.1665342  83.7655808  57.2680384  83.7385342  82.1715808  56.0660384
  83.8525342  81.2245808  55.2880384  82.7375342  83.0475808  56.0120384
  82.6833082  83.7652077  56.7206782  81.7295342  83.0385808  54.9590384
  81.9129272  82.1983585  54.2893424  80.3225342  82.9025808  55.5390384
  80.0992102  83.7072939  56.2395114  79.6143410  82.9352986  54.7110940
  80.0705342  81.6155808  56.2690384  80.5235342  81.4375808  57.5710384
  81.0818970  82.2392445  58.0544287  80.2725342  80.2565808  58.2550384
  80.6419253  80.1268229  59.2722964  79.5525342  79.2425808  57.6450384
  79.3553982  78.3136886  58.1801988  79.0825342  79.4105808  56.3520384
  78.5141096  78.6163495  55.8681063  79.3375342  80.5945808  55.6730384
  78.9617277  80.7333026  54.6593197  81.7775342  84.3465808  54.1940384
  82.1745342  85.3765808  54.7420384  81.3705342  84.2975808  52.9300384
  81.3136259  83.4052980  52.4602594  81.0215342  85.5005808  52.1770384
  80.8799369  86.3311899  52.8685136  82.0995342  85.8945808  51.1480384
  82.1425740  85.1301926  50.3721785  81.7715342  87.2515808  50.5110384
  81.7287802  88.0166114  51.2862802  82.5449828  87.5105718  49.7879893
  80.8075238  87.1928243  50.0057344  83.3795342  85.9665808  51.7900384
  84.0473712  86.2121461  51.1456071  79.7035342  85.2325808  51.4620384
  79.6035342  84.2755808  50.6870384  78.6955342  86.0535808  51.7490384
  78.8076898  86.7358279  52.4852852  77.4085342  85.9735808  51.0720384
  77.4211818  85.1342750  50.3766931  76.2395342  85.8025808  52.0620384
  76.2165699  86.6581658  52.7369808  74.9155342  85.7135808  51.3090384
  74.9375690  84.8578991  50.6341873  74.0992741  85.5930090  52.0212761
  74.7625428  86.6261606  50.7329387  76.4485342  84.5365808  52.9020384
  76.5195902  83.7062404  52.1994812  77.4017076  84.6592628  53.4163429
  75.3575342  84.2465808  53.9200384  74.4040768  84.1233072  53.4064019
  75.5989087  83.3318639  54.4614538  75.2861927  85.0763313  54.6232626
  77.2115342  87.2315808  50.2350384  77.1625342  88.3345808  50.7770384
  77.1265342  87.0535808  48.9160384  77.4045615  86.1660224  48.5222868
  76.6665342  88.1035808  48.0050384  76.7639757  89.0732786  48.4931885
  77.4855342  88.1215808  46.7160384  77.6172565  87.0913424  46.3853463
  76.9170992  88.6731327  45.9671912  78.8385342  88.7685808  46.8980384
  79.6865342  88.2045808  47.6120384  79.0625342  89.8515808  46.3210384
  75.2005342  87.8425808  47.6920384  74.8405342  86.7375808  47.3070384
  74.3635342  88.8625808  47.8620384  74.7350522  89.7660023  48.1187549
  72.9145342  88.7255808  47.7120384  72.6719642  87.7633604  47.2610495
  72.2445342  88.8045808  49.0860384  72.8454436  88.1340443  49.7003576
  72.3504036  89.8254646  49.4530370  70.7715342  88.3845808  49.1620384
  70.5646072  87.6717455  48.3638229  70.4695342  87.7415808  50.5060384
  70.6757943  88.4540179  51.3047805  69.4199193  87.4498551  50.5421696
  71.0960440  86.8591733  50.6362031  69.8255342  89.5555808  48.9250384
  70.0067643  89.9752265  47.9355170  68.7941453  89.2087621  48.9887163
  69.9980937  90.3215167  49.6811234  72.3785342  89.8255808  46.8120384
  72.7335342  90.9915808  46.9960384  71.5335342  89.4425808  45.8550384
  71.3644729  88.4546840  45.7302283  70.8455342  90.3805808  44.9700384
  70.9991286  91.4002059  45.3234116  71.3835342  90.2715808  43.5510384
  71.3698427  89.2179811  43.2720412  70.7185207  90.8300212  42.8922506
  72.7865342  90.8075808  43.4200384  73.1875342  91.6675808  44.2320384
  73.4885342  90.3675808  42.4940384  69.3535342  90.0825808  44.9590384
  68.9445342  88.9195808  44.9730384  68.5475342  91.1395808  44.9460384
  68.9409196  92.0648636  45.0419498  67.0955342  91.0125808  44.8250384
  66.8532625  90.1126835  44.2597167  66.4385342  90.9155808  46.2040384
  66.8210277  90.0342677  46.7189027  66.6372246  91.8022475  46.8060719
  64.9475342  90.7635808  46.1430384  64.3855342  89.5545808  45.7730384
  65.0400042  88.7146885  45.5399078  63.0135342  89.4035808  45.6970384
  62.5838163  88.4429165  45.4131947  62.1855342  90.4745808  45.9820384
  61.1033841  90.3598596  45.9196690  62.7315342  91.6905808  46.3460384
  62.0828875  92.5366490  46.5730321  64.1065342  91.8325808  46.4220384
  64.5406221  92.7919609  46.7035654  66.5635342  92.2235808  44.0720384
  66.8805342  93.3525808  44.4350384  65.7855342  91.9755808  43.0170384
  65.7059386  91.0246104  42.6862526  65.0675342  93.0275808  42.2890384
  65.1646419  93.9700757  42.8279008  65.6295342  93.2125808  40.8710384
  65.5339067  92.2515752  40.3656445  64.9970679  93.9482970  40.3742407
  67.0825342  93.6725808  40.8170384  67.1291683  94.5395410  40.1580194
  67.3722441  93.9674997  41.8255983  68.0375342  92.5945808  40.3080384
  69.0246289  92.7806079  40.7312842  67.6744450  91.6243119  40.6469247
  68.1285342  92.5995808  38.7830384  67.1111024  92.5540077  38.3946365
  68.5883902  93.5421397  38.4860293  68.9225342  91.4635808  38.2310384
  68.4963447  90.5900937  38.5057792  68.9433111  91.5257394  37.2231671
  69.8654611  91.5058704  38.5904819  63.5835342  92.6595808  42.2270384
  63.1955342  91.7755808  41.4690384  62.7695342  93.3245808  43.0440384
  63.1592604  94.0244146  43.6592176  61.3265342  93.0855808  43.0910384
  61.0698453  92.3477082  42.3309371  61.0689270  92.6964369  44.0760790
  60.5335342  94.3495808  42.8380384  61.1065342  95.4135808  42.5860384
  59.2085342  94.2175808  42.8980384  58.8149341  93.2942292  43.0102890
  58.2875342  95.3565808  42.7630384  58.4559852  95.8502878  41.8059716
  56.8255342  94.8925808  42.8250384  56.7590302  94.1621208  43.6313290
  56.2261183  95.7672516  43.0775290  56.3035342  94.2755808  41.5390384
  56.4341446  94.9916377  40.7276789  56.8725305  93.3719216  41.3205314
  54.8315342  93.9115808  41.6330384  53.9785342  94.7815808  41.8140384
  54.5275342  92.6205808  41.5140384  53.5633846  92.3247974  41.5690755
  55.2625047  91.9431096  41.3692881  58.5005342  96.4245808  43.8310384
  58.4125342  97.6145808  43.5360384  58.7775342  95.9865808  45.0600384
  58.9397820  94.9987336  45.1939524  58.8175342  96.8625808  46.2340384
  58.4321804  97.8509283  45.9834975  57.9455342  96.2635808  47.3440384
  58.4728571  95.3455489  47.6033592  57.9600969  96.9433703  48.1959622
  56.4965342  95.9335808  46.9800384  56.4887294  95.3165682  46.0815200
  55.8175342  95.1815808  48.1180384  55.8245408  95.7981893  49.0168397
  54.7878171  94.9553176  47.8412922  56.3538151  94.2525077  48.3112390
  55.7265342  97.1975808  46.6260384  56.1999846  97.6854396  45.7740185
  54.6990722  96.9382431  46.3707602  55.7282485  97.8756894  47.4794227
  60.2175342  97.1075808  46.7980384  60.3665342  97.9055808  47.7230384
  61.2345342  96.4375808  46.2560384  61.0954392  95.8917648  45.4176848
  62.5625342  96.4395808  46.8700384  62.8176132  97.4356865  47.2317112
  62.5565342  95.4745808  48.0580384  61.8769789  95.8517172  48.8222844
  62.2167891  94.4949433  47.7219079  64.1365342  95.1995808  48.8850384
  63.6714493  94.3465078  49.7932569  63.6595342  96.0375808  45.8840384
  63.5205342  95.0475808  45.1620384  64.7355342  96.8235808  45.8580384
  64.7000377  97.7011318  46.3567804  65.9635342  96.4835808  45.1390384
  65.8793960  95.4737451  44.7374766  66.2175342  97.4505808  43.9810384
  65.8159866  98.4202440  44.2753374  67.2974792  97.5281158  43.8553118
  65.5845342  97.0175808  42.6680384  66.0181599  96.0588788  42.3835033
  64.5161613  96.8942127  42.8454046  65.7995342  98.0245808  41.5460384
  66.9435342  98.5125808  41.3830384  64.8235342  98.3225808  40.8210384
  67.1115342  96.5565808  46.1240384  67.3005342  97.5815808  46.7740384
  67.8685342  95.4715808  46.2430384  67.6491341  94.6449020  45.7058557
  69.0145342  95.4255808  47.1480384  69.3976618  96.4336535  47.3064737
  68.6135342  94.8375808  48.5000384  67.7023629  95.3735433  48.7657642
  68.3898871  93.7771206  48.3838219  69.6585342  95.0215808  49.6120384
  70.6541578  94.8984602  49.1858039  69.5405342  96.4075808  50.2340384
  68.5452612  96.5312833  50.6609202  70.2884462  96.5189519  51.0191020
  69.7033641  97.1653821  49.4676678  69.5305342  93.9415808  50.6820384
  69.6776864  92.9612123  50.2289122  70.2844013  94.1018733  51.4528121
  68.5379367  93.9889658  51.1299264  70.1135342  94.5795808  46.5440384
  69.8505342  93.5105808  46.0120384  71.3415342  95.0745808  46.6310384
  71.4589651  96.0200972  46.9661622  72.5265342  94.3265808  46.2520384
  72.2842445  93.2688786  46.1487861  73.0595342  94.8375808  44.9160384
  72.3122947  94.6443940  44.1463559  73.2283377  95.9114253  44.9964332
  74.2695342  94.1955808  44.5690384  74.5817229  94.5348255  43.7269867
  73.5515342  94.5235808  47.3640384  73.9595342  95.6525808  47.6290384
  73.9525342  93.4375808  48.0250384  73.5646944  92.5335510  47.7961066
  74.8925342  93.5265808  49.1450384  75.5144389  94.4154254  49.0387884
  74.1295342  93.6185808  50.4700384  74.8261284  93.7555541  51.2971382
  73.4286750  94.4529775  50.4439916  73.1515342  92.1555808  50.8760384
  72.6791127  92.6198353  52.0293744  75.8865342  92.3725808  49.1980384
  75.6495342  91.3045808  48.6480384  77.0065342  92.6305808  49.8670384
  77.1225027  93.5588302  50.2478319  78.0735342  91.6595808  50.0760384
  77.7250151  90.6609900  49.8125046  79.2775342  92.0035808  49.2000384
  78.9150440  92.3490022  48.2318524  79.8409892  92.8022454  49.6824836
  80.1185342  90.8775808  49.0150384  80.8643339  91.1225769  48.4624449
  78.4495342  91.7195808  51.5540384  78.6885342  92.8075808  52.0910384
  78.4875342  90.5605808  52.2080384  78.3652295  89.6979568  51.6971364
  78.6955342  90.4865808  53.6550384  79.1355062  91.4144492  54.0205299
  77.3605342  90.2475808  54.3960384  77.0134280  89.2388383  54.1723061
  77.5315342  90.4025808  55.8980384  77.8782010  91.4112905  56.1225966
  76.5760177  90.2287496  56.3928818  78.2632158  89.6790394  56.2575248
  76.3745342  91.1805808  53.9380384  75.5483681  91.0266215  54.4020927
  79.6475342  89.3465808  53.9990384  79.4035342  88.2045808  53.6150384
  80.7205342  89.6665808  54.7200384  80.9420127  90.6406745  54.8689951
  81.6155342  88.6595808  55.2820384  81.5950672  87.7637176  54.6614664
  83.0555342  89.1825808  55.3400384  83.0238257  90.1487052  55.8437223
  83.6537353  88.4863990  55.9279044  83.6805342  89.3495808  53.9610384
  83.2325342  88.6895808  52.9920384  84.6435342  90.1375808  53.8510384
  81.1455342  88.2775808  56.6820384  80.8835342  89.1535808  57.5030384
  81.0235342  86.9725808  56.9400384  81.1417598  86.3124215  56.1848485
  80.7035342  86.4535808  58.2730384  80.5560576  87.2915973  58.9542712
  79.4335342  85.5975808  58.2680384  79.6432432  84.7005079  57.6854737
  79.2801853  85.3245609  59.3120903  78.1875342  86.2645808  57.7340384
  77.9545342  86.3475808  56.3620384  78.6941498  85.9343834  55.6762278
  76.8065342  86.9425808  55.8660384  76.6406952  87.0045267  54.7905097
  75.8655342  87.4525808  56.7410384  74.7425342  88.0345808  56.2250384
  74.7238566  88.0280188  55.2652427  76.0645342  87.3795808  58.1120384
  75.3262887  87.7868633  58.8028458  77.2155342  86.7815808  58.6010384
  77.3764436  86.7074203  59.6765422  81.8385342  85.6025808  58.8240384
  82.6575342  85.0735808  58.0750384  81.8585342  85.4675808  60.1450384
  81.2099783  86.0074764  60.7000045  82.8105342  84.6095808  60.8360384
  83.2665601  83.9182193  60.1274067  83.9175342  85.4485808  61.4830384
  83.4414650  86.3022799  61.9653818  84.3997274  84.8276542  62.2380483
  84.9615342  85.9435808  60.4910384  85.2435676  85.1086710  59.8495684
  84.5096014  86.7295071  59.8859114  86.1995342  86.4885808  61.1870384
  86.5602351  85.7489105  61.9017983  86.9715496  86.6793653  60.4415903
  85.9195342  87.7375808  61.9040384  84.9630283  88.0608316  61.8774911
  86.8195342  88.4615808  62.5790384  88.0985342  88.0795808  62.6560384
  88.3970746  87.2300634  62.1985518  88.7602986  88.6422814  63.1713398
  86.4395342  89.5885808  63.1850384  85.4763689  89.8876459  63.1305168
  87.1169110  90.1371036  63.6953149  82.0765342  83.7805808  61.8810384
  81.4685342  84.3305808  62.7970384  82.1025342  82.4605808  61.7040384
  82.3985201  82.0884397  60.8129701  81.6835342  81.5265808  62.7360384
  80.9713331  82.0156635  63.4006186  81.0145342  80.2895808  62.1260384
  80.3312565  80.6355562  61.3504536  81.7987823  79.6822746  61.6741155
  80.2465342  79.4525808  63.1430384  80.9914485  79.0323371  63.8187593
  79.6092619  80.1461321  63.6916481  79.2285342  78.1125808  62.4710384
  78.1135342  79.0125808  61.4060384  78.6858871  79.5423583  60.6445616
  77.4277523  78.3152878  60.9248043  77.5452562  79.7303539  61.9976152
  82.9475342  81.1645808  63.5130384  83.8655342  80.5455808  62.9690384
  83.0045342  81.5975808  64.7710384  82.2380903  82.1486591  65.1301703
  84.1655342  81.3705808  65.6400384  84.6648069  80.4443297  65.3556358
  85.1685342  82.5295808  65.5100384  85.9578029  82.3537556  66.2409555
  85.5872123  82.4797388  64.5048894  84.5635342  83.9055808  65.7390384
  83.7157442  84.0149133  65.0627254  84.2130411  83.9493967  66.7702206
  85.5565342  85.0315808  65.4930384  86.3271907  85.0151577  66.2636990
  86.0193291  84.9044788  64.5143835  84.8835342  86.3345808  65.5290384
  83.8861125  86.3124942  65.3716808  85.4675342  87.5155808  65.7560384
  84.7205342  88.6225808  65.7600384  83.7266252  88.5580369  65.5924704
  85.1529136  89.5192706  65.9306112  86.7815342  87.6175808  65.9890384
  87.3560784  86.7869463  65.9957817  87.1925842  88.5247214  66.1570635
  83.7185342  81.1875808  67.0930384  82.5415342  80.9305808  67.3690384
  84.5095342  81.2765808  68.0320384  81.6845342  59.3405808  68.0580384
  80.8765342  59.8575808  69.2070384  79.3825342  59.8235808  68.8550384
  79.0165342  59.9395808  67.6710384  81.3295342  61.2775808  69.5730384
  81.3245342  62.2735808  68.3920384  81.8265342  63.9565808  68.8290384
  80.6345342  65.0285808  67.9800384  83.2735342  64.2035808  67.7740384
  84.5645342  63.7675808  68.4460384  85.5785342  63.7585808  67.4520384
  84.9815342  64.7915808  69.4920384  84.9925342  64.2535808  70.8030384
  86.3505342  65.2855808  69.0370384  87.2745342  65.3485808  70.0930384
  86.7665342  64.1745808  68.0940384  78.5195342  59.6865808  69.7360384
  91.3395342  62.6905808  66.1060384  90.5455342  62.0005808  67.0070384
  89.3585342  62.5775808  67.4130384  88.9705342  63.7875808  66.9380384
  89.7685342  64.4835808  66.0290384  90.9705342  63.9185808  65.6060384
  91.7785342  64.5415808  64.7440384  89.1405342  65.6405808  65.7380384
  87.9755342  65.6965808  66.4280384  87.8625342  64.5505808  67.1770384
  84.2409627  63.9198843  70.9751077  87.0825859  64.7677250  70.6686628
  92.5149795  64.1701774  64.4992490  91.5624187  65.3141843  64.4338176
  83.1582753  63.7063835  66.9491310  83.3374447  65.1411594  67.5338371
  82.5413103  59.3034090  68.1170477  81.2921089  59.0811710  67.3386929
  81.9167235  61.9401450  67.7003778  80.4324810  62.3020598  68.0120438
  80.8417160  65.9572415  68.1692417  80.6848819  64.8751007  67.0234894
  79.7389234  64.8278455  68.2920265  80.7513134  61.6199260  70.2724013
  82.2258504  61.2340052  69.9421123  81.0173016  59.2891064  69.9802599
  87.3322793  66.4220826  66.3986397  84.4382335  62.9002356  68.8606678
  84.3473816  65.5233592  69.5523110  86.3196129  66.1788517  68.6593587
  90.8162231  61.1330243  67.3447768  87.1644886  63.4351312  68.5785687
  95.3955342  89.1075808  72.1010384  94.7724272  89.5855139  72.7361903
  96.3793902  89.0352813  72.3176018  94.9585342  87.7105808  71.9210384
  94.1354870  87.5032291  72.6049236  95.7920019  87.0444117  72.1438619
  94.5405342  87.6435808  70.4760384  93.4516285  87.6397677  70.4273767
  94.9262933  86.7206007  70.0431424  95.1125342  88.8355808  69.7850384
  94.4393405  89.1835606  69.0015721  96.0927451  88.6285322  69.3555997
  95.2355342  89.9035808  70.8790384  96.1368416  90.5061545  70.7665756
  94.0035342  90.8225808  70.8880384  93.1565342  90.7225808  71.7820384
  93.9255342  91.7105808  69.8950384  94.7005760  91.7948279  69.2529231
  92.7705342  92.6035808  69.7150384  92.5206979  93.0705646  70.6677226
  93.0775342  93.7105808  68.6900384  93.4310070  93.2544702  67.7653117
  92.1524451  94.2535104  68.4962924  94.1285342  94.6985808  69.1780384
  95.0625342  95.0465808  68.3020384  94.0915342  95.1525808  70.3200384
  94.7987460  95.8068006  70.6232673  93.3541105  94.8690561  70.9492608
  91.5485342  91.8035808  69.2560384  91.6935342  90.7565808  68.6200384
  90.3575342  92.3185808  69.5660384  90.3260522  93.2001201  70.0579699
  89.0875342  91.6065808  69.3240384  89.2209607  90.6316061  69.7927824
  87.9395342  92.3255808  70.0160384  87.7877849  93.2999701  69.5516705
  87.0295133  91.7330649  69.9217673  88.1774899  92.4596687  71.0712620
  88.7445342  91.3675808  67.8450384  88.0635342  90.3885808  67.5240384
  89.2065342  92.2555808  66.9610384  89.6469384  93.1002537  67.2967037
  89.0295342  92.0905808  65.5100384  87.9838589  91.8784003  65.2872343
  89.4385342  93.3715808  64.7700384  90.4906501  93.5410080  64.9990491
  89.3276109  93.1651164  63.7055345  88.6175342  94.6385808  65.1400384
  88.6612306  95.2907182  64.2677378  87.5957535  94.2849111  65.2778100
  89.0605342  95.4195808  66.3850384  90.0415342  94.9975808  67.0340384
  88.4055342  96.4485808  66.6630384  89.7995342  90.8885808  64.9320384
  89.3805342  90.3165808  63.9210384  90.9095342  90.5105808  65.5760384
  91.1800857  91.0200414  66.4051048  91.7875342  89.4235808  65.1060384
  91.6853246  89.2964577  64.0283130  93.2545342  89.7675808  65.4240384
  93.3504900  89.7931399  66.5095053  93.8845138  88.9737536  65.0227104
  93.6945342  91.1085808  64.8430384  93.3515342  91.4095808  63.6790384
  94.3995342  91.8605808  65.5540384  91.4795342  88.0275808  65.6880384
  92.0595342  87.0395808  65.2330384  90.5725342  87.9395808  66.6650384
  90.0174864  88.7484943  66.9052053  90.4175342  86.7175808  67.4790384
  91.3996305  86.3151454  67.7272960  89.6675342  87.0245808  68.7860384
  88.7529389  87.5536136  68.5181970  89.4129276  86.0695141  69.2455197
  90.4675342  87.8625808  69.7700384  91.3612427  87.2961168  70.0317722
  90.7567465  88.7808024  69.2588365  89.5685342  88.2805808  71.2760384
  89.6235342  86.7125808  72.1380384  90.6615851  86.4291410  72.3118522
  89.1076250  86.8045085  73.0938039  89.1349274  85.9480057  71.5340603
  89.7305342  85.5405808  66.7720384  88.8625342  85.7285808  65.9140384
  90.1485342  84.3335808  67.1600384  90.9381933  84.3041091  67.7890609
  89.5625342  83.0635808  66.7200384  88.7683438  83.2370925  65.9939155
  90.6455342  82.1735808  66.0650384  90.1850412  81.2415975  65.7372372
  91.2695342  82.8765808  64.8720384  91.7306625  83.8084898  65.1991560
  92.0282443  82.2331754  64.4265189  90.4981510  83.0933113  64.1330551
  91.6715342  81.8605808  67.0190384  92.3377550  81.3086565  66.6029497
  88.9445342  82.3465808  67.9350384  88.9055342  82.9145808  69.0330384
  88.4705342  81.1115808  67.7470384  88.3936534  80.7525379  66.8061469
  87.9075342  80.3065808  68.8530384  87.2008911  80.9103380  69.4224521
  87.1685342  79.0645808  68.3080384  86.7431847  78.5274603  69.1557875
  86.3651939  79.4099236  67.6572829  88.0265342  78.1975808  67.5810384
  87.5247727  77.4432956  67.2634080  88.8915342  79.8925808  69.9850384
  88.4385342  79.5165808  71.0770384  90.1945342  79.9175808  69.6840384
  90.4588764  80.1285104  68.7323393  91.2535342  79.6135808  70.6470384
  90.9003445  78.8754697  71.3671413  92.4785342  79.0455808  69.9250384
  92.1341874  78.2088662  69.3172282  92.8622401  79.8322340  69.2753874
  93.5845342  78.5735808  70.8570384  93.8345325  79.3881505  71.5368015
  93.2140914  77.7235789  71.4300750  94.8255342  78.1605808  70.0840384
  94.5589217  77.3472036  69.4091796  95.1724702  79.0150998  69.5030632
  95.9305342  77.7015808  71.0170384  96.1393431  78.5002777  71.7287846
  95.5876208  76.8173380  71.5542761  97.1695342  77.3735808  70.2630384
  97.4876918  78.1929250  69.7654939  97.8860389  77.0718329  70.9077626
  96.9763677  76.6332162  69.6037615  91.6525342  80.8565808  71.4450384
  91.8975342  80.7715808  72.6490384  91.7305342  82.0065808  70.7780384
  91.6201672  82.0319817  69.7744084  91.9865342  83.2615808  71.4780384
  92.9025190  83.1707210  72.0618325  92.1465342  84.4205808  70.4960384
  91.2106821  84.5190737  69.9459665  92.3275661  85.3295362  71.0697347
  93.2795342  84.2055808  69.5250384  94.3525342  83.7475808  69.9630384
  93.1005342  84.4995808  68.3270384  90.8165342  83.5415808  72.4040384
  90.9885342  84.0505808  73.5100384  89.6215342  83.2005808  71.9330384
  89.5485432  82.7928082  71.0119015  88.3985342  83.4275808  72.6850384
  88.3432090  84.4694685  73.0004877  87.1825342  83.1155808  71.8170384
  87.5330744  82.4048666  71.0686360  86.4240738  82.6417377  72.4401841
  86.5855342  84.3215808  71.1260384  86.3955342  85.5095808  71.8110384
  86.6922794  85.5656343  72.8583682  85.8405342  86.6125808  71.1900384
  85.7101157  87.5454017  71.7386166  85.4505342  86.5285808  69.8730384
  84.8935342  87.6225808  69.2510384  84.8248669  88.3872019  69.8274401
  85.6165342  85.3555808  69.1750384  85.3087321  85.2889986  68.1315226
  86.1755342  84.2595808  69.8010384  86.3014135  83.3250638  69.2542912
  88.3175342  82.5915808  73.9560384  87.4805342  82.8505808  74.8130384
  89.1735342  81.5845808  74.0830384  89.8350157  81.3665607  73.3515954
  89.0825342  80.6805808  75.2260384  88.0339968  80.5158458  75.4740927
  89.7295342  79.3315808  74.9210384  90.2455477  79.4347165  73.9664744
  90.4496047  79.0696820  75.6962852  88.6925342  78.2495808  74.8150384
  87.3555342  78.5445808  75.0440384  87.0803124  79.5706495  75.2880369
  86.3845342  77.5705808  74.9680384  85.3358753  77.8193412  75.1309325
  86.7455342  76.2815808  74.6780384  85.7635342  75.3285808  74.6170384
  84.8877091  75.6807345  74.7917318  88.0685342  75.9525808  74.4600384
  88.3526231  74.9256433  74.2302700  89.0365342  76.9375808  74.5350384
  90.0844788  76.6853170  74.3729418  89.6305342  81.2595808  76.5280384
  88.8905342  81.3895808  77.5080384  90.9145342  81.6065808  76.5540384
  91.5389275  81.3855772  75.7915492  91.4625342  82.2875808  77.7210384
  91.2854770  81.6783911  78.6074006  92.9695342  82.5245808  77.5830384
  93.5001815  81.5826795  77.4439893  93.1558672  83.1755200  76.7288381
  93.5895342  83.1955808  78.7790384  93.2685342  82.7855808  80.0630384
  92.5584249  81.9695418  80.1969230  93.8365342  83.3975808  81.1680384
  93.5677118  83.0703761  82.1724150  94.7445342  84.4235808  80.9960384
  95.1960323  84.9084085  81.8615969  95.0805342  84.8355808  79.7190384
  95.7973887  85.6446871  79.5791567  94.5075342  84.2215808  78.6200384
  94.7766035  84.5434541  77.6140070  90.7205342  83.6075808  77.8770384
  90.4765342  84.0655808  78.9970384  90.3375342  84.1995808  76.7460384
  90.6052730  83.8005703  75.8576658  89.6065342  85.4645808  76.7450384
  89.6076747  85.8949440  77.7464801  90.2655342  86.4555808  75.7870384
  91.3406660  86.2785447  75.8161776  89.8927893  86.2602453  74.7815508
  89.9815342  87.8935808  76.1590384  89.2105342  88.0985808  77.1190384
  90.5165342  88.8085808  75.4940384  88.1245342  85.2535808  76.3930384
  87.6215342  85.7465808  75.3840384  87.4605342  84.4995808  77.2620384
  88.0298874  84.0293753  77.9511270  86.0035342  84.2395808  77.2600384
  85.7098716  83.7962769  76.3085432  85.6265342  83.2725808  78.3880384
  85.8345847  83.7532928  79.3439307  84.5614709  83.0518739  78.3171264
  86.3665342  82.0655808  78.2950384  86.1125532  81.4785672  79.0109355
  85.1335342  85.4935808  77.3700384  84.0875342  85.5735808  76.7280384
  85.5655342  86.4655808  78.1710384  86.3436974  86.2932965  78.7914250
  84.8635342  87.7515808  78.2750384  83.7906971  87.5749721  78.3520389
  85.3225342  88.5345808  79.5150384  86.4018790  88.4093996  79.6013151
  85.0917680  89.5860274  79.3438455  84.6595342  88.0755808  80.7910384
  83.3035342  88.3165808  81.0190384  82.7281923  88.8486456  80.2614183
  82.6875342  87.8915808  82.1850384  81.6259507  88.0758339  82.3499414
  83.4325342  87.2245808  83.1450384  82.8345342  86.8125808  84.3030384
  81.9020383  87.0370032  84.3440940  84.7755342  86.9735808  82.9450384
  85.3563321  86.4441956  83.7003700  85.3835342  87.3985808  81.7770384
  86.4440861  87.2070625  81.6137886  84.9565342  88.6405808  77.0230384
  84.2485342  89.6375808  76.9370384  85.8215342  88.2955808  76.0680384
  86.5367724  87.6100415  76.2644298  85.8285342  88.9525808  74.7540384
  85.9016944  90.0208013  74.9581258  87.0425342  88.5285808  73.9480384
  86.9791135  87.4629034  73.7280169  87.0739157  89.0905316  73.0145895
  87.9477375  88.7273462  74.5217967  84.5555342  88.7195808  73.9310384
  84.2465342  89.5195808  73.0460384  83.8385342  87.6275808  74.2060384
  84.1883043  86.9612997  74.8797073  82.5615342  87.3405808  73.5420384
  82.6888752  87.3950185  72.4608724  82.0665342  85.9395808  73.9060384
  82.1483003  85.7614838  74.9782767  81.0250773  85.8401720  73.6001211
  82.8175342  84.8375808  73.2310384  82.7195342  84.5945808  71.8780384
  82.1548606  85.1329433  71.2366265  83.4745342  83.5575808  71.5650384
  83.5325038  83.2037237  70.5357067  84.0595342  83.1205808  72.6660384
  84.6982123  82.3407139  72.7292676  83.6605342  83.8995808  73.7240384
  84.0327182  83.6891184  74.7266779  81.4645342  88.3385808  73.9060384
  81.1415342  88.4835808  75.0820384  80.8785342  88.9775808  72.8900384
  81.2397081  88.8775094  71.9521480  79.8125342  89.9545808  73.1230384
  80.1473058  90.6654290  73.8784998  79.4335342  90.7355808  71.8430384
  78.6841921  91.4997133  72.0496472  80.3385362  91.2086012  71.4618257
  78.8865342  89.8865808  70.7240384  77.5525342  89.5085808  70.7010384
  76.8966239  89.8244428  71.5122799  77.0515342  88.7405808  69.6660384
  76.0040197  88.4392285  69.6669085  77.8795342  88.3555808  68.6310384
  77.4886540  87.7499801  67.8133830  79.2065342  88.7395808  68.6330384
  79.8635436  88.4368337  67.8176961  79.7005342  89.5075808  69.6690384
  80.7436737  89.8237014  69.6637806  78.5855342  89.3275808  73.7920384
  77.9085342  90.0035808  74.5640384  78.3215342  88.0535808  73.4980384
  78.9209462  87.5789175  72.8381146  77.2075342  87.3085808  74.0830384
  76.2907558  87.7831739  73.7332129  77.2637794  86.2937343  73.6893094
  77.1855342  87.2495808  75.5970384  76.1115342  87.2795808  76.1930384
  78.3665342  87.1805808  76.2150384  79.2112438  87.1427890  75.6626465
  78.4875342  87.1215808  77.6750384  77.8067353  86.3871594  78.1054304
  79.9415342  86.8125808  78.1350384  80.6090461  87.5624563  77.7105211
  80.0525342  86.8365808  79.6590384  79.3856052  86.0865993  80.0842843
  81.0791311  86.6174134  79.9525775  79.7721481  87.8228710  80.0287875
  80.4515342  85.4685808  77.5640384  80.5468479  85.6085136  76.4872678
  81.4382370  85.3051758  77.9974158  79.5725342  84.2645808  77.8410384
  78.5857360  84.4270634  77.4075311  80.0219444  83.3761868  77.3973202
  79.4771233  84.1237270  78.9176799  78.0385342  88.4525808  78.2830384
  77.3135342  88.4705808  79.2790384  78.4725342  89.5535808  77.6760384
  79.1392628  89.4745954  76.9214964  78.0935342  90.8945808  78.1310384
  78.1593641  90.9504475  79.2176131  79.0315342  91.9425808  77.5300384
  79.0285781  91.8056125  76.4486827  78.7485311  92.9682725  77.7666090
  80.4465342  91.7755808  77.9780384  80.9265342  92.3345808  79.1420384
  80.3856259  92.9151781  79.7668781  82.1905342  91.9905808  79.3020384
  82.7557086  92.3425211  80.1650650  82.5445342  91.2195808  78.2910384
  83.4561227  90.8092699  78.1469852  81.4685342  91.0595808  77.4550384
  81.5586706  90.4391877  76.5633607  76.6385342  91.2035808  77.8210384
  75.9535342  91.8215808  78.6250384  76.1745342  90.7495808  76.6600384
  76.8306277  90.4095875  75.9715290  74.7475342  90.7645808  76.3140384
  74.3999016  91.7937777  76.2245711  74.5125342  90.0515808  74.9810384
  75.2837735  90.3968764  74.2925182  74.6390627  88.9841501  75.1618207
  73.1405342  90.3035808  74.3730384  72.3953391  90.0592034  75.1300488
  73.0702125  91.3622179  74.1231555  72.8885342  89.4735808  73.1300384
  73.8525342  89.1785808  72.3770384  71.7145342  89.1185808  72.9010384
  73.9005342  90.1055808  77.4120384  72.9095342  90.6775808  77.8630384
  74.3065342  88.9145808  77.8460384  75.0829948  88.4492451  77.3980752
  73.6045342  88.2135808  78.9210384  72.5540988  88.1004138  78.6529380
  74.2015342  86.8205808  79.1640384  74.3486697  86.3484627  78.1926709
  75.1667457  86.9537489  79.6526417  73.3105342  85.9335808  80.0310384
  73.0644137  86.4954410  80.9320593  72.4013848  85.7493497  79.4586701
  73.9415342  84.6085808  80.4180384  73.3075342  83.8735808  81.2010384
  75.0505342  84.2885808  79.9450384  73.6125342  89.0235808  80.2230384
  72.5865342  89.1375808  80.8910384  74.7695342  89.5815808  80.5680384
  75.5929354  89.4098578  80.0089132  74.9095342  90.3925808  81.7790384
  74.5257442  89.8414397  82.6375533  76.3775342  90.7315808  82.0330384
  76.8050564  91.0616751  81.0862746  76.4038955  91.5530087  82.7490421
  77.1835342  89.5655808  82.5720384  76.6457115  89.1194521  83.4085890
  77.3058539  88.8241005  81.7825151  78.8045342  90.1055808  83.1320384
  79.5645342  90.5795808  81.5770384  78.9786440  91.3727353  81.1125629
  80.5775853  90.9371905  81.7612760  79.5996576  89.7171334  80.9114168
  74.0925342  91.6765808  81.7250384  73.4465342  92.0395808  82.7020384
  74.1305342  92.3555808  80.5810384  74.7483023  92.0444155  79.8450777
  73.3835342  93.5995808  80.3810384  73.5253688  94.2575028  81.2384303
  73.8735342  94.3225808  79.1230384  73.8490457  93.5517024  78.3528137
  73.1939032  95.1298698  78.8501170  75.3005342  94.8755808  79.2480384
  75.8900786  94.1741807  79.8384418  75.9545342  95.0655808  77.8820384
  75.3657680  95.7672580  77.2911896  76.9629006  95.4582412  78.0128658
  76.0026307  94.1071178  77.3651866  75.3145342  96.1765808  80.0470384
  74.9218498  95.9935485  81.0472372  76.3369136  96.5472432  80.1208690
  74.6948475  96.9190545  79.5442262  71.8665342  93.3775808  80.3280384
  71.1105342  94.1905808  80.8500384  71.4305342  92.2765808  79.7200384
  72.0725978  91.7262462  79.1677834  70.0035342  91.8965808  79.7200384
  69.3921439  92.7790166  79.5313375  69.7085342  90.8525808  78.6310384
  70.4666157  90.0718582  78.6933596  68.7270144  90.4218720  78.8290504
  69.7225342  91.4625808  77.2370384  68.9703120  92.2512085  77.2189040
  70.7093529  91.8988215  77.0821677  69.4325342  90.4605808  76.1310384
  70.2100525  89.6967302  76.1212079  68.4653503  89.9914956  76.3116312
  69.4065342  91.1755808  74.7860384  68.5362868  91.8318174  74.7971524
  70.3139632  91.7771935  74.7337505  69.3365342  90.2775808  73.5970384
  68.4955436  89.7203315  73.6450772  69.3236116  90.8347020  72.7546911
  70.1430525  89.6697054  73.5863190  69.4895342  91.4165808  81.0910384
  68.2765342  91.3655808  81.3080384  70.3995342  91.0555808  81.9960384
  71.3528430  90.8944625  81.7039037  70.0575342  90.8355808  83.4050384
  69.1710600  90.2055722  83.4781941  71.2165342  90.1375808  84.1300384
  71.4743927  89.2558955  83.5433192  72.0624614  90.8248489  84.1430650
  70.8825342  89.7195808  85.5510384  69.9025342  90.1925808  86.1680384
  71.6435342  88.8885808  86.0680384  69.7375342  92.1995808  84.0290384
  70.6275342  92.8955808  84.5120384  68.4565342  92.5645808  84.0020384
  67.7724569  91.9418223  83.5966875  68.0095342  93.8885808  84.4590384
  68.6878703  94.6523306  84.0787155  66.5945342  94.1975808  83.9590384
  65.9473483  93.3752659  84.2640757  66.2647889  95.1172787  84.4422813
  66.5235342  94.3645808  82.4530384  67.2275464  95.1449117  82.1639860
  66.8337203  93.4157741  82.0152603  65.1445342  94.7215808  81.9540384
  64.5125342  95.6415808  82.5160384  64.6965342  94.0865808  80.9810384
  68.0745342  94.0515808  85.9720384  68.3585342  95.1445808  86.4590384
  67.8185342  92.9685808  86.7020384  67.4968602  92.1272558  86.2450948
  67.9235342  92.9685808  88.1630384  67.2913611  93.7372273  88.6076043
  67.5335342  91.5965808  88.7670384  68.0836952  90.8164354  88.2409249
  67.8605342  91.5335808  90.2540384  67.3103469  92.3131894  90.7809210
  67.5750422  90.5583367  90.6483653  68.9304522  91.6840900  90.3979969
  66.0495342  91.3135808  88.5400384  65.8410106  91.3009897  87.4702434
  65.7936360  90.3456422  88.9709800  65.4536290  92.0919086  89.0166972
  69.3495342  93.3565808  88.5590384  69.5475342  94.2155808  89.4150384
  70.3285342  92.7415808  87.9020384  70.0968794  91.9975807  87.2594659
  71.7385342  93.0695808  88.1030384  71.9995367  92.9775504  89.1573189
  72.6115342  92.1075808  87.2980384  72.2989279  91.1008612  87.5753329
  72.3782554  92.2836050  86.2479448  74.1105342  92.2505808  87.5150384
  74.3587032  93.3065278  87.6222247  74.3945044  91.7172408  88.4222382
  74.8655342  91.6705808  86.3290384  75.8940076  91.4483270  86.6135462
  74.3784576  90.7575849  85.9865559  74.8815342  92.6375808  85.2250384
  73.9804928  92.8374599  84.8148287  75.9525342  93.2735808  84.7490384
  77.1735342  93.0385808  85.2300384  77.2996773  92.3650317  85.9720085
  77.9667920  93.5351781  84.8502585  75.8045342  94.1465808  83.7510384
  74.8866725  94.3178488  83.3659446  76.6110343  94.6321902  83.3851972
  72.0665342  94.5115808  87.7020384  72.5615342  95.2875808  88.5170384
  71.7855342  94.8545808  86.4480384  71.3085545  94.1995060  85.8451564
  72.2375342  96.1215808  85.8750384  73.2813781  96.3011087  86.1324464
  72.1005342  96.1275808  84.3370384  71.0423870  96.0713339  84.0815762
  72.7085342  97.4065808  83.7280384  73.7668487  97.4632888  83.9827033
  72.5970192  97.3819830  82.6440373  72.1922511  98.2801121  84.1261530
  72.7625342  94.9745808  83.7940384  72.6777457  94.9776770  82.8377949
  71.5285342  97.3435808  86.4680384  72.1855342  98.3475808  86.7440384
  70.2105342  97.2585808  86.6630384  69.7047995  96.4431428  86.3477726
  69.4435342  98.3765808  87.2390384  69.7801011  99.3068818  86.7814774
  67.9305342  98.2325808  87.0040384  67.7204727  97.2258384  87.3652076
  67.4337225  98.9595540  87.6465242  67.4095342  98.3795808  85.5670384
  67.9867222  97.7299348  84.9090757  65.9385342  97.9915808  85.5000384
  65.3606025  98.6411359  86.1574362  65.5799739  98.0997245  84.4763978
  65.8205956  96.9557582  85.8182560  67.6015342  99.7925808  85.0340384
  68.6625536 100.0422098  85.0387987  67.2193744  99.8521082  84.0149645
  67.0603433 100.4965751  85.6661802  69.7145342  98.5805808  88.7280384
  69.6445342  99.7145808  89.1970384  70.0165342  97.5145808  89.4710384
  69.9338222  96.5795923  89.0981381  70.4035342  97.6705808  90.8760384
  69.6401381  98.2680944  91.3743385  70.5415342  96.3235808  91.6220384
  71.3275398  95.7375590  91.1457255  70.8945342  96.5485808  93.0950384
  70.1087082  97.1341793  93.5721668  70.9861460  95.5860981  93.5983608
  71.8403717  97.0858504  93.1645616  69.3045342  95.6095808  91.5600384
  69.3937939  94.7739516  92.0241040  71.7115342  98.4595808  90.9620384
  71.8075342  99.4115808  91.7390384  72.7025342  98.0765808  90.1560384
  72.6455871  97.1983776  89.6604423  73.9465342  98.8565808  90.0530384
  74.3990390  98.9371820  91.0413916  74.9595342  98.2005808  89.1010384
  74.3853971  97.7237753  88.3066063  75.5817053  98.9883952  88.6763602
  75.8385342  97.1725808  89.7730384  75.4275342  95.8475808  89.8970384
  74.4577592  95.5612922  89.4900069  76.2245342  94.8995808  90.5230384
  75.8914950  93.8653060  90.6094239  77.4535342  95.2765808  91.0380384
  78.2365342  94.3375808  91.6590384  77.8344681  93.4660070  91.6764068
  77.8855342  96.5885808  90.9290384  78.8529091  96.8853854  91.3342461
  77.0795342  97.5265808  90.3000384  77.4135412  98.5603579  90.2114708
  73.6855342 100.3165808  89.6450384  74.2715342 101.2265808  90.2300384
  72.7985342 100.5355808  88.6720384  72.3874964  99.7617949  88.1696416
  72.4685342 101.8985808  88.2410384  73.3932833 102.4458776  88.0582694
  71.6285342 101.9125808  86.9570384  72.0516398 101.1747221  86.2753893
  70.6122037 101.6210360  87.2219422  71.6045342 103.2815808  86.2750384
  71.2640640 104.0137967  87.0071864  72.6231472 103.5206621  85.9694736
  70.6895342 103.3165808  85.0600384  70.8410775 104.2564222  84.5291601
  70.9409359 102.4840732  84.4029023  69.2785342 103.2105808  85.4320384
  69.0784955 103.1848444  86.4216957  68.2585342 103.1535808  84.5750384
  68.4545342 103.1925808  83.2550384  69.3929003 103.2668306  82.8889017
  67.6635513 103.1476591  82.6285979  67.0215342 103.0485808  85.0460384
  66.8654716 103.0130581  86.0432759  66.2423535 103.0047155  84.4049051
  71.7565342 102.6945808  89.3430384  72.1105342 103.8445808  89.5860384
  70.7685342 102.0785808  89.9970384  70.4735750 101.1641660  89.6856800
  70.0435342 102.7025808  91.1210384  69.5817608 103.6304356  90.7834738
  68.9415342 101.7725808  91.6610384  69.3724439 100.7842695  91.8212160
  68.5908915 102.1739445  92.6118575  67.7485342 101.6375808  90.7190384
  67.6055342 102.3795808  89.7490384  66.8845342 100.6775808  91.0080384
  66.0741080 100.5384170  90.4215722  67.0396016 100.0885660  91.8137161
  70.9685342 103.1015808  92.2740384  70.7875342 104.1655808  92.8660384
  71.9605342 102.2645808  92.5790384  72.0360944 101.3791545  92.0990277
  72.9095342 102.5525808  93.6620384  72.3599129 102.7172559  94.5888057
  73.8895342 101.3915808  93.8730384  74.3701811 101.5170347  94.8432648
  73.3265085 100.4582866  93.8650344  74.8755342 101.3555808  92.8600384
  75.4717144 100.6202911  93.0197826  73.6885342 103.8515808  93.4380384
  74.0915342 104.4975808  94.4050384  73.8895342 104.2295808  92.1760384
  73.6281242 103.6042162  91.4272506  74.5355342 105.4945808  91.8290384
  75.1528932 105.8353338  92.6602150  75.4265342 105.3175808  90.5990384
  74.7702164 105.2167960  89.7346377  76.0235211 106.2239007  90.4975940
  76.3485342 104.1095808  90.6790384  76.9340742 104.2032611  91.5936245
  75.7207104 103.2206115  90.7396430  77.4625342 103.9515808  89.2780384
  77.4395342 102.1775808  89.0550384  76.4207158 101.8500630  88.8480600
  78.0843865 101.9076015  88.2187505  77.7994611 101.6921393  89.9621770
  73.4995342 106.5975808  91.5860384  73.5775342 107.6645808  92.1950384
  72.5265342 106.3255808  90.7180384  72.4983234 105.4105690  90.2913572
  71.5325342 107.3285808  90.2890384  72.0450907 108.2256246  89.9416230
  70.6625342 106.7845808  89.1430384  70.3913363 105.7437122  89.3195135
  69.7581275 107.3900447  89.0833557  71.3105342 106.8375808  87.7750384
  72.6945342 106.7415808  87.6000384  73.3355203 106.6326324  88.4748910
  73.2535342 106.7835808  86.3320384  74.3354455 106.7226295  86.2143366
  72.4415342 106.9025808  85.2170384  72.8793772 106.9310146  84.2192484
  71.0685342 106.9855808  85.3730384  70.4248693 107.0783863  84.4982911
  70.5115342 106.9505808  86.6440384  69.4302552 107.0121476  86.7671035
  70.6195342 107.8345808  91.4120384  70.1915342 108.9845808  91.3700384
  70.3155342 106.9835808  92.3960384  70.5743052 106.0113387  92.3072564
  69.5355342 107.3945808  93.5790384  68.9094648 108.2490608  93.3221335
  68.6295342 106.2515808  94.0730384  69.2150341 105.4054152  94.4326117
  68.0081839 106.6332719  94.8831839  67.6945342 105.7145808  93.0320384
  67.2615342 106.4635808  91.9560384  66.4425342 105.7365808  91.2160384
  66.0012321 106.1470905  90.3078351  66.3145342 104.5495808  91.7820384
  65.7476177 103.7867757  91.4402285  67.0815342 104.5125808  92.9220384
  67.1014751 103.6125157  93.5365191  70.4085342 107.8975808  94.7420384
  69.8875342 108.1735808  95.8200384  71.7225342 108.0125808  94.5270384
  72.0936451 107.7134636  93.6365863  72.6615342 108.5145808  95.5400384
  72.1268604 109.1218082  96.2704478  73.3365342 107.3465808  96.2730384
  73.9425638 106.7865335  95.5608766  73.9785260 107.7548692  97.0535813
  72.3395342 106.3985808  96.9120384  71.8065342 106.6705808  97.9890384
  72.0795342 105.2835808  96.2470384  71.4233850 104.6151685  96.6249181
  72.5385487 105.1065916  95.3649492  73.7125342 109.4055808  94.8740384
  74.9175342 109.2065808  95.0480384  73.2405342 110.3925808  94.1130384
  72.2417855 110.4973945  94.0052685  74.1205342 111.2845808  93.3480384
  74.7885292 110.6898775  92.7249735  73.3075342 112.2195808  92.4420384
  72.5178161 112.6555681  93.0538877  73.9809431 113.0070807  92.1037124
  72.6895342 111.5265808  91.2340384  73.4795103 110.9789213  90.7201243
  71.9384950 110.8248699  91.5968662  72.0405342 112.5095808  90.2660384
  71.0024495 112.6671458  90.5587024  72.5767015 113.4577474  90.3060900
  72.0695342 112.0105808  88.8850384  72.8271891 112.3570011  88.3140293
  71.1965342 111.1575808  88.3380384  70.1695342 110.6675808  89.0310384
  70.0380446 110.9408826  89.9944265  69.5271925 110.0250684  88.5898189
  71.3525342 110.7845808  87.0690384  72.1263276 111.1473157  86.5307380
  70.6963264 110.1406972  86.6508232  75.0585342 112.1025808  94.2320384
  76.1605342 112.4405808  93.8070384  74.6155342 112.4275808  95.4460384
  73.6432105 112.2746289  95.6725151  75.4615342 113.1235808  96.4320384
  75.8432553 114.0450594  95.9924188  74.6685342 113.4775808  97.7090384
  75.2703327 114.0917027  98.3789578  73.7694651 114.0244846  97.4250119
  74.2145342 112.2895808  98.5070384  73.1195342 111.5245808  98.1550384
  72.9575342 110.5565808  99.0400384  72.1453357 109.8376047  98.9327724
  73.9005342 110.6685808  99.9590384  74.0256297 110.0657064 100.7596591
  74.6965342 111.7485808  99.6520384  75.5325023 112.0112540 100.3003141
  76.7505342 112.3645808  96.7870384  77.7775342 112.9905808  97.0440384
  76.6965342 111.0315808  96.7910384  75.8099590 110.5657229  96.6604236
  77.8845342 110.2075808  97.0520384  78.4049926 110.5878410  97.9310290
  77.4975342 108.7445808  97.3060384  76.9563598 108.4694109  96.4007699
  78.4172928 108.1631345  97.3697923  76.6255342 108.4545808  98.5290384
  75.7150606 109.0506774  98.4673341  76.2625342 106.9795808  98.5790384
  77.1725424 106.3828252  98.6412220  75.6419131 106.7870722  99.4541788
  75.7124394 106.7094935  97.6776234  77.3175342 108.8765808  99.8190384
  77.5238986 109.9464191  99.7880691  76.6703170 108.6563451 100.6679833
  78.2541890 108.3293315  99.9253168  78.9205342 110.2615808  95.9290384
  80.1165342 110.1875808  96.2060384  78.4645342 110.3905808  94.6800384
  77.4666609 110.4353851  94.5305703  79.3465342 110.3465808  93.5000384
  80.2910625 109.8664260  93.7558057  78.6765342 109.5435808  92.3780384
  77.6367706 109.8591280  92.2918949  79.1789233 109.6844747  91.4210357
  78.6565342 108.0655808  92.6390384  77.7055342 107.5115808  93.4890384
  76.9608583 108.1616077  93.9484103  77.6965342 106.1505808  93.7550384
  76.9436343 105.7268995  94.4196710  78.6485342 105.3285808  93.1730384
  78.6449192 104.2583445  93.3796324  79.6065342 105.8685808  92.3270384
  80.3546179 105.2233878  91.8663899  79.6115342 107.2295808  92.0680384
  80.3690336 107.6564987  91.4107442  79.8155342 111.7085808  92.9790384
  80.8105342 111.7715808  92.2560384  79.1065342 112.7765808  93.3530384
  78.2917270 112.6128518  93.9269560  79.4035342 114.1575808  92.9410384
  79.1930668 114.2955408  91.8804868  78.5145342 115.1175808  93.7470384
  77.4888855 114.8283315  93.5179560  78.7267147 114.9029191  94.7944160
  78.6915342 116.6125808  93.4880384  78.1499746 117.1538202  94.2638437
  79.7546665 116.8419647  93.5603904  78.1745342 117.0335808  92.1220384
  78.8658539 116.6799105  91.3571244  77.1943155 116.5850450  91.9605259
  78.0585342 118.5495808  92.0390384  77.2327541 118.8620913  92.6781979
  78.9879799 118.9817040  92.4098476  77.8135342 119.0195808  90.6460384
  76.9521125 118.6196206  90.3024046  77.7436582 120.0271293  90.6380836
  78.5788148 118.7304729  90.0537028  80.8805342 114.5385808  93.1180384
  81.3865342 114.5665808  94.2400384  81.5525342 114.8275808  91.9990384
  81.0923924 114.6424748  91.1192062  82.9605342 115.2675808  91.9730384
  83.3142756 115.3035659  90.9426641  83.1075342 116.6745808  92.5950384
  82.7494774 116.6024541  93.6220205  84.1628353 116.9474099  92.5970524
  82.3085342 117.7405808  91.8520384  82.2785342 117.7185808  90.6010384
  81.7245342 118.6225808  92.5230384  83.9635342 114.2785808  92.6120384
  84.9985342 114.6895808  93.1360384  83.6595342 112.9845808  92.5460384
  82.7943168 112.7053764  92.1061032  84.5265342 111.9405808  93.0980384
  85.2524582 112.3864981  93.7779585  83.7045342 110.9105808  93.8690384
  83.0367379 110.4433457  93.1452714  84.4103064 110.1688933  94.2430510
  82.8915342 111.4615808  95.0240384  82.2463372 112.2471959  94.6308075
  82.2779271 110.6499616  95.4150150  83.7545342 112.0265808  96.1400384
  84.4445207 111.2544082  96.4802843  84.3205275 112.8751082  95.7556528
  82.8875342 112.4815808  97.3060384  82.3999677 113.4132531  97.0190435
  82.1319631 111.7159341  97.4820966  83.6735342 112.6965808  98.5490384
  84.3734393 113.4063191  98.3862374  83.0561935 112.9962340  99.2901176
  84.1250607 111.8332829  98.8153833  85.2885342 111.2205808  91.9960384
  84.8875342 111.2425808  90.8280384  86.3855342 110.5815808  92.3900384
  86.7061810 110.7069781  93.3395438  87.1595342 109.7225808  91.5090384
  86.9873810 109.9566256  90.4584740  88.6675342 109.8375808  91.7980384
  88.8531828 109.5449152  92.8314699  89.4645342 108.9305808  90.8610384
  89.2797452 109.2229544  89.8273694  90.5280247 109.0254329  91.0803363
  89.1550539 107.8955674  91.0061968  89.1155342 111.2895808  91.6700384
  88.5666521 111.9039722  92.3837285  90.1834944 111.3603807  91.8763105
  88.9171345 111.6437433  90.6584519  86.6905342 108.2845808  91.7260384
  86.7605342 107.7775808  92.8520384  86.2205342 107.6425808  90.6510384
  86.2524583 108.1141148  89.7584378  85.6345342 106.2945808  90.7070384
  85.5948051 105.9061704  91.7247113  84.2025342 106.2795808  90.1150384
  84.2554785 106.5682034  89.0652798  83.5755342 104.8925808  90.2300384
  83.5218254 104.6034447  91.2796177  82.5711656 104.9110918  89.8069528
  84.1852584 104.1713874  89.6857792  83.3295342 107.3225808  90.7960384
  83.7619056 108.3120773  90.6475337  82.3282774 107.2958921  90.3660708
  83.2719507 107.1082392  91.8632041  86.5025342 105.2945808  89.9350384
  86.9955342 105.6195808  88.8580384  86.6805342 104.0925808  90.4930384
  86.3285904 103.9409226  91.4275087  87.3895342 102.9915808  89.8290384
  87.7526402 103.3227512  88.8561153  88.5865342 102.5325808  90.6680384
  89.2766836 103.3695373  90.5617523  88.2612582 102.4600867  91.7058439
  89.2965342 101.2265808  90.2600384  88.5712795 100.4133036  90.2862418
  89.8875342 101.3345808  88.8600384  90.6132711 102.1474048  88.8331695
  90.3816177 100.3983143  88.6004475  89.0911602 101.5354053  88.1434086
  90.3685342 100.8515808  91.2730384  89.9104800 100.7098349  92.2519122
  90.8548331  99.9267629  90.9626733  91.1091919 101.6491724  91.3311145
  86.4415342 101.8105808  89.5980384  85.9385342 101.2285808  90.5570384
  86.2145342 101.4635808  88.3310384  86.5907589 102.0500573  87.5998752
  85.4235342 100.2875808  87.9430384  84.7263180 100.0237782  88.7382723
  84.6235342 100.5995808  86.6740384  84.0178553 101.4791506  86.8922338
  85.3366984 100.8368882  85.8846196  83.7075342  99.4465808  86.2100384
  83.6135342  98.3705808  86.8620384  83.0745342  99.6415808  85.1450384
  86.3805342  99.1185808  87.7120384  87.0915342  99.0835808  86.7060384
  86.3975342  98.1735808  88.6520384  85.8042381  98.2782562  89.4626814
  87.2585342  96.9925808  88.5700384  88.2214487  97.2187222  88.1120482
  87.5085342  96.3775808  89.9710384  86.5439158  96.1835010  90.4400199
  88.2985342  95.0775808  89.8780384  89.2635333  95.2709574  89.4095480
  88.4552352  94.6746637  90.8786398  87.7426434  94.3560411  89.2793168
  88.2235342  97.3745808  90.8680384  87.6111141  98.2695469  90.9779447
  88.3915020  96.9273222  91.8477558  89.1815089  97.6429342  90.4226489
  86.5775342  95.9725808  87.6680384  85.5195342  95.4525808  88.0180384
  87.1875342  95.6905808  86.5170384  88.0702891  96.1333310  86.3053420
  86.6265342  94.7575808  85.5380384  87.4120001  94.4509516  84.8472988
  86.2407678  93.8821835  86.0604973  85.4985342  95.3995808  84.7500384
  84.3465342  94.9635808  84.8330384  85.8395342  96.4275808  83.9720384
  86.8200405  96.6312295  83.8407602  84.8495342  97.3585808  83.4000384
  84.0453994  97.5330114  84.1149093  85.5155342  98.7015808  83.0740384
  84.8390805  99.2826205  82.4472190  85.6954661  99.2364549  84.0065802
  86.7435342  98.5125808  82.3940384  87.1380595  99.3665841  82.2026541
  84.0565342  96.8615808  82.1820384  82.9965342  97.4155808  81.8800384
  84.5685342  95.8465808  81.4870384  85.4976357  95.5192325  81.7100024
  83.8365342  95.1785808  80.4040384  84.4540770  94.3561112  80.0430896
  82.9120233  94.7813532  80.8230720  83.4985342  96.0915808  79.2380384
  84.3915342  96.6715808  78.6160384  82.2005342  96.2255808  78.9590384
  81.5301758  95.6608058  79.4607835  81.7055342  97.1395808  77.9320384
  82.3074444  97.0559216  77.0271603  80.2345342  96.8475808  77.5740384
  79.8855898  97.6098484  76.8774136  80.0925342  95.4795808  76.9380384
  80.4408731  94.7167011  77.6342957  79.0455517  95.2981819  76.6950956
  80.6888890  95.4384055  76.0265747  79.4275342  96.9175808  78.7520384
  78.5128676  96.7352066  78.5246071  81.7925342  98.6095808  78.3370384
  81.6015342  99.4905808  77.4940384  82.0545342  98.8715808  79.6170384
  82.2036652  98.0978366  80.2488447  82.1365342 100.2255808  80.1510384
  82.9088914 100.2403297  80.9200286  82.4210543 100.8937310  79.3381897
  80.8295342 100.7095808  80.7540384  80.7345342 101.8725808  81.1170384
  79.8325342  99.8265808  80.8730384  79.9776180  98.8819462  80.5463650
  78.4825342 100.2085808  81.3330384  78.0845293 101.0153053  80.7175006
  77.4915342  99.0025808  81.3140384  77.4758443  98.5922129  80.3043590
  77.8955342  97.9085808  82.3020384  77.9109978  98.3181056  83.3120636
  77.1767351  97.0906334  82.2531440  78.8873868  97.5357237  82.0464895
  76.0425342  99.4425808  81.6150384  75.4234630  98.5492546  81.5324562
  76.0334467  99.7962617  82.6460218  75.4945342 100.5205808  80.7080384
  75.5028754 100.1674327  79.6768659  74.4721584 100.7582944  81.0018736
  76.1128609 101.4144396  80.7904299  78.4555342 100.8985808  82.7020384
  77.8165342 101.9405808  82.8460384  79.1575342 100.3345808  83.6860384
  79.6720149  99.4832235  83.5111107  79.1545342 100.8775808  85.0480384
  78.1348815 101.1398970  85.3301691  79.6945342  99.8595808  86.0560384
  80.7280107  99.7321426  85.7338813  79.6760297 100.3408821  87.0338455
  79.0155342  98.4875808  86.1490384  79.1063462  97.9767470  85.1904442
  79.6795342  97.6475808  87.2380384  79.5887154  98.1575855  88.1970723
  79.1904770  96.6752071  87.2964609  80.7339908  97.5095789  86.9989210
  77.5195342  98.6115808  86.4160384  77.0504906  99.1703996  85.6062119
  77.0767647  97.6172905  86.4747183  77.3603369  99.1358264  87.3583344
  79.9625342 102.1735808  85.1300384  79.6285342 103.0525808  85.9260384
  81.0185342 102.2805808  84.3180384  81.3214569 101.4724888  83.7933245
  81.7815342 103.5235808  84.1810384  82.1759798 103.8122122  85.1553093
  82.9575342 103.3615808  83.2030384  82.5938085 102.9613457  82.2566691
  83.4263539 104.3304486  83.0309820  84.2785342 102.2545808  83.7400384
  85.0358756 102.4063941  82.6573173  80.9065342 104.6715808  83.6940384
  81.0185342 105.7935808  84.1870384  80.0525342 104.3835808  82.7130384
  80.0672761 103.4672806  82.2884492  79.1575342 105.3965808  82.1480384
  79.7058129 106.3256607  81.9921529  78.5925342 104.9295808  80.8020384
  78.1494746 103.9446011  80.9490503  77.8175613 105.6348814  80.5019251
  79.6545342 104.8505808  79.7150384  80.1844656 105.8029201  79.6970547
  80.3484331 104.0542861  79.9843360  78.9785342 104.5185808  78.0800384
  78.3325342 102.8615808  78.3270384  77.5826466 102.8775541  79.1179319
  77.8771326 102.5070182  77.4023788  79.1451080 102.1928414  78.6109621
  78.0295342 105.7995808  83.1070384  77.6165342 106.9605808  83.1080384
  77.5385342 104.8465808  83.9060384  77.7985755 103.8831023  83.7505164
  76.5945342 105.1465808  84.9900384  75.7237054 105.6538684  84.5748088
  76.1225342 103.8675808  85.7110384  77.0144446 103.2726491  85.9076381
  75.6234753 104.0953818  86.6529231  75.1735342 102.9805808  84.9190384
  74.3855342 103.4585808  83.8630384  74.4608749 104.5070722  83.5747860
  73.5145342 102.6115808  83.1850384  72.9223741 102.9951487  82.3541818
  73.3985342 101.2815808  83.5640384  72.7159045 100.6179656  83.0332546
  74.1525342 100.7985808  84.6190384  74.0628085  99.7547195  84.9197095
  75.0225342 101.6425808  85.2940384  75.6048720 101.2657384  86.1348550
  77.2305342 106.0935808  86.0180384  76.6345342 107.1135808  86.3800384
  78.4395342 105.7575808  86.4690384  78.8412299 104.8756034  86.1846867
  79.1795342 106.5805808  87.4310384  78.5665235 106.6489627  88.3297269
  80.4945342 105.9075808  87.7900384  81.1230371 105.8400676  86.9020484
  81.0066403 106.4934729  88.5533064  80.2981309 104.9059699  88.1725310
  79.4345342 108.0155808  86.9340384  79.3295342 108.9725808  87.7070384
  79.7605342 108.1565808  85.6500384  79.9411425 107.3383825  85.0860955
  79.9325342 109.4765808  85.0350384  80.6203328 110.0527045  85.6540003
  80.5265342 109.3455808  83.6410384  79.8449024 108.7787351  83.0068743
  80.6778724 110.3375320  83.2153275  81.4831322 108.8264578  83.7004593
  78.6125342 110.2455808  84.9750384  78.5835342 111.4505808  85.2440384
  77.5325342 109.5495808  84.6210384  77.6356010 108.6015258  84.2883699
  76.1875342 110.1465808  84.6210384  76.2087675 111.0890729  84.0739032
  75.1675342 109.2155808  83.9540384  75.3167676 108.2220385  84.3767706
  74.1766079 109.5800145  84.2248763  75.2845342 109.1445808  82.4410384
  76.3360041 109.0209419  82.1817599  74.7205698 108.2797379  82.0916203
  74.7455342 110.3995808  81.7810384  73.7059232 110.5294281  82.0817834
  75.3320799 111.2510877  82.1260015  74.8265342 110.3095808  80.2710384
  75.7928068 109.8892017  79.9922923  74.0300897 109.6580305  79.9115145
  74.6775342 111.6595808  79.6590384  75.4156943 112.2633547  79.9917191
  74.7338461 111.5815012  78.6536367  73.7820490 112.0491118  79.9168580
  75.7045342 110.5205808  86.0270384  74.9605342 111.4815808  86.1920384
  76.1435342 109.7595808  87.0260384  76.6526807 108.9143870  86.8103612
  75.8375342 110.0455808  88.4250384  74.7730762 110.2781556  88.4556544
  76.0895342 108.8075808  89.2740384  77.1526638 108.5674231  89.2606257
  75.7737774 108.9992229  90.2995486  75.5228743 107.9683145  88.8707669
  76.5945342 111.2505808  89.0130384  76.3375342 111.6165808  90.1610384
  77.5205342 111.8455808  88.2510384  77.7891032 111.3992448  87.3857325
  78.1675342 113.1175808  88.6100384  78.0347076 113.7763265  87.7518366
  77.6089034 113.5110094  89.4592998  79.6475342 113.0655808  88.9710384
  80.1825342 114.0415808  89.4990384  80.3145342 111.9505808  88.6730384
  79.8239245 111.1827633  88.2373117  81.7245342 111.7655808  89.0200384
  81.8496834 112.0482015  90.0652955  82.1175342 110.3035808  88.8610384
  82.0061888 110.0082759  87.8177277  83.1551853 110.1703933  89.1670477
  81.4730389 109.6837095  89.4843238  82.6525342 112.6575808  88.1870384
  82.4375342 112.8445808  86.9920384  83.6725342 113.2055808  88.8450384
  83.7273852 113.0666329  89.8439299  84.7045342 114.0235808  88.1990384
  84.2407203 114.8199214  87.6169582  85.6155342 114.6605808  89.2670384
  84.9681093 115.2487985  89.9173769  86.0503499 113.8384168  89.8354412
  86.7265342 115.5445808  88.7250384  87.4558110 114.9013759  88.2325510
  86.2877317 116.2224733  87.9929072  87.4195342 116.3555808  89.8180384
  87.7309165 117.3091136  89.3915232  86.7022498 116.5334629  90.6192627
  88.6025342 115.6825808  90.3840384  89.4272732 115.7126567  89.8018009
  88.6785342 115.0615808  91.5680384  87.6305342 114.9685808  92.3880384
  86.7456848 115.3750042  92.1197822  87.7266771 114.4921691  93.2734130
  89.8325342 114.5095808  91.9420384  90.6358978 114.5640593  91.3323343
  89.8983987 114.0393177  92.8334492  85.5595342 113.1985808  87.2380384
  85.9775342 113.6895808  86.1910384  85.8235342 111.9545808  87.6210384
  85.3161702 111.5698033  88.4050202  86.8045342 111.1115808  86.9530384
  86.8545813 111.3509914  85.8908345  88.1815342 111.3595808  87.5760384
  88.1073802 112.3146543  88.0960720  88.3295233 110.5611095  88.3031167
  89.3595342 111.3955808  86.6170384  89.4905667 110.4099706  86.1703799
  89.1630051 112.1262567  85.8324423  90.6345342 111.7875808  87.3720384
  90.3280814 112.3559922  88.2501581  91.1192786 110.8640652  87.6886474
  91.6115342 112.6165808  86.5460384  91.0334598 113.2449792  85.8685091
  92.1813374 113.2472178  87.2284756  92.5515342 111.7625808  85.7540384
  92.0237646 111.1784488  85.1213072  93.1775308 112.3525185  85.2246975
  93.0875899 111.1805215  86.3816931  86.3875342 109.6615808  87.1650384
  86.0255342 109.2765808  88.2800384  86.4105342 108.8765808  86.0930384
  86.6280658 109.2742450  85.1904629  86.0995342 107.4505808  86.1650384
  86.1197476 107.0981101  87.1962780  84.7135342 107.1225808  85.5570384
  84.7374368 107.3395858  84.4891261  84.3635342 105.6545808  85.7690384
  84.3389855 105.4369120  86.8368018  83.3859357 105.4470959  85.3338929
  85.1149937 105.0282664  85.2882676  83.6285342 108.0105808  86.1580384
  83.8602285 109.0561381  85.9549876  82.6653833 107.7594918  85.7137478
  83.5836054 107.8515359  87.2354366  87.1855342 106.6815808  85.4200384
  87.5235342 107.0265808  84.2890384  87.7315342 105.6515808  86.0630384
  87.4503517 105.4626214  87.0145268  88.7425342 104.7905808  85.4560384
  88.8980184 105.0708036  84.4142136  90.0865342 104.8615808  86.2140384
  89.9248857 104.5573863  87.2481737  91.1215342 103.9385808  85.5670384
  91.2840668 104.2424621  84.5329495  92.0608241 104.0036393  86.1162221
  90.7579782 102.9112645  85.5904363  90.6145342 106.3025808  86.2480384
  91.0885533 106.4977092  85.2860969  89.7543344 106.9610364  86.3688355
  91.6065342 106.5605808  87.3600384  92.4672833 105.9027697  87.2396409
  91.9352429 107.5990903  87.3206959  91.1330646 106.3660945  88.3223800
  88.2245342 103.3575808  85.4640384  87.8465342 102.8465808  86.5070384
  88.1965342 102.7285808  84.2940384  88.4330687 103.2428699  83.4575831
  87.8375342 101.3205808  84.1620384  87.4369268 100.9518591  85.1063144
  87.0881962 101.2026834  83.3792919  89.0625342 100.5105808  83.7970384
  89.8075342 100.9005808  82.8960384  89.2865342  99.4045808  84.5030384
  88.7245893  99.2221980  85.3222171  90.3375342  98.4495808  84.1570384
  90.9344915  98.8583753  83.3417911  91.2555342  98.1145808  85.3470384
  90.6608291  97.6563037  86.1372335  92.3575342  97.1475808  84.9130384
  92.9529915  97.6053737  84.1231290  92.9983362  96.9201798  85.7649553
  91.9079909  96.2268503  84.5411979  91.8875342  99.3865808  85.9240384
  92.6572133  99.7141276  85.2251765  91.1043662 100.1425075  85.9816760
  92.5035342  99.1895808  87.3000384  93.2871603  98.4340756  87.2431003
  92.9313746 100.1307782  87.6452909  91.7343130  98.8624531  87.9995997
  89.6845342  97.1655808  83.6480384  88.7865342  96.6135808  84.2930384
  90.1495342  96.6965808  82.4930384  90.9004430  97.1912465  82.0331024
  89.6095342  95.5035808  81.8480384  89.2168207  94.8141672  82.5954233
  88.4675342  95.9055808  80.9030384  87.7033536  96.3700775  81.5262317
  88.8811381  96.6489590  80.2215542  87.8465342  94.7715808  80.1000384
  87.0141691  95.1626163  79.5149227  88.6220680  94.4048755  79.4275997
  87.3595342  93.6375808  80.9730384  87.9775342  92.5565808  80.9330384
  86.3785342  93.8495808  81.7150384  90.7235342  94.8155808  81.0730384
  91.3505342  95.4545808  80.2360384  90.9645342  93.5295808  81.3490384
  90.4288375  93.0762309  82.0754007  92.0265342  92.7665808  80.6910384
  92.8731899  93.4198964  80.4802020  92.5045342  91.6195808  81.5920384
  93.2034034  90.9894776  81.0419011  93.0003738  92.0285432  82.4723752
  91.2125342  90.5135808  82.2120384  92.0274006  89.7214977  82.9030489
  91.5655342  92.2315808  79.3340384  92.3365342  92.2055808  78.3740384
  90.3055342  91.7985808  79.2690384  89.7425263  91.8046586  80.1075397
  89.7085342  91.2775808  78.0340384  90.2726133  90.4137945  77.6822043
  88.2625342  90.8455808  78.2920384  88.2727458  90.0229012  79.0070162
  87.7230833  91.6908975  78.7192765  87.6195342  90.4285808  77.1030384
  86.7179108  90.1658052  77.3020964  89.7135342  92.2845808  76.8820384
  89.6445342  93.4975808  77.0950384  89.7525342  91.7565808  75.6610384
  89.8840738  90.7601699  75.5612286  89.7035342  92.5745808  74.4490384
  90.3704027  93.4306507  74.5516538  90.1455342  91.7535808  73.2380384
  90.3261078  92.4254376  72.3989312  91.0661266  91.2240861  73.4834871
  89.1435342  90.8185808  72.8860384  89.4334249  90.3101610  72.1250703
  88.3265342  93.2125808  74.1780384  88.2025342  94.0125808  73.2490384
  87.3075342  92.8605808  74.9720384  87.3795802  92.0085591  75.5095956
  86.0405342  93.6165808  75.0250384  85.5551250  93.6745173  74.0508103
  85.0535342  92.9975808  76.0610384  85.0214223  91.9202597  75.8984087
  85.4785342  93.2825808  77.5010384  85.5104287  94.3597716  77.6645722
  84.7617566  92.8324088  78.1878249  86.4669801  92.8591289  77.6792587
  83.6115342  93.4695808  75.8240384  83.0463249  93.2559887  76.7312415
  83.6445818  94.5470195  75.6623808  82.9405342  92.8035808  74.6440384
  82.9066976  91.7260912  74.8051943  81.9255452  93.1867330  74.5387248
  83.5049564  93.0171204  73.7363334  86.2695342  95.1085808  75.3230384
  85.4935342  95.9575808  74.8910384  87.3395342  95.4065808  76.0610384
  87.8468988  94.6399060  76.4792373  87.7875342  96.7755808  76.3460384
  87.0352201  97.3055388  76.9302192  89.0885342  96.7305808  77.1500384
  88.9882859  95.9901604  77.9436549  89.9043332  96.4432475  76.4867047
  89.3655342  97.9905808  77.7160384  90.1837571  97.9438955  78.2159700
  88.0045342  97.6575808  75.1090384  87.8545342  98.8765808  75.1930384
  88.3785342  97.0415808  73.9860384  88.6085767  96.0585869  74.0160872
  88.4995342  97.7455808  72.7040384  89.2337337  98.5454751  72.8000562
  88.9515342  96.7945808  71.5780384  88.1973681  96.0134032  71.4826746
  88.9900232  97.3761141  70.6569317  90.3195342  96.1545808  71.8350384
  91.0455342  96.5865808  72.7600384  90.6625342  95.2035808  71.0970384
  87.1695342  98.3865808  72.3010384  87.1465342  99.5215808  71.8290384
  86.0735342  97.6545808  72.4970384  86.1653788  96.6912238  72.7861877
  84.7335342  98.1675808  72.2080384  84.7422344  98.6940816  71.2536693
  83.7135342  97.0245808  72.1280384  83.6858171  96.4545026  73.0566620
  82.7440430  97.4940924  71.9614684  84.0275342  96.0985808  70.9790384
  83.7695342  96.4815808  69.6620384  83.3104990  97.4529452  69.4780894
  84.0865342  95.6505808  68.5960384  83.8725053  95.9572125  67.5721876
  84.6835342  94.4275808  68.8410384  85.0015342  93.5965808  67.7880384
  84.7651600  93.9659697  66.9340602  84.9585342  94.0305808  70.1360384
  85.4233879  93.0633473  70.3270123  84.6405342  94.8685808  71.1950384
  84.8708685  94.5670029  72.2168491  84.2985342  99.2215808  73.2170384
  83.6535342 100.1955808  72.8430384  84.6635342  99.0315808  74.4850384
  85.1540663  98.1849983  74.7355893  84.3135342  99.9735808  75.5520384
  83.2260044 100.0421232  75.5781156  84.7995342  99.4585808  76.8950384
  85.8875419  99.3931341  76.8875463  84.4825734 100.1417333  77.6830350
  84.3779007  98.4706131  77.0800904  84.8585342 101.3755808  75.3040384
  84.1735342 102.3575808  75.5860384  86.0795342 101.4585808  74.7740384
  86.6282717 100.6192559  74.6535379  86.6955342 102.7465808  74.4370384
  86.6669263 103.4287516  75.2866994  88.1705342 102.5825808  73.9820384
  88.2099253 101.8148318  73.2093100  88.7365342 103.8915808  73.4290384
  88.6979000 104.6597422  74.2013961  89.7707348 103.7391548  73.1203378
  88.1448767 104.2099803  72.5707466  89.0365342 102.0925808  75.1380384
  88.6655682 101.1291095  75.4876230  90.0670254 101.9835995  74.7999398
  88.9967623 102.8143628  75.9538507  85.8655342 103.4635808  73.3670384
  85.6175342 104.6565808  73.4820384  85.4395342 102.7255808  72.3430384
  85.7848503 101.7820341  72.2401993  84.5355342 103.2525808  71.3120384
  84.9371640 104.1823932  70.9092461  84.3845342 102.2475808  70.1660384
  84.1047631 101.2936365  70.6130481  83.5714273 102.6043721  69.5338541
  85.6365342 102.0645808  69.3250384  85.8103586 102.9741359  68.7500641
  86.4831918 101.8872173  69.9882240  85.4815342 100.8875808  68.3760384
  85.5809444  99.9674224  68.9518206  84.4865480 100.9328001  67.9332551
  86.5265342 100.9105808  67.2750384  86.2166683 101.6219928  66.5095473
  87.4793323 101.2266691  67.6997304  86.6785342  99.5625808  66.6660384
  85.7958674  99.2696837  66.2720710  87.3768986  99.5991994  65.9373091
  86.9660734  98.9033060  67.3751061  83.1465342 103.6235808  71.8460384
  82.5635342 104.6125808  71.4070384  82.6225342 102.8185808  72.7700384
  83.1156849 101.9704910  73.0101332  81.3145342 103.0645808  73.3940384
  80.5755381 103.2756368  72.6210964  80.8465342 101.8475808  74.2390384
  81.6810918 101.5240791  74.8611001  79.6525342 102.1915808  75.1280384
  78.8173729 102.5147483  74.5066135  79.3595740 101.3114557  75.7004499
  79.9276118 102.9943069  75.8121892  80.4645342 100.6895808  73.3140384
  79.4641441 100.9037844  72.9379572  81.1734760 100.7007994  72.4861645
  80.4755342  99.3265808  73.9680384  79.7664466  99.3144474  74.7957747
  80.1923208  98.5697328  73.2365533  81.4757788  99.1114635  74.3439843
  81.3475342 104.3375808  74.2430384  80.4415342 105.1685808  74.1560384
  82.3895342 104.4755808  75.0590384  83.0381577 103.7087424  75.1655554
  82.5825342 105.6675808  75.8860384  81.7302221 105.8653358  76.5360816
  83.8565342 105.5375808  76.7640384  84.6588451 105.1440812  76.1398954
  84.2875342 106.8785808  77.3630384  83.4858562 107.2725096  77.9877250
  85.1825173 106.7357434  77.9685986  84.5015900 107.5838075  76.5599587
  83.6305342 104.5045808  77.8670384  83.4050385 103.5369857  77.4186932
  84.5299431 104.4210110  78.4771035  82.7951704 104.8178027  78.4932653
  82.6265342 106.9305808  75.0160384  81.9515342 107.9185808  75.3240384
  83.4025342 106.8805808  73.9300384  83.9557638 106.0537833  73.7555611
  83.5315342 108.0125808  73.0040384  83.7536819 108.9186652  73.5677410
  84.6585342 107.7765808  71.9920384  85.5243135 107.4123163  72.5450636
  84.3203510 107.0062540  71.2989808  85.0435342 109.0255808  71.2130384
  84.1467310 109.4274261  70.7414824  85.4445754 109.7582655  71.9133535
  86.0785342 108.7235808  70.1520384  86.9482026 108.2692938  70.6268006
  85.6521066 108.0252139  69.4319394  86.5005342 109.9975808  69.4340384
  85.6193295 110.6167725  69.2661683  87.2096086 110.5380263  70.0611200
  87.1375342 109.6775808  68.1280384  86.4805106 109.1771662  67.5466565
  87.4101286 110.5341829  67.6675766  87.9543439 109.1041839  68.2833993
  82.2415342 108.3125808  72.2460384  81.8895342 109.4765808  72.0700384
  81.5475342 107.2715808  71.7930384  81.9080704 106.3354324  71.9102532
  80.3005342 107.4485808  71.0330384  80.5273294 108.1228303  70.2071748
  79.8195342 106.1215808  70.4600384  79.5797919 105.4388126  71.2751772
  78.9297276 106.2885330  69.8530199  80.6044261 105.6865444  69.8413402
  79.2005342 108.1045808  71.8670384  78.3575342 108.8105808  71.3210384
  79.2325342 107.8865808  73.1830384  79.8902177 107.2114217  73.5459600
  78.2835342 108.5055808  74.1170384  77.3871291 108.8317822  73.5896394
  77.8805342 107.4775808  75.1770384  78.7692583 107.0871109  75.6728227
  77.2464317 107.9771267  75.9094781  77.1105342 106.3185808  74.5810384
  75.9275342 106.4475808  74.2740384  77.7785342 105.1895808  74.3920384
  77.3079052 104.3880181  73.9969367  78.7551371 105.1359890  74.6439821
  78.7975342 109.8025808  74.7700384  78.2095342 110.2695808  75.7430384
  79.8715342 110.3795808  74.2190384  80.3714704 109.8546473  73.5157547
  80.4175342 111.6815808  74.6380384  81.3301453 111.8911373  74.0800723
  79.4065342 112.8155808  74.3730384  78.6373391 112.7178855  75.1391283
  79.9526505 113.7467615  74.5239009  78.7535342 112.8275808  72.9970384
  79.5158980 113.0037085  72.2381700  78.2772510 111.8639945  72.8160472
  77.7055342 113.9325808  72.9300384  77.0339571 113.8054231  73.7791050
  78.2236887 114.8875834  73.0171330  76.9005342 113.9085808  71.6390384
  76.6540178 112.8721206  71.4086461  75.9818808 114.4733015  71.7979894
  77.6575342 114.5025808  70.5030384  78.5086082 113.9791799  70.3553079
  77.0918415 114.4684038  69.6670218  77.8856891 115.4631175  70.7161433
  80.8705342 111.7235808  76.1050384  80.6995342 112.7405808  76.7770384
  81.4475342 110.6245808  76.5890384  81.5203264 109.8104021  75.9958152
  81.8935342 110.5115808  77.9860384  81.6953901 111.4417906  78.5185305
  81.1375342 109.3755808  78.6860384  81.2712757 108.5242646  78.0186006
  81.6192806 109.1668909  79.6412709  79.6415342 109.6175808  78.9110384
  79.1927357 109.9485912  77.9744954  78.9555342 108.3425808  79.3790384
  79.4035140 108.0111904  80.3158380  77.8939432 108.5360421  79.5329797
  79.0770281 107.5658575  78.6240281  79.4005342 110.7435808  79.9040384
  79.8447425 111.6640591  79.5252270  78.3283921 110.8867387  80.0386429
  79.8554605 110.4882729  80.8610958  83.4115342 110.3265808  78.1450384
  83.8895342 110.0915808  79.2540384  84.1645342 110.4745808  77.0550384
  83.7190561 110.6261419  76.1613506  85.6205342 110.2545808  77.0810384
  85.8430226 109.3947454  77.7129255  86.1795342 109.9855808  75.6670384
  87.2611772 109.9124484  75.7801729  85.7874133 109.0348496  75.3058577
  85.8475342 111.0835808  74.6670384  84.6525342 111.4185808  74.5080384
  86.7805342 111.5885808  74.0120384  86.4375342 111.3475808  77.8020384
  87.6185342 111.1365808  78.0820384  85.8235342 112.4945808  78.1050384
  84.9296702 112.7113683  77.6877739  86.4645342 113.5155808  78.9550384
  87.5423958 113.4973287  78.7938538  85.9425342 114.9215808  78.6240384
  84.8540291 114.9493921  78.6738619  86.3565397 115.6422447  79.3292640
  86.3215342 115.3965808  77.2530384  85.4805342 115.2835808  76.1640384
  86.0775342 115.7795808  75.0940384  85.5715111 115.7864737  74.1286411
  87.2785342 116.2055808  75.4470384  87.9613625 116.6311201  74.8364963
  87.4565342 115.9765808  76.7920384  88.3921693 116.2601043  77.2740162
  86.3255342 113.2415808  80.4600384  86.9985342 113.8895808  81.2610384
  85.4485342 112.3075808  80.8320384  84.8327116 111.9268817  80.1278154
  85.2885342 111.8485808  82.2200384  85.9095249 112.4155240  82.9136127
  83.8095342 111.9655808  82.6700384  83.1913238 111.3914821  81.9798748
  83.6145342 111.4355808  84.0890384  84.2321200 112.0095304  84.7798861
  82.5666066 111.5325303  84.3728498  83.9055082 110.3858792  84.1285648
  83.3395342 113.4115808  82.5740384  83.4252594 113.7543365  81.5428877
  82.2994254 113.4780479  82.8931862  83.9571759 114.0383887  83.2172580
  85.7755342 110.4025808  82.4170384  86.4385342 110.1055808  83.4120384
  85.4345342 109.5165808  81.4840384  84.9283567 109.8389571  80.6716609
  85.7335342 108.0905808  81.5930384  85.9441973 107.7882480  82.6188625
  84.5605342 107.2365808  81.0570384  84.3698734 107.5168932  80.0210980
  84.8865342 105.7465808  81.1290384  85.0768750 105.4654038  82.1648042
  84.0440729 105.1708628  80.7457524  85.7717020 105.5383340  80.5280285
  83.2755342 107.5415808  81.8150384  83.0242619 108.5955163  81.6959411
  82.4656143 106.9285703  81.4196303  83.4156116 107.3192891  82.8728974
  87.0035342 107.7225808  80.8190384  87.0785342 107.9375808  79.6100384
  87.9825342 107.1615808  81.5310384  87.8873473 107.1433118  82.5363767
  89.1825342 106.5715808  80.9370384  89.2414909 106.8262423  79.8788462
  90.4605342 107.0755808  81.6370384  90.4404168 106.7443207  82.6752880
  91.7265342 106.5345808  80.9510384  91.7475876 106.8658375  79.9128066
  92.6093819 106.9088927  81.4692755  91.7210266 105.4450997  80.9842237
  90.4865342 108.5065808  81.6130384  91.2825080 108.8195115  82.0490436
  89.1165342 105.0495808  81.0770384  88.7345342 104.5295808  82.1280384
  89.4885342 104.3435808  80.0160384  89.7293897 104.8266110  79.1623583
  89.5535342 102.8855808  80.0280384  89.2462674 102.4738376  80.9893676
  88.6905342 102.2695808  78.9050384  89.0458757 102.6396969  77.9433488
  88.7825342 100.7495808  78.9290384  88.4269038 100.3786719  79.8903158
  88.1675142 100.3351810  78.1302118  89.8191233 100.4454666  78.7837906
  87.2265342 102.7395808  78.9950384  87.2546003 103.8292127  78.9989559
  86.7371809 102.3925203  78.0849934  86.4515342 102.2495808  80.2040384
  86.9400596 102.5966626  81.1145202  85.4343905 102.6396165  80.1667566
  86.4226422 101.1599694  80.2005588  91.0105342 102.4685808  79.8370384
  91.6835342 102.9605808  78.9390384  91.4835342 101.5675808  80.6930384
  90.8745745 101.2354542  81.4271769  92.8375342 101.0235808  80.6170384
  93.3794640 101.4843922  79.7911667  93.6055342 101.2595808  81.9290384
  92.9867507 100.9160344  82.7580036  94.9385342 100.5075808  81.9420384
  95.5580904 100.8509439  81.1135744  95.4540787 100.6971697  82.8835110
  94.7541022  99.4383183  81.8382996  93.8545342 102.7535808  82.1160384
  94.7340124 103.0217203  81.5306153  92.9858807 103.2879509  81.7313448
  94.0765342 103.1285808  83.5520384  94.9453638 102.5949194  83.9373182
  94.2484831 104.2024388  83.6252623  93.1972324 102.8611476  84.1380483
  92.7335342  99.5295808  80.3730384  92.1015342  98.8205808  81.1560384
  93.3605342  99.0655808  79.2920384  93.7871304  99.7174205  78.6492165
  93.4115342  97.6495808  78.9720384  92.4949167  97.1656398  79.3092513
  93.5515342  97.4345808  77.4640384  92.8667484  98.1243236  76.9706598
  94.5769839  97.6847863  77.1921006  93.2425342  96.0095808  77.0220384
  93.8805622  95.3263508  77.5825899  92.1973515  95.7958448  77.2456721
  93.4895342  95.8265808  75.5330384  92.8143777  96.4835530  74.9847228
  94.5211607  96.1025576  75.3146738  93.2505342  94.3895808  75.1100384
  94.0100118  93.7587702  75.5719609  92.2638966  94.0829264  75.4573257
  93.3215342  94.2475808  73.6270384  94.2358413  94.5312755  73.3050762
  93.1592564  93.2836149  73.3729998  92.6175829  94.8316980  73.1988344
  94.5765342  97.0005808  79.7200384  95.7375342  97.3375808  79.4830384
  94.2565342  96.0825808  80.6260384  93.2816739  95.8925350  80.8094211
  95.2615342  95.3305808  81.3740384  95.7224530  94.6049720  80.7038556
  96.0201736  96.0262290  81.7327015  94.6635342  94.5965808  82.5610384
  93.4785342  94.7605808  82.8740384  95.4875342  93.7785808  83.2140384
  96.3980141  93.5724973  82.8284799  95.1095342  93.1445808  84.4770384
  94.0838952  92.7833238  84.4018249  96.0215342  91.9615808  84.8180384
  97.0411392  92.2696025  84.5864620  95.9295032  91.7884370  85.8902565
  95.6975342  90.6805808  84.0690384  94.6148138  90.5555157  84.0557715
  96.0639739  90.7787060  83.0471796  96.3415342  89.4635808  84.7250384
  96.3922925  88.6647989  83.9851261  97.3505711  89.7370196  85.0335432
  95.5515342  88.9825808  85.9390384  95.3391234  89.8428102  86.5738515
  94.6143674  88.5492460  85.5896984  96.3075342  87.9655808  86.7190384
  97.1757734  88.3670512  87.0432018  95.7558484  87.6712347  87.5121987
  96.5040882  87.1682061  86.1311104  95.1855342  94.1655808  85.6040384
  96.1375342  94.9385808  85.6830384  94.2025342  94.1305808  86.4960384
  93.4263253  93.5021863  86.3453087  94.1615342  95.0175808  87.6600384
  94.1516985  96.0713481  87.3815121  92.9175342  94.7255808  88.5380384
  92.8576641  93.6497612  88.7027412  92.9965342  95.4415808  89.8820384
  93.0559666  96.5175501  89.7181518  92.1071618  95.2125810  90.4691297
  93.8830278  95.1071474  90.4209124  91.6335342  95.1055808  87.8020384
  91.5572157  94.5273081  86.8812354  90.7735261  94.8921823  88.4368192
  91.6526100  96.1687143  87.5622802  95.4515342  94.8815808  88.4820384
  96.0045342  95.8815808  88.9280384  95.9435342  93.6495808  88.6270384
  95.4426760  92.8758250  88.2140706  97.1285342  93.3555808  89.4440384
  97.1019561  93.9490305  90.3579368  97.1675342  91.8625808  89.8270384
  97.1600502  91.3022846  88.8920992  98.1149228  91.6988089  90.3405885
  96.0155342  91.3855808  90.7170384  96.4084701  90.5873663  91.3467653
  95.7335855  92.2340680  91.3404752  94.7855342  90.8785808  89.9590384
  93.9045342  90.2685808  90.6080384  94.6835342  91.0855808  88.7270384
  98.4785342  93.7575808  88.8090384  99.5185342  93.6095808  89.4540384
  98.4635342  94.2365808  87.5600384  97.5824762  94.2610093  87.0668455
  99.6775342  94.6645808  86.8430384 100.5558560  94.5382111  87.4760319
  99.8535342  93.8095808  85.5860384  98.9810805  93.9729866  84.9534072
 100.7465823  94.1635439  85.0709897  99.9945342  92.3205808  85.8820384
 100.8861592  92.2046834  86.4982149  99.1174949  92.0129133  86.4514608
 100.1215342  91.4525808  84.6380384  99.7835342  91.9105808  83.5210384
 100.5575342  90.2895808  84.7810384  99.7195342  96.1475808  86.4490384
 100.8095342  96.6945808  86.2850384  98.5645342  96.7955808  86.2890384
  97.6889232  96.3200013  86.4540500  98.5235342  98.1825808  85.7860384
  99.3202330  98.4078871  85.0770904  97.1595342  98.5685808  85.1410384
  97.2132629  99.6024295  84.7999090  96.8385342  97.6595808  83.9590384
  96.7841811  96.6255418  84.2994940  95.8811694  97.9498687  83.5262730
  97.6205326  97.7528092  83.2054545  96.0215342  98.6085808  86.1660384
  96.2508638  99.3455087  86.9357444  95.0919102  98.8823624  85.6670972
  95.9110469  97.6263688  86.6255523  98.8575342  99.2395808  86.8390384
  98.6625342  99.0345808  88.0380384  99.3515342 100.3735808  86.3490384
  99.6412358 100.3903706  85.3816241  99.5025342 101.5875808  87.1350384
  99.5523798 101.3395633  88.1952751 100.7905342 102.3175808  86.7420384
 101.6003572 101.5890477  86.7810985 100.6651929 102.6661187  85.7168989
 101.1265342 103.4965808  87.6400384 100.3157372 104.2176155  87.5360292
 101.1602568 103.1342400  88.6674970 102.4495342 104.1675808  87.2950384
 103.1645342 104.5585808  88.2410384 102.7745342 104.3155808  86.0940384
  98.2815342 102.4665808  86.8520384  97.9575342 102.7145808  85.6830384
  97.5955342 102.9105808  87.9080384  97.8759201 102.6419413  88.8404095
  96.4295342 103.7925808  87.7580384  95.8238057 103.4413220  86.9226886
  95.5585342 103.8155808  89.0190384  96.2679720 103.4994239  89.7837881
  95.3418346 104.8767630  89.1416502  94.2695342 103.0145808  89.1600384
  94.4922363 101.9637562  89.3451663  93.5025342 103.5855808  90.3420384
  93.2790522 104.6363296  90.1574268  92.5714270 103.0340571  90.4722753
  94.1064479 103.4963124  91.2450444  93.3765342 103.0535808  87.9370384
  93.9138949 102.6455086  87.0809893  92.4817088 102.4589151  88.1207812
  93.0905235 104.0844213  87.7280775  96.8725342 105.2295808  87.4810384
  97.8415342 105.6895808  88.0790384  96.1395342 105.9565808  86.6120384
  95.2205342 105.3875808  85.6110384  94.3747265 104.9330465  86.1268951
  95.7495996 104.6247947  85.0397712  94.8165342 106.5615808  84.7630384
  93.7597841 106.4771523  84.5095625  95.4096446 106.5675121  83.8485515
  95.0835342 107.7735808  85.5750384  94.2470137 108.0050336  86.2344032
  95.3057494 108.6405379  84.9528605  96.3125342 107.3985808  86.4060384
  97.2507975 107.5255545  85.8660033  96.3425342 108.2375808  87.6810384
  96.9715342 109.2925808  87.6900384  95.6465342 107.7775808  88.7220384
  95.0358975 106.9859461  88.5787321  95.6545342 108.4195808  90.0400384
  96.3374149 109.2687592  90.0659064  94.2395342 108.9085808  90.4480384
  94.2861471 109.3470383  91.4448741  93.7405342 109.9495808  89.4600384
  93.6932098 109.5116945  88.4629843  92.7468186 110.2855205  89.7563055
  94.4231096 110.7993526  89.4510738  93.2355342 107.7645808  90.5460384
  93.5726779 107.0477284  91.2947432  92.2612621 108.1592213  90.8343999
  93.1541433 107.2680756  89.5791056  96.2345342 107.4935808  91.1160384
  96.2535342 106.2665808  90.9580384  96.7025342 108.0935808  92.2080384
  96.7168451 109.1023077  92.2566640  97.2285342 107.3375808  93.3430384
  97.8599853 106.5271943  92.9788373  98.0595342 108.2285808  94.2590384
  97.4206995 109.0528351  94.5762043  98.3382891 107.6308975  95.1268923
  99.3025342 108.7785808  93.6080384  99.8164638 107.9739851  93.0821078
  98.9875490 109.5372278  92.8915622 100.2365342 109.3965808  94.6150384
 100.3305342 110.6345808  94.6560384 100.8635342 108.6375808  95.3820384
  96.1205342 106.7065808  94.1680384  96.2795342 105.5875808  94.6450384
  95.0255342 107.4455808  94.3630384  94.9862567 108.3678306  93.9531458
  93.8935342 106.9995808  95.1800384  93.9608633 105.9240590  95.3438035
  93.8945342 107.7045808  96.5440384  93.8097826 108.7720375  96.3404393
  93.0023354 107.3634131  97.0690965  95.1235342 107.4485808  97.4110384
  96.0070201 107.6923299  96.8210045  95.0693087 108.1120337  98.2741675
  95.2135342 106.0015808  97.8870384  94.3386584 105.7879870  98.5010979
  95.2096605 105.3521852  97.0116129  96.4765342 105.7505808  98.6990384
  97.3148961 106.2347821  98.1982400  96.3458791 106.1850996  99.6901094
  96.7515342 104.2905808  98.8290384  96.8730609 103.8878354  97.9108188
  97.5927748 104.1534041  99.3708842  95.9749968 103.8417902  99.2934474
  92.5565342 107.2495808  94.4940384  92.4415342 108.1235808  93.6330384
  91.5525342 106.4755808  94.8980384  91.7519173 105.6952474  95.5074854
  90.1845342 106.6475808  94.4190384  90.0485007 107.6027924  93.9119242
  89.7555342 105.5095808  93.4560384  88.7257555 105.6785089  93.1412079
  90.6625342 105.4825808  92.2320384  91.6924911 105.3132201  92.5460556
  90.3497988 104.6791659  91.5650890  90.5950877 106.4360162  91.7080981
  89.7435342 104.1465808  94.1420384  89.0424583 104.1653645  94.9764494
  89.4370121 103.3824266  93.4277470  90.7425495 103.9169601  94.5126374
  89.2205342 106.7675808  95.6030384  89.4485342 106.1895808  96.6700384
  88.1535342 107.5345808  95.4020384  88.0459152 108.0016488  94.5130137
  87.1395342 107.7635808  96.4340384  87.6144345 107.8190104  97.4135773
  86.4015342 109.0765808  96.1740384  85.9280609 108.9981626  95.1953797
  85.6346961 109.1940840  96.9397096  87.3265342 110.2835808  96.1940384
  87.9755342 110.5235808  97.2350384  87.3975342 110.9965808  95.1720384
  86.1335342 106.6135808  96.4850384  85.6745342 106.2385808  97.5610384
  85.7835342 106.0805808  95.3140384  86.1934973 106.4559433  94.4707516
  84.8035342 105.0005808  95.1880384  84.5919287 104.5407677  96.1533851
  83.4825342 105.5165808  94.5610384  83.7105915 105.9790552  93.6007220
  82.4855342 104.3755808  94.3530384  82.2566192 103.9128841  95.3130438
  81.5694762 104.7686886  93.9121250  82.9189497 103.6308387  93.6854986
  82.8675342 106.6235808  95.4330384  82.5179557 106.1517323  96.3513274
  83.6657631 107.3276474  95.6680287  81.7215342 107.3615808  94.7780384
  80.9226723 106.6581953  94.5431590  81.3442773 108.1251199  95.4583211
  82.0704796 107.8341087  93.8598585  85.3845342 103.8735808  94.3290384
  86.0915342 104.1325808  93.3530384  85.1075342 102.6305808  94.7200384
  84.7253801 102.4817647  95.6430288  85.3575342 101.4605808  93.8750384
  85.8039557 101.7855648  92.9352552  86.2845342 100.4245808  94.5550384
  85.9505362 100.2797839  95.5824524  86.2535342  99.0845808  93.8150384
  86.5878684  99.2285010  92.7876104  86.9142984  98.3769952  94.3158518
  85.2363351  98.6929124  93.8140788  87.7195342 100.9545808  94.5980384
  88.0630366 101.0311593  93.5664170  87.6797216 101.9492882  95.0419658
  88.6815342 100.0865808  95.3880384  88.7222335  99.0917811  94.9443977
  89.6754006 100.5337135  95.3680059  88.3389169 100.0099082  96.4199466
  84.0135342 100.8165808  93.5570384  83.2335342 100.5465808  94.4610384
  83.7575342 100.5715808  92.2740384  84.3567249 100.9733752  91.5671925
  82.5745342  99.8295808  91.8400384  82.0425227  99.4289999  92.7029393
  81.6095342 100.6985808  90.9970384  80.7038444 100.1290207  90.7886455
  81.2465342 101.9695808  91.7600384  82.1517290 102.5399382  91.9684022
  80.5674661 102.5737280  91.1583962  80.7607934 101.7040890  92.6990108
  82.2065342 101.0565808  89.6270384  83.1936100 101.4824496  89.8070882
  82.3090961 100.1268514  89.0674101  81.3705342 102.0385808  88.8270384
  81.2679149 102.9687873  89.3858630  81.8589979 102.2400627  87.8736720
  80.3833995 101.6131895  88.6461869  83.0185342  98.5705808  91.0930384
  84.0065342  98.5875808  90.3630384  82.3085342  97.4695808  91.3030384
  81.5218553  97.4743402  91.9364521  82.6635342  96.2175808  90.6540384
  82.8839674  96.4020771  89.6026253  83.8975342  95.5875808  91.3100384
  84.6854414  96.3383250  91.3707386  83.6321842  95.2580775  92.3145865
  84.3595342  94.4765808  90.5540384  85.1311536  94.0974903  90.9812313
  81.5225342  95.2255808  90.7050384  80.9125342  95.0065808  91.7550384
  81.2305342  94.6425808  89.5550384  81.5229594  95.0618917  88.6839671
  80.4235342  93.4465808  89.5020384  79.8821164  93.3274047  90.4405282
  79.4135342  93.5265808  88.3640384  79.0317834  94.5471913  88.3372118
  79.9475556  93.3144991  87.4377865  78.2555342  92.5575808  88.5130384
  77.9521378  92.4971389  89.5582170  77.4348637  92.9608416  87.9197596
  78.6085342  91.1775808  88.0110384  78.2825342  90.8735808  86.8370384
  79.2475342  90.4155808  88.7780384  81.4105342  92.2885808  89.3720384
  81.9165342  92.0025808  88.2880384  81.6695342  91.6515808  90.5110384
  81.1306180  91.9204722  91.3218196  82.7085342  90.6235808  90.6740384
  83.2951265  90.5427736  89.7588997  83.6555342  90.9925808  91.8360384
  84.3627605  90.1918809  92.0523948  84.2020101  91.8960857  91.5655889
  82.9385342  91.2925808  93.1230384  82.5635342  92.5195808  93.5700384
  82.8245175  93.3695304  92.9395043  81.9095342  92.4115808  94.7710384
  81.5431936  93.1807582  95.3134959  81.8405342  91.0895808  95.1190384
  81.2755342  90.4795808  96.2470384  80.7972987  91.1108600  96.9959550
  81.3615342  89.1135808  96.3370384  80.9361030  88.6039870  97.2015743
  81.9865342  88.3525808  95.3390384  82.0469975  87.2671709  95.4185934
  82.5475342  88.9575808  94.2190384  83.0249108  88.3207715  93.4742657
  82.4795342  90.3515808  94.1000384  82.1375342  89.2285808  90.9310384
  82.8945342  88.2605808  90.9980384  80.8195342  89.1215808  91.0840384
  80.2223409  89.9124910  90.8893065  80.2045342  87.8965808  91.5740384
  80.8153943  87.4711335  92.3702443  78.8095342  88.1785808  92.1270384
  78.2192582  88.6103946  91.3188241  78.3762120  87.2229796  92.4222641
  78.8075342  89.1255808  93.3180384  77.8708032  88.9732493  93.8541643
  79.6426404  88.8443712  93.9596153  78.9605342  90.8665808  92.8750384
  77.3825342  91.1265808  92.0620384  76.5737129  90.9188085  92.7625652
  77.3132792  92.1605961  91.7242269  77.3005168  90.4585262  91.2046718
  80.1195342  86.8505808  90.4720384  79.7405342  87.1525808  89.3400384
  80.4935342  85.6225808  90.8120384  80.9218206  85.4688041  91.7137162
  80.3095342  84.4745808  89.9280384  80.0621996  84.8315626  88.9282941
  81.2367081  83.9027383  89.8900362  79.1965342  83.5755808  90.4190384
  78.5155342  83.8795808  91.4040384  79.0215342  82.4565808  89.7240384
  79.5390859  82.3151661  88.8683273  78.0895342  81.4165808  90.1490384
  77.0794902  81.8244472  90.1884746  78.1035342  80.2415808  89.1740384
  79.1012974  79.8057015  89.2248044  77.3737943  79.5215680  89.5443914
  77.7805342  80.5935808  87.7410384  76.6345342  81.3165808  87.4170384
  75.9637398  81.6306351  88.2167284  76.3415342  81.6375808  86.1000384
  75.4403732  82.2013679  85.8588853  77.2035342  81.2385808  85.0860384
  76.9235342  81.5565808  83.7790384  76.1091180  82.0551964  83.6805075
  78.3455342  80.5195808  85.3800384  79.0211588  80.2031136  84.5853810
  78.6295342  80.2005808  86.7000384  79.5282516  79.6334395  86.9424391
  78.5055342  80.9405808  91.5420384  79.6995342  80.7625808  91.8080384
  77.5275342  80.7805808  92.4330384  76.5764905  80.9708897  92.1512626
  77.7815342  80.4395808  93.8350384  76.8463076  80.4331100  94.3948674
  78.4165342  79.0455808  93.9250384  78.0428998  78.4089123  93.1230722
  79.5015774  79.1205100  93.8531565  78.0765342  78.1645808  95.4630384
  78.7659453  77.0705900  95.1519198  78.6415342  81.5085808  94.5400384
  79.3985342  81.1975808  95.4610384  78.5075342  82.7615808  94.0840384
  77.9451631  82.8559529  93.2504126  79.2135342  83.9635808  94.5970384
  78.7950717  84.8509913  94.1221796  79.0725342  84.1095808  96.1240384
  78.0014947  83.9753817  96.2755774  79.6115422  83.2886407  96.5969315
  79.5155342  85.4415808  96.7510384  80.6015411  85.5053482  96.6830405
  78.8915342  86.6405808  96.0470384  77.8054728  86.5777501  96.1150209
  79.2322832  87.5599686  96.5231863  79.1899139  86.6427924  94.9986753
  79.1905342  85.4645808  98.2420384  79.7123477  84.6478606  98.7408152
  79.5109093  86.4146373  98.6696524  78.1159006  85.3476937  98.3820345
  80.6835342  84.0955808  94.1950384  81.1005342  85.1275808  93.6650384
  81.4545342  83.0465808  94.4380384  81.0233183  82.1716996  94.7002122
  82.9095342  83.1205808  94.4170384  83.2470569  84.1565559  94.3864894
  83.4385342  82.4705808  95.7010384  83.0225579  81.4675408  95.7957684
  84.5268036  82.4118400  95.6831688  83.0675342  83.2115808  96.9590384
  83.3885342  84.5545808  97.1170384  83.9100820  85.0739239  96.3130667
  83.0535342  85.2345808  98.2800384  83.3081013  86.2885979  98.3911428
  82.3945342  84.5705808  99.3000384  82.1285063  85.1014780 100.2140828
  82.0735342  83.2325808  99.1590384  81.5557385  82.7078866  99.9619604
  82.4095342  82.5615808  98.0000384  82.1598163  81.5063670  97.8892915
  83.5805342  82.4855808  93.1920384  84.7945342  82.6235808  93.0320384
  82.8205342  81.7995808  92.3320384  81.8393915  81.6442791  92.5146302
  83.4065342  81.2035808  91.1260384  84.2089194  80.5250865  91.4157325
  82.3695342  80.4185808  90.3200384  81.8659503  79.7423534  91.0108488
  81.6500097  81.1358455  89.9251766  82.9665342  79.6205808  89.1770384
  83.7675342  78.5075808  89.4270384  83.9581961  78.2182952  90.4605090
  84.3175342  77.7735808  88.3900384  84.9408105  76.9053552  88.6040779
  84.0725342  78.1415808  87.0830384  84.6295342  77.4015808  86.0640384
  85.1594649  76.6663961  86.3807032  83.2815342  79.2395808  86.8030384
  83.0853437  79.5289835  85.7706355  82.7355342  79.9755808  87.8460384
  82.1152729  80.8460945  87.6325392  84.0255342  82.3075808  90.2720384
  83.5055342  83.4225808  90.2380384  85.1425342  81.9755808  89.6150384
  85.4178434  81.0063208  89.6846043  86.0555342  82.9185808  88.9210384
  86.6896979  82.3405476  88.2488678  85.3315342  84.0055808  88.1020384
  84.8896940  84.6859692  88.8300137  86.1079363  84.5272656  87.5424449
  84.2525342  83.5195808  87.1410384  84.7262532  82.8812068  86.3952704
  83.5299107  82.9362207  87.7116569  83.5395342  84.6685808  86.4450384
  84.2385342  85.5645808  85.9170384  82.2845342  84.6815808  86.4220384
  87.0845342  83.5815808  89.8540384  88.1215342  84.0455808  89.3800384
  86.7935342  83.6345808  91.1570384  85.8832222  83.3028492  91.4423198
  87.6545342  84.2505808  92.1660384  87.1260603  84.2987756  93.1181370
  88.9445342  83.4315808  92.3600384  89.5014355  83.4284025  91.4230485
  89.5452504  83.9035320  93.1375358  88.6475342  82.0985808  92.7370384
  89.4651675  81.6087973  92.8518768  87.9685342  85.7175808  91.8800384
  89.0855342  86.1825808  92.1240384  86.9775342  86.4525808  91.3820384
  86.0928288  86.0247750  91.1488478  87.1685342  87.8695808  91.0650384
  88.1697791  88.0171491  90.6602774  86.1505342  88.3525808  90.0360384
  86.0240338  87.5605743  89.2979174  85.2068790  88.5181973  90.5558326
  86.5745342  89.6325808  89.3370384  86.7315911  90.3907534  90.1042465
  87.5164499  89.4328174  88.8261652  85.3755342  90.2365808  88.1480384
  85.7385342  91.9925808  88.2070384  86.7752956  92.1598173  87.9150508
  85.0783163  92.5238389  87.5214891  85.5828438  92.3624582  89.2204744
  87.1325342  88.7755808  92.3010384  87.6655342  89.8815808  92.2490384
  86.5285342  88.3335808  93.4050384  85.9926218  87.4774869  93.4044269
  86.5665342  89.1295808  94.6370384  86.0883355  90.0909330  94.4493499
  85.8445342  88.4425808  95.8000384  84.8341068  88.3027332  95.4158793
  86.2992475  87.4698703  95.9875756  85.7875342  89.2435808  97.1130384
  86.8050146  89.3641794  97.4849127  85.1535342  90.6165808  96.9130384
  84.1358052  90.4967808  96.5415894  85.1324387  91.1495641  97.8636090
  85.7387025  91.1858427  96.1908062  85.0565342  88.4685808  98.1940384
  85.5752152  87.5284295  98.3816150  85.0312823  89.0581425  99.1104884
  84.0373755  88.2617955  97.8674589  88.0065342  89.4445808  95.0310384
  88.2995342  90.5755808  95.4120384  88.8955342  88.4585808  94.8950384
  88.5650844  87.5338382  94.6589170  90.3395342  88.6455808  95.1340384
  90.5131830  88.7987166  96.1991650  91.1475342  87.4155808  94.6750384
  91.0032834  87.2805935  93.6030919  92.2018055  87.6032892  94.8784533
  90.7345342  86.1315808  95.3880384  89.5475342  85.8415808  95.5160384
  91.7155342  85.3565808  95.8480384  91.4925141  84.4959302  96.3272486
  92.6778299  85.6331961  95.7154798  90.8915342  89.8975808  94.4390384
  91.7085342  90.6225808  95.0140384  90.4445342  90.1385808  93.2070384
  89.8309109  89.4659104  92.7699110  90.8715342  91.3005808  92.4240384
  91.9581030  91.3809614  92.4557616  90.4285342  91.1755808  90.9490384
  89.3411419  91.1061110  90.9198459  90.8825342  92.3735808  90.1260384
  91.9699241  92.4434359  90.1543778  90.5535694  92.2517506  89.0940313
  90.4495587  93.2843394  90.5397431  91.0005342  89.9915808  90.3910384
  90.7296428  89.9068775  89.4739542  90.3665342  92.6185808  93.0100384
  91.1125342  93.5955808  93.0520384  89.1125342  92.6345808  93.4610384
  88.5226792  91.8277003  93.3157308  88.5285342  93.8165808  94.1090384
  88.6528517  94.7079057  93.4940716  87.0205342  93.6285808  94.4090384
  86.8961184  92.7342300  95.0195763  86.4495342  94.8355808  95.1520384
  86.5731776  95.7303012  94.5418839  85.3896165  94.6739368  95.3483701
  86.9779211  94.9647171  96.0966191  86.2405342  93.3855808  93.1200384
  86.6168601  92.4871152  92.6309161  85.1836616  93.2561361  93.3531991
  86.3631832  94.2396837  92.4540307  89.2905342  94.1425808  95.4020384
  89.5685342  95.3125808  95.6810384  89.6355342  93.1055808  96.1660384
  89.3329467  92.1788386  95.9020515  90.3765342  93.2635808  97.4210384
  89.8694180  93.9927228  98.0529277  90.4675342  91.9325808  98.1830384
  91.0407196  91.3196891  97.4873937  91.0546433  92.1025399  99.0855443
  89.1625342  91.2065808  98.5500384  88.7135356  90.8079129  97.6403324
  89.4335342  90.0685808  99.5220384  89.8821416  90.4665545 100.4322401
  88.4964244  89.5690671  99.7678272  90.1165292  89.3534007  99.0636327
  88.1155342  92.1615808  99.1140384  87.8823276  92.9252220  98.3720369
  87.2105911  91.6056967  99.3593386  88.5043858  92.6372816 100.0143729
  91.7775342  93.8305808  97.2010384  92.2245342  94.6835808  97.9650384
  92.4655342  93.3505808  96.1670384  92.1191996  92.5398703  95.6741894
  93.7525342  93.9225808  95.7490384  94.4756869  93.8340842  96.5597898
  94.3015342  93.1785808  94.5160384  94.5042199  92.1578413  94.8402430
  93.5080909  93.1710985  93.7687154  95.5595342  93.7765808  93.9120384
  95.4865342  94.8445808  93.0140384  94.5056796  95.2392398  92.7489574
  96.6295342  95.4015808  92.4630384  96.5549992  96.2418040  91.7726970
  97.8725342  94.8845808  92.7940384  98.9975342  95.4435808  92.2370384
  98.8001045  96.1727994  91.6447029  97.9745342  93.8185808  93.6750384
  98.9509559  93.4095046  93.9345723  96.8225342  93.2715808  94.2280384
  96.8956109  92.4337368  94.9214195  93.6035342  95.4195808  95.4550384
  94.3915342  96.2295808  95.9410384  92.5925342  95.7635808  94.6600384
  92.0157465  95.0321492  94.2696244  92.3175342  97.1515808  94.2670384
  93.2284950  97.5527928  93.8228779  91.2105342  97.1845808  93.2210384
  90.2893626  96.7942792  93.6537133  91.0505437  98.2116162  92.8928592
  91.4984891  96.5714923  92.3670456  91.9435342  98.0505808  95.4530384
  92.3015342  99.2315808  95.4820384  91.2115342  97.4845808  96.4100384
  90.8623204  96.5482419  96.2636878  90.8575342  98.1705808  97.6530384
  90.3140838  99.0899434  97.4350172  89.9605342  97.2605808  98.5060384
  89.0602610  97.0875726  97.9163983  90.5050567  96.3232837  98.6203603
  89.5725342  97.7935808  99.8810384  90.4383864  98.2838232 100.3260813
  88.7662248  98.5175827  99.7636147  89.1095342  96.6615808 100.7870384
  88.7022400  97.0895591 101.7030324  88.3315940  96.0968333 100.2732595
  90.1985342  95.7465808 101.1400384  91.1320401  96.0517823 100.9044152
  90.0465342  94.5575808 101.7330384  88.8395342  94.0985808 102.0750384
  88.0185006  94.6553341 101.8852240  88.7535098  93.1968913 102.5218666
  91.1185342  93.8175808 101.9960384  92.0364603  94.1574425 101.7470289
  91.0104330  92.9186983 102.4437249  92.1055342  98.5575808  98.4400384
  92.2865342  99.7185808  98.7960384  92.9545342  97.5685808  98.7060384
  92.7366587  96.6348468  98.3885949  94.1675342  97.7655808  99.5050384
  93.9075603  98.2089998 100.4662316  94.8725342  96.4225808  99.7580384
  95.0805224  95.9673203  98.7897522  95.8119739  96.6352620 100.2682539
  94.0365342  95.4565808 100.6080384  92.9625342  95.8475808 101.1190384
  94.4525342  94.2915808 100.7670384  95.1385342  98.7515808  98.8480384
  95.7325342  99.5875808  99.5300384  95.2705342  98.6645808  97.5250384
  94.7331002  97.9750590  97.0192482  96.2215342  99.4885808  96.7770384
  97.1622967  99.5561353  97.3233914  96.4975342  98.8705808  95.4000384
  96.5582103  97.7910948  95.5383415  95.6443842  99.1075319  94.7643583
  97.7745342  99.3695808  94.7410384  97.6501650 100.4260095  94.5031487
  98.5964403  99.2509881  95.4470895  98.0845342  98.5965808  93.4680384
  97.7911859  97.5592297  93.6291239  97.4832455  99.0231740  92.6651876
  99.5575342  98.6535808  93.0840384 100.1142571  98.0650367  93.8132683
  99.6616955  98.2017776  92.0975682 100.0935342 100.0385808  93.0530384
  99.9975040 100.4572621  93.9671412 101.0694473 100.0161540  92.7938267
  99.5780786 100.5839913  92.3770710  95.7515342 100.9335808  96.6090384
  96.5115342 101.8565808  96.8790384  94.5025342 101.1145808  96.1770384
  93.8807242 100.3202008  96.1279253  94.0085342 102.4185808  95.7020384
  94.8053384 103.1611176  95.7449512  93.5335342 102.2935808  94.2510384
  92.7769524 101.5098608  94.2127484  93.1047256 103.2296265  93.8932094
  94.5935342 101.9105808  93.2770384  95.7745342 102.5575808  93.0410384
  95.9774075 103.4438710  93.6422305  96.4775342 101.9165808  92.0510384
  97.3808279 102.1942398  91.6945758  95.7515342 100.8385808  91.6230384
  96.0435342  99.8875808  90.6420384  96.9845847  99.9717137  90.0984905
  95.1215342  98.9035808  90.4250384  95.3183744  98.1412365  89.6712578
  93.9185342  98.8485808  91.1530384  93.1878617  98.0608974  90.9692665
  93.6265342  99.7935808  92.1250384  92.6878475  99.7010617  92.6713059
  94.5535342 100.8105808  92.3710384  92.8775342 103.0815808  96.5050384
  92.6355342 104.2735808  96.3100384  92.1695342 102.3515808  97.3680384
  92.3595109 101.3711721  97.5190585  91.0285342 102.9545808  98.0660384
  90.4389622 103.5251664  97.3484480  90.1235342 101.9075808  98.7200384
  89.9703705 101.1758391  97.9268208  90.6647153 101.4419165  99.5436766
  88.7645342 102.4095808  99.2210384  88.9459356 103.1527355  99.9975147
  87.9255342 103.0315808  98.1080384  87.7433159 102.2888402  97.3313584
  86.9734661 103.3707027  98.5162826  88.4597991 103.8800316  97.6804958
  88.0025342 101.2755808  99.8870384  88.5778596 100.8976717 100.7321922
  87.0385745 101.6426040 100.2394258  87.8439288 100.4720692  99.1677941
  91.5115342 103.9585808  99.1070384  92.3605342 103.6415808  99.9380384
  90.9735342 105.1745808  99.0380384  90.3591297 105.4031644  98.2696922
  91.2775342 106.2165808 100.0150384  92.3575349 106.3395780 100.0960905
  90.6675342 107.5435808  99.5770384  89.5853039 107.4388140  99.5002169
  90.9063402 108.3135696 100.3106521  91.0742667 107.8283399  98.6066878
  90.7545342 105.8215808 101.4010384  89.8965342 104.9355808 101.5110384
  91.2775342 106.4595808 102.4690384  92.4755342 107.3175808 102.5550384
  92.2337890 108.3165633 102.1921424  93.2716283 106.8923474 101.9438839
  92.8065342 107.3005808 104.0180384  93.2928283 108.2350224 104.2981027
  93.4719636 106.4654731 104.2368997  91.4995342 107.1365808 104.7160384
  91.0441346 108.1239932 104.7917142  91.5562796 106.6862884 105.7070562
  90.6645342 106.2465808 103.7830384  90.7266712 105.1883533 104.0367939
  89.1945342 106.6815808 103.7650384  88.8675342 107.7255808 103.1910384
  88.3235342 105.8575808 104.3420384  88.6609733 104.9829589 104.7178985
  86.8725342 106.1015808 104.3380384  86.3494326 105.2401485 104.7532473
  86.5395342 107.3365808 105.1910384  86.9685096 108.2125935 104.7045396
  85.4545192 107.4351317 105.2246558  87.0845342 107.2265808 106.6130384
  86.7275342 106.2525808 107.3160384  87.8695342 108.1045808 107.0260384
  86.2555342 106.2065808 102.9240384  85.2455342 106.8875808 102.7280384
  86.8555342 105.5115808 101.9550384  87.7206715 105.0316581 102.1582895
  86.3115342 105.4145808 100.6050384  85.8987530 106.3789987 100.3090505
  87.1044909 105.1314693  99.9128196  85.2115342 104.3685808 100.5510384
  85.1575342 103.4705808 101.3950384  84.3405342 104.4835808  99.5510384
  84.4628036 105.2263478  98.8776539  83.1805342 103.6005808  99.4080384
  82.9491917 103.1281484 100.3627045  81.9625342 104.4105808  98.9550384
  82.1761764 104.6195029  97.9067981  81.0847316 103.7682294  99.0253759
  81.6935342 105.7225808  99.6910384  82.5419020 106.3936803  99.5568802
  80.4385342 106.3745808  99.1320384  79.5895932 105.7042212  99.2662619
  80.2490320 107.3099398  99.6586248  80.5761607 106.5775747  98.0699872
  81.5705342 105.4895808 101.1860384  82.4977134 105.0594373 101.5647399
  81.3792450 106.4382315 101.6876075  80.7462011 104.8035337 101.3807519
  83.4425342 102.4695808  98.4140384  84.2115342 102.6385808  97.4690384
  82.7965342 101.3245808  98.6420384  82.3023928 101.2159412  99.5161786
  82.8165342 100.1925808  97.7090384  83.3084642 100.5045037  96.7877305
  83.5525342  98.9635808  98.2960384  82.9950413  98.6064693  99.1619330
  83.6685342  97.8375808  97.2640384  84.2263452  98.1938222  96.3979901
  84.1901465  96.9896006  97.7078299  82.6717734  97.5269299  96.9508881
  84.9625342  99.3575808  98.7590384  85.4970609  99.7107825  97.8772048
  84.8446381 100.1794676  99.4652268  85.7505342  98.2385808  99.4130384
  85.8692454  97.4164666  98.7072510  86.7325935  98.6088705  99.7072228
  85.2168210  97.8851500 100.2952723  81.3665342  99.8525808  97.3570384
  80.5105342  99.8125808  98.2410384  81.1015342  99.6315808  96.0660384
  81.8713465  99.6476889  95.4124109  79.7595342  99.3335808  95.5530384
  79.0546311  99.2631776  96.3814430  79.2905342 100.4405808  94.6040384
  80.0851709 100.7512699  93.9257139  78.4526768 100.0498967  94.0265776
  78.7975342 101.6865808  95.2890384  79.6755342 102.5175808  95.9810384
  80.7297757 102.2464640  96.0373454  79.2245342 103.6755808  96.5930384
  79.9218890 104.3116340  97.1382295  77.8885342 104.0245808  96.5120384
  77.5300939 104.9326679  96.9968045  77.0065342 103.2185808  95.8140384
  75.9541925 103.4943070  95.7458319  77.4605342 102.0615808  95.2020384
  76.7673935 101.4323263  94.6437422  79.8025342  98.0235808  94.7590384
  80.4685342  97.9785808  93.7230384  79.1425342  96.9505808  95.2120384
  79.0065342  95.7195808  94.4190384  79.9931194  95.3923840  94.0908735
  78.3824477  95.9199286  93.5481333  78.3665342  94.7535808  95.3710384
  79.1355450  94.1529149  95.8567565  77.6848712  94.0995508  94.8272722
  77.6275342  95.5905808  96.3560384  77.5920950  95.0249263  97.2871013
  76.6188628  95.8972488  96.0792059  78.5165342  96.8195808  96.5290384
  77.9844765  97.7411891  96.7649430  79.5745342  96.5595808  97.5910384
  80.7255342  96.2935808  97.2510384  79.1775342  96.6305808  98.8590384
  78.2331799  96.9277766  99.0589605  80.0985342  96.4175808  99.9920384
  81.0804271  96.1350721  99.6123353  80.2475342  97.6955808 100.8400384
  80.7790385  97.4308859 101.7541167  80.8491786  98.3955689 100.2602620
  78.9235342  98.3415808 101.1950384  77.8805342  97.6565808 101.2350384
  78.9255342  99.5605808 101.4500384  79.7505342  95.2255808 100.8920384
  80.4845342  94.9395808 101.8380384  78.6525342  94.5295808 100.5970384
  78.0662015  94.8208283  99.8279558  78.2285342  93.3825808 101.3950384
  79.0892868  92.9451157 101.9008333  77.2075342  93.8155808 102.4520384
  77.6899398  94.5749739 103.0674295  76.3674710  94.2605953 101.9187881
  76.7035342  92.6875808 103.3410384  76.1829815  91.9651463 102.7123779
  77.5655985  92.2092538 103.8059584  75.7595342  93.1915808 104.4220384
  76.3256418  93.7479848 105.1690563  75.0095709  93.8440992 103.9749656
  75.0775342  92.0775808 105.0840384  74.1160667  91.9217691 104.8168263
  75.6245342  91.2695808 105.9970384  76.8865342  91.4245808 106.3980384
  77.4494786  92.1670348 106.0082235  77.2738530  90.7988381 107.0897970
  74.8965342  90.2845808 106.5220384  73.9391581  90.1558994 106.2271281
  75.3054858  89.6712349 107.2124470  77.6485342  92.2895808 100.4990384
  76.8255342  92.5705808  99.6310384  78.0975342  91.0545808 100.7210384
  78.8700076  90.9292933 101.3595423  77.5505342  89.8715808 100.0520384
  76.5930103  90.1118849  99.5899766  78.5025342  89.3805808  98.9710384
  79.4630615  89.1273146  99.4197517  78.0825108  88.4971487  98.4901764
  78.6448676  90.1651018  98.2278243  77.2995342  88.7675808 101.0800384
  78.0875342  88.5795808 102.0120384  76.1955342  88.0485808 100.9100384
  75.5534417  88.2920860 100.1694159  75.8455342  86.9385808 101.7930384
  76.6990051  86.7043520 102.4292958  74.6455342  87.2915808 102.6900384
  74.2458150  86.3755994 103.1251280  75.0735342  88.2355808 103.8020384
  75.4729609  89.1520440 103.3676962  74.2133170  88.4752133 104.4270998
  75.8416539  87.7573275 104.4097938  73.6335342  87.9315808 101.9090384
  72.8864948  88.1505914 102.4707917  75.5355342  85.6975808 100.9630384
  74.9085342  85.8015808  99.9200384  76.0005342  84.5395808 101.4290384
  76.5496337  84.5480116 102.2766928  75.7765342  83.2585808 100.7610384
  75.2850926  83.4196747  99.8015422  77.1125342  82.5525808 100.5140384
  77.7138968  83.3289883 100.0411181  77.5274075  82.3191582 101.4945965
  77.1265342  81.2905808  99.6390384  76.3795551  80.5997578 100.0300456
  76.8205342  81.5955808  98.1830384  77.5674076  82.2860320  97.7911761
  76.8422245  80.6714959  97.6053729  75.8320426  82.0484243  98.1061140
  78.4775342  80.6025808  99.7490384  78.6602254  80.3233319 100.7867009
  78.4820247  79.7079472  99.1263733  79.2604885  81.2824195  99.4130312
  74.8715342  82.3925808 101.6380384  75.1095342  82.2555808 102.8410384
  73.8325342  81.8245808 101.0280384  73.7183729  81.9734761 100.0356188
  72.8395342  81.0105808 101.7250384  73.0893135  80.9492222 102.7842573
  71.4475342  81.6305808 101.5860384  71.2430444  81.7239519 100.5194715
  70.7359269  80.9360098 102.0324533  71.3115342  82.9815808 102.2440384
  71.7335342  84.1375808 101.5910384  72.1620101  84.0525629 100.5923994
  71.6155342  85.3835808 102.1920384  71.9491722  86.2787881 101.6672609
  71.0695342  85.4875808 103.4620384  70.9605342  86.7295808 104.0500384
  71.2907796  87.4384782 103.4932602  70.6405342  84.3545808 104.1330384
  70.2094341  84.4341214 105.1309995  70.7625342  83.1105808 103.5260384
  70.4282108  82.2141759 104.0483279  72.8215342  79.6045808 101.1530384
  73.2315342  79.3865808 100.0130384  72.3495342  78.6535808 101.9540384
  72.2360087  78.8463938 102.9389417  72.0855342  77.3015808 101.4800384
  72.0464289  77.2538198 100.3917880  73.1455342  76.2865808 101.9830384
  74.1318175  76.7295755 101.8448348  72.9495342  75.9305808 103.4550384
  71.9635796  75.4870770 103.5939584  73.7146496  75.2174704 103.7619140
  73.0302708  76.8327275 104.0614331  73.1275342  75.0325808 101.1280384
  73.3507285  75.2941964 100.0937060  73.8771343  74.3313654 101.4947759
  72.1417925  74.5703751 101.1807629  70.6675342  76.8865808 101.8770384
  70.1655342  77.2815808 102.9290384  70.0295342  76.1045808 101.0070384
  70.4786182  75.9045042 100.1247730  68.6815342  75.5745808 101.2370384
  68.5093480  75.4017874 102.2993913  67.5975342  76.5455808 100.7120384
  67.7077358  77.4965536 101.2331973  67.7215342  76.7735808  99.2030384
  67.6109680  75.8230550  98.6811423  66.9424477  77.4610843  98.8737023
  68.6995876  77.1991411  98.9785152  66.2935342  76.0325808 101.0110384
  65.6273489  76.6405632 100.6821695  68.5785342  74.2015808 100.5680384
  69.4925342  73.7985808  99.8470384  67.4875342  73.4815808 100.8200384
  66.7536481  73.8739340 101.3923753  67.3315342  72.0985808 100.3350384
  68.1860633  71.8320753  99.7130624  67.2685342  71.1395808 101.5090384
  66.4124332  71.3880617 102.1362930  67.1640517  70.1192311 101.1401614
  68.1837918  71.2215012 102.0952908  66.0845342  71.9695808  99.4720384
  65.0925342  72.6535808  99.7230384  66.1425342  71.0995808  98.4580384
  66.9967566  70.5880725  98.2884425  65.0195342  70.9065808  97.5310384
  64.0888672  71.2458517  97.9858497  65.2395342  71.6505808  96.1880384
  64.3839803  71.4676264  95.5379188  65.3865342  73.1455808  96.4230384
  66.2422243  73.3293670  97.0727444  65.5400878  73.6504536  95.4692955
  64.4828230  73.5301815  96.8957829  66.4695342  71.1145808  95.4360384
  67.3526774  71.4245384  95.9946843  66.4027559  70.0266293  95.4373383
  66.5745342  71.6105808  94.0130384  66.6418223  72.6984998  94.0109537
  67.4657498  71.1910534  93.5463150  65.6918991  71.3005924  93.4536081
  64.7045342  69.4465808  97.2060384  65.5495342  68.5565808  97.3430384
  63.4665342  69.2415808  96.7640384  62.7924251  69.9811641  96.9007596
  63.0295342  68.0245808  96.0970384  63.5415915  67.1585211  96.5163679
  61.5175342  67.8455808  96.2980384  61.3513669  67.8202027  97.3749988
  61.0443392  68.7334875  95.8787436  60.9125342  66.5985808  95.6610384
  61.5813716  65.7675170  95.8848476  59.9506347  66.4307676  96.1454836
  60.7115342  66.6965808  94.1540384  60.4055342  67.7925808  93.6340384
  60.8655342  65.6585808  93.4790384  63.3715342  68.2145808  94.6160384
  63.1395342  69.2905808  94.0620384  63.9095342  67.1745808  93.9780384
  64.0478249  66.3105262  94.4824040  64.3845342  67.2545808  92.5900384
  63.6689169  67.7964375  91.9716677  65.7325342  68.0095808  92.5620384
  65.7403874  68.7353671  93.3752246  66.5101378  67.2650643  92.7327073
  65.9945342  68.7235808  91.2420384  65.0335342  69.0115808  90.4940384
  67.1745342  69.0185808  90.9650384  64.5185342  65.8755808  91.9110384
  65.4485342  65.6365808  91.1450384  63.5655342  64.9865808  92.1770384
  62.8073177  65.2579104  92.7866179  63.5985342  63.5995808  91.6770384
  64.4835823  63.0848933  92.0510516  62.3475342  62.8445808  92.1640384
  62.4784499  62.7256618  93.2395934  61.5091872  63.5143318  91.9724455
  62.0655342  61.4825808  91.5320384  61.2790089  61.0149950  92.1243578
  61.6968901  61.6711889  90.5237574  63.2715342  60.5535808  91.4660384
  62.9391507  59.5828202  91.0982829  63.9951604  60.9770562  90.7695234
  63.9235342  60.3655808  92.7630384  63.3453315  60.5351531  93.5736099
  65.1905342  59.9815808  92.9520384  66.0085342  59.7625808  91.9310384
  65.6754842  59.8861826  90.9855754  66.9606548  59.4732355  92.1037968
  65.6565342  59.8275808  94.1830384  65.0525280  60.0009616  94.9737442
  66.6135448  59.5375437  94.3248411  63.7015342  63.5235808  90.1510384
  64.6315342  62.9125808  89.6150384  62.7445342  64.1545808  89.4770384
  62.0608978  64.6897108  89.9931550  62.5915342  64.0495808  88.0270384
  62.4699774  63.0046261  87.7417439  61.3565342  64.8305808  87.5640384
  60.5408929  64.5499649  88.2304340  61.5866602  65.8876342  87.6973805
  60.9405342  64.5795808  86.1180384  61.7058854  65.0051263  85.4690010
  60.8801953  63.5041345  85.9510758  59.5935342  65.2055808  85.7600384
  58.7985342  65.5635808  86.6330384  59.3305342  65.3285808  84.4630384
  58.4555058  65.7352816  84.1646743  60.0069150  65.0147857  83.7817579
  63.8335342  64.5285808  87.2790384  64.3285342  63.8315808  86.3950384
  64.3445342  65.6995808  87.6490384  63.8950880  66.2559529  88.3621636
  65.5025342  66.2655808  86.9540384  65.4028196  66.0865659  85.8834732
  65.6165342  67.7725808  87.1890384  64.6077455  68.1851164  87.1729487
  66.0519510  67.9172572  88.1777654  66.4695342  68.4815808  86.1520384
  66.0085342  68.6625808  84.8440384  65.0211030  68.2856952  84.5775119
  66.7865342  69.3105808  83.8900384  66.4151777  69.4462588  82.8742689
  68.0445342  69.7885808  84.2400384  68.8285342  70.4305808  83.3100384
  68.4109610  70.4954445  82.4480495  68.5235342  69.6215808  85.5290384
  69.5104641  69.9945732  85.8028020  67.7385342  68.9745808  86.4750384
  68.1082024  68.8427356  87.4919270  66.8125342  65.5625808  87.3160384
  67.6865342  65.4265808  86.4560384  66.9505342  65.1135808  88.5650384
  66.2773058  65.3492664  89.2801014  68.1275342  64.3265808  88.9500384
  69.0239420  64.9038409  88.7234922  68.1375342  63.9715808  90.4400384
  67.9043391  64.8775098  90.9995131  67.3579049  63.2291256  90.6104451
  69.4785342  63.4165808  90.9080384  69.7803443  62.6378647  90.2076008
  70.2040132  64.2296417  90.8813124  69.4175342  62.8385808  92.3120384
  69.2417079  63.6523592  93.0155644  68.5895753  62.1313464  92.3610594
  70.7135342  62.1275808  92.6730384  71.0303039  61.5330192  91.8161522
  71.4702921  62.8810271  92.8915228  70.5415342  61.2415808  93.8540384
  69.8406540  60.5430815  93.6516391  71.4186577  60.7872727  94.0646532
  70.2484226  61.7923842  94.6482678  68.2245342  63.0525808  88.1150384
  69.3135342  62.6945808  87.6760384  67.0945342  62.3835808  87.8960384
  66.2499292  62.6549431  88.3788470  67.0565342  61.1855808  87.0450384
  67.8204857  60.4817666  87.3753759  65.6825342  60.4915808  87.1190384
  64.9140371  61.2627671  87.0662837  65.5980593  59.8353413  86.2528318
  65.4965342  59.6735808  88.3980384  66.4195342  59.6295808  89.2450384
  64.4155342  59.0685808  88.5660384  67.4285342  61.4675808  85.5880384
  68.0755342  60.6445808  84.9460384  67.0235342  62.6295808  85.0840384
  66.4283690  63.2230096  85.6441454  67.3525342  63.0615808  83.7240384
  67.1537197  62.2586609  83.0141851  66.4905342  64.2725808  83.3480384
  65.4637430  64.0499040  83.6382350  66.8708136  65.0912487  83.9589970
  66.5265342  64.6745808  81.8850384  66.0845342  63.7985808  80.8890384
  65.7227099  62.8124747  81.1802040  66.1005342  64.1645808  79.5500384
  65.7637360  63.4648650  78.7851419  66.5485342  65.4305808  79.1860384
  66.5585342  65.7865808  77.8540384  66.2384582  65.0893156  77.2770009
  66.9825342  66.3295808  80.1520384  67.3294000  67.3236607  79.8699221
  66.9715342  65.9495808  81.4940384  67.3118339  66.6459321  82.2604528
  68.8415342  63.3985808  83.5620384  69.4095342  63.1675808  82.4940384
  69.4605342  63.9285808  84.6200384  68.9206091  64.1031789  85.4555596
  70.8655342  64.3635808  84.5940384  71.1953529  64.4960946  83.5636215
  71.0195342  65.7055808  85.3370384  70.3947179  65.6497916  86.2284369
  72.0656440  65.7883587  85.6318301  70.6245342  66.9295808  84.5150384
  69.5664422  66.8585466  84.2630538  70.7960111  67.8253908  85.1118819
  71.4475342  67.0075808  83.2340384  72.3791399  66.4735145  83.4210760
  70.8814927  66.4895557  82.4598637  71.7565342  68.4125808  82.7760384
  70.8369606  68.9134796  82.4734078  72.2241387  68.9713243  83.5867485
  72.6895342  68.3455808  81.6170384  72.2562625  67.8282447  80.8655474
  72.9031357  69.2812130  81.3022897  73.5418669  67.8818516  81.8973655
  71.8855342  63.3515808  85.1450384  73.0145342  63.2985808  84.6540384
  71.4995342  62.5705808  86.1540384  70.5489359  62.6362642  86.4889233
  72.4225342  61.6645808  86.8510384  73.4494431  61.8164488  86.5186327
  72.3445342  61.8495808  88.3920384  71.3353334  61.5996705  88.7193899
  73.3505342  60.9545808  89.1150384  74.3600702  61.2042355  88.7885261
  73.2683257  61.1098645  90.1907844  73.1417059  59.9104224  88.8821795
  72.5645342  63.3225808  88.7730384  71.7036614  63.8750462  88.3965007
  72.5752744  63.3657730  89.8621291  73.8415342  63.9425808  88.2290384
  73.8313091  63.9001697  87.1399119  73.9072865  64.9818489  88.5510596
  74.7029225  63.3908947  88.6055388  72.1435342  60.2155808  86.4750384
  72.9805342  59.5595808  85.8590384  70.9555342  59.7285808  86.8240384
  70.3048502  60.3105677  87.3319762  70.6175342  58.3155808  86.6280384
  71.4730789  57.6903698  86.8834864  69.4365342  57.9215808  87.5260384
  68.6110121  58.5995669  87.3093655  69.1102485  56.8926316  87.3747067
  69.7375342  58.0655808  88.9880384  70.3725342  57.0805808  89.7180384
  70.6628946  56.1874992  89.3462914  70.5345342  57.4935808  90.9630384
  71.0127696  56.8514387  91.7026623  70.0375342  58.7135808  91.0660384
  69.5425342  59.0995808  89.8420384  69.0994493  60.0880102  89.7204479
  70.3815342  57.9295808  85.1590384  70.3925342  56.7525808  84.8240384
  70.1835342  58.9255808  84.3000384  69.9955956  59.8438909  84.6761832
  70.1505342  58.7505808  82.8460384  69.3127483  58.1165581  82.5558159
  69.9795342  60.1235808  82.1820384  69.0085009  60.5397845  82.4503070
  70.7680123  60.7990093  82.5140003  70.0365342  60.1005808  80.7010384
  68.9955342  59.9225808  79.8460384  68.0091113  59.7873479  80.2896392
  69.4425342  59.9545808  78.5470384  68.8644119  59.8546364  77.7249160
  70.7975342  60.1535808  78.5470384  71.6965342  60.2595808  77.4810384
  71.3114991  60.1747589  76.4648436  73.0185342  60.4655808  77.7860384
  73.7491913  60.5516462  76.9817791  73.4545342  60.5685808  79.1140384
  74.5068263  60.7339262  79.3452130  72.5625342  60.4635808  80.1740384
  72.9536368  60.5361401  81.1888658  71.2055342  60.2565808  79.8920384
  71.3905342  58.0335808  82.2740384  71.2775342  57.2685808  81.3130384
  72.5565342  58.2875808  82.8620384  72.5945544  58.9828637  83.5936363
  73.8155342  57.6585808  82.4310384  73.9448508  57.7888415  81.3566043
  75.0095342  58.3005808  83.1500384  74.8470955  58.2874949  84.2277868
  75.9200212  57.7499171  82.9136426  75.2615342  59.7275808  82.7720384
  74.8835342  60.8415808  83.4650384  74.3384597  60.6770887  84.3945199
  75.2915342  61.9725808  82.8090384  75.1376233  62.9214089  83.1190966
  75.9495342  61.6065808  81.6650384  76.5485342  62.3925808  80.6740384
  76.5144086  63.4769031  80.7797703  77.1465342  61.7415808  79.6220384
  77.6173707  62.3229245  78.8292885  77.1665342  60.3405808  79.5420384
  77.6447333  59.8321046  78.7048544  76.5765342  59.5595808  80.5290384
  76.6245380  58.4756890  80.4242772  75.9515342  60.1955808  81.6120384
  73.8685342  56.1295808  82.6200384  74.6645342  55.4625808  81.9630384
  73.0335342  55.5845808  83.5070384  72.4574222  56.1906719  84.0734727
  72.9715342  54.1265808  83.7530384  73.9751000  53.7413102  83.9333754
  72.0995342  53.8195808  84.9810384  71.1263843  54.2772329  84.8031816
  71.9876577  52.7364240  85.0295682  72.6695342  54.3325808  86.3040384
  73.4513732  53.6372204  86.6094931  73.1099377  55.3100372  86.1072572
  71.6325342  54.4565808  87.4220384  70.5275342  53.8655808  87.3220384
  71.9285342  55.1565808  88.4170384  72.4645342  53.2975808  82.5630384
  72.7865342  52.1105808  82.4640384  71.6705342  53.9125808  81.6800384
  71.4056723  54.8730246  81.8458550  71.1005342  53.2245808  80.5150384
  71.7456342  52.3978628  80.2175780  69.7105342  52.6635808  80.8610384
  69.7769415  52.1277992  81.8079425  69.0191281  53.4997883  80.9650313
  69.1675342  51.7105808  79.7980384  69.7045342  51.5995808  78.6940384
  68.0925342  51.0125808  80.1360384  67.6862855  50.3652646  79.4757025
  67.6846435  51.1312731  81.0523561  71.0375342  54.1605808  79.3000384
  70.0015342  54.7695808  79.0200384  72.1555342  54.2405808  78.5820384
  72.9635370  53.7267190  78.9032503  72.2925342  55.0715808  77.3850384
  71.4674858  55.7757326  77.2774996  73.6235342  55.8685808  77.4180384
  74.4534421  55.1619520  77.4233319  73.7445342  56.7835808  76.2080384
  72.9151677  57.4908426  76.2023131  74.6866326  57.3295700  76.2575048
  73.7185895  56.1866239  75.2964075  73.7285342  56.6705808  78.7100384
  73.6992696  55.9922566  79.5627529  74.6672221  57.2245499  78.7191505
  72.8942981  57.3692470  78.7734145  72.2155342  54.1585808  76.1540384
  73.2235342  53.5955808  75.7310384  71.0035342  54.0085808  75.6110384
  70.2384881  54.4916479  76.0598702  70.6965342  53.1045808  74.4890384
  69.6177864  53.0710492  74.3364676  71.3625342  53.5815808  73.1870384
  72.4422104  53.5592158  73.3350199  71.0879148  52.8677996  72.4103785
  70.9425342  54.9645808  72.7680384  69.7605342  55.1705808  72.0600384
  69.1425779  54.3093396  71.8060835  69.3655342  56.4435808  71.6790384
  68.4406604  56.5909759  71.1213782  70.1535342  57.5275808  72.0070384
  69.7605342  58.7925808  71.6320384  68.9295470  58.8001613  71.1514113
  71.3305342  57.3465808  72.7120384  71.9524946  58.2034565  72.9709397
  71.7165342  56.0735808  73.0880384  72.6418665  55.9268854  73.6451208
  71.0575342  51.6455808  74.7950384  71.5655342  50.9245808  73.9300384
  70.7815342  51.2195808  76.0300384  70.3349216  51.8529315  76.6777292
  71.0995342  49.8665808  76.4900384  70.3506960  49.6099624  77.2393631
  70.9878311  49.2112649  75.6262196  72.4865342  49.6675808  77.0870384
  72.7945342  48.5685808  77.5540384  73.3175342  50.7115808  77.0790384
  72.9894576  51.5920628  76.7086111  74.6965342  50.6285808  77.5450384
  74.9635811  49.5866494  77.7215720  75.6535342  51.2085808  76.5010384
  75.3662829  52.2330405  76.2642510  76.6766638  51.1962717  76.8767436
  75.6635342  50.4555808  75.2050384  76.0935342  49.1335808  75.1610384
  76.4266242  48.6545367  76.0817271  76.1025342  48.4265808  73.9700384
  76.4376988  47.3895345  73.9527060  75.6845342  49.0395808  72.7990384
  75.6890117  48.4869492  71.8595289  75.2605342  50.3575808  72.8250384
  74.9343430  50.8419212  71.9046506  75.2505342  51.0635808  74.0240384
  74.9173177  52.1012304  74.0427446  74.8805342  51.3655808  78.8680384
  74.3545342  52.4635808  79.0650384  75.6395342  50.7415808  79.7620384
  76.0140976  49.8351210  79.5209320  75.9445342  51.2855808  81.0720384
  75.0674047  51.7636882  81.5081076  76.3775342  50.1305808  81.9840384
  75.6066131  49.3613906  81.9379267  77.3090494  49.7353972  81.5788107
  76.5905342  50.5465808  83.4270384  76.2925342  51.7025808  83.8030384
  77.0595342  49.6835808  84.1970384  77.0595342  52.3235808  80.9530384
  78.1625342  51.9895808  80.5340384  76.7695342  53.5755808  81.3050384
  75.8092645  53.8303535  81.4868964  77.7925342  54.6265808  81.3690384
  78.7694316  54.1996852  81.1420342  77.4975342  55.7415808  80.3570384
  76.5389663  56.1773413  80.6387467  78.2833820  56.4880373  80.4725636
  77.4405342  55.2865808  78.9080384  78.2892159  54.6321173  78.7092478
  76.5130657  54.7373333  78.7460776  77.5005342  56.6935808  77.7820384
  77.6365342  55.8495808  76.2080384  76.7669747  55.2086506  76.0625262
  77.6843727  56.5842002  75.4042060  78.5411367  55.2415525  76.1981803
  77.8965342  55.1945808  82.7860384  78.0575342  56.4055808  82.9680384
  77.8345342  54.3045808  83.7800384  77.6904055  53.3320183  83.5488492
  77.8885342  54.6835808  85.2020384  77.1172030  55.4245145  85.4121920
  77.6555342  53.4635808  86.1040384  78.2892641  52.6479201  85.7559244
  77.9324140  53.7279875  87.1245905  76.2995342  53.0535808  86.0740384
  76.1831014  52.2910061  86.6454604  79.1875342  55.3705808  85.6280384
  79.1785342  56.1435808  86.5820384  80.2955342  55.0945808  84.9420384
  80.2949374  54.3763044  84.2319835  81.5645342  55.7565808  85.2600384
  81.7552590  55.6868693  86.3309556  82.7235342  55.0985808  84.5140384
  83.6681255  55.5771183  84.7725888  82.7786330  54.0358749  84.7500899
  82.5835342  55.2055808  82.7190384  83.7137769  54.5571752  82.4525426
  81.5375342  57.2655808  84.9740384  82.2925342  58.0235808  85.5920384
  80.6815342  57.6955808  84.0420384  80.2500418  57.0301569  83.4166388
  80.4275342  59.1275808  83.8200384  81.3526205  59.6837638  83.9716134
  79.8795342  59.4145808  82.3990384  79.0687377  58.7164031  82.1910543
  79.3595342  60.8465808  82.2860384  80.1699354  61.5453880  82.4934489
  78.9816967  61.0180001  81.2780925  78.5554226  60.9995448  83.0058339
  80.9905342  59.1825808  81.3680384  81.7060133  59.9962211  81.4871178
  81.4688255  58.2380219  81.6271630  80.5195342  59.1315808  79.9300384
  80.0415148  60.0760329  79.6700241  81.3731893  58.9641058  79.2732854
  79.8043248  58.3178346  79.8100699  79.4945342  59.6865808  84.9010384
  79.7005342  60.8035808  85.3670384  78.4775342  58.9185808  85.2910384
  78.2945033  58.0505544  84.8082038  77.5745342  59.3125808  86.3850384
  77.0059653  60.1956394  86.0934291  76.5935342  58.1835808  86.7060384
  76.1271770  57.8880389  85.7662165  77.1796049  57.3520826  87.0974870
  75.5175342  58.5595808  87.7080384  76.0025498  58.9404001  88.6068361
  74.8984979  59.3426962  87.2702869  74.6465342  57.3685808  88.0690384
  73.7315332  57.7388234  88.5314154  74.3988870  56.8328609  87.1526463
  75.3545342  56.4275808  89.0300384  76.1695422  55.9379477  88.4970075
  75.7607823  57.0153869  89.8531700  74.4245342  55.3975808  89.5680384
  74.0483153  54.8525153  88.8055014  74.9247452  54.7902522  90.2013164
  73.6694843  55.8510615  90.0623601  78.3165342  59.6915808  87.6690384
  77.9825342  60.6905808  88.3080384  79.3125342  58.8845808  88.0340384
  79.5291873  58.0812510  87.4614809  80.0485342  59.0615808  89.2920384
  79.3432305  59.2058099  90.1104783  80.9145342  57.8285808  89.6010384
  81.5962293  57.6866149  88.7624463  81.4884396  58.0386715  90.5035874
  80.0875342  56.5565808  89.8070384  78.9115342  56.6535808  90.2230384
  80.6175342  55.4535808  89.5560384  80.9085342  60.3235808  89.3290384
  81.2835342  60.7685808  90.4130384  81.2225342  60.8915808  88.1630384
  81.0789367  60.3715016  87.3092253  81.8745342  62.2055808  88.0770384
  82.3283801  62.4774219  89.0300471  82.9695342  62.2215808  86.9860384
  82.4900487  62.1845627  86.0078653  83.8245342  63.4865808  87.0870384
  84.3047424  63.5240679  88.0648399  84.5872933  63.4733250  86.3084991
  83.1914784  64.3647373  86.9598257  83.8545342  60.9835808  87.1130384
  83.2455059  60.0873080  86.9952177  84.6226169  61.0045298  86.3399215
  84.3280698  60.9739893  88.0947578  80.8665342  63.3495808  87.8590384
  81.0565342  64.4415808  88.3900384  79.8075342  63.1045808  87.0930384
  79.7464168  62.2266697  86.5974214  78.7515342  64.1065808  86.8710384
  79.2426107  64.9877896  86.4582261  77.7425342  63.5905808  85.8540384
  77.2360455  62.7134532  86.2567995  77.0085890  64.3682849  85.6428491
  78.2596658  63.3201086  84.9334304  78.0245342  64.5365808  88.1570384
  77.6495342  65.7045808  88.3020384  77.8295342  63.5925808  89.0760384
  78.0823725  62.6397114  88.8564660  77.1605342  63.8575808  90.3540384
  76.2846018  64.4972088  90.2457908  76.7505342  62.5325808  91.0550384
  76.2957240  61.8817312  90.3082835  77.9465342  61.8185808  91.6940384
  78.4016156  62.4686772  92.4412842  77.6086750  60.8985418  92.1709872
  78.6811904  61.5799623  90.9249866  75.6415342  62.7725808  92.0810384
  76.0689438  63.3453528  92.9040536  74.8621838  63.3604465  91.5961401
  75.0445342  61.4875808  92.6170384  75.8232482  60.8993536  93.1025208
  74.2637023  61.7230448  93.3401964  74.6164901  60.9144460  91.7946063
  77.9965342  64.7365808  91.2950384  77.4365342  65.4165808  92.1530384
  79.3225342  64.7305808  91.1100384  79.7057590  64.0947847  90.4252016
  80.2525342  65.5855808  91.8660384  79.8785088  65.7086470  92.8824334
  81.6665342  64.9765808  91.9320384  82.1051589  65.1575178  90.9507283
  82.1989232  65.5627485  92.6810841  81.7785342  63.4945808  92.2730384
  81.2535477  62.9419920  91.4938493  82.8371481  63.2358435  92.2508156
  81.1975342  63.1325808  93.6290384  81.5272140  63.8665894  94.3643217
  80.1095256  63.1468768  93.5647550  81.6625342  61.7455808  94.0530384
  81.5632673  61.0801585  93.1954489  82.7120884  61.8148655  94.3389314
  80.8735342  61.2065808  95.1920384  79.9010282  61.1418959  94.9271845
  81.2178745  60.2888944  95.4357214  80.9657274  61.8228069  95.9869377
  80.3915342  66.9895808  91.2680384  81.2115342  67.7655808  91.7440384
  79.6385342  67.3185808  90.2180384  79.0540124  66.6262294  89.7718510
  79.7065342  68.6515808  89.6270384  80.4727943  69.2366765  90.1355733
  80.0555342  68.5765808  88.1400384  79.3243358  67.9368052  87.6459378
  79.9999055  69.5815011  87.7215403  81.4605342  68.0095808  87.9200384
  82.0981409  68.3862346  88.7198449  81.3628999  66.9279330  88.0128001
  82.0825342  68.3485808  86.5740384  81.8795342  69.4715808  86.0570384
  82.8055342  67.4825808  86.0350384  78.3925342  69.3815808  89.8710384
  77.3285342  68.8565808  89.5420384  78.4575342  70.5765808  90.4880384
  79.6015342  71.2075808  91.1690384  80.1874477  71.7794637  90.4494861
  80.2299024  70.4394133  91.6197835  78.9445342  72.0715808  92.1860384
  79.5894867  72.9180639  92.4218385  78.7562409  71.4954857  93.0919973
  77.6735342  72.5155808  91.5680384  77.8670549  73.3869461  90.9424416
  76.8967301  72.7554997  92.2940644  77.2275342  71.3355808  90.6950384
  76.5102610  70.6850415  91.1954543  76.6295342  71.8395808  89.3900384
  77.3685342  72.1645808  88.4550384  75.3005342  71.8875808  89.3470384
  74.7780513  71.5481130  90.1419425  74.5595342  72.3965808  88.1990384
  75.1966691  72.3760079  87.3148805  73.3175342  71.5435808  87.9270384
  72.9462537  71.3192135  88.9269931  72.5912469  72.1630709  87.4008838
  73.5275342  70.2375808  87.1560384  74.0340893  70.4767853  86.2210069
  74.3575342  69.2245808  87.9390384  73.8513557  68.9845169  88.8740526
  74.4766039  68.3168455  87.3474813  75.3384102  69.6476993  88.1557259
  72.1685342  69.6555808  86.7910384  71.6234218  70.3661291  86.1696908
  72.3071712  68.7246355  86.2412913  71.6008527  69.4587898  87.7004943
  74.1375342  73.8305808  88.4780384  73.5965342  74.1175808  89.5420384
  74.3935342  74.7245808  87.5290384  74.9878588  74.4763644  86.7510498
  73.8715342  76.0815808  87.5930384  73.5840568  76.3372377  88.6128891
  74.8955342  77.1255808  87.0920384  75.1725602  76.8833271  86.0660418
  74.3025342  78.5295808  87.1400384  74.0256722  78.7727425  88.1658653
  75.0400715  79.2484609  86.7831763  73.4173620  78.5725804  86.5054340
  76.1675342  77.0645808  87.9260384  76.6072480  76.0703604  87.8467945
  76.8782064  77.8057973  87.5604667  75.9292503  77.2738410  88.9688863
  72.6075342  76.1075808  86.7460384  72.6895342  76.0075808  85.5280384
  71.4485342  76.2085808  87.3930384  71.4401717  76.1601517  88.4018417
  70.1605342  76.3235808  86.6890384  70.2724775  76.9770273  85.8238358
  69.6775342  74.9425808  86.2040384  70.5562324  74.3065793  86.0968428
  69.0213953  74.5288001  86.9697846  68.9235342  75.0065808  84.8620384
  68.1755342  75.9855808  84.6080384  69.0795342  74.0615808  84.0550384
  69.1085342  76.9745808  87.5860384  69.3565342  77.2055808  88.7710384
  67.9425342  77.2795808  87.0200384  67.7955860  77.0885846  86.0392091
  66.8665342  77.9295808  87.7690384  67.2659742  78.6322038  88.5003850
  65.8735342  78.6835808  86.8490384  65.4258096  77.9723493  86.1549262
  64.7725342  79.3515808  87.6750384  65.2194834  80.0633389  88.3691117
  64.0859527  79.8755366  87.0100748  64.2266438  78.5924585  88.2352515
  66.6015342  79.7175808  85.9940384  67.3444103  79.2177172  85.3724487
  65.8832782  80.2335887  85.3569013  67.0974917  80.4408222  86.6413782
  66.1135342  76.8805808  88.5830384  65.6065342  75.9085808  88.0260384
  66.0575342  77.0855808  89.8950384  66.5956947  77.8432263  90.2905835
  65.2785342  76.2455808  90.7980384  65.1270744  75.2403149  90.4048468
  65.9665342  76.1375808  92.1800384  66.1478602  77.1445535  92.5558391
  65.1005342  75.3715808  93.1760384  64.9191514  74.3642893  92.8011183
  65.6138417  75.3144869  94.1359114  64.1491618  75.8880507  93.3035179
  67.3365342  75.4835808  92.0350384  67.9587065  76.0853547  91.3725643
  67.8113415  75.4128087  93.0136338  67.2201583  74.4844653  91.6151267
  63.8825342  76.8485808  90.9420384  63.7415342  78.0275808  91.2540384
  62.8595342  76.0335808  90.7060384  63.0475236  75.1018487  90.3645203
  61.4675342  76.4265808  90.9170384  61.2730013  77.3958243  90.4578836
  60.5415342  75.3835808  90.2730384  60.9079225  75.2379058  89.2568506
  60.6314558  74.4500260  90.8284568  59.0745342  75.8105808  90.2290384
  58.6155342  76.6155808  91.0670384  58.3535342  75.3025808  89.3450384
  61.2465342  76.4915808  92.4350384  61.5365342  75.5165808  93.1260384
  60.7455342  77.6325808  92.9650384  60.4245342  78.9085808  92.3010384
  59.9112319  78.7125507  91.3596600  61.3436576  79.4607352  92.1049856
  59.5485342  79.5955808  93.3010384  58.5128874  79.2842842  93.1645498
  59.6216013  80.6762890  93.1792505  60.0715342  79.1745808  94.6270384
  59.3087514  79.2042445  95.4051011  60.9086216  79.8104784  94.9151677
  60.5555342  77.7305808  94.4250384  61.5392166  77.5823857  94.8705780
  59.5625342  76.7375808  95.0390384  59.6425342  76.4765808  96.2390384
  58.6545342  76.1835808  94.2360384  58.5122739  76.5620145  93.3104849
  57.7865342  75.0795808  94.6800384  57.2481437  75.3750099  95.5805696
  56.7665342  74.7225808  93.5950384  57.3073447  74.6140721  92.6549059
  56.3150078  73.7682479  93.8660968  55.6805342  75.7675808  93.4350384
  55.1012406  75.8059316  94.3575615  56.1551852  76.7338303  93.2642449
  54.7605342  75.4445808  92.2740384  55.3464863  75.4096193  91.3555958
  54.2984086  74.4726264  92.4467928  53.6775342  76.5045808  92.1440384
  52.9722148  76.3736161  92.9646926  54.1484310  77.4844196  92.2232293
  52.9515342  76.4055808  90.8440384  52.5147586  75.4978690  90.7706481
  52.2436512  77.1245370  90.7981744  53.6048494  76.5273341  90.0834764
  58.5385342  73.8075808  95.0970384  57.9705342  72.9635808  95.7890384
  59.7935342  73.6705808  94.6560384  60.1357602  74.3292184  93.9710732
  60.6655342  72.5595808  95.0480384  60.0727846  71.6598644  95.2131367
  61.6885342  72.2765808  93.9370384  62.2108198  73.2114265  93.7336163
  62.3947764  71.5439990  94.3277377  61.0695342  71.7475808  92.6440384
  60.6091598  70.7824399  92.8553662  60.3050831  72.4486067  92.3089576
  62.0885342  71.5665808  91.5250384  61.7155342  71.9725808  90.3140384
  63.1965342  71.0625808  91.7440384  63.8562473  70.9523182  90.9872542
  63.4361774  70.7637521  92.6785832  61.3875342  72.7665808  96.3870384
  62.0045342  71.8305808  96.8930384  61.3205342  73.9695808  96.9580384
  60.8885682  74.7372850  96.4639383  61.9205342  74.2365808  98.2710384
  62.9596018  73.9073151  98.2663616  61.8815342  75.7345808  98.6130384
  60.8375356  76.0025800  98.4507349  62.1321300  75.8721625  99.6648811
  62.7805342  76.6335808  97.7510384  62.6924551  76.3219808  96.7102462
  62.3735342  78.0945808  97.8790384  62.4618024  78.4070564  98.9195510
  63.0256793  78.7096287  97.2589388  61.3412312  78.2148438  97.5504238
  64.2575342  76.4565808  98.0960384  64.5488029  75.4198041  97.9276458
  64.8595435  77.1097510  97.4643307  64.4200301  76.7136653  99.1427483
  61.2265342  73.4325808  99.3700384  60.0065342  73.5055808  99.5210384
  62.0175342  72.6565808 100.1080384  62.9927141  72.5933976  99.8528296
  61.5385342  71.8415808 101.2250384  60.4521124  71.7560196 101.2466252
  62.1435342  70.4235808 101.1410384  63.2297480  70.5117598 101.1625657
  61.6815342  69.5425808 102.3000384  60.5953816  69.4535493 102.2788984
  62.1285932  68.5529831 102.2055124  61.9904556  69.9915990 103.2439938
  61.7805342  69.7945808  99.8050384  62.1771606  70.4066266  98.9949832
  62.2078079  68.7935494  99.7461065  60.6960597  69.7320541  99.7150031
  61.8585342  72.4765808 102.5860384  61.1455342  72.2315808 103.5660384
  62.9225342  73.2755808 102.6510384  63.4504959  73.4557026 101.8090693
  63.3705342  73.8965808 103.8960384  62.6766954  73.6728588 104.7063688
  64.7865342  73.4025808 104.3040384  65.0296174  73.8210079 105.2807316
  64.8505342  71.8845808 104.3730384  64.6080049  71.4654200 103.3965225
  65.8553000  71.5754892 104.6611481  64.1342279  71.5233740 105.1109649
  65.7645342  73.8765808 103.3680384  66.6344807  73.5659390 103.6293718
  63.4225342  75.4175808 103.7720384  63.2085342  75.9765808 102.7000384
  63.7235342  76.0695808 104.8910384  63.6171797  75.5940311 105.7757082
  64.1125342  77.4795808 104.9040384  63.4837852  78.0421480 104.2138993
  63.9465342  78.0735808 106.3180384  64.1471530  79.1430419 106.2539746
  62.9202635  77.9161917 106.6498473  64.8905342  77.4615808 107.3470384
  65.6185342  76.5015808 107.0750384  64.8675342  78.0115808 108.5470384
  65.4689871  77.6532736 109.2750289  64.2485930  78.7881007 108.7315090
  65.5515342  77.6325808 104.3720384  66.1425342  76.6665808 103.8750384
  66.0945342  78.8435808 104.4570384  65.5394831  79.6021193 104.8266826
  67.4565342  79.1325808 104.0180384  67.8764183  78.2920587 103.4654815
  67.4625342  80.3555808 103.1190384  67.0533044  81.2078836 103.6614504
  68.4849577  80.5772220 102.8130553  66.8536549  80.1611301 102.2361147
  68.3405342  79.3735808 105.2290384  67.8785342  79.9105808 106.2360384
  69.6075342  78.9765808 105.1210384  69.8968240  78.4675530 104.2980551
  70.5945342  79.2125808 106.1720384  70.1502772  79.8254042 106.9563740
  71.0685342  77.8985808 106.7890384  70.2245489  77.2937140 107.1205866
  71.6689176  77.3267983 106.0814336  72.1125342  78.1465808 108.2480384
  72.3182435  76.8555945 108.4928574  71.7925342  79.9795808 105.6220384
  72.3935342  79.5725808 104.6220384  72.1255342  81.0825808 106.2930384
  71.5181706  81.3912844 107.0386327  73.3145342  81.8775808 105.9940384
  73.3219626  82.1675481 104.9433420  73.3075342  83.1495808 106.8540384
  72.3850648  83.6286539 106.5259557  73.1905339  82.8016739 107.8803774
  74.4605342  84.1595808 106.7850384  75.3763551  83.6484011 107.0818016
  74.6345342  84.7425808 105.3880384  73.7192161  85.2543529 105.0907492
  75.4623545  85.4516715 105.3902058  74.8466787  83.9393574 104.6823987
  74.1915342  85.2615808 107.8010384  74.1327732  84.8291563 108.7998656
  75.0003240  85.9915921 107.7687302  73.2486889  85.7538951 107.5627776
  74.5725342  81.0635808 106.2810384  74.7015342  80.4935808 107.3600384
  75.4785342  80.9955808 105.3040384  75.2428199  81.3618704 104.3927920
  76.7645342  80.2835808 105.4620384  76.8884504  79.9729098 106.4994523
  76.8615342  79.0415808 104.5350384  77.8815823  78.6580142 104.5569247
  75.9035342  77.9595808 105.0060384  74.8831644  78.3422813 104.9839841
  75.9806268  77.0938556 104.3482562  76.1588347  77.6655819 106.0241177
  76.5555342  79.3965808 103.0800384  75.4844494  79.5868457 103.0116470
  77.1019583  80.3107593 102.8480949  76.9395342  78.3155808 102.0930384
  76.3931242  77.4011644 102.3240764  76.6918212  78.6407879 101.0826039
  78.0106334  78.1250764 102.1605260  78.0145342  81.1615808 105.2910384
  79.1075342  80.7395808 105.6620384  77.8715342  82.3675808 104.7380384
  76.9756737  82.6582983 104.3733241  79.0085342  83.2865808 104.6050384
  79.6458827  83.2242775 105.4870840  79.8415342  82.9115808 103.3700384
  80.0108032  81.8362576 103.4259600  79.2241866  83.1369464 102.5004452
  81.1765342  83.6285808 103.2430384  81.6413304  83.3179164 102.3073285
  80.9846877  84.7011801 103.2142676  82.1095342  83.3115808 104.4020384
  81.6834954  83.7327936 105.3126259  82.1797832  82.2284176 104.5016482
  83.4925342  83.8885808 104.1780384  83.9200891  83.4326878 103.2850328
  83.4014069  84.9643599 104.0280577  84.3775342  83.6245808 105.3400384
  84.4624528  82.6277858 105.4789208  85.2905672  84.0190238 105.1642954
  83.9817488  84.0473027 106.1675402  78.5435342  84.7325808 104.4930384
  77.7255342  85.0375808 103.6360384  79.0505342  85.5955808 105.3780384
  79.5873658  85.2222193 106.1477867  78.9065342  87.0525808 105.2720384
  78.1051769  87.2871083 104.5713798  78.5705342  87.6765808 106.6240384
  79.4454190  87.5256676 107.2564158  78.4331445  88.7426517 106.4431601
  77.3425342  87.1195808 107.3190384  76.4880389  87.2403292 106.6531868
  77.5172303  86.0583801 107.4963336  77.0555342  87.8155808 108.6450384
  77.1355342  89.0615808 108.7050384  76.7405342  87.1155808 109.6290384
  80.2295342  87.6545808 104.8170384  81.2735342  87.3485808 105.3910384
  80.1835342  88.5245808 103.8130384  79.3017470  88.7118129 103.3575225
  81.3735342  89.2105808 103.3240384  82.2579189  88.9222329 103.8922095
  81.6285342  88.9155808 101.8320384  80.7470120  89.2091195 101.2620799
  82.8435342  89.6845808 101.3210384  83.7255972  89.3912132 101.8902495
  83.0003821  89.4580178 100.2664444  82.6737106  90.7545777 101.4409058
  81.8185342  87.4255808 101.6180384  80.9220489  86.8947503 101.9384056
  81.9978182  87.2297772 100.5608639  82.6724280  87.0802544 102.2008901
  81.1915342  90.7075808 103.5230384  80.2905342  91.2975808 102.9340384
  82.0355342  91.2975808 104.3720384  82.6079248  90.7103453 104.9616340
  82.1625342  92.7485808 104.5060384  81.2642128  93.2327673 104.1230486
  82.3435342  93.1445808 105.9790384  81.4427420  92.8452426 106.5148269
  83.1980448  92.5910941 106.3683508  82.5765342  94.6425808 106.1720384
  82.2085342  95.4415808 105.2840384  83.1335342  95.0275808 107.2210384
  83.3775342  93.1495808 103.6740384  84.5135342  92.8795808 104.0610384
  83.1335342  93.8025808 102.5400384  82.1805494  94.0430751 102.3074835
  84.1745342  94.0265808 101.5290384  84.7967870  93.1335321 101.4710318
  83.5485342  94.3125808 100.1360384  82.9049666  95.1880550 100.2224450
  84.6165342  94.5695808  99.0780384  85.2602528  93.6943072  98.9907270
  84.1382838  94.7654096  98.1183362  85.2154436  95.4329613  99.3678330
  82.7205342  93.1015808  99.6940384  83.4306979  92.3120748  99.4481753
  82.1263165  92.7994260 100.5564230  81.8075342  93.3435808  98.5130384
  82.4011216  93.6453442  97.6500826  81.2657308  92.4273809  98.2782492
  81.0967412  94.1326975  98.7583298  85.2125342  95.0845808 101.9530384
  86.3095342  95.1205808 101.3940384  84.8925342  95.9095808 102.9540384
  83.9450497  95.9330916 103.3030651  85.8685342  96.8505808 103.5230384
  86.3887969  97.3654998 102.7153971  85.1795342  97.8995808 104.4110384
  84.6730971  97.3798579 105.2243703  85.9667638  98.5330591 104.8197864
  84.1855342  98.7525808 103.6640384  84.6095342  99.6585808 102.6970384
  85.6764506  99.7517979 102.4943081  83.7015342 100.4345808 101.9970384
  84.0477597 101.1433460 101.2447874  82.3485342 100.3055808 102.2550384
  81.4465342 101.0705808 101.5540384  81.8649043 101.6539839 100.9166947
  81.9045342  99.4165808 103.2110384  80.8389990  99.3209127 103.4198030
  82.8185342  98.6435808 103.9070384  82.4720699  97.9351870 104.6595282
  86.9735342  96.1595808 104.3240384  88.1005342  96.6535808 104.3640384
  86.6465342  95.0375808 104.9660384  85.7261438  94.6458126 104.8264012
  87.5535342  94.3695808 105.9170384  88.4938189  94.9148683 105.9984351
  86.9045342  94.2965808 107.3120384  87.5880683  93.7903367 107.9936530
  86.6045342  95.6975808 107.8400384  85.9206459  96.2043108 107.1591412
  86.1464713  95.6243220 108.8264007  87.5320297  96.2656231 107.9120150
  85.6885342  93.5415808 107.2340384  85.2838868  93.4959703 108.1033947
  88.0025342  92.9505808 105.5460384  89.0195342  92.4905808 106.0610384
  87.2515342  92.2625808 104.6820384  86.4208934  92.6932501 104.3016977
  87.5335342  90.8625808 104.3320384  87.6550390  90.2272054 105.2093263
  86.4145342  90.2605808 103.4330384  85.4517884  90.4534611 103.9063426
  86.4255342  90.8745808 102.0310384  87.3878660  90.6816975 101.5568923
  85.6305605  90.4295297 101.4326682  86.2660221  91.9503950 102.1037113
  86.5225342  88.7415808 103.3570384  86.4277760  88.3195616 104.3575497
  85.7271447  88.3515817 102.7219354  87.4900021  88.4661489 102.9372242
  88.9035342  90.6825808 103.6580384  89.3665342  91.5555808 102.9230384
  89.5335342  89.5425808 103.9250384  89.1015050  88.8962866 104.5698283
  90.8285342  89.1875808 103.3530384  91.2059226  90.0077533 102.7423059
  91.8325342  88.9095808 104.4720384  91.4044652  88.1376010 105.1114939
  92.7437055  88.5321535 104.0079096  92.1605342  90.1345808 105.3080384
  92.7357626  90.8259246 104.6922000  91.2244853  90.6068915 105.6060939
  92.9595342  89.7745808 106.5430384  92.3868919  89.0644644 107.1396240
  93.8986243  89.3151161 106.2346531  93.2505342  91.0125808 107.3720384
  93.9252490  91.6556757 106.8069813  92.3120374  91.5378947 107.5491491
  93.8765342  90.6615808 108.6770384  94.7463947  90.1751838 108.5131466
  94.0564031  91.5055131 109.2019435  93.2513080  90.0660250 109.2009702
  90.6865342  87.9605808 102.4680384  89.6725342  87.2625808 102.5140384
  91.7165342  87.7035808 101.6690384  92.4967088  88.3447978 101.6526775
  91.7275342  86.5735808 100.7390384  90.8547787  86.5847516 100.0861432
  93.0065342  86.5825808  99.8580384  93.8693243  86.7223515 100.5093115
  93.1665342  85.2825808  99.0740384  92.3042815  85.1423449  98.4221527
  94.0732690  85.3305932  98.4710232  93.2364603  84.4452242  99.7683337
  92.9775342  87.7655808  98.8990384  92.9304547  88.6941183  99.4679880
  93.8796632  87.7602542  98.2872912  92.1016989  87.6901529  98.2545821
  91.5805342  85.2455808 101.4990384  90.8095342  84.3765808 101.0850384
  92.2975342  85.1095808 102.6140384  92.9828869  85.8131766 102.8492916
  92.2365342  83.8905808 103.4390384  92.3827895  83.0190564 102.8009523
  93.3215342  83.8865808 104.5350384  93.2134149  82.9379567 105.0608918
  94.2772686  83.9041793 104.0112425  93.2715342  85.0355808 105.5420384
  92.2706936  85.4661596 105.5100903  93.4485925  84.6017006 106.5261611
  94.3025342  86.1265808 105.2750384  94.4915342  86.5005808 104.0870384
  94.9135342  86.6175808 106.2560384  90.8525342  83.5775808 104.0500384
  90.5725342  82.4225808 104.3630384  90.0035342  84.5995808 104.2030384
  90.3308947  85.5358058 104.0122057  88.6185342  84.4265808 104.6770384
  88.6117106  83.7745537 105.5504875  87.9935342  85.7775808 105.0670384
  87.9569836  86.3893273 104.1656343  86.9792267  85.5880360 105.4182548
  88.7765342  86.5135808 106.1490384  89.3375342  85.8555808 107.0540384
  88.8225342  87.7625808 106.0940384  87.7075342  83.7605808 103.6410384
  86.6455342  83.2485808 103.9860384  88.1165342  83.7895808 102.3760384
  88.9663166  84.2856401 102.1482351  87.3405342  83.2075808 101.2840384
  86.2745248  83.3034142 101.4902882  87.6525342  83.9355808  99.9760384
  88.6715017  83.6241451  99.7462290  86.9773483  83.5656851  99.2044160
  87.5845342  85.4705808 100.0230384  88.2970202  85.8357189 100.7627266
  87.9225342  86.0575808  98.6610384  87.2101497  85.6932376  97.9208620
  87.8701157  87.1451998  98.7104130  88.9298829  85.7555285  98.3744838
  86.2185342  85.9505808 100.4880384  86.0181201  85.5646944 101.4875509
  86.2038993  87.0402590 100.5101378  85.4530867  85.5913259  99.8001976
  87.5765342  81.6975808 101.1440384  86.8685342  81.0345808 100.3910384
  88.5705342  81.1625808 101.8550384  89.2719912  81.7738636 102.2479644
  88.7055342  79.7225808 102.0720384  88.1092565  79.1809547 101.3377407
  90.1745342  79.2635808 101.9500384  90.7784935  79.8560071 102.6373262
  90.3305342  77.7835808 102.2830384  89.7271854  77.1904484 101.5958239
  91.3777868  77.4972601 102.1861798  89.9982884  77.6036926 103.3054637
  90.6355342  79.4915808 100.6120384  91.5489851  79.2063997 100.5353597
  88.1595342  79.4535808 103.4730384  88.7175342  79.9385808 104.4600384
  87.0615342  78.7015808 103.5600384  86.7033576  78.2314480 102.7410243
  86.3285342  78.5545808 104.8230384  87.0284479  78.4893683 105.6560855
  85.4135342  79.7705808 105.0440384  84.9697569  79.7433279 106.0392360
  85.9908296  80.6879929 104.9292120  84.2715342  79.8545808 104.0650384
  84.4635342  80.3985808 102.8010384  85.4511210  80.7701030 102.5276456
  83.4165342  80.4725808 101.8900384  83.5808825  80.9079113 100.9043520
  82.1605342  79.9915808 102.2360384  81.3382884  80.0457462 101.5225415
  81.9535342  79.4415808 103.4920384  80.9697531  79.0613718 103.7672038
  83.0035342  79.3755808 104.4010384  82.8422548  78.9460202 105.3897581
  85.4725342  77.2995808 104.8810384  85.2005342  76.6675808 103.8670384
  85.0385342  76.9775808 106.0920384  85.4465242  77.4482802 106.8870765
  84.0395342  75.9455808 106.3380384  83.5638363  75.6764921 105.3949573
  84.6725342  74.6815808 106.9480384  85.2212953  74.9657256 107.8459378
  83.6085342  73.6505808 107.3080384  83.0596258  73.3655846 106.4104993
  84.0860044  72.7693480 107.7364660  82.9182319  74.0786977 108.0348803
  85.5695342  74.0995808 105.9950384  85.9673186  73.3105947 106.3703635
  82.9805342  76.5365808 107.2640384  83.3125342  77.2345808 108.2170384
  81.7155342  76.2735808 106.9560384  81.5183505  75.6899543 106.1556647
  80.5915342  76.8005808 107.7210384  80.9522396  77.2465481 108.6479170
  79.8525342  77.8735808 106.9170384  79.8075009  77.5615106 105.8736385
  78.8407185  77.9721231 107.3102539  80.5165342  79.1185808 107.0080384
  80.0368922  79.7750964 106.4976164  79.6245342  75.6795808 108.0590384
  79.3515342  74.8315808 107.2120384  79.0875342  75.6795808 109.2930384
  79.3825342  76.5775808 110.4280384  79.2358242  77.6108896 110.1136353
  80.4184115  76.4356791 110.7361314  78.4055342  76.1525808 111.4890384
  77.5790261  76.8626127 111.5179883  78.9097615  76.1431493 112.4553547
  77.9355342  74.7825808 111.1190384  76.9010924  74.7118625 111.4552348
  78.5051076  73.9435934 111.5187709  77.9875342  74.7675808 109.5920384
  78.1992440  73.7890988 109.1609349  76.6965342  75.3145808 108.9980384
  76.6175342  76.5085808 108.7240384  75.7075342  74.4555808 108.7830384
  75.8938967  73.4630246 108.7688709  74.3625342  74.9135808 108.4360384
  74.2032800  75.9061603 108.8573734  74.1585342  74.9875808 106.9120384
  73.1789221  75.3983476 106.6676412  74.9350660  75.6264685 106.4914186
  74.2595342  73.6615808 106.2020384  73.1395342  72.8465808 106.0540384
  72.1858055  73.1753607 106.4668399  73.2265342  71.6295808 105.3910384
  72.3450041  70.9956807 105.2952471  74.4375342  71.2205808 104.8500384
  74.5105638  70.2688265 104.3237966  75.5565342  72.0275808 104.9810384
  76.5097472  71.7099484 104.5584335  75.4635342  73.2415808 105.6510384
  76.3426672  73.8783607 105.7497115  73.2795342  74.0665808 109.1030384
  73.4975342  72.8905808 109.4080384  72.1275342  74.6945808 109.3410384
  72.0624540  75.6714105 109.0927086  70.9565342  74.0505808 109.9330384
  71.0690897  72.9675926 109.8823720  70.7955342  74.4575808 111.4000384
  70.5323523  75.5134718 111.4627179  70.0110313  73.8599515 111.8642521
  72.2675342  74.2445808 112.4340384  71.7140799  74.6919211 113.5576367
  69.7325342  74.5015808 109.1410384  69.4795342  75.7035808 109.0370384
  68.9905342  73.5435808 108.5810384  69.2600593  72.5799521 108.7184260
  67.8045342  73.8265808 107.7500384  67.6283709  74.9012348 107.7033013
  68.0265342  73.3045808 106.3270384  68.1149409  72.2276118 106.4699413
  67.1292100  73.5212131 105.7474009  69.2575342  73.8225808 105.5750384
  70.1300212  73.7336530 106.2223089  69.4865342  73.0195808 104.3020384
  68.6145974  73.1084066 103.6540145  70.3649268  73.4031198 103.7829767
  69.6442665  71.9714789 104.5564069  69.1365342  75.3035808 105.2460384
  69.0344444  75.8742022 106.1691138  70.0289280  75.6320397 104.7132632
  68.2594464  75.4667018 104.6197737  66.5575342  73.1735808 108.3370384
  66.5255342  71.9515808 108.5280384  65.5375342  73.9865808 108.6200384
  65.6510641  74.9833946 108.5035371  64.2625342  73.4895808 109.1360384
  64.4384076  72.6007198 109.7419212  63.5675342  74.5405808 110.0010384
  64.3053203  74.9377644 110.6981870  63.2241340  75.3384807 109.3426070
  62.3845342  73.9805808 110.7790384  61.6323054  73.6231994 110.0758094
  62.7454223  73.1456552 111.3796724  61.7405342  74.9995808 111.7020384
  61.5375342  76.1555808 111.3300384  61.4015342  74.5665808 112.9080384
  60.9691904  75.1997577 113.5655087  61.5771210  73.6054540 113.1639797
  63.3405342  73.0835808 107.9940384  63.0815342  73.8715808 107.0890384
  62.8345342  71.8575808 108.0700384  63.1054974  71.2741638 108.8486929
  61.9285342  71.2985808 107.0670384  62.2034409  71.5672331 106.0470622
  61.8935342  69.7505808 107.1800384  61.6810082  69.4853103 108.2156848
  60.8295342  69.1465808 106.2730384  61.0416604  69.4110524 105.2371049
  60.8343736  68.0617368 106.3788239  59.8499909  69.5340643 106.5531330
  63.2665342  69.1505808 106.8740384  63.9987259  69.5371300 107.5829651
  63.2165426  68.0651023 106.9596938  63.5643259  69.4212585 105.8610456
  60.5175342  71.8695808 107.2560384  59.9435342  71.7305808 108.3350384
  59.9575342  72.4915808 106.2150384  60.5004667  72.6613448 105.3804703
  58.6005342  73.0755808 106.3000384  58.3397105  73.2402393 107.3454846
  58.5305342  74.4195808 105.5590384  57.6916926  74.9622684 105.9948528
  59.4593561  74.9412640 105.7897689  58.3545342  74.3415808 104.0500384
  59.0202562  73.5711581 103.6609833  57.3210529  74.0713048 103.8333143
  58.6805342  75.6775808 103.3870384  57.9135593  76.3979123 103.6715924
  59.6496262  76.0153361 103.7543006  58.7265342  75.5585808 101.8710384
  59.5386636  74.8826934 101.6032273  57.7793954  75.1409326 101.5295752
  58.9485342  76.8855808 101.2210384  59.8263304  77.2725597 101.5369829
  58.9734401  76.7692068 100.2180744  58.1958818  77.5118909 101.4687257
  57.4585342  72.1445808 105.8470384  56.2915342  72.4345808 106.1180384
  57.7815342  71.0415808 105.1700384  58.7464046  70.8583965 104.9343096
  56.7605342  70.0925808 104.7100384  55.9516315  70.0350407 105.4383684
  56.1785342  70.5495808 103.3660384  55.1977203  70.0844865 103.2670910
  56.0630768  71.6321725 103.4186195  57.0355342  70.1885808 102.1590384
  58.0783757  70.3715846 102.4180600  56.8944715  69.1282889 101.9493136
  56.6725342  70.9945808 100.9380384  55.6341166  70.8036441 100.6672413
  56.8037823  72.0563882 101.1464571  57.5245342  70.6305808  99.8100384
  57.9969569  69.7402008  99.8743791  57.7155342  71.3755808  98.7190384
  57.1095342  72.5585808  98.5720384  56.4944062  72.9008805  99.2962956
  57.2697419  73.1043471  97.7374294  58.5285342  70.9355808  97.7600384
  58.9927458  70.0447576  97.8651182  58.6770538  71.4947915  96.9321954
  57.3235342  68.6785808 104.5690384  58.5325342  68.4985808 104.4240384
  56.4305342  67.6885808 104.5760384  55.4656055  67.8899723 104.7961594
  56.8025342  66.3025808 104.2930384  57.6453316  66.0182031 104.9230551
  55.6385342  65.3455808 104.5710384  54.7691594  65.6761703 104.0027100
  55.9316792  64.3495958 104.2391046  55.2595342  65.2755808 106.0420384
  55.7625342  66.0305808 106.8680384  54.3565342  64.3645808 106.3700384
  54.0647375  64.2708251 107.3324127  53.9636414  63.7675826 105.6563653
  57.2195342  66.1885808 102.8230384  56.4625342  66.5725808 101.9250384
  58.4365342  65.6975808 102.5880384  59.0400437  65.4556191 103.3609098
  58.9515342  65.5395808 101.2330384  58.2215388  65.0067781 100.6236722
  59.2255342  66.9155808 100.5850384  58.7081375  67.6725223 101.1744783
  60.2999220  67.0944275 100.6275204  58.7545342  66.9905808  99.1350384
  58.6855342  65.9345808  98.4680384  58.4515342  68.1085808  98.6650384
  60.2275342  64.7065808 101.2170384  60.7575342  64.3455808 102.2690384
  60.6945342  64.3945808 100.0120384  60.1007895  64.5325718  99.2067279
  62.0255342  63.8405808  99.8020384  62.3905592  63.3977017 100.7287067
  61.9935342  62.7575808  98.7220384  61.7713523  63.2357703  97.7680629
  62.9908636  62.3193617  98.6846448  60.9805342  61.6765808  98.9890384
  61.2785342  60.6115808  99.8350384  62.2641330  60.5658150 100.2982878
  60.3445342  59.6185808 100.0920384  60.5866976  58.7866838 100.7534053
  59.0955342  59.6905808  99.4990384  58.1705342  58.7135808  99.7490384
  58.4943644  58.0340487 100.3448319  58.7735342  60.7395808  98.6580384
  57.7894269  60.7946172  98.1926308  59.7125342  61.7245808  98.4090384
  59.4673333  62.5570867  97.7495610  62.9715342  64.9675808  99.3830384
  62.5815342  65.8485808  98.6110384  64.2035342  64.9375808  99.8940384
  64.4362498  64.2270407 100.5730639  65.2175342  65.9455808  99.5670384
  64.8227732  66.7116816  98.8996911  65.7635342  66.6315808 100.8370384
  65.9879737  65.8604125 101.5739412  67.0245342  67.4385808 100.5460384
  66.8007566  68.2102992  99.8095093  67.3776874  67.9058676 101.4652915
  67.7976652  66.7771492 100.1550416  64.6885342  67.5235808 101.4450384
  63.8199943  66.9194854 101.7073537  65.0794885  68.0052976 102.3412545
  64.3958886  68.2850692 100.7221312  66.3455342  65.3045808  98.7610384
  66.9585342  64.3305808  99.2030384  66.6065342  65.8725808  97.5840384
  66.0814196  66.6954653  97.3247799  67.5805342  65.3405808  96.6280384
  67.9675605  64.3805572  96.9696004  66.8955342  65.1385808  95.2880384
  66.5053909  66.0781299  94.8967140  67.6095239  64.7189758  94.5793421
  65.7455342  64.1905808  95.3470384  64.4535342  64.6035808  95.5870384
  63.6515342  63.5555808  95.5870384  62.5800555  63.6758316  95.7469508
  64.3805342  62.4735808  95.3730384  64.0374134  61.5247390  95.3275717
  65.6945342  62.8445808  95.2200384  66.4564845  62.0875987  95.0342668
  68.8225342  66.1985808  96.4080384  69.8115342  65.7095808  95.8590384
  68.7765342  67.4675808  96.8110384  67.9514542  67.8286576  97.2681661
  69.8825342  68.3795808  96.5630384  70.8155412  67.8411655  96.7294900
  69.8445342  68.8485808  95.1230384  68.9200737  69.3973997  94.9433981
  70.6966952  69.5002422  94.9300117  69.8894526  67.9860295  94.4581423
  69.8685342  69.5805808  97.4870384  68.8125342  70.0005808  97.9710384
  71.0605342  70.1165808  97.7300384  71.8893821  69.6103930  97.4527579
  71.2255342  71.4085808  98.3730384  70.3476288  71.6234033  98.9823270
  72.4625342  71.4305808  99.2730384  73.2625239  71.1100016  98.6056969
  72.6166930  72.4736408  99.5493733  72.4715342  70.5635808 100.5320384
  72.4429324  69.5100909 100.2537546  73.7425342  70.8455808 101.3180384
  73.7716250  71.8988524 101.5970929  73.7574960  70.2311929 102.2182631
  74.6107538  70.6091056 100.7029168  71.2545342  70.8115808 101.4110384
  70.3481143  70.5833794 100.8503009  71.3062401  70.1727591 102.2927042
  71.2362022  71.8565131 101.7206824  71.3865342  72.4475808  97.2760384
  71.9845342  72.1685808  96.2360384  70.8615342  73.6425808  97.5250384
  70.3718746  73.7806258  98.3975499  70.9325342  74.7545808  96.5910384
  71.5234429  74.4946987  95.7127518  69.5295342  75.1835808  96.1300384
  68.9304076  75.4187819  97.0097127  69.5985342  76.4055808  95.2210384
  70.1971575  76.1709886  94.3408579  68.5918145  76.6857355  94.9109914
  70.0560352  77.2349368  95.7604483  68.8545342  74.0235808  95.4080384
  68.7698750  73.1734810  96.0849913  67.8601046  74.3276045  95.0812679
  69.4501562  73.7388025  94.5407226  71.6395342  75.9125808  97.2820384
  71.3315342  76.2245808  98.4310384  72.5935342  76.5265808  96.5790384
  72.8553139  76.1457184  95.6809768  73.3035342  77.7075808  97.0640384
  73.0261784  77.9156863  98.0974140  74.8055342  77.4895808  96.9990384
  75.0998482  77.2890528  95.9688599  75.3185957  78.3827201  97.3556478
  75.0774015  76.6403282  97.6259016  72.9145342  78.9205808  96.2310384
  72.7555342  78.8225808  95.0140384  72.7545342  80.0565808  96.8990384
  72.7577573  80.0340399  97.9087814  72.5075342  81.3395808  96.2330384
  73.0512598  81.3742357  95.2889723  71.0105342  81.5215808  95.9440384
  70.9033678  82.4100946  95.3218183  70.7083597  80.6419848  95.3756182
  70.1335342  81.6555808  97.1690384  69.9235342  82.8935808  97.7650384
  70.4057838  83.7705412  97.3332105  69.1185342  83.0265808  98.8880384
  68.9686819  84.0028044  99.3491604  68.5005342  81.9085808  99.4190384
  67.7025342  82.0415808 100.5270384  67.6475505  82.9463264 100.8432847
  68.6875342  80.6675808  98.8430384  68.2051299  79.7858754  99.2649176
  69.4955342  80.5465808  97.7200384  69.6392481  79.5715187  97.2545275
  73.0475342  82.4785808  97.1010384  73.3715342  82.2655808  98.2700384
  73.1335342  83.6805808  96.5390384  72.8615531  83.8106355  95.5750823
  73.6865342  84.8245808  97.2640384  73.6929266  84.6120657  98.3331014
  75.1275342  85.1145808  96.8120384  75.5505194  85.9249925  97.4056844
  75.7410477  84.2211762  96.9283549  75.2425342  85.5305808  95.3730384
  75.1555342  86.8685808  95.0170384  75.0057428  87.6171131  95.7950884
  75.2565342  87.2575808  93.6930384  75.1777071  88.3113960  93.4259048
  75.4575342  86.3085808  92.7090384  75.5459461  86.6136677  91.6663471
  75.5465342  84.9705808  93.0480384  75.7006706  84.2195831  92.2732193
  75.4395342  84.5855808  94.3740384  75.5098050  83.5315995  94.6428978
  72.8445342  86.0755808  97.1140384  72.1055342  86.2295808  96.1390384
  72.9655342  86.9575808  98.1020384  73.4680355  86.6799152  98.9329979
  72.3885342  88.2955808  98.0580384  71.7920619  88.4043843  97.1522339
  71.4875342  88.5495808  99.2710384  72.0890504  88.4575985 100.1753707
  71.0916394  89.5626633  99.2001077  70.3205342  87.5765808  99.3620384
  70.1465342  86.6965808  98.5100384  69.5105342  87.7295808 100.4040384
  68.7182750  87.1137115 100.5186251  69.6907757  88.4610532 101.0767656
  73.5205342  89.3195808  98.0270384  74.6245342  89.0565808  98.5130384
  73.2275342  90.4825808  97.4490384  72.3077830  90.5895281  97.0456537
  74.1645342  91.6015808  97.3460384  75.0727938  91.4337987  97.9248413
  74.5335342  91.8275808  95.8640384  73.6138155  91.7887497  95.2803348
  75.2255342  93.1595808  95.6300384  76.1456394  93.1989725  96.2130954
  75.4620792  93.2656746  94.5713169  74.5661036  93.9711687  95.9375696
  75.4145342  90.6805808  95.3580384  74.8924126  89.7553850  95.6019699
  75.4751061  90.7883104  94.2750680  76.8125342  90.6395808  95.9400384
  76.7527770  90.5313894  97.0230082  77.3566995  89.7934963  95.5203667
  77.3354699  91.5643164  95.6961080  73.4865342  92.8345808  97.9400384
  72.2895342  93.0365808  97.7190384  74.2525342  93.6445808  98.6750384
  75.2216782  93.3980510  98.8167509  73.7375342  94.8525808  99.3340384
  72.7951818  95.1517212  98.8751419  73.4935342  94.5845808 100.8250384
  74.4301204  94.2052651 101.2337255  73.2606055  95.5457551 101.2832830
  72.3725342  93.5955808 101.1220384  71.4515177  93.9849548 100.6881982
  72.6340057  92.6560254 100.6352453  72.1695342  93.3555808 102.6120384
  71.5755342  94.2265808 103.2810384  72.5915342  92.2925808 103.1170384
  74.6995342  96.0375808  99.1630384  75.9175342  95.8845808  99.3100384
  74.1375342  97.2075808  98.8500384  73.1417621  97.2252272  98.6820330
  74.8795342  98.4615808  98.7470384  75.9503086  98.2601346  98.7160398
  74.4835342  99.2025808  97.4660384  73.4147982  99.4161951  97.4495615
  75.0412479 100.1378577  97.4179480  74.7925342  98.4505808  96.1970384
  73.9815342  97.3955808  95.7750384  73.1195621  97.1124433  96.3791387
  74.2615342  96.7105808  94.6030384  73.6255428  95.8815586  94.2926549
  75.3515342  97.0795808  93.8240384  75.5716302  96.5443027  92.9003853
  76.1605342  98.1325808  94.2250384  77.0181268  98.4255391  93.6193895
  75.8755342  98.8145808  95.4020384  76.5042921  99.6482112  95.7148063
  74.4955342  99.2795808  99.9810384  73.5655342 100.0815808  99.9380384
  75.2085342  99.0555808 101.0840384  76.0136946  98.4479169 101.0334337
  74.8205342  99.5955808 102.4030384  73.7489151  99.4734542 102.5605717
  75.5725342  98.8955808 103.5580384  75.2587503  99.3446743 104.5003520
  75.2745342  97.3985808 103.5840384  75.5884932  96.9486814 102.6421679
  75.8175224  96.9337399 104.4069515  74.2045086  97.2429309 103.7215845
  76.9825342  99.1025808 103.4150384  77.4446148  98.6660725 104.1344427
  75.0065342 101.1145808 102.5630384  74.4225342 101.7085808 103.4730384
  75.8145342 101.7315808 101.6980384  76.3442589 101.1868381 101.0326464
  75.9895342 103.1935808 101.7000384  76.2043338 103.5292801 102.7145660
  77.1495342 103.6245808 100.7830384  76.8408651 103.3544166  99.7731701
  77.2027108 104.7099609 100.8680226  78.5235342 103.0235808 101.0730384
  78.4781305 101.9607059 100.8356857  79.2447063 103.5113056 100.4171897
  78.9545342 103.2015808 102.5220384  80.0433768 103.1856109 102.5696393
  78.5897130 104.1636177 102.8818853  78.4325342 102.1485808 103.3900384
  77.9967305 101.3617808 102.9305601  78.4955342 102.1525808 104.7210384
  79.0615342 103.1615808 105.3820384  79.4517077 103.9404129 104.8708778
  79.0978034 103.1429579 106.3912150  77.9785342 101.1325808 105.3990384
  77.5448997 100.3677471 104.9019563  78.0217649 101.1271826 106.4080977
  74.7255342 103.9285808 101.2480384  74.5075342 105.0695808 101.6420384
  73.9075342 103.2775808 100.4190384  74.1505909 102.3425699 100.1244583
  72.7105342 103.8975808  99.8450384  72.9794858 104.8240688  99.3377080
  72.0585342 102.9535808  98.8280384  71.7818887 102.0125455  99.3034531
  71.1718509 103.4147222  98.3930197  73.1315342 102.5165808  97.4360384
  72.2496085 101.7336349  96.8211393  71.6765342 104.3355808 100.8920384
  71.5395342 103.7205808 101.9480384  70.9585342 105.4075808 100.5650384
  71.1382294 105.8424535  99.6713412  69.9735342 106.0275808 101.4530384
  70.4141870 106.2259101 102.4300695  69.5105342 107.3575808 100.8450384
  70.3649201 108.0317827 100.7852408  69.0966304 107.2070974  99.8479735
  68.4605342 108.0665808 101.6420384  68.5685342 108.2835808 103.0010384
  67.5035342 108.9425808 103.4250384  67.3973523 109.2070099 104.4771323
  66.7125342 109.1665808 102.3910384  65.8267140 109.6512331 102.4141576
  67.2895342 108.6305808 101.2630384  66.7859598 108.7160928 100.3001253
  68.7865342 105.0925808 101.7070384  68.4135342 104.8555808 102.8590384
  68.1985342 104.5865808 100.6250384  68.4257759 104.9711530  99.7191881
  67.2265342 103.4905808 100.6910384  66.6497052 103.5780751 101.6117513
  66.2555342 103.5185808  99.4980384  66.8524523 103.7868125  98.6263505
  65.8843308 102.5000867  99.3841182  65.0785342 104.4765808  99.6210384
  64.6335578 104.3667250 100.6099917  65.4379831 105.4980268  99.4963522
  64.0275342 104.1725808  98.5530384  64.4774702 104.3604049  97.5781647
  63.7640198 103.1180092  98.6338990  62.7705342 105.0235808  98.7050384
  61.9838073 104.5762190  98.0975610  62.4741521 105.0046738  99.7537993
  62.9875342 106.4335808  98.2760384  63.2617587 106.4513509  97.3041408
  62.1317581 106.9568635  98.3940313  63.7162009 106.8484326  98.8391032
  67.9715342 102.1585808 100.6820384  69.1345342 102.0835808 100.2670384
  67.2825342 101.1115808 101.1320384  66.3911455 101.2660952 101.5810938
  67.7775342  99.7375808 101.0260384  68.7519928  99.6541654 101.5072573
  66.8065342  98.7735808 101.7160384  66.7405498  99.1008421 102.7536536
  65.8417022  98.9149027 101.2289785  67.1875342  97.2925808 101.6720384
  67.5463879  97.0538331 100.6708769  67.9839220  97.1151745 102.3948078
  65.9915342  96.4085808 102.0070384  66.2715121  95.3615806 101.8908405
  65.6846800  96.5899203 103.0371141  64.8535342  96.6935808 101.1190384
  65.0962332  97.0065611 100.1899314  63.5565342  96.5765808 101.4360384
  62.6345342  96.8875808 100.5260384  62.9197960  97.2067151  99.6112275
  61.6545227  96.8027948 100.7551416  63.1565342  96.1585808 102.6410384
  63.8425959  95.9205071 103.3429931  62.1700639  96.0827246 102.8440674
  67.9215342  99.3925808  99.5410384  66.9615342  99.5035808  98.7800384
  69.1285342  98.9935808  99.1480384  69.8434207  98.8523242  99.8473833
  69.4755342  98.7685808  97.7490384  68.5725249  98.6578872  97.1486883
  70.2965342  99.9525808  97.1920384  71.2277790 100.0219831  97.7542366
  70.6085342  99.7685808  95.7170384  69.6777114  99.6995582  95.1540958
  71.1870715 100.6199773  95.3585447  71.1850474  98.8539673  95.5784191
  69.5585342 101.1695808  97.3660384  70.0687103 101.9054518  97.0198960
  70.2835342  97.4835808  97.6360384  71.2805342  97.3085808  98.3330384
  69.8525342  96.5925808  96.7520384  69.0649530  96.8130021  96.1593922
  70.4845342  95.2885808  96.6040384  71.4246940  95.4183261  96.0679741
  70.6855728  94.8865565  97.5970436  69.6165342  94.3125808  95.8450384
  68.5475342  94.6725808  95.3540384  70.0875342  93.0775808  95.7290384
  71.0446739  92.8725274  95.9779080  69.2875342  92.0165808  95.1160384
  68.2469369  92.1317470  95.4193422  69.3605342  92.0645808  93.5700384
  68.6327472  91.3950298  93.1116425  69.1539618  93.0898806  93.2631375
  70.7065342  91.7025808  92.9890384  71.0765342  90.3695808  92.8120384
  70.3834898  89.5830369  93.1105983  72.3105342  90.0375808  92.2630384
  72.5920449  88.9911192  92.1456900  73.1825342  91.0385808  91.8650384
  74.1517986  90.7851371  91.4356286  72.8175342  92.3655808  92.0150384
  73.4994123  93.1549551  91.6987622  71.5835342  92.6925808  92.5680384
  71.2942747  93.7379913  92.6754889  69.6445342  90.6345808  95.6440384
  70.7355342  90.4135808  96.1640384  68.6935342  89.7185808  95.4950384
  67.8064722  90.0099514  95.1099106  68.8575342  88.3205808  95.8710384
  69.8144142  88.1741496  96.3720752  67.7355342  87.9125808  96.8300384
  67.8216537  88.5126729  97.7358928  66.7794307  88.1176968  96.3484853
  67.8095342  86.5405808  97.1650384  67.0941529  86.3187945  97.7655716
  68.8155342  87.4585808  94.6170384  68.0995342  87.7795808  93.6670384
  69.5825342  86.3705808  94.6220384  70.2558846  86.2517235  95.3653900
  69.5255342  85.3545808  93.5670384  68.9704501  85.7326747  92.7085364
  70.9445342  84.9555808  93.1010384  70.8572977  84.1913516  92.3287407
  71.6905342  86.1525808  92.5450384  71.7785769  86.9170991  93.3169580
  72.6856932  85.8443272  92.2245116  71.1444418  86.5581432  91.6933326
  71.6825342  84.4085808  94.1990384  72.5620795  84.1631415  93.9027952
  68.7745342  84.0975808  94.0310384  68.9885342  83.0215808  93.4850384
  67.8735342  84.2325808  95.0050384  67.6935708  85.1381771  95.4144377
  67.1555342  83.0725808  95.5410384  67.8626537  82.2631415  95.7223925
  66.4475342  83.4105808  96.8610384  66.3370940  82.4938787  97.4403133
  67.0650486  84.1176321  97.4149829  65.1725342  83.9785808  96.6300384
  64.7545041  84.1791058  97.4706574  66.1255342  82.5475808  94.5350384
  65.6805342  83.2965808  93.6560384  65.7305342  81.2665808  94.6680384
  66.3535342  80.2245808  95.5080384  66.0906434  80.3961305  96.5518580
  67.4367597  80.2682042  95.3948189  65.7745342  78.9535808  94.9710384
  65.7096362  78.2083499  95.7638299  66.3986292  78.5708301  94.1635059
  64.4305342  79.3285808  94.4690384  63.7077819  79.3805919  95.2833006
  64.0675506  78.6410347  93.7050862  64.6345342  80.7195808  93.8650384
  64.9845102  80.6776447  92.8336042  63.3315342  81.5355808  93.9310384
  62.6115342  81.6235808  92.9310384  63.0465342  82.1255808  95.0920384
  63.6296307  81.9353984  95.8944900  61.8505342  82.9635808  95.2810384
  61.0134194  82.5520942  94.7171087  61.4695342  83.0055808  96.7590384
  62.3575633  83.2708019  97.3327643  60.7080408  83.7738344  96.8932550
  60.9335342  81.6725808  97.2450384  59.9867672  81.4999098  96.7332594
  61.6440893  80.8946284  96.9657522  60.7115342  81.6385808  98.7390384
  61.7015342  81.4335808  99.4800384  59.5425342  81.8035808  99.1680384
  61.9625342  84.3875808  94.7280384  60.9525342  85.0705808  94.5950384
  63.1805342  84.8325808  94.4220384  63.9778224  84.2441372  94.6173971
  63.4185342  86.1485808  93.8250384  62.6856525  86.8667809  94.1926960
  64.8115342  86.6385808  94.2010384  65.5531665  86.0290306  93.6847736
  64.9172629  87.6782993  93.8913501  65.0105342  86.5405808  95.5960384
  65.8912909  86.8525828  95.8163160  63.3025342  86.0845808  92.3000384
  63.4055342  84.9975808  91.7280384  63.1025342  87.2445808  91.6300384
  62.7915342  88.5675808  92.2120384  63.6984430  88.9933973  92.6413366
  62.0412073  88.4488459  92.9937100  62.2805342  89.3585808  91.0440384
  62.5260208  90.4124027  91.1755477  61.1993183  89.2449773  90.9655036
  62.9625342  88.7865808  89.8520384  63.9584982  89.2127528  89.7314889
  62.3891740  88.9399578  88.9377993  63.0705342  87.2855808  90.1570384
  62.1912342  86.7229496  89.8433892  64.3155342  86.7075808  89.4760384
  65.3675342  86.5705808  90.1050384  64.1915342  86.3995808  88.1870384
  63.2985587  86.5130443  87.7289773  65.2965342  85.8315808  87.4190384
  65.5858374  84.8753665  87.8549938  64.8995342  85.6025808  85.9530384
  64.0521368  84.9172666  85.9720475  64.5885111  86.5521433  85.5174977
  66.0195342  85.0015808  85.1130384  66.2765342  83.6305808  85.1390384
  65.6550630  82.9904516  85.7652234  67.3045342  83.0775808  84.3840384
  67.4827135  82.0024022  84.4026137  68.1005342  83.8995808  83.5980384
  69.1185342  83.3445808  82.8590384  69.1826627  82.3925460  82.9644753
  67.8785342  85.2675808  83.5630384  68.5049781  85.9143705  82.9487651
  66.8465342  85.8135808  84.3200384  66.6688483  86.8888812  84.3040108
  66.5685342  86.6845808  87.4600384  66.5235342  87.9155808  87.4950384
  67.6935342  85.9825808  87.4240384  67.6131484  84.9758170  87.4320518
  69.0195342  86.5655808  87.4170384  69.0306538  87.5212732  86.8929892
  69.4685342  86.7995808  88.8860384  68.8704933  86.1526149  89.5278191
  70.8915342  86.5095808  89.0900384  71.4902682  87.1565287  88.4488867
  71.1536141  86.6890893  90.1327224  71.0898877  85.4672710  88.8403450
  69.2345342  88.1565808  89.2760384  69.5176421  88.2817081  90.1847702
  69.9135342  85.5635808  86.6550384  69.7235342  84.3455808  86.7850384
  70.8875342  86.0525808  85.8880384  71.0191954  87.0502036  85.8013591
  71.7065342  85.1645808  85.0460384  71.0596747  84.4606049  84.5225024
  72.4985342  85.9655808  84.0090384  72.7704568  85.3168982  83.1763511
  71.9023019  86.7998189  83.6393713  73.7705342  86.5475808  84.5300384
  73.7995342  87.6385808  85.3690384  72.9824645  88.1335737  85.6968779
  75.0535342  87.9255808  85.6690384  75.2909163  88.7611254  86.3275321
  75.8355342  87.0605808  85.0520384  76.8444571  87.0386308  85.0931819
  75.0575342  86.1845808  84.3370384  75.5247913  85.3860348  83.7607603
  72.6395342  84.2255808  85.8360384  73.1145342  83.2315808  85.2880384
  72.9235342  84.5685808  87.0920384  72.7229464  85.5130684  87.3883609
  73.5585342  83.6535808  88.0570384  74.4832002  83.2603428  87.6345979
  73.8885342  84.3825808  89.3650384  73.0542887  85.0005508  89.6970727
  74.1364569  83.6597153  90.1422771  75.0505342  85.2775808  89.2360384
  76.3515342  84.8975808  89.1340384  76.5548613  83.8268953  89.1538005
  77.1545342  85.9955808  89.0240384  78.1604134  85.9830344  88.9337649
  76.3735342  87.1175808  89.0490384  76.7295342  88.4555808  88.9650384
  77.7854892  88.7035783  88.8575445  75.7215342  89.3905808  89.0230384
  75.9648213  90.4515461  88.9659068  74.3775342  89.0065808  89.1550384
  73.5779967  89.7460130  89.2006368  74.0315342  87.6725808  89.2310384
  72.9759974  87.4260114  89.3456956  75.0395342  86.7025808  89.1760384
  72.7225342  82.4285808  88.4020384  73.2835342  81.3855808  88.7300384
  71.3965342  82.5755808  88.3680384  71.0250890  83.5011033  88.2082391
  70.4555342  81.4905808  88.6670384  69.4373711  81.8797360  88.6681492
  70.5535342  80.3725808  87.6140384  71.4873832  79.8381756  87.7884988
  69.7134359  79.6966664  87.7736457  70.5245342  80.8855808  86.1900384
  69.5685716  81.3869412  86.0387969  71.3339422  81.6076362  86.0823502
  70.6875342  79.7855808  85.1570384  71.6300812  79.2640736  85.3235751
  69.8619885  79.0789018  85.2417642  70.6875342  80.4005808  83.7650384
  69.6893103  80.7900926  83.5652132  71.4056001  81.2205734  83.7554042
  71.0505342  79.4145808  82.7210384  70.3850328  78.6548862  82.7295109
  71.0384303  79.8627083  81.8159775  71.9756503  79.0538440  82.9057768
  70.6945342  80.9995808  90.1010384  70.8365342  81.8265808  91.0060384
  70.7095342  79.6805808  90.3130384  70.3718303  79.0671642  89.5851816
  71.1625342  79.0835808  91.5670384  71.6940383  79.8303240  92.1569343
  69.9775342  78.5685808  92.3840384  69.4350756  77.8731717  91.7435354
  70.3950387  78.0287613  93.2339707  69.0215342  79.6485808  92.8870384
  68.5109781  79.2713221  93.7731022  69.6221621  80.5172841  93.1566728
  67.9735342  80.0785808  91.8670384  67.4255342  79.2545808  91.1400384
  67.6845342  81.3755808  91.8220384  66.9969877  81.7141049  91.1641762
  68.1538698  82.0163552  92.4459243  72.1235342  77.9445808  91.2540384
  72.2225342  77.5135808  90.1050384  72.8355342  77.4765808  92.2770384
  72.7459625  77.9253889  93.1773981  73.7755342  76.3685808  92.1470384
  73.8463134  76.0736102  91.1000991  75.1745342  76.7685808  92.6400384
  75.1155699  77.0100540  93.7013179  76.1715342  75.6365808  92.4320384
  76.2313906  75.3948460  91.3708687  77.1535412  75.9463475  92.7895382
  75.8443582  74.7570852  92.9866048  75.6185342  77.9175808  91.9070384
  76.4927989  78.1726426  92.2106913  73.2515342  75.1765808  92.9380384
  72.9795342  75.2995808  94.1240384  73.1395342  74.0325808  92.2650384
  73.5383103  74.0015411  91.3376153  72.4905342  72.8285808  92.7810384
  71.9915115  72.9947732  93.7357402  71.4475342  72.2995808  91.7620384
  71.9569500  72.0961338  90.8201233  70.7735342  71.0215808  92.2630384
  70.2634838  71.2243663  93.2047536  70.0489147  70.6788100  91.5244348
  71.5271121  70.2493423  92.4175370  70.4135342  73.3745808  91.4600384
  70.9100402  74.2491375  91.0396406  69.6875798  72.9901333  90.7435958
  69.9013375  73.6555284  92.3802687  73.5445342  71.7495808  93.0120384
  74.2505342  71.3775808  92.0810384  73.6385342  71.2535808  94.2480384
  73.0463272  71.6406047  94.9688731  74.5525342  70.1695808  94.6090384
  75.2595542  69.9990829  93.7971564  75.3355342  70.5225808  95.8720384
  74.6646767  70.7032155  96.7119315  76.0015221  69.6935740  96.1114292
  76.1985342  71.7425808  95.7420384  75.6515342  73.0175808  95.8760384
  74.5828343  73.1208611  96.0639572  76.4495342  74.1465808  95.7730384
  76.0089143  75.1384851  95.8734411  77.8095342  74.0125808  95.5420384
  78.4394989  74.8980298  95.4570415  78.3685342  72.7495808  95.4190384
  79.4390299  72.6412635  95.2446635  77.5645342  71.6235808  95.5180384
  78.0029964  70.6304931  95.4199174  73.7435342  68.9025808  94.8710384
  73.0255342  68.8195808  95.8710384  73.8605342  67.9175808  93.9800384
  74.3950537  68.0597845  93.1349548  73.1665342  66.6395808  94.1560384
  72.1727817  66.8254114  94.5634964  73.0185342  65.8825808  92.8260384
  73.9807722  65.9277085  92.3159788  72.7807406  64.8451049  93.0609809
  71.9465342  66.4535808  91.9290384  70.6135342  66.4775808  92.3390384
  70.3593124  66.0695335  93.3172859  69.6225342  67.0055808  91.5310384
  68.5853803  67.0230138  91.8658662  69.9575342  67.5145808  90.2860384
  68.9765342  68.0345808  89.4850384  68.1048261  67.9939465  89.8851302
  71.2715342  67.5005808  89.8510384  71.5355671  67.9036598  88.8733296
  72.2565342  66.9675808  90.6710384  73.2930596  66.9460577  90.3345090
  73.8675342  65.7515808  95.1770384  75.0955342  65.6995808  95.2400384
  73.0625342  65.0555808  95.9690384  72.0675263  65.2181483  95.9087855
  73.5415342  64.0465808  96.9020384  74.5561037  64.2820027  97.2234798
  72.6365342  64.0125808  98.1300384  71.6561675  63.6861173  97.7830487
  73.0528949  63.2608757  98.8006227  72.4975342  65.3315808  98.8720384
  73.2445565  65.3478098  99.6656348  72.7022859  66.1350964  98.1645489
  70.8575342  65.5785808  99.5940384  70.6965342  64.1235808 100.6190384
  71.4958990  64.1101814 101.3599401  69.7319202  64.1407871 101.1263099
  70.7634434  63.2310444  99.9969426  73.4785342  62.6965808  96.1980384
  72.6545342  62.5095808  95.3010384  74.3375342  61.7625808  96.6050384
  75.0665450  62.0075024  97.2597567  74.3055342  60.3905808  96.0790384
  74.3898556  60.4121284  94.9925188  75.4685342  59.5635808  96.6450384
  76.3870732  60.0004998  96.2532641  75.4433053  59.6827456  97.7282112
  75.4225342  58.0755808  96.2950384  74.7373876  57.5963110  96.9943062
  75.0328893  57.9791698  95.2816377  76.7845342  57.4045808  96.3800384
  77.5545342  57.5045808  95.3970384  77.0845342  56.7725808  97.4220384
  72.9645342  59.7205808  96.3910384  72.2905342  59.2145808  95.4960384
  72.5985342  59.7345808  97.6690384  73.2572688  60.0835162  98.3505164
  71.3185342  59.2175808  98.1450384  70.8664231  58.5728967  97.3913294
  71.5435342  58.3955808  99.4230384  72.0180995  59.0485092 100.1555488
  70.5719574  58.0746172  99.7986989  72.4245342  57.1745808  99.1850384
  72.1375342  56.4105808  98.2370384  73.3985342  56.9705808  99.9470384
  70.3725342  60.4045808  98.3730384  70.6825342  61.5195808  97.9590384
  69.2205342  60.1635808  98.9960384  69.0010274  59.2159962  99.2680669
  68.2345342  61.2115808  99.2720384  68.6855772  62.1920022  99.1189588
  67.0295342  61.0755808  98.3360384  66.3476361  61.8941920  98.5662339
  67.4052127  61.1913067  97.3193904  66.2925342  59.7555808  98.4550384
  66.6885342  58.6435808  97.7130384  67.5383747  58.7405575  97.0374156
  66.0225342  57.4285808  97.8220384  66.3466495  56.5669029  97.2384613
  64.9405342  57.3175808  98.6770384  64.2745342  56.1195808  98.7820384
  64.6441684  55.4344315  98.2203083  64.5265342  58.4055808  99.4280384
  63.6768819  58.3161561 100.1049391  65.2005342  59.6155808  99.3150384
  64.8793159  60.4753400  99.9030290  67.7835342  61.1295808 100.7210384
  67.9515342  60.0945808 101.3680384  67.2215342  62.2265808 101.2200384
  67.2130243  63.0716706 100.6670013  66.6105342  62.2605808 102.5450384
  66.9738475  61.4188722 103.1346394  66.9565342  63.5555808 103.2780384
  66.4158524  64.3036964 102.6983097  66.5262266  63.4903768 104.2773801
  68.4235342  63.9565808 103.3820384  68.8554627  63.9895170 102.3818115
  68.5525342  65.3245808 104.0350384  68.1212093  65.2923059 105.0355463
  69.6056048  65.5976806 104.1025636  68.0233439  66.0652869 103.4355283
  69.2255342  62.9145808 104.1460384  69.1629506  61.9567337 103.6295971
  70.2678452  63.2281846 104.2038458  68.8214610  62.8109034 105.1530512
  65.1005342  62.1695808 102.4150384  64.5345342  62.6425808 101.4340384
  64.4645342  61.5645808 103.4140384  65.0136606  61.0623301 104.0969029
  63.0135342  61.5875808 103.5740384  62.5533717  62.0704380 102.7119488
  62.4375342  60.1645808 103.7070384  62.7686316  59.7398861 104.6547247
  60.9095342  60.1865808 103.6650384  60.5776644  60.6107478 102.7173864
  60.5282378  59.1699523 103.7608441  60.5316749  60.7947531 104.4868956
  62.9295342  59.3525808 102.6370384  62.5718113  58.4654076 102.7180219
  62.7395342  62.3885808 104.8430384  63.1355342  61.9795808 105.9270384
  62.0705342  63.5285808 104.7040384  61.7005379  63.7876696 103.8006697
  61.9175342  64.4725808 105.8140384  62.3136967  64.0635587 106.7434766
  62.6175342  65.8225808 105.5300384  62.4098003  66.5103692 106.3497292
  64.1205342  65.6235808 105.4040384  64.3290886  64.9362213 104.5841951
  64.5990245  66.5823554 105.2042917  64.5118807  65.2093823 106.3332258
  62.0735342  66.5015808 104.2780384  61.0076164  66.6928720 104.4018482
  62.5955480  67.4453020 104.1199514  62.2279601  65.8526941 103.4159481
  60.4555342  64.7125808 106.1500384  59.5855342  64.5575808 105.2940384
  60.2085342  65.0785808 107.4070384  60.9714831  65.0605177 108.0686139
  58.8865342  65.4765808 107.8850384  58.1746169  65.4438929 107.0602934
  58.3995342  64.5375808 108.9880384  59.1579283  64.5344880 109.7709356
  57.4722567  64.9528145 109.3828008  58.1555342  63.1145808 108.5140384
  57.6027526  63.1624586 107.5758268  59.1246395  62.6467264 108.3406909
  57.3685342  62.2915808 109.5250384  57.5277359  61.2366323 109.3017952
  57.7555616  62.5144460 110.5193423  55.8815342  62.5995808 109.4800384
  55.7328378  63.6410469 109.7652371  55.5251881  62.4479968 108.4611474
  55.1215342  61.7185808 110.4070384  55.4512847  61.8592028 111.3512787
  54.1385233  61.9449298 110.3564853  55.2588415  60.7535107 110.1426796
  58.9385342  66.9015808 108.4110384  59.9925342  67.3695808 108.8550384
  57.7915342  67.5775808 108.3640384  56.9791378  67.1156469 107.9809869
  57.6515342  68.9615808 108.8230384  58.2067493  69.6440619 108.1795674
  56.1695342  69.3885808 108.8320384  55.6676526  68.8826177 109.6567907
  56.0275342  70.9035808 109.0010384  56.5288060  71.4102512 108.1763498
  54.9711030  71.1719963 109.0033532  56.4814546  71.2086408 109.9439038
  55.5445342  68.9755808 107.6110384  54.6222175  69.2418289 107.6176844
  58.2135342  69.1465808 110.2320384  57.9355342  68.3435808 111.1190384
  59.0245342  70.1865808 110.4150384  59.2387559  70.7849916 109.6301098
  59.6245342  70.5035808 111.7150384  59.7195099  71.5887098 111.7547090
  58.9129678  70.1737450 112.4719934  60.9815342  69.8765808 112.0040384
  61.6575342  70.2885808 112.9420384  61.3915342  68.8905808 111.2090384
  60.7760652  68.5387392 110.4896604  62.6855342  68.2385808 111.3930384
  62.8929553  68.1237259 112.4569388  62.6855342  66.8545808 110.7430384
  62.4708475  66.9816320 109.6819697  63.6809018  66.4268907 110.8631408
  61.6555342  65.9215808 111.3600384  61.8215243  65.9012190 112.4371333
  60.6769264  66.3541201 111.1518663  61.7095342  64.5085808 110.8140384
  61.3925342  63.5735808 111.5770384  62.0485342  64.3165808 109.6290384
  63.7995342  69.1185808 110.8360384  63.5345342  70.1045808 110.1420384
  65.0405342  68.7535808 111.1440384  65.1988615  67.8440349 111.5536212
  66.1855342  69.6405808 110.9650384  65.9091356  70.5049041 110.3611773
  66.6565342  70.1345808 112.3440384  65.7551351  70.3083690 112.9317258
  67.2250505  69.3158890 112.7852107  67.5105342  71.4005808 112.3360384
  67.9385809  71.5197972 113.3313596  68.3096688  71.2233570 111.6162642
  66.7555342  72.6655808 111.9540384  65.5295342  72.7605808 112.1970384
  67.4075342  73.5865808 111.4190384  67.3215342  68.9345808 110.2190384
  67.8355342  67.9205808 110.6890384  67.6925342  69.4655808 109.0510384
  67.1747254  70.2469799 108.6750215  68.8215342  68.9445808 108.2780384
  68.9912623  67.8985454 108.5331886  68.6175342  69.0755808 106.7520384
  68.5606989  70.1318857 106.4891885  69.7845342  68.4255808 106.0030384
  69.8417258  67.3690844 106.2650409  69.6280452  68.5250603 104.9289268
  70.7156102  68.9193091 106.2812991  67.2855342  68.4425808 106.3150384
  67.3994851  67.3628036 106.4109404  66.5236526  68.7903868 107.0126535
  66.8655342  68.7825808 104.8970384  67.6267579  68.4346456 104.1987695
  65.9168042  68.2954383 104.6718655  66.7509277  69.8622298 104.8004822
  70.0585342  69.7255808 108.6900384  70.0705342  70.9505808 108.6160384
  71.0835342  69.0055808 109.1350384  70.9876657  68.0010677 109.1781889
  72.3425342  69.5985808 109.5670384  72.2348829  70.6811427 109.6346410
  72.7495342  69.0615808 110.9390384  72.7357113  67.9723810 110.8996419
  73.7466966  69.4019087 111.2182231  71.8305342  69.4625808 112.0560384
  71.8305342  70.7675808 112.5350384  72.4966952  71.5016423 112.0817360
  70.9935342  71.1405808 113.5800384  70.9969886  72.1696335 113.9393979
  70.1535342  70.2035808 114.1660384  69.4944245  70.4940570 114.9841447
  70.1545342  68.8955808 113.7080384  69.5009848  68.1556587 114.1700867
  70.9885342  68.5275808 112.6600384  70.9903293  67.4986000 112.3004618
  73.4485342  69.2745808 108.5760384  73.3595342  68.3115808 107.8120384
  74.5045342  70.0755808 108.6130384  74.5006239  70.8971775 109.2004589
  75.6885342  69.8025808 107.8200384  76.1157167  68.8647465 108.1751174
  75.3731280  69.6879502 106.7829858  76.7425342  70.8835808 107.8970384
  76.5625342  71.8915808 108.5800384  77.8555342  70.6455808 107.2100384
  77.9975579  69.7245261 106.8206968  78.8915342  71.6525808 107.0010384
  78.5378700  72.6254653 107.3423837  80.2035342  71.3145808 107.7460384
  80.9288549  72.1046682 107.5516881  79.9675342  71.1995808 109.2500384
  79.2426203  70.4093241 109.4452147  80.9070829  70.9612850 109.7485989
  79.5841678  72.1459139 109.6315935  80.7435342  70.0825808 107.2500384
  81.5574129  69.8790675 107.7167119  79.1885342  71.7535808 105.5120384
  79.0865342  70.7635808 104.7900384  79.5605342  72.9495808 105.0650384
  79.4937171  73.7473101 105.6808815  79.9485342  73.1775808 103.6780384
  80.1901862  72.2320173 103.1926383  78.8575342  73.9145808 102.8590384
  77.9816090  73.2679538 102.8067988  78.4655342  75.2525808 103.4810384
  79.3409074  75.8999622 103.5331901  77.6988768  75.7276675 102.8689685
  78.0765488  75.0867535 104.4856731  79.3245342  74.1245808 101.4160384
  80.0414848  74.9455889 101.4213609  79.8235799  73.2091617 101.0981375
  78.1985342  74.4445808 100.4560384  77.6992762  75.3601932 100.7730481
  78.6030843  74.5805089  99.4530618  77.4813697  73.6237664 100.4498265
  81.2885342  73.9075808 103.6570384  81.4325342  74.9665808 104.2670384
  82.2645342  73.3065808 102.9750384  82.0629257  72.4174252 102.5404630
  83.6045342  73.8625808 102.8230384  83.7318273  74.6908358 103.5200959
  84.3417675  73.0894958 103.0396629  83.8205342  74.3675808 101.4140384
  83.2345342  73.8425808 100.4680384  84.6835342  75.3705808 101.2790384
  85.2126438  75.6742770 102.0839676  84.8935342  76.0655808 100.0080384
  84.6590225  75.4167460  99.1641682  83.9605342  77.2705808  99.9700384
  83.1222693  77.0308576 100.6242127  84.5207092  78.1062335 100.3895484
  83.4395342  77.6495808  98.6020384  84.1710668  78.2693662  98.0835532
  83.2444164  76.7515108  98.0159485  81.9055342  78.5775808  98.7930384
  81.7395342  79.1705808  97.1190384  81.6740194  78.3225166  96.4374271
  80.8359622  79.7743764  97.0348418  82.6070367  79.7777482  96.8604105
  86.3495342  76.5255808  99.8750384  86.8905342  77.1265808 100.7970384
  86.9765342  76.2135808  98.7390384  86.4525464  75.7361804  98.0195768
  88.3745342  76.5745808  98.4600384  88.6781728  77.3908914  99.1154312
  89.3115342  75.3775808  98.6990384  88.9468087  74.5731159  98.0603595
  90.2987249  75.6911219  98.3595584  89.4025342  74.8845808 100.1300384
  90.0408483  75.5761923 100.6798834  88.3980099  74.9038466 100.5527225
  89.9725342  73.4715808 100.2370384  90.8890737  73.4225818  99.6491153
  90.2013549  73.2689071 101.2833003  89.0435342  72.4395808  99.7490384
  89.2812648  72.0310864  98.8564490  87.9345342  72.0125808 100.3740384
  87.1885342  71.0625808  99.8050384  87.4633873  70.6751242  98.9137286
  86.3527931  70.7357720 100.2685386  87.5485342  72.5145808 101.5520384
  88.0990118  73.2365068 101.9946414  86.7083199  72.1694642 101.9936640
  88.5235342  76.9565808  96.9960384  87.7575342  76.4735808  96.1650384
  89.5305342  77.7925808  96.6660384  90.3535342  78.6615808  97.5290384
  90.7289058  78.0793712  98.3706015  89.7402450  79.4825047  97.9006017
  91.4495342  79.1325808  96.6200384  92.3228519  78.4924356  96.7450567
  91.7130840  80.1594148  96.8735237  90.9105342  79.0495808  95.2420384
  91.7625966  78.8342622  94.5972697  90.3856728  79.9287095  94.8682031
  89.9645342  77.8505808  95.2700384  89.0940642  77.9489264  94.6214181
  90.7155342  76.5735808  94.9200384  91.4055342  76.0235808  95.7790384
  90.5695342  76.1035808  93.6820384  89.9273188  76.5585128  93.0490332
  91.2635342  74.8955808  93.2200384  91.1030961  74.0837072  93.9294185
  90.7295342  74.4595808  91.8450384  89.6417416  74.4427764  91.9122987
  91.0350234  75.1796640  91.0859227  91.2125342  73.0775808  91.4270384
  92.1115342  73.0355808  90.4530384  90.7615342  72.0625808  91.9520384
  91.0958148  71.1553916  91.6598672  90.0587169  72.1403571  92.6732176
  92.7765342  75.1605808  93.1790384  93.2065342  76.2595808  92.8240384
  93.5665342  74.1635808  93.5770384  93.1463955  73.2913658  93.8648296
  95.0255342  74.3055808  93.6910384  95.2164470  75.2093507  94.2697019
  95.6195342  73.1155808  94.4360384  95.4443331  72.2041649  93.8644391
  96.6919460  73.2639866  94.5625649  95.1476434  73.0265179  95.4145506
  95.7135342  74.4735808  92.3310384  96.6725342  75.2395808  92.2080384
  95.2335342  73.7415808  91.3270384  94.5183654  73.0547116  91.5189854
  95.7635342  73.8305808  89.9630384  96.8471772  73.9450213  89.9898794
  95.4245342  72.5525808  89.1840384  95.6084765  71.7104086  89.8511295
  94.3632735  72.5965094  88.9393020  96.2315342  72.3735808  87.9080384
  95.9938131  73.1959586  87.2332909  97.2905164  72.4086824  88.1638247
  95.9185342  71.0495808  87.2240384  96.3852205  70.2474566  87.7957899
  94.8374151  70.9107815  87.2200887  96.4395342  71.0215808  85.7910384
  96.0929391  71.9220855  85.2840239  97.5290413  71.0201893  85.8237744
  95.9635342  69.8195808  85.0490384  94.9540056  69.8209047  85.0182177
  96.3291405  69.8383960  84.1077212  96.2849504  68.9850475  85.5184475
  95.2675342  75.0725808  89.2010384  95.9695342  75.5785808  88.3190384
  94.0695342  75.5505808  89.5420384  93.5421031  75.0676534  90.2552683
  93.4605342  76.7175808  88.8980384  94.2373641  77.3881779  88.5307047
  92.5965342  76.2745808  87.7140384  93.1970919  75.6407898  87.0615519
  91.7535520  75.7018174  88.1005912  92.0565342  77.4455808  86.8950384
  92.2055342  78.6185808  87.2590384  91.4245342  77.1255808  85.7710384
  91.0439112  77.8542447  85.1842891  91.3276228  76.1551262  85.5084991
  92.6225342  77.5005808  89.9140384  91.4985342  77.1135808  90.2270384
  93.1625342  78.6215808  90.3930384  94.0755479  78.9076928  90.0695492
  92.5195342  79.4115808  91.4540384  92.3175211  78.7729645  92.3139565
  93.4285342  80.5695808  91.9040384  93.7263588  81.1335203  91.0200859
  92.8667550  81.2183540  92.5760484  94.6865342  80.0925808  92.6250384
  94.7455342  78.9725808  93.1490384  95.7045342  80.9535808  92.6610384
  96.5642199  80.6953355  93.1240176  95.6110673  81.8598751  92.2251540
  91.1345342  79.9635808  91.0980384  90.3665342  80.2965808  91.9980384
  90.8135342  80.0545808  89.8060384  91.5105735  79.8526666  89.1035669
  89.5015342  80.5505808  89.3640384  89.1865414  81.3734897  90.0056766
  89.5665342  81.0545808  87.9170384  89.6792996  80.1822136  87.2733314
  88.6175844  81.5451328  87.7003521  90.7165342  82.0315808  87.6580384
  90.8301982  82.6465804  88.5507627  91.6198420  81.4404805  87.5072484
  90.4895342  82.9315808  86.4460384  91.3488254  82.8481096  85.7806436
  89.5926575  82.5981792  85.9239705  90.3195342  84.3405808  86.8200384
  89.3710718  84.6286729  87.0137425  91.2975342  85.2505808  86.9220384
  92.5735342  84.9435808  86.6810384  92.8212761  84.0017284  86.4133856
  93.2857771  85.6544640  86.7673793  90.9955342  86.4975808  87.2730384
  90.0349457  86.7479562  87.4592692  91.7282040  87.1883090  87.3517035
  88.3795342  79.5105808  89.5330384  87.2075342  79.8795808  89.6260384
  88.7405342  78.2265808  89.5850384  89.6941230  77.9745783  89.3676390
  87.7845342  77.1475808  89.8860384  86.7995566  77.4062139  89.4974162
  88.2385342  75.8365808  89.2360384  89.2483357  75.6302759  89.5907758
  87.5687348  75.0425127  89.5660758  88.2385342  75.9005808  87.7130384
  87.5675342  76.7785808  87.1240384  88.9145342  75.0495808  87.1000384
  87.5955342  76.9455808  91.3890384  88.4315342  77.3705808  92.1810384
  86.4915342  76.2955808  91.7650384  85.8607666  75.9600013  91.0511631
  86.1375342  76.0635808  93.1730384  86.9019363  76.4917812  93.8214466
  84.7955342  76.7175808  93.5020384  84.1301093  76.2835191  92.7557815
  84.5162014  76.3556973  94.4915401  84.6775342  78.2385808  93.4650384
  85.0003704  78.6043483  92.4903119  83.2305342  78.6425808  93.7040384
  82.9071071  78.2775383  94.6788398  83.1469710  79.7290487  93.6774791
  82.5992378  78.2110419  92.9272891  85.5915342  78.8725808  94.4990384
  86.6246479  78.5942997  94.2908671  85.4922575  79.9572041  94.4561698
  85.3146178  78.5219135  95.4932460  86.0385342  74.5765808  93.5230384
  85.4275342  73.7985808  92.7880384  86.6345342  74.2045808  94.6540384
  87.2817091  74.8421282  95.0953968  86.4165342  72.8955808  95.2750384
  85.9501753  72.2209827  94.5570370  87.7435342  72.2855808  95.7280384
  88.2360276  73.0058394  96.3813202  87.5171903  71.3803178  96.2913921
  88.6645342  71.9425808  94.5660384  88.2205342  71.9845808  93.3990384
  89.8475342  71.6285808  94.8260384  85.4775342  73.0515808  96.4690384
  85.5875342  74.0105808  97.2310384  84.5485342  72.1105808  96.6130384
  84.4899043  71.3727604  95.9258099  83.6195342  72.0805808  97.7450384
  83.8501826  72.8996323  98.4262543  82.1755342  72.2285808  97.2760384
  81.8774290  71.4211525  96.6072394  81.5446298  72.2151401  98.1647898
  81.8785342  73.5125808  96.5580384  82.1475342  73.6485808  95.2050384
  82.6057904  72.8200592  94.6649892  81.8395342  74.8235808  94.5390384
  82.0645013  74.9241775  93.4772612  81.2455342  75.8705808  95.2230384
  81.0049400  76.7971978  94.7018905  80.9575342  75.7395808  96.5690384
  80.4860781  76.5597132  97.1105290  81.2685342  74.5665808  97.2270384
  81.0356233  74.4576313  98.2862751  83.7085342  70.7545808  98.4850384
  84.0505342  69.7295808  97.8960384  83.3845342  70.7855808  99.7740384
  83.3424451  71.6753758 100.2500559  83.0915342  69.5765808 100.5390384
  82.9417026  68.7392940  99.8574222  84.2215342  69.2205808 101.5110384
  84.3336030  70.0302821 102.2320964  83.9115342  67.9205808 102.2500384
  83.7997796  67.1102696 101.5296174  84.7273022  67.6876638 102.9344151
  82.9859438  68.0346232 102.8142877  85.4485342  69.0755808 100.7870384
  86.1555365  68.8525999 101.3969791  81.8135342  69.8235808 101.3220384
  81.7265342  70.8025808 102.0540384  80.8245342  68.9505808 101.1530384
  80.9280599  68.2180581 100.4654394  79.5675342  69.0345808 101.8910384
  79.6107364  69.8580788 102.6038383  78.3625342  69.2325808 100.9500384
  78.3204076  68.3970050 100.2513690  77.0605342  69.2975808 101.7440384
  77.1017290  70.1332544 102.4426465  76.2236943  69.4376145 101.0597941
  76.9250935  68.3683573 102.2974810  78.5495342  70.5165808 100.1310384
  78.6049279  71.3379812 100.8454148  79.5039235  70.4211036  99.6132308
  77.4545342  70.7975808  99.1230384  76.4998473  70.8936531  99.6401872
  77.6757680  71.7248237  98.5944787  77.3988415  69.9767737  98.4080041
  79.3965342  67.7595808 102.7160384  79.3305342  66.6635808 102.1580384
  79.3575342  67.9225808 104.0400384  79.5782360  68.8331686 104.4171589
  78.9795342  66.8605808 104.9700384  79.1222207  65.8923083 104.4902590
  79.8285342  66.9055808 106.2430384  79.7708056  67.9186490 106.6411080
  79.3881288  66.2095817 106.9569910  81.2825342  66.5365808 106.0080384
  81.7515342  66.5675808 104.8520384  81.9675342  66.2095808 106.9990384
  77.5325342  67.0965808 105.3500384  77.1995342  68.1865808 105.7960384
  76.6765342  66.0925808 105.1570384  76.9859770  65.2717523 104.6564537
  75.2865342  66.1365808 105.6310384  75.0532978  67.1472724 105.9660047
  74.3005342  65.7475808 104.5260384  74.8131151  64.9455713 103.9948691
  73.4122764  65.3485828 105.0158330  73.8895342  66.8345808 103.5330384
  74.7680264  67.4205833 103.2629394  73.2935342  66.2095808 102.2820384
  72.4146664  65.6237563 102.5512961  73.0056022  66.9958880 101.5842442
  74.0323727  65.5603113 101.8122861  72.8955342  67.7985808 104.1530384
  73.3460031  68.2760386 105.0232173  72.6225798  68.5598056 103.4221937
  72.0028606  67.2534731 104.4597800  75.1245342  65.1815808 106.7990384
  75.7435342  64.1185808 106.8310384  74.2885342  65.5735808 107.7540384
  73.9121398  66.5103489 107.7241723  73.9215342  64.7155808 108.8770384
  74.0543941  63.6685403 108.6047268  74.8105342  65.0235808 110.0900384
  75.8393888  65.1017081 109.7386789  74.4908318  65.9845370 110.4930937
  74.7255342  63.9605808 111.1820384  74.2355342  62.8315808 110.9240384
  75.1645342  64.2645808 112.3200384  72.4455342  64.9525808 109.1890384
  72.0365342  66.0835808 109.4500384  71.6455342  63.8895808 109.1200384
  72.0337013  62.9932961 108.8629403  70.2055342  63.9815808 109.3450384
  69.9767285  64.8742170 109.9272306  69.4645342  64.0665808 108.0070384
  69.7515132  64.9861695 107.4970395  69.6954068  63.2118647 107.3712253
  67.9715342  64.1035808 108.1510384  67.3405342  65.2415808 108.6410384
  67.9421798  66.1105031 108.9076777  65.9625342  65.2795808 108.7920384
  65.4764495  66.1783068 109.1716616  65.2025342  64.1685808 108.4580384
  64.1195945  64.1930168 108.5794649  65.8195342  63.0275808 107.9700384
  65.2227751  62.1562117 107.7004188  67.1975342  62.9955808 107.8250384
  67.6855226  62.0951473 107.4519610  69.6885342  62.7965808 110.1620384
  69.9615342  61.6405808 109.8300384  68.9565342  63.1085808 111.2340384
  68.9100755  64.0785727 111.5116291  68.2065342  62.1255808 112.0180384
  68.3459415  61.1364328 111.5818606  68.6765342  62.0885808 113.4750384
  68.5560328  63.0972074 113.8703244  68.0082090  61.4092776 114.0041779
  70.1135342  61.6375808 113.6690384  70.7046733  62.0366093 112.8447620
  70.4726810  62.0563648 114.6091106  70.2505342  60.1205808 113.7040384
  69.8708165  59.7563992 114.6586510  69.6589546  59.6965214 112.8926774
  71.7115342  59.6995808 113.5430384  72.2906521  60.2264730 114.3013970
  71.7661054  58.6263549 113.7255413  72.2695342  60.0035808 112.1900384
  72.2194559  60.9980582 112.0209038  73.2328387  59.7029733 112.1478529
  71.7333165  59.5151070 111.4872134  66.7435342  62.5385808 111.9830384
  66.3765342  63.5935808 112.5040384  65.9165342  61.7095808 111.3580384
  66.2819038  60.8685827 110.9345686  64.4895342  61.9675808 111.2580384
  64.2357864  62.8114697 111.8995699  64.2446687  62.2112414 110.2242252
  63.6815342  60.7665808 111.6840384  64.2245342  59.7205808 112.0380384
  62.3685342  60.9385808 111.6290384  62.0131613  61.8452007 111.3609904
  61.4115342  59.8975808 111.9790384  61.6744557  59.4455257 112.9353949
  60.0115342  60.5155808 112.0970384  60.1542454  61.5405650 112.4392958
  59.5919050  60.5240809 111.0910866  59.0605342  59.7975808 113.0350384
  58.6071557  58.9643844 112.4980723  59.6154769  59.4174855 113.8927495
  57.9545342  60.7105808 113.5380384  56.7795342  60.5155808 113.2200384
  58.3285342  61.7225808 114.3200384  57.6340638  62.3602282 114.6822787
  59.3047723  61.8473643 114.5469517  61.4315342  58.7835808 110.9240384
  61.4095342  57.6005808 111.2620384  61.5025342  59.1845808 109.6540384
  61.5708566  60.1755452 109.4712246  61.4415342  58.2715808 108.5130384
  61.0360109  57.3070731 108.8186117  60.5275342  58.8685808 107.4380384
  61.0685201  59.7625505 107.1277941  60.4677605  58.1721315 106.6016859
  59.1115342  59.2565808 107.8820384  59.1796059  59.8399794 108.8002503
  58.4115342  60.0785808 106.8100384  58.3426706  59.4956321 105.8916009
  57.4094342  60.3409958 107.1492059  58.9802965  60.9888439 106.6202205
  58.2945342  58.0185808 108.2430384  58.7830419  57.4853456 109.0585873
  57.2946226  58.3206314 108.5545564  58.2217603  57.3645594 107.3740971
  62.8025342  57.9515808 107.8790384  62.8715342  57.1005808 107.0010384
  63.8755342  58.6155808 108.3050384  63.8097405  59.2528390 109.0858537
  65.1635342  58.4865808 107.6210384  65.3384103  57.4498939 107.3332920
  65.1545342  59.3495808 106.3580384  64.4823010  58.9107414 105.6207313
  64.8149048  60.3553357 106.6054429  66.7475342  59.5485808 105.5280384
  66.2963839  60.3225413 104.5450091  66.3505342  58.8695808 108.4940384
  66.2495342  59.7445808 109.3610384  67.4785342  58.2125808 108.2260384
  67.4573634  57.5112051 107.4995928  68.7335342  58.4275808 108.9460384
  68.7436231  59.4155260 109.4064314  68.8695342  57.3745808 110.0460384
  67.9409121  57.3960152 110.6163898  68.9662710  56.4106859 109.5463899
  70.0455342  57.5775808 110.9860384  70.9507453  57.3969895 110.4063138
  70.0284411  58.6156108 111.3181540  70.0275342  56.6525808 112.2040384
  71.0805342  56.5335808 112.8690384  68.9795342  56.0335808 112.5050384
  69.8855342  58.3395808 107.9400384  70.0825342  57.2935808 107.3200384
  70.6155342  59.4425808 107.7550384  70.4029045  60.2729805 108.2891958
  71.7025342  59.5095808 106.7630384  72.1236241  58.5156592 106.6117027
  71.1785342  60.0295808 105.4190384  70.2802674  59.4373978 105.2442950
  70.9042686  61.0774414 105.5409671  72.1325342  59.8845808 104.2140384
  73.1421721  59.7121265 104.5868543  71.7165342  58.7245808 103.3230384
  70.7071033  58.8965543 102.9494436  72.4060116  58.6459668 102.4824781
  71.7378849  57.7985801 103.8976402  72.2085342  61.1595808 103.3890384
  72.5719245  61.9758221 104.0133757  72.8910364  61.0113279 102.5521913
  71.2172000  61.4068803 103.0093038  72.8525342  60.4015808 107.2240384
  72.6345342  61.4685808 107.7970384  74.0745342  59.9455808 106.9520384
  74.1610786  59.0139666 106.5716379  75.2935342  60.7085808 107.1970384
  75.0642763  61.7724770 107.2575759  75.9245342  60.2685808 108.5190384
  75.1679571  60.3384475 109.3005810  76.2466719  59.2322305 108.4175222
  77.0345342  61.0755808 108.8640384  77.4044951  60.7720128 109.6962495
  76.2455342  60.4635808 106.0260384  76.6815342  59.3355808 105.8140384
  76.5395342  61.5085808 105.2540384  76.1414721  62.4105982 105.4731511
  77.3945342  61.3945808 104.0630384  78.0039317  60.4931280 104.1272001
  76.5335342  61.3135808 102.8020384  77.1645456  61.2288844 101.9173066
  75.8649319  60.4543215 102.8544251  75.4765342  62.7555808 102.5280384
  74.9272261  62.3130695 101.4005001  78.3635342  62.5655808 103.9330384
  78.1675342  63.6135808 104.5470384  79.4015342  62.3615808 103.1200384
  79.5083629  61.4468578 102.7053472  80.4115342  63.3805808 102.8240384
  80.0163062  64.3723300 103.0438736  81.6585342  63.1495808 103.6820384
  81.3470928  62.9982682 104.7155799  82.1683021  62.2558618 103.3221730
  82.5405342  64.2565808 103.6120384  83.3119144  64.0861023 104.1574828
  80.7695342  63.3295808 101.3340384  81.1875342  62.2875808 100.8340384
  80.6075342  64.4565808 100.6390384  80.3536797  65.3005714 101.1323304
  80.7935342  64.5295808  99.1900384  81.2332879  63.6046767  98.8168517
  79.4465342  64.7595808  98.4730384  79.1065317  65.7719035  98.6914445
  79.5815342  64.5835808  96.9650384  79.9210777  63.5712805  96.7458168
  78.6146790  64.7526038  96.4909907  80.3055265  65.3008178  96.5783773
  78.4745342  63.8355808  98.9680384  77.6378193  63.9808963  98.5203870
  81.7145342  65.6845808  98.8240384  81.4965342  66.8075808  99.2710384
  82.7315342  65.4025808  98.0130384  82.9457560  64.4378126  97.8046382
  83.5775342  66.4415808  97.4300384  83.5516229  67.3297545  98.0613665
  85.0285342  65.9665808  97.3130384  85.0185385  65.0282082  96.7585510
  85.5852426  66.7151867  96.7493318  85.6965342  65.7495808  98.6670384
  85.2385342  66.3115808  99.6900384  86.7025342  65.0115808  98.7060384
  83.0405342  66.8165808  96.0490384  82.7995342  65.9415808  95.2200384
  82.8385342  68.1165808  95.8180384  82.9721910  68.7738315  96.5731918
  82.4035342  68.6305808  94.5210384  82.1985911  67.7953367  93.8513632
  81.1375342  69.4715808  94.6530384  81.3840556  70.3460881  95.2551708
  80.8853859  69.7874499  93.6407400  79.9635342  68.7595808  95.2620384
  79.7845342  68.7305808  96.6420384  80.5158319  69.2268998  97.2799809
  78.6985342  68.0845808  97.2070384  78.5713738  68.0695826  98.2894926
  77.7665342  67.4625808  96.3910384  76.6905342  66.8165808  96.9510384
  76.6850075  66.8591612  97.9100775  77.9215342  67.4835808  95.0160384
  77.1923351  66.9939662  94.3705567  79.0125342  68.1325808  94.4610384
  79.1383745  68.1588665  93.3786460  83.4825342  69.4825808  93.8690384
  84.3415342  70.0475808  94.5500384  83.4195342  69.5705808  92.5430384
  82.7549514  68.9924018  92.0489351  84.3095342  70.4235808  91.7620384
  84.8133569  71.1288652  92.4229740  85.3695342  69.5885808  91.0380384
  84.8820696  68.6823712  90.6785086  85.7212469  70.1730770  90.1878840
  86.5525342  69.2125808  91.9190384  86.8743234  70.1028584  92.4593701
  86.2231508  68.4555092  92.6306922  87.7095342  68.6705808  91.1050384
  87.9960214  69.4076123  90.3548327  88.5543329  68.4790845  91.7666605
  87.3535342  67.4225808  90.4250384  86.4153686  67.0789533  90.5729061
  88.1725342  66.7205808  89.6380384  89.4225342  67.1315808  89.4150384
  89.7553156  67.9827113  89.8450772  90.0300059  66.5896072  88.8172571
  87.7395342  65.5975808  89.0660384  86.7940428  65.2827629  89.2304636
  88.3588312  65.0664022  88.4707072  83.5105342  71.2525808  90.7630384
  82.7505342  70.7175808  89.9550384  83.6885342  72.5645808  90.8440384
  84.2634588  72.9293713  91.5900203  83.0835342  73.5035808  89.9210384
  82.3021385  73.0164919  89.3377166  82.4615342  74.6425808  90.7100384
  81.9411492  74.1905581  91.5544164  83.2850557  75.2550913  91.0771124
  81.4985342  75.5085808  89.9300384  82.0424713  76.3062909  89.4241808
  80.9703581  74.9049391  89.1919674  80.3035342  76.2345808  91.0660384
  79.6935342  77.5405808  90.0390384  79.2544038  77.1179352  89.1353603
  78.9351148  78.1055785  90.5809593  80.5148764  78.2036900  89.7674052
  84.2005342  73.9895808  89.0110384  85.1255342  74.6575808  89.4640384
  84.1205342  73.6095808  87.7380384  83.2777371  73.1512788  87.4222037
  85.2245342  73.7735808  86.7820384  85.7519214  74.7071065  86.9782316
  86.2215342  72.6065808  86.9190384  86.8863330  72.6582325  86.0567891
  86.7933280  72.7868639  87.8293405  85.5815342  71.2205808  86.9860384
  85.0450807  71.1407077  87.9315218  84.8757919  71.1332398  86.1599625
  86.6145342  70.1025808  86.8920384  87.1670168  70.2120654  85.9588315
  87.3025199  70.1880836  87.7331475  85.9985342  68.7675808  86.9210384
  85.0592918  68.7274930  87.2902483  86.5685342  67.6305808  86.4980384
  85.8895342  66.4865808  86.5810384  84.9536399  66.4847811  86.9607734
  86.3140388  65.6267749  86.2638170  87.8025342  67.6105808  85.9830384
  88.3282733  68.4695135  85.9060121  88.2031353  66.7366356  85.6734623
  84.7035342  73.8645808  85.3490384  83.4925342  73.8405808  85.1080384
  85.4785342  73.9715808  84.3970384  81.7965342  95.8255808  84.5850384
  80.9105342  95.2745808  83.5110384  79.4515342  95.2635808  83.9890384
  79.1915342  95.1445808  85.2010384  81.3765342  93.8665808  83.1150384
  81.5035342  92.8805808  84.2970384  82.0205342  91.2105808  83.8260384
  80.9405342  90.1075808  84.7790384  83.5595342  91.0175808  84.7550384
  84.7735342  91.4895808  83.9730384  85.8685342  91.5375808  84.8770384
  85.1335342  90.4715808  82.9000384  85.0155342  90.9995808  81.5910384
  86.5515342  90.0245808  83.2390384  87.3835342  89.9825808  82.1080384
  87.0095342  91.1555808  84.1380384  78.5125342  95.3665808  83.1850384
  91.6855342  92.7985808  85.7210384  90.7955342  93.4555808  84.8880384
  89.5975342  92.8385808  84.5880384  89.2905342  91.6205808  85.1000384
  90.1855342  90.9565808  85.9410384  91.3995342  91.5625808  86.2570384
  92.2985342  90.9725808  87.0490384  89.6215342  89.7825808  86.2900384
  88.4045342  89.6845808  85.7020384  88.1915342  90.8205808  84.9600384
  84.2415342  91.3075808  81.4820384  87.1245342  90.5525808  81.5480384
  93.0405342  91.3695808  87.2280384  92.1355342  90.1955808  87.3800384
  83.4985342  91.5175808  85.5840384  83.6745342  90.0845808  84.9940384
  82.6435342  95.8895808  84.4530384  81.4585342  96.0775808  85.3340384
  82.1415342  93.2375808  84.9340384  80.6485342  92.8265808  84.7520384
  81.1605342  89.1845808  84.5770384  81.0675342  90.2695808  85.7270384
  80.0155342  90.2775808  84.5440384  80.7525342  93.5005808  82.4690384
  82.2365342  93.9355808  82.6710384  80.9665342  95.8415808  82.7260384
  87.7895342  88.9395808  85.7900384  84.5845342  92.3495808  83.5670384
  84.5205342  89.7195808  82.8970384  86.5825342  89.1335808  83.6220384
  91.0085342  94.3285808  84.5240384  87.3405342  91.9045808  83.6190384
 126.2245342  71.6515808  43.6490384 127.2205342  72.3245808  44.6130384
 126.5155342  72.9075808  45.8560384 125.3365342  73.8305808  45.4800384
 124.3565342  73.1445808  44.5090384 125.0785342  72.6095808  43.2540384
 124.1775342  71.9995808  42.3540384 126.7415342  71.2855808  42.7600384
 125.8075342  70.7725808  44.1470384 127.9845342  71.6085808  44.9200384
 127.7485342  73.1235808  44.0890384 126.1475342  72.0895808  46.4760384
 127.2345342  73.4535808  46.4690384 124.8095342  74.1465808  46.3810384
 125.7225342  74.7415808  45.0210384 123.8795342  72.3155808  45.0350384
 123.5555342  73.8315808  44.2280384 125.5305342  73.4665808  42.7500384
 123.7765342  71.2445808  42.7930384 108.0545342  54.1305808  42.7540384
 109.1405342  54.7945808  43.6240384 110.3695342  53.8795808  43.8070384
 109.9825342  52.4725808  44.3110384 108.8895342  51.8295808  43.4350384
 107.6535342  52.7435808  43.3040384 106.6435342  52.1455808  42.5200384
 107.1795342  54.7795808  42.6750384 108.4485342  54.0195808  41.7410384
 109.4445342  55.7435808  43.1800384 108.7215342  55.0375808  44.6020384
 110.8945342  53.7885808  42.8550384 111.0765342  54.3415808  44.4980384
 110.8645342  51.8315808  44.3380384 109.6275342  52.5425808  45.3400384
 109.3115342  51.6435808  42.4460384 108.6065342  50.8545808  43.8360384
 107.2535342  52.8955808  44.3090384 106.9895342  52.0095808  41.6330384
  33.5515342  74.3175808  90.3070384  34.5505342  73.5505808  91.1960384
  34.1815342  73.6435808  92.6910384  33.9745342  75.1015808  93.1530384
  32.9805342  75.8555808  92.2480384  33.3965342  75.7855808  90.7630384
  32.4975342  76.4945808  89.9360384  33.8585342  74.2715808  89.2610384
  32.5845342  73.8145808  90.3670384  34.5965342  72.5045808  90.8880384
  35.5545342  73.9545808  91.0450384  33.2665342  73.0765808  92.8700384
  34.9555342  73.1685808  93.2950384  33.6255342  75.1195808  94.1850384
  34.9335342  75.6215808  93.1490384  31.9955342  75.4025808  92.3720384
  32.8835342  76.8935808  92.5710384  34.3765342  76.2585808  90.6780384
  31.6315342  76.0825808  90.0070384  33.5515342 118.9425808  58.4100384
  32.3535342 118.0275808  58.7320384  31.7575342 117.3905808  57.4590384
  31.4265342 118.4425808  56.3780384  32.6325342 119.3545808  56.0770384
  33.1815342 120.0135808  57.3590384  34.2725342 120.8655808  57.0810384
  33.9275342 119.4125808  59.3210384  34.3635342 118.3215808  58.0260384
  32.6585342 117.2465808  59.4310384  31.5815342 118.6055808  59.2430384
  32.4665342 116.6685808  57.0520384  30.8605342 116.8235808  57.7120384
  31.0965342 117.9465808  55.4650384  30.5865342 119.0525808  56.7120384
  33.4125342 118.7465808  55.6170384  32.3605342 120.1135808  55.3410384
  32.3795342 120.6215808  57.7820384  34.9835342 120.3365808  56.7090384
  41.9935342 101.6345808  56.4770384  42.1935342 103.1455808  56.7120384
  41.6865342 103.5835808  58.1020384  40.2355342 103.1285808  58.3670384
  40.0525342 101.6185808  58.1170384  40.5245342 101.2135808  56.7050384
  40.3365342  99.8345808  56.4680384  42.3195342 101.3585808  55.4730384
  42.6385342 101.0925808  57.1710384  43.2475342 103.4025808  56.6020384
  41.6615342 103.7055808  55.9410384  42.3395342 103.1655808  58.8700384
  41.7605342 104.6675808  58.2000384  39.9485342 103.3745808  59.3900384
  39.5585342 103.6875808  57.7200384  40.6345342 101.0765808  58.8650384
  39.0105342 101.3315808  58.2720384  39.9125342 101.7645808  55.9880384
  40.8735342  99.3435808  57.0970384 112.4235342  54.6625808  32.8640384
 113.4285342  53.4955808  32.7970384 112.8735342  52.2175808  33.4610384
 112.3595342  52.4775808  34.8930384 111.3635342  53.6535808  34.9420384
 111.9595342  54.9305808  34.3130384 111.0555342  56.0135808  34.3770384
 112.8565342  55.5635808  32.4270384 111.5595342  54.4045808  32.2480384
 113.6935342  53.2905808  31.7590384 114.3565342  53.7865808  33.2940384
 112.0575342  51.8235808  32.8530384 113.6405342  51.4425808  33.4750384
 111.8925342  51.5765808  35.2900384 113.2065342  52.6935808  35.5470384
 110.4665342  53.3615808  34.3940384 111.0485342  53.8415808  35.9700384
 112.8445342  55.1965808  34.8950384 110.2735342  55.7855808  33.8670384
 113.0725342  78.2625808 118.4410384 113.0995342  76.7305808 118.2680384
 111.6965342  76.1085808 118.4270384 111.0065342  76.5465808 119.7370384
 110.9975342  78.0785808 119.8970384 112.4175342  78.6725808 119.7790384
 112.4115342  80.0735808 119.9470384 114.0805342  78.6725808 118.3660384
 112.5035342  78.6895808 117.6120384 113.5125342  76.4725808 117.2920384
 113.7735342  76.2945808 119.0070384 111.0755342  76.4015808 117.5790384
 111.7655342  75.0205808 118.3890384 109.9865342  76.1615808 119.7670384
 111.5245342  76.0965808 120.5860384 110.3605342  78.4995808 119.1160384
 110.5415342  78.3595808 120.8480384 113.0175342  78.2395808 120.5810384
 111.8845342  80.4615808 119.2430384 108.9255342  71.4535808  52.7490384
 109.8365342  71.8985808  51.5870384 109.9305342  70.8235808  50.4850384
 110.3215342  69.4405808  51.0490384 109.4065342  69.0165808  52.2140384
 109.3645342  70.0875808  53.3240384 108.5435342  69.6905808  54.4010384
 108.9095342  72.2125808  53.5330384 107.9035342  71.3775808  52.3720384
 109.4695342  72.8345808  51.1640384 110.8355342  72.1115808  51.9710384
 108.9695342  70.7455808  49.9760384 110.6505342  71.1315808  49.7260384
 110.2865342  68.6915808  50.2560384 111.3565342  69.4685808  51.3920384
 108.4005342  68.8605808  51.8190384 109.7285342  68.0555808  52.6200384
 110.3815342  70.2055808  53.7010384 107.6455342  69.5855808  54.0760384
  39.5515342  91.0895808  51.1980384  38.2485342  90.2715808  51.1050384
  37.2505342  90.6485808  52.2200384  37.8905342  90.5885808  53.6230384
  39.1965342  91.4035808  53.6950384  40.1955342  90.9765808  52.5980384
  41.3995342  91.7085808  52.6770384  40.2555342  90.7745808  50.4260384
  39.3145342  92.1355808  50.9910384  37.7865342  90.4165808  50.1270384
  38.4825342  89.2075808  51.1750384  36.8755342  91.6575808  52.0390384
  36.3815342  89.9915808  52.1780384  37.1835342  90.9505808  54.3700384
  38.0985342  89.5485808  53.8810384  38.9465342  92.4585808  53.5690384
  39.6485342  91.3115808  54.6840384  40.4295342  89.9235808  52.7650384
  41.2005342  92.6375808  52.5310384 120.8945342 116.4435808  49.4490384
 120.1625342 117.7315808  49.8770384 118.8235342 117.4265808  50.5800384
 117.9275342 116.4845808  49.7480384 118.6775342 115.2075808  49.3210384
 119.9905342 115.5385808  48.5820384 120.6675342 114.3695808  48.1720384
 121.8165342 116.6865808  48.9180384 121.1905342 115.9035808  50.3510384
 120.8025342 118.3215808  50.5350384 119.9775342 118.3525808  48.9980384
 119.0225342 116.9695808  51.5500384 118.2925342 118.3575808  50.7870384
 117.0355342 116.2205808  50.3170384 117.5745342 117.0105808  48.8600384
 118.9015342 114.6275808  50.2190384 118.0355342 114.5785808  48.7020384
 119.7255342 116.1045808  47.6870384 120.9045342 113.8655808  48.9560384
  95.8305342  54.1045808 105.8790384  96.7615342  55.2255808 106.3820384
  97.6055342  54.7725808 107.5920384  96.7375342  54.1715808 108.7180384
  95.8065342  53.0595808 108.1950384  94.9415342  53.5505808 107.0150384
  94.0735342  52.5385808 106.5490384  95.2155342  54.4625808 105.0510384
  96.4505342  53.2995808 105.4770384  97.4165342  55.5565808 105.5750384
  96.1635342  56.0945808 106.6630384  98.3335342  54.0295808 107.2650384
  98.1835342  55.6135808 107.9770384  97.3755342  53.7805808 109.5120384
  96.1375342  54.9615808 109.1740384  96.4265342  52.2215808 107.8700384
  95.1765342  52.6805808 109.0020384  94.3295342  54.3765808 107.3820384
  94.6075342  51.8085808 106.2240384  97.1295342 122.6495808  46.4640384
  95.9555342 123.6365808  46.6220384  94.7175342 123.1925808  45.8150384
  95.0545342 122.9025808  44.3370384  96.2355342 121.9215808  44.1990384
  97.4755342 122.4105808  44.9770384  98.5645342 121.5225808  44.8340384
  98.0045342 123.0065808  47.0090384  96.8435342 121.7015808  46.9280384
  95.6955342 123.7405808  47.6760384  96.2685342 124.6275808  46.2880384
  94.2955342 122.2955808  46.2700384  93.9405342 123.9565808  45.8770384
  94.1775342 122.5045808  43.8270384  95.3005342 123.8375808  43.8320384
  95.9195342 120.9515808  44.5880384  96.4795342 121.7655808  43.1470384
  97.7675342 123.3725808  44.5530384  98.3135342 120.6725808  45.2070384
  72.2485342 132.1055808  84.6780384  71.4075342 132.0335808  85.9680384
  72.2395342 131.5435808  87.1720384  72.9815342 130.2235808  86.8720384
  73.8095342 130.3115808  85.5750384  72.9455342 130.7595808  84.3770384
  73.6985342 130.8205808  83.1850384  71.6275342 132.4135808  83.8350384
  73.0035342 132.8855808  84.8060384  70.9755342 133.0115808  86.1870384
  70.5635342 131.3575808  85.8130384  72.9665342 132.3115808  87.4420384
  71.5945342 131.4185808  88.0430384  73.6285342 129.9625808  87.7100384
  72.2565342 129.4135808  86.7850384  74.6145342 131.0315808  85.7330384
  74.2905342 129.3545808  85.3650384  72.1625342 130.0115808  84.2440384
  74.3895342 131.4785808  83.2960384  28.6195342  57.4755808  85.3140384
  27.2255342  57.1645808  85.8950384  27.2815342  56.0525808  86.9630384
  28.0075342  54.7885808  86.4540384  29.3945342  55.1195808  85.8690384
  29.3065342  56.2015808  84.7720384  30.5735342  56.4895808  84.2210384
  28.5465342  58.2335808  84.5330384  29.2315342  57.9085808  86.1080384
  26.7895342  58.0695808  86.3220384  26.5565342  56.8575808  85.0880384
  27.7955342  56.4305808  87.8480384  26.2715342  55.7965808  87.2860384
  28.1075342  54.0655808  87.2640384  27.3985342  54.3045808  85.6900384
  30.0315342  55.4755808  86.6810384  29.8685342  54.2165808  85.4810384
  28.6745342  55.8055808  83.9750384  31.1345342  56.8395808  84.9180384
  32.8845342  76.8695808  81.1760384  33.9425342  76.1305808  82.0200384
  34.1935342  76.8335808  83.3710384  34.5135342  78.3335808  83.1990384
  33.4515342  79.0535808  82.3460384  33.2495342  78.3585808  80.9820384
  32.2925342  79.0295808  80.1910384  32.7555342  76.3775808  80.2100384
  31.9235342  76.7955808  81.6900384  33.6295342  75.0995808  82.1890384
  34.8785342  76.0755808  81.4610384  33.3115342  76.7235808  84.0020384
  35.0085342  76.3375808  83.9010384  34.5925342  78.8115808  84.1770384
  35.4915342  78.4435808  82.7290384  32.5095342  79.0495808  82.8990384
  33.7215342  80.1015808  82.2070384  34.2055342  78.3935808  80.4560384
  31.4485342  79.0025808  80.6500384  49.3395342 119.7355808  57.2540384
  50.8635342 119.9405808  57.3510384  51.3205342 121.2225808  56.6230384
  50.8055342 121.2845808  55.1700384  49.2815342 121.0685808  55.0900384
  48.8555342 119.7585808  55.7860384  47.4625342 119.5485808  55.6960384
  49.0475342 118.8025808  57.7390384  48.8495342 120.5385808  57.8100384
  51.1685342 119.9785808  58.3990384  51.3745342 119.0775808  56.9190384
  50.9585342 122.0945808  57.1700384  52.4095342 121.2885808  56.6350384
  51.0695342 122.2425808  54.7220384  51.3105342 120.5225808  54.5740384
  48.7915342 121.9145808  55.5750384  48.9495342 121.0765808  54.0510384
  49.3535342 118.9375808  55.2670384  47.0175342 120.2685808  56.1520384
  84.0245342  29.6785808  41.1800384  84.2555342  31.1185808  40.6810384
  85.6145342  31.6795808  41.1490384  85.8105342  31.5415808  42.6740384
  85.5665342  30.0975808  43.1560384  84.1835342  29.5755808  42.7140384
  83.9505342  28.2615808  43.1730384  83.0405342  29.3215808  40.8710384
  84.7555342  29.0275808  40.6950384  84.1955342  31.1505808  39.5920384
  83.4535342  31.7625808  41.0470384  86.4185342  31.1505808  40.6340384
  85.7055342  32.7265808  40.8560384  86.8155342  31.8615808  42.9510384
  85.1255342  32.2155808  43.1890384  86.3475342  29.4615808  42.7350384
  85.6725342  30.0355808  44.2410384  83.4315342  30.2275808  43.1630384
  84.6095342  27.6825808  42.7800384  44.1645342  36.7355808 101.9830384
  43.1305342  35.6605808 102.3740384  42.4805342  35.9565808 103.7420384
  43.5295342  36.2015808 104.8480384  44.5595342  37.2715808 104.4360384
  45.2275342  36.9305808 103.0880384  46.1865342  37.8995808 102.7200384
  44.6395342  36.4815808 101.0340384  43.6335342  37.6765808 101.8200384
  42.3615342  35.5865808 101.6040384  43.6185342  34.6845808 102.4090384
  41.8415342  36.8355808 103.6520384  41.8245342  35.1335808 104.0270384
  43.0335342  36.4975808 105.7720384  44.0475342  35.2665808 105.0680384
  44.0415342  38.2295808 104.3540384  45.3115342  37.3965808 105.2170384
  45.7435342  35.9765808 103.2130384  45.7375342  38.7415808 102.6080384
  33.4555342  67.9705808  85.9980384  34.3965342  67.4785808  87.1150384
  33.8145342  67.7485808  88.5190384  33.3925342  69.2215808  88.7030384
  32.4605342  69.6985808  87.5720384  33.0845342  69.4585808  86.1810384
  32.2395342  69.9145808  85.1460384  33.9085342  67.8055808  85.0180384
  32.5475342  67.3635808  86.0230384  34.5945342  66.4125808  86.9930384
  35.3625342  67.9785808  87.0220384  32.9485342  67.1045808  88.6780384
  34.5425342  67.4715808  89.2820384  32.9025342  69.3505808  89.6690384
  34.2825342  69.8525808  88.7290384  31.5205342  69.1485808  87.6500384
  32.2105342  70.7525808  87.7050384  34.0115342  70.0335808  86.1380384
  31.4215342  69.4125808  85.1790384 115.7405342  74.4515808 106.0520384
 114.2295342  74.6175808 106.3060384 113.3945342  74.2785808 105.0530384
 113.8745342  75.0475808 103.8040384 115.3885342  74.8765808 103.5710384
 116.2035342  75.2655808 104.8230384 117.5915342  75.1305808 104.6040384
 116.3095342  74.7375808 106.9380384 115.9445342  73.3915808 105.8840384
 113.9195342  73.9885808 107.1410384 114.0235342  75.6465808 106.6090384
 113.4555342  73.2065808 104.8610384 112.3415342  74.4925808 105.2400384
 113.3225342  74.7115808 102.9250384 113.6425342  76.1065808 103.9200384
 115.5805342  73.8315808 103.3220384 115.7085342  75.4615808 102.7070384
 115.9965342  76.3165808 105.0320384 117.7805342  74.2065808 104.4190384
 109.5235342  88.5955808  88.9820384 108.1375342  88.7635808  88.3290384
 108.0855342  88.1365808  86.9200384 109.2325342  88.6345808  86.0150384
 110.6095342  88.4665808  86.6880384 110.6505342  89.1405808  88.0760384
 111.9175342  89.0055808  88.6840384 109.5475342  89.0835808  89.9580384
 109.6885342  87.5315808  89.1660384 107.3695342  88.3185808  88.9630384
 107.8955342  89.8265808  88.2610384 108.1425342  87.0505808  87.0080384
 107.1235342  88.3525808  86.4530384 109.2155342  88.1005808  85.0640384
 109.0735342  89.6865808  85.7740384 110.8085342  87.3985808  86.7960384
 111.3975342  88.8625808  86.0450384 110.4605342  90.2055808  87.9250384
 112.0905342  88.0705808  88.8190384  79.4155342 122.8455808  39.9080384
  80.3865342 121.6615808  39.7290384  80.3965342 121.1395808  38.2770384
  78.9765342 120.8275808  37.7580384  78.0185342 122.0185808  37.9530384
  77.9915342 122.4925808  39.4210384  77.0985342 123.5695808  39.6050384
  79.3955342 123.1685808  40.9510384  79.7975342 123.6915808  39.3310384
  81.3935342 121.9575808  40.0260384  80.0975342 120.8515808  40.4030384
  80.8595342 121.8865808  37.6310384  81.0225342 120.2495808  38.2070384
  79.0185342 120.5515808  36.7040384  78.5835342 119.9555808  38.2830384
  78.3555342 122.8355808  37.3120384  77.0135342 121.7575808  37.6150384
  77.6395342 121.6555808  40.0270384  77.4035342 124.3105808  39.0740384
 114.8715342  66.7055808  33.2640384 116.0625342  67.5965808  32.8590384
 117.4035342  67.0335808  33.3720384 117.3735342  66.7365808  34.8860384
 116.1715342  65.8525808  35.2740384 114.8385342  66.4595808  34.7890384
 113.7355342  65.6615808  35.1630384 113.9325342  67.1465808  32.9260384
 114.9675342  65.7495808  32.7440384 116.0945342  67.7045808  31.7730384
 115.9155342  68.6015808  33.2590384 117.6385342  66.1155808  32.8300384
 118.2105342  67.7325808  33.1460384 118.3035342  66.2555808  35.1900384
 117.3245342  67.6765808  35.4380384 116.3105342  64.8695808  34.8200384
 116.1505342  65.6915808  36.3530384 114.7295342  67.4325808  35.2730384
 113.8255342  64.8035808  34.7400384  97.4295342  51.9495808 126.6070384
  97.5635342  51.6535808 128.1140384  99.0375342  51.6315808 128.5680384
  99.9035342  50.6945808 127.6990384  99.7495342  50.9985808 126.1960384
  98.2705342  50.9705808 125.7580384  98.1305342  51.2285808 124.3770384
  96.3815342  51.9175808 126.3040384  97.7715342  52.9715808 126.4280384
  97.0065342  52.3945808 128.6910384  97.1025342  50.6885808 128.3360384
  99.4435342  52.6435808 128.5190384  99.0995342  51.3315808 129.6150384
 100.9505342  50.7785808 127.9910384  99.6185342  49.6585808 127.8900384
 100.1675342  51.9895808 126.0050384 100.3395342  50.2975808 125.6040384
  97.8935342  49.9645808 125.9530384  98.4605342  52.1135808 124.1990384
 103.8075342  22.5075808  66.6940384 102.9335342  23.7555808  66.4590384
 101.8465342  23.5055808  65.3920384 102.4325342  22.9365808  64.0820384
 103.3105342  21.6955808  64.3370384 104.4165342  21.9835808  65.3740384
 105.2345342  20.8535808  65.5920384 104.5925342  22.7225808  67.4200384
 103.1805342  21.7305808  67.1380384 102.4705342  24.0675808  67.3960384
 103.5665342  24.5865808  66.1430384 101.1085342  22.8075808  65.7890384
 101.3085342  24.4315808  65.1870384 101.6265342  22.6875808  63.3920384
 103.0285342  23.7055808  63.5880384 102.6675342  20.8935808  64.7040384
 103.7435342  21.3375808  63.4020384 105.0435342  22.7795808  64.9670384
 104.6875342  20.1485808  65.9510384  69.2565342  42.2985808 127.0810384
  67.9405342  41.6905808 126.5560384  66.8005342  41.8075808 127.5890384
  67.2025342  41.2505808 128.9710384  68.5245342  41.8625808 129.4750384
  69.6595342  41.6925808 128.4440384  70.8765342  42.2335808 128.9130384
  70.0565342  42.1655808 126.3500384  69.1155342  43.3765808 127.1900384
  67.6505342  42.1775808 125.6240384  68.1005342  40.6385808 126.3110384
  66.5165342  42.8565808 127.6930384  65.9125342  41.2895808 127.2220384
  66.4065342  41.4355808 129.6930384  67.3065342  40.1665808 128.9070384
  68.3585342  42.9245808 129.6620384  68.8065342  41.4215808 130.4330384
  69.8045342  40.6205808 128.2930384  70.7555342  43.1775808 129.0480384
  70.3465342 114.2335808  45.6030384  71.2125342 115.5085808  45.5930384
  72.3485342 115.4425808  46.6350384  71.8275342 115.0895808  48.0450384
  70.9565342 113.8185808  48.0350384  69.8025342 113.9275808  47.0170384
  68.9915342 112.7715808  47.0220384  69.5265342 114.3225808  44.8880384
  70.9625342 113.3985808  45.2630384  71.6305342 115.6665808  44.5970384
  70.5825342 116.3765808  45.7980384  73.0775342 114.6935808  46.3240384
  72.8835342 116.3925808  46.6630384  72.6665342 114.9615808  48.7300384
  71.2445342 115.9255808  48.4350384  71.5935342 112.9715808  47.7750384
  70.5695342 113.6155808  49.0350384  69.1835342 114.7745808  47.3180384
  69.5305342 112.0215808  46.7580384  46.6855342  30.2145808  91.0170384
  46.8615342  28.6975808  91.2300384  46.4085342  28.2575808  92.6370384
  47.0705342  29.0945808  93.7530384  46.8925342  30.6075808  93.5190384
  47.3935342  31.0295808  92.1220384  47.2505342  32.4195808  91.9150384
  47.0515342  30.5065808  90.0310384  45.6165342  30.4395808  91.0280384
  46.3035342  28.1475808  90.4700384  47.9105342  28.4315808  91.0870384
  45.3245342  28.3525808  92.7120384  46.6305342  27.1995808  92.7850384
  46.6555342  28.8165808  94.7220384  48.1345342  28.8575808  93.8000384
  45.8305342  30.8445808  93.6120384  47.4025342  31.1755808  94.2990384
  48.4575342  30.7895808  92.0720384  46.3155342  32.6365808  91.9570384
 136.3245342  62.0285808  89.7350384 137.3995342  63.1015808  90.0010384
 138.4095342  63.2035808  88.8390384 139.0175342  61.8335808  88.4700384
 137.9285342  60.7715808  88.2170384 136.9575342  60.6565808  89.4110384
 135.9735342  59.6695808  89.1890384 135.6485342  61.9465808  90.5880384
 135.7155342  62.3565808  88.8900384 136.9255342  64.0695808  90.1690384
 137.9315342  62.8605808  90.9230384 137.9105342  63.6225808  87.9650384
 139.2035342  63.9045808  89.0990384 139.6515342  61.9335808  87.5890384
 139.6705342  61.4975808  89.2770384 137.3735342  61.0595808  87.3220384
 138.3845342  59.8045808  87.9980384 137.5465342  60.3565808  90.2800384
 135.4515342  59.9285808  88.4250384  95.3325342  49.7615808 110.3850384
  93.7935342  49.7085808 110.2980384  93.2295342  48.3925808 110.8740384
  93.9025342  47.1475808 110.2580384  95.4395342  47.2225808 110.3460384
  95.9825342  48.5265808 109.7230384  97.3915342  48.5855808 109.7850384
  95.7085342  50.6815808 109.9340384  95.6125342  49.7985808 111.4400384
  93.3605342  50.5615808 110.8230384  93.4865342  49.8075808 109.2550384
  93.3755342  48.3825808 111.9550384  92.1515342  48.3495808 110.7140384
  93.5445342  46.2465808 110.7560384  93.6045342  47.0545808 109.2130384
  95.7235342  47.1765808 111.4000384  95.8905342  46.3515808 109.8690384
  95.6905342  48.5295808 108.6710384  97.6545342  48.5835808 110.7090384
 114.5875342  49.9605808  60.5260384 114.0845342  48.5205808  60.3040384
 114.1985342  47.6675808  61.5850384 115.6155342  47.7125808  62.1940384
 116.1065342  49.1595808  62.4000384 116.0245342  49.9795808  61.0950384
 116.4935342  51.2985808  61.2780384 114.5365342  50.5305808  59.5970384
 113.9125342  50.4545808  61.2290384 113.0495342  48.5375808  59.9590384
 114.6625342  48.0535808  59.5050384 113.4785342  48.0275808  62.3220384
 113.9195342  46.6345808  61.3690384 115.6305342  47.1755808  63.1430384
 116.3085342  47.1855808  61.5370384 115.4805342  49.6255808  63.1630384
 117.1245342  49.1635808  62.7930384 116.6705342  49.4905808  60.3630384
 115.9285342  51.7345808  61.9210384  33.8415342  79.5255808  61.1930384
  35.2515342  80.0995808  61.4410384  35.2095342  81.6065808  61.7710384
  34.4175342  82.4135808  60.7200384  33.0155342  81.8205808  60.4770384
  33.0865342  80.3235808  60.1060384  31.8045342  79.7855808  59.8630384
  33.9025342  78.4705808  60.9210384  33.2835342  79.5715808  62.1310384
  35.7375342  79.5545808  62.2520384  35.8695342  79.9395808  60.5560384
  34.7525342  81.7475808  62.7510384  36.2245342  81.9965808  61.8520384
  34.3325342  83.4535808  61.0360384  34.9725342  82.4265808  59.7810384
  32.4315342  81.9415808  61.3920384  32.4925342  82.3845808  59.7030384
  33.6655342  80.2455808  59.1840384  31.2905342  79.8515808  60.6720384
  80.9985342  96.0005808  42.1360384  79.6565342  96.7585808  42.0930384
  79.4175342  97.5805808  43.3770384  79.5775342  96.7305808  44.6550384
  80.9205342  95.9725808  44.6760384  81.1145342  95.1225808  43.4030384
  82.3345342  94.4125808  43.4320384  81.1235342  95.3945808  41.2370384
  81.8065342  96.7355808  42.1280384  79.6255342  97.4125808  41.2200384
  78.8405342  96.0445808  41.9640384  80.1235342  98.4115808  43.4070384
  78.4235342  98.0295808  43.3510384  79.4945342  97.3655808  45.5370384
  78.7575342  96.0145808  44.7180384  81.7245342  96.7075808  44.7510384
  80.9905342  95.3495808  45.5690384  80.3015342  94.3955808  43.3710384
  83.0545342  95.0485808  43.4600384  60.5515342  88.2675808 121.5220384
  61.2605342  87.0135808 120.9750384  61.1345342  85.8135808 121.9370384
  61.5775342  86.1665808 123.3730384  60.8645342  87.4275808 123.9000384
  61.0435342  88.6245808 122.9430384  60.4095342  89.7855808 123.4360384
  60.6905342  89.1115808 120.8450384  59.4775342  88.0685808 121.5500384
  60.8525342  86.7515808 119.9970384  62.3175342  87.2365808 120.8120384
  60.0975342  85.4745808 121.9540384  61.7215342  84.9735808 121.5630384
  61.3855342  85.3245808 124.0390384  62.6565342  86.3265808 123.3900384
  59.8025342  87.2005808 124.0050384  61.2255342  87.6785808 124.9000384
  62.1135342  88.8295808 122.8740384  59.4665342  89.6125808 123.4980384
  42.3155342  85.4555808  36.3850384  41.1555342  84.8205808  35.5910384
  39.8115342  84.9425808  36.3400384  39.8985342  84.4155808  37.7880384
  41.0685342  85.0535808  38.5620384  42.4075342  84.8795808  37.8160384
  43.4825342  85.4445808  38.5350384  43.2595342  85.3185808  35.8550384
  42.1445342  86.5325808  36.4370384  41.0785342  85.2865808  34.6080384
  41.3745342  83.7665808  35.4100384  39.5035342  85.9895808  36.3560384
  39.0335342  84.4065808  35.7950384  38.9595342  84.6045808  38.3090384
  40.0225342  83.3325808  37.7720384  40.8555342  86.1175808  38.6860384
  41.1315342  84.6345808  39.5680384  42.5905342  83.8065808  37.7240384
  43.3275342  86.3895808  38.6190384  54.9755342  96.1015808  22.0860384
  55.7755342  96.8135808  23.1950384  55.9025342  98.3285808  22.9320384
  56.4455342  98.6325808  21.5190384  55.6395342  97.9055808  20.4250384
  55.5655342  96.3865808  20.6870384  54.8455342  95.7175808  19.6730384
  54.9355342  95.0265808  22.2740384  53.9435342  96.4595808  22.1260384
  55.3025342  96.6415808  24.1640384  56.7725342  96.3725808  23.2630384
  54.9245342  98.7965808  23.0490384  56.5475342  98.7835808  23.6850384
  56.4325342  99.7085808  21.3400384  57.4915342  98.3285808  21.4610384
  54.6315342  98.3235808  20.4100384  56.0685342  98.1055808  19.4410384
  56.5885342  96.0055808  20.6810384  53.9435342  96.0495808  19.6740384
 111.7075342  73.6045808  29.5530384 110.4045342  72.7815808  29.5190384
 109.3795342  73.2835808  30.5580384 109.9825342  73.3815808  31.9750384
 111.2885342  74.1995808  31.9880384 112.3135342  73.6505808  30.9740384
 113.5185342  74.3855808  31.0010384 112.4305342  73.2035808  28.8410384
 111.4795342  74.6195808  29.2230384 109.9685342  72.8145808  28.5190384
 110.6335342  71.7315808  29.7150384 109.0125342  74.2645808  30.2540384
 108.5085342  72.6255808  30.5680384 109.2575342  73.8265808  32.6580384
 110.1795342  72.3785808  32.3550384 111.0455342  75.2335808  31.7370384
 111.7145342  74.2195808  32.9930384 112.5405342  72.6225808  31.2650384
 113.3265342  75.2915808  30.7450384  44.0985342  61.8855808  51.5290384
  43.7285342  62.9385808  50.4660384  42.6165342  63.8885808  50.9580384
  41.3855342  63.1225808  51.4880384  41.7745342  62.0675808  52.5420384
  42.8555342  61.1025808  52.0100384  43.1975342  60.1235808  52.9680384
  44.8555342  61.2015808  51.1410384  44.5535342  62.4005808  52.3770384
  44.6135342  63.5135808  50.1880384  43.3975342  62.4345808  49.5560384
  43.0125342  64.5245808  51.7510384  42.3185342  64.5605808  50.1520384
  40.6655342  63.8235808  51.9100384  40.8785342  62.6325808  50.6550384
  42.1545342  62.5895808  53.4220384  40.8925342  61.5145808  52.8700384
  42.4355342  60.5925808  51.1410384  43.5675342  60.5675808  53.7350384
 123.1405342  48.7895808  92.6680384 122.7645342  49.9685808  91.7480384
 123.0655342  49.6615808  90.2660384 124.5165342  49.1805808  90.0510384
 124.8775342  48.0085808  90.9850384 124.6095342  48.3565808  92.4650384
 124.9605342  47.2915808  93.3220384 122.9575342  49.0475808  93.7120384
 122.4795342  47.9515808  92.4370384 121.7085342  50.2145808  91.8700384
 123.3195342  50.8575808  92.0530384 122.3765342  48.8935808  89.9110384
 122.8735342  50.5455808  89.6570384 124.6615342  48.8855808  89.0110384
 125.2025342  50.0095808  90.2290384 124.2735342  47.1455808  90.6990384
 125.9185342  47.7145808  90.8420384 125.2395342  49.2125808  92.7160384
 124.4095342  46.5345808  93.1060384 106.0595342  92.9315808  99.6710384
 105.4595342  91.8485808 100.5910384 105.3135342  90.4945808  99.8660384
 104.5535342  90.6245808  98.5290384 105.1615342  91.7175808  97.6270384
 105.2555342  93.0725808  98.3590384 105.7915342  94.0785808  97.5270384
 106.1125342  93.8885808 100.1930384 107.0885342  92.6495808  99.4380384
 106.0795342  91.7305808 101.4810384 104.4805342  92.1765808 100.9460384
 106.3045342  90.0795808  99.6770384 104.8055342  89.7795808 100.5150384
 104.5535342  89.6675808  98.0060384 103.5075342  90.8605808  98.7290384
 106.1605342  91.3955808  97.3280384 104.5825342  91.8165808  96.7080384
 104.2395342  93.3665808  98.6310384 106.6865342  93.8265808  97.2850384
 127.2725342  80.6285808  80.9500384 128.6005342  81.2815808  81.3820384
 128.8675342  81.1015808  82.8910384 127.6725342  81.5595808  83.7540384
 126.3525342  80.9045808  83.3030384 126.0865342  81.1365808  81.8000384
 124.8675342  80.5545808  81.3910384 127.0875342  80.8055808  79.8890384
 127.3685342  79.5465808  81.0700384 129.4265342  80.8625808  80.8050384
 128.5755342  82.3465808  81.1430384 129.0765342  80.0515808  83.0960384
 129.7655342  81.6505808  83.1770384 127.8625342  81.3305808  84.8030384
 127.5775342  82.6445808  83.6940384 126.4195342  79.8325808  83.5000384
 125.5195342  81.2755808  83.9020384 126.0135342  82.2145808  81.6460384
 124.9255342  79.6045808  81.5240384  62.0215342  30.4625808  75.9330384
  60.8655342  30.8925808  76.8580384  59.5215342  30.2695808  76.4280384
  59.2115342  30.5175808  74.9360384  60.3815342  30.0895808  74.0280384
  61.7055342  30.7615808  74.4510384  62.7725342  30.3865808  73.6060384
  62.9515342  30.9495808  76.2330384  62.1805342  29.3885808  76.0620384
  61.0905342  30.6175808  77.8890384  60.7795342  31.9815808  76.8470384
  59.5475342  29.1955808  76.6160384  58.7135342  30.6645808  77.0460384
  58.3045342  29.9845808  74.6510384  59.0015342  31.5765808  74.7810384
  60.4855342  29.0055808  74.0940384  60.1535342  30.3125808  72.9840384
  61.5655342  31.8405808  74.3590384  62.9005342  29.4375808  73.6830384
  71.1255342  44.4265808  82.1440384  70.7595342  45.8265808  82.6770384
  69.4625342  45.8015808  83.5140384  68.2945342  45.1285808  82.7640384
  68.6815342  43.7355808  82.2300384  69.9545342  43.7935808  81.3590384
  70.2975342  42.5205808  80.8520384  72.0205342  44.4785808  81.5220384
  71.3775342  43.7915808  82.9960384  71.5805342  46.2235808  83.2750384
  70.6345342  46.5135808  81.8380384  69.6475342  45.2665808  84.4470384
  69.1855342  46.8175808  83.7990384  67.4275342  45.0475808  83.4200384
  67.9855342  45.7625808  81.9310384  68.8535342  43.0785808  83.0840384
  67.8525342  43.2985808  81.6690384  69.7395342  44.4465808  80.5120384
  70.4885342  41.9405808  81.5940384  40.4055342  35.7175808  94.9550384
  39.4305342  34.6345808  94.4520384  38.3455342  34.3055808  95.4990384
  38.9485342  33.9665808  96.8790384  39.9275342  35.0545808  97.3610384
  41.0285342  35.3335808  96.3160384  41.9375342  36.3155808  96.7660384
  41.1865342  35.9015808  94.2150384  39.8525342  36.6535808  95.0590384
  38.9625342  34.9575808  93.5210384  39.9875342  33.7275808  94.2120384
  37.6735342  35.1585808  95.6010384  37.7305342  33.4755808  95.1480384
  38.1515342  33.8325808  97.6110384  39.4695342  33.0105808  96.8210384
  39.3585342  35.9685808  97.5440384  40.3695342  34.7715808  98.3190384
  41.5815342  34.4035808  96.1710384  41.4565342  37.1375808  96.8960384
  55.0905342  64.3985808  67.0760384  55.2945342  62.9045808  66.7560384
  55.2435342  62.6285808  65.2380384  53.9735342  63.2085808  64.5800384
  53.7815342  64.7005808  64.9180384  53.7905342  64.9435808  66.4420384
  53.5925342  66.3065808  66.7530384  55.0885342  64.5605808  68.1550384
  55.9455342  64.9525808  66.6820384  56.2455342  62.5625808  67.1650384
  54.5205342  62.3185808  67.2560384  56.1245342  63.0635808  64.7650384
  55.3005342  61.5545808  65.0540384  54.0205342  63.0745808  63.4990384
  53.1025342  62.6455808  64.9170384  54.5935342  65.2625808  64.4540384
  52.8565342  65.0745808  64.4750384  52.9595342  64.3775808  66.8670384
  54.3225342  66.8105808  66.3820384 116.2635342  84.9745808 112.7580384
 115.5805342  84.0625808 111.7190384 115.9315342  82.5765808 111.9390384
 117.4545342  82.3405808 112.0250384 118.1205342  83.2665808 113.0610384
 117.7915342  84.7505808 112.7930384 118.4195342  85.6015808 113.7290384
 116.0335342  86.0225808 112.5550384 115.8405342  84.7505808 113.7400384
 114.4985342  84.1995808 111.7570384 115.8885342  84.3625808 110.7150384
 115.4615342  82.2285808 112.8600384 115.5065342  81.9715808 111.1360384
 117.6565342  81.2985808 112.2730384 117.9025342  82.5115808 111.0450384
 117.7585342  82.9865808 114.0520384 119.2005342  83.1085808 113.0730384
 118.1795342  84.9955808 111.8020384 118.0825342  85.3905808 114.6040384
 106.2905342  74.7855808  82.1180384 105.3905342  75.7355808  82.9330384
 104.2025342  76.2595808  82.0990384 104.6545342  76.8755808  80.7580384
 105.5595342  75.9155808  79.9620384 106.7645342  75.4415808  80.8010384
 107.6065342  74.5795808  80.0660384 107.1455342  74.4635808  82.7150384
 105.7175342  73.8845808  81.8890384 105.0245342  75.2275808  83.8260384
 105.9835342  76.5815808  83.2880384 103.5115342  75.4375808  81.9030384
 103.6405342  76.9955808  82.6760384 103.7835342  77.1465808  80.1610384
 105.1915342  77.8045808  80.9500384 104.9625342  75.0525808  79.6630384
 105.8975342  76.3895808  79.0380384 107.3425342  76.3285808  81.0690384
 107.1035342  73.7965808  79.8270384  71.8035342  46.0105808 131.6560384
  70.7855342  45.0515808 132.3030384  69.4795342  44.9605808 131.4860384
  68.8785342  46.3515808 131.1870384  69.9135342  47.2995808 130.5500384
  71.1915342  47.4075808 131.4090384  72.1305342  48.2925808 130.8360384
  72.6995342  46.0885808 132.2750384  72.1225342  45.5795808 130.7050384
  71.2255342  44.0585808 132.4120384  70.5565342  45.3935808 133.3140384
  69.6805342  44.4465808 130.5450384  68.7505342  44.3465808 132.0170384
  68.0135342  46.2495808 130.5320384  68.5075342  46.7905808 132.1140384
  70.1695342  46.9105808 129.5630384  69.4755342  48.2855808 130.3870384
  70.8975342  47.8105808 132.3800384  72.3945342  47.9425808 129.9810384
  52.4685342 127.6815808  95.7700384  53.4555342 126.5175808  95.9920384
  54.6675342 126.6005808  95.0410384  54.2435342 126.7445808  93.5640384
  53.2505342 127.9065808  93.3620384  52.0255342 127.7765808  94.2920384
  51.1055342 128.8275808  94.0930384  51.6015342 127.5765808  96.4240384
  52.9635342 128.6095808  96.0610384  53.7955342 126.5105808  97.0290384
  52.9385342 125.5685808  95.8370384  55.2865342 127.4545808  95.3220384
  55.2965342 125.7175808  95.1630384  55.1225342 126.8935808  92.9370384
  53.7855342 125.8135808  93.2270384  53.7715342 128.8415808  93.5740384
  52.9355342 127.9605808  92.3180384  51.5255342 126.8385808  94.0420384
  51.5405342 129.6565808  94.3120384  50.2365342  89.1835808  84.5690384
  50.7495342  88.7645808  85.9610384  52.2835342  88.5985808  85.9830384
  52.7875342  87.6675808  84.8600384  52.2575342  88.0955808  83.4780384
  50.7185342  88.2105808  83.4690384  50.2305342  88.5825808  82.1970384
  49.1465342  89.2525808  84.5680384  50.6095342  90.1875808  84.3550384
  50.4435342  89.4995808  86.7070384  50.2795342  87.8235808  86.2520384
  52.7515342  89.5775808  85.8760384  52.6015342  88.2155808  86.9540384
  53.8775342  87.6505808  84.8520384  52.4705342  86.6445808  85.0690384
  52.6965342  89.0635808  83.2290384  52.5945342  87.3985808  82.7090384
  50.3175342  87.2245808  83.7080384  50.5805342  89.4505808  81.9800384
  62.1915342  69.0675808 126.1130384  63.1735342  70.2545808 126.1730384
  62.4375342  71.6095808 126.2110384  61.4085342  71.7485808 125.0680384
  60.4415342  70.5495808 125.0170384  61.2015342  69.2095808 124.9350384
  60.3155342  68.1115808 124.8660384  62.7365342  68.1245808 126.0440384
  61.6355342  69.0355808 127.0530384  63.8215342  70.1575808 127.0470384
  63.8325342  70.2245808 125.3030384  61.9265342  71.7145808 127.1690384
  63.1595342  72.4265808 126.1630384  60.8475342  72.6765808 125.1850384
  61.9345342  71.8305808 124.1160384  59.8295342  70.5675808 125.9210384
  59.7525342  70.6535808 124.1780384  61.7895342  69.2245808 124.0150384
  59.7945342  68.0925808 125.6740384  72.4225342 129.0935808 109.1770384
  71.4375342 130.2795808 109.1640384  71.8115342 131.3495808 110.2100384
  71.9995342 130.7495808 111.6200384  72.9795342 129.5605808 111.6120384
  72.5595342 128.4835808 110.5900384  73.4445342 127.3835808 110.5980384
  72.1115342 128.3315808 108.4590384  73.3965342 129.4545808 108.8420384
  71.4045342 130.7255808 108.1690384  70.4275342 129.9145808 109.3650384
  72.7345342 131.8435808 109.9040384  71.0465342 132.1275808 110.2360384
  72.3525342 131.5195808 112.3080384  71.0335342 130.4205808 112.0050384
  73.9715342 129.9375808 111.3560384  73.0635342 129.1305808 112.6120384
  71.5725342 128.1225808 110.8860384  74.3155342 127.6945808 110.3380384
  65.5215342  65.6215808 123.1990384  66.0425342  64.8555808 124.4320384
  67.1275342  63.8255808 124.0550384  66.6705342  62.8835808 122.9210384
  66.1445342  63.6655808 121.7010384  65.0295342  64.6565808 122.0970384
  64.5335342  65.3575808 120.9770384  64.7275342  66.3115808 123.4870384
  66.3375342  66.2335808 122.8080384  66.4365342  65.5585808 125.1680384
  65.2105342  64.3425808 124.9190384  68.0295342  64.3525808 123.7420384
  67.4065342  63.2415808 124.9330384  67.4935342  62.2345808 122.6210384
  65.8855342  62.2235808 123.2930384  66.9805342  64.2135808 121.2620384
  65.7915342  62.9765808 120.9310384  64.2105342  64.0715808 122.5190384
  65.2505342  65.8755808 120.6010384  32.9725342 102.8185808  97.7950384
  32.9125342 104.3515808  97.6440384  33.8255342 105.0665808  98.6620384
  33.5625342 104.6015808 100.1110384  33.6175342 103.0675808 100.2410384
  32.6625342 102.3775808  99.2430384  32.6965342 100.9715808  99.3760384
  32.2875342 102.3395808  97.0930384  33.9765342 102.4875808  97.5210384
  33.1915342 104.6375808  96.6290384  31.8835342 104.6895808  97.7810384
  34.8685342 104.8735808  98.4070384  33.6895342 106.1465808  98.5880384
  34.2865342 105.0585808 100.7850384  32.5825342 104.9575808 100.4330384
  34.6415342 102.7445808 100.0470384  33.3885342 102.7635808 101.2640384
  31.6505342 102.7135808  99.4760384  33.5855342 100.6695808  99.1720384
  64.6335342  72.9745808 130.7160384  64.2315342  73.2245808 132.1830384
  65.4395342  73.6405808 133.0480384  66.6215342  72.6575808 132.9160384
  67.0035342  72.4125808 131.4420384  65.7885342  71.9535808 130.6080384
  66.1415342  71.7095808 129.2640384  63.7715342  72.6415808 130.1360384
  64.9485342  73.9265808 130.2810384  63.4565342  73.9905808 132.2320384
  63.7865342  72.3165808 132.5970384  65.7675342  74.6385808 132.7510384
  65.1385342  73.7215808 134.0940384  67.4835342  73.0345808 133.4660384
  66.3565342  71.7075808 133.3830384  67.3945342  73.3455808 131.0330384
  67.8125342  71.6835808 131.3750384  65.4345342  71.0155808 131.0400384
  66.4545342  72.5325808 128.8780384  58.4815342  69.1465808 128.3370384
  57.7055342  70.4775808 128.2840384  58.6035342  71.6815808 128.6410384
  59.3475342  71.4805808 129.9780384  60.1085342  70.1405808 130.0160384
  59.1805342  68.9485808 129.7000384  59.8725342  67.7195808 129.7560384
  57.8155342  68.3085808 128.1220384  59.2305342  69.1555808 127.5420384
  57.2715342  70.6175808 127.2930384  56.8645342  70.4355808 128.9790384
  59.3315342  71.8345808 127.8440384  58.0035342  72.5915808 128.6820384
  60.0385342  72.3065808 130.1470384  58.6305342  71.5125808 130.8000384
  60.9105342  70.1835808 129.2770384  60.5925342  70.0055808 130.9850384
  58.4025342  68.9315808 130.4660384  60.5595342  67.7285808 129.0840384
 115.0905342  34.4245808  51.8040384 114.3565342  33.0685808  51.7850384
 114.8575342  32.1255808  52.8990384 116.3935342  31.9695808  52.8860384
 117.1095342  33.3345808  52.8960384 116.6235342  34.2415808  51.7460384
 117.2945342  35.4835808  51.7420384 114.7485342  35.0555808  50.9820384
 114.8215342  34.9455808  52.7260384 113.2815342  33.2255808  51.8860384
 114.5025342  32.5905808  50.8140384 114.5445342  32.5175808  53.8680384
 114.3835342  31.1485808  52.8000384 116.7145342  31.3735808  53.7410384
 116.6925342  31.4105808  51.9980384 116.9065342  33.8185808  53.8530384
 118.1915342  33.1955808  52.8450384 116.8545342  33.7305808  50.8090384
 117.0945342  35.9385808  52.5650384 108.2895342  85.9335808  92.8280384
 108.5345342  86.4275808  91.3880384 108.2345342  85.3305808  90.3450384
 108.9745342  84.0115808  90.6540384 108.7255342  83.5385808  92.1000384
 109.0755342  84.6375808  93.1260384 108.8685342  84.1975808  94.4510384
 108.5495342  86.7125808  93.5470384 107.2205342  85.7465808  92.9480384
 107.9235342  87.3095808  91.1880384 109.5725342  86.7495808  91.2860384
 107.1605342  85.1425808  90.3200384 108.5035342  85.6835808  89.3480384
 108.6645342  83.2375808  89.9500384 110.0445342  84.1515808  90.4970384
 107.6715342  83.2735808  92.1950384 109.2915342  82.6275808  92.3040384
 110.1365342  84.8655808  93.0080384 107.9355342  83.9945808  94.5610384
  77.6855342  57.4555808  39.7020384  76.6145342  56.9725808  38.7030384
  75.9455342  55.6615808  39.1660384  76.9785342  54.5655808  39.5050384
  78.0455342  55.0685808  40.4970384  78.7315342  56.3555808  39.9900384
  79.7245342  56.8045808  40.8880384  78.1725342  58.3595808  39.3310384
  77.1845342  57.7335808  40.6320384  75.8595342  57.7475808  38.5640384
  77.0745342  56.8185808  37.7250384  75.3335342  55.8615808  40.0460384
  75.2615342  55.3015808  38.3970384  76.4725342  53.6905808  39.9150384
  77.4655342  54.2305808  38.5880384  77.5565342  55.2685808  41.4520384
  78.7855342  54.2885808  40.6880384  79.2185342  56.1125808  39.0440384
  79.3015342  57.0205808  41.7240384  83.9535342  66.6675808 128.1110384
  84.2155342  68.0925808 127.5840384  85.5395342  68.6725808 128.1260384
  85.6305342  68.5815808 129.6650384  85.3565342  67.1535808 130.1740384
  84.0075342  66.6135808 129.6540384  83.7455342  65.3125808 130.1380384
  82.9935342  66.2975808 127.7480384  84.7165342  66.0045808 127.6970384
  84.2295342  68.0895808 126.4930384  83.3895342  68.7445808 127.8750384
  86.3765342  68.1305808 127.6840384  85.6485342  69.7095808 127.8070384
  86.6135342  68.9145808 129.9990384  84.9105342  69.2695808 130.1110384
  86.1655342  66.5075808 129.8270384  85.3875342  67.1255808 131.2640384
  83.2255342  67.2755808 130.0310384  84.4315342  64.7235808 129.8090384
 114.8085342  58.4995808  62.9750384 113.8025342  59.6665808  62.9330384
 114.1595342  60.7715808  63.9500384 114.3605342  60.2115808  65.3750384
 115.3625342  59.0405808  65.3950384 114.9595342  57.9295808  64.4030384
 115.8645342  56.8465808  64.4370384 114.5115342  57.7145808  62.2780384
 115.7765342  58.8695808  62.6270384 113.7605342  60.0865808  61.9270384
 112.8005342  59.2895808  63.1460384 115.0725342  61.2735808  63.6290384
 113.3805342  61.5355808  63.9570384 114.7015342  61.0045808  66.0410384
 113.4015342  59.8755808  65.7700384 116.3465342  59.4285808  65.1280384
 115.4555342  58.6375808  66.4060384 113.9795342  57.5585808  64.7100384
 116.7295342  57.1665808  64.1670384 125.9855342  83.9575808  37.8310384
 127.1745342  84.5325808  37.0350384 128.5105342  83.8765808  37.4420384
 128.7425342  83.9185808  38.9670384 127.5405342  83.3495808  39.7470384
 126.2235342  84.0515808  39.3550384 125.1255342  83.5455808  40.0840384
 125.0605342  84.4665808  37.5550384 125.8585342  82.9105808  37.5470384
 127.0045342  84.3995808  35.9650384 127.2345342  85.6095808  37.2000384
 128.5185342  82.8385808  37.1060384 129.3375342  84.3675808  36.9260384
 129.6465342  83.3655808  39.2210384 128.9195342  84.9495808  39.2780384
 127.4645342  82.2835808  39.5250384 127.7125342  83.4275808  40.8210384
 126.3325342  85.1095808  39.6020384 125.0235342  82.6135808  39.8700384
 111.0145342  36.0125808  51.2130384 111.5785342  35.5075808  49.8700384
 112.0425342  36.6695808  48.9670384 110.9485342  37.7425808  48.7850384
 110.3895342  38.2285808  50.1370384 109.8905342  37.0525808  51.0030384
 109.3595342  37.4995808  52.2320384 110.6545342  35.1765808  51.8150384
 111.8315342  36.4695808  51.7770384 112.4065342  34.8205808  50.0490384
 110.8125342  34.9285808  49.3500384 112.9295342  37.1305808  49.4040384
 112.3505342  36.2825808  47.9940384 111.3455342  38.5865808  48.2200384
 110.1355342  37.3315808  48.1840384 111.1865342  38.7575808  50.6640384
 109.5915342  38.9555808  49.9790384 109.0895342  36.5595808  50.4490384
 110.0605342  37.9355808  52.7250384  55.0435342  98.4315808 101.1430384
  56.4805342  98.6995808 100.6530384  57.4815342  97.6675808 101.2130384
  57.3925342  97.5395808 102.7480384  55.9485342  97.2815808 103.2210384
  54.9745342  98.3515808 102.6850384  53.6555342  98.1275808 103.1350384
  54.3635342  99.1985808 100.7680384  54.7075342  97.4845808 100.7150384
  56.5095342  98.6925808  99.5620384  56.7865342  99.7025808 100.9570384
  57.2855342  96.6945808 100.7590384  58.4965342  97.9385808 100.9200384
  58.0465342  96.7375808 103.0930384  57.7665342  98.4545808 103.2100384
  55.6425342  96.2975808 102.8600384  55.9075342  97.2355808 104.3100384
  55.3045342  99.3155808 103.0760384  53.3585342  97.2795808 102.7930384
 133.5745342  58.6735808  57.0580384 134.0615342  59.7125808  58.0880384
 133.4825342  59.4445808  59.4930384 131.9455342  59.3025808  59.4750384
 131.4765342  58.2675808  58.4340384 132.0315342  58.5825808  57.0290384
 131.5855342  57.6465808  56.0700384 133.9625342  58.9095808  56.0660384
 133.9915342  57.7015808  57.3300384 135.1515342  59.7145808  58.1280384
 133.7695342  60.7125808  57.7610384 133.9235342  58.5315808  59.8950384
 133.7735342  60.2465808  60.1730384 131.5865342  59.0225808  60.4660384
 131.4955342  60.2705808  59.2520384 131.8245342  57.2825808  58.7510384
 130.3865342  58.2155808  58.4140384 131.6525342  59.5645808  56.7420384
 131.9165342  56.7785808  56.3170384  90.8925342 123.9275808  86.6860384
  91.9625342 122.8855808  87.0690384  93.3505342 123.5305808  87.2640384
  93.7695342 124.3945808  86.0550384  92.6845342 125.4235808  85.6810384
  91.3165342 124.7485808  85.4480384  90.3265342 125.6885808  85.0850384
  89.9315342 123.4415808  86.5130384  90.7505342 124.5995808  87.5360384
  91.6645342 122.3625808  87.9790384  92.0235342 122.1255808  86.2880384
  93.3355342 124.1515808  88.1610384  94.0985342 122.7565808  87.4440384
  94.7085342 124.9055808  86.2700384  93.9655342 123.7485808  85.1990384
  92.6015342 126.1435808  86.4980384  92.9875342 125.9925808  84.8010384
  91.4365342 124.0485808  84.6190384  90.2165342 126.3075808  85.8110384
  75.2665342  69.6475808  24.5500384  74.6305342  68.2445808  24.5030384
  75.1735342  67.4045808  23.3280384  75.0695342  68.1485808  21.9800384
  75.7025342  69.5525808  22.0480384  75.1105342  70.3885808  23.2020384
  75.6735342  71.6815808  23.2520384  74.8355342  70.2355808  25.3620384
  76.3285342  69.5345808  24.7810384  74.8065342  67.7235808  25.4460384
  73.5465342  68.3405808  24.4080384  76.2175342  67.1525808  23.5200384
  74.6385342  66.4555808  23.2720384  75.5475342  67.5625808  21.1940384
  74.0205342  68.2375808  21.6960384  76.7775342  69.4355808  22.1970384
  75.5795342  70.0715808  21.0960384  74.0405342  70.4945808  23.0120384
  76.6165342  71.5955808  23.4200384  38.5785342  80.4325808  39.0090384
  37.0835342  80.3345808  39.3720384  36.3145342  79.4125808  38.4030384
  36.5425342  79.7965808  36.9250384  38.0425342  79.8995808  36.5830384
  38.7795342  80.8615808  37.5380384  40.1485342  80.9715808  37.2120384
  39.0905342  81.1225808  39.6830384  39.0335342  79.4525808  39.1670384
  36.9715342  79.9745808  40.3960384  36.6395342  81.3315808  39.3510384
  36.6335342  78.3815808  38.5590384  35.2485342  79.4375808  38.6330384
  36.0605342  79.0685808  36.2730384  36.0585342  80.7525808  36.7210384
  38.4785342  78.9015808  36.6620384  38.1745342  80.2105808  35.5450384
  38.3245342  81.8465808  37.4210384  40.5545342  80.1065808  37.3130384
  87.5325342  21.5195808  60.4360384  86.5235342  20.5505808  61.0850384
  86.9055342  20.2125808  62.5410384  88.3635342  19.7205808  62.6640384
  89.3565342  20.6955808  62.0020384  88.9785342  20.9835808  60.5340384
  89.8995342  21.8595808  59.9200384  87.2635342  21.7085808  59.3960384
  87.4655342  22.4795808  60.9520384  85.5215342  20.9805808  61.0540384
  86.4765342  19.6305808  60.5000384  86.7715342  21.0985808  63.1630384
  86.2245342  19.4585808  62.9380384  88.6225342  19.5815808  63.7150384
  88.4545342  18.7385808  62.1980384  89.3485342  21.6275808  62.5700384
  90.3735342  20.3055808  62.0680384  89.0105342  20.0325808  59.9980384
  89.8765342  22.6995808  60.3880384  89.6625342  41.2105808  29.5880384
  90.5435342  42.4615808  29.7740384  91.7925342  42.1645808  30.6300384
  91.4365342  41.4855808  31.9690384  90.5475342  40.2425808  31.7650384
  89.2835342  40.5755808  30.9450384  88.4585342  39.4415808  30.7760384
  88.7655342  41.4565808  29.0170384  90.2195342  40.4855808  28.9910384
  90.8425342  42.8535808  28.8010384  89.9575342  43.2495808  30.2510384
  92.4675342  41.5175808  30.0670384  92.3435342  43.0875808  30.8160384
  92.3475342  41.2085808  32.5000384  90.9175342  42.1995808  32.6100384
  91.1345342  39.4875808  31.2390384  90.2775342  39.8055808  32.7280384
  88.7185342  41.3215808  31.5070384  88.9505342  38.7805808  30.2810384
 114.4665342  81.5745808 123.9200384 113.9525342  83.0255808 123.8440384
 113.9425342  83.5575808 122.3950384 115.3055342  83.3725808 121.6950384
 115.8085342  81.9185808 121.7900384 115.8515342  81.4255808 123.2510384
 116.3315342  80.1005808 123.3400384 114.5035342  81.2365808 124.9570384
 113.7465342  80.9295808 123.4110384 112.9505342  83.0885808 124.2700384
 114.5845342  83.6675808 124.4600384 113.1725342  83.0345808 121.8260384
 113.6605342  84.6115808 122.3880384 115.2315342  83.6745808 120.6500384
 116.0395342  84.0395808 122.1500384 115.1315342  81.2865808 121.2110384
 116.7905342  81.8245808 121.3230384 116.5445342  82.0725808 123.7920384
 115.7245342  79.5265808 122.8660384 133.3215342  57.2895808  92.5200384
 134.5455342  57.9375808  93.1960384 134.9205342  57.2255808  94.5130384
 133.7165342  57.0915808  95.4690384 132.4995342  56.4505808  94.7740384
 132.1165342  57.2075808  93.4850384 130.9885342  56.6335808  92.8590384
 133.0515342  57.8365808  91.6150384 133.6005342  56.2825808  92.2010384
 135.3965342  57.9295808  92.5130384 134.3325342  58.9885808  93.4020384
 135.3115342  56.2325808  94.2850384 135.7305342  57.7625808  95.0080384
 133.9985342  56.5035808  96.3430384 133.4415342  58.0785808  95.8450384
 132.7525342  55.4175808  94.5290384 131.6505342  56.4045808  95.4590384
 131.8595342  58.2285808  93.7720384 131.2095342  55.7335808  92.6030384
 108.1995342  94.3275808  64.8220384 108.3575342  95.8225808  65.1620384
 109.1985342  96.0375808  66.4370384 108.6745342  95.2105808  67.6300384
 108.5135342  93.7205808  67.2700384 107.6315342  93.5295808  66.0180384
 107.4665342  92.1645808  65.7000384 107.5665342  94.2005808  63.9420384
 109.1825342  93.9315808  64.5550384 108.8135342  96.3495808  64.3220384
 107.3715342  96.2695808  65.2990384 110.2345342  95.7605808  66.2360384
 109.2145342  97.0965808  66.6980384 109.3465342  95.3175808  68.4820384
 107.7115342  95.6105808  67.9530384 109.5055342  93.3055808  67.0840384
 108.1035342  93.1665808  68.1170384 106.6485342  93.9435808  66.2470384
 108.3295342  91.7935808  65.4960384  63.0725342  52.1845808 128.2700384
  61.5665342  52.1875808 128.5990384  60.9175342  53.5585808 128.3110384
  61.6765342  54.7185808 128.9910384  63.1805342  54.6935808 128.6590384
  63.8155342  53.3275808 128.9970384  65.1985342  53.3105808 128.7140384
  63.5155342  51.2185808 128.5210384  63.1875342  52.3045808 127.1910384
  61.0585342  51.4085808 128.0280384  61.4235342  51.9335808 129.6510384
  60.8955342  53.7265808 127.2340384  59.8765342  53.5525808 128.6380384
  61.2435342  55.6725808 128.6890384  61.5425342  54.6535808 130.0720384
  63.2985342  54.8955808 127.5930384  63.6995342  55.4985808 129.1840384
  63.6895342  53.1675808 130.0700384  65.3155342  53.4515808 127.7700384
  71.4555342  33.5945808  66.2960384  70.3945342  32.6365808  66.8750384
  69.4575342  33.3515808  67.8710384  70.2355342  34.1075808  68.9680384
  71.2975342  35.0525808  68.3710384  72.2505342  34.3055808  67.4140384
  73.2365342  35.1655808  66.8840384  72.1315342  33.0565808  65.6290384
  70.9445342  34.3395808  65.6830384  69.8115342  32.1935808  66.0660384
  70.8925342  31.8065808  67.3790384  68.8255342  34.0555808  67.3270384
  68.7795342  32.6275808  68.3270384  69.5435342  34.6725808  69.5930384
  70.7215342  33.3885808  69.6280384  70.7805342  35.8445808  67.8270384
  71.8595342  35.5435808  69.1680384  72.7555342  33.5325808  67.9970384
  72.7975342  35.8485808  66.3700384  87.9275342  86.5215808 128.5120384
  88.0635342  88.0445808 128.7070384  88.4415342  88.4075808 130.1590384
  87.4925342  87.7595808 131.1900384  87.3615342  86.2385808 130.9730384
  86.9395342  85.9035808 129.5270384  86.7985342  84.5125808 129.3340384
  87.6195342  86.2935808 127.4900384  88.9135342  86.0705808 128.6450384
  88.8095342  88.4435808 128.0180384  87.1205342  88.5295808 128.4470384
  89.4635342  88.0815808 130.3560384  88.4405342  89.4915808 130.2830384
  87.8465342  87.9625808 132.2010384  86.5075342  88.2215808 131.1150384
  88.3285342  85.7795808 131.1860384  86.6555342  85.8125808 131.6880384
  85.9665342  86.3675808 129.3570384  87.6535342  84.0985808 129.4820384
  95.1825342  22.3865808  50.7460384  93.7725342  23.0105808  50.7670384
  92.8455342  22.3765808  49.7090384  93.4755342  22.3825808  48.3000384
  94.8875342  21.7635808  48.2990384  95.8075342  22.4455808  49.3340384
  97.1075342  21.8935808  49.3190384  95.8295342  22.8805808  51.4730384
  95.0995342  21.3445808  51.0640384  93.3325342  22.9025808  51.7600384
  93.8485342  24.0845808  50.5850384  92.6215342  21.3485808  49.9980384
  91.8895342  22.9005808  49.6920384  92.8325342  21.8445808  47.6030384
  93.5295342  23.4085808  47.9330384  94.7945342  20.7025808  48.5370384
  95.3255342  21.8175808  47.3010384  95.8855342  23.4975808  49.0560384
  97.0455342  20.9655808  49.5630384  89.7315342  45.7395808 105.2980384
  89.0075342  44.3815808 105.1960384  87.4755342  44.5375808 105.2870384
  87.0425342  45.3495808 106.5260384  87.7825342  46.6985808 106.6160384
  89.3135342  46.5125808 106.5690384  89.9925342  47.7455808 106.6730384
  90.8135342  45.5975808 105.2740384  89.4775342  46.3285808 104.4140384
  89.2775342  43.8845808 104.2630384  89.3525342  43.7255808 105.9980384
  87.1115342  45.0345808 104.3870384  87.0025342  43.5545808 105.3020384
  85.9645342  45.5165808 106.5040384  87.2395342  44.7675808 107.4270384
  87.4645342  47.3185808 105.7760384  87.4875342  47.2335808 107.5210384
  89.5925342  45.9005808 107.4290384  89.7505342  48.2895808 105.9180384
  88.0005342  26.0125808  43.9010384  87.9785342  27.5485808  43.7640384
  89.1605342  28.2095808  44.5040384  89.2625342  27.7465808  45.9730384
  89.2735342  26.2095808  46.0920384  88.0585342  25.5755808  45.3820384
  88.0565342  24.1695808  45.5090384  87.1325342  25.5735808  43.4060384
  88.8795342  25.6345808  43.3760384  87.9965342  27.8285808  42.7090384
  87.0395342  27.9355808  44.1640384  90.0895342  27.9675808  43.9860384
  89.0645342  29.2955808  44.4620384  90.1605342  28.1615808  46.4320384
  88.4205342  28.1475808  46.5380384  90.1945342  25.8395808  45.6380384
  89.3055342  25.9095808  47.1410384  87.1605342  25.9595808  45.8710384
  88.8445342  23.8255808  45.0810384  23.5085342 108.9745808  88.7140384
  23.7055342 108.1685808  90.0140384  24.6585342 108.8825808  90.9950384
  25.9955342 109.2745808  90.3320384  25.7795342 110.0705808  89.0300384
  24.8595342 109.3155808  88.0470384  24.6785342 110.0355808  86.8460384
  22.8655342 108.4295808  88.0210384  22.9815342 109.8985808  88.9620384
  22.7405342 107.9925808  90.4930384  24.1075342 107.1825808  89.7720384
  24.1715342 109.7795808  91.3800384  24.8455342 108.2445808  91.8610384
  26.6005342 109.8555808  91.0280384  26.5685342 108.3725808  90.1130384
  25.3275342 111.0295808  89.2890384  26.7375342 110.2995808  88.5610384
  25.3505342 108.3715808  87.8030384  24.2465342 110.8685808  87.0540384
  36.7425342 104.4855808  37.9270384  36.0435342 105.8155808  37.5800384
  35.4665342 105.8065808  36.1490384  36.5185342 105.3965808  35.0970384
  37.2135342 104.0715808  35.4650384  37.8205342 104.1215808  36.8830384
  38.4755342 102.9145808  37.2120384  37.1775342 104.5335808  38.9270384
  35.9855342 103.6995808  37.9580384  35.2495342 106.0185808  38.3010384
  36.7565342 106.6365808  37.6780384  34.6255342 105.1125808  36.1060384
  35.0605342 106.7895808  35.9060384  36.0505342 105.3125808  34.1160384
  37.2675342 106.1855808  35.0080384  36.4715342 103.2725808  35.4140384
  37.9795342 103.8255808  34.7270384  38.5645342 104.9205808  36.8890384
  37.8265342 102.2065808  37.2080384  94.9995342 119.7505808  48.5550384
  93.7745342 120.4235808  49.2050384  94.1225342 121.8085808  49.7910384
  95.3405342 121.7535808  50.7370384  96.5525342 121.0695808  50.0740384
  96.1905342 119.6685808  49.5360384  97.3055342 119.0325808  48.9470384
  94.7385342 118.7565808  48.1860384  95.2885342 120.3375808  47.6800384
  92.9705342 120.5205808  48.4730384  93.3865342 119.7825808  49.9980384
  94.3305342 122.5015808  48.9750384  93.2585342 122.2145808  50.3200384
  95.6105342 122.7615808  51.0550384  95.0705342 121.2125808  51.6440384
  96.8915342 121.7005808  49.2500384  97.3855342 121.0085808  50.7760384
  95.8705342 119.0665808  50.3880384  97.5925342 119.5585808  48.1960384
  82.5265342  17.5785808  92.0780384  82.6345342  16.0405808  92.0750384
  81.4645342  15.3795808  92.8340384  81.2845342  15.9595808  94.2530384
  81.1885342  17.4975808  94.2370384  82.3925342  18.1365808  93.5130384
  82.3145342  19.5465808  93.5170384  83.3865342  18.0225808  91.5730384
  81.6465342  17.8605808  91.4950384  82.6695342  15.6715808  91.0490384
  83.5785342  15.7425808  92.5360384  80.5425342  15.5235808  92.2680384
  81.6195342  14.3015808  92.8890384  80.3945342  15.5355808  94.7180384
  82.1265342  15.6565808  94.8770384  80.2655342  17.7765808  93.7250384
  81.1025342  17.8845808  95.2540384  83.2915342  17.8475808  94.0600384
  81.5245342  19.8075808  93.0360384  92.1495342  40.6435808 102.6500384
  90.7375342  41.2365808 102.8300384  89.7105342  40.5735808 101.8890384
  90.1745342  40.5815808 100.4170384  91.5895342  39.9935808 100.2580384
  92.6075342  40.7035808 101.1760384  93.9085342  40.1795808 101.0140384
  92.8645342  41.1575808 103.2950384  92.1275342  39.6025808 102.9820384
  90.4175342  41.1285808 103.8680384  90.7685342  42.3105808 102.6340384
  89.5435342  39.5435808 102.2080384  88.7465342  41.0775808 101.9780384
  89.4675342  40.0245808  99.8010384  90.1625342  41.6055808 100.0400384
  91.5485342  38.9325808 100.5110384  91.9085342  40.0485808  99.2150384
  92.6295342  41.7555808 100.8840384  93.8955342  39.2535808 101.2700384
  45.5595342 118.0685808  44.8940384  45.7815342 119.5925808  44.8290384
  46.9505342 120.0435808  45.7290384  46.8085342 119.5255808  47.1760384
  46.5785342 118.0025808  47.2210384  45.3765342 117.5825808  46.3500384
  45.1525342 116.1895808  46.4080384  44.7025342 117.7805808  44.2830384
  46.4305342 117.5775808  44.4540384  45.9655342 119.8985808  43.7980384
  44.8685342 120.1055808  45.1380384  47.8885342 119.6795808  45.3080384
  47.0215342 121.1325808  45.7280384  47.6965342 119.7865808  47.7530384
  45.9735342 120.0325808  47.6610384  47.4825342 117.5105808  46.8580384
  46.4415342 117.6695808  48.2520384  44.4935342 118.0825808  46.7510384
  45.9275342 115.7435808  46.0550384  65.0955342  36.3415808 120.6920384
  64.3525342  35.5255808 121.7690384  64.2885342  36.2745808 123.1160384
  65.6795342  36.7505808 123.5880384  66.4115342  37.5555808 122.4960384
  66.5015342  36.7675808 121.1720384  67.1905342  37.4955808 120.1780384
  65.1635342  35.7735808 119.7630384  64.5035342  37.2315808 120.4670384
  63.3435342  35.2895808 121.4260384  64.8565342  34.5675808 121.9100384
  63.6285342  37.1375808 123.0170384  63.8375342  35.6345808 123.8760384
  65.5795342  37.3525808 124.4910384  66.2825342  35.8845808 123.8660384
  65.8615342  38.4835808 122.3310384  67.4065342  37.8445808 122.8400384
  67.0665342  35.8555808 121.3740384  66.6975342  38.3005808 119.9960384
  38.9485342  61.7965808  48.5700384  38.2495342  60.6115808  47.8740384
  36.9275342  61.0375808  47.2010384  35.9935342  61.7925808  48.1710384
  36.7125342  62.9675808  48.8630384  38.0065342  62.5075808  49.5670384
  38.6535342  63.5795808  50.2190384  39.8575342  61.4615808  49.0730384
  39.2655342  62.5055808  47.8010384  38.9175342  60.1665808  47.1360384
  38.0455342  59.8295808  48.6090384  37.1505342  61.6775808  46.3460384
  36.4175342  60.1615808  46.7990384  35.1165342  62.1565808  47.6350384
  35.6215342  61.0995808  48.9270384  36.9555342  63.7135808  48.1040384
  36.0425342  63.4585808  49.5710384  37.7215342  61.7755808  50.3240384
  38.9075342  64.2285808  49.5570384  30.9415342 103.9545808 102.9640384
  30.0415342 103.1455808 103.9190384  29.2145342 104.0615808 104.8450384
  30.0935342 105.0905808 105.5880384  30.9925342 105.8825808 104.6190384
  31.8425342 104.9455808 103.7350384  32.6825342 105.6705808 102.8630384
  31.5465342 103.2845808 102.3510384  30.2995342 104.5085808 102.2760384
  29.3765342 102.4975808 103.3450384  30.6605342 102.4815808 104.5260384
  28.4655342 104.5895808 104.2520384  28.6595342 103.4585808 105.5650384
  29.4645342 105.7755808 106.1570384  30.7155342 104.5725808 106.3190384
  30.3515342 106.4985808 103.9850384  31.6315342 106.5735808 105.1720384
  32.4765342 104.3575808 104.4020384  32.1295342 106.1905808 102.2730384
 132.4235342  68.0885808  87.2110384 133.6795342  67.1985808  87.2990384
 133.5885342  66.1865808  88.4600384 133.2465342  66.8655808  89.8030384
 131.9945342  67.7575808  89.6940384 132.1285342  68.7905808  88.5550384
 130.9905342  69.6215808  88.4680384 132.5315342  68.8215808  86.4100384
 131.5755342  67.4555808  86.9380384 133.8305342  66.6715808  86.3560384
 134.5605342  67.8285808  87.4370384 132.8245342  65.4435808  88.2280384
 134.5275342  65.6375808  88.5490384 133.0995342  66.1105808  90.5750384
 134.0945342  67.4705808  90.1290384 131.1335342  67.1135808  89.5020384
 131.7985342  68.2565808  90.6440384 132.9885342  69.4205808  88.7880384
 130.2295342  69.0715808  88.2620384  39.8255342  53.1265808  65.6930384
  40.9115342  54.1295808  65.2570384  42.1865342  54.0075808  66.1170384
  41.8825342  54.0825808  67.6280384  40.7885342  53.0805808  68.0440384
  39.5075342  53.2525808  67.2000384  38.4975342  52.3485808  67.5960384
  38.9195342  53.2615808  65.0980384  40.1865342  52.1175808  65.4810384
  41.1565342  53.9785808  64.2040384  40.5185342  55.1455808  65.3340384
  42.6795342  53.0595808  65.8960384  42.8965342  54.7885808  65.8410384
  42.7925342  53.8995808  68.2000384  41.5635342  55.0945808  67.8830384
  41.1815342  52.0705808  67.9090384  40.5645342  53.1825808  69.1080384
  39.1395342  54.2655808  67.3720384  38.8165342  51.4545808  67.4470384
  87.7355342  63.7775808 136.6770384  89.2365342  63.6505808 136.3510384
  89.9895342  64.9795808 136.5760384  89.3205342  66.1615808 135.8430384
  87.8185342  66.2675808 136.1730384  87.0805342  64.9405808 135.8970384
  85.7015342  65.0425808 136.1790384  87.2195342  62.8385808 136.4690384
  87.6325342  63.9565808 137.7500384  89.6845342  62.8615808 136.9580384
  89.3575342  63.3385808 135.3120384  90.0265342  65.1945808 137.6450384
  91.0255342  64.8785808 136.2520384  89.8255342  67.0935808 136.1020384
  89.4475342  66.0375808 134.7670384  87.7195342  66.5275808 137.2290384
  87.3635342  67.0845808 135.6120384  87.1925342  64.7225808 134.8330384
  85.5965342  65.2345808 137.1150384  78.9175342  99.4265808 124.1840384
  78.9845342  99.0905808 122.6810384  78.1615342 100.0825808 121.8320384
  76.7125342 100.2285808 122.3440384  76.6655342 100.5545808 123.8490384
  77.4575342  99.5225808 124.6800384  77.3965342  99.8085808 126.0610384
  79.4725342  98.6875808 124.7650384  79.4195342 100.3835808 124.3430384
  80.0235342  99.0865808 122.3460384  78.6105342  98.0785808 122.5180384
  78.6485342 101.0595808 121.8480384  78.1575342  99.7645808 120.7890384
  76.1945342 101.0035808 121.7780384  76.1685342  99.3015808 122.1560384
  77.0935342 101.5475808 123.9970384  75.6305342 100.6115808 124.1930384
  76.9935342  98.5485808 124.5170384  77.8045342 100.6655808 126.2120384
  56.5205342  50.3985808 118.7730384  56.3335342  48.8865808 119.0070384
  57.1015342  48.0425808 117.9680384  56.7775342  48.4635808 116.5190384
  56.9615342  49.9785808 116.3060384  56.1485342  50.8005808 117.3280384
  56.2995342  52.1885808 117.1200384  55.9345342  50.9715808 119.4930384
  57.5675342  50.6465808 118.9610384  56.6585342  48.6215808 120.0150384
  55.2705342  48.6405808 118.9580384  58.1735342  48.1485808 118.1420384
  56.8755342  46.9845808 118.1080384  57.4075342  47.9105808 115.8210384
  55.7495342  48.1865808 116.2830384  58.0225342  50.2115808 116.4120384
  56.6885342  50.2555808 115.2860384  55.0955342  50.5505808 117.1820384
  57.2245342  52.4145808 117.2480384  81.8335342 107.5275808 127.9010384
  81.1945342 107.9425808 126.5610384  82.1025342 107.6025808 125.3610384
  83.5335342 108.1565808 125.5340384  84.1515342 107.7395808 126.8820384
  83.2465342 108.1305808 128.0690384  83.8215342 107.7675808 129.3060384
  81.1915342 107.8165808 128.7350384  81.8985342 106.4375808 127.9260384
  80.2245342 107.4565808 126.4440384  80.9955342 109.0155808 126.5710384
  82.1495342 106.5185808 125.2410384  81.6625342 107.9895808 124.4410384
  84.1655342 107.8165808 124.7130384  83.5095342 109.2445808 125.4670384
  84.2925342 106.6565808 126.8730384  85.1455342 108.1765808 126.9960384
  83.1405342 109.2165808 128.0520384  83.9175342 106.8115808 129.3270384
  80.6445342 128.6795808 116.2110384  80.1635342 127.2155808 116.1780384
  81.2675342 126.2575808 115.6820384  81.8765342 126.7135808 114.3380384
  82.3425342 128.1815808 114.3870384  81.2085342 129.1235808 114.8420384
  81.6295342 130.4715808 114.8660384  79.8345342 129.3405808 116.5240384
  81.4245342 128.7665808 116.9710384  79.8255342 126.9115808 117.1700384
  79.2935342 127.1345808 115.5230384  82.0565342 126.2005808 116.4320384
  80.8675342 125.2475808 115.5850384  82.7115342 126.0655808 114.0700384
  81.1355342 126.5945808 113.5460384  83.1775342 128.2505808 115.0870384
  82.7315342 128.4895808 113.4140384  80.4015342 129.0365808 114.1130384
  82.3405342 130.5555808 115.5070384  35.9045342 121.3475808  65.4440384
  34.5375342 121.3225808  66.1560384  34.1215342 119.8905808  66.5540384
  34.1895342 118.9095808  65.3650384  35.5595342 118.9545808  64.6600384
  35.9325342 120.3895808  64.2320384  37.1775342 120.4285808  63.5680384
  36.1555342 122.3635808  65.1360384  36.6695342 121.0455808  66.1630384
  34.5655342 121.9615808  67.0400384  33.7785342 121.7495808  65.4970384
  34.7755342 119.5355808  67.3510384  33.1135342 119.8995808  66.9720384
  33.9795342 117.8955808  65.7070384  33.4055342 119.1555808  64.6470384
  36.3125342 118.5745808  65.3540384  35.5675342 118.2825808  63.8010384
  35.1665342 120.7285808  63.5320384  37.8565342 120.1315808  64.1800384
  50.5315342  75.3425808  31.9060384  50.2225342  74.0795808  32.7340384
  49.9355342  74.4165808  34.2120384  51.0475342  75.2815808  34.8420384
  51.3495342  76.5335808  33.9970384  51.6775342  76.1675808  32.5340384
  51.9755342  77.3135808  31.7640384  50.7725342  75.0745808  30.8760384
  49.6265342  75.9525808  31.8620384  49.3735342  73.5485808  32.3010384
  51.0695342  73.3925808  32.6770384  48.9845342  74.9465808  34.2810384
  49.8105342  73.4955808  34.7850384  50.7635342  75.5735808  35.8530384
  51.9555342  74.6855808  34.9440384  50.4715342  77.1815808  34.0220384
  52.1655342  77.1055808  34.4420384  52.5655342  75.5325808  32.5490384
  51.1965342  77.8765808  31.7460384 119.3125342 103.8965808  77.1200384
 120.7335342 103.7385808  77.6970384 120.8465342 104.3295808  79.1180384
 120.3345342 105.7835808  79.1900384 118.9175342 105.9235808  78.6010384
 118.8405342 105.3675808  77.1630384 117.5485342 105.5145808  76.6150384
 119.2695342 103.5095808  76.1010384 118.6325342 103.2795808  77.7130384
 121.0165342 102.6855808  77.7080384 121.4485342 104.2375808  77.0400384
 120.2725342 103.7115808  79.8100384 121.8825342 104.2825808  79.4580384
 120.3445342 106.1315808  80.2230384 121.0195342 106.4355808  78.6450384
 118.2265342 105.3735808  79.2420384 118.5965342 106.9665808  78.6270384
 119.5335342 105.9485808  76.5520384 116.9335342 105.0045808  77.1490384
  99.3965342 114.5265808 112.8130384 100.0645342 113.2975808 113.4610384
 101.5925342 113.4705808 113.5840384 102.2465342 113.8615808 112.2410384
 101.5605342 115.0855808 111.6030384 100.0395342 114.8705808 111.4510384
  99.4135342 115.9825808 110.8470384  98.3235342 114.3615808 112.6990384
  99.5085342 115.3745808 113.4920384  99.6305342 113.1135808 114.4460384
  99.8465342 112.4095808 112.8640384 101.8085342 114.2395808 114.3260384
 102.0415342 112.5505808 113.9620384 103.3075342 114.0645808 112.3890384
 102.1925342 113.0165808 111.5530384 101.7435342 115.9505808 112.2430384
 102.0145342 115.3155808 110.6380384  99.8975342 114.0075808 110.7970384
  99.5355342 116.7455808 111.4180384  92.8885342  76.5175808 129.7110384
  94.2835342  75.8675808 129.8020384  94.3035342  74.6855808 130.7950384
  93.7385342  75.0735808 132.1780384  92.3485342  75.7305808 132.0660384
  92.3645342  76.9365808 131.1030384  91.0965342  77.5515808 131.0170384
  92.9105342  77.3755808 129.0360384  92.2015342  75.7935808 129.2670384
  94.6025342  75.5295808 128.8150384  95.0125342  76.6165808 130.1170384
  93.7175342  73.8625808 130.3850384  95.3215342  74.3085808 130.9020384
  93.6835342  74.1925808 132.8180384  94.4255342  75.7625808 132.6700384
  91.6455342  74.9805808 131.7000384  91.9895342  76.0305808 133.0530384
  93.0665342  77.6665808 131.5090384  90.4735342  76.9125808 130.6600384
 101.1255342 120.8705808  79.9480384 101.4635342 122.3595808  79.7310384
 100.3565342 123.0915808  78.9430384  99.9975342 122.3675808  77.6280384
  99.6725342 120.8795808  77.8630384 100.8135342 120.1585808  78.6120384
 100.5255342 118.7905808  78.8080384 101.9415342 120.3665808  80.4690384
 100.2555342 120.8095808  80.6040384 101.6215342 122.8485808  80.6930384
 102.4075342 122.4415808  79.1900384  99.4645342 123.1695808  79.5660384
 100.6685342 124.1155808  78.7310384  99.1525342 122.8625808  77.1500384
 100.8315342 122.4505808  76.9300384  98.7555342 120.8195808  78.4510384
  99.4625342 120.3825808  76.9140384 101.7065342 120.2285808  77.9890384
  99.7395342 118.7215808  79.3570384 105.9015342  81.1405808 128.6050384
 106.3015342  82.6205808 128.7740384 106.4555342  83.0085808 130.2600384
 105.2135342  82.6315808 131.0950384 104.8225342  81.1525808 130.9060384
 104.6305342  80.7995808 129.4160384 104.2515342  79.4505808 129.2440384
 105.7575342  80.9025808 127.5500384 106.7305342  80.5205808 128.9520384
 107.2325342  82.8175808 128.2390384 105.5455342  83.2555808 128.3100384
 107.3325342  82.5085808 130.6730384 106.6495342  84.0785808 130.3450384
 105.3975342  82.8365808 132.1500384 104.3755342  83.2675808 130.8050384
 105.6165342  80.5335808 131.3280384 103.9195342  80.9225808 131.4750384
 103.8235342  81.4275808 129.0350384 104.9585342  78.8925808 129.5780384
  66.7755342 115.0225808  72.3750384  66.2845342 116.1075808  73.3540384
  64.7445342 116.1475808  73.4460384  64.0785342 116.2555808  72.0570384
  64.5885342 115.1695808  71.0900384  66.1275342 115.1795808  70.9810384
  66.5935342 114.1995808  70.0790384  67.8635342 115.0435808  72.2970384
  66.5145342 114.0455808  72.7890384  66.7115342 115.9375808  74.3440384
  66.6525342 117.0825808  73.0290384  64.3915342 115.2435808  73.9440384
  64.4315342 116.9815808  74.0750384  62.9955342 116.1865808  72.1580384
  64.2815342 117.2405808  71.6350384  64.2555342 114.1985808  71.4610384
  64.1325342 115.2935808  70.1050384  66.4195342 116.1585808  70.5950384
  66.3395342 113.3345808  70.4130384 101.2725342 124.3455808 103.4330384
 101.0455342 123.8295808 101.9980384 101.3725342 122.3275808 101.8680384
 102.7785342 121.9855808 102.4060384 102.9895342 122.5165808 103.8380384
 102.6995342 124.0295808 103.9320384 102.9135342 124.5205808 105.2380384
 101.0745342 125.4175808 103.4880384 100.5435342 123.8635808 104.0880384
 100.0145342 124.0135808 101.6940384 101.6715342 124.3965808 101.3060384
 100.6275342 121.7485808 102.4150384 101.2885342 122.0175808 100.8250384
 102.9335342 120.9065808 102.3830384 103.5335342 122.4145808 101.7460384
 102.3175342 121.9745808 104.5050384 104.0035342 122.2975808 104.1790384
 103.3975342 124.5365808 103.2630384 102.3015342 124.0785808 105.8320384
  62.5725342 131.7405808  93.3630384  61.1195342 132.1835808  93.1010384
  60.2205342 130.9965808  92.6960384  60.8145342 130.1855808  91.5250384
  62.2695342 129.7595808  91.8010384  63.1585342 130.9695808  92.1590384
  64.4965342 130.5825808  92.3910384  63.1965342 132.6035808  93.6060384
  62.5795342 131.0965808  94.2450384  60.7135342 132.6735808  93.9870384
  61.1065342 132.9335808  92.3080384  60.0845342 130.3395808  93.5560384
  59.2255342 131.3585808  92.4320384  60.1985342 129.3065808  91.3320384
  60.7785342 130.7855808  90.6140384  62.2655342 129.0515808  92.6310384
  62.6775342 129.2235808  90.9420384  63.1465342 131.6455808  91.3020384
  64.5125342 129.9865808  93.1450384  23.2995342  54.3215808  87.8710384
  22.2495342  53.2005808  87.7390384  21.0705342  53.3985808  88.7130384
  21.5415342  53.6015808  90.1690384  22.5965342  54.7185808  90.2810384
  23.7875342  54.4745808  89.3300384  24.7645342  55.4865808  89.4470384
  24.1425342  54.1365808  87.2030384  22.8445342  55.2575808  87.5400384
  21.8815342  53.1545808  86.7130384  22.7225342  52.2365808  87.9340384
  20.4875342  54.2665808  88.4000384  20.3945342  52.5445808  88.6570384
  20.6875342  53.8295808  90.8080384  21.9605342  52.6675808  90.5470384
  22.1175342  55.6665808  90.0290384  22.9425342  54.8145808  91.3120384
  24.2465342  53.5275808  89.6200384  24.3665342  56.3235808  89.1920384
  67.8715342 127.8095808  84.9430384  66.3815342 127.4135808  84.9510384
  65.5895342 128.1725808  86.0360384  66.2425342 128.0515808  87.4290384
  67.7335342 128.4425808  87.4000384  68.5125342 127.6385808  86.3390384
  69.8825342 127.9805808  86.3270384  68.4175342 127.2295808  84.1970384
  67.9455342 128.8555808  84.6350384  65.9415342 127.5995808  83.9690384
  66.2935342 126.3385808  85.1230384  65.5225342 129.2255808  85.7600384
  64.5635342 127.8035808  86.0720384  65.7075342 128.6755808  88.1460384
  66.1435342 127.0265808  87.7870384  67.8015342 129.5085808  87.1730384
  68.1795342 128.3105808  88.3880384  68.4315342 126.5835808  86.6070384
  69.9605342 128.9095808  86.0910384 114.3495342  78.8895808 105.3120384
 114.9485342  80.1915808 104.7450384 115.0505342  81.2945808 105.8190384
 113.7105342  81.5265808 106.5490384 113.1225342  80.2135808 107.1010384
 112.9885342  79.1415808 105.9990384 112.4295342  77.9455808 106.4990384
 114.2485342  78.1415808 104.5250384 115.0535342  78.4785808 106.0400384
 115.9335342  79.9945808 104.3190384 114.3275342  80.5475808 103.9200384
 115.8135342  81.0165808 106.5480384 115.3925342  82.2255808 105.3650384
 113.8475342  82.2435808 107.3600384 112.9975342  81.9815808 105.8600384
 113.7855342  79.8465808 107.8870384 112.1575342  80.3995808 107.5760384
 112.3105342  79.5385808 105.2410384 113.0225342  77.5905808 107.1680384
  38.6905342  69.9615808  58.1100384  38.3825342  70.3655808  59.5650384
  38.1215342  69.1355808  60.4610384  37.0515342  68.1955808  59.8670384
  37.3715342  67.8095808  58.4090384  37.5825342  69.0565808  57.5240384
  37.8545342  68.7035808  56.1840384  38.8285342  70.8475808  57.4890384
  39.6415342  69.4245808  58.0980384  39.2065342  70.9535808  59.9710384
  37.5075342  71.0175808  59.5830384  39.0535342  68.5835808  60.5920384
  37.8205342  69.4605808  61.4580384  36.9645342  67.2975808  60.4800384
  36.0775342  68.6845808  59.9070384  38.2785342  67.2035808  58.4080384
  36.5795342  67.1785808  58.0010384  36.6535342  69.6275808  57.5410384
  38.6725342  68.2005808  56.1630384  71.2345342  27.6725808  69.4380384
  72.4125342  27.4865808  68.4600384  73.7675342  27.8065808  69.1250384
  73.7735342  29.1925808  69.8060384  72.5835342  29.3625808  70.7710384
  71.2375342  29.0815808  70.0710384  70.1465342  29.2585808  70.9500384
  70.2855342  27.4815808  68.9320384  71.3215342  26.9195808  70.2250384
  72.4185342  26.4665808  68.0740384  72.2715342  28.1375808  67.5950384
  73.9925342  27.0405808  69.8680384  74.5665342  27.7525808  68.3840384
  74.7115342  29.3405808  70.3410384  73.7345342  29.9705808  69.0420384
  72.7155342  28.6655808  71.6010384  72.5885342  30.3635808  71.2070384
  71.1365342  29.8035808  69.2590384  70.2295342  28.6245808  71.6680384
  94.8025342  82.9805808 120.7500384  94.5475342  84.3895808 120.1810384
  94.0515342  85.3685808 121.2660384  92.8395342  84.8135808 122.0440384
  93.1095342  83.4005808 122.5980384  93.5605342  82.4305808 121.4860384
  93.7875342  81.1305808 121.9890384  95.1115342  82.2985808 119.9560384
  95.6415342  83.0405808 121.4480384  95.4575342  84.7755808 119.7190384
  93.8055342  84.3295808 119.3820384  94.8645342  85.5715808 121.9650384
  93.7965342  86.3275808 120.8130384  92.5795342  85.4895808 122.8590384
  91.9695342  84.7845808 121.3860384  93.8915342  83.4755808 123.3560384
  92.2245342  83.0165808 123.1080384  92.7495342  82.3725808 120.7570384
  94.5005342  81.1745808 122.6310384  83.4235342 118.5485808  53.4850384
  82.9545342 117.2965808  54.2540384  81.6345342 117.5485808  55.0120384
  81.7045342 118.8025808  55.9080384  82.1845342 120.0415808  55.1260384
  83.5275342 119.7795808  54.4130384  83.9785342 120.9195808  53.7140384
  84.3785342 118.3575808  52.9930384  82.7025342 118.7525808  52.6910384
  82.8335342 116.4595808  53.5640384  83.7275342 116.9955808  54.9630384
  80.8235342 117.6655808  54.2920384  81.3795342 116.6745808  55.6140384
  80.7275342 118.9975808  56.3520384  82.3835342 118.6155808  56.7410384
  81.4225342 120.2935808  54.3860384  82.2635342 120.9035808  55.7910384
  84.2635342 119.5445808  55.1840384  83.3335342 121.1315808  53.0330384
  70.3215342 124.9165808 111.2220384  68.9815342 125.5955808 111.5690384
  69.1775342 126.8215808 112.4840384  70.0165342 126.4895808 113.7360384
  71.3475342 125.8035808 113.3700384  71.1215342 124.5545808 112.4930384
  72.3385342 123.9135808 112.1750384  70.1515342 124.0285808 110.6100384
  70.9055342 125.6065808 110.6090384  68.4655342 125.8915808 110.6540384
  68.3275342 124.8745808 112.0650384  69.6705342 127.6145808 111.9200384
  68.2065342 127.2215808 112.7820384  70.2105342 127.3995808 114.3060384
  69.4415342 125.8365808 114.3940384  71.9635342 126.5235808 112.8280384
  71.9015342 125.5445808 114.2740384  70.5145342 123.8565808 113.0720384
  72.8785342 124.5235808 111.6650384  54.7155342 102.0185808 102.3090384
  53.1875342 102.2245808 102.2640384  52.6805342 102.4575808 100.8250384
  53.4525342 103.5845808 100.1080384  54.9775342 103.3675808 100.1710384
  55.4665342 103.1825808 101.6230384  56.8655342 103.0045808 101.6830384
  55.0535342 101.8985808 103.3400384  54.9495342 101.0835808 101.7960384
  52.6825342 101.3625808 102.7020384  52.9195342 103.0815808 102.8850384
  52.7815342 101.5325808 100.2550384  51.6145342 102.6875808 100.8410384
  53.1285342 103.6545808  99.0690384  53.2045342 104.5425808 100.5670384
  55.2185342 102.4765808  99.5890384  55.4995342 104.1975808  99.6920384
  55.2185342 104.0955808 102.1680384  57.0895342 102.2015808 101.2050384
  34.8285342  34.8185808  75.9250384  34.0355342  35.8705808  76.7260384
  34.9585342  36.9475808  77.3330384  36.1185342  36.3335808  78.1460384
  36.8935342  35.2775808  77.3330384  35.9545342  34.1875808  76.7740384
  36.6665342  33.2085808  76.0480384  34.1585342  34.0465808  75.5420384
  35.2635342  35.3095808  75.0520384  33.2865342  36.3395808  76.0860384
  33.4815342  35.3755808  77.5260384  35.3685342  37.5625808  76.5310384
  34.3785342  37.6215808  77.9650384  36.7975342  37.1195808  78.4780384
  35.7215342  35.8735808  79.0520384  37.3955342  35.7845808  76.5070384
  37.6805342  34.8305808  77.9430384  35.4825342  33.6965808  77.6280384
  37.0845342  33.6345808  75.2950384  45.0895342  69.4255808  89.1040384
  46.5475342  69.6455808  89.5540384  47.4525342  68.4535808  89.1770384
  46.8775342  67.1055808  89.6620384  45.4175342  66.9075808  89.2110384
  44.5245342  68.0905808  89.6390384  43.1825342  67.9005808  89.2450384
  44.4635342  70.2615808  89.4190384  45.0665342  69.4175808  88.0120384
  46.9395342  70.5645808  89.1150384  46.5745342  69.7915808  90.6360384
  47.5725342  68.4235808  88.0930384  48.4525342  68.6015808  89.5880384
  47.4955342  66.2845808  89.2970384  46.9295342  67.0615808  90.7510384
  45.4065342  66.8175808  88.1230384  45.0235342  65.9675808  89.6000384
  44.5505342  68.1405808  90.7290384  43.1515342  67.8565808  88.2850384
 121.6415342  45.9155808  56.1540384 121.8285342  46.8005808  54.9050384
 121.7705342  45.9765808  53.6020384 122.7365342  44.7725808  53.6270384
 122.5415342  43.9055808  54.8860384 122.6495342  44.7445808  56.1770384
 122.4925342  43.9475808  57.3320384 121.7295342  46.5145808  57.0620384
 120.6235342  45.5195808  56.1430384 121.0685342  47.5825808  54.8860384
 122.7905342  47.3145808  54.9660384 120.7515342  45.6165808  53.4500384
 121.9955342  46.6165808  52.7480384 122.5985342  44.1665808  52.7320384
 123.7655342  45.1345808  53.5920384 121.5545342  43.4445808  54.8330384
 123.2635342  43.0865808  54.8990384 123.6515342  45.1775808  56.2010384
 121.6115342  43.5635808  57.3170384  94.9575342 125.0925808  72.6510384
  95.8325342 125.8305808  71.6180384  95.3495342 125.5855808  70.1740384
  95.1955342 124.0825808  69.8550384  94.3265342 123.3595808  70.9030384
  94.8555342 123.5835808  72.3350384  94.0725342 122.9045808  73.2930384
  95.3455342 125.2485808  73.6590384  93.9595342 125.5365808  72.6320384
  95.8395342 126.9005808  71.8320384  96.8675342 125.4965808  71.7150384
  94.3905342 126.0835808  70.0260384  96.0415342 126.0465808  69.4670384
  94.7655342 123.9545808  68.8620384  96.1815342 123.6175808  69.8200384
  93.3085342 123.7465808  70.8260384  94.2665342 122.2935808  70.6770384
  95.8665342 123.1735808  72.3750384  93.1805342 123.2605808  73.2630384
  98.0305342  84.3075808  37.7420384  96.9005342  85.2665808  38.1660384
  96.8875342  85.5015808  39.6910384  96.8725342  84.1785808  40.4870384
  98.0025342  83.2295808  40.0440384  97.9675342  82.9745808  38.5220384
  98.9895342  82.0875808  38.1180384  97.9925342  84.1245808  36.6670384
  98.9875342  84.7975808  37.9380384  97.0045342  86.2185808  37.6440384
  95.9395342  84.8535808  37.8550384  97.7675342  86.0805808  39.9730384
  96.0245342  86.1095808  39.9650384  96.9575342  84.3855808  41.5540384
  95.9095342  83.6845808  40.3500384  98.9575342  83.6845808  40.3150384
  97.9455342  82.2875808  40.5920384  97.0075342  82.5085808  38.2930384
  99.8385342  82.4925808  38.3170384  40.6315342  34.4785808  85.0810384
  39.5035342  33.9835808  86.0080384  39.4385342  34.7925808  87.3200384
  40.8055342  34.8595808  88.0340384  41.9225342  35.3465808  87.0910384
  41.9965342  34.4945808  85.8060384  43.0335342  34.9275808  84.9520384
  40.6835342  33.8645808  84.1810384  40.3845342  35.4895808  84.7510384
  38.5445342  34.0385808  85.4890384  39.6615342  32.9285808  86.2400384
  39.0975342  35.8055808  87.1010384  38.6915342  34.3595808  87.9870384
  40.7395342  35.5145808  88.9030384  41.0615342  33.8705808  88.4180384
  41.7165342  36.3865808  86.8270384  42.8845342  35.3465808  87.6080384
  42.2155342  33.4685808  86.1090384  42.8455342  35.8305808  84.6810384
  30.5635342  42.6755808  88.9660384  30.7365342  43.5475808  90.2260384
  31.6345342  44.7735808  89.9590384  32.9835342  44.3815808  89.3180384
  32.7915342  43.5035808  88.0660384  31.9275342  42.2605808  88.3700384
  31.7685342  41.4445808  87.2290384  29.9595342  41.7945808  89.1920384
  30.0035342  43.2515808  88.2260384  29.7605342  43.8735808  90.5910384
  31.1735342  42.9465808  91.0260384  31.1105342  45.4655808  89.2980384
  31.8085342  45.3165808  90.8890384  33.5475342  45.2785808  89.0600384
  33.5885342  43.8435808  90.0490384  32.3045342  44.1065808  87.2980384
  33.7585342  43.2075808  87.6570384  32.4515342  41.6785808  89.1310384
  31.3075342  41.9515808  86.5560384 110.2775342  80.8585808 127.9450384
 110.2775342  79.3485808 128.2530384 111.6325342  78.6915808 127.9140384
 112.0905342  79.0035808 126.4740384 112.0745342  80.5165808 126.1810384
 110.6965342  81.1415808 126.4850384 110.6755342  82.5235808 126.1970384
 109.2965342  81.2905808 128.1530384 110.9795342  81.3465808 128.6250384
 110.0355342  79.1815808 129.3040384 109.4865342  78.8615808 127.6790384
 112.3885342  79.0465808 128.6160384 111.5685342  77.6125808 128.0590384
 113.0895342  78.6015808 126.3050384 111.4355342  78.4915808 125.7670384
 112.8355342  80.9925808 126.8040384 112.3635342  80.7065808 125.1460384
 109.9675342  80.6515808 125.8360384 111.3155342  82.9605808 126.7650384
  38.3455342  76.3405808 121.4260384  39.7735342  76.8335808 121.1200384
  40.1335342  76.6655808 119.6290384  39.8815342  75.2285808 119.1240384
  38.4525342  74.7495808 119.4470384  38.1325342  74.8855808 120.9500384
  36.8315342  74.4265808 121.2500384  38.1305342  76.4305808 122.4920384
  37.6395342  76.9975808 120.9120384  39.8775342  77.8795808 121.4130384
  40.4875342  76.2765808 121.7300384  39.5425342  77.3635808 119.0360384
  41.1775342  76.9385808 119.4660384  40.0585342  75.1755808 118.0500384
  40.6025342  74.5515808 119.5840384  37.7515342  75.3545808 118.8690384
  38.3135342  73.7185808 119.1160384  38.8435342  74.2585808 121.4920384
  36.1995342  74.9745808 120.7760384 103.9095342  83.4765808  91.3580384
 102.5445342  84.0615808  90.9420384 101.9095342  83.2715808  89.7780384
 102.8755342  83.1115808  88.5850384 104.2365342  82.5355808  89.0200384
 104.8715342  83.3685808  90.1530384 106.1285342  82.8535808  90.5380384
 104.3555342  84.0775808  92.1520384 103.7415342  82.4835808  91.7790384
 101.8675342  84.0725808  91.7980384 102.6725342  85.1045808  90.6440384
 101.6125342  82.2845808  90.1350384 100.9925342  83.7645808  89.4520384
 102.4255342  82.4715808  87.8250384 103.0275342  84.0825808  88.1110384
 104.0785342  81.5115808  89.3650384 104.9125342  82.4705808  88.1650384
 105.0245342  84.3785808  89.7680384 105.9995342  81.9645808  90.8790384
  68.3525342  34.6015808  81.3840384  68.5075342  35.9785808  82.0590384
  68.5165342  37.1265808  81.0280384  69.5495342  36.8975808  79.9050384
  69.3865342  35.5125808  79.2480384  69.4255342  34.3785808  80.2940384
  69.2975342  33.1085808  79.6910384  68.3925342  33.8045808  82.1290384
  67.3595342  34.5515808  80.9310384  67.7035342  36.1315808  82.7810384
  69.4365342  35.9995808  82.6310384  67.5225342  37.2225808  80.5880384
  68.7165342  38.0745808  81.5300384  69.4595342  37.6805808  79.1510384
  70.5565342  36.9865808  80.3160384  68.4275342  35.4945808  78.7260384
  70.1525342  35.3605808  78.4870384  70.4005342  34.4215808  80.7830384
  68.4405342  33.0635808  79.2580384  49.4505342  98.0075808 107.0440384
  48.9815342  96.5405808 106.9730384  47.6985342  96.3865808 106.1300384
  46.5795342  97.3455808 106.5860384  47.0685342  98.8055808 106.6600384
  48.3255342  98.9405808 107.5450384  48.7615342 100.2805808 107.6310384
  50.3335342  98.0955808 107.6790384  49.7595342  98.3155808 106.0420384
  49.7755342  95.9145808 106.5610384  48.7975342  96.1695808 107.9830384
  47.9325342  96.5795808 105.0820384  47.3465342  95.3545808 106.1750384
  45.7275342  97.2725808 105.9100384  46.2155342  97.0355808 107.5670384
  47.2995342  99.1395808 105.6470384  46.2715342  99.4555808 107.0240384
  48.0525342  98.6105808 108.5490384  49.0035342 100.5765808 106.7490384
  98.2275342  48.0125808 100.1740384  98.8595342  47.3345808 101.4070384
  97.8655342  46.3925808 102.1180384  96.5285342  47.0915808 102.4450384
  95.9165342  47.7705808 101.2040384  96.9145342  48.7415808 100.5370384
  96.3475342  49.3795808  99.4120384  98.9355342  48.7035808  99.7140384
  98.0215342  47.2415808  99.4280384  99.7515342  46.7805808 101.1110384
  99.1965342  48.1005808 102.1080384  97.6725342  45.5275808 101.4820384
  98.3135342  46.0015808 103.0320384  95.8235342  46.3705808 102.8600384
  96.6915342  47.8385808 103.2230384  95.6355342  46.9915808 100.4930384
  94.9945342  48.2905808 101.4700384  97.1605342  49.5095808 101.2720384
  96.1285342  48.7075808  98.7610384  45.2335342  36.1095808  45.5300384
  44.6565342  34.6925808  45.7220384  45.0725342  34.0805808  47.0760384
  46.5985342  34.1345808  47.2990384  47.1585342  35.5555808  47.0940384
  46.7675342  36.1285808  45.7150384  47.2985342  37.4215808  45.5180384
  44.9615342  36.5025808  44.5490384  44.7705342  36.7695808  46.2670384
  43.5685342  34.7195808  45.6440384  45.0025342  34.0475808  44.9120384
  44.5715342  34.6185808  47.8820384  44.7235342  33.0485808  47.1390384
  46.8405342  33.7795808  48.3010384  47.0895342  33.4485808  46.6080384
  46.7585342  36.1965808  47.8820384  48.2435342  35.5575808  47.2180384
  47.1955342  35.4695808  44.9570384  46.9255342  38.0065808  46.1830384
  95.6475342 112.9555808  63.9960384  97.1695342 112.7885808  64.1760384
  97.6595342 111.4125808  63.6790384  96.8575342 110.2465808  64.2960384
  95.3385342 110.4365808  64.1150384  94.8655342 111.7995808  64.6610384
  93.4705342 111.9645808  64.5140384  95.3195342 113.9185808  64.3940384
  95.4295342 112.9735808  62.9260384  97.6965342 113.5845808  63.6490384
  97.4245342 112.9035808  65.2320384  97.5735342 111.3715808  62.5920384
  98.7205342 111.2935808  63.9030384  97.1705342 109.3025808  63.8510384
  97.0885342 110.1715808  65.3600384  95.1115342 110.3715808  63.0490384
  94.7935342 109.6205808  64.5950384  95.0975342 111.8215808  65.7270384
  93.2605342 111.9475808  63.5770384  83.7895342  27.4965808  85.4530384
  84.4695342  26.9315808  84.1900384  84.0965342  27.7355808  82.9270384
  82.5705342  27.8895808  82.7600384  81.9065342  28.4455808  84.0350384
  82.2575342  27.5985808  85.2760384  81.6335342  28.0955808  86.4400384
  84.0355342  26.8865808  86.3230384  84.2005342  28.4895808  85.6470384
  85.5535342  26.9255808  84.3210384  84.1755342  25.8895808  84.0550384
  84.5535342  28.7255808  82.9830384  84.5215342  27.2575808  82.0430384
  82.3515342  28.5395808  81.9120384  82.1335342  26.9195808  82.5180384
  82.2555342  29.4695808  84.1820384  80.8245342  28.5065808  83.9050384
  81.8825342  26.5895808  85.0970384  81.9595342  28.9845808  86.6040384
  60.6045342  91.8425808  31.3970384  59.8485342  90.6955808  30.6970384
  59.3295342  89.6485808  31.7040384  60.4425342  89.1385808  32.6440384
  61.1925342  90.2985808  33.3280384  61.7415342  91.3075808  32.2970384
  62.4465342  92.3595808  32.9220384  60.9975342  92.5455808  30.6610384
  59.8905342  92.4005808  32.0070384  59.0175342  91.0975808  30.1150384
  60.5125342  90.2085808  29.9790384  58.5295342  90.0895808  32.3010384
  58.8805342  88.8095808  31.1700384  60.0185342  88.4745808  33.3970384
  61.1505342  88.5355808  32.0730384  60.4975342  90.8045808  34.0000384
  61.9995342  89.9125808  33.9550384  62.4395342  90.7685808  31.6540384
  61.8365342  92.8385808  33.4890384  54.7475342  77.3665808 118.2600384
  54.0875342  77.5675808 116.8810384  55.0525342  77.2265808 115.7260384
  56.4015342  77.9665808 115.8520384  57.0415342  77.7615808 117.2390384
  56.0735342  78.1525808 118.3760384  56.6665342  77.9855808 119.6460384
  54.0605342  77.6555808 119.0570384  54.9445342  76.3005808 118.3920384
  53.1865342  76.9575808 116.8070384  53.7595342  78.6045808 116.7840384
  55.2325342  76.1505808 115.7150384  54.5855342  77.4645808 114.7690384
  57.0855342  77.6285808 115.0730384  56.2475342  79.0315808 115.6780384
  57.3125342  76.7085808 117.3370384  57.9725342  78.3265808 117.3150384
  55.8365342  79.2105808 118.2510384  56.8775342  77.0555808 119.7620384
  91.4995342 114.2685808  62.2450384  89.9925342 114.4205808  61.9600384
  89.6135342 115.8795808  61.6300384  90.1185342 116.8715808  62.6990384
  91.6245342 116.6985808  62.9780384  91.9705342 115.2405808  63.3490384
  93.3465342 115.0855808  63.6250384  91.7345342 113.2375808  62.5160384
  92.0445342 114.4755808  61.3210384  89.7005342 113.7655808  61.1380384
  89.4235342 114.0875808  62.8300384  90.0355342 116.1505808  60.6610384
  88.5315342 115.9675808  61.5230384  89.9135342 117.8955808  62.3840384
  89.5595342 116.7225808  63.6240384  92.1725342 116.9855808  62.0780384
  91.9475342 117.3825808  63.7650384  91.4155342 114.9965808  64.2570384
  93.8415342 115.2995808  62.8290384 126.6015342  93.4275808  41.1470384
 127.7045342  94.4945808  40.9960384 127.4475342  95.4215808  39.7900384
 127.2035342  94.6315808  38.4870384 126.1055342  93.5635808  38.6590384
 126.4075342  92.6215808  39.8430384 125.4135342  91.6305808  39.9880384
 126.8285342  92.7595808  41.9810384 125.6685342  93.9345808  41.4030384
 127.7795342  95.0855808  41.9110384 128.6715342  94.0015808  40.8750384
 126.5795342  96.0485808  39.9980384 128.2895342  96.1035808  39.6600384
 126.9355342  95.3155808  37.6810384 128.1325342  94.1495808  38.1770384
 125.1575342  94.0755808  38.8330384 125.9815342  92.9935808  37.7360384
 127.3535342  92.1205808  39.6270384 124.5775342  92.0655808  40.1800384
 122.5015342  96.6795808  97.9790384 121.4165342  95.6145808  97.7260384
 121.8785342  94.5515808  96.7080384 122.4045342  95.1825808  95.4010384
 123.4815342  96.2505808  95.6730384 122.9805342  97.3265808  96.6600384
 123.9595342  98.3175808  96.8920384 122.1355342  97.4415808  98.6690384
 123.3475342  96.1955808  98.4730384 121.1395342  95.1345808  98.6670384
 120.5105342  96.0995808  97.3570384 122.6655342  93.9425808  97.1560384
 121.0565342  93.8685808  96.4860384 122.8055342  94.4065808  94.7490384
 121.5745342  95.6355808  94.8580384 124.3585342  95.7525808  96.0920384
 123.8075342  96.7095808  94.7380384 122.1155342  97.8095808  96.2010384
 124.7235342  97.8985808  97.2960384  24.7905342  78.7385808  65.2460384
  26.2325342  78.1965808  65.2060384  27.0115342  78.5365808  66.4940384
  26.9515342  80.0415808  66.8330384  25.5035342  80.5675808  66.8590384
  24.7605342  80.2545808  65.5430384  23.4405342  80.7545808  65.5580384
  24.2755342  78.5215808  64.3080384  24.2455342  78.2035808  66.0270384
  26.2205342  77.1155808  65.0520384  26.7555342  78.6185808  64.3450384
  26.5975342  77.9635808  67.3250384  28.0505342  78.2185808  66.3950384
  27.4325342  80.2245808  67.7950384  27.5275342  80.6015808  66.0950384
  24.9835342  80.0925808  67.6930384  25.4925342  81.6395808  67.0610384
  25.3015342  80.7545808  64.7380384  22.9585342  80.3175808  66.2660384
 131.2055342  67.6825808  53.9620384 131.0255342  68.5665808  55.2120384
 132.3155342  69.3395808  55.5610384 133.5445342  68.4115808  55.6610384
 133.7025342  67.5295808  54.4070384 132.4165342  66.7325808  54.1060384
 132.5675342  65.9085808  52.9700384 130.2955342  67.1155808  53.7610384
 131.3575342  68.3365808  53.1000384 130.2025342  69.2655808  55.0590384
 130.7385342  67.9405808  56.0600384 132.4975342  70.0965808  54.7970384
 132.1805342  69.8815808  56.4980384 134.4465342  69.0045808  55.8160384
 133.4465342  67.7755808  56.5420384 133.9365342  68.1785808  53.5610384
 134.5545342  66.8555808  54.5210384 132.2235342  66.0885808  54.9660384
 132.7375342  66.4695808  52.2080384  81.2645342  74.4855808 122.1360384
  79.8245342  74.5405808 121.5880384  78.9625342  75.5785808 122.3360384
  79.0085342  75.3815808 123.8670384  80.4545342  75.3205808 124.3950384
  81.2825342  74.2445808 123.6620384  82.6015342  74.1725808 124.1610384
  81.8405342  73.7155808 121.6190384  81.7525342  75.4375808 121.9130384
  79.8415342  74.7695808 120.5210384  79.3645342  73.5545808 121.6790384
  79.3165342  76.5815808 122.0920384  77.9315342  75.5275808 121.9850384
  78.4645342  76.1875808 124.3610384  78.4865342  74.4605808 124.1280384
  80.9145342  76.2985808 124.2460384  80.4585342  75.1405808 125.4720384
  80.8005342  73.2825808 123.8450384  83.0325342  75.0165808 124.0020384
  88.5025342  42.7485808 110.2020384  86.9995342  42.6305808 109.8790384
  86.6755342  41.3305808 109.1130384  87.5675342  41.1485808 107.8660384
  89.0645342  41.2785808 108.2070384  89.3705342  42.6065808 108.9320384
  90.7455342  42.7355808 109.2250384  88.7115342  43.6935808 110.7060384
  88.7625342  41.9575808 110.9100384  86.4155342  42.6755808 110.7990384
  86.6895342  43.4895808 109.2810384  86.8115342  40.4775808 109.7790384
  85.6235342  41.3235808 108.8220384  87.3725342  40.1785808 107.4080384
  87.2995342  41.8955808 107.1180384  89.3425342  40.4405808 108.8490384
  89.6695342  41.1855808 107.3030384  89.0925342  43.4165808 108.2560384
  90.9955342  42.0245808 109.8210384  71.9615342 138.0785808  89.4510384
  71.7625342 138.8165808  90.7900384  70.9165342 140.0955808  90.6220384
  71.4645342 141.0175808  89.5110384  71.6655342 140.2615808  88.1840384
  72.5515342 139.0115808  88.3690384  72.7535342 138.3295808  87.1500384
  72.5975342 137.2015808  89.5890384  70.9905342 137.7055808  89.1180384
  71.2925342 138.1505808  91.5150384  72.7365342 139.0785808  91.2070384
  69.8895342 139.8175808  90.3840384  70.8725342 140.6375808  91.5670384
  70.7895342 141.8605808  89.3610384  72.4155342 141.4445808  89.8320384
  70.6845342 139.9605808  87.8110384  72.0905342 140.9245808  87.4290384
  73.5235342 139.3525808  88.7290384  71.9005342 138.0265808  86.8270384
  61.5135342  88.3645808  26.0820384  61.0545342  89.4055808  25.0410384
  59.9125342  88.8665808  24.1530384  60.2595342  87.5035808  23.5170384
  60.7255342  86.4795808  24.5710384  61.8965342  87.0245808  25.4160384
  62.3365342  86.0785808  26.3670384  62.3475342  88.7545808  26.6680384
  60.6935342  88.1995808  26.7850384  60.7355342  90.3195808  25.5440384
  61.9005342  89.6855808  24.4110384  59.0085342  88.7625808  24.7550384
  59.6755342  89.5915808  23.3730384  59.3965342  87.1145808  22.9760384
  61.0465342  87.6405808  22.7740384  59.8795342  86.2535808  25.2240384
  61.0025342  85.5395808  24.0910384  62.7235342  87.2255808  24.7330384
  61.6125342  85.8975808  26.9720384  50.4335342 128.3205808  70.7820384
  50.3195342 129.1515808  69.4890384  51.0245342 130.5185808  69.6180384
  50.5635342 131.2985808  70.8680384  50.6765342 130.4495808  72.1490384
  49.9255342 129.1085808  72.0110384  50.0105342 128.3395808  73.1920384
  49.8925342 127.3785808  70.6800384  51.4845342 128.0585808  70.9280384
  50.7375342 128.5945808  68.6490384  49.2655342 129.3095808  69.2520384
  52.1025342 130.3625808  69.6690384  50.8465342 131.1135808  68.7210384
  51.1505342 132.2115808  70.9730384  49.5285342 131.6175808  70.7340384
  51.7345342 130.2575808  72.3380384  50.3075342 131.0095808  73.0100384
  48.8735342 129.3415808  71.8360384  50.9355342 128.1305808  73.3510384
 127.4625342  58.3915808  61.8810384 128.1855342  59.6355808  62.4340384
 128.1335342  59.6945808  63.9750384 126.6955342  59.5535808  64.5180384
 125.9855342  58.3105808  63.9480384 126.0115342  58.2975808  62.4050384
 125.3425342  57.1705808  61.8810384 127.4775342  58.3955808  60.7900384
 128.0195342  57.5055808  62.1940384 129.2235342  59.6445808  62.0960384
 127.7255342  60.5355808  62.0220384 128.7525342  58.8955808  64.3860384
 128.5735342  60.6285808  64.3270384 126.7115342  59.5065808  65.6070384
 126.1235342  60.4465808  64.2620384 126.4935342  57.4225808  64.3280384
 124.9585342  58.2575808  64.3150384 125.4845342  59.1905808  62.0630384
 125.8025342  56.3805808  62.1780384  83.9575342 121.8305808  80.5580384
  83.1635342 121.6745808  81.8710384  84.0925342 121.4415808  83.0810384
  85.0825342 120.2805808  82.8440384  85.8585342 120.4485808  81.5230384
  84.9075342 120.6345808  80.3230384  85.6175342 120.7675808  79.1100384
  83.2765342 121.9515808  79.7140384  84.5405342 122.7525808  80.6190384
  82.5465342 122.5585808  82.0400384  82.4725342 120.8355808  81.7790384
  84.6535342 122.3555808  83.2850384  83.4975342 121.2465808  83.9740384
  85.7795342 120.2095808  83.6790384  84.5345342 119.3375808  82.8250384
  86.5045342 121.3245808  81.6160384  86.5205342 119.5955808  81.3600384
  84.2895342 119.7375808  80.2550384  86.1635342 121.5565808  79.1630384
  62.2265342 119.2675808  93.4040384  63.3485342 118.4955808  92.6820384
  63.9875342 119.3315808  91.5520384  62.9335342 119.8975808  90.5760384
  61.8155342 120.6575808  91.3160384  61.1625342 119.7855808  92.4100384
  60.1235342 120.4735808  93.0740384  61.7635342 118.6405808  94.1680384
  62.6755342 120.1135808  93.9290384  64.1135342 118.1925808  93.3990384
  62.9435342 117.5725808  92.2630384  64.5515342 120.1555808  91.9900384
  64.7125342 118.7255808  91.0060384  63.4145342 120.5555808  89.8510384
  62.4975342 119.0805808  90.0010384  62.2515342 121.5475808  91.7720384
  61.0635342 121.0125808  90.6080384  60.7275342 118.9155808  91.9150384
  60.4995342 121.2415808  93.5120384  32.9925342  51.4325808  65.5820384
  33.6435342  50.0775808  65.2400384  32.8085342  48.8895808  65.7640384
  32.4735342  49.0255808  67.2640384  31.8325342  50.3895808  67.5880384
  32.7075342  51.5605808  67.0950384  32.1315342  52.8105808  67.4110384
  33.6215342  52.2555808  65.2390384  32.0545342  51.5105808  65.0280384
  33.7785342  49.9905808  64.1610384  34.6435342  50.0355808  65.6760384
  31.8815342  48.8235808  65.1930384  33.3405342  47.9545808  65.5850384
  31.8075342  48.2185808  67.5720384  33.3855342  48.9055808  67.8510384
  30.8575342  50.4315808  67.1000384  31.6435342  50.4755808  68.6600384
  33.6655342  51.4915808  67.6140384  31.2865342  52.8785808  66.9570384
 117.1525342  36.2295808  87.6900384 117.8275342  37.5975808  87.9100384
 118.7475342  37.5935808  89.1490384 118.0245342  37.0785808  90.4120384
 117.3485342  35.7145808  90.1710384 116.3995342  35.7565808  88.9540384
 115.7635342  34.5145808  88.7460384 116.4755342  36.2715808  86.8350384
 117.9275342  35.5025808  87.4360384 118.3985342  37.8785808  87.0240384
 117.0605342  38.3655808  88.0320384 119.6155342  36.9635808  88.9500384
 119.1365342  38.5975808  89.3270384 118.7305342  37.0025808  91.2400384
 117.2735342  37.8055808  90.7210384 118.1295342  34.9725808  89.9980384
 116.8115342  35.3925808  91.0660384 115.6285342  36.4985808  89.1700384
 116.4385342  33.8565808  88.5550384  74.9725342  96.5605808 115.4580384
  76.4225342  97.0285808 115.6910384  76.5035342  98.5475808 115.9500384
  75.7845342  99.3665808 114.8570384  74.3395342  98.8785808 114.6310384
  74.2895342  97.3655808 114.3300384  72.9685342  96.9225808 114.1020384
  74.9475342  95.4925808 115.2360384  74.4165342  96.6955808 116.3890384
  76.8595342  96.4835808 116.5300384  77.0295342  96.7775808 114.8190384
  76.0555342  98.7705808 116.9200384  77.5475342  98.8575808 116.0210384
  75.7835342 100.4235808 115.1240384  76.3425342  99.2905808 113.9230384
  73.7635342  99.0895808 115.5350384  73.8685342  99.4465808 113.8270384
  74.8635342  97.1975808 113.4170384  72.4585342  97.0685808 114.9030384
 105.8555342  25.9525808  86.2230384 106.3175342  25.9475808  87.6940384
 105.3035342  25.2355808  88.6130384 103.8705342  25.7845808  88.4420384
 103.4305342  25.7895808  86.9650384 104.4375342  26.5475808  86.0740384
 104.0245342  26.5705808  84.7240384 106.5685342  26.4985808  85.6020384
 105.8575342  24.9215808  85.8620384 107.2945342  25.4705808  87.7770384
 106.4525342  26.9765808  88.0350384 105.3075342  24.1665808  88.3920384
 105.6155342  25.3295808  89.6550384 103.1725342  25.1945808  89.0370384
 103.8235342  26.7995808  88.8380384 103.3535342  24.7545808  86.6290384
 102.4325342  26.2195808  86.8680384 104.4775342  27.5775808  86.4320384
 103.9875342  25.6655808  84.4030384  29.5845342  90.5365808  43.7540384
  30.9315342  89.9125808  44.1710384  30.9225342  89.4525808  45.6440384
  30.4645342  90.5715808  46.6030384  29.1225342  91.1895808  46.1660384
  29.1715342  91.6825808  44.7050384  27.9485342  92.2685808  44.3110384
  29.6315342  90.8915808  42.7230384  28.8235342  89.7535808  43.7770384
  31.1695342  89.0705808  43.5190384  31.7305342  90.6425808  44.0250384
  30.2555342  88.5955808  45.7480384  31.9145342  89.1005808  45.9290384
  30.3825342  90.1815808  47.6180384  31.2275342  91.3505808  46.6400384
  28.3475342  90.4285808  46.2680384  28.8425342  92.0045808  46.8380384
  29.9465342  92.4495808  44.6460384  27.2615342  91.5985808  44.3600384
 123.8695342  89.1235808  90.4140384 123.7565342  87.8435808  89.5610384
 125.1425342  87.2685808  89.2010384 126.0685342  88.3265808  88.5650384
 126.1615342  89.6005808  89.4260384 124.7655342  90.1825808  89.7340384
 124.8515342  91.3625808  90.5050384 122.8785342  89.5335808  90.6190384
 124.2975342  88.8525808  91.3820384 123.1675342  87.0935808  90.0910384
 123.2085342  88.0665808  88.6440384 125.6125342  86.8745808  90.1030384
 125.0275342  86.4195808  88.5260384 127.0625342  87.9065808  88.4120384
 125.6935342  88.5855808  87.5730384 126.6645342  89.3445808  90.3600384
 126.7885342  90.3465808  88.9340384 124.3015342  90.4375808  88.7790384
 125.2585342  91.1445808  91.3480384  71.4165342  35.1465808 119.2010384
  72.2325342  33.8425808 119.0930384  71.4915342  32.6445808 119.7230384
  71.0285342  32.9365808 121.1660384  70.2225342  34.2475808 121.2560384
  71.0025342  35.4385808 120.6610384  70.2735342  36.6425808 120.7630384
  71.9785342  35.9845808 118.7870384  70.5205342  35.0405808 118.5840384
  72.4605342  33.6315808 118.0460384  73.1945342  33.9755808 119.5910384
  70.6235342  32.3975808 119.1100384  72.1335342  31.7625808 119.7090384
  70.4305342  32.1045808 121.5400384  71.8995342  33.0015808 121.8190384
  69.2885342  34.1115808 120.7070384  69.9415342  34.4505808 122.2920384
  71.9195342  35.5495808 121.2430384  69.4645342  36.5515808 120.2520384
  92.1695342  78.3915808  27.6790384  93.1365342  77.5485808  26.8240384
  93.6185342  78.3155808  25.5740384  92.4445342  78.8895808  24.7510384
  91.4835342  79.7205808  25.6240384  90.9815342  78.9165808  26.8420384
  90.0845342  79.6705808  27.6300384  91.8115342  77.8125808  28.5320384
  92.7255342  79.2365808  28.0910384  93.9945342  77.2405808  27.4250384
  92.6385342  76.6285808  26.5140384  94.2725342  79.1315808  25.8840384
  94.2265342  77.6605808  24.9480384  92.8275342  79.4995808  23.9330384
  91.8945342  78.0695808  24.2860384  92.0175342  80.6085808  25.9680384
  90.6435342  80.0795808  25.0270384  90.4445342  78.0475808  26.4580384
  90.5525342  80.4375808  27.9710384 111.8815342  89.4775808  92.2550384
 113.2625342  89.1515808  91.6530384 113.5425342  87.6345808  91.6430384
 113.3335342  86.9915808  93.0300384 111.9515342  87.3355808  93.6200384
 111.7135342  88.8595808  93.6620384 110.4575342  89.1765808  94.2220384
 111.7255342  90.5575808  92.2900384 111.1145342  89.0765808  91.5880384
 113.3305342  89.5495808  90.6390384 114.0385342  89.6585808  92.2300384
 112.8825342  87.1525808  90.9200384 114.5595342  87.4465808  91.2950384
 113.4495342  85.9095808  92.9600384 114.1135342  87.3365808  93.7100384
 111.1885342  86.8645808  92.9980384 111.8455342  86.9025808  94.6170384
 112.4865342  89.2915808  94.3010384 109.7725342  88.7985808  93.6630384
 112.2925342 105.3565808  30.7880384 112.3345342 106.3965808  29.6510384
 112.0835342 107.8275808  30.1710384 110.7965342 107.9255808  31.0170384
 110.7675342 106.8725808  32.1420384 110.9755342 105.4455808  31.5920384
 110.9285342 104.4785808  32.6190384 112.4305342 104.3495808  30.3890384
 113.1385342 105.5435808  31.4540384 113.2975342 106.3505808  29.1390384
 111.5805342 106.1465808  28.9020384 112.9355342 108.1455808  30.7740384
 112.0315342 108.5235808  29.3320384 110.7055342 108.9265808  31.4410384
 109.9275342 107.7895808  30.3710384 111.5625342 107.1095808  32.8510384
 109.8305342 106.9365808  32.6990384 110.1575342 105.2425808  30.8990384
 111.6475342 104.6525808  33.2320384  84.9445342  58.8115808  35.4280384
  85.7255342  58.6285808  36.7440384  84.9435342  57.7725808  37.7630384
  83.5105342  58.2965808  37.9910384  82.7485342  58.4815808  36.6640384
  83.5295342  59.3785808  35.6800384  82.8225342  59.5655808  34.4720384
  85.4985342  59.4545808  34.7420384  84.8635342  57.8375808  34.9400384
  86.6955342  58.1735808  36.5420384  85.9345342  59.6075808  37.1800384
  84.8975342  56.7425808  37.4050384  85.4825342  57.7385808  38.7110384
  82.9635342  57.6145808  38.6420384  83.5535342  59.2495808  38.5190384
  82.5965342  57.4975808  36.2180384  81.7535342  58.8915808  36.8500384
  83.6495342  60.3535808  36.1540384  82.7135342  58.7095808  34.0490384
  54.2995342 129.6455808  80.9070384  54.3485342 129.5635808  82.4460384
  55.4275342 128.5755808  82.9360384  55.2955342 127.1885808  82.2710384
  55.2375342 127.2905808  80.7350384  54.1225342 128.2495808  80.2690384
  54.0555342 128.3275808  78.8610384  53.5015342 130.3185808  80.5860384
  55.2345342 130.0885808  80.5580384  54.5325342 130.5545808  82.8660384
  53.3735342 129.2515808  82.8240384  56.4155342 128.9855808  82.7180384
  55.3745342 128.4755808  84.0210384  56.1275342 126.5515808  82.5720384
  54.3915342 126.6975808  82.6360384  56.2035342 127.6565808  80.3810384
  55.1035342 126.3015808  80.2930384  53.1745342 127.8445808  80.6300384
  54.8875342 128.6835808  78.5370384  47.2905342  98.8475808  95.1780384
  48.1055342  99.3815808  96.3730384  47.8515342 100.8835808  96.6180384
  48.0495342 101.7265808  95.3400384  47.2355342 101.1725808  94.1550384
  47.5405342  99.6815808  93.9010384  46.8105342  99.1795808  92.8020384
  47.5195342  97.7955808  95.0000384  46.2305342  98.8925808  95.4400384
  47.8655342  98.8115808  97.2720384  49.1685342  99.2195808  96.1870384
  46.8325342 101.0205808  96.9840384  48.5085342 101.2465808  97.4090384
  47.7715342 102.7635808  95.5320384  49.1085342 101.7405808  95.0770384
  46.1745342 101.2945808  94.3830384  47.4245342 101.7625808  93.2550384
  48.6025342  99.6025808  93.6640384  45.8735342  99.2455808  93.0050384
  60.0035342  98.4435808 128.4090384  59.5545342  97.3525808 129.4020384
  58.4415342  97.8545808 130.3450384  58.8205342  99.1765808 131.0460384
  59.2755342 100.2515808 130.0400384  60.4195342  99.7405808 129.1390384
  60.8505342 100.7315808 128.2310384  60.8195342  98.0765808 127.7840384
  59.1705342  98.6565808 127.7360384  59.2125342  96.4705808 128.8580384
  60.4115342  97.0275808 129.9960384  57.5245342  98.0025808 129.7710384
  58.2125342  97.0905808 131.0890384  57.9745342  99.5445808 131.6280384
  59.6215342  98.9885808 131.7620384  58.4175342 100.5225808 129.4210384
  59.5755342 101.1605808 130.5640384  61.2595342  99.4915808 129.7910384
  60.1155342 100.9545808 127.6540384  38.3935342  60.5095808  89.3400384
  37.0245342  60.6555808  88.6470384  36.6275342  62.1345808  88.4630384
  36.7135342  62.9325808  89.7810384  38.0845342  62.7675808  90.4640384
  38.4395342  61.2805808  90.6780384  39.6855342  61.1295808  91.3230384
  38.6315342  59.4555808  89.4970384  39.1605342  60.9025808  88.6680384
  37.0405342  60.1505808  87.6800384  36.2615342  60.1475808  89.2410384
  37.2845342  62.5925808  87.7220384  35.6185342  62.1995808  88.0530384
  36.5165342  63.9875808  89.5910384  35.9285342  62.5955808  90.4600384
  38.8405342  63.2345808  89.8290384  38.1045342  63.3075808  91.4120384
  37.6705342  60.8535808  91.3260384  40.3665342  61.5035808  90.7570384
  60.4655342 110.1655808 111.4800384  60.9585342 108.7935808 110.9790384
  62.1815342 108.2945808 111.7780384  63.3105342 109.3455808 111.8370384
  62.7975342 110.7125808 112.3300384  61.6035342 111.2105808 111.4870384
  61.1475342 112.4725808 111.9250384  59.6285342 110.5145808 110.8720384
  60.0795342 110.0405808 112.4940384  60.1505342 108.0625808 111.0400384
  61.2225342 108.8655808 109.9220384  61.8695342 108.0445808 112.7930384
  62.5575342 107.3685808 111.3410384  64.1135342 108.9935808 112.4850384
  63.7495342 109.4595808 110.8450384  62.4885342 110.6055808 113.3710384
  63.6055342 111.4465808 112.3230384  61.9545342 111.3175808 110.4590384
  60.8365342 112.3855808 112.8300384 120.0385342 112.8265808  55.4450384
 120.0875342 114.3665808  55.5110384 119.1085342 115.0175808  54.5120384
 119.2915342 114.4785808  53.0770384 119.2485342 112.9385808  53.0320384
 120.2685342 112.3115808  54.0060384 120.2445342 110.9015808  53.9500384
 120.7685342 112.3915808  56.1290384 119.0565342 112.5015808  55.7950384
 119.8645342 114.7035808  56.5250384 121.1025342 114.7055808  55.2960384
 118.0845342 114.8285808  54.8390384 119.2345342 116.1005808  54.5220384
 118.5235342 114.8925808  52.4240384 120.2465342 114.8265808  52.6800384
 118.2415342 112.6175808  53.3030384 119.4215342 112.5835808  52.0140384
 121.2605342 112.6445808  53.6960384 119.3725342 110.6025808  54.2220384
 107.5965342  48.5605808  89.1010384 106.4445342  48.2355808  90.0720384
 105.4315342  49.3955808  90.1730384 106.1145342  50.7425808  90.4910384
 107.2685342  51.0465808  89.5160384 108.2915342  49.8915808  89.4670384
 109.3595342  50.1775808  88.5910384 108.3195342  47.7435808  89.0800384
 107.1825342  48.6325808  88.0920384 105.9355342  47.3235808  89.7550384
 106.8535342  48.0255808  91.0620384 104.8895342  49.4815808  89.2300384
 104.6825342  49.1695808  90.9330384 105.3795342  51.5485808  90.4620384
 106.4985342  50.7205808  91.5120384 106.8445342  51.1995808  88.5220384
 107.7595342  51.9825808  89.7880384 108.7015342  49.7775808  90.4730384
 109.0055342  50.2785808  87.7030384  48.4335342 103.4495808  83.4160384
  49.1625342 103.5735808  82.0640384  50.4565342 102.7335808  82.0280384
  51.3795342 103.0305808  83.2290384  50.6315342 102.9105808  84.5720384
  49.3665342 103.7945808  84.5990384  48.6925342 103.7015808  85.8360384
  47.5455342 104.0845808  83.4310384  48.0785342 102.4215808  83.5200384
  48.4985342 103.2695808  81.2530384  49.4065342 104.6215808  81.8780384
  50.1975342 101.6745808  82.0270384  50.9915342 102.9155808  81.0950384
  52.2345342 102.3535808  83.2180384  51.7885342 104.0365808  83.1310384
  50.3495342 101.8655808  84.7130384  51.2955342 103.1645808  85.4010384
  49.6895342 104.8285808  84.4680384  48.4045342 102.7925808  85.9570384
  21.0355342  91.3145808  77.9820384  21.3405342  90.5045808  79.2570384
  22.8545342  90.4375808  79.5480384  23.6645342  89.9505808  78.3280384
  23.3395342  90.7655808  77.0610384  21.8245342  90.7795808  76.7660384
  21.5285342  91.5085808  75.5930384  19.9635342  91.3105808  77.7750384
  21.3105342  92.3555808  78.1640384  20.8165342  90.9385808  80.1090384
  20.9495342  89.4915808  79.1450384  23.2075342  91.4275808  79.8420384
  23.0405342  89.7845808  80.4020384  24.7315342  90.0065808  78.5430384
  23.4475342  88.8975808  78.1460384  23.6905342  91.7885808  77.2140384
  23.8945342  90.3755808  76.2050384  21.5155342  89.7455808  76.6060384
  21.7985342  92.4205808  75.7270384  59.8315342 118.3105808 119.8130384
  58.5265342 118.8905808 120.3960384  57.5845342 119.4115808 119.2900384
  58.2925342 120.3915808 118.3310384  59.5985342 119.7985808 117.7660384
  60.5435342 119.3265808 118.8920384  61.7485342 118.8045808 118.3760384
  60.4975342 117.9885808 120.6160384  59.5815342 117.4145808 119.2410384
  58.0175342 118.1335808 120.9940384  58.7665342 119.7065808 121.0810384
  57.1985342 118.5655808 118.7200384  56.7155342 119.8935808 119.7400384
  57.6225342 120.6625808 117.5150384  58.5145342 121.3185808 118.8610384
  59.3405342 118.9525808 117.1280384  60.0995342 120.5265808 117.1240384
  60.7875342 120.2005808 119.4990384  61.5405342 118.0335808 117.8400384
  54.0375342  96.4905808 113.2450384  54.5035342  95.8835808 111.9060384
  55.9305342  96.3365808 111.5350384  56.0875342  97.8715808 111.5760384
  55.6075342  98.4615808 112.9170384  54.1625342  98.0305808 113.2440384
  53.7155342  98.5885808 114.4620384  53.0115342  96.1895808 113.4640384
  54.6575342  96.0765808 114.0430384  54.4595342  94.7945808 111.9560384
  53.8125342  96.1785808 111.1140384  56.6425342  95.8835808 112.2260384
  56.1925342  95.9625808 110.5440384  57.1275342  98.1445808 111.3990384
  55.5155342  98.3155808 110.7600384  56.2795342  98.1115808 113.7030384
  55.6915342  99.5495808 112.9040384  53.5225342  98.4095808 112.4450384
  54.2755342  98.2595808 115.1690384  43.1025342 108.2405808  36.7870384
  43.6345342 109.6875808  36.7790384  44.3975342 110.0275808  38.0760384
  43.5735342 109.7055808  39.3410384  43.0425342 108.2585808  39.3270384
  42.2445342 107.9575808  38.0410384  41.7395342 106.6395808  38.0370384
  42.5315342 108.0395808  35.8790384  43.9575342 107.5615808  36.7710384
  44.2825342 109.8415808  35.9150384  42.7995342 110.3805808  36.6580384
  45.3315342 109.4635808  38.1020384  44.6815342 111.0815808  38.0750384
  44.1805342 109.8715808  40.2320384  42.7345342 110.3995808  39.4130384
  43.8955342 107.5815808  39.3940384  42.4305342 108.0705808  40.2120384
  41.3965342 108.6435808  38.0170384  42.4825342 106.0305808  38.0580384
 125.9185342  62.2655808  41.0950384 124.4225342  61.9095808  41.2030384
 123.7935342  62.4515808  42.5040384 124.5935342  62.0385808  43.7570384
 126.0885342  62.3935808  43.6280384 126.7045342  61.8015808  42.3430384
 128.0785342  62.1085808  42.2340384 126.3485342  61.8345808  40.1890384
 126.0055342  63.3495808  40.9930384 123.8835342  62.2995808  40.3380384
 124.3045342  60.8245808  41.1700384 123.7445342  63.5405808  42.4520384
 122.7625342  62.1065808  42.5900384 124.1725342  62.5165808  44.6420384
 124.4895342  60.9635808  43.9150384 126.1795342  63.4805808  43.6090384
 126.6365342  62.0545808  44.5090384 126.6055342  60.7165808  42.4050384
 128.1715342  63.0635808  42.1790384  58.8135342  49.7355808  31.0530384
  57.2775342  49.7915808  31.1720384  56.8085342  50.9925808  32.0190384
  57.5125342  51.0505808  33.3920384  59.0455342  50.9845808  33.2540384
  59.4915342  49.7505808  32.4410384  60.8975342  49.6785808  32.3320384
  59.1205342  48.8555808  30.4850384  59.1425342  50.6045808  30.4780384
  56.8275342  49.8385808  30.1780384  56.9155342  48.8655808  31.6240384
  57.0065342  51.9155808  31.4740384  55.7265342  50.9495808  32.1580384
  57.2245342  51.9595808  33.9200384  57.1685342  50.2195808  34.0100384
  59.3815342  51.8935808  32.7520384  59.5165342  50.9865808  34.2390384
  59.1495342  48.8655808  32.9800384  61.2055342  50.4555808  31.8580384
  38.4445342  93.7175808  40.8090384  37.7905342  92.3485808  40.5360384
  37.2925342  92.2275808  39.0810384  36.3875342  93.4095808  38.6720384
  37.0525342  94.7695808  38.9600384  37.5015342  94.8835808  40.4330384
  38.0915342  96.1365808  40.7030384  38.7495342  93.7935808  41.8540384
  39.3585342  93.7845808  40.2150384  38.4985342  91.5475808  40.7550384
  36.9505342  92.2055808  41.2190384  38.1515342  92.1845808  38.4100384
  36.7575342  91.2865808  38.9480384  36.1335342  93.3355808  37.6140384
  35.4425342  93.3465808  39.2150384  37.9205342  94.8695808  38.3060384
  36.3765342  95.5865808  38.7000384  36.6075342  94.7915808  41.0530384
  38.8805342  96.2235808  40.1600384 107.7975342  46.1475808  60.8950384
 108.0595342  44.6545808  60.6120384 107.1065342  43.7415808  61.4120384
 107.1105342  44.0685808  62.9200384 106.8565342  45.5655808  63.1830384
 107.8495342  46.4565808  62.4080384 107.6315342  47.8275808  62.6660384
 108.5105342  46.7695808  60.3520384 106.8085342  46.4005808  60.5070384
 107.9585342  44.4545808  59.5440384 109.0925342  44.4125808  60.8690384
 106.0935342  43.8505808  61.0220384 107.3785342  42.6955808  61.2570384
 106.3595342  43.4675808  63.4330384 108.0715342  43.7835808  63.3500384
 105.8365342  45.7985808  62.8700384 106.9035342  45.7775808  64.2530384
 108.8525342  46.2045808  62.7580384 106.7495342  48.0565808  62.3600384
  95.2355342  66.6375808  26.4070384  93.8425342  66.6305808  25.7460384
  93.8085342  65.7435808  24.4840384  94.9345342  66.0975808  23.4900384
  96.3185342  66.1095808  24.1690384  96.3385342  67.0385808  25.4020384
  97.6115342  67.0655808  26.0120384  95.2435342  67.3045808  27.2710384
  95.4375342  65.6345808  26.7890384  93.0925342  66.2885808  26.4620384
  93.5625342  67.6515808  25.4790384  93.9045342  64.6975808  24.7770384
  92.8385342  65.8325808  23.9940384  94.9335342  65.3915808  22.6590384
  94.7375342  67.0775808  23.0540384  96.5555342  65.0895808  24.4770384
  97.0905342  66.4015808  23.4550384  96.1105342  68.0465808  25.0530384
  97.8185342  66.1805808  26.3220384  40.4535342  71.5305808  46.2510384
  41.9315342  71.6505808  45.8300384  42.6485342  70.2845808  45.8460384
  42.4725342  69.5465808  47.1910384  40.9895342  69.4435808  47.5990384
  40.3075342  70.8285808  47.6190384  38.9545342  70.7365808  48.0140384
  39.9815342  72.5145808  46.2720384  39.9275342  70.9525808  45.4880384
  42.0015342  72.0965808  44.8370384  42.4465342  72.3365808  46.5060384
  42.2545342  69.6625808  45.0410384  43.7095342  70.4195808  45.6320384
  42.9115342  68.5505808  47.1290384  43.0265342  70.0745808  47.9680384
  40.4825342  68.7975808  46.8800384  40.8955342  68.9555808  48.5710384
  40.8325342  71.4385808  48.3560384  38.4865342  70.2005808  47.3690384
  46.5185342  38.7345808  50.0200384  46.6655342  40.1725808  49.4840384
  45.4115342  41.0245808  49.7700384  44.1165342  40.3405808  49.2850384
  43.9905342  38.9015808  49.8220384  45.2365342  38.0565808  49.4850384
  45.1125342  36.7325808  49.9580384  47.3995342  38.1405808  49.7680384
  46.4775342  38.7785808  51.1110384  47.5455342  40.6445808  49.9230384
  46.8445342  40.1415808  48.4080384  45.3405342  41.2095808  50.8430384
  45.5135342  42.0045808  49.3000384  43.2495342  40.9285808  49.5870384
  44.1035342  40.3215808  48.1940384  43.8665342  38.9525808  50.9060384
  43.0875342  38.4275808  49.4330384  45.3185342  38.0185808  48.3970384
  45.0405342  36.7585808  50.9160384  91.3795342  65.7395808 112.3050384
  89.9285342  65.2315808 112.4120384  88.9295342  66.1955808 111.7390384
  89.0875342  67.6465808 112.2410384  90.5465342  68.1345808 112.1360384
  91.5205342  67.1775808 112.8540384  92.8535342  67.6355808 112.7760384
  92.0605342  65.0625808 112.8240384  91.6715342  65.7235808 111.2520384
  89.8475342  64.2395808 111.9650384  89.6625342  65.1115808 113.4640384
  89.0785342  66.1705808 110.6590384  87.9085342  65.8515808 111.9120384
  88.4315342  68.3095808 111.6770384  88.7605342  67.7075808 113.2800384
  90.8095342  68.1955808 111.0780384  90.6375342  69.1465808 112.5340384
  91.2335342  67.1525808 113.9070384  93.1115342  67.6585808 111.8500384
  73.7975342 120.0305808 111.1490384  73.7635342 119.5655808 112.6180384
  73.9205342 120.7455808 113.6000384  75.1575342 121.6115808 113.2810384
  75.1795342 122.0595808 111.8060384  75.0665342 120.8585808 110.8440384
  75.1085342 121.2665808 109.4930384  73.7275342 119.1745808 110.4760384
  72.9115342 120.6425808 110.9640384  72.8315342 119.0345808 112.8200384
  74.5655342 118.8435808 112.7890384  73.0255342 121.3675808 113.5590384
  73.9825342 120.3715808 114.6230384  75.1805342 122.4835808 113.9360384
  76.0625342 121.0445808 113.5000384  74.3395342 122.7375808 111.6430384
  76.0835342 122.6355808 111.5980384  75.9275342 120.2135808 111.0280384
  74.3515342 121.8355808 109.3250384 100.6375342  92.5925808 123.6460384
 101.7065342  91.4815808 123.6560384 101.3565342  90.3535808 124.6490384
 101.0485342  90.8935808 126.0620384  99.9845342  92.0085808 126.0320384
 100.3795342  93.1455808 125.0660384  99.4165342  94.1775808 125.0540384
 100.9295342  93.3965808 122.9690384  99.7125342  92.1725808 123.2460384
 101.8265342  91.0705808 122.6520384 102.6745342  91.9115808 123.9240384
 100.4905342  89.8045808 124.2770384 102.1745342  89.6335808 124.6960384
 100.7155342  90.0785808 126.7070384 101.9645342  91.2785808 126.5100384
  99.0385342  91.5685808 125.7100384  99.8155342  92.3995808 127.0370384
 101.3195342  93.5665808 125.4270384  98.5855342  93.8125808 124.7360384
  77.7225342 110.1315808 116.1500384  78.3465342 111.5345808 116.2930384
  78.0275342 112.4325808 115.0800384  78.3875342 111.7565808 113.7400384
  77.7635342 110.3525808 113.6190384  78.1345342 109.4595808 114.8210384
  77.5805342 108.1665808 114.7000384  77.9985342 109.5035808 116.9990384
  76.6355342 110.2365808 116.1830384  77.9925342 112.0075808 117.2100384
  79.4295342 111.4405808 116.3980384  76.9635342 112.6775808 115.0840384
  78.5565342 113.3825808 115.1710384  78.0615342 112.3825808 112.9080384
  79.4725342 111.6795808 113.6540384  76.6785342 110.4645808 113.5690384
  78.0665342 109.8815808 112.6820384  79.2215342 109.3605808 114.8290384
  76.6235342 108.2465808 114.6930384  70.2835342  28.9035808  82.5640384
  69.5195342  27.9985808  83.5500384  69.1695342  28.7385808  84.8580384
  70.4035342  29.4065808  85.5000384  71.1595342  30.3005808  84.4980384
  71.5375342  29.5255808  83.2180384  72.2495342  30.3375808  82.3080384
  70.5565342  28.3455808  81.6660384  69.6105342  29.7005808  82.2390384
  68.6095342  27.6205808  83.0810384  70.1275342  27.1215808  83.7820384
  68.4165342  29.4985808  84.6490384  68.7115342  28.0455808  85.5650384
  70.0995342  29.9945808  86.3670384  71.0765342  28.6365808  85.8780384
  70.5145342  31.1415808  84.2370384  72.0485342  30.7285808  84.9650384
  72.1905342  28.7035808  83.5170384  71.6795342  31.0645808  82.0400384
 120.6265342  86.6875808  73.1010384 121.7855342  86.0365808  73.8830384
 121.3585342  84.7095808  74.5450384 120.0815342  84.8645808  75.3970384
 118.9375342  85.5255808  74.6030384 119.3745342  86.8715808  73.9890384
 118.3215342  87.4875808  73.2790384 120.9415342  87.6435808  72.6790384
 120.3805342  86.0415808  72.2550384 122.6335342  85.8655808  73.2180384
 122.1375342  86.7265808  74.6510384 121.1855342  83.9605808  73.7700384
 122.1725342  84.3235808  75.1610384 119.7625342  83.8905808  75.7700384
 120.3055342  85.4675808  76.2790384 118.6365342  84.8415808  73.8070384
 118.0615342  85.6595808  75.2390384 119.6545342  87.5295808  74.8140384
 118.0705342  86.9125808  72.5510384  26.1885342  92.7575808  92.7210384
  26.6315342  93.9265808  91.8190384  26.1835342  93.7265808  90.3560384
  26.6095342  92.3515808  89.7970384  26.1675342  91.1965808  90.7160384
  26.6645342  91.3975808  92.1630384  26.2785342  90.3285808  93.0010384
  26.5535342  92.9025808  93.7400384  25.0985342  92.7645808  92.7800384
  26.2325342  94.8665808  92.2050384  27.7185342  94.0215808  91.8550384
  25.0985342  93.8185808  90.2970384  26.5895342  94.5235808  89.7310384
  26.1955342  92.2125808  88.7980384  27.6935342  92.3285808  89.6820384
  25.0765342  91.1535808  90.7090384  26.5145342  90.2405808  90.3200384
  27.7555342  91.4225808  92.1310384  25.3185342  90.3015808  93.0340384
  82.6875342  90.8705808 123.3660384  81.4885342  91.8175808 123.1560384
  81.5545342  93.0445808 124.0880384  81.7435342  92.6465808 125.5670384
  82.9385342  91.6935808 125.7580384  82.8275342  90.4515808 124.8470384
  83.9115342  89.5675808 125.0370384  82.5955342  89.9905808 122.7270384
  83.5935342  91.3895808 123.0480384  81.4485342  92.1415808 122.1150384
  80.5605342  91.2725808 123.3390384  82.3815342  93.6855808 123.7800384
  80.6495342  93.6445808 123.9770384  81.8775342  93.5395808 126.1790384
  80.8345342  92.1645808 125.9310384  83.8525342  92.2405808 125.5180384
  83.0255342  91.3955808 126.8040384  81.9125342  89.9265808 125.1250384
  84.7215342  90.0245808 124.7930384  78.4765342  58.9555808 122.8870384
  78.5135342  60.3535808 123.5350384  78.1885342  60.2975808 125.0430384
  76.8715342  59.5445808 125.3300384  76.8495342  58.1545808 124.6660384
  77.1325342  58.2415808 123.1510384  77.0905342  56.9705808 122.5390384
  78.6675342  59.0275808 121.8150384  79.2925342  58.3625808 123.3060384
  79.4935342  60.8095808 123.3820384  77.7955342  61.0055808 123.0340384
  79.0065342  59.8035808 125.5690384  78.1355342  61.3085808 125.4490384
  76.7265342  59.4465808 126.4060384  76.0305342  60.1345808 124.9640384
  77.6105342  57.5355808 125.1440384  75.8935342  57.6605808 124.8510384
  76.3455342  58.8545808 122.7090384  77.7815342  56.4255808 122.9250384
 119.1855342  84.1295808 124.0310384 119.9025342  84.4125808 122.6960384
 120.5735342  83.1465808 122.1240384 121.4905342  82.4535808 123.1540384
 120.7605342  82.1875808 124.4850384 120.1365342  83.4765808 125.0600384
 119.4865342  83.2375808 126.2900384 118.7555342  85.0475808 124.4350384
 118.3475342  83.4575808 123.8340384 119.1945342  84.8175808 121.9720384
 120.6575342  85.1855808 122.8460384 119.8025342  82.4455808 121.8010384
 121.1445342  83.4005808 121.2300384 121.8715342  81.5175808 122.7440384
 122.3645342  83.0795808 123.3390384 119.9755342  81.4525808 124.3020384
 121.4415342  81.7345808 125.2080384 120.9515342  84.1795808 125.2410384
 118.7665342  82.6195808 126.1370384  75.1735342 112.6385808  39.5020384
  75.0915342 113.6775808  40.6380384  76.4835342 114.0115808  41.2150384
  77.2655342 112.7445808  41.6240384  77.3295342 111.7145808  40.4800384
  75.9225342 111.3635808  39.9510384  75.9785342 110.4035808  38.9180384
  74.1735342 112.3885808  39.1410384  75.7005342 113.0925808  38.6610384
  74.6105342 114.5875808  40.2760384  74.4525342 113.2935808  41.4360384
  77.0575342 114.5635808  40.4700384  76.3805342 114.6775808  42.0720384
  78.2745342 113.0155808  41.9380384  76.7895342 112.2915808  42.4940384
  77.9275342 112.1385808  39.6710384  77.8515342 110.8135808  40.8080384
  75.3615342 110.9315808  40.7820384  76.4715342 110.7775808  38.1820384
  81.9475342 101.7905808  38.2720384  80.8845342 101.0305808  39.0900384
  80.3425342  99.8015808  38.3300384  79.8535342 100.1615808  36.9100384
  80.9245342 100.9285808  36.1110384  81.4185342 102.1765808  36.8730384
  82.3835342 102.8915808  36.1320384  82.2835342 102.6765808  38.8130384
  82.8215342 101.1445808  38.1640384  81.3035342 100.7195808  40.0490384
  80.0575342 101.7035808  39.3260384  81.1275342  99.0475808  38.2590384
  79.5315342  99.3415808  38.8970384  79.5665342  99.2555808  36.3750384
  78.9505342 100.7695808  36.9820384  81.7645342 100.2545808  35.9330384
  80.5395342 101.2055808  35.1280384  80.5555342 102.8295808  37.0200384
  83.1465342 102.3225808  35.9990384  35.3815342 113.1845808  58.7020384
  36.0775342 114.5575808  58.7900384  35.3995342 115.6055808  57.8820384
  35.2465342 115.1105808  56.4280384  34.5585342 113.7325808  56.3610384
  35.2815342 112.6915808  57.2410384  34.6635342 111.4235808  57.1620384
  35.9045342 112.4525808  59.3190384  34.3785342 113.2825808  59.1220384
  36.0825342 114.9075808  59.8230384  37.1245342 114.4525808  58.5010384
  34.4145342 115.8465808  58.2850384  35.9685342 116.5365808  57.9000384
  34.6825342 115.8375808  55.8440384  36.2315342 115.0465808  55.9630384
  33.5285342 113.8485808  56.7040384  34.4995342 113.3875808  55.3270384
  36.2995342 112.5935808  56.8590384  33.7665342 111.5035808  57.4970384
  40.6405342  51.2945808 114.1540384  39.8595342  51.5645808 115.4550384
  38.3965342  51.9675808 115.1760384  38.2935342  53.1325808 114.1690384
  39.0875342  52.8495808 112.8790384  40.5575342  52.4935808 113.1820384
  41.2915342  52.2545808 112.0000384  41.6815342  51.0525808 114.3770384
  40.2145342  50.4095808 113.6760384  39.8865342  50.6815808 116.0960384
  40.3535342  52.3605808 116.0160384  37.8555342  51.1045808 114.7840384
  37.9005342  52.2365808 116.1090384  37.2465342  53.3245808 113.9280384
  38.6695342  54.0455808 114.6330384  38.6095342  52.0165808 112.3610384
  39.0305342  53.7045808 112.2020384  41.0025342  53.3525808 113.6870384
  40.9035342  51.4985808 111.5500384  78.3195342  43.2025808  92.8940384
  79.7415342  42.9875808  92.3390384  79.7725342  43.0455808  90.7980384
  78.7365342  42.0985808  90.1560384  77.3225342  42.3205808  90.7290384
  77.3095342  42.2135808  92.2690384  76.0115342  42.3965808  92.7930384
  78.3175342  43.1155808  93.9820384  78.0145342  44.2265808  92.6660384
  80.4205342  43.7355808  92.7540384  80.1185342  42.0185808  92.6730384
  79.5755342  44.0675808  90.4720384  80.7735342  42.8005808  90.4370384
  78.7255342  42.2365808  89.0740384  79.0375342  41.0635808  90.3260384
  76.9865342  43.3155808  90.4300384  76.6185342  41.6135808  90.2890384
  77.6385342  41.2055808  92.5270384  75.7165342  43.2825808  92.5690384
  47.8015342  73.1675808  70.0520384  47.9265342  74.6825808  69.7920384
  47.5545342  75.5125808  71.0380384  46.1765342  75.1205808  71.6130384
  46.0675342  73.6025808  71.8580384  46.3995342  72.7955808  70.5850384
  46.2795342  71.4065808  70.8030384  48.0285342  72.6045808  69.1450384
  48.5575342  72.8845808  70.7880384  48.9415342  74.9235808  69.4730384
  47.2735342  74.9625808  68.9630384  48.3175342  75.3715808  71.8040384
  47.5665342  76.5755808  70.7920384  45.9935342  75.6625808  72.5420384
  45.3935342  75.4335808  70.9210384  46.7665342  73.3345808  72.6530384
  45.0715342  73.3485808  72.2260384  45.6745342  73.0815808  69.8210384
  46.9155342  71.1485808  71.4750384  96.6365342 130.6405808  96.5350384
  97.0915342 130.3145808  97.9720384  95.9745342 129.6295808  98.7880384
  94.6515342 130.4235808  98.7500384  94.2175342 130.7485808  97.3070384
  95.3345342 131.4725808  96.5260384  94.9295342 131.7895808  95.2110384
  97.4275342 131.1605808  95.9930384  96.4695342 129.6985808  96.0080384
  97.9775342 129.6785808  97.9470384  97.3935342 131.2355808  98.4740384
  95.8035342 128.6275808  98.3920384  96.2995342 129.4955808  99.8210384
  93.8665342 129.8625808  99.2580384  94.7715342 131.3525808  99.3100384
  93.9715342 129.8105808  96.8060384  93.3025342 131.3435808  97.3110384
  95.5425342 132.4075808  97.0490384  94.7445342 130.9695808  94.7450384
  76.8645342  94.7815808  14.9230384  77.4105342  93.3395808  14.8980384
  78.9145342  93.2875808  15.2370384  79.7455342  94.2525808  14.3640384
  79.1795342  95.6855808  14.3940384  77.6865342  95.7165808  14.0070384
  77.1735342  97.0315808  14.0130384  75.8105342  94.7955808  14.6380384
  76.9115342  95.1465808  15.9510384  76.8495342  92.7165808  15.5960384
  77.2485342  92.9075808  13.9080384  79.0545342  93.5445808  16.2890384
  79.2865342  92.2685808  15.1230384  80.7835342  94.2545808  14.6970384
  79.7585342  93.8895808  13.3360384  79.3025342  96.0795808  15.4050384
  79.7605342  96.3375808  13.7380384  77.6065342  95.3285808  12.9900384
  77.2405342  97.3785808  14.9070384  46.0055342 123.1215808  97.9970384
  46.1975342 121.6255808  97.6790384  45.8295342 120.7295808  98.8800384
  46.5525342 121.1585808 100.1740384  46.3575342 122.6585808 100.4710384
  46.7755342 123.5355808  99.2720384  46.6165342 124.9105808  99.5500384
  46.3125342 123.7345808  97.1480384  44.9385342 123.3055808  98.1410384
  45.5985342 121.3485808  96.8100384  47.2375342 121.4445808  97.3990384
  44.7515342 120.7705808  99.0410384  46.0615342 119.6885808  98.6520384
  46.1965342 120.5635808 101.0150384  47.6185342 120.9435808 100.0820384
  45.3025342 122.8265808 100.6960384  46.9115342 122.9445808 101.3670384
  47.8345342 123.3495808  99.0870384  45.6845342 125.0805808  99.7140384
  81.6485342 121.3905808  71.1440384  81.4925342 120.1825808  72.0880384
  80.3265342 120.3745808  73.0810384  80.4215342 121.7135808  73.8430384
  80.5865342 122.9095808  72.8840384  81.7855342 122.7135808  71.9320384
  81.9515342 123.8175808  71.0680384  82.5045342 121.2495808  70.4820384
  80.7665342 121.4405808  70.5030384  81.3395342 119.2725808  71.5060384
  82.4195342 120.0335808  72.6440384  79.3815342 120.3365808  72.5370384
  80.3015342 119.5445808  73.7890384  79.5345342 121.8525808  74.4620384
  81.2685342 121.6805808  74.5290384  79.6695342 123.0075808  72.3000384
  80.6915342 123.8375808  73.4480384  82.6815342 122.6325808  72.5500384
  81.1655342 123.8935808  70.5200384 104.8615342  46.1015808  73.7570384
 104.1265342  46.3905808  72.4320384 104.2075342  47.8815808  72.0430384
 103.7535342  48.8105808  73.1890384 104.4915342  48.5015808  74.5060384
 104.3585342  47.0145808  74.8970384 105.0155342  46.7345808  76.1150384
 104.7545342  45.0505808  74.0310384 105.9295342  46.2715808  73.5990384
 104.5425342  45.7735808  71.6340384 103.0795342  46.0975808  72.5280384
 105.2345342  48.1255808  71.7680384 103.6035342  48.0655808  71.1530384
 103.9125342  49.8525808  72.9080384 102.6785342  48.6995808  73.3410384
 105.5455342  48.7505808  74.3720384 104.1235342  49.1445808  75.3080384
 103.2945342  46.8085808  75.0340384 105.9535342  46.9145808  76.0010384
 110.2775342  60.5945808 124.5410384 110.3795342  59.2975808 123.7140384
 111.6005342  59.3105808 122.7700384 111.6475342  60.5795808 121.8920384
 111.5345342  61.8655808 122.7340384 110.2825342  61.8475808 123.6360384
 110.1675342  63.0335808 124.3920384 109.3845342  60.5775808 125.1680384
 111.1315342  60.6345808 125.2210384 110.4335342  58.4345808 124.3790384
 109.4695342  59.1705808 123.1250384 112.5135342  59.2505808 123.3630384
 111.5915342  58.4215808 122.1380384 112.5695342  60.5955808 121.3090384
 110.8325342  60.5485808 121.1680384 112.4295342  61.9455808 123.3540384
 111.5295342  62.7445808 122.0870384 109.4115342  61.7795808 122.9820384
 110.9315342  63.0995808 124.9710384 111.6535342  83.0175808 116.9840384
 111.4455342  84.4535808 117.5040384 110.0095342  84.9575808 117.2460384
 109.5895342  84.7935808 115.7700384 109.8125342  83.3555808 115.2640384
 111.2665342  82.8915808 115.4930384 111.4785342  81.5815808 115.0110384
 112.6865342  82.7015808 117.1400384 111.0315342  82.3445808 117.5790384
 111.6695342  84.4995808 118.5710384 112.1565342  85.1225808 117.0160384
 109.3155342  84.4045808 117.8800384 109.9235342  86.0035808 117.5440384
 108.5425342  85.0725808 115.6480384 110.1605342  85.4875808 115.1520384
 109.1305342  82.6945808 115.8030384 109.5465342  83.2775808 114.2090384
 111.9155342  83.5655808 114.9310384 110.9095342  80.9825808 115.5030384
  96.2245342 116.0265808 106.3860384  97.7295342 116.0225808 106.0520384
  98.1005342 117.1425808 105.0560384  97.2115342 117.1205808 103.7940384
  95.7115342 117.1145808 104.1470384  95.3585342 115.9595808 105.1080384
  93.9805342 115.9405808 105.4150384  95.9815342 115.2005808 107.0570384
  95.9975342 116.9445808 106.9310384  98.3145342 116.1295808 106.9660384
  98.0045342 115.0555808 105.6270384  97.9995342 118.1095808 105.5500384
  99.1505342 117.0545808 104.7730384  97.4425342 117.9785808 103.1620384
  97.4475342 116.2365808 103.2010384  95.4695342 118.0685808 104.6190384
  95.1075342 117.0585808 103.2400384  95.6025342 115.0265808 104.5980384
  93.7585342 116.7605808 105.8650384  56.7175342 108.8615808 104.3740384
  56.1215342 110.2815808 104.2920384  55.3765342 110.5165808 102.9610384
  56.2455342 110.1655808 101.7340384  56.8405342 108.7475808 101.8390384
  57.6175342 108.5515808 103.1570384  58.1805342 107.2605808 103.2440384
  57.2735342 108.7355808 105.3050384  55.8925342 108.1465808 104.4080384
  55.4455342 110.4505808 105.1320384  56.9215342 111.0165808 104.3940384
  54.4705342 109.9105808 102.9440384  55.0475342 111.5545808 102.8980384
  55.6555342 110.2565808 100.8220384  57.0545342 110.8925808 101.6450384
  56.0205342 108.0295808 101.7890384  57.4825342 108.5405808 100.9800384
  58.4345342 109.2765808 103.1640384  57.4665342 106.6175808 103.2390384
  88.7035342  77.1845808  21.0370384  88.9415342  76.9565808  22.5430384
  87.6835342  77.2715808  23.3790384  87.1145342  78.6735808  23.0740384
  86.8915342  78.8875808  21.5640384  88.1755342  78.6095808  20.7540384
  87.9785342  78.8245808  19.3730384  89.6185342  76.9955808  20.4730384
  87.9715342  76.4505808  20.6920384  89.2575342  75.9265808  22.7180384
  89.7665342  77.5875808  22.8790384  86.9185342  76.5215808  23.1740384
  87.9135342  77.1875808  24.4420384  86.1785342  78.8205808  23.6130384
  87.8025342  79.4325808  23.4490384  86.1005342  78.2095808  21.2370384
  86.5275342  79.8985808  21.3720384  88.9365342  79.3125808  21.0990384
  87.3095342  78.2085808  19.0620384  85.9845342  47.0905808  99.7680384
  86.6285342  48.3835808 100.3060384  87.3835342  48.1425808 101.6300384
  86.5055342  47.4345808 102.6840384  85.8625342  46.1495808 102.1250384
  85.0765342  46.4245808 100.8260384  84.4695342  45.2525808 100.3250384
  85.4225342  47.2965808  98.8550384  86.7845342  46.4005808  99.4890384
  87.3085342  48.7995808  99.5610384  85.8545342  49.1365808 100.4630384
  88.2685342  47.5365808 101.4340384  87.7485342  49.0905808 102.0280384
  87.1005342  47.1995808 103.5670384  85.7215342  48.1155808 103.0190384
  86.6575342  45.4295808 101.9240384  85.2155342  45.6905808 102.8750384
  84.2855342  47.1365808 101.0690384  85.1615342  44.6225808 100.1090384
 118.1015342  60.7425808 107.8220384 118.2785342  60.7005808 106.2910384
 117.2245342  59.7985808 105.6140384 117.1685342  58.3905808 106.2440384
 117.0015342  58.4515808 107.7750384 118.0935342  59.3225808 108.4320384
 117.9535342  59.3625808 109.8360384 118.8835342  61.3515808 108.2790384
 117.1545342  61.2385808 108.0430384 118.2215342  61.7105808 105.8810384
 119.2775342  60.3315808 106.0510384 116.2435342  60.2685808 105.6970384
 117.4335342  59.7205808 104.5460384 116.3525342  57.8175808 105.8030384
 118.0835342  57.8485808 106.0010384 116.0185342  58.8735808 107.9940384
 117.0055342  57.4455808 108.1990384 119.0565342  58.8635808 108.2020384
 117.1065342  59.7655808 110.0450384  19.8145342  57.7435808  59.2650384
  21.2435342  57.1645808  59.2420384  22.1645342  57.9435808  58.2800384
  21.5565342  58.0795808  56.8680384  20.1255342  58.6515808  56.9120384
  19.2125342  57.8285808  57.8440384  17.8965342  58.3385808  57.8680384
  19.1725342  57.1505808  59.9190384  19.8585342  58.7435808  59.7010384
  21.6645342  57.1705808  60.2480384  21.2045342  56.1165808  58.9360384
  22.3515342  58.9375808  58.6890384  23.1375342  57.4535808  58.2210384
  22.1925342  58.7135808  56.2490384  21.5415342  57.1015808  56.3850384
  20.1805342  59.6805808  57.2710384  19.7045342  58.6995808  55.9060384
  19.1725342  56.8125808  57.4470384  17.9245342  59.2335808  58.2180384
  96.2865342  31.0705808 107.8820384  96.2495342  29.8275808 106.9710384
  95.2975342  28.7425808 107.5160384  95.5945342  28.3905808 108.9900384
  95.6365342  29.6455808 109.8830384  96.6285342  30.6965808 109.3410384
  96.6845342  31.8375808 110.1710384  96.9985342  31.8035808 107.4970384
  95.3045342  31.5475808 107.8490384  95.9495342  30.1135808 105.9620384
  97.2565342  29.4135808 106.8810384  94.2675342  29.0925808 107.4310384
  95.3645342  27.8455808 106.8990384  94.8445342  27.6925808 109.3640384
  96.5505342  27.8695808 109.0520384  94.6335342  30.0745808 109.9160384
  95.8875342  29.3735808 110.9100384  97.6185342  30.2355808 109.3360384
  95.8155342  32.2475808 110.1790384  66.8585342 111.6275808  50.6800384
  66.8575342 111.9605808  52.1850384  65.8575342 111.0835808  52.9680384
  64.4425342 111.1185808  52.3520384  64.4635342 110.7925808  50.8460384
  65.4375342 111.7115808  50.0780384  65.4415342 111.4285808  48.6950384
  67.5415342 112.2885808  50.1440384  67.2465342 110.6145808  50.5540384
  67.8615342 111.8365808  52.5950384  66.6015342 113.0125808  52.3240384
  66.2175342 110.0545808  52.9840384  65.8175342 111.4065808  54.0100384
  63.7915342 110.4175808  52.8760384  64.0065342 112.1065808  52.5030384
  64.7735342 109.7525808  50.7260384  63.4585342 110.8625808  50.4270384
  65.0885342 112.7375808  50.2110384  65.7485342 110.5255808  48.5720384
  29.6965342  49.1155808 106.2290384  31.2055342  49.0035808 106.5230384
  31.9795342  50.2495808 106.0420384  31.6865342  50.5865808 104.5650384
  30.1735342  50.6845808 104.2870384  29.4285342  49.4095808 104.7360384
  28.0455342  49.4905808 104.4620384  29.1785342  48.2065808 106.5400384
  29.2885342  49.9265808 106.8370384  31.3665342  48.8545808 107.5920384
  31.6065342  48.1165808 106.0300384  31.7095342  51.1025808 106.6660384
  33.0505342  50.0985808 106.1840384  32.1765342  51.5205808 104.2920384
  32.1225342  49.8175808 103.9250384  29.7825342  51.5455808 104.8320384
  29.9925342  50.8835808 103.2290384  29.8365342  48.5755808 104.1620384
  27.6795342  50.2225808 104.9650384  59.8825342  18.5835808  63.6250384
  60.4475342  20.0145808  63.5290384  61.6305342  20.2325808  64.4950384
  61.2855342  19.8265808  65.9440384  60.7135342  18.3975808  66.0190384
  59.5035342  18.2175808  65.0780384  58.9665342  16.9155808  65.1630384
  59.0215342  18.4685808  62.9640384  60.6445342  17.8895808  63.2630384
  60.7595342  20.2235808  62.5050384  59.6575342  20.7325808  63.7580384
  62.4865342  19.6485808  64.1530384  61.9465342  21.2755808  64.4670384
  62.1725342  19.9065808  66.5740384  60.5595342  20.5295808  66.3530384
  61.5035342  17.6985808  65.7350384  60.4415342  18.1505808  67.0470384
  58.7345342  18.9215808  65.4010384  59.6395342  16.2905808  64.8790384
  44.3325342 108.2755808  51.3330384  44.7685342 109.6045808  50.6850384
  46.3015342 109.7795808  50.7060384  46.8935342 109.5845808  52.1180384
  46.4395342 108.2565808  52.7530384  44.9015342 108.1255808  52.7620384
  44.4845342 106.9185808  53.3630384  43.2435342 108.1955808  51.3440384
  44.6955342 107.4555808  50.7090384  44.4015342 109.6575808  49.6590384
  44.3025342 110.4375808  51.2160384  46.7545342 109.0585808  50.0240384
  46.5685342 110.7655808  50.3230384  47.9825342 109.6235808  52.0730384
  46.5875342 110.4145808  52.7560384  46.8715342 107.4365808  52.1760384
  46.8385342 108.1625808  53.7650384  44.5095342 108.9515808  53.3570384
  44.8275342 106.1865808  52.8430384  27.3605342  83.5225808  97.3740384
  28.7265342  82.8705808  97.6650384  29.8015342  83.3065808  96.6470384
  29.3435342  83.0995808  95.1870384  27.9725342  83.7495808  94.9180384
  26.9045342  83.2635808  95.9200384  25.6435342  83.8425808  95.6610384
  26.6095342  83.1665808  98.0810384  27.4535342  84.5985808  97.5390384
  29.0505342  83.1185808  98.6770384  28.6225342  81.7835808  97.6380384
  30.0375342  84.3595808  96.8030384  30.7275342  82.7595808  96.8270384
  30.0895342  83.5035808  94.5020384  29.2855342  82.0305808  94.9750384
  28.0865342  84.8315808  95.0030384  27.6535342  83.5545808  93.8920384
  26.8105342  82.1835808  95.7970384  25.7195342  84.7945808  95.7680384
  32.2365342 105.8335808  60.7570384  33.5695342 106.5205808  61.1170384
  34.1535342 107.3035808  59.9230384  34.2585342 106.4375808  58.6500384
  32.9205342 105.7515808  58.3110384  32.3785342 104.9385808  59.5060384
  31.1645342 104.2915808  59.1890384  31.8665342 105.2525808  61.6040384
  31.4925342 106.6095808  60.5660384  33.4255342 107.1895808  61.9670384
  34.2895342 105.7675808  61.4430384  33.5235342 108.1695808  59.7180384
  35.1365342 107.7005808  60.1850384  34.5865342 107.0495808  57.8090384
  35.0285342 105.6785808  58.7910384  32.1995342 106.5245808  58.0400384
  33.0315342 105.1145808  57.4320384  33.1185342 104.1695808  59.7380384
  30.5085342 104.9635808  58.9840384  79.0445342 125.2455808 102.8200384
  79.5965342 123.8085808 102.7390384  80.6745342 123.6665808 101.6450384
  80.1945342 124.1955808 100.2770384  79.6385342 125.6295808 100.3790384
  78.5295342 125.7355808 101.4480384  78.0055342 127.0435808 101.5270384
  78.2545342 125.3095808 103.5710384  79.8485342 125.9015808 103.1620384
  80.0045342 123.5105808 103.7060384  78.7775342 123.1165808 102.5310384
  81.5685342 124.2135808 101.9480384  80.9765342 122.6215808 101.5540384
  81.0125342 124.1635808  99.5570384  79.4205342 123.5335808  99.8850384
  80.4615342 126.2965808 100.6400384  79.2685342 125.9635808  99.4080384
  77.7225342 125.0655808 101.1460384  78.7115342 127.6375808 101.7930384
  98.7205342 137.8325808  73.2910384  97.3865342 137.7655808  74.0600384
  97.0735342 136.3345808  74.5470384  97.1535342 135.2975808  73.4060384
  98.4895342 135.3855808  72.6430384  98.7575342 136.8155808  72.1280384
  99.9705342 136.8925808  71.4100384  98.8975342 138.8435808  72.9220384
  99.5295342 137.6135808  73.9910384  97.4105342 138.4505808  74.9090384
  96.5775342 138.1125808  73.4140384  97.7795342 136.0605808  75.3320384
  96.0845342 136.3065808  75.0060384  97.0185342 134.2925808  73.8070384
  96.3275342 135.4605808  72.7120384  99.2905342 135.0865808  73.3220384
  98.5035342 134.6715808  71.8180384  97.9455342 137.0725808  71.4450384
 100.6905342 136.6675808  72.0060384  53.5945342 112.3365808  83.7200384
  54.8395342 111.4675808  83.9890384  56.0525342 111.9235808  83.1510384
  55.7175342 112.0305808  81.6480384  54.4655342 112.8945808  81.3980384
  53.2555342 112.3915808  82.2130384  52.1025342 113.1695808  81.9690384
  52.7415342 111.9675808  84.2920384  53.7975342 113.3465808  84.0840384
  55.0895342 111.4945808  85.0510384  54.6115342 110.4255808  83.7580384
  56.3945342 112.8945808  83.5130384  56.8855342 111.2345808  83.2980384
  56.5685342 112.4435808  81.1060384  55.5555342 111.0315808  81.2410384
  54.6975342 113.9215808  81.6860384  54.2285342 112.9205808  80.3330384
  53.0475342 111.3695808  81.8890384  52.2795342 114.0705808  82.2530384
  48.8145342 115.3725808 105.8130384  49.8785342 115.0805808 104.7350384
  50.8875342 116.2385808 104.5930384  50.1905342 117.6005808 104.3860384
  49.1255342 117.8715808 105.4660384  48.1015342 116.7195808 105.5570384
  47.1135342 116.9765808 106.5320384  48.0895342 114.5585808 105.8640384
  49.3125342 115.4035808 106.7850384  50.4045342 114.1545808 104.9730384
  49.3855342 114.9115808 103.7760384  51.5085342 116.2855808 105.4890384
  51.5685342 116.0385808 103.7640384  50.9315342 118.4005808 104.3840384
  49.7215342 117.6195808 103.4010384  49.6335342 117.9835808 106.4250384
  48.6205342 118.8195808 105.2730384  47.6075342 116.6465808 104.5870384
  47.5425342 117.0415808 107.3890384  95.0615342 102.6295808 116.7080384
  95.0455342 101.0975808 116.5370384  94.1485342 100.4105808 117.5880384
  94.4985342 100.8435808 119.0280384  94.5185342 102.3765808 119.1780384
  95.4565342 103.0375808 118.1450384  95.4925342 104.4405808 118.2960384
  95.7345342 103.0875808 115.9810384  94.0615342 103.0085808 116.4850384
  94.7075342 100.8385808 115.5330384  96.0635342 100.7125808 116.6230384
  93.1055342 100.6525808 117.3840384  94.2315342  99.3265808 117.4950384
  93.7855342 100.4095808 119.7300384  95.4745342 100.4395808 119.3000384
  93.5015342 102.7475808 119.0350384  94.8075342 102.6565808 120.1930384
  96.4625342 102.6535808 118.3270384  94.6095342 104.7845808 118.1360384
  49.7315342  28.9015808  53.9170384  49.5275342  27.4975808  53.3140384
  48.2035342  26.8575808  53.7820384  48.0575342  26.8705808  55.3180384
  48.2745342  28.2795808  55.9040384  49.6245342  28.8795808  55.4580384
  49.8325342  30.1615808  56.0110384  50.6925342  29.3145808  53.6050384
  48.9645342  29.5635808  53.5080384  49.5495342  27.5525808  52.2240384
  50.3615342  26.8545808  53.6020384  47.3665342  27.3975808  53.3370384
  48.1345342  25.8335808  53.4100384  47.0735342  26.4965808  55.6020384
  48.7815342  26.1815808  55.7560384  47.4595342  28.9205808  55.5600384
  48.2055342  28.2535808  56.9930384  50.4115342  28.2205808  55.8290384
  49.1425342  30.7475808  55.6870384  93.8125342 113.5325808 128.1650384
  93.2515342 114.7375808 127.3840384  92.9875342 114.3925808 125.9030384
  94.2215342 113.7645808 125.2200384  94.7745342 112.5685808 126.0190384
  95.0725342 112.9505808 127.4840384  95.5985342 111.8605808 128.2110384
  94.0295342 113.8145808 129.1970384  93.0375342 112.7645808 128.2110384
  92.3315342 115.0905808 127.8540384  93.9585342 115.5675808 127.4410384
  92.1495342 113.6965808 125.8410384  92.6785342 115.2875808 125.3630384
  93.9665342 113.4515808 124.2080384  95.0005342 114.5215808 125.1160384
  94.0305342 111.7695808 125.9950384  95.6685342 112.1695808 125.5370384
  95.8265342 113.7395808 127.4670384  94.9385342 111.1625808 128.2300384
  89.1775342  57.6495808 120.2700384  90.1425342  58.0095808 121.4170384
  89.3935342  58.2745808 122.7390384  88.2595342  59.3075808 122.5720384
  87.3095342  58.9365808 121.4150384  88.0785342  58.7215808 120.0950384
  87.2075342  58.4025808 119.0300384  89.7275342  57.5085808 119.3380384
  88.7135342  56.6875808 120.5030384  90.8715342  57.2085808 121.5560384
  90.7175342  58.8965808 121.1420384  88.9735342  57.3375808 123.1080384
  90.0955342  58.6125808 123.5030384  87.6965342  59.3975808 123.5010384
  88.6915342  60.2915808 122.3840384  86.7855342  58.0185808 121.6860384
  86.5425342  59.7035808 121.2930384  88.5765342  59.6615808 119.8520384
  86.7655342  57.5745808 119.2390384  72.8925342  62.4775808  37.5190384
  74.3225342  61.9055808  37.4400384  75.1575342  62.5945808  36.3400384
  74.4395342  62.5925808  34.9730384  73.0095342  63.1575808  35.0740384
  72.1815342  62.4225808  36.1490384  70.8645342  62.9255808  36.2260384
  72.3105342  61.9455808  38.2740384  72.9575342  63.5145808  37.8540384
  74.8195342  62.0105808  38.4050384  74.2735342  60.8335808  37.2390384
  75.3615342  63.6245808  36.6360384  76.1285342  62.1065808  36.2510384
  75.0175342  63.1675808  34.2490384  74.3995342  61.5725808  34.5870384
  73.0795342  64.2165808  35.3280384  72.5115342  63.1075808  34.1040384
  72.1235342  61.3735808  35.8530384  70.9085342  63.8505808  36.4870384
  59.5565342 113.7515808  93.5190384  60.9055342 113.0075808  93.4760384
  60.9685342 111.8675808  94.5130384  60.6005342 112.3475808  95.9330384
  59.2535342 113.0965808  95.9550384  59.2325342 114.2595808  94.9420384
  58.0075342 114.9595808  94.9770384  59.5535342 114.5785808  92.8070384
  58.7745342 113.0615808  93.1930384  61.0805342 112.6105808  92.4740384
  61.7155342 113.7145808  93.6660384  60.2835342 111.0725808  94.2140384
  61.9645342 111.4225808  94.5170384  60.5655342 111.4975808  96.6160384
  61.3865342 113.0045808  96.3080384  58.4635342 112.3845808  95.7100384
  59.0375342 113.4595808  96.9620384  60.0255342 114.9535808  95.2280384
  57.3045342 114.3535808  94.7260384  80.9235342  49.7075808  39.5710384
  79.9725342  50.8015808  39.0470384  79.2735342  51.5555808  40.1970384
  78.5845342  50.5975808  41.1920384  79.5475342  49.5055808  41.6980384
  80.1995342  48.7355808  40.5300384  81.0655342  47.7215808  40.9930384
  81.3725342  49.1615808  38.7390384  81.7465342  50.1945808  40.1000384
  80.5225342  51.5045808  38.4200384  79.2185342  50.3465808  38.4010384
  80.0095342  52.1595808  40.7300384  78.5435342  52.2575808  39.7910384
  78.1845342  51.1615808  42.0350384  77.7275342  50.1275808  40.7070384
  80.3235342  49.9865808  42.2960384  79.0265342  48.8185808  42.3670384
  79.3955342  48.2605808  39.9650384  81.7765342  48.1345808  41.4910384
 138.8475342  69.8705808  82.4440384 138.7415342  70.2585808  83.9330384
 137.4715342  69.6795808  84.5890384 136.1935342  70.0225808  83.7940384
 136.3215342  69.6355808  82.3070384 137.5745342  70.2635808  81.6620384
 137.6805342  69.9275808  80.2950384 139.7315342  70.3265808  81.9930384
 138.9935342  68.7895808  82.3830384 139.6275342  69.9175808  84.4710384
 138.7325342  71.3465808  84.0240384 137.5675342  68.5955808  84.6650384
 137.3825342  70.0475808  85.6130384 135.3335342  69.5195808  84.2370384
 135.9935342  71.0915808  83.8740384 136.3835342  68.5485808  82.2420384
 135.4215342  69.9255808  81.7610384 137.4695342  71.3475808  81.7350384
 137.7735342  68.9735808  80.2240384  42.3645342  61.6865808  86.9110384
  42.0605342  62.2495808  88.3130384  43.3395342  62.7335808  89.0290384
  44.4425342  61.6535808  89.0490384  44.7255342  61.0955808  87.6400384
  43.4395342  60.5775808  86.9640384  43.7015342  60.0465808  85.6820384
  41.4505342  61.3125808  86.4440384  42.7185342  62.5065808  86.2820384
  41.3435342  63.0685808  88.2390384  41.5785342  61.4785808  88.9170384
  43.7175342  63.6235808  88.5250384  43.1015342  63.0405808  90.0480384
  45.3575342  62.0645808  89.4780384  44.1395342  60.8385808  89.7070384
  45.1575342  61.8965808  87.0370384  45.4795342  60.3075808  87.6880384
  43.0455342  59.7725808  87.5880384  44.0475342  60.7505808  85.1280384
 123.6265342  59.7465808  90.0770384 122.7495342  60.6615808  90.9550384
 121.7115342  61.4385808  90.1190384 122.3585342  62.1925808  88.9370384
 123.2385342  61.2645808  88.0760384 124.2975342  60.5335808  88.9280384
 125.1175342  59.6995808  88.1370384 124.3785342  59.2405808  90.6850384
 122.9915342  58.9625808  89.6580384 122.2445342  60.0695808  91.7200384
 123.3855342  61.3685808  91.4900384 120.9655342  60.7415808  89.7350384
 121.1715342  62.1395808  90.7560384 121.5845342  62.6495808  88.3200384
 122.9645342  63.0135808  89.3200384 122.5895342  60.5315808  87.5930384
 123.7145342  61.8295808  87.2730384 124.9315342  61.2965808  89.3830384
 124.5645342  59.0255808  87.7340384  37.2635342 100.1705808 105.3900384
  37.7675342 100.0825808 106.8450384  37.4025342 101.3425808 107.6570384
  37.8475342 102.6425808 106.9530384  37.3425342 102.7085808 105.4980384
  37.7585342 101.4585808 104.6940384  37.3155342 101.5285808 103.3550384
  37.5705342  99.2875808 104.8260384  36.1715342 100.1625808 105.4060384
  37.3555342  99.1955808 107.3280384  38.8515342  99.9525808 106.8460384
  36.3235342 101.3695808 107.8130384  37.8505342 101.2865808 108.6510384
  37.4905342 103.5085808 107.5110384  38.9365342 102.7045808 106.9620384
  36.2535342 102.7835808 105.5180384  37.7045342 103.6165808 105.0110384
  38.8495342 101.4255808 104.6860384  36.3545342 101.5575808 103.3560384
  98.2725342  73.0575808  31.5710384  99.0105342  74.3105808  32.0830384
 100.5015342  74.0275808  32.3580384 100.7065342  72.8025808  33.2740384
  99.9545342  71.5625808  32.7520384  98.4565342  71.8585808  32.5280384
  97.7625342  70.7175808  32.0690384  97.2125342  73.2725808  31.4240384
  98.6735342  72.8025808  30.5870384  98.9115342  75.1225808  31.3610384
  98.5335342  74.6625808  33.0000384 101.0155342  73.8575808  31.4110384
 100.9705342  74.9075808  32.8030384 101.7695342  72.5815808  33.3680384
 100.3565342  73.0405808  34.2800384 100.4115342  71.2595808  31.8080384
 100.0825342  70.7235808  33.4380384  98.0335342  72.1445808  33.4920384
  98.1305342  70.4605808  31.2190384 114.6445342  95.0505808  76.0520384
 115.1565342  93.6285808  75.7500384 114.2555342  92.5455808  76.3810384
 114.0215342  92.7845808  77.8880384 113.5195342  94.2135808  78.1710384
 114.4605342  95.2785808  77.5690384 114.0125342  96.5875808  77.8470384
 115.3205342  95.7965808  75.6310384 113.6855342  95.1835808  75.5460384
 115.2205342  93.4765808  74.6710384 116.1735342  93.5205808  76.1320384
 113.2945342  92.5335808  75.8650384 114.6955342  91.5595808  76.2240384
 113.3085342  92.0555808  78.2740384 114.9535342  92.6135808  78.4300384
 112.5245342  94.3185808  77.7350384 113.4015342  94.3695808  79.2450384
 115.4385342  95.1505808  78.0380384 113.1515342  96.7075808  77.4360384
  80.2545342  42.2805808  36.7750384  80.2865342  42.6355808  35.2750384
  81.6925342  43.0815808  34.8200384  82.2665342  44.2055808  35.7090384
  82.2165342  43.8365808  37.2040384  80.7925342  43.4385808  37.6460384
  80.7425342  43.1215808  39.0200384  79.2425342  42.0095808  37.0810384
  80.8715342  41.3925808  36.9300384  79.9565342  41.7805808  34.6830384
  79.5715342  43.4365808  35.0770384  82.3665342  42.2235808  34.8450384
  81.6585342  43.4095808  33.7800384  83.2925342  44.4255808  35.4130384
  81.6995342  45.1225808  35.5430384  82.8975342  43.0005808  37.3720384
  82.5905342  44.6625808  37.8120384  80.1465342  44.3015808  37.4750384
  81.3095342  42.3615808  39.1770384 124.4355342  86.7135808 102.7530384
 123.1665342  87.4685808 103.1940384 123.2455342  87.9145808 104.6690384
 123.6005342  86.7475808 105.6150384 124.8665342  85.9985808 105.1530384
 124.7445342  85.5245808 103.6900384 125.8945342  84.8195808 103.2730384
 124.3365342  86.3725808 101.7200384 125.2735342  87.4145808 102.7670384
 123.0055342  88.3355808 102.5510384 122.2955342  86.8255808 103.0570384
 123.9975342  88.6985808 104.7670384 122.2985342  88.3645808 104.9720384
 123.7385342  87.1205808 106.6300384 122.7625342  86.0505808 105.6590384
 125.7165342  86.6765808 105.2470384 125.0715342  85.1555808 105.8150384
 123.8945342  84.8415808 103.6390384 126.6465342  85.4155808 103.3140384
  53.7465342  64.0145808  38.8140384  55.0715342  64.7975808  38.8930384
  55.0735342  66.0225808  37.9550384  54.6895342  65.6515808  36.5070384
  53.3675342  64.8615808  36.4480384  53.4065342  63.6165808  37.3600384
  52.2035342  62.8805808  37.2900384  53.7865342  63.1305808  39.4540384
  52.9505342  64.6485808  39.2130384  55.2565342  65.1145808  39.9210384
  55.8995342  64.1365808  38.6270384  54.3715342  66.7665808  38.3340384
  56.0555342  66.4995808  37.9690384  54.6115342  66.5535808  35.9000384
  55.4875342  65.0545808  36.0620384  52.5605342  65.5225808  36.7690384
  53.1395342  64.5765808  35.4190384  54.2145342  62.9765808  37.0010384
  51.4885342  63.4395808  37.6060384 125.8705342  68.4905808 112.1000384
 126.5725342  69.8625808 112.0960384 126.5055342  70.5395808 110.7100384
 127.0075342  69.6125808 109.5820384 126.3015342  68.2425808 109.6080384
 126.4215342  67.5665808 110.9900384 125.7935342  66.3025808 111.0080384
 125.9685342  68.0145808 113.0780384 124.8015342  68.6515808 111.9410384
 126.1245342  70.5125808 112.8490384 127.6165342  69.7365808 112.3870384
 125.4755342  70.8325808 110.5030384 127.0865342  71.4625808 110.7200384
 126.8575342  70.0905808 108.6140384 128.0835342  69.4675808 109.6850384
 125.2485342  68.3965808 109.3670384 126.7035342  67.5935808 108.8270384
 127.4845342  67.4175808 111.1880384 124.8565342  66.4265808 110.8340384
  45.7435342  92.7925808  58.9540384  45.9305342  94.3175808  59.0840384
  44.6615342  95.0905808  58.6670384  44.1535342  94.6715808  57.2710384
  43.9815342  93.1435808  57.1570384  45.2775342  92.3955808  57.5350384
  45.1275342  90.9975808  57.4100384  46.6675342  92.2715808  59.2140384
  44.9955342  92.4765808  59.6840384  46.2025342  94.5735808  60.1090384
  46.7685342  94.6345808  58.4600384  43.8765342  94.9145808  59.4030384
  44.8585342  96.1635808  58.6850384  43.2085342  95.1695808  57.0540384
  44.8575342  95.0145808  56.5120384  43.1765342  92.8405808  57.8280384
  43.6605342  92.8715808  56.1500384  46.0525342  92.7145808  56.8370384
  44.4455342  90.7095808  58.0240384  61.9565342 121.7485808  45.4240384
  61.5375342 122.0785808  43.9770384  61.3385342 120.8035808  43.1310384
  62.5595342 119.8625808  43.1940384  62.9705342 119.5515808  44.6470384
  63.2075342 120.8415808  45.4600384  63.6035342 120.5575808  46.7850384
  62.1315342 122.6655808  45.9890384  61.1235342 121.2385808  45.9130384
  60.6205342 122.6695808  43.9810384  62.3005342 122.7055808  43.5130384
  60.4555342 120.2705808  43.4860384  61.1315342 121.0745808  42.0940384
  62.3435342 118.9355808  42.6620384  63.3995342 120.3235808  42.6720384
  62.1705342 118.9705808  45.1100384  63.8595342 118.9185808  44.6640384
  64.0185342 121.3865808  44.9750384  62.8925342 120.0775808  47.2180384
  53.7715342  19.6525808  68.7880384  55.1245342  19.1115808  69.2930384
  56.3155342  19.8555808  68.6530384  56.2265342  19.8865808  67.1120384
  54.8645342  20.4205808  66.6270384  53.6905342  19.6325808  67.2450384
  52.4435342  20.1065808  66.7840384  52.9475342  19.0825808  69.2230384
  53.6585342  20.6785808  69.1450384  55.1755342  19.1925808  70.3800384
  55.1975342  18.0465808  69.0640384  56.3465342  20.8775808  69.0320384
  57.2525342  19.3895808  68.9620384  57.0325342  20.4985808  66.7050384
  56.3825342  18.8805808  66.7200384  54.7885342  21.4715808  66.9120384
  54.8125342  20.3945808  65.5370384  53.7945342  18.5935808  66.9270384
  52.3465342  21.0215808  67.0610384  43.7335342 121.2965808  79.4550384
  44.4345342 122.6655808  79.3570384  43.4685342 123.7755808  78.8930384
  42.7225342 123.3965808  77.5950384  42.0365342 122.0215808  77.7080384
  43.0325342 120.9205808  78.1300384  42.4085342 119.6565808  78.2130384
  44.4465342 120.5225808  79.7440384  42.9925342 121.3475808  80.2560384
  44.8705342 122.9315808  80.3220384  45.2695342 122.5965808  78.6570384
  42.7405342 123.9715808  79.6820384  44.0155342 124.7075808  78.7480384
  41.9855342 124.1625808  77.3530384  43.4285342 123.3815808  76.7640384
  41.2405342 122.0975808  78.4520384  41.5515342 121.7595808  76.7660384
  43.8025342 120.8665808  77.3580384  41.7295342 119.6985808  78.8910384
 102.2025342  85.0805808 130.4790384 102.6635342  86.4445808 129.9280384
 101.8385342  86.8775808 128.6980384 101.7915342  85.7835808 127.6100384
 101.3375342  84.4255808 128.1810384 102.2065342  83.9935808 129.3810384
 101.8045342  82.7395808 129.8900384 102.8275342  84.7775808 131.3200384
 101.1895342  85.1955808 130.8730384 102.5945342  87.2045808 130.7090384
 103.7185342  86.3875808 129.6540384 100.8215342  87.1145808 129.0140384
 102.2485342  87.7995808 128.2820384 101.1255342  86.0905808 126.8030384
 102.7805342  85.6765808 127.1630384 100.2975342  84.5195808 128.4980384
 101.3525342  83.6625808 127.4010384 103.2325342  83.8975808 129.0210384
 100.9015342  82.8175808 130.2080384  28.7775342  97.6825808  71.2010384
  27.9325342  97.0755808  72.3390384  27.5725342  95.6005808  72.0650384
  26.9275342  95.4035808  70.6760384  27.7815342  96.0245808  69.5530384
  28.0895342  97.5115808  69.8280384  28.8535342  98.0865808  68.7890384
  28.9825342  98.7365808  71.3980384  29.7455342  97.1775808  71.1880384
  28.4685342  97.1595808  73.2860384  27.0155342  97.6555808  72.4580384
  28.4765342  94.9925808  72.1310384  26.9025342  95.2315808  72.8420384
  26.7755342  94.3415808  70.4840384  25.9355342  95.8575808  70.6710384
  28.7165342  95.4645808  69.4870384  27.2835342  95.9065808  68.5890384
  27.1345342  98.0375808  69.8750384  29.6965342  97.6265808  68.7430384
 109.6775342  97.9335808  36.2560384 108.2885342  97.2925808  36.4520384
 108.1335342  96.6735808  37.8570384 109.2865342  95.7065808  38.2000384
 110.6665342  96.3595808  37.9890384 110.8135342  96.9315808  36.5640384
 112.0845342  97.5115808  36.3630384 109.7765342  98.3265808  35.2430384
 109.7565342  98.7905808  36.9290384 107.5085342  98.0375808  36.2850384
 108.1355342  96.5195808  35.6970384 108.1005342  97.4715808  38.6000384
 107.1775342  96.1525808  37.9290384 109.1905342  95.3635808  39.2310384
 109.2095342  94.8145808  37.5760384 110.7775342  97.1645808  38.7180384
 111.4625342  95.6435808  38.2000384 110.7095342  96.0985808  35.8670384
 112.1825342  98.2475808  36.9740384  55.1555342  55.1175808  84.2450384
  53.9575342  56.0305808  84.5720384  53.8255342  57.1915808  83.5640384
  55.1435342  57.9775808  83.4020384  56.3315342  57.0485808  83.0850384
  56.4695342  55.9235808  84.1320384  57.5705342  55.0855808  83.8540384
  55.2525342  54.3315808  84.9960384  54.9545342  54.6155808  83.2960384
  53.0365342  55.4445808  84.5890384  54.0755342  56.4375808  85.5790384
  53.5235342  56.7925808  82.5950384  53.0255342  57.8645808  83.8760384
  55.0355342  58.7265808  82.6160384  55.3505342  58.5305808  84.3200384
  56.1675342  56.6105808  82.0980384  57.2565342  57.6245808  83.0150384
  56.6445342  56.3995808  85.0990384  57.4225342  54.6625808  83.0030384
  76.2745342  24.2365808  94.8350384  76.7365342  23.3465808  96.0060384
  77.8155342  24.0395808  96.8650384  78.9935342  24.5615808  96.0150384
  78.5115342  25.4405808  94.8440384  77.4675342  24.7095808  93.9750384
  77.0415342  25.5055808  92.8900384  75.5435342  23.7075808  94.2200384
  75.7575342  25.1055808  95.2490384  75.8825342  23.0765808  96.6290384
  77.1345342  22.4085808  95.6140384  77.3635342  24.8735808  97.4040384
  78.1825342  23.3505808  97.6270384  79.6845342  25.1245808  96.6430384
  79.5595342  23.7155808  95.6240384  78.0685342  26.3485808  95.2590384
  79.3595342  25.7635808  94.2370384  77.9495342  23.8175808  93.5690384
  76.6155342  26.2925808  93.2410384 114.2395342  89.4165808  69.6840384
 115.3005342  90.3825808  70.2490384 116.2495342  90.9025808  69.1490384
 116.8705342  89.7565808  68.3220384 115.7955342  88.7975808  67.7730384
 114.8885342  88.2555808  68.8980384 113.9175342  87.3605808  68.3990384
 113.6095342  89.0315808  70.4870384 113.5825342  89.9825808  69.0210384
 114.8135342  91.2215808  70.7480384 115.8845342  89.8705808  71.0180384
 115.6975342  91.5675808  68.4840384 117.0395342  91.5085808  69.5960384
 117.4575342  90.1675808  67.5000384 117.5705342  89.1985808  68.9450384
 115.1895342  89.3425808  67.0470384 116.2625342  87.9755808  67.2270384
 115.5265342  87.7075808  69.5940384 113.3525342  87.8375808  67.7850384
  43.2925342 114.4515808  85.6200384  43.0195342 113.1845808  86.4550384
  41.5455342 112.7375808  86.3570384  40.5645342 113.8845808  86.6810384
  40.8585342 115.1445808  85.8440384  42.3255342 115.5975808  85.9940384
  42.5905342 116.7645808  85.2440384  44.3295342 114.7705808  85.7390384
  43.1665342 114.1995808  84.5650384  43.6765342 112.3755808  86.1300384
  43.2705342 113.3775808  87.5000384  41.3485342 112.3685808  85.3500384
  41.3685342 111.8955808  87.0280384  39.5385342 113.5545808  86.5100384
  40.6315342 114.1295808  87.7410384  40.6525342 114.9145808  84.7970384
  40.1765342 115.9515808  86.1200384  42.4885342 115.8305808  87.0480384
  42.4485342 116.5665808  84.3150384 112.0745342  31.7375808  45.4140384
 112.9765342  32.9865808  45.3990384 113.7875342  33.1285808  46.7040384
 112.8915342  33.0585808  47.9590384 111.9895342  31.8085808  47.9530384
 111.1565342  31.7145808  46.6570384 110.3145342  30.5805808  46.6600384
 111.4815342  31.6835808  44.4990384 112.7155342  30.8525808  45.4190384
 113.6535342  32.9475808  44.5430384 112.3615342  33.8775808  45.2570384
 114.5335342  32.3345808  46.7510384 114.3435342  34.0665808  46.6960384
 113.5085342  33.0685808  48.8580384 112.2695342  33.9535808  48.0100384
 112.6275342  30.9275808  48.0410384 111.3385342  31.8055808  48.8290384
 110.5245342  32.6035808  46.6120384 110.8655342  29.7945808  46.7000384
  69.4525342  33.8135808  48.1010384  68.7975342  35.1815808  48.3750384
  69.1885342  35.7405808  49.7590384  68.9365342  34.7245808  50.8930384
  69.5905342  33.3605808  50.5980384  69.1485342  32.8015808  49.2290384
  69.7305342  31.5425808  48.9670384  69.1275342  33.4215808  47.1360384
  70.5325342  33.9605808  48.0260384  69.0765342  35.8915808  47.5940384
  67.7125342  35.0815808  48.3190384  70.2445342  36.0145808  49.7500384
  68.6395342  36.6625808  49.9560384  69.3105342  35.1205808  51.8380384
  67.8625342  34.5895808  51.0260384  70.6745342  33.4935808  50.6050384
  69.3635342  32.6495808  51.3940384  68.0655342  32.6715808  49.2650384
  70.6855342  31.6505808  48.9330384  38.3065342  52.3785808  75.9740384
  37.9625342  53.8595808  75.7220384  38.7745342  54.8025808  76.6350384
  38.6645342  54.4125808  78.1250384  39.0035342  52.9265808  78.3550384
  38.1475342  52.0025808  77.4640384  38.4415342  50.6405808  77.6900384
  37.6905342  51.7315808  75.3470384  39.3415342  52.2105808  75.6660384
  38.1395342  54.1115808  74.6760384  36.8965342  54.0185808  75.8950384
  39.8225342  54.7795808  76.3340384  38.4415342  55.8325808  76.4950384
  39.3235342  55.0415808  78.7240384  37.6515342  54.6115808  78.4780384
  40.0605342  52.7775808  78.1250384  38.8795342  52.6675808  79.4090384
  37.1025342  52.1695808  77.7320384  39.3615342  50.4865808  77.4560384
  65.9855342  83.2765808  24.4790384  64.9485342  84.0865808  23.6730384
  65.6085342  85.2215808  22.8640384  66.5105342  86.1175808  23.7390384
  67.5335342  85.2905808  24.5440384  66.8455342  84.1915808  25.3800384
  67.7795342  83.4475808  26.1330384  65.4895342  82.5085808  25.0740384
  66.6315342  82.7505808  23.7720384  64.3965342  83.4235808  23.0050384
  64.2105342  84.5105808  24.3560384  66.2045342  84.7895808  22.0590384
  64.8405342  85.8275808  22.3800384  67.0285342  86.8465808  23.1160384
  65.8895342  86.6935808  24.4270384  68.2295342  84.8315808  23.8390384
  68.1305342  85.9435808  25.1830384  66.1695342  84.6885808  26.0780384
  68.3775342  83.0065808  25.5240384 123.6315342  65.8205808 102.6800384
 123.1405342  65.5485808 104.1160384 124.2655342  65.7385808 105.1550384
 125.5335342  64.9325808 104.7990384 126.0045342  65.2105808 103.3570384
 124.8745342  64.9705808 102.3340384 125.3115342  65.2035808 101.0110384
 122.8305342  65.6385808 101.9620384 123.8835342  66.8805808 102.6000384
 122.3005342  66.2035808 104.3530384 122.7575342  64.5285808 104.1810384
 124.5195342  66.7975808 105.2200384 123.9085342  65.4515808 106.1450384
 126.3325342  65.1655808 105.5030384 125.3295342  63.8675808 104.9140384
 126.3325342  66.2495808 103.3000384 126.8765342  64.5995808 103.1180384
 124.5835342  63.9215808 102.4120384 125.5695342  66.1265808 100.9360384
  88.9585342  31.6745808  64.0890384  90.4675342  31.8785808  64.3350384
  90.7445342  32.5435808  65.6990384  89.9315342  33.8415808  65.8930384
  88.4275342  33.6215808  65.6340384  88.1745342  32.9965808  64.2460384
  86.7965342  32.8145808  64.0000384  88.7885342  31.2425808  63.1020384
  88.5905342  30.9455808  64.8140384  90.9865342  30.9205808  64.2750384
  90.8845342  32.4985808  63.5390384  90.4965342  31.8425808  66.4970384
  91.8095342  32.7535808  65.8000384  90.0835342  34.2285808  66.9010384
  90.3075342  34.6085808  65.2140384  88.0425342  32.9565808  66.4090384
  87.8825342  34.5615808  65.7380384  88.5605342  33.6945808  63.5000384
  86.4505342  32.2005808  64.6530384  43.3665342  88.6105808  78.2030384
  43.7625342  88.6245808  76.7130384  42.8865342  89.5955808  75.8930384
  41.3785342  89.3445808  76.1050384  41.0035342  89.3255808  77.6000384
  41.8615342  88.3145808  78.3890384  41.5045342  88.2805808  79.7540384
  43.9715342  87.8865808  78.7510384  43.5995342  89.5905808  78.6270384
  44.8145342  88.8935808  76.6090384  43.6655342  87.6165808  76.3030384
  43.1235342  90.6215808  76.1800384  43.1325342  89.5135808  74.8340384
  40.7975342  90.1065808  75.5850384  41.1035342  88.3915808  75.6500384
  41.1585342  90.3275808  78.0030384  39.9415342  89.1065808  77.7230384
  41.6705342  87.3255808  77.9660384  41.6715342  89.1485808  80.1330384
 113.6415342  84.4135808  62.9220384 114.9055342  83.8285808  63.5840384
 114.6725342  83.4885808  65.0710384 114.0875342  84.6805808  65.8580384
 112.8305342  85.2575808  65.1780384 113.1015342  85.6315808  63.7050384
 111.9565342  86.1805808  63.0880384 113.8445342  84.6845808  61.8850384
 112.8775342  83.6325808  62.8940384 115.2295342  82.9375808  63.0440384
 115.7235342  84.5465808  63.5010384 113.9895342  82.6405808  65.1420384
 115.6075342  83.1635808  65.5280384 113.8515342  84.3725808  66.8780384
 114.8435342  85.4615808  65.9460384 112.0415342  84.5045808  65.2240384
 112.4615342  86.1225808  65.7330384 113.8835342  86.3925808  63.7020384
 111.2645342  85.5145808  63.0870384  86.4855342  73.2585808  34.6500384
  87.8725342  73.2345808  33.9760384  88.3785342  71.7945808  33.7490384
  88.3315342  70.9485808  35.0400384  86.9415342  70.9915808  35.7050384
  86.4775342  72.4405808  35.9620384  85.2145342  72.4795808  36.5900384
  86.1695342  74.2855808  34.8370384  85.7595342  72.8345808  33.9530384
  87.8325342  73.7695808  33.0250384  88.5875342  73.7755808  34.5980384
  87.7665342  71.3155808  32.9830384  89.3955342  71.8165808  33.3550384
  88.6075342  69.9175808  34.8180384  89.0805342  71.3185808  35.7420384
  86.2315342  70.4935808  35.0420384  86.9475342  70.4195808  36.6340384
  87.2035342  72.8995808  36.6350384  84.5705342  72.0775808  36.0010384
  36.6575342 113.9165808  96.9790384  36.6145342 115.2185808  97.8030384
  35.1685342 115.7095808  98.0280384  34.3745342 115.8145808  96.7090384
  34.4365342 114.5075808  95.8940384  35.8935342 114.0625808  95.6440384
  35.9515342 112.8765808  94.8800384  37.6905342 113.6145808  96.7980384
  36.2035342 113.1205808  97.5730384  37.1105342 115.0695808  98.7630384
  37.1825342 115.9945808  97.2860384  34.6565342 115.0205808  98.7020384
  35.1785342 116.6755808  98.5340384  33.3355342 116.0735808  96.9190384
  34.7745342 116.6335808  96.1100384  33.9095342 113.7325808  96.4530384
  33.9025342 114.6215808  94.9500384  36.3815342 114.8545808  95.0740384
  35.5235342 112.1745808  95.3770384  85.6955342 124.0915808  68.2870384
  85.1175342 125.1635808  69.2310384  84.1635342 126.1265808  68.4930384
  84.8085342 126.7345808  67.2290384  85.3895342 125.6485808  66.3020384
  86.3735342 124.7265808  67.0520384  86.9225342 123.7445808  66.1990384
  86.3975342 123.4495808  68.8230384  84.8765342 123.4465808  67.9600384
  84.5945342 124.6865808  70.0620384  85.9345342 125.7345808  69.6760384
  83.2575342 125.5895808  68.2110384  83.8455342 126.9235808  69.1670384
  84.0755342 127.3325808  66.6880384  85.6025342 127.4215808  67.5230384
  84.5605342 125.0555808  65.9110384  85.8745342 126.1055808  65.4380384
  87.1915342 125.3515808  67.4160384  86.2065342 123.1905808  65.8750384
  24.1895342  72.9205808  65.7580384  24.1385342  74.4465808  65.9720384
  24.1165342  75.2155808  64.6350384  25.2625342  74.7865808  63.6940384
  25.3035342  73.2585808  63.4990384  25.3705342  72.5135808  64.8490384
  25.4295342  71.1145808  64.6700384  24.2465342  72.4025808  66.7160384
  23.2505342  72.6095808  65.2940384  23.2635342  74.7105808  66.5680384
  25.0065342  74.7595808  66.5560384  23.1605342  75.0445808  64.1380384
  24.1725342  76.2895808  64.8230384  25.1575342  75.2825808  62.7290384
  26.2145342  75.1245808  64.1060384  24.4015342  72.9595808  62.9620384
  26.1455342  72.9785808  62.8630384  26.2885342  72.8285808  65.3480384
  24.6235342  70.8305808  64.2310384 132.5005342 106.0415808  68.3250384
 133.2925342 106.6275808  67.1390384 134.1555342 107.8335808  67.5640384
 133.3365342 108.9035808  68.3170384 132.5445342 108.2985808  69.4920384
 131.6545342 107.1235808  69.0340384 130.9135342 106.5825808  70.1070384
 131.8665342 105.2175808  67.9910384 133.2125342 105.6135808  69.0340384
 133.9225342 105.8555808  66.6950384 132.5965342 106.9375808  66.3570384
 134.9675342 107.4865808  68.2040384 134.6305342 108.2765808  66.6870384
 133.9975342 109.6905808  68.6790384 132.6455342 109.3835808  67.6230384
 133.2585342 107.9455808  70.2390384 131.9435342 109.0665808  69.9820384
 130.9485342 107.5165808  68.3010384 131.5295342 106.2335808  70.7560384
  49.4345342 108.2965808  87.2730384  48.1105342 108.2495808  86.4850384
  48.2865342 107.5895808  85.1010384  49.4365342 108.2255808  84.2920384
  50.7485342 108.2725808  85.0980384  50.5575342 108.9765808  86.4580384
  51.7645342 109.0385808  87.1870384  49.2925342 108.8045808  88.2280384
  49.7275342 107.2705808  87.5090384  47.3535342 107.7135808  87.0600384
  47.7295342 109.2645808  86.3560384  48.4855342 106.5255808  85.2340384
  47.3545342 107.6545808  84.5370384  49.5885342 107.6735808  83.3640384
  49.1555342 109.2385808  83.9980384  51.0845342 107.2465808  85.2630384
  51.5335342 108.7615808  84.5180384  50.2355342 109.9985808  86.2510384
  52.0525342 108.1405808  87.3720384  32.7495342  46.0985808  94.4080384
  32.5905342  44.7205808  93.7340384  31.1235342  44.2435808  93.7380384
  30.4975342  44.2895808  95.1480384  30.6735342  45.6705808  95.8100384
  32.1535342  46.1055808  95.8340384  32.3175342  47.3605808  96.4590384
  33.7995342  46.3945808  94.4290384  32.2325342  46.8405808  93.7940384
  32.9665342  44.7615808  92.7100384  33.2115342  43.9895808  94.2550384
  30.5395342  44.8715808  93.0650384  31.0615342  43.2305808  93.3370384
  29.4385342  44.0345808  95.0930384  30.9605342  43.5255808  95.7750384
  30.0885342  46.3965808  95.2420384  30.2585342  45.6635808  96.8190384
  32.7005342  45.3645808  96.4180384  31.8385342  48.0185808  95.9480384
 111.4765342  54.8195808  39.9470384 111.0225342  56.2655808  40.2270384
 109.5145342  56.4585808  39.9610384 109.1015342  55.9685808  38.5570384
 109.5715342  54.5245808  38.2910384 111.0895342  54.3685808  38.5200384
 111.5235342  53.0515808  38.2560384 112.5525342  54.7195808  40.1020384
 110.9975342  54.1635808  40.6780384 111.2565342  56.5365808  41.2580384
 111.5915342  56.9525808  39.5980384 108.9445342  55.9125808  40.7150384
 109.2475342  57.5085808  40.0820384 108.0185342  56.0345808  38.4440384
 109.5255342  56.6325808  37.8030384 109.0305342  53.8605808  38.9670384
 109.3015342  54.2175808  37.2790384 111.5935342  55.0365808  37.8200384
 111.0825342  52.4585808  38.8700384  47.2405342  80.4185808  35.4760384
  47.3425342  78.8835808  35.3810384  47.8315342  78.4235808  33.9920384
  46.9975342  79.0355808  32.8460384  46.8985342  80.5685808  32.9630384
  46.3645342  81.0015808  34.3440384  46.2535342  82.4055808  34.4440384
  46.8525342  80.7155808  36.4520384  48.2485342  80.8335808  35.4060384
  48.0115342  78.5055808  36.1560384  46.3645342  78.4415808  35.5850384
  48.8775342  78.7085808  33.8670384  47.8055342  77.3345808  33.9310384
  47.4315342  78.7615808  31.8840384  45.9945342  78.6055808  32.8590384
  47.8955342  80.9875808  32.8100384  46.2715342  80.9715808  32.1650384
  45.3655342  80.5765808  34.4540384  47.1305342  82.7865808  34.3490384
 111.6025342  84.4565808 107.3560384 110.0665342  84.3785808 107.2520384
 109.6025342  84.0825808 105.8100384 110.2175342  85.0585808 104.7850384
 111.7525342  85.1305808 104.9100384 112.1905342  85.4715808 106.3500384
 113.5945342  85.5595808 106.4610384 111.9035342  84.7085808 108.3750384
 112.0105342  83.4645808 107.1510384 109.6855342  83.6145808 107.9300384
 109.6315342  85.3235808 107.5850384 109.8795342  83.0615808 105.5460384
 108.5135342  84.1235808 105.7550384 109.9405342  84.7585808 103.7740384
 109.7955342  86.0525808 104.9330384 112.1635342  84.1605808 104.6250384
 112.1585342  85.8555808 104.2030384 111.7715342  86.4505808 106.5930384
 113.9695342  84.7005808 106.2480384  31.1805342  87.0755808  73.2700384
  32.4865342  86.5785808  73.9220384  32.2785342  85.2595808  74.6940384
  31.1095342  85.3465808  75.6990384  29.8165342  85.8535808  75.0320384
  30.0395342  87.1965808  74.3050384  28.8495342  87.6725808  73.7120384
  31.3445342  88.0305808  72.7670384  30.8935342  86.3635808  72.4940384
  33.2565342  86.4475808  73.1600384  32.8635342  87.3415808  74.6050384
  32.0825342  84.4545808  73.9840384  33.1975342  84.9855808  75.2150384
  30.9365342  84.3715808  76.1540384  31.3835342  86.0175808  76.5140384
  29.4855342  85.1015808  74.3140384  29.0185342  85.9445808  75.7710384
  30.3555342  87.9235808  75.0550384  28.5655342  87.0365808  73.0500384
 110.9785342  64.6465808 120.1130384 112.2115342  63.8735808 119.6050384
 113.1005342  64.7435808 118.6920384 112.2985342  65.4015808 117.5480384
 111.0655342  66.1615808 118.0750384 110.1695342  65.2575808 118.9470384
 109.0285342  65.9475808 119.4120384 110.3455342  63.9985808 120.7210384
 111.3245342  65.4455808 120.7730384 112.7945342  63.5035808 120.4500384
 111.8825342  62.9895808 119.0540384 113.5765342  65.5215808 119.2910384
 113.9115342  64.1415808 118.2790384 112.9415342  66.0785808 116.9850384
 111.9775342  64.6335808 116.8440384 111.4155342  67.0095808 118.6670384
 110.4955342  66.5825808 117.2440384 109.8305342  64.4325808 118.3190384
 109.3205342  66.6765808 119.9670384 130.3665342  74.1505808  94.7360384
 129.4465342  74.5135808  95.9180384 128.0005342  74.7935808  95.4570384
 127.9415342  75.8335808  94.3170384 128.8735342  75.4585808  93.1490384
 130.3225342  75.2275808  93.6290384 131.1815342  74.9055808  92.5560384
 131.3905342  73.9985808  95.0820384 130.0355342  73.1945808  94.3250384
 129.4525342  73.7095808  96.6560384 129.8415342  75.3955808  96.4270384
 127.5445342  73.8625808  95.1180384 127.4005342  75.1345808  96.3020384
 126.9165342  75.9335808  93.9590384 128.2225342  76.8125808  94.7060384
 128.4925342  74.5455808  92.6880384 128.8435342  76.2295808  92.3760384
 130.6715342  76.1625808  94.0710384 130.8795342  74.0825808  92.1620384
  42.1665342  58.5935808  32.1560384  42.4165342  60.1135808  32.1140384
  43.9205342  60.4525808  32.1890384  44.6145342  59.7695808  33.3860384
  44.3455342  58.2525808  33.4180384  42.8345342  57.9405808  33.3880384
  42.5875342  56.5525808  33.4380384  41.0955342  58.3825808  32.1450384
  42.5765342  58.1535808  31.2450384  41.9845342  60.5375808  31.2060384
  41.8965342  60.5905808  32.9480384  44.4055342  60.1365808  31.2640384
  44.0545342  61.5335808  32.2470384  45.6885342  59.9575808  33.3500384
  44.2605342  60.2195808  34.3150384  44.8285342  57.8025808  32.5480384
  44.8135342  57.8015808  34.2950384  42.3915342  58.3945808  34.2760384
  42.9745342  56.1465808  32.6570384 119.0485342  62.5375808  69.6810384
 117.6345342  62.0165808  70.0050384 117.2125342  60.8725808  69.0610384
 117.3795342  61.2485808  67.5730384 118.7965342  61.7755808  67.2700384
 119.1775342  62.9485808  68.1970384 120.4665342  63.4465808  67.9060384
 119.3065342  63.3735808  70.3350384 119.7645342  61.7425808  69.9010384
 117.5895342  61.6805808  71.0420384 116.9185342  62.8365808  69.9220384
 117.8135342  59.9875808  69.2780384 116.1775342  60.5905808  69.2590384
 117.1605342  60.3855808  66.9440384 116.6455342  62.0105808  67.3080384
 119.5025342  60.9555808  67.4110384 118.8755342  62.0715808  66.2230384
 118.4585342  63.7505808  68.0190384 121.1045342  62.7445808  68.0620384
  89.7345342  25.7925808  81.6290384  88.5075342  25.1225808  80.9790384
  88.8985342  24.2715808  79.7530384  89.7485342  25.0645808  78.7370384
  90.9645342  25.7355808  79.4060384  90.5435342  26.6165808  80.6010384
  91.6545342  27.2475808  81.2010384  89.4265342  26.4215808  82.4670384
  90.3705342  25.0095808  82.0480384  87.9905342  24.5015808  81.7130384
  87.7935342  25.8895808  80.6740384  89.4605342  23.3975808  80.0860384
  88.0015342  23.8865808  79.2670384  90.0815342  24.4055808  77.9350384
  89.1285342  25.8275808  78.2650384  91.6395342  24.9505808  79.7520384
  91.5245342  26.3215808  78.6750384  89.8815342  27.3935808  80.2140384
  92.2405342  26.5685808  81.5440384 106.3995342  41.2935808  75.7320384
 105.6385342  41.7295808  74.4650384 105.9725342  40.8325808  73.2550384
 107.4935342  40.7085808  73.0200384 108.2385342  40.2805808  74.3000384
 107.9235342  41.2195808  75.4830384 108.6225342  40.8405808  76.6500384
 106.1795342  41.9685808  76.5610384 106.0325342  40.3085808  76.0300384
 104.5635342  41.7165808  74.6530384 105.8915342  42.7655808  74.2280384
 105.5515342  39.8395808  73.4170384 105.4885342  41.2225808  72.3580384
 107.6885342  39.9955808  72.2190384 107.8855342  41.6665808  72.6760384
 107.9305342  39.2635808  74.5490384 109.3135342  40.2395808  74.1170384
 108.2555342  42.2195808  75.2010384 108.3335342  39.9595808  76.9030384
  96.5995342  56.1275808 117.5580384  95.7005342  57.3075808 117.1380384
  94.8875342  56.9875808 115.8670384  95.7795342  56.4805808 114.7130384
  96.6765342  55.3075808 115.1540384  97.5135342  55.6685808 116.4000384
  98.3515342  54.6015808 116.7910384  97.1945342  56.3945808 118.4330384
  95.9555342  55.2995808 117.8640384  95.0265342  57.5725808 117.9550384
  96.3195342  58.1885808 116.9590384  94.1385342  56.2295808 116.1010384
  94.3335342  57.8715808 115.5480384  95.1595342  56.1785808 113.8690384
  96.4035342  57.2995808 114.3530384  96.0355342  54.4545808 115.3800384
  97.3245342  54.9955808 114.3330384  98.1485342  56.5145808 116.1310384
  97.7975342  53.8535808 117.0300384  75.6535342  66.6625808 129.0690384
  75.1955342  68.1325808 128.9780384  76.3915342  69.1025808 128.8840384
  77.4235342  68.8705808 130.0080384  77.8625342  67.3945808 130.0890384
  76.6515342  66.4485808 130.2280384  77.0535342  65.0985808 130.3240384
  74.7915342  66.0015808 129.1770384  76.1305342  66.3955808 128.1240384
  74.5385342  68.2665808 128.1170384  74.5975342  68.3805808 129.8570384
  76.8805342  68.9785808 127.9170384  76.0365342  70.1335808 128.9130384
  78.2935342  69.5095808 129.8530384  76.9925342  69.1735808 130.9630384
  78.4115342  67.1525808 129.1780384  78.5595342  67.2505808 130.9160384
  76.1365342  66.7125808 131.1540384  77.5075342  64.8585808 129.5120384
  42.2865342  58.7145808 119.9900384  43.4085342  59.7665808 119.8790384
  42.8785342  61.1195808 119.3610384  42.0715342  60.9715808 118.0530384
  40.9615342  59.9095808 118.1810384  41.5235342  58.5535808 118.6560384
  40.5105342  57.5745808 118.7530384  42.6935342  57.7555808 120.3170384
  41.5925342  59.0365808 120.7700384  43.8905342  59.9005808 120.8480384
  44.1835342  59.3995808 119.2030384  42.2445342  61.5735808 120.1250384
  43.7095342  61.8105808 119.2090384  41.6385342  61.9315808 117.7720384
  42.7465342  60.6945808 117.2420384  40.2255342  60.2715808 118.9000384
  40.4345342  59.7955808 117.2320384  42.2445342  58.2195808 117.9070384
  39.8725342  57.8625808 119.4110384  86.8715342 112.6615808  57.2460384
  87.1845342 113.2415808  58.6400384  88.1755342 114.4215808  58.5650384
  89.4505342 114.0655808  57.7710384  89.1185342 113.4795808  56.3840384
  88.1615342 112.2725808  56.4900384  87.8745342 111.7225808  55.2220384
  86.2035342 111.8035808  57.3310384  86.3305342 113.4195808  56.6750384
  86.2615342 113.5605808  59.1270384  87.6035342 112.4565808  59.2730384
  87.6835342 115.2735808  58.0920384  88.4425342 114.7475808  59.5710384
  90.0795342 114.9495808  57.6610384  90.0395342 113.3435808  58.3370384
  88.6505342 114.2635808  55.7860384  90.0345342 113.1995808  55.8610384
  88.6685342 111.5085808  57.0820384  87.4285342 112.3915808  54.6960384
  63.3275342  97.7995808 121.6480384  62.8355342  96.3655808 121.9270384
  63.9765342  95.3335808 121.8190384  64.7435342  95.4475808 120.4840384
  65.2205342  96.8885808 120.2170384  64.0525342  97.8965808 120.2870384
  64.4845342  99.2135808 120.0210384  62.4945342  98.5035808 121.6890384
  64.0145342  98.0865808 122.4470384  62.3795342  96.3145808 122.9180384
  62.0465342  96.1085808 121.2180384  64.6725342  95.4785808 122.6460384
  63.5775342  94.3245808 121.9330384  65.5965342  94.7675808 120.4850384
  64.0985342  95.1215808 119.6670384  65.9685342  97.1455808 120.9690384
  65.7235342  96.9495808 119.2500384  63.3345342  97.6155808 119.5150384
  65.1175342  99.4675808 120.6980384 117.6835342  62.7215808  99.3650384
 119.1555342  63.1035808  99.1130384 119.6765342  64.1105808 100.1610384
 118.7575342  65.3435808 100.2950384 117.2885342  64.9415808 100.5370384
 116.7785342  63.9705808  99.4510384 115.4275342  63.6195808  99.6590384
 117.3275342  62.0435808  98.5870384 117.6295342  62.1685808 100.3050384
 119.7795342  62.2085808  99.1150384 119.2525342  63.5375808  98.1160384
 119.7535342  63.6125808 101.1290384 120.6875342  64.4265808  99.9020384
 119.1075342  65.9815808 101.1070384 118.8235342  65.9445808  99.3870384
 117.2235342  64.4615808 101.5150384 116.6555342  65.8295808 100.5870384
 116.8475342  64.4895808  98.4930384 115.3595342  63.1625808 100.5020384
  98.2355342  43.0725808  29.5690384  97.1375342  44.0375808  29.0770384
  97.5785342  44.8195808  27.8220384  98.9395342  45.5195808  28.0170384
 100.0215342  44.5435808  28.5180384  99.5755342  43.8065808  29.7980384
 100.5745342  42.9275808  30.2700384  97.9155342  42.5635808  30.4800384
  98.3715342  42.2955808  28.8130384  96.2215342  43.4825808  28.8680384
  96.8905342  44.7415808  29.8740384  97.6455342  44.1325808  26.9760384
  96.8165342  45.5535808  27.5560384  99.2575342  45.9815808  27.0820384
  98.8275342  46.3345808  28.7340384 100.2155342  43.8155808  27.7280384
 100.9625342  45.0715808  28.6860384  99.4045342  44.5645808  30.5660384
 100.7305342  42.2575808  29.5980384  48.5825342  30.4175808 100.1670384
  49.2515342  29.5695808  99.0660384  49.0595342  28.0575808  99.3070384
  49.4895342  27.6325808 100.7280384  48.8185342  28.4965808 101.8140384
  49.0635342  30.0015808 101.5750384  48.4665342  30.7925808 102.5820384
  48.7685342  31.4795808  99.9960384  47.5015342  30.2785808 100.0960384
  48.8515342  29.8445808  98.0890384  50.3185342  29.7975808  99.0310384
  48.0095342  27.8005808  99.1580384  49.6195342  27.4895808  98.5630384
  49.2525342  26.5805808 100.8890384  50.5735342  27.7155808 100.8170384
  47.7465342  28.2945808 101.7960384  49.1705342  28.2025808 102.8040384
  50.1415342  30.1655808 101.6130384  47.5165342  30.6525808 102.5530384
  89.2105342 124.0675808  36.1530384  87.9855342 123.1435808  35.9970384
  88.2375342 121.7455808  36.6000384  89.5375342 121.1045808  36.0690384
  90.7485342 122.0455808  36.2250384  90.4885342 123.4205808  35.5740384
  91.6045342 124.2755808  35.6980384  89.0215342 125.0335808  35.6820384
  89.3545342 124.2665808  37.2180384  87.1125342 123.5995808  36.4650384
  87.7415342 123.0415808  34.9370384  88.2965342 121.8295808  37.6870384
  87.3885342 121.0935808  36.3930384  89.7265342 120.1635808  36.5870384
  89.4105342 120.8495808  35.0160384  90.9415342 122.1775808  37.2910384
  91.6445342 121.5845808  35.8050384  90.3125342 123.2485808  34.5100384
  91.7645342 124.4305808  36.6330384  70.4265342  97.1535808 132.1500384
  71.0565342  98.0485808 131.0650384  71.4235342  97.2465808 129.7990384
  72.2845342  96.0065808 130.1200384  71.6435342  95.1295808 131.2130384
  71.3285342  95.9445808 132.4850384  70.7605342  95.1365808 133.4940384
  70.2155342  97.7345808 133.0490384  69.4625342  96.7965808 131.7810384
  70.3735342  98.8595808 130.8080384  71.9545342  98.5245808 131.4640384
  70.5075342  96.9275808 129.2980384  71.9475342  97.8895808 129.0900384
  72.4425342  95.4185808 129.2150384  73.2745342  96.3285808 130.4480384
  70.7205342  94.7065808 130.8120384  72.2915342  94.2825808 131.4490384
  72.2745342  96.3375808 132.8610384  69.9265342  94.7865808 133.1690384
 119.3735342  28.6695808  68.8520384 119.2205342  30.0385808  68.1600384
 120.0715342  31.1285808  68.8450384 119.8165342  31.1995808  70.3660384
 119.9645342  29.8205808  71.0380384 119.0705342  28.7595808  70.3640384
 119.1895342  27.5015808  70.9930384 118.7305342  27.9275808  68.3750384
 120.4005342  28.3265808  68.7070384 119.4965342  29.9575808  67.1070384
 118.1705342  30.3375808  68.1750384 121.1285342  30.9235808  68.6670384
 119.8705342  32.0985808  68.3880384 120.5015342  31.9135808  70.8250384
 118.8125342  31.5845808  70.5460384 121.0105342  29.5165808  70.9650384
 119.7405342  29.8915808  72.1040384 118.0365342  29.0915808  70.4690384
 120.0985342  27.2025808  70.9040384  94.3765342  39.8805808  44.2210384
  92.8345342  39.8605808  44.2470384  92.2635342  40.8315808  45.3010384
  92.8835342  40.6105808  46.6970384  94.4245342  40.6235808  46.6510384
  94.9715342  39.6125808  45.6220384  96.3835342  39.6095808  45.5940384
  94.7545342  39.1555808  43.4980384  94.6995342  40.8635808  43.8710384
  92.4425342  40.1095808  43.2600384  92.4885342  38.8475808  44.4630384
  92.4525342  41.8575808  44.9830384  91.1795342  40.7265808  45.3550384
  92.5255342  41.3725808  47.3890384  92.5425342  39.6545808  47.0970384
  94.7485342  41.6305808  46.3800384  94.8365342  40.4255808  47.6420384
  94.6385342  38.6205808  45.9320384  96.6825342  40.4805808  45.3200384
  43.3955342  53.2295808  47.0170384  44.7405342  52.4785808  46.9600384
  45.8805342  53.2875808  47.6140384  45.9775342  54.7215808  47.0520384
  44.6215342  55.4535808  47.1080384  43.5095342  54.6455808  46.4080384
  42.2725342  55.3255808  46.4410384  42.6165342  52.6565808  46.5110384
  43.0915342  53.3075808  48.0630384  44.6465342  51.5075808  47.4470384
  44.9965342  52.2705808  45.9190384  45.7145342  53.3345808  48.6910384
  46.8305342  52.7695808  47.4760384  46.7295342  55.2875808  47.6020384
  46.3245342  54.6825808  46.0180384  44.3585342  55.6035808  48.1570384
  44.7085342  56.4495808  46.6680384  43.8015342  54.5285808  45.3630384
  42.0095342  55.4315808  47.3590384 105.9625342  66.4975808  49.2870384
 107.0485342  65.4415808  48.9990384 106.9075342  64.2055808  49.9120384
 106.8335342  64.5885808  51.4060384 105.7495342  65.6505808  51.6740384
 105.9385342  66.8945808  50.7800384 104.9595342  67.8775808  51.0410384
 106.1095342  67.3775808  48.6590384 104.9945342  66.0765808  49.0080384
 107.0035342  65.1375808  47.9520384 108.0345342  65.8865808  49.1430384
 106.0055342  63.6565808  49.6370384 107.7405342  63.5225808  49.7440384
 106.6405342  63.6995808  52.0080384 107.8025342  64.9695808  51.7300384
 104.7755342  65.2025808  51.4730384 105.7455342  65.9325808  52.7290384
 106.9145342  67.3205808  51.0190384 104.0965342  67.5085808  50.8320384
  53.7175342 105.5365808  35.6510384  54.3145342 104.2915808  36.3380384
  53.3135342 103.6375808  37.3130384  52.7315342 104.6505808  38.3220384
  52.1485342 105.8915808  37.6170384  53.1825342 106.5535808  36.6830384
  52.6555342 107.7025808  36.0540384  54.4585342 106.0035808  35.0000384
  52.9005342 105.2105808  35.0040384  54.6305342 103.5665808  35.5870384
  55.2165342 104.5765808  36.8830384  52.4985342 103.1885808  36.7440384
  53.7965342 102.8175808  37.8470384  51.9625342 104.1715808  38.9290384
  53.5145342 104.9625808  39.0150384  51.2795342 105.5765808  37.0360384
  51.7805342 106.6085808  38.3530384  54.0265342 106.8655808  37.3010384
  51.9115342 107.4355808  35.5070384  47.0155342 116.8605808  89.8540384
  46.0685342 115.7165808  89.4380384  46.5195342 114.3575808  90.0120384
  47.9975342 114.0495808  89.6930384  48.9285342 115.2065808  90.1060384
  48.4825342 116.5465808  89.4830384  49.3465342 117.6025808  89.8440384
  46.6985342 117.8015808  89.4010384  46.9345342 116.9955808  90.9350384
  45.0505342 115.9395808  89.7630384  46.0305342 115.6555808  88.3490384
  46.3785342 114.3605808  91.0940384  45.8815342 113.5615808  89.6260384
  48.3025342 113.1295808  90.1920384  48.1055342 113.8625808  88.6230384
  48.9095342 115.2865808  91.1950384  49.9605342 114.9805808  89.8330384
  48.5265342 116.4305808  88.3990384  49.3125342 117.7095808  90.7990384
 135.7925342  65.8155808  59.6060384 136.4745342  64.4325808  59.6050384
 137.8005342  64.4455808  58.8170384 137.6315342  65.0255808  57.3960384
 136.9405342  66.4025808  57.4160384 135.5955342  66.3535808  58.1710384
 134.9515342  67.6095808  58.1710384 134.8375342  65.7695808  60.1330384
 136.4225342  66.5065808  60.1700384 136.6535342  64.1045808  60.6300384
 135.7995342  63.6955808  59.1650384 138.5365342  65.0385808  59.3620384
 138.2085342  63.4355808  58.7600384 138.6035342  65.1035808  56.9080384
 137.0445342  64.3335808  56.7910384 137.6085342  67.1115808  57.9080384
 136.7975342  66.7705808  56.3990384 134.9525342  65.6455808  57.6440384
 135.5125342  68.2375808  58.6350384 117.3985342  80.7035808  87.2020384
 115.8845342  80.4405808  87.3260384 115.4235342  79.2895808  86.4090384
 115.8725342  79.4905808  84.9460384 117.3865342  79.7615808  84.8420384
 117.8155342  80.9455808  85.7340384 119.1975342  81.2075808  85.6230384
 117.6915342  81.5485808  87.8280384 117.9295342  79.8325808  87.5920384
 115.6295342  80.2165808  88.3630384 115.3365342  81.3495808  87.0700384
 115.8285342  78.3475808  86.7830384 114.3375342  79.1905808  86.4550384
 115.6085342  78.6145808  84.3520384 115.3245342  80.3275808  84.5110384
 117.9155342  78.8595808  85.1550384 117.6695342  79.9395808  83.8030384
 117.2755342  81.8275808  85.3840384 119.6785342  80.4345808  85.9300384
  77.9895342 103.4455808  23.2040384  76.6915342 104.2235808  22.9080384
  75.6375342 103.3405808  22.2080384  76.2035342 102.6325808  20.9580384
  77.5045342 101.8685808  21.2710384  78.5585342 102.7835808  21.9290384
  79.7585342 102.0885808  22.1960384  78.7325342 104.1015808  23.6600384
  77.7635342 102.6735808  23.9440384  76.2815342 104.6295808  23.8340384
  76.9205342 105.0835808  22.2750384  75.2735342 102.5905808  22.9110384
  74.7705342 103.9435808  21.9330384  75.4585342 101.9495808  20.5480384
  76.3965342 103.3725808  20.1800384  77.2625342 101.0465808  21.9470384
  77.9045342 101.4115808  20.3640384  78.7825342 103.5825808  21.2200384
  79.5675342 101.3835808  22.8200384  36.3945342  43.5055808 109.9210384
  37.8215342  44.0515808 110.1310384  38.7565342  42.9935808 110.7520384
  38.1655342  42.3705808 112.0340384  36.7365342  41.8385808 111.8080384
  35.8095342  42.9275808 111.2290384  34.4945342  42.4475808 111.0420384
  35.7435342  44.2845808 109.5210384  36.4375342  42.7205808 109.1640384
  38.2305342  44.3995808 109.1810384  37.7825342  44.9275808 110.7820384
  38.9425342  42.2045808 110.0220384  39.7285342  43.4395808 110.9690384
  38.8105342  41.5655808 112.3880384  38.1525342  43.1185808 112.8280384
  36.7915342  40.9985808 111.1130384  36.3275342  41.4405808 112.7390384
  35.7705342  43.7415808 111.9560384  34.5225342  41.7305808 110.4020384
  26.8445342 105.8205808  94.1480384  26.1795342 104.7465808  93.2650384
  26.8715342 103.3745808  93.4060384  28.3965342 103.4635808  93.1840384
  29.0425342 104.5475808  94.0680384  28.3625342 105.9195808  93.8760384
  28.9685342 106.9175808  94.6700384  26.3645342 106.7885808  93.9980384
  26.6795342 105.5525808  95.1940384  25.1215342 104.6585808  93.5190384
  26.2135342 105.0635808  92.2200384  26.6755342 102.9745808  94.4010384
  26.4335342 102.6645808  92.7030384  28.8575342 102.4955808  93.3840384
  28.5975342 103.6845808  92.1350384  28.9495342 104.2375808  95.1110384
  30.1125342 104.6165808  93.8640384  28.4875342 106.1995808  92.8290384
  28.8615342 106.6765808  95.5940384 111.2425342 119.4935808  51.5510384
 111.9015342 120.6205808  50.7310384 110.9175342 121.7745808  50.4430384
 109.5995342 121.2755808  49.8140384 108.9605342 120.1425808  50.6410384
 109.9495342 118.9825808  50.8770384 109.3575342 117.9345808  51.6160384
 111.9455342 118.6725808  51.7040384 111.0045342 119.8855808  52.5420384
 112.7775342 121.0015808  51.2590384 112.2695342 120.2145808  49.7870384
 110.6955342 122.2975808  51.3750384 111.3885342 122.5085808  49.7880384
 108.8985342 122.1045808  49.7130384 109.7945342 120.9185808  48.8010384
 108.6485342 120.5565808  51.6020384 108.0525342 119.7815808  50.1530384
 110.2265342 118.5875808  49.8970384 109.1105342 118.2765808  52.4800384
  47.0635342  67.6445808  47.1960384  46.6285342  66.2035808  46.8620384
  45.4505342  65.7385808  47.7440384  45.7305342  65.9395808  49.2490384
  46.1725342  67.3825808  49.5620384  47.3805342  67.8085808  48.7000384
  47.7995342  69.1215808  49.0020384  47.9235342  67.9335808  46.5900384
  46.2505342  68.3195808  46.9210384  46.3555342  66.1315808  45.8080384
  47.4745342  65.5275808  47.0030384  44.5535342  66.2945808  47.4680384
  45.2285342  64.6885808  47.5440384  44.8425342  65.6875808  49.8290384
  46.5085342  65.2455808  49.5680384  45.3305342  68.0485808  49.3640384
  46.4035342  67.4875808  50.6240384  48.2025342  67.1295808  48.9350384
  47.0785342  69.7245808  48.7970384  85.1635342  85.7205808 119.3390384
  86.3635342  86.6865808 119.2820384  87.5025342  86.2445808 120.2250384
  87.0065342  85.9985808 121.6660384  85.8015342  85.0385808 121.7020384
  84.6585342  85.5255808 120.7860384  83.5455342  84.6575808 120.8350384
  84.3565342  86.0765808 118.6960384  85.4795342  84.7575808 118.9310384
  86.7355342  86.7595808 118.2590384  86.0345342  87.6895808 119.5570384
  87.9545342  85.3295808 119.8390384  88.2945342  86.9955808 120.2280384
  87.8185342  85.6005808 122.2760384  86.7255342  86.9495808 122.1200384
  86.1385342  84.0545808 121.3720384  85.4455342  84.9135808 122.7270384
  84.3405342  86.5025808 121.1540384  83.8195342  83.7955808 120.5120384
 122.2775342  71.0065808  84.8200384 120.9665342  70.3745808  85.3280384
 120.0945342  69.8475808  84.1690384 119.8555342  70.9175808  83.0830384
 121.1755342  71.5445808  82.5940384 122.0085342  72.1045808  83.7670384
 123.2085342  72.6985808  83.3180384 122.8555342  71.4085808  85.6540384
 122.8875342  70.2175808  84.3740384 121.1895342  69.5645808  86.0250384
 120.4025342  71.1165808  85.8960384 120.5815342  68.9805808  83.7190384
 119.1395342  69.4895808  84.5560384 119.3165342  70.4805808  82.2420384
 119.2095342  71.7005808  83.4830384 121.7485342  70.7735808  82.0760384
 120.9765342  72.3255808  81.8580384 121.4095342  72.8785808  84.2500384
 123.7405342  72.0205808  82.8910384 108.4985342  39.9535808  99.7310384
 107.4955342  40.7855808 100.5560384 108.1245342  41.3165808 101.8610384
 108.7885342  40.1945808 102.6890384 109.7795342  39.3685808 101.8460384
 109.1145342  38.8115808 100.5690384 110.0165342  38.0365808  99.8080384
 108.0175342  39.5555808  98.8350384 109.2915342  40.6195808  99.3850384
 107.1215342  41.6175808  99.9580384 106.6265342  40.1705808 100.7970384
 108.8715342  42.0735808 101.6180384 107.3655342  41.8215808 102.4600384
 109.2995342  40.6225808 103.5520384 108.0165342  39.5365808 103.0890384
 110.6145342  40.0155808 101.5700384 110.2035342  38.5595808 102.4430384
 108.2965342  38.1625808 100.8860384 110.7395342  38.6035808  99.5260384
  60.9895342 130.2285808  46.9930384  60.2785342 131.3955808  46.2780384
  60.5975342 131.4245808  44.7690384  62.1155342 131.3945808  44.4900384
  62.8095342 130.2275808  45.2210384  62.5125342 130.2465808  46.7350384
  63.1655342 129.1905808  47.4070384  60.7815342 130.2555808  48.0650384
  60.5685342 129.2925808  46.6210384  59.2005342 131.3245808  46.4300384
  60.5865342 132.3395808  46.7310384  60.1265342 130.5675808  44.2850384
  60.1535342 132.3115808  44.3130384  62.2955342 131.3225808  43.4170384
  62.5605342 132.3375808  44.8090384  62.4485342 129.2925808  44.7900384
  63.8865342 130.2535808  45.0400384  62.8985342 131.1875808  47.1300384
  62.8295342 128.3585808  47.0640384  93.5695342  96.4135808 113.5820384
  94.9165342  96.9175808 113.0280384  96.0735342  96.6775808 114.0200384
  95.7635342  97.2355808 115.4260384  94.4095342  96.7275808 115.9590384
  93.2625342  97.0195808 114.9700384  92.0185342  96.5745808 115.4680384
  92.7625342  96.6325808 112.8810384  93.6195342  95.3255808 113.6640384
  95.1345342  96.4295808 112.0760384  94.8425342  97.9845808 112.8100384
  96.2675342  95.6065808 114.0930384  96.9915342  97.1255808 113.6360384
  96.5625342  96.9645808 116.1170384  95.7525342  98.3255808 115.3880384
  94.4885342  95.6505808 116.1190384  94.1975342  97.1685808 116.9350384
  93.2075342  98.1025808 114.8460384  92.0605342  95.6205808 115.5780384
  50.1845342  65.9255808  57.6440384  50.3855342  66.7755808  58.9140384
  51.7055342  66.4295808  59.6350384  51.8455342  64.9165808  59.9050384
  51.6325342  64.0825808  58.6260384  50.2865342  64.4135808  57.9490384
  50.0805342  63.6355808  56.7890384  49.2255342  66.1585808  57.1770384
  50.9545342  66.2025808  56.9210384  50.3665342  67.8365808  58.6590384
  49.5475342  66.6125808  59.5950384  52.5455342  66.7655808  59.0260384
  51.7715342  66.9825808  60.5730384  52.8275342  64.7045808  60.3290384
  51.1185342  64.6145808  60.6600384  52.4505342  64.3005808  57.9370384
  51.6975342  63.0165808  58.8520384  49.4955342  64.1715808  58.6620384
  50.7735342  63.8435808  56.1570384 105.9475342  69.9695808  41.3880384
 105.1715342  69.3475808  42.5670384 103.7675342  69.9685808  42.7240384
 103.8135342  71.5095808  42.7910384 104.6005342  72.1125808  41.6110384
 106.0165342  71.5085808  41.5020384 106.7455342  72.0765808  40.4350384
 106.9505342  69.5445808  41.3250384 105.4375342  69.6965808  40.4620384
 105.0885342  68.2685808  42.4300384 105.7365342  69.4925808  43.4900384
 103.1445342  69.6635808  41.8820384 103.2835342  69.5715808  43.6170384
 102.8005342  71.9115808  42.8070384 104.2765342  71.8175808  43.7300384
 104.0465342  71.9095808  40.6920384 104.6515342  73.1995808  41.7040384
 106.5415342  71.7435808  42.4310384 106.2875342  71.8735808  39.6140384
  95.9585342  78.7505808 119.4670384  96.1005342  79.4065808 120.8550384
  97.3045342  78.8415808 121.6370384  97.2845342  77.2995808 121.7090384
  97.1325342  76.6615808 120.3140384  95.8965342  77.2095808 119.5690384
  95.7445342  76.6105808 118.3000384  95.0765342  79.1365808 118.9510384
  96.8205342  79.0395808 118.8620384  96.2005342  80.4875808 120.7470384
  95.1865342  79.2425808 121.4290384  98.2295342  79.1665808 121.1590384
  97.3215342  79.2595808 122.6450384  98.1955342  76.9375808 122.1870384
  96.4595342  76.9775808 122.3460384  98.0325342  76.8825808 119.7380384
  97.0805342  75.5745808 120.3960384  95.0185342  76.9585808 120.1680384
  96.5145342  76.8285808 117.7680384 104.2395342  41.8665808 123.5680384
 103.3745342  43.1125808 123.2930384 102.6025342  42.9945808 121.9620384
 103.5275342  42.6405808 120.7780384 104.3905342  41.3985808 121.0750384
 105.1865342  41.5595808 122.3870384 105.9935342  40.4315808 122.6490384
 104.8065342  41.9925808 124.4920384 103.5725342  41.0165808 123.7290384
 102.6755342  43.2705808 124.1160384 104.0125342  43.9975808 123.2630384
 101.8335342  42.2265808 122.0600384 102.0735342  43.9265808 121.7550384
 102.9335342  42.4755808 119.8790384 104.1765342  43.4895808 120.5600384
 103.7285342  40.5345808 121.1540384 105.0625342  41.1945808 120.2400384
 105.8435342  42.4225808 122.2640384 105.4205342  39.6675808 122.7580384
  95.6495342  17.1845808  77.2690384  95.6445342  15.7125808  77.7270384
  94.7665342  15.5015808  78.9780384  95.1285342  16.4765808  80.1180384
  95.1375342  17.9415808  79.6400384  96.0575342  18.1355808  78.4170384
  96.0825342  19.4815808  77.9910384  96.3095342  17.3145808  76.4100384
  94.6435342  17.4395808  76.9260384  95.2965342  15.0705808  76.9150384
  96.6665342  15.3975808  77.9450384  93.7175342  15.6375808  78.7080384
  94.8565342  14.4715808  79.3260384  94.4275342  16.3585808  80.9450384
  96.1115342  16.2185808  80.5160384  94.1155342  18.2195808  79.3760384
  95.4355342  18.6045808  80.4540384  97.0685342  17.8595808  78.7230384
  95.1955342  19.7295808  77.7200384  66.0795342  48.8795808  96.5520384
  67.5195342  48.3625808  96.3620384  68.5375342  49.5185808  96.2630384
  68.1355342  50.5625808  95.1980384  66.6905342  51.0595808  95.3980384
  65.6875342  49.8885808  95.4490384  64.3615342  50.3445808  95.6100384
  65.3755342  48.0455808  96.5770384  66.0165342  49.3655808  97.5280384
  67.7895342  47.6995808  97.1850384  67.5715342  47.7565808  95.4550384
  68.6195342  50.0095808  97.2340384  69.5285342  49.1225808  96.0400384
  68.8275342  51.4045808  95.2240384  68.2335342  50.1215808  94.2050384
  66.6485342  51.6165808  96.3360384  66.4195342  51.7645808  94.6100384
  65.7495342  49.3655808  94.4930384  64.2995342  50.8055808  96.4510384
  60.0315342 102.6065808  35.1720384  59.0465342 102.2455808  34.0420384
  57.7675342 101.5765808  34.5860384  58.0795342 100.3775808  35.5070384
  59.0715342 100.7545808  36.6240384  60.3615342 101.3795808  36.0520384
  61.2805342 101.7055808  37.0740384  60.9445342 103.0385808  34.7590384
  59.5745342 103.3835808  35.7890384  58.7865342 103.1405808  33.4740384
  59.5355342 101.5705808  33.3370384  57.1845342 102.3135808  35.1410384
  57.1355342 101.2535808  33.7570384  57.1565342  99.9925808  35.9420384
  58.4955342  99.5635808  34.9120384  58.5825342 101.4705808  37.2870384
  59.3065342  99.8805808  37.2350384  60.8265342 100.6325808  35.4070384
  60.8765342 102.3645808  37.6450384 116.2935342  54.5045808 114.3920384
 114.9905342  53.7725808 114.7710384 114.8895342  52.3895808 114.0930384
 115.1025342  52.4695808 112.5660384 116.4045342  53.2125808 112.2070384
 116.4615342  54.6095808 112.8600384 117.6435342  55.2995808 112.5130384
 116.3215342  55.4955808 114.8500384 117.1335342  53.9465808 114.8120384
 114.9275342  53.6615808 115.8550384 114.1335342  54.3825808 114.4790384
 115.6355342  51.7225808 114.5260384 113.9195342  51.9405808 114.3100384
 115.1165342  51.4665808 112.1400384 114.2555342  52.9815808 112.1090384
 117.2465342  52.6125808 112.5550384 116.5105342  53.2905808 111.1230384
 115.6135342  55.1815808 112.4780384 118.3945342  54.8005808 112.8470384
  79.0375342 135.1515808 102.4150384  79.2705342 133.9085808 101.5320384
  79.0315342 132.5975808 102.3100384  79.8315342 132.5455808 103.6290384
  79.5935342 133.7995808 104.4940384  79.8815342 135.0965808 103.7080384
  79.6845342 136.2435808 104.5060384  79.2525342 136.0625808 101.8550384
  77.9775342 135.1925808 102.6750384  78.6195342 133.9465808 100.6570384
  80.2925342 133.9225808 101.1500384  77.9685342 132.4985808 102.5300384
  79.2915342 131.7425808 101.6840384  79.5655342 131.6495808 104.1910384
  80.8955342 132.4575808 103.4040384  78.5525342 133.7955808 104.8210384
  80.2005342 133.7565808 105.4000384  80.9315342 135.0685808 103.4100384
  78.7615342 136.2735808 104.7720384 134.8055342  52.1485808  72.0810384
 133.5455342  51.6605808  71.3380384 132.3315342  52.5765808  71.5990384
 132.0825342  52.8015808  73.1060384 133.3535342  53.2805808  73.8330384
 134.5415342  52.3235808  73.5930384 135.7005342  52.7495808  74.2770384
 135.6365342  51.4615808  71.9140384 135.1055342  53.1065808  71.6510384
 133.7445342  51.6015808  70.2670384 133.3075342  50.6445808  71.6580384
 132.4975342  53.5395808  71.1150384 131.4405342  52.1535808  71.1340384
 131.2785342  53.5255808  73.2460384 131.7345342  51.8715808  73.5580384
 133.6055342  54.2745808  73.4610384 133.1605342  53.3925808  74.9020384
 134.2565342  51.3475808  73.9890384 135.9565342  53.6095808  73.9320384
  60.8635342 127.1195808  71.8750384  62.0885342 127.4875808  71.0130384
  63.3995342 126.9385808  71.6120384  63.5765342 127.3325808  73.0940384
  62.3395342 126.9655808  73.9380384  61.0475342 127.5645808  73.3430384
  59.9175342 127.2465808  74.1270384  59.9555342 127.5555808  71.4530384
  60.7325342 126.0355808  71.8370384  61.9555342 127.1115808  69.9980384
  62.1575342 128.5745808  70.9270384  63.4055342 125.8505808  71.5260384
  64.2515342 127.2925808  71.0290384  64.4635342 126.8495808  73.5040384
  63.7565342 128.4065808  73.1640384  62.2575342 125.8775808  73.9670384
  62.4745342 127.2905808  74.9710384  61.1625342 128.6495808  73.3430384
  59.8105342 126.2915808  74.1310384 108.4725342 100.0985808  32.6370384
 109.8815342  99.5585808  32.3230384 109.8505342  98.4715808  31.2270384
 108.8405342  97.3485808  31.5460384 107.4415342  97.9085808  31.8670384
 107.4935342  98.9585808  32.9960384 106.2085342  99.4565808  33.3050384
 108.5175342 100.8335808  33.4430384 108.1055342 100.6295808  31.7560384
 110.5355342 100.3765808  32.0170384 110.3225342  99.1425808  33.2310384
 109.5865342  98.9315808  30.2730384 110.8475342  98.0495808  31.0940384
 108.7815342  96.6535808  30.7080384 109.2025342  96.7675808  32.3960384
 107.0415342  98.3665808  30.9610384 106.7585342  97.0975808  32.1280384
 107.8845342  98.4615808  33.8850384 105.8585342  99.8965808  32.5260384
  67.8835342  50.8255808  31.3110384  66.6145342  51.6585808  31.0430384
  66.5445342  52.9075808  31.9470384  66.7225342  52.5585808  33.4410384
  67.9895342  51.7175808  33.6870384  68.0145342  50.4525808  32.8040384
  69.1655342  49.6705808  33.0460384  67.8885342  49.9275808  30.6900384
  68.7505342  51.4155808  31.0060384  66.5785342  51.9565808  29.9940384
  65.7315342  51.0395808  31.2130384  67.3215342  53.6115808  31.6480384
  65.5945342  53.4225808  31.7960384  66.7595342  53.4725808  34.0340384
  65.8485342  52.0075808  33.7900384  68.8595342  52.3375808  33.4610384
  68.0705342  51.4515808  34.7430384  67.1405342  49.8545808  33.0690384
  69.9395342  50.1915808  32.8140384 100.3915342 123.3145808  67.3160384
  99.3845342 122.1525808  67.4320384  98.3315342 122.4105808  68.5290384
  98.9745342 122.7765808  69.8840384  99.9835342 123.9335808  69.7470384
 101.0535342 123.6315808  68.6760384 101.9905342 124.6815808  68.5650384
 101.1495342 123.0895808  66.5640384  99.8545342 124.1965808  66.9580384
  98.8915342 121.9895808  66.4720384  99.9225342 121.2285808  67.6570384
  97.6745342 123.2225808  68.2130384  97.6935342 121.5335808  68.6450384
  98.2005342 123.0405808  70.6040384  99.4805342 121.9005808  70.2920384
  99.4335342 124.8345808  69.4690384 100.4525342 124.1445808  70.7090384
 101.5885342 122.7355808  68.9940384 101.5255342 125.4745808  68.2840384
  77.8595342 130.3165808 109.2150384  76.3995342 130.7245808 109.4950384
  76.2915342 132.1875808 109.9730384  77.2295342 132.4855808 111.1620384
  78.6825342 132.0625808 110.8680384  78.7685342 130.5835808 110.4360384
  80.1015342 130.1895808 110.1870384  77.9125342 129.2665808 108.9210384
  78.2185342 130.8955808 108.3610384  75.7935342 130.5795808 108.5990384
  75.9775342 130.0635808 110.2560384  76.5385342 132.8545808 109.1450384
  75.2605342 132.4145808 110.2470384  77.1935342 133.5475808 111.4080384
  76.8715342 131.9575808 112.0470384  79.0675342 132.6985808 110.0680384
  79.3155342 132.2465808 111.7380384  78.3885342 129.9815808 111.2630384
  80.4415342 130.7165808 109.4590384  79.4405342  96.4395808 130.8030384
  79.2245342  94.9405808 131.0870384  78.0375342  94.7005808 132.0430384
  78.1475342  95.5395808 133.3340384  78.3725342  97.0335808 133.0310384
  79.5915342  97.2505808 132.1100384  79.8105342  98.6205808 131.8490384
  80.3105342  96.5845808 130.1590384  78.5785342  96.8095808 130.2430384
  79.0635342  94.4025808 130.1510384  80.1325342  94.5195808 131.5240384
  77.1075342  94.9505808 131.5310384  77.9705342  93.6405808 132.2930384
  77.2485342  95.4125808 133.9380384  78.9745342  95.1645808 133.9400384
  77.4755342  97.4215808 132.5450384  78.4875342  97.5965808 133.9590384
  80.4675342  96.8625808 132.6330384  79.0425342  98.9675808 131.3870384
  62.7225342 132.6875808  51.6470384  62.9865342 132.9585808  53.1420384
  63.1155342 131.6495808  53.9500384  61.9205342 130.7005808  53.7210384
  61.6655342 130.4495808  52.2220384  61.4955342 131.7705808  51.4440384
  61.2415342 131.5405808  50.0740384  62.5945342 133.6265808  51.1070384
  63.6085342 132.2075808  51.2250384  63.8915342 133.5585808  53.2580384
  62.1715342 133.5575808  53.5520384  64.0385342 131.1415808  53.6660384
  63.2115342 131.8775808  55.0130384  62.0935342 129.7535808  54.2330384
  61.0255342 131.1305808  54.1730384  62.5165342 129.8965808  51.8200384
  60.7925342 129.8085808  52.0870384  60.6305342 132.2865808  51.8650384
  61.9995342 131.0865808  49.6970384  94.7755342 101.1795808  40.8670384
  93.6525342 101.7465808  41.7590384  94.1135342 101.9275808  43.2200384
  94.7385342 100.6405808  43.8000384  95.8525342 100.0835808  42.8910384
  95.3535342  99.8685808  41.4460384  96.3675342  99.3385808  40.6190384
  94.4115342 101.0215808  39.8500384  95.5685342 101.9275808  40.7990384
  93.3035342 102.6995808  41.3580384  92.7935342 101.0735808  41.7310384
  94.8445342 102.7355808  43.2690384  93.2725342 102.2435808  43.8390384
  95.1345342 100.8355808  44.7970384  93.9615342  99.8855808  43.9250384
  96.6795342 100.7955808  42.8900384  96.2485342  99.1535808  43.3030384
  94.5395342  99.1435808  41.4880384  97.0885342  99.9725808  40.5780384
 110.0025342  30.0325808  96.4760384 109.5155342  31.2105808  97.3440384
 109.6505342  32.5615808  96.6090384 111.0725342  32.7835808  96.0500384
 111.5455342  31.5925808  95.1940384 111.4435342  30.2595808  95.9660384
 111.8965342  29.1715808  95.1900384 109.9355342  29.0965808  97.0330384
 109.3265342  29.9335808  95.6240384 108.4775342  31.0505808  97.6410384
 110.0935342  31.2435808  98.2690384 108.9325342  32.5975808  95.7890384
 109.3835342  33.3775808  97.2810384 111.1015342  33.7005808  95.4610384
 111.7675342  32.9335808  96.8780384 110.9205342  31.5445808  94.3010384
 112.5675342  31.7565808  94.8450384 112.0895342  30.3415808  96.8420384
 111.3315342  29.0945808  94.4170384  46.9815342  67.7405808  79.6080384
  46.6395342  68.2735808  78.2020384  46.1345342  69.7305808  78.2460384
  44.9765342  69.9185808  79.2490384  45.3315342  69.3715808  80.6460384
  45.7915342  67.8995808  80.5810384  46.0965342  67.3925808  81.8620384
  47.2955342  66.6965808  79.5550384  47.8385342  68.3015808  79.9880384
  47.5145342  68.2015808  77.5540384  45.8755342  67.6385808  77.7500384
  46.9595342  70.3885808  78.5220384  45.8185342  70.0435808  77.2500384
  44.7115342  70.9735808  79.3180384  44.0875342  69.4075808  78.8760384
  46.1345342  69.9865808  81.0580384  44.4835342  69.4805808  81.3240384
  44.9605342  67.3175808  80.1770384  46.8275342  67.9005808  82.2230384
  83.5195342  78.4535808 138.4740384  82.3615342  77.7955808 137.6960384
  82.6915342  76.3435808 137.2930384  84.0415342  76.2325808 136.5540384
  85.1845342  76.9035808 137.3410384  84.8495342  78.3685808 137.6920384
  85.9055342  78.9895808 138.3950384  83.2795342  79.4915808 138.7090384
  83.6255342  77.9365808 139.4300384  81.4505342  77.8185808 138.2950384
  82.1495342  78.3805808 136.7990384  82.7195342  75.7205808 138.1880384
  81.8915342  75.9405808 136.6700384  84.2805342  75.1845808 136.3700384
  83.9555342  76.7005808 135.5720384  85.3445342  76.3355808 138.2590384
  86.1175342  76.8465808 136.7780384  84.7095342  78.9045808 136.7520384
  86.0335342  78.5225808 139.2250384  93.8325342  24.3115808  73.0290384
  94.6125342  25.5775808  72.6230384  94.6785342  26.6065808  73.7720384
  93.2845342  26.9285808  74.3490384  92.5155342  25.6515808  74.7410384
  92.4245342  24.6585808  73.5630384  91.7015342  23.4975808  73.9140384
  93.7635342  23.6195808  72.1880384  94.3995342  23.7955808  73.8070384
  95.6215342  25.3075808  72.3060384  94.1345342  26.0355808  71.7550384
  95.3155342  26.2165808  74.5670384  95.1575342  27.5225808  73.4230384
  93.3825342  27.5835808  75.2150384  92.7075342  27.4865808  73.6110384
  93.0395342  25.1805808  75.5750384  91.5195342  25.9045808  75.1080384
  91.8855342  25.1595808  72.7570384  92.1715342  23.0515808  74.6240384
 119.6675342  98.5165808  78.7950384 119.8015342 100.0155808  78.4610384
 119.2025342 100.3525808  77.0790384 119.7595342  99.4435808  75.9630384
 119.6255342  97.9495808  76.3180384 120.2715342  97.6295808  77.6830384
 120.1685342  96.2575808  77.9990384 120.1355342  98.2965808  79.7570384
 118.6065342  98.2845808  78.9090384 119.3165342 100.6135808  79.2330384
 120.8555342 100.2975808  78.4770384 118.1185342 100.2455808  77.1220384
 119.3945342 101.3985808  76.8370384 119.2455342  99.6505808  75.0240384
 120.8095342  99.6825808  75.7910384 118.5635342  97.7005808  76.3500384
 120.0625342  97.3315808  75.5320384 121.3315342  97.8785808  77.6070384
 119.2365342  96.0315808  78.0680384  41.7125342  75.0105808  38.0790384
  42.3565342  76.4115808  38.0470384  43.6285342  76.4805808  38.9180384
  43.3825342  75.9735808  40.3550384  42.7305342  74.5765808  40.3670384
  41.4365342  74.5445808  39.5260384  40.8275342  73.2715808  39.5550384
  40.7935342  74.9995808  37.4910384  42.3965342  74.3095808  37.5960384
  42.5925342  76.6895808  37.0190384  41.6345342  77.1495808  38.4020384
  44.4135342  75.8815808  38.4540384  44.0045342  77.5045808  38.9440384
  44.3225342  75.9505808  40.9070384  42.7375342  76.6785808  40.8820384
  43.4475342  73.8625808  39.9590384  42.5305342  74.2595808  41.3920384
  40.7425342  75.2595808  39.9720384  41.4345342  72.6365808  39.1640384
  71.9625342  31.4575808 112.2020384  73.4325342  31.0615808 112.4460384
  74.1525342  30.6855808 111.1340384  73.3785342  29.6225808 110.3260384
  71.9085342  30.0305808 110.1000384  71.1985342  30.3575808 111.4310384
  69.8465342  30.7105808 111.2270384  71.4645342  31.6775808 113.1490384
  71.9485342  32.3835808 111.6240384  73.9605342  31.8785808 112.9400384
  73.4705342  30.2165808 113.1350384  74.2765342  31.5815808 110.5230384
  75.1585342  30.3265808 111.3530384  73.8695342  29.4535808 109.3670384
  73.4125342  28.6695808 110.8560384  71.8945342  30.9095808 109.4530384
  71.3745342  29.2445808 109.5630384  71.2225342  29.4545808 112.0430384
  69.8195342  31.5065808 110.6880384  51.8195342  44.1855808  42.7910384
  52.7655342  45.3965808  42.6670384  53.8375342  45.4065808  43.7760384
  53.2215342  45.2765808  45.1860384  52.2725342  44.0665808  45.2890384
  51.1835342  44.1035808  44.1970384  50.3005342  43.0065808  44.3040384
  51.0465342  44.2245808  42.0220384  52.3985342  43.2795808  42.6010384
  53.2445342  45.3965808  41.6860384  52.1825342  46.3185808  42.7180384
  54.5335342  44.5835808  43.6110384  54.4305342  46.3205808  43.7120384
  54.0135342  45.1945808  45.9310384  52.6735342  46.1885808  45.4260384
  52.8665342  43.1575808  45.1810384  51.8205342  44.0215808  46.2810384
  50.6045342  45.0175808  44.3460384  50.8045342  42.1985808  44.1730384
  74.5955342 102.6215808  31.1860384  73.8855342 102.8365808  29.8340384
  73.6755342 101.5095808  29.0760384  74.9835342 100.7015808  28.9370384
  75.6835342 100.5045808  30.2950384  75.9225342 101.8495808  31.0130384
  76.5835342 101.6715808  32.2480384  74.7695342 103.5775808  31.6820384
  73.9265342 102.0535808  31.8360384  72.9255342 103.3305808  29.9920384
  74.4775342 103.5155808  29.2180384  72.9355342 100.9065808  29.6050384
  73.2545342 101.7075808  28.0890384  74.7765342  99.7335808  28.4800384
  75.6575342 101.2205808  28.2540384  75.0505342  99.8675808  30.9160384
  76.6245342  99.9665808  30.1640384  76.5675342 102.4505808  30.3700384
  76.0205342 101.1425808  32.8200384  37.1825342  76.2215808  77.8390384
  37.8275342  74.9165808  78.3480384  38.5395342  75.1175808  79.7020384
  39.5335342  76.2975808  79.6720384  38.8745342  77.5905808  79.1520384
  38.2085342  77.3755808  77.7760384  37.6235342  78.5645808  77.2900384
  36.7235342  76.0635808  76.8620384  36.3735342  76.4915808  78.5210384
  37.0695342  74.1365808  78.4380384  38.5475342  74.5565808  77.6110384
  37.7935342  75.2955808  80.4780384  39.0585342  74.2005808  79.9880384
  39.9445342  76.4635808  80.6680384  40.3805342  76.0415808  79.0340384
  38.1205342  77.9045808  79.8770384  39.6075342  78.3975808  79.1030384
  38.9925342  77.0765808  77.0790384  36.9305342  78.8335808  77.9000384
 123.3425342  44.0425808  67.6940384 122.3805342  42.9475808  68.1950384
 121.0795342  42.9005808  67.3670384 120.4015342  44.2835808  67.2630384
 121.3805342  45.3675808  66.7690384 122.6535342  45.4245808  67.6410384
 123.5405342  46.4305808  67.2020384 124.2345342  44.0825808  68.3210384
 123.6815342  43.7665808  66.6930384 122.8745342  41.9745808  68.1670384
 122.1355342  43.1315808  69.2430384 121.3045342  42.5345808  66.3640384
 120.3865342  42.1795808  67.8030384 119.5415342  44.2275808  66.5960384
 120.0095342  44.5685808  68.2400384 121.6555342  45.1345808  65.7390384
 120.8885342  46.3405808  66.7430384 122.3405342  45.6705808  68.6570384
 123.8205342  46.2185808  66.3070384  48.5485342  52.8595808  36.2690384
  49.1685342  53.0515808  37.6670384  48.6395342  52.0135808  38.6790384
  47.0975342  51.9645808  38.7150384  46.4955342  51.7815808  37.3080384
  47.0045342  52.8585808  36.3270384  46.4365342  52.7045808  35.0440384
  48.9055342  53.6315808  35.5840384  48.8975342  51.9055808  35.8680384
  50.2565342  52.9905808  37.6040384  48.9425342  54.0565808  38.0290384
  49.0245342  51.0275808  38.4150384  49.0285342  52.2335808  39.6740384
  46.7665342  51.1575808  39.3700384  46.7165342  52.8865808  39.1550384
  46.7775342  50.7925808  36.9430384  45.4055342  51.7905808  37.3580384
  46.6925342  53.8285808  36.7190384  46.7075342  51.8515808  34.6930384
  38.8565342  53.1515808  47.9670384  37.9995342  54.0125808  47.0180384
  36.4975342  53.9215808  47.3580384  36.0035342  52.4615808  47.4430384
  36.8775342  51.6135808  48.3880384  38.3695342  51.6845808  48.0000384
  39.1685342  50.8915808  48.8530384  39.9085342  53.1995808  47.6800384
  38.7905342  53.5785808  48.9700384  38.3285342  55.0515808  47.0590384
  38.1585342  53.6845808  45.9890384  36.3135342  54.4185808  48.3110384
  35.9145342  54.4675808  46.6150384  34.9655342  52.4385808  47.7750384
  36.0125342  52.0175808  46.4460384  36.7465342  51.9915808  49.4040384
  36.5325342  50.5785808  48.3980384  38.4615342  51.2885808  46.9870384
  39.0915342  51.2365808  49.7470384  95.0405342  72.9065808  28.4160384
  93.5055342  72.7715808  28.4630384  93.0635342  71.3575808  28.8960384
  93.7315342  70.2525808  28.0500384  95.2635342  70.4085808  28.0070384
  95.6795342  71.8155808  27.5290384  97.0835342  71.9515808  27.4690384
  95.3255342  73.9005808  28.0680384  95.4225342  72.8155808  29.4360384
  93.0865342  73.5165808  29.1420384  93.0915342  72.9935808  27.4780384
  93.3175342  71.2085808  29.9470384  91.9785342  71.2715808  28.8310384
  93.4675342  69.2715808  28.4460384  93.3355342  70.2855808  27.0350384
  95.6525342  70.2355808  29.0130384  95.7065342  69.6395808  27.3710384
  95.2855342  71.9445808  26.5190384  97.4375342  71.8385808  28.3550384
  60.2565342 122.3565808  85.3420384  60.1585342 123.6175808  84.4610384
  59.2045342 123.4125808  83.2660384  59.5485342 122.1455808  82.4530384
  59.6505342 120.8975808  83.3520384  60.6445342 121.1115808  84.5130384
  60.7555342 119.9615808  85.3240384  60.9685342 122.5135808  86.1550384
  59.2835342 122.1915808  85.8120384  59.8265342 124.4665808  85.0600384
  61.1515342 123.8785808  84.0900384  58.1795342 123.3365808  83.6330384
  59.2285342 124.2885808  82.6160384  58.7985342 121.9855808  81.6780384
  60.4945342 122.2955808  81.9330384  58.6595342 120.6855808  83.7550384
  59.9345342 120.0255808  82.7600384  61.6235342 121.3075808  84.0710384
  59.8955342 119.7835808  85.7160384 110.8805342 109.8035808  34.5720384
 112.3255342 110.3205808  34.4260384 113.3645342 109.2285808  34.7570384
 113.1055342 108.5725808  36.1300384 111.6545342 108.0695808  36.2620384
 110.6355342 109.1915808  35.9700384 109.3065342 108.7375808  36.1120384
 110.1675342 110.6045808  34.3740384 110.7105342 109.0425808  33.8070384
 112.4875342 110.6935808  33.4130384 112.4745342 111.1745808  35.0890384
 113.3395342 108.4625808  33.9810384 114.3695342 109.6525808  34.7310384
 113.8015342 107.7465808  36.2840384 113.3125342 109.2945808  36.9210384
 111.5115342 107.2525808  35.5520384 111.4875342 107.6475808  37.2540384
 110.8015342 109.9805808  36.7050384 109.1535342 108.0415808  35.4670384
  27.2725342  83.1985808  51.7180384  26.3885342  81.9435808  51.8570384
  25.4345342  82.0415808  53.0650384  26.1795342  82.3895808  54.3720384
  27.0645342  83.6415808  54.2120384  28.0405342  83.4995808  53.0250384
  28.8665342  84.6365808  52.8910384  27.9665342  83.0865808  50.8830384
  26.6285342  84.0455808  51.4720384  25.8155342  81.7885808  50.9410384
  27.0235342  81.0625808  51.9680384  24.6805342  82.8045808  52.8670384
  24.8905342  81.1035808  53.1860384  25.4625342  82.5415808  55.1790384
  26.7985342  81.5435808  54.6720384  26.4135342  84.5015808  54.0470384
  27.6105342  83.8415808  55.1360384  28.6815342  82.6405808  53.2310384
  28.3085342  85.3975808  52.7080384  84.9995342  21.6035808  89.5390384
  85.2135342  20.5065808  90.6020384  84.1505342  20.5725808  91.7190384
  84.0365342  21.9825808  92.3360384  83.8325342  23.0655808  91.2590384
  84.9325342  23.0085808  90.1780384  84.7585342  24.0145808  89.2030384
  85.7875342  21.5615808  88.7850384  84.0625342  21.3955808  89.0180384
  85.1985342  19.5225808  90.1300384  86.2075342  20.6165808  91.0410384
  83.1825342  20.2785808  91.3100384  84.3845342  19.8435808  92.4970384
  83.2145342  22.0095808  93.0520384  84.9405342  22.2025808  92.9040384
  82.8575342  22.9055808  90.7950384  83.7955342  24.0555808  91.7170384
  85.8875342  23.1845808  90.6770384  83.9195342  23.8645808  88.7590384
  90.8975342 118.3675808 111.0130384  92.3085342 118.9305808 110.7510384
  92.8065342 118.5965808 109.3280384  92.6995342 117.0905808 109.0100384
  91.2855342 116.5435808 109.2870384  90.8285342 116.8505808 110.7290384
  89.5425342 116.3315808 110.9900384  90.5875342 118.5805808 112.0380384
  90.1945342 118.8915808 110.3630384  92.3135342 120.0115808 110.9030384
  93.0055342 118.5185808 111.4830384  92.2195342 119.1605808 108.6020384
  93.8375342 118.9305808 109.2080384  92.9705342 116.9105808 107.9690384
  93.4245342 116.5415808 109.6110384  90.5955342 117.0075808 108.5800384
  91.2475342 115.4705808 109.0920384  91.5335342 116.3605808 111.4040384
  88.9175342 116.7595808 110.3990384  89.3345342 125.1195808  40.3640384
  88.4085342 124.0495808  40.9750384  88.1285342 124.3145808  42.4690384
  89.4255342 124.5105808  43.2810384  90.3425342 125.5775808  42.6510384
  90.6445342 125.2655808  41.1700384  91.5025342 126.2305808  40.5980384
  89.5505342 124.8865808  39.3200384  88.8005342 126.0725808  40.3630384
  87.4695342 124.0095808  40.4210384  88.8675342 123.0655808  40.8620384
  87.5065342 125.2055808  42.5640384  87.5465342 123.4935808  42.8890384
  89.1835342 124.7875808  44.3080384  89.9615342 123.5625808  43.3420384
  89.8425342 126.5445808  42.7250384  91.2695342 125.6665808  43.2220384
  91.1545342 124.3005808  41.1390384  91.0585342 127.0825808  40.6230384
  48.1145342 115.2745808  62.3460384  48.4675342 116.7575808  62.1180384
  47.5035342 117.4325808  61.1200384  47.3815342 116.6425808  59.8000384
  47.0375342 115.1605808  60.0460384  48.0415342 114.4965808  61.0120384
  47.7395342 113.1335808  61.2220384  48.8345342 114.8095808  63.0210384
  47.1455342 115.2265808  62.8470384  48.4545342 117.2935808  63.0690384
  49.4895342 116.8335808  61.7420384  46.5175342 117.5225808  61.5780384
  47.8355342 118.4515808  60.9150384  46.6245342 117.0995808  59.1610384
  48.3215342 116.7095808  59.2500384  46.0335342 115.1105808  60.4730384
  46.9965342 114.6175808  59.1010384  49.0275342 114.5555808  60.5470384
  46.8715342 113.0755808  61.6320384 123.3435342 112.1585808  99.8960384
 122.1645342 113.1405808 100.0500384 122.3305342 114.0485808 101.2860384
 122.6015342 113.2405808 102.5730384 123.7765342 112.2585808 102.3980384
 123.5665342 111.3315808 101.1820384 124.6315342 110.4175808 101.0330384
 123.1825342 111.5005808  99.0400384 124.2435342 112.7365808  99.6750384
 122.0675342 113.7495808  99.1500384 121.2335342 112.5775808 100.1360384
 123.1555342 114.7405808 101.1160384 121.4395342 114.6655808 101.4150384
 122.8045342 113.9195808 103.4030384 121.7035342 112.6865808 102.8490384
 124.6895342 112.8405808 102.2590384 123.9215342 111.6725808 103.3080384
 122.6545342 110.7595808 101.3630384 125.4385342 110.9155808 100.8730384
  53.0405342  40.4685808  58.1350384  54.3715342  40.9735808  57.5430384
  54.4865342  40.6595808  56.0370384  54.2275342  39.1695808  55.7280384
  52.8975342  38.6805808  56.3350384  52.8255342  38.9655808  57.8500384
  51.6165342  38.4975808  58.4110384  53.0015342  40.6645808  59.2080384
  52.2265342  41.0435808  57.6870384  54.4685342  42.0475808  57.7080384
  55.2035342  40.5085808  58.0740384  53.7705342  41.2705808  55.4870384
  55.4735342  40.9485808  55.6720384  54.2255342  39.0085808  54.6490384
  55.0485342  38.5695808  56.1230384  52.0805342  39.1965808  55.8280384
  52.7585342  37.6165808  56.1370384  53.6475342  38.4235808  58.3220384
  50.8885342  38.9715808  57.9990384  85.1055342 114.9675808  52.2810384
  84.9035342 114.2755808  53.6440384  84.7735342 112.7445808  53.4980384
  83.6995342 112.3445808  52.4640384  83.9115342 113.0535808  51.1120384
  83.9935342 114.5855808  51.2780384  84.1675342 115.2365808  50.0380384
  85.1525342 116.0515808  52.4070384  86.0755342 114.6615808  51.8820384
  85.7325342 114.5165808  54.3110384  84.0055342 114.6715808  54.1220384
  85.7355342 112.3295808  53.1950384  84.5425342 112.2985808  54.4660384
  83.7035342 111.2635808  52.3230384  82.7115342 112.5955808  52.8530384
  84.8415342 112.6835808  50.6760384  83.1175342 112.7845808  50.4130384
  83.0445342 114.9175808  51.7030384  85.0015342 114.9485808  49.6580384
  89.6305342  33.2555808  88.8230384  88.1715342  33.2355808  89.3210384
  87.6315342  34.6575808  89.5790384  88.5615342  35.4785808  90.4980384
  90.0165342  35.4795808  89.9900384  90.5485342  34.0455808  89.7830384
  91.8875342  34.0455808  89.3380384  90.0015342  32.2375808  88.6890384
  89.6485342  33.7235808  87.8360384  87.5375342  32.7225808  88.5960384
  88.1105342  32.6525808  90.2430384  87.5185342  35.1775808  88.6270384
  86.6325342  34.6025808  90.0140384  88.1945342  36.5025808  90.5800384
  88.5305342  35.0645808  91.5070384  90.0465342  36.0195808  89.0420384
  90.6585342  36.0325808  90.6790384  90.5145342  33.5435808  90.7520384
  91.9235342  34.4865808  88.4850384  27.8925342  49.0205808  63.5390384
  29.0655342  48.0805808  63.8810384  28.7015342  47.0925808  65.0090384
  28.1315342  47.8065808  66.2520384  26.9665342  48.7485808  65.8900384
  27.3695342  49.7565808  64.7930384  26.3095342  50.6335808  64.4760384
  28.1885342  49.7365808  62.7700384  27.0885342  48.4195808  63.1080384
  29.3755342  47.5325808  62.9910384  29.9295342  48.6755808  64.1870384
  27.9665342  46.3775808  64.6360384  29.5795342  46.5055808  65.2860384
  27.8015342  47.0705808  66.9860384  28.9245342  48.3805808  66.7350384
  26.1335342  48.1385808  65.5370384  26.6095342  49.2705808  66.7790384
  28.1935342  50.3535808  65.1870384  25.5795342  50.1125808  64.1280384
  72.2105342 133.3545808 101.1330384  73.0515342 133.9635808  99.9930384
  74.3565342 134.5985808 100.5160384  74.1005342 135.5985808 101.6640384
  73.2515342 134.9765808 102.7900384  71.9315342 134.3875808 102.2480384
  71.1435342 133.8365808 103.2810384  71.2745342 132.9495808 100.7430384
  72.7615342 132.5095808 101.5510384  73.2815342 133.1975808  99.2510384
  72.4625342 134.7215808  99.4730384  75.0235342 133.8105808 100.8680384
  74.8805342 135.0965808  99.6990384  75.0505342 135.9535808 102.0670384
  73.5905342 136.4795808 101.2700384  73.8375342 134.1855808 103.2610384
  73.0515342 135.7155808 103.5680384  71.3705342 135.2085808 101.7980384
  71.6325342 133.1125808 103.6820384  38.6825342 107.2525808  54.0960384
  39.5725342 108.4125808  53.6060384  41.0625342 108.0135808  53.5570384
  41.5515342 107.4125808  54.8930384  40.6445342 106.2615808  55.3710384
  39.1665342 106.6985808  55.4540384  38.3385342 105.6505808  55.9130384
  37.6405342 107.5725808  54.1620384  38.7135342 106.4575808  53.3470384
  39.2435342 108.7435808  52.6200384  39.4495342 109.2695808  54.2710384
  41.2125342 107.2855808  52.7590384  41.6705342 108.8805808  53.2950384
  42.5775342 107.0595808  54.7880384  41.5765342 108.1945808  55.6530384
  40.7415342 105.4355808  54.6640384  40.9885342 105.8825808  56.3350384
  39.1095342 107.5135808  56.1780384  38.3845342 104.9295808  55.2800384
  22.0535342  95.9675808  66.4710384  23.1825342  94.9475808  66.2180384
  22.9735342  94.1735808  64.8990384  21.5695342  93.5395808  64.8090384
  20.4555342  94.5705808  65.0740384  20.6615342  95.2985808  66.4190384
  19.6295342  96.2285808  66.6720384  22.2025342  96.4705808  67.4280384
  22.1145342  96.7415808  65.7030384  24.1475342  95.4565808  66.2020384
  23.2265342  94.2415808  67.0490384  23.1155342  94.8535808  64.0580384
  23.7385342  93.4015808  64.7970384  21.4295342  93.0825808  63.8290384
  21.4925342  92.7275808  65.5350384  20.4635342  95.2975808  64.2610384
  19.4765342  94.0885808  65.0450384  20.6345342  94.5425808  67.2060384
  19.6485342  96.8975808  65.9830384 122.1425342  48.6945808 104.2000384
 122.4245342  50.1645808 104.5690384 123.4165342  50.2825808 105.7450384
 122.9845342  49.4365808 106.9620384 122.6985342  47.9735808 106.5720384
 121.6695342  47.8805808 105.4250384 121.3905342  46.5395808 105.0820384
 121.4065342  48.6375808 103.3950384 123.0635342  48.2585808 103.8070384
 122.8105342  50.6995808 103.7010384 121.4875342  50.6575808 104.8360384
 124.4045342  49.9585808 105.4150384 123.5235342  51.3275808 106.0380384
 123.7555342  49.4725808 107.7330384 122.0905342  49.8745808 107.4080384
 123.6375342  47.5145808 106.2570384 122.3565342  47.4085808 107.4410384
 120.7445342  48.3365808 105.7820384 122.2025342  46.1325808 104.7670384
  84.5955342 100.2645808  59.4830384  85.9865342  99.7875808  59.9450384
  87.1235342 100.5265808  59.2070384  86.9575342 100.4725808  57.6730384
  85.5585342 100.9435808  57.2310384  84.4395342 100.1595808  57.9490384
  83.1575342 100.5755808  57.5280384  83.8115342  99.6985808  59.9880384
  84.4715342 101.3055808  59.7900384  86.0895342  99.9275808  61.0220384
  86.0795342  98.7145808  59.7690384  87.1435342 101.5685808  59.5300384
  88.0875342 100.1025808  59.4920384  87.7245342 101.0815808  57.1940384
  87.1215342  99.4505808  57.3280384  85.4665342 102.0055808  57.4640384
  85.4535342 100.8575808  56.1470384  84.5565342  99.1075808  57.6810384
  83.0485342 101.5015808  57.7610384  79.4725342  84.2065808  18.4360384
  77.9375342  84.3085808  18.5240384  77.2415342  83.5295808  17.3880384
  77.7835342  83.9185808  15.9960384  79.3205342  83.8195808  15.9290384
  79.9925342  84.6425808  17.0470384  81.4005342  84.5695808  16.9740384
  79.9405342  84.7995808  19.2240384  79.7575342  83.1685808  18.6210384
  77.5945342  83.9405808  19.4920384  77.6405342  85.3585808  18.4770384
  77.3875342  82.4595808  17.5440384  76.1645342  83.6975808  17.4280384
  77.3355342  83.2825808  15.2310384  77.4755342  84.9375808  15.7590384
  79.5985342  82.7685808  16.0310384  79.6795342  84.1375808  14.9480384
  79.7015342  85.6845808  16.9040384  81.6635342  83.6535808  17.1000384
  43.7125342 122.9005808  73.6400384  42.8295342 121.8955808  74.4070384
  42.6165342 120.5925808  73.6100384  42.1055342 120.8585808  72.1770384
  42.9955342 121.8715808  71.4300384  43.1565342 123.1835808  72.2270384
  43.9525342 124.1205808  71.5330384  43.8135342 123.8285808  74.2060384
  44.7175342 122.4795808  73.5580384  43.2765342 121.6705808  75.3760384
  41.8615342 122.3525808  74.6190384  43.5585342 120.0435808  73.5590384
  41.9165342 119.9435808  74.1390384  42.0575342 119.9235808  71.6200384
  41.0835342 121.2375808  72.2220384  43.9745342 121.4165808  71.2760384
  42.5905342 122.0725808  70.4370384  42.1605342 123.6135808  72.3490384
  44.8315342 123.7475808  71.4220384  95.9695342  71.0215808  16.9460384
  95.0765342  71.2115808  15.7040384  94.8985342  69.8965808  14.9160384
  96.2485342  69.2275808  14.5810384  97.1305342  69.0545808  15.8320384
  97.3315342  70.3905808  16.5770384  98.1565342  70.2365808  17.7120384
  96.1145342  71.9725808  17.4610384  95.4445342  70.3675808  17.6470384
  94.1025342  71.6025808  16.0010384  95.5195342  71.9665808  15.0510384
  94.2915342  69.2055808  15.5030384  94.3395342  70.0855808  13.9990384
  96.0775342  68.2595808  14.1090384  96.7795342  69.8335808  13.8450384
  96.6445342  68.3365808  16.4960384  98.0935342  68.6165808  15.5610384
  97.8305342  71.0745808  15.8880384  97.7225342  69.6355808  18.3230384
  29.7015342 106.2845808  51.3440384  28.7135342 105.1025808  51.3920384
  29.0815342 104.0025808  50.3740384  29.2675342 104.5635808  48.9480384
  30.2515342 105.7495808  48.9220384  29.8365342 106.8555808  49.9150384
  30.7255342 107.9515808  49.8760384  29.3955342 107.0655808  52.0420384
  30.6765342 105.9285808  51.6870384  28.6825342 104.6825808  52.3990384
  27.7045342 105.4645808  51.1840384  30.0045342 103.5145808  50.6910384
  28.3145342 103.2275808  50.3710384  29.6165342 103.7755808  48.2810384
  28.3015342 104.8855808  48.5570384  31.2425342 105.3765808  49.1850384
  30.3345342 106.1525808  47.9100384  28.8505342 107.2105808  49.6120384
  31.5965342 107.6455808  50.1420384  50.3285342  43.4505808  84.3670384
  49.2245342  43.9575808  85.3160384  48.8685342  45.4345808  85.0480384
  50.1145342  46.3455808  85.0480384  51.2105342  45.8195808  84.1010384
  51.5815342  44.3545808  84.4180384  52.6005342  43.8785808  83.5650384
  50.5915342  42.4185808  84.6040384  49.9285342  43.4415808  83.3500384
  48.3335342  43.3355808  85.2160384  49.5565342  43.8465808  86.3500384
  48.3645342  45.5135808  84.0840384  48.1525342  45.7845808  85.7930384
  49.8325342  47.3605808  84.7640384  50.5125342  46.4145808  86.0610384
  50.8385342  45.8885808  83.0770384  52.0945342  46.4585808  84.1500384
  51.9595342  44.3295808  85.4410384  52.2725342  43.8985808  82.6610384
  55.1865342  42.7865808 122.5960384  53.8835342  42.1235808 122.1070384
  54.1045342  41.2975808 120.8230384  54.8065342  42.1125808 119.7160384
  56.1015342  42.7755808 120.2250384  55.8465342  43.6315808 121.4830384
  57.0285342  44.2565808 121.9370384  54.9955342  43.3975808 123.4790384
  55.8745342  41.9975808 122.9090384  53.4715342  41.4875808 122.8930384
  53.1335342  42.8935808 121.9170384  54.7065342  40.4195808 121.0600384
  53.1485342  40.9175808 120.4570384  55.0265342  41.4695808 118.8640384
  54.1265342  42.8815808 119.3470384  56.8185342  41.9865808 120.4600384
  56.5555342  43.3765808 119.4360384  55.1375342  44.4135808 121.2050384
  57.6565342  43.5725808 122.1830384  41.1205342  95.9665808  53.4310384
  41.8915342  95.0695808  54.4200384  40.9425342  94.3355808  55.3900384
  39.9675342  95.2995808  56.0980384  39.2135342  96.1945808  55.0950384
  40.1855342  96.9525808  54.1660384  39.4965342  97.7885808  53.2610384
  41.8155342  96.5065808  52.7850384  40.5285342  95.3235808  52.7760384
  42.4975342  94.3465808  53.8730384  42.5915342  95.6805808  54.9930384
  40.3705342  93.5895808  54.8360384  41.5225342  93.7825808  56.1300384
  39.2555342  94.7345808  56.7010384  40.5235342  95.9275808  56.7960384
  38.5595342  95.5585808  54.4960384  38.5625342  96.8935808  55.6230384
  40.8115342  97.5845808  54.7990384  38.9435342  97.2375808  52.7010384
 111.0795342 102.5605808  27.0550384 112.5905342 102.3305808  27.2590384
 112.8695342 101.1685808  28.2340384 112.1085342 101.3285808  29.5680384
 110.6025342 101.5665808  29.3450384 110.3485342 102.7615808  28.4020384
 108.9685342 102.9935808  28.2140384 110.9085342 103.4135808  26.3960384
 110.6665342 101.6875808  26.5450384 113.0695342 102.1345808  26.2980384
 113.0475342 103.2445808  27.6440384 112.5785342 100.2275808  27.7650384
 113.9415342 101.0925808  28.4240384 112.2585342 100.4455808  30.1900384
 112.5295342 102.1665808  30.1260384 110.1755342 100.6615808  28.9100384
 110.0955342 101.7165808  30.3000384 110.7775342 103.6465808  28.8760384
 108.5855342 102.2175808  27.7970384  47.0985342 127.7525808  66.8750384
  46.7005342 128.5105808  68.1580384  46.8845342 127.6425808  69.4200384
  46.1815342 126.2745808  69.2970384  46.5845342 125.5355808  68.0050384
  46.3485342 126.4075808  66.7540384  46.6975342 125.7235808  65.5690384
  46.9205342 128.3725808  65.9950384  48.1745342 127.5675808  66.9090384
  47.2865342 129.4265808  68.2460384  45.6575342 128.8255808  68.0840384
  47.9495342 127.4855808  69.5950384  46.5095342 128.1765808  70.2950384
  46.4125342 125.6575808  70.1660384  45.1005342 126.4205808  69.3080384
  47.6425342 125.2785808  68.0760384  46.0435342 124.5915808  67.9230384
  45.2815342 126.6325808  66.7110384  47.6375342 125.5225808  65.6010384
  75.9025342  91.7675808  24.2640384  74.7765342  91.4035808  25.2530384
  74.8555342  89.9285808  25.6980384  74.9305342  88.9585808  24.5000384
  76.0545342  89.3435808  23.5180384  75.9275342  90.8085808  23.0530384
  76.9445342  91.1555808  22.1370384  75.7995342  92.8025808  23.9320384
  76.8555342  91.7075808  24.7950384  74.8195342  92.0595808  26.1240384
  73.8085342  91.5885808  24.7830384  75.7365342  89.7905808  26.3270384
  73.9965342  89.6825808  26.3230384  75.0785342  87.9385808  24.8550384
  73.9745342  88.9595808  23.9740384  77.0115342  89.2035808  24.0250384
  76.0595342  88.6665808  22.6620384  74.9675342  90.9055808  22.5420384
  77.7935342  91.0725808  22.5810384  91.3125342  56.2305808  30.9200384
  90.1685342  56.6685808  31.8570384  88.9185342  57.1145808  31.0700384
  89.2485342  58.1765808  30.0000384  90.3995342  57.7265808  29.0790384
  91.6525342  57.3285808  29.8880384  92.7145342  56.9355808  29.0440384
  92.1975342  55.9605808  31.4990384  90.9975342  55.3245808  30.3970384
  89.9105342  55.8535808  32.5360384  90.5115342  57.4905808  32.4880384
  88.4695342  56.2455808  30.5870384  88.1655342  57.5015808  31.7580384
  88.3605342  58.3955808  29.4070384  89.5225342  59.1115808  30.4910384
  90.0545342  56.8705808  28.4970384  90.6395342  58.5105808  28.3590384
  91.9735342  58.2105808  30.4450384  92.4375342  56.1585808  28.5500384
  90.1205342  30.5245808  37.5050384  89.7555342  29.1825808  36.8390384
  88.6285342  28.4515808  37.5970384  88.9375342  28.3015808  39.1020384
  89.3085342  29.6505808  39.7490384  90.4675342  30.3415808  38.9990384
  90.8225342  31.5665808  39.6040384  90.9465342  31.0015808  36.9750384
  89.2645342  31.1965808  37.4110384  89.4585342  29.3505808  35.8020384
  90.6395342  28.5445808  36.8010384  87.6955342  29.0035808  37.4750384
  88.4585342  27.4695808  37.1530384  88.0805342  27.8655808  39.6170384
  89.7605342  27.5975808  39.2340384  88.4265342  30.2925808  39.7280384
  89.5615342  29.5105808  40.8020384  91.3315342  29.6755808  39.0530384
  90.0655342  32.1565808  39.5600384  68.4875342  91.9755808 124.7000384
  67.7815342  93.3195808 124.9700384  68.7135342  94.3285808 125.6730384
  69.3675342  93.7375808 126.9400384  70.0595342  92.3905808 126.6530384
  69.0955342  91.3835808 125.9920384  69.7235342  90.1425808 125.7490384
  67.7965342  91.2665808 124.2420384  69.2825342  92.1475808 123.9700384
  67.4135342  93.7415808 124.0330384  66.9005342  93.1475808 125.5910384
  69.4945342  94.6405808 124.9780384  68.1575342  95.2315808 125.9280384
  70.0865342  94.4455808 127.3530384  68.6055342  93.5965808 127.7080384
  70.9055342  92.5765808 125.9880384  70.4785342  91.9755808 127.5720384
  68.2735342  91.2145808 126.6900384  70.4485342  90.2855808 125.1340384
  28.4365342  70.6445808  69.2250384  27.5055342  71.8725808  69.2320384
  28.0305342  72.9985808  68.3160384  29.4985342  73.3645808  68.6220384
  30.4125342  72.1235808  68.6210384  29.8905342  71.0315808  69.5780384
  30.7395342  69.9025808  69.5930384  28.0665342  69.8805808  69.9110384
  28.4105342  70.2005808  68.2270384  26.5005342  71.5805808  68.9230384
  27.4115342  72.2505808  70.2520384  27.9495342  72.6825808  67.2750384
  27.3985342  73.8825808  68.4140384  29.8595342  74.0945808  67.8970384
  29.5535342  73.8535808  69.5960384  30.4505342  71.7295808  67.6040384
  31.4355342  72.4045808  68.8790384  29.8795342  71.4575808  70.5820384
  30.7535342  69.5225808  68.7100384 132.2885342  84.8115808  66.2080384
 133.4025342  85.8505808  66.4450384 133.7035342  86.0395808  67.9470384
 132.4285342  86.3375808  68.7650384 131.3235342  85.2955808  68.5080384
 131.0095342  85.1575808  67.0040384 129.9825342  84.2175808  66.7690384
 132.0655342  84.7275808  65.1420384 132.6595342  83.8345808  66.5230384
 134.3105342  85.5505808  65.9190384 133.1045342  86.8075808  66.0130384
 134.1755342  85.1365808  68.3350384 134.4285342  86.8425808  68.0820384
 132.6695342  86.3715808  69.8290384 132.0575342  87.3305808  68.5070384
 131.6635342  84.3345808  68.8990384 130.4215342  85.5515808  69.0670384
 130.6625342  86.1315808  66.6540384 130.2825342  83.3575808  67.0750384
  76.1735342  49.7825808  33.9230384  76.4115342  48.2695808  33.7450384
  76.3695342  47.8515808  32.2610384  75.0875342  48.3375808  31.5510384
  74.8615342  49.8495808  31.7480384  74.8625342  50.2365808  33.2420384
  74.6345342  51.6175808  33.4230384  76.1655342  50.0455808  34.9820384
  77.0175342  50.3155808  33.4790384  77.3695342  47.9895808  34.1840384
  75.6505342  47.7155808  34.2990384  77.2415342  48.2595808  31.7480384
  76.4505342  46.7665808  32.1780384  75.1395342  48.1035808  30.4870384
  74.2285342  47.7895808  31.9400384  75.6615342  50.3835808  31.2320384
  73.9295342  50.1595808  31.2710384  74.0435342  49.6935808  33.7180384
  75.3525342  52.1005808  33.0060384  89.4435342 128.5795808  61.9480384
  89.4375342 128.6435808  63.4890384  89.0205342 127.2985808  64.1190384
  87.6905342 126.7685808  63.5420384  87.7115342 126.7205808  62.0010384
  88.0875342 128.0885808  61.3940384  88.0855342 128.0505808  59.9830384
  89.6995342 129.5535808  61.5270384  90.2335342 127.8915808  61.6380384
  90.4235342 128.9365808  63.8530384  88.7485342 129.4255808  63.8160384
  89.8065342 126.5625808  63.9460384  88.9395342 127.4055808  65.2020384
  87.4795342 125.7765808  63.9430384  86.8715342 127.4095808  63.8730384
  88.4445342 125.9715808  61.6940384  86.7475342 126.3815808  61.6180384
  87.3275342 128.8045808  61.7120384  88.7535342 127.4215808  59.6960384
  96.5385342 132.3415808  89.3380384  95.8845342 133.6335808  88.8100384
  96.7695342 134.8715808  89.0640384  97.2045342 134.9875808  90.5410384
  97.8465342 133.6835808  91.0540384  96.9235342 132.4675808  90.8290384
  97.5025342 131.2765808  91.3190384  95.8755342 131.4875808  89.1840384
  97.4355342 132.1455808  88.7460384  95.6775342 133.5365808  87.7430384
  94.9175342 133.7745808  89.2950384  97.6575342 134.8155808  88.4320384
  96.2395342 135.7755808  88.7600384  97.9005342 135.8185808  90.6600384
  96.3365342 135.2295808  91.1550384  98.7855342 133.5325808  90.5180384
  98.1075342 133.7785808  92.1100384  96.0045342 132.6495808  91.3890384
  98.3135342 131.1105808  90.8300384 113.9975342  62.8745808  82.5360384
 112.5205342  62.7235808  82.9530384 112.2645342  63.2745808  84.3720384
 113.2395342  62.6845808  85.4130384 114.7095342  62.8365808  84.9750384
 114.9495342  62.2385808  83.5730384 116.3005342  62.3575808  83.1790384
 114.1605342  62.4405808  81.5480384 114.2195342  63.9405808  82.4440384
 111.8765342  63.2315808  82.2340384 112.2405342  61.6695808  82.9190384
 112.3665342  64.3605808  84.3590384 111.2345342  63.0705808  84.6690384
 113.0875342  63.1665808  86.3800384 113.0135342  61.6285808  85.5630384
 114.9535342  63.9005808  84.9640384 115.3745342  62.3765808  85.7080384
 114.7075342  61.1755808  83.6270384 116.5195342  63.2915808  83.1290384
  58.8065342  27.3295808 112.9110384  57.7965342  27.8895808 111.8880384
  58.4515342  28.9085808 110.9320384  59.2075342  30.0205808 111.6890384
  60.2045342  29.4425808 112.7130384  59.5175342  28.4615808 113.6860384
  60.4255342  27.9485808 114.6370384  58.3095342  26.6455808 113.6010384
  59.5485342  26.7385808 112.3690384  57.3535342  27.0725808 111.3160384
  56.9725342  28.3695808 112.4190384  59.1465342  28.3865808 110.2720384
  57.6925342  29.3495808 110.2840384  59.7315342  30.6635808 110.9810384
  58.4895342  30.6595808 112.2050384  60.9915342  28.9205808 112.1650384
  60.6955342  30.2485808 113.2620384  58.7485342  29.0215808 114.2220384
  61.1055342  27.4535808 114.1710384  60.4435342  99.0605808 110.7410384
  60.4125342  98.9245808 109.2060384  61.5795342  98.0605808 108.6810384
  62.9475342  98.5435808 109.2070384  62.9565342  98.6835808 110.7420384
  61.8085342  99.5875808 111.2380384  61.8285342  99.7335808 112.6420384
  59.6345342  99.7095808 111.0820384  60.2535342  98.0765808 111.1750384
  59.4605342  98.4955808 108.8880384  60.4645342  99.9155808 108.7520384
  61.4235342  97.0245808 108.9840384  61.5795342  98.0595808 107.5900384
  63.7325342  97.8555808 108.8910384  63.1895342  99.5065808 108.7550384
  62.8495342  97.6875808 111.1760384  63.9205342  99.0645808 111.0840384
  61.9565342 100.5735808 110.7950384  61.6975342  98.8675808 113.0380384
 125.8295342 111.3125808  89.2360384 125.2165342 112.7265808  89.2370384
 125.9065342 113.6525808  90.2610384 125.9605342 113.0275808  91.6720384
 126.5675342 111.6115808  91.6500384 125.8315342 110.6925808  90.6510384
 126.3735342 109.3885808  90.6460384 125.2975342 110.6665808  88.5350384
 126.8565342 111.3855808  88.8700384 125.2815342 113.1615808  88.2390384
 124.1515342 112.6605808  89.4700384 126.9215342 113.8675808  89.9240384
 125.3905342 114.6135808  90.3000384 126.5345342 113.6685808  92.3410384
 124.9525342 112.9835808  92.0860384 127.6175342 111.6945808  91.3630384
 126.5565342 111.1775808  92.6510384 124.7925342 110.6235808  90.9780384
 127.2895342 109.4425808  90.3590384  56.0165342 101.2955808 117.8570384
  55.2205342 102.3495808 117.0620384  53.7765342 102.4955808 117.5860384
  53.0445342 101.1395808 117.6710384  53.8595342 100.0955808 118.4610384
  55.2845342  99.9355808 117.8900384  56.0235342  98.9645808 118.6000384
  57.0195342 101.1805808 117.4410384  56.1465342 101.6635808 118.8770384
  55.7315342 103.3125808 117.1040384  55.1965342 102.0665808 116.0080384
  53.7985342 102.9555808 118.5750384  53.2175342 103.1805808 116.9460384
  52.0655342 101.2735808 118.1310384  52.8575342 100.7655808 116.6630384
  53.9175342 100.4245808 119.5000384  53.3395342  99.1365808 118.4720384
  55.1845342  99.5945808 116.8580384  56.1155342  99.2595808 119.5100384
  42.1545342  67.6495808 127.5370384  40.7595342  67.0195808 127.3500384
  40.3485342  66.9615808 125.8640384  40.4795342  68.3315808 125.1660384
  41.8765342  68.9495808 125.3720384  42.2455342  69.0385808 126.8670384
  43.5155342  69.6245808 127.0570384  42.4025342  67.7175808 128.5980384
  42.8935342  66.9805808 127.0900384  40.7415342  66.0175808 127.7810384
  40.0215342  67.6015808 127.9070384  40.9745342  66.2335808 125.3470384
  39.3245342  66.5955808 125.7760384  40.2705342  68.2285808 124.1010384
  39.7215342  69.0115808 125.5590384  42.6055342  68.3235808 124.8530384
  41.9295342  69.9345808 124.9030384  41.5035342  69.6805808 127.3470384
  44.1735342  69.0635808 126.6370384  96.0945342  99.4525808  52.4060384
  97.1145342  99.4855808  53.5630384  96.6475342  98.6395808  54.7660384
  95.2205342  99.0095808  55.2230384  94.2175342  98.9795808  54.0530384
  94.6835342  99.8685808  52.8800384  93.7555342  99.8585808  51.8170384
  96.4275342 100.0915808  51.5860384  96.0595342  98.4345808  52.0110384
  98.0855342  99.1325808  53.2130384  97.2645342 100.5185808  53.8830384
  96.6765342  97.5835808  54.4950384  97.3465342  98.7585808  55.5960384
  94.8945342  98.3295808  56.0100384  95.2285342 100.0055808  55.6670384
  94.1215342  97.9465808  53.7120384  93.2255342  99.2825808  54.3940384
  94.7545342 100.8905808  53.2560384  93.6885342  98.9605808  51.4820384
  93.5025342 127.6805808  89.7210384  94.0195342 129.0985808  90.0360384
  95.2905342 129.0675808  90.9100384  95.1075342 128.2065808  92.1790384
  94.5825342 126.7965808  91.8450384  93.2865342 126.8555808  91.0090384
  92.7925342 125.5645808  90.7220384  92.5815342 127.7315808  89.1390384
  94.2405342 127.1805808  89.0890384  94.2185342 129.6375808  89.1090384
  93.2395342 129.6625808  90.5520384  96.1205342 128.6705808  90.3230384
  95.5755342 130.0825808  91.1880384  96.0525342 128.1345808  92.7180384
  94.4105342 128.7025808  92.8550384  95.3555342 126.2685808  91.2830384
  94.4235342 126.2235808  92.7610384  92.5375342 127.3765808  91.6080384
  93.4485342 125.0995808  90.1950384  48.1735342 108.9475808 108.7150384
  49.1625342 109.9475808 109.3480384  48.4395342 111.0085808 110.2040384
  47.3015342 111.7075808 109.4300384  46.3295342 110.6935808 108.7970384
  47.0705342 109.6715808 107.9100384  46.1785342 108.7545808 107.3130384
  48.7055342 108.2345808 108.0820384  47.7155342 108.3655808 109.5180384
  49.8935342 109.4135808 109.9560384  49.7295342 110.4445808 108.5590384
  48.0285342 110.5315808 111.0950384  49.1565342 111.7485808 110.5610384
  46.7585342 112.3795808 110.0950384  47.7295342 112.3365808 108.6480384
  45.8115342 110.1695808 109.6030384  45.5585342 111.2125808 108.2240384
  47.5635342 110.2305808 107.1130384  45.7415342 108.2595808 108.0110384
  81.4745342  56.2745808 118.4050384  80.3035342  55.4965808 119.0380384
  80.6425342  54.0035808 119.2320384  81.1595342  53.3475808 117.9340384
  82.3225342  54.1435808 117.3110384  81.9435342  55.6225808 117.0850384
  83.0005342  56.3475808 116.4940384  81.1945342  57.3165808 118.2390384
  82.3015342  56.2875808 119.1180384  80.0325342  55.9445808 119.9950384
  79.4215342  55.5865808 118.4010384  81.4015342  53.9065808 120.0110384
  79.7655342  53.4685808 119.5970384  81.4745342  52.3225808 118.1360384
  80.3425342  53.2765808 117.2150384  83.1765342  54.0855808 117.9890384
  82.6415342  53.6805808 116.3750384  81.0975342  55.6385808 116.3950384
  83.7495342  56.3365808 117.0970384  93.4825342  35.9065808  49.4310384
  94.0005342  36.3375808  48.0440384  93.6625342  35.2995808  46.9540384
  94.1175342  33.8765808  47.3410384  93.5985342  33.4655808  48.7330384
  93.9885342  34.4965808  49.8130384  93.5315342  34.1095808  51.0910384
  93.7715342  36.6355808  50.1900384  92.3905342  35.9055808  49.4030384
  93.5825342  37.3095808  47.7760384  95.0825342  36.4765808  48.0890384
  92.5855342  35.2985808  46.7820384  94.1195342  35.5925808  46.0080384
  93.7785342  33.1605808  46.5910384  95.2075342  33.8295808  47.3320384
  92.5105342  33.3855808  48.6810384  93.9665342  32.4725808  48.9980384
  95.0785342  34.5385808  49.8430384  92.5715342  34.0715808  51.0710384
  82.4085342  29.2825808 100.7810384  81.1995342  30.1745808 100.4310384
  79.8605342  29.4435808 100.6590384  79.8125342  28.0735808  99.9480384
  81.0325342  27.2005808 100.3020384  82.3595342  27.9365808 100.0230384
  83.4775342  27.1295808 100.3260384  83.3425342  29.8065808 100.5710384
  82.3945342  29.0945808 101.8570384  81.2295342  31.0905808 101.0230384
  81.2685342  30.4855808  99.3870384  79.7075342  29.2975808 101.7300384
  79.0335342  30.0685808 100.3180384  78.8915342  27.5515808 100.2090384
  79.7775342  28.2275808  98.8690384  80.9725342  26.9445808 101.3610384
  80.9945342  26.2565808  99.7550384  82.3875342  28.1635808  98.9550384
  83.4585342  26.9265808 101.2650384  84.1295342  63.1115808 117.4740384
  84.8705342  61.9145808 118.1030384  84.4755342  61.7045808 119.5800384
  84.6195342  62.9955808 120.4130384  83.8805342  64.1825808 119.7650384
  84.3255342  64.4005808 118.3040384  83.6645342  65.5015808 117.7160384
  84.4565342  63.2655808 116.4440384  83.0655342  62.8685808 117.4270384
  84.6675342  61.0085808 117.5300384  85.9475342  62.0805808 118.0360384
  83.4425342  61.3575808 119.6290384  85.0825342  60.9105808 120.0170384
  84.2445342  62.8295808 121.4240384  85.6765342  63.2415808 120.5200384
  82.8095342  63.9735808 119.7930384  84.0315342  65.0905808 120.3520384
  85.3945342  64.6185808 118.3190384  82.7215342  65.3155808 117.7000384
  43.0915342  97.1515808  32.1940384  43.3095342  95.6255808  32.2430384
  44.3065342  95.1515808  31.1650384  43.9265342  95.6525808  29.7550384
  43.7045342  97.1775808  29.7280384  42.6695342  97.6205808  30.7840384
  42.4495342  99.0145808  30.7450384  42.3515342  97.4545808  32.9370384
  44.0285342  97.6395808  32.4740384  43.6625342  95.3315808  33.2330384
  42.3535342  95.1185808  32.0990384  45.3055342  95.5115808  31.4170384
  44.3685342  94.0625808  31.1690384  44.7025342  95.3765808  29.0410384
  43.0175342  95.1475808  29.4250384  44.6605342  97.6645808  29.9270384
  43.3975342  97.4985808  28.7310384  41.7275342  97.1235808  30.5440384
  43.2755342  99.4575808  30.9550384 123.5835342  93.7575808  85.1230384
 124.0265342  92.5325808  84.2980384 122.8805342  91.5145808  84.1190384
 122.2315342  91.1215808  85.4630384 121.8035342  92.3585808  86.2780384
 122.9775342  93.3395808  86.4820384 122.5925342  94.4615808  87.2460384
 124.4215342  94.4405808  85.2720384 122.8365342  94.3065808  84.5460384
 124.3955342  92.8545808  83.3230384 124.8685342  92.0465808  84.7950384
 122.1205342  91.9425808  83.4640384 123.2515342  90.6235808  83.6110384
 121.3705342  90.4765808  85.2860384 122.9375342  90.5305808  86.0470384
 120.9985342  92.8605808  85.7380384 121.3855342  92.0545808  87.2390384
 123.7545342  92.8065808  87.0340384 121.9085342  94.9355808  86.7650384
  58.1545342  45.1795808  70.0680384  57.4425342  46.5175808  69.7860384
  58.1355342  47.6995808  70.4950384  58.3365342  47.4415808  72.0030384
  59.0415342  46.0955808  72.2660384  58.3035342  44.9245808  71.5850384
  58.9365342  43.6885808  71.8430384  57.6215342  44.3555808  69.5910384
  59.1435342  45.2155808  69.6060384  57.4035342  46.6995808  68.7100384
  56.4045342  46.4535808  70.1200384  59.1055342  47.8785808  70.0280384
  57.5565342  48.6125808  70.3480384  58.9105342  48.2555808  72.4470384
  57.3675342  47.4465808  72.5030384  60.0585342  46.1625808  71.8770384
  59.1345342  45.9195808  73.3390384  57.2985342  44.8825808  72.0080384
  59.8225342  43.7185808  71.4720384  46.2175342 125.1085808  55.3090384
  44.8495342 124.7405808  55.9170384  44.5995342 123.2185808  55.8960384
  44.8085342 122.6105808  54.4920384  46.1765342 122.9955808  53.8970384
  46.3835342 124.5245808  53.8880384  47.6275342 124.8795808  53.3230384
  46.3515342 126.1915808  55.2970384  46.9985342 124.7075808  55.9590384
  44.7835342 125.1155808  56.9400384  44.0575342 125.2445808  55.3590384
  45.2765342 122.7335808  56.6010384  43.5905342 123.0025808  56.2480384
  44.7145342 121.5255808  54.5390384  44.0145342 122.9545808  53.8280384
  46.9555342 122.5265808  54.5010384  46.2815342 122.5875808  52.8900384
  45.5965342 124.9555808  53.2660384  48.3255342 124.5035808  53.8670384
  72.7955342  84.7525808  28.6330384  71.8755342  85.6705808  29.4630384
  70.3855342  85.4385808  29.1380384  70.0975342  85.5225808  27.6230384
  71.0315342  84.6065808  26.8090384  72.5175342  84.8885808  27.1190384
  73.3745342  84.0645808  26.3570384  73.8435342  84.9655808  28.8500384
  72.6195342  83.7205808  28.9430384  72.0535342  85.5105808  30.5280384
  72.1305342  86.7135808  29.2670384  70.0855342  84.4565808  29.5060384
  69.7715342  86.1625808  29.6740384  69.0565342  85.2625808  27.4280384
  70.2195342  86.5535808  27.2890384  70.7975342  83.5705808  27.0600384
  70.8345342  84.7155808  25.7410384  72.7155342  85.9265808  26.8430384
  73.2045342  83.1495808  26.5960384  30.5675342  42.5025808  82.4500384
  29.6935342  41.8285808  81.3740384  29.6365342  42.6605808  80.0750384
  29.2315342  44.1265808  80.3370384  30.1095342  44.7805808  81.4220384
  30.1135342  43.9535808  82.7250384  30.9005342  44.5625808  83.7270384
  30.5575342  41.9165808  83.3710384  31.6015342  42.5055808  82.0980384
  30.0725342  40.8285808  81.1590384  28.6815342  41.6925808  81.7610384
  30.6145342  42.6385808  79.5920384  28.9415342  42.2025808  79.3710384
  29.2935342  44.7005808  79.4120384  28.1865342  44.1635808  80.6460384
  31.1275342  44.8575808  81.0360384  29.7765342  45.8015808  81.6160384
  29.0845342  43.9095808  83.0860384  31.8085342  44.6035808  83.4150384
  77.0955342  32.1335808  72.4150384  78.4335342  32.5925808  71.7990384
  78.2405342  33.2125808  70.4000384  77.4385342  32.2905808  69.4560384
  76.1095342  31.8355808  70.0910384  76.3335342  31.1775808  71.4700384
  75.1195342  30.7415808  72.0420384  77.2645342  31.6615808  73.3840384
  76.4855342  33.0195808  72.6050384  78.9215342  33.3095808  72.4610384
  79.1105342  31.7385808  71.7270384  77.7205342  34.1665808  70.4980384
  79.2115342  33.4415808  69.9580384  77.2445342  32.8015808  68.5130384
  78.0405342  31.4155808  69.2080384  75.4685342  32.7115808  70.2050384
  75.5825342  31.1535808  69.4220384  76.9665342  30.3025808  71.3130384
  74.5575342  31.5085808  72.1830384  72.9685342 115.9395808  32.2260384
  72.4215342 116.4755808  30.8880384  71.9695342 115.3345808  29.9520384
  73.0675342 114.2675808  29.7590384  73.6085342 113.7495808  31.1060384
  74.0955342 114.9055808  32.0060384  74.6115342 114.4305808  33.2310384
  73.3195342 116.7625808  32.8510384  72.1455342 115.4695808  32.7680384
  71.5895342 117.1575808  31.0720384  73.1935342 117.0665808  30.3910384
  71.0775342 114.8625808  30.3670384  71.6735342 115.7435808  28.9850384
  72.6785342 113.4355808  29.1700384  73.8875342 114.6925808  29.1780384
  72.8065342 113.2085808  31.6110384  74.4105342 113.0275808  30.9410384
  74.9035342 115.4125808  31.4740384  73.9055342 113.9835808  33.7040384
 138.0675342  72.8035808  76.3840384 139.4305342  73.3985808  76.7910384
 139.7005342  73.2375808  78.3020384 138.5385342  73.7725808  79.1650384
 137.1835342  73.1745808  78.7380384 136.9155342  73.3875808  77.2330384
 135.6655342  72.8585808  76.8450384 137.8825342  72.9675808  75.3210384
 138.1115342  71.7215808  76.5270384 140.2295342  72.9265808  76.2180384
 139.4555342  74.4585808  76.5300384 139.8595342  72.1825808  78.5280384
 140.6275342  73.7475808  78.5700384 138.7255342  73.5575808  80.2170384
 138.4965342  74.8595808  79.0810384 137.1985342  72.1055808  78.9570384
 136.3745342  73.5995808  79.3360384 136.8955342  74.4645808  77.0560384
 135.6775342  71.9105808  76.9990384  19.4895342  80.4465808  80.6640384
  20.4585342  81.6445808  80.6110384  21.6285342  81.4835808  81.6040384
  21.1415342  81.1775808  83.0370384  20.1675342  79.9845808  83.0690384
  18.9835342  80.1895808  82.1010384  18.0795342  79.1065808  82.1460384
  18.6505342  80.6045808  79.9840384  20.0185342  79.5625808  80.3010384
  20.8455342  81.7665808  79.5970384  19.9135342  82.5625808  80.8390384
  22.2785342  80.6765808  81.2650384  22.2425342  82.3855808  81.6050384
  21.9955342  80.9795808  83.6850384  20.6475342  82.0595808  83.4470384
  20.7185342  79.0865808  82.7860384  19.8075342  79.8155808  84.0860384
  18.4505342  81.0855808  82.4240384  18.5415342  78.3135808  81.8630384
  82.4045342 119.0315808 114.3360384  82.5345342 117.5725808 113.8580384
  83.5435342 117.4335808 112.6990384  83.2455342 118.4125808 111.5430384
  83.1095342 119.8645808 112.0410384  82.0625342 119.9845808 113.1680384
  81.9225342 121.3175808 113.6100384  81.6555342 119.1095808 115.1260384
  83.3555342 119.3315808 114.7830384  82.8325342 116.9325808 114.6900384
  81.5575342 117.2085808 113.5320384  84.5505342 117.6185808 113.0760384
  83.5435342 116.4075808 112.3270384  84.0315342 118.3485808 110.7900384
  82.3225342 118.1125808 111.0450384  84.0835342 120.1905808 112.4120384
  82.8595342 120.5285808 111.2120384  81.1035342 119.6635808 112.7570384
  82.7635342 121.6065808 113.9740384 116.5875342  95.6475808 118.5370384
 115.7075342  96.7885808 117.9890384 114.7165342  96.2875808 116.9180384
 115.4185342  95.4895808 115.7990384 116.3005342  94.3595808 116.3660384
 117.3135342  94.8925808 117.4010384 118.1355342  93.8615808 117.9050384
 117.3075342  96.0345808 119.2610384 115.9445342  94.9525808 119.0830384
 115.1635342  97.2645808 118.8060384 116.3455342  97.5625808 117.5580384
 113.9645342  95.6555808 117.3920384 114.1755342  97.1315808 116.4890384
 114.6765342  95.0755808 115.1150384 116.0345342  96.1655808 115.2040384
 115.6485342  93.6225808 116.8390384 116.8155342  93.8375808 115.5570384
 117.9525342  95.6135808 116.8880384 117.5775342  93.2225808 118.3580384
  31.6315342  62.5875808  45.9580384  31.9355342  62.2775808  44.4780384
  31.3355342  60.9265808  44.0380384  31.7385342  59.7725808  44.9810384
  31.4365342  60.1025808  46.4550384  32.0845342  61.4365808  46.8840384
  31.8265342  61.7295808  48.2410384  32.1015342  63.5265808  46.2550384
  30.5545342  62.7345808  46.0620384  31.5525342  63.0795808  43.8440384
  33.0165342  62.2605808  44.3260384  30.2475342  61.0065808  44.0140384
  31.6445342  60.6975808  43.0170384  31.2215342  58.8565808  44.6910384
  32.8045342  59.5675808  44.8660384  30.3535342  60.1685808  46.5750384
  31.7675342  59.2885808  47.1030384  33.1635342  61.3265808  46.7630384
  30.8765342  61.8275808  48.3540384 113.6955342 124.3955808  86.0150384
 113.2805342 125.8515808  86.3090384 114.4765342 126.8215808  86.2120384
 115.6745342 126.3605808  87.0700384 116.0685342 124.9015808  86.7690384
 114.8665342 123.9455808  86.9160384 115.2315342 122.6055808  86.6620384
 112.8425342 123.7255808  86.1310384 113.9975342 124.3315808  84.9670384
 112.4935342 126.1615808  85.6200384 112.8475342 125.9095808  87.3090384
 114.7905342 126.9015808  85.1700384 114.1675342 127.8235808  86.5130384
 116.5275342 127.0195808  86.9020384 115.4215342 126.4575808  88.1260384
 116.4485342 124.8545808  85.7470384 116.8905342 124.5885808  87.4160384
 114.5245342 124.0105808  87.9510384 115.5335342 122.5415808  85.7520384
  83.9315342  30.3385808  52.8400384  85.2595342  30.9955808  52.4140384
  86.3335342  30.8935808  53.5180384  85.8245342  31.4125808  54.8790384
  84.4925342  30.7515808  55.2850384  83.4215342  30.9065808  54.1840384
  82.1945342  30.3205808  54.5630384  83.1775342  30.4625808  52.0610384
  84.0995342  29.2635808  52.9410384  85.6245342  30.5355808  51.4950384
  85.0845342  32.0475808  52.1770384  86.6415342  29.8515808  53.6220384
  87.2265342  31.4445808  53.2190384  86.5765342  31.2365808  55.6490384
  85.6915342  32.4935808  54.8270384  84.6785342  29.6905808  55.4640384
  84.1355342  31.1645808  56.2300384  83.2545342  31.9765808  54.0420384
  82.3355342  29.3785808  54.6890384  57.4825342 122.0995808  57.8020384
  58.1935342 123.4665808  57.7620384  58.0895342 124.2095808  59.1100384
  56.6325342 124.3135808  59.6100384  55.9345342 122.9395808  59.6340384
  56.0135342 122.2365808  58.2620384  55.3565342 120.9875808  58.2780384
  57.5345342 121.6145808  56.8260384  58.0225342 121.4535808  58.4970384
  59.2425342 123.3335808  57.4910384  57.7535342 124.0825808  56.9750384
  58.6885342 123.6865808  59.8560384  58.5225342 125.2065808  59.0190384
  56.6105342 124.7595808  60.6040384  56.0745342 124.9915808  58.9610384
  56.4245342 122.3215808  60.3890384  54.8955342 123.0465808  59.9510384
  55.5045342 122.8765808  57.5390384  55.8005342 120.4185808  58.9130384
  78.5165342  62.7825808  25.4940384  78.7445342  64.1575808  26.1530384
  79.2125342  64.0235808  27.6170384  78.2825342  63.1145808  28.4480384
  78.0585342  61.7485808  27.7690384  77.5475342  61.9085808  26.3220384
  77.3225342  60.6575808  25.7070384  78.1465342  62.9045808  24.4740384
  79.4825342  62.2775808  25.4130384  79.4755342  64.7295808  25.5790384
  77.8175342  64.7335808  26.1200384  80.2245342  63.6155808  27.6350384
  79.2775342  65.0105808  28.0780384  78.6965342  62.9715808  29.4460384
  77.3215342  63.6115808  28.5870384  79.0085342  61.2115808  27.7630384
  77.3665342  61.1415808  28.3560384  76.5935342  62.4375808  26.3710384
  78.1595342  60.1875808  25.6610384 133.0115342  87.2035808 103.2440384
 132.8945342  88.5125808 102.4380384 133.6075342  89.6875808 103.1400384
 133.1575342  89.8515808 104.6080384 133.2725342  88.5325808 105.3950384
 132.5135342  87.3845808 104.6960384 132.6005342  86.1805808 105.4280384
 132.4645342  86.4005808 102.7490384 134.0615342  86.9015808 103.2550384
 133.3065342  88.3715808 101.4370384 131.8405342  88.7605808 102.3000384
 134.6855342  89.5215808 103.1120384 133.4295342  90.6125808 102.5900384
 133.7495342  90.6285808 105.0930384 132.1235342  90.1995808 104.6320384
 134.3295342  88.2745808 105.4760384 132.9105342  88.6665808 106.4160384
 131.4625342  87.6725808 104.6460384 133.5245342  85.9205808 105.4760384
  62.8425342  82.7345808  31.6050384  64.0025342  83.4435808  30.8780384
  63.5805342  83.9565808  29.4850384  62.9285342  82.8525808  28.6260384
  61.7785342  82.1485808  29.3720384  62.2365342  81.6045808  30.7420384
  61.1885342  80.9415808  31.4160384  63.1775342  82.3435808  32.5670384
  62.0715342  83.4765808  31.8240384  64.3715342  84.2715808  31.4840384
  64.8395342  82.7505808  30.7690384  62.8765342  84.7815808  29.6050384
  64.4455342  84.3715808  28.9650384  62.5625342  83.2755808  27.6910384
  63.6845342  82.1155808  28.3500384  60.9735342  82.8725808  29.5180384
  61.3625342  81.3465808  28.7600384  63.0285342  80.8775808  30.5540384
  60.4865342  81.5765808  31.5850384  52.2065342  35.0775808  99.2360384
  52.2455342  33.6765808  99.8770384  53.2985342  32.7665808  99.2080384
  53.1355342  32.7135808  97.6740384  53.0895342  34.1235808  97.0530384
  51.9995342  34.9985808  97.7070384  51.9425342  36.2825808  97.1240384
  51.4275342  35.6865808  99.6980384  53.1545342  35.5775808  99.4490384
  52.4515342  33.7605808 100.9450384  51.2615342  33.2115808  99.7940384
  54.2965342  33.1335808  99.4520384  53.2365342  31.7595808  99.6240384
  53.9505342  32.1385808  97.2340384  52.2185342  32.1785808  97.4260384
  54.0655342  34.5905808  97.1940384  52.9335342  34.0585808  95.9740384
  51.0405342  34.5065808  97.5340384  52.7845342  36.7215808  97.2730384
  63.4905342 132.8195808  78.3180384  62.7205342 133.8205808  77.4340384
  61.2605342 133.9965808  77.9000384  60.5265342 132.6465808  78.0450384
  61.3145342 131.6555808  78.9230384  62.7565342 131.4625808  78.4110384
  63.4725342 130.5385808  79.2020384  64.5055342 132.6815808  77.9420384
  63.5865342 133.2495808  79.3170384  63.2305342 134.7855808  77.4340384
  62.7305342 133.4735808  76.3990384  61.2495342 134.5155808  78.8590384
  60.7225342 134.6395808  77.2020384  59.5325342 132.8065808  78.4630384
  60.3715342 132.2105808  77.0570384  61.3385342 132.0475808  79.9420384
  60.7935342 130.6975808  78.9760384  62.6905342 131.0585808  77.3990384
  63.5345342 130.8885808  80.0950384  84.0685342  56.9235808  25.5340384
  83.6625342  58.0345808  26.5230384  84.5435342  59.2925808  26.3690384
  86.0505342  58.9635808  26.4310384  86.4345342  57.8455808  25.4420384
  85.5715342  56.5825808  25.6460384  85.9375342  55.5505808  24.7560384
  83.4595342  56.0315808  25.6920384  83.8495342  57.2715808  24.5220384
  82.6125342  58.2945808  26.3810384  83.7455342  57.6575808  27.5450384
  84.3195342  59.7725808  25.4150384  84.2895342  60.0195808  27.1410384
  86.6355342  59.8595808  26.2250384  86.3115342  58.6565808  27.4440384
  86.2935342  58.2235808  24.4280384  87.4955342  57.6045808  25.5350384
  85.7495342  56.2285808  26.6640384  85.7835342  55.8565808  23.8580384
 105.3145342  79.2195808  92.6860384 104.1615342  79.5385808  93.6580384
 104.6295342  79.5315808  95.1290384 105.3775342  78.2325808  95.4990384
 106.5195342  77.9255808  94.5110384 106.0175342  77.8935808  93.0520384
 107.0595342  77.5915808  92.1490384 104.9485342  79.1895808  91.6580384
 106.0365342  80.0385808  92.7320384 103.7225342  80.5065808  93.4120384
 103.3645342  78.8025808  93.5290384 105.2865342  80.3855808  95.3000384
 103.7745342  79.6705808  95.7910384 105.7715342  78.3065808  96.5130384
 104.6725342  77.3995808  95.5080384 107.2795342  78.7015808  94.6180384
 107.0045342  76.9835808  94.7720384 105.2715342  77.0995808  92.9830384
 107.7205342  78.2875808  92.2050384 108.1555342  75.4035808  99.7430384
 109.3455342  76.0395808  98.9970384 109.2115342  77.5735808  98.9000384
 107.8475342  78.0055808  98.3200384 106.6705342  77.3535808  99.0720384
 106.8055342  75.8165808  99.1160384 105.7165342  75.2175808  99.7860384
 108.2535342  74.3165808  99.7610384 108.1895342  75.7335808 100.7840384
 110.2805342  75.7785808  99.4950384 109.4105342  75.6175808  97.9920384
 109.3335342  78.0075808  99.8930384 110.0195342  77.9795808  98.2910384
 107.7555342  79.0915808  98.3550384 107.7995342  77.7315808  97.2650384
 106.6565342  77.7475808 100.0900384 105.7215342  77.6435808  98.6180384
 106.8025342  75.4605808  98.0840384 105.7135342  75.5265808 100.6960384
  55.8035342  96.9785808  83.0530384  54.5565342  97.8345808  82.7490384
  53.6985342  97.2205808  81.6230384  54.5275342  96.9095808  80.3590384
  55.7735342  96.0625808  80.6830384  56.6385342  96.7185808  81.7790384
  57.7915342  95.9545808  82.0620384  56.4145342  97.4555808  83.8220384
  55.4705342  96.0255808  83.4700384  53.9565342  97.9525808  83.6530384
  54.8685342  98.8395808  82.4590384  53.2355342  96.3015808  81.9850384
  52.8775342  97.8945808  81.3730384  53.9075342  96.3945808  79.6250384
  54.8375342  97.8445808  79.8900384  55.4385342  95.0805808  81.0220384
  56.3625342  95.8905808  79.7800384  56.9635342  97.6895808  81.3990384
  57.5115342  95.0975808  82.3970384  57.9055342 119.0915808 101.9770384
  58.8365342 118.0565808 101.3150384  58.1905342 117.4135808 100.0690384
  56.7865342 116.8445808 100.3660384  55.8725342 117.8895808 101.0360384
  56.5225342 118.4845808 102.3040384  55.6765342 119.4265808 102.9300384
  58.3675342 119.4995808 102.8770384  57.7805342 119.9295808 101.2870384
  59.7825342 118.5265808 101.0430384  59.0835342 117.2755808 102.0370384
  58.1155342 118.1615808  99.2780384  58.8365342 116.6255808  99.6800384
  56.3275342 116.4855808  99.4440384  56.8795342 115.9745808 101.0170384
  55.6825342 118.6875808 100.3160384  54.9015342 117.4505808 101.2720384
  56.6845342 117.6615808 103.0020384  55.5295342 120.1545808 102.3190384
 127.4955342  45.9455808  61.4870384 127.2035342  46.6345808  60.1390384
 128.4755342  47.2495808  59.5180384 129.2215342  48.1715808  60.5060384
 129.4965342  47.4695808  61.8510384 128.2025342  46.9025808  62.4730384
 128.4515342  46.2785808  63.7140384 126.5745342  45.5565808  61.9240384
 128.1365342  45.0815808  61.2970384 126.7585342  45.9195808  59.4440384
 126.4575342  47.4175808  60.2860384 129.1435342  46.4475808  59.2010384
 128.2175342  47.8035808  58.6150384 130.1585342  48.5095808  60.0640384
 128.6275342  49.0695808  60.6820384 130.2025342  46.6555808  61.6720384
 129.9875342  48.1555808  62.5440384 127.5305342  47.7445808  62.6470384
 129.0435342  45.5355808  63.5670384  80.4715342  97.1875808  18.3030384
  80.3275342  95.6585808  18.4370384  79.3845342  95.2685808  19.5940384
  79.7775342  95.9465808  20.9230384  79.9255342  97.4725808  20.7680384
  80.9085342  97.8365808  19.6350384  81.0605342  99.2345808  19.5060384
  81.1745342  97.4365808  17.5060384  79.5045342  97.5965808  17.9990384
  79.9625342  95.2355808  17.4990384  81.3105342  95.2155808  18.6060384
  78.3625342  95.5505808  19.3350384  79.3765342  94.1845808  19.7170384
  79.0365342  95.7205808  21.6900384  80.7195342  95.5255808  21.2790384
  78.9415342  97.8895808  20.5460384  80.2435342  97.9215808  21.7110384
  81.8795342  97.4155808  19.8990384  80.2085342  99.6125808  19.2740384
 126.8365342  45.4845808  96.6530384 125.3735342  45.9725808  96.6770384
 124.8055342  46.0155808  98.1110384 124.9975342  44.6775808  98.8570384
 126.4625342  44.2015808  98.8140384 126.9935342  44.1235808  97.3670384
 128.3295342  43.6675808  97.3260384 127.2005342  45.4235808  95.6260384
 127.4545342  46.2325808  97.1550384 125.3025342  46.9595808  96.2190384
 124.7605342  45.3085808  96.0650384 125.2985342  46.8125808  98.6690384
 123.7465342  46.2765808  98.0830384 124.6685342  44.7785808  99.8920384
 124.3565342  43.9175808  98.4080384 127.0675342  44.9075808  99.3870384
 126.5635342  43.2355808  99.3130384 126.3745342  43.4015808  96.8320384
 128.8805342  44.2995808  97.7960384  78.4815342  50.1865808 130.1420384
  77.8675342  51.5995808 130.0900384  76.8715342  51.7525808 128.9220384
  77.4825342  51.3215808 127.5710384  78.0995342  49.9105808 127.6440384
  79.1245342  49.7965808 128.7920384  79.7055342  48.5105808 128.8460384
  79.2125342  50.1165808 130.9490384  77.6865342  49.4765808 130.3840384
  77.3705342  51.8245808 131.0350384  78.6655342  52.3375808 129.9840384
  75.9855342  51.1495808 129.1240384  76.5265342  52.7855808 128.8610384
  76.7215342  51.3555808 126.7910384  78.2505342  52.0375808 127.2770384
  77.2915342  49.1935808 127.8040384  78.5585342  49.6465808 126.6900384
  79.9195342  50.5165808 128.5900384  79.0105342  47.8715808 129.0230384
 109.7865342  45.7595808  37.9740384 111.0205342  46.3025808  38.7210384
 110.6785342  47.5445808  39.5710384 109.9545342  48.6335808  38.7500384
 108.7305342  48.0705808  38.0030384 109.1065342  46.8575808  37.1250384
 107.9895342  46.3555808  36.4240384 110.0635342  44.9085808  37.3480384
 109.0775342  45.3805808  38.7130384 111.4445342  45.5225808  39.3560384
 111.7975342  46.5605808  37.9990384 110.0445342  47.2445808  40.4070384
 111.5875342  47.9535808  40.0130384 109.6495342  49.4505808  39.4040384
 110.6515342  49.0665808  38.0310384 107.9875342  47.7685808  38.7430384
 108.2615342  48.8505808  37.3990384 109.8385342  47.2015808  36.3920384
 107.3415342  46.0505808  37.0650384  36.8255342  48.5615808  61.2540384
  36.6185342  48.7075808  62.7740384  36.0205342  47.4285808  63.3990384
  34.7435342  46.9625808  62.6670384  34.9675342  46.8315808  61.1480384
  35.5225342  48.1365808  60.5400384  35.7075342  48.0245808  59.1450384
  37.2095342  49.4915808  60.8300384  37.5955342  47.8055808  61.0850384
  37.5655342  48.9505808  63.2580384  35.9535342  49.5505808  62.9700384
  36.7645342  46.6315808  63.3670384  35.8035342  47.5975808  64.4550384
  34.4075342  46.0095808  63.0780384  33.9385342  47.6745808  62.8550384
  35.6765342  46.0185808  60.9770384  34.0405342  46.5395808  60.6510384
  34.7835342  48.9185808  60.7200384  36.3585342  47.3365808  58.9800384
  53.4985342  31.5385808  56.0630384  53.8595342  32.8525808  56.7850384
  53.4805342  34.0925808  55.9490384  54.0495342  34.0275808  54.5160384
  53.6875342  32.7045808  53.8130384  54.1175342  31.4805808  54.6480384
  53.8055342  30.2675808  53.9950384  53.8145342  30.6785808  56.6550384
  52.4105342  31.4775808  55.9870384  53.3625342  32.8915808  57.7560384
  54.9305342  32.8695808  56.9930384  52.3935342  34.1735808  55.9000384
  53.8295342  34.9975808  56.4470384  53.6835342  34.8725808  53.9310384
  55.1355342  34.1325808  54.5530384  52.6065342  32.6825808  53.6630384
  54.1355342  32.6675808  52.8180384  55.2015342  31.5305808  54.7640384
  52.8515342  30.2175808  53.8890384 117.8895342  78.7195808 111.3790384
 119.1515342  78.6045808 112.2580384 120.4185342  78.3495808 111.4150384
 120.2515342  77.1505808 110.4570384 118.9805342  77.2785808 109.5940384
 117.7225342  77.4875808 110.4610384 116.5555342  77.5835808 109.6730384
 117.0035342  78.8575808 112.0010384 117.9805342  79.6195808 110.7670384
 119.2755342  79.5115808 112.8520384 119.0225342  77.7905808 112.9730384
 120.6505342  79.2435808 110.8350384 121.2735342  78.1845808 112.0720384
 121.1295342  77.0615808 109.8160384 120.2045342  76.2275808 111.0360384
 119.1085342  78.1305808 108.9240384 118.8655342  76.4005808 108.9550384
 117.6225342  76.6125808 111.1060384 116.6365342  78.3525808 109.1020384
  51.3425342  25.6445808  72.3220384  50.1985342  25.1345808  73.2220384
  49.6235342  26.2545808  74.1140384  50.7225342  26.9895808  74.9110384
  51.8605342  27.4845808  73.9970384  52.4495342  26.3375808  73.1490384
  53.5065342  26.7855808  72.3270384  51.7585342  24.8255808  71.7340384
  50.9225342  26.3565808  71.6080384  49.4055342  24.7035808  72.6080384
  50.5675342  24.3235808  73.8530384  49.0915342  26.9735808  73.4890384
  48.8815342  25.8405808  74.7980384  50.2885342  27.8295808  75.4540384
  51.1305342  26.3185808  75.6670384  51.4585342  28.2555808  73.3380384
  52.6425342  27.9645808  74.5890384  52.8515342  25.5945808  73.8400384
  53.1585342  27.4395808  71.7150384 102.2315342 128.5865808  65.3010384
 103.2395342 129.6955808  65.6610384 103.9815342 130.2245808  64.4160384
 104.6195342 129.0885808  63.5870384 103.5995342 127.9845808  63.2450384
 102.9035342 127.4405808  64.5110384 101.9845342 126.4155808  64.2000384
 101.7515342 128.2005808  66.2020384 101.4375342 129.0285808  64.6950384
 102.7275342 130.5155808  66.1660384 103.9665342 129.3065808  66.3770384
 103.2815342 130.7775808  63.7880384 104.7475342 130.9405808  64.7160384
 105.0515342 129.4935808  62.6720384 105.4485342 128.6545808  64.1470384
 102.8515342 128.4085808  62.5720384 104.0845342 127.1765808  62.6950384
 103.6795342 127.0155808  65.1510384 101.2985342 126.7835808  63.6370384
  92.6845342  58.2045808  44.0530384  91.6775342  58.1425808  45.2190384
  90.4625342  59.0645808  44.9810384  90.8835342  60.5085808  44.6360384
  91.8955342  60.5505808  43.4750384  93.1225342  59.6565808  43.7570384
  94.0605342  59.7115808  42.7030384  93.5525342  57.5775808  44.2650384
  92.2065342  57.7805808  43.1670384  91.3425342  57.1145808  45.3680384
  92.1775342  58.4345808  46.1450384  89.8605342  58.6605808  44.1660384
  89.8185342  59.0645808  45.8620384  90.0035342  61.1015808  44.3850384
  91.3225342  60.9775808  45.5170384  91.3925342  60.2035808  42.5710384
  92.2065342  61.5785808  43.2780384  93.6045342  60.0415808  44.6570384
  93.6415342  59.3735808  41.9070384 114.9525342 119.9535808  66.1180384
 113.8025342 119.2475808  65.3730384 114.0955342 117.7495808  65.1480384
 115.4675342 117.5155808  64.4800384 116.6035342 118.2365808  65.2330384
 116.3065342 119.7415808  65.4060384 117.3565342 120.4055808  66.0760384
 114.7395342 121.0185808  66.2270384 115.0055342 119.5445808  67.1300384
 112.8705342 119.3655808  65.9290384 113.6425342 119.7335808  64.4080384
 114.0705342 117.2305808  66.1070384 113.3055342 117.3035808  64.5420384
 115.6765342 116.4475808  64.4240384 115.4335342 117.8725808  63.4500384
 116.7105342 117.7715808  66.2150384 117.5545342 118.0885808  64.7180384
 116.2195342 120.1715808  64.4060384 117.4375342 120.0305808  66.9580384
 128.1545342  46.1065808  89.4430384 127.4725342  45.8585808  88.0820384
 126.7815342  44.4805808  88.0280384 127.7305342  43.3325808  88.4330384
 128.4105342  43.6015808  89.7900384 129.1325342  44.9655808  89.8040384
 129.7735342  45.2035808  91.0400384 128.6715342  47.0675808  89.4410384
 127.3775342  46.1755808  90.2070384 126.7465342  46.6475808  87.8800384
 128.2175342  45.9215808  87.2860384 125.9175342  44.4845808  88.6950384
 126.3885342  44.3015808  87.0260384 127.1815342  42.3915808  88.4720384
 128.4945342  43.2065808  87.6640384 127.6415342  43.5885808  90.5650384
 129.1055342  42.7965808  90.0330384 129.8985342  44.9355808  89.0280384
 129.1035342  45.2315808  91.7280384  47.7725342  63.1895808  40.7520384
  46.8145342  64.3595808  40.4520384  47.5095342  65.4815808  39.6520384
  48.8235342  65.9455808  40.3160384  49.7635342  64.7625808  40.6170384
  49.0595342  63.6745808  41.4560384  49.9275342  62.6005808  41.7500384
  47.2705342  62.4295808  41.3530384  48.0345342  62.7105808  39.8060384
  45.9435342  63.9965808  39.9040384  46.4345342  64.7665808  41.3900384
  47.7225342  65.1245808  38.6440384  46.8315342  66.3285808  39.5360384
  49.3285342  66.6695808  39.6750384  48.5935342  66.4705808  41.2440384
  50.0905342  64.3355808  39.6670384  50.6655342  65.1125808  41.1220384
  48.7615342  64.1345808  42.3990384  50.1945342  62.1905808  40.9220384
 113.5135342  60.5635808  56.5110384 114.2255342  59.2315808  56.8190384
 113.6725342  58.0725808  55.9630384 112.1365342  57.9585808  56.0540384
 111.4425342  59.3015808  55.7530384 111.9795342  60.4345808  56.6520384
 111.3295342  61.6605808  56.3920384 113.8925342  61.3565808  57.1580384
 113.7605342  60.8555808  55.4880384 115.2995342  59.3365808  56.6550384
 114.1025342  58.9905808  57.8760384 113.9605342  58.2255808  54.9220384
 114.1345342  57.1325808  56.2690384 111.7785342  57.1915808  55.3660384
 111.8575342  57.6225808  57.0540384 111.6215342  59.5515808  54.7060384
 110.3605342  59.2035808  55.8640384 111.7705342  60.1555808  57.6870384
 111.5095342  61.9115808  55.4820384 113.4005342  46.0155808 108.2670384
 114.5005342  44.9995808 107.9010384 115.2785342  44.5195808 109.1440384
 115.8135342  45.6955808 109.9890384 114.7025342  46.7045808 110.3370384
 113.9695342  47.2035808 109.0740384 112.9665342  48.1445808 109.3900384
 112.8945342  46.3705808 107.3670384 112.6445342  45.5005808 108.8630384
 114.0605342  44.1445808 107.3840384 115.1955342  45.4565808 107.1930384
 114.6235342  43.9025808 109.7610384 116.1035342  43.8735808 108.8400384
 116.2735342  45.3175808 110.9020384 116.6065342  46.2045808 109.4390384
 113.9895342  46.2125808 111.0010384 115.1155342  47.5445808 110.8990384
 114.7105342  47.6995808 108.4440384 112.3105342  47.7135808 109.9450384
  82.9185342 122.7005808  87.1240384  84.1025342 123.3195808  86.3550384
  83.8825342 124.8195808  86.0690384  82.5235342 125.0925808  85.3880384
  81.3535342 124.4585808  86.1660384  81.5765342 122.9495808  86.4000384
  80.4955342 122.3645808  87.0930384  83.0795342 121.6315808  87.2770384
  82.8835342 123.1525808  88.1180384  85.0265342 123.1795808  86.9170384
  84.2395342 122.7875808  85.4110384  83.9315342 125.3745808  87.0060384
  84.6935342 125.2025808  85.4470384  82.3665342 126.1665808  85.2880384
  82.5415342 124.6935808  84.3720384  81.2685342 124.9675808  87.1270384
  80.4115342 124.6315808  85.6420384  81.6445342 122.4755808  85.4190384
  80.4315342 122.7775808  87.9580384  26.2975342  45.9505808  61.5770384
  25.1725342  45.9825808  62.6300384  24.8135342  44.5685808  63.1330384
  24.5135342  43.5945808  61.9740384  25.6435342  43.5825808  60.9260384
  25.9535342  45.0015808  60.4060384  26.9735342  44.9885808  59.4310384
  26.5035342  46.9565808  61.2070384  27.2135342  45.6075808  62.0640384
  25.4675342  46.6135808  63.4710384  24.2855342  46.4495808  62.1990384
  25.6415342  44.1775808  63.7260384  23.9575342  44.6205808  63.8070384
  24.3565342  42.5885808  62.3650384  23.5775342  43.8815808  61.4930384
  26.5365342  43.1625808  61.3930384  25.3885342  42.9165808  60.0990384
  25.0435342  45.3815808  59.9370384  27.7785342  44.6555808  59.8380384
  36.6505342  94.3415808 122.7700384  35.7015342  93.6375808 121.7800384
  36.4705342  92.7685808 120.7640384  37.5925342  93.5535808 120.0530384
  38.5265342  94.2575808 121.0570384  37.7385342  95.1555808 122.0340384
  38.5945342  95.8175808 122.9400384  36.0865342  94.9815808 123.4500384
  37.1265342  93.5775808 123.3890384  34.9815342  93.0245808 122.3260384
  35.1155342  94.3875808 121.2450384  36.9035342  91.9105808 121.2800384
  35.7785342  92.3595808 120.0260384  38.1695342  92.8835808 119.4150384
  37.1495342  94.2965808 119.3880384  39.0625342  93.4905808 121.6190384
  39.2855342  94.8375808 120.5290384  37.2285342  95.9145808 121.4370384
  39.0465342  95.1545808 123.4690384  58.9645342 122.0425808  69.3840384
  60.4365342 121.6295808  69.1860384  61.4095342 122.7625808  69.5760384
  61.0665342 124.0945808  68.8750384  59.5895342 124.4855808  69.0760384
  58.6365342 123.3545808  68.6370384  57.2825342 123.7205808  68.8000384
  58.2975342 121.2405808  69.0620384  58.7885342 122.1785808  70.4530384
  60.6545342 120.7345808  69.7710384  60.5995342 121.3565808  68.1420384
  61.3775342 122.9065808  70.6570384  62.4335342 122.4705808  69.3390384
  61.7165342 124.8875808  69.2460384  61.2765342 124.0065808  67.8080384
  59.4355342 124.7025808  70.1340384  59.3645342 125.4085808  68.5380384
  58.8115342 123.1765808  67.5740384  57.1225342 123.8785808  69.7350384
  25.0455342  86.2285808  48.2740384  23.8775342  85.2235808  48.2380384
  22.6465342  85.7435808  49.0090384  23.0005342  86.1925808  50.4430384
  24.1755342  87.1885808  50.4600384  25.4095342  86.6265808  49.7220384
  26.4935342  87.5305808  49.7550384  25.9165342  85.8195808  47.7590384
  24.7475342  87.1185808  47.7160384  23.6045342  85.0055808  47.2050384
  24.2015342  84.2755808  48.6720384  22.2125342  86.5845808  48.4670384
  21.8745342  84.9735808  49.0400384  22.1265342  86.6375808  50.9200384
  23.2585342  85.3175808  51.0420384  23.8485342  88.1095808  49.9740384
  24.4315342  87.4585808  51.4860384  25.7125342  85.7175808  50.2430384
  26.2315342  88.3345808  49.2970384  96.0835342  18.1275808  83.5980384
  96.4745342  16.6985808  84.0260384  97.1235342  16.6745808  85.4260384
  98.2955342  17.6715808  85.5440384  97.8895342  19.0915808  85.1040384
  97.2845342  19.0955808  83.6840384  96.9315342  20.3985808  83.2710384
  95.6655342  18.1225808  82.5900384  95.2875342  18.4765808  84.2600384
  95.5965342  16.0515808  84.0120384  97.1715342  16.2795808  83.2970384
  96.3695342  16.9165808  86.1760384  97.4685342  15.6655808  85.6580384
  98.6655342  17.6915808  86.5700384  99.1285342  17.3265808  84.9300384
  97.1525342  19.4715808  85.8140384  98.7455342  19.7665808  85.1590384
  98.0515342  18.7225808  83.0030384  96.2555342  20.7325808  83.8670384
  48.3355342  92.2445808 114.8620384  49.7415342  92.1105808 114.2440384
  50.0525342  93.2625808 113.2650384  48.9485342  93.4385808 112.2000384
  47.5505342  93.5615808 112.8360384  47.2455342  92.3755808 113.7750384
  45.9565342  92.4765808 114.3410384  48.1245342  91.3975808 115.5170384
  48.3255342  93.1345808 115.4960384  50.4945342  92.0785808 115.0330384
  49.8155342  91.1575808 113.7160384  50.1605342  94.1915808 113.8260384
  51.0135342  93.0885808 112.7790384  49.1585342  94.3165808 111.5880384
  48.9635342  92.5865808 111.5190384  47.5145342  94.4935808 113.4030384
  46.7865342  93.6445808 112.0610384  47.2785342  91.4665808 113.1710384
  45.9225342  93.2755808 114.8750384  70.4635342  41.3225808  47.2910384
  69.3765342  41.9845808  48.1610384  69.5615342  41.6615808  49.6590384
  69.6885342  40.1445808  49.9190384  70.7725342  39.4985808  49.0340384
  70.5395342  39.7985808  47.5380384  71.5195342  39.1895808  46.7260384
  70.2855342  41.5305808  46.2350384  71.4245342  41.7795808  47.5380384
  69.3845342  43.0645808  48.0100384  68.3925342  41.6405808  47.8360384
  70.4565342  42.1645808  50.0270384  68.7275342  42.0685808  50.2330384
  69.9105342  39.9655808  50.9710384  68.7285342  39.6635808  49.7260384
  71.7425342  39.8965808  49.3390384  70.8135342  38.4225808  49.2090384
  69.5695342  39.3765808  47.2700384  72.3775342  39.5575808  46.9580384
  50.0015342 102.8585808  62.9220384  50.3505342 101.3705808  63.1230384
  49.1965342 100.5945808  63.7930384  48.7125342 101.2715808  65.0920384
  48.3775342 102.7595808  64.8740384  49.5615342 103.5235808  64.2450384
  49.2635342 104.8915808  64.0650384  50.8475342 103.3935808  62.4860384
  49.1885342 102.9235808  62.1950384  50.5995342 100.9135808  62.1650384
  51.2475342 101.2885808  63.7400384  48.3625342 100.5185808  63.0940384
  49.5105342  99.5705808  64.0010384  47.8405342 100.7465808  65.4830384
  49.4855342 101.1825808  65.8570384  47.5115342 102.8205808  64.2120384
  48.0765342 103.2235808  65.8150384  50.4005342 103.4515808  64.9400384
  48.5245342 104.9625808  63.4530384  51.7955342 113.4625808  91.0810384
  52.5185342 112.1205808  91.3130384  52.6685342 111.7995808  92.8150384
  53.3095342 112.9635808  93.6010384  52.5795342 114.2975808  93.3490384
  52.4825342 114.6175808  91.8430384  51.8325342 115.8495808  91.6130384
  51.7395342 113.6855808  90.0140384  50.7645342 113.3595808  91.4290384
  51.9795342 111.3145808  90.8120384  53.5065342 112.1565808  90.8510384
  51.6855342 111.5805808  93.2350384  53.2605342 110.8925808  92.9440384
  53.3115342 112.7355808  94.6670384  54.3555342 113.0625808  93.3100384
  51.5755342 114.2215808  93.7710384  53.0765342 115.1085808  93.8840384
  53.5015342 114.6975808  91.4620384  50.9335342 115.7855808  91.9460384
  51.5955342  85.7115808  29.5940384  52.1435342  86.9325808  30.3600384
  51.6085342  88.2605808  29.7840384  51.8285342  88.3675808  28.2600384
  51.2835342  87.1345808  27.5120384  51.8675342  85.8225808  28.0770384
  51.3845342  84.6945808  27.3790384  52.0205342  84.7885808  29.9940384
  50.5185342  85.6545808  29.7670384  51.8865342  86.8555808  31.4180384
  53.2335342  86.9305808  30.3120384  50.5425342  88.3425808  29.9990384
  52.0845342  89.1025808  30.2880384  51.3565342  89.2735808  27.8780384
  52.8955342  88.4725808  28.0550384  50.1975342  87.1255808  27.6170384
  51.4875342  87.2175808  26.4430384  52.9495342  85.8645808  27.9430384
  50.4315342  84.6515808  27.4940384 105.5775342 116.5985808 111.2130384
 105.6895342 116.6995808 112.7470384 104.3345342 117.0415808 113.4020384
 103.6785342 118.2895808 112.7720384 103.5845342 118.1755808 111.2380384
 104.9585342 117.8765808 110.6030384 104.8765342 117.7935808 109.1960384
 106.5555342 116.3975808 110.7710384 104.9475342 115.7395808 110.9720384
 106.0735342 115.7625808 113.1550384 106.4215342 117.4665808 113.0080384
 103.6605342 116.1905808 113.2990384 104.4685342 117.1935808 114.4740384
 102.6865342 118.4425808 113.1960384 104.2595342 119.1745808 113.0340384
 102.8895342 117.3675808 110.9980384 103.1545342 119.0855808 110.8150384
 105.6195342 118.7095808 110.8530384 104.2955342 117.0615808 108.9690384
  90.4795342  43.7415808  38.6790384  91.9965342  43.5075808  38.8160384
  92.3125342  42.2665808  39.6770384  91.5925342  42.3025808  41.0420384
  90.0795342  42.5465808  40.8860384  89.7895342  43.8175808  40.0600384
  88.4025342  44.0535808  39.9360384  90.2835342  44.6475808  38.1030384
  90.0555342  42.9135808  38.1070384  92.4475342  43.4005808  37.8280384
  92.4605342  44.3875808  39.2660384  92.0125342  41.3685808  39.1350384
  93.3905342  42.1835808  39.8270384  91.7665342  41.3695808  41.5780384
  92.0255342  43.0915808  41.6580384  89.6435342  41.6795808  40.3860384
  89.6015342  42.6075808  41.8660384  90.2275342  44.6605808  40.5970384
  88.0115342  43.3135808  39.4630384  49.9655342 112.1235808  40.6180384
  50.5135342 110.9035808  39.8500384  51.0805342 109.8305808  40.8030384
  52.1055342 110.4155808  41.7990384  51.5435342 111.6385808  42.5500384
  51.0245342 112.7155808  41.5740384  50.5295342 113.8455808  42.2610384
  49.6095342 112.8845808  39.9210384  49.0955342 111.8015808  41.1940384
  49.7285342 110.4715808  39.2270384  51.2985342 111.2295808  39.1650384
  50.2605342 109.3745808  41.3580384  51.5395342 109.0265808  40.2260384
  52.4105342 109.6485808  42.5110384  53.0085342 110.7045808  41.2600384
  50.7255342 111.2995808  43.1880384  52.3005342 112.0555808  43.2160384
  51.8705342 113.0365808  40.9640384  49.7835342 113.5695808  42.8000384
  87.3365342 134.1145808  59.5530384  86.7505342 133.1145808  58.5360384
  86.7185342 131.6765808  59.0940384  88.0915342 131.2305808  59.6420384
  88.6645342 132.2465808  60.6500384  88.7285342 133.6675808  60.0530384
  89.2735342 134.5935808  60.9680384  87.3875342 135.1145808  59.1190384
  86.6505342 134.1805808  60.4010384  85.7455342 133.4245808  58.2450384
  87.3495342 133.1345808  57.6230384  85.9775342 131.6175808  59.8920384
  86.3845342 130.9845808  58.3200384  88.0045342 130.2495808  60.1100384
  88.7895342 131.1095808  58.8130384  88.0225342 132.2505808  61.5330384
  89.6515342 131.9275808  60.9910384  89.3875342 133.6255808  59.1840384
  88.6975342 134.6355808  61.7360384  85.0335342 132.9755808 100.6440384
  84.0895342 134.1925808 100.5880384  82.9595342 133.9975808  99.5550384
  83.5005342 133.6025808  98.1650384  84.4495342 132.3905808  98.2410384
  85.5955342 132.6275808  99.2470384  86.4775342 131.5265808  99.3010384
  85.8465342 133.1555808 101.3500384  84.4705342 132.1235808 101.0320384
  83.6625342 134.3785808 101.5760384  84.6625342 135.0855808 100.3330384
  82.2785342 133.2225808  99.9090384  82.3655342 134.9095808  99.4780384
  82.6715342 133.3845808  97.4910384  84.0295342 134.4505808  97.7280384
  83.8675342 131.5205808  98.5500384  84.8485342 132.1575808  97.2520384
  86.1605342 133.4945808  98.8980384  85.9865342 130.7595808  99.6080384
  91.4805342  37.3095808 120.2280384  91.2095342  37.6265808 121.7120384
  90.1485342  36.6835808 122.3180384  88.8565342  36.6385808 121.4750384
  89.1475342  36.3295808 119.9930384  90.1775342  37.3135808 119.3980384
  90.4285342  37.0445808 118.0350384  92.2015342  38.0155808 119.8120384
  91.9455342  36.3225808 120.1680384  92.1375342  37.5595808 122.2830384
  90.8705342  38.6605808 121.8060384  90.5635342  35.6775808 122.3930384
  89.9165342  36.9925808 123.3380384  88.1715342  35.8945808 121.8830384
  88.3415342  37.5975808 121.5500384  89.5355342  35.3115808 119.9270384
  88.2235342  36.3435808 119.4130384  89.7485342  38.3155808 119.4700384
  90.8055342  36.1635808 117.9650384  84.0015342 109.6195808 117.8310384
  84.9675342 108.6995808 118.6040384  86.3085342 109.3985808 118.9090384
  86.9525342 110.0065808 117.6450384  85.9705342 110.9155808 116.8810384
  84.6555342 110.1795808 116.5480384  83.7635342 111.0055808 115.8290384
  83.0785342 109.0885808 117.5910384  83.7205342 110.4465808 118.4860384
  84.5015342 108.3655808 119.5330384  85.1545342 107.7965808 118.0190384
  86.1425342 110.1885808 119.6430384  86.9975342 108.6925808 119.3750384
  87.8465342 110.5685808 117.9160384  87.2885342 109.2025808 116.9880384
  85.7535342 111.7845808 117.5050384  86.4365342 111.2995808 115.9710384
  84.9105342 109.3285808 115.9140384  83.5345342 111.7575808 116.3820384
  43.9695342 120.4325808  66.6710384  43.5135342 119.2805808  67.5890384
  41.9765342 119.1435808  67.6200384  41.2765342 120.4785808  67.9510384
  41.7515342 121.6195808  67.0300384  43.2875342 121.7665808  67.0510384
  43.7215342 122.8245808  66.2240384  45.0555342 120.5355808  66.6990384
  43.7105342 120.1725808  65.6420384  43.9645342 118.3425808  67.2610384
  43.8815342 119.4565808  68.6010384  41.6285342 118.7855808  66.6500384
  41.6865342 118.3815808  68.3460384  40.1955342 120.3615808  67.8720384
  41.4775342 120.7445808  68.9900384  41.4195342 121.3985808  66.0140384
  41.2725342 122.5595808  67.3110384  43.5785342 121.9995808  68.0770384
  43.4685342 122.6255808  65.3180384  62.4695342  44.1385808 107.2450384
  60.9705342  44.3605808 107.5280384  60.5805342  45.8505808 107.4300384
  61.4885342  46.7505808 108.2960384  62.9825342  46.5075808 108.0060384
  63.3565342  45.0185808 108.1540384  64.7295342  44.7985808 107.9100384
  62.7275342  43.0845808 107.3620384  62.6605342  44.3885808 106.1990384
  60.3685342  43.7715808 106.8340384  60.7315342  43.9895808 108.5270384
  60.6445342  46.1705808 106.3900384  59.5385342  45.9815808 107.7240384
  61.2415342  47.7995808 108.1270384  61.2885342  46.5585808 109.3510384
  63.1895342  46.8355808 106.9850384  63.6015342  47.1265808 108.6580384
  63.1485342  44.7325808 109.1870384  64.9195342  45.0485808 107.0010384
  72.3985342  28.3925808  78.5660384  71.5185342  27.1265808  78.5300384
  71.6945342  26.3405808  77.2150384  71.5025342  27.2325808  75.9690384
  72.3825342  28.4955808  76.0270384  72.1555342  29.2885808  77.3310384
  72.9465342  30.4575808  77.3750384  72.2255342  28.9515808  79.4870384
  73.4455342  28.0795808  78.5880384  71.7525342  26.4855808  79.3820384
  70.4705342  27.4115808  78.6450384  72.6915342  25.8995808  77.1900384
  70.9935342  25.5045808  77.1850384  71.7255342  26.6635808  75.0660384
  70.4545342  27.5245808  75.8920384  73.4275342  28.1865808  75.9660384
  72.1985342  29.1275808  75.1560384  71.1075342  29.5905808  77.3500384
  73.8715342  30.1985808  77.3590384 107.6725342  82.9625808 125.1670384
 106.9815342  84.2805808 125.5690384 105.8415342  84.6525808 124.5990384
 106.3015342  84.6495808 123.1250384 106.9985342  83.3285808 122.7440384
 108.1635342  83.0015808 123.7020384 108.8155342  81.8025808 123.3400384
 108.5015342  82.7445808 125.8430384 106.9535342  82.1485808 125.2870384
 106.5945342  84.2025808 126.5860384 107.7185342  85.0855808 125.5860384
 105.0215342  83.9425808 124.7200384 105.4355342  85.6305808 124.8600384
 105.4495342  84.8245808 122.4690384 106.9875342  85.4815808 122.9590384
 106.2575342  82.5285808 122.7850384 107.3495342  83.3685808 121.7110384
 108.8865342  83.8155808 123.6230384 108.1835342  81.0825808 123.4080384
  41.2775342  43.4845808  99.5720384  41.4485342  42.3465808 100.5980384
  41.2515342  42.8435808 102.0460384  42.1305342  44.0705808 102.3680384
  41.9525342  45.1935808 101.3270384  42.1995342  44.6825808  99.8920384
  42.0585342  45.7145808  98.9390384  41.4625342  43.1165808  98.5610384
  40.2355342  43.8115808  99.5950384  40.7455342  41.5405808 100.3820384
  42.4455342  41.9135808 100.4970384  40.2025342  43.1025808 102.1970384
  41.4675342  42.0365808 102.7480384  41.8935342  44.4455808 103.3640384
  43.1775342  43.7675808 102.3990384  40.9335342  45.5755808 101.4080384
  42.6135342  46.0315808 101.5560384  43.2285342  44.3215808  99.8470384
  41.1535342  46.0365808  98.9730384  24.0645342  91.9055808  50.9210384
  24.0305342  91.1715808  49.5660384  23.8745342  92.1505808  48.3840384
  22.6775342  93.1065808  48.5700384  22.7215342  93.8245808  49.9330384
  22.8325342  92.8225808  51.1010384  22.8525342  93.4785808  52.3510384
  24.1325342  91.1895808  51.7420384  24.9745342  92.5085808  50.9610384
  24.9385342  90.5785808  49.4410384  23.2025342  90.4605808  49.5590384
  24.7895342  92.7365808  48.2800384  23.7645342  91.5935808  47.4520384
  22.6575342  93.8395808  47.7630384  21.7475342  92.5415808  48.4890384
  23.5875342  94.4895808  49.9400384  21.8445342  94.4625808  50.0560384
  21.9465342  92.1855808  51.0690384  23.6315342  94.0395808  52.3860384
  63.9675342 102.8605808  34.0930384  64.0665342 102.9215808  35.6300384
  64.8445342 101.7195808  36.2050384  64.2935342 100.3695808  35.6990384
  64.1925342 100.3305808  34.1620384  63.3725342 101.5175808  33.6150384
  63.2615342 101.4705808  32.2080384  63.3775342 103.6975808  33.7150384
  64.9725342 102.9805808  33.6810384  64.5435342 103.8545808  35.9370384
  63.0625342 102.9405808  36.0580384  65.8955342 101.8055808  35.9260384
  64.8175342 101.7465808  37.2960384  64.9245342  99.5535808  36.0520384
  63.3065342 100.1965808  36.1310384  65.2035342 100.3665808  33.7530384
  63.7625342  99.3815808  33.8330384  62.3675342 101.4385808  34.0340384
  64.1435342 101.5395808  31.8320384  37.0715342  50.4285808  99.6760384
  38.5605342  50.6285808 100.0190384  39.1615342  51.8465808  99.2860384
  38.9035342  51.7995808  97.7650384  37.4115342  51.5895808  97.4410384
  36.8455342  50.3405808  98.1500384  35.4845342  50.1355808  97.8370384
  36.6815342  49.5375808 100.1730384  36.5105342  51.2755808 100.0780384
  38.6825342  50.7455808 101.0970384  39.1195342  49.7315808  99.7470384
  38.7295342  52.7605808  99.6960384  40.2335342  51.9045808  99.4800384
  39.2605342  52.7185808  97.2990384  39.4875342  50.9905808  97.3240384
  36.8635342  52.4745808  97.7700384  37.2635342  51.5195808  96.3620384
  37.4085342  49.4785808  97.7870384  34.9835342  50.8915808  98.1540384
 115.6805342 109.7935808  51.2150384 114.1595342 109.5425808  51.2410384
 113.4775342 110.2595808  52.4250384 114.1555342 109.9365808  53.7740384
 115.6755342 110.1835808  53.7260384 116.3405342 109.4205808  52.5610384
 117.7365342 109.6295808  52.5300384 116.1435342 109.2425808  50.3950384
 115.8485342 110.8525808  51.0090384 113.7115342 109.8695808  50.3010384
 113.9695342 108.4695808  51.3100384 113.5075342 111.3375808  52.2580384
 112.4215342 109.9885808  52.4650384 113.7055342 110.5315808  54.5690384
 113.9655342 108.8935808  54.0330384 115.8435342 111.2545808  53.6030384
 116.1355342 109.9085808  54.6780384 116.1635342 108.3555808  52.7270384
 117.8995342 110.5655808  52.3850384  52.8075342 102.3185808  23.4200384
  52.9455342 103.8345808  23.6660384  53.5625342 104.1405808  25.0470384
  52.8205342 103.4185808  26.1920384  52.6835342 101.9065808  25.9240384
  52.0235342 101.6275808  24.5580384  51.8785342 100.2435808  24.3220384
  52.3305342 102.1305808  22.4560384  53.8105342 101.8905808  23.3570384
  53.5515342 104.2865808  22.8790384  51.9625342 104.3045808  23.5970384
  54.6095342 103.8335808  25.0480384  53.5625342 105.2165808  25.2230384
  53.3415342 103.5845808  27.1350384  51.8285342 103.8555808  26.3120384
  53.6825342 101.4655808  25.9440384  52.1215342 101.4275808  26.7280384
  51.0265342 102.0715808  24.5820384  52.7535342  99.8465808  24.2990384
  98.8205342  69.4165808 114.3340384  99.1935342  68.6035808 113.0780384
 100.6725342  68.7985808 112.6850384 101.0545342  70.2885808 112.5630384
 100.6665342  71.0865808 113.8230384  99.1725342  70.9115808 114.1700384
  98.8115342  71.6595808 115.3110384  97.7605342  69.2945808 114.5660384
  99.3715342  69.0045808 115.1830384  98.9885342  67.5455808 113.2450384
  98.5545342  68.9085808 112.2470384 101.3085342  68.3245808 113.4340384
 100.8775342  68.2835808 111.7450384 102.1245342  70.3845808 112.3760384
 100.5565342  70.7195808 111.6940384 101.2775342  70.7295808 114.6540384
 100.9105342  72.1425808 113.6950384  98.5965342  71.2905808 113.3230384
  99.3155342  71.3305808 116.0610384 140.3475342  86.5375808  70.1930384
 139.4545342  85.4005808  69.6560384 138.0335342  85.8955808  69.3190384
 137.3835342  86.6565808  70.4950384 138.2945342  87.7815808  71.0240384
 139.6955342  87.2535808  71.3970384 140.5225342  88.2795808  71.9010384
 141.3335342  86.1535808  70.4630384 140.5075342  87.2555808  69.3860384
 139.9125342  84.9525808  68.7730384 139.3935342  84.6055808  70.4020384
 138.0785342  86.5515808  68.4480384 137.4045342  85.0525808  69.0290384
 136.4225342  87.0685808  70.1860384 137.1675342  85.9555808  71.3030384
 138.3865342  88.5405808  70.2440384 137.8295342  88.2755808  71.8790384
 139.5625342  86.5095808  72.1840384 140.6435342  88.9385808  71.2110384
  33.0215342  92.9515808  97.1450384  33.2855342  92.1625808  98.4430384
  33.6215342  93.0935808  99.6260384  34.7605342  94.0795808  99.2890384
  34.4845342  94.8525808  97.9850384  34.1955342  93.8985808  96.8070384
  33.9635342  94.6055808  95.6070384  32.8285342  92.2695808  96.3160384
  32.1095342  93.5385808  97.2810384  32.4175342  91.5475808  98.6880384
  34.1125342  91.4675808  98.2830384  32.7295342  93.6575808  99.9040384
  33.8895342  92.5005808 100.5010384  34.9045342  94.7785808 100.1130384
  35.6985342  93.5295808  99.1920384  33.6215342  95.5005808  98.1490384
  35.3225342  95.5115808  97.7490384  35.0825342  93.2785808  96.6660384
  33.1825342  95.1535808  95.7250384  36.9575342  59.1425808  64.5040384
  37.7395342  58.4195808  65.6190384  36.8025342  57.6515808  66.5750384
  35.6705342  58.5445808  67.1270384  34.9065342  59.2655808  66.0000384
  35.8605342  60.0625808  65.0850384  35.1585342  60.7405808  64.0640384
  37.6385342  59.7115808  63.8680384  36.4975342  58.3855808  63.8650384
  38.4665342  57.7345808  65.1800384  38.3175342  59.1505808  66.1890384
  36.3665342  56.8045808  66.0460384  37.3785342  57.2295808  67.4000384
  34.9805342  57.9445808  67.7210384  36.0935342  59.2845808  67.8090384
  34.3795342  58.5135808  65.4100384  34.1395342  59.9195808  66.4180384
  36.3575342  60.8095808  65.7060384  34.7185342  60.0875808  63.5140384
  67.4655342  84.9655808  14.6180384  66.5125342  83.7605808  14.7390384
  65.5135342  83.9305808  15.9030384  66.2175342  84.2665808  17.2350384
  67.1735342  85.4675808  17.0920384  68.1905342  85.2525808  15.9520384
  69.0805342  86.3435808  15.8350384  68.1885342  84.8015808  13.8170384
  66.8775342  85.8395808  14.3290384  65.9715342  83.6175808  13.8020384
  67.0955342  82.8505808  14.8940384  64.8095342  84.7275808  15.6580384
  64.9165342  83.0245808  16.0150384  65.4755342  84.4705808  18.0070384
  66.7785342  83.3955808  17.5760384  66.5745342  86.3565808  16.8850384
  67.6875342  85.6575808  18.0360384  68.7765342  84.3665808  16.2020384
  68.5705342  87.1275808  15.6150384  21.3735342  90.7845808  71.6820384
  22.4075342  89.7315808  72.1280384  23.4715342  90.3315808  73.0700384
  24.1295342  91.5975808  72.4790384  23.0805342  92.6345808  72.0310384
  22.0555342  92.0215808  71.0540384  21.1075342  92.9765808  70.6270384
  20.6585342  90.3455808  70.9840384  20.7995342  91.0925808  72.5590384
  21.9025342  88.8985808  72.6190384  22.8995342  89.3115808  71.2480384
  23.0055342  90.5815808  74.0250384  24.2345342  89.5845808  73.2920384
  24.8045342  92.0415808  73.2110384  24.7495342  91.3175808  71.6270384
  22.5635342  93.0015808  72.9200384  23.5705342  93.4995808  71.5810384
  22.6075342  91.6785808  70.1770384  20.6175342  93.2815808  71.3950384
 101.6875342  63.2935808 104.4380384 101.0115342  62.8445808 105.7490384
 101.9065342  61.8805808 106.5570384 102.4005342  60.6905808 105.7070384
 103.0645342  61.1575808 104.3960384 102.1335342  62.0835808 103.5860384
 102.7315342  62.4945808 102.3750384 101.0185342  63.9395808 103.8670384
 102.5595342  63.8995808 104.6930384 100.7605342  63.7155808 106.3560384
 100.0645342  62.3525808 105.5200384 102.7665342  62.4275808 106.9440384
 101.3635342  61.5135808 107.4290384 103.1015342  60.0865808 106.2840384
 101.5585342  60.0375808 105.4740384 103.9805342  61.6935808 104.6500384
 103.3675342  60.2975808 103.7960384 101.2375342  61.5105808 103.3410384
 103.5215342  63.0005808 102.5840384 104.4605342  41.2535808  38.5580384
 105.2965342  42.5475808  38.6320384 105.8025342  42.8245808  40.0630384
 104.6625342  42.7945808  41.1030384 103.8325342  41.4995808  41.0090384
 103.2995342  41.2685808  39.5790384 102.5215342  40.0935808  39.4960384
 104.0795342  41.1025808  37.5470384 105.1195342  40.4085808  38.7690384
 106.1405342  42.4845808  37.9440384 104.6905342  43.3895808  38.2930384
 106.5525342  42.0785808  40.3300384 106.3115342  43.7895808  40.0960384
 105.0725342  42.9025808  42.1080384 104.0105342  43.6555808  40.9490384
 104.4705342  40.6635808  41.3000384 103.0105342  41.5225808  41.7260384
 102.6585342  42.1155808  39.3300384 103.0815342  39.3435808  39.7140384
 120.9065342  83.5235808  91.3730384 121.4705342  84.3645808  90.2100384
 120.6755342  85.6705808  90.0060384 119.1585342  85.4185808  89.8760384
 118.6145342  84.5695808  91.0420384 119.3965342  83.2485808  91.1960384
 118.8855342  82.4605808  92.2500384 121.4585342  82.5865808  91.4690384
 121.0695342  84.0735808  92.3030384 122.5215342  84.5915808  90.3900384
 121.4415342  83.7765808  89.2910384 120.8575342  86.3375808  90.8510384
 121.0425342  86.1955808  89.1230384 118.6255342  86.3695808  89.8280384
 118.9555342  84.9105808  88.9320384 118.7025342  85.1545808  91.9590384
 117.5495342  84.3725808  90.9040384 119.2745342  82.6885808  90.2670384
 118.9905342  82.9485808  93.0720384 114.1405342  52.6285808  82.1050384
 114.6235342  52.2495808  83.5190384 115.9285342  51.4255808  83.4800384
 115.8215342  50.2045808  82.5420384 115.3285342  50.6015808  81.1370384
 114.0005342  51.3845808  81.2000384 113.5375342  51.7295808  79.9120384
 113.1965342  53.1735808  82.1580384 114.8685342  53.3155808  81.6680384
 114.7705342  53.1505808  84.1170384 113.8475342  51.6735808  84.0250384
 116.7465342  52.0655808  83.1460384 116.1915342  51.0995808  84.4880384
 116.7875342  49.7045808  82.4710384 115.1345342  49.4755808  82.9750384
 116.0955342  51.2215808  80.6690384 115.2235342  49.7155808  80.5070384
 113.2585342  50.7295808  81.6600384 114.1865342  52.3065808  79.5010384
 112.2835342  34.3195808  85.1140384 111.5555342  35.6685808  85.2810384
 111.5795342  36.1595808  86.7440384 111.0725342  35.0855808  87.7300384
 111.8045342  33.7415808  87.5420384 111.7275342  33.2505808  86.0810384
 112.3785342  32.0095808  85.9140384 112.2155342  33.9745808  84.0810384
 113.3445342  34.4765808  85.3180384 112.0065342  36.4185808  84.6290384
 110.5195342  35.5645808  84.9520384 112.5995342  36.4395808  87.0120384
 110.9815342  37.0665808  86.8410384 111.1925342  35.4355808  88.7550384
 110.0015342  34.9375808  87.5840384 112.8495342  33.8805808  87.8260384
 111.3995342  32.9905808  88.2230384 110.6715342  33.1115808  85.8410384
 113.3095342  32.1255808  86.1240384  46.3135342  47.8055808  33.9490384
  47.6535342  47.0665808  34.1300384  47.7125342  45.7685808  33.2970384
  46.4935342  44.8565808  33.5480384  45.1635342  45.6145808  33.3710384
  45.1105342  46.8835808  34.2480384  43.8835342  47.5665808  34.1030384
  46.2805342  48.6965808  34.5790384  46.2535342  48.1575808  32.9160384
  48.4815342  47.7225808  33.8560384  47.7955342  46.8255808  35.1850384
  47.7585342  46.0245808  32.2370384  48.6345342  45.2275808  33.5180384
  46.5255342  43.9995808  32.8750384  46.5475342  44.4505808  34.5590384
  45.0665342  45.8935808  32.3200384  44.3195342  44.9585808  33.5930384
  45.1965342  46.5635808  35.2880384  43.8015342  47.8515808  33.1890384
  55.1845342  77.5945808 132.0830384  56.5335342  78.3325808 132.1950384
  56.6795342  79.4315808 131.1230384  56.4115342  78.8995808 129.6990384
  55.0645342  78.1575808 129.6070384  54.9605342  77.0335808 130.6600384
  53.7355342  76.3395808 130.5630384  55.1235342  76.7955808 132.8240384
  54.3875342  78.3005808 132.3250384  56.6385342  78.7665808 133.1910384
  57.3495342  77.6145808 132.0910384  55.9815342  80.2415808 131.3410384
  57.6775342  79.8705808 131.1750384  56.4325342  79.7225808 128.9840384
  57.2175342  78.2245808 129.4070384  54.2635342  78.8825808 129.7680384
  54.9175342  77.7575808 128.6020384  55.7665342  76.3245808 130.4590384
  53.0215342  76.9585808 130.7390384  45.3575342  54.5635808  86.0920384
  44.9215342  53.2605808  86.7920384  43.7315342  53.4905808  87.7460384
  43.9935342  54.6405808  88.7420384  44.4375342  55.9315808  88.0260384
  45.6565342  55.6845808  87.1120384  46.0765342  56.8705808  86.4730384
  46.2255342  54.3825808  85.4560384  44.5505342  54.8815808  85.4280384
  44.6615342  52.5065808  86.0470384  45.7625342  52.8525808  87.3550384
  42.8395342  53.7195808  87.1600384  43.5075342  52.5715808  88.2900384
  43.0975342  54.8325808  89.3340384  44.7645342  54.3365808  89.4510384
  43.5995342  56.2935808  87.4270384  44.6545342  56.7145808  88.7540384
  46.4735342  55.3375808  87.7480384  45.3615342  57.1815808  85.9110384
  46.2225342  65.8745808 110.6010384  45.3095342  64.7985808 109.9800384
  44.7425342  63.8385808 111.0470384  45.8475342  63.2355808 111.9390384
  46.7555342  64.3245808 112.5430384  47.3465342  65.2425808 111.4530384
  48.1955342  66.2275808 112.0040384  46.6445342  66.5125808 109.8220384
  45.6085342  66.5215808 111.2310384  44.4935342  65.2725808 109.4330384
  45.8745342  64.2245808 109.2420384  44.0295342  64.3785808 111.6720384
  44.1765342  63.0405808 110.5650384  45.3995342  62.6405808 112.7350384
  46.4525342  62.5465808 111.3490384  46.1585342  64.9205808 113.2370384
  47.5515342  63.8705808 113.1360384  47.9445342  64.6155808 110.7890384
  47.6745342  66.7835808 112.5890384  70.1655342  46.6495808  94.0630384
  69.5815342  45.2795808  93.6650384  70.3665342  44.1125808  94.3000384
  71.8835342  44.2135808  94.0300384  72.4475342  45.5925808  94.4250384
  71.6735342  46.7395808  93.7420384  72.2035342  48.0025808  94.0860384
  69.6195342  47.4545808  93.5680384  70.0125342  46.7875808  95.1350384
  68.5315342  45.2235808  93.9560384  69.6005342  45.1785808  92.5780384
  70.1935342  44.1075808  95.3770384  69.9845342  43.1615808  93.9270384
  72.4105342  43.4265808  94.5710384  72.0745342  44.0325808  92.9710384
  72.3695342  45.6945808  95.5090384  73.5105342  45.6505808  94.1860384
  71.7855342  46.6105808  92.6640384  72.1075342  48.1225808  95.0350384
  42.3905342 105.1735808  32.7750384  41.0335342 105.8995808  32.6790384
  40.7045342 106.6775808  33.9710384  40.8165342 105.7935808  35.2310384
  42.1745342 105.0685808  35.3050384  42.4605342 104.2615808  34.0210384
  43.6945342 103.5805808  34.0970384  42.5805342 104.5985808  31.8680384
  43.1785342 105.9285808  32.8330384  41.0345342 106.5795808  31.8250384
  40.2455342 105.1705808  32.4850384  41.3865342 107.5245808  34.0640384
  39.7015342 107.1025808  33.9020384  40.6675342 106.3995808  36.1250384
  40.0125342 105.0565808  35.2280384  42.9545342 105.8195808  35.4450384
  42.2115342 104.4205808  36.1830384  41.6695342 103.5165808  33.9230384
  44.3955342 104.2325808  34.1830384  49.5445342 100.1095808  37.2490384
  50.6525342 101.1155808  36.8760384  51.7425342 100.4715808  35.9950384
  52.3035342  99.1735808  36.6140384  51.1825342  98.1845808  36.9890384
  50.1295342  98.8395808  37.9060384  49.1135342  97.9275808  38.2680384
  48.8095342 100.5775808  37.9060384  49.0115342  99.8345808  36.3360384
  50.2175342 101.9745808  36.3620384  51.1085342 101.5075808  37.7870384
  51.3245342 100.2485808  35.0120384  52.5515342 101.1825808  35.8250384
  53.0005342  98.7015808  35.9200384  52.8835342  99.4185808  37.5050384
  50.7045342  97.8465808  36.0680384  51.6035342  97.2945808  37.4600384
  50.6415342  99.1515808  38.8180384  48.6585342  97.6495808  37.4680384
  99.6205342 120.1765808  73.6590384  99.2805342 121.6255808  74.0620384
 100.2165342 122.6465808  73.3820384 101.7065342 122.3065808  73.5940384
 102.0255342 120.8525808  73.1950384 101.1065342 119.8475808  73.9220384
 101.4125342 118.5145808  73.5730384  98.9725342 119.4725808  74.1850384
  99.4045342 120.0585808  72.5950384  98.2415342 121.8485808  73.8120384
  99.3585342 121.7285808  75.1460384 100.0025342 122.6735808  72.3130384
 100.0065342 123.6495808  73.7570384 102.3305342 122.9945808  73.0230384
 101.9675342 122.4595808  74.6420384 101.8885342 120.7565808  72.1160384
 103.0755342 120.6255808  73.3920384 101.2815342 119.9645808  74.9930384
 101.2605342 118.4055808  72.6300384  79.6885342  78.9015808 128.2700384
  81.0785342  78.2475808 128.1380384  81.9895342  79.0235808 127.1630384
  81.3145342  79.2635808 125.7960384  79.9225342  79.9085808 125.9490384
  79.0155342  79.0905808 126.8920384  77.7345342  79.6695808 127.0150384
  79.0515342  78.3115808 128.9300384  79.8135342  79.8745808 128.7500384
  81.5535342  78.1805808 129.1180384  80.9645342  77.2205808 127.7860384
  82.2545342  79.9845808 127.6070384  82.9285342  78.4855808 127.0250384
  81.9505342  79.8925808 125.1720384  81.2175342  78.3135808 125.2690384
  80.0555342  80.9145808 126.3520384  79.4515342  80.0305808 124.9720384
  78.8965342  78.0995808 126.4490384  77.8325342  80.5425808 127.4040384
 105.9655342  34.3085808  49.1420384 104.8475342  35.3695808  49.1890384
 105.0435342  36.3605808  50.3560384 105.2355342  35.6415808  51.7080384
 106.3495342  34.5785808  51.6390384 106.1075342  33.5735808  50.4930384
 107.1165342  32.5865808  50.4430384 105.7815342  33.5965808  48.3350384
 106.9045342  34.8115808  48.9010384 104.8085342  35.9125808  48.2430384
 103.8805342  34.8735808  49.2940384 105.9135342  36.9855808  50.1540384
 104.1905342  37.0385808  50.4140384 105.4625342  36.3685808  52.4870384
 104.2985342  35.1655808  52.0010384 107.3005342  35.0905808  51.4810384
 106.4375342  34.0575808  52.5950384 105.1585342  33.0745808  50.6940384
 107.9555342  33.0205808  50.2670384 118.8225342  69.9745808  49.4830384
 120.1635342  70.7355808  49.5140384 120.4625342  71.4295808  48.1690384
 120.3595342  70.4585808  46.9740384 119.0175342  69.7005808  46.9640384
 118.7625342  68.9775808  48.3040384 117.5435342  68.2655808  48.2880384
 118.6555342  69.4585808  50.4300384 118.0175342  70.7055808  49.3830384
 120.1545342  71.4725808  50.3190384 120.9705342  70.0395808  49.7490384
 119.7605342  72.2525808  48.0250384 121.4555342  71.8815808  48.1970384
 120.4855342  71.0055808  46.0380384 121.1805342  69.7415808  47.0180384
 118.2195342  70.4225808  46.7810384 118.9865342  68.9925808  46.1340384
 119.5715342  68.2585808  48.4440384 116.8265342  68.8945808  48.1650384
 128.6535342  49.8395808  81.9590384 128.0595342  48.8565808  82.9880384
 129.1075342  48.4115808  84.0300384 130.3965342  47.8755808  83.3720384
 130.9695342  48.8665808  82.3400384 129.9165342  49.2605808  81.2830384
 130.4475342  50.1515808  80.3260384 127.9055342  50.1055808  81.2100384
 128.9105342  50.7645808  82.4800384 127.2055342  49.3135808  83.4910384
 127.6715342  47.9785808  82.4690384 129.3575342  49.2575808  84.6720384
 128.6795342  47.6515808  84.6850384 131.1435342  47.6605808  84.1370384
 130.1835342  46.9245808  82.8810384 131.3025342  49.7585808  82.8730384
 131.8565342  48.4465808  81.8620384 129.6185342  48.3475808  80.7650384
 130.7115342  50.9585808  80.7760384  90.3055342 133.7585808  54.4770384
  91.2695342 134.9105808  54.8250384  92.3305342 134.4805808  55.8600384
  91.6985342 133.8365808  57.1130384  90.7315342 132.6935808  56.7450384
  89.6535342 133.1605808  55.7440384  88.7545342 132.1205808  55.4230384
  89.5415342 134.0995808  53.7770384  90.8735342 132.9825808  53.9600384
  91.7585342 135.2735808  53.9200384  90.6995342 135.7535808  55.2210384
  93.0155342 133.7695808  55.3970384  92.9365342 135.3405808  56.1500384
  92.4805342 133.4635808  57.7740384  91.1605342 134.5975808  57.6790384
  91.3135342 131.8835808  56.3020384  90.2685342 132.2835808  57.6440384
  89.0865342 133.9595808  56.2260384  89.2475342 131.4135808  54.9980384
  40.5235342  63.3565808 105.2250384  40.9335342  63.0725808 103.7660384
  39.7805342  63.3515808 102.7790384  38.4785342  62.6265808 103.1810384
  38.0885342  62.9145808 104.6440384  39.2425342  62.5855808 105.6150384
  38.8785342  62.8295808 106.9580384  41.3405342  63.1125808 105.9050384
  40.3465342  64.4295808 105.3270384  41.8045342  63.6735808 103.5000384
  41.2455342  62.0305808 103.6730384  39.5965342  64.4255808 102.7370384
  40.0755342  63.0555808 101.7710384  37.6675342  62.9225808 102.5140384
  38.6055342  61.5515808 103.0450384  37.8335342  63.9725808 104.7270384
  37.1885342  62.3595808 104.9140384  39.4595342  61.5205808 105.5130384
  38.6865342  63.7655808 107.0540384  81.3325342  88.1155808  15.5470384
  80.8315342  88.8695808  16.7950384  81.9285342  89.7675808  17.4030384
  83.2405342  88.9965808  17.6620384  83.7205342  88.2415808  16.4070384
  82.6215342  87.3165808  15.8440384  83.0675342  86.6085808  14.7070384
  80.5525342  87.4555808  15.1620384  81.5315342  88.8485808  14.7620384
  79.9565342  89.4695808  16.5420384  80.4985342  88.1485808  17.5440384
  82.1285342  90.5995808  16.7250384  81.5705342  90.2145808  18.3320384
  84.0155342  89.6845808  18.0030384  83.0875342  88.2865808  18.4760384
  83.9975342  88.9795808  15.6510384  84.6255342  87.6735808  16.6280384
  82.3805342  86.5885808  16.6210384  83.2805342  87.2445808  14.0190384
 108.7275342  60.1105808  69.2580384 109.1065342  61.5855808  69.0150384
 109.8965342  62.1785808  70.2000384 109.1765342  61.9655808  71.5490384
 108.7965342  60.4885808  71.7700384 107.9695342  59.9305808  70.5920384
 107.6035342  58.5835808  70.8040384 108.1345342  59.7275808  68.4260384
 109.6465342  59.5205808  69.2790384 109.6895342  61.6735808  68.0970384
 108.1995342  62.1715808  68.8550384 110.8825342  61.7155808  70.2430384
 110.0685342  63.2435808  70.0350384 109.8075342  62.3145808  72.3670384
 108.2745342  62.5795808  71.5790384 109.7175342  59.9115808  71.8740384
 108.2545342  60.3715808  72.7100384 107.0545342  60.5225808  70.5290384
 108.4055342  58.0565808  70.8600384  25.1195342  53.7405808  82.4000384
  26.1055342  54.6995808  83.0950384  26.1285342  56.0885808  82.4220384
  26.3625342  55.9975808  80.8990384  25.3745342  55.0265808  80.2230384
  25.4035342  53.6325808  80.8840384  24.5135342  52.7375808  80.2520384
  25.1525342  52.7545808  82.8670384  24.1065342  54.1195808  82.5530384
  25.8455342  54.8015808  84.1500384  27.1085342  54.2695808  83.0700384
  25.1795342  56.5935808  82.6100384  26.8985342  56.7105808  82.8800384
  26.2795342  56.9865808  80.4500384  27.3845342  55.6635808  80.7100384
  24.3715342  55.4485808  80.3060384  25.5875342  54.9495808  79.1550384
  26.4145342  53.2395808  80.7700384  23.6205342  53.0775808  80.3490384
  54.9945342  97.4875808  62.4930384  55.3965342  98.2335808  63.7810384
  54.1995342  98.4165808  64.7380384  52.9825342  99.0555808  64.0360384
  52.6015342  98.3025808  62.7470384  53.8025342  98.1725808  61.7870384
  53.4495342  97.5015808  60.5970384  55.8475342  97.4085808  61.8160384
  54.7185342  96.4655808  62.7620384  56.1995342  97.6965808  64.2880384
  55.8045342  99.2125808  63.5210384  53.9115342  97.4445808  65.1420384
  54.4975342  99.0245808  65.5930384  52.1315342  99.0815808  64.7180384
  53.2085342 100.0955808  63.7950384  52.2475342  97.3085808  63.0250384
  51.7645342  98.7985808  62.2500384  54.1185342  99.1835808  61.5230384
  53.1705342  96.6105808  60.8230384 112.0365342 109.4755808  66.4590384
 111.4505342 110.9005808  66.4030384 112.1985342 111.7915808  65.3910384
 113.7245342 111.7865808  65.6230384 114.2915342 110.3545808  65.6850384
 113.5565342 109.4965808  66.7360384 114.0895342 108.1915808  66.8080384
 111.5175342 108.8785808  67.2110384 111.8495342 108.9915808  65.4980384
 110.3895342 110.8575808  66.1490384 111.5055342 111.3535808  67.3950384
 111.9885342 111.4415808  64.3790384 111.8185342 112.8125808  65.4420384
 114.2235342 112.3505808  64.8340384 113.9505342 112.3065808  66.5550384
 114.1775342 109.9005808  64.6990384 115.3635342 110.3785808  65.8900384
 113.7035342 109.9745808  67.7060384 113.9625342 107.7645808  65.9560384
 104.6445342  81.3855808 118.2930384 104.8955342  79.8715808 118.1370384
 105.9895342  79.3675808 119.1010384 107.2865342  80.1975808 119.0000384
 107.0155342  81.7075808 119.1490384 105.9505342  82.1965808 118.1440384
 105.7175342  83.5835808 118.2660384 103.8985342  81.7245808 117.5720384
 104.2185342  81.5605808 119.2830384 103.9685342  79.3215808 118.3040384
 105.1925342  79.6585808 117.1080384 105.6135342  79.4105808 120.1240384
 106.2035342  78.3165808 118.9020384 107.9975342  79.8705808 119.7590384
 107.7625342  80.0085808 118.0370384 106.6675342  81.8925808 120.1670384
 107.9415342  82.2735808 119.0340384 106.3395342  82.0065808 117.1420384
 105.3745342  83.7575808 119.1470384 134.4245342  78.2375808  54.3710384
 132.8965342  78.0475808  54.4460384 132.2585342  78.9315808  55.5380384
 132.9475342  78.7565808  56.9090384 134.4745342  78.9415808  56.8120384
 135.0935342  78.0145808  55.7460384 136.4955342  78.1675808  55.6720384
 134.8555342  77.5715808  53.6220384 134.6255342  79.2565808  54.0300384
 132.4445342  78.2675808  53.4780384 132.6715342  76.9985808  54.6530384
 132.3225342  79.9775808  55.2350384 131.1955342  78.7055808  55.6250384
 132.5315342  79.4635808  57.6270384 132.7265342  77.7625808  57.3000384
 134.6755342  79.9825808  56.5520384 134.9395342  78.7735808  57.7850384
 134.8835342  76.9865808  56.0470384 136.6875342  79.0715808  55.4060384
  65.4975342 101.2095808 131.4290384  66.9365342 101.6285808 131.7920384
  67.7505342 100.4505808 132.3690384  67.0225342  99.7535808 133.5380384
  65.5835342  99.3515808 133.1600384  64.7765342 100.5545808 132.6280384
  63.4515342 100.1915808 132.3020384  64.9315342 102.0685808 131.0640384
  65.5475342 100.4985808 130.6020384  67.4395342 102.0335808 130.9130384
  66.9045342 102.4385808 132.5230384  67.9395342  99.7235808 131.5780384
  68.7295342 100.8025808 132.6970384  67.5845342  98.8745808 133.8540384
  66.9965342 100.4225808 134.3990384  65.6365342  98.5795808 132.3900384
  65.0785342  98.8975808 134.0150384  64.7355342 101.2965808 133.4280384
  63.4815342  99.5375808 131.5980384 110.4155342  84.5155808  36.9100384
 111.6765342  84.5245808  36.0230384 112.7785342  85.4385808  36.5990384
 112.2585342  86.8595808  36.9070384 110.9925342  86.8295808  37.7850384
 109.8905342  85.9455808  37.1660384 108.7225342  85.9355808  37.9600384
 109.6375342  83.8955808  36.4600384 110.6705342  84.0455808  37.8620384
 112.0585342  83.5085808  35.9080384 111.4125342  84.8645808  35.0200384
 113.1715342  84.9945808  37.5150384 113.6175342  85.4925808  35.9040384
 113.0385342  87.4435808  37.3960384 112.0375342  87.3735808  35.9710384
 111.2675342  86.4365808  38.7660384 110.6235342  87.8435808  37.9540384
 109.6345342  86.3765808  36.1960384 108.9415342  85.5565808  38.8150384
  69.2115342  89.6285808 130.6360384  70.5095342  88.9825808 131.1610384
  71.5645342  88.8215808 130.0470384  71.0005342  88.0965808 128.8070384
  69.6995342  88.7495808 128.3020384  68.6445342  88.8585808 129.4230384
  67.4445342  89.4375808 128.9550384  68.4675342  89.6925808 131.4320384
  69.4365342  90.6565808 130.3410384  70.9175342  89.5795808 131.9790384
  70.2805342  88.0035808 131.5870384  71.9285342  89.8075808 129.7530384
  72.4315342  88.2825808 130.4320384  71.7455342  88.0855808 128.0110384
  70.8085342  87.0515808 129.0560384  69.9405342  89.7475808 127.9310384
  69.3005342  88.1945808 127.4510384  68.4205342  87.8435808 129.7570384
  67.6355342  90.3315808 128.6590384  97.6995342  48.9525808 116.4880384
  96.2935342  48.3405808 116.6470384  96.0585342  47.1755808 115.6620384
  96.3735342  47.5695808 114.2040384  97.7785342  48.1875808 114.0660384
  97.9735342  49.3785808 115.0280384  99.2525342  49.9585808 114.8870384
  97.8255342  49.7995808 117.1650384  98.4345342  48.2035808 116.7920384
  96.1505342  47.9965808 117.6720384  95.5405342  49.1135808 116.4790384
  96.6855342  46.3305808 115.9500384  95.0275342  46.8265808 115.7390384
  96.2845342  46.6975808 113.5550384  95.6275342  48.2845808 113.8530384
  98.5145342  47.4135808 114.2900384  97.9595342  48.4935808 113.0340384
  97.2305342  50.1335808 114.7650384  99.9115342  49.2985808 115.1180384
 116.3115342  44.9705808  78.7240384 114.9605342  45.5185808  78.2240384
 114.2535342  46.3735808  79.2970384 114.1315342  45.6345808  80.6470384
 115.4905342  45.0855808  81.1260384 116.1555342  44.1975808  80.0530384
 117.3895342  43.6775808  80.4990384 116.7705342  44.3355808  77.9630384
 116.9895342  45.8145808  78.8720384 115.1095342  46.1075808  77.3180384
 114.3135342  44.6855808  77.9410384 114.8115342  47.2995808  79.4430384
 113.2645342  46.6685808  78.9440384 113.7135342  46.3025808  81.4000384
 113.4235342  44.8105808  80.5460384 116.1395342  45.9325808  81.3520384
 115.3695342  44.5335808  82.0600384 115.4845342  43.3575808  79.8640384
 117.9855342  44.4125808  80.6670384 122.8565342  55.4335808  94.9950384
 124.3365342  55.0525808  95.1960384 125.0375342  55.9825808  96.2080384
 124.8505342  57.4745808  95.8590384 123.3665342  57.8345808  95.6530384
 122.6995342  56.9205808  94.6040384 121.3455342  57.2625808  94.3990384
 122.3945342  54.7885808  94.2450384 122.3255342  55.2455808  95.9310384
 124.4135342  54.0165808  95.5280384 124.8575342  55.1035808  94.2380384
 124.6385342  55.7945808  97.2060384 126.1005342  55.7425808  96.2580384
 125.2795342  58.0975808  96.6460384 125.4085342  57.7065808  94.9510384
 122.8525342  57.7255808  96.6110384 123.2655342  58.8835808  95.3690384
 123.2305342  57.0665808  93.6620384 120.8725342  57.1365808  95.2260384
  64.1825342 115.4185808  98.3520384  64.8925342 114.0535808  98.4500384
  66.4215342 114.1875808  98.2940384  66.8145342 114.9705808  97.0230384
  66.0885342 116.3265808  96.9370384  64.5585342 116.1615808  97.0500384
  63.8915342 117.4025808  96.9500384  63.1005342 115.2915808  98.4220384
  64.4795342 116.0205808  99.2130384  64.6555342 113.5775808  99.4030384
  64.5075342 113.3875808  97.6750384  66.8285342 114.6955808  99.1700384
  66.8815342 113.1975808  98.2790384  67.8935342 115.1235808  96.9990384
  66.5735342 114.3735808  96.1420384  66.4475342 116.9585808  97.7520384
  66.3525342 116.8415808  96.0120384  64.2365342 115.5375808  96.2140384
  64.1705342 117.9565808  97.6840384 120.9785342  55.6235808 109.6180384
 121.1705342  57.1465808 109.4780384 122.1965342  57.6935808 110.4930384
 121.8725342  57.2665808 111.9410384 121.6755342  55.7425808 112.0590384
 120.6125342  55.2275808 111.0660384 120.4155342  53.8345808 111.1890384
 120.2185342  55.2695808 108.9200384 121.9125342  55.1335808 109.3330384
 121.4845342  57.3905808 108.4620384 120.2125342  57.6485808 109.6280384
 123.1915342  57.3335808 110.2260384 122.2405342  58.7815808 110.4270384
 122.6685342  57.5925808 112.6110384 120.9675342  57.7765808 112.2740384
 122.6315342  55.2575808 111.8540384 121.4075342  55.4725808 113.0830384
 119.6715342  55.7235808 111.3110384 121.2405342  53.3915808 110.9750384
  99.9215342  87.7875808  56.8360384 101.2525342  87.2065808  56.3190384
 102.0605342  88.2465808  55.5150384 101.2235342  88.8995808  54.3950384
  99.8935342  89.4665808  54.9290384  99.0825342  88.3955808  55.6900384
  97.8545342  88.9085808  56.1610384  99.3505342  87.0215808  57.3650384
 100.1495342  88.5635808  57.5710384 101.8485342  86.8375808  57.1550384
 101.0485342  86.3395808  55.6870384 102.4225342  89.0215808  56.1920384
 102.9495342  87.7775808  55.0890384 101.7985342  89.6905808  53.9130384
 101.0165342  88.1605808  53.6200384 100.1215342  90.2965808  55.6000384
  99.3035342  89.8855808  54.1110384  98.8635342  87.5915808  54.9850384
  98.0405342  89.6175808  56.7830384 117.4195342  84.6855808 106.5540384
 118.6715342  84.4245808 107.4150384 119.9635342  84.8765808 106.7040384
 120.0865342  84.2875808 105.2820384 118.8235342  84.5515808 104.4400384
 117.5495342  84.0485808 105.1520384 116.3945342  84.2705808 104.3720384
 116.5245342  84.3185808 107.0600384 117.2945342  85.7665808 106.4520384
 118.5765342  84.9335808 108.3750384 118.7385342  83.3585808 107.6420384
 119.9775342  85.9665808 106.6440384 120.8335342  84.5955808 107.2990384
 120.9615342  84.7035808 104.7820384 120.2595342  83.2125808 105.3500384
 118.7455342  85.6265808 104.2690384 118.9195342  84.0905808 103.4550384
 117.6595342  82.9725808 105.2930384 116.2915342  85.2175808 104.2440384
 115.0115342  64.1195808  28.0420384 115.5525342  63.2815808  29.2180384
 116.1025342  64.1695808  30.3530384 117.1275342  65.2045808  29.8420384
 116.5735342  66.0265808  28.6610384 116.0705342  65.1165808  27.5210384
 115.5835342  65.8685808  26.4300384 114.6685342  63.4685808  27.2360384
 114.1345342  64.6695808  28.3900384 114.7675342  62.6285808  29.6030384
 116.3445342  62.6215808  28.8590384 115.2745342  64.6915808  30.8340384
 116.5575342  63.5465808  31.1250384 117.4205342  65.8705808  30.6540384
 118.0365342  64.6895808  29.5300384 115.7475342  66.6385808  29.0300384
 117.3305342  66.7215808  28.2940384 116.9245342  64.5315808  27.1720384
 114.8305342  66.3855808  26.7310384 123.0645342  37.0685808  88.9010384
 123.8825342  35.9925808  88.1590384 123.9595342  34.6745808  88.9590384
 124.4455342  34.8965808  90.4070384 123.6235342  35.9815808  91.1290384
 123.5995342  37.3025808  90.3320384 122.8645342  38.3035808  91.0030384
 123.0615342  38.0015808  88.3360384 122.0265342  36.7345808  88.9510384
 123.4475342  35.8065808  87.1760384 124.8925342  36.3645808  87.9780384
 122.9725342  34.2085808  88.9780384 124.6165342  33.9685808  88.4490384
 124.3965342  33.9595808  90.9630384 125.4975342  35.1865808  90.3950384
 122.6035342  35.6115808  91.2520384 124.0135342  36.1465808  92.1350384
 124.6315342  37.6465808  90.2410384 121.9535342  38.0065808  91.0860384
  57.1985342  67.0025808  46.1390384  56.0915342  67.9425808  46.6560384
  55.2085342  68.4765808  45.5090384  56.0415342  69.1095808  44.3750384
  57.1495342  68.1605808  43.8770384  58.0465342  67.6755808  45.0360384
  59.0735342  66.8225808  44.5780384  57.8345342  66.6725808  46.9630384
  56.7245342  66.1045808  45.7360384  55.4745342  67.4225808  47.3900384
  56.5465342  68.7825808  47.1840384  54.6125342  67.6585808  45.1030384
  54.4955342  69.2055808  45.8980384  55.3905342  69.3895808  43.5460384
  56.4925342  70.0365808  44.7310384  56.6735342  67.3015808  43.4010384
  57.7485342  68.6465808  43.1050384  58.5125342  68.5585808  45.4770384
  58.6695342  66.0425808  44.1880384  56.1095342 107.0925808  87.2360384
  54.9025342 107.6015808  88.0480384  54.5155342 109.0445808  87.6600384
  55.7195342 110.0085808  87.7180384  56.9195342 109.4785808  86.9100384
  57.3155342 108.0525808  87.3470384  58.4285342 107.5745808  86.6220384
  56.3895342 106.0875808  87.5590384  55.8075342 107.0075808  86.1900384
  54.0495342 106.9365808  87.9040384  55.1395342 107.5655808  89.1130384
  54.1025342 109.0465808  86.6500384  53.7185342 109.4035808  88.3130384
  55.4265342 110.9925808  87.3490384  56.0175342 110.1525808  88.7580384
  56.6435342 109.4725808  85.8540384  57.7695342 110.1585808  87.0010384
  57.5965342 108.1025808  88.4010384  58.1875342 107.5285808  85.6930384
  27.3655342  69.9835808 107.2110384  27.4895342  71.5055808 107.4250384
  26.7045342  72.3025808 106.3620384  27.0665342  71.8735808 104.9240384
  26.9455342  70.3495808 104.7320384  27.7755342  69.5755808 105.7780384
  27.6815342  68.1795808 105.5890384  27.9625342  69.4445808 107.9490384
  26.3255342  69.6975808 107.3870384  27.1395342  71.7715808 108.4240384
  28.5425342  71.7915808 107.3870384  25.6355342  72.1575808 106.5220384
  26.8875342  73.3705808 106.4890384  26.4265342  72.3915808 104.2090384
  28.0865342  72.1875808 104.6990384  25.8925342  70.0765808 104.8270384
  27.2455342  70.0685808 103.7200384  28.8185342  69.8645808 105.6430384
  26.7645342  67.9185808 105.7070384  91.8685342  67.4925808 129.9340384
  90.4345342  67.1775808 129.4630384  89.3735342  67.8125808 130.3860384
  89.6015342  67.4585808 131.8710384  91.0415342  67.7705808 132.3210384
  92.0835342  67.0885808 131.4100384  93.4035342  67.3565808 131.8350384
  92.5985342  66.9975808 129.2910384  92.0365342  68.5655808 129.8230384
  90.2945342  67.5255808 128.4390384  90.2915342  66.0955808 129.4380384
  89.3965342  68.8965808 130.2670384  88.3765342  67.4965808 130.0770384
  88.8895342  67.9995808 132.4950384  89.3955342  66.3985808 132.0250384
  91.1815342  68.8535808 132.2880384  91.1875342  67.4745808 133.3620384
  91.9205342  66.0115808 131.4800384  93.5535342  68.3045808 131.7760384
  39.9525342  71.1345808  96.9570384  40.3275342  69.7045808  97.3980384
  41.4895342  69.7015808  98.4130384  42.7075342  70.5055808  97.9120384
  42.3125342  71.9275808  97.4670384  41.1805342  71.9025808  96.4190384
  40.8335342  73.2035808  95.9950384  39.1585342  71.1065808  96.2090384
  39.5435342  71.6625808  97.8220384  39.4565342  69.2065808  97.8270384
  40.6105342  69.1175808  96.5220384  41.1425342  70.1245808  99.3570384
  41.7865342  68.6745808  98.6340384  43.4665342  70.5565808  98.6920384
  43.1685342  69.9795808  97.0750384  41.9815342  72.4805808  98.3480384
  43.1835342  72.4605808  97.0800384  41.5525342  71.3545808  95.5510384
  40.5045342  73.6925808  96.7550384  74.5365342 112.6245808  54.0750384
  74.6255342 112.4645808  55.6060384  74.5925342 113.8265808  56.3300384
  75.6445342 114.8105808  55.7740384  75.5465342 114.9505808  54.2430384
  75.6275342 113.5795808  53.5390384  75.5595342 113.7095808  52.1350384
  74.6045342 111.6515808  53.5850384  73.5505342 113.0255808  53.8300384
  73.8105342 111.8325808  55.9620384  75.5485342 111.9405808  55.8630384
  73.5995342 114.2645808  56.2250384  74.7475342 113.6815808  57.4000384
  75.5265342 115.7865808  56.2460384  76.6425342 114.4625808  56.0430384
  74.5935342 115.4275808  54.0040384  76.3255342 115.6195808  53.8720384
  76.5955342 113.1415808  53.7910384  74.7085342 114.0935808  51.9070384
 119.9075342  50.9425808  65.5400384 119.6125342  49.9385808  66.6730384
 120.7435342  49.9045808  67.7210384 122.1305342  49.6845808  67.0800384
 122.4035342  50.6905808  65.9450384 121.2815342  50.6735808  64.8860384
 121.5425342  51.5785808  63.8350384 119.1145342  50.9165808  64.7910384
 119.8985342  51.9485808  65.9650384 118.6655342  50.1875808  67.1540384
 119.4825342  48.9415808  66.2480384 120.7485342  50.8445808  68.2740384
 120.5455342  49.1225808  68.4560384 122.9075342  49.7595808  67.8400384
 122.1895342  48.6685808  66.6860384 122.4765342  51.6875808  66.3830384
 123.3715342  50.4875808  65.4820384 121.2485342  49.6675808  64.4630384
 121.5715342  52.4675808  64.2010384  47.3345342  59.7455808  76.0110384
  46.8025342  61.0395808  75.3630384  45.4895342  60.7975808  74.5890384
  45.6105342  59.6345808  73.5810384  46.1525342  58.3535808  74.2450384
  47.4875342  58.6105808  74.9740384  47.9955342  57.4325808  75.5640384
  48.2835342  59.9345808  76.5160384  46.6295342  59.4365808  76.7860384
  46.6495342  61.8035808  76.1270384  47.5555342  61.4395808  74.6810384
  44.6905342  60.5775808  75.2980384  45.1915342  61.7095808  74.0700384
  44.6405342  59.4365808  73.1240384  46.2735342  59.9285808  72.7670384
  45.4085342  57.9995808  74.9610384  46.2655342  57.5605808  73.5040384
  48.2065342  58.9495808  74.2250384  47.3665342  57.1295808  76.2250384
 108.6125342  78.2405808 102.6260384 109.6465342  77.2055808 103.1110384
 108.9715342  75.9685808 103.7400384 107.9555342  76.3515808 104.8370384
 106.9355342  77.3925808 104.3370384 107.6345342  78.6395808 103.7540384
 106.7005342  79.6035808 103.3150384 109.1145342  79.1225808 102.2250384
 108.0515342  77.8015808 101.7980384 110.2855342  76.9005808 102.2810384
 110.3075342  77.6705808 103.8460384 108.4625342  75.4025808 102.9600384
 109.7305342  75.3015808 104.1520384 107.4355342  75.4595808 105.1890384
 108.4885342  76.7515808 105.7000384 106.3215342  76.9255808 103.5650384
 106.2545342  77.6755808 105.1420384 108.2265342  79.0845808 104.5560384
 106.1765342  79.2175808 102.6090384  40.9595342  66.8295808  69.3850384
  41.6005342  65.4655808  69.7060384  41.5425342  64.5035808  68.5010384
  40.1155342  64.3685808  67.9280384  39.4875342  65.7425808  67.6220384
  39.5165342  66.6695808  68.8550384  38.9225342  67.9205808  68.5810384
  40.9755342  67.4755808  70.2640384  41.5715342  67.3245808  68.6270384
  42.6365342  65.6045808  70.0220384  41.0845342  65.0125808  70.5550384
  42.2105342  64.8665808  67.7190384  41.9215342  63.5225808  68.7900384
  40.1335342  63.7565808  67.0260384  39.4875342  63.8345808  68.6430384
  40.0515342  66.2005808  66.8070384  38.4655342  65.6205808  67.2570384
  38.9345342  66.1845808  69.6400384  39.4315342  68.3525808  67.8900384
  62.3455342 123.9935808 101.6250384  60.8665342 124.3555808 101.8680384
  60.7025342 125.3575808 103.0300384  61.4175342 124.8865808 104.3150384
  62.8915342 124.5205808 104.0500384  63.0255342 123.4835808 102.9150384
  64.3735342 123.1325808 102.6860384  62.4305342 123.2535808 100.8280384
  62.8615342 124.8885808 101.2710384  60.4285342 124.7665808 100.9580384
  60.3035342 123.4465808 102.0920384  61.1055342 126.3255808 102.7290384
  59.6425342 125.5205808 103.2330384  61.3575342 125.6605808 105.0790384
  60.8965342 124.0185808 104.7210384  63.4245342 125.4325808 103.7760384
  63.3615342 124.1535808 104.9640384  62.4925342 122.5855808 103.2310384
  64.8495342 123.9205808 102.4070384  77.7215342 117.4605808 114.6110384
  76.8445342 116.3145808 114.0690384  77.3515342 115.7975808 112.7060384
  77.5395342 116.9355808 111.6810384  78.4105342 118.0765808 112.2440384
  77.8585342 118.6065808 113.5840384  78.6435342 119.6655808 114.0890384
  77.3185342 117.8365808 115.5530384  78.7105342 117.0565808 114.8380384
  76.8135342 115.4955808 114.7900384  75.8155342 116.6635808 113.9630384
  78.3015342 115.2815808 112.8490384  76.6585342 115.0525808 112.3110384
  77.9845342 116.5435808 110.7670384  76.5635342 117.3315808 111.3970384
  79.4215342 117.6915808 112.3930384  78.4945342 118.8855808 111.5160384
  76.8555342 118.9925808 113.3920384  79.5285342 119.3315808 114.2600384
 127.5315342  66.9845808  73.0820384 127.3805342  68.5135808  73.2020384
 126.6195342  69.1135808  72.0010384 127.2265342  68.6815808  70.6490384
 127.3795342  67.1515808  70.5510384 128.1815342  66.5815808  71.7390384
 128.3405342  65.1825808  71.6380384 128.1095342  66.5915808  73.9200384
 126.5385342  66.5355808  73.1540384 126.8675342  68.7655808  74.1320384
 128.3695342  68.9725808  73.2690384 125.5755342  68.7975808  72.0440384
 126.6095342  70.2015808  72.0740384 126.6075342  69.0475808  69.8300384
 128.2025342  69.1515808  70.5250384 126.3805342  66.7095808  70.5400384
 127.8465342  66.8755808  69.6040384 129.1735342  67.0355808  71.7090384
 127.4695342  64.7765808  71.6650384  69.2985342 122.5525808  74.4160384
  69.9805342 121.2515808  74.8860384  71.1395342 121.5305808  75.8660384
  72.1455342 122.5595808  75.3050384  71.4445342 123.8485808  74.8330384
  70.3205342 123.5465808  73.8200384  69.6925342 124.7285808  73.3700384
  68.5125342 122.3305808  73.6930384  68.8065342 123.0095808  75.2770384
  69.2475342 120.5945808  75.3540384  70.3635342 120.7095808  74.0190384
  70.7325342 121.9025808  76.8070384  71.6555342 120.5995808  76.1060384
  72.8935342 122.7975808  76.0610384  72.6895342 122.1155808  74.4700384
  71.0235342 124.3475808  75.7070384  72.1715342 124.5405808  74.4050384
  70.7815342 123.0615808  72.9580384  69.2845342 125.1605808  74.1260384
  95.9475342  74.4185808 104.7100384  97.3485342  73.7765808 104.7270384
  98.1745342  74.2295808 105.9490384  98.2245342  75.7665808 106.0840384
  96.8165342  76.3915808 106.0550384  96.0265342  75.9595808 104.8020384
  94.7445342  76.5485808 104.7640384  95.3995342  74.1155808 103.8160384
  95.3835342  74.0325808 105.5630384  97.2605342  72.6885808 104.7200384
  97.8805342  74.0425808 103.8120384  97.7405342  73.8035808 106.8540384
  99.1875342  73.8295808 105.8820384  98.7365342  76.0435808 107.0060384
  98.8215342  76.1825808 105.2710384  96.2825342  76.0705808 106.9510384
  96.8815342  77.4795808 106.1110384  96.5835342  76.3085808 103.9300384
  94.2485342  76.2435808 105.5300384  83.6525342  68.8765808  33.6990384
  84.2695342  67.4715808  33.8500384  85.6075342  67.3465808  33.0900384
  85.4865342  67.7865808  31.6160384  84.8585342  69.1875808  31.4840384
  83.5015342  69.2745808  32.2130384  82.9155342  70.5515808  32.0750384
  82.6885342  68.9265808  34.2090384  84.3055342  69.5925808  34.2030384
  84.4185342  67.2415808  34.9060384  83.5685342  66.7245808  33.4730384
  86.3615342  67.9585808  33.5870384  85.9695342  66.3185808  33.1430384
  86.4685342  67.7715808  31.1410384  84.8765342  67.0635808  31.0720384
  85.5515342  69.9135808  31.9150384  84.7475342  69.4575808  30.4320384
  82.8355342  68.5465808  31.7470384  83.4985342  71.1975808  32.4840384
  40.6655342  54.9015808  30.6340384  41.0405342  55.4245808  29.2330384
  40.5515342  56.8705808  29.0090384  39.0485342  57.0345808  29.3210384
  38.6905342  56.4985808  30.7210384  39.1505342  55.0365808  30.9040384
  38.8035342  54.5375808  32.1790384  40.9855342  53.8645808  30.7520384
  41.2195342  55.4815808  31.3750384  42.1215342  55.3715808  29.0930384
  40.6035342  54.7735808  28.4740384  41.1255342  57.5465808  29.6430384
  40.7535342  57.1755808  27.9810384  38.7645342  58.0845808  29.2400384
  38.4625342  56.5045808  28.5690384  39.1805342  57.1305808  31.4640384
  37.6175342  56.5895808  30.9000384  38.6315342  54.4365808  30.1550384
  39.2575342  55.0625808  32.8430384  82.6555342  64.1125808  15.8730384
  82.4615342  62.6235808  16.2210384  81.0155342  62.3205808  16.6680384
  80.5435342  63.2595808  17.7980384  80.7545342  64.7435808  17.4370384
  82.2165342  65.0295808  17.0370384  82.4155342  66.3925808  16.7260384
  83.6945342  64.3085808  15.6010384  82.0575342  64.3375808  14.9880384
  82.7235342  62.0025808  15.3620384  83.1525342  62.3435808  17.0180384
  80.3465342  62.4225808  15.8130384  80.9375342  61.2815808  16.9910384
  79.4925342  63.0755808  18.0200384  81.0915342  63.0285808  18.7130384
  80.0935342  64.9885808  16.6030384  80.4505342  65.3835808  18.2670384
  82.8425342  64.7855808  17.8970384  81.8665342  66.6135808  15.9690384
  41.8375342  59.6815808  46.3080384  43.1935342  59.9275808  46.9990384
  43.9845342  61.0675808  46.3240384  44.1225342  60.8615808  44.8000384
  42.7595342  60.6075808  44.1290384  42.0075342  59.4345808  44.7920384
  40.7675342  59.1875808  44.1640384  41.3165342  58.8445808  46.7770384
  41.2095342  60.5615808  46.4650384  43.0375342  60.1565808  48.0540384
  43.7855342  59.0115808  46.9720384  43.4795342  62.0165808  46.5140384
  44.9725342  61.1545808  46.7790384  44.6045342  61.7305808  44.3500384
  44.7845342  60.0155808  44.6090384  42.1625342  61.5175808  44.2140384
  42.8895342  60.4255808  43.0610384  42.6275342  58.5435808  44.6760384
  40.2165342  59.9685808  44.2640384  96.3625342  64.9635808 124.8390384
  95.9895342  64.0525808 126.0250384  95.9275342  64.8345808 127.3540384
  97.2125342  65.6495808 127.6130384  97.5755342  66.5465808 126.4130384
  97.6755342  65.7345808 125.1050384  98.0285342  66.5515808 124.0090384
  96.4405342  64.3795808 123.9200384  95.5485342  65.6745808 124.6840384
  95.0315342  63.5665808 125.8340384  96.7245342  63.2495808 126.1110384
  95.0715342  65.5105808 127.3340384  95.7505342  64.1465808 128.1820384
  97.0935342  66.2575808 128.5100384  98.0385342  64.9675808 127.8180384
  96.8015342  67.3085808 126.3110384  98.5085342  67.0805808 126.6060384
  98.4655342  64.9935808 125.2410384  97.3365342  67.2065808 123.8840384
 108.6155342  48.7195808  83.6650384 108.0415342  49.0185808  82.2660384
 108.0645342  47.7725808  81.3560384 109.4605342  47.1165808  81.2970384
 110.0215342  46.8335808  82.7040384 110.0305342  48.1045808  83.5800384
 110.5645342  47.8505808  84.8620384 108.6275342  49.6255808  84.2740384
 107.9445342  48.0195808  84.1670384 107.0225342  49.3965808  82.3540384
 108.6215342  49.8175808  81.8000384 107.3405342  47.0455808  81.7250384
 107.7375342  48.0415808  80.3500384 109.4125342  46.1915808  80.7220384
 110.1465342  47.7725808  80.7590384 109.3965342  46.0715808  83.1740384
 111.0245342  46.4075808  82.6350384 110.6735342  48.8345808  83.0860384
 110.0015342  47.2075808  85.3030384 104.4095342  79.0305808 124.0420384
 103.9605342  77.5975808 124.3900384 102.6455342  77.5855808 125.1960384
 102.7105342  78.5045808 126.4350384 103.1695342  79.9295808 126.0690384
 104.5095342  79.9165808 125.3040384 104.9415342  81.2235808 124.9870384
 105.3625342  79.0135808 123.5090384 103.6785342  79.4595808 123.3530384
 103.8435342  77.0115808 123.4760384 104.7435342  77.1025808 124.9680384
 101.8265342  77.9085808 124.5520384 102.4055342  76.5655808 125.5010384
 101.7355342  78.5405808 126.9220384 103.3985342  78.0775808 127.1650384
 102.3985342  80.3875808 125.4470384 103.2455342  80.5455808 126.9670384
 105.2545342  79.4655808 125.9610384 104.2885342  81.6265808 124.4080384
  29.8865342  51.3635808  52.4310384  29.0495342  50.0915808  52.1870384
  27.9645342  49.9005808  53.2680384  28.5445342  49.9655808  54.6970384
  29.3855342  51.2375808  54.9190384  30.4915342  51.3825808  53.8520384
  31.2755342  52.5365808  54.0680384  30.6725342  51.4525808  51.6780384
  29.2355342  52.2305808  52.3010384  28.5875342  50.1325808  51.1990384
  29.7075342  49.2205808  52.1780384  27.2035342  50.6745808  53.1530384
  27.4535342  48.9495808  53.1160384  27.7365342  49.9205808  55.4280384
  29.1645342  49.0855808  54.8760384  28.7175342  52.1005808  54.8710384
  29.8155342  51.2385808  55.9220384  31.1435342  50.5115808  53.9400384
  30.7065342  53.3075808  53.9910384  79.9365342  56.8135808  23.5780384
  80.1015342  58.3015808  23.9460384  80.7125342  59.1165808  22.7880384
  82.0175342  58.4885808  22.2550384  81.8365342  56.9995808  21.9010384
  81.2665342  56.1975808  23.0900384  81.1205342  54.8295808  22.7730384
  79.5425342  56.2515808  24.4270384  79.1885342  56.7385808  22.7850384
  79.1365342  58.7235808  24.2310384  80.7415342  58.3875808  24.8270384
  79.9875342  59.1835808  21.9750384  80.8975342  60.1415808  23.1130384
  82.3665342  59.0395808  21.3810384  82.8005342  58.5895808  23.0080384
  81.1515342  56.9315808  21.0540384  82.7825342  56.5705808  21.5660384
  81.9825342  56.2785808  23.9100384  80.4895342  54.7515808  22.0520384
  95.1035342 108.3545808  30.6050384  96.5285342 108.1115808  30.0690384
  96.5875342 108.2015808  28.5300384  95.5355342 107.2995808  27.8500384
  94.1195342 107.5485808  28.4050384  94.0775342 107.4085808  29.9410384
  92.7755342 107.6165808  30.4480384  95.0795342 108.2435808  31.6910384
  94.8305342 109.3905808  30.3950384  97.2195342 108.8305808  30.5110384
  96.8725342 107.1255808  30.3870384  96.4245342 109.2365808  28.2240384
  97.5865342 107.9375808  28.1800384  95.5475342 107.4615808  26.7720384
  95.8045342 106.2525808  28.0020384  93.8165342 108.5585808  28.1220384
  93.4035342 106.8715808  27.9370384  94.3735342 106.3865808  30.1820384
  92.5095342 108.5155808  30.2390384 116.7445342  93.4195808  62.1690384
 117.9515342  92.5225808  62.5090384 117.6965342  91.6655808  63.7670384
 117.2315342  92.5155808  64.9690384 116.0305342  93.4125808  64.6080384
 116.3275342  94.2915808  63.3750384 115.2355342  95.1285808  63.0570384
 116.9655342  94.0445808  61.3020384 115.9105342  92.7755808  61.8800384
 118.1865342  91.8775808  61.6600384 118.8335342  93.1455808  62.6680384
 116.9365342  90.9155808  63.5420384 118.5995342  91.1125808  64.0290384
 116.9735342  91.8665808  65.8060384 118.0585342  93.1385808  65.3120384
 115.1745342  92.7685808  64.4000384 115.7485342  94.0305808  65.4620384
 117.1775342  94.9275808  63.6260384 114.4835342  94.5735808  62.8340384
  92.0645342  63.8145808 127.7550384  90.7935342  63.5435808 126.9250384
  89.5195342  63.5725808 127.7960384  89.6325342  62.6485808 129.0270384
  90.9125342  62.9265808 129.8390384  92.1755342  62.8485808 128.9560384
  93.3505342  63.0825808 129.7030384  92.9525342  63.7475808 127.1250384
  92.0215342  64.8435808 128.1190384  90.7105342  64.2765808 126.1200384
  90.8785342  62.5695808 126.4400384  89.3355342  64.5945808 128.1290384
  88.6535342  63.2885808 127.1960384  88.7545342  62.7675808 129.6630384
  89.6305342  61.6075808 128.7000384  90.8315342  63.9265808 130.2710384
  90.9875342  62.2345808 130.6800384  92.2285342  61.8345808 128.5540384
  93.3095342  63.9735808 130.0600384 111.6115342 100.6435808  58.1070384
 112.1325342  99.4705808  57.2520384 111.0985342  98.3305808  57.1470384
 110.5875342  97.8745808  58.5300384 110.0795342  99.0605808  59.3740384
 111.1465342 100.1675808  59.5020384 110.6895342 101.2435808  60.2920384
 112.3755342 101.4165808  58.2010384 110.7715342 101.1025808  57.5810384
 112.3985342  99.8265808  56.2550384 113.0545342  99.0845808  57.6910384
 110.2535342  98.6665808  56.5440384 111.5335342  97.4835808  56.6130384
 109.7945342  97.1365808  58.4090384 111.3925342  97.3685808  59.0650384
 109.1895342  99.4665808  58.8890384 109.7615342  98.7165808  60.3600384
 112.0125342  99.7275808  60.0010384 109.9275342 101.6355808  59.8580384
  24.1025342  99.2135808  73.0220384  23.1665342  98.2285808  73.7520384
  22.9625342  96.9265808  72.9500384  22.5215342  97.1965808  71.4960384
  23.4635342  98.1895808  70.7850384  23.6145342  99.5015808  71.5840384
  24.4595342 100.4195808  70.9230384  24.1955342 100.1415808  73.5880384
  25.1005342  98.7715808  72.9850384  23.5655342  97.9995808  74.7410384
  22.1985342  98.7055808  73.9190384  23.8945342  96.3595808  72.9430384
  22.2275342  96.2935808  73.4500384  22.4795342  96.2605808  70.9390384
  21.5065342  97.5955808  71.4940384  24.4395342  97.7145808  70.6760384
  23.1065342  98.3935808  69.7740384  22.6235342  99.9515808  71.6610384
  25.3345342 100.0285808  70.8530384  84.0605342  94.8065808  28.5110384
  84.5275342  94.8395808  29.9800384  83.3615342  94.5915808  30.9600384
  82.1645342  95.5295808  30.6950384  81.7185342  95.4895808  29.2200384
  82.8915342  95.7855808  28.2630384  82.4795342  95.7705808  26.9130384
  84.8945342  95.0265808  27.8410384  83.7385342  93.7885808  28.2780384
  85.3115342  94.0985808  30.1390384  84.9795342  95.8105808  30.1950384
  83.0325342  93.5545808  30.8710384  83.7075342  94.7115808  31.9870384
  81.3305342  95.2605808  31.3440384  82.4385342  96.5505808  30.9630384
  81.3195342  94.4945808  29.0120384  80.8985342  96.1895808  29.0520384
  83.2535342  96.7895808  28.4930384  82.1595342  94.8885808  26.7040384
  50.9415342  43.8105808  31.4970384  52.2765342  44.5295808  31.2190384
  52.3425342  45.0855808  29.7810384  52.0165342  44.0095808  28.7230384
  50.6835342  43.2955808  29.0220384  50.6595342  42.7105808  30.4500384
  49.4475342  42.0375808  30.7170384  50.9375342  43.3915808  32.5050384
  50.1415342  44.5535808  31.4690384  52.4215342  45.3385808  31.9380384
  53.1035342  43.8335808  31.3760384  51.6385342  45.9115808  29.6830384
  53.3315342  45.5065808  29.5910384  51.9825342  44.4625808  27.7310384
  52.8225342  43.2755808  28.6930384  49.8755342  44.0215808  28.9120384
  50.4965342  42.5145808  28.2830384  51.4705342  41.9825808  30.5160384
  48.7295342  42.6735808  30.6610384  23.2035342 102.6335808  88.2870384
  24.1595342 103.8375808  88.1680384  23.7865342 104.7535808  86.9840384
  23.6485342 103.9715808  85.6600384  22.6975342 102.7665808  85.8000384
  23.1175342 101.8425808  86.9620384  22.2595342 100.7275808  87.0780384
  23.5135342 101.9795808  89.1040384  22.2125342 103.0085808  88.5510384
  24.1555342 104.4095808  89.0970384  25.1815342 103.4775808  88.0390384
  22.8435342 105.2575808  87.2030384  24.5325342 105.5415808  86.8750384
  23.2945342 104.6355808  84.8710384  24.6315342 103.6215808  85.3430384
  21.6905342 103.1465808  85.9830384  22.6495342 102.2095808  84.8630384
  24.1205342 101.4735808  86.7380384  21.3745342 101.0455808  87.2760384
  46.1835342  88.4315808  25.1430384  46.2755342  89.5195808  26.2310384
  46.9545342  90.8025808  25.7060384  48.3165342  90.5135808  25.0390384
  48.2065342  89.4165808  23.9620384  47.5665342  88.1295808  24.5220384
  47.4855342  87.1175808  23.5410384  45.7395342  87.5215808  25.5500384
  45.5045342  88.7845808  24.3630384  45.2795342  89.7535808  26.6090384
  46.8395342  89.1345808  27.0820384  46.2965342  91.2875808  24.9830384
  47.0835342  91.5145808  26.5220384  48.7175342  91.4275808  24.6010384
  49.0325342  90.2025808  25.8010384  47.5945342  89.8025808  23.1440384
  49.1885342  89.2035808  23.5350384  48.2115342  87.7685808  25.3260384
  46.9175342  87.4285808  22.8310384  74.9525342 135.8005808  73.1480384
  73.6615342 136.6395808  73.2290384  72.6065342 136.1715808  72.2050384
  73.1745342 136.0935808  70.7720384  74.4695342 135.2595808  70.7120384
  75.5255342 135.7755808  71.7130384  76.7195342 135.0255808  71.6430384
  75.6975342 136.1775808  73.8510384  74.7185342 134.7815808  73.4640384
  73.2495342 136.5915808  74.2380384  73.8995342 137.6895808  73.0480384
  72.2335342 135.1885808  72.4970384  71.7445342 136.8405808  72.2280384
  72.4285342 135.6725808  70.0980384  73.3765342 137.1025808  70.4080384
  74.2185342 134.2235808  70.9480384  74.8715342 135.2545808  69.6970384
  75.7585342 136.8055808  71.4370384  76.5205342 134.1165808  71.8850384
  32.0925342  98.0755808  38.8100384  33.1255342  96.9335808  38.7440384
  33.4335342  96.3545808  40.1400384  33.8245342  97.4505808  41.1550384
  32.7855342  98.5885808  41.2000384  32.5285342  99.1805808  39.7990384
  31.5935342 100.2365808  39.8430384  31.9235342  98.4955808  37.8160384
  31.1375342  97.6555808  39.1330384  32.7645342  96.1425808  38.0840384
  34.0485342  97.3045808  38.2940384  32.5565342  95.8205808  40.5090384
  34.2305342  95.6135808  40.0680384  33.9425342  97.0135808  42.1470384
  34.7995342  97.8605808  40.8860384  31.8545342  98.1835808  41.6020384
  33.1065342  99.3675808  41.8940384  33.4765342  99.5845808  39.4380384
  30.7555342  99.8875808  40.1600384  27.4345342  83.1505808  82.8480384
  27.4685342  84.4675808  82.0470384  26.4335342  84.4715808  80.9030384
  26.5525342  83.2245808  80.0010384  26.5255342  81.9195808  80.8200384
  27.5995342  81.9205808  81.9280384  27.5895342  80.7155808  82.6640384
  28.2035342  83.1555808  83.6230384  26.4745342  83.0905808  83.3660384
  27.2925342  85.3135808  82.7130384  28.4675342  84.6125808  81.6310384
  25.4295342  84.5135808  81.3270384  26.5465342  85.3765808  80.3030384
  25.7475342  83.2195808  79.2650384  27.4815342  83.2765808  79.4320384
  25.5365342  81.8195808  81.2710384  26.6515342  81.0565808  80.1630384
  28.5715342  82.0075808  81.4380384  26.7365342  80.6325808  83.0980384
 110.3715342  51.5845808 102.7640384 109.1745342  51.3835808 101.8140384
 107.8265342  51.6095808 102.5310384 107.7045342  50.7755808 103.8240384
 108.9145342  50.9815808 104.7560384 110.2475342  50.7065808 104.0290384
 111.3545342  50.8745808 104.8890384 111.3095342  51.3785808 102.2450384
 110.4045342  52.6375808 103.0540384 109.2595342  52.0575808 100.9600384
 109.2015342  50.3715808 101.4050384 107.7225342  52.6675808 102.7740384
 107.0025342  51.3715808 101.8560384 106.7825342  51.0315808 104.3470384
 107.6225342  49.7185808 103.5660384 108.8985342  52.0135808 105.1110384
 108.8225342  50.3515808 105.6430384 110.2295342  49.6655808 103.7020384
 111.3755342  51.7895808 105.1810384 117.7825342  32.7785808  94.5880384
 119.0995342  33.5675808  94.4510384 119.3255342  34.0655808  93.0080384
 119.2035342  32.9295808  91.9710384 117.8855342  32.1455808  92.1290384
 117.7055342  31.6205808  93.5690384 116.5085342  30.8845808  93.7090384
 117.6675342  32.4025808  95.6060384 116.9525342  33.4685808  94.4190384
 119.1015342  34.4135808  95.1420384 119.9355342  32.9325808  94.7490384
 118.5935342  34.8425808  92.7780384 120.3045342  34.5395808  92.9280384
 119.2765342  33.3365808  90.9630384 120.0465342  32.2455808  92.0830384
 117.0595342  32.8145808  91.8790384 117.8435342  31.3245808  91.4120384
 118.5395342  30.9485808  93.7770384 115.7695342  31.4715808  93.5280384
 114.6245342  93.9405808  90.1240384 113.5115342  92.9345808  90.4790384
 113.0105342  92.1685808  89.2360384 112.6095342  93.1175808  88.0860384
 113.7305342  94.1215808  87.7520384 114.1825342  94.9065808  89.0020384
 115.1945342  95.8415808  88.6920384 114.9315342  94.4985808  91.0110384
 115.5015342  93.3785808  89.7950384 113.8715342  92.2305808  91.2310384
 112.6755342  93.4665808  90.9370384 113.7955342  91.4955808  88.8890384
 112.1655342  91.5345808  89.5070384 112.3515342  92.5375808  87.1990384
 111.7065342  93.6615808  88.3650384 114.5765342  93.5645808  87.3460384
 113.4065342  94.8045808  86.9650384 113.3155342  95.4575808  89.3700384
 115.9605342  95.3615808  88.3680384  81.5795342 103.7795808  24.6640384
  82.7945342 102.8595808  24.4260384  82.6885342 101.5465808  25.2300384
  82.4185342 101.7985808  26.7280384  81.2075342 102.7265808  26.9460384
  81.3585342 104.0505808  26.1690384  80.2595342 104.9105808  26.3850384
  81.6985342 104.7175808  24.1180384  80.6955342 103.2915808  24.2480384
  82.8915342 102.6385808  23.3620384  83.7085342 103.3855808  24.7100384
  81.8835342 100.9375808  24.8170384  83.6025342 100.9625808  25.1090384
  82.2585342 100.8495808  27.2420384  83.3035342 102.2445808  27.1850384
  80.3125342 102.2035808  26.6060384  81.0635342 102.9195808  28.0110384
  82.2535342 104.5485808  26.5450384  79.4665342 104.4775808  26.0550384
 100.1675342 104.8995808  60.7590384  99.6275342 106.1225808  59.9910384
 100.2065342 106.2065808  58.5630384 101.7485342 106.1315808  58.5510384
 102.2695342 104.9095808  59.3310384 101.7125342 104.8715808  60.7690384
 102.2065342 103.7635808  61.4910384  99.7765342 104.8855808  61.7770384
  99.7915342 103.9965808  60.2720384  98.5375342 106.0845808  59.9490384
  99.8785342 107.0335808  60.5370384  99.8025342 105.3905808  57.9620384
  99.8755342 107.1285808  58.0820384 102.1115342 106.1005808  57.5230384
 102.1575342 107.0425808  58.9890384 101.9625342 104.0075808  58.7970384
 103.3615342 104.9015808  59.3410384 102.0505342 105.7795808  61.2720384
 101.9115342 102.9605808  61.0530384 115.6525342  37.5185808  66.0290384
 114.9435342  38.7245808  66.6760384 113.4365342  38.4645808  66.8810384
 112.7425342  37.9925808  65.5860384 113.4705342  36.7925808  64.9490384
 114.9655342  37.0935808  64.7120384 115.6275342  36.0025808  64.1080384
 116.7065342  37.7435808  65.8560384 115.6275342  36.6865808  66.7370384
 115.4135342  38.9655808  67.6310384 115.0755342  39.6045808  66.0440384
 113.3055342  37.7075808  67.6560384 112.9515342  39.3665808  67.2560384
 111.7045342  37.7305808  65.7940384 112.7095342  38.8165808  64.8720384
 113.3725342  35.9385808  65.6210384 112.9835342  36.5055808  64.0150384
 115.0215342  37.9425808  64.0270384 115.5825342  35.2525808  64.7070384
  99.2595342 112.4845808 122.5970384 100.3215342 111.3665808 122.5910384
 100.0045342 110.2655808 123.6240384  99.7565342 110.8405808 125.0350384
  98.6995342 111.9625808 125.0210384  99.0625342 113.0735808 124.0120384
  98.1055342 114.1115808 124.0140384  99.5285342 113.2695808 121.8890384
  98.3155342 112.0615808 122.2450384 100.3975342 110.9305808 121.5930384
 101.3005342 111.7955808 122.8090384  99.1205342 109.7135808 123.3010384
 100.8185342 109.5405808 123.6560384  99.4455342 110.0445808 125.7120384
 100.6935342 111.2305808 125.4360384  97.7385342 111.5225808 124.7480384
  98.5735342 112.3785808 126.0220384 100.0185342 113.4965808 124.3250384
  97.2605342 113.7445808 123.7390384  54.4165342  35.0015808  73.6470384
  53.6855342  36.3595808  73.6480384  52.2795342  36.2565808  73.0220384
  52.3075342  35.5985808  71.6250384  53.0505342  34.2475808  71.6420384
  54.4695342  34.3855808  72.2310384  55.1585342  33.1535808  72.2260384
  55.4225342  35.1105808  74.0560384  53.8825342  34.3255808  74.3180384
  53.6115342  36.7415808  74.6680384  54.2765342  37.0895808  73.0930384
  51.6345342  35.6725808  73.6810384  51.8285342  37.2475808  72.9570384
  51.2905342  35.4595808  71.2590384  52.7955342  36.2715808  70.9190384
  52.4705342  33.5475808  72.2460384  53.0905342  33.8245808  70.6360384
  55.0195342  35.0815808  71.5940384  54.6785342  32.5365808  72.7860384
 114.2515342  77.6425808 111.8820384 112.7635342  77.8145808 111.5140384
 111.9085342  78.2005808 112.7390384 112.1185342  77.2365808 113.9260384
 113.6105342  77.0685808 114.2740384 114.4365342  76.6395808 113.0430384
 115.8005342  76.4655808 113.3660384 114.8265342  77.3295808 111.0090384
 114.6455342  78.6175808 112.1780384 112.6585342  78.5705808 110.7340384
 112.3855342  76.8835808 111.0880384 112.1635342  79.2145808 113.0510384
 110.8535342  78.2255808 112.4620384 111.5705342  77.5945808 114.7980384
 111.6925342  76.2625808 113.6810384 113.9825342  78.0245808 114.6470384
 113.7325342  76.3525808 115.0880384 114.0445342  75.6775808 112.7080384
 116.1515342  77.3095808 113.6620384 109.6425342  50.8295808  60.5860384
 108.1025342  50.9085808  60.5570384 107.5565342  51.8955808  61.6090384
 108.1085342  51.6105808  63.0210384 109.6475342  51.5265808  63.0300384
 110.1675342  50.4995808  62.0020384 111.5765342  50.4065808  62.0240384
 110.0005342  50.0945808  59.8630384 110.0395342  51.7955808  60.2670384
 107.7635342  51.1985808  59.5610384 107.6855342  49.9165808  60.7400384
 107.8215342  52.9135808  61.3180384 106.4665342  51.8585808  61.6210384
 107.7745342  52.3825808  63.7150384 107.6925342  50.6715808  63.3900384
 110.0445342  52.5145808  62.7910384 110.0095342  51.2845808  64.0310384
 109.7615342  49.5265808  62.2810384 111.9405342  51.2615808  61.7790384
 106.1685342 108.9395808  79.2950384 105.2495342 107.7425808  79.6100384
 105.3585342 106.6365808  78.5400384 105.1515342 107.1825808  77.1110384
 106.0715342 108.3835808  76.8170384 105.9115342 109.4955808  77.8760384
 106.7375342 110.6055808  77.5960384 106.0425342 109.7245808  80.0430384
 107.2055342 108.6045808  79.3720384 105.4925342 107.3345808  80.5930384
 104.2155342 108.0855808  79.6720384 106.3405342 106.1665808  78.6070384
 104.6315342 105.8485808  78.7450384 105.3275342 106.3915808  76.3820384
 104.1105342 107.4835808  76.9860384 107.1035342 108.0305808  76.8130384
 105.8775342 108.7755808  75.8170384 104.8735342 109.8305808  77.8410384
 107.6535342 110.3155808  77.6260384 128.4465342  71.4005808  92.2410384
 126.9845342  71.8915808  92.2190384 126.0415342  70.9265808  92.9660384
 126.1865342  69.4695808  92.4760384 127.6535342  68.9995808  92.4970384
 128.5695342  69.9565808  91.7050384 129.9105342  69.5155808  91.7060384
 129.0845342  72.0775808  91.6710384 128.8025342  71.4365808  93.2730384
 126.9195342  72.8895808  92.6560384 126.6525342  71.9925808  91.1840384
 126.2575342  70.9685808  94.0350384 125.0075342  71.2555808  92.8530384
 125.5745342  68.8085808  93.0890384 125.7945342  69.3895808  91.4610384
 127.9835342  68.9575808  93.5360384 127.7325342  67.9825808  92.1080384
 128.2175342  69.9625808  90.6720384 130.2265342  69.5085808  92.6130384
 128.7975342  83.3445808  60.6090384 130.1235342  82.5895808  60.3920384
 130.8865342  83.1105808  59.1560384 130.0035342  83.1365808  57.8900384
 128.6785342  83.8865808  58.1290384 127.9125342  83.3175808  59.3420384
 126.6895342  83.9915808  59.5490384 128.2575342  82.9295808  61.4620384
 129.0315342  84.3805808  60.8670384 130.7505342  82.6745808  61.2800384
 129.9175342  81.5245808  60.2670384 131.2525342  84.1185808  59.3590384
 131.7715342  82.4975808  58.9800384 130.5485342  83.5955808  57.0660384
 129.7885342  82.1135808  57.5780384 128.9105342  84.9395808  58.3050384
 128.0565342  83.8555808  57.2330384 127.6895342  82.2725808  59.1240384
 126.8795342  84.9135808  59.7420384  39.7655342  84.5395808  69.9230384
  38.9775342  84.7605808  68.6160384  37.9495342  85.9035808  68.7500384
  37.0275342  85.7205808  69.9750384  37.8315342  85.4915808  71.2690384
  38.8205342  84.3155808  71.1250384  39.5415342  84.0915808  72.3170384
  40.4545342  83.6995808  69.8150384  40.3815342  85.4225808  70.1040384
  39.6665342  84.9735808  67.7970384  38.4605342  83.8385808  68.3440384
  38.4785342  86.8535808  68.8370384  37.3505342  85.9725808  67.8410384
  36.3815342  86.5915808  70.0870384  36.3645342  84.8715808  69.8050384
  38.3835342  86.4065808  71.4940384  37.1575342  85.3255808  72.1110384
  38.2315342  83.4205808  70.9140384  40.0625342  84.8755808  72.5090384
  58.1615342  99.0305808  73.7050384  59.5725342  99.2375808  73.1200384
  60.6695342  99.0855808  74.1950384  60.4045342  99.9695808  75.4320384
  58.9865342  99.7555808  75.9970384  57.9055342  99.9575808  74.9150384
  56.6055342  99.7825808  75.4370384  57.4035342  99.1845808  72.9360384
  58.0725342  97.9885808  74.0210384  59.7465342  98.5305808  72.3070384
  59.6385342 100.2325808  72.6750384  60.7255342  98.0405808  74.5050384
  61.6445342  99.3265808  73.7670384  61.1475342  99.7635808  76.2020384
  60.5315342 101.0185808  75.1600384  58.9255342  98.7375808  76.3880384
  58.8115342 100.4205808  76.8450384  57.9905342 100.9865808  74.5590384
  56.5245342  98.8785808  75.7510384  67.6045342  24.3045808  79.6890384
  67.6945342  25.8015808  79.3340384  66.7985342  26.1635808  78.1310384
  67.0555342  25.2495808  76.9140384  66.9715342  23.7565808  77.2890384
  67.9095342  23.4115808  78.4650384  67.8475342  22.0395808  78.7950384
  68.2785342  24.0665808  80.5140384  66.5935342  24.0985808  80.0460384
  67.4185342  26.4065808  80.1990384  68.7305342  26.0585808  79.1040384
  65.7515342  26.0835808  78.4260384  66.9555342  27.2065808  77.8520384
  66.3425342  25.4755808  76.1210384  68.0435342  25.4635808  76.5030384
  65.9395342  23.5335808  77.5680384  67.1965342  23.1335808  76.4220384
  68.9285342  23.6355808  78.1440384  66.9525342  21.8365808  79.0790384
  26.3595342  57.7665808  92.5160384  26.1545342  58.8685808  91.4580384
  24.8475342  59.6555808  91.6930384  23.6215342  58.7265808  91.8280384
  23.8485342  57.6255808  92.8820384  25.1375342  56.8245808  92.6010384
  25.3345342  55.8025808  93.5540384  27.2675342  57.1985808  92.3040384
  26.5155342  58.2465808  93.4850384  27.0055342  59.5515808  91.4610384
  26.1315342  58.4175808  90.4640384  24.9465342  60.2535808  92.5990384
  24.6895342  60.3635808  90.8780384  22.7385342  59.3115808  92.0840384
  23.4095342  58.2645808  90.8620384  23.9225342  58.1015808  93.8620384
  22.9855342  56.9595808  92.9290384  25.0205342  56.3545808  91.6220384
  25.4385342  56.2095808  94.4180384  60.1395342  26.7745808 107.6300384
  58.7085342  26.2585808 107.3780384  58.4095342  26.1025808 105.8720384
  58.7265342  27.3865808 105.0760384  60.1565342  27.8925808 105.3480384
  60.4165342  28.0835808 106.8570384  61.7195342  28.5675808 107.1040384
  60.3115342  26.9165808 108.6980384  60.8425342  26.0045808 107.3040384
  58.5615342  25.3055808 107.8880384  57.9905342  26.9525808 107.8190384
  59.0005342  25.2775808 105.4730384  57.3645342  25.8235808 105.7280384
  58.5905342  27.2055808 104.0100384  58.0105342  28.1645808 105.3450384
  60.8595342  27.1595808 104.9470384  60.3405342  28.8215808 104.8050384
  59.7055342  28.8305808 107.2160384  62.3495342  27.9135808 106.7900384
  75.1945342  33.6515808 102.3300384  73.9925342  32.8795808 102.9110384
  74.4325342  31.8165808 103.9380384  75.5255342  30.8795808 103.3790384
  76.7135342  31.6675808 102.7940384  76.2515342  32.6935808 101.7370384
  77.3425342  33.4005808 101.1860384  74.8595342  34.3665808 101.5760384
  75.6445342  34.2375808 103.1340384  73.2905342  33.5765808 103.3730384
  73.4465342  32.3945808 102.0990384  74.8105342  32.3145808 104.8320384
  73.5705342  31.2305808 104.2600384  75.8745342  30.2055808 104.1620384
  75.0945342  30.2445808 102.6030384  77.2135342  32.1885808 103.6130384
  77.4515342  30.9845808 102.3700384  75.7705342  32.1345808 100.9320384
  77.7705342  33.8945808 101.8910384 132.9315342  96.8795808  48.8120384
 133.4855342  95.4525808  48.6330384 132.8765342  94.4665808  49.6520384
 133.0035342  94.9745808  51.1050384 132.4535342  96.4055808  51.2620384
 133.1105342  97.3805808  50.2630384 132.6225342  98.6965808  50.4210384
 133.4085342  97.5645808  48.1090384 131.8695342  96.8685808  48.5600384
 133.2945342  95.1025808  47.6170384 134.5715342  95.4675808  48.7480384
 131.8235342  94.3115808  49.4160384 133.3555342  93.4905808  49.5570384
 132.4815342  94.2975808  51.7820384 134.0515342  94.9535808  51.4050384
 131.3765342  96.3775808  51.0900384 132.5915342  96.7545808  52.2870384
 134.1815342  97.3905808  50.4740384 131.6795342  98.6945808  50.2360384
  76.8555342 133.9675808  92.4530384  75.4935342 133.4635808  92.9720384
  74.8465342 134.4635808  93.9530384  75.8035342 134.8675808  95.0940384
  77.1625342 135.3585808  94.5570384  77.8105342 134.3225808  93.6140384
  79.0645342 134.7625808  93.1390384  77.3105342 133.2245808  91.7950384
  76.6805342 134.8555808  91.8410384  74.8215342 133.2765808  92.1330384
  75.6285342 132.5025808  93.4720384  74.5415342 135.3575808  93.4060384
  73.9315342 134.0375808  94.3680384  75.3445342 135.6415808  95.7090384
  75.9625342 134.0115808  95.7520384  76.9975342 136.2915808  94.0150384
  77.8335342 135.5985808  95.3830384  77.9705342 133.4115808  94.1940384
  78.9295342 135.5645808  92.6270384 104.8355342  75.9375808  21.7270384
 104.1315342  77.3085808  21.7300384 104.7415342  78.2675808  22.7740384
 104.8115342  77.6335808  24.1790384 105.5105342  76.2605808  24.1560384
 104.8545342  75.3055808  23.1370384 105.4805342  74.0395808  23.1300384
 104.3595342  75.2655808  21.0120384 105.8615342  76.0805808  21.3800384
 104.1845342  77.7565808  20.7360384 103.0695342  77.1705808  21.9430384
 105.7455342  78.5515808  22.4570384 104.1635342  79.1925808  22.8110384
 105.3315342  78.3045808  24.8640384 103.8015342  77.5195808  24.5760384
 106.5575342  76.4155808  23.8880384 105.5115342  75.8175808  25.1530384
 103.8165342  75.1655808  23.4450384 106.3955342  74.1555808  22.8600384
 107.6975342  27.1175808  55.8840384 109.0765342  27.2655808  56.5580384
 110.2265342  27.2315808  55.5300384 110.1475342  25.9985808  54.6050384
 108.7605342  25.8605808  53.9470384 107.6315342  25.8525808  54.9990384
 106.3615342  25.7045808  54.3990384 106.9055342  27.1025808  56.6350384
 107.5215342  28.0015808  55.2670384 109.1145342  28.1955808  57.1280384
 109.2145342  26.4605808  57.2820384 110.1935342  28.1385808  54.9230384
 111.1875342  27.2485808  56.0460384 110.9195342  26.0595808  53.8370384
 110.3665342  25.0985808  55.1820384 108.6205342  26.7035808  53.2680384
 108.7195342  24.9605808  53.3320384 107.7985342  24.9915808  55.6490384
 106.2075342  26.4605808  53.8250384  23.3715342  78.8755808  93.0730384
  22.8835342  79.8915808  92.0210384  22.0365342  81.0145808  92.6550384
  20.8865342  80.4615808  93.5230384  21.3915342  79.4415808  94.5620384
  22.1975342  78.3045808  93.8990384  22.6415342  77.3575808  94.8480384
  23.9315342  78.0705808  92.5950384  24.0715342  79.3845808  93.7400384
  23.7375342  80.3215808  91.4940384  22.2905342  79.3735808  91.2650384
  22.6795342  81.6465808  93.2700384  21.6345342  81.6625808  91.8740384
  20.3725342  81.2805808  94.0250384  20.1445342  79.9865808  92.8800384
  22.0265342  79.9685808  95.2770384  20.5555342  79.0355808  95.1350384
  21.5285342  77.7945808  93.2030384  23.2325342  77.8005808  95.4630384
  50.8265342  93.5885808  62.5710384  50.8795342  93.2695808  64.0790384
  52.3305342  93.1735808  64.5960384  53.1885342  92.2045808  63.7540384
  53.1155342  92.5325808  62.2500384  51.6565342  92.5785808  61.7470384
  51.5905342  92.8575808  60.3650384  49.7925342  93.6085808  62.2220384
  51.2235342  94.5945808  62.4200384  50.3345342  94.0305808  64.6400384
  50.3645342  92.3265808  64.2690384  52.7855342  94.1645808  64.5770384
  52.3325342  92.8595808  65.6410384  54.2245342  92.2355808  64.0920384
  52.8465342  91.1825808  63.9190384  53.5875342  93.5035808  62.0890384
  53.6975342  91.8095808  61.6750384  51.2245342  91.5895808  61.9130384
  51.9695342  93.7275808  60.2130384  36.0395342 123.8025808  87.3120384
  36.6785342 125.1525808  87.6940384  36.1045342 126.3175808  86.8610384
  36.1685342 126.0385808  85.3440384  35.5335342 124.6815808  84.9820384
  36.1555342 123.5265808  85.7960384  35.5895342 122.2805808  85.4490384
  36.4915342 122.9905808  87.8850384  34.9845342 123.8305808  87.5960384
  36.5295342 125.3465808  88.7580384  37.7575342 125.0975808  87.5440384
  35.0665342 126.4895808  87.1510384  36.6405342 127.2385808  87.0930384
  35.6705342 126.8395808  84.7970384  37.2095342 126.0495808  85.0180384
  34.4635342 124.7395808  85.1900384  35.6275342 124.4905808  83.9110384
  37.2185342 123.4935808  85.5520384  34.6525342 122.3035808  85.6620384
  36.1735342  42.0715808  71.4770384  35.8875342  40.8365808  72.3540384
  37.0355342  39.8075808  72.2900384  37.4045342  39.4325808  70.8390384
  37.6775342  40.6785808  69.9760384  36.4975342  41.6715808  70.0200384
  36.7375342  42.8045808  69.2120384  35.3305342  42.7635808  71.5060384
  37.0255342  42.6055808  71.9050384  35.7205342  41.1445808  73.3880384
  34.9595342  40.3645808  72.0250384  37.9135342  40.2175808  72.7900384
  36.7615342  38.9105808  72.8480384  38.2765342  38.7775808  70.8350384
  36.5915342  38.8555808  70.3970384  38.5785342  41.1655808  70.3550384
  37.8965342  40.3875808  68.9470384  35.6225342  41.1545808  69.6230384
  37.5075342  43.2645808  69.5570384 124.8735342  61.7685808  81.5790384
 123.7435342  62.7305808  81.1590384 124.1195342  63.5485808  79.9070384
 125.4805342  64.2625808  80.0610384 126.5945342  63.2875808  80.4900384
 126.2135342  62.5145808  81.7690384 127.2425342  61.6365808  82.1750384
 124.5995342  61.2335808  82.4900384 124.9855342  61.0125808  80.7990384
 122.8255342  62.1695808  80.9760384 123.5225342  63.4115808  81.9840384
 124.1585342  62.8845808  79.0420384 123.3385342  64.2795808  79.6920384
 125.7525342  64.7505808  79.1250384 125.3895342  65.0575808  80.8020384
 126.7625342  62.5825808  79.6740384 127.5345342  63.8235808  80.6300384
 126.0665342  63.2505808  82.5620384 127.3765342  60.9855808  81.4800384
 138.4995342  60.3335808  84.1810384 137.5505342  60.7755808  83.0500384
 138.0875342  60.3765808  81.6590384 139.5395342  60.8505808  81.4350384
 140.4715342  60.4085808  82.5800384 139.9355342  60.8585808  83.9560384
 140.8005342  60.4725808  85.0030384 138.1185342  60.6635808  85.1490384
 138.5125342  59.2415808  84.2110384 136.5605342  60.3435808  83.2040384
 137.4175342  61.8575808  83.0890384 138.0445342  59.2915808  81.5550384
 137.4395342  60.7815808  80.8810384 139.9115342  60.4705808  80.4830384
 139.5555342  61.9385808  81.3540384 140.5475342  59.3205808  82.5560384
 141.4815342  60.7905808  82.4170384 139.8865342  61.9485808  83.9450384
 140.8485342  59.5125808  85.0180384  84.9415342  54.0215808 120.3040384
  85.2315342  52.8755808 121.2930384  86.7425342  52.7125808 121.5580384
  87.5565342  52.5895808 120.2520384  87.2465342  53.7385808 119.2720384
  85.7335342  53.8525808 118.9890384  85.4515342  54.8915808 118.0750384
  83.8715342  54.0885808 120.1020384  85.2245342  54.9635808 120.7800384
  84.7055342  53.0515808 122.2330384  84.8315342  51.9415808 120.8930384
  87.1025342  53.5715808 122.1260384  86.9175342  51.8385808 122.1880384
  88.6225342  52.5705808 120.4780384  87.3305342  51.6355808 119.7740384
  87.6055342  54.6695808 119.7150384  87.8035342  53.6065808 118.3430384
  85.4165342  52.9105808 118.5370384  85.7285342  55.7235808 118.4680384
  85.4495342 135.1535808  81.4220384  86.5195342 135.7085808  80.4600384
  87.3915342 136.7905808  81.1320384  86.5435342 137.9045808  81.7830384
  85.4735342 137.3305808  82.7330384  84.5865342 136.2835808  82.0260384
  83.5935342 135.7735808  82.8890384  84.8205342 134.4225808  80.9110384
  85.9585342 134.6155808  82.2250384  87.1495342 134.8965808  80.0950384
  86.0315342 136.1325808  79.5800384  88.0185342 136.3245808  81.8930384
  88.0745342 137.2235808  80.4000384  87.1895342 138.5955808  82.3240384
  86.0575342 138.4915808  81.0030384  85.9835342 136.8645808  83.5780384
  84.8635342 138.1345808  83.1480384  84.0855342 136.7885808  81.1980384
  84.0275342 135.3265808  83.6210384  46.5555342  84.3555808  53.0420384
  45.9885342  83.9575808  54.4190384  44.4545342  84.1195808  54.4790384
  43.9975342  85.5245808  54.0330384  44.5805342  85.9095808  52.6600384
  46.1185342  85.7825808  52.6390384  46.6555342  86.1555808  51.3880384
  47.6435342  84.2725808  53.0390384  46.1895342  83.6415808  52.3010384
  46.2635342  82.9265808  54.6510384  46.4475342  84.5745808  55.1930384
  43.9885342  83.3695808  53.8380384  44.0995342  83.9165808  55.4900384
  42.9085342  85.5685808  54.0010384  44.3075342  86.2595808  54.7770384
  44.1495342  85.2455808  51.9080384  44.2755342  86.9215808  52.3870384
  46.5115342  86.4675808  53.3920384  46.3135342  85.5555808  50.7200384
 123.5465342  80.6465808 118.0000384 123.4945342  82.0095808 117.2810384
 124.8675342  82.7145808 117.2850384 125.4705342  82.8135808 118.7030384
 125.5055342  81.4435808 119.4090384 124.1125342  80.7795808 119.4320384
 124.1395342  79.5345808 120.0970384 122.5555342  80.1885808 118.0200384
 124.1835342  79.9775808 117.4180384 123.1475342  81.8765808 116.2560384
 122.7575342  82.6495808 117.7700384 125.5545342  82.1655808 116.6400384
 124.7745342  83.7105808 116.8500384 126.4765342  83.2315808 118.6510384
 124.8825342  83.5135808 119.2980384 126.2065342  80.8015808 118.8730384
 125.8975342  81.5485808 120.4220384 123.4445342  81.4435808 119.9850384
 124.7255342  78.9455808 119.6140384  55.9885342  73.2335808 114.7350384
  54.5055342  72.8545808 114.5470384  53.6165342  73.4385808 115.6650384
  54.1445342  73.0905808 117.0740384  55.6295342  73.4665808 117.2400384
  56.5035342  72.8345808 116.1370384  57.8675342  73.1615808 116.3010384
  56.6005342  72.7745808 113.9570384  56.0845342  74.3135808 114.6060384
  54.1535342  73.1995808 113.5740384  54.4075342  71.7675808 114.5370384
  53.5695342  74.5225808 115.5570384  52.5935342  73.0775808 115.5520384
  53.5445342  73.5965808 117.8310384  54.0195342  72.0215808 117.2530384
  55.7125342  74.5545808 117.1930384  55.9875342  73.1735808 118.2290384
  56.4045342  71.7515808 116.2240384  57.9615342  74.1155808 116.2250384
  90.6835342 119.0495808 120.0150384  91.8545342 119.0215808 121.0170384
  91.5185342 118.1905808 122.2730384  90.1905342 118.6285808 122.9250384
  89.0325342 118.6605808 121.9080384  89.3765342 119.5335808 120.6830384
  88.3085342 119.5805808 119.7600384  90.9305342 119.6775808 119.1570384
  90.5405342 118.0385808 119.6270384  92.7475342 118.6215808 120.5340384
  92.1025342 120.0425808 121.3140384  91.4535342 117.1365808 121.9990384
  92.3315342 118.2655808 122.9960384  89.9425342 117.9595808 123.7500384
  90.3125342 119.6195808 123.3650384  88.8365342 117.6365808 121.5830384
  88.1165342 119.0115808 122.3860384  89.5525342 120.5475808 121.0460384
  88.1485342 118.6895808 119.4370384  75.8945342  91.3185808  31.4560384
  76.2115342  92.8275808  31.4810384  75.3845342  93.6065808  30.4370384
  75.5035342  92.9985808  29.0240384  75.1935342  91.4885808  29.0200384
  76.0645342  90.7255808  30.0400384  75.7955342  89.3395808  30.0220384
  76.5225342  90.7855808  32.1730384  74.8635342  91.1805808  31.7870384
  76.0275342  93.2305808  32.4780384  77.2745342  92.9785808  31.2850384
  74.3365342  93.6095808  30.7390384  75.6975342  94.6515808  30.4200384
  74.8345342  93.5175808  28.3370384  76.5135342  93.1615808  28.6440384
  74.1395342  91.3565808  29.2700384  75.3245342  91.0755808  28.0180384
  77.1065342  90.8705808  29.7490384  74.8785342  89.2055808  30.2770384
  58.0665342 103.5125808 114.3180384  57.8095342 104.9995808 114.6350384
  56.3195342 105.3715808 114.4840384  55.7465342 104.9485808 113.1150384
  56.0205342 103.4625808 112.8120384  57.5225342 103.1255808 112.9250384
  57.7775342 101.7695808 112.6260384  59.1315342 103.2855808 114.3910384
  57.5695342 102.9105808 115.0820384  58.1505342 105.2305808 115.6450384
  58.4075342 105.6215808 113.9650384  55.7475342 104.8895808 115.2780384
  56.1885342 106.4455808 114.6270384  54.6745342 105.1435808 113.0840384
  56.1895342 105.5655808 112.3310384  55.4575342 102.8595808 113.5260384
  55.6415342 103.2005808 111.8220384  58.0485342 103.7375808 112.1890384
  57.3165342 101.2265808 113.2710384  42.7795342  35.3385808  64.1680384
  42.6585342  33.9565808  64.8400384  41.9495342  32.9335808  63.9280384
  40.5965342  33.4585808  63.4020384  40.7345342  34.8445808  62.7430384
  41.4055342  35.8605808  63.6910384  41.5135342  37.1365808  63.0950384
  43.2455342  36.0535808  64.8490384  43.4505342  35.2455808  63.3120384
  43.6485342  33.5875808  65.1140384  42.1025342  34.0545808  65.7740384
  42.5965342  32.6975808  63.0820384  41.8005342  31.9965808  64.4660384
  40.1725342  32.7475808  62.6910384  39.8865342  33.5185808  64.2280384
  41.3385342  34.7335808  61.8400384  39.7585342  35.2095808  62.4170384
  40.7685342  35.9535808  64.5720384  42.0735342  37.0615808  62.3180384
  77.9325342  58.3405808  35.2490384  76.5075342  58.0925808  34.7160384
  76.5115342  57.7045808  33.2220384  77.3015342  58.7105808  32.3580384
  78.7195342  58.9525808  32.9110384  78.6865342  59.3825808  34.3930384
  79.9845342  59.6255808  34.8940384  77.8995342  58.6535808  36.2940384
  78.4745342  57.3925808  35.2280384  76.0205342  57.3115808  35.3020384
  75.9075342  58.9945808  34.8540384  76.9495342  56.7125808  33.1100384
  75.4865342  57.6255808  32.8570384  77.3585342  58.3525808  31.3300384
  76.7615342  59.6575808  32.3200384  79.2865342  58.0245808  32.8140384
  79.2415342  59.6965808  32.3070384  78.1245342  60.3165808  34.4480384
  80.4845342  58.8055808  34.8490384  47.3555342 121.8455808 110.2180384
  48.1415342 123.1585808 110.4050384  49.3745342 122.9665808 111.3140384
  49.0135342 122.2945808 112.6560384  48.2195342 120.9895808 112.4500384
  46.9685342 121.2165808 111.5760384  46.2295342 120.0255808 111.4040384
  46.4665342 122.0165808 109.6080384  47.9835342 121.1475808 109.6600384
  48.4515342 123.5485808 109.4350384  47.4855342 123.9145808 110.8400384
  50.1125342 122.3555808 110.7930384  49.8535342 123.9295808 111.4970384
  49.9195342 122.0935808 113.2270384  48.4225342 122.9865808 113.2590384
  48.8765342 120.2645808 111.9650384  47.9425342 120.5575808 113.4130384
  46.3335342 121.9345808 112.0980384  46.7835342 119.3885808 110.9450384
 101.2555342  33.2415808 106.1910384  99.8655342  33.9075808 106.2270384
  99.6845342  34.7955808 107.4760384 100.0175342  34.0425808 108.7820384
 101.4055342  33.3755808 108.7240384 101.5445342  32.4585808 107.4910384
 102.8085342  31.8305808 107.4480384 101.3415342  32.5875808 105.3220384
 102.0065342  34.0245808 106.0630384  99.7115342  34.4995808 105.3240384
  99.0935342  33.1355808 106.2180384 100.3315342  35.6695808 107.3910384
  98.6635342  35.1775808 107.5160384  99.9675342  34.7275808 109.6290384
  99.2575342  33.2815808 108.9640384 102.1605342  34.1635808 108.6800384
 101.5985342  32.8175808 109.6420384 100.7855342  31.6795808 107.5780384
 103.4825342  32.5115808 107.3710384  52.9315342 110.1215808  98.1460384
  53.4675342 111.1445808  99.1680384  52.5315342 112.3625808  99.3090384
  52.1985342 113.0055808  97.9450384  51.6735342 111.9675808  96.9340384
  52.6485342 110.7815808  96.7780384  52.1785342 109.8405808  95.8360384
  53.6315342 109.2915808  98.0350384  52.0075342 109.6955808  98.5420384
  53.6035342 110.6645808 100.1390384  54.4575342 111.4835808  98.8570384
  51.6055342 112.0505808  99.7940384  52.9835342 113.1045808  99.9690384
  51.4645342 113.8005808  98.0780384  53.0925342 113.4825808  97.5430384
  50.7085342 111.6015808  97.2910384  51.4845342 112.4395808  95.9680384
  53.5935342 111.1835808  96.4090384  51.3455342 109.4815808  96.1560384
  54.7485342  45.1105808 112.8510384  53.9195342  46.2525808 112.2310384
  54.8035342  47.2435808 111.4450384  55.9915342  47.7605808 112.2850384
  56.8025342  46.6055808 112.9050384  55.9035342  45.6535808 113.7220384
  56.6485342  44.6075808 114.3080384  54.1065342  44.4475808 113.4360384
  55.1585342  44.5055808 112.0400384  53.1495342  45.8415808 111.5760384
  53.3905342  46.7875808 113.0210384  55.1845342  46.7525808 110.5480384
  54.2005342  48.0835808 111.0970384  56.6405342  48.3825808 111.6680384
  55.6185342  48.4085808 113.0790384  57.2795342  46.0505808 112.0950384
  57.6095342  46.9985808 113.5250384  55.4565342  46.2405808 114.5270384
  57.0445342  44.0865808 113.6040384 129.4055342  54.3015808  62.8500384
 128.2455342  53.2955808  62.9950384 128.7535342  51.8435808  63.1070384
 129.7205342  51.4715808  61.9620384 130.8675342  52.4925808  61.8260384
 130.3335342  53.9315808  61.6700384 131.3835342  54.8645808  61.5240384
 129.0195342  55.3145808  62.7300384 129.9795342  54.2975808  63.7790384
 127.6425342  53.5475808  63.8690384 127.5815342  53.3815808  62.1330384
 129.2625342  51.7125808  64.0630384 127.9085342  51.1535808  63.1180384
 130.1275342  50.4735808  62.1280384 129.1675342  51.4205808  61.0240384
 131.4885342  52.4285808  62.7210384 131.5125342  52.2285808  60.9850384
 129.7305342  53.9575808  60.7610384 131.9185342  54.8465808  62.3220384
 128.0785342 108.7545808  70.2850384 129.2655342 109.4355808  70.9950384
 128.8535342 110.0355808  72.3560384 127.6225342 110.9595808  72.2390384
 126.4505342 110.2655808  71.5190384 126.8755342 109.7135808  70.1420384
 125.7965342 109.0965808  69.4720384 128.3855342 108.3755808  69.3080384
 127.7815342 107.8835808  70.8740384 130.0765342 108.7195808  71.1340384
 129.6645342 110.2255808  70.3570384 128.6315342 109.2265808  73.0530384
 129.6915342 110.5855808  72.7870384 127.3085342 111.2875808  73.2310384
 127.8985342 111.8635808  71.6950384 126.1005342 109.4455808  72.1480384
 125.6085342 110.9525808  71.4140384 127.2055342 110.5615808  69.5390384
 125.5015342 108.3475808  69.9980384  44.6445342 100.6035808  44.8250384
  45.5895342 101.7795808  45.1470384  45.5665342 102.8555808  44.0420384
  45.8165342 102.2605808  42.6400384  44.8705342 101.0825808  42.3390384
  44.9445342  99.9985808  43.4350384  44.0935342  98.9085808  43.1490384
  44.7115342  99.8375808  45.5990384  43.6175342 100.9755808  44.8450384
  45.3175342 102.2235808  46.1060384  46.6075342 101.4035808  45.2650384
  44.5985342 103.3595808  44.0520384  46.3095342 103.6245808  44.2580384
  45.6995342 103.0355808  41.8810384  46.8505342 101.9215808  42.5700384
  43.8515342 101.4695808  42.2790384  45.0945342 100.6545808  41.3600384
  45.9715342  99.6275808  43.4560384  43.1875342  99.2285808  43.1300384
  72.9245342  94.0565808 135.9180384  72.8425342  92.5695808 136.3150384
  72.7555342  92.3855808 137.8450384  73.8795342  93.1385808 138.5890384
  73.9515342  94.6205808 138.1720384  74.0835342  94.7765808 136.6430384
  74.1715342  96.1325808 136.2620384  73.0275342  94.1575808 134.8360384
  71.9775342  94.5335808 136.1830384  71.9815342  92.1015808 135.8340384
  73.7225342  92.0445808 135.9370384  71.7875342  92.7475808 138.1950384
  72.7905342  91.3245808 138.0940384  73.7285342  93.0605808 139.6660384
  74.8355342  92.6565808 138.3820384  73.0395342  95.1145808 138.5120384
  74.7785342  95.1185808 138.6820384  75.0105342  94.2815808 136.3450384
  73.3575342  96.5735808 136.5220384  25.3985342  67.7125808  46.5620384
  24.3425342  67.3715808  45.4920384  24.9905342  66.9145808  44.1680384
  26.0495342  67.9155808  43.6590384  27.0915342  68.2515808  44.7450384
  26.4205342  68.7485808  46.0430384  27.3755342  69.0765808  47.0300384
  24.9165342  68.0725808  47.4730384  25.9205342  66.7915808  46.8330384
  23.6705342  66.5965808  45.8650384  23.7195342  68.2485808  45.3060384
  25.4585342  65.9405808  44.3150384  24.2205342  66.7695808  43.4090384
  26.5475342  67.5135808  42.7770384  25.5555342  68.8325808  43.3360384
  27.6675342  67.3485808  44.9550384  27.8035342  68.9895808  44.3730384
  25.8665342  69.6555808  45.7950384  27.8665342  68.2805808  47.2530384
  76.9545342  18.5975808  65.0040384  76.2465342  17.2745808  64.6480384
  75.0845342  16.9655808  65.6150384  75.5225342  17.0255808  67.0950384
  76.2355342  18.3505808  67.4290384  77.4205342  18.6155808  66.4770384
  78.0875342  19.8175808  66.7960384  77.7965342  18.7715808  64.3320384
  76.2515342  19.4165808  64.8350384  75.8775342  17.3135808  63.6220384
  76.9695342  16.4575808  64.6790384  74.2795342  17.6815808  65.4490384
  74.6665342  15.9825808  65.3910384  74.6565342  16.8945808  67.7440384
  76.1905342  16.1905808  67.3080384  75.5085342  19.1605808  67.3400384
  76.5695342  18.3505808  68.4680384  78.1285342  17.7935808  66.6030384
  77.4695342  20.5455808  66.6860384  78.9885342  71.6155808  18.1650384
  78.7905342  71.3365808  16.6610384  77.3365342  70.9345808  16.3360384
  76.8375342  69.7755808  17.2250384  77.0515342  70.0665808  18.7230384
  78.5225342  70.4225808  19.0300384  78.7235342  70.6685808  20.4050384
  80.0315342  71.8555808  18.3740384  78.4075342  72.5025808  18.4270384
  79.0725342  72.2155808  16.0790384  79.4655342  70.5375808  16.3490384
  76.6855342  71.7985808  16.4740384  77.2545342  70.6585808  15.2840384
  75.7825342  69.5845808  17.0290384  77.3665342  68.8595808  16.9550384
  76.4085342  70.9025808  19.0030384  76.7285342  69.2155808  19.3260384
  79.1305342  69.5605808  18.7490384  78.1905342  71.4275808  20.6580384
 112.5275342  67.9275808  89.9380384 111.1775342  67.4265808  90.4890384
 109.9835342  68.1465808  89.8280384 110.1175342  69.6835808  89.8940384
 111.4755342  70.1655808  89.3490384 112.6545342  69.4635808  90.0560384
 113.8995342  69.9205808  89.5720384 113.3555342  67.4345808  90.4500384
 112.5975342  67.6375808  88.8880384 111.0915342  66.3495808  90.3400384
 111.1445342  67.5865808  91.5680384 109.9095342  67.8365808  88.7850384
 109.0525342  67.8335808  90.3030384 109.3045342  70.1515808  89.3380384
 110.0045342  70.0125808  90.9280384 111.5105342  69.9475808  88.2800384
 111.5605342  71.2495808  89.4440384 112.5925342  69.7145808  91.1160384
 113.9595342  69.7015808  88.6380384 122.7885342  97.3385808  49.7810384
 122.0775342  98.6815808  49.5190384 120.5575342  98.5005808  49.3240384
 120.2275342  97.4355808  48.2560384 120.9535342  96.1035808  48.5300384
 122.4765342  96.3045808  48.6760384 123.1445342  95.0825808  48.9050384
 123.8655342  97.4885808  49.8730384 122.4475342  96.9545808  50.7450384
 122.2685342  99.3715808  50.3420384 122.5035342  99.1485808  48.6280384
 120.1065342  98.2095808  50.2730384 120.1015342  99.4535808  49.0520384
 119.1505342  97.2705808  48.2160384 120.5145342  97.8085808  47.2720384
 120.5525342  95.6795808  49.4520384 120.7355342  95.3825808  47.7400384
 122.8415342  96.7165808  47.7330384 122.8275342  94.7145808  49.7350384
  64.5685342 105.8345808 119.1080384  63.8305342 106.6725808 118.0450384
  64.6645342 106.8335808 116.7570384  66.0875342 107.3585808 117.0440384
  66.8065342 106.5155808 118.1150384  65.9725342 106.4065808 119.4090384
  66.6405342 105.6525808 120.3980384  63.9765342 105.7715808 120.0230384
  64.6655342 104.8135808 118.7330384  62.8685342 106.2135808 117.8110384
  63.6035342 107.6585808 118.4550384  64.7325342 105.8695808 116.2510384
  64.1535342 107.5035808 116.0650384  66.6725342 107.3695808 116.1230384
  66.0305342 108.3955808 117.3780384  66.9765342 105.5175808 117.7060384
  67.7935342 106.9315808 118.3270384  65.8365342 107.4195808 119.7930384
  66.7635342 104.7595808 120.0650384  93.8795342  83.0445808  29.7590384
  94.6115342  82.8245808  31.0990384  94.9015342  84.1565808  31.8210384
  95.6245342  85.1715808  30.9100384  94.8835342  85.3715808  29.5730384
  94.6455342  84.0295808  28.8480384  93.9865342  84.2145808  27.6140384
  93.7235342  82.0915808  29.2490384  92.8865342  83.4445808  29.9750384
  94.0205342  82.1715808  31.7430384  95.5515342  82.2995808  30.9160384
  93.9625342  84.5895808  32.1670384  95.4975342  83.9705808  32.7170384
  95.7265342  86.1265808  31.4250384  96.6385342  84.8225808  30.7130384
  93.9245342  85.8475808  29.7830384  95.4355342  86.0615808  28.9320384
  95.6245342  83.5915808  28.6450384  93.1225342  84.5995808  27.7860384
  76.4295342  38.2045808  67.6470384  75.9145342  36.7595808  67.4940384
  74.9755342  36.3575808  68.6510384  75.6065342  36.6195808  70.0350384
  76.1235342  38.0655808  70.1660384  77.0955342  38.4285808  69.0230384
  77.5865342  39.7455808  69.1540384  77.1235342  38.4495808  66.8410384
  75.5805342  38.8835808  67.5390384  75.3985342  36.6465808  66.5390384
  76.7635342  36.0735808  67.4620384  74.0435342  36.9195808  68.5680384
  74.7025342  35.3055808  68.5590384  74.8795342  36.4115808  70.8210384
  76.4315342  35.9245808  70.1940384  75.2645342  38.7385808  70.1410384
  76.6005342  38.2125808  71.1370384  77.9445342  37.7445808  69.0890384
  76.8435342  40.3525808  69.0970384  96.1145342  89.0135808  30.5550384
  96.4935342  89.9045808  29.3550384  98.0135342  89.8975808  29.0910384
  98.8295342  90.2295808  30.3590384  98.4305342  89.3355808  31.5490384
  96.9125342  89.3945808  31.8220384  96.5495342  88.5935808  32.9250384
  95.0415342  89.0685808  30.7470384  96.3275342  87.9745808  30.2900384
  95.9585342  89.5745808  28.4630384  96.1645342  90.9275808  29.5450384
  98.3095342  88.9145808  28.7210384  98.2555342  90.6045808  28.2970384
  99.8955342  90.1235808  30.1540384  98.6755342  91.2765808  30.6240384
  98.7195342  88.3095808  31.3170384  98.9925342  89.6185808  32.4420384
  96.6655342  90.4305808  32.0620384  96.7645342  87.6795808  32.7200384
 128.0725342  89.5965808  97.2300384 128.4435342  90.3555808  98.5200384
 127.4625342  90.0475808  99.6710384 125.9905342  90.2615808  99.2590384
 125.6405342  89.5045808  97.9630384 126.6085342  89.8625808  96.8150384
 126.2755342  89.1855808  95.6220384 128.7545342  89.8635808  96.4210384
 128.2105342  88.5285808  97.4100384 129.4615342  90.1025808  98.8210384
 128.4435342  91.4285808  98.3220384 127.5985342  89.0135808  99.9920384
 127.7005342  90.6665808 100.5370384 125.3285342  89.9455808 100.0650384
 125.8065342  91.3275808  99.1160384 125.6995342  88.4335808  98.1680384
 124.6085342  89.7045808  97.6720384 126.5115342  90.9345808  96.6320384
 126.3585342  88.2405808  95.7770384  53.9545342  90.4735808  92.9780384
  54.3215342  91.6065808  91.9990384  53.2245342  92.6895808  91.9350384
  51.8285342  92.0935808  91.6560384  51.4835342  90.9565808  92.6370384
  52.5725342  89.8645808  92.6500384  52.2465342  88.8115808  93.5330384
  54.7255342  89.7005808  92.9730384  53.9385342  90.8865808  93.9890384
  55.2725342  92.0555808  92.2890384  54.4765342  91.1885808  91.0020384
  53.2015342  93.2325808  92.8810384  53.4745342  93.4265808  91.1700384
  51.0725342  92.8765808  91.7110384  51.7965342  91.7125808  90.6340384
  51.3865342  91.3865808  93.6360384  50.5105342  90.5265808  92.3930384
  52.6305342  89.4515808  91.6410384  52.1945342  89.1695808  94.4230384
  57.5745342  51.2245808 125.8930384  57.3305342  52.6295808 125.3070384
  57.1575342  52.5915808 123.7740384  58.3155342  51.8495808 123.0730384
  58.5515342  50.4515808 123.6770384  58.7655342  50.5205808 125.2040384
  59.0035342  49.2425808 125.7550384  57.7355342  51.2825808 126.9700384
  56.6685342  50.6315808 125.7470384  56.4495342  53.0775808 125.7700384
  58.1705342  53.2785808 125.5610384  56.2155342  52.0995808 123.5300384
  57.0775342  53.6075808 123.3850384  58.1105342  51.7645808 122.0050384
  59.2285342  52.4405808 123.1590384  57.6775342  49.8345808 123.4590384
  59.3995342  49.9655808 123.1910384  59.6515342  51.1335808 125.3800384
  58.2255342  48.6985808 125.6030384  35.0115342  55.9545808  93.1270384
  35.2765342  56.8305808  94.3680384  34.5875342  58.2065808  94.2590384
  34.9295342  58.9295808  92.9390384  34.6675342  58.0365808  91.7110384
  35.4035342  56.6845808  91.8230384  35.1815342  55.8755808  90.6880384
  35.5435342  55.0055808  93.2100384  33.9475342  55.7115808  93.1010384
  34.9365342  56.3135808  95.2680384  36.3515342  56.9725808  94.4890384
  33.5065342  58.0735808  94.3260384  34.8675342  58.8305808  95.1090384
  34.3525342  59.8515808  92.8600384  35.9785342  59.2295808  92.9530384
  33.5925342  57.8615808  91.6390384  34.9555342  58.5565808  90.7950384
  36.4725342  56.9005808  91.8790384  34.2425342  55.6815808  90.6330384
  92.3995342  22.0815808  80.5110384  91.7505342  20.6855808  80.5870384
  91.3695342  20.3055808  82.0340384  92.5525342  20.4635808  83.0120384
  93.1955342  21.8615808  82.9150384  93.6085342  22.1995808  81.4670384
  94.2165342  23.4705808  81.3810384  92.6985342  22.3085808  79.4860384
  91.6465342  22.8235808  80.7850384  90.8675342  20.6495808  79.9480384
  92.4435342  19.9415808  80.1890384  90.5435342  20.9365808  82.3640384
  90.9975342  19.2805808  82.0630384  92.2195342  20.2765808  84.0330384
  93.3055342  19.7035808  82.7950384  92.4675342  22.5955808  83.2670384
  94.0525342  21.9325808  83.5860384  94.3425342  21.4535808  81.1570384
  93.5745342  24.1325808  81.6540384 125.4255342  71.6825808  88.8820384
 125.9115342  70.2925808  88.4230384 126.5745342  70.3465808  87.0310384
 125.6775342  71.0375808  85.9820384 125.1935342  72.4195808  86.4620384
 124.4945342  72.3335808  87.8350384 124.0315342  73.5955808  88.2650384
 124.9235342  71.6105808  89.8490384 126.3005342  72.3175808  89.0360384
 126.6115342  69.8835808  89.1540384 125.0655342  69.6035808  88.3950384
 127.5215342  70.8835808  87.1040384 126.8245342  69.3375808  86.7000384
 126.2165342  71.1375808  85.0400384 124.8145342  70.4045808  85.7710384
 126.0615342  73.0785808  86.5350384 124.5295342  72.8685808  85.7200384
 123.6285342  71.6795808  87.7180384 124.7905342  74.1765808  88.3700384
  47.7265342  97.3505808  60.0640384  49.2525342  97.4415808  60.2620384
  49.7695342  96.3755808  61.2500384  48.9955342  96.3915808  62.5860384
  47.4725342  96.3085808  62.3680384  46.9735342  97.4135808  61.4120384
  45.5745342  97.3515808  61.2280384  47.3805342  98.1405808  59.3950384
  47.5025342  96.4045808  59.5660384  49.7595342  97.3365808  59.3020384
  49.5115342  98.4355808  60.6340384  49.6785342  95.3885808  60.7940384
  50.8345342  96.5255808  61.4350384  49.3265342  95.5665808  63.2170384
  49.2345342  97.3045808  63.1310384  47.2405342  95.3295808  61.9450384
  46.9475342  96.3625808  63.3240384  47.2105342  98.3735808  61.8730384
  45.3595342  96.5075808  60.8220384 110.3875342  91.4635808  61.0150384
 111.7105342  92.2085808  60.7460384 112.7075342  92.0505808  61.9130384
 112.0805342  92.4245808  63.2730384 110.7555342  91.6765808  63.5200384
 109.7585342  91.8875808  62.3610384 108.5365342  91.2205808  62.5960384
 109.6855342  91.6255808  60.1950384 110.5975342  90.3915808  61.0340384
 112.1605342  91.8475808  59.8200384 111.5035342  93.2685808  60.5890384
 113.0555342  91.0175808  61.9500384 113.5925342  92.6615808  61.7310384
 112.7845342  92.2105808  64.0790384 111.9015342  93.4995808  63.3050384
 110.9775342  90.6125808  63.6210384 110.3135342  91.9895808  64.4680384
 109.5525342  92.9575808  62.3000384 108.7125342  90.2775808  62.6500384
  65.9905342  94.2835808  30.0310384  66.1545342  95.8095808  29.8820384
  65.2135342  96.3865808  28.8040384  65.3385342  95.6415808  27.4580384
  65.1815342  94.1175808  27.6280384  66.1635342  93.5575808  28.6780384
  66.0355342  92.1595808  28.8190384  66.6955342  93.8945808  30.7680384
  64.9905342  94.0845808  30.4250384  65.9685342  96.2995808  30.8390384
  67.1885342  96.0385808  29.6190384  64.1825342  96.3225808  29.1550384
  65.4185342  97.4485808  28.6620384  64.5945342  96.0165808  26.7540384
  66.3115342  95.8585808  27.0140384  64.1565342  93.9135808  27.9420384
  65.3145342  93.6125808  26.6690384  67.1745342  93.7695808  28.3230384
  65.1475342  91.9665808  29.1320384 103.3575342  61.3755808  78.6990384
 101.8435342  61.5575808  78.9230384 101.0455342  60.3025808  78.5120384
 101.3825342  59.8385808  77.0780384 102.9005342  59.6715808  76.8700384
 103.6715342  60.9555808  77.2450384 105.0595342  60.8095808  77.0350384
 103.8945342  62.2905808  78.9570384 103.7145342  60.6045808  79.3850384
 101.6475342  61.7965808  79.9690384 101.4915342  62.4145808  78.3460384
 101.2635342  59.4935808  79.2110384  99.9755342  60.4975808  78.5980384
 100.8705342  58.9005808  76.8610384 100.9965342  60.5665808  76.3630384
 103.2415342  58.8455808  77.4960384 103.1135342  59.3835808  75.8390384
 103.3125342  61.7525808  76.5910384 105.3815342  60.1085808  77.6080384
  61.4385342  32.6245808  47.1100384  62.3525342  32.7525808  45.8750384
  62.4955342  31.4125808  45.1240384  62.9195342  30.2595808  46.0580384
  62.0015342  30.1525808  47.2910384  61.9095342  31.4925808  48.0510384
  61.0855342  31.3895808  49.1930384  61.3875342  33.5725808  47.6470384
  60.4245342  32.4105808  46.7640384  61.9635342  33.5175808  45.2010384
  63.3395342  33.0985808  46.1890384  61.5445342  31.1615808  44.6520384
  63.2175342  31.5175808  44.3120384  62.9195342  29.3165808  45.5100384
  63.9485342  30.4185808  46.3860384  61.0065342  29.8585808  46.9510384
  62.3465342  29.3575808  47.9550384  62.9175342  31.7465808  48.3850384
  60.1955342  31.1665808  48.9050384 122.2605342  77.1495808  66.2600384
 123.1015342  78.4115808  66.5350384 124.1125342  78.1925808  67.6800384
 123.4405342  77.6385808  68.9550384 122.5965342  76.3825808  68.6600384
 121.5635342  76.6405808  67.5420384 120.7765342  75.4975808  67.2870384
 121.5255342  77.3435808  65.4760384 122.9245342  76.3725808  65.8750384
 123.6265342  78.7145808  65.6270384 122.4385342  79.2405808  66.7910384
 124.8845342  77.4965808  67.3490384 124.6255342  79.1285808  67.9070384
 124.1985342  77.4105808  69.7050384 122.8035342  78.4085808  69.3920384
 123.2725342  75.5815808  68.3530384 122.1015342  76.0355808  69.5680384
 120.9015342  77.4355808  67.8900384 121.3545342  74.7935808  66.9800384
  50.4735342  76.4755808  25.8770384  50.3745342  77.1525808  27.2590384
  50.5795342  76.1445808  28.4100384  49.6545342  74.9155808  28.2830384
  49.7595342  74.2585808  26.8930384  49.5065342  75.2755808  25.7610384
  49.5815342  74.6695808  24.4890384  50.2835342  77.1995808  25.0830384
  51.5005342  76.1285808  25.7390384  51.1075342  77.9565808  27.3330384
  49.3955342  77.6245808  27.3620384  51.6185342  75.8135808  28.4160384
  50.4135342  76.6385808  29.3690384  49.8945342  74.1885808  29.0590384
  48.6225342  75.2205808  28.4620384  50.7625342  73.8395808  26.7900384
  49.0675342  73.4175808  26.8170384  48.4935342  75.6605808  25.8910384
  50.4725342  74.3285808  24.3680384  44.1855342  39.5905808  77.5160384
  45.0845342  40.3505808  76.5200384  46.4815342  40.6355808  77.1080384
  46.4065342  41.3255808  78.4870384  45.4975342  40.5575808  79.4650384
  44.0915342  40.3245808  78.8720384  43.2515342  39.6395808  79.7760384
  43.1905342  39.4385808  77.0930384  44.6105342  38.5955808  77.6690384
  45.1785342  39.7815808  75.5940384  44.6065342  41.2935808  76.2480384
  47.0285342  39.6965808  77.2060384  47.0575342  41.2505808  76.4150384
  47.4075342  41.4245808  78.9080384  46.0285342  42.3415808  78.3630384
  45.9655342  39.5955808  79.6820384  45.4295342  41.0875808  80.4170384
  43.6525342  41.3055808  78.6820384  43.6325342  38.7745808  79.9480384
  51.0295342 106.5395808  45.0960384  52.3225342 105.7205808  44.9110384
  52.8175342 105.7495808  43.4500384  51.7135342 105.3475808  42.4500384
  50.4255342 106.1695808  42.6550384  49.9255342 106.0895808  44.1130384
  48.7345342 106.8245808  44.2970384  50.6765342 106.4695808  46.1270384
  51.2635342 107.5925808  44.9220384  53.1005342 106.0985808  45.5760384
  52.1425342 104.6865808  45.2120384  53.1725342 106.7525808  43.2110384
  53.6795342 105.0895808  43.3380384  52.0745342 105.4705808  41.4280384
  51.4875342 104.2865808  42.5660384  50.6415342 107.2095808  42.4010384
  49.6495342 105.8395808  41.9630384  49.7095342 105.0405808  44.3250384
  48.9185342 107.7495808  44.1120384  63.0315342  47.2315808  31.6570384
  64.4665342  47.7615808  31.8440384  65.2925342  46.8635808  32.7890384
  64.5735342  46.6095808  34.1310384  63.1375342  46.0895808  33.9240384
  62.3185342  47.0275808  33.0130384  60.9965342  46.5635808  32.8400384
  62.4565342  47.9055808  31.0190384  63.0855342  46.2775808  31.1270384
  64.9645342  47.8405808  30.8760384  64.4295342  48.7745808  32.2490384
  65.4865342  45.9085808  32.2990384  66.2695342  47.3145808  32.9700384
  65.1445342  45.8995808  34.7300384  64.5445342  47.5355808  34.7070384
  63.1965342  45.0985808  33.4700384  62.6395342  45.9565808  34.8860384
  62.2725342  48.0005808  33.5050384  61.0305342  45.7065808  32.4060384
  84.8935342 122.8575808  61.8170384  84.5365342 124.2535808  61.2680384
  84.9555342 124.4165808  59.7920384  86.4365342 124.0495808  59.5600384
  86.7775342 122.6555808  60.1230384  86.3905342 122.5325808  61.6120384
  86.7215342 121.2635808  62.1340384  84.6255342 122.7835808  62.8720384
  84.2855342 122.1185808  61.2910384  83.4655342 124.4325808  61.3730384
  85.0315342 125.0175808  61.8710384  84.3255342 123.7815808  59.1680384
  84.7715342 125.4405808  59.4640384  86.6675342 124.0875808  58.4950384
  87.0735342 124.7965808  60.0350384  86.2315342 121.9105808  59.5420384
  87.8375342 122.4375808  59.9830384  86.9645342 123.2825808  62.1600384
  86.2185342 120.5985808  61.6550384  99.8055342 113.5965808  60.4860384
 101.2635342 113.5965808  60.9850384 102.2585342 113.2515808  59.8560384
 101.8825342 111.9465808  59.1230384 100.4185342 111.9605808  58.6400384
  99.4405342 112.2625808  59.7950384  98.0985342 112.2545808  59.3580384
  99.1205342 113.8005808  61.3110384  99.6865342 114.4175808  59.7760384
 101.5105342 114.5685808  61.4150384 101.3705342 112.8715808  61.7940384
 102.2845342 114.0725808  59.1380384 103.2675342 113.1725808  60.2620384
 102.5515342 111.7885808  58.2770384 102.0345342 111.0985808  59.7930384
 100.3205342 112.7275808  57.8700384 100.1675342 111.0125808  58.1620384
  99.5585342 111.4695808  60.5360384  97.9885342 112.9505808  58.7050384
  53.6755342  69.5815808  75.9120384  52.4695342  68.7405808  75.4480384
  52.8155342  67.2405808  75.3530384  54.0805342  66.9835808  74.5060384
  55.2725342  67.8385808  74.9790384  54.9145342  69.3395808  75.0210384
  56.0125342  70.1255808  75.4340384  53.4175342  70.6415808  75.9300384
  53.9095342  69.3035808  76.9430384  51.6295342  68.8875808  76.1280384
  52.1345342  69.0965808  74.4720384  52.9705342  66.8435808  76.3580384
  51.9705342  66.6895808  74.9370384  54.3435342  65.9255808  74.5410384
  53.8655342  67.2075808  73.4600384  55.5575342  67.5035808  75.9780384
  56.1395342  67.6685808  74.3390384  54.6485342  69.6385808  74.0060384
  56.2515342  69.8665808  76.3280384  16.0615342  85.7025808  74.3190384
  15.4445342  85.0575808  73.0610384  14.0995342  84.3675808  73.3700384
  14.2055342  83.3805808  74.5520384  14.8325342  84.0405808  75.7960384
  16.1975342  84.6835808  75.4720384  16.7825342  85.2685808  76.6160384
  17.0305342  86.1465808  74.0830384  15.4145342  86.5245808  74.6340384
  15.3075342  85.8125808  72.2850384  16.1415342  84.3245808  72.6510384
  13.3515342  85.1275808  73.6010384  13.7375342  83.8475808  72.4820384
  13.2185342  82.9865808  74.7970384  14.8085342  82.5225808  74.2530384
  14.1455342  84.8065808  76.1590384  14.9325342  83.3115808  76.6020384
  16.8585342  83.8865808  75.1260384  16.2045342  85.9715808  76.9250384
 110.8185342  26.1445808  65.8950384 109.4955342  26.1015808  66.6850384
 108.4865342  25.1125808  66.0650384 108.2705342  25.3655808  64.5580384
 109.6035342  25.4145808  63.7870384 110.5775342  26.4425808  64.3980384
 111.7915342  26.5035808  63.6790384 111.4975342  26.8815808  66.3290384
 111.3095342  25.1745808  65.9980384 109.6905342  25.8325808  67.7250384
 109.0545342  27.1005808  66.7090384 108.8475342  24.0935808  66.2110384
 107.5335342  25.1735808  66.5930384 107.6255342  24.5915808  64.1400384
 107.7385342  26.3075808  64.4220384 110.0535342  24.4205808  63.8210384
 109.4245342  25.6335808  62.7320384 110.0995342  27.4215808  64.3340384
 112.2175342  25.6435808  63.7320384 111.0025342  41.9045808  71.8000384
 112.0015342  42.5765808  72.7620384 111.3525342  43.7345808  73.5490384
 110.6465342  44.7475808  72.6230384 109.6595342  44.0565808  71.6620384
 110.3425342  42.9335808  70.8550384 109.4445342  42.3145808  69.9590384
 111.4965342  41.1175808  71.2260384 110.2315342  41.4125808  72.3970384
 112.4075342  41.8375808  73.4550384 112.8525342  42.9575808  72.1940384
 110.6275342  43.3265808  74.2550384 112.1065342  44.2435808  74.1510384
 110.1235342  45.4955808  73.2200384 111.3945342  45.2915808  72.0440384
 108.8445342  43.6365808  72.2550384 109.2045342  44.7895808  70.9930384
 111.1395342  43.3935808  70.2680384 108.7395342  41.9065808  70.4700384
 108.4475342  47.9355808  50.6540384 108.4805342  49.0145808  49.5530384
 107.1665342  49.0535808  48.7460384 106.7715342  47.6635808  48.2030384
 106.7535342  46.5965808  49.3150384 108.0935342  46.5465808  50.0780384
 108.0845342  45.5545808  51.0830384 109.4025342  47.9005808  51.1820384
 107.6975342  48.2245808  51.3930384 108.6755342  49.9935808  49.9960384
 109.3145342  48.8175808  48.8770384 106.3655342  49.4315808  49.3820384
 107.2575342  49.7625808  47.9220384 105.7955342  47.7165808  47.7200384
 107.4775342  47.3655808  47.4260384 105.9475342  46.8425808  50.0090384
 106.5105342  45.6175808  48.8980384 108.8695342  46.2865808  49.3550384
 107.4035342  45.7785808  51.7230384 130.5845342  53.4355808  98.6360384
 131.2175342  54.8005808  98.2970384 132.7315342  54.8215808  98.5950384
 133.0525342  54.3595808 100.0320384 132.4035342  52.9995808 100.3560384
 130.8825342  53.0165808 100.0930384 130.2845342  51.7785808 100.4100384
 129.5085342  53.4605808  98.4570384 130.9945342  52.6895808  97.9520384
 131.0415342  55.0425808  97.2480384 130.7245342  55.5825808  98.8760384
 133.2465342  54.1725808  97.8860384 133.1285342  55.8245808  98.4300384
 134.1315342  54.2995808 100.1720384 132.6965342  55.1085808 100.7410384
 132.8725342  52.2395808  99.7290384 132.6115342  52.7155808 101.3900384
 130.4485342  53.7775808 100.7460384 130.6625342  51.1045808  99.8380384
  38.0665342 126.6695808  65.1200384  37.4995342 125.2965808  65.5340384
  36.4615342 125.4215808  66.6690384  37.0005342 126.2275808  67.8700384
  37.5705342 127.5915808  67.4360384  38.6395342 127.4375808  66.3330384
  39.1775342 128.6845808  65.9500384  38.8275342 126.5505808  64.3470384
  37.2585342 127.2515808  64.6700384  37.0505342 124.8035808  64.6700384
  38.3165342 124.6505808  65.8610384  35.5645342 125.9075808  66.2830384
  36.1495342 124.4285808  66.9970384  36.2095342 126.3715808  68.6060384
  37.7795342 125.6515808  68.3710384  36.7475342 128.2025808  67.0630384
  37.9815342 128.1225808  68.2970384  39.4485342 126.8335808  66.7470384
  38.4685342 129.2215808  65.5840384  40.6875342  97.0175808  75.5170384
  42.0105342  96.2865808  75.8210384  42.4955342  96.5495808  77.2620384
  42.5615342  98.0555808  77.5920384  41.2335342  98.7715808  77.2730384
  40.7935342  98.5305808  75.8140384  39.5885342  99.2035808  75.5150384
  40.3885342  96.8505808  74.4810384  39.9035342  96.5795808  76.1390384
  41.8895342  95.2145808  75.6580384  42.7765342  96.6145808  75.1160384
  41.8205342  96.0565808  77.9630384  43.4745342  96.0925808  77.4130384
  42.8165342  98.1955808  78.6420384  43.3675342  98.5165808  77.0200384
  40.4695342  98.3905808  77.9520384  41.3205342  99.8405808  77.4770384
  41.5745342  98.9355808  75.1670384  38.8965342  98.8515808  76.0810384
  65.8965342 120.1645808  50.3610384  66.1355342 118.8255808  51.0870384
  67.0545342 117.8885808  50.2770384  66.5635342 117.6975808  48.8260384
  66.3205342 119.0455808  48.1200384  65.3635342 119.9465808  48.9270384
  65.1235342 121.1735808  48.2700384  65.2105342 120.7915808  50.9340384
  66.8445342 120.7045808  50.3180384  66.5655342 119.0085808  52.0730384
  65.1775342 118.3315808  51.2610384  68.0655342 118.2995808  50.2630384
  67.1295342 116.9205808  50.7740384  67.2865342 117.1065808  48.2630384
  65.6385342 117.1195808  48.8310384  67.2825342 119.5475808  48.0030384
  65.9355342 118.8825808  47.1110384  64.4115342 119.4175808  49.0110384
  65.9575342 121.6445808  48.1940384  67.8245342  93.5735808  19.9100384
  69.0095342  92.6305808  20.1970384  69.4705342  91.8815808  18.9290384
  68.3025342  91.1675808  18.2150384  67.1235342  92.1225808  17.9450384
  66.6525342  92.8245808  19.2350384  65.5595342  93.6835808  18.9920384
  67.4915342  94.0575808  20.8290384  68.1735342  94.3705808  19.2500384
  69.8425342  93.1965808  20.6190384  68.7195342  91.9055808  20.9600384
  69.9315342  92.5915808  18.2410384  70.2465342  91.1595808  19.1850384
  68.6505342  90.7305808  17.2780384  67.9595342  90.3325808  18.8290384
  67.4515342  92.8715808  17.2210384  66.2975342  91.5835808  17.4770384
  66.3225342  92.0465808  19.9270384  65.8435342  94.3715808  18.3840384
 118.4625342 102.3635808  95.1960384 118.5375342 100.8245808  95.1330384
 119.3465342 100.3365808  93.9130384 118.8485342 100.9605808  92.5930384
 118.7715342 102.4975808  92.6770384 117.9195342 102.9605808  93.8780384
 117.8305342 104.3675808  93.9430384 117.8505342 102.6815808  96.0420384
 119.4685342 102.7465808  95.3810384 118.9775342 100.4355808  96.0520384
 117.5265342 100.4145808  95.0840384 120.3985342 100.5895808  94.0560384
 119.3025342  99.2485808  93.8500384 119.5015342 100.6645808  91.7710384
 117.8615342 100.5615808  92.3530384 119.7865342 102.8845808  92.7800384
 118.3785342 102.9105808  91.7460384 116.9125342 102.5655808  93.7330384
 118.7155342 104.7215808  94.0710384  63.4265342  53.1325808 119.9620384
  64.3805342  53.7375808 121.0110384  64.5185342  52.8335808 122.2540384
  63.1485342  52.4475808 122.8510384  62.2045342  51.8535808 121.7870384
  62.0485342  52.7965808 120.5750384  61.1675342  52.2625808 119.6090384
  63.3135342  53.8105808 119.1140384  63.8825342  52.2205808 119.5710384
  65.3625342  53.9105808 120.5660384  64.0095342  54.7175808 121.3170384
  65.0595342  51.9265808 121.9800384  65.1265342  53.3315808 123.0100384
  63.2845342  51.7365808 123.6660384  62.6845342  53.3305808 123.2940384
  62.6205342  50.9005808 121.4560384  61.2315342  51.6275808 122.2260384
  61.6185342  53.7295808 120.9430384  61.5405342  51.4395808 119.2810384
  77.4205342 116.7835808  30.2160384  78.2905342 115.6605808  29.6180384
  78.3065342 114.4045808  30.5160384  78.6835342 114.7345808  31.9760384
  77.8095342 115.8645808  32.5530384  77.8465342 117.1245808  31.6620384
  77.0635342 118.1675808  32.2020384  77.4595342 117.6735808  29.5850384
  76.3805342 116.4495808  30.2130384  77.9315342 115.4015808  28.6210384
  79.3115342 116.0235808  29.4870384  77.3215342 113.9365808  30.4950384
  79.0005342 113.6675808  30.1100384  78.5925342 113.8405808  32.5940384
  79.7325342 115.0275808  32.0210384  76.7835342 115.4995808  32.6260384
  78.1225342 116.1045808  33.5710384  78.8825342 117.4655808  31.6240384
  76.1495342 117.8735808  32.2370384  44.8305342  68.5905808  43.5690384
  44.3415342  67.5975808  42.4950384  45.1815342  67.6865808  41.2040384
  45.2855342  69.1315808  40.6720384  45.7655342  70.1115808  41.7600384
  44.8835342  70.0355808  43.0240384  45.3095342  70.9485808  44.0130384
  44.1955342  68.5375808  44.4540384  45.8295342  68.2855808  43.8870384
  44.3695342  66.5805808  42.8880384  43.2955342  67.8025808  42.2610384
  46.1835342  67.3035808  41.4000384  44.7535342  67.0385808  40.4380384
  45.9595342  69.1655808  39.8160384  44.3105342  69.4515808  40.3010384
  46.7945342  69.8555808  42.0190384  45.7915342  71.1305808  41.3700384
  43.8685342  70.3095808  42.7290384  46.2035342  70.7115808  44.2780384
  34.2725342  69.0705808  99.6460384  35.7245342  68.7975808 100.0850384
  36.6935342  69.8865808  99.5790384  36.5675342  70.1225808  98.0590384
  35.1085342  70.3835808  97.6370384  34.1665342  69.2585808  98.1160384
  32.8335342  69.4865808  97.7110384  33.6155342  68.2645808  99.9790384
  33.9285342  69.9775808 100.1480384  35.7785342  68.7275808 101.1730384
  36.0425342  67.8255808  99.7030384  36.4895342  70.8205808 100.1060384
  37.7205342  69.6165808  99.8300384  37.1975342  70.9595808  97.7590384
  36.9475342  69.2505808  97.5250384  34.7925342  71.3335808  98.0740384
  35.0415342  70.5065808  96.5550384  34.5065342  68.3315808  97.6500384
  32.5285342  70.3015808  98.1190384 119.6395342  71.5995808  76.7950384
 121.1585342  71.7355808  76.5690384 121.9695342  70.9265808  77.6030384
 121.5535342  71.2495808  79.0540384 120.0315342  71.1175808  79.2590384
 119.2445342  71.9705808  78.2420384 117.8515342  71.8665808  78.4420384
 119.0905342  72.2125808  76.0780384 119.3555342  70.5635808  76.5950384
 121.4155342  71.4115808  75.5590384 121.4415342  72.7875808  76.6300384
 121.8265342  69.8605808  77.4170384 123.0355342  71.1165808  77.4700384
 122.0815342  70.5925808  79.7470384 121.8655342  72.2645808  79.3020384
 119.7615342  70.0665808  79.1400384 119.7605342  71.3895808  80.2800384
 119.5315342  73.0115808  78.4000384 117.5925342  70.9515808  78.3040384
  98.7495342  50.3555808  88.7890384  97.8445342  50.8965808  89.9130384
  97.6015342  52.4145808  89.7760384  98.9185342  53.2085808  89.6400384
  99.8135342  52.6475808  88.5180384 100.0785342  51.1375808  88.7030384
 100.9165342  50.6285808  87.6870384  98.9395342  49.2905808  88.9320384
  98.2115342  50.4475808  87.8430384  96.8915342  50.3655808  89.9130384
  98.3055342  50.6905808  90.8810384  96.9775342  52.6005808  88.9010384
  97.0345342  52.7785808  90.6340384  98.7015342  54.2605808  89.4530384
  99.4595342  53.1745808  90.5870384  99.3105342  52.8145808  87.5650384
 100.7535342  53.1995808  88.4700384 100.5925342  51.0125808  89.6580384
 100.4695342  50.7355808  86.8430384 113.8915342  84.3775808 127.8110384
 115.0505342  85.1825808 127.1900384 116.3125342  84.3175808 126.9950384
 116.7265342  83.5845808 128.2890384 115.5535342  82.7935808 128.9010384
 114.3185342  83.6895808 129.1280384 113.2515342  82.9705808 129.7080384
 113.0265342  85.0205808 127.9780384 113.5775342  83.6185808 127.0910384
 114.7385342  85.6075808 126.2350384 115.2885342  86.0305808 127.8350384
 116.1275342  83.5835808 126.2100384 117.1365342  84.9385808 126.6390384
 117.5625342  82.9155808 128.0870384 117.0905342  84.3125808 129.0160384
 115.2955342  81.9835808 128.2160384 115.8615342  82.3185808 129.8340384
 114.6125342  84.4765808 129.8250384 112.9875342  82.2755808 129.0980384
 113.5935342  96.7005808 110.2880384 112.9015342  96.6875808 111.6650384
 112.7295342  98.1105808 112.2360384 114.0545342  98.9025808 112.2460384
 114.7365342  98.8965808 110.8640384 114.9385342  97.4605808 110.3350384
 115.5825342  97.4545808 109.0780384 113.7415342  95.6825808 109.9260384
 112.9255342  97.1885808 109.5740384 111.9305342  96.1965808 111.5890384
 113.4905342  96.0875808 112.3610384 111.9925342  98.6505808 111.6390384
 112.3205342  98.0585808 113.2460384 113.8735342  99.9285808 112.5670384
 114.7295342  98.4685808 112.9850384 114.1055342  99.4555808 110.1700384
 115.6895342  99.4275808 110.9080384 115.5825342  96.9395808 111.0460384
 115.0205342  97.9115808 108.4470384  92.2895342 106.2855808  38.6480384
  90.8265342 106.2285808  39.1340384  89.8385342 106.0395808  37.9650384
  90.0515342 107.0805808  36.8450384  91.5195342 107.1305808  36.3790384
  92.4845342 107.3645808  37.5600384  93.8275342 107.4315808  37.1310384
  92.9635342 106.4615808  39.4880384  92.5525342 105.3065808  38.2410384
  90.7065342 105.4205808  39.8580384  90.5855342 107.1505808  39.6670384
  89.9585342 105.0375808  37.5510384  88.8125342 106.0935808  38.3330384
  89.3995342 106.8575808  36.0000384  89.7525342 108.0655808  37.2060384
  91.7565342 106.1795808  35.8970384  91.6505342 107.9015808  35.6170384
  92.2255342 108.3265808  38.0060384  94.0625342 106.5865808  36.7370384
  58.5355342 108.6245808  39.1280384  58.5695342 110.1355808  38.8240384
  58.5125342 110.9845808  40.1110384  57.3295342 110.5885808  41.0210384
  57.3065342 109.0745808  41.3070384  57.3185342 108.2485808  40.0030384
  57.2765342 106.8615808  40.2640384  58.5345342 108.0485808  38.2010384
  59.4565342 108.3615808  39.6540384  59.4685342 110.3815808  38.2560384
  57.7255342 110.3955808  38.1820384  59.4455342 110.8635808  40.6630384
  58.4465342 112.0425808  39.8560384  57.3785342 111.1435808  41.9580384
  56.3925342 110.8815808  40.5440384  58.1865342 108.8265808  41.9030384
  56.4385342 108.8155808  41.9170384  56.4205342 108.5135808  39.4420384
  58.0645342 106.6215808  40.7580384 117.8955342  92.6105808  99.6500384
 118.1555342  93.7055808  98.5970384 117.5245342  93.3545808  97.2330384
 117.9365342  91.9495808  96.7430384 117.6785342  90.8695808  97.8120384
 118.3565342  91.2225808  99.1520384 118.1385342  90.2225808 100.1250384
 118.3865342  92.8625808 100.5920384 116.8235342  92.5835808  99.8590384
 117.7675342  94.6625808  98.9510384 119.2315342  93.8425808  98.4740384
 116.4385342  93.4015808  97.3170384 117.8035342  94.1035808  96.4910384
 117.3995342  91.7035808  95.8270384 118.9955342  91.9545808  96.4810384
 116.6005342  90.7865808  97.9590384 118.0155342  89.8945808  97.4550384
 119.4305342  91.2835808  98.9670384 117.1945342  90.1645808 100.2930384
  49.5925342  97.2855808  69.4690384  50.6345342  96.4445808  70.2320384
  51.5195342  97.3165808  71.1470384  52.1535342  98.5035808  70.3900384
  51.0985342  99.3265808  69.6260384  50.2575342  98.4395808  68.6850384
  49.3045342  99.1965808  67.9680384  49.0085342  96.6525808  68.7980384
  48.8885342  97.6985808  70.1950384  50.1335342  95.6755808  70.8220384
  51.2665342  95.9135808  69.5170384  50.9165342  97.6975808  71.9730384
  52.3005342  96.7045808  71.6010384  52.6925342  99.1445808  71.0880384
  52.8985342  98.1275808  69.6880384  50.4445342  99.8055808  70.3570384
  51.5775342 100.1335808  69.0680384  50.9415342  97.9905808  67.9630384
  48.6985342  99.5945808  68.5990384 118.5205342  36.9825808  58.0930384
 118.6055342  35.4445808  58.0330384 117.6495342  34.7755808  59.0420384
 117.8315342  35.3245808  60.4730384 117.7525342  36.8625808  60.5130384
 118.7495342  37.5095808  59.5280384 118.6935342  38.9185808  59.5790384
 119.2345342  37.4315808  57.4010384 117.5275342  37.2835808  57.7500384
 118.3815342  35.0985808  57.0220384 119.6295342  35.1295808  58.2410384
 116.6185342  34.9385808  58.7230384 117.8005342  33.6945808  59.0360384
 117.0785342  34.8955808  61.1350384 118.7975342  35.0005808  60.8640384
 116.7355342  37.1585808  60.2490384 117.9245342  37.2265808  61.5280384
 119.7515342  37.2005808  59.8310384 117.8125342  39.1965808  59.3130384
 101.4845342  61.2735808  43.8730384 102.7315342  61.7995808  44.6110384
 102.3615342  62.5085808  45.9310384 101.2875342  63.5975808  45.7300384
 100.0535342  63.0555808  44.9820384 100.4435342  62.3925808  43.6450384
  99.3115342  61.9145808  42.9490384 101.7685342  60.8145808  42.9240384
 101.0385342  60.4795808  44.4770384 103.4215342  60.9775808  44.8100384
 103.2685342  62.4965808  43.9650384 101.9945342  61.7695808  46.6450384
 103.2545342  62.9455808  46.3810384 100.9875342  64.0075808  46.6950384
 101.7155342  64.4285808  45.1680384  99.5615342  62.3215808  45.6230384
  99.3275342  63.8545808  44.8170384 100.9195342  63.1585808  43.0290384
  98.8885342  61.2395808  43.4860384  55.1115342 124.0815808  83.7820384
  53.9115342 123.3775808  84.4460384  53.8325342 121.8855808  84.0580384
  53.8725342 121.6765808  82.5290384  55.0725342 122.3945808  81.8820384
  55.1035342 123.8935808  82.2480384  56.1905342 124.5575808  81.6380384
  55.1205342 125.1425808  84.0380384  56.0285342 123.6565808  84.1960384
  53.9745342 123.4765808  85.5310384  52.9875342 123.8775808  84.1490384
  54.6665342 121.3515808  84.5160384  52.9255342 121.4415808  84.4710384
  53.9085342 120.6105808  82.3000384  52.9465342 122.0485808  82.0890384
  55.9875342 121.9145808  82.2330384  55.0545342 122.2645808  80.7980384
  54.1815342 124.3395808  81.8710384  57.0055342 124.1685808  81.9670384
  93.8745342  20.9005808  62.9190384  93.7465342  21.2005808  64.4260384
  94.1645342  22.6475808  64.7620384  95.5605342  22.9985808  64.2030384
  95.6725342  22.6825808  62.6980384  95.2925342  21.2185808  62.3940384
  95.4155342  20.9225808  61.0190384  93.6135342  19.8605808  62.7140384
  93.1435342  21.5125808  62.3850384  92.7215342  21.0235808  64.7550384
  94.3705342  20.5045808  64.9880384  93.4285342  23.3395808  64.3490384
  94.1485342  22.7975808  65.8420384  95.7785342  24.0525808  64.3800384
  96.3195342  22.4365808  64.7480384  95.0005342  23.3535808  62.1590384
  96.6795342  22.9015808  62.3380384  95.9915342  20.5815808  62.9390384
  94.8015342  21.4805808  60.5330384  79.3365342  90.1435808  33.9730384
  79.5245342  91.5315808  33.3280384  79.6355342  91.4425808  31.7920384
  80.7085342  90.4285808  31.3410384  80.5115342  89.0505808  32.0020384
  80.4485342  89.1615808  33.5400384  80.2885342  87.8965808  34.1480384
  79.3035342  90.2305808  35.0610384  78.3655342  89.7525808  33.6650384
  78.6955342  92.1855808  33.6040384  80.4255342  91.9995808  33.7290384
  78.6685342  91.1505808  31.3780384  79.8565342  92.4265808  31.3780384
  80.6915342  90.3265808  30.2550384  81.6975342  90.8125808  31.5930384
  79.5785342  88.6235808  31.6290384  81.3045342  88.3655808  31.6980384
  81.3995342  89.5785808  33.8750384  79.4515342  87.5245808  33.8570384
  63.4325342  37.2285808  98.2180384  62.3125342  38.2715808  98.4050384
  60.9115342  37.6295808  98.3350384  60.7215342  36.7755808  97.0630384
  61.8545342  35.7455808  96.8880384  63.2435342  36.4175808  96.9160384
  64.2815342  35.4775808  96.7350384  64.4105342  37.7125808  98.2300384
  63.4145342  36.5505808  99.0750384  62.4385342  38.7875808  99.3580384
  62.3985342  39.0375808  97.6320384  60.7585342  37.0025808  99.2140384
  60.1445342  38.4045808  98.3800384  59.7575342  36.2665808  97.0970384
  60.6885342  37.4295808  96.1900384  61.7845342  35.0205808  97.7000384
  61.7185342  35.1845808  95.9620384  63.2805342  37.1245808  96.0850384
  64.2545342  34.8525808  97.4640384 104.2175342  41.6505808  34.6280384
 104.0485342  40.6065808  33.5050384 104.9845342  40.8895808  32.3110384
 104.8565342  42.3395808  31.7980384 105.0185342  43.3675808  32.9350384
 104.0415342  43.0905808  34.0970384 104.1755342  44.0445808  35.1290384
 103.5165342  41.4525808  35.4410384 105.2195342  41.5385808  35.0500384
 104.2355342  39.6055808  33.8960384 103.0125342  40.6085808  33.1620384
 106.0165342  40.7045808  32.6120384 104.7755342  40.1885808  31.5020384
 105.5965342  42.5245808  31.0190384 103.8815342  42.4715808  31.3270384
 106.0455342  43.3115808  33.3010384 104.8845342  44.3815808  32.5530384
 103.0295342  43.1675808  33.6950384 105.0645342  43.9815808  35.4870384
  83.7515342  83.3525808 124.6620384  83.2505342  84.7495808 125.0780384
  83.8715342  85.2095808 126.4140384  83.6995342  84.1595808 127.5320384
  84.1965342  82.7675808 127.0940384  83.5275342  82.3115808 125.7810384
  83.9675342  81.0275808 125.3910384  83.2665342  83.0335808 123.7380384
  84.8195342  83.4245808 124.4400384  83.4735342  85.4755808 124.2940384
  82.1625342  84.7315808 125.1730384  84.9345342  85.4065808 126.2670384
  83.4285342  86.1575808 126.7230384  84.2305342  84.4795808 128.4290384
  82.6465342  84.0965808 127.8100384  85.2775342  82.8215808 126.9530384
  84.0265342  82.0365808 127.8870384  82.4535342  82.2575808 125.9650384
  84.9135342  81.0685808 125.2260384  88.2155342 105.1015808  19.2550384
  89.4565342 105.9915808  19.0440384  90.0755342 106.4435808  20.3840384
  89.0335342 107.0895808  21.3210384  87.7965342 106.1895808  21.5130384
  87.1695342 105.7895808  20.1610384  86.0245342 104.9825808  20.3370384
  87.7725342 104.8305808  18.2950384  88.5405342 104.1675808  19.7190384
  90.2015342 105.4585808  18.4510384  89.1765342 106.8715808  18.4610384
  90.5215342 105.5815808  20.8820384  90.8925342 107.1415808  20.1980384
  89.4885342 107.3085808  22.2880384  88.7225342 108.0505808  20.9090384
  88.1085342 105.2925808  22.0510384  87.0595342 106.6865808  22.1460384
  86.8605342 106.7085808  19.6610384  86.2905342 104.1705808  20.7770384
  71.8425342  91.7245808  30.3670384  71.7765342  90.1845808  30.3440384
  70.5725342  89.6715808  29.5270384  69.2435342  90.3145808  29.9780384
  69.3305342  91.8535808  30.0040384  70.5155342  92.3425808  30.8630384
  70.5835342  93.7515808  30.9050384  72.6765342  92.0615808  30.9850384
  72.0485342  92.0725808  29.3530384  72.7035342  89.7775808  29.9350384
  71.7065342  89.8085808  31.3670384  70.7365342  89.8875808  28.4710384
  70.5055342  88.5855808  29.6070384  68.4345342  89.9985808  29.3190384
  68.9835342  89.9495808  30.9720384  69.4545342  92.2055808  28.9780384
  68.3925342  92.2815808  30.3640384  70.3495342  91.9825808  31.8800384
  70.7295342  94.0745808  30.0120384 126.4005342 109.7235808  84.4520384
 124.9145342 109.3325808  84.5750384 124.4525342 109.2795808  86.0460384
 125.3715342 108.3975808  86.9170384 126.8535342 108.7965808  86.7750384
 127.3035342 108.7975808  85.2980384 128.6665342 109.1425808  85.1690384
 126.7125342 109.7125808  83.4070384 126.5125342 110.7535808  84.7970384
 124.2965342 110.0365808  84.0160384 124.7565342 108.3565808  84.1110384
 124.4345342 110.2915808  86.4540384 123.4255342 108.9135808  86.1000384
 125.0675342 108.4605808  87.9620384 125.2485342 107.3525808  86.6290384
 126.9795342 109.7955808  87.1950384 127.4845342 108.1325808  87.3680384
 127.1755342 107.7825808  84.9190384 128.7855342 110.0355808  85.5020384
  29.3735342  55.0615808  94.9330384  30.1675342  55.3635808  93.6460384
  30.8585342  56.7415808  93.7060384  29.8765342  57.8735808  94.0770384
  29.0855342  57.5505808  95.3600384  28.3665342  56.1875808  95.2570384
  27.6245342  55.9015808  96.4230384  28.8605342  54.1015808  94.8480384
  30.0835342  54.9605808  95.7570384  30.9095342  54.5825808  93.4740384
  29.4925342  55.3345808  92.7880384  31.6625342  56.7085808  94.4430384
  31.3345342  56.9605808  92.7490384  30.4185342  58.8115808  94.2000384
  29.1805342  58.0325808  93.2520384  29.7855342  57.5305808  96.1960384
  28.3705342  58.3465808  95.5760384  27.6685342  56.2515808  94.4200384
  28.2345342  55.8435808  97.1640384  93.1425342 123.1525808 100.9730384
  92.6775342 121.6945808 101.1600384  91.7075342 121.5475808 102.3510384
  92.2765342 122.1605808 103.6480384  92.7445342 123.6145808 103.4400384
  93.7475342 123.7275808 102.2730384  94.1925342 125.0555808 102.0950384
  93.8585342 123.2215808 100.1520384  92.2775342 123.7515808 100.6780384
  92.2025342 121.3345808 100.2460384  93.5475342 121.0545808 101.3220384
  90.7625342 122.0365808 102.1070384  91.4705342 120.4945808 102.5100384
  91.5265342 122.1205808 104.4390384  93.1155342 121.5565808 103.9960384
  91.8665342 124.2275808 103.2260384  93.1785342 124.0095808 104.3600384
  94.6135342 123.1135808 102.5280384  93.4345342 125.6015808 101.8690384
 112.6215342  82.6685808  95.0440384 112.1375342  81.5495808  95.9870384
 112.1445342  80.1705808  95.2960384 111.3825342  80.1855808  93.9530384
 111.8725342  81.3155808  93.0270384 111.8145342  82.6905808  93.7270384
 112.2425342  83.7285808  92.8720384 112.5675342  83.6375808  95.5430384
 113.6765342  82.4945808  94.8210384 112.7615342  81.5205808  96.8820384
 111.1265342  81.7765808  96.3310384 113.1755342  79.8615808  95.1200384
 111.7125342  79.4195808  95.9600384 111.4895342  79.2215808  93.4540384
 110.3155342  80.3105808  94.1440384 112.9025342  81.0975808  92.7390384
 111.2915342  81.3295808  92.1030384 110.7705342  82.8775808  93.9870384
 113.1615342  83.5695808  92.6390384 121.8135342  91.8525808  93.9200384
 120.8475342  90.6575808  94.0540384 121.5225342  89.4455808  94.7300384
 122.8525342  89.0605808  94.0480384 123.8005342  90.2675808  93.9140384
 123.1175342  91.4505808  93.1950384 123.9925342  92.5495808  93.0530384
 121.3265342  92.6805808  93.4020384 122.0515342  92.2135808  94.9230384
 119.9635342  90.9555808  94.6200384 120.4905342  90.3675808  93.0640384
 121.7105342  89.6785808  95.7790384 120.8415342  88.5925808  94.7270384
 123.3405342  88.2635808  94.6090384 122.6455342  88.6505808  93.0580384
 124.1025342  90.5765808  94.9160384 124.7145342  89.9775808  93.3930384
 122.8425342  91.1085808  92.1960384 124.2385342  92.8565808  93.9310384
  38.7185342  69.7675808  40.2600384  37.8325342  69.9075808  41.5140384
  36.6595342  70.8845808  41.2840384  37.1325342  72.2475808  40.7350384
  38.0235342  72.0865808  39.4880384  39.2135342  71.1415808  39.7570384
  40.0425342  71.0105808  38.6220384  39.5625342  69.1055808  40.4620384
  38.1285342  69.2845808  39.4780384  37.4505342  68.9305808  41.8120384
  38.4395342  70.2625808  42.3490384  35.9545342  70.4385808  40.5810384
  36.1085342  71.0285808  42.2150384  36.2705342  72.8725808  40.4990384
  37.6865342  72.7765808  41.5110384  37.4105342  71.6805808  38.6810384
  38.3755342  73.0605808  39.1450384  39.8075342  71.5865808  40.5580384
  39.5255342  70.6195808  37.9130384  63.8685342  65.4285808  37.5650384
  62.7415342  64.8185808  36.7080384  62.5845342  63.3035808  36.9560384
  63.9205342  62.5455808  36.8060384  65.0375342  63.1735808  37.6620384
  65.2045342  64.6785808  37.3630384  66.2425342  65.2495808  38.1320384
  63.9875342  66.4895808  37.3400384  63.5715342  65.3665808  38.6140384
  61.7995342  65.3295808  36.9130384  62.9555342  64.9925808  35.6510384
  62.1905342  63.1435808  37.9600384  61.8425342  62.8905808  36.2710384
  63.7855342  61.4975808  37.0790384  64.2225342  62.5475808  35.7580384
  64.7785342  63.0375808  38.7130384  65.9785342  62.6435808  37.5070384
  65.4755342  64.7725808  36.3100384  66.0095342  65.1705808  39.0610384
  77.2235342 124.7965808  82.7990384  75.7425342 125.2135808  82.8960384
  74.9115342 124.6635808  81.7180384  75.5365342 125.0075808  80.3490384
  77.0185342 124.5925808  80.2750384  77.8375342 125.1915808  81.4370384
  79.1995342 124.8295808  81.3570384  77.7965342 125.2335808  83.6190384
  77.2825342 123.7135808  82.9240384  75.3195342 124.8715808  83.8420384
  75.6725342 126.3035808  82.9100384  74.8275342 123.5795808  81.8130384
  73.8925342 125.0505808  81.7690384  74.9735342 124.5235808  79.5510384
  75.4515342 126.0805808  80.1720384  77.0705342 123.5025808  80.3160384
  77.4465342 124.8825808  79.3130384  77.7725342 126.2785808  81.3540384
  79.2635342 123.8735808  81.4300384  93.5205342  50.3755808  91.8810384
  94.3345342  51.1155808  90.8010384  93.4965342  52.1985808  90.0900384
  92.1605342  51.6445808  89.5500384  91.3655342  50.9005808  90.6410384
  92.2095342  49.7925808  91.3050384  91.4745342  49.0965808  92.2890384
  94.1215342  49.5875808  92.3380384  93.2835342  51.0845808  92.6770384
  95.2225342  51.5655808  91.2470384  94.6965342  50.3965808  90.0630384
  93.2925342  53.0115808  90.7890384  94.0725342  52.6385808  89.2750384
  91.5595342  52.4565808  89.1400384  92.3595342  50.9655808  88.7200384
  91.0585342  51.6275808  91.3950384  90.4455342  50.4845808  90.2240384
  92.4845342  49.0815808  90.5240384  91.2295342  49.7175808  92.9800384
  57.3485342 124.9995808 108.7980384  55.8445342 125.2825808 108.6160384
  55.1965342 125.8105808 109.9130384  55.4865342 124.8995808 111.1250384
  56.9935342 124.6195808 111.2860384  57.6085342 124.0505808 109.9900384
  58.9845342 123.7735808 110.1430384  57.7735342 124.5875808 107.8810384
  57.8565342 125.9505808 108.9740384  55.6955342 125.9995808 107.8070384
  55.3375342 124.3665808 108.3060384  55.5725342 126.8135808 110.1200384
  54.1195342 125.9135808 109.7750384  55.0925342 125.3535808 112.0350384
  54.9535342 123.9545808 111.0030384  57.4885342 125.5575808 111.5430384
  57.1665342 123.9415808 112.1240384  57.0975342 123.1095808 109.7740384
  59.4395342 124.5985808 110.3340384  46.2485342  44.2165808  92.3400384
  45.4955342  45.3105808  93.1240384  44.0145342  44.9405808  93.3480384
  43.3025342  44.5545808  92.0350384  44.0735342  43.4675808  91.2610384
  45.5395342  43.8795808  91.0090384  46.2405342  42.8935808  90.2820384
  47.2815342  44.5205808  92.1580384  46.2965342  43.3205808  92.9630384
  45.9855342  45.4855808  94.0830384  45.5545342  46.2535808  92.5770384
  43.9545342  44.1065808  94.0480384  43.4925342  45.7725808  93.8240384
  42.2885342  44.2125808  92.2480384  43.1965342  45.4405808  91.4070384
  44.0495342  42.5485808  91.8490384  43.5705342  43.2425808  90.3190384
  45.5215342  44.7925808  90.4100384  46.2595342  42.0875808  90.8050384
  59.9705342 105.0605808 107.5060384  59.7145342 104.8255808 109.0080384
  58.2995342 105.2765808 109.4290384  57.9955342 106.7265808 108.9940384
  58.2655342 106.9445808 107.4930384  59.7005342 106.5285808 107.1070384
  59.9565342 106.7485808 105.7360384  60.9905342 104.7735808 107.2440384
  59.3085342 104.4015808 106.9400384  59.8565342 103.7705808 109.2500384
  60.4575342 105.3725808 109.5930384  57.5625342 104.6065808 108.9850384
  58.1855342 105.1805808 110.5090384  56.9585342 106.9735808 109.2260384
  58.6085342 107.4145808 109.5770384  57.5485342 106.3485808 106.9270384
  58.0815342 107.9855808 107.2210384  60.3865342 107.1535808 107.6820384
  59.3555342 106.2005808 105.2240384  58.0415342  26.2315808  87.0230384
  57.9655342  24.6995808  87.1700384  58.8835342  23.9775808  86.1600384
  58.6405342  24.4475808  84.7100384  58.7115342  25.9825808  84.5840384
  57.7525342  26.6795808  85.5720384  57.8005342  28.0845808  85.4430384
  57.3545342  26.7165808  87.7180384  59.0465342  26.5535808  87.3090384
  58.2315342  24.4085808  88.1880384  56.9355342  24.3715808  87.0210384
  59.9245342  24.1605808  86.4270384  58.7365342  22.8985808  86.2310384
  59.3685342  23.9855808  84.0420384  57.6615342  24.1015808  84.3760384
  59.7365342  26.2945808  84.7900384  58.4965342  26.2905808  83.5590384
  56.7395342  26.3535808  85.3270384  58.6905342  28.3775808  85.6580384
  24.1415342  99.5885808  93.1240384  25.4675342 100.1015808  92.5290384
  26.2685342  98.9725808  91.8490384  26.4665342  97.7545808  92.7760384
  25.1325342  97.2615808  93.3690384  24.3715342  98.3985808  94.0830384
  23.1585342  97.9425808  94.6440384  23.6145342 100.3965808  93.6350384
  23.4965342  99.2725808  92.3010384  25.2705342 100.9015808  91.8130384
  26.0725342 100.5475808  93.3210384  25.7455342  98.6545808  90.9460384
  27.2375342  99.3505808  91.5200384  26.9535342  96.9455808  92.2300384
  27.1455342  98.0235808  93.5870384  24.5215342  96.8695808  92.5540384
  25.3045342  96.4265808  94.0520384  25.0065342  98.7535808  94.8960384
  22.5945342  97.6285808  93.9330384  63.7025342  42.8945808  70.2410384
  62.6545342  42.8965808  69.1110384  62.5455342  44.2765808  68.4290384
  62.3225342  45.4155808  69.4460384  63.3735342  45.3925808  70.5740384
  63.4315342  44.0155808  71.2690384  64.3785342  44.0005808  72.3160384
  63.7295342  41.9205808  70.7340384  64.6875342  43.0415808  69.7940384
  62.9035342  42.1335808  68.3710384  61.6805342  42.6165808  69.5180384
  63.4585342  44.4715808  67.8650384  61.7355342  44.2665808  67.6980384
  62.3445342  46.3785808  68.9360384  61.3255342  45.3245808  69.8790384
  64.3465342  45.6215808  70.1370384  63.1695342  46.1815808  71.3000384
  62.4475342  43.8295808  71.7030384  65.2475342  44.1635808  71.9410384
 121.4955342  68.2465808  39.0890384 121.8575342  67.7405808  37.6780384
 121.2585342  68.6355808  36.5730384 119.7415342  68.8515808  36.7550384
 119.3975342  69.3485808  38.1720384 119.9685342  68.4125808  39.2580384
 119.6355342  68.8565808  40.5560384 121.8945342  67.5735808  39.8500384
 121.9855342  69.2105808  39.2420384 122.9425342  67.6875808  37.5680384
 121.4915342  66.7185808  37.5550384 121.7635342  69.6025808  36.5820384
 121.4575342  68.1995808  35.5940384 119.3755342  69.5615808  36.0120384
 119.2165342  67.9145808  36.5620384 119.8185342  70.3485808  38.2940384
 118.3165342  69.4545808  38.2860384 119.5155342  67.4305808  39.1110384
 120.0315342  69.7215808  40.6920384  26.3635342  96.8305808  46.2100384
  24.8295342  96.9335808  46.0950384  24.2865342  96.1325808  44.8930384
  25.0065342  96.4935808  43.5760384  26.5385342  96.3935808  43.7130384
  27.0615342  97.2395808  44.8930384  28.4665342  97.1645808  45.0060384
  26.7255342  97.4385808  47.0410384  26.6185342  95.7955808  46.4510384
  24.3625342  96.5845808  47.0170384  24.5435342  97.9825808  45.9890384
  24.4085342  95.0665808  45.0880384  23.2135342  96.3005808  44.7890384
  24.6605342  95.8425808  42.7730384  24.7345342  97.5085808  43.2820384
  26.7985342  95.3455808  43.8720384  27.0235342  96.6925808  42.7820384
  26.7935342  98.2785808  44.6920384  28.7085342  96.2515808  45.1830384
  79.2735342  78.2135808  23.2260384  80.4725342  79.1755808  23.1140384
  80.2685342  80.2235808  22.0000384  79.8995342  79.5755808  20.6480384
  78.7055342  78.6105808  20.7810384  78.9525342  77.5455808  21.8700384
  77.8675342  76.6485808  21.9770384  79.4605342  77.4575808  23.9910384
  78.4065342  78.7855808  23.5630384  80.6395342  79.6755808  24.0700384
  81.3795342  78.6025808  22.9100384  79.4765342  80.9125808  22.2960384
  81.1705342  80.8275808  21.8890384  79.6735342  80.3495808  19.9140384
  80.7625342  79.0335808  20.2600384  77.8205342  79.1965808  21.0380384
  78.4915342  78.1365808  19.8210384  79.8335342  76.9745808  21.5720384
  77.0885342  77.1455808  22.2390384 139.3895342  85.9795808  78.8680384
 139.7285342  85.2975808  77.5280384 139.3775342  86.1925808  76.3210384
 137.9215342  86.7035808  76.3760384 137.5975342  87.3725808  77.7250384
 137.9155342  86.4405808  78.9140384 137.5985342  87.0455808  80.1500384
 139.6075342  85.3095808  79.7020384 140.0455342  86.8445808  78.9870384
 140.7875342  85.0345808  77.5010384 139.1815342  84.3555808  77.4510384
 140.0565342  87.0465808  76.2970384 139.5455342  85.6465808  75.3920384
 137.7415342  87.4035808  75.5600384 137.2385342  85.8675808  76.2130384
 138.1945342  88.2825808  77.8060384 136.5525342  87.6875808  77.7530384
 137.2925342  85.5515808  78.8050384 138.1445342  87.8295808  80.2520384
  38.9965342 110.8815808  59.9670384  40.0085342 111.8845808  59.3780384
  39.5945342 112.3615808  57.9700384  39.3035342 111.1835808  57.0160384
  38.2975342 110.1865808  57.6240384  38.7555342 109.6905808  59.0120384
  37.8455342 108.7615808  59.5600384  39.3325342 110.5275808  60.9430384
  38.0535342 111.4065808  60.1370384  40.1145342 112.7415808  60.0460384
  40.9935342 111.4175808  59.3270384  38.7045342 112.9875808  58.0500384
  40.3745342 112.9965808  57.5490384  38.9265342 111.5605808  56.0650384
  40.2355342 110.6635808  56.7880384  37.3335342 110.6895808  57.7170384
  38.1405342 109.3445808  56.9470384  39.7125342 109.1835808  58.8760384
  36.9995342 109.2015808  59.6820384  97.6465342  62.2975808 110.6290384
  96.2425342  61.7495808 110.3060384  95.4635342  61.3745808 111.5840384
  96.2695342  60.4365808 112.5080384  97.6725342  60.9965808 112.8110384
  98.4485342  61.3205808 111.5170384  99.7425342  61.8135808 111.7950384
  98.1925342  62.5155808 109.7090384  97.5295342  63.2505808 111.1510384
  95.6795342  62.4835808 109.7280384  96.3355342  60.8685808 109.6680384
  95.2095342  62.2845808 112.1300384  94.5135342  60.9085808 111.3170384
  95.7245342  60.2715808 113.4380384  96.3645342  59.4575808 112.0350384
  97.5565342  61.9055808 113.4040384  98.2355342  60.2955808 113.4320384
  98.5555342  60.3875808 110.9600384  99.6545342  62.6355808 112.2850384
  32.4045342  99.6665808 110.3330384  32.9785342 100.9425808 110.9810384
  32.6765342 102.2005808 110.1400384  33.1095342 102.0375808 108.6670384
  32.5345342 100.7525808 108.0390384  32.8875342  99.5035808 108.8740384
  32.3795342  98.3245808 108.2880384  32.6675342  98.7875808 110.9240384
  31.3145342  99.7355808 110.3500384  32.5755342 101.0625808 111.9880384
  34.0585342 100.8355808 111.0980384  31.6075342 102.4115808 110.1800384
  33.1725342 103.0685808 110.5790384  32.7955342 102.9075808 108.0890384
  34.1985342 102.0125808 108.6110384  31.4495342 100.8575808 107.9810384
  32.8875342 100.6405808 107.0130384  33.9765342  99.4265808 108.8990384
  31.4205342  98.3865808 108.2640384 119.7195342  92.5745808  49.2730384
 118.6805342  92.8875808  48.1780384 117.9275342  94.2045808  48.4580384
 117.3225342  94.2425808  49.8780384 118.3725342  93.9185808  50.9580384
 119.0795342  92.5755808  50.6800384 120.0265342  92.2675808  51.6810384
 120.2075342  91.6195808  49.0740384 120.5015342  93.3355808  49.2290384
 119.1695342  92.9375808  47.2040384 117.9625342  92.0665808  48.1140384
 118.6135342  95.0435808  48.3370384 117.1415342  94.3485808  47.7150384
 116.8815342  95.2215808  50.0680384 116.5035342  93.5245808  49.9410384
 119.1095342  94.7235808  50.9690384 117.9105342  93.9125808  51.9470384
 118.3145342  91.7975808  50.6900384 120.7045342  92.9495808  51.6770384
 106.1215342  54.6615808 127.1930384 104.9135342  55.1395808 128.0240384
 103.8855342  55.9005808 127.1600384 104.5345342  57.0405808 126.3470384
 105.7455342  56.5465808 125.5310384 106.7795342  55.8285808 126.4240384
 107.8985342  55.3955808 125.6810384 106.8515342  54.1645808 127.8340384
 105.7715342  53.9095808 126.4830384 104.4335342  54.2875808 128.5090384
 105.2605342  55.7895808 128.8290384 103.4035342  55.2005808 126.4760384
 103.0925342  56.3005808 127.7930384 103.7965342  57.4905808 125.6830384
 104.8545342  57.8325808 127.0260384 105.3825342  55.8565808 124.7670384
 106.2095342  57.3785808 124.9980384 107.1265342  56.5515808 127.1640384
 107.5995342  54.7575808 125.0270384  36.7565342  45.5215808  96.0500384
  35.9745342  46.4545808  96.9970384  35.8165342  45.8435808  98.4060384
  35.2315342  44.4155808  98.3620384  36.0185342  43.5015808  97.4030384
  36.1245342  44.1135808  95.9910384  36.8275342  43.2655808  95.1070384
  36.8175342  45.9575808  95.0510384  37.7825342  45.4445808  96.4170384
  36.4755342  47.4215808  97.0650384  34.9875342  46.6535808  96.5770384
  36.7905342  45.8175808  98.8970384  35.1845342  46.4865808  99.0200384
  35.2225342  43.9865808  99.3640384  34.1885342  44.4625808  98.0430384
  37.0195342  43.3585808  97.8140384  35.5605342  42.5115808  97.3600384
  35.1075342  44.2285808  95.6100384  37.7235342  43.1605808  95.4370384
  49.1115342  66.8715808  73.2990384  50.0945342  68.0165808  72.9850384
  49.9165342  68.5505808  71.5480384  49.9615342  67.4235808  70.4950384
  48.9795342  66.2845808  70.8300384  49.2075342  65.7365808  72.2550384
  48.3225342  64.6785808  72.5550384  49.2865342  66.4835808  74.3040384
  48.0985342  67.2805808  73.2980384  49.9645342  68.8275808  73.7030384
  51.1185342  67.6595808  73.1140384  48.9605342  69.0725808  71.4760384
  50.6845342  69.2945808  71.3310384  49.7395342  67.8285808  69.5070384
  50.9745342  67.0225808  70.4370384  47.9635342  66.6745808  70.7480384
  49.0595342  65.4835808  70.0930384  50.2255342  65.3445808  72.2930384
  47.4235342  65.0175808  72.5230384  75.6815342 109.9165808  29.8420384
  76.9115342 110.8455808  29.8160384  76.7475342 111.9905808  28.7950384
  76.3645342 111.4735808  27.3920384  75.1395342 110.5395808  27.4380384
  75.3465342 109.3775808  28.4330384  74.2325342 108.5105808  28.4600384
  75.8405342 109.0925808  30.5400384  74.8315342 110.4855808  30.2250384
  77.0895342 111.2565808  30.8110384  77.8005342 110.2635808  29.5660384
  75.9765342 112.6775808  29.1470384  77.6675342 112.5725808  28.7380384
  76.1675342 112.3145808  26.7260384  77.2115342 110.9385808  26.9600384
  74.2725342 111.1295808  27.7420384  74.9145342 110.1565808  26.4410384
  76.2105342 108.8065808  28.0890384  73.4685342 109.0075808  28.7630384
  37.9045342  38.8785808  98.5140384  36.5945342  38.2955808  99.0810384
  36.0985342  37.0885808  98.2580384  36.0025342  37.4075808  96.7500384
  37.3165342  37.9975808  96.2040384  37.7685342  39.2305808  97.0150384
  38.9605342  39.7845808  96.5020384  38.2115342  39.7555808  99.0870384
  38.6935342  38.1345808  98.6420384  36.7375342  38.0025808 100.1220384
  35.8255342  39.0695808  99.0870384  36.7795342  36.2485808  98.4040384
  35.1275342  36.7585808  98.6310384  35.7395342  36.5065808  96.1950384
  35.1895342  38.1155808  96.5820384  38.0855342  37.2255808  96.2560384
  37.2085342  38.2515808  95.1470384  36.9825342  39.9825808  96.9280384
  39.6575342  39.1265808  96.5760384  52.6955342  85.5465808 131.5530384
  53.5935342  85.1285808 132.7350384  52.8995342  84.0945808 133.6470384
  51.5005342  84.5615808 134.1010384  50.6205342  84.9835808 132.9080384
  51.3175342  86.0495808 132.0370384  50.5035342  86.4525808 130.9560384
  53.1915342  86.3075808 130.9480384  52.5575342  84.6775808 130.9050384
  54.5355342  84.7225808 132.3620384  53.8545342  86.0105808 133.3220384
  52.8075342  83.1485808 133.1120384  53.5245342  83.8905808 134.5180384
  51.0085342  83.7675808 134.6640384  51.6045342  85.4005808 134.7900384
  50.4155342  84.0975808 132.3050384  49.6525342  85.3465808 133.2590384
  51.4925342  86.9215808 132.6690384  50.3445342  85.6885808 130.3950384
  43.0035342  30.3585808  98.8170384  42.3925342  30.6675808  97.4350384
  41.1555342  29.7925808  97.1450384  41.4415342  28.2885808  97.3450384
  42.0605342  28.0005808  98.7260384  43.3215342  28.8545808  98.9750384
  43.9005342  28.5755808 100.2310384  43.9005342  30.9585808  98.9800384
  42.2865342  30.6605808  99.5830384  42.1255342  31.7235808  97.3740384
  43.1445342  30.4995808  96.6610384  40.3395342  30.0935808  97.8040384
  40.8035342  29.9725808  96.1280384  40.5215342  27.7155808  97.2210384
  42.1205342  27.9435808  96.5640384  41.3115342  28.2255808  99.4890384
  42.2895342  26.9385808  98.8260384  44.0475342  28.5925808  98.2030384
  43.2655342  28.8045808 100.9150384  36.5395342  72.0645808  32.5980384
  35.2075342  71.7065808  31.9090384  34.2255342  71.0175808  32.8790384
  34.8635342  69.8105808  33.5990384  36.1985342  70.1845808  34.2740384
  37.1795342  70.8305808  33.2730384  38.4105342  71.1545808  33.8850384
  37.2315342  72.5115808  31.8820384  36.3395342  72.8285808  33.3520384
  34.7505342  72.6055808  31.4930384  35.4035342  71.0465808  31.0620384
  33.8865342  71.7415808  33.6220384  33.3325342  70.6985808  32.3390384
  34.1715342  69.4105808  34.3400384  35.0335342  69.0085808  32.8800384
  35.9865342  70.8865808  35.0820384  36.6475342  69.3065808  34.7400384
  37.3755342  70.0965808  32.4900384  38.2445342  71.8015808  34.5760384
  58.5445342  58.5875808 127.5190384  58.5005342  57.0495808 127.4200384
  59.5455342  56.5075808 126.4230384  59.4505342  57.1945808 125.0440384
  59.4875342  58.7305808 125.1640384  58.4045342  59.2515808 126.1310384
  58.4235342  60.6605808 126.2250384  57.7695342  58.9485808 128.1970384
  59.5005342  58.8735808 127.9640384  58.6605342  56.6085808 128.4050384
  57.5035342  56.7355808 127.1050384  60.5455342  56.6595808 126.8320384
  59.4255342  55.4285808 126.3100384  60.2625342  56.8505808 124.4010384
  58.5255342  56.8915808 124.5520384  60.4735342  59.0195808 125.5310384
  59.3785342  59.1905808 124.1800384  57.4355342  58.9545808 125.7250384
  59.2745342  60.9285808 126.5820384  88.2965342 125.5265808 106.1330384
  88.9305342 125.6855808 107.5290384  88.5805342 127.0455808 108.1680384
  88.9005342 128.2315808 107.2330384  88.2675342 128.0505808 105.8390384
  88.6685342 126.7025808 105.2030384  88.1055342 126.5455808 103.9170384
  88.5935342 124.5755808 105.6860384  87.2115342 125.4855808 106.2520384
  88.6045342 124.8735808 108.1810384  90.0145342 125.5925808 107.4480384
  87.5195342 127.0625808 108.4190384  89.1165342 127.1615808 109.1120384
  88.5545342 129.1625808 107.6810384  89.9825342 128.3285808 107.1290384
  87.1825342 128.0925808 105.9500384  88.5415342 128.8805808 105.1860384
  89.7545342 126.7035808 105.0970384  87.1485342 126.5435808 104.0040384
  61.2755342  71.0805808  17.1830384  62.7695342  71.3825808  16.9530384
  63.1185342  71.4515808  15.4510384  62.6395342  70.2025808  14.6810384
  61.1465342  69.9105808  14.9310384  60.8325342  69.8015808  16.4380384
  59.4695342  69.5135808  16.6670384  61.0635342  70.9955808  18.2510384
  60.6955342  71.9325808  16.8210384  63.0405342  72.3195808  17.4410384
  63.3735342  70.6075808  17.4290384  62.6585342  72.3395808  15.0160384
  64.1945342  71.5755808  15.3250384  62.8205342  70.3305808  13.6140384
  63.2325342  69.3395808  14.9870384  60.5635342  70.7235808  14.4950384
  60.8445342  69.0015808  14.4080384  61.4225342  68.9735808  16.8340384
  58.9435342  70.2405808  16.3200384  84.7515342  99.1345808 128.2470384
  83.3815342  99.4195808 127.6010384  83.4665342  99.4555808 126.0610384
  84.5705342 100.4105808 125.5580384  85.9305342 100.1165808 126.2220384
  85.8275342 100.1315808 127.7610384  87.0775342  99.8825808 128.3690384
  84.6715342  99.1555808 129.3350384  85.0505342  98.1185808 127.9800384
  82.6565342  98.6675808 127.9160384  83.0015342 100.3765808 127.9640384
  83.6655342  98.4495808 125.6890384  82.5025342  99.7475808 125.6420384
  84.6605342 100.3375808 124.4740384  84.2805342 101.4415808 125.7690384
  86.2665342  99.1335808 125.8880384  86.6825342 100.8305808 125.8800384
  85.5025342 101.1305808 128.0560384  87.3695342  99.0035808 128.1140384
 105.6705342  84.4225808  43.7870384 105.6195342  82.9215808  44.1370384
 107.0275342  82.3395808  44.3800384 107.9965342  82.6445808  43.2170384
 108.0265342  84.1475808  42.8750384 106.6125342  84.6955808  42.5930384
 106.6415342  86.0675808  42.2580384 104.6675342  84.7995808  43.5790384
 106.0285342  84.9655808  44.6640384 104.9945342  82.7655808  45.0170384
 105.1375342  82.3755808  43.3230384 107.4335342  82.7535808  45.3040384
 106.9615342  81.2615808  44.5350384 108.9995342  82.2995808  43.4680384
 107.6925342  82.0795808  42.3350384 108.4615342  84.6805808  43.7220384
 108.6865342  84.3305808  42.0260384 106.2175342  84.1485808  41.7350384
 106.9885342  86.5545808  43.0110384  40.3025342  28.9515808  69.9410384
  41.4755342  29.9135808  69.6680384  41.2075342  31.3235808  70.2350384
  39.8515342  31.8945808  69.7670384  38.6925342  30.9155808  70.0390384
  38.9645342  29.5265808  69.4240384  37.8935342  28.6355808  69.6540384
  40.4985342  27.9755808  69.4940384  40.2365342  28.7905808  71.0190384
  42.3955342  29.5095808  70.0940384  41.6455342  29.9825808  68.5920384
  41.2235342  31.2815808  71.3250384  42.0145342  31.9995808  69.9470384
  39.6585342  32.8465808  70.2610384  39.8995342  32.1115808  68.6990384
  38.5745342  30.8185808  71.1200384  37.7535342  31.3255808  69.6630384
  39.0635342  29.6625808  68.3450384  37.8005342  28.5115808  70.6030384
  69.9325342  41.0685808  85.6280384  70.6805342  42.4155808  85.6570384
  70.5025342  43.1445808  87.0050384  69.0175342  43.2825808  87.4040384
  68.2835342  41.9275808  87.3610384  68.4395342  41.2395808  85.9880384
  67.7495342  40.0085808  85.9410384  70.0385342  40.5935808  84.6510384
  70.4055342  40.3985808  86.3500384  71.7415342  42.2575808  85.4570384
  70.3125342  43.0525808  84.8500384  71.0335342  42.5955808  87.7830384
  70.9675342  44.1305808  86.9590384  68.9385342  43.7165808  88.4010384
  68.5245342  43.9835808  86.7290384  68.7025342  41.2875808  88.1390384
  67.2285342  42.0595808  87.6070384  67.9985342  41.9015808  85.2410384
  68.1335342  39.4205808  86.5970384 137.1105342  81.8835808  73.3650384
 135.7375342  81.2495808  73.6670384 135.0155342  81.9645808  74.8280384
 135.9045342  82.0825808  76.0850384 137.2745342  82.7095808  75.7630384
 137.9965342  81.9495808  74.6300384 139.2615342  82.5095808  74.3490384
 137.6175342  81.3335808  72.5700384 136.9445342  82.8935808  72.9850384
 135.1135342  81.2685808  72.7720384 135.8725342  80.1955808  73.9190384
 134.7165342  82.9625808  74.5040384 134.0935342  81.4365808  75.0730384
 135.3945342  82.6735808  76.8470384 136.0515342  81.0925808  76.5180384
 137.1135342  83.7465808  75.4610384 137.8965342  82.7445808  76.6590384
 138.1505342  80.9245808  74.9730384 139.1315342  83.4125808  74.0460384
  47.7955342  89.1125808  64.3060384  48.1385342  87.6215808  64.4970384
  49.4505342  87.2365808  63.7820384  49.4545342  87.6615808  62.2980384
  49.0995342  89.1515808  62.1260384  47.7625342  89.5015808  62.8110384
  47.4265342  90.8615808  62.6360384  46.8435342  89.3485808  64.7850384
  48.5545342  89.7065808  64.8190384  48.2125342  87.3895808  65.5600384
  47.3225342  87.0085808  64.1090384  50.2905342  87.7095808  64.2930384
  49.6155342  86.1615808  63.8610384  50.4295342  87.4565808  61.8550384
  48.7375342  87.0525808  61.7450384  49.9025342  89.7455808  62.5680384
  49.0705342  89.4155808  61.0670384  46.9865342  88.8985808  62.3350384
  48.1065342  91.3975808  63.0530384  50.7115342  26.8985808  91.0820384
  50.7205342  28.2325808  90.3090384  50.1675342  28.0715808  88.8770384
  50.8655342  26.9335808  88.1040384  50.8545342  25.6105808  88.8960384
  51.4545342  25.7875808  90.3070384  51.4645342  24.5715808  91.0240384
  51.1455342  27.0295808  92.0740384  49.6715342  26.6005808  91.2370384
  50.1405342  28.9815808  90.8500384  51.7415342  28.6165808  90.2610384
  49.0965342  27.8685808  88.9270384  50.2715342  29.0105808  88.3310384
  50.3845342  26.7915808  87.1360384  51.8965342  27.2195808  87.8910384
  49.8205342  25.2715808  88.9790384  51.3895342  24.8335808  88.3450384
  52.4885342  26.1135808  90.1820384  50.5555342  24.2795808  91.1380384
 107.8245342  31.5745808  67.6900384 109.2035342  30.8915808  67.5890384
 109.7275342  30.8665808  66.1380384 108.6985342  30.2725808  65.1540384
 107.3245342  30.9595808  65.2760384 106.8005342  30.9325808  66.7270384
 105.5325342  31.5435808  66.8350384 107.4575342  31.5415808  68.7170384
 107.9465342  32.6305808  67.4390384 109.9195342  31.4015808  68.2350384
 109.1305342  29.8695808  67.9650384 109.9765342  31.8825808  65.8280384
 110.6585342  30.2995808  66.0900384 109.0685342  30.3575808  64.1310384
 108.5875342  29.2045808  65.3470384 107.4305342  31.9945808  64.9460384
 106.6045342  30.4945808  64.5990384 106.6955342  29.8845808  67.0150384
 105.6185342  32.4665808  66.5830384 119.3365342  44.5415808  98.4620384
 120.8505342  44.3505808  98.6820384 121.2165342  44.3235808 100.1810384
 120.6555342  45.5445808 100.9420384 119.1435342  45.7245808 100.7030384
 118.8085342  45.7935808  99.1980384 117.4265342  45.9805808  98.9790384
 119.1105342  44.5985808  97.3960384 118.8225342  43.6545808  98.8400384
 121.1835342  43.4295808  98.2010384 121.3935342  45.1615808  98.1920384
 120.8255342  43.4095808 100.6300384 122.2995342  44.2785808 100.2980384
 120.8545342  45.4405808 102.0090384 121.1825342  46.4435808 100.6210384
 118.6235342  44.8765808 101.1540384 118.7805342  46.6155808 101.2190384
 119.3345342  46.6575808  98.7880384 116.9585342  45.2215808  99.3380384
  56.2815342 127.7915808  47.7590384  57.4035342 128.7175808  47.2470384
  57.7365342 128.4525808  45.7640384  58.0235342 126.9615808  45.4860384
  56.8975342 126.0515808  46.0130384  56.6135342 126.3035808  47.5090384
  55.5965342 125.4555808  47.9970384  56.0945342 127.9695808  48.8200384
  55.3585342 128.0515808  47.2350384  57.1165342 129.7615808  47.3840384
  58.3005342 128.5685808  47.8520384  56.8995342 128.7785808  45.1440384
  58.5915342 129.0595808  45.4610384  58.1625342 126.8025808  44.4160384
  58.9665342 126.6815808  45.9580384  55.9955342 126.2545808  45.4320384
  57.1445342 125.0025808  45.8400384  57.5315342 126.0785808  48.0550384
  54.7855342 125.6485808  47.5190384 100.0175342  27.2225808  65.5280384
  98.5205342  27.0895808  65.1830384  97.6245342  27.7915808  66.2260384
  97.9435342  27.3435808  67.6680384  99.4455342  27.4735808  67.9910384
 100.3165342  26.7265808  66.9600384 101.6905342  26.8275808  67.2680384
 100.6255342  26.6825808  64.8000384 100.2955342  28.2755808  65.4430384
  98.3285342  27.5005808  64.1910384  98.2525342  26.0325808  65.1300384
  97.7605342  28.8715808  66.1470384  96.5745342  27.6015808  66.0010384
  97.3575342  27.9275808  68.3770384  97.6335342  26.3055808  67.8010384
  99.7035342  28.5345808  67.9860384  99.6495342  27.1125808  69.0010384
 100.0385342  25.6715808  67.0040384 101.9415342  27.7545808  67.2310384
  96.2375342  93.0595808  54.8750384  97.4115342  94.0265808  55.1250384
  97.6905342  94.2165808  56.6310384  96.4205342  94.6085808  57.4160384
  95.2555342  93.6365808  57.1470384  94.9675342  93.4975808  55.6370384
  93.8865342  92.6235808  55.3910384  96.0335342  92.9755808  53.8060384
  96.5375342  92.0645808  55.2110384  98.3095342  93.6615808  54.6230384
  97.1855342  94.9955808  54.6740384  98.0945342  93.2905808  57.0410384
  98.4635342  94.9735808  56.7730384  96.6395342  94.6415808  58.4840384
  96.1205342  95.6195808  57.1380384  95.5245342  92.6605808  57.5580384
  94.3605342  93.9585808  57.6820384  94.6915342  94.4875808  55.2680384
  94.1235342  91.7505808  55.7150384 103.2215342  94.8905808 104.7730384
 104.0145342  96.1315808 105.2310384 104.9355342  96.6695808 104.1170384
 105.8435342  95.5705808 103.5260384 105.0365342  94.3345808 103.0830384
 104.1575342  93.7885808 104.2280384 103.4335342  92.6435808 103.8280384
 102.6105342  94.5045808 105.5910384 102.5275342  95.1995808 103.9890384
 103.3265342  96.9135808 105.5560384 104.6155342  95.8745808 106.1060384
 104.3245342  97.0965808 103.3210384 105.5455342  97.4885808 104.5020384
 106.4095342  95.9675808 102.6830384 106.5815342  95.2715808 104.2720384
 104.4015342  94.6255808 102.2430384 105.7045342  93.5585808 102.7070384
 104.8255342  93.4975808 105.0400384 102.8425342  92.8935808 103.1130384
  64.1675342  47.3415808 104.3140384  64.9935342  47.0325808 103.0500384
  64.8065342  48.1105808 101.9620384  63.3175342  48.3735808 101.6490384
  62.5055342  48.6715808 102.9250384  62.6745342  47.5565808 103.9790384
  61.9145342  47.8185808 105.1400384  64.2845342  46.5445808 105.0500384
  64.5705342  48.2475808 104.7740384  66.0505342  46.9435808 103.3080384
  64.6965342  46.0605808 102.6510384  65.2725342  49.0395808 102.2930384
  65.3315342  47.8155808 101.0520384  63.2255342  49.2025808 100.9470384
  62.8945342  47.5025808 101.1450384  62.8555342  49.6195808 103.3370384
  61.4515342  48.8125808 102.6800384  62.3035342  46.6315808 103.5350384
  62.2355342  48.6325808 105.5360384 113.9135342  25.3515808  78.5190384
 115.3485342  25.7025808  78.0780384 115.7345342  27.1445808  78.4710384
 114.6955342  28.1795808  77.9890384 113.2665342  27.8075808  78.4310384
 112.8875342  26.3785808  77.9870384 111.5715342  26.0445808  78.3730384
 113.6505342  24.3435808  78.1930384 113.8835342  25.3395808  79.6100384
 116.0555342  24.9955808  78.5150384 115.4335342  25.5875808  76.9960384
 115.8285342  27.2075808  79.5560384 116.7175342  27.3885808  78.0660384
 114.9555342  29.1695808  78.3650384 114.7315342  28.2495808  76.9010384
 113.2165342  27.8765808  79.5190384 112.5475342  28.5325808  78.0440384
 112.9365342  26.3525808  76.8970384 111.5225342  26.0645808  79.3320384
  63.1585342  29.8675808  99.0980384  62.6395342  29.9945808  97.6520384
  61.7745342  28.7845808  97.2420384  62.4895342  27.4405808  97.5000384
  63.0095342  27.3345808  98.9460384  63.9075342  28.5335808  99.3180384
  64.4025342  28.4265808 100.6360384  63.8005342  30.7135808  99.3490384
  62.3025342  29.9185808  99.7740384  62.0655342  30.9165808  97.5420384
  63.4865342  30.0825808  96.9690384  60.8385342  28.8055808  97.8010384
  61.5005342  28.8635808  96.1890384  61.8135342  26.6125808  97.2850384
  63.3255342  27.3365808  96.8060384  62.1485342  27.3035808  99.6170384
  63.5455342  26.3945808  99.0900384  64.7605342  28.5235808  98.6360384
  63.6555342  28.4355808 101.2410384 139.0125342  63.8035808  76.8720384
 137.6425342  63.1065808  76.7590384 137.5835342  61.8135808  77.5990384
 138.7595342  60.8625808  77.2930384 140.1205342  61.5785808  77.4020384
 140.1705342  62.8425808  76.5180384 141.4235342  63.4875808  76.6010384
 139.0435342  64.6905808  76.2370384 139.1335342  64.1555808  77.8990384
 136.8505342  63.7895808  77.0700384 137.4425342  62.8675808  75.7120384
 137.5965342  62.0725808  78.6580384 136.6355342  61.3005808  77.4250384
 138.7335342  60.0075808  77.9700384 138.6435342  60.4555808  76.2870384
 140.2765342  61.8565808  78.4450384 140.9305342  60.8955808  77.1420384
 140.0235342  62.5225808  75.4850384 141.5585342  63.7715808  77.5090384
 104.1915342  82.3905808 105.9200384 103.6355342  83.1815808 107.1210384
 103.8845342  82.4505808 108.4570384 103.3855342  80.9895808 108.4260384
 103.9435342  80.2175808 107.2140384 103.6425342  80.9465808 105.8880384
 104.1345342  80.2285808 104.7760384 103.9655342  82.9075808 104.9860384
 105.2795342  82.3635808 106.0030384 104.0835342  84.1755808 107.1520384
 102.5625342  83.3365808 106.9880384 104.9525342  82.4605808 108.6780384
 103.4015342  82.9915808 109.2720384 103.6625342  80.4825808 109.3510384
 102.2955342  80.9805808 108.3910384 105.0235342  80.1205808 107.3400384
 103.5435342  79.2015808 107.1940384 102.5575342  81.0125808 105.7920384
 105.0905342  80.1675808 104.8540384  50.3995342  93.4815808  97.2700384
  50.5735342  95.0105808  97.3620384  49.5425342  95.7615808  96.4930384
  49.5255342  95.2535808  95.0360384  49.3605342  93.7225808  94.9630384
  50.4305342  92.9945808  95.8040384  50.2925342  91.5915808  95.7200384
  51.1655342  92.9745808  97.8590384  49.4395342  93.2195808  97.7200384
  50.4895342  95.3335808  98.4010384  51.5815342  95.2815808  97.0420384
  48.5495342  95.6395808  96.9280384  49.7505342  96.8325808  96.5110384
  48.7245342  95.7415808  94.4810384  50.4545342  95.5415808  94.5420384
  48.3675342  93.4685808  95.3370384  49.3925342  93.3855808  93.9250384
  51.4055342  93.2615808  95.3920384  49.4355342  91.3495808  96.0810384
  75.6375342  91.1435808 128.3000384  74.8145342  92.1545808 127.4770384
  74.6495342  93.4985808 128.2170384  74.1035342  93.3155808 129.6490384
  74.9325342  92.2935808 130.4530384  75.0455342  90.9445808 129.7130384
  75.7865342  90.0015808 130.4580384  75.7045342  90.1885808 127.7740384
  76.6585342  91.5215808 128.3830384  75.2875342  92.3195808 126.5080384
  73.8295342  91.7345808 127.2660384  75.6145342  94.0055808 128.2620384
  73.9895342  94.1565808 127.6490384  74.0895342  94.2745808 130.1680384
  73.0665342  92.9815808 129.6010384  75.9305342  92.7105808 130.6070384
  74.5025342  92.1535808 131.4460384  74.0335342  90.5555808 129.5900384
  76.6805342  90.3385808 130.5700384 114.6555342  72.3045808  26.2590384
 115.2615342  73.5395808  25.5620384 114.2535342  74.7045808  25.4770384
 112.9105342  74.2715808  24.8530384 112.3245342  73.0305808  25.5560384
 113.3345342  71.8645808  25.5890384 112.7905342  70.7215808  26.2130384
 115.3725342  71.4815808  26.2690384 114.4655342  72.5605808  27.3040384
 116.1605342  73.8615808  26.0910384 115.5845342  73.2655808  24.5560384
 114.0745342  75.0985808  26.4780384 114.6835342  75.5255808  24.9010384
 112.1975342  75.0955808  24.8960384 113.0565342  74.0525808  23.7940384
 112.0575342  73.3115808  26.5760384 111.3965342  72.7225808  25.0700384
 113.5655342  71.6055808  24.5540384 112.5855342  70.9435808  27.1250384
 107.2695342  90.1085808  47.2690384 107.8935342  91.5175808  47.2200384
 108.7815342  91.7975808  48.4500384 108.0455342  91.5205808  49.7780384
 107.4205342  90.1125808  49.8060384 106.5025342  89.8725808  48.5890384
 105.9125342  88.5905808  48.6250384 106.6135342  89.9515808  46.4110384
 108.0745342  89.3755808  47.1810384 108.4765342  91.6355808  46.3050384
 107.0985342  92.2645808  47.1700384 109.6745342  91.1735808  48.3980384
 109.1325342  92.8305808  48.4280384 108.7325342  91.6405808  50.6160384
 107.2625342  92.2675808  49.9200384 108.2305342  89.3805808  49.8010384
 106.8735342  89.9575808  50.7380384 105.7015342  90.6135808  48.6370384
 106.6135342  87.9345808  48.5840384  40.8205342 108.4135808 111.1170384
  42.1775342 107.6825808 111.0860384  42.2365342 106.5335808 112.1150384
  41.8445342 106.9975808 113.5340384  40.4905342 107.7335808 113.5440384
  40.4725342 108.9065808 112.5400384  39.2405342 109.5945808 112.5640384
  40.8205342 109.2465808 110.4130384  40.0505342 107.7195808 110.7750384
  42.3695342 107.2955808 110.0840384  42.9785342 108.3955808 111.2950384
  41.5635342 105.7345808 111.7990384  43.2365342 106.0985808 112.1280384
  41.8075342 106.1415808 114.2080384  42.6195342 107.6575808 113.9250384
  39.7105342 107.0165808 113.2810384  40.2565342 108.0855808 114.5500384
  41.2545342 109.6045808 112.8430384  38.5475342 108.9845808 112.2980384
  91.5295342  97.3565808  58.8860384  91.3845342  98.8915808  58.8640384
  90.4195342  99.3625808  57.7560384  90.7855342  98.7815808  56.3740384
  90.9355342  97.2475808  56.4170384  91.9395342  96.8045808  57.5020384
  92.0925342  95.4005808  57.5280384  92.2485342  97.0525808  59.6490384
  90.5685342  96.9275808  59.1790384  91.0395342  99.2475808  59.8350384
  92.3655342  99.3455808  58.7060384  89.4025342  99.0635808  58.0140384
  90.4105342 100.4525808  57.7100384  90.0295342  99.0615808  55.6400384
  91.7205342  99.2265808  56.0300384  89.9555342  96.8155808  56.6290384
  91.2335342  96.8665808  55.4390384  92.9055342  97.2435808  57.2490384
  91.2435342  95.0075808  57.7510384  99.4495342  83.8215808  29.2710384
  99.3045342  82.4525808  29.9650384  98.7325342  82.5885808  31.3920384
  99.5215342  83.6055808  32.2440384  99.6645342  84.9645808  31.5310384
 100.2795342  84.8065808  30.1240384 100.4305342  86.0535808  29.4790384
  99.8935342  83.7025808  28.2820384  98.4495342  84.2315808  29.1120384
  98.6665342  81.7985808  29.3690384 100.2795342  81.9645808  30.0110384
  97.6895342  82.9025808  31.3330384  98.7285342  81.6145808  31.8850384
  99.0325342  83.7415808  33.2090384 100.5125342  83.2045808  32.4610384
  98.6715342  85.4105808  31.4470384 100.2595342  85.6505808  32.1360384
 101.2725342  84.3705808  30.2510384  99.5585342  86.4425808  29.3640384
  58.9625342  65.1835808  33.4900384  58.2715342  65.6065808  34.8010384
  58.1555342  64.4325808  35.7960384  57.5045342  63.1865808  35.1570384
  58.2025342  62.7845808  33.8430384  58.2655342  63.9625808  32.8480384
  58.8855342  63.5885808  31.6360384  58.9945342  66.0195808  32.7890384
  60.0015342  64.9315808  33.7170384  58.8175342  66.4315808  35.2610384
  57.2745342  65.9915808  34.5780384  59.1495342  64.1715808  36.1610384
  57.5835342  64.7435808  36.6720384  57.5255342  62.3545808  35.8600384
  56.4505342  63.3905808  34.9600384  59.2145342  62.4545808  34.0820384
  57.6985342  61.9275808  33.3920384  57.2385342  64.2545808  32.6250384
  59.7915342  63.3305808  31.8260384  94.6155342  38.6835808  28.9110384
  96.1535342  38.6935808  28.8060384  96.7045342  40.1125808  28.5580384
  96.0245342  40.8035808  27.3580384  94.4875342  40.7765808  27.4750384
  93.9575342  39.3415808  27.6770384  92.5485342  39.3135808  27.7630384
  94.2485342  37.6645808  29.0430384  94.3305342  39.2335808  29.8110384
  96.5915342  38.2765808  29.7140384  96.4655342  38.0365808  27.9910384
  96.5545342  40.7175808  29.4530384  97.7835342  40.0695808  28.4000384
  96.3735342  41.8335808  27.2740384  96.3255342  40.3055808  26.4350384
  94.1995342  41.3955808  28.3270384  94.0305342  41.2355808  26.5960384
  94.2525342  38.7595808  26.8020384  92.2815342  39.8245808  28.5330384
  98.5255342  28.8065808 102.6560384  97.1615342  29.3985808 103.0630384
  96.3715342  28.4445808 103.9830384  96.2495342  27.0255808 103.3890384
  97.6215342  26.4535808 102.9790384  98.3715342  27.4055808 102.0230384
  99.6185342  26.8725808 101.6310384  99.0445342  29.4805808 101.9720384
  99.1475342  28.7355808 103.5510384  97.3045342  30.3595808 103.5580384
  96.5735342  29.6045808 102.1660384  96.8695342  28.3865808 104.9520384
  95.3785342  28.8525808 104.1780384  95.7685342  26.3605808 104.1080384
  95.5935342  27.0535808 102.5170384  98.2125342  26.3055808 103.8850384
  97.5025342  25.4685808 102.5260384  97.7565342  27.5175808 101.1290384
 100.1645342  26.7715808 102.4150384  71.6255342  32.3735808  42.0740384
  72.6175342  33.5365808  42.2740384  73.4875342  33.3405808  43.5330384
  72.6405342  33.0595808  44.7920384  71.6485342  31.9015808  44.5700384
  70.7595342  32.1425808  43.3320384  69.8355342  31.0915808  43.1410384
  70.9945342  32.5575808  41.2020384  72.1975342  31.4695808  41.8550384
  73.2545342  33.6395808  41.3940384  72.0655342  34.4745808  42.3590384
  74.1745342  32.5085808  43.3690384  74.1125342  34.2205808  43.6930384
  73.2925342  32.8355808  45.6370384  72.0895342  33.9605808  45.0660384
  72.2215342  30.9825808  44.4340384  71.0345342  31.7505808  45.4610384
  70.1945342  33.0595808  43.5110384  70.3275342  30.2815808  42.9820384
  38.8405342  78.7815808 109.0440384  37.6005342  79.6965808 109.0840384
  36.4675342  79.1705808 108.1780384  36.9505342  78.8875808 106.7400384
  38.1965342  77.9795808 106.7210384  39.3305342  78.5505808 107.5970384
  40.4795342  77.7305808 107.5630384  39.6415342  79.1975808 109.6580384
  38.5725342  77.8235808 109.4940384  37.2425342  79.7945808 110.1100384
  37.8815342  80.7025808 108.7630384  36.0615342  78.2525808 108.6080384
  35.6435342  79.8855808 108.1600384  36.1475342  78.4315808 106.1600384
  37.1825342  79.8315808 106.2450384  37.9065342  76.9955808 107.0950384
  38.5405342  77.8285808 105.6960384  39.6005342  79.5245808 107.1850384
  40.2485342  76.8705808 107.9240384  89.2075342  30.6545808  94.3480384
  89.7575342  29.4695808  93.5290384  89.6985342  28.1465808  94.3200384
  90.3595342  28.2645808  95.7090384  89.8045342  29.4585808  96.5100384
  89.9155342  30.7775808  95.7160384  89.4275342  31.8755808  96.4570384
  89.2995342  31.5845808  93.7840384  88.1385342  30.4935808  94.5060384
  89.2005342  29.3715808  92.5960384  90.7915342  29.6755808  93.2440384
  88.6565342  27.8475808  94.4420384  90.1755342  27.3495808  93.7470384
  90.2145342  27.3405808  96.2700384  91.4375342  28.3795808  95.5880384
  88.7555342  29.2585808  96.7380384  90.3155342  29.5435808  97.4700384
  90.9755342  30.9495808  95.5190384  88.4935342  31.7295808  96.6340384
  33.3435342 112.1335808 100.4380384  33.4875342 110.6725808 100.9100384
  32.8605342 109.6795808  99.9080384  31.4045342 110.0475808  99.5520384
  31.2785342 111.5135808  99.0930384  31.8705342 112.4885808 100.1310384
  31.7365342 113.8325808  99.7210384  33.7555342 112.8165808 101.1830384
  33.9435342 112.2615808  99.5350384  34.5405342 110.4325808 101.0630384
  33.0055342 110.5555808 101.8830384  33.4595342 109.6635808  98.9960384
  32.9005342 108.6675808 100.3140384  31.0315342 109.3805808  98.7750384
  30.7675342 109.8855808 100.4230384  31.8115342 111.6205808  98.1460384
  30.2345342 111.7585808  98.8870384  31.3055342 112.3615808 101.0560384
  32.2325342 113.9515808  98.9060384  64.8945342  26.4595808  91.8650384
  66.2835342  26.5295808  92.5290384  66.5595342  27.9175808  93.1440384
  66.3265342  29.0615808  92.1340384  64.9375342  28.9705808  91.4730384
  64.7035342  27.5885808  90.8270384  63.4385342  27.5115808  90.2030384
  64.7405342  25.4835808  91.4020384  64.1365342  26.5525808  92.6470384
  66.3685342  25.7585808  93.2970384  67.0515342  26.3025808  91.7870384
  65.9095342  28.0635808  94.0080384  67.5815342  27.9585808  93.5240384
  66.4415342  30.0245808  92.6300384  67.0975342  29.0245808  91.3620384
  64.1825342  29.1455808  92.2420384  64.8145342  29.7655808  90.7360384
  65.4665342  27.4555808  90.0580384  62.7615342  27.6275808  90.8760384
 120.1955342  89.5835808  79.2810384 121.5135342  89.0905808  79.9130384
 121.9335342  87.7105808  79.3650384 120.7985342  86.6695808  79.4690384
 119.4885342  87.1835808  78.8410384 119.0655342  88.5425808  79.4380384
 117.8535342  89.0025808  78.8790384 119.8995342  90.5405808  79.7150384
 120.3745342  89.7695808  78.2190384 122.3065342  89.8185808  79.7360384
 121.3945342  89.0285808  80.9960384 122.2305342  87.8145808  78.3200384
 122.8165342  87.3535808  79.8960384 121.1025342  85.7385808  78.9890384
 120.6265342  86.4265808  80.5190384 119.6445342  87.2895808  77.7660384
 118.6935342  86.4455808  78.9640384 118.9075342  88.3925808  80.5070384
 117.9865342  89.1365808  77.9360384 107.7875342 127.7425808  57.3130384
 106.4575342 128.2135808  56.6920384 105.2905342 127.2665808  57.0420384
 105.6125342 125.7945808  56.7080384 106.9495342 125.3435808  57.3290384
 108.1085342 126.2805808  56.9280384 109.3365342 125.8565808  57.4790384
 108.6025342 128.4045808  57.0170384 107.7045342 127.8225808  58.3990384
 106.2285342 129.2265808  57.0270384 106.5645342 128.2715808  55.6070384
 105.0645342 127.3525808  58.1060384 104.3885342 127.5785808  56.5150384
 104.8045342 125.1485808  57.0550384 105.6565342 125.6695808  55.6250384
 106.8385342 125.3445808  58.4150384 107.1725342 124.3135808  57.0450384
 108.1955342 126.2425808  55.8410384 109.2665342 125.8885808  58.4370384
 103.3355342  80.1125808  48.3750384 103.8645342  79.3005808  47.1760384
 102.7645342  79.0465808  46.1240384 101.4925342  78.4305808  46.7430384
 100.9845342  79.2495808  47.9460384 102.0885342  79.4515808  49.0050384
 101.6185342  80.1835808  50.1160384 104.1195342  80.2415808  49.1240384
 103.0775342  81.1135808  48.0230384 104.7065342  79.8195808  46.7170384
 104.2545342  78.3445808  47.5290384 102.5075342  79.9895808  45.6380384
 103.1475342  78.3965808  45.3360384 100.7105342  78.3535808  45.9880384
 101.7045342  77.4095808  47.0640384 100.6495342  80.2215808  47.5790384
 100.1095342  78.7715808  48.3890384 102.3875342  78.4615808  49.3550384
 101.3535342  81.0565808  49.8140384 113.3755342  63.7055808  74.5890384
 114.6605342  64.1485808  75.3170384 115.9195342  63.9065808  74.4580384
 116.0025342  62.4565808  73.9360384 114.7065342  62.0285808  73.2200384
 113.4665342  62.2375808  74.1150384 112.2815342  61.8265808  73.4680384
 112.5045342  63.8475808  75.2320384 113.2295342  64.3585808  73.7250384
 114.5905342  65.2025808  75.5870384 114.7525342  63.5995808  76.2560384
 115.9145342  64.5935808  73.6110384 116.8145342  64.1455808  75.0360384
 116.8535342  62.3525808  73.2610384 116.1945342  61.7815808  74.7710384
 114.6055342  62.6265808  72.3120384 114.7765342  60.9885808  72.8970384
 113.5985342  61.6165808  75.0030384 112.1595342  62.3695808  72.6850384
  37.3905342  46.7575808 114.4040384  36.5895342  46.0625808 113.2850384
  36.2805342  47.0225808 112.1170384  35.6175342  48.3315808 112.5960384
  36.4265342  49.0065808 113.7210384  36.6845342  48.0405808 114.8960384
  37.4065342  48.6645808 115.9360384  37.5605342  46.0695808 115.2350384
  38.3765342  47.0135808 114.0100384  37.1395342  45.1945808 112.9170384
  35.6545342  45.6775808 113.6940384  37.2065342  47.2605808 111.5920384
  35.6385342  46.5255808 111.3880384  35.5005342  49.0185808 111.7570384
  34.6095342  48.1165808 112.9540384  37.3795342  49.3365808 113.3040384
  35.9155342  49.9065808 114.0690384  35.7115342  47.7445808 115.2930384
  38.2655342  48.9275808 115.5930384 121.7165342 107.2455808  47.7990384
 121.7405342 108.5735808  47.0160384 121.8995342 108.3445808  45.4990384
 123.1045342 107.4385808  45.1670384 123.0685342 106.1195808  45.9640384
 122.9545342 106.3765808  47.4820384 122.9425342 105.1695808  48.2150384
 121.6455342 107.4355808  48.8710384 120.8105342 106.7015808  47.5220384
 120.8285342 109.1395808  47.2140384 122.5645342 109.1915808  47.3770384
 120.9895342 107.8905808  45.1070384 122.0035342 109.3025808  44.9870384
 123.1265342 107.2255808  44.0970384 124.0295342 107.9705808  45.3890384
 122.2065342 105.5405808  45.6270384 123.9495342 105.5165808  45.7420384
 123.8365342 106.9445808  47.7830384 122.1675342 104.6645808  47.9550384
  59.4065342  85.9815808  16.7480384  58.7595342  84.7885808  17.4790384
  59.1695342  84.7325808  18.9660384  60.7015342  84.7835808  19.1530384
  61.3315342  85.9765808  18.4080384  60.9425342  85.9845808  16.9140384
  61.5375342  87.0655808  16.2270384  59.1355342  85.9745808  15.6910384
  58.9945342  86.9025808  17.1660384  57.6735342  84.8435808  17.3940384
  59.0545342  83.8595808  16.9880384  58.7145342  85.5705808  19.4950384
  58.7685342  83.8295808  19.4280384  60.9445342  84.8355808  20.2140384
  61.1415342  83.8545808  18.7870384  60.9815342  86.8965808  18.8810384
  62.4165342  85.9665808  18.5230384  61.3195342  85.0585808  16.4760384
  61.2095342  87.8845808  16.6090384  51.6685342 132.5665808  76.2490384
  50.2035342 132.5515808  75.7700384  49.4415342 131.3125808  76.2860384
  50.1835342 129.9965808  75.9700384  51.6485342 130.0335808  76.4460384
  52.4005342 131.2565808  75.8810384  53.7485342 131.2795808  76.3000384
  52.1955342 133.4285808  75.8360384  51.6725342 132.6925808  77.3340384
  49.6965342 133.4625808  76.0940384  50.1775342 132.5625808  74.6790384
  49.3065342 131.3985808  77.3660384  48.4395342 131.2875808  75.8570384
  49.6625342 129.1565808  76.4300384  50.1565342 129.8165808  74.8940384
  51.6505342 130.0765808  77.5370384  52.1595342 129.1085808  76.1750384
  52.3875342 131.1715808  74.7930384  53.7665342 131.3545808  77.2580384
 134.3765342  88.3555808  56.8840384 135.8115342  87.7985808  56.7960384
 135.8225342  86.2765808  56.5430384 134.9475342  85.5075808  57.5560384
 133.5215342  86.0845808  57.6370384 133.5355342  87.5985808  57.9360384
 132.2285342  88.1235808  58.0320384 134.3955342  89.4245808  57.1060384
 133.9095342  88.2525808  55.9020384 136.3625342  88.3115808  56.0070384
 136.3415342  88.0135808  57.7260384 135.4615342  86.0775808  55.5330384
 136.8465342  85.9015808  56.5760384 134.9085342  84.4515808  57.2870384
 135.4125342  85.5515808  58.5420384 133.0265342  85.9065808  56.6800384
 132.9365342  85.5495808  58.3880384 134.0245342  87.7335808  58.9030384
 131.7925342  88.0075808  57.1830384  44.1735342  74.0545808 124.8320384
  42.7085342  74.3665808 124.4670384  42.3485342  75.8415808 124.7380384
  42.7075342  76.2775808 126.1750384  44.1725342  75.9495808 126.5250384
  44.4945342  74.4595808 126.2890384  45.8305342  74.1545808 126.6300384
  44.3905342  72.9975808 124.6720384  44.8215342  74.6095808 124.1500384
  42.5265342  74.1245808 123.4180384  42.0455342  73.7205808 125.0460384
  42.8795342  76.4775808 124.0270384  41.2855342  76.0045808 124.5540384
  42.5255342  77.3455808 126.2960384  42.0445342  75.7745808 126.8810384
  44.8185342  76.5665808 125.8980384  44.3875342  76.2305808 127.5580384
  43.8395342  73.8775808 126.9400384  46.4125342  74.6635808 126.0600384
  91.6645342 101.1195808  38.6450384  92.1235342  99.6485808  38.6710384
  93.2485342  99.3775808  37.6490384  92.8775342  99.8585808  36.2300384
  92.4125342 101.3285808  36.2250384  91.2575342 101.5635808  37.2220384
  90.8175342 102.9045808  37.2020384  90.8425342 101.2745808  39.3450384
  92.4915342 101.7415808  38.9970384  92.4595342  99.3805808  39.6740384
  91.2735342  98.9995808  38.4530384  94.1585342  99.8845808  37.9740384
  93.4845342  98.3125808  37.6310384  93.7295342  99.7355808  35.5610384
  92.0835342  99.2265808  35.8300384  93.2625342 101.9555808  36.4980384
  92.1185342 101.6305808  35.2180384  90.4255342 100.9305808  36.9100384
  91.5465342 103.4675808  37.4770384  76.1085342  16.5605808  80.2390384
  76.6165342  15.2205808  79.6710384  76.3365342  14.0455808  80.6310384
  76.8565342  14.3195808  82.0590384  76.3465342  15.6675808  82.6060384
  76.6775342  16.8325808  81.6500384  76.2305342  18.0695808  82.1610384
  76.3555342  17.3805808  79.5620384  75.0185342  16.5195808  80.2890384
  76.1535342  15.0275808  78.7020384  77.6905342  15.2885808  79.4860384
  75.2625342  13.8605808  80.6700384  76.7875342  13.1315808  80.2410384
  76.5585342  13.5105808  82.7250384  77.9475342  14.3205808  82.0530384
  75.2645342  15.5965808  82.7330384  76.7605342  15.8555808  83.5990384
  77.7645342  16.8795808  81.5590384  75.2735342  18.0355808  82.2430384
 108.1815342  24.7295808  94.3080384 108.6045342  26.2045808  94.1600384
 109.4545342  26.6825808  95.3560384 108.7725342  26.3935808  96.7110384
 108.3485342  24.9175808  96.8360384 107.4635342  24.4765808  95.6520384
 107.0565342  23.1305808  95.7780384 107.5475342  24.4295808  93.4710384
 109.0795342  24.1095808  94.2530384 109.1595342  26.3425808  93.2300384
 107.7145342  26.8305808  94.0760384 110.4245342  26.1855808  95.3290384
 109.6595342  27.7505808  95.2630384 109.4425342  26.6595808  97.5280384
 107.8955342  27.0325808  96.8180384 109.2515342  24.3045808  96.8640384
 107.8345342  24.7485808  97.7840384 106.5685342  25.1005808  95.6650384
 107.8405342  22.5745808  95.7660384 104.6755342  36.2595808  81.5320384
 105.8735342  35.8195808  80.6680384 107.0245342  35.2505808  81.5240384
 107.4345342  36.2085808  82.6630384 106.2245342  36.6455808  83.5100384
 105.1065342  37.2515808  82.6360384 104.0055342  37.6725808  83.4140384
 103.8945342  36.6965808  80.9080384 104.2415342  35.3695808  81.9930384
 105.5515342  35.0765808  79.9360384 106.2385342  36.6725808  80.0920384
 106.7155342  34.2955808  81.9520384 107.8865342  35.0335808  80.8920384
 108.1825342  35.7325808  83.2980384 107.9165342  37.0905808  82.2380384
 105.8405342  35.7685808  84.0350384 106.5355342  37.3525808  84.2820384
 105.5225342  38.1305808  82.1400384 103.6345342  36.9025808  83.8540384
  56.4875342  86.6275808 113.0930384  57.7575342  85.7805808 113.3100384
  58.8535342  86.5675808 114.0590384  59.1535342  87.9285808 113.3960384
  57.8725342  88.7565808 113.1790384  56.8095342  87.9645808 112.3880384
  55.6435342  88.7305808 112.1710384  55.7455342  86.0635808 112.5260384
  56.0405342  86.8295808 114.0690384  57.5095342  84.8715808 113.8600384
  58.1445342  85.4525808 112.3430384  58.5365342  86.7315808 115.0900384
  59.7655342  85.9715808 114.1150384  59.8625342  88.4905808 114.0040384
  59.6445342  87.7625808 112.4360384  57.4715342  89.0275808 114.1570384
  58.1075342  89.6945808 112.6720384  57.2405342  87.7235808 111.4150384
  55.2585342  88.9455808 113.0250384  98.1645342  69.3425808  36.3830384
  96.7595342  69.7755808  36.8460384  96.7095342  71.2735808  37.2110384
  97.8125342  71.6675808  38.2170384  99.2095342  71.2185808  37.7430384
  99.2445342  69.7085808  37.4270384 100.5285342  69.2915808  37.0130384
  98.1835342  68.2715808  36.1720384  98.3855342  69.8475808  35.4400384
  96.0275342  69.5575808  36.0660384  96.4635342  69.1815808  37.7130384
  96.8225342  71.8685808  36.3040384  95.7295342  71.5245808  37.6180384
  97.8025342  72.7455808  38.3770384  97.5965342  71.2155808  39.1860384
  99.4625342  71.7845808  36.8450384  99.9635342  71.4725808  38.4890384
  98.9995342  69.1775808  38.3490384 100.7505342  69.7555808  36.2010384
  40.3575342  58.2445808  74.8190384  41.2775342  57.0715808  75.2120384
  42.6725342  57.1905808  74.5630384  42.5915342  57.3945808  73.0350384
  41.6605342  58.5645808  72.6600384  40.2585342  58.3985808  73.2840384
  39.3995342  59.4595808  72.9240384  39.3655342  58.1145808  75.2560384
  40.7675342  59.1595808  75.2510384  41.3755342  57.0225808  76.2980384
  40.8165342  56.1305808  74.9070384  43.2055342  58.0315808  75.0100384
  43.2645342  56.3025808  74.7890384  43.5885342  57.5665808  72.6290384
  42.2285342  56.4785808  72.5670384  42.1135342  59.4895808  73.0220384
  41.5895342  58.6605808  71.5750384  39.8345342  57.4735808  72.8910384
  39.7665342  60.2775808  73.2680384  71.9155342 106.2755808  62.7630384
  73.0635342 105.9685808  61.7800384  73.4635342 107.2105808  60.9560384
  72.2495342 107.8685808  60.2640384  71.1095342 108.1585808  61.2590384
  70.6975342 106.8915808  62.0390384  69.6385342 107.1525808  62.9350384
  71.6245342 105.3725808  63.3020384  72.2865342 106.9775808  63.5130384
  73.9295342 105.5895808  62.3260384  72.7585342 105.1685808  61.1040384
  73.9415342 107.9385808  61.6120384  74.2125342 106.9365808  60.2110384
  72.5575342 108.7905808  59.7710384  71.8835342 107.2105808  59.4750384
  71.4545342 108.9215808  61.9590384  70.2505342 108.5855808  60.7390384
  70.3485342 106.1595808  61.3080384  69.9405342 107.7965808  63.5820384
  39.2215342  78.5995808  42.6140384  39.2915342  79.6785808  43.7130384
  40.0895342  80.9165808  43.2540384  41.4805342  80.5445808  42.6990384
  41.3915342  79.4585808  41.6090384  40.6295342  78.2125808  42.1070384
  40.5665342  77.2085808  41.1160384  38.6905342  77.7185808  42.9780384
  38.6325342  78.9945808  41.7840384  38.2845342  79.9735808  44.0110384
  39.7595342  79.2575808  44.6060384  39.5235342  81.4425808  42.4830384
  40.1955342  81.6185808  44.0830384  41.9725342  81.4325808  42.3010384
  42.1115342  80.1885808  43.5140384  40.8735342  79.8825808  40.7470384
  42.3905342  79.1845808  41.2620384  41.1835342  77.8115808  42.9580384
  40.0795342  77.5565808  40.3640384  56.7755342 102.9495808  39.2210384
  58.1425342 103.6235808  38.9910384  59.2735342 102.9075808  39.7590384
  58.9435342 102.7305808  41.2560384  57.5705342 102.0645808  41.4670384
  56.4495342 102.8235808  40.7260384  55.1875342 102.2265808  40.9360384
  55.9875342 103.4985808  38.7030384  56.8055342 101.9535808  38.7720384
  58.3725342 103.6455808  37.9250384  58.0915342 104.6655808  39.3120384
  59.4475342 101.9285808  39.3110384  60.2075342 103.4615808  39.6470384
  59.7225342 102.1415808  41.7420384  58.9525342 103.7055808  41.7460384
  57.6265342 101.0405808  41.0910384  57.3445342 101.9875808  42.5320384
  56.4155342 103.8345808  41.1370384  55.2105342 101.3355808  40.5760384
  50.5145342  55.1145808  40.7560384  49.6445342  55.3125808  42.0130384
  48.2275342  55.8095808  41.6600384  48.2545342  57.0585808  40.7530384
  49.1365342  56.8445808  39.5070384  50.5615342  56.3925808  39.8890384
  51.3755342  56.2165808  38.7490384  51.5235342  54.8035808  41.0360384
  50.0905342  54.2935808  40.1730384  49.5825342  54.3795808  42.5750384
  50.1255342  56.0345808  42.6770384  47.6825342  55.0105808  41.1550384
  47.6705342  56.0255808  42.5730384  47.2405342  57.3215808  40.4510384
  48.6315342  57.9105808  41.3210384  48.6655342  56.0825808  38.8840384
  49.1705342  57.7545808  38.9050384  51.0015342  57.1835808  40.4990384
  50.9935342  55.5205808  38.2080384 120.9965342  76.1285808  86.8250384
 119.7515342  75.2215808  86.7770384 118.6515342  75.7025808  87.7460384
 119.1835342  75.9055808  89.1810384 120.4335342  76.8065808  89.2090384
 121.5355342  76.2795808  88.2660384 122.6885342  77.0925808  88.3060384
 121.7745342  75.7435808  86.1630384 120.7195342  77.1115808  86.4360384
 119.3585342  75.1805808  85.7600384 120.0365342  74.1995808  87.0330384
 118.2365342  76.6435808  87.3810384 117.8245342  74.9905808  87.7530384
 118.4015342  76.3325808  89.8110384 119.4265342  74.9345808  89.6170384
 120.1365342  77.8095808  88.8980384 120.8115342  76.8995808  90.2280384
 121.8125342  75.2835808  88.6150384 122.4505342  77.9715808  87.9990384
 100.7325342  58.9125808 124.2750384 100.4195342  60.4225808 124.2720384
  99.1905342  60.7535808 123.4000384  99.3085342  60.1695808 121.9770384
  99.6305342  58.6625808 121.9990384 100.8885342  58.3615808 122.8400384
 101.1965342  56.9835808 122.8440384 101.6285342  58.7095808 124.8640384
  99.9105342  58.3945808 124.7760384 100.2565342  60.7705808 125.2940384
 101.2865342  60.9715808 123.9000384  98.2935342  60.3575808 123.8780384
  99.0535342  61.8355808 123.3480384  98.3845342  60.3455808 121.4250384
 100.0915342  60.6985808 121.4320384  98.7725342  58.1375808 122.4250384
  99.7475342  58.2835808 120.9820384 101.7225342  58.8915808 122.3770384
 100.4645342  56.5105808 123.2510384  52.7325342  20.6475808  89.4300384
  53.9545342  19.7585808  89.1260384  54.7835342  20.3035808  87.9450384
  53.9175342  20.5675808  86.6950384  52.6955342  21.4495808  87.0190384
  51.8585342  20.8605808  88.1730384  50.7275342  21.6565808  88.4560384
  52.1405342  20.2185808  90.2400384  53.0935342  21.6135808  89.7890384
  54.5835342  19.6735808  90.0140384  53.6185342  18.7455808  88.8960384
  55.2725342  21.2315808  88.2460384  55.5855342  19.6055808  87.7000384
  54.5205342  21.0375808  85.9170384  53.5785342  19.6165808  86.2820384
  53.0555342  22.4415808  87.2990384  52.0795342  21.5875808  86.1280384
  51.5065342  19.8785808  87.8510384  51.0305342  22.5225808  88.7410384
  90.8485342  53.2225808 115.2260384  90.7215342  54.5615808 115.9790384
  91.4945342  54.5465808 117.3150384  91.1205342  53.3335808 118.1930384
  91.2445342  52.0055808 117.4210384  90.4275342  52.0285808 116.1130384
  90.5235342  50.8045808 115.4160384  90.2605342  53.2435808 114.3070384
  91.8905342  53.0985808 114.9220384  91.0805342  55.3785808 115.3500384
  89.6675342  54.7695808 116.1730384  92.5655342  54.5255808 117.1090384
  91.3095342  55.4725808 117.8610384  91.7525342  53.3085808 119.0810384
  90.0975342  53.4495808 118.5530384  92.2995342  51.8425808 117.1900384
  90.9365342  51.1695808 118.0520384  89.3815342  52.1795808 116.3860384
  91.4425342  50.6665808 115.1720384  95.7095342 127.9835808  79.7170384
  96.9535342 128.8175808  79.3490384  96.6205342 129.9275808  78.3310384
  95.8835342 129.3815808  77.0890384  94.6495342 128.5435808  77.4770384
  95.0155342 127.4125808  78.4600384  93.8895342 126.6305808  78.7990384
  95.9795342 127.1795808  80.4050384  95.0125342 128.6295808  80.2560384
  97.3875342 129.2555808  80.2490384  97.7195342 128.1615808  78.9310384
  95.9995342 130.6835808  78.8140384  97.5355342 130.4375808  78.0260384
  95.5855342 130.2065808  76.4410384  96.5685342 128.7685808  76.5030384
  93.9185342 129.2075808  77.9410384  94.1705342 128.1375808  76.5840384
  95.7365342 126.7645808  77.9570384  93.2515342 127.1955808  79.2430384
  96.0335342 122.3765808  78.3870384  95.7315342 123.8795808  78.2250384
  94.5065342 124.1275808  77.3210384  94.6215342 123.3955808  75.9670384
  94.9315342 121.8975808  76.1480384  96.1865342 121.6765808  77.0180384
  96.4845342 120.3045808  77.1660384  96.9275342 122.2295808  78.9950384
  95.2075342 121.9195808  78.9380384  95.5705342 124.3345808  79.2040384
  96.6035342 124.3795808  77.7980384  93.6055342 123.7895808  77.8360384
  94.3765342 125.1975808  77.1560384  93.6995342 123.5195808  75.3980384
  95.4085342 123.8595808  75.3710384  94.0705342 121.4255808  76.6240384
  95.0475342 121.4125808  75.1760384  97.0255342 122.1495808  76.5030384
  95.7485342 119.8825808  77.6190384 107.4775342  81.7385808  37.1440384
 106.1045342  82.4245808  37.2870384 105.7935342  82.7905808  38.7530384
 105.9575342  81.5855808  39.7040384 107.3315342  80.9075808  39.5410384
 107.5995342  80.5105808  38.0740384 108.8495342  79.8695808  37.9270384
 107.6555342  81.4525808  36.1060384 108.2515342  82.4665808  37.4000384
 106.0685342  83.3195808  36.6640384 105.3265342  81.7595808  36.9070384
 106.4605342  83.5935808  39.0720384 104.7815342  83.1895808  38.8300384
 105.8205342  81.9065808  40.7380384 105.1685342  80.8585808  39.5060384
 108.0995342  81.6075808  39.8750384 107.4055342  80.0365808  40.1950384
 106.8215342  79.8025808  37.7820384 109.5385342  80.4885808  38.1830384
 133.5265342  96.0545808  86.0720384 132.0075342  96.1905808  86.2970384
 131.2585342  94.8795808  85.9770384 131.6045342  94.3355808  84.5740384
 133.1265342  94.2145808  84.3640384 133.8475342  95.5495808  84.6470384
 135.2395342  95.4465808  84.4340384 134.0275342  97.0045808  86.2640384
 133.9185342  95.3455808  86.8050384 131.8085342  96.4905808  87.3270384
 131.6185342  96.9925808  85.6670384 131.5125342  94.1285808  86.7260384
 130.1825342  95.0365808  86.0590384 131.1305342  93.3645808  84.4240384
 131.1855342  94.9975808  83.8160384 133.5045342  93.4465808  85.0410384
 133.3445342  93.8665808  83.3530384 133.4535342  96.2865808  83.9440384
 135.5925342  94.7985808  85.0500384  70.4755342  74.6815808 129.8650384
  70.0475342  76.0845808 129.3910384  68.8265342  76.0275808 128.4490384
  69.0385342  75.0445808 127.2770384  69.4745342  73.6505808 127.7690384
  70.7235342  73.7305808 128.6730384  71.1365342  72.4515808 129.1060384
  71.3645342  74.7465808 130.4950384  69.6805342  74.2755808 130.4940384
  69.8235342  76.7165808 130.2520384  70.8815342  76.5635808 128.8740384
  67.9475342  75.7235808 129.0180384  68.6085342  77.0235808 128.0630384
  68.1225342  74.9625808 126.6900384  69.7965342  75.4435808 126.6020384
  68.6465342  73.2115808 128.3290384  69.6565342  72.9875808 126.9210384
  71.5295342  74.1605808 128.0750384  70.4295342  72.0675808 129.6330384
  60.1685342  42.2175808 102.1670384  61.6895342  42.2945808 101.9310384
  62.0865342  43.5605808 101.1430384  61.2755342  43.7165808  99.8390384
  59.7575342  43.6275808 100.0930384  59.3805342  42.3315808 100.8420384
  57.9885342  42.2395808 101.0560384  59.9095342  41.2935808 102.6880384
  59.8835342  43.0365808 102.8310384  62.2165342  42.2705808 102.8860384
  62.0175342  41.4095808 101.3820384  61.9295342  44.4385808 101.7710384
  63.1535342  43.5375808 100.9160384  61.5175342  44.6655808  99.3610384
  61.5705342  42.9385808  99.1340384  59.4605342  44.4925808 100.6880384
  59.2095342  43.6995808  99.1510384  59.6815342  41.4925808 100.2120384
  57.7175342  42.9755808 101.6110384  70.4515342  32.1495808  91.4140384
  69.2845342  31.6025808  90.5680384  68.3285342  32.7245808  90.1110384
  67.8485342  33.5995808  91.2880384  69.0275342  34.1295808  92.1280384
  69.9425342  32.9855808  92.6110384  71.0105342  33.4675808  93.3980384
  71.0875342  31.3335808  91.7600384  71.0745342  32.7765808  90.7730384
  69.6725342  31.0675808  89.7000384  68.7265342  30.8675808  91.1520384
  68.8375342  33.3545808  89.3800384  67.4705342  32.2935808  89.5930384
  67.2535342  34.4335808  90.9140384  67.1835342  33.0155808  91.9260384
  69.6025342  34.8205808  91.5100384  68.6585342  34.7105808  92.9760384
  69.3365342  32.3255808  93.2340384  71.5485342  34.0495808  92.8550384
  95.4755342  96.9355808 126.3660384  95.8455342  95.9885808 125.2070384
  96.1715342  96.7625808 123.9120384  95.0565342  97.7595808 123.5310384
  94.6935342  98.6915808 124.7030384  94.3285342  97.8935808 125.9730384
  93.9745342  98.7465808 127.0410384  95.2085342  96.3635808 127.2560384
  96.3615342  97.5185808 126.6270384  96.6945342  95.3655808 125.4920384
  95.0165342  95.3035808 125.0200384  97.1085342  97.3045808 124.0440384
  96.3395342  96.0615808 123.0930384  95.3655342  98.3495808 122.6670384
  94.1685342  97.2075808 123.2180384  95.5535342  99.3305808 124.9100384
  93.8765342  99.3585808 124.4200384  93.4595342  97.2785808 125.7310384
  94.7365342  99.2905808 127.2590384  51.4545342  59.8035808  38.1070384
  52.8615342  59.2595808  38.4240384  53.9205342  59.7895808  37.4350384
  53.5135342  59.5605808  35.9640384  52.1015342  60.1025808  35.6680384
  51.0535342  59.5235808  36.6420384  49.7565342  60.0025808  36.3580384
  50.7185342  59.3815808  38.7940384  51.4575342  60.8815808  38.2840384
  53.1415342  59.5215808  39.4460384  52.8455342  58.1685808  38.3860384
  54.0685342  60.8565808  37.6060384  54.8835342  59.3155808  37.6330384
  54.2395342  60.0305808  35.3000384  53.5455342  58.4935808  35.7410384
  52.1265342  61.1895808  35.7640384  51.8225342  59.8925808  34.6340384
  51.0485342  58.4405808  36.5070384  49.7535342  60.9565808  36.4750384
 134.8205342  52.1105808  91.9750384 134.5465342  50.5935808  91.9900384
 133.4745342  50.2125808  93.0330384 133.7975342  50.7715808  94.4350384
 134.0775342  52.2865808  94.3990384 135.1845342  52.6365808  93.3810384
 135.4565342  54.0225808  93.3630384 135.6115342  52.3475808  91.2600384
 133.9205342  52.6165808  91.6190384 134.2365342  50.2605808  90.9980384
 135.4735342  50.0595808  92.2130384 132.5065342  50.5945808  92.7080384
 133.3715342  49.1275808  93.0800384 132.9745342  50.5615808  95.1180384
 134.6675342  50.2525808  94.8400384 133.1535342  52.7975808  94.1220384
 134.3425342  52.6485808  95.3940384 136.0915342  52.1195808  93.6980384
 134.6605342  54.4835808  93.0850384  95.2905342 105.3475808  22.0200384
  96.1625342 106.5495808  21.6030384  97.4835342 106.6055808  22.3990384
  97.2505342 106.5415808  23.9240384  96.3695342 105.3405808  24.3200384
  95.0355342 105.3315808  23.5440384  94.2195342 104.2435808  23.9220384
  94.3455342 105.3545808  21.4730384  95.8085342 104.4315808  21.7280384
  96.3745342 106.5025808  20.5340384  95.6045342 107.4745808  21.7620384
  98.1195342 105.7725808  22.0980384  98.0315342 107.5135808  22.1440384
  98.2075342 106.4895808  24.4440384  96.7745342 107.4645808  24.2560384
  96.9235342 104.4255808  24.1040384  96.1875342 105.3415808  25.3970384
  94.5075342 106.2535808  23.7950384  94.6795342 103.4295808  23.7030384
  60.6475342  23.1985808  78.7290384  59.9605342  24.5785808  78.7470384
  60.9465342  25.7175808  78.4170384  62.2105342  25.6725808  79.3030384
  62.8785342  24.2835808  79.2800384  61.8825342  23.1665808  79.6570384
  62.4995342  21.8965808  79.6570384  59.9395342  22.4155808  79.0060384
  60.9575342  22.9845808  77.7030384  59.1285342  24.5895808  78.0400384
  59.5225342  24.7525808  79.7320384  61.2405342  25.6465808  77.3690384
  60.4495342  26.6825808  78.5270384  62.9205342  26.4335808  78.9780384
  61.9415342  25.9285808  80.3290384  63.2615342  24.1065808  78.2730384
  63.7445342  24.2675808  79.9450384  61.5335342  23.3715808  80.6700384
  62.8095342  21.7105808  78.7660384  34.8865342 107.1225808  47.4000384
  34.3495342 106.1955808  46.2920384  33.2165342 105.2815808  46.8050384
  33.6195342 104.5105808  48.0800384  34.1625342 105.4515808  49.1730384
  35.3235342 106.3235808  48.6480384  35.8355342 107.1705808  49.6550384
  35.7135342 107.7275808  47.0240384  34.0935342 107.8215808  47.6760384
  33.9945342 106.7895808  45.4480384  35.1645342 105.5805808  45.9070384
  32.3335342 105.8865808  47.0150384  32.9235342 104.5795808  46.0230384
  32.7655342 103.9505808  48.4620384  34.3805342 103.7695808  47.8300384
  33.3455342 106.0945808  49.5060384  34.4775342 104.8785808  50.0470384
  36.1225342 105.6475808  48.3380384  35.1355342 107.7685808  49.9320384
  62.7965342 102.9785808 112.1400384  62.8565342 103.4655808 110.6780384
  64.3095342 103.5815808 110.1700384  65.1935342 104.4255808 111.1130384
  65.1135342 103.9305808 112.5700384  63.6545342 103.8665808 113.0700384
  63.5815342 103.4335808 114.4120384  61.7625342 102.9455808 112.4880384
  63.1665342 101.9515808 112.1740384  62.2905342 102.7875808 110.0360384
  62.3665342 104.4375808 110.5990384  64.7375342 102.5825808 110.0740384
  64.3185342 104.0125808 109.1670384  66.2275342 104.4055808 110.7690384
  64.8785342 105.4685808 111.0660384  65.5595342 102.9355808 112.6180384
  65.7145342 104.5685808 113.2210384  63.2485342 104.8785808 113.0200384
  63.9375342 102.5425808 114.4630384 128.2525342  89.2325808 103.4590384
 128.0695342  88.1405808 104.5310384 127.3315342  88.6745808 105.7770384
 127.9845342  89.9545808 106.3390384 128.1675342  91.0315808 105.2520384
 128.9475342  90.4855808 104.0360384 129.1345342  91.4775808 103.0490384
 128.8135342  88.8415808 102.6080384 127.2665342  89.5065808 103.0780384
 127.5255342  87.2925808 104.1110384 129.0475342  87.7555808 104.8270384
 126.2935342  88.8845808 105.5160384 127.2995342  87.9035808 106.5480384
 127.3815342  90.3505808 107.1570384 128.9555342  89.7065808 106.7710384
 127.1785342  91.3635808 104.9310384 128.6665342  91.9095808 105.6660384
 129.9315342  90.1765808 104.3940384 128.2705342  91.7535808 102.7300384
  64.9645342  17.7545808  71.2400384  63.7095342  17.3945808  72.0600384
  63.7545342  15.9405808  72.5730384  64.0345342  14.9285808  71.4410384
  65.2875342  15.3095808  70.6270384  65.1985342  16.7525808  70.0870384
  66.3355342  17.0945808  69.3240384  64.8895342  18.7725808  70.8540384
  65.8265342  17.7425808  71.9120384  63.6025342  18.0825808  72.9000384
  62.8205342  17.5325808  71.4410384  64.5315342  15.8515808  73.3340384
  62.8155342  15.6925808  73.0690384  64.1505342  13.9275808  71.8570384
  63.1715342  14.8815808  70.7760384  66.1575342  15.2175808  71.2790384
  65.4395342  14.6025808  69.8100384  64.3255342  16.8015808  69.4330384
  67.1075342  17.0535808  69.8950384  40.3865342  42.1555808  41.5510384
  41.5715342  43.1115808  41.7900384  41.4375342  44.4105808  40.9680384
  41.1925342  44.1325808  39.4700384  40.0115342  43.1675808  39.2510384
  40.1895342  41.8585808  40.0480384  39.1185342  40.9655808  39.8300384
  40.5255342  41.2285808  42.1100384  39.4835342  42.6235808  41.9500384
  41.6505342  43.3495808  42.8520384  42.5025342  42.6085808  41.5230384
  40.6115342  45.0025808  41.3640384  42.3335342  45.0215808  41.0920384
  41.0115342  45.0695808  38.9420384  42.0945342  43.7065808  39.0290384
  39.0975342  43.6695808  39.5740384  39.8855342  42.9565808  38.1870384
  41.1035342  41.3815808  39.6880384  38.3105342  41.3795808  40.1450384
 104.9035342 102.4995808  54.9920384 104.1615342 101.1735808  54.7340384
 103.9385342 100.3745808  56.0350384 105.2465342 100.1785808  56.8320384
 105.9785342 101.5135808  57.0720384 106.2295342 102.2705808  55.7520384
 106.9185342 103.4835808  55.9690384 105.0855342 103.0245808  54.0520384
 104.2515342 103.1455808  55.5850384 103.2035342 101.3705808  54.2490384
 104.7365342 100.5665808  54.0310384 103.2135342 100.8995808  56.6590384
 103.4945342  99.4055808  55.8050384 105.0325342  99.6935808  57.7850384
 105.9025342  99.4985808  56.2870384 105.3625342 102.1255808  57.7330384
 106.9175342 101.3415808  57.6010384 106.8575342 101.6335808  55.1260384
 106.3705342 104.0495808  56.5200384  89.3255342  99.4235808  49.2990384
  88.0705342  98.7165808  49.8500384  88.4025342  97.8065808  51.0510384
  89.5505342  96.8225808  50.7390384  90.7925342  97.5455808  50.1820384
  90.4425342  98.4135808  48.9550384  91.5835342  99.0595808  48.4310384
  89.0715342 100.0265808  48.4260384  89.6865342 100.1195808  50.0600384
  87.3225342  99.4565808  50.1390384  87.6155342  98.1185808  49.0580384
  88.6825342  98.4265808  51.9040384  87.5125342  97.2555808  51.3560384
  89.8165342  96.2645808  51.6380384  89.2065342  96.0825808  50.0150384
  91.2005342  98.1785808  50.9720384  91.5725342  96.8235808  49.9330384
  90.0505342  97.7455808  48.1860384  91.9335342  99.6495808  49.1040384
  86.1375342  36.3875808  43.0050384  85.5425342  37.3425808  44.0580384
  84.2015342  37.9485808  43.5940384  84.3045342  38.5965808  42.1970384
  84.9095342  37.6305808  41.1590384  86.2715342  37.0735808  41.6260384
  86.8365342  36.2055808  40.6670384  87.1045342  36.0065808  43.3380384
  85.4775342  35.5215808  42.9170384  85.4055342  36.8155808  45.0040384
  86.2515342  38.1475808  44.2600384  83.4415342  37.1655808  43.5720384
  83.8545342  38.6845808  44.3210384  83.3195342  38.9285808  41.8670384
  84.9215342  39.4945808  42.2590384  84.2095342  36.8065808  41.0120384
  85.0095342  38.1265808  40.1910384  86.9445342  37.9235808  41.7500384
  86.2475342  35.4545808  40.5540384  69.5775342  81.6355808  22.1590384
  70.7635342  82.1625808  22.9920384  71.2225342  83.5585808  22.5210384
  71.4975342  83.6025808  21.0030384  70.3065342  83.0645808  20.1870384
  69.8945342  81.6495808  20.6470384  68.8165342  81.1475808  19.8860384
  69.2995342  80.6315808  22.4830384  68.7125342  82.2735808  22.3550384
  70.4905342  82.1965808  24.0480384  71.5975342  81.4625808  22.9170384
  70.4545342  84.2915808  22.7690384  72.1165342  83.8595808  23.0700384
  71.7285342  84.6235808  20.6970384  72.3865342  83.0105808  20.7790384
  69.4665342  83.7495808  20.3190384  70.5415342  83.0695808  19.1220384
  70.7525342  80.9945808  20.4880384  68.0575342  81.7205808  20.0210384
  46.6295342  86.9945808  36.4510384  46.0295342  87.6545808  35.1940384
  46.5095342  89.1105808  35.0220384  46.2895342  89.9525808  36.2970384
  46.8885342  89.2745808  37.5440384  46.3585342  87.8355808  37.7190384
  46.8895342  87.2205808  38.8730384  46.2425342  85.9815808  36.5720384
  47.7075342  86.8975808  36.3040384  46.2855342  87.0705808  34.3080384
  44.9395342  87.6385808  35.2610384  47.5705342  89.1115808  34.7690384
  45.9965342  89.5735808  34.1770384  46.7245342  90.9445808  36.1670384
  45.2205342  90.1095808  36.4470384  47.9735342  89.2515808  37.4320384
  46.6845342  89.8695808  38.4360384  45.2755342  87.9005808  37.8400384
  47.8435342  87.1595808  38.7720384 115.4995342 126.0675808  81.7700384
 114.0345342 126.2915808  82.1920384 113.0735342 125.3185808  81.4760384
 113.2595342 125.3345808  79.9440384 114.7315342 125.1175808  79.5420384
 115.6665342 126.1315808  80.2350384 117.0125342 125.9475808  79.8510384
 116.1525342 126.7945808  82.2570384 115.8125342 125.0835808  82.1290384
 113.9365342 126.1835808  83.2730384 113.7445342 127.3195808  81.9630384
 113.2445342 124.3075808  81.8490384 112.0415342 125.5635808  81.7280384
 112.6315342 124.5695808  79.4850384 112.9125342 126.2885808  79.5470384
 115.0175342 124.1035808  79.8270384 114.8415342 125.1735808  78.4570384
 115.3575342 127.1285808  79.9160384 117.2895342 125.0705808  80.1290384
  82.0135342  23.1735808 102.4080384  81.1715342  23.2175808 101.1170384
  80.7385342  21.8075808 100.6640384  81.9305342  20.8335808 100.5610384
  82.7655342  20.8095808 101.8570384  83.2255342  22.2245808 102.2640384
  84.0085342  22.2005808 103.4390384  82.3425342  24.1765808 102.6830384
  81.3735342  22.8245808 103.2210384  80.2935342  23.8475808 101.2660384
  81.7515342  23.6905808 100.3220384  80.0095342  21.4115808 101.3720384
  80.2235342  21.8685808  99.7040384  81.5725342  19.8295808 100.3300384
  82.5675342  21.1275808  99.7260384  82.1495342  20.3825808 102.6510384
  83.6235342  20.1445808 101.7430384  83.8465342  22.6105808 101.4530384
  83.4665342  21.8615808 104.1570384 108.1215342  54.5455808  83.6360384
 107.8415342  56.0135808  83.2560384 106.7925342  56.1265808  82.1300384
 107.1505342  55.2545808  80.9070384 107.4365342  53.7935808  81.3070384
 108.5195342  53.7045808  82.4030384 108.7965342  52.3655808  82.7540384
 108.8955342  54.4915808  84.4040384 107.2155342  54.1295808  84.0820384
 107.5065342  56.5685808  84.1340384 108.7705342  56.4875808  82.9340384
 105.8185342  55.8225808  82.5140384 106.6865342  57.1685808  81.8250384
 106.3425342  55.2895808  80.1760384 108.0275342  55.6715808  80.4100384
 106.5075342  53.3535808  81.6770384 107.7255342  53.2085808  80.4320384
 109.4325342  54.1405808  81.9920384 107.9965342  51.9755808  83.1170384
 106.4385342  81.7335808  85.2900384 107.2785342  80.7655808  86.1470384
 108.0495342  79.7485808  85.2800384 107.1285342  79.0125808  84.2840384
 106.2905342  79.9955808  83.4420384 105.4945342  80.9725808  84.3330384
 104.7095342  81.8585808  83.5630384 105.8715342  82.4145808  85.9270384
 107.1225342  82.3555808  84.7070384 107.9755342  81.3285808  86.7700384
 106.6225342  80.2295808  86.8360384 108.8325342  80.2695808  84.7270384
 108.5585342  79.0265808  85.9190384 107.7225342  78.3745808  83.6290384
 106.4615342  78.3465808  84.8320384 106.9695342  80.5585808  82.8000384
 105.6195342  79.4495808  82.7760384 104.8205342  80.3745808  84.9490384
 105.2985342  82.3885808  83.0180384  75.3125342  38.9425808  40.3920384
  75.4365342  40.4765808  40.2990384  75.9145342  41.0975808  41.6280384
  75.0565342  40.6435808  42.8280384  74.9355342  39.1085808  42.8990384
  74.4135342  38.5155808  41.5740384  74.2825342  37.1115808  41.6450384
  74.9335342  38.5335808  39.4540384  76.3135342  38.5265808  40.5280384
  76.1225342  40.7475808  39.4940384  74.4685342  40.9035808  40.0280384
  76.9535342  40.8155808  41.8030384  75.9045342  42.1855808  41.5550384
  75.4805342  41.0275808  43.7560384  74.0605342  41.0815808  42.7470384
  75.9235342  38.6985808  43.1180384  74.2915342  38.8155808  43.7310384
  73.4225342  38.9375808  41.3970384  75.1525342  36.7345808  41.8000384
  20.0455342  58.0815808  82.2000384  20.6085342  59.2135808  81.3190384
  21.6255342  58.6875808  80.2850384  22.7355342  57.8355808  80.9370384
  22.1535342  56.7145808  81.8210384  21.1745342  57.2715808  82.8760384
  20.6585342  56.2485808  83.7000384  19.3625342  58.4845808  82.9500384
  19.4515342  57.4185808  81.5670384  19.7925342  59.7305808  80.8100384
  21.0905342  59.9605808  81.9530384  21.1015342  58.0865808  79.5400384
  22.0685342  59.5235808  79.7410384  23.3765342  57.4075808  80.1660384
  23.3765342  58.4775808  81.5420384  21.6305342  56.0075808  81.1750384
  22.9585342  56.1535808  82.3010384  21.7365342  57.9615808  83.5080384
  20.1625342  55.6365808  83.1490384 107.5245342  33.2385808  44.0760384
 108.9655342  32.7265808  43.8820384 109.9275342  33.8585808  43.4650384
 109.4095342  34.6475808  42.2440384 107.9645342  35.1435808  42.4520384
 107.0135342  33.9855808  42.8240384 105.6865342  34.4355808  42.9930384
 106.8575342  32.4125808  44.3280384 107.5155342  33.9155808  44.9330384
 109.3205342  32.2555808  44.8000384 108.9735342  31.9455808  43.1190384
 110.0625342  34.5425808  44.3040384 110.9145342  33.4465808  43.2500384
 110.0675342  35.4925808  42.0400384 109.4495342  34.0115808  41.3590384
 107.9705342  35.8825808  43.2550384 107.6085342  35.6615808  41.5600384
 107.0255342  33.2765808  41.9940384 105.6695342  35.0605808  43.7230384
  19.3945342  62.3655808  85.8750384  20.4245342  61.9525808  86.9460384
  20.0855342  62.5455808  88.3290384  19.8665342  64.0725808  88.2740384
  18.8415342  64.4665808  87.1930384  19.2255342  63.8995808  85.8100384
  18.2985342  64.2785808  84.8150384  19.6785342  61.9685808  84.8990384
  18.4355342  61.9055808  86.1270384  20.4795342  60.8645808  87.0100384
  21.4175342  62.2885808  86.6410384  19.1835342  62.0665808  88.7140384
  20.8795342  62.3085808  89.0390384  19.5395342  64.4365808  89.2480384
  20.8165342  64.5665808  88.0700384  17.8665342  64.0755808  87.4890384
  18.7355342  65.5525808  87.1480384  20.1965342  64.3225808  85.5440384
  17.4415342  63.9095808  85.0430384  33.9345342  38.1065808  56.7440384
  32.8345342  37.3195808  57.4840384  33.3675342  36.6585808  58.7720384
  34.6315342  35.8105808  58.5150384  35.7165342  36.6105808  57.7660384
  35.1705342  37.2245808  56.4590384  36.1695342  37.9395808  55.7630384
  33.5435342  38.5295808  55.8170384  34.2285342  38.9535808  57.3690384
  32.0005342  37.9815808  57.7230384  32.4315342  36.5505808  56.8220384
  33.5975342  37.4325808  59.5050384  32.5895342  36.0385808  59.2200384
  35.0295342  35.4385808  59.4590384  34.3635342  34.9295808  57.9300384
  36.0675342  37.4075808  58.4240384  36.5815342  35.9775808  57.5610384
  34.8425342  36.3995808  55.8250384  36.4625342  38.6675808  56.3170384
 111.2835342  62.6515808  39.8340384 109.9535342  62.0975808  40.3840384
 108.9555342  61.7695808  39.2540384 108.7495342  62.9575808  38.2910384
 110.0895342  63.5035808  37.7590384 111.0525342  63.8675808  38.9080384
 112.2715342  64.3875808  38.4220384 111.9545342  62.9145808  40.6530384
 111.7785342  61.8555808  39.2720384 110.1415342  61.2065808  40.9850384
 109.5075342  62.8305808  41.0590384 109.3205342  60.9095808  38.6910384
 107.9985342  61.4665808  39.6810384 108.1135342  62.6565808  37.4590384
 108.2145342  63.7545808  38.8090384 110.5445342  62.7365808  37.1300384
 109.9185342  64.3675808  37.1130384 110.5695342  64.6435808  39.5040384
 112.7025342  63.7085808  37.8960384  99.8985342  29.1415808  57.5290384
 101.1345342  29.8595808  56.9520384 100.8565342  30.4505808  55.5540384
 100.2705342  29.4045808  54.5820384  99.0425342  28.6905808  55.1790384
  99.3585342  28.0685808  56.5560384  98.2405342  27.3965808  57.0940384
 100.1335342  28.6965808  58.4970384  99.1235342  29.8885808  57.7120384
 101.4585342  30.6495808  57.6320384 101.9665342  29.1555808  56.8870384
 100.1575342  31.2835808  55.6490384 101.7735342  30.8715808  55.1390384
 100.0025342  29.8815808  53.6390384 101.0365342  28.6665808  54.3400384
  98.2405342  29.4225808  55.2850384  98.6725342  27.9285808  54.4900384
 100.1535342  27.3355808  56.4070384  97.5365342  28.0375808  57.2280384
  97.6295342  89.2895808  42.7860384  98.9125342  90.1195808  42.9940384
  99.0195342  91.2775808  41.9800384  98.8525342  90.7975808  40.5230384
  97.5705342  89.9635808  40.3360384  97.5085342  88.7845808  41.3310384
  96.3445342  88.0075808  41.1460384  97.5985342  88.4535808  43.4860384
  96.7715342  89.9225808  43.0240384  98.9425342  90.5105808  44.0120384
  99.7845342  89.4695808  42.8940384  98.2535342  92.0215808  42.2040384
  99.9775342  91.7865808  42.0970384  98.8415342  91.6545808  39.8480384
  99.7195342  90.1995808  40.2380384  96.7115342  90.6185808  40.4930384
  97.4975342  89.6025808  39.3090384  98.3735342  88.1485808  41.1350384
  95.5795342  88.5625808  41.3180384  32.1735342 107.1625808  88.3170384
  31.8415342 107.0245808  86.8170384  30.9435342 108.1765808  86.3180384
  29.6835342 108.3565808  87.1910384  30.0335342 108.4825808  88.6870384
  30.8935342 107.2965808  89.1720384  31.1965342 107.4015808  90.5470384
  32.7725342 106.3155808  88.6540384  32.7935342 108.0515808  88.4490384
  32.7625342 106.9905808  86.2330384  31.3375342 106.0725808  86.6440384
  31.5165342 109.1045808  86.3190384  30.6555342 107.9995808  85.2810384
  29.1255342 109.2345808  86.8630384  29.0175342 107.5045808  87.0460384
  30.5835342 109.4145808  88.8300384  29.1235342 108.5685808  89.2840384
  30.3065342 106.3885808  89.0250384  31.7135342 108.1995808  90.6830384
  45.0265342 109.7125808  79.2920384  46.3865342 110.3575808  78.9610384
  47.5295342 109.7535808  79.8040384  47.2155342 109.7715808  81.3150384
  45.8485342 109.1325808  81.6250384  44.7155342 109.7835808  80.8040384
  43.4595342 109.2125808  81.1030384  44.2295342 110.1855808  78.7140384
  45.0575342 108.6675808  78.9760384  46.6055342 110.2415808  77.8990384
  46.3325342 111.4325808  79.1440384  47.7055342 108.7245808  79.4860384
  48.4585342 110.2925808  79.6100384  48.0025342 109.2545808  81.8650384
  47.2235342 110.8025808  81.6730384  45.9075342 108.0685808  81.3850384
  45.6335342 109.1945808  82.6930384  44.6805342 110.8385808  81.0800384
  43.4845342 108.2825808  80.8620384 127.5905342 110.7605808  96.9410384
 128.3745342 111.0565808  95.6470384 128.3295342 112.5535808  95.2760384
 126.8875342 113.1035808  95.2350384 126.1165342 112.7905808  96.5320384
 126.1375342 111.2815808  96.8570384 125.4135342 110.9915808  98.0340384
 127.6015342 109.6905808  97.1580384 128.1045342 111.2495808  97.7710384
 129.4095342 110.7305808  95.7560384 127.9565342 110.4685808  94.8270384
 128.9095342 113.1215808  96.0050384 128.8155342 112.7125808  94.3120384
 126.9045342 114.1795808  95.0620384 126.3585342 112.6685808  94.3860384
 126.5825342 113.3455808  97.3480384 125.0895342 113.1535808  96.4610384
 125.6535342 110.7635808  96.0270384 125.8355342 111.4445808  98.7690384
  93.8835342  83.8695808  22.5870384  93.5815342  82.4065808  22.9660384
  93.8215342  81.4445808  21.7830384  93.0815342  81.8925808  20.5050384
  93.3875342  83.3595808  20.1480384  93.0965342  84.3065808  21.3310384
  93.3575342  85.6535808  20.9980384  93.6665342  84.5335808  23.4260384
  94.9555342  83.9585808  22.3940384  94.1935342  82.1075808  23.8190384
  92.5435342  82.3235808  23.2940384  94.8915342  81.3885808  21.5770384
  93.5135342  80.4345808  22.0570384  93.3495342  81.2415808  19.6720384
  92.0065342  81.7715808  20.6490384  94.4415342  83.4305808  19.8750384
  92.8205342  83.6625808  19.2650384  92.0345342  84.2165808  21.5660384
  94.2915342  85.7385808  20.7910384 103.4635342  38.7385808 117.5990384
 103.1095342  40.1885808 117.2140384 103.1845342  40.4145808 115.6900384
 104.5335342  39.9555808 115.0960384 104.8755342  38.5085808 115.4990384
 104.8375342  38.3185808 117.0300384 105.1715342  36.9975808 117.4000384
 103.4435342  38.6155808 118.6830384 102.6885342  38.0805808 117.2000384
 102.1115342  40.4375808 117.5790384 103.7945342  40.8745808 117.7160384
 102.3745342  39.8685808 115.2050384 103.0175342  41.4685808 115.4620384
 104.5115342  40.0455808 114.0100384 105.3255342  40.6235808 115.4390384
 104.1465342  37.8435808 115.0310384 105.8505342  38.2225808 115.1000384
 105.5855342  38.9885808 117.4580384 104.5155342  36.4035808 117.0260384
  75.6525342 109.1365808  22.0820384  75.2775342 107.7295808  22.5900384
  73.7915342 107.6425808  22.9980384  73.3895342 108.7575808  23.9860384
  73.7805342 110.1545808  23.4660384  75.2795342 110.2295808  23.1080384
  75.6435342 111.5155808  22.6520384  76.7165342 109.1835808  21.8410384
  75.1165342 109.3165808  21.1480384  75.4985342 106.9855808  21.8240384
  75.9035342 107.4755808  23.4480384  73.1695342 107.7125808  22.1040384
  73.5835342 106.6645808  23.4350384  72.3165342 108.7175808  24.1760384
  73.8735342 108.5805808  24.9480384  73.1825342 110.3675808  22.5780384
  73.5215342 110.9195808  24.2000384  75.8425342 110.0255808  24.0210384
  75.1505342 111.7015808  21.8480384 109.0855342  87.3925808 123.8710384
 110.6215342  87.2785808 123.7980384 111.2395342  86.9465808 125.1710384
 110.7685342  87.9165808 126.2760384 109.2325342  88.0245808 126.3280384
 108.6415342  88.4025808 124.9530384 107.2355342  88.5225808 125.0050384
 108.6765342  87.6695808 122.8970384 108.6805342  86.4055808 124.1060384
 110.9045342  86.5185808 123.0680384 111.0375342  88.2195808 123.4320384
 110.9695342  85.9265808 125.4490384 112.3285342  86.9625808 125.1020384
 111.1525342  87.5925808 127.2440384 111.1955342  88.9035808 126.0960384
 108.8325342  87.0585808 126.6430384 108.9275342  88.7455808 127.0890384
 109.0525342  89.3755808 124.6790384 106.8675342  87.6675808 125.2460384
  90.2355342  95.4085808  43.1560384  90.9725342  94.1185808  43.5650384
  92.4525342  94.1375808  43.1270384  92.6145342  94.4645808  41.6270384
  91.8635342  95.7515808  41.2360384  90.3765342  95.6895808  41.6430384
  89.6825342  96.8595808  41.2660384  89.1825342  95.3525808  43.4390384
  90.6625342  96.2405808  43.7220384  90.9055342  93.9765808  44.6450384
  90.4735342  93.2575808  43.1150384  92.9915342  94.8795808  43.7170384
  92.9185342  93.1765808  43.3510384  93.6725342  94.5605808  41.3800384
  92.2385342  93.6305808  41.0330384  92.3445342  96.5935808  41.7380384
  91.9605342  95.9375808  40.1640384  89.9295342  94.8475808  41.1130384
  90.0725342  97.6055808  41.7300384 112.1935342  93.2055808 105.8430384
 112.7345342  94.4795808 106.5220384 111.6895342  95.1185808 107.4610384
 110.3345342  95.3495808 106.7580384 109.8155342  94.0685808 106.0770384
 110.8605342  93.4735808 105.1100384 110.3765342  92.3115808 104.4700384
 112.9345342  92.7965808 105.1540384 112.0385342  92.4465808 106.6140384
 113.6435342  94.2475808 107.0800384 113.0235342  95.2025808 105.7580384
 111.5395342  94.4705808 108.3260384 112.0705342  96.0625808 107.8530384
 109.6005342  95.7135808 107.4770384 110.4445342  96.1375808 106.0120384
 109.5825342  93.3395808 106.8560384 108.8775342  94.2685808 105.5550384
 111.0565342  94.2245808 104.3420384 110.2025342  91.6465808 105.1410384
  55.4045342  48.2565808 122.9100384  53.8725342  48.0875808 122.9540384
  53.4145342  47.3055808 124.2030384  54.1635342  45.9655808 124.3610384
  55.6925342  46.1515808 124.3050384  56.1295342  46.8965808 123.0260384
  57.5315342  47.0485808 122.9640384  55.7055342  48.7745808 121.9980384
  55.7015342  48.8985808 123.7430384  53.3895342  49.0665808 122.9300384
  53.5395342  47.5635808 122.0560384  53.5815342  47.9165808 125.0910384
  52.3395342  47.1275808 124.1560384  53.8805342  45.4885808 125.3000384
  53.8535342  45.2815808 123.5690384  55.9985342  46.7245808 125.1830384
  56.1965342  45.1855808 124.3780384  55.8185342  46.2885808 122.1740384
  57.8115342  47.5835808 123.7120384  44.0445342  61.9495808  96.4740384
  45.1515342  62.0645808  97.5410384  46.3905342  62.8135808  97.0070384
  46.9055342  62.2195808  95.6780384  45.7845342  62.1035808  94.6280384
  44.5755342  61.3115808  95.1700384  43.5565342  61.1865808  94.2010384
  43.1985342  61.3795808  96.8620384  43.6695342  62.9525808  96.2610384
  44.7645342  62.5695808  98.4270384  45.4465342  61.0645808  97.8670384
  46.1375342  63.8635808  96.8560384  47.1845342  62.7975808  97.7540384
  47.7205342  62.8305808  95.2880384  47.3315342  61.2325808  95.8650384
  45.4675342  63.1115808  94.3550384  46.1655342  61.6435808  93.7140384
  44.9295342  60.3095808  95.4190384  43.2415342  62.0665808  93.9780384
  38.6515342  50.1605808 107.5600384  39.3515342  50.2475808 106.1890384
  39.3025342  48.9045808 105.4300384  39.8205342  47.7305808 106.2870384
  39.1165342  47.6635808 107.6570384  39.2175342  49.0045808 108.4140384
  38.5915342  48.9375808 109.6780384  38.7365342  51.1085808 108.0930384
  37.5845342  49.9965808 107.3890384  38.8925342  51.0335808 105.5860384
  40.3915342  50.5455808 106.3320384  38.2745342  48.7015808 105.1260384
  39.8825342  48.9775808 104.5090384  39.6835342  46.7905808 105.7520384
  40.8955342  47.8385808 106.4380384  38.0665342  47.4185808 107.4880384
  39.5285342  46.8505808 108.2570384  40.2785342  49.2075808 108.5740384
  37.6565342  48.7585808 109.5440384 103.2705342  52.8045808  85.3690384
 103.1435342  52.6985808  83.8370384 103.7085342  53.9445808  83.1240384
 103.1135342  55.2565808  83.6790384 103.2415342  55.3415808  85.2130384
 102.6285342  54.1045808  85.9040384 102.7265342  54.1915808  87.3100384
 102.8265342  51.9315808  85.8510384 104.3325342  52.7915808  85.6260384
 103.6545342  51.8025808  83.4820384 102.0925342  52.5735808  83.5680384
 104.7925342  53.9645808  83.2410384 103.5205342  53.8755808  82.0510384
 103.6045342  56.1125808  83.2160384 102.0605342  55.3235808  83.3990384
 104.3015342  55.4115808  85.4630384 102.7775342  56.2575808  85.5830384
 101.5695342  54.0765808  85.6410384 103.6575342  54.2165808  87.5480384
 107.6865342 106.3525808  92.9720384 107.3545342 107.6005808  92.1310384
 106.8225342 108.7575808  93.0030384 105.6485342 108.3185808  93.9040384
 105.9945342 107.0645808  94.7290384 106.4815342 105.9075808  93.8310384
 106.7785342 104.7515808  94.5840384 108.0205342 105.5365808  92.3280384
 108.5285342 106.5935808  93.6250384 108.2395342 107.9255808  91.5810384
 106.6075342 107.3425808  91.3780384 107.6315342 109.1375808  93.6280384
 106.5145342 109.5895808  92.3690384 105.3635342 109.1355808  94.5680384
 104.7735342 108.1145808  93.2840384 106.7805342 107.3295808  95.4390384
 105.1355342 106.7525808  95.3260384 105.6665342 105.6635808  93.1470384
 107.4955342 104.9605808  95.1890384  48.7075342 104.2145808  54.0820384
  48.3165342 102.7925808  53.6310384  48.7785342 102.4985808  52.1890384
  48.3175342 103.5835808  51.1930384  48.7085342 104.9985808  51.6640384
  48.1965342 105.2845808  53.0920384  48.5355342 106.5885808  53.5150384
  48.3335342 104.4125808  55.0870384  49.7975342 104.2665808  54.1420384
  48.7405342 102.0555808  54.3160384  47.2335342 102.6775808  53.6950384
  49.8675342 102.4305808  52.1670384  48.4085342 101.5215808  51.8730384
  48.7405342 103.3885808  50.2080384  47.2345342 103.5285808  51.0740384
  49.7975342 105.0755808  51.6450384  48.3355342 105.7485808  50.9640384
  47.1075342 105.2115808  53.0670384  49.4935342 106.6595808  53.5390384
  68.5915342  85.2445808 139.3520384  67.2205342  85.7905808 139.7980384
  66.0665342  84.8485808 139.3970384  66.1015342  84.4855808 137.8970384
  67.4815342  83.9505808 137.4670384  68.6135342  84.9305808 137.8390384
  69.8755342  84.4505808 137.4260384  69.3845342  85.9475808 139.6090384
  68.7945342  84.3305808 139.9150384  67.2155342  85.9475808 140.8780384
  67.0585342  86.7725808 139.3490384  66.1275342  83.9345808 139.9890384
  65.1085342  85.3065808 139.6470384  65.3295342  83.7485808 137.6740384
  65.8555342  85.3695808 137.3060384  67.6475342  82.9945808 137.9690384
  67.4905342  83.7405808 136.3960384  68.4195342  85.8655808 137.3100384
  70.0515342  83.6265808 137.8890384 105.9515342  26.0795808  99.6750384
 105.0945342  25.6095808  98.4830384 103.7165342  26.3045808  98.4550384
 102.9745342  26.1875808  99.8040384 103.8505342  26.6535808 100.9840384
 105.2035342  25.9115808 101.0160384 105.9965342  26.3215808 102.1090384
 106.9025342  25.5435808  99.6960384 106.1965342  27.1335808  99.5250384
 105.6235342  25.7945808  97.5470384 104.9525342  24.5285808  98.5430384
 103.8515342  27.3595808  98.2100384 103.1045342  25.8845808  97.6560384
 102.0525342  26.7685808  99.7720384 102.6745342  25.1505808  99.9620384
 104.0255342  27.7255808 100.8760384 103.3175342  26.5225808 101.9270384
 104.9875342  24.8475808 101.1370384 106.1905342  27.2575808 102.0080384
 124.0035342 104.3235808  40.4220384 125.2285342 103.7545808  41.1660384
 124.8355342 103.1035808  42.5090384 123.9905342 104.0465808  43.3910384
 122.7765342 104.6125808  42.6290384 123.2005342 105.2985808  41.3130384
 122.0905342 105.8355808  40.6240384 124.3125342 104.8145808  39.4980384
 123.3645342 103.4885808  40.1290384 125.7425342 103.0275808  40.5360384
 125.9465342 104.5575808  41.3490384 124.2705342 102.1915808  42.3130384
 125.7325342 102.7935808  43.0480384 123.6565342 103.5195808  44.2850384
 124.6145342 104.8705808  43.7410384 122.0975342 103.7865808  42.4080384
 122.2205342 105.3065808  43.2620384 123.8655342 106.1225808  41.5750384
 121.5005342 105.1135808  40.3900384 129.4335342  50.9175808  53.6920384
 130.7265342  50.9805808  52.8540384 130.5885342  51.9425808  51.6550384
 129.3405342  51.6355808  50.8000384 128.0605342  51.5665808  51.6550384
 128.2075342  50.5655808  52.8200384 127.0275342  50.4855808  53.5920384
 129.5435342  50.1995808  54.5080384 129.2805342  51.8935808  54.1580384
 131.5635342  51.2875808  53.4830384 130.9715342  49.9815808  52.4900384
 130.5285342  52.9685808  52.0220384 131.4845342  51.8945808  51.0360384
 129.2275342  52.3905808  50.0210384 129.4815342  50.6855808  50.2820384
 127.8625342  52.5635808  52.0540384 127.2005342  51.3085808  51.0330384
 128.3905342  49.5825808  52.3830384 126.8615342  51.3485808  53.9800384
  32.9035342  41.0975808  52.7570384  34.1005342  40.1305808  52.8600384
  35.1095342  40.5765808  53.9390384  35.5485342  42.0455808  53.7580384
  34.3395342  42.9955808  53.6480384  33.3685342  42.5545808  52.5330384
  32.2725342  43.4365808  52.4180384  32.2275342  40.7835808  51.9610384
  32.3345342  41.0365808  53.6870384  33.7465342  39.1215808  53.0760384
  34.6045342  40.0735808  51.8940384  34.6595342  40.4545808  54.9250384
  35.9835342  39.9225808  53.9220384  36.1855342  42.3485808  54.5890384
  36.1605342  42.1325808  52.8600384  33.8185342  42.9965808  54.6070384
  34.6765342  44.0205808  53.4810384  33.9205342  42.5785808  51.5920384
  31.7805342  43.4195808  53.2440384  50.3485342  39.8975808  69.4590384
  51.5095342  38.8835808  69.4510384  52.6085342  39.2745808  68.4410384
  52.0405342  39.5375808  67.0300384  50.8745342  40.5455808  67.0590384
  49.7685342  40.1095808  68.0430384  48.6915342  41.0215808  68.0540384
  49.5665342  39.5765808  70.1490384  50.7275342  40.8475808  69.8430384
  51.9365342  38.7975808  70.4520384  51.1245342  37.8935808  69.2010384
  53.1195342  40.1715808  68.7950384  53.3675342  38.4925808  68.3970384
  52.8305342  39.8995808  66.3720384  51.6945342  38.5965808  66.5990384
  51.2715342  41.5155808  67.3630384  50.4655342  40.6825808  66.0560384
  49.3905342  39.1445808  67.6990384  49.0185342  41.8735808  68.3560384
  55.4795342  52.3295808  66.5230384  54.0165342  52.0105808  66.1520384
  53.8585342  50.5695808  65.6240384  54.8435342  50.2535808  64.4780384
  56.2975342  50.5875808  64.8630384  56.4385342  52.0465808  65.3450384
  57.7745342  52.3595808  65.6780384  55.5715342  53.3655808  66.8520384
  55.7585342  51.7075808  67.3760384  53.3715342  52.1635808  67.0180384
  53.6745342  52.7145808  65.3910384  54.0225342  49.8675808  66.4430384
  52.8325342  50.4075808  65.2880384  54.7635342  49.2035808  64.1980384
  54.5625342  50.8255808  63.5930384  56.6035342  49.9085808  65.6620384
  56.9675342  50.3935808  64.0230384  56.1375342  52.6925808  64.5180384
  58.0455342  51.7935808  66.4060384  47.3915342  86.6125808  89.7620384
  47.8025342  85.8175808  88.5070384  46.5835342  85.1875808  87.8000384
  45.7105342  84.3605808  88.7670384  45.3175342  85.1675808  90.0200384
  46.5555342  85.7485808  90.7340384  46.1985342  86.4705808  91.8930384
  48.2735342  87.0115808  90.2660384  46.8025342  87.4745808  89.4430384
  48.3395342  86.4665808  87.8140384  48.5035342  85.0295808  88.7890384
  45.9775342  85.9785808  87.3560384  46.9175342  84.5605808  86.9720384
  44.8145342  84.0115808  88.2530384  46.2535342  83.4645808  89.0690384
  44.6605342  85.9815808  89.7090384  44.7355342  84.5475808  90.7040384
  47.1795342  84.9065808  91.0400384  45.6485342  87.2135808  91.6300384
  39.5365342 119.4655808  81.0180384  40.6745342 118.6705808  81.6880384
  41.0345342 119.2395808  83.0770384  41.3165342 120.7555808  83.0320384
  40.1735342 121.5335808  82.3510384  39.8625342 120.9745808  80.9470384
  38.8305342 121.6995808  80.3140384  39.3295342 119.0705808  80.0220384
  38.6255342 119.3185808  81.6040384  40.3915342 117.6205808  81.7780384
  41.5575342 118.6925808  81.0480384  40.2125342 119.0465808  83.7680384
  41.8995342 118.7115808  83.4810384  41.4745342 121.1345808  84.0430384
  42.2485342 120.9345808  82.4930384  39.2855342 121.4535808  82.9800384
  40.4165342 122.5965808  82.2970384  40.7675342 121.0835808  80.3460384
  38.0295342 121.6075808  80.8380384  23.7535342  56.7605808  62.4840384
  22.7515342  55.8645808  63.2390384  21.3175342  56.4325808  63.1860384
  21.2555342  57.9065808  63.6410384  22.2695342  58.7845808  62.8830384
  23.7015342  58.2205808  62.9880384  24.6345342  59.0365808  62.3120384
  24.7645342  56.3605808  62.5720384  23.5025342  56.7345808  61.4210384
  22.7675342  54.8555808  62.8240384  23.0645342  55.7685808  64.2800384
  20.9375342  56.3545808  62.1670384  20.6545342  55.8245808  63.8030384
  20.2465342  58.2965808  63.5020384  21.4555342  57.9635808  64.7120384
  21.9695342  58.8245808  61.8340384  22.2325342  59.8115808  63.2510384
  23.9695342  58.2085808  64.0460384  24.4045342  59.0505808  61.3790384
  78.5105342  35.6105808  41.0860384  79.4945342  36.2895808  40.1130384
  80.7655342  36.7875808  40.8340384  80.4365342  37.6705808  42.0560384
  79.4445342  36.9795808  43.0130384  78.1635342  36.5315808  42.2780384
  77.2455342  35.9185808  43.1580384  77.6035342  35.3055808  40.5610384
  78.9745342  34.6945808  41.4580384  79.7665342  35.5965808  39.3150384
  79.0005342  37.1325808  39.6270384  81.3545342  35.9285808  41.1580384
  81.3955342  37.3395808  40.1350384  81.3535342  37.9235808  42.5900384
  80.0125342  38.6165808  41.7160384  79.9395342  36.1095808  43.4470384
  79.1975342  37.6405808  43.8470384  77.6925342  37.4275808  41.8700384
  77.6545342  35.1275808  43.5200384 107.9115342  66.3645808  39.9290384
 106.5915342  66.1945808  39.1500384 105.3595342  66.4455808  40.0440384
 105.3965342  65.6075808  41.3400384 106.7255342  65.7825808  42.1000384
 107.9405342  65.4825808  41.1970384 109.1585342  65.6215808  41.8980384
 108.7645342  66.1405808  39.2860384 108.0075342  67.4145808  40.2140384
 106.5745342  66.8715808  38.2940384 106.5405342  65.1845808  38.7390384
 105.3135342  67.5045808  40.3020384 104.4465342  66.2305808  39.4870384
 104.5605342  65.8815808  41.9840384 105.2555342  64.5545808  41.0930384
 106.7815342  66.8135808  42.4560384 106.7415342  65.1495808  42.9890384
 107.8555342  64.4435808  40.8730384 109.2395342  66.5345808  42.1860384
  90.2655342  90.4585808  22.6830384  91.7925342  90.5725808  22.8610384
  92.3305342  89.5555808  23.8890384  91.5695342  89.6215808  25.2310384
  90.0455342  89.5145808  25.0330384  89.5255342  90.5715808  24.0350384
  88.1255342  90.4875808  23.8690384  89.9055342  91.2145808  21.9840384
  90.0465342  89.4895808  22.2290384  92.2915342  90.4315808  21.9010384
  92.0445342  91.5835808  23.1870384  92.2455342  88.5485808  23.4770384
  93.3955342  89.7245808  24.0570384  91.9155342  88.8285808  25.8940384
  91.8045342  90.5605808  25.7340384  89.8195342  88.5155808  24.6560384
  89.5295342  89.6045808  25.9910384  89.7575342  91.5535808  24.4520384
  87.9155342  89.6245808  23.5020384  59.1605342 126.6665808  89.9490384
  60.6255342 126.2805808  90.2320384  61.3555342 125.8145808  88.9560384
  60.5825342 124.7035808  88.2120384  59.1185342 125.1035808  87.9460384
  58.3975342 125.5225808  89.2440384  57.0495342 125.8675808  89.0040384
  58.6555342 126.9515808  90.8730384  59.1575342 127.5525808  89.3100384
  61.1545342 127.1265808  90.6760384  60.6525342 125.4825808  90.9770384
  61.4915342 126.6665808  88.2880384  62.3585342 125.4655808  89.2080384
  61.0825342 124.4685808  87.2720384  60.6065342 123.7885808  88.8050384
  59.1155342 125.9375808  87.2420384  58.5845342 124.2865808  87.4560384
  58.4095342 124.6615808  89.9150384  57.0315342 126.6255808  88.4140384
  58.8995342 118.7665808  47.0220384  57.6055342 117.9275808  47.0540384
  56.4895342 118.6225808  47.8620384  56.9605342 119.0405808  49.2710384
  58.2595342 119.8695808  49.2200384  59.3735342 119.1345808  48.4460384
  60.5695342 119.8835808  48.4170384  59.6845342 118.2355808  46.4810384
  58.7005342 119.6805808  46.4580384  57.2635342 117.7325808  46.0360384
  57.8175342 116.9515808  47.4940384  56.1505342 119.5055808  47.3190384
  55.6235342 117.9635808  47.9390384  56.1755342 119.6075808  49.7720384
  57.1235342 118.1485808  49.8770384  58.0385342 120.8185808  48.7280384
  58.5915342 120.1165808  50.2300384  59.5735342 118.1995808  48.9730384
  60.3995342 120.7075808  47.9530384  29.2735342  69.1185808 101.0770384
  30.1945342  69.3595808 102.2900384  30.8115342  68.0465808 102.8150384
  29.7425342  66.9665808 103.0870384  28.8265342  66.7455808 101.8680384
  28.1865342  68.0655808 101.3900384  27.3295342  67.8605808 100.2870384
  28.8175342  70.0555808 100.7520384  29.8885342  68.7695808 100.2450384
  30.9855342  70.0625808 102.0220384  29.6235342  69.8365808 103.0890384
  31.5265342  67.6685808 102.0830384  31.3825342  68.2425808 103.7230384
  30.2245342  66.0285808 103.3660384  29.1385342  67.2635808 103.9450384
  29.4265342  66.3185808 101.0630384  28.0565342  66.0075808 102.1000384
  27.5855342  68.4535808 102.2150384  27.8525342  67.5195808  99.5560384
  41.3985342  65.1485808  45.6640384  40.5455342  63.8755808  45.4960384
  40.1575342  63.6315808  44.0230384  39.5065342  64.8725808  43.3760384
  40.3685342  66.1365808  43.5610384  40.7045342  66.3835808  45.0470384
  41.4765342  67.5525808  45.2190384  41.6235342  65.3215808  46.7170384
  42.3575342  64.9845808  45.1660384  41.0845342  63.0115808  45.8880384
  39.6385342  63.9655808  46.0990384  41.0495342  63.3585808  43.4570384
  39.4825342  62.7775808  43.9530384  39.3335342  64.6915808  42.3150384
  38.5225342  65.0375808  43.8190384  41.2925342  66.0045808  42.9950384
  39.8675342  67.0055808  43.1310384  39.7595342  66.5235808  45.5750384
  42.3115342  67.4355808  44.7560384  47.9125342  74.0735808 109.7940384
  47.9965342  75.6125808 109.8330384  47.0225342  76.2675808 108.8310384
  47.1805342  75.7005808 107.4050384  47.1035342  74.1615808 107.3870384
  48.1175342  73.5285808 108.3630384  48.0615342  72.1185808 108.3310384
  48.6395342  73.6345808 110.4800384  46.9265342  73.7765808 110.1580384
  47.7905342  75.9715808 110.8420384  49.0175342  75.9255808 109.6020384
  45.9985342  76.1085808 109.1700384  47.1725342  77.3485808 108.8210384
  46.4155342  76.1195808 106.7510384  48.1395342  76.0195808 106.9930384
  46.0915342  73.8675808 107.6720384  47.2585342  73.7845808 106.3740384
  49.1145342  73.8335808 108.0380384  47.1865342  71.8435808 108.6170384
 110.2745342  97.0275808 114.9970384 109.5095342  96.6895808 113.7010384
 108.8895342  95.2785808 113.7510384 109.9245342  94.1965808 114.1280384
 110.6845342  94.5555808 115.4200384 111.3335342  95.9535808 115.3290384
 112.0475342  96.2735808 116.5040384 110.7385342  98.0125808 114.9200384
 109.5515342  97.0905808 115.8140384 108.7315342  97.4335808 113.5240384
 110.1915342  96.7565808 112.8510384 108.0775342  95.2685808 114.4790384
 108.4355342  95.0385808 112.7880384 109.4295342  93.2325808 114.2430384
 110.6365342  94.0765808 113.3110384 109.9745342  94.5375808 116.2500384
 111.4365342  93.7965808 115.6420384 112.0425342  95.9285808 114.5000384
 111.4285342  96.2975808 117.2380384  31.2065342  98.0655808  80.0510384
  31.4965342  96.9025808  81.0200384  30.3125342  96.6405808  81.9750384
  29.8555342  97.9215808  82.7050384  29.5805342  99.0755808  81.7220384
  30.7945342  99.3475808  80.8080384  30.5505342 100.4185808  79.9220384
  32.0735342  98.2575808  79.4160384  30.3975342  97.7615808  79.3840384
  31.7275342  95.9965808  80.4560384  32.3895342  97.1315808  81.6050384
  29.4755342  96.2325808  81.4060384  30.5855342  95.8745808  82.7020384
  28.9625342  97.7145808  83.2960384  30.6245342  98.2265808  83.4160384
  28.7175342  98.8035808  81.1100384  29.2985342  99.9795808  82.2650384
  31.6295342  99.6275808  81.4530384  29.8155342 100.1785808  79.3510384
  41.6405342  79.4745808  91.0120384  41.7205342  80.9785808  91.3430384
  40.5975342  81.7805808  90.6530384  40.5325342  81.5095808  89.1340384
  40.4625342  80.0015808  88.8220384  41.6205342  79.2285808  89.4860384
  41.5695342  77.8505808  89.1830384  42.4685342  78.9375808  91.4760384
  40.7255342  79.0755808  91.4560384  41.6735342  81.1255808  92.4230384
  42.6895342  81.3685808  91.0260384  39.6395342  81.5195808  91.1050384
  40.7365342  82.8475808  90.8350384  39.6715342  82.0205808  88.7020384
  41.4125342  81.9385808  88.6530384  39.5095342  79.6205808  89.1950384
  40.4585342  79.8365808  87.7430384  42.5525342  79.6275808  89.0810384
  40.7505342  77.4925808  89.5380384  46.5845342  56.5615808 108.5500384
  45.9335342  57.7225808 107.7720384  44.5075342  57.3705808 107.2990384
  44.4605342  56.0355808 106.5250384  45.1235342  54.8895808 107.3130384
  46.5645342  55.2485808 107.7350384  47.1805342  54.1915808 108.4390384
  47.6065342  56.8195808 108.8350384  46.0305342  56.4205808 109.4800384
  45.9095342  58.6195808 108.3920384  46.5505342  57.9695808 106.9060384
  43.8475342  57.3055808 108.1660384  44.1125342  58.1755808 106.6780384
  43.4275342  55.7775808 106.2910384  44.9665342  56.1565808 105.5660384
  44.5215342  54.6945808 108.2030384  45.1135342  53.9695808 106.7270384
  47.1365342  55.4235808 106.8220384  46.6815342  54.0325808 109.2450384
  89.4425342  63.7005808  28.7560384  88.5425342  62.4945808  28.4190384
  87.0505342  62.8055808  28.6570384  86.7875342  63.3665808  30.0710384
  87.7015342  64.5645808  30.3930384  89.1915342  64.2145808  30.1910384
  90.0305342  65.3045808  30.5070384  90.4945342  63.4415808  28.6200384
  89.2265342  64.4985808  28.0410384  88.6995342  62.1905808  27.3830384
  88.8365342  61.6405808  29.0330384  86.7125342  63.5305808  27.9150384
  86.4535342  61.9075808  28.4960384  85.7415342  63.6595808  30.1660384
  86.9495342  62.5785808  30.8080384  87.4285342  65.3895808  29.7320384
  87.5245342  64.9145808  31.4110384  89.4285342  63.3975808  30.8750384
  89.8265342  66.0275808  29.9070384 104.7905342 101.4485808  74.3840384
 104.0435342 100.7855808  73.2090384 104.8845342 100.7935808  71.9150384
 105.4085342 102.2035808  71.5660384 106.1435342 102.8535808  72.7550384
 105.2655342 102.8735808  74.0240384 105.9305342 103.4885808  75.1070384
 104.1595342 101.4675808  75.2740384 105.6555342 100.8285808  74.6320384
 103.7715342  99.7615808  73.4700384 103.1035342 101.3135808  73.0330384
 105.7295342 100.1145808  72.0320384 104.2935342 100.4015808  71.0860384
 106.0705342 102.1505808  70.7020384 104.5715342 102.8365808  71.2680384
 107.0515342 102.2795808  72.9490384 106.4675342 103.8625808  72.4950384
 104.3775342 103.4655808  73.7950384 106.7145342 102.9715808  75.3140384
  40.1735342  94.4205808 105.4790384  40.5605342  93.1595808 104.6810384
  39.4545342  92.0845808 104.7320384  39.0175342  91.7625808 106.1770384
  38.6435342  93.0355808 106.9620384  39.7825342  94.0765808 106.9340384
  39.4485342  95.2335808 107.6700384  40.9875342  95.1475808 105.4620384
  39.3265342  94.8955808 104.9780384  40.7745342  93.4245808 103.6450384
  41.4855342  92.7445808 105.0850384  38.5895342  92.4305808 104.1640384
  39.7975342  91.1755808 104.2360384  38.1745342  91.0705808 106.1660384
  39.8265342  91.2435808 106.6930384  37.7475342  93.4635808 106.5090384
  38.3775342  92.7835808 107.9900384  40.6535342  93.6175808 107.4040384
  38.6825342  95.6435808 107.2590384  95.9295342  35.0275808  42.4560384
  94.8175342  35.4895808  41.4940384  95.3525342  36.4575808  40.4180384
  96.1365342  37.6375808  41.0300384  97.2375342  37.1565808  41.9950384
  96.6695342  36.2275808  43.0880384  97.6745342  35.8035808  43.9860384
  95.5185342  34.3785808  43.2310384  96.6395342  34.4195808  41.8900384
  94.3525342  34.6245808  41.0190384  94.0275342  35.9835808  42.0640384
  96.0035342  35.9095808  39.7340384  94.5265342  36.8335808  39.8130384
  96.5755342  38.2435808  40.2370384  95.4465342  38.2915808  41.5640384
  97.9895342  36.6195808  41.4140384  97.7495342  38.0105808  42.4440384
  95.9345342  36.8025808  43.6540384  98.3255342  35.2965808  43.4940384
  28.9365342  57.9025808  60.8950384  30.1275342  57.1925808  60.2200384
  30.1135342  55.6715808  60.4800384  29.9955342  55.3345808  61.9810384
  28.8055342  56.0605808  62.6410384  28.8665342  57.5845808  62.4050384
  27.7895342  58.2515808  63.0270384  28.9935342  58.9795808  60.7320384
  28.0185342  57.5645808  60.4100384  30.1175342  57.3875808  59.1470384
  31.0615342  57.6145808  60.5960384  29.2745342  55.2235808  59.9440384
  31.0145342  55.2155808  60.0660384  29.8945342  54.2575808  62.1140384
  30.9185342  55.6175808  62.4890384  27.8835342  55.6615808  62.2120384
  28.7685342  55.8375808  63.7090384  29.7925342  57.9455808  62.8570384
  26.9705342  57.9375808  62.6330384  82.4225342 131.1875808  78.2780384
  81.3605342 132.0255808  77.5380384  81.8505342 132.4775808  76.1470384
  83.2235342 133.1815808  76.2100384  84.2695342 132.3335808  76.9600384
  83.7745342 131.9325808  78.3660384  84.7405342 131.1735808  79.0620384
  82.0695342 130.9165808  79.2740384  82.5585342 130.2505808  77.7330384
  80.4365342 131.4535808  77.4400384  81.1105342 132.9045808  78.1370384
  81.9225342 131.6085808  75.4910384  81.1135342 133.1405808  75.6910384
  83.5755342 133.4005808  75.2010384  83.1135342 134.1455808  76.7080384
  84.4655342 131.4355808  76.3720384  85.2175342 132.8705808  77.0250384
  83.6025342 132.8535808  78.9250384  84.8965342 130.3605808  78.5740384
 106.7385342  71.6545808  89.5330384 106.4225342  71.2915808  88.0680384
 105.0305342  70.6415808  87.9240384 104.8385342  69.4495808  88.8860384
 105.1685342  69.8275808  90.3430384 106.5815342  70.4335808  90.4680384
 106.8925342  70.7615808  91.8060384 107.7435342  72.0725808  89.6140384
 106.0505342  72.4425808  89.8460384 106.4835342  72.1825808  87.4420384
 107.1835342  70.6045808  87.6930384 104.2625342  71.3895808  88.1230384
 104.8775342  70.3165808  86.8940384 103.8155342  69.0785808  88.8190384
 105.4805342  68.6245808  88.5720384 104.4285342  70.5555808  90.6820384
 105.0635342  68.9585808  90.9950384 107.2915342  69.6745808  90.1330384
 106.2705342  71.4295808  92.1060384 114.9595342  53.7705808  44.5010384
 116.4975342  53.8715808  44.5010384 117.1265342  53.0895808  45.6730384
 116.5065342  53.4745808  47.0330384 114.9685342  53.3755808  47.0110384
 114.3615342  54.2025808  45.8580384 112.9515342  54.1305808  45.8510384
 114.5385342  54.3655808  43.6890384 114.6855342  52.7325808  44.2970384
 116.8955342  53.5065808  43.5530384 116.7915342  54.9215808  44.5670384
 116.9895342  52.0205808  45.5050384 118.2045342  53.2565808  45.6950384
 116.9095342  52.8355808  47.8190384 116.8005342  54.4925808  47.2890384
 114.6955342  52.3255808  46.8890384 114.5535342  53.6915808  47.9700384
 114.6435342  55.2445808  46.0210384 112.6955342  53.2145808  45.7070384
  70.2855342 112.4485808 122.3380384  69.4975342 113.6375808 121.7530384
  70.0295342 114.0545808 120.3660384  71.5535342 114.2985808 120.3730384
  72.3235342 113.1045808 120.9690384  71.8035342 112.7355808 122.3750384
  72.5225342 111.6555808 122.9300384  69.9185342 112.2015808 123.3360384
  70.0965342 111.5725808 121.7130384  68.4385342 113.3855808 121.6860384
  69.5635342 114.4875808 122.4360384  69.7935342 113.2735808 119.6420384
  69.5105342 114.9515808 120.0240384  71.9025342 114.4995808 119.3600384
  71.7735342 115.1965808 120.9520384  72.2015342 112.2515808 120.3000384
  73.3935342 113.3195808 121.0000384  71.9545342 113.6065808 123.0160384
  72.3935342 110.8855808 122.3700384  41.4495342  97.9385808  97.0750384
  40.5945342  96.6565808  97.0400384  41.2755342  95.5325808  96.2320384
  41.7025342  95.9995808  94.8240384  42.5475342  97.2875808  94.8780384
  41.8255342  98.4105808  95.6530384  42.5905342  99.5965808  95.6840384
  40.9275342  98.7305808  97.6160384  42.3595342  97.7275808  97.6410384
  40.3925342  96.3145808  98.0570384  39.6215342  96.8815808  96.5980384
  42.1535342  95.1805808  96.7760384  40.6065342  94.6745808  96.1520384
  42.2605342  95.2085808  94.3230384  40.8135342  96.1755808  94.2170384
  43.4935342  97.0535808  95.3720384  42.8015342  97.6185808  93.8700384
  40.8955342  98.6235808  95.1240384  43.4115342  99.4155808  96.1500384
  46.1775342  78.1795808 123.6130384  47.0675342  77.0815808 124.2300384
  48.5455342  77.2395808 123.8150384  48.7155342  77.3505808 122.2850384
  47.8115342  78.4455808 121.6850384  46.3325342  78.2405808 122.0770384
  45.5015342  79.2305808 121.5100384  45.1325342  78.0215808 123.8870384
  46.4685342  79.1385808 124.0470384  46.9825342  77.1005808 125.3180384
  46.7055342  76.1015808 123.9140384  48.9585342  78.1315808 124.2880384
  49.1295342  76.3985808 124.1940384  49.7585342  77.5535808 122.0400384
  48.4765342  76.3915808 121.8240384  48.1555342  79.4125808 122.0550384
  47.9205342  78.4755808 120.5990384  46.0225342  77.2725808 121.6800384
  45.7695342  80.0865808 121.8570384  51.4605342  83.9095808  68.4930384
  51.8895342  82.7565808  67.5640384  52.2265342  83.2555808  66.1440384
  51.0935342  84.1125808  65.5410384  50.6715342  85.2545808  66.4860384
  50.2955342  84.7245808  67.8860384  49.8885342  85.7675808  68.7460384
  51.1865342  83.5255808  69.4770384  52.3215342  84.5645808  68.6450384
  52.7495342  82.2355808  67.9900384  51.0865342  82.0185808  67.5070384
  53.1435342  83.8455808  66.1790384  52.4385342  82.4065808  65.4920384
  51.4075342  84.5215808  64.5800384  50.2315342  83.4775808  65.3320384
  51.5065342  85.9525808  66.5720384  49.8435342  85.8185808  66.0540384
  49.4525342  84.0435808  67.7600384  50.6275342  86.3715808  68.8610384
 101.4375342  78.4845808  29.4760384 102.4475342  79.6025808  29.1490384
 102.0145342  80.4275808  27.9190384 101.6995342  79.5375808  26.6980384
 100.6965342  78.4205808  27.0460384 101.1725342  77.5815808  28.2500384
 100.2645342  76.5445808  28.5550384 101.7865342  77.8895808  30.3210384
 100.5015342  78.9505808  29.7920384 102.5695342  80.2575808  30.0130384
 103.4285342  79.1615808  28.9620384 101.1305342  81.0145808  28.1740384
 102.7925342  81.1485808  27.6630384 101.3095342  80.1485808  25.8830384
 102.6235342  79.0925808  26.3280384  99.7375342  78.8855808  27.2820384
 100.5225342  77.7825808  26.1770384 102.1245342  77.1245808  27.9710384
  99.4245342  76.9405808  28.8020384  33.1625342 100.8335808  44.9780384
  32.4815342  99.4655808  45.1830384  32.3965342  99.0835808  46.6760384
  33.7645342  99.1775808  47.3830384  34.4345342 100.5475808  47.1590384
  34.5485342 100.8865808  45.6580384  35.1805342 102.1325808  45.4520384
  33.2485342 101.0615808  43.9140384  32.5175342 101.6035808  45.4070384
  31.4825342  99.4765808  44.7440384  33.0405342  98.6985808  44.6440384
  31.6865342  99.7445808  47.1760384  31.9935342  98.0745808  46.7780384
  33.6455342  98.9905808  48.4510384  34.4195342  98.3885808  47.0100384
  33.8305342 101.3065808  47.6600384  35.4165342 100.5725808  47.6350384
  35.1665342 100.1145808  45.1970384  34.6405342 102.8165808  45.8560384
  80.5565342 107.6315808 118.1270384  80.5875342 106.0995808 117.9580384
  80.1075342 105.3705808 119.2300384  80.8575342 105.8435808 120.4940384
  80.8235342 107.3775808 120.6410384  81.3505342 108.0825808 119.3730384
  81.3395342 109.4875808 119.5160384  80.9395342 108.1225808 117.2300384
  79.5145342 107.9435808 118.2270384  79.9725342 105.8065808 117.1060384
  81.6045342 105.7815808 117.7200384  79.0385342 105.5425808 119.3610384
  80.2285342 104.2925808 119.1080384  80.4275342 105.3745808 121.3790384
  81.8945342 105.5075808 120.4470384  79.7905342 107.6795808 120.8240384
  81.3935342 107.6875808 121.5180384  82.3855342 107.7665808 119.2320384
  80.4295342 109.7725808 119.6400384  90.2935342 125.8905808  95.3550384
  89.2005342 126.9085808  94.9740384  89.6825342 127.8905808  93.8860384
  91.0205342 128.5655808  94.2580384  92.0975342 127.5335808  94.6440384
  91.6075342 126.5925808  95.7650384  92.6005342 125.6595808  96.1350384
  89.9425342 125.2355808  96.1540384  90.4785342 125.2485808  94.4900384
  88.3055342 126.3855808  94.6330384  88.9035342 127.4705808  95.8620384
  89.8015342 127.3525808  92.9440384  88.9205342 128.6495808  93.7060384
  91.3725342 129.1775808  93.4270384  90.8595342 129.2515808  95.0910384
  92.3405342 126.9465808  93.7570384  93.0185342 128.0375808  94.9410384
  91.3865342 127.2125808  96.6360384  92.7995342 125.1105808  95.3710384
  37.0075342 116.1425808  73.9680384  38.5215342 116.2015808  73.6820384
  39.2895342 115.0775808  74.4090384  38.9725342 115.0345808  75.9190384
  37.4555342 114.9855808  76.1860384  36.7165342 116.1455808  75.4860384
  35.3295342 116.1135808  75.7480384  36.4945342 116.9715808  73.4780384
  36.6115342 115.2275808  73.5240384  38.6995342 116.1395808  72.6070384
  38.9135342 117.1705808  73.9980384  39.0305342 114.1175808  73.9600384
  40.3625342 115.2025808  74.2570384  39.4595342 114.1735808  76.3770384
  39.3975342 115.9155808  76.4020384  37.0745342 114.0335808  75.8140384
  37.2585342 114.9975808  77.2600384  37.1145342 117.0775808  75.8920384
  34.9725342 115.2945808  75.3920384  53.4925342 103.9545808  68.8120384
  52.7145342 102.8305808  69.5230384  51.7425342 103.3845808  70.5850384
  52.4405342 104.3405808  71.5760384  53.2215342 105.4525808  70.8480384
  54.2185342 104.8705808  69.8240384  54.9485342 105.8885808  69.1720384
  54.2025342 103.5345808  68.0980384  52.7825342 104.5465808  68.2310384
  52.1665342 102.2355808  68.7910384  53.4195342 102.1465808  70.0010384
  50.9305342 103.9155808  70.0860384  51.2765342 102.5615808  71.1290384
  51.7055342 104.7815808  72.2490384  53.1255342 103.7715808  72.2060384
  52.5025342 106.0925808  70.3330384  53.7375342 106.0895808  71.5680384
  54.9255342 104.2495808  70.3760384  54.3315342 106.4385808  68.6830384
  35.1805342 121.2205808  54.1920384  36.5175342 121.8375808  54.6480384
  37.6585342 121.5385808  53.6530384  37.7775342 120.0335808  53.3340384
  36.4295342 119.4325808  52.8890384  35.3155342 119.7055808  53.9220384
  34.0865342 119.1365808  53.5250384  34.4005342 121.4105808  54.9320384
  34.8655342 121.7265808  53.2760384  36.4065342 122.9165808  54.7740384
  36.7825342 121.4435808  55.6310384  37.4815342 122.0895808  52.7280384
  38.6045342 121.9115808  54.0500384  38.5295342 119.8755808  52.5610384
  38.1365342 119.5035808  54.2180384  36.1565342 119.8795808  51.9320384
  36.5325342 118.3605808  52.7090384  35.6185342 119.2335808  54.8590384
  33.8145342 119.5485808  52.7010384 124.9675342 102.1445808 112.8040384
 124.2285342 101.8695808 111.4800384 122.7715342 101.4185808 111.7160384
 122.6775342 100.2365808 112.7040384 123.4295342 100.5255808 114.0180384
 124.8965342 100.9305808 113.7580384 125.5915342 101.1735808 114.9620384
 126.0055342 102.4195808 112.6120384 124.5025342 103.0095808 113.2820384
 124.2445342 102.7615808 110.8520384 124.7595342 101.0965808 110.9210384
 122.1945342 102.2595808 112.1050384 122.3075342 101.1475808 110.7670384
 121.6315342 100.0105808 112.9160384 123.0925342  99.3425808 112.2390384
 122.9145342 101.3375808 114.5350384 123.3815342  99.6605808 114.6820384
 125.3795342 100.0915808 113.2530384 125.1705342 101.9115808 115.4110384
  61.1595342  95.8675808  23.6630384  60.7475342  95.1485808  24.9630384
  60.3515342  93.6795808  24.7070384  59.2925342  93.5435808  23.5920384
  59.7175342  94.2765808  22.3040384  60.0645342  95.7545808  22.5780384
  60.4335342  96.4315808  21.3960384  61.3935342  96.9145808  23.8640384
  62.0815342  95.4105808  23.2970384  61.5615342  95.1945808  25.6880384
  59.9065342  95.6755808  25.4170384  61.2405342  93.1115808  24.4290384
  59.9815342  93.2285808  25.6290384  59.1105342  92.4905808  23.3790384
  58.3435342  93.9505808  23.9440384  60.5915342  93.7665808  21.8950384
  58.9345342  94.1985808  21.5480384  59.1655342  96.2315808  22.9730384
  61.2245342  96.0165808  21.0430384  25.1485342  69.3165808  89.3570384
  26.2485342  69.4905808  88.2910384  27.2995342  68.3615808  88.3600384
  27.8725342  68.1805808  89.7810384  26.7575342  68.0185808  90.8340384
  25.7455342  69.1825808  90.7750384  24.7365342  69.0445808  91.7530384
  24.4425342  70.1485808  89.3150384  24.5785342  68.4165808  89.1160384
  25.8025342  69.5245808  87.2960384  26.7435342  70.4535808  88.4340384
  26.8425342  67.4265808  88.0350384  28.1075342  68.5635808  87.6550384
  28.5375342  67.3175808  89.8070384  28.4875342  69.0455808  90.0360384
  26.2415342  67.0765808  90.6400384  27.1885342  67.9325808  91.8330384
  26.2955342  70.1015808  90.9850384  24.2485342  68.2365808  91.5730384
  18.1035342  60.7545808  69.4290384  19.2445342  60.5575808  68.4110384
  20.6125342  60.3895808  69.1050384  20.9025342  61.5245808  70.1100384
  19.7475342  61.7125808  71.1130384  18.3975342  61.9235808  70.3950384
  17.3435342  62.1175808  71.3130384  17.1545342  60.9125808  68.9130384
  17.9925342  59.8295808  70.0010384  19.0375342  59.6905808  67.7820384
  19.2835342  61.4175808  67.7390384  20.6345342  59.4325808  69.6280384
  21.4055342  60.3435808  68.3570384  21.8305342  61.3205808  70.6450384
  21.0645342  62.4555808  69.5660384  19.6905342  60.8205808  71.7390384
  19.9595342  62.5455808  71.7850384  18.4895342  62.8285808  69.7910384
  17.2575342  61.3235808  71.8470384  48.8895342  61.5925808  90.3210384
  49.3525342  60.1215808  90.3520384  50.4905342  59.8545808  89.3450384
  50.1365342  60.3355808  87.9210384  49.6675342  61.8035808  87.9110384
  48.4995342  62.0345808  88.8930384  48.0555342  63.3745808  88.8680384
  48.0575342  61.7445808  91.0110384  49.7095342  62.2165808  90.6840384
  49.6765342  59.8545808  91.3600384  48.5065342  59.4705808  90.1240384
  51.3945342  60.3635808  89.6810384  50.7305342  58.7905808  89.3290384
  50.9975342  60.2145808  87.2630384  49.3495342  59.7005808  87.5110384
  50.5125342  62.4335808  88.1940384  49.3855342  62.1055808  86.9000384
  47.6725342  61.3995808  88.5700384  48.7795342  63.9395808  89.1520384
  59.0825342 108.3965808 115.5970384  57.6915342 109.0615808 115.5790384
  57.4905342 110.0085808 116.7800384  57.8025342 109.3205808 118.1260384
  59.1915342 108.6535808 118.1230384  59.3515342 107.6775808 116.9380384
  60.6165342 107.0505808 116.9460384  59.1835342 107.7005808 114.7620384
  59.8355342 109.1735808 115.4440384  57.5525342 109.6095808 114.6450384
  56.9205342 108.2885808 115.5940384  58.1375342 110.8785808 116.6640384
  56.4685342 110.3895808 116.7850384  57.7385342 110.0455808 118.9380384
  57.0395342 108.5675808 118.3330384  59.9465342 109.4385808 118.0530384
  59.3695342 108.1405808 119.0700384  58.5915342 106.9025808 117.0500384
  61.2915342 107.7275808 116.8480384  73.5045342  25.8225808  84.6350384
  74.2965342  26.5735808  85.7240384  75.6075342  27.1705808  85.1740384
  76.4645342  26.1205808  84.4350384  75.6545342  25.3745808  83.3570384
  74.3705342  24.7485808  83.9410384  73.6395342  24.0465808  82.9580384
  72.6035342  25.3745808  85.0590384  73.1675342  26.5515808  83.8950384
  73.6795342  27.3625808  86.1560384  74.5265342  25.8875808  86.5420384
  75.3715342  27.9875808  84.4900384  76.1835342  27.6145808  85.9880384
  77.3335342  26.6005808  83.9830384  76.8565342  25.4015808  85.1550384
  75.3885342  26.0895808  82.5750384  76.2715342  24.6125808  82.8780384
  74.6775342  24.0335808  84.7070384  73.3655342  24.6705808  82.2810384
 119.8745342  76.2175808  75.4570384 119.6565342  74.6915808  75.4500384
 120.5715342  73.9845808  74.4280384 120.4655342  74.6055808  73.0190384
 120.6765342  76.1315808  73.0470384 119.7195342  76.8205808  74.0420384
 119.8985342  78.2215808  74.0520384 119.1875342  76.6985808  76.1550384
 120.8825342  76.4175808  75.8280384 119.8285342  74.2865808  76.4480384
 118.6125342  74.4755808  75.2110384 121.6055342  74.0435808  74.7700384
 120.3275342  72.9215808  74.3850384 121.1915342  74.1405808  72.3520384
 119.4835342  74.3835808  72.5990384 121.7095342  76.3275808  73.3390384
 120.5565342  76.5505808  72.0460384 118.7005342  76.6135808  73.7100384
 120.7945342  78.4105808  74.3450384 105.8865342  81.8885808  60.1250384
 105.5195342  81.2705808  58.7610384 106.2765342  81.9475808  57.5990384
 106.1205342  83.4835808  57.6160384 106.4825342  84.0825808  58.9890384
 105.6795342  83.4205808  60.1290384 105.9945342  83.9835808  61.3840384
 105.3075342  81.4215808  60.9230384 106.9345342  81.6625808  60.3320384
 105.7305342  80.1995808  58.7680384 104.4445342  81.3665808  58.5970384
 107.3355342  81.6935808  57.6640384 105.9275342  81.5485808  56.6460384
 106.7425342  83.9295808  56.8400384 105.0915342  83.7455808  57.3670384
 107.5495342  83.9285808  59.1580384 106.3245342  85.1625808  58.9860384
 104.6225342  83.6065808  59.9320384 106.9255342  83.8225808  61.5640384
  78.1115342  41.7985808  46.9250384  76.9605342  42.2505808  46.0040384
  75.6145342  41.6125808  46.4090384  75.7095342  40.0765808  46.5310384
  76.8705342  39.6425808  47.4470384  78.2115342  40.2575808  46.9950384
  79.2795342  39.8435808  47.8210384  79.0575342  42.2295808  46.5930384
  77.9255342  42.1955808  47.9250384  76.8765342  43.3385808  46.0200384
  77.1935342  41.9795808  44.9730384  75.2925342  42.0295808  47.3640384
  74.8435342  41.8815808  45.6850384  74.7675342  39.6745808  46.9070384
  75.8485342  39.6425808  45.5390384  76.6435342  39.9695808  48.4630384
  76.9395342  38.5535808  47.4830384  78.4095342  39.8985808  45.9830384
  79.1115342  40.1575808  48.7130384  45.5835342  43.0985808  97.2970384
  46.0775342  42.7885808  95.8700384  45.5625342  41.4235808  95.3670384
  45.8635342  40.2815808  96.3610384  45.3715342  40.6135808  97.7830384
  45.9365342  41.9605808  98.2810384  45.5035342  42.2545808  99.5920384
  45.9955342  44.0475808  97.6450384  44.4995342  43.2265808  97.2630384
  45.7645342  43.5795808  95.1870384  47.1695342  42.7905808  95.8550384
  44.4855342  41.4835808  95.2050384  46.0025342  41.1955808  94.3940384
  45.4045342  39.3555808  96.0140384  46.9385342  40.0965808  96.3830384
  44.2815342  40.6595808  97.7640384  45.6335342  39.8085808  98.4730384
  47.0245342  41.8705808  98.2980384  44.5455342  42.3355808  99.5830384
  60.2215342  34.7315808  72.7760384  59.9435342  36.0725808  73.4830384
  61.0395342  37.1175808  73.1880384  62.4565342  36.5775808  73.4770384
  62.7135342  35.2325808  72.7700384  61.6285342  34.1905808  73.1160384
  61.8755342  32.9515808  72.4860384  59.4565342  33.9975808  73.0340384
  60.1455342  34.8915808  71.6980384  58.9695342  36.4585808  73.1790384
  59.8815342  35.9085808  74.5610384  60.9765342  37.4185808  72.1410384
  60.8595342  38.0205808  73.7730384  63.2035342  37.3095808  73.1690384
  62.5825342  36.4505808  74.5530384  62.7185342  35.4095808  71.6930384
  63.7055342  34.8535808  73.0230384  61.6635342  34.0315808  74.1960384
  61.8455342  33.0845808  71.5340384  90.9365342  25.3245808 100.2140384
  91.4125342  23.9015808 100.5730384  92.4415342  23.3655808  99.5560384
  91.9385342  23.4735808  98.1010384  91.4595342  24.8985808  97.7630384
  90.3975342  25.3955808  98.7670384  89.9425342  26.6925808  98.4460384
  90.1795342  25.6635808 100.9220384  91.7845342  26.0045808 100.3190384
  91.8405342  23.8945808 101.5760384  90.5525342  23.2295808 100.6060384
  93.3715342  23.9265808  99.6570384  92.6875342  22.3285808  99.7890384
  92.7275342  23.1725808  97.4110384  91.1185342  22.7695808  97.9490384
  92.3245342  25.5645808  97.7890384  91.0715342  24.9375808  96.7430384
  89.5465342  24.7145808  98.7040384  90.6875342  27.2965808  98.5010384
  53.5945342  54.7855808  62.5340384  52.2375342  55.2005808  63.1370384
  51.3555342  53.9785808  63.4670384  51.2025342  53.0255808  62.2620384
  52.5685342  52.6285808  61.6670384  53.4125342  53.8685808  61.3040384
  54.6545342  53.5055808  60.7390384  54.1805342  55.6675808  62.2710384
  54.1615342  54.2555808  63.3020384  52.3965342  55.7985808  64.0360384
  51.7105342  55.8475808  62.4330384  51.7955342  53.4335808  64.3030384
  50.3725342  54.3095808  63.8060384  50.6535342  52.1325808  62.5620384
  50.5985342  53.5085808  61.4930384  53.1005342  52.0285808  62.4070384
  52.4305342  51.9875808  60.7940384  52.8545342  54.4335808  60.5560384
  55.1515342  53.0075808  61.3940384 127.2995342  57.1685808  71.9620384
 127.8415342  56.2985808  70.8110384 129.3415342  56.5565808  70.5520384
 129.6525342  58.0555808  70.3610384 129.0955342  58.9105808  71.5160384
 127.5855342  58.6685808  71.7260384 127.0705342  59.4665808  72.7700384
 126.2295342  56.9995808  72.0970384 127.7815342  56.8485808  72.8890384
 127.6775342  55.2435808  71.0320384 127.2765342  56.5085808  69.9010384
 129.9215342  56.1725808  71.3920384 129.6685342  55.9935808  69.6760384
 130.7295342  58.2035808  70.2740384 129.2235342  58.3975808  69.4180384
 129.6365342  58.6465808  72.4270384 129.2945342  59.9685808  71.3360384
 127.0795342  58.9545808  70.8020384 127.5125342  59.2195808  73.5870384
  56.3075342 118.3865808  95.7730384  55.6245342 118.4605808  97.1530384
  54.5585342 117.3595808  97.3280384  53.5435342 117.3375808  96.1650384
  54.2435342 117.2725808  94.7940384  55.2725342 118.4105808  94.6250384
  55.8995342 118.3635808  93.3610384  57.0255342 119.2005808  95.6580384
  56.8815342 117.4585808  95.7250384  56.3735342 118.3835808  97.9440384
  55.1565342 119.4395808  97.2740384  55.0515342 116.3885808  97.3930384
  54.0345342 117.4965808  98.2760384  52.8665342 116.4905808  96.2780384
  52.9205342 118.2315808  96.2120384  54.7505342 116.3085808  94.7150384
  53.5065342 117.2985808  93.9890384  54.7285342 119.3535808  94.6970384
  56.3805342 117.5345808  93.2910384  38.4585342 108.3045808  97.3310384
  38.1225342 106.8005808  97.3760384  37.1725342 106.4575808  98.5430384
  37.6905342 106.9915808  99.8960384  38.0305342 108.4935808  99.8280384
  39.0165342 108.8035808  98.6820384  39.3435342 110.1765808  98.6340384
  39.1635342 108.5135808  96.5240384  37.5445342 108.8515808  97.0900384
  37.6775342 106.4885808  96.4300384  39.0455342 106.2255808  97.4810384
  36.1885342 106.8835808  98.3420384  37.0285342 105.3775808  98.6000384
  36.9505342 106.8115808 100.6750384  38.5805342 106.4325808 100.1880384
  37.1015342 109.0455808  99.6700384  38.4315342 108.8355808 100.7840384
  39.9325342 108.2455808  98.8820384  38.5405342 110.6735808  98.4570384
  79.7585342  87.9855808 122.4000384  81.1835342  87.5525808 122.0000384
  81.6205342  88.1795808 120.6590384  80.5895342  87.9365808 119.5360384
  79.1705342  88.3655808 119.9570384  78.7385342  87.6915808 121.2760384
  77.4305342  88.0675808 121.6510384  79.4575342  87.4965808 123.3280384
  79.7725342  89.0585808 122.6060384  81.8895342  87.8255808 122.7860384
  81.2235342  86.4645808 121.9210384  81.7595342  89.2525808 120.7930384
  82.5925342  87.7825808 120.3640384  80.8885342  88.4705808 118.6350384
  80.5845342  86.8775808 119.2730384  79.1655342  89.4495808 120.0830384
  78.4555342  88.1455808 119.1620384  78.7435342  86.6125808 121.1070384
  77.4205342  89.0165808 121.8020384  98.9275342  90.8905808  47.9120384
 100.1255342  91.7855808  48.2880384  99.8245342  92.6585808  49.5240384
  98.5125342  93.4575808  49.3720384  97.3285342  92.5485808  48.9860384
  97.6365342  91.7185808  47.7220384  96.5445342  90.9015808  47.3560384
  99.1495342  90.3145808  47.0120384  98.7785342  90.1635808  48.7140384
 101.0065342  91.1695808  48.4730384 100.3765342  92.4285808  47.4430384
  99.7575342  92.0215808  50.4070384 100.6565342  93.3415808  49.7070384
  98.2895342  93.9865808  50.2980384  98.6435342  94.2255808  48.6080384
  97.1285342  91.8775808  49.8230384  96.4235342  93.1425808  48.8460384
  97.8185342  92.4225808  46.9080384  96.3795342  90.2795808  48.0700384
 127.8475342  58.1965808  56.1580384 128.6055342  56.8545808  56.1680384
 127.6575342  55.6595808  56.4010384 126.7715342  55.8505808  57.6500384
 126.0295342  57.2005808  57.6280384 127.0035342  58.3825808  57.4390384
 126.3265342  59.6215808  57.4400384 128.5445342  59.0275808  56.0350384
 127.1915342  58.2125808  55.2850384 129.1455342  56.7235808  55.2290384
 129.3645342  56.8715808  56.9530384 127.0205342  55.5305808  55.5250384
 128.2355342  54.7385808  56.4920384 126.0545342  55.0325808  57.7260384
 127.3915342  55.7925808  58.5460384 125.3145342  57.1825808  56.8030384
 125.4425342  57.3275808  58.5400384 127.6915342  58.3745808  58.2860384
 125.7195342  59.6345808  56.6950384  65.9885342  45.2385808  97.2890384
  67.1905342  45.0215808  98.2310384  66.8065342  44.1865808  99.4710384
  65.5735342  44.7595808 100.2030384  64.3865342  44.9785808  99.2450384
  64.7845342  45.8525808  98.0370384  63.6915342  46.0715808  97.1700384
  66.2755342  45.8655808  96.4430384  65.7025342  44.2695808  96.8720384
  68.0035342  44.5335808  97.6910384  67.5785342  45.9895808  98.5530384
  66.5965342  43.1615808  99.1630384  67.6525342  44.1295808 100.1570384
  65.2795342  44.0925808 101.0140384  65.8405342  45.7075808 100.6720384
  64.0485342  44.0025808  98.8930384  63.5435342  45.4205808  99.7790384
  65.1035342  46.8205808  98.4270384  63.4065342  45.2225808  96.8220384
 104.1775342  28.1825808  61.2590384 105.4875342  27.4225808  61.5460384
 105.2755342  26.2685808  62.5490384 104.5665342  26.7365808  63.8370384
 103.2645342  27.5025808  63.5310384 103.5105342  28.6775808  62.5620384
 102.3225342  29.3935808  62.2970384 104.3625342  29.0185808  60.5810384
 103.4975342  27.5065808  60.7370384 105.9055342  27.0345808  60.6150384
 106.2295342  28.1165808  61.9450384 104.6815342  25.4855808  62.0750384
 106.2345342  25.8115808  62.7970384 104.3525342  25.8785808  64.4760384
 105.2385342  27.3785808  64.4080384 102.5555342  26.8035808  63.0830384
 102.8045342  27.8555808  64.4550384 104.2125342  29.3585808  63.0480384
 101.7005342  28.7995808  61.8690384 110.3295342 121.1715808  57.4280384
 110.7025342 122.4215808  56.6060384 109.6355342 122.7495808  55.5410384
 109.3025342 121.5315808  54.6520384 108.9415342 120.2895808  55.4910384
 110.0445342 119.9565808  56.5180384 109.7245342 118.8065808  57.2710384
 111.1195342 120.9375808  58.1450384 109.4385342 121.4025808  58.0160384
 110.8405342 123.2765808  57.2700384 111.6645342 122.2605808  56.1160384
 108.7255342 123.0915808  56.0370384 109.9725342 123.5815808  54.9210384
 108.4815342 121.7765808  53.9780384 110.1595342 121.3035808  54.0170384
 108.0055342 120.4925808  56.0140384 108.7505342 119.4345808  54.8400384
 110.9585342 119.7485808  55.9570384 108.9215342 118.9835808  57.7680384
  49.2555342  32.4765808  66.2990384  48.3625342  31.2555808  66.5970384
  47.1165342  31.6405808  67.4210384  47.4785342  32.4345808  68.6940384
  48.3785342  33.6455808  68.3780384  49.6395342  33.2285808  67.5930384
  50.4745342  34.3345808  67.3220384  50.1495342  32.1715808  65.7530384
  48.7045342  33.1495808  65.6380384  48.0595342  30.7785808  65.6630384
  48.9415342  30.5085808  67.1440384  46.4475342  32.2395808  66.8020384
  46.5565342  30.7425808  67.6900384  46.5695342  32.7665808  69.1970384
  47.9905342  31.7765808  69.3970384  47.7985342  34.3555808  67.7860384
  48.6525342  34.1655808  69.2980384  50.1975342  32.5315808  68.2210384
  49.9895342  34.9525808  66.7690384 132.7945342  90.7205808  88.4870384
 133.4805342  91.8035808  89.3450384 132.6365342  92.1775808  90.5820384
 131.1845342  92.5455808  90.2100384 130.5195342  91.4565808  89.3460384
 131.3585342  91.1325808  88.0920384 130.7395342  90.1505808  87.2890384
 133.3895342  90.5055808  87.5980384 132.7605342  89.7965808  89.0680384
 134.4685342  91.4615808  89.6570384 133.6465342  92.6955808  88.7370384
 132.6275342  91.3375808  91.2770384 133.1065342  93.0065808  91.1140384
 130.5995342  92.7125808  91.1160384 131.1785342  93.4925808  89.6680384
 130.4105342  90.5575808  89.9550384 129.5085342  91.7595808  89.0640384
 131.4335342  92.0505808  87.5050384 130.6705342  89.3405808  87.8010384
 100.2695342  58.0045808  98.8070384  99.7485342  56.5535808  98.7610384
 100.4345342  55.7305808  97.6510384 100.3655342  56.4295808  96.2770384
 100.8805342  57.8805808  96.3430384 100.1485342  58.6955808  97.4300384
 100.6045342  60.0305808  97.4770384  99.7395342  58.5755808  99.5710384
 101.3185342  57.9815808  99.1110384  99.8995342  56.0725808  99.7290384
  98.6705342  56.5605808  98.5920384 101.4795342  55.5675808  97.9190384
  99.9805342  54.7405808  97.5890384 100.9395342  55.8635808  95.5420384
  99.3345342  56.4275808  95.9210384 101.9485342  57.8525808  96.5670384
 100.7835342  58.3635808  95.3690384  99.0895342  58.7105808  97.1660384
 101.5375342  60.0235808  97.7100384  46.9215342 104.9145808  77.8680384
  46.7125342 106.4395808  77.7730384  45.7785342 106.8205808  76.6050384
  46.2305342 106.1975808  75.2670384  46.4435342 104.6755808  75.3840384
  47.4155342 104.3235808  76.5290384  47.6275342 102.9305808  76.6230384
  47.6175342 104.6745808  78.6740384  45.9675342 104.4555808  78.1380384
  46.3085342 106.8195808  78.7120384  47.6785342 106.9295808  77.6380384
  44.7645342 106.4865808  76.8320384  45.7245342 107.9055808  76.5110384
  45.4965342 106.4125808  74.4900384  47.1605342 106.6695808  74.9440384
  45.4745342 104.2095808  75.5720384  46.8015342 104.2685808  74.4370384
  48.3735342 104.7945808  76.2990384  46.7885342 102.5095808  76.8260384
  67.9075342  90.9015808  24.9610384  68.8735342  92.1025808  24.9410384
  70.3145342  91.6765808  24.5910384  70.8185342  90.5235808  25.4860384
  69.8355342  89.3365808  25.5000384  68.4115342  89.7805808  25.8970384
  67.5165342  88.6895808  25.9310384  66.9055342  91.2225808  25.2520384
  67.8235342  90.5135808  23.9430384  68.5225342  92.8515808  24.2300384
  68.8675342  92.5885808  25.9190384  70.3525342  91.3635808  23.5470384
  70.9855342  92.5325808  24.6740384  71.7995342  90.1915808  25.1470384
  70.9575342  90.8905808  26.5040384  69.8155342  88.8985808  24.5000384
  70.1955342  88.5535808  26.1700384  68.4705342  90.1995808  26.9030384
  67.4595342  88.3165808  25.0470384  77.8845342  94.1255808 117.6810384
  78.6475342  93.8715808 116.3660384  80.1005342  93.4195808 116.6220384
  80.8535342  94.3765808 117.5710384  80.0705342  94.6255808 118.8750384
  78.6365342  95.1205808 118.5930384  77.9265342  95.3685808 119.7870384
  76.8745342  94.4845808 117.4720384  77.7705342  93.1705808 118.2000384
  78.1245342  93.1235808 115.7690384  78.6535342  94.7855808 115.7680384
  80.0935342  92.4175808 117.0540384  80.6365342  93.3365808 115.6750384
  81.8405342  93.9735808 117.7990384  81.0245342  95.3275808 117.0640384
  80.0295342  93.6875808 119.4320384  80.6045342  95.3355808 119.5090384
  78.7195342  96.0625808 118.0480384  77.8495342  94.5415808 120.2720384
 119.2735342  75.8985808  43.3900384 119.9765342  77.0225808  44.1770384
 120.8175342  76.4685808  45.3450384 120.0045342  75.5255808  46.2570384
 119.3015342  74.4135808  45.4520384 118.4305342  74.9955808  44.3180384
 117.7705342  73.9785808  43.5950384 118.6525342  76.3185808  42.5970384
 120.0395342  75.2965808  42.8950384 120.6085342  77.6075808  43.5060384
 119.2275342  77.7145808  44.5670384 121.6765342  75.9285808  44.9440384
 121.2255342  77.2925808  45.9320384 120.6555342  75.0845808  47.0120384
 119.2575342  76.1045808  46.8020384 120.0685342  73.7645808  45.0260384
 118.7015342  73.7865808  46.1140384 117.6705342  75.6265808  44.7830384
 118.4345342  73.4205808  43.1830384  64.3515342  24.3295808  72.2600384
  65.5535342  24.8415808  73.0780384  66.4255342  23.6825808  73.6060384
  65.5965342  22.6255808  74.3670384  64.3935342  22.1335808  73.5380384
  63.5135342  23.3075808  73.0600384  62.3995342  22.8555808  72.3180384
  63.7285342  25.1655808  71.9350384  64.7325342  23.8565808  71.3520384
  66.1595342  25.5155808  72.4700384  65.1935342  25.4355808  73.9200384
  66.9335342  23.2045808  72.7680384  67.2115342  24.0745808  74.2530384
  66.2305342  21.7825808  74.6410384  65.2385342  23.0535808  75.3050384
  64.7765342  21.5895808  72.6730384  63.8025342  21.4185808  74.1130384
  63.1405342  23.8175808  73.9500384  62.7215342  22.4055808  71.5330384
  47.2315342  39.5925808 108.8400384  46.0815342  40.4545808 108.2790384
  44.8765342  40.5025808 109.2410384  44.4095342  39.0935808 109.6650384
  45.5725342  38.2445808 110.2140384  46.7475342  38.1745808 109.2160384
  47.8045342  37.3795808 109.7090384  48.0535342  39.5405808 108.1240384
  47.6275342  40.0895808 109.7290384  46.4385342  41.4655808 108.0770384
  45.7615342  40.0485808 107.3170384  45.1485342  41.0735808 110.1290384
  44.0505342  41.0425808 108.7750384  43.6205342  39.1725808 110.4130384
  43.9645342  38.5865808 108.8080384  45.9135342  38.6965808 111.1470384
  45.2245342  37.2415808 110.4690384  46.3715342  37.7065808 108.3040384
  48.1405342  37.7865808 110.5120384  31.2425342  73.7585808  71.8500384
  31.5655342  75.1835808  71.3570384  33.0535342  75.3395808  70.9790384
  33.9955342  74.8755808  72.1100384  33.6525342  73.4535808  72.5970384
  32.1705342  73.3355808  73.0110384  31.8605342  72.0395808  73.4760384
  30.1955342  73.6865808  72.1500384  31.3715342  73.0695808  71.0120384
  30.9355342  75.4325808  70.5010384  31.3135342  75.9035808  72.1380384
  33.2585342  74.7575808  70.0800384  33.2645342  76.3785808  70.7220384
  35.0315342  74.9135808  71.7710384  33.9255342  75.5705808  72.9480384
  33.8605342  72.7555808  71.7840384  34.3065342  73.1665808  73.4220384
  32.0055342  74.0365808  73.8310384  32.0045342  71.4165808  72.7580384
  90.6445342  85.3125808 118.6370384  90.2315342  83.8285808 118.7140384
  91.0135342  82.9605808 117.7070384  90.9445342  83.5225808 116.2710384
  91.3515342  85.0075808 116.2150384  90.5245342  85.8625808 117.1980384
  90.8825342  87.2265808 117.1320384  90.0485342  85.9105808 119.3280384
  91.6815342  85.3955808 118.9720384  90.3815342  83.4515808 119.7270384
  89.1615342  83.7395808 118.5130384  92.0575342  82.9005808 118.0190384
  90.6345342  81.9375808 117.7250384  91.5835342  82.9355808 115.6100384
  89.9285342  83.4105808 115.8880384  92.4105342  85.0805808 116.4710384
  91.2555342  85.3905808 115.1980384  89.4775342  85.7745808 116.9030384
  91.8035342  87.3105808 117.3920384 109.7015342  43.0225808  48.1930384
 110.5475342  43.8865808  47.2360384 111.9955342  43.3665808  47.1200384
 112.6635342  43.1805808  48.4990384 111.7995342  42.3225808  49.4440384
 110.3695342  42.8885808  49.5790384 109.5845342  42.1145808  50.4610384
 108.6955342  43.4355808  48.2900384 109.5865342  42.0325808  47.7470384
 110.0815342  43.9165808  46.2500384 110.5615342  44.9175808  47.5960384
 111.9935342  42.4135808  46.5900384 112.5875342  44.0505808  46.5090384
 113.6465342  42.7255808  48.3780384 112.8355342  44.1575808  48.9530384
 111.7535342  41.3095808  49.0390384 112.2745342  42.2395808  50.4230384
 110.4565342  43.8925808  49.9980384 109.5045342  41.2285808  50.0980384
  88.5745342  58.1295808 103.9730384  88.7165342  56.7195808 104.5810384
  87.3735342  56.1915808 105.1290384  86.7025342  57.1895808 106.0950384
  86.5785342  58.5945808 105.4740384  87.9405342  59.1195808 104.9750384
  87.8315342  60.4155808 104.4260384  89.5445342  58.4965808 103.6320384
  87.9425342  58.0565808 103.0850384  89.1115342  56.0295808 103.8340384
  89.4515342  56.7445808 105.3880384  86.7005342  55.9905808 104.2950384
  87.5285342  55.2345808 105.6300384  85.7175342  56.8215808 106.3860384
  87.2865342  57.2505808 107.0150384  85.8805342  58.5365808 104.6370384
  86.1375342  59.2895808 106.1920384  88.6035342  59.1755808 105.8410384
  87.2485342  60.3725808 103.6630384 133.3385342 107.0875808  85.9590384
 132.3995342 106.0015808  85.3960384 132.1675342 104.8605808  86.4080384
 133.4905342 104.2785808  86.9490384 134.4195342 105.3785808  87.4990384
 134.6725342 106.4855808  86.4530384 135.5405342 107.4825808  86.9490384
 133.5195342 107.8605808  85.2110384 132.8305342 107.5785808  86.7930384
 131.4455342 106.4465808  85.1100384 132.8295342 105.5915808  84.4800384
 131.5725342 105.2355808  87.2420384 131.5745342 104.0695808  85.9460384
 133.2835342 103.5425808  87.7260384 134.0015342 103.7395808  86.1500384
 133.9475342 105.8135808  88.3820384 135.3625342 104.9465808  87.8370384
 135.1555342 106.0155808  85.5940384 135.1205342 107.9005808  87.7060384
 133.1145342  95.6965808  57.3000384 131.7645342  96.1715808  56.7250384
 131.9135342  96.7365808  55.2970384 133.0105342  97.8185808  55.2080384
 134.3495342  97.3305808  55.7950384 134.1825342  96.8115808  57.2390384
 135.4115342  96.3835808  57.7840384 132.9895342  95.3415808  58.3240384
 133.4515342  94.8385808  56.7140384 131.0485342  95.3475808  56.7270384
 131.3435342  96.9405808  57.3760384 132.1555342  95.9225808  54.6120384
 130.9605342  97.1445808  54.9580384 133.1475342  98.1245808  54.1700384
 132.6835342  98.7105808  55.7450384 134.7255342  96.5255808  55.1600384
 135.0945342  98.1265808  55.7560384 133.8175342  97.6445808  57.8420384
 135.7385342  95.6495808  57.2570384  86.5615342 113.4025808 129.3200384
  87.4895342 112.7135808 128.3000384  87.8635342 113.6545808 127.1350384
  86.6225342 114.2895808 126.4740384  85.7025342 114.9655808 127.5100384
  85.3055342 113.9915808 128.6390384  84.4455342 114.6035808 129.5770384
  86.2775342 112.7045808 130.1100384  87.1225342 114.2055808 129.8050384
  88.3935342 112.3595808 128.7980384  86.9945342 111.8245808 127.9020384
  88.5165342 114.4445808 127.5080384  88.4445342 113.1085808 126.3900384
  86.9315342 115.0155808 125.7210384  86.0625342 113.5195808 125.9400384
  86.2355342 115.8185808 127.9340384  84.8135342 115.3705808 127.0220384
  84.7655342 113.1615808 128.1790384  84.9155342 115.3355808 129.9860384
  42.1665342  55.4805808  60.2380384  41.5385342  54.2155808  60.8580384
  40.0355342  54.4035808  61.1510384  39.7555342  55.6735808  61.9820384
  40.3975342  56.9245808  61.3530384  41.9095342  56.7285808  61.1110384
  42.5025342  57.8825808  60.5540384  43.2365342  55.3365808  60.0790384
  41.7255342  55.6305808  59.2490384  41.6855342  53.3625808  60.1930384
  42.0605342  53.9695808  61.7850384  39.4905342  54.4635808  60.2080384
  39.6465342  53.5255808  61.6700384  38.6805342  55.8195808  62.0880384
  40.1435342  55.5365808  62.9930384  39.8985342  57.1225808  60.4020384
  40.2195342  57.8005808  61.9800384  42.3725342  56.5475808  62.0820384
  42.0975342  58.0475808  59.6980384 118.9815342  66.3485808  69.6400384
 118.1465342  67.5895808  69.2660384 118.8935342  68.9015808  69.5820384
 119.4055342  68.9475808  71.0380384 120.2295342  67.6955808  71.3960384
 119.4445342  66.3975808  71.1130384 120.1905342  65.2505808  71.4620384
 118.4155342  65.4355808  69.4460384 119.8555342  66.3145808  68.9850384
 117.8835342  67.5555808  68.2070384 117.2025342  67.5695808  69.8130384
 119.7385342  69.0075808  68.9000384 118.2415342  69.7555808  69.3900384
 120.0045342  69.8455808  71.1930384 118.5555342  69.0295808  71.7170384
 121.1435342  67.7065808  70.8000384 120.5445342  67.7345808  72.4410384
 118.5475342  66.4175808  71.7360384 120.9825342  65.2275808  70.9170384
  23.7345342  47.2175808  89.0330384  25.0625342  47.9705808  88.8180384
  25.3235342  49.0085808  89.9300384  24.1275342  49.9615808  90.1330384
  22.8075342  49.1915808  90.3380384  22.5475342  48.1935808  89.1900384
  21.3285342  47.5035808  89.3660384  23.5535342  46.5215808  88.2130384
  23.8285342  46.6115808  89.9370384  25.8905342  47.2605808  88.7690384
  25.0405342  48.4765808  87.8500384  25.5305342  48.4865808  90.8660384
  26.2225342  49.5825808  89.6990384  24.3135342  50.6155808  90.9860384
  24.0335342  50.6155808  89.2650384  22.8715342  48.6505808  91.2840384
  21.9735342  49.8885808  90.4390384  22.4765342  48.7715808  88.2670384
  21.3835342  46.9925808  90.1780384 111.1265342  85.7875808 112.2740384
 112.3475342  86.1065808 113.1580384 113.1625342  87.2955808 112.6070384
 113.5375342  87.1095808 111.1220384 112.3065342  86.7825808 110.2550384
 111.5345342  85.5625808 110.8000384 110.4175342  85.2485808 109.9950384
 110.5915342  84.9175808 112.6610384 110.4315342  86.6285808 112.3340384
 112.0245342  86.3175808 114.1790384 112.9905342  85.2255808 113.2200384
 112.5815342  88.2115808 112.7190384 114.0655342  87.4355808 113.2040384
 114.0295342  88.0075808 110.7470384 114.2685342  86.3045808 111.0310384
 111.6515342  87.6555808 110.2490384 112.6045342  86.6155808 109.2180384
 112.2155342  84.7095808 110.7780384 109.8135342  85.9965808 110.0100384
 134.5535342  56.9865808  67.3780384 135.9765342  56.3935808  67.4130384
 136.1365342  55.3475808  68.5350384 135.6855342  55.8895808  69.9090384
 134.2655342  56.4855808  69.8520384 134.1425342  57.5605808  68.7520384
 132.8485342  58.1225808  68.7140384 134.4785342  57.7525808  66.6040384
 133.8595342  56.1925808  67.0940384 136.2165342  55.9445808  66.4480384
 136.7005342  57.1975808  67.5610384 135.5495342  54.4625808  68.2880384
 137.1755342  55.0165808  68.5890384 135.7265342  55.0945808  70.6540384
 136.3865342  56.6545808  70.2440384 133.5625342  55.6745808  69.6490384
 133.9865342  56.8965808  70.8240384 134.8485342  58.3575808  68.9960384
 132.2215342  57.4255808  68.4990384 105.2255342  69.9635808  25.9340384
 106.0405342  69.2915808  24.8110384 105.1685342  68.9765808  23.5770384
 103.8985342  68.1815808  23.9460384 103.1025342  68.8625808  25.0760384
 103.9835342  69.1265808  26.3140384 103.2495342  69.7305808  27.3580384
 105.8535342  70.1375808  26.8090384 104.9065342  70.9475808  25.5830384
 106.8755342  69.9315808  24.5230384 106.4825342  68.3675808  25.1870384
 104.8805342  69.9105808  23.0930384 105.7535342  68.4225808  22.8410384
 103.2665342  68.0595808  23.0650384 104.1795342  67.1745808  24.2570384
 102.7135342  69.8095808  24.6960384 102.2325342  68.2595808  25.3440384
 104.3415342  68.1585808  26.6710384 102.9325342  70.5845808  27.0500384
  71.0865342 105.7725808  28.8280384  70.5685342 106.4465808  30.1150384
  69.9125342 105.4305808  31.0730384  68.8325342 104.5785808  30.3730384
  69.3655342 103.9205808  29.0850384  69.9755342 104.9625808  28.1240384
  70.4445342 104.3635808  26.9350384  71.5065342 106.5175808  28.1500384
  71.9065342 105.1045808  29.0990384  71.3865342 106.9625808  30.6210384
  69.8415342 107.2175808  29.8520384  70.6815342 104.7725808  31.4790384
  69.4785342 105.9525808  31.9270384  68.4615342 103.8145808  31.0560384
  67.9755342 105.2095808  30.1300384  70.1285342 103.1925808  29.3650384
  68.5725342 103.3585808  28.5890384  69.1815342 105.6635808  27.8580384
  71.1445342 103.7455808  27.1620384  96.3625342 116.1175808  70.9150384
  95.9845342 117.5415808  71.3690384  95.4035342 117.5555808  72.7980384
  94.2425342 116.5515808  72.9670384  94.6355342 115.1355808  72.4990384
  95.1715342 115.1425808  71.0520384  95.5115342 113.8435808  70.6160384
  96.7315342 116.1305808  69.8880384  97.1905342 115.7695808  71.5360384
  96.8585342 118.1935808  71.3160384  95.2525342 117.9605808  70.6760384
  96.1935342 117.3135808  73.5100384  95.0645342 118.5605808  73.0520384
  93.9235342 116.5245808  74.0090384  93.3805342 116.8955808  72.3940384
  95.4065342 114.7565808  73.1720384  93.7865342 114.4565808  72.5920384
  94.3705342 115.5145808  70.4110384  96.2165342 113.5105808  71.1770384
  44.9155342  63.1355808  35.9820384  43.8535342  62.3405808  36.7670384
  44.3305342  61.9955808  38.1930384  45.7115342  61.3045808  38.1970384
  46.7575342  62.1085808  37.4000384  46.2755342  62.4025808  35.9640384
  47.2425342  63.1195808  35.2260384  44.5715342  63.3305808  34.9650384
  45.0355342  64.1105808  36.4600384  42.9225342  62.9075808  36.8130384
  43.6205342  61.4195808  36.2310384  44.3845342  62.9095808  38.7860384
  43.5955342  61.3585808  38.6870384  46.0535342  61.1625808  39.2230384
  45.6175342  60.3065808  37.7680384  46.9365342  63.0485808  37.9240384
  47.7125342  61.5795808  37.3850384  46.1205342  61.4415808  35.4700384
  47.3835342  63.9675808  35.6560384  65.7915342  22.4475808  87.9170384
  67.0175342  23.3655808  87.7430384  66.6685342  24.6505808  86.9640384
  65.9575342  24.3505808  85.6270384  64.7405342  23.4245808  85.8200384
  65.1235342  22.1265808  86.5610384  64.0135342  21.2695808  86.7190384
  66.0725342  21.5285808  88.4330384  65.0725342  22.9565808  88.5640384
  67.4325342  23.6225808  88.7190384  67.8035342  22.8235808  87.2130384
  66.0255342  25.2805808  87.5800384  67.5745342  25.2315808  86.7810384
  65.6465342  25.2815808  85.1540384  66.6635342  23.8825808  84.9400384
  63.9885342  23.9665808  86.3970384  64.2815342  23.1965808  84.8560384
  65.8645342  21.6095808  85.9490384  63.3575342  21.7195808  87.2580384
  54.9085342  52.7445808  71.4570384  55.6795342  51.5145808  70.9390384
  57.1965342  51.6375808  71.1920384  57.7735342  52.9665808  70.6590384
  56.9845342  54.1835808  71.1790384  55.4765342  54.0585808  70.8740384
  54.7575342  55.1835808  71.3320384  53.8455342  52.6525808  71.2290384
  54.9895342  52.7655808  72.5460384  55.2955342  50.6085808  71.4110384
  55.4995342  51.3975808  69.8690384  57.3895342  51.5665808  72.2630384
  57.7185342  50.7955808  70.7350384  58.8235342  53.0555808  70.9380384
  57.7495342  52.9585808  69.5680384  57.1345342  54.2515808  72.2580384
  57.3865342  55.1065808  70.7550384  55.3675342  54.0065808  69.7900384
  54.8495342  55.2345808  72.2870384 134.8525342  57.3335808  76.3480384
 135.5215342  55.9835808  76.0180384 136.0225342  55.2645808  77.2880384
 136.9165342  56.1715808  78.1600384 136.2365342  57.5185808  78.4720384
 135.7845342  58.2395808  77.1840384 135.1805342  59.4835808  77.4680384
 134.5455342  57.8405808  75.4320384 133.9385342  57.1335808  76.9120384
 134.8215342  55.3435808  75.4790384 136.3615342  56.1515808  75.3410384
 135.1655342  54.9325808  77.8750384 136.5675342  54.3605808  77.0110384
 137.1725342  55.6595808  79.0880384 137.8605342  56.3525808  77.6440384
 135.3685342  57.3245808  79.1050384 136.9045342  58.1555808  79.0550384
 136.6785342  58.4275808  76.5860384 134.3925342  59.3255808  77.9950384
  34.1975342  83.8295808  35.9100384  35.3615342  84.8395808  35.8930384
  36.4475342  84.4855808  36.9310384  35.8605342  84.2795808  38.3440384
  34.6925342  83.2735808  38.3400384  33.5995342  83.6745808  37.3260384
  32.5195342  82.7655808  37.3380384  33.4255342  84.1255808  35.1980384
  34.5785342  82.8635808  35.5680384  35.8015342  84.8855808  34.8950384
  34.9765342  85.8405808  36.1000384  36.9595342  83.5745808  36.6180384
  37.2075342  85.2675808  36.9540384  36.6415342  83.9405808  39.0250384
  35.5125342  85.2365808  38.7340384  35.0895342  82.2915808  38.0780384
  34.2705342  83.1775808  39.3420384  33.2205342  84.6525808  37.6280384
  32.8485342  81.9015808  37.0730384  91.0995342  73.4725808 118.2570384
  89.9275342  74.0535808 117.4410384  88.6545342  74.2155808 118.2980384
  88.2765342  72.9145808 119.0370384  89.4625342  72.3435808 119.8390384
  90.7085342  72.1475808 118.9510384  91.7885342  71.6055808 119.6800384
  91.9735342  73.3275808 117.6190384  91.3875342  74.2065808 119.0120384
  90.2125342  75.0145808 117.0120384  89.7125342  73.3955808 116.5960384
  88.8125342  75.0105808 119.0290384  87.8235342  74.5425808 117.6710384
  87.4305342  73.0965808 119.7010384  87.9385342  72.1725808 118.3130384
  89.6955342  73.0415808 120.6460384  89.1805342  71.4045808 120.3180384
  90.4405342  71.4375808 118.1670384  92.0305342  72.2265808 120.3720384
 133.7455342  61.9835808  53.8020384 132.7465342  61.6315808  54.9230384
 132.2575342  62.8875808  55.6740384 133.4265342  63.7635808  56.1730384
 134.4185342  64.0975808  55.0420384 134.9275342  62.8225808  54.3370384
 135.8525342  63.1265808  53.3150384 134.1075342  61.0765808  53.3160384
 133.2125342  62.5525808  53.0370384 131.8955342  61.0905808  54.5070384
 133.2225342  60.9495808  55.6310384 131.6245342  63.4785808  55.0100384
 131.6255342  62.5955808  56.5140384 133.0395342  64.6825808  56.6140384
 133.9525342  63.2415808  56.9740384 133.9075342  64.7345808  54.3180384
 135.2545342  64.6815808  55.4300384 135.4415342  62.2195808  55.0880384
 135.4055342  63.6575808  52.6500384  72.3655342  66.4705808  19.6520384
  73.4945342  66.7595808  18.6420384  74.1255342  65.4615808  18.0960384
  74.5685342  64.5065808  19.2250384  73.4305342  64.2365808  20.2290384
  72.8475342  65.5485808  20.7940384  71.8195342  65.3005808  21.7300384
  71.9655342  67.4025808  20.0540384  71.5445342  65.9875808  19.1170384
  73.1125342  67.3635808  17.8180384  74.2675342  67.3615808  19.1250384
  73.4025342  64.9515808  17.4580384  74.9765342  65.7025808  17.4570384
  74.9215342  63.5665808  18.8000384  75.4205342  64.9395808  19.7510384
  72.6455342  63.6805808  19.7130384  73.7815342  63.5915808  21.0370384
  73.6555342  66.0665808  21.3120384  71.1035342  64.8445808  21.2800384
  47.8935342  98.1325808  33.0270384  48.8805342  97.0355808  32.5820384
  50.1825342  97.6305808  32.0070384  49.9115342  98.6695808  30.8980384
  48.9165342  99.7535808  31.3580384  47.6055342  99.1345808  31.8860384
  46.6855342 100.1275808  32.2870384  46.9655342  97.6875808  33.3900384
  48.3325342  98.6635808  33.8750384  49.1105342  96.3775808  33.4220384
  48.4055342  96.4055808  31.8260384  50.7475342  98.1025808  32.8120384
  50.8175342  96.8315808  31.6210384  50.8485342  99.1325808  30.5850384
  49.5145342  98.1635808  30.0170384  49.3895342 100.3365808  32.1500384
  48.7125342 100.4515808  30.5440384  47.1575342  98.5725808  31.0650384
  47.0745342 100.6265808  33.0110384  81.4295342  41.9525808 102.9840384
  80.0905342  42.7165808 102.9390384  80.2795342  44.1845808 102.5060384
  81.3495342  44.9105808 103.3490384  82.6765342  44.1295808 103.3900384
  82.4675342  42.6775808 103.8690384  83.6865342  41.9665808 103.9270384
  81.2735342  40.9305808 103.3330384  81.8125342  41.8755808 101.9640384
  79.3975342  42.2145808 102.2620384  79.6235342  42.6875808 103.9260384
  80.5695342  44.2145808 101.4550384  79.3295342  44.7165808 102.5720384
  81.5185342  45.9125808 102.9530384  80.9775342  45.0465808 104.3660384
  83.0995342  44.1235808 102.3840384  83.4015342  44.6425808 104.0250384
  82.0575342  42.7245808 104.8800384  84.0525342  41.9215808 103.0400384
  70.6305342  43.8995808 105.1680384  71.0425342  45.3695808 104.9480384
  70.5525342  46.2815808 106.0920384  69.0415342  46.1225808 106.3610384
  68.6465342  44.6475808 106.5690384  69.1075342  43.7635808 105.3900384
  68.7275342  42.4155808 105.5700384  70.9515342  43.2835808 104.3260384
  71.1615342  43.5235808 106.0450384  72.1275342  45.4415808 104.8520384
  70.6305342  45.7235808 104.0010384  71.1065342  46.0455808 107.0020384
  70.7825342  47.3225808 105.8610384  68.7545342  46.7115808 107.2330384
  68.4795342  46.5335808 105.5210384  69.1125342  44.2965808 107.4910384
  67.5685342  44.5595808 106.7160384  68.6125342  44.1365808 104.4920384
  69.1605342  42.0815808 106.3600384  68.2215342 134.7155808  81.2670384
  68.7015342 135.0985808  79.8520384  68.5655342 136.6125808  79.5880384
  67.1455342 137.1345808  79.8940384  66.6795342 136.7355808  81.3080384
  66.7815342 135.2115808  81.5320384  66.3345342 134.8425808  82.8190384
  68.2875342 133.6365808  81.4130384  68.9005342 135.1675808  81.9920384
  69.7385342 134.7875808  79.7140384  68.1195342 134.5475808  79.1110384
  69.2875342 137.1505808  80.2050384  68.8285342 136.8335808  78.5530384
  67.1165342 138.2195808  79.7850384  66.4475342 136.7375808  79.1560384
  67.3085342 137.2535808  82.0340384  65.6585342 137.0815808  81.4830384
  66.1315342 134.7305808  80.7990384  66.9035342 135.2625808  83.4700384
  47.4085342  25.5645808  68.5080384  48.9055342  25.6055808  68.1400384
  49.5645342  24.2155808  68.2560384  49.3095342  23.5585808  69.6290384
  47.8095342  23.5355808  69.9840384  47.1835342  24.9435808  69.9050384
  45.8155342  24.9255808  70.2510384  46.9765342  26.5655808  68.4600384
  46.8885342  24.9675808  67.7570384  49.0295342  25.9945808  67.1280384
  49.4215342  26.3065808  68.7990384  49.1755342  23.5675808  67.4690384
  50.6375342  24.2975808  68.0770384  49.7105342  22.5445808  69.6370384
  49.8555342  24.1055808  70.3990384  47.3035342  22.8715808  69.2810384
  47.6605342  23.1035808  70.9750384  47.7055342  25.5715808  70.6290384
  45.3495342  24.3735808  69.6170384  49.8295342 122.1545808  42.4680384
  50.9825342 122.7085808  43.3270384  50.4945342 123.1705808  44.7170384
  49.3015342 124.1455808  44.6240384  48.1625342 123.5785808  43.7530384
  48.6665342 123.1665808  42.3540384  47.6205342 122.6665808  41.5490384
  50.1925342 121.8745808  41.4770384  49.4665342 121.2355808  42.9340384
  51.7615342 121.9525808  43.4380384  51.4485342 123.5495808  42.8100384
  50.2005342 122.2985808  45.3020384  51.3155342 123.6385808  45.2620384
  48.9285342 124.3735808  45.6230384  49.6405342 125.0935808  44.2030384
  47.7465342 122.7065808  44.2620384  47.3505342 124.3025808  43.6710384
  49.0625342 124.0635808  41.8740384  47.2675342 121.8755808  41.9670384
  97.9685342 115.5865808  53.9080384  96.6595342 115.0975808  53.2560384
  96.8085342 113.6845808  52.6540384  98.0205342 113.5785808  51.7040384
  99.3175342 114.0795808  52.3690384  99.1565342 115.5105808  52.9230384
 100.3505342 115.9785808  53.5140384  97.8495342 116.6025808  54.2880384
  98.1745342 114.9545808  54.7750384  95.8515342 115.1065808  53.9900384
  96.3625342 115.7965808  52.4710384  96.9205342 112.9605808  53.4610384
  95.8955342 113.4085808  52.1240384  98.1455342 112.5465808  51.3740384
  97.8265342 114.1625808  50.8030384  99.5665342 113.3985808  53.1850384
 100.1495342 114.0315808  51.6640384  98.9215342 116.1615808  52.0790384
 100.5635342 115.4095808  54.2580384  76.7255342  65.6505808 122.4820384
  76.0835342  64.5375808 121.6300384  74.7075342  64.1105808 122.1820384
  74.7655342  63.7515808 123.6830384  75.4185342  64.8715808 124.5170384
  76.8115342  65.2485808 123.9710384  77.4185342  66.2595808 124.7470384
  77.7145342  65.9045808 122.0950384  76.1155342  66.5515808 122.3830384
  75.9825342  64.8705808 120.5960384  76.7485342  63.6715808 121.6050384
  73.9935342  64.9215808 122.0340384  74.3245342  63.2635808 121.6120384
  73.7615342  63.5465808 124.0550384  75.3305342  62.8275808 123.8120384
  74.7645342  65.7455808 124.4840384  75.4835342  64.5755808 125.5650384
  77.4365342  64.3565808 124.0320384  76.8725342  67.0485808 124.6980384
  61.4605342 116.6805808  64.1090384  59.9855342 116.5305808  63.6880384
  59.6105342 115.0575808  63.4200384  60.5815342 114.3765808  62.4330384
  62.0515342 114.5445808  62.8660384  62.4145342 116.0295808  63.0830384
  63.7665342 116.1865808  63.4580384  61.7105342 117.7335808  64.2510384
  61.5885342 116.1995808  65.0810384  59.3335342 116.9465808  64.4570384
  59.8035342 117.1185808  62.7860384  59.6135342 114.5095808  64.3640384
  58.5895342 114.9975808  63.0390384  60.3395342 113.3165808  62.3440384
  60.4455342 114.8035808  61.4390384  62.1985342 113.9935808  63.7960384
  62.7185342 114.0895808  62.1310384  62.2675342 116.5425808  62.1310384
  63.9015342 115.7365808  64.2970384  45.1875342  34.8995808  96.8600384
  44.4875342  33.7475808  97.6080384  44.4725342  33.9765808  99.1340384
  45.8795342  34.2795808  99.6930384  46.5675342  35.4265808  98.9280384
  46.6095342  35.1525808  97.4090384  47.2585342  36.1935808  96.7100384
  45.2215342  34.6935808  95.7880384  44.5845342  35.8015808  96.9810384
  43.4665342  33.6295808  97.2390384  44.9985342  32.8085808  97.3880384
  43.8075342  34.8085808  99.3660384  44.0525342  33.1035808  99.6360384
  45.8125342  34.5255808 100.7530384  46.4945342  33.3805808  99.6290384
  46.0095342  36.3455808  99.1170384  47.5735342  35.5925808  99.3160384
  47.1835342  34.2365808  97.2600384  46.7565342  37.0025808  96.8370384
 114.7745342  95.5455808  39.8820384 114.8335342  94.0075808  39.8080384
 115.0335342  93.3715808  41.1990384 116.2375342  93.9755808  41.9520384
 116.1665342  95.5145808  42.0080384 116.0125342  96.1285808  40.6000384
 115.9685342  97.5385808  40.6490384 114.6755342  95.9725808  38.8820384
 113.8715342  95.8275808  40.4280384 113.9225342  93.6205808  39.3490384
 115.6535342  93.7065808  39.1520384 114.1295342  93.5155808  41.7930384
 115.1605342  92.2925808  41.1000384 116.2885342  93.5685808  42.9620384
 117.1625342  93.6735808  41.4570384 115.3095342  95.7935808  42.6230384
 117.0485342  95.9175808  42.5090384 116.8915342  95.8385808  40.0210384
 115.1965342  97.8005808  41.1570384  45.7415342  46.0845808  76.4480384
  46.4985342  45.0055808  77.2470384  47.9695342  45.3995808  77.4970384
  48.6985342  45.7955808  76.1950384  47.9225342  46.8665808  75.4050384
  46.4685342  46.4295808  75.1290384  45.7635342  47.4015808  74.3870384
  44.7175342  45.7625808  76.2480384  45.6675342  46.9805808  77.0680384
  45.9955342  44.8235808  78.1980384  46.4655342  44.0595808  76.7020384
  48.0025342  46.2375808  78.1960384  48.4965342  44.5785808  77.9840384
  49.7015342  46.1545808  76.4250384  48.8295342  44.9095808  75.5710384
  47.9205342  47.7875808  75.9910384  48.4375342  47.0985808  74.4710384
  46.5115342  45.5165808  74.5320384  45.7215342  48.2085808  74.9070384
 108.1775342  97.1905808  70.6760384 108.1155342  98.7315808  70.6720384
 108.8045342  99.3375808  71.9120384 108.2825342  98.7255808  73.2300384
 108.3425342  97.1855808  73.2120384 107.6085342  96.6015808  71.9860384
 107.6455342  95.1905808  71.9800384 107.6475342  96.7855808  69.8120384
 109.2215342  96.8905808  70.5660384 108.5755342  99.1205808  69.7630384
 107.0725342  99.0525808  70.6450384 109.8805342  99.1735808  71.8420384
 108.6635342 100.4195808  71.9230384 108.8565342  99.1115808  74.0720384
 107.2525342  99.0455808  73.3940384 109.3925342  96.8865808  73.1850384
 107.9315342  96.7785808  74.1370384 106.5635342  96.9115808  72.0560384
 108.5625342  94.9115808  71.9190384 100.1335342  99.5825808  24.7860384
  99.4245342 100.9475808  24.6830384  98.1345342 100.9915808  25.5280384
  97.1915342  99.8085808  25.2190384  97.9195342  98.4535808  25.3170384
  99.1815342  98.4195808  24.4290384  99.8365342  97.1705808  24.5020384
 101.0185342  99.5635808  24.1480384 100.4895342  99.4585808  25.8110384
 100.1025342 101.7435808  24.9960384  99.1805342 101.1515808  23.6390384
  98.3975342 100.9745808  26.5860384  97.6135342 101.9355808  25.3610384
  96.3395342  99.8245808  25.8990384  96.7805342  99.9265808  24.2150384
  98.2025342  98.2935808  26.3590384  97.2425342  97.6385808  25.0550384
  98.8565342  98.5695808  23.3980384 100.1255342  97.0325808  25.4090384
  28.9345342  68.2235808 116.0540384  29.3795342  69.6645808 115.7370384
  28.2895342  70.4495808 114.9780384  27.7885342  69.6945808 113.7280384
  27.3575342  68.2535808 114.0620384  28.4805342  67.4755808 114.7800384
  28.0935342  66.1485808 115.0680384  29.7375342  67.6775808 116.5530384
  28.1055342  68.2695808 116.7640384  29.6385342  70.1865808 116.6600384
  30.2915342  69.6395808 115.1380384  27.4485342  70.6345808 115.6470384
  28.6705342  71.4315808 114.6920384  26.9585342  70.2365808 113.2740384
  28.5805342  69.6715808 112.9780384  26.4775342  68.3015808 114.7060384
  27.0465342  67.7305808 113.1560384  29.3345342  67.4385808 114.1030384
  27.3405342  66.1745808 115.6650384 104.8605342 122.1905808 112.9010384
 106.3695342 121.8785808 112.8530384 106.7505342 120.7275808 113.8080384
 106.2405342 120.9675808 115.2450384 104.7325342 121.2875808 115.2730384
 104.3845342 122.4695808 114.3440384 103.0065342 122.7765808 114.3860384
 104.6245342 123.0335808 112.2500384 104.3205342 121.3295808 112.5000384
 106.6665342 121.6285808 111.8330384 106.9345342 122.7735808 113.1210384
 106.3335342 119.7935808 113.4300384 107.8335342 120.5945808 113.8160384
 106.4475342 120.0945808 115.8640384 106.7935342 121.7935808 115.6930384
 104.1895342 120.3975808 114.9500384 104.4065342 121.4915808 116.2950384
 104.9345342 123.3395808 114.7060384 102.5165342 122.0125808 114.0680384
  89.8645342 108.5685808  52.3390384  89.3835342 107.1045808  52.3980384
  90.1685342 106.2005808  51.4250384  90.1845342 106.7625808  49.9880384
  90.6595342 108.2285808  49.9490384  89.8295342 109.1205808  50.8960384
  90.2495342 110.4675808  50.8460384  89.2655342 109.1935808  53.0040384
  90.8885342 108.6065808  52.7180384  89.4735342 106.7235808  53.4160384
  88.3205342 107.0625808  52.1520384  91.1945342 106.0955808  51.7810384
  89.7435342 105.1955808  51.4270384  90.8245342 106.1475808  49.3550384
  89.1825342 106.6955808  49.5620384  91.7085342 108.2555808  50.2500384
  90.6235342 108.6135808  48.9280384  88.7925342 109.0785808  50.5570384
  91.1625342 110.5115808  51.1440384  82.5625342 113.4325808 124.1520384
  82.4535342 111.9125808 123.9210384  81.3915342 111.2655808 124.8350384
  81.5995342 111.6265808 126.3210384  81.7145342 113.1495808 126.5310384
  82.8135342 113.7655808 125.6400384  82.9345342 115.1565808 125.8480384
  83.3485342 113.8585808 123.5260384  81.6265342 113.8955808 123.8300384
  82.2185342 111.7105808 122.8750384  83.4235342 111.4475808 124.1090384
  80.3995342 111.5945808 124.5210384  81.4045342 110.1815808 124.7100384
  80.7785342 111.2295808 126.9190384  82.5045342 111.1405808 126.6880384
  80.7515342 113.6015808 126.2870384  81.9015342 113.3745808 127.5830384
  83.7595342 113.2995808 125.9220384  82.1045342 115.5725808 125.6010384
 128.2505342  57.0555808  49.5700384 127.7555342  57.6715808  50.8940384
 128.7675342  58.6825808  51.4730384 130.1875342  58.0875808  51.5890384
 130.6615342  57.4695808  50.2590384 129.6545342  56.4295808  49.7240384
 130.0985342  55.8465808  48.5170384 127.5385342  56.3145808  49.2040384
 128.2865342  57.8475808  48.8180384 126.7905342  58.1565808  50.7420384
 127.5835342  56.8755808  51.6220384 128.7995342  59.5655808  50.8340384
 128.4285342  59.0285808  52.4510384 130.8885342  58.8585808  51.9130384
 130.1975342  57.3235808  52.3680384 130.7765342  58.2745808  49.5310384
 131.6495342  57.0215808  50.3800384 129.5775342  55.6375808  50.4720384
 130.1685342  56.5395808  47.8550384 119.5305342 102.8505808  35.8430384
 118.7515342 101.5235808  35.9350384 119.2765342 100.4765808  34.9300384
 119.3395342 101.0295808  33.4900384 120.1135342 102.3595808  33.4190384
 119.5415342 103.4045808  34.4010384 120.2365342 104.6305808  34.3200384
 119.1135342 103.5855808  36.5330384 120.5565342 102.6675808  36.1700384
 118.8095342 101.1265808  36.9500384 117.6935342 101.7095808  35.7440384
 120.2725342 100.1535808  35.2350384 118.6475342  99.5855808  34.9590384
 119.8005342 100.2945808  32.8290384 118.3255342 101.1785808  33.1150384
 121.1575342 102.1605808  33.6660384 120.1085342 102.7485808  32.3980384
 118.5035342 103.5855808  34.1140384 121.1515342 104.4775808  34.5720384
  48.1755342  52.8965808  60.8520384  47.6395342  54.2805808  61.2660384
  46.4765342  54.1705808  62.2740384  45.3605342  53.2255808  61.7800384
  45.9165342  51.8495808  61.3610384  47.0465342  51.9855808  60.3190384
  47.5415342  50.7245808  59.9200384  48.9665342  53.0005808  60.1080384
  48.6345342  52.4315808  61.7270384  48.4455342  54.8805808  61.6910384
  47.2985342  54.8175808  60.3780384  46.8615342  53.8035808  63.2270384
  46.0635342  55.1595808  62.4750384  44.6065342  53.1015808  62.5570384
  44.8495342  53.6825808  60.9310384  46.3005342  51.3525808  62.2540384
  45.1145342  51.2165808  60.9790384  46.6215342  52.4735808  59.4410384
  47.9175342  50.2895808  60.6900384  30.2915342  94.9275808 101.7340384
  30.8345342  95.4355808 103.0850384  31.3905342  94.2855808 103.9510384
  30.3755342  93.1335808 104.1150384  29.8365342  92.6455808 102.7560384
  29.2455342  93.8065808 101.9280384  28.7315342  93.3565808 100.6920384
  29.8665342  95.7525808 101.1600384  31.1305342  94.5445808 101.1500384
  31.6115342  96.1835808 102.9160384  30.0365342  95.9445808 103.6280384
  32.3015342  93.8985808 103.4930384  31.6825342  94.6665808 104.9300384
  30.8375342  92.3045808 104.6520384  29.5435342  93.4705808 104.7350384
  30.6615342  92.1885808 102.2060384  29.0925342  91.8605808 102.9020384
  28.4195342  94.2275808 102.5030384  29.4555342  92.9845808 100.1810384
  89.6385342 134.3725808  68.1210384  90.5265342 135.6275808  68.2390384
  89.9115342 136.8395808  67.5080384  89.5365342 136.5125808  66.0470384
  88.6565342 135.2515808  65.9480384  89.3145342 134.0425808  66.6470384
  88.5185342 132.8815808  66.5380384  90.1145342 133.5205808  68.6090384
  88.7095342 134.5595808  68.6650384  90.6915342 135.8705808  69.2900384
  91.5125342 135.4145808  67.8200384  89.0195342 137.1665808  68.0440384
  90.6055342 137.6805808  67.5350384  89.0225342 137.3615808  65.5960384
  90.4475342 136.3655808  65.4640384  87.6965342 135.4675808  66.4200384
  88.4405342 135.0195808  64.9030384  90.2615342 133.8495808  66.1410384
  87.6825342 133.0445808  66.9830384  20.0115342  55.7045808  69.6230384
  19.4275342  56.4215808  68.3900384  19.0965342  55.4335808  67.2520384
  20.2945342  54.5265808  66.8980384  20.8715342  53.8255808  68.1430384
  21.2355342  54.8385808  69.2490384  21.7835342  54.1985808  70.3820384
  20.2755342  56.4285808  70.3960384  19.2325342  55.0685808  70.0490384
  18.5315342  56.9785808  68.6720384  20.1425342  57.1635808  68.0290384
  18.2515342  54.8125808  67.5500384  18.7715342  55.9825808  66.3660384
  19.9935342  53.7845808  66.1580384  21.0745342  55.1255808  66.4260384
  20.1205342  53.1285808  68.5200384  21.7405342  53.2225808  67.8720384
  21.9945342  55.5065808  68.8400384  21.1195342  53.6075808  70.7480384
  54.7215342 116.1925808  83.3740384  54.4995342 116.7235808  84.8040384
  53.1145342 117.3855808  84.9640384  52.8505342 118.4575808  83.8850384
  53.0865342 117.9115808  82.4630384  54.4945342 117.2965808  82.3160384
  54.7185342 116.8155808  81.0080384  55.7225342 115.7685808  83.2760384
  54.0205342 115.3735808  83.2010384  54.6095342 115.9115808  85.5240384
  55.2775342 117.4505808  85.0460384  52.3415342 116.6185808  84.9050384
  53.0275342 117.8275808  85.9570384  51.8305342 118.8325808  83.9760384
  53.5045342 119.3135808  84.0580384  52.3325342 117.1495808  82.2610384
  52.9325342 118.6995808  81.7230384  55.2175342 118.0895808  82.5120384
  54.0845342 116.1155808  80.8290384 135.0515342  63.8285808  82.2570384
 135.2155342  65.3555808  82.3930384 134.5935342  66.1095808  81.1990384
 135.0995342  65.5775808  79.8420384 134.9365342  64.0485808  79.7280384
 135.6055342  63.3145808  80.9090384 135.4745342  61.9135808  80.7940384
 135.5355342  63.3165808  83.0910384 133.9875342  63.5915808  82.3260384
 134.7645342  65.6975808  83.3260384 136.2775342  65.6005808  82.4630384
 133.5075342  66.0145808  81.2410384 134.8065342  67.1765808  81.2830384
 134.5695342  66.0705808  79.0270384 136.1515342  65.8385808  79.7200384
 133.8685342  63.8205808  79.7140384 135.3385342  63.6935808  78.7770384
 136.6695342  63.5565808  80.8810384 134.5395342  61.6945808  80.8180384
 113.9675342 101.9535808  93.3470384 112.6405342 102.7375808  93.2990384
 111.5835342 102.0265808  92.4290384 112.1185342 101.6795808  91.0240384
 113.4495342 100.9045808  91.0910384 114.5045342 101.6565808  91.9290384
 115.7305342 100.9575808  91.9730384 114.7105342 102.4965808  93.9330384
 113.7895342 101.0125808  93.8720384 112.2565342 102.8815808  94.3100384
 112.8245342 103.7365808  92.9000384 111.2645342 101.1105808  92.9290384
 110.6925342 102.6505808  92.3440384 111.3765342 101.0985808  90.4760384
 112.2635342 102.5985808  90.4550384 113.2535342  99.9295808  91.5420384
 113.8255342 100.7065808  90.0860384 114.6815342 102.6165808  91.4410384
 115.5805342 100.1105808  92.4030384 111.7735342  56.8975808  82.0020384
 112.9275342  55.8965808  82.2090384 114.2415342  56.6055808  82.5980384
 114.6085342  57.7385808  81.6160384 113.4405342  58.7235808  81.4140384
 112.1505342  57.9965808  80.9820384 111.0855342  58.9005808  80.7760384
 110.8685342  56.3765808  81.6870384 111.5445342  57.3595808  82.9650384
 112.6565342  55.1685808  82.9750384 113.0825342  55.3265808  81.2910384
 114.1435342  57.0185808  83.6030384 115.0545342  55.8795808  82.6490384
 115.4885342  58.2725808  81.9760384 114.8885342  57.3075808  80.6540384
 113.2665342  59.2445808  82.3580384 113.7115342  59.4905808  80.6860384
 112.3595342  57.5005808  80.0320384 110.8965342  59.3405808  81.6090384
  68.9915342 113.9405808 126.9680384  67.6265342 114.0155808 126.2570384
  66.6285342 112.9795808 126.8150384  67.2135342 111.5515808 126.8280384
  68.5825342 111.4975808 127.5350384  69.5765342 112.5105808 126.9290384
  70.8365342 112.4475808 127.5620384  69.6915342 114.6535808 126.5270384
  68.8535342 114.2485808 128.0080384  67.2115342 115.0205808 126.3510384
  67.7655342 113.8445808 125.1870384  66.3485342 113.2625808 127.8310384
  65.7075342 112.9995808 126.2310384  66.5165342 110.8685808 127.3140384
  67.3215342 111.1955808 125.8030384  68.4295342 111.7245808 128.5920384
  68.9915342 110.4865808 127.4950384  69.7125342 112.2445808 125.8790384
  70.7225342 112.6815808 128.4870384 119.5355342  70.9485808 102.6910384
 119.0115342  69.6565808 102.0330384 117.7225342  69.1465808 102.7120384
 117.8805342  69.0125808 104.2420384 118.4135342  70.3105808 104.8800384
 119.7265342  70.7745808 104.2140384 120.2265342  71.9515808 104.8130384
 120.4685342  71.2645808 102.2210384 118.8115342  71.7455808 102.5040384
 118.8305342  69.8255808 100.9710384 119.7805342  68.8835808 102.0900384
 116.9055342  69.8355808 102.4940384 117.4315342  68.1875808 102.2830384
 116.9255342  68.7415808 104.6920384 118.5645342  68.1925808 104.4640384
 117.6525342  71.0845808 104.7650384 118.5545342  70.1755808 105.9540384
 120.4635342  69.9825808 104.3610384 119.5815342  72.6535808 104.6860384
 118.9875342 100.3735808  39.6720384 119.1665342  99.3855808  40.8410384
 118.8115342 100.0285808  42.1980384 119.5565342 101.3615808  42.4270384
 119.3735342 102.3325808  41.2440384 119.7775342 101.6805808  39.9050384
 119.6305342 102.5765808  38.8240384 119.2845342  99.9085808  38.7300384
 117.9235342 100.6045808  39.5790384 118.5525342  98.4985808  40.6770384
 120.2015342  99.0375808  40.8660384 117.7355342 100.2065808  42.2400384
 119.0345342  99.3335808  43.0090384 119.2085342 101.8275808  43.3490384
 120.6185342 101.1615808  42.5710384 118.3225342 102.6265808  41.2040384
 119.9415342 103.2485808  41.4130384 120.8335342 101.4135808  39.9800384
 118.7025342 102.8155808  38.7530384  30.2245342  45.3865808 104.8430384
  30.9645342  44.9755808 103.5550384  31.4245342  43.5035808 103.6000384
  32.2325342  43.1825808 104.8760384  31.4815342  43.6085808 106.1530384
  31.0715342  45.0955808 106.1030384  30.4025342  45.4925808 107.2810384
  29.9465342  46.4415808 104.8030384  29.2895342  44.8235808 104.8950384
  30.3215342  45.1375808 102.6880384  31.8325342  45.6215808 103.4130384
  30.5515342  42.8515808 103.5540384  32.0205342  43.2735808 102.7160384
  32.4575342  42.1165808 104.9150384  33.1945342  43.6935808 104.8340384
  30.5895342  42.9875808 106.2480384  32.0905342  43.4075808 107.0370384
  31.9875342  45.6825808 106.0210384  29.5945342  44.9785808 107.3580384
  70.9215342  22.2705808  56.6490384  69.7105342  21.5925808  55.9780384
  69.6325342  20.0885808  56.3150384  70.9595342  19.3545808  56.0270384
  72.1595342  20.0515808  56.6980384  72.2415342  21.5425808  56.3090384
  73.3525342  22.1765808  56.9070384  70.9785342  23.3215808  56.3610384
  70.7665342  22.2545808  57.7300384  68.7895342  22.0905808  56.2810384
  69.7805342  21.7165808  54.8950384  69.3785342  19.9705808  57.3700384
  68.8205342  19.6235808  55.7540384  70.8935342  18.3195808  56.3650384
  71.1225342  19.3115808  54.9490384  72.0435342  19.9625808  57.7800384
  73.0875342  19.5365808  56.4460384  72.3695342  21.5895808  55.2260384
  73.2465342  22.1385808  57.8610384  57.3935342  43.3925808  66.6110384
  56.1885342  43.6825808  65.6950384  54.8455342  43.4765808  66.4270384
  54.7565342  42.0935808  67.1070384  55.9735342  41.8175808  68.0110384
  57.3025342  41.9855808  67.2440384  58.4165342  41.7125808  68.0660384
  58.3285342  43.5045808  66.0580384  57.4115342  44.1465808  67.4020384
  56.2495342  44.7005808  65.3090384  56.2295342  43.0255808  64.8230384
  54.7255342  44.2555808  67.1810384  54.0185342  43.6015808  65.7270384
  53.8365342  42.0235808  67.6880384  54.6905342  41.3175808  66.3420384
  55.9435342  42.5185808  68.8460384  55.9055342  40.8185808  68.4460384
  57.2995342  41.2615808  66.4270384  58.4245342  42.3475808  68.7870384
  87.5575342  22.5955808  50.0960384  87.3115342  22.8435808  48.5940384
  86.7805342  24.2675808  48.3260384  85.5495342  24.6065808  49.1930384
  85.8105342  24.3435808  50.6890384  86.2965342  22.8995808  50.9360384
  86.5155342  22.6515808  52.3090384  87.8905342  21.5695808  50.2630384
  88.3755342  23.2425808  50.4200384  88.2325342  22.6775808  48.0330384
  86.5925342  22.1135808  48.2190384  87.5725342  24.9905808  48.5280384
  86.5335342  24.3785808  47.2690384  85.2635342  25.6475808  49.0420384
  84.6985342  24.0085808  48.8630384  86.5705342  25.0475808  51.0310384
  84.9125342  24.5525808  51.2740384  85.5075342  22.2275808  50.5940384
  87.2095342  23.2395808  52.6160384 107.0675342  68.6065808  83.9240384
 106.6545342  67.1255808  84.0370384 106.8405342  66.5835808  85.4700384
 108.2595342  66.8465808  86.0160384 108.6595342  68.3295808  85.8860384
 108.5075342  68.8355808  84.4360384 108.8935342  70.1875808  84.3120384
 106.9675342  68.9525808  82.8940384 106.3715342  69.2015808  84.5200384
 105.6165342  67.0035808  83.7250384 107.2515342  66.5285808  83.3450384
 106.1095342  67.0535808  86.1290384 106.6255342  65.5145808  85.4940384
 108.3215342  66.5345808  87.0590384 108.9765342  66.2295808  85.4720384
 108.0155342  68.9155808  86.5450384 109.6805342  68.4815808  86.2410384
 109.1735342  68.2365808  83.8120384 108.3105342  70.7205808  84.8600384
 119.7015342  98.6585808  64.6070384 120.5955342  97.4375808  64.3130384
 121.3245342  96.9395808  65.5780384 122.0855342  98.0725808  66.3000384
 121.1795342  99.2875808  66.5760384 120.4975342  99.7945808  65.2880384
 119.6835342 100.9215808  65.5370384 119.2315342  99.0165808  63.6890384
 118.8905342  98.3385808  65.2640384 119.9965342  96.6315808  63.8860384
 121.3325342  97.7025808  63.5520384 120.5965342  96.5035808  66.2640384
 122.0145342  96.1355808  65.3180384 122.5075342  97.7015808  67.2340384
 122.9335342  98.3845808  65.6880384 120.4175342  98.9875808  67.2980384
 121.7505342 100.0885808  67.0500384 121.2885342 100.0965808  64.5990384
 118.9845342 100.6615808  66.1440384  90.0475342  43.8945808  98.3480384
  90.6945342  44.1955808  99.7140384  91.3815342  45.5775808  99.7340384
  92.3655342  45.7585808  98.5580384  91.7045342  45.4435808  97.2020384
  91.0645342  44.0395808  97.1930384  90.4775342  43.7425808  95.9440384
  89.6065342  42.8955808  98.3470384  89.2245342  44.5955808  98.1970384
  89.9425342  44.1425808 100.5030384  91.4305342  43.4225808  99.9460384
  90.6205342  46.3575808  99.6880384  91.9035342  45.7185808 100.6810384
  92.7575342  46.7755808  98.5550384  93.2255342  45.1025808  98.7030384
  90.9355342  46.1955808  97.0150384  92.4315342  45.5395808  96.3940384
  91.8635342  43.3175808  97.3700384  89.7725342  44.3755808  95.7820384
  99.1505342  83.0925808 137.7330384  97.6245342  82.9005808 137.8400384
  97.0705342  82.0345808 136.6890384  97.5085342  82.5535808 135.3030384
  99.0355342  82.7485808 135.2180384  99.5575342  83.6545808 136.3530384
 100.9525342  83.8505808 136.2630384  99.5095342  83.7425808 138.5330384
  99.6285342  82.1215808 137.8860384  97.3715342  82.4485808 138.8010384
  97.1345342  83.8765808 137.8260384  97.4185342  81.0075808 136.8140384
  95.9825342  81.9945808 136.7450384  97.1765342  81.8645808 134.5260384
  97.0105342  83.5025808 135.0990384  99.5085342  81.7665808 135.2880384
  99.3125342  83.1535808 134.2430384  99.0735342  84.6265808 136.2410384
 101.3855342  82.9975808 136.3610384 107.9625342  98.3045808 106.3680384
 108.1325342  99.1365808 107.6550384 107.8055342 100.6275808 107.4240384
 108.5825342 101.2185808 106.2290384 108.4085342 100.3685808 104.9540384
 108.7835342  98.8925808 105.1990384 108.6455342  98.1175808 104.0270384
 108.2395342  97.2645808 106.5480384 106.9025342  98.3005808 106.1020384
 107.4965342  98.7345808 108.4460384 109.1585342  99.0435808 108.0150384
 106.7345342 100.7365808 107.2470384 108.0225342 101.1995808 108.3280384
 108.2555342 102.2415808 106.0420384 109.6415342 101.2805808 106.4810384
 107.3645342 100.4325808 104.6420384 108.9985342 100.7855808 104.1360384
 109.8345342  98.8685808 105.4960384 107.7215342  98.1335808 103.7600384
  46.8755342  65.2115808 101.6070384  45.5225342  65.6825808 102.1770384
  45.6955342  66.4725808 103.4910384  46.5425342  65.7055808 104.5290384
  47.8855342  65.2345808 103.9390384  47.6835342  64.4085808 102.6510384
  48.9125342  63.9585808 102.1220384  46.7225342  64.6195808 100.7030384
  47.4455342  66.0935808 101.3060384  45.0005342  66.2945808 101.4400384
  44.8835342  64.8155808 102.3580384  46.1735342  67.4295808 103.2750384
  44.7175342  66.7115808 103.9120384  46.7185342  66.3325808 105.4030384
  45.9805342  64.8405808 104.8860384  48.4875342  66.1165808 103.7150384
  48.4455342  64.6605808 104.6790384  47.0905342  63.5315808 102.9170384
  49.4395342  64.7265808 101.8850384  79.9375342 104.0065808 123.8350384
  81.4295342 104.0545808 123.4510384  82.2865342 103.1455808 124.3580384
  82.0495342 103.4255808 125.8580384  80.5525342 103.3835808 126.2200384
  79.7235342 104.3335808 125.3300384  78.3555342 104.3115808 125.6760384
  79.3605342 104.6885808 123.2070384  79.5625342 103.0025808 123.6250384
  81.5555342 103.7635808 122.4070384  81.7905342 105.0815808 123.5250384
  82.0505342 102.1015808 124.1460384  83.3435342 103.2715808 124.1180384
  82.5995342 102.7035808 126.4620384  82.4565342 104.4055808 126.1110384
  80.1985342 102.3595808 126.0880384  80.4095342 103.6235808 127.2750384
  80.0975342 105.3445808 125.4990384  78.0195342 103.4225808 125.5290384
  79.3275342 113.7675808  59.5030384  79.6325342 112.8165808  60.6780384
  80.5315342 111.6395808  60.2480384  79.9745342 110.8975808  59.0140384
  79.6675342 111.8635808  57.8530384  78.7305342 113.0065808  58.2970384
  78.4305342 113.8805808  57.2290384  78.6565342 114.5665808  59.8230384
  80.2605342 114.2495808  59.2020384  80.1055342 113.3695808  61.4910384
  78.6955342 112.4275808  61.0820384  81.5305342 112.0145808  60.0200384
  80.6525342 110.9415808  61.0780384  80.6825342 110.1355808  58.6870384
  79.0645342 110.3655808  59.2930384  80.6105342 112.2825808  57.5000384
  79.2375342 111.3205808  57.0100384  77.7965342 112.5505808  58.6310384
  79.2495342 114.2855808  56.9310384  89.5775342  34.9785808  70.6740384
  90.8715342  34.1415808  70.6640384  90.8575342  33.0465808  71.7510384
  90.5285342  33.6135808  73.1480384  89.2375342  34.4545808  73.1370384
  89.2945342  35.5705808  72.0730384  88.1205342  36.3555808  72.0770384
  89.6305342  35.7715808  69.9260384  88.7485342  34.3305808  70.3790384
  91.0155342  33.6885808  69.6810384  91.7295342  34.7975808  70.8230384
  90.1185342  32.2885808  71.4870384  91.8205342  32.5345808  71.7750384
  90.4365342  32.7995808  73.8680384  91.3595342  34.2295808  73.4930384
  88.3985342  33.7895808  72.9230384  89.0495342  34.8765808  74.1270384
  90.1345342  36.2195808  72.3280384  87.3775342  35.7895808  71.8530384
  94.3975342 110.1665808  57.3700384  93.8015342 108.7885808  57.7230384
  92.2745342 108.8595808  57.9350384  91.8745342 109.9555808  58.9450384
  92.4865342 111.3225808  58.5820384  94.0185342 111.2355808  58.4190384
  94.5825342 112.4915808  58.1080384  95.4815342 110.0975808  57.2670384
  94.0125342 110.4645808  56.3920384  94.0355342 108.0695808  56.9370384
  94.2755342 108.4105808  58.6310384  91.7875342 109.0565808  56.9790384
  91.9005342 107.8905808  58.2700384  90.7875342 110.0355808  58.9960384
  92.2035342 109.6655808  59.9430384  92.0385342 111.6585808  57.6440384
  92.2215342 112.0695808  59.3320384  94.4285342 110.9105808  59.3770384
  94.2245342 112.7835808  57.2640384  64.8665342  46.4865808  92.6950384
  64.5285342  46.0485808  91.2560384  63.0115342  46.1085808  90.9780384
  62.1915342  45.3445808  92.0390384  62.5505342  45.7885808  93.4710384
  64.0655342  45.6765808  93.7390384  64.3915342  46.0635808  95.0570384
  65.9385342  46.3955808  92.8790384  64.6255342  47.5475808  92.7950384
  65.0625342  46.6745808  90.5400384  64.8855342  45.0295808  91.0930384
  62.6905342  47.1505808  90.9580384  62.7995342  45.7075808  89.9850384
  61.1255342  45.4885808  91.8610384  62.3745342  44.2735808  91.9360384
  62.2335342  46.8255808  93.5960384  61.9865342  45.2055808  94.2020384
  64.3405342  44.6275808  93.6180384  64.1525342  46.9875808  95.1700384
  97.4215342 105.2115808  45.1110384  96.9045342 106.5825808  45.5910384
  95.9755342 106.4505808  46.8160384  94.8365342 105.4365808  46.5810384
  95.3705342 104.0755808  46.0930384  96.2595342 104.2285808  44.8410384
  96.7315342 102.9805808  44.3810384  98.0405342 105.3275808  44.2200384
  98.0715342 104.8005808  45.8870384  97.7455342 107.2345808  45.8290384
  96.3635342 107.0705808  44.7780384  96.5635342 106.1365808  47.6800384
  95.5585342 107.4255808  47.0730384  94.2615342 105.3035808  47.4980384
  94.1415342 105.8375808  45.8430384  95.9535342 103.6285808  46.9010384
  94.5435342 103.3905808  45.8960384  95.6405342 104.6655808  44.0550384
  97.2785342 102.5905808  45.0690384  42.2395342  91.5665808  88.5820384
  41.0095342  92.2065808  87.9090384  41.3085342  92.6425808  86.4590384
  42.5675342  93.5305808  86.3620384  43.7835342  92.8795808  87.0490384
  43.4735342  92.4945808  88.5110384  44.5945342  91.9175808  89.1460384
  42.0155342  91.3065808  89.6180384  42.4605342  90.6285808  88.0690384
  40.1715342  91.5085808  87.9220384  40.6895342  93.0745808  88.4880384
  41.4465342  91.7555808  85.8390384  40.4485342  93.1705808  86.0450384
  42.7965342  93.7385808  85.3170384  42.3645342  94.4975808  86.8260384
  44.0545342  91.9845808  86.4850384  44.6475342  93.5445808  87.0010384
  43.2215342  93.4135808  89.0420384  44.8215342  91.1065808  88.6830384
  74.1715342  45.5915808  89.4380384  74.0065342  47.0015808  88.8380384
  72.6525342  47.6355808  89.2200384  71.4605342  46.7095808  88.8960384
  71.6475342  45.3025808  89.4950384  72.9875342  44.6715808  89.0620384
  73.1495342  43.3735808  89.5940384  75.1165342  45.1495808  89.1190384
  74.2265342  45.6865808  90.5250384  74.8245342  47.6445808  89.1670384
  74.0845342  46.9445808  87.7510384  72.6505342  47.8625808  90.2870384
  72.5315342  48.5905808  88.7080384  70.5345342  47.1515808  89.2640384
  71.3485342  46.6305808  87.8140384  71.6195342  45.3885808  90.5830384
  70.8115342  44.6565808  89.2180384  72.9715342  44.5905808  87.9740384
  73.1645342  43.4385808  90.5520384  75.8995342 109.0465808 119.3890384
  75.1115342 107.7465808 119.6450384  74.6005342 107.6595808 121.0980384
  75.7275342 107.8835808 122.1290384  76.5105342 109.1815808 121.8520384
  77.0495342 109.2245808 120.4060384  77.7845342 110.4035808 120.1580384
  76.2855342 109.0635808 118.3680384  75.2075342 109.8875808 119.4720384
  74.2725342 107.6765808 118.9500384  75.7515342 106.8875808 119.4340384
  73.8215342 108.4075808 121.2500384  74.1275342 106.6915808 121.2680384
  75.3115342 107.9065808 123.1360384  76.4135342 107.0345808 122.1050384
  75.8385342 110.0265808 122.0160384  77.3255342 109.2945808 122.5690384
  77.7245342 108.3755808 120.2860384  77.1945342 111.1555808 120.2630384
  94.7865342  22.2615808 103.7750384  95.5085342  23.1855808 104.7760384
  94.6065342  23.5565808 105.9710384  93.2415342  24.1205808 105.5220384
  92.5385342  23.1885808 104.5150384  93.4445342  22.8685808 103.3070384
  92.7935342  22.0325808 102.3750384  95.4295342  22.0485808 102.9200384
  94.5995342  21.3035808 104.2670384  96.4215342  22.7065808 105.1320384
  95.8245342  24.0965808 104.2640384  94.4445342  22.6705808 106.5870384
  95.1155342  24.2795808 106.6100384  92.6015342  24.2815808 106.3900384
  93.3875342  25.1005808 105.0670384  92.2795342  22.2625808 105.0320384
  91.5965342  23.6285808 104.1840384  93.6705342  23.8145808 102.8110384
  92.5915342  21.1975808 102.8060384 109.7605342  96.1435808  42.0900384
 111.2475342  95.8105808  41.8530384 112.1785342  96.6865808  42.7170384
 111.8755342  98.1915808  42.5620384 110.3845342  98.5045808  42.7930384
 109.4755342  97.6485808  41.8860384 108.1105342  97.9495808  42.0820384
 109.1265342  95.5405808  41.4380384 109.5065342  95.8615808  43.1150384
 111.4305342  94.7545808  42.0610384 111.4885342  95.9575808  40.7990384
 112.0675342  96.4035808  43.7650384 113.2195342  96.4875808  42.4590384
 112.4885342  98.7685808  43.2550384 112.1625342  98.5175808  41.5610384
 110.1515342  98.2995808  43.8400384 110.1905342  99.5675808  42.6380384
 109.7285342  97.8895808  40.8520384 107.8815342  97.7385808  42.9910384
  42.3105342  39.0835808  92.0280384  43.6425342  38.3175808  92.1590384
  44.7555342  38.9465808  91.2950384  44.3205342  39.1345808  89.8260384
  42.9835342  39.8935808  89.7160384  41.8755342  39.2195808  90.5520384
  40.6455342  39.9015808  90.4340384  41.5305342  38.5945808  92.6150384
  42.4445342  40.0775808  92.4610384  43.9545342  38.2875808  93.2040384
  43.4945342  37.2785808  91.8570384  45.0315342  39.9145808  91.7150384
  45.6545342  38.3295808  91.3410384  45.0965342  39.6645808  89.2730384
  44.2235342  38.1575808  89.3500384  43.1405342  40.9135808  90.0720384
  42.6795342  39.9775808  88.6710384  41.7405342  38.2105808  90.1580384
  40.7585342  40.7915808  90.7790384 101.0935342  79.8955808  36.2720384
 102.6345342  79.9205808  36.2880384 103.2055342  80.8755808  35.2190384
 102.6315342  80.5925808  33.8150384 101.0905342  80.5615808  33.8200384
 100.5445342  79.5665808  34.8660384  99.1335342  79.5225808  34.8570384
 100.7165342  79.1825808  37.0080384 100.7325342  80.8785808  36.5830384
 102.9925342  80.2125808  37.2770384 103.0155342  78.9125808  36.1130384
 102.9795342  81.9055808  35.4990384 104.2945342  80.8005808  35.1980384
 102.9865342  81.3435808  33.1090384 103.0115342  79.6355808  33.4550384
 100.7305342  81.5655808  34.0500384 100.7115342  80.3195808  32.8250384
 100.9145342  78.5755808  34.5960384  98.8015342  80.3925808  35.0940384
  89.8095342  33.2535808  79.1800384  88.5035342  33.0285808  79.9680384
  87.6645342  31.8765808  79.3770384  87.4225342  32.0465808  77.8620384
  88.7365342  32.2795808  77.0920384  89.5355342  33.4645808  77.6740384
  90.7295342  33.6915808  76.9550384  90.3635342  34.0985808  79.5910384
  90.4445342  32.3745808  79.3140384  88.7315342  32.8245808  81.0150384
  87.9135342  33.9475808  79.9600384  88.1785342  30.9305808  79.5540384
  86.7105342  31.8055808  79.9010384  86.9085342  31.1705808  77.4670384
  86.7515342  32.8915808  77.6960384  89.3355342  31.3685808  77.1580384
  88.5335342  32.4365808  76.0310384  88.9105342  34.3545808  77.5790384
  91.2845342  32.9105808  77.0360384  57.8185342  24.9605808  59.9930384
  56.8155342  26.1305808  59.9280384  57.0985342  27.0645808  58.7320384
  58.5665342  27.5385808  58.6940384  59.5535342  26.3565808  58.7700384
  59.2795342  25.4635808  59.9980384  60.1965342  24.3935808  60.0800384
  57.6235342  24.3395808  60.8700384  57.6565342  24.3225808  59.1210384
  55.7965342  25.7445808  59.8670384  56.8675342  26.7035808  60.8550384
  56.8655342  26.5395808  57.8040384  56.4295342  27.9255808  58.7680384
  58.7475342  28.1175808  57.7880384  58.7495342  28.2165808  59.5280384
  59.4485342  25.7655808  57.8580384  60.5825342  26.7215808  58.7820384
  59.4065342  26.0845808  60.8860384  60.0895342  23.8425808  59.3000384
  59.0035342  63.9555808  19.4270384  59.1995342  64.9885808  18.2990384
  58.0885342  64.8945808  17.2330384  57.9115342  63.4575808  16.6970384
  57.7265342  62.4375808  17.8380384  58.8735342  62.5205808  18.8680384
  58.7145342  61.5725808  19.9020384  59.8235342  64.0135808  20.1450384
  58.0955342  64.2155808  19.9750384  59.2305342  65.9955808  18.7180384
  60.1705342  64.8275808  17.8260384  57.1465342  65.2355808  17.6640384
  58.3075342  65.5735808  16.4080384  57.0595342  63.4155808  16.0180384
  58.7845342  63.1815808  16.1040384  56.7765342  62.6495808  18.3330384
  57.6435342  61.4265808  17.4350384  59.8005342  62.2915808  18.3400384
  57.8995342  61.7695808  20.3710384  28.6985342  67.3985808  38.9720384
  28.1475342  65.9865808  39.2600384  26.6355342  65.8895808  38.9720384
  25.8305342  66.9965808  39.6860384  26.4005342  68.3985808  39.3940384
  27.9045342  68.4845808  39.7320384  28.4215342  69.7745808  39.4850384
  29.7595342  67.4525808  39.2230384  28.6265342  67.5805808  37.8980384
  28.6885342  65.2475808  38.6670384  28.3345342  65.7315808  40.3050384
  26.4695342  65.9605808  37.8960384  26.2635342  64.9085808  39.2710384
  24.7845342  66.9495808  39.3840384  25.8435342  66.8175808  40.7620384
  26.2535342  68.6135808  38.3340384  25.8395342  69.1585808  39.9410384
  28.0095342  68.2775808  40.7990384  28.3325342  69.9615808  38.5470384
 116.1785342 128.3555808  76.2050384 115.3655342 127.0485808  76.1250384
 116.2695342 125.8015808  76.2220384 117.4315342 125.8405808  75.2070384
 118.2265342 127.1575808  75.2950384 117.3075342 128.3885808  75.1500384
 118.0385342 129.5945808  75.2090384 115.5235342 129.2205808  76.0910384
 116.6135342 128.4265808  77.2040384 114.6155342 127.0275808  76.9170384
 114.8125342 127.0225808  75.1830384 116.6765342 125.7305808  77.2310384
 115.6745342 124.8995808  76.0710384 118.0965342 124.9915808  75.3700384
 117.0345342 125.7235808  74.1970384 118.7285342 127.1885808  76.2640384
 119.0155342 127.1755808  74.5410384 116.8365342 128.3285808  74.1670384
 118.4565342 129.6535808  76.0730384  94.3295342  39.7355808  50.4890384
  95.7925342  40.1995808  50.6360384  96.6125342  39.2425808  51.5270384
  95.9325342  38.9825808  52.8880384  94.4685342  38.5295808  52.7210384
  93.6585342  39.5255808  51.8640384  92.3125342  39.1215808  51.7290384
  93.7615342  40.4505808  49.8900384  94.3235342  38.7955808  49.9340384
  96.2575342  40.2835808  49.6520384  95.8135342  41.2025808  51.0670384
  96.7475342  38.2935808  51.0050384  97.6135342  39.6475808  51.6820384
  96.4935342  38.2335808  53.4470384  95.9635342  39.8935808  53.4870384
  94.4675342  37.5505808  52.2390384  93.9995342  38.3925808  53.6970384
  93.6715342  40.4855808  52.3830384  92.2935342  38.2765808  51.2730384
  84.8275342  24.4545808  78.6100384  84.3755342  22.9805808  78.6040384
  83.2725342  22.7125808  79.6490384  83.6665342  23.2065808  81.0570384
  84.1235342  24.6785808  81.0420384  85.2585342  24.9115808  80.0220384
  85.6925342  26.2545808  80.0230384  85.6365342  24.6085808  77.8940384
  83.9925342  25.0695808  78.2680384  84.0235342  22.7025808  77.6100384
  85.2335342  22.3375808  78.8110384  82.3535342  23.2115808  79.3370384
  83.0415342  21.6465808  79.6800384  82.8275342  23.0845808  81.7420384
  84.4705342  22.5815808  81.4470384  83.2655342  25.2995808  80.7800384
  84.4345342  24.9905808  82.0400384  86.1005342  24.2855808  80.3240384
  84.9555342  26.8115808  79.7570384  92.7045342  73.6965808 136.5920384
  91.8315342  74.2755808 135.4610384  91.0195342  75.5005808 135.9300384
  90.2125342  75.2115808 137.2140384  91.0995342  74.6245808 138.3300384
  91.8665342  73.3745808 137.8500384  92.6625342  72.8245808 138.8780384
  93.2355342  72.8075808 136.2470384  93.4695342  74.4345808 136.8450384
  92.4575342  74.5475808 134.6090384  91.1475342  73.5045808 135.1010384
  91.6995342  76.3335808 136.1140384  90.3485342  75.8285808 135.1350384
  89.7295342  76.1245808 137.5630384  89.4075342  74.5115808 136.9850384
  91.8105342  75.3925808 138.6390384  90.4975342  74.3925808 139.2110384
  91.1235342  72.6285808 137.5630384  93.3185342  73.4775808 139.1350384
  57.2685342  41.6555808  90.8000384  58.6555342  41.8315808  91.4500384
  58.5935342  41.6975808  92.9860384  57.5245342  42.6185808  93.6110384
  56.1475342  42.4355808  92.9430384  56.2275342  42.6195808  91.4130384
  54.9625342  42.4735808  90.8030384  57.3325342  41.7975808  89.7200384
  56.9455342  40.6245808  90.9580384  59.3545342  41.1005808  91.0400384
  59.0565342  42.8135808  91.1890384  58.3725342  40.6615808  93.2470384
  59.5715342  41.9155808  93.4170384  57.4475342  42.4265808  94.6810384
  57.8395342  43.6585808  93.5120384  55.7885342  41.4305808  93.1710384
  55.4205342  43.1265808  93.3760384  56.5765342  43.6365808  91.2260384
  54.6505342  41.5795808  90.9640384 103.7985342  46.6785808 106.9250384
 103.1195342  46.4795808 108.2950384 101.6925342  47.0655808 108.3200384
 101.6535342  48.5335808 107.8460384 102.3445342  48.7145808 106.4800384
 103.7855342  48.1615808 106.4930384 104.4255342  48.3465808 105.2490384
 104.8195342  46.2945808 106.9460384 103.2595342  46.0805808 106.1860384
 103.0915342  45.4185808 108.5460384 103.7205342  46.9585808 109.0700384
 101.0455342  46.4635808 107.6800384 101.2775342  46.9885808 109.3260384
 100.6205342  48.8795808 107.7890384 102.1445342  49.1665808 108.5860384
 101.7575342  48.1835808 105.7280384 102.3385342  49.7655808 106.1870384
 104.3415342  48.7245808 107.2450384 103.9405342  47.8535808 104.5820384
  44.4165342  85.3745808 120.0240384  45.4415342  86.2025808 120.8240384
  46.4435342  86.9265808 119.9000384  47.1125342  85.9645808 118.8950384
  46.0725342  85.1395808 118.1110384  45.1115342  84.3895808 119.0570384
  44.1725342  83.6165808 118.3400384  43.7465342  84.8395808 120.7000384
  43.7905342  86.0645808 119.4520384  44.9245342  86.9275808 121.4540384
  45.9865342  85.5445808 121.5040384  45.9225342  87.7135808 119.3530384
  47.2055342  87.4275808 120.4990384  47.7395342  86.5275808 118.2030384
  47.7815342  85.2905808 119.4300384  45.5025342  85.8215808 117.4780384
  46.5725342  84.4405808 117.4370384  45.7145342  83.7105808 119.6620384
  43.6375342  84.2085808 117.8050384 110.0925342  92.0705808  97.1520384
 110.8505342  91.2975808  98.2500384 110.6055342  91.8975808  99.6500384
 110.8845342  93.4155808  99.6930384 110.1265342  94.1705808  98.5830384
 110.4225342  93.5795808  97.1890384 109.7455342  94.2845808  96.1690384
 110.3155342  91.6525808  96.1690384 109.0215342  91.9285808  97.3120384
 110.5545342  90.2475808  98.2380384 111.9205342  91.3135808  98.0320384
 109.5715342  91.7145808  99.9440384 111.2245342  91.3855808 100.3880384
 110.6115342  93.8165808 100.6700384 111.9555342  93.5895808  99.5830384
 109.0575342  94.0965808  98.7900384 110.3715342  95.2335808  98.6110384
 111.4955342  93.6825808  97.0140384 108.8005342  94.1965808  96.3180384
  41.0525342 119.8145808  54.6000384  42.4865342 119.4475808  54.1710384
  43.2965342 118.8345808  55.3320384  43.2625342 119.7165808  56.5990384
  41.8225342 120.0815808  57.0070384  41.0485342 120.7335808  55.8420384
  39.7355342 121.0875808  56.2220384  40.5155342 120.2845808  53.7740384
  40.5175342 118.8905808  54.8290384  42.4585342 118.7535808  53.3290384
  42.9965342 120.3425808  53.8070384  42.8925342 117.8495808  55.5700384
  44.3285342 118.6705808  55.0200384  43.7655342 119.2065808  57.4210384
  43.8305342 120.6305808  56.4180384  41.3135342 119.1655808  57.3150384
  41.8285342 120.7375808  57.8790384  41.5785342 121.6485808  55.5720384
  39.2625342 120.2855808  56.4610384 109.3725342  34.5045808  92.0830384
 108.9405342  35.6145808  93.0630384 107.5365342  35.3545808  93.6450384
 106.4855342  35.0925808  92.5450384 106.9375342  33.9875808  91.5710384
 108.3245342  34.2925808  90.9670384 108.7295342  33.2915808  90.0580384
 110.3495342  34.7335808  91.6540384 109.4935342  33.5775808  92.6490384
 109.6695342  35.7015808  93.8710384 108.9455342  36.5765808  92.5460384
 107.5785342  34.4925808  94.3140384 107.2265342  36.1995808  94.2610384
 105.5315342  34.8215808  92.9990384 106.3065342  36.0135808  91.9900384
 106.9785342  33.0445808  92.1200384 106.1965342  33.8505808  90.7810384
 108.2395342  35.2325808  90.4180384 108.8065342  32.4615808  90.5360384
  28.3835342  77.1085808  44.3230384  28.6585342  75.6425808  44.7140384
  28.2535342  75.3505808  46.1740384  28.8765342  76.3555808  47.1660384
  28.6005342  77.8145808  46.7550384  29.0545342  78.0935808  45.3060384
  28.8215342  79.4355808  44.9360384  28.7175342  77.2995808  43.3020384
  27.3035342  77.2675808  44.3300384  28.1255342  74.9705808  44.0390384
  29.7195342  75.4245808  44.5830384  27.1665342  75.3875808  46.2600384
  28.5435342  74.3335808  46.4440384  28.4935342  76.1725808  48.1710384
  29.9535342  76.1915808  47.2180384  27.5275342  77.9965808  46.8410384
  29.0845342  78.5035808  47.4490384  30.1305342  77.9145808  45.2630384
  27.8755342  79.5995808  44.9720384 106.9645342  92.7635808  35.5620384
 105.6135342  92.9785808  34.8510384 105.4585342  92.0635808  33.6190384
 106.6605342  92.1725808  32.6550384 108.0015342  91.9635808  33.3840384
 108.1515342  92.9205808  34.5860384 109.3895342  92.7455808  35.2410384
 107.0665342  93.4505808  36.4040384 106.9715342  91.7555808  35.9840384
 104.7935342  92.8045808  35.5500384 105.5295342  94.0225808  34.5400384
 105.3565342  91.0295808  33.9500384 104.5355342  92.3055808  33.0900384
 106.5575342  91.4455808  31.8490384 106.6545342  93.1545808  32.1800384
 108.0425342  90.9305808  33.7340384 108.8345342  92.0855808  32.6890384
 108.1195342  93.9395808  34.1950384 109.4245342  91.8495808  35.5870384
  76.4605342 115.0935808 124.4290384  77.9025342 115.5925808 124.2080384
  77.9585342 116.7685808 123.2110384  77.2325342 116.4485808 121.8870384
  75.7965342 115.9425808 122.1270384  75.7715342 114.7385808 123.0920384
  74.4585342 114.2605808 123.2960384  76.4535342 114.2355808 125.1040384
  75.8975342 115.8845808 124.9290384  78.3435342 115.8905808 125.1610384
  78.5175342 114.7715808 123.8340384  77.5025342 117.6485808 123.6670384
  78.9965342 117.0365808 123.0100384  77.2135342 117.3335808 121.2500384
  77.7955342 115.6925808 121.3390384  75.2125342 116.7615808 122.5520384
  75.3205342 115.6855808 121.1790384  76.3525342 113.9385808 122.6290384
  73.9415342 114.9605808 123.7040384  43.4655342 112.0185808  54.0310384
  44.9445342 112.2775808  54.3780384  45.5105342 111.2005808  55.3280384
  44.6315342 111.0075808  56.5820384  43.1545342 110.7595808  56.2170384
  42.6005342 111.8725808  55.3030384  41.2415342 111.6575808  54.9850384
  43.0785342 112.8155808  53.3940384  43.4075342 111.0985808  53.4450384
  45.5405342 112.3175808  53.4650384  45.0415342 113.2585808  54.8460384
  45.5855342 110.2525808  54.7930384  46.5275342 111.4625808  55.6230384
  45.0125342 110.1775808  57.1790384  44.7045342 111.8925808  57.2150384
  43.0875342 109.7985808  55.7020384  42.5495342 110.6665808  57.1200384
  42.6725342 112.8115808  55.8550384  41.1715342 110.8315808  54.4990384
  50.0915342 122.4745808 103.3580384  49.5675342 122.7735808 104.7770384
  50.6995342 122.7515808 105.8250384  51.5325342 121.4535808 105.7600384
  52.0395342 121.1675808 104.3330384  50.8835342 121.1485808 103.3110384
  51.3445342 120.8655808 102.0080384  49.2665342 122.4535808 102.6430384
  50.7425342 123.2975808 103.0540384  49.0635342 123.7415808 104.7920384
  48.8105342 122.0335808 105.0470384  51.3555342 123.6085808 105.6620384
  50.2825342 122.8765808 106.8250384  52.3755342 121.5175808 106.4490384
  50.9235342 120.6165808 106.1040384  52.7535342 121.9465808 104.0620384
  52.5905342 120.2245808 104.3080384  50.2005342 120.3515808 103.6080384
  51.9465342 121.5645808 101.7400384  73.9225342  42.5365808  31.1500384
  74.7685342  43.7595808  30.7440384  75.2175342  43.6845808  29.2690384
  75.9095342  42.3465808  28.9350384  75.0535342  41.1365808  29.3570384
  74.6565342  41.2115808  30.8460384  73.8905342  40.0915808  31.2380384
  73.6545342  42.5925808  32.2070384  72.9845342  42.5695808  30.5920384
  74.2035342  44.6775808  30.9150384  75.6495342  43.8215808  31.3860384
  74.3475342  43.8105808  28.6220384  75.8855342  44.5165808  29.0410384
  76.1265342  42.2955808  27.8670384  76.8745342  42.3025808  29.4420384
  74.1535342  41.1235808  28.7390384  75.5835342  40.2045808  29.1470384
  75.5795342  41.2085808  31.4290384  73.0755342  40.0885808  30.7280384
  31.5835342 112.1335808  52.1360384  32.8705342 111.6305808  51.4510384
  33.5915342 110.5585808  52.2960384  33.8335342 111.0225808  53.7480384
  32.5385342 111.5295808  54.4120384  31.8615342 112.6325808  53.5710384
  30.6865342 113.1125808  54.1900384  31.1175342 112.9195808  51.5400384
  30.8705342 111.3065808  52.1700384  32.6355342 111.2315808  50.4630384
  33.5455342 112.4725808  51.2840384  32.9925342 109.6465808  52.3050384
  34.5395342 110.2925808  51.8270384  34.2575342 110.2065808  54.3330384
  34.5795342 111.8185808  53.7530384  31.8575342 110.6835808  54.5210384
  32.7455342 111.8885808  55.4220384  32.5665342 113.4625808  53.4970384
  30.0615342 112.3855808  54.2590384  26.7675342  75.6945808 110.1660384
  27.2305342  74.4875808 109.3260384  28.6025342  73.9555808 109.7920384
  29.6675342  75.0695808 109.8670384  29.1835342  76.2715808 110.7010384
  27.8325342  76.8135808 110.1880384  27.3995342  77.9275808 110.9390384
  25.8165342  76.0775808 109.7900384  26.5795342  75.3505808 111.1850384
  26.4855342  73.6915808 109.3760384  27.2935342  74.7785808 108.2760384
  28.4945342  73.4945808 110.7750384  28.9395342  73.1625808 109.1220384
  30.5925342  74.6725808 110.2860384  29.9125342  75.4045808 108.8580384
  29.0755342  75.9455808 111.7370384  29.9375342  77.0605808 110.7050384
  27.9835342  77.1405808 109.1580384  27.2635342  77.6465808 111.8480384
  13.6615342  72.9905808  69.4910384  14.7325342  73.8035808  68.7360384
  16.1565342  73.4895808  69.2420384  16.2765342  73.6285808  70.7750384
  15.1925342  72.8175808  71.5120384  13.7755342  73.1815808  71.0200384
  12.7815342  72.4545808  71.7090384  12.6625342  73.2615808  69.1440384
  13.7975342  71.9355808  69.2450384  14.6655342  73.6045808  67.6650384
  14.5315342  74.8695808  68.8590384  16.4245342  72.4735808  68.9520384
  16.8775342  74.1455808  68.7520384  17.2665342  73.3095808  71.1010384
  16.1915342  74.6805808  71.0510384  15.3795342  71.7575808  71.3320384
  15.2745342  72.9645808  72.5900384  13.6225342  74.2425808  71.2280384
  12.9115342  71.5195808  71.5300384 120.3895342  72.4935808  99.1760384
 119.6125342  72.7465808  97.8690384 120.2345342  71.9935808  96.6750384
 121.7455342  72.2715808  96.5300384 122.5045342  72.0225808  97.8480384
 121.8915342  72.8215808  99.0170384 122.5995342  72.6105808 100.2210384
 119.9565342  73.0695808  99.9960384 120.2745342  71.4405808  99.4440384
 118.5695342  72.4515808  97.9930384 119.6015342  73.8165808  97.6550384
 120.0775342  70.9215808  96.8050384 119.7155342  72.2645808  95.7540384
 122.1635342  71.6515808  95.7360384 121.8945342  73.3055808  96.2160384
 122.4575342  70.9555808  98.0720384 123.5625342  72.2655808  97.7290384
 121.9675342  73.8805808  98.7630384 122.5355342  71.6795808 100.4500384
  92.0625342 133.7605808  89.4230384  91.3025342 132.4415808  89.1790384
  90.2875342 132.1455808  90.3040384  90.9325342 132.2085808  91.7050384
  91.6955342 133.5295808  91.9270384  92.7345342 133.7815808  90.8140384
  93.4485342 134.9795808  91.0290384  92.8015342 133.9255808  88.6370384
  91.3485342 134.5845808  89.3530384  90.7905342 132.4795808  88.2160384
  92.0165342 131.6195808  89.1110384  89.4715342 132.8675808  90.2510384
  89.8355342 131.1655808  90.1470384  90.1675342 132.0865808  92.4720384
  91.6185342 131.3695808  91.8260384  90.9695342 134.3445808  91.9390384
  92.1745342 133.5315808  92.9080384  93.4475342 132.9545808  90.8430384
  92.8255342 135.7115808  91.0040384  37.1045342  99.1775808  71.9720384
  37.7865342 100.4945808  71.5520384  38.7855342 100.2825808  70.3950384
  39.7985342  99.1575808  70.6950384  39.0995342  97.8525808  71.1220384
  38.1405342  98.0825808  72.3090384  37.5155342  96.8825808  72.7140384
  36.4355342  99.3465808  72.8180384  36.4755342  98.8395808  71.1450384
  37.0335342 101.2295808  71.2640384  38.3125342 100.9195808  72.4090384
  38.2345342 100.0355808  69.4860384  39.3135342 101.2135808  70.1850384
  40.4235342  98.9765808  69.8200384  40.4745342  99.4825808  71.4880384
  38.5365342  97.4725808  70.2670384  39.8385342  97.0875808  71.3670384
  38.7405342  98.4485808  73.1450384  36.9855342  96.5555808  71.9830384
  78.1315342 125.2595808  96.5780384  79.2455342 125.4945808  95.5370384
  80.0805342 126.7505808  95.8620384  79.1985342 127.9985808  96.0810384
  78.0865342 127.7425808  97.1160384  77.2375342 126.5085808  96.7450384
  76.2055342 126.2855808  97.6820384  77.5305342 124.3915808  96.3030384
  78.6025342 125.0185808  97.5330384  79.8945342 124.6195808  95.4820384
  78.7985342 125.6025808  94.5470384  80.6715342 126.5665808  96.7600384
  80.7975342 126.9375808  95.0610384  79.8165342 128.8395808  96.3980384
  78.7495342 128.2945808  95.1320384  78.5565342 127.5835808  98.0880384
  77.4545342 128.6265808  97.2220384  76.7755342 126.7105808  95.7770384
  76.6055342 126.1065808  98.5370384  22.3805342  99.7345808  97.3170384
  22.2785342 101.0685808  98.0830384  22.8005342 100.9425808  99.5300384
  22.1435342  99.7705808 100.2890384  22.2455342  98.4475808  99.5040384
  21.6765342  98.5875808  98.0760384  21.7515342  97.3715808  97.3640384
  21.9665342  99.8395808  96.3120384  23.4385342  99.4925808  97.1910384
  22.8325342 101.8455808  97.5540384  21.2385342 101.3975808  98.1010384
  23.8815342 100.7965808  99.5100384  22.6315342 101.8755808 100.0680384
  22.6035342  99.6575808 101.2710384  21.0925342 100.0015808 100.4720384
  23.2985342  98.1645808  99.4500384  21.7385342  97.6455808 100.0430384
  20.6235342  98.8585808  98.1710384  22.6765342  97.1275808  97.2760384
  36.0495342  94.1255808  34.9190384  36.0535342  95.6235808  35.2820384
  34.9985342  96.4135808  34.4790384  35.1175342  96.1695808  32.9590384
  35.1205342  94.6665808  32.6170384  36.2135342  93.9075808  33.3980384
  36.2315342  92.5345808  33.0690384  36.8315342  93.5975808  35.4690384
  35.0995342  93.6965808  35.2470384  35.8785342  95.7485808  36.3510384
  37.0435342  96.0405808  35.0860384  34.0015342  96.1225808  34.8130384
  35.0905342  97.4785808  34.6930384  34.2995342  96.6685808  32.4380384
  36.0355342  96.6275808  32.5900384  34.1405342  94.2575808  32.8690384
  35.2455342  94.5225808  31.5420384  37.1755342  94.3355808  33.1100384
  35.3865342  92.1515808  33.3210384  18.9415342  99.2975808  67.4810384
  18.9265342 100.8165808  67.2180384  19.4455342 101.6165808  68.4310384
  18.7205342 101.2335808  69.7390384  18.7375342  99.7115808  69.9800384
  18.1715342  98.9365808  68.7710384  18.1675342  97.5435808  69.0010384
  18.5305342  98.7585808  66.6260384  19.9815342  98.9775808  67.5770384
  19.5255342 101.0475808  66.3360384  17.9085342 101.1335808  66.9850384
  20.5155342 101.4375808  68.5480384  19.3365342 102.6855808  68.2450384
  19.1775342 101.7495808  70.5830384  17.6875342 101.5815808  69.6940384
  19.7705342  99.4055808  70.1580384  18.1835342  99.4645808  70.8880384
  17.1375342  99.2585808  68.6340384  19.0755342  97.2535808  69.1220384
  85.5715342  37.5265808 123.8480384  84.0925342  37.0915808 123.8300384
  83.2505342  37.8685808 124.8640384  83.8675342  37.8155808 126.2780384
  85.3485342  38.2445808 126.2750384  86.1775342  37.4235808 125.2660384
  87.5375342  37.8005808 125.2780384  86.1515342  36.9345808 123.1390384
  85.6275342  38.5615808 123.5040384  83.6755342  37.2295808 122.8310384
  84.0265342  36.0225808 124.0390384  83.1645342  38.9085808 124.5480384
  82.2345342  37.4735808 124.8870384  83.2975342  38.4505808 126.9570384
  83.7855342  36.8015808 126.6710384  85.3955342  39.3025808 126.0110384
  85.7705342  38.1595808 127.2780384  86.1155342  36.3765808 125.5700384
  87.5985342  38.7225808 125.0100384 128.4805342  77.2475808  56.1540384
 127.9715342  78.6965808  56.0180384 128.5975342  79.6285808  57.0760384
 128.4395342  79.0765808  58.5090384 128.9445342  77.6255808  58.6240384
 128.2705342  76.7035808  57.5860384 128.7165342  75.3695808  57.7050384
 127.9915342  76.6005808  55.4230384 129.5455342  77.2355808  55.9130384
 128.1845342  79.0735808  55.0160384 126.8845342  78.7105808  56.1210384
 129.6575342  79.7605808  56.8560384 128.1495342  80.6215808  57.0080384
 128.9735342  79.7145808  59.2140384 127.3885342  79.1185808  58.7990384
 130.0245342  77.6265808  58.4640384 128.7845342  77.2465808  59.6350384
 127.1975342  76.7195808  57.7860384 129.6615342  75.3495808  57.5300384
 108.6425342  79.9945808  51.6650384 107.3885342  80.7765808  52.1070384
 107.7055342  81.7835808  53.2320384 108.4425342  81.1255808  54.4170384
 109.6865342  80.3415808  53.9560384 109.3365342  79.3095808  52.8640384
 110.4715342  78.5755808  52.4560384 108.3845342  79.2605808  50.9000384
 109.3355342  80.6975808  51.1970384 106.9535342  81.2965808  51.2520384
 106.6275342  80.0745808  52.4540384 108.3205342  82.5895808  52.8290384
 106.7835342  82.2525808  53.5810384 108.7285342  81.8845808  55.1460384
 107.7605342  80.4495808  54.9370384 110.4125342  81.0555808  53.5640384
 110.1655342  79.8525808  54.8070384 108.6205342  78.6085808  53.2970384
 111.1065342  79.1875808  52.0730384  95.2225342 102.9315808  57.3400384
  96.4105342 103.3005808  56.4290384  97.7095342 102.5875808  56.8610384
  98.0225342 102.7965808  58.3580384  96.8205342 102.4315808  59.2520384
  95.5455342 103.1905808  58.8280384  94.4495342 102.8725808  59.6600384
  94.3275342 103.4795808  57.0400384  94.9985342 101.8715808  57.1960384
  96.1775342 103.0525808  55.3930384  96.5655342 104.3805808  56.4550384
  97.6175342 101.5195808  56.6580384  98.5455342 102.9395808  56.2540384
  98.8925342 102.2035808  58.6430384  98.2965342 103.8385808  58.5280384
  96.6495342 101.3565808  59.1700384  97.0535342 102.6265808  60.3000384
  95.7515342 104.2575808  58.9360384  94.2625342 101.9345808  59.5700384
 100.5555342  61.2435808 129.5820384 101.3765342  60.9315808 128.3150384
 101.1505342  59.4865808 127.8230384 101.3685342  58.4465808 128.9430384
 100.5475342  58.7795808 130.2040384 100.8245342  60.2135808 130.7020384
 100.0885342  60.5115808 131.8690384 100.7645342  62.2555808 129.9330384
  99.4955342  61.2215808 129.3160384 101.1225342  61.6385808 127.5230384
 102.4375342  61.0805808 128.5250384 100.1335342  59.3925808 127.4390384
 101.8125342  59.2725808 126.9830384 101.1105342  57.4505808 128.5810384
 102.4285342  58.4095808 129.2000384  99.4895342  58.6775808 129.9580384
 100.7505342  58.0525808 130.9930384 101.8865342  60.2715808 130.9490384
  99.1525342  60.4615808 131.6580384 112.8225342  45.2375808  90.6520384
 111.2925342  45.2175808  90.4630384 110.8255342  43.9725808  89.6810384
 111.5905342  43.7955808  88.3520384 113.1175342  43.8275808  88.5590384
 113.5645342  45.1035808  89.3030384 114.9645342  45.1445808  89.4740384
 113.1315342  46.1475808  91.1700384 113.0975342  44.4045808  91.3030384
 110.7965342  45.2545808  91.4350384 110.9815342  46.1175808  89.9300384
 110.9695342  43.0855808  90.2990384 109.7535342  44.0355808  89.4880384
 111.2985342  42.8585808  87.8760384 111.3015342  44.5885808  87.6600384
 113.4005342  42.9485808  89.1400384 113.6325342  43.7415808  87.6000384
 113.2755342  45.9575808  88.6870384 115.2255342  44.3945808  90.0160384
  34.9435342  46.1805808 103.0780384  35.9445342  45.9845808 101.9220384
  37.2055342  45.2195808 102.3760384  37.8575342  45.8535808 103.6230384
  36.8405342  46.0505808 104.7650384  35.6095342  46.8555808 104.2980384
  34.6875342  47.0545808 105.3490384  34.0815342  46.7595808 102.7430384
  34.5615342  45.1995808 103.3700384  35.4635342  45.4535808 101.0990384
  36.2355342  46.9585808 101.5250384  36.9385342  44.1855808 102.5960384
  37.9285342  45.1785808 101.5590384  38.6865342  45.2335808 103.9660384
  38.2905342  46.8175808 103.3550384  36.5215342  45.0655808 105.1110384
  37.3165342  46.5355808 105.6190384  35.9665342  47.8345808 103.9730384
  34.3695342  46.1955808 105.6390384  73.9495342 134.8255808  76.8480384
  73.7215342 133.4185808  76.2590384  72.4915342 133.3755808  75.3280384
  71.2275342 133.9485808  76.0020384  71.4755342 135.3505808  76.5930384
  72.6825342 135.3575808  77.5550384  72.8975342 136.6355808  78.1130384
  74.7975342 134.8185808  77.5340384  74.2185342 135.4985808  76.0300384
  74.6105342 133.0935808  75.7160384  73.5845342 132.7025808  77.0720384
  72.7065342 133.9465808  74.4230384  72.3085342 132.3515808  75.0020384
  70.4075342 133.9865808  75.2840384  70.9035342 133.2735808  76.7960384
  71.6635342 136.0395808  75.7670384  70.5795342 135.7145808  77.0980384
  72.4515342 134.6685808  78.3700384  73.1015342 137.2475808  77.3990384
  98.4785342  24.2325808  73.0260384  98.6945342  25.7515808  73.1770384
  99.1905342  26.1245808  74.5900384  98.2905342  25.5405808  75.6990384
  98.0775342  24.0235808  75.5270384  97.5385342  23.6805808  74.1220384
  97.3235342  22.2935808  73.9700384  98.0875342  24.0005808  72.0330384
  99.4505342  23.7405808  73.0980384  99.4065342  26.1035808  72.4280384
  97.7575342  26.2735808  72.9730384 100.2085342  25.7555808  74.7220384
  99.2465342  27.2095808  74.6890384  98.7245342  25.7465808  76.6780384
  97.3235342  26.0455808  75.6850384  99.0365342  23.5245808  75.6810384
  97.4065342  23.6435808  76.2990384  96.5775342  24.1855808  74.0100384
  98.1675342  21.8435808  74.0670384 109.8875342  76.9625808  58.7670384
 109.1145342  76.7315808  60.0810384 107.6155342  76.4645808  59.8280384
 106.9685342  77.5505808  58.9420384 107.7595342  77.7735808  57.6380384
 109.2455342  78.0835808  57.9190384 109.9655342  78.3095808  56.7260384
 110.9335342  77.1905808  58.9750384 109.8815342  76.0295808  58.1990384
 109.5535342  75.8975808  60.6300384 109.2225342  77.6075808  60.7230384
 107.5005342  75.4925808  59.3470384 107.0855342  76.3955808  60.7790384
 105.9385342  77.2765808  58.7110384 106.9165342  78.4865808  59.4990384
 107.6845342  76.8675808  57.0340384 107.3045342  78.5725808  57.0500384
 109.2795342  78.9995808  58.5120384 109.9395342  77.5055808  56.2000384
  87.3035342  62.8035808  19.8880384  85.9645342  62.9135808  20.6440384
  85.6925342  61.6705808  21.5160384  85.8155342  60.3555808  20.7170384
  87.1555342  60.2675808  19.9600384  87.3845342  61.5005808  19.0610384
  88.6015342  61.4095808  18.3510384  87.4525342  63.6735808  19.2470384
  88.1135342  62.8185808  20.6210384  85.9595342  63.8115808  21.2640384
  85.1515342  63.0365808  19.9260384  86.3985342  61.6525808  22.3470384
  84.7005342  61.7415808  21.9640384  85.7085342  59.5015808  21.3860384
  84.9925342  60.2875808  20.0040384  87.9585342  60.1995808  20.6960384
  87.2005342  59.3485808  19.3720384  86.5715342  61.5265808  18.3330384
  89.3215342  61.3865808  18.9870384 111.3905342  66.1385808  61.7810384
 111.9125342  64.8585808  62.4650384 112.5895342  63.9045808  61.4590384
 111.6885342  63.6015808  60.2430384 111.1675342  64.8905808  59.5780384
 110.4565342  65.8075808  60.5950384 109.9605342  66.9795808  59.9830384
 110.8795342  66.7765808  62.5050384 112.2485342  66.7075808  61.4200384
 112.6135342  65.1205808  63.2590384 111.0835342  64.3425808  62.9520384
 113.5225342  64.3505808  61.1130384 112.8655342  62.9745808  61.9580384
 112.2355342  63.0015808  59.5150384 110.8425342  62.9915808  60.5630384
 112.0195342  65.4185808  59.1450384 110.5025342  64.6485808  58.7480384
 109.6065342  65.2515808  60.9960384 110.7045342  67.4745808  59.6290384
  49.3935342  57.0715808 105.1020384  48.4145342  57.6705808 104.0730384
  47.6625342  56.5745808 103.2880384  48.6215342  55.5405808 102.6620384
  49.5985342  54.9595808 103.7030384  50.3715342  56.0725808 104.4420384
  51.2815342  55.5405808 105.3800384  49.9425342  57.8645808 105.6120384
  48.8105342  56.5555808 105.8690384  47.7005342  58.3245808 104.5750384
  48.9645342  58.3025808 103.3730384  46.9705342  56.0635808 103.9590384
  47.0475342  57.0305808 102.5110384  48.0505342  54.7355808 102.1980384
  49.1875342  56.0125808 101.8580384  49.0225342  54.3755808 104.4230384
  50.2915342  54.2625808 103.2270384  50.9425342  56.6235808 103.6930384
  50.7845342  55.0545808 106.0430384  50.8465342 116.9925808 119.0840384
  50.4165342 118.0265808 118.0230384  51.5785342 118.3975808 117.0780384
  52.8445342 118.8285808 117.8480384  53.2535342 117.7885808 118.9090384
  52.0885342 117.4675808 119.8700384  52.4685342 116.5305808 120.8550384
  50.0205342 116.7795808 119.7640384  51.0755342 116.0545808 118.5730384
  49.5755342 117.6405808 117.4460384  50.0535342 118.9275808 118.5220384
  51.8155342 117.5405808 116.4470384  51.2655342 119.1945808 116.4010384
  53.6665342 118.9925808 117.1500384  52.6635342 119.7895808 118.3330384
  53.5615342 116.8775808 118.3930384  54.1255342 118.1355808 119.4660384
  51.8185342 118.3965808 120.3750384  52.7075342 115.7095808 120.4160384
  52.0615342  72.8275808  71.6580384  51.5715342  72.3495808  70.2760384
  52.5205342  71.3005808  69.6600384  53.9875342  71.7815808  69.6360384
  54.4565342  72.2635808  71.0230384  53.5165342  73.3445808  71.5980384
  53.9575342  73.8015808  72.8580384  51.3975342  73.5985808  72.0530384
  52.0025342  71.9855808  72.3510384  50.5645342  71.9375808  70.3600384
  51.4925342  73.2065808  69.6040384  52.4545342  70.3755808  70.2350384
  52.1935342  71.0525808  68.6490384  54.6355342  70.9795808  69.2820384
  54.0895342  72.5945808  68.9160384  54.4765342  71.4035808  71.6940384
  55.4815342  72.6345808  70.9690384  53.5335342  74.1895808  70.9080384
  53.9445342  73.0615808  73.4710384  39.0695342 110.2505808  91.1070384
  40.1175342 109.3715808  91.8180384  41.2475342 108.9345808  90.8630384
  40.7035342 108.2835808  89.5730384  39.6515342 109.1715808  88.8810384
  38.5095342 109.5575808  89.8440384  37.5345342 110.3535808  89.2040384
  38.2605342 110.5105808  91.7920384  39.5485342 111.1905808  90.8230384
  40.5365342 109.9085808  92.6710384  39.6285342 108.4865808  92.2290384
  41.8505342 109.8045808  90.5990384  41.9185342 108.2435808  91.3740384
  41.5245342 108.0745808  88.8870384  40.2585342 107.3175808  89.8150384
  40.1495342 110.0755808  88.5250384  39.2545342 108.6715808  87.9950384
  38.0295342 108.6325808  90.1670384  37.9515342 111.1715808  88.9180384
  64.7925342  45.7335808  85.6410384  65.1915342  47.0495808  84.9450384
  66.5785342  47.5455808  85.4030384  66.6915342  47.6295808  86.9410384
  66.2795342  46.3085808  87.6200384  64.8715342  45.8575808  87.1800384
  64.4845342  44.6585808  87.8180384  63.7915342  45.4265808  85.3320384
  65.4735342  44.9485808  85.3050384  65.1835342  46.9155808  83.8620384
  64.4445342  47.8155808  85.1610384  67.3455342  46.8695808  85.0230384
  66.7895342  48.5205808  84.9610384  67.7105342  47.8925808  87.2250384
  66.0565342  48.4375808  87.3060384  67.0095342  45.5435808  87.3480384
  66.3295342  46.4075808  88.7060384  64.1715342  46.6395808  87.4790384
  65.0975342  43.9655808  87.5570384  57.9175342  42.3995808  27.5900384
  58.7405342  43.6915808  27.4150384  60.1805342  43.3965808  26.9450384
  60.8885342  42.3595808  27.8420384  60.0475342  41.0795808  28.0140384
  58.6265342  41.3955808  28.5270384  57.8625342  40.2215808  28.7050384
  56.9185342  42.6315808  27.9630384  57.7815342  41.9445808  26.6070384
  58.2445342  44.3545808  26.7050384  58.7725342  44.2315808  28.3630384
  60.1545342  43.0265808  25.9190384  60.7585342  44.3215808  26.9190384
  61.8645342  42.1105808  27.4250384  61.0815342  42.7995808  28.8220384
  59.9815342  40.5825808  27.0440384  60.5515342  40.3805808  28.6840384
  58.7335342  41.8785808  29.5000384  57.7655342  39.7915808  27.8510384
  71.5935342 110.3275808  49.4610384  72.2845342 108.9495808  49.4700384
  71.4705342 107.9025808  50.2590384  71.1045342 108.3925808  51.6770384
  70.4245342 109.7755808  51.6490384  71.2785342 110.8155808  50.8930384
  70.6655342 112.0865808  50.8850384  72.2085342 111.0585808  48.9330384
  70.6635342 110.2405808  48.8940384  72.4415342 108.6045808  48.4470384
  73.2775342 109.0445808  49.9130384  70.5555342 107.6725808  49.7120384
  72.0285342 106.9675808  50.3220384  70.4545342 107.6675808  52.1650384
  72.0085342 108.4465808  52.2850384  69.4575342 109.6695808  51.1540384
  70.2135342 110.1165808  52.6640384  72.2285342 110.9025808  51.4230384
  69.8285342 112.0165808  50.4190384  93.6615342  25.6435808  66.8410384
  92.2315342  25.1575808  66.5320384  91.3155342  25.2365808  67.7710384
  91.9305342  24.5295808  68.9990384  93.3625342  25.0215808  69.2870384
  94.2695342  24.8905808  68.0450384  95.5875342  25.3215808  68.3150384
  94.2985342  25.5385808  65.9610384  93.6175342  26.7125808  67.0650384
  91.8055342  25.7455808  65.7170384  92.2685342  24.1265808  66.1740384
  91.1305342  26.2835808  68.0150384  90.3415342  24.8025808  67.5420384
  91.2985342  24.6875808  69.8740384  91.9455342  23.4525808  68.8260384
  93.3085342  26.0685808  69.5900384  93.7875342  24.4785808  70.1330384
  94.3085342  23.8325808  67.7820384  95.5595342  26.2535808  68.5480384
 109.1845342 110.6725808  58.1110384 107.6995342 110.2605808  58.0580384
 106.8145342 111.1835808  58.9210384 107.3425342 111.3185808  60.3650384
 108.8295342 111.7215808  60.3990384 109.6995342 110.7565808  59.5660384
 111.0645342 111.1135808  59.6130384 109.7935342 109.9795808  57.5290384
 109.2855342 111.6495808  57.6330384 107.3485342 110.2655808  57.0250384
 107.5965342 109.2305808  58.4080384 106.7715342 112.1725808  58.4610384
 105.7895342 110.8115808  58.9320384 106.7455342 112.0485808  60.9130384
 107.2125342 110.3695808  60.8870384 108.9175342 112.7325808  59.9950384
 109.1865342 111.7705808  61.4290384 109.5955342 109.7635808  60.0060384
 111.1635342 111.9875808  59.2270384 104.6385342  69.9645808 119.1710384
 103.1745342  70.4455808 119.1220384 102.3895342  69.7855808 117.9690384
 103.1095342  69.9335808 116.6110384 104.5725342  69.4555808 116.6820384
 105.3485342  70.1635808 117.8130384 106.6945342  69.7415808 117.8640384
 105.1825342  70.4765808 119.9670384 104.6405342  68.9025808 119.4300384
 102.6825342  70.2395808 120.0740384 103.1545342  71.5305808 118.9990384
 102.2515342  68.7265808 118.1890384 101.3885342  70.2145808 117.9080384
 102.5715342  69.3755808 115.8430384 103.0835342  70.9785808 116.3000384
 104.5715342  68.3785808 116.8590384 105.0685342  69.6075808 115.7220384
 105.3385342  71.2325808 117.5940384 106.7105342  68.8005808 118.0570384
 108.6655342  23.9355808  76.9070384 108.6345342  25.0215808  78.0010384
 107.5175342  24.7665808  79.0340384 106.1405342  24.5555808  78.3670384
 106.1935342  23.4735808  77.2710384 107.2885342  23.7745808  76.2260384
 107.3225342  22.7955808  75.2100384 109.4355342  24.1615808  76.1680384
 108.9535342  22.9905808  77.3730384 109.6015342  25.0725808  78.5040384
 108.4825342  25.9985808  77.5370384 107.7685342  23.8855808  79.6250384
 107.4655342  25.5985808  79.7380384 105.3995342  24.2875808  79.1210384
 105.8025342  25.4965808  77.9310384 106.3995342  22.5145808  77.7490384
 105.2195342  23.3735808  76.7890384 107.0405342  24.7315808  75.7630384
 107.5405342  21.9495808  75.6120384 124.7955342 112.4405808  56.6400384
 124.3625342 113.7385808  55.9290384 124.4275342 114.9595808  56.8700384
 123.6625342 114.7225808  58.1900384 124.1015342 113.4165808  58.8810384
 123.9855342 112.2035808  57.9340384 124.3665342 111.0045808  58.5730384
 124.7015342 111.5875808  55.9660384 125.8575342 112.5235808  56.8860384
 124.9895342 113.9105808  55.0520384 123.3435342 113.6245808  55.5540384
 125.4705342 115.1845808  57.0950384 124.0305342 115.8405808  56.3630384
 123.8095342 115.5675808  58.8620384 122.5915342 114.6815808  57.9850384
 125.1395342 113.5325808  59.2000384 123.5185342 113.2525808  59.7890384
 122.9355342 112.1145808  57.6480384 125.2915342 111.0775808  58.8270384
  75.0845342 139.4825808  76.1550384  74.5455342 140.8095808  75.5850384
  75.6515342 141.8815808  75.4770384  76.4125342 142.0725808  76.8060384
  76.9355342 140.7345808  77.3660384  75.8035342 139.6955808  77.5070384
  76.2775342 138.4775808  78.0400384  74.2765342 138.7565808  76.2610384
  75.7865342 139.0595808  75.4330384  74.0965342 140.6385808  74.6050384
  73.7435342 141.1805808  76.2260384  76.3565342 141.5915808  74.6970384
  75.2185342 142.8295808  75.1560384  77.2415342 142.7665808  76.6630384
  75.7505342 142.5375808  77.5380384  77.6975342 140.3545808  76.6830384
  77.4335342 140.8935808  78.3240384  75.0705342 140.1055808  78.2040384
  76.9235342 138.1105808  77.4300384 112.6995342  70.5725808 126.6880384
 114.1625342  70.2365808 127.0390384 114.4775342  70.5215808 128.5230384
 114.0815342  71.9535808 128.9410384 112.6195342  72.2755808 128.5730384
 112.3405342  72.0255808 127.0760384 111.0075342  72.3405808 126.7340384
 112.5135342  70.4025808 125.6260384 112.0495342  69.8815808 127.2290384
 114.3695342  69.1895808 126.8090384 114.8315342  70.8235808 126.4080384
 113.9435342  69.8035808 129.1480384 115.5395342  70.3585808 128.7140384
 114.2335342  72.0835808 130.0130384 114.7435342  72.6695808 128.4520384
 111.9685342  71.6395808 129.1760384 112.3775342  73.3045808 128.8420384
 112.9995342  72.6855808 126.5080384 110.4235342  71.7615808 127.2310384
  34.2255342  92.8135808  72.3530384  34.5305342  91.3115808  72.5240384
  35.1565342  90.7035808  71.2510384  34.3195342  90.9995808  69.9880384
  34.0155342  92.5035808  69.8400384  33.3495342  93.0775808  71.1080384
  33.0525342  94.4505808  70.9640384  33.7455342  93.2095808  73.2500384
  35.1735342  93.3455808  72.2500384  35.1965342  91.1615808  73.3750384
  33.6085342  90.7795808  72.7630384  36.1615342  91.1055808  71.1180384
  35.2755342  89.6265808  71.3740384  34.8405342  90.6355808  69.1030384
  33.3815342  90.4445808  70.0380384  34.9575342  93.0245808  69.6550384
  33.3905342  92.6795808  68.9630384  32.4095342  92.5425808  71.2520384
  33.8775342  94.9275808  70.8370384  84.4535342  88.1995808  29.8870384
  83.7955342  89.5935808  29.9070384  84.4355342  90.5175808  30.9640384
  84.4835342  89.8635808  32.3610384  85.1355342  88.4675808  32.3200384
  84.4485342  87.5485808  31.2880384  85.0325342  86.2625808  31.2650384
  83.9555342  87.5535808  29.1620384  85.4835342  88.3135808  29.5420384
  83.8645342  90.0535808  28.9200384  82.7295342  89.4885808  30.1180384
  85.4495342  90.7715808  30.6520384  83.8895342  91.4605808  31.0140384
  85.0245342  90.5065808  33.0550384  83.4705342  89.7775808  32.7560384
  86.1875342  88.5905808  32.0550384  85.1205342  88.0115808  33.3120384
  83.4065342  87.4395808  31.5930384  85.9505342  86.3515808  30.9970384
  47.8845342  64.6575808  26.8310384  48.5265342  65.9865808  27.2750384
  47.8455342  67.2035808  26.6140384  47.7665342  67.0665808  25.0790384
  47.1305342  65.7285808  24.6540384  47.8565342  64.5255808  25.2920384
  47.2885342  63.2985808  24.8860384  48.4095342  63.8115808  27.2790384
  46.8635342  64.6245808  27.2170384  48.4795342  66.0785808  28.3620384
  49.5875342  65.9815808  27.0170384  46.8385342  67.3145808  27.0180384
  48.3805342  68.1175808  26.8790384  47.1985342  67.8985808  24.6600384
  48.7695342  67.1415808  24.6560384  46.0855342  65.7325808  24.9680384
  47.1235342  65.6395808  23.5660384  48.8915342  64.5485808  24.9450384
  46.3775342  63.2715808  25.1890384  36.5955342  96.8915808  49.8370384
  36.9305342  98.3945808  49.7500384  37.4415342  98.7905808  48.3490384
  38.6055342  97.8945808  47.8760384  38.2565342  96.3965808  47.9780384
  37.7915342  96.0165808  49.4000384  37.4915342  94.6405808  49.4990384
  36.2775342  96.6295808  50.8470384  35.7425342  96.6945808  49.1840384
  36.0525342  98.9875808  50.0080384  37.6905342  98.6395808  50.4950384
  36.6205342  98.7205808  47.6350384  37.7535342  99.8365808  48.3500384
  38.8745342  98.1455808  46.8490384  39.4905342  98.1015808  48.4790384
  37.4585342  96.1835808  47.2640384  39.1095342  95.7855808  47.6760384
  38.6175342  96.2315808  50.0800384  36.7645342  94.4455808  48.9030384
 103.0585342  70.7655808  78.9790384 104.4455342  70.0995808  79.0770384
 104.9165342  69.5485808  77.7150384 103.8635342  68.6305808  77.0590384
 102.4815342  69.3095808  76.9790384 102.0125342  69.8115808  78.3600384
 100.7375342  70.4135808  78.2910384 102.7305342  71.1085808  79.9620384
 103.1505342  71.6575808  78.3560384 105.1755342  70.8135808  79.4620384
 104.4065342  69.2855808  79.8030384 105.1335342  70.3825808  77.0460384
 105.8565342  69.0075808  77.8380384 104.1935342  68.3385808  76.0620384
 103.7805342  67.7075808  77.6330384 102.5555342  70.1525808  76.2900384
 101.7475342  68.6255808  76.5490384 101.9385342  68.9405808  79.0150384
 100.7965342  71.1815808  77.7160384 108.0725342 111.5915808  99.0820384
 107.8325342 112.5595808  97.9060384 107.0665342 111.8815808  96.7500384
 107.7285342 110.5595808  96.3050384 107.9695342 109.6095808  97.4950384
 108.7755342 110.2965808  98.6170384 109.0155342 109.4195808  99.6980384
 108.6515342 112.0815808  99.8660384 107.1055342 111.3425808  99.5220384
 107.2845342 113.4365808  98.2510384 108.7915342 112.9275808  97.5370384
 106.0415342 111.6815808  97.0670384 106.9935342 112.5645808  95.9020384
 107.1085342 110.0675808  95.5550384 108.6795342 110.7775808  95.8170384
 106.9985342 109.2955808  97.8820384 108.4735342 108.7015808  97.1590384
 109.7405342 110.5825808  98.1950384 108.1685342 109.1635808 100.0740384
  89.7675342  57.1455808 111.4760384  88.3795342  57.6855808 111.8750384
  88.3495342  59.2275808 111.9110384  89.4855342  59.8145808 112.7750384
  90.8635342  59.2575808 112.3690384  90.8805342  57.7145808 112.3840384
  92.1485342  57.2035808 112.0320384  89.7735342  56.0545808 111.4990384
  89.9605342  57.4335808 110.4400384  87.6215342  57.3135808 111.1830384
  88.1075342  57.2955808 112.8580384  88.4365342  59.6115808 110.8940384
  87.3825342  59.5715808 112.2830384  89.4855342  60.9025808 112.7000384
  89.2965342  59.5845808 113.8250384  91.0915342  59.6145808 111.3630384
  91.6425342  59.6575808 113.0200384  90.6615342  57.3975808 113.4050384
  92.3475342  57.4795808 111.1330384  89.7405342 115.0205808  34.3590384
  89.0055342 115.8865808  35.4010384  87.8705342 116.7155808  34.7630384
  88.3555342 117.5335808  33.5480384  89.0965342 116.6535808  32.5220384
  90.2545342 115.8705808  33.1750384  90.9465342 115.0805808  32.2310384
  90.5635342 114.4785808  34.8270384  89.0435342 114.2655808  33.9890384
  88.6035342 115.2545808  36.1950384  89.7185342 116.5595808  35.8820384
  87.0695342 116.0445808  34.4490384  87.4325342 117.3805808  35.5090384
  87.5095342 118.0295808  33.0710384  89.0195342 118.3295808  33.8890384
  88.3785342 115.9525808  32.0920384  89.4635342 117.2625808  31.6930384
  90.9545342 116.6025808  33.5790384  90.3345342 114.4325808  31.8710384
 132.7415342  71.3535808  70.3750384 131.4505342  70.8955808  71.0810384
 131.6555342  69.5775808  71.8570384 132.2755342  68.4715808  70.9770384
 133.5595342  68.9495808  70.2720384 133.3175342  70.2445808  69.4670384
 134.4875342  70.6715808  68.8030384 132.5595342  72.2635808  69.8000384
 133.4755342  71.6145808  71.1400384 131.0995342  71.6755808  71.7590384
 130.6605342  70.7595808  70.3400384 132.3055342  69.7625808  72.7130384
 130.7035342  69.2365808  72.2680384 132.4895342  67.5905808  71.5830384
 131.5475342  68.1535808  70.2290384 134.3195342  69.1315808  71.0340384
 133.9535342  68.1635808  69.6260384 132.5635342  70.0195808  68.7100384
 135.1555342  70.8715808  69.4650384  57.5855342  26.5355808  54.3740384
  58.9565342  25.8495808  54.2170384  59.8755342  26.6135808  53.2420384
  59.1905342  26.8865808  51.8850384  57.8175342  27.5645808  52.0620384
  56.9015342  26.7575808  53.0060384  55.6365342  27.3675808  53.1510384
  56.9405342  25.9545808  55.0350384  57.7395342  27.4995808  54.8640384
  59.4405342  25.7585808  55.1910384  58.8125342  24.8295808  53.8550384
  60.1695342  27.5615808  53.6930384  60.7985342  26.0535808  53.0860384
  59.8345342  27.5065808  51.2610384  59.0635342  25.9455808  51.3480384
  57.9805342  28.5615808  52.4750384  57.3385342  27.7095808  51.0920384
  56.7525342  25.7755808  52.5530384  55.7605342  28.2325808  53.5490384
  55.3995342  36.8245808  61.1780384  56.8965342  37.1565808  61.0200384
  57.7095342  36.7605808  62.2700384  57.1075342  37.3385808  63.5680384
  55.6095342  37.0045808  63.7050384  54.8105342  37.4515808  62.4620384
  53.4345342  37.1645808  62.5960384  54.8415342  37.1525808  60.3000384
  55.2935342  35.7375808  61.2230384  57.2985342  36.6545808  60.1390384
  57.0125342  38.2275808  60.8380384  57.7465342  35.6725808  62.3440384
  58.7435342  37.0905808  62.1600384  57.6545342  36.9605808  64.4330384
  57.2395342  38.4215808  63.5770384  55.5115342  35.9245808  63.8320384
  55.1995342  37.4575808  64.6090384  54.9225342  38.5335808  62.3760384
  53.3295342  36.2125808  62.6720384 135.9025342  96.9625808  80.6620384
 135.8935342  97.7675808  79.3480384 135.6905342  96.8585808  78.1170384
 136.6915342  95.6835808  78.0860384 136.6945342  94.8965808  79.4110384
 136.9435342  95.8205808  80.6220384 136.9665342  95.0965808  81.8340384
 136.0895342  97.6215808  81.5120384 134.9065342  96.5405808  80.8120384
 135.1115342  98.5275808  79.3820384 136.8365342  98.3075808  79.2470384
 134.6735342  96.4635808  78.1260384 135.7795342  97.4465808  77.2030384
 136.4565342  95.0165808  77.2570384 137.6945342  96.0675808  77.8910384
 135.7245342  94.4075808  79.5190384 137.4375342  94.0975808  79.3780384
 137.9245342  96.2785808  80.4840384 136.1055342  94.6905808  81.9610384
  29.6735342  56.4665808 105.2340384  30.8885342  56.2645808 106.1610384
  31.2715342  54.7755808 106.2930384  30.0675342  53.8955808 106.6930384
  28.8595342  54.1175808 105.7610384  28.4685342  55.6075808 105.6810384
  27.3485342  55.8085808 104.8450384  29.3975342  57.5215808 105.1910384
  29.9655342  56.1815808 104.2200384  31.7405342  56.8365808 105.7880384
  30.6615342  56.6685808 107.1490384  31.6745342  54.4225808 105.3430384
  32.0735342  54.6615808 107.0230384  30.3565342  52.8445808 106.6840384
  29.7795342  54.1225808 107.7200384  29.1255342  53.7555808 104.7660384
  28.0105342  53.5145808 106.0900384  28.1985342  55.9275808 106.6890384
  27.5815342  55.5295808 103.9550384 112.3735342  54.1665808 101.0020384
 113.5285342  53.9985808  99.9960384 114.4345342  55.2465808  99.9460384
 113.6305342  56.5445808  99.7150384 112.4745342  56.6905808 100.7230384
 111.5575342  55.4485808 100.7220384 110.4865342  55.5905808 101.6310384
 111.7245342  53.2885808 100.9880384 112.7995342  54.2185808 102.0070384
 114.1215342  53.1185808 100.2520384 113.1195342  53.8085808  99.0020384
 114.9865342  55.3285808 100.8830384 115.1845342  55.1305808  99.1620384
 114.2925342  57.4085808  99.7790384 113.2285342  56.5445808  98.7010384
 112.9045342  56.8255808 101.7170384 111.8985342  57.5935808 100.5130384
 111.1385342  55.3555808  99.7190384 110.8485342  55.6735808 102.5170384
  77.9975342  46.1565808  27.9310384  79.4265342  45.6055808  28.1050384
  80.2285342  45.6605808  26.7880384  79.4755342  44.9985808  25.6150384
  78.0465342  45.5545808  25.4630384  77.2495342  45.4465808  26.7800384
  75.9335342  45.9375808  26.6350384  77.4375342  46.0675808  28.8640384
  78.0675342  47.2255808  27.7150384  79.9485342  46.1635808  28.8840384
  79.3765342  44.5725808  28.4550384  80.4375342  46.7025808  26.5390384
  81.1995342  45.1825808  26.9250384  80.0315342  45.1405808  24.6880384
  79.4285342  43.9205808  25.7780384  78.1195342  46.6025808  25.1660384
  77.5235342  45.0425808  24.6540384  77.1885342  44.3875808  27.0370384
  75.9815342  46.8705808  26.4090384 115.2545342  64.1265808  52.4870384
 116.7955342  64.1545808  52.4410384 117.3655342  63.0115808  51.5750384
 116.8095342  61.6315808  51.9870384 115.2695342  61.6255808  52.0370384
 114.7245342  62.7485808  52.9450384 113.3145342  62.7305808  53.0080384
 114.8785342  64.9175808  53.1390384 114.8785342  64.3465808  51.4860384
 117.1395342  65.1175808  52.0600384 117.1905342  64.0715808  53.4550384
 117.1235342  63.1985808  50.5280384 118.4555342  63.0065808  51.6370384
 117.1625342  60.8665808  51.2950384 117.2045342  61.3595808  52.9670384
 114.8945342  61.7635808  51.0210384 114.9035342  60.6515808  52.3700384
 115.1095342  62.5695808  53.9500384 112.9695342  62.8875808  52.1250384
 103.4545342  87.9745808  38.2750384 103.0895342  89.4675808  38.3850384
 101.6425342  89.7415808  37.9230384 101.3565342  89.1625808  36.5210384
 101.7365342  87.6715808  36.4280384 103.2005342  87.4295808  36.8520384
 103.5565342  86.0675808  36.7460384 104.4945342  87.8135808  38.5680384
 102.8435342  87.4195808  38.9910384 103.2225342  89.8095808  39.4130384
 103.7805342  90.0555808  37.7780384 100.9475342  89.3055808  38.6410384
 101.4485342  90.8155808  37.9280384 100.3035342  89.2945808  36.2720384
 101.9175342  89.7265808  35.7750384 101.0695342  87.1075808  37.0820384
 101.5625342  87.2975808  35.4170384 103.8345342  87.9975808  36.1680384
 103.0005342  85.5625808  37.3460384  46.6875342  73.1185808 129.9180384
  47.0295342  74.4865808 130.5400384  48.1855342  75.1855808 129.7940384
  49.4225342  74.2745808 129.6460384  49.0595342  72.9085808 129.0310384
  47.9335342  72.2095808 129.8220384  47.6155342  70.9495808 129.2720384
  45.8975342  72.6265808 130.4880384  46.2845342  73.2895808 128.9170384
  46.1465342  75.1265808 130.5420384  47.3065342  74.3495808 131.5870384
  47.8415342  75.4885808 128.8040384  48.4605342  76.1055808 130.3130384
  50.1785342  74.7695808 129.0350384  49.8785342  74.1215808 130.6250384
  48.7345342  73.0735808 128.0020384  49.9435342  72.2705808 128.9750384
  48.3005342  72.0515808 130.8380384  47.2925342  71.0825808 128.3760384
 111.0285342  70.5695808  34.8600384 110.8005342  70.4065808  36.3760384
 111.7685342  69.3765808  36.9960384 111.7485342  68.0285808  36.2450384
 111.9685342  68.2115808  34.7310384 110.9595342  69.2115808  34.1260384
 111.1465342  69.3635808  32.7350384 110.3045342  71.2695808  34.4390384
 112.0135342  71.0155808  34.7080384 110.9125342  71.3705808  36.8760384
 109.7715342  70.0895808  36.5570384 112.7815342  69.7815808  36.9810384
 111.5205342  69.2205808  38.0470384 112.5095342  67.3635808  36.6540384
 110.7915342  67.5345808  36.4150384 112.9845342  68.5805808  34.5760384
 111.9095342  67.2495808  34.2190384 109.9605342  68.8035808  34.2890384
 112.0255342  69.7225808  32.5850384  58.9195342  33.1015808  50.9310384
  59.1565342  34.6165808  51.0870384  60.1625342  34.9285808  52.2140384
  59.7795342  34.2485808  53.5460384  59.5375342  32.7365808  53.3690384
  58.4945342  32.4515808  52.2670384  58.2565342  31.0685808  52.1200384
  58.1735342  32.9095808  50.1570384  59.8485342  32.6435808  50.5840384
  59.5105342  35.0375808  50.1440384  58.2075342  35.1115808  51.3020384
  61.1555342  34.5935808  51.9120384  60.2375342  36.0085808  52.3570384
  60.5605342  34.4165808  54.2880384  58.8775342  34.7155808  53.9440384
  60.4865342  32.2685808  53.1020384  59.2295342  32.2875808  54.3150384
  57.5595342  32.9235808  52.5760384  59.0765342  30.6475808  51.8480384
  73.0781640 101.5722710  54.9343460  75.9663250  51.9293580  99.5238030
  78.7575200  64.6545210 111.6477750  78.2880240  88.6754100  41.5612720
  61.5205410  73.4894740  84.2453660  60.1083480  80.2413990  68.9333580
  55.5564240  66.4968430  96.4777700 103.4783370  51.4605460  56.3914120
 105.1086380 109.0513150  86.8536740  88.9876670  74.7378540  40.6503380
  90.0305860  63.9702800 103.6222470  65.2949900 102.2703340  41.9116710
 145.4862590 149.3301990 147.0173350 144.5979290 149.6717960 146.9153230
 145.7703780 149.1302310 146.1254180 147.6623980 147.9133490 148.0511730
 147.7690730 148.8137220 148.3580490 146.7516340 147.8651460 147.7606380
 151.1511030 144.7210650 150.9815370 151.4586010 144.1657540 150.2650870
 150.2211730 144.8555110 150.7988360 149.1448430 153.3124220 150.4995220
 148.7405430 152.6001470 150.0041120 149.2311550 152.9677460 151.3883260
 145.8453060 152.2069200 148.0001870 145.7250660 152.9331290 147.3883140
 145.5353950 151.4372110 147.5229780 148.3116720 145.5504270 151.3825540
 147.8684870 146.3313810 151.0510060 148.8701710 145.8734160 152.0896480
 151.4275540 145.1714970 146.2631370 150.8029720 145.1674840 146.9884680
 151.3405660 144.3045930 145.8667340 148.1030940 150.6737840 149.1106790
 147.8771860 150.4575010 150.0153410 147.3223470 151.1066300 148.7652760
 143.1627970 149.8485670 143.1733640 143.0802640 150.7916430 143.3148630
 142.8111030 149.7060580 142.2945990 150.9626100 148.5824700 152.2403990
 150.9662160 148.1414650 151.3908530 151.8577220 148.9042030 152.3475810
 146.8128480 148.4651190 151.1998200 146.4728530 148.9426420 151.9565250
 146.0505800 148.0116310 150.8399300 151.0246250 149.5836780 145.2310750
 151.1459070 149.5423260 146.1796570 150.6394760 150.4460930 145.0757480
 150.0367750 151.8937920 144.6294050 149.4684650 151.4456170 144.0029960
 150.7456750 152.2530700 144.0959200 144.1274560 147.3870170 150.1162870
 143.8421480 147.0225840 150.9541490 144.0653420 146.6550630 149.5026010
 143.6205220 152.5229120 144.0759570 144.4900070 152.8053920 144.3595490
 143.1295540 153.3364990 143.9608380 146.6851810 144.2539980 148.6690370
 146.5566440 144.2457880 149.6175290 145.8613830 144.5923070 148.3181380
 150.5130580 149.7396300 148.1043960 149.8046730 150.2082640 148.5457570
 150.7975060 149.0818310 148.7389150 148.7165600 148.0481380 145.4794670
 149.5656130 148.4851530 145.4134860 148.3496870 148.3601640 146.3066730
 147.6157020 154.3013740 143.9530200 148.3820290 154.1895100 144.5155630
 147.6931710 153.6051710 143.3006970 146.3103780 151.7338810 144.6363090
 146.3907370 150.7866320 144.7480490 147.2023530 152.0645690 144.7423750
 149.6476050 154.2978870 145.9272840 150.0692470 154.1318740 146.7704230
 149.7726890 153.4879100 145.4327980 152.1603690 153.3216480 143.1749940
 152.6809350 152.6065500 142.8091090 152.8072090 153.9602350 143.4750450
 148.5434950 150.3712100 142.8731000 148.3424010 149.5079460 143.2344340
 148.3727000 150.2845460 141.9352600 147.3417750 147.4712720 142.8608880
 147.6443650 147.4780150 141.9528030 148.0812340 147.1210580 143.3576540
 150.5602680 146.4147340 143.8465080 150.2124680 145.7371330 143.2667530
 150.7615450 145.9536850 144.6608470 143.9008320 152.9434990 150.2429450
 143.2457160 152.6746630 149.5989150 144.7386270 152.8339470 149.7931430
 143.1146400 150.1533920 146.1854780 142.2110480 150.4164120 146.0106440
 143.5987020 150.4245090 145.4054740 145.6573610 149.2099460 144.0949160
 146.3665310 148.7882680 143.6096440 144.9413550 149.2774690 143.4632510
 145.3047770 145.2638790 143.1351810 146.0275900 145.8047730 143.4533030
 145.5772290 144.9902210 142.2593350 144.7294610 145.3032050 146.7287380
 145.4873970 145.4160930 146.1551410 144.2671780 146.1401250 146.6830810
 151.2708420 147.4171320 149.7189690 150.4582930 147.0428210 149.3785570
 151.7750060 146.6616400 150.0210880 147.1019760 145.8296100 145.2689350
 147.6312520 145.0425900 145.1397300 147.7348080 146.5087290 145.5024880
 149.2957600 145.5671240 148.3234740 148.6660340 144.8658550 148.4904870
 148.7562740 146.3275370 148.1067900 145.4862590 149.3301990 128.2429860
 144.5979290 149.6717960 128.1409740 145.7703780 149.1302310 127.3510690
 143.4495600 151.9307640 134.1269560 144.0211710 151.1629840 134.1273200
 143.4497140 152.2296400 133.2176170 144.6920470 147.3392000 135.9138490
 144.5123310 146.4417750 136.1941250 144.2900550 147.8863870 136.5885440
 147.6623980 147.9133490 129.2768240 147.7690730 148.8137220 129.5837000
 146.7516340 147.8651460 128.9862890 145.3107140 149.8352500 134.5220830
 145.9917250 150.0990870 135.1408230 144.9955190 148.9953370 134.8558840
 149.5031710 150.8819860 133.6093420 150.0109930 151.3800830 134.2498440
 150.0344950 150.1055060 133.4332780 147.7867810 145.5218420 137.8756840
 147.7886250 146.0390810 137.0702740 146.9572120 145.0448600 137.8526770
 147.4683140 147.2328380 135.8827290 147.8099950 148.0770430 135.5881160
 146.5298950 147.3812120 135.9992630 151.1511030 144.7210650 132.2071880
 151.4586010 144.1657540 131.4907380 150.2211730 144.8555110 132.0244870
 149.1448430 153.3124220 131.7251730 148.7405430 152.6001470 131.2297630
 149.2311550 152.9677460 132.6139770 147.8577050 150.0867430 135.5050770
 148.4091640 150.1962770 134.7304020 148.3720560 150.4605030 136.2206000
 145.8453060 152.2069200 129.2258380 145.7250660 152.9331290 128.6139650
 145.5353950 151.4372110 128.7486290 148.3116720 145.5504270 132.6082050
 147.8684870 146.3313810 132.2766570 148.8701710 145.8734160 133.3152990
 152.5986530 148.4172790 138.2117370 152.1365900 148.6255810 139.0237310
 152.1964640 147.6032140 137.9088040 151.4275540 145.1714970 127.4887880
 150.8029720 145.1674840 128.2141190 151.3405660 144.3045930 127.0923850
 150.3492620 146.0951600 134.4671650 150.6464950 147.0014430 134.3863670
 150.8978180 145.6070380 133.8531220 148.1030940 150.6737840 130.3363300
 147.8771860 150.4575010 131.2409920 147.3223470 151.1066300 129.9909270
 150.5430150 151.5723420 141.0023570 150.4473750 150.6318150 140.8523970
 151.3862130 151.7938490 140.6071640 145.6740690 147.9837090 139.1557350
 145.2804080 148.8312300 139.3630130 144.9859090 147.3463460 139.3465990
 152.2485740 148.0672060 142.2254090 151.5584060 147.8744260 142.8600180
 152.9918040 148.3506700 142.7578390 142.9757740 145.9065550 133.1887430
 142.6870790 146.4768410 133.9012410 143.7203500 145.4270000 133.5518660
 143.1627970 149.8485670 124.3990150 143.0802640 150.7916430 124.5405140
 142.8111030 149.7060580 123.5202500 150.9626100 148.5824700 133.4660500
 150.9662160 148.1414650 132.6165040 151.8577220 148.9042030 133.5732320
 146.8128480 148.4651190 132.4254710 146.4728530 148.9426420 133.1821760
 146.0505800 148.0116310 132.0655810 151.0246250 149.5836780 126.4567260
 151.1459070 149.5423260 127.4053080 150.6394760 150.4460930 126.3013990
 150.0367750 151.8937920 125.8550560 149.4684650 151.4456170 125.2286470
 150.7456750 152.2530700 125.3215710 151.2634070 152.6426480 135.2125910
 151.6304200 152.1685050 135.9587250 151.0739130 153.5168050 135.5534250
 144.1274560 147.3870170 131.3419380 143.8421480 147.0225840 132.1798000
 144.0653420 146.6550630 130.7282520 149.0533440 151.6835120 137.5310120
 148.7490510 152.5627100 137.7560480 150.0079900 151.7434910 137.5667560
 145.1097170 152.5237860 138.6781480 144.7512110 153.1891710 139.2654820
 144.8151730 151.6921410 139.0494100 148.3110290 152.9822100 141.5621030
 148.0110430 153.1279280 140.6648850 149.0821530 152.4227390 141.4694420
 143.6205220 152.5229120 125.3016080 144.4900070 152.8053920 125.5852000
 143.1295540 153.3364990 125.1864890 146.6851810 144.2539980 129.8946880
 146.5566440 144.2457880 130.8431800 145.8613830 144.5923070 129.5437890
 143.6845740 146.0131100 139.3553580 142.9704260 146.2128020 139.9606190
 144.1040780 145.2370670 139.7268380 150.5130580 149.7396300 129.3300470
 149.8046730 150.2082640 129.7714080 150.7975060 149.0818310 129.9645660
 152.1386510 151.1593000 137.3293000 152.6371760 151.6338820 137.9944850
 152.2809460 150.2356520 137.5363030 148.7165600 148.0481380 126.7051180
 149.5656130 148.4851530 126.6391370 148.3496870 148.3601640 127.5323240
 147.6157020 154.3013740 125.1786710 148.3820290 154.1895100 125.7412140
 147.6931710 153.6051710 124.5263480 146.3103780 151.7338810 125.8619600
 146.3907370 150.7866320 125.9737000 147.2023530 152.0645690 125.9680260
 143.8374580 153.5553730 141.0975770 144.3413600 152.9761010 141.6692000
 143.0982000 153.8393960 141.6352140 145.8697660 151.6983320 141.9925840
 145.9103000 151.3997190 142.9011070 146.7243160 152.0990930 141.8333360
 149.6476050 154.2978870 127.1529350 150.0692470 154.1318740 127.9960740
 149.7726890 153.4879100 126.6584490 147.8103470 150.2775420 139.9600330
 147.2799930 149.7866370 139.3323670 148.4791540 150.7059620 139.4258260
 152.1603690 153.3216480 124.4006450 152.6809350 152.6065500 124.0347600
 152.8072090 153.9602350 124.7006960 148.2975770 147.2437790 140.0397620
 148.2032640 146.6258540 139.3148490 147.7173160 147.9704080 139.8127530
 151.0637210 145.8011030 137.0725010 150.6154510 145.8235290 136.2270560
 150.4302410 145.4030050 137.6695310 148.5434950 150.3712100 124.0987510
 148.3424010 149.5079460 124.4600850 148.3727000 150.2845460 123.1609110
 150.5729430 148.9702890 140.3351110 151.1629120 148.6618740 141.0228930
 149.7549670 148.4982640 140.4911010 147.3417750 147.4712720 124.0865390
 147.6443650 147.4780150 123.1784540 148.0812340 147.1210580 124.5833050
 150.5602680 146.4147340 125.0721590 150.2124680 145.7371330 124.4924040
 150.7615450 145.9536850 125.8864980 143.9008320 152.9434990 131.4685960
 143.2457160 152.6746630 130.8245660 144.7386270 152.8339470 131.0187940
 144.9384250 153.3287560 136.0089300 145.3057290 153.2414960 136.8885320
 144.3695070 152.5654110 135.9096160 144.4900250 150.2396650 139.9147720
 143.5956300 150.2063410 140.2541430 145.0297800 150.4383440 140.6798970
 143.1146400 150.1533920 127.4111290 142.2110480 150.4164120 127.2362950
 143.5987020 150.4245090 126.6311250 145.6573610 149.2099460 125.3205670
 146.3665310 148.7882680 124.8352950 144.9413550 149.2774690 124.6889020
 145.3047770 145.2638790 124.3608320 146.0275900 145.8047730 124.6789540
 145.5772290 144.9902210 123.4849860 144.9939960 144.5144980 134.2630940
 145.6416150 143.9642360 133.8226100 145.4141800 144.7688130 135.0846750
 144.7471960 144.6700650 137.0056260 144.3986780 145.1264470 137.7714440
 144.4159660 143.7757780 137.0878690 145.4192600 144.1976850 140.2807030
 145.9675590 144.0164900 139.5173140 145.4847910 143.4070960 140.8163340
 144.7294610 145.3032050 127.9543890 145.4873970 145.4160930 127.3807920
 144.2671780 146.1401250 127.9087320 151.2708420 147.4171320 130.9446200
 150.4582930 147.0428210 130.6042080 151.7750060 146.6616400 131.2467390
 147.1019760 145.8296100 126.4945860 147.6312520 145.0425900 126.3653810
 147.7348080 146.5087290 126.7281390 149.2957600 145.5671240 129.5491250
 148.6660340 144.8658550 129.7161380 148.7562740 146.3275370 129.3324410
 149.4213160 144.8455220 141.9843740 149.1397430 145.3488820 141.2204560
 149.8032860 144.0476970 141.6185870 145.4862590 149.3301990 109.4686370
 144.5979290 149.6717960 109.3666250 145.7703780 149.1302310 108.5767200
 143.4495600 151.9307640 115.3526070 144.0211710 151.1629840 115.3529710
 143.4497140 152.2296400 114.4432680 144.6920470 147.3392000 117.1395000
 144.5123310 146.4417750 117.4197760 144.2900550 147.8863870 117.8141950
 147.6623980 147.9133490 110.5024750 147.7690730 148.8137220 110.8093510
 146.7516340 147.8651460 110.2119400 145.3107140 149.8352500 115.7477340
 145.9917250 150.0990870 116.3664740 144.9955190 148.9953370 116.0815350
 149.5031710 150.8819860 114.8349930 150.0109930 151.3800830 115.4754950
 150.0344950 150.1055060 114.6589290 147.7867810 145.5218420 119.1013350
 147.7886250 146.0390810 118.2959250 146.9572120 145.0448600 119.0783280
 147.4683140 147.2328380 117.1083800 147.8099950 148.0770430 116.8137670
 146.5298950 147.3812120 117.2249140 151.1511030 144.7210650 113.4328390
 151.4586010 144.1657540 112.7163890 150.2211730 144.8555110 113.2501380
 149.1448430 153.3124220 112.9508240 148.7405430 152.6001470 112.4554140
 149.2311550 152.9677460 113.8396280 147.8577050 150.0867430 116.7307280
 148.4091640 150.1962770 115.9560530 148.3720560 150.4605030 117.4462510
 145.8453060 152.2069200 110.4514890 145.7250660 152.9331290 109.8396160
 145.5353950 151.4372110 109.9742800 148.3116720 145.5504270 113.8338560
 147.8684870 146.3313810 113.5023080 148.8701710 145.8734160 114.5409500
 152.5986530 148.4172790 119.4373880 152.1365900 148.6255810 120.2493820
 152.1964640 147.6032140 119.1344550 151.4275540 145.1714970 108.7144390
 150.8029720 145.1674840 109.4397700 151.3405660 144.3045930 108.3180360
 150.3492620 146.0951600 115.6928160 150.6464950 147.0014430 115.6120180
 150.8978180 145.6070380 115.0787730 148.1030940 150.6737840 111.5619810
 147.8771860 150.4575010 112.4666430 147.3223470 151.1066300 111.2165780
 150.5430150 151.5723420 122.2280080 150.4473750 150.6318150 122.0780480
 151.3862130 151.7938490 121.8328150 145.6740690 147.9837090 120.3813860
 145.2804080 148.8312300 120.5886640 144.9859090 147.3463460 120.5722500
 152.2485740 148.0672060 123.4510600 151.5584060 147.8744260 124.0856690
 152.9918040 148.3506700 123.9834900 142.9757740 145.9065550 114.4143940
 142.6870790 146.4768410 115.1268920 143.7203500 145.4270000 114.7775170
 143.1627970 149.8485670 105.6246660 143.0802640 150.7916430 105.7661650
 142.8111030 149.7060580 104.7459010 150.9626100 148.5824700 114.6917010
 150.9662160 148.1414650 113.8421550 151.8577220 148.9042030 114.7988830
 146.8128480 148.4651190 113.6511220 146.4728530 148.9426420 114.4078270
 146.0505800 148.0116310 113.2912320 151.0246250 149.5836780 107.6823770
 151.1459070 149.5423260 108.6309590 150.6394760 150.4460930 107.5270500
 150.0367750 151.8937920 107.0807070 149.4684650 151.4456170 106.4542980
 150.7456750 152.2530700 106.5472220 151.2634070 152.6426480 116.4382420
 151.6304200 152.1685050 117.1843760 151.0739130 153.5168050 116.7790760
 144.1274560 147.3870170 112.5675890 143.8421480 147.0225840 113.4054510
 144.0653420 146.6550630 111.9539030 149.0533440 151.6835120 118.7566630
 148.7490510 152.5627100 118.9816990 150.0079900 151.7434910 118.7924070
 145.1097170 152.5237860 119.9037990 144.7512110 153.1891710 120.4911330
 144.8151730 151.6921410 120.2750610 148.3110290 152.9822100 122.7877540
 148.0110430 153.1279280 121.8905360 149.0821530 152.4227390 122.6950930
 143.6205220 152.5229120 106.5272590 144.4900070 152.8053920 106.8108510
 143.1295540 153.3364990 106.4121400 146.6851810 144.2539980 111.1203390
 146.5566440 144.2457880 112.0688310 145.8613830 144.5923070 110.7694400
 143.6845740 146.0131100 120.5810090 142.9704260 146.2128020 121.1862700
 144.1040780 145.2370670 120.9524890 150.5130580 149.7396300 110.5556980
 149.8046730 150.2082640 110.9970590 150.7975060 149.0818310 111.1902170
 152.1386510 151.1593000 118.5549510 152.6371760 151.6338820 119.2201360
 152.2809460 150.2356520 118.7619540 148.7165600 148.0481380 107.9307690
 149.5656130 148.4851530 107.8647880 148.3496870 148.3601640 108.7579750
 147.6157020 154.3013740 106.4043220 148.3820290 154.1895100 106.9668650
 147.6931710 153.6051710 105.7519990 146.3103780 151.7338810 107.0876110
 146.3907370 150.7866320 107.1993510 147.2023530 152.0645690 107.1936770
 143.8374580 153.5553730 122.3232280 144.3413600 152.9761010 122.8948510
 143.0982000 153.8393960 122.8608650 145.8697660 151.6983320 123.2182350
 145.9103000 151.3997190 124.1267580 146.7243160 152.0990930 123.0589870
 149.6476050 154.2978870 108.3785860 150.0692470 154.1318740 109.2217250
 149.7726890 153.4879100 107.8841000 147.8103470 150.2775420 121.1856840
 147.2799930 149.7866370 120.5580180 148.4791540 150.7059620 120.6514770
 152.1603690 153.3216480 105.6262960 152.6809350 152.6065500 105.2604110
 152.8072090 153.9602350 105.9263470 148.2975770 147.2437790 121.2654130
 148.2032640 146.6258540 120.5405000 147.7173160 147.9704080 121.0384040
 151.0637210 145.8011030 118.2981520 150.6154510 145.8235290 117.4527070
 150.4302410 145.4030050 118.8951820 148.5434950 150.3712100 105.3244020
 148.3424010 149.5079460 105.6857360 148.3727000 150.2845460 104.3865620
 150.5729430 148.9702890 121.5607620 151.1629120 148.6618740 122.2485440
 149.7549670 148.4982640 121.7167520 147.3417750 147.4712720 105.3121900
 147.6443650 147.4780150 104.4041050 148.0812340 147.1210580 105.8089560
 150.5602680 146.4147340 106.2978100 150.2124680 145.7371330 105.7180550
 150.7615450 145.9536850 107.1121490 143.9008320 152.9434990 112.6942470
 143.2457160 152.6746630 112.0502170 144.7386270 152.8339470 112.2444450
 144.9384250 153.3287560 117.2345810 145.3057290 153.2414960 118.1141830
 144.3695070 152.5654110 117.1352670 144.4900250 150.2396650 121.1404230
 143.5956300 150.2063410 121.4797940 145.0297800 150.4383440 121.9055480
 143.1146400 150.1533920 108.6367800 142.2110480 150.4164120 108.4619460
 143.5987020 150.4245090 107.8567760 145.6573610 149.2099460 106.5462180
 146.3665310 148.7882680 106.0609460 144.9413550 149.2774690 105.9145530
 145.3047770 145.2638790 105.5864830 146.0275900 145.8047730 105.9046050
 145.5772290 144.9902210 104.7106370 144.9939960 144.5144980 115.4887450
 145.6416150 143.9642360 115.0482610 145.4141800 144.7688130 116.3103260
 144.7471960 144.6700650 118.2312770 144.3986780 145.1264470 118.9970950
 144.4159660 143.7757780 118.3135200 145.4192600 144.1976850 121.5063540
 145.9675590 144.0164900 120.7429650 145.4847910 143.4070960 122.0419850
 144.7294610 145.3032050 109.1800400 145.4873970 145.4160930 108.6064430
 144.2671780 146.1401250 109.1343830 151.2708420 147.4171320 112.1702710
 150.4582930 147.0428210 111.8298590 151.7750060 146.6616400 112.4723900
 147.1019760 145.8296100 107.7202370 147.6312520 145.0425900 107.5910320
 147.7348080 146.5087290 107.9537900 149.2957600 145.5671240 110.7747760
 148.6660340 144.8658550 110.9417890 148.7562740 146.3275370 110.5580920
 149.4213160 144.8455220 123.2100250 149.1397430 145.3488820 122.4461070
 149.8032860 144.0476970 122.8442380 145.4862590 149.3301990  90.6942880
 144.5979290 149.6717960  90.5922760 145.7703780 149.1302310  89.8023710
 143.4495600 151.9307640  96.5782580 144.0211710 151.1629840  96.5786220
 143.4497140 152.2296400  95.6689190 144.6920470 147.3392000  98.3651510
 144.5123310 146.4417750  98.6454270 144.2900550 147.8863870  99.0398460
 147.6623980 147.9133490  91.7281260 147.7690730 148.8137220  92.0350020
 146.7516340 147.8651460  91.4375910 145.3107140 149.8352500  96.9733850
 145.9917250 150.0990870  97.5921250 144.9955190 148.9953370  97.3071860
 149.5031710 150.8819860  96.0606440 150.0109930 151.3800830  96.7011460
 150.0344950 150.1055060  95.8845800 147.7867810 145.5218420 100.3269860
 147.7886250 146.0390810  99.5215760 146.9572120 145.0448600 100.3039790
 147.4683140 147.2328380  98.3340310 147.8099950 148.0770430  98.0394180
 146.5298950 147.3812120  98.4505650 151.1511030 144.7210650  94.6584900
 151.4586010 144.1657540  93.9420400 150.2211730 144.8555110  94.4757890
 149.1448430 153.3124220  94.1764750 148.7405430 152.6001470  93.6810650
 149.2311550 152.9677460  95.0652790 147.8577050 150.0867430  97.9563790
 148.4091640 150.1962770  97.1817040 148.3720560 150.4605030  98.6719020
 145.8453060 152.2069200  91.6771400 145.7250660 152.9331290  91.0652670
 145.5353950 151.4372110  91.1999310 148.3116720 145.5504270  95.0595070
 147.8684870 146.3313810  94.7279590 148.8701710 145.8734160  95.7666010
 152.5986530 148.4172790 100.6630390 152.1365900 148.6255810 101.4750330
 152.1964640 147.6032140 100.3601060 151.4275540 145.1714970  89.9400900
 150.8029720 145.1674840  90.6654210 151.3405660 144.3045930  89.5436870
 150.3492620 146.0951600  96.9184670 150.6464950 147.0014430  96.8376690
 150.8978180 145.6070380  96.3044240 148.1030940 150.6737840  92.7876320
 147.8771860 150.4575010  93.6922940 147.3223470 151.1066300  92.4422290
 150.5430150 151.5723420 103.4536590 150.4473750 150.6318150 103.3036990
 151.3862130 151.7938490 103.0584660 145.6740690 147.9837090 101.6070370
 145.2804080 148.8312300 101.8143150 144.9859090 147.3463460 101.7979010
 152.2485740 148.0672060 104.6767110 151.5584060 147.8744260 105.3113200
 152.9918040 148.3506700 105.2091410 142.9757740 145.9065550  95.6400450
 142.6870790 146.4768410  96.3525430 143.7203500 145.4270000  96.0031680
 143.1627970 149.8485670  86.8503170 143.0802640 150.7916430  86.9918160
 142.8111030 149.7060580  85.9715520 150.9626100 148.5824700  95.9173520
 150.9662160 148.1414650  95.0678060 151.8577220 148.9042030  96.0245340
 146.8128480 148.4651190  94.8767730 146.4728530 148.9426420  95.6334780
 146.0505800 148.0116310  94.5168830 151.0246250 149.5836780  88.9080280
 151.1459070 149.5423260  89.8566100 150.6394760 150.4460930  88.7527010
 150.0367750 151.8937920  88.3063580 149.4684650 151.4456170  87.6799490
 150.7456750 152.2530700  87.7728730 151.2634070 152.6426480  97.6638930
 151.6304200 152.1685050  98.4100270 151.0739130 153.5168050  98.0047270
 144.1274560 147.3870170  93.7932400 143.8421480 147.0225840  94.6311020
 144.0653420 146.6550630  93.1795540 149.0533440 151.6835120  99.9823140
 148.7490510 152.5627100 100.2073500 150.0079900 151.7434910 100.0180580
 145.1097170 152.5237860 101.1294500 144.7512110 153.1891710 101.7167840
 144.8151730 151.6921410 101.5007120 148.3110290 152.9822100 104.0134050
 148.0110430 153.1279280 103.1161870 149.0821530 152.4227390 103.9207440
 143.6205220 152.5229120  87.7529100 144.4900070 152.8053920  88.0365020
 143.1295540 153.3364990  87.6377910 146.6851810 144.2539980  92.3459900
 146.5566440 144.2457880  93.2944820 145.8613830 144.5923070  91.9950910
 143.6845740 146.0131100 101.8066600 142.9704260 146.2128020 102.4119210
 144.1040780 145.2370670 102.1781400 150.5130580 149.7396300  91.7813490
 149.8046730 150.2082640  92.2227100 150.7975060 149.0818310  92.4158680
 152.1386510 151.1593000  99.7806020 152.6371760 151.6338820 100.4457870
 152.2809460 150.2356520  99.9876050 148.7165600 148.0481380  89.1564200
 149.5656130 148.4851530  89.0904390 148.3496870 148.3601640  89.9836260
 147.6157020 154.3013740  87.6299730 148.3820290 154.1895100  88.1925160
 147.6931710 153.6051710  86.9776500 146.3103780 151.7338810  88.3132620
 146.3907370 150.7866320  88.4250020 147.2023530 152.0645690  88.4193280
 143.8374580 153.5553730 103.5488790 144.3413600 152.9761010 104.1205020
 143.0982000 153.8393960 104.0865160 145.8697660 151.6983320 104.4438860
 145.9103000 151.3997190 105.3524090 146.7243160 152.0990930 104.2846380
 149.6476050 154.2978870  89.6042370 150.0692470 154.1318740  90.4473760
 149.7726890 153.4879100  89.1097510 147.8103470 150.2775420 102.4113350
 147.2799930 149.7866370 101.7836690 148.4791540 150.7059620 101.8771280
 152.1603690 153.3216480  86.8519470 152.6809350 152.6065500  86.4860620
 152.8072090 153.9602350  87.1519980 148.2975770 147.2437790 102.4910640
 148.2032640 146.6258540 101.7661510 147.7173160 147.9704080 102.2640550
 151.0637210 145.8011030  99.5238030 150.6154510 145.8235290  98.6783580
 150.4302410 145.4030050 100.1208330 148.5434950 150.3712100  86.5500530
 148.3424010 149.5079460  86.9113870 148.3727000 150.2845460  85.6122130
 150.5729430 148.9702890 102.7864130 151.1629120 148.6618740 103.4741950
 149.7549670 148.4982640 102.9424030 147.3417750 147.4712720  86.5378410
 147.6443650 147.4780150  85.6297560 148.0812340 147.1210580  87.0346070
 150.5602680 146.4147340  87.5234610 150.2124680 145.7371330  86.9437060
 150.7615450 145.9536850  88.3378000 143.9008320 152.9434990  93.9198980
 143.2457160 152.6746630  93.2758680 144.7386270 152.8339470  93.4700960
 144.9384250 153.3287560  98.4602320 145.3057290 153.2414960  99.3398340
 144.3695070 152.5654110  98.3609180 144.4900250 150.2396650 102.3660740
 143.5956300 150.2063410 102.7054450 145.0297800 150.4383440 103.1311990
 143.1146400 150.1533920  89.8624310 142.2110480 150.4164120  89.6875970
 143.5987020 150.4245090  89.0824270 145.6573610 149.2099460  87.7718690
 146.3665310 148.7882680  87.2865970 144.9413550 149.2774690  87.1402040
 145.3047770 145.2638790  86.8121340 146.0275900 145.8047730  87.1302560
 145.5772290 144.9902210  85.9362880 144.9939960 144.5144980  96.7143960
 145.6416150 143.9642360  96.2739120 145.4141800 144.7688130  97.5359770
 144.7471960 144.6700650  99.4569280 144.3986780 145.1264470 100.2227460
 144.4159660 143.7757780  99.5391710 145.4192600 144.1976850 102.7320050
 145.9675590 144.0164900 101.9686160 145.4847910 143.4070960 103.2676360
 144.7294610 145.3032050  90.4056910 145.4873970 145.4160930  89.8320940
 144.2671780 146.1401250  90.3600340 151.2708420 147.4171320  93.3959220
 150.4582930 147.0428210  93.0555100 151.7750060 146.6616400  93.6980410
 147.1019760 145.8296100  88.9458880 147.6312520 145.0425900  88.8166830
 147.7348080 146.5087290  89.1794410 149.2957600 145.5671240  92.0004270
 148.6660340 144.8658550  92.1674400 148.7562740 146.3275370  91.7837430
 149.4213160 144.8455220 104.4356760 149.1397430 145.3488820 103.6717580
 149.8032860 144.0476970 104.0698890 145.4862590 149.3301990  71.9199390
 144.5979290 149.6717960  71.8179270 145.7703780 149.1302310  71.0280220
 143.4495600 151.9307640  77.8039090 144.0211710 151.1629840  77.8042730
 143.4497140 152.2296400  76.8945700 144.6920470 147.3392000  79.5908020
 144.5123310 146.4417750  79.8710780 144.2900550 147.8863870  80.2654970
 147.6623980 147.9133490  72.9537770 147.7690730 148.8137220  73.2606530
 146.7516340 147.8651460  72.6632420 145.3107140 149.8352500  78.1990360
 145.9917250 150.0990870  78.8177760 144.9955190 148.9953370  78.5328370
 149.5031710 150.8819860  77.2862950 150.0109930 151.3800830  77.9267970
 150.0344950 150.1055060  77.1102310 147.7867810 145.5218420  81.5526370
 147.7886250 146.0390810  80.7472270 146.9572120 145.0448600  81.5296300
 147.4683140 147.2328380  79.5596820 147.8099950 148.0770430  79.2650690
 146.5298950 147.3812120  79.6762160 151.1511030 144.7210650  75.8841410
 151.4586010 144.1657540  75.1676910 150.2211730 144.8555110  75.7014400
 149.1448430 153.3124220  75.4021260 148.7405430 152.6001470  74.9067160
 149.2311550 152.9677460  76.2909300 147.8577050 150.0867430  79.1820300
 148.4091640 150.1962770  78.4073550 148.3720560 150.4605030  79.8975530
 145.8453060 152.2069200  72.9027910 145.7250660 152.9331290  72.2909180
 145.5353950 151.4372110  72.4255820 148.3116720 145.5504270  76.2851580
 147.8684870 146.3313810  75.9536100 148.8701710 145.8734160  76.9922520
 152.5986530 148.4172790  81.8886900 152.1365900 148.6255810  82.7006840
 152.1964640 147.6032140  81.5857570 151.4275540 145.1714970  71.1657410
 150.8029720 145.1674840  71.8910720 151.3405660 144.3045930  70.7693380
 150.3492620 146.0951600  78.1441180 150.6464950 147.0014430  78.0633200
 150.8978180 145.6070380  77.5300750 148.1030940 150.6737840  74.0132830
 147.8771860 150.4575010  74.9179450 147.3223470 151.1066300  73.6678800
 150.5430150 151.5723420  84.6793100 150.4473750 150.6318150  84.5293500
 151.3862130 151.7938490  84.2841170 145.6740690 147.9837090  82.8326880
 145.2804080 148.8312300  83.0399660 144.9859090 147.3463460  83.0235520
 152.2485740 148.0672060  85.9023620 151.5584060 147.8744260  86.5369710
 152.9918040 148.3506700  86.4347920 142.9757740 145.9065550  76.8656960
 142.6870790 146.4768410  77.5781940 143.7203500 145.4270000  77.2288190
 143.1627970 149.8485670  68.0759680 143.0802640 150.7916430  68.2174670
 142.8111030 149.7060580  67.1972030 150.9626100 148.5824700  77.1430030
 150.9662160 148.1414650  76.2934570 151.8577220 148.9042030  77.2501850
 146.8128480 148.4651190  76.1024240 146.4728530 148.9426420  76.8591290
 146.0505800 148.0116310  75.7425340 151.0246250 149.5836780  70.1336790
 151.1459070 149.5423260  71.0822610 150.6394760 150.4460930  69.9783520
 150.0367750 151.8937920  69.5320090 149.4684650 151.4456170  68.9056000
 150.7456750 152.2530700  68.9985240 151.2634070 152.6426480  78.8895440
 151.6304200 152.1685050  79.6356780 151.0739130 153.5168050  79.2303780
 144.1274560 147.3870170  75.0188910 143.8421480 147.0225840  75.8567530
 144.0653420 146.6550630  74.4052050 149.0533440 151.6835120  81.2079650
 148.7490510 152.5627100  81.4330010 150.0079900 151.7434910  81.2437090
 145.1097170 152.5237860  82.3551010 144.7512110 153.1891710  82.9424350
 144.8151730 151.6921410  82.7263630 148.3110290 152.9822100  85.2390560
 148.0110430 153.1279280  84.3418380 149.0821530 152.4227390  85.1463950
 143.6205220 152.5229120  68.9785610 144.4900070 152.8053920  69.2621530
 143.1295540 153.3364990  68.8634420 146.6851810 144.2539980  73.5716410
 146.5566440 144.2457880  74.5201330 145.8613830 144.5923070  73.2207420
 143.6845740 146.0131100  83.0323110 142.9704260 146.2128020  83.6375720
 144.1040780 145.2370670  83.4037910 150.5130580 149.7396300  73.0070000
 149.8046730 150.2082640  73.4483610 150.7975060 149.0818310  73.6415190
 152.1386510 151.1593000  81.0062530 152.6371760 151.6338820  81.6714380
 152.2809460 150.2356520  81.2132560 148.7165600 148.0481380  70.3820710
 149.5656130 148.4851530  70.3160900 148.3496870 148.3601640  71.2092770
 147.6157020 154.3013740  68.8556240 148.3820290 154.1895100  69.4181670
 147.6931710 153.6051710  68.2033010 146.3103780 151.7338810  69.5389130
 146.3907370 150.7866320  69.6506530 147.2023530 152.0645690  69.6449790
 143.8374580 153.5553730  84.7745300 144.3413600 152.9761010  85.3461530
 143.0982000 153.8393960  85.3121670 145.8697660 151.6983320  85.6695370
 145.9103000 151.3997190  86.5780600 146.7243160 152.0990930  85.5102890
 149.6476050 154.2978870  70.8298880 150.0692470 154.1318740  71.6730270
 149.7726890 153.4879100  70.3354020 147.8103470 150.2775420  83.6369860
 147.2799930 149.7866370  83.0093200 148.4791540 150.7059620  83.1027790
 152.1603690 153.3216480  68.0775980 152.6809350 152.6065500  67.7117130
 152.8072090 153.9602350  68.3776490 148.2975770 147.2437790  83.7167150
 148.2032640 146.6258540  82.9918020 147.7173160 147.9704080  83.4897060
 151.0637210 145.8011030  80.7494540 150.6154510 145.8235290  79.9040090
 150.4302410 145.4030050  81.3464840 148.5434950 150.3712100  67.7757040
 148.3424010 149.5079460  68.1370380 148.3727000 150.2845460  66.8378640
 150.5729430 148.9702890  84.0120640 151.1629120 148.6618740  84.6998460
 149.7549670 148.4982640  84.1680540 147.3417750 147.4712720  67.7634920
 147.6443650 147.4780150  66.8554070 148.0812340 147.1210580  68.2602580
 150.5602680 146.4147340  68.7491120 150.2124680 145.7371330  68.1693570
 150.7615450 145.9536850  69.5634510 143.9008320 152.9434990  75.1455490
 143.2457160 152.6746630  74.5015190 144.7386270 152.8339470  74.6957470
 144.9384250 153.3287560  79.6858830 145.3057290 153.2414960  80.5654850
 144.3695070 152.5654110  79.5865690 144.4900250 150.2396650  83.5917250
 143.5956300 150.2063410  83.9310960 145.0297800 150.4383440  84.3568500
 143.1146400 150.1533920  71.0880820 142.2110480 150.4164120  70.9132480
 143.5987020 150.4245090  70.3080780 145.6573610 149.2099460  68.9975200
 146.3665310 148.7882680  68.5122480 144.9413550 149.2774690  68.3658550
 145.3047770 145.2638790  68.0377850 146.0275900 145.8047730  68.3559070
 145.5772290 144.9902210  67.1619390 144.9939960 144.5144980  77.9400470
 145.6416150 143.9642360  77.4995630 145.4141800 144.7688130  78.7616280
 144.7471960 144.6700650  80.6825790 144.3986780 145.1264470  81.4483970
 144.4159660 143.7757780  80.7648220 145.4192600 144.1976850  83.9576560
 145.9675590 144.0164900  83.1942670 145.4847910 143.4070960  84.4932870
 144.7294610 145.3032050  71.6313420 145.4873970 145.4160930  71.0577450
 144.2671780 146.1401250  71.5856850 151.2708420 147.4171320  74.6215730
 150.4582930 147.0428210  74.2811610 151.7750060 146.6616400  74.9236920
 147.1019760 145.8296100  70.1715390 147.6312520 145.0425900  70.0423340
 147.7348080 146.5087290  70.4050920 149.2957600 145.5671240  73.2260780
 148.6660340 144.8658550  73.3930910 148.7562740 146.3275370  73.0093940
 149.4213160 144.8455220  85.6613270 149.1397430 145.3488820  84.8974090
 149.8032860 144.0476970  85.2955400 145.4862590 149.3301990  53.1455900
 144.5979290 149.6717960  53.0435780 145.7703780 149.1302310  52.2536730
 143.4495600 151.9307640  59.0295600 144.0211710 151.1629840  59.0299240
 143.4497140 152.2296400  58.1202210 144.6920470 147.3392000  60.8164530
 144.5123310 146.4417750  61.0967290 144.2900550 147.8863870  61.4911480
 147.6623980 147.9133490  54.1794280 147.7690730 148.8137220  54.4863040
 146.7516340 147.8651460  53.8888930 145.3107140 149.8352500  59.4246870
 145.9917250 150.0990870  60.0434270 144.9955190 148.9953370  59.7584880
 149.5031710 150.8819860  58.5119460 150.0109930 151.3800830  59.1524480
 150.0344950 150.1055060  58.3358820 147.7867810 145.5218420  62.7782880
 147.7886250 146.0390810  61.9728780 146.9572120 145.0448600  62.7552810
 147.4683140 147.2328380  60.7853330 147.8099950 148.0770430  60.4907200
 146.5298950 147.3812120  60.9018670 151.1511030 144.7210650  57.1097920
 151.4586010 144.1657540  56.3933420 150.2211730 144.8555110  56.9270910
 149.1448430 153.3124220  56.6277770 148.7405430 152.6001470  56.1323670
 149.2311550 152.9677460  57.5165810 147.8577050 150.0867430  60.4076810
 148.4091640 150.1962770  59.6330060 148.3720560 150.4605030  61.1232040
 145.8453060 152.2069200  54.1284420 145.7250660 152.9331290  53.5165690
 145.5353950 151.4372110  53.6512330 148.3116720 145.5504270  57.5108090
 147.8684870 146.3313810  57.1792610 148.8701710 145.8734160  58.2179030
 152.5986530 148.4172790  63.1143410 152.1365900 148.6255810  63.9263350
 152.1964640 147.6032140  62.8114080 151.4275540 145.1714970  52.3913920
 150.8029720 145.1674840  53.1167230 151.3405660 144.3045930  51.9949890
 150.3492620 146.0951600  59.3697690 150.6464950 147.0014430  59.2889710
 150.8978180 145.6070380  58.7557260 148.1030940 150.6737840  55.2389340
 147.8771860 150.4575010  56.1435960 147.3223470 151.1066300  54.8935310
 150.5430150 151.5723420  65.9049610 150.4473750 150.6318150  65.7550010
 151.3862130 151.7938490  65.5097680 145.6740690 147.9837090  64.0583390
 145.2804080 148.8312300  64.2656170 144.9859090 147.3463460  64.2492030
 152.2485740 148.0672060  67.1280130 151.5584060 147.8744260  67.7626220
 152.9918040 148.3506700  67.6604430 142.9757740 145.9065550  58.0913470
 142.6870790 146.4768410  58.8038450 143.7203500 145.4270000  58.4544700
 143.1627970 149.8485670  49.3016190 143.0802640 150.7916430  49.4431180
 142.8111030 149.7060580  48.4228540 150.9626100 148.5824700  58.3686540
 150.9662160 148.1414650  57.5191080 151.8577220 148.9042030  58.4758360
 146.8128480 148.4651190  57.3280750 146.4728530 148.9426420  58.0847800
 146.0505800 148.0116310  56.9681850 151.0246250 149.5836780  51.3593300
 151.1459070 149.5423260  52.3079120 150.6394760 150.4460930  51.2040030
 150.0367750 151.8937920  50.7576600 149.4684650 151.4456170  50.1312510
 150.7456750 152.2530700  50.2241750 151.2634070 152.6426480  60.1151950
 151.6304200 152.1685050  60.8613290 151.0739130 153.5168050  60.4560290
 144.1274560 147.3870170  56.2445420 143.8421480 147.0225840  57.0824040
 144.0653420 146.6550630  55.6308560 149.0533440 151.6835120  62.4336160
 148.7490510 152.5627100  62.6586520 150.0079900 151.7434910  62.4693600
 145.1097170 152.5237860  63.5807520 144.7512110 153.1891710  64.1680860
 144.8151730 151.6921410  63.9520140 148.3110290 152.9822100  66.4647070
 148.0110430 153.1279280  65.5674890 149.0821530 152.4227390  66.3720460
 143.6205220 152.5229120  50.2042120 144.4900070 152.8053920  50.4878040
 143.1295540 153.3364990  50.0890930 146.6851810 144.2539980  54.7972920
 146.5566440 144.2457880  55.7457840 145.8613830 144.5923070  54.4463930
 143.6845740 146.0131100  64.2579620 142.9704260 146.2128020  64.8632230
 144.1040780 145.2370670  64.6294420 150.5130580 149.7396300  54.2326510
 149.8046730 150.2082640  54.6740120 150.7975060 149.0818310  54.8671700
 152.1386510 151.1593000  62.2319040 152.6371760 151.6338820  62.8970890
 152.2809460 150.2356520  62.4389070 148.7165600 148.0481380  51.6077220
 149.5656130 148.4851530  51.5417410 148.3496870 148.3601640  52.4349280
 147.6157020 154.3013740  50.0812750 148.3820290 154.1895100  50.6438180
 147.6931710 153.6051710  49.4289520 146.3103780 151.7338810  50.7645640
 146.3907370 150.7866320  50.8763040 147.2023530 152.0645690  50.8706300
 143.8374580 153.5553730  66.0001810 144.3413600 152.9761010  66.5718040
 143.0982000 153.8393960  66.5378180 145.8697660 151.6983320  66.8951880
 145.9103000 151.3997190  67.8037110 146.7243160 152.0990930  66.7359400
 149.6476050 154.2978870  52.0555390 150.0692470 154.1318740  52.8986780
 149.7726890 153.4879100  51.5610530 147.8103470 150.2775420  64.8626370
 147.2799930 149.7866370  64.2349710 148.4791540 150.7059620  64.3284300
 152.1603690 153.3216480  49.3032490 152.6809350 152.6065500  48.9373640
 152.8072090 153.9602350  49.6033000 148.2975770 147.2437790  64.9423660
 148.2032640 146.6258540  64.2174530 147.7173160 147.9704080  64.7153570
 151.0637210 145.8011030  61.9751050 150.6154510 145.8235290  61.1296600
 150.4302410 145.4030050  62.5721350 148.5434950 150.3712100  49.0013550
 148.3424010 149.5079460  49.3626890 148.3727000 150.2845460  48.0635150
 150.5729430 148.9702890  65.2377150 151.1629120 148.6618740  65.9254970
 149.7549670 148.4982640  65.3937050 147.3417750 147.4712720  48.9891430
 147.6443650 147.4780150  48.0810580 148.0812340 147.1210580  49.4859090
 150.5602680 146.4147340  49.9747630 150.2124680 145.7371330  49.3950080
 150.7615450 145.9536850  50.7891020 143.9008320 152.9434990  56.3712000
 143.2457160 152.6746630  55.7271700 144.7386270 152.8339470  55.9213980
 144.9384250 153.3287560  60.9115340 145.3057290 153.2414960  61.7911360
 144.3695070 152.5654110  60.8122200 144.4900250 150.2396650  64.8173760
 143.5956300 150.2063410  65.1567470 145.0297800 150.4383440  65.5825010
 143.1146400 150.1533920  52.3137330 142.2110480 150.4164120  52.1388990
 143.5987020 150.4245090  51.5337290 145.6573610 149.2099460  50.2231710
 146.3665310 148.7882680  49.7378990 144.9413550 149.2774690  49.5915060
 145.3047770 145.2638790  49.2634360 146.0275900 145.8047730  49.5815580
 145.5772290 144.9902210  48.3875900 144.9939960 144.5144980  59.1656980
 145.6416150 143.9642360  58.7252140 145.4141800 144.7688130  59.9872790
 144.7471960 144.6700650  61.9082300 144.3986780 145.1264470  62.6740480
 144.4159660 143.7757780  61.9904730 145.4192600 144.1976850  65.1833070
 145.9675590 144.0164900  64.4199180 145.4847910 143.4070960  65.7189380
 144.7294610 145.3032050  52.8569930 145.4873970 145.4160930  52.2833960
 144.2671780 146.1401250  52.8113360 151.2708420 147.4171320  55.8472240
 150.4582930 147.0428210  55.5068120 151.7750060 146.6616400  56.1493430
 147.1019760 145.8296100  51.3971900 147.6312520 145.0425900  51.2679850
 147.7348080 146.5087290  51.6307430 149.2957600 145.5671240  54.4517290
 148.6660340 144.8658550  54.6187420 148.7562740 146.3275370  54.2350450
 149.4213160 144.8455220  66.8869780 149.1397430 145.3488820  66.1230600
 149.8032860 144.0476970  66.5211910 145.4862590 149.3301990  34.3712410
 144.5979290 149.6717960  34.2692290 145.7703780 149.1302310  33.4793240
 143.4495600 151.9307640  40.2552110 144.0211710 151.1629840  40.2555750
 143.4497140 152.2296400  39.3458720 144.6920470 147.3392000  42.0421040
 144.5123310 146.4417750  42.3223800 144.2900550 147.8863870  42.7167990
 147.6623980 147.9133490  35.4050790 147.7690730 148.8137220  35.7119550
 146.7516340 147.8651460  35.1145440 145.3107140 149.8352500  40.6503380
 145.9917250 150.0990870  41.2690780 144.9955190 148.9953370  40.9841390
 149.5031710 150.8819860  39.7375970 150.0109930 151.3800830  40.3780990
 150.0344950 150.1055060  39.5615330 147.7867810 145.5218420  44.0039390
 147.7886250 146.0390810  43.1985290 146.9572120 145.0448600  43.9809320
 147.4683140 147.2328380  42.0109840 147.8099950 148.0770430  41.7163710
 146.5298950 147.3812120  42.1275180 151.1511030 144.7210650  38.3354430
 151.4586010 144.1657540  37.6189930 150.2211730 144.8555110  38.1527420
 149.1448430 153.3124220  37.8534280 148.7405430 152.6001470  37.3580180
 149.2311550 152.9677460  38.7422320 147.8577050 150.0867430  41.6333320
 148.4091640 150.1962770  40.8586570 148.3720560 150.4605030  42.3488550
 145.8453060 152.2069200  35.3540930 145.7250660 152.9331290  34.7422200
 145.5353950 151.4372110  34.8768840 148.3116720 145.5504270  38.7364600
 147.8684870 146.3313810  38.4049120 148.8701710 145.8734160  39.4435540
 152.5986530 148.4172790  44.3399920 152.1365900 148.6255810  45.1519860
 152.1964640 147.6032140  44.0370590 151.4275540 145.1714970  33.6170430
 150.8029720 145.1674840  34.3423740 151.3405660 144.3045930  33.2206400
 150.3492620 146.0951600  40.5954200 150.6464950 147.0014430  40.5146220
 150.8978180 145.6070380  39.9813770 148.1030940 150.6737840  36.4645850
 147.8771860 150.4575010  37.3692470 147.3223470 151.1066300  36.1191820
 150.5430150 151.5723420  47.1306120 150.4473750 150.6318150  46.9806520
 151.3862130 151.7938490  46.7354190 145.6740690 147.9837090  45.2839900
 145.2804080 148.8312300  45.4912680 144.9859090 147.3463460  45.4748540
 152.2485740 148.0672060  48.3536640 151.5584060 147.8744260  48.9882730
 152.9918040 148.3506700  48.8860940 142.9757740 145.9065550  39.3169980
 142.6870790 146.4768410  40.0294960 143.7203500 145.4270000  39.6801210
 143.1627970 149.8485670  30.5272700 143.0802640 150.7916430  30.6687690
 142.8111030 149.7060580  29.6485050 150.9626100 148.5824700  39.5943050
 150.9662160 148.1414650  38.7447590 151.8577220 148.9042030  39.7014870
 146.8128480 148.4651190  38.5537260 146.4728530 148.9426420  39.3104310
 146.0505800 148.0116310  38.1938360 151.0246250 149.5836780  32.5849810
 151.1459070 149.5423260  33.5335630 150.6394760 150.4460930  32.4296540
 150.0367750 151.8937920  31.9833110 149.4684650 151.4456170  31.3569020
 150.7456750 152.2530700  31.4498260 151.2634070 152.6426480  41.3408460
 151.6304200 152.1685050  42.0869800 151.0739130 153.5168050  41.6816800
 144.1274560 147.3870170  37.4701930 143.8421480 147.0225840  38.3080550
 144.0653420 146.6550630  36.8565070 149.0533440 151.6835120  43.6592670
 148.7490510 152.5627100  43.8843030 150.0079900 151.7434910  43.6950110
 145.1097170 152.5237860  44.8064030 144.7512110 153.1891710  45.3937370
 144.8151730 151.6921410  45.1776650 148.3110290 152.9822100  47.6903580
 148.0110430 153.1279280  46.7931400 149.0821530 152.4227390  47.5976970
 143.6205220 152.5229120  31.4298630 144.4900070 152.8053920  31.7134550
 143.1295540 153.3364990  31.3147440 146.6851810 144.2539980  36.0229430
 146.5566440 144.2457880  36.9714350 145.8613830 144.5923070  35.6720440
 143.6845740 146.0131100  45.4836130 142.9704260 146.2128020  46.0888740
 144.1040780 145.2370670  45.8550930 150.5130580 149.7396300  35.4583020
 149.8046730 150.2082640  35.8996630 150.7975060 149.0818310  36.0928210
 152.1386510 151.1593000  43.4575550 152.6371760 151.6338820  44.1227400
 152.2809460 150.2356520  43.6645580 148.7165600 148.0481380  32.8333730
 149.5656130 148.4851530  32.7673920 148.3496870 148.3601640  33.6605790
 147.6157020 154.3013740  31.3069260 148.3820290 154.1895100  31.8694690
 147.6931710 153.6051710  30.6546030 146.3103780 151.7338810  31.9902150
 146.3907370 150.7866320  32.1019550 147.2023530 152.0645690  32.0962810
 143.8374580 153.5553730  47.2258320 144.3413600 152.9761010  47.7974550
 143.0982000 153.8393960  47.7634690 145.8697660 151.6983320  48.1208390
 145.9103000 151.3997190  49.0293620 146.7243160 152.0990930  47.9615910
 149.6476050 154.2978870  33.2811900 150.0692470 154.1318740  34.1243290
 149.7726890 153.4879100  32.7867040 147.8103470 150.2775420  46.0882880
 147.2799930 149.7866370  45.4606220 148.4791540 150.7059620  45.5540810
 152.1603690 153.3216480  30.5289000 152.6809350 152.6065500  30.1630150
 152.8072090 153.9602350  30.8289510 148.2975770 147.2437790  46.1680170
 148.2032640 146.6258540  45.4431040 147.7173160 147.9704080  45.9410080
 151.0637210 145.8011030  43.2007560 150.6154510 145.8235290  42.3553110
 150.4302410 145.4030050  43.7977860 148.5434950 150.3712100  30.2270060
 148.3424010 149.5079460  30.5883400 148.3727000 150.2845460  29.2891660
 150.5729430 148.9702890  46.4633660 151.1629120 148.6618740  47.1511480
 149.7549670 148.4982640  46.6193560 147.3417750 147.4712720  30.2147940
 147.6443650 147.4780150  29.3067090 148.0812340 147.1210580  30.7115600
 150.5602680 146.4147340  31.2004140 150.2124680 145.7371330  30.6206590
 150.7615450 145.9536850  32.0147530 143.9008320 152.9434990  37.5968510
 143.2457160 152.6746630  36.9528210 144.7386270 152.8339470  37.1470490
 144.9384250 153.3287560  42.1371850 145.3057290 153.2414960  43.0167870
 144.3695070 152.5654110  42.0378710 144.4900250 150.2396650  46.0430270
 143.5956300 150.2063410  46.3823980 145.0297800 150.4383440  46.8081520
 143.1146400 150.1533920  33.5393840 142.2110480 150.4164120  33.3645500
 143.5987020 150.4245090  32.7593800 145.6573610 149.2099460  31.4488220
 146.3665310 148.7882680  30.9635500 144.9413550 149.2774690  30.8171570
 145.3047770 145.2638790  30.4890870 146.0275900 145.8047730  30.8072090
 145.5772290 144.9902210  29.6132410 144.9939960 144.5144980  40.3913490
 145.6416150 143.9642360  39.9508650 145.4141800 144.7688130  41.2129300
 144.7471960 144.6700650  43.1338810 144.3986780 145.1264470  43.8996990
 144.4159660 143.7757780  43.2161240 145.4192600 144.1976850  46.4089580
 145.9675590 144.0164900  45.6455690 145.4847910 143.4070960  46.9445890
 144.7294610 145.3032050  34.0826440 145.4873970 145.4160930  33.5090470
 144.2671780 146.1401250  34.0369870 151.2708420 147.4171320  37.0728750
 150.4582930 147.0428210  36.7324630 151.7750060 146.6616400  37.3749940
 147.1019760 145.8296100  32.6228410 147.6312520 145.0425900  32.4936360
 147.7348080 146.5087290  32.8563940 149.2957600 145.5671240  35.6773800
 148.6660340 144.8658550  35.8443930 148.7562740 146.3275370  35.4606960
 149.4213160 144.8455220  48.1126290 149.1397430 145.3488820  47.3487110
 149.8032860 144.0476970  47.7468420 145.4862590 149.3301990  15.5968920
 144.5979290 149.6717960  15.4948800 145.7703780 149.1302310  14.7049750
 143.4495600 151.9307640  21.4808620 144.0211710 151.1629840  21.4812260
 143.4497140 152.2296400  20.5715230 144.6920470 147.3392000  23.2677550
 144.5123310 146.4417750  23.5480310 144.2900550 147.8863870  23.9424500
 147.6623980 147.9133490  16.6307300 147.7690730 148.8137220  16.9376060
 146.7516340 147.8651460  16.3401950 145.3107140 149.8352500  21.8759890
 145.9917250 150.0990870  22.4947290 144.9955190 148.9953370  22.2097900
 149.5031710 150.8819860  20.9632480 150.0109930 151.3800830  21.6037500
 150.0344950 150.1055060  20.7871840 147.7867810 145.5218420  25.2295900
 147.7886250 146.0390810  24.4241800 146.9572120 145.0448600  25.2065830
 147.4683140 147.2328380  23.2366350 147.8099950 148.0770430  22.9420220
 146.5298950 147.3812120  23.3531690 151.1511030 144.7210650  19.5610940
 151.4586010 144.1657540  18.8446440 150.2211730 144.8555110  19.3783930
 149.1448430 153.3124220  19.0790790 148.7405430 152.6001470  18.5836690
 149.2311550 152.9677460  19.9678830 147.8577050 150.0867430  22.8589830
 148.4091640 150.1962770  22.0843080 148.3720560 150.4605030  23.5745060
 145.8453060 152.2069200  16.5797440 145.7250660 152.9331290  15.9678710
 145.5353950 151.4372110  16.1025350 148.3116720 145.5504270  19.9621110
 147.8684870 146.3313810  19.6305630 148.8701710 145.8734160  20.6692050
 152.5986530 148.4172790  25.5656430 152.1365900 148.6255810  26.3776370
 152.1964640 147.6032140  25.2627100 151.4275540 145.1714970  14.8426940
 150.8029720 145.1674840  15.5680250 151.3405660 144.3045930  14.4462910
 150.3492620 146.0951600  21.8210710 150.6464950 147.0014430  21.7402730
 150.8978180 145.6070380  21.2070280 148.1030940 150.6737840  17.6902360
 147.8771860 150.4575010  18.5948980 147.3223470 151.1066300  17.3448330
 150.5430150 151.5723420  28.3562630 150.4473750 150.6318150  28.2063030
 151.3862130 151.7938490  27.9610700 145.6740690 147.9837090  26.5096410
 145.2804080 148.8312300  26.7169190 144.9859090 147.3463460  26.7005050
 152.2485740 148.0672060  29.5793150 151.5584060 147.8744260  30.2139240
 152.9918040 148.3506700  30.1117450 142.9757740 145.9065550  20.5426490
 142.6870790 146.4768410  21.2551470 143.7203500 145.4270000  20.9057720
 143.1627970 149.8485670  11.7529210 143.0802640 150.7916430  11.8944200
 142.8111030 149.7060580  10.8741560 150.9626100 148.5824700  20.8199560
 150.9662160 148.1414650  19.9704100 151.8577220 148.9042030  20.9271380
 146.8128480 148.4651190  19.7793770 146.4728530 148.9426420  20.5360820
 146.0505800 148.0116310  19.4194870 151.0246250 149.5836780  13.8106320
 151.1459070 149.5423260  14.7592140 150.6394760 150.4460930  13.6553050
 150.0367750 151.8937920  13.2089620 149.4684650 151.4456170  12.5825530
 150.7456750 152.2530700  12.6754770 151.2634070 152.6426480  22.5664970
 151.6304200 152.1685050  23.3126310 151.0739130 153.5168050  22.9073310
 144.1274560 147.3870170  18.6958440 143.8421480 147.0225840  19.5337060
 144.0653420 146.6550630  18.0821580 149.0533440 151.6835120  24.8849180
 148.7490510 152.5627100  25.1099540 150.0079900 151.7434910  24.9206620
 145.1097170 152.5237860  26.0320540 144.7512110 153.1891710  26.6193880
 144.8151730 151.6921410  26.4033160 148.3110290 152.9822100  28.9160090
 148.0110430 153.1279280  28.0187910 149.0821530 152.4227390  28.8233480
 143.6205220 152.5229120  12.6555140 144.4900070 152.8053920  12.9391060
 143.1295540 153.3364990  12.5403950 146.6851810 144.2539980  17.2485940
 146.5566440 144.2457880  18.1970860 145.8613830 144.5923070  16.8976950
 143.6845740 146.0131100  26.7092640 142.9704260 146.2128020  27.3145250
 144.1040780 145.2370670  27.0807440 150.5130580 149.7396300  16.6839530
 149.8046730 150.2082640  17.1253140 150.7975060 149.0818310  17.3184720
 152.1386510 151.1593000  24.6832060 152.6371760 151.6338820  25.3483910
 152.2809460 150.2356520  24.8902090 148.7165600 148.0481380  14.0590240
 149.5656130 148.4851530  13.9930430 148.3496870 148.3601640  14.8862300
 147.6157020 154.3013740  12.5325770 148.3820290 154.1895100  13.0951200
 147.6931710 153.6051710  11.8802540 146.3103780 151.7338810  13.2158660
 146.3907370 150.7866320  13.3276060 147.2023530 152.0645690  13.3219320
 143.8374580 153.5553730  28.4514830 144.3413600 152.9761010  29.0231060
 143.0982000 153.8393960  28.9891200 145.8697660 151.6983320  29.3464900
 145.9103000 151.3997190  30.2550130 146.7243160 152.0990930  29.1872420
 149.6476050 154.2978870  14.5068410 150.0692470 154.1318740  15.3499800
 149.7726890 153.4879100  14.0123550 147.8103470 150.2775420  27.3139390
 147.2799930 149.7866370  26.6862730 148.4791540 150.7059620  26.7797320
 152.1603690 153.3216480  11.7545510 152.6809350 152.6065500  11.3886660
 152.8072090 153.9602350  12.0546020 148.2975770 147.2437790  27.3936680
 148.2032640 146.6258540  26.6687550 147.7173160 147.9704080  27.1666590
 151.0637210 145.8011030  24.4264070 150.6154510 145.8235290  23.5809620
 150.4302410 145.4030050  25.0234370 148.5434950 150.3712100  11.4526570
 148.3424010 149.5079460  11.8139910 148.3727000 150.2845460  10.5148170
 150.5729430 148.9702890  27.6890170 151.1629120 148.6618740  28.3767990
 149.7549670 148.4982640  27.8450070 147.3417750 147.4712720  11.4404450
 147.6443650 147.4780150  10.5323600 148.0812340 147.1210580  11.9372110
 150.5602680 146.4147340  12.4260650 150.2124680 145.7371330  11.8463100
 150.7615450 145.9536850  13.2404040 143.9008320 152.9434990  18.8225020
 143.2457160 152.6746630  18.1784720 144.7386270 152.8339470  18.3727000
 144.9384250 153.3287560  23.3628360 145.3057290 153.2414960  24.2424380
 144.3695070 152.5654110  23.2635220 144.4900250 150.2396650  27.2686780
 143.5956300 150.2063410  27.6080490 145.0297800 150.4383440  28.0338030
 143.1146400 150.1533920  14.7650350 142.2110480 150.4164120  14.5902010
 143.5987020 150.4245090  13.9850310 145.6573610 149.2099460  12.6744730
 146.3665310 148.7882680  12.1892010 144.9413550 149.2774690  12.0428080
 145.3047770 145.2638790  11.7147380 146.0275900 145.8047730  12.0328600
 145.5772290 144.9902210  10.8388920 144.9939960 144.5144980  21.6170000
 145.6416150 143.9642360  21.1765160 145.4141800 144.7688130  22.4385810
 144.7471960 144.6700650  24.3595320 144.3986780 145.1264470  25.1253500
 144.4159660 143.7757780  24.4417750 145.4192600 144.1976850  27.6346090
 145.9675590 144.0164900  26.8712200 145.4847910 143.4070960  28.1702400
 144.7294610 145.3032050  15.3082950 145.4873970 145.4160930  14.7346980
 144.2671780 146.1401250  15.2626380 151.2708420 147.4171320  18.2985260
 150.4582930 147.0428210  17.9581140 151.7750060 146.6616400  18.6006450
 147.1019760 145.8296100  13.8484920 147.6312520 145.0425900  13.7192870
 147.7348080 146.5087290  14.0820450 149.2957600 145.5671240  16.9030310
 148.6660340 144.8658550  17.0700440 148.7562740 146.3275370  16.6863470
 149.4213160 144.8455220  29.3382800 149.1397430 145.3488820  28.5743620
 149.8032860 144.0476970  28.9724930 143.4495600 151.9307640   2.7065130
 144.0211710 151.1629840   2.7068770 143.4497140 152.2296400   1.7971740
 144.6920470 147.3392000   4.4934060 144.5123310 146.4417750   4.7736820
 144.2900550 147.8863870   5.1681010 145.3107140 149.8352500   3.1016400
 145.9917250 150.0990870   3.7203800 144.9955190 148.9953370   3.4354410
 149.5031710 150.8819860   2.1888990 150.0109930 151.3800830   2.8294010
 150.0344950 150.1055060   2.0128350 147.7867810 145.5218420   6.4552410
 147.7886250 146.0390810   5.6498310 146.9572120 145.0448600   6.4322340
 147.4683140 147.2328380   4.4622860 147.8099950 148.0770430   4.1676730
 146.5298950 147.3812120   4.5788200 147.8577050 150.0867430   4.0846340
 148.4091640 150.1962770   3.3099590 148.3720560 150.4605030   4.8001570
 152.5986530 148.4172790   6.7912940 152.1365900 148.6255810   7.6032880
 152.1964640 147.6032140   6.4883610 150.3492620 146.0951600   3.0467220
 150.6464950 147.0014430   2.9659240 150.8978180 145.6070380   2.4326790
 150.5430150 151.5723420   9.5819140 150.4473750 150.6318150   9.4319540
 151.3862130 151.7938490   9.1867210 145.6740690 147.9837090   7.7352920
 145.2804080 148.8312300   7.9425700 144.9859090 147.3463460   7.9261560
 152.2485740 148.0672060  10.8049660 151.5584060 147.8744260  11.4395750
 152.9918040 148.3506700  11.3373960 142.9757740 145.9065550   1.7683000
 142.6870790 146.4768410   2.4807980 143.7203500 145.4270000   2.1314230
 151.2634070 152.6426480   3.7921480 151.6304200 152.1685050   4.5382820
 151.0739130 153.5168050   4.1329820 149.0533440 151.6835120   6.1105690
 148.7490510 152.5627100   6.3356050 150.0079900 151.7434910   6.1463130
 145.1097170 152.5237860   7.2577050 144.7512110 153.1891710   7.8450390
 144.8151730 151.6921410   7.6289670 148.3110290 152.9822100  10.1416600
 148.0110430 153.1279280   9.2444420 149.0821530 152.4227390  10.0489990
 143.6845740 146.0131100   7.9349150 142.9704260 146.2128020   8.5401760
 144.1040780 145.2370670   8.3063950 152.1386510 151.1593000   5.9088570
 152.6371760 151.6338820   6.5740420 152.2809460 150.2356520   6.1158600
 143.8374580 153.5553730   9.6771340 144.3413600 152.9761010  10.2487570
 143.0982000 153.8393960  10.2147710 145.8697660 151.6983320  10.5721410
 145.9103000 151.3997190  11.4806640 146.7243160 152.0990930  10.4128930
 147.8103470 150.2775420   8.5395900 147.2799930 149.7866370   7.9119240
 148.4791540 150.7059620   8.0053830 148.2975770 147.2437790   8.6193190
 148.2032640 146.6258540   7.8944060 147.7173160 147.9704080   8.3923100
 151.0637210 145.8011030   5.6520580 150.6154510 145.8235290   4.8066130
 150.4302410 145.4030050   6.2490880 150.5729430 148.9702890   8.9146680
 151.1629120 148.6618740   9.6024500 149.7549670 148.4982640   9.0706580
 144.9384250 153.3287560   4.5884870 145.3057290 153.2414960   5.4680890
 144.3695070 152.5654110   4.4891730 144.4900250 150.2396650   8.4943290
 143.5956300 150.2063410   8.8337000 145.0297800 150.4383440   9.2594540
 144.9939960 144.5144980   2.8426510 145.6416150 143.9642360   2.4021670
 145.4141800 144.7688130   3.6642320 144.7471960 144.6700650   5.5851830
 144.3986780 145.1264470   6.3510010 144.4159660 143.7757780   5.6674260
 145.4192600 144.1976850   8.8602600 145.9675590 144.0164900   8.0968710
 145.4847910 143.4070960   9.3958910 149.4213160 144.8455220  10.5639310
 149.1397430 145.3488820   9.8000130 149.8032860 144.0476970  10.1981440
 145.4862590 130.5558500 147.0173350 144.5979290 130.8974470 146.9153230
 145.7703780 130.3558820 146.1254180 147.6623980 129.1390000 148.0511730
 147.7690730 130.0393730 148.3580490 146.7516340 129.0907970 147.7606380
 143.5422100 137.5450770 145.5229860 143.1650080 138.0337870 144.7914760
 143.7995170 138.2176050 146.1536390 151.1511030 125.9467160 150.9815370
 151.4586010 125.3914050 150.2650870 150.2211730 126.0811620 150.7988360
 149.1448430 134.5380730 150.4995220 148.7405430 133.8257980 150.0041120
 149.2311550 134.1933970 151.3883260 145.8453060 133.4325710 148.0001870
 145.7250660 134.1587800 147.3883140 145.5353950 132.6628620 147.5229780
 144.7286060 138.3041040 150.2176690 144.3214140 138.4455630 149.3630290
 145.6199070 138.0201200 150.0147900 149.0007720 142.5186820 148.3299360
 148.8250200 141.6022360 148.1167160 148.1463460 142.8774110 148.5697160
 148.3116720 126.7760780 151.3825540 147.8684870 127.5570320 151.0510060
 148.8701710 127.0990670 152.0896480 151.4275540 126.3971480 146.2631370
 150.8029720 126.3931350 146.9884680 151.3405660 125.5302440 145.8667340
 148.1030940 131.8994350 149.1106790 147.8771860 131.6831520 150.0153410
 147.3223470 132.3322810 148.7652760 143.1627970 131.0742180 143.1733640
 143.0802640 132.0172940 143.3148630 142.8111030 130.9317090 142.2945990
 150.9626100 129.8081210 152.2403990 150.9662160 129.3671160 151.3908530
 151.8577220 130.1298540 152.3475810 146.8128480 129.6907700 151.1998200
 146.4728530 130.1682930 151.9565250 146.0505800 129.2372820 150.8399300
 151.0246250 130.8093290 145.2310750 151.1459070 130.7679770 146.1796570
 150.6394760 131.6717440 145.0757480 150.0367750 133.1194430 144.6294050
 149.4684650 132.6712680 144.0029960 150.7456750 133.4787210 144.0959200
 144.1274560 128.6126680 150.1162870 143.8421480 128.2482350 150.9541490
 144.0653420 127.8807140 149.5026010 147.5815230 137.1152620 146.9020460
 146.8077490 136.5750240 146.7419180 148.3109860 136.5959230 146.5638220
 147.6252630 136.7833000 150.5399270 148.1431300 135.9801260 150.4856160
 147.1736650 136.7212140 151.3816100 152.5122130 138.0499280 145.8126570
 152.8537830 138.7941510 145.3169890 151.6834840 138.3630400 146.1751400
 151.4812820 138.1312810 148.5842490 152.1683950 138.6782020 148.9650080
 150.6945240 138.6753540 148.6192100 143.6205220 133.7485630 144.0759570
 144.4900070 134.0310430 144.3595490 143.1295540 134.5621500 143.9608380
 150.7840030 135.1358840 148.1967850 151.2402810 135.9464090 148.4228040
 150.4328240 134.8181980 149.0286340 146.6851810 125.4796490 148.6690370
 146.5566440 125.4714390 149.6175290 145.8613830 125.8179580 148.3181380
 143.9876470 142.9613010 144.6421200 144.3474110 143.5602350 143.9878470
 143.8468810 143.5072900 145.4156230 150.0045090 140.3444210 145.4594870
 149.9955190 141.0773900 144.8439380 149.0843450 140.0975790 145.5521830
 145.6051730 135.5659100 146.2041630 144.9979680 136.3058000 146.2136930
 146.0801080 135.6558460 145.3779830 152.9904690 140.4072450 144.1220060
 153.0916670 140.2036440 143.1922040 152.0906430 140.1530730 144.3267840
 150.5130580 130.9652810 148.1043960 149.8046730 131.4339150 148.5457570
 150.7975060 130.3074820 148.7389150 151.6322800 142.9258770 148.8167730
 151.8864300 142.8880160 147.8947100 150.6835280 142.7992100 148.8095980
 148.7165600 129.2737890 145.4794670 149.5656130 129.7108040 145.4134860
 148.3496870 129.5858150 146.3066730 147.6157020 135.5270250 143.9530200
 148.3820290 135.4151610 144.5155630 147.6931710 134.8308220 143.3006970
 146.3103780 132.9595320 144.6363090 146.3907370 132.0122830 144.7480490
 147.2023530 133.2902200 144.7423750 147.1118490 143.1090710 151.7397630
 147.8480970 142.5606170 152.0106200 147.4959410 143.9746720 151.6003620
 143.9963970 139.1764280 147.6139140 143.0703750 139.4185420 147.6044550
 144.4620400 140.0038540 147.4923890 150.2220800 142.2821020 143.5623200
 151.0149410 142.5709850 143.1104990 149.7025150 141.8513190 142.8835680
 150.7398200 137.5024430 143.4265550 150.6348840 136.8876780 144.1526930
 150.5722420 136.9790320 142.6428560 149.6476050 135.5235380 145.9272840
 150.0692470 135.3575250 146.7704230 149.7726890 134.7135610 145.4327980
 152.1603690 134.5472990 143.1749940 152.6809350 133.8322010 142.8091090
 152.8072090 135.1858860 143.4750450 148.5434950 131.5968610 142.8731000
 148.3424010 130.7335970 143.2344340 148.3727000 131.5101970 141.9352600
 147.3417750 128.6969230 142.8608880 147.6443650 128.7036660 141.9528030
 148.0812340 128.3467090 143.3576540 150.5602680 127.6403850 143.8465080
 150.2124680 126.9627840 143.2667530 150.7615450 127.1793360 144.6608470
 146.3647880 138.0011650 143.6938680 146.8022750 138.5441320 144.3496260
 146.8495610 137.1758600 143.7035020 143.5793680 140.7900680 151.1458940
 143.9096690 139.9221740 150.9137580 144.0084680 140.9959200 151.9763900
 148.1755600 139.1209690 148.8060910 147.8751140 138.9974660 149.7064820
 148.0693090 138.2618280 148.3976640 143.9008320 134.1691500 150.2429450
 143.2457160 133.9003140 149.5989150 144.7386270 134.0595980 149.7931430
 143.1146400 131.3790430 146.1854780 142.2110480 131.6420630 146.0106440
 143.5987020 131.6501600 145.4054740 145.6573610 130.4355970 144.0949160
 146.3665310 130.0139190 143.6096440 144.9413550 130.5031200 143.4632510
 145.3047770 126.4895300 143.1351810 146.0275900 127.0304240 143.4533030
 145.5772290 126.2158720 142.2593350 144.1066590 142.6971780 149.2255520
 143.9388630 142.0642460 149.9237410 143.2401100 142.9031180 148.8749710
 144.7294610 126.5288560 146.7287380 145.4873970 126.6417440 146.1551410
 144.2671780 127.3657760 146.6830810 151.2708420 128.6427830 149.7189690
 150.4582930 128.2684720 149.3785570 151.7750060 127.8872910 150.0210880
 145.7129290 141.3905010 146.6705660 145.1876910 141.7713040 145.9667620
 145.6373870 142.0155780 147.3915370 147.1019760 127.0552610 145.2689350
 147.6312520 126.2682410 145.1397300 147.7348080 127.7343800 145.5024880
 149.2957600 126.7927750 148.3234740 148.6660340 126.0915060 148.4904870
 148.7562740 127.5531880 148.1067900 148.3122260 143.3387390 145.5454910
 149.0441080 143.0546670 144.9978800 148.5715930 143.1000670 146.4354290
 147.4737050 139.4552120 145.5501240 146.8445930 139.9237220 146.0987070
 147.5884880 138.6101340 145.9847430 147.0770640 135.5956610 134.4587470
 146.2455520 135.3405320 134.8583980 147.6851620 135.6667380 135.1945390
 147.0571900 139.6296700 134.6545490 147.3599940 138.7394440 134.4755710
 147.8015490 140.1866920 134.4267740 145.4862590 130.5558500 128.2429860
 144.5979290 130.8974470 128.1409740 145.7703780 130.3558820 127.3510690
 143.4495600 133.1564150 134.1269560 144.0211710 132.3886350 134.1273200
 143.4497140 133.4552910 133.2176170 144.6920470 128.5648510 135.9138490
 144.5123310 127.6674260 136.1941250 144.2900550 129.1120380 136.5885440
 147.6623980 129.1390000 129.2768240 147.7690730 130.0393730 129.5837000
 146.7516340 129.0907970 128.9862890 145.3107140 131.0609010 134.5220830
 145.9917250 131.3247380 135.1408230 144.9955190 130.2209880 134.8558840
 149.5031710 132.1076370 133.6093420 150.0109930 132.6057340 134.2498440
 150.0344950 131.3311570 133.4332780 147.7867810 126.7474930 137.8756840
 147.7886250 127.2647320 137.0702740 146.9572120 126.2705110 137.8526770
 149.0370660 136.3870110 136.0530340 148.7040040 137.0139030 136.6951410
 149.2137340 136.9131990 135.2732010 147.4683140 128.4584890 135.8827290
 147.8099950 129.3026940 135.5881160 146.5298950 128.6068630 135.9992630
 148.2489760 138.3550910 137.8679520 148.8663760 139.0301990 137.5863970
 147.3882880 138.7638890 137.7767020 143.5422100 137.5450770 126.7486370
 143.1650080 138.0337870 126.0171270 143.7995170 138.2176050 127.3792900
 151.1511030 125.9467160 132.2071880 151.4586010 125.3914050 131.4907380
 150.2211730 126.0811620 132.0244870 149.1448430 134.5380730 131.7251730
 148.7405430 133.8257980 131.2297630 149.2311550 134.1933970 132.6139770
 149.6130130 138.2248290 133.8890940 149.3158420 137.6193760 133.2098720
 150.5629950 138.2625600 133.7780300 147.8577050 131.3123940 135.5050770
 148.4091640 131.4219280 134.7304020 148.3720560 131.6861540 136.2206000
 148.7048560 137.9629980 140.5398740 147.8077090 138.1869950 140.7872140
 148.7301430 138.0864920 139.5910140 147.5319780 134.8343300 139.1156110
 147.3927550 135.7066100 139.4843510 146.6501140 134.4916110 138.9704050
 149.3300130 140.7765000 141.3241260 149.3015560 141.1807950 140.4569690
 149.1665100 139.8475360 141.1612860 145.8453060 133.4325710 129.2258380
 145.7250660 134.1587800 128.6139650 145.5353950 132.6628620 128.7486290
 143.4838430 136.6040850 135.0327020 143.5618850 136.7389620 134.0882740
 144.0980110 135.8956740 135.2255140 144.7286060 138.3041040 131.4433200
 144.3214140 138.4455630 130.5886800 145.6199070 138.0201200 131.2404410
 149.0007720 142.5186820 129.5555870 148.8250200 141.6022360 129.3423670
 148.1463460 142.8774110 129.7953670 143.5397950 137.6455020 137.5721480
 143.7028990 137.1760380 136.7540850 144.0050400 137.1378580 138.2370320
 148.3116720 126.7760780 132.6082050 147.8684870 127.5570320 132.2766570
 148.8701710 127.0990670 133.3152990 152.5986530 129.6429300 138.2117370
 152.1365900 129.8512320 139.0237310 152.1964640 128.8288650 137.9088040
 151.4275540 126.3971480 127.4887880 150.8029720 126.3931350 128.2141190
 151.3405660 125.5302440 127.0923850 150.3492620 127.3208110 134.4671650
 150.6464950 128.2270940 134.3863670 150.8978180 126.8326890 133.8531220
 148.1030940 131.8994350 130.3363300 147.8771860 131.6831520 131.2409920
 147.3223470 132.3322810 129.9909270 150.5430150 132.7979930 141.0023570
 150.4473750 131.8574660 140.8523970 151.3862130 133.0195000 140.6071640
 145.6740690 129.2093600 139.1557350 145.2804080 130.0568810 139.3630130
 144.9859090 128.5719970 139.3465990 152.2485740 129.2928570 142.2254090
 151.5584060 129.1000770 142.8600180 152.9918040 129.5763210 142.7578390
 142.9757740 127.1322060 133.1887430 142.6870790 127.7024920 133.9012410
 143.7203500 126.6526510 133.5518660 143.1627970 131.0742180 124.3990150
 143.0802640 132.0172940 124.5405140 142.8111030 130.9317090 123.5202500
 150.9626100 129.8081210 133.4660500 150.9662160 129.3671160 132.6165040
 151.8577220 130.1298540 133.5732320 146.8128480 129.6907700 132.4254710
 146.4728530 130.1682930 133.1821760 146.0505800 129.2372820 132.0655810
 151.0246250 130.8093290 126.4567260 151.1459070 130.7679770 127.4053080
 150.6394760 131.6717440 126.3013990 150.0367750 133.1194430 125.8550560
 149.4684650 132.6712680 125.2286470 150.7456750 133.4787210 125.3215710
 145.1136930 137.0206450 139.7317290 144.7291720 136.3800120 140.3300250
 145.4249120 137.7242570 140.3012020 151.2634070 133.8682990 135.2125910
 151.6304200 133.3941560 135.9587250 151.0739130 134.7424560 135.5534250
 144.1274560 128.6126680 131.3419380 143.8421480 128.2482350 132.1798000
 144.0653420 127.8807140 130.7282520 149.0533440 132.9091630 137.5310120
 148.7490510 133.7883610 137.7560480 150.0079900 132.9691420 137.5667560
 147.5815230 137.1152620 128.1276970 146.8077490 136.5750240 127.9675690
 148.3109860 136.5959230 127.7894730 147.6252630 136.7833000 131.7655780
 148.1431300 135.9801260 131.7112670 147.1736650 136.7212140 132.6072610
 152.5122130 138.0499280 127.0383080 152.8537830 138.7941510 126.5426400
 151.6834840 138.3630400 127.4007910 145.1097170 133.7494370 138.6781480
 144.7512110 134.4148220 139.2654820 144.8151730 132.9177920 139.0494100
 148.3110290 134.2078610 141.5621030 148.0110430 134.3535790 140.6648850
 149.0821530 133.6483900 141.4694420 151.4812820 138.1312810 129.8099000
 152.1683950 138.6782020 130.1906590 150.6945240 138.6753540 129.8448610
 143.6205220 133.7485630 125.3016080 144.4900070 134.0310430 125.5852000
 143.1295540 134.5621500 125.1864890 150.7840030 135.1358840 129.4224360
 151.2402810 135.9464090 129.6484550 150.4328240 134.8181980 130.2542850
 146.6851810 125.4796490 129.8946880 146.5566440 125.4714390 130.8431800
 145.8613830 125.8179580 129.5437890 143.9876470 142.9613010 125.8677710
 144.3474110 143.5602350 125.2134980 143.8468810 143.5072900 126.6412740
 143.6845740 127.2387610 139.3553580 142.9704260 127.4384530 139.9606190
 144.1040780 126.4627180 139.7268380 143.9718330 141.2267870 140.3420110
 144.0809450 140.2862610 140.2015500 143.3198890 141.4922620 139.6933840
 151.9630920 139.4983760 141.7418230 151.6427790 138.7793000 142.2863920
 151.2889280 140.1738830 141.8154290 150.0045090 140.3444210 126.6851380
 149.9955190 141.0773900 126.0695890 149.0843450 140.0975790 126.7778340
 145.6051730 135.5659100 127.4298140 144.9979680 136.3058000 127.4393440
 146.0801080 135.6558460 126.6036340 152.9904690 140.4072450 125.3476570
 153.0916670 140.2036440 124.4178550 152.0906430 140.1530730 125.5524350
 150.5130580 130.9652810 129.3300470 149.8046730 131.4339150 129.7714080
 150.7975060 130.3074820 129.9645660 152.1386510 132.3849510 137.3293000
 152.6371760 132.8595330 137.9944850 152.2809460 131.4613030 137.5363030
 151.6322800 142.9258770 130.0424240 151.8864300 142.8880160 129.1203610
 150.6835280 142.7992100 130.0352490 148.7165600 129.2737890 126.7051180
 149.5656130 129.7108040 126.6391370 148.3496870 129.5858150 127.5323240
 147.6157020 135.5270250 125.1786710 148.3820290 135.4151610 125.7412140
 147.6931710 134.8308220 124.5263480 146.3103780 132.9595320 125.8619600
 146.3907370 132.0122830 125.9737000 147.2023530 133.2902200 125.9680260
 147.1118490 143.1090710 132.9654140 147.8480970 142.5606170 133.2362710
 147.4959410 143.9746720 132.8260130 143.9963970 139.1764280 128.8395650
 143.0703750 139.4185420 128.8301060 144.4620400 140.0038540 128.7180400
 146.1176770 142.2936780 142.1539720 146.9189500 142.6148830 142.5675120
 145.6028590 141.9332360 142.8759630 150.2220800 142.2821020 124.7879710
 151.0149410 142.5709850 124.3361500 149.7025150 141.8513190 124.1092190
 143.8374580 134.7810240 141.0975770 144.3413600 134.2017520 141.6692000
 143.0982000 135.0650470 141.6352140 150.7398200 137.5024430 124.6522060
 150.6348840 136.8876780 125.3783440 150.5722420 136.9790320 123.8685070
 150.8912520 136.1881230 140.6311290 150.1258190 136.7566230 140.5465960
 151.0728480 135.8957440 139.7379520 145.8697660 132.9239830 141.9925840
 145.9103000 132.6253700 142.9011070 146.7243160 133.3247440 141.8333360
 149.6476050 135.5235380 127.1529350 150.0692470 135.3575250 127.9960740
 149.7726890 134.7135610 126.6584490 147.8103470 131.5031930 139.9600330
 147.2799930 131.0122880 139.3323670 148.4791540 131.9316130 139.4258260
 152.1603690 134.5472990 124.4006450 152.6809350 133.8322010 124.0347600
 152.8072090 135.1858860 124.7006960 148.2975770 128.4694300 140.0397620
 148.2032640 127.8515050 139.3148490 147.7173160 129.1960590 139.8127530
 151.0637210 127.0267540 137.0725010 150.6154510 127.0491800 136.2270560
 150.4302410 126.6286560 137.6695310 151.4696760 135.9221870 137.6937450
 151.8884870 136.7654600 137.5213690 150.5505390 136.0593910 137.4644230
 148.5434950 131.5968610 124.0987510 148.3424010 130.7335970 124.4600850
 148.3727000 131.5101970 123.1609110 149.3204180 142.2274880 138.8095180
 148.7825270 142.9520940 138.4903880 149.5738140 141.7505220 138.0192520
 150.5729430 130.1959400 140.3351110 151.1629120 129.8875250 141.0228930
 149.7549670 129.7239150 140.4911010 147.3417750 128.6969230 124.0865390
 147.6443650 128.7036660 123.1784540 148.0812340 128.3467090 124.5833050
 152.1766390 143.4626090 139.0681830 152.1025090 144.3661230 139.3754200
 151.2745230 143.1437990 139.0403900 150.5602680 127.6403850 125.0721590
 150.2124680 126.9627840 124.4924040 150.7615450 127.1793360 125.8864980
 146.3647880 138.0011650 124.9195190 146.8022750 138.5441320 125.5752770
 146.8495610 137.1758600 124.9291530 143.5793680 140.7900680 132.3715450
 143.9096690 139.9221740 132.1394090 144.0084680 140.9959200 133.2020410
 148.1755600 139.1209690 130.0317420 147.8751140 138.9974660 130.9321330
 148.0693090 138.2618280 129.6233150 144.0683890 141.6571270 135.1097080
 143.6314880 141.8372070 135.9421230 144.6361570 142.4145890 134.9678800
 143.9008320 134.1691500 131.4685960 143.2457160 133.9003140 130.8245660
 144.7386270 134.0595980 131.0187940 144.9384250 134.5544070 136.0089300
 145.3057290 134.4671470 136.8885320 144.3695070 133.7910620 135.9096160
 144.4900250 131.4653160 139.9147720 143.5956300 131.4319920 140.2541430
 145.0297800 131.6639950 140.6798970 143.1146400 131.3790430 127.4111290
 142.2110480 131.6420630 127.2362950 143.5987020 131.6501600 126.6311250
 145.6573610 130.4355970 125.3205670 146.3665310 130.0139190 124.8352950
 144.9413550 130.5031200 124.6889020 145.3047770 126.4895300 124.3608320
 146.0275900 127.0304240 124.6789540 145.5772290 126.2158720 123.4849860
 144.9939960 125.7401490 134.2630940 145.6416150 125.1898870 133.8226100
 145.4141800 125.9944640 135.0846750 144.7471960 125.8957160 137.0056260
 144.3986780 126.3520980 137.7714440 144.4159660 125.0014290 137.0878690
 146.3536330 139.0676760 141.1709450 146.3105960 138.6969670 142.0523910
 146.4847340 140.0054330 141.3111270 150.0542360 140.6236350 136.7719170
 149.8133720 140.8910910 135.8849690 150.9945000 140.7942080 136.8270030
 145.4192600 125.4233360 140.2807030 145.9675590 125.2421410 139.5173140
 145.4847910 124.6327470 140.8163340 146.1924360 142.0139010 138.2907230
 145.5984680 141.8823710 139.0297270 146.1848200 141.1777150 137.8249330
 145.8236590 139.3797390 137.2415270 145.0970650 138.7602680 137.1741220
 145.8845740 139.7738000 136.3713350 149.4281690 141.5942390 134.0264680
 149.9446710 140.9829750 133.5012940 150.0779070 142.0971170 134.5175690
 152.1677190 142.4850880 134.8533660 152.4555000 142.2305180 133.9766670
 152.6800410 141.9328240 135.4439230 144.1066590 142.6971780 130.4512030
 143.9388630 142.0642460 131.1493920 143.2401100 142.9031180 130.1006220
 144.7294610 126.5288560 127.9543890 145.4873970 126.6417440 127.3807920
 144.2671780 127.3657760 127.9087320 151.2708420 128.6427830 130.9446200
 150.4582930 128.2684720 130.6042080 151.7750060 127.8872910 131.2467390
 145.7129290 141.3905010 127.8962170 145.1876910 141.7713040 127.1924130
 145.6373870 142.0155780 128.6171880 147.1019760 127.0552610 126.4945860
 147.6312520 126.2682410 126.3653810 147.7348080 127.7343800 126.7281390
 149.2957600 126.7927750 129.5491250 148.6660340 126.0915060 129.7161380
 148.7562740 127.5531880 129.3324410 149.4213160 126.0711730 141.9843740
 149.1397430 126.5745330 141.2204560 149.8032860 125.2733480 141.6185870
 148.3122260 143.3387390 126.7711420 149.0441080 143.0546670 126.2235310
 148.5715930 143.1000670 127.6610800 147.4737050 139.4552120 126.7757750
 146.8445930 139.9237220 127.3243580 147.5884880 138.6101340 127.2103940
 147.0770640 135.5956610 115.6843980 146.2455520 135.3405320 116.0840490
 147.6851620 135.6667380 116.4201900 147.0571900 139.6296700 115.8802000
 147.3599940 138.7394440 115.7012220 147.8015490 140.1866920 115.6524250
 145.4862590 130.5558500 109.4686370 144.5979290 130.8974470 109.3666250
 145.7703780 130.3558820 108.5767200 143.4495600 133.1564150 115.3526070
 144.0211710 132.3886350 115.3529710 143.4497140 133.4552910 114.4432680
 144.6920470 128.5648510 117.1395000 144.5123310 127.6674260 117.4197760
 144.2900550 129.1120380 117.8141950 147.6623980 129.1390000 110.5024750
 147.7690730 130.0393730 110.8093510 146.7516340 129.0907970 110.2119400
 145.3107140 131.0609010 115.7477340 145.9917250 131.3247380 116.3664740
 144.9955190 130.2209880 116.0815350 149.5031710 132.1076370 114.8349930
 150.0109930 132.6057340 115.4754950 150.0344950 131.3311570 114.6589290
 147.7867810 126.7474930 119.1013350 147.7886250 127.2647320 118.2959250
 146.9572120 126.2705110 119.0783280 149.0370660 136.3870110 117.2786850
 148.7040040 137.0139030 117.9207920 149.2137340 136.9131990 116.4988520
 147.4683140 128.4584890 117.1083800 147.8099950 129.3026940 116.8137670
 146.5298950 128.6068630 117.2249140 148.2489760 138.3550910 119.0936030
 148.8663760 139.0301990 118.8120480 147.3882880 138.7638890 119.0023530
 143.5422100 137.5450770 107.9742880 143.1650080 138.0337870 107.2427780
 143.7995170 138.2176050 108.6049410 151.1511030 125.9467160 113.4328390
 151.4586010 125.3914050 112.7163890 150.2211730 126.0811620 113.2501380
 149.1448430 134.5380730 112.9508240 148.7405430 133.8257980 112.4554140
 149.2311550 134.1933970 113.8396280 149.6130130 138.2248290 115.1147450
 149.3158420 137.6193760 114.4355230 150.5629950 138.2625600 115.0036810
 147.8577050 131.3123940 116.7307280 148.4091640 131.4219280 115.9560530
 148.3720560 131.6861540 117.4462510 148.7048560 137.9629980 121.7655250
 147.8077090 138.1869950 122.0128650 148.7301430 138.0864920 120.8166650
 147.5319780 134.8343300 120.3412620 147.3927550 135.7066100 120.7100020
 146.6501140 134.4916110 120.1960560 149.3300130 140.7765000 122.5497770
 149.3015560 141.1807950 121.6826200 149.1665100 139.8475360 122.3869370
 145.8453060 133.4325710 110.4514890 145.7250660 134.1587800 109.8396160
 145.5353950 132.6628620 109.9742800 143.4838430 136.6040850 116.2583530
 143.5618850 136.7389620 115.3139250 144.0980110 135.8956740 116.4511650
 144.7286060 138.3041040 112.6689710 144.3214140 138.4455630 111.8143310
 145.6199070 138.0201200 112.4660920 149.0007720 142.5186820 110.7812380
 148.8250200 141.6022360 110.5680180 148.1463460 142.8774110 111.0210180
 143.5397950 137.6455020 118.7977990 143.7028990 137.1760380 117.9797360
 144.0050400 137.1378580 119.4626830 148.3116720 126.7760780 113.8338560
 147.8684870 127.5570320 113.5023080 148.8701710 127.0990670 114.5409500
 152.5986530 129.6429300 119.4373880 152.1365900 129.8512320 120.2493820
 152.1964640 128.8288650 119.1344550 151.4275540 126.3971480 108.7144390
 150.8029720 126.3931350 109.4397700 151.3405660 125.5302440 108.3180360
 150.3492620 127.3208110 115.6928160 150.6464950 128.2270940 115.6120180
 150.8978180 126.8326890 115.0787730 148.1030940 131.8994350 111.5619810
 147.8771860 131.6831520 112.4666430 147.3223470 132.3322810 111.2165780
 150.5430150 132.7979930 122.2280080 150.4473750 131.8574660 122.0780480
 151.3862130 133.0195000 121.8328150 145.6740690 129.2093600 120.3813860
 145.2804080 130.0568810 120.5886640 144.9859090 128.5719970 120.5722500
 152.2485740 129.2928570 123.4510600 151.5584060 129.1000770 124.0856690
 152.9918040 129.5763210 123.9834900 142.9757740 127.1322060 114.4143940
 142.6870790 127.7024920 115.1268920 143.7203500 126.6526510 114.7775170
 143.1627970 131.0742180 105.6246660 143.0802640 132.0172940 105.7661650
 142.8111030 130.9317090 104.7459010 150.9626100 129.8081210 114.6917010
 150.9662160 129.3671160 113.8421550 151.8577220 130.1298540 114.7988830
 146.8128480 129.6907700 113.6511220 146.4728530 130.1682930 114.4078270
 146.0505800 129.2372820 113.2912320 151.0246250 130.8093290 107.6823770
 151.1459070 130.7679770 108.6309590 150.6394760 131.6717440 107.5270500
 150.0367750 133.1194430 107.0807070 149.4684650 132.6712680 106.4542980
 150.7456750 133.4787210 106.5472220 145.1136930 137.0206450 120.9573800
 144.7291720 136.3800120 121.5556760 145.4249120 137.7242570 121.5268530
 151.2634070 133.8682990 116.4382420 151.6304200 133.3941560 117.1843760
 151.0739130 134.7424560 116.7790760 144.1274560 128.6126680 112.5675890
 143.8421480 128.2482350 113.4054510 144.0653420 127.8807140 111.9539030
 149.0533440 132.9091630 118.7566630 148.7490510 133.7883610 118.9816990
 150.0079900 132.9691420 118.7924070 147.5815230 137.1152620 109.3533480
 146.8077490 136.5750240 109.1932200 148.3109860 136.5959230 109.0151240
 147.6252630 136.7833000 112.9912290 148.1431300 135.9801260 112.9369180
 147.1736650 136.7212140 113.8329120 152.5122130 138.0499280 108.2639590
 152.8537830 138.7941510 107.7682910 151.6834840 138.3630400 108.6264420
 145.1097170 133.7494370 119.9037990 144.7512110 134.4148220 120.4911330
 144.8151730 132.9177920 120.2750610 148.3110290 134.2078610 122.7877540
 148.0110430 134.3535790 121.8905360 149.0821530 133.6483900 122.6950930
 151.4812820 138.1312810 111.0355510 152.1683950 138.6782020 111.4163100
 150.6945240 138.6753540 111.0705120 143.6205220 133.7485630 106.5272590
 144.4900070 134.0310430 106.8108510 143.1295540 134.5621500 106.4121400
 150.7840030 135.1358840 110.6480870 151.2402810 135.9464090 110.8741060
 150.4328240 134.8181980 111.4799360 146.6851810 125.4796490 111.1203390
 146.5566440 125.4714390 112.0688310 145.8613830 125.8179580 110.7694400
 143.9876470 142.9613010 107.0934220 144.3474110 143.5602350 106.4391490
 143.8468810 143.5072900 107.8669250 143.6845740 127.2387610 120.5810090
 142.9704260 127.4384530 121.1862700 144.1040780 126.4627180 120.9524890
 143.9718330 141.2267870 121.5676620 144.0809450 140.2862610 121.4272010
 143.3198890 141.4922620 120.9190350 151.9630920 139.4983760 122.9674740
 151.6427790 138.7793000 123.5120430 151.2889280 140.1738830 123.0410800
 150.0045090 140.3444210 107.9107890 149.9955190 141.0773900 107.2952400
 149.0843450 140.0975790 108.0034850 145.6051730 135.5659100 108.6554650
 144.9979680 136.3058000 108.6649950 146.0801080 135.6558460 107.8292850
 152.9904690 140.4072450 106.5733080 153.0916670 140.2036440 105.6435060
 152.0906430 140.1530730 106.7780860 150.5130580 130.9652810 110.5556980
 149.8046730 131.4339150 110.9970590 150.7975060 130.3074820 111.1902170
 152.1386510 132.3849510 118.5549510 152.6371760 132.8595330 119.2201360
 152.2809460 131.4613030 118.7619540 151.6322800 142.9258770 111.2680750
 151.8864300 142.8880160 110.3460120 150.6835280 142.7992100 111.2609000
 148.7165600 129.2737890 107.9307690 149.5656130 129.7108040 107.8647880
 148.3496870 129.5858150 108.7579750 147.6157020 135.5270250 106.4043220
 148.3820290 135.4151610 106.9668650 147.6931710 134.8308220 105.7519990
 146.3103780 132.9595320 107.0876110 146.3907370 132.0122830 107.1993510
 147.2023530 133.2902200 107.1936770 147.1118490 143.1090710 114.1910650
 147.8480970 142.5606170 114.4619220 147.4959410 143.9746720 114.0516640
 143.9963970 139.1764280 110.0652160 143.0703750 139.4185420 110.0557570
 144.4620400 140.0038540 109.9436910 146.1176770 142.2936780 123.3796230
 146.9189500 142.6148830 123.7931630 145.6028590 141.9332360 124.1016140
 150.2220800 142.2821020 106.0136220 151.0149410 142.5709850 105.5618010
 149.7025150 141.8513190 105.3348700 143.8374580 134.7810240 122.3232280
 144.3413600 134.2017520 122.8948510 143.0982000 135.0650470 122.8608650
 150.7398200 137.5024430 105.8778570 150.6348840 136.8876780 106.6039950
 150.5722420 136.9790320 105.0941580 150.8912520 136.1881230 121.8567800
 150.1258190 136.7566230 121.7722470 151.0728480 135.8957440 120.9636030
 145.8697660 132.9239830 123.2182350 145.9103000 132.6253700 124.1267580
 146.7243160 133.3247440 123.0589870 149.6476050 135.5235380 108.3785860
 150.0692470 135.3575250 109.2217250 149.7726890 134.7135610 107.8841000
 147.8103470 131.5031930 121.1856840 147.2799930 131.0122880 120.5580180
 148.4791540 131.9316130 120.6514770 152.1603690 134.5472990 105.6262960
 152.6809350 133.8322010 105.2604110 152.8072090 135.1858860 105.9263470
 148.2975770 128.4694300 121.2654130 148.2032640 127.8515050 120.5405000
 147.7173160 129.1960590 121.0384040 151.0637210 127.0267540 118.2981520
 150.6154510 127.0491800 117.4527070 150.4302410 126.6286560 118.8951820
 151.4696760 135.9221870 118.9193960 151.8884870 136.7654600 118.7470200
 150.5505390 136.0593910 118.6900740 148.5434950 131.5968610 105.3244020
 148.3424010 130.7335970 105.6857360 148.3727000 131.5101970 104.3865620
 149.3204180 142.2274880 120.0351690 148.7825270 142.9520940 119.7160390
 149.5738140 141.7505220 119.2449030 150.5729430 130.1959400 121.5607620
 151.1629120 129.8875250 122.2485440 149.7549670 129.7239150 121.7167520
 147.3417750 128.6969230 105.3121900 147.6443650 128.7036660 104.4041050
 148.0812340 128.3467090 105.8089560 152.1766390 143.4626090 120.2938340
 152.1025090 144.3661230 120.6010710 151.2745230 143.1437990 120.2660410
 150.5602680 127.6403850 106.2978100 150.2124680 126.9627840 105.7180550
 150.7615450 127.1793360 107.1121490 146.3647880 138.0011650 106.1451700
 146.8022750 138.5441320 106.8009280 146.8495610 137.1758600 106.1548040
 143.5793680 140.7900680 113.5971960 143.9096690 139.9221740 113.3650600
 144.0084680 140.9959200 114.4276920 148.1755600 139.1209690 111.2573930
 147.8751140 138.9974660 112.1577840 148.0693090 138.2618280 110.8489660
 144.0683890 141.6571270 116.3353590 143.6314880 141.8372070 117.1677740
 144.6361570 142.4145890 116.1935310 143.9008320 134.1691500 112.6942470
 143.2457160 133.9003140 112.0502170 144.7386270 134.0595980 112.2444450
 144.9384250 134.5544070 117.2345810 145.3057290 134.4671470 118.1141830
 144.3695070 133.7910620 117.1352670 144.4900250 131.4653160 121.1404230
 143.5956300 131.4319920 121.4797940 145.0297800 131.6639950 121.9055480
 143.1146400 131.3790430 108.6367800 142.2110480 131.6420630 108.4619460
 143.5987020 131.6501600 107.8567760 145.6573610 130.4355970 106.5462180
 146.3665310 130.0139190 106.0609460 144.9413550 130.5031200 105.9145530
 145.3047770 126.4895300 105.5864830 146.0275900 127.0304240 105.9046050
 145.5772290 126.2158720 104.7106370 144.9939960 125.7401490 115.4887450
 145.6416150 125.1898870 115.0482610 145.4141800 125.9944640 116.3103260
 144.7471960 125.8957160 118.2312770 144.3986780 126.3520980 118.9970950
 144.4159660 125.0014290 118.3135200 146.3536330 139.0676760 122.3965960
 146.3105960 138.6969670 123.2780420 146.4847340 140.0054330 122.5367780
 150.0542360 140.6236350 117.9975680 149.8133720 140.8910910 117.1106200
 150.9945000 140.7942080 118.0526540 145.4192600 125.4233360 121.5063540
 145.9675590 125.2421410 120.7429650 145.4847910 124.6327470 122.0419850
 146.1924360 142.0139010 119.5163740 145.5984680 141.8823710 120.2553780
 146.1848200 141.1777150 119.0505840 145.8236590 139.3797390 118.4671780
 145.0970650 138.7602680 118.3997730 145.8845740 139.7738000 117.5969860
 149.4281690 141.5942390 115.2521190 149.9446710 140.9829750 114.7269450
 150.0779070 142.0971170 115.7432200 152.1677190 142.4850880 116.0790170
 152.4555000 142.2305180 115.2023180 152.6800410 141.9328240 116.6695740
 144.1066590 142.6971780 111.6768540 143.9388630 142.0642460 112.3750430
 143.2401100 142.9031180 111.3262730 144.7294610 126.5288560 109.1800400
 145.4873970 126.6417440 108.6064430 144.2671780 127.3657760 109.1343830
 151.2708420 128.6427830 112.1702710 150.4582930 128.2684720 111.8298590
 151.7750060 127.8872910 112.4723900 145.7129290 141.3905010 109.1218680
 145.1876910 141.7713040 108.4180640 145.6373870 142.0155780 109.8428390
 147.1019760 127.0552610 107.7202370 147.6312520 126.2682410 107.5910320
 147.7348080 127.7343800 107.9537900 149.2957600 126.7927750 110.7747760
 148.6660340 126.0915060 110.9417890 148.7562740 127.5531880 110.5580920
 149.4213160 126.0711730 123.2100250 149.1397430 126.5745330 122.4461070
 149.8032860 125.2733480 122.8442380 148.3122260 143.3387390 107.9967930
 149.0441080 143.0546670 107.4491820 148.5715930 143.1000670 108.8867310
 147.4737050 139.4552120 108.0014260 146.8445930 139.9237220 108.5500090
 147.5884880 138.6101340 108.4360450 147.0770640 135.5956610  96.9100490
 146.2455520 135.3405320  97.3097000 147.6851620 135.6667380  97.6458410
 147.0571900 139.6296700  97.1058510 147.3599940 138.7394440  96.9268730
 147.8015490 140.1866920  96.8780760 145.4862590 130.5558500  90.6942880
 144.5979290 130.8974470  90.5922760 145.7703780 130.3558820  89.8023710
 143.4495600 133.1564150  96.5782580 144.0211710 132.3886350  96.5786220
 143.4497140 133.4552910  95.6689190 144.6920470 128.5648510  98.3651510
 144.5123310 127.6674260  98.6454270 144.2900550 129.1120380  99.0398460
 147.6623980 129.1390000  91.7281260 147.7690730 130.0393730  92.0350020
 146.7516340 129.0907970  91.4375910 145.3107140 131.0609010  96.9733850
 145.9917250 131.3247380  97.5921250 144.9955190 130.2209880  97.3071860
 149.5031710 132.1076370  96.0606440 150.0109930 132.6057340  96.7011460
 150.0344950 131.3311570  95.8845800 147.7867810 126.7474930 100.3269860
 147.7886250 127.2647320  99.5215760 146.9572120 126.2705110 100.3039790
 149.0370660 136.3870110  98.5043360 148.7040040 137.0139030  99.1464430
 149.2137340 136.9131990  97.7245030 147.4683140 128.4584890  98.3340310
 147.8099950 129.3026940  98.0394180 146.5298950 128.6068630  98.4505650
 148.2489760 138.3550910 100.3192540 148.8663760 139.0301990 100.0376990
 147.3882880 138.7638890 100.2280040 143.5422100 137.5450770  89.1999390
 143.1650080 138.0337870  88.4684290 143.7995170 138.2176050  89.8305920
 151.1511030 125.9467160  94.6584900 151.4586010 125.3914050  93.9420400
 150.2211730 126.0811620  94.4757890 149.1448430 134.5380730  94.1764750
 148.7405430 133.8257980  93.6810650 149.2311550 134.1933970  95.0652790
 149.6130130 138.2248290  96.3403960 149.3158420 137.6193760  95.6611740
 150.5629950 138.2625600  96.2293320 147.8577050 131.3123940  97.9563790
 148.4091640 131.4219280  97.1817040 148.3720560 131.6861540  98.6719020
 148.7048560 137.9629980 102.9911760 147.8077090 138.1869950 103.2385160
 148.7301430 138.0864920 102.0423160 147.5319780 134.8343300 101.5669130
 147.3927550 135.7066100 101.9356530 146.6501140 134.4916110 101.4217070
 149.3300130 140.7765000 103.7754280 149.3015560 141.1807950 102.9082710
 149.1665100 139.8475360 103.6125880 145.8453060 133.4325710  91.6771400
 145.7250660 134.1587800  91.0652670 145.5353950 132.6628620  91.1999310
 143.4838430 136.6040850  97.4840040 143.5618850 136.7389620  96.5395760
 144.0980110 135.8956740  97.6768160 144.7286060 138.3041040  93.8946220
 144.3214140 138.4455630  93.0399820 145.6199070 138.0201200  93.6917430
 149.0007720 142.5186820  92.0068890 148.8250200 141.6022360  91.7936690
 148.1463460 142.8774110  92.2466690 143.5397950 137.6455020 100.0234500
 143.7028990 137.1760380  99.2053870 144.0050400 137.1378580 100.6883340
 148.3116720 126.7760780  95.0595070 147.8684870 127.5570320  94.7279590
 148.8701710 127.0990670  95.7666010 152.5986530 129.6429300 100.6630390
 152.1365900 129.8512320 101.4750330 152.1964640 128.8288650 100.3601060
 151.4275540 126.3971480  89.9400900 150.8029720 126.3931350  90.6654210
 151.3405660 125.5302440  89.5436870 150.3492620 127.3208110  96.9184670
 150.6464950 128.2270940  96.8376690 150.8978180 126.8326890  96.3044240
 148.1030940 131.8994350  92.7876320 147.8771860 131.6831520  93.6922940
 147.3223470 132.3322810  92.4422290 150.5430150 132.7979930 103.4536590
 150.4473750 131.8574660 103.3036990 151.3862130 133.0195000 103.0584660
 145.6740690 129.2093600 101.6070370 145.2804080 130.0568810 101.8143150
 144.9859090 128.5719970 101.7979010 152.2485740 129.2928570 104.6767110
 151.5584060 129.1000770 105.3113200 152.9918040 129.5763210 105.2091410
 142.9757740 127.1322060  95.6400450 142.6870790 127.7024920  96.3525430
 143.7203500 126.6526510  96.0031680 143.1627970 131.0742180  86.8503170
 143.0802640 132.0172940  86.9918160 142.8111030 130.9317090  85.9715520
 150.9626100 129.8081210  95.9173520 150.9662160 129.3671160  95.0678060
 151.8577220 130.1298540  96.0245340 146.8128480 129.6907700  94.8767730
 146.4728530 130.1682930  95.6334780 146.0505800 129.2372820  94.5168830
 151.0246250 130.8093290  88.9080280 151.1459070 130.7679770  89.8566100
 150.6394760 131.6717440  88.7527010 150.0367750 133.1194430  88.3063580
 149.4684650 132.6712680  87.6799490 150.7456750 133.4787210  87.7728730
 145.1136930 137.0206450 102.1830310 144.7291720 136.3800120 102.7813270
 145.4249120 137.7242570 102.7525040 151.2634070 133.8682990  97.6638930
 151.6304200 133.3941560  98.4100270 151.0739130 134.7424560  98.0047270
 144.1274560 128.6126680  93.7932400 143.8421480 128.2482350  94.6311020
 144.0653420 127.8807140  93.1795540 149.0533440 132.9091630  99.9823140
 148.7490510 133.7883610 100.2073500 150.0079900 132.9691420 100.0180580
 147.5815230 137.1152620  90.5789990 146.8077490 136.5750240  90.4188710
 148.3109860 136.5959230  90.2407750 147.6252630 136.7833000  94.2168800
 148.1431300 135.9801260  94.1625690 147.1736650 136.7212140  95.0585630
 152.5122130 138.0499280  89.4896100 152.8537830 138.7941510  88.9939420
 151.6834840 138.3630400  89.8520930 145.1097170 133.7494370 101.1294500
 144.7512110 134.4148220 101.7167840 144.8151730 132.9177920 101.5007120
 148.3110290 134.2078610 104.0134050 148.0110430 134.3535790 103.1161870
 149.0821530 133.6483900 103.9207440 151.4812820 138.1312810  92.2612020
 152.1683950 138.6782020  92.6419610 150.6945240 138.6753540  92.2961630
 143.6205220 133.7485630  87.7529100 144.4900070 134.0310430  88.0365020
 143.1295540 134.5621500  87.6377910 150.7840030 135.1358840  91.8737380
 151.2402810 135.9464090  92.0997570 150.4328240 134.8181980  92.7055870
 146.6851810 125.4796490  92.3459900 146.5566440 125.4714390  93.2944820
 145.8613830 125.8179580  91.9950910 143.9876470 142.9613010  88.3190730
 144.3474110 143.5602350  87.6648000 143.8468810 143.5072900  89.0925760
 143.6845740 127.2387610 101.8066600 142.9704260 127.4384530 102.4119210
 144.1040780 126.4627180 102.1781400 143.9718330 141.2267870 102.7933130
 144.0809450 140.2862610 102.6528520 143.3198890 141.4922620 102.1446860
 151.9630920 139.4983760 104.1931250 151.6427790 138.7793000 104.7376940
 151.2889280 140.1738830 104.2667310 150.0045090 140.3444210  89.1364400
 149.9955190 141.0773900  88.5208910 149.0843450 140.0975790  89.2291360
 145.6051730 135.5659100  89.8811160 144.9979680 136.3058000  89.8906460
 146.0801080 135.6558460  89.0549360 152.9904690 140.4072450  87.7989590
 153.0916670 140.2036440  86.8691570 152.0906430 140.1530730  88.0037370
 150.5130580 130.9652810  91.7813490 149.8046730 131.4339150  92.2227100
 150.7975060 130.3074820  92.4158680 152.1386510 132.3849510  99.7806020
 152.6371760 132.8595330 100.4457870 152.2809460 131.4613030  99.9876050
 151.6322800 142.9258770  92.4937260 151.8864300 142.8880160  91.5716630
 150.6835280 142.7992100  92.4865510 148.7165600 129.2737890  89.1564200
 149.5656130 129.7108040  89.0904390 148.3496870 129.5858150  89.9836260
 147.6157020 135.5270250  87.6299730 148.3820290 135.4151610  88.1925160
 147.6931710 134.8308220  86.9776500 146.3103780 132.9595320  88.3132620
 146.3907370 132.0122830  88.4250020 147.2023530 133.2902200  88.4193280
 147.1118490 143.1090710  95.4167160 147.8480970 142.5606170  95.6875730
 147.4959410 143.9746720  95.2773150 143.9963970 139.1764280  91.2908670
 143.0703750 139.4185420  91.2814080 144.4620400 140.0038540  91.1693420
 146.1176770 142.2936780 104.6052740 146.9189500 142.6148830 105.0188140
 145.6028590 141.9332360 105.3272650 150.2220800 142.2821020  87.2392730
 151.0149410 142.5709850  86.7874520 149.7025150 141.8513190  86.5605210
 143.8374580 134.7810240 103.5488790 144.3413600 134.2017520 104.1205020
 143.0982000 135.0650470 104.0865160 150.7398200 137.5024430  87.1035080
 150.6348840 136.8876780  87.8296460 150.5722420 136.9790320  86.3198090
 150.8912520 136.1881230 103.0824310 150.1258190 136.7566230 102.9978980
 151.0728480 135.8957440 102.1892540 145.8697660 132.9239830 104.4438860
 145.9103000 132.6253700 105.3524090 146.7243160 133.3247440 104.2846380
 149.6476050 135.5235380  89.6042370 150.0692470 135.3575250  90.4473760
 149.7726890 134.7135610  89.1097510 147.8103470 131.5031930 102.4113350
 147.2799930 131.0122880 101.7836690 148.4791540 131.9316130 101.8771280
 152.1603690 134.5472990  86.8519470 152.6809350 133.8322010  86.4860620
 152.8072090 135.1858860  87.1519980 148.2975770 128.4694300 102.4910640
 148.2032640 127.8515050 101.7661510 147.7173160 129.1960590 102.2640550
 151.0637210 127.0267540  99.5238030 150.6154510 127.0491800  98.6783580
 150.4302410 126.6286560 100.1208330 151.4696760 135.9221870 100.1450470
 151.8884870 136.7654600  99.9726710 150.5505390 136.0593910  99.9157250
 148.5434950 131.5968610  86.5500530 148.3424010 130.7335970  86.9113870
 148.3727000 131.5101970  85.6122130 149.3204180 142.2274880 101.2608200
 148.7825270 142.9520940 100.9416900 149.5738140 141.7505220 100.4705540
 150.5729430 130.1959400 102.7864130 151.1629120 129.8875250 103.4741950
 149.7549670 129.7239150 102.9424030 147.3417750 128.6969230  86.5378410
 147.6443650 128.7036660  85.6297560 148.0812340 128.3467090  87.0346070
 152.1766390 143.4626090 101.5194850 152.1025090 144.3661230 101.8267220
 151.2745230 143.1437990 101.4916920 150.5602680 127.6403850  87.5234610
 150.2124680 126.9627840  86.9437060 150.7615450 127.1793360  88.3378000
 146.3647880 138.0011650  87.3708210 146.8022750 138.5441320  88.0265790
 146.8495610 137.1758600  87.3804550 143.5793680 140.7900680  94.8228470
 143.9096690 139.9221740  94.5907110 144.0084680 140.9959200  95.6533430
 148.1755600 139.1209690  92.4830440 147.8751140 138.9974660  93.3834350
 148.0693090 138.2618280  92.0746170 144.0683890 141.6571270  97.5610100
 143.6314880 141.8372070  98.3934250 144.6361570 142.4145890  97.4191820
 143.9008320 134.1691500  93.9198980 143.2457160 133.9003140  93.2758680
 144.7386270 134.0595980  93.4700960 144.9384250 134.5544070  98.4602320
 145.3057290 134.4671470  99.3398340 144.3695070 133.7910620  98.3609180
 144.4900250 131.4653160 102.3660740 143.5956300 131.4319920 102.7054450
 145.0297800 131.6639950 103.1311990 143.1146400 131.3790430  89.8624310
 142.2110480 131.6420630  89.6875970 143.5987020 131.6501600  89.0824270
 145.6573610 130.4355970  87.7718690 146.3665310 130.0139190  87.2865970
 144.9413550 130.5031200  87.1402040 145.3047770 126.4895300  86.8121340
 146.0275900 127.0304240  87.1302560 145.5772290 126.2158720  85.9362880
 144.9939960 125.7401490  96.7143960 145.6416150 125.1898870  96.2739120
 145.4141800 125.9944640  97.5359770 144.7471960 125.8957160  99.4569280
 144.3986780 126.3520980 100.2227460 144.4159660 125.0014290  99.5391710
 146.3536330 139.0676760 103.6222470 146.3105960 138.6969670 104.5036930
 146.4847340 140.0054330 103.7624290 150.0542360 140.6236350  99.2232190
 149.8133720 140.8910910  98.3362710 150.9945000 140.7942080  99.2783050
 145.4192600 125.4233360 102.7320050 145.9675590 125.2421410 101.9686160
 145.4847910 124.6327470 103.2676360 146.1924360 142.0139010 100.7420250
 145.5984680 141.8823710 101.4810290 146.1848200 141.1777150 100.2762350
 145.8236590 139.3797390  99.6928290 145.0970650 138.7602680  99.6254240
 145.8845740 139.7738000  98.8226370 149.4281690 141.5942390  96.4777700
 149.9446710 140.9829750  95.9525960 150.0779070 142.0971170  96.9688710
 152.1677190 142.4850880  97.3046680 152.4555000 142.2305180  96.4279690
 152.6800410 141.9328240  97.8952250 144.1066590 142.6971780  92.9025050
 143.9388630 142.0642460  93.6006940 143.2401100 142.9031180  92.5519240
 144.7294610 126.5288560  90.4056910 145.4873970 126.6417440  89.8320940
 144.2671780 127.3657760  90.3600340 151.2708420 128.6427830  93.3959220
 150.4582930 128.2684720  93.0555100 151.7750060 127.8872910  93.6980410
 145.7129290 141.3905010  90.3475190 145.1876910 141.7713040  89.6437150
 145.6373870 142.0155780  91.0684900 147.1019760 127.0552610  88.9458880
 147.6312520 126.2682410  88.8166830 147.7348080 127.7343800  89.1794410
 149.2957600 126.7927750  92.0004270 148.6660340 126.0915060  92.1674400
 148.7562740 127.5531880  91.7837430 149.4213160 126.0711730 104.4356760
 149.1397430 126.5745330 103.6717580 149.8032860 125.2733480 104.0698890
 148.3122260 143.3387390  89.2224440 149.0441080 143.0546670  88.6748330
 148.5715930 143.1000670  90.1123820 147.4737050 139.4552120  89.2270770
 146.8445930 139.9237220  89.7756600 147.5884880 138.6101340  89.6616960
 147.0770640 135.5956610  78.1357000 146.2455520 135.3405320  78.5353510
 147.6851620 135.6667380  78.8714920 147.0571900 139.6296700  78.3315020
 147.3599940 138.7394440  78.1525240 147.8015490 140.1866920  78.1037270
 145.4862590 130.5558500  71.9199390 144.5979290 130.8974470  71.8179270
 145.7703780 130.3558820  71.0280220 143.4495600 133.1564150  77.8039090
 144.0211710 132.3886350  77.8042730 143.4497140 133.4552910  76.8945700
 144.6920470 128.5648510  79.5908020 144.5123310 127.6674260  79.8710780
 144.2900550 129.1120380  80.2654970 147.6623980 129.1390000  72.9537770
 147.7690730 130.0393730  73.2606530 146.7516340 129.0907970  72.6632420
 145.3107140 131.0609010  78.1990360 145.9917250 131.3247380  78.8177760
 144.9955190 130.2209880  78.5328370 149.5031710 132.1076370  77.2862950
 150.0109930 132.6057340  77.9267970 150.0344950 131.3311570  77.1102310
 147.7867810 126.7474930  81.5526370 147.7886250 127.2647320  80.7472270
 146.9572120 126.2705110  81.5296300 149.0370660 136.3870110  79.7299870
 148.7040040 137.0139030  80.3720940 149.2137340 136.9131990  78.9501540
 147.4683140 128.4584890  79.5596820 147.8099950 129.3026940  79.2650690
 146.5298950 128.6068630  79.6762160 148.2489760 138.3550910  81.5449050
 148.8663760 139.0301990  81.2633500 147.3882880 138.7638890  81.4536550
 143.5422100 137.5450770  70.4255900 143.1650080 138.0337870  69.6940800
 143.7995170 138.2176050  71.0562430 151.1511030 125.9467160  75.8841410
 151.4586010 125.3914050  75.1676910 150.2211730 126.0811620  75.7014400
 149.1448430 134.5380730  75.4021260 148.7405430 133.8257980  74.9067160
 149.2311550 134.1933970  76.2909300 149.6130130 138.2248290  77.5660470
 149.3158420 137.6193760  76.8868250 150.5629950 138.2625600  77.4549830
 147.8577050 131.3123940  79.1820300 148.4091640 131.4219280  78.4073550
 148.3720560 131.6861540  79.8975530 148.7048560 137.9629980  84.2168270
 147.8077090 138.1869950  84.4641670 148.7301430 138.0864920  83.2679670
 147.5319780 134.8343300  82.7925640 147.3927550 135.7066100  83.1613040
 146.6501140 134.4916110  82.6473580 149.3300130 140.7765000  85.0010790
 149.3015560 141.1807950  84.1339220 149.1665100 139.8475360  84.8382390
 145.8453060 133.4325710  72.9027910 145.7250660 134.1587800  72.2909180
 145.5353950 132.6628620  72.4255820 143.4838430 136.6040850  78.7096550
 143.5618850 136.7389620  77.7652270 144.0980110 135.8956740  78.9024670
 144.7286060 138.3041040  75.1202730 144.3214140 138.4455630  74.2656330
 145.6199070 138.0201200  74.9173940 149.0007720 142.5186820  73.2325400
 148.8250200 141.6022360  73.0193200 148.1463460 142.8774110  73.4723200
 143.5397950 137.6455020  81.2491010 143.7028990 137.1760380  80.4310380
 144.0050400 137.1378580  81.9139850 148.3116720 126.7760780  76.2851580
 147.8684870 127.5570320  75.9536100 148.8701710 127.0990670  76.9922520
 152.5986530 129.6429300  81.8886900 152.1365900 129.8512320  82.7006840
 152.1964640 128.8288650  81.5857570 151.4275540 126.3971480  71.1657410
 150.8029720 126.3931350  71.8910720 151.3405660 125.5302440  70.7693380
 150.3492620 127.3208110  78.1441180 150.6464950 128.2270940  78.0633200
 150.8978180 126.8326890  77.5300750 148.1030940 131.8994350  74.0132830
 147.8771860 131.6831520  74.9179450 147.3223470 132.3322810  73.6678800
 150.5430150 132.7979930  84.6793100 150.4473750 131.8574660  84.5293500
 151.3862130 133.0195000  84.2841170 145.6740690 129.2093600  82.8326880
 145.2804080 130.0568810  83.0399660 144.9859090 128.5719970  83.0235520
 152.2485740 129.2928570  85.9023620 151.5584060 129.1000770  86.5369710
 152.9918040 129.5763210  86.4347920 142.9757740 127.1322060  76.8656960
 142.6870790 127.7024920  77.5781940 143.7203500 126.6526510  77.2288190
 143.1627970 131.0742180  68.0759680 143.0802640 132.0172940  68.2174670
 142.8111030 130.9317090  67.1972030 150.9626100 129.8081210  77.1430030
 150.9662160 129.3671160  76.2934570 151.8577220 130.1298540  77.2501850
 146.8128480 129.6907700  76.1024240 146.4728530 130.1682930  76.8591290
 146.0505800 129.2372820  75.7425340 151.0246250 130.8093290  70.1336790
 151.1459070 130.7679770  71.0822610 150.6394760 131.6717440  69.9783520
 150.0367750 133.1194430  69.5320090 149.4684650 132.6712680  68.9056000
 150.7456750 133.4787210  68.9985240 145.1136930 137.0206450  83.4086820
 144.7291720 136.3800120  84.0069780 145.4249120 137.7242570  83.9781550
 151.2634070 133.8682990  78.8895440 151.6304200 133.3941560  79.6356780
 151.0739130 134.7424560  79.2303780 144.1274560 128.6126680  75.0188910
 143.8421480 128.2482350  75.8567530 144.0653420 127.8807140  74.4052050
 149.0533440 132.9091630  81.2079650 148.7490510 133.7883610  81.4330010
 150.0079900 132.9691420  81.2437090 147.5815230 137.1152620  71.8046500
 146.8077490 136.5750240  71.6445220 148.3109860 136.5959230  71.4664260
 147.6252630 136.7833000  75.4425310 148.1431300 135.9801260  75.3882200
 147.1736650 136.7212140  76.2842140 152.5122130 138.0499280  70.7152610
 152.8537830 138.7941510  70.2195930 151.6834840 138.3630400  71.0777440
 145.1097170 133.7494370  82.3551010 144.7512110 134.4148220  82.9424350
 144.8151730 132.9177920  82.7263630 148.3110290 134.2078610  85.2390560
 148.0110430 134.3535790  84.3418380 149.0821530 133.6483900  85.1463950
 151.4812820 138.1312810  73.4868530 152.1683950 138.6782020  73.8676120
 150.6945240 138.6753540  73.5218140 143.6205220 133.7485630  68.9785610
 144.4900070 134.0310430  69.2621530 143.1295540 134.5621500  68.8634420
 150.7840030 135.1358840  73.0993890 151.2402810 135.9464090  73.3254080
 150.4328240 134.8181980  73.9312380 146.6851810 125.4796490  73.5716410
 146.5566440 125.4714390  74.5201330 145.8613830 125.8179580  73.2207420
 143.9876470 142.9613010  69.5447240 144.3474110 143.5602350  68.8904510
 143.8468810 143.5072900  70.3182270 143.6845740 127.2387610  83.0323110
 142.9704260 127.4384530  83.6375720 144.1040780 126.4627180  83.4037910
 143.9718330 141.2267870  84.0189640 144.0809450 140.2862610  83.8785030
 143.3198890 141.4922620  83.3703370 151.9630920 139.4983760  85.4187760
 151.6427790 138.7793000  85.9633450 151.2889280 140.1738830  85.4923820
 150.0045090 140.3444210  70.3620910 149.9955190 141.0773900  69.7465420
 149.0843450 140.0975790  70.4547870 145.6051730 135.5659100  71.1067670
 144.9979680 136.3058000  71.1162970 146.0801080 135.6558460  70.2805870
 152.9904690 140.4072450  69.0246100 153.0916670 140.2036440  68.0948080
 152.0906430 140.1530730  69.2293880 150.5130580 130.9652810  73.0070000
 149.8046730 131.4339150  73.4483610 150.7975060 130.3074820  73.6415190
 152.1386510 132.3849510  81.0062530 152.6371760 132.8595330  81.6714380
 152.2809460 131.4613030  81.2132560 151.6322800 142.9258770  73.7193770
 151.8864300 142.8880160  72.7973140 150.6835280 142.7992100  73.7122020
 148.7165600 129.2737890  70.3820710 149.5656130 129.7108040  70.3160900
 148.3496870 129.5858150  71.2092770 147.6157020 135.5270250  68.8556240
 148.3820290 135.4151610  69.4181670 147.6931710 134.8308220  68.2033010
 146.3103780 132.9595320  69.5389130 146.3907370 132.0122830  69.6506530
 147.2023530 133.2902200  69.6449790 147.1118490 143.1090710  76.6423670
 147.8480970 142.5606170  76.9132240 147.4959410 143.9746720  76.5029660
 143.9963970 139.1764280  72.5165180 143.0703750 139.4185420  72.5070590
 144.4620400 140.0038540  72.3949930 146.1176770 142.2936780  85.8309250
 146.9189500 142.6148830  86.2444650 145.6028590 141.9332360  86.5529160
 150.2220800 142.2821020  68.4649240 151.0149410 142.5709850  68.0131030
 149.7025150 141.8513190  67.7861720 143.8374580 134.7810240  84.7745300
 144.3413600 134.2017520  85.3461530 143.0982000 135.0650470  85.3121670
 150.7398200 137.5024430  68.3291590 150.6348840 136.8876780  69.0552970
 150.5722420 136.9790320  67.5454600 150.8912520 136.1881230  84.3080820
 150.1258190 136.7566230  84.2235490 151.0728480 135.8957440  83.4149050
 145.8697660 132.9239830  85.6695370 145.9103000 132.6253700  86.5780600
 146.7243160 133.3247440  85.5102890 149.6476050 135.5235380  70.8298880
 150.0692470 135.3575250  71.6730270 149.7726890 134.7135610  70.3354020
 147.8103470 131.5031930  83.6369860 147.2799930 131.0122880  83.0093200
 148.4791540 131.9316130  83.1027790 152.1603690 134.5472990  68.0775980
 152.6809350 133.8322010  67.7117130 152.8072090 135.1858860  68.3776490
 148.2975770 128.4694300  83.7167150 148.2032640 127.8515050  82.9918020
 147.7173160 129.1960590  83.4897060 151.0637210 127.0267540  80.7494540
 150.6154510 127.0491800  79.9040090 150.4302410 126.6286560  81.3464840
 151.4696760 135.9221870  81.3706980 151.8884870 136.7654600  81.1983220
 150.5505390 136.0593910  81.1413760 148.5434950 131.5968610  67.7757040
 148.3424010 130.7335970  68.1370380 148.3727000 131.5101970  66.8378640
 149.3204180 142.2274880  82.4864710 148.7825270 142.9520940  82.1673410
 149.5738140 141.7505220  81.6962050 150.5729430 130.1959400  84.0120640
 151.1629120 129.8875250  84.6998460 149.7549670 129.7239150  84.1680540
 147.3417750 128.6969230  67.7634920 147.6443650 128.7036660  66.8554070
 148.0812340 128.3467090  68.2602580 152.1766390 143.4626090  82.7451360
 152.1025090 144.3661230  83.0523730 151.2745230 143.1437990  82.7173430
 150.5602680 127.6403850  68.7491120 150.2124680 126.9627840  68.1693570
 150.7615450 127.1793360  69.5634510 146.3647880 138.0011650  68.5964720
 146.8022750 138.5441320  69.2522300 146.8495610 137.1758600  68.6061060
 143.5793680 140.7900680  76.0484980 143.9096690 139.9221740  75.8163620
 144.0084680 140.9959200  76.8789940 148.1755600 139.1209690  73.7086950
 147.8751140 138.9974660  74.6090860 148.0693090 138.2618280  73.3002680
 144.0683890 141.6571270  78.7866610 143.6314880 141.8372070  79.6190760
 144.6361570 142.4145890  78.6448330 143.9008320 134.1691500  75.1455490
 143.2457160 133.9003140  74.5015190 144.7386270 134.0595980  74.6957470
 144.9384250 134.5544070  79.6858830 145.3057290 134.4671470  80.5654850
 144.3695070 133.7910620  79.5865690 144.4900250 131.4653160  83.5917250
 143.5956300 131.4319920  83.9310960 145.0297800 131.6639950  84.3568500
 143.1146400 131.3790430  71.0880820 142.2110480 131.6420630  70.9132480
 143.5987020 131.6501600  70.3080780 145.6573610 130.4355970  68.9975200
 146.3665310 130.0139190  68.5122480 144.9413550 130.5031200  68.3658550
 145.3047770 126.4895300  68.0377850 146.0275900 127.0304240  68.3559070
 145.5772290 126.2158720  67.1619390 144.9939960 125.7401490  77.9400470
 145.6416150 125.1898870  77.4995630 145.4141800 125.9944640  78.7616280
 144.7471960 125.8957160  80.6825790 144.3986780 126.3520980  81.4483970
 144.4159660 125.0014290  80.7648220 146.3536330 139.0676760  84.8478980
 146.3105960 138.6969670  85.7293440 146.4847340 140.0054330  84.9880800
 150.0542360 140.6236350  80.4488700 149.8133720 140.8910910  79.5619220
 150.9945000 140.7942080  80.5039560 145.4192600 125.4233360  83.9576560
 145.9675590 125.2421410  83.1942670 145.4847910 124.6327470  84.4932870
 146.1924360 142.0139010  81.9676760 145.5984680 141.8823710  82.7066800
 146.1848200 141.1777150  81.5018860 145.8236590 139.3797390  80.9184800
 145.0970650 138.7602680  80.8510750 145.8845740 139.7738000  80.0482880
 149.4281690 141.5942390  77.7034210 149.9446710 140.9829750  77.1782470
 150.0779070 142.0971170  78.1945220 152.1677190 142.4850880  78.5303190
 152.4555000 142.2305180  77.6536200 152.6800410 141.9328240  79.1208760
 144.1066590 142.6971780  74.1281560 143.9388630 142.0642460  74.8263450
 143.2401100 142.9031180  73.7775750 144.7294610 126.5288560  71.6313420
 145.4873970 126.6417440  71.0577450 144.2671780 127.3657760  71.5856850
 151.2708420 128.6427830  74.6215730 150.4582930 128.2684720  74.2811610
 151.7750060 127.8872910  74.9236920 145.7129290 141.3905010  71.5731700
 145.1876910 141.7713040  70.8693660 145.6373870 142.0155780  72.2941410
 147.1019760 127.0552610  70.1715390 147.6312520 126.2682410  70.0423340
 147.7348080 127.7343800  70.4050920 149.2957600 126.7927750  73.2260780
 148.6660340 126.0915060  73.3930910 148.7562740 127.5531880  73.0093940
 149.4213160 126.0711730  85.6613270 149.1397430 126.5745330  84.8974090
 149.8032860 125.2733480  85.2955400 148.3122260 143.3387390  70.4480950
 149.0441080 143.0546670  69.9004840 148.5715930 143.1000670  71.3380330
 147.4737050 139.4552120  70.4527280 146.8445930 139.9237220  71.0013110
 147.5884880 138.6101340  70.8873470 147.0770640 135.5956610  59.3613510
 146.2455520 135.3405320  59.7610020 147.6851620 135.6667380  60.0971430
 147.0571900 139.6296700  59.5571530 147.3599940 138.7394440  59.3781750
 147.8015490 140.1866920  59.3293780 145.4862590 130.5558500  53.1455900
 144.5979290 130.8974470  53.0435780 145.7703780 130.3558820  52.2536730
 143.4495600 133.1564150  59.0295600 144.0211710 132.3886350  59.0299240
 143.4497140 133.4552910  58.1202210 144.6920470 128.5648510  60.8164530
 144.5123310 127.6674260  61.0967290 144.2900550 129.1120380  61.4911480
 147.6623980 129.1390000  54.1794280 147.7690730 130.0393730  54.4863040
 146.7516340 129.0907970  53.8888930 145.3107140 131.0609010  59.4246870
 145.9917250 131.3247380  60.0434270 144.9955190 130.2209880  59.7584880
 149.5031710 132.1076370  58.5119460 150.0109930 132.6057340  59.1524480
 150.0344950 131.3311570  58.3358820 147.7867810 126.7474930  62.7782880
 147.7886250 127.2647320  61.9728780 146.9572120 126.2705110  62.7552810
 149.0370660 136.3870110  60.9556380 148.7040040 137.0139030  61.5977450
 149.2137340 136.9131990  60.1758050 147.4683140 128.4584890  60.7853330
 147.8099950 129.3026940  60.4907200 146.5298950 128.6068630  60.9018670
 148.2489760 138.3550910  62.7705560 148.8663760 139.0301990  62.4890010
 147.3882880 138.7638890  62.6793060 143.5422100 137.5450770  51.6512410
 143.1650080 138.0337870  50.9197310 143.7995170 138.2176050  52.2818940
 151.1511030 125.9467160  57.1097920 151.4586010 125.3914050  56.3933420
 150.2211730 126.0811620  56.9270910 149.1448430 134.5380730  56.6277770
 148.7405430 133.8257980  56.1323670 149.2311550 134.1933970  57.5165810
 149.6130130 138.2248290  58.7916980 149.3158420 137.6193760  58.1124760
 150.5629950 138.2625600  58.6806340 147.8577050 131.3123940  60.4076810
 148.4091640 131.4219280  59.6330060 148.3720560 131.6861540  61.1232040
 148.7048560 137.9629980  65.4424780 147.8077090 138.1869950  65.6898180
 148.7301430 138.0864920  64.4936180 147.5319780 134.8343300  64.0182150
 147.3927550 135.7066100  64.3869550 146.6501140 134.4916110  63.8730090
 149.3300130 140.7765000  66.2267300 149.3015560 141.1807950  65.3595730
 149.1665100 139.8475360  66.0638900 145.8453060 133.4325710  54.1284420
 145.7250660 134.1587800  53.5165690 145.5353950 132.6628620  53.6512330
 143.4838430 136.6040850  59.9353060 143.5618850 136.7389620  58.9908780
 144.0980110 135.8956740  60.1281180 144.7286060 138.3041040  56.3459240
 144.3214140 138.4455630  55.4912840 145.6199070 138.0201200  56.1430450
 149.0007720 142.5186820  54.4581910 148.8250200 141.6022360  54.2449710
 148.1463460 142.8774110  54.6979710 143.5397950 137.6455020  62.4747520
 143.7028990 137.1760380  61.6566890 144.0050400 137.1378580  63.1396360
 148.3116720 126.7760780  57.5108090 147.8684870 127.5570320  57.1792610
 148.8701710 127.0990670  58.2179030 152.5986530 129.6429300  63.1143410
 152.1365900 129.8512320  63.9263350 152.1964640 128.8288650  62.8114080
 151.4275540 126.3971480  52.3913920 150.8029720 126.3931350  53.1167230
 151.3405660 125.5302440  51.9949890 150.3492620 127.3208110  59.3697690
 150.6464950 128.2270940  59.2889710 150.8978180 126.8326890  58.7557260
 148.1030940 131.8994350  55.2389340 147.8771860 131.6831520  56.1435960
 147.3223470 132.3322810  54.8935310 150.5430150 132.7979930  65.9049610
 150.4473750 131.8574660  65.7550010 151.3862130 133.0195000  65.5097680
 145.6740690 129.2093600  64.0583390 145.2804080 130.0568810  64.2656170
 144.9859090 128.5719970  64.2492030 152.2485740 129.2928570  67.1280130
 151.5584060 129.1000770  67.7626220 152.9918040 129.5763210  67.6604430
 142.9757740 127.1322060  58.0913470 142.6870790 127.7024920  58.8038450
 143.7203500 126.6526510  58.4544700 143.1627970 131.0742180  49.3016190
 143.0802640 132.0172940  49.4431180 142.8111030 130.9317090  48.4228540
 150.9626100 129.8081210  58.3686540 150.9662160 129.3671160  57.5191080
 151.8577220 130.1298540  58.4758360 146.8128480 129.6907700  57.3280750
 146.4728530 130.1682930  58.0847800 146.0505800 129.2372820  56.9681850
 151.0246250 130.8093290  51.3593300 151.1459070 130.7679770  52.3079120
 150.6394760 131.6717440  51.2040030 150.0367750 133.1194430  50.7576600
 149.4684650 132.6712680  50.1312510 150.7456750 133.4787210  50.2241750
 145.1136930 137.0206450  64.6343330 144.7291720 136.3800120  65.2326290
 145.4249120 137.7242570  65.2038060 151.2634070 133.8682990  60.1151950
 151.6304200 133.3941560  60.8613290 151.0739130 134.7424560  60.4560290
 144.1274560 128.6126680  56.2445420 143.8421480 128.2482350  57.0824040
 144.0653420 127.8807140  55.6308560 149.0533440 132.9091630  62.4336160
 148.7490510 133.7883610  62.6586520 150.0079900 132.9691420  62.4693600
 147.5815230 137.1152620  53.0303010 146.8077490 136.5750240  52.8701730
 148.3109860 136.5959230  52.6920770 147.6252630 136.7833000  56.6681820
 148.1431300 135.9801260  56.6138710 147.1736650 136.7212140  57.5098650
 152.5122130 138.0499280  51.9409120 152.8537830 138.7941510  51.4452440
 151.6834840 138.3630400  52.3033950 145.1097170 133.7494370  63.5807520
 144.7512110 134.4148220  64.1680860 144.8151730 132.9177920  63.9520140
 148.3110290 134.2078610  66.4647070 148.0110430 134.3535790  65.5674890
 149.0821530 133.6483900  66.3720460 151.4812820 138.1312810  54.7125040
 152.1683950 138.6782020  55.0932630 150.6945240 138.6753540  54.7474650
 143.6205220 133.7485630  50.2042120 144.4900070 134.0310430  50.4878040
 143.1295540 134.5621500  50.0890930 150.7840030 135.1358840  54.3250400
 151.2402810 135.9464090  54.5510590 150.4328240 134.8181980  55.1568890
 146.6851810 125.4796490  54.7972920 146.5566440 125.4714390  55.7457840
 145.8613830 125.8179580  54.4463930 143.9876470 142.9613010  50.7703750
 144.3474110 143.5602350  50.1161020 143.8468810 143.5072900  51.5438780
 143.6845740 127.2387610  64.2579620 142.9704260 127.4384530  64.8632230
 144.1040780 126.4627180  64.6294420 143.9718330 141.2267870  65.2446150
 144.0809450 140.2862610  65.1041540 143.3198890 141.4922620  64.5959880
 151.9630920 139.4983760  66.6444270 151.6427790 138.7793000  67.1889960
 151.2889280 140.1738830  66.7180330 150.0045090 140.3444210  51.5877420
 149.9955190 141.0773900  50.9721930 149.0843450 140.0975790  51.6804380
 145.6051730 135.5659100  52.3324180 144.9979680 136.3058000  52.3419480
 146.0801080 135.6558460  51.5062380 152.9904690 140.4072450  50.2502610
 153.0916670 140.2036440  49.3204590 152.0906430 140.1530730  50.4550390
 150.5130580 130.9652810  54.2326510 149.8046730 131.4339150  54.6740120
 150.7975060 130.3074820  54.8671700 152.1386510 132.3849510  62.2319040
 152.6371760 132.8595330  62.8970890 152.2809460 131.4613030  62.4389070
 151.6322800 142.9258770  54.9450280 151.8864300 142.8880160  54.0229650
 150.6835280 142.7992100  54.9378530 148.7165600 129.2737890  51.6077220
 149.5656130 129.7108040  51.5417410 148.3496870 129.5858150  52.4349280
 147.6157020 135.5270250  50.0812750 148.3820290 135.4151610  50.6438180
 147.6931710 134.8308220  49.4289520 146.3103780 132.9595320  50.7645640
 146.3907370 132.0122830  50.8763040 147.2023530 133.2902200  50.8706300
 147.1118490 143.1090710  57.8680180 147.8480970 142.5606170  58.1388750
 147.4959410 143.9746720  57.7286170 143.9963970 139.1764280  53.7421690
 143.0703750 139.4185420  53.7327100 144.4620400 140.0038540  53.6206440
 146.1176770 142.2936780  67.0565760 146.9189500 142.6148830  67.4701160
 145.6028590 141.9332360  67.7785670 150.2220800 142.2821020  49.6905750
 151.0149410 142.5709850  49.2387540 149.7025150 141.8513190  49.0118230
 143.8374580 134.7810240  66.0001810 144.3413600 134.2017520  66.5718040
 143.0982000 135.0650470  66.5378180 150.7398200 137.5024430  49.5548100
 150.6348840 136.8876780  50.2809480 150.5722420 136.9790320  48.7711110
 150.8912520 136.1881230  65.5337330 150.1258190 136.7566230  65.4492000
 151.0728480 135.8957440  64.6405560 145.8697660 132.9239830  66.8951880
 145.9103000 132.6253700  67.8037110 146.7243160 133.3247440  66.7359400
 149.6476050 135.5235380  52.0555390 150.0692470 135.3575250  52.8986780
 149.7726890 134.7135610  51.5610530 147.8103470 131.5031930  64.8626370
 147.2799930 131.0122880  64.2349710 148.4791540 131.9316130  64.3284300
 152.1603690 134.5472990  49.3032490 152.6809350 133.8322010  48.9373640
 152.8072090 135.1858860  49.6033000 148.2975770 128.4694300  64.9423660
 148.2032640 127.8515050  64.2174530 147.7173160 129.1960590  64.7153570
 151.0637210 127.0267540  61.9751050 150.6154510 127.0491800  61.1296600
 150.4302410 126.6286560  62.5721350 151.4696760 135.9221870  62.5963490
 151.8884870 136.7654600  62.4239730 150.5505390 136.0593910  62.3670270
 148.5434950 131.5968610  49.0013550 148.3424010 130.7335970  49.3626890
 148.3727000 131.5101970  48.0635150 149.3204180 142.2274880  63.7121220
 148.7825270 142.9520940  63.3929920 149.5738140 141.7505220  62.9218560
 150.5729430 130.1959400  65.2377150 151.1629120 129.8875250  65.9254970
 149.7549670 129.7239150  65.3937050 147.3417750 128.6969230  48.9891430
 147.6443650 128.7036660  48.0810580 148.0812340 128.3467090  49.4859090
 152.1766390 143.4626090  63.9707870 152.1025090 144.3661230  64.2780240
 151.2745230 143.1437990  63.9429940 150.5602680 127.6403850  49.9747630
 150.2124680 126.9627840  49.3950080 150.7615450 127.1793360  50.7891020
 146.3647880 138.0011650  49.8221230 146.8022750 138.5441320  50.4778810
 146.8495610 137.1758600  49.8317570 143.5793680 140.7900680  57.2741490
 143.9096690 139.9221740  57.0420130 144.0084680 140.9959200  58.1046450
 148.1755600 139.1209690  54.9343460 147.8751140 138.9974660  55.8347370
 148.0693090 138.2618280  54.5259190 144.0683890 141.6571270  60.0123120
 143.6314880 141.8372070  60.8447270 144.6361570 142.4145890  59.8704840
 143.9008320 134.1691500  56.3712000 143.2457160 133.9003140  55.7271700
 144.7386270 134.0595980  55.9213980 144.9384250 134.5544070  60.9115340
 145.3057290 134.4671470  61.7911360 144.3695070 133.7910620  60.8122200
 144.4900250 131.4653160  64.8173760 143.5956300 131.4319920  65.1567470
 145.0297800 131.6639950  65.5825010 143.1146400 131.3790430  52.3137330
 142.2110480 131.6420630  52.1388990 143.5987020 131.6501600  51.5337290
 145.6573610 130.4355970  50.2231710 146.3665310 130.0139190  49.7378990
 144.9413550 130.5031200  49.5915060 145.3047770 126.4895300  49.2634360
 146.0275900 127.0304240  49.5815580 145.5772290 126.2158720  48.3875900
 144.9939960 125.7401490  59.1656980 145.6416150 125.1898870  58.7252140
 145.4141800 125.9944640  59.9872790 144.7471960 125.8957160  61.9082300
 144.3986780 126.3520980  62.6740480 144.4159660 125.0014290  61.9904730
 146.3536330 139.0676760  66.0735490 146.3105960 138.6969670  66.9549950
 146.4847340 140.0054330  66.2137310 150.0542360 140.6236350  61.6745210
 149.8133720 140.8910910  60.7875730 150.9945000 140.7942080  61.7296070
 145.4192600 125.4233360  65.1833070 145.9675590 125.2421410  64.4199180
 145.4847910 124.6327470  65.7189380 146.1924360 142.0139010  63.1933270
 145.5984680 141.8823710  63.9323310 146.1848200 141.1777150  62.7275370
 145.8236590 139.3797390  62.1441310 145.0970650 138.7602680  62.0767260
 145.8845740 139.7738000  61.2739390 149.4281690 141.5942390  58.9290720
 149.9446710 140.9829750  58.4038980 150.0779070 142.0971170  59.4201730
 152.1677190 142.4850880  59.7559700 152.4555000 142.2305180  58.8792710
 152.6800410 141.9328240  60.3465270 144.1066590 142.6971780  55.3538070
 143.9388630 142.0642460  56.0519960 143.2401100 142.9031180  55.0032260
 144.7294610 126.5288560  52.8569930 145.4873970 126.6417440  52.2833960
 144.2671780 127.3657760  52.8113360 151.2708420 128.6427830  55.8472240
 150.4582930 128.2684720  55.5068120 151.7750060 127.8872910  56.1493430
 145.7129290 141.3905010  52.7988210 145.1876910 141.7713040  52.0950170
 145.6373870 142.0155780  53.5197920 147.1019760 127.0552610  51.3971900
 147.6312520 126.2682410  51.2679850 147.7348080 127.7343800  51.6307430
 149.2957600 126.7927750  54.4517290 148.6660340 126.0915060  54.6187420
 148.7562740 127.5531880  54.2350450 149.4213160 126.0711730  66.8869780
 149.1397430 126.5745330  66.1230600 149.8032860 125.2733480  66.5211910
 148.3122260 143.3387390  51.6737460 149.0441080 143.0546670  51.1261350
 148.5715930 143.1000670  52.5636840 147.4737050 139.4552120  51.6783790
 146.8445930 139.9237220  52.2269620 147.5884880 138.6101340  52.1129980
 147.0770640 135.5956610  40.5870020 146.2455520 135.3405320  40.9866530
 147.6851620 135.6667380  41.3227940 147.0571900 139.6296700  40.7828040
 147.3599940 138.7394440  40.6038260 147.8015490 140.1866920  40.5550290
 145.4862590 130.5558500  34.3712410 144.5979290 130.8974470  34.2692290
 145.7703780 130.3558820  33.4793240 143.4495600 133.1564150  40.2552110
 144.0211710 132.3886350  40.2555750 143.4497140 133.4552910  39.3458720
 144.6920470 128.5648510  42.0421040 144.5123310 127.6674260  42.3223800
 144.2900550 129.1120380  42.7167990 147.6623980 129.1390000  35.4050790
 147.7690730 130.0393730  35.7119550 146.7516340 129.0907970  35.1145440
 145.3107140 131.0609010  40.6503380 145.9917250 131.3247380  41.2690780
 144.9955190 130.2209880  40.9841390 149.5031710 132.1076370  39.7375970
 150.0109930 132.6057340  40.3780990 150.0344950 131.3311570  39.5615330
 147.7867810 126.7474930  44.0039390 147.7886250 127.2647320  43.1985290
 146.9572120 126.2705110  43.9809320 149.0370660 136.3870110  42.1812890
 148.7040040 137.0139030  42.8233960 149.2137340 136.9131990  41.4014560
 147.4683140 128.4584890  42.0109840 147.8099950 129.3026940  41.7163710
 146.5298950 128.6068630  42.1275180 148.2489760 138.3550910  43.9962070
 148.8663760 139.0301990  43.7146520 147.3882880 138.7638890  43.9049570
 143.5422100 137.5450770  32.8768920 143.1650080 138.0337870  32.1453820
 143.7995170 138.2176050  33.5075450 151.1511030 125.9467160  38.3354430
 151.4586010 125.3914050  37.6189930 150.2211730 126.0811620  38.1527420
 149.1448430 134.5380730  37.8534280 148.7405430 133.8257980  37.3580180
 149.2311550 134.1933970  38.7422320 149.6130130 138.2248290  40.0173490
 149.3158420 137.6193760  39.3381270 150.5629950 138.2625600  39.9062850
 147.8577050 131.3123940  41.6333320 148.4091640 131.4219280  40.8586570
 148.3720560 131.6861540  42.3488550 148.7048560 137.9629980  46.6681290
 147.8077090 138.1869950  46.9154690 148.7301430 138.0864920  45.7192690
 147.5319780 134.8343300  45.2438660 147.3927550 135.7066100  45.6126060
 146.6501140 134.4916110  45.0986600 149.3300130 140.7765000  47.4523810
 149.3015560 141.1807950  46.5852240 149.1665100 139.8475360  47.2895410
 145.8453060 133.4325710  35.3540930 145.7250660 134.1587800  34.7422200
 145.5353950 132.6628620  34.8768840 143.4838430 136.6040850  41.1609570
 143.5618850 136.7389620  40.2165290 144.0980110 135.8956740  41.3537690
 144.7286060 138.3041040  37.5715750 144.3214140 138.4455630  36.7169350
 145.6199070 138.0201200  37.3686960 149.0007720 142.5186820  35.6838420
 148.8250200 141.6022360  35.4706220 148.1463460 142.8774110  35.9236220
 143.5397950 137.6455020  43.7004030 143.7028990 137.1760380  42.8823400
 144.0050400 137.1378580  44.3652870 148.3116720 126.7760780  38.7364600
 147.8684870 127.5570320  38.4049120 148.8701710 127.0990670  39.4435540
 152.5986530 129.6429300  44.3399920 152.1365900 129.8512320  45.1519860
 152.1964640 128.8288650  44.0370590 151.4275540 126.3971480  33.6170430
 150.8029720 126.3931350  34.3423740 151.3405660 125.5302440  33.2206400
 150.3492620 127.3208110  40.5954200 150.6464950 128.2270940  40.5146220
 150.8978180 126.8326890  39.9813770 148.1030940 131.8994350  36.4645850
 147.8771860 131.6831520  37.3692470 147.3223470 132.3322810  36.1191820
 150.5430150 132.7979930  47.1306120 150.4473750 131.8574660  46.9806520
 151.3862130 133.0195000  46.7354190 145.6740690 129.2093600  45.2839900
 145.2804080 130.0568810  45.4912680 144.9859090 128.5719970  45.4748540
 152.2485740 129.2928570  48.3536640 151.5584060 129.1000770  48.9882730
 152.9918040 129.5763210  48.8860940 142.9757740 127.1322060  39.3169980
 142.6870790 127.7024920  40.0294960 143.7203500 126.6526510  39.6801210
 143.1627970 131.0742180  30.5272700 143.0802640 132.0172940  30.6687690
 142.8111030 130.9317090  29.6485050 150.9626100 129.8081210  39.5943050
 150.9662160 129.3671160  38.7447590 151.8577220 130.1298540  39.7014870
 146.8128480 129.6907700  38.5537260 146.4728530 130.1682930  39.3104310
 146.0505800 129.2372820  38.1938360 151.0246250 130.8093290  32.5849810
 151.1459070 130.7679770  33.5335630 150.6394760 131.6717440  32.4296540
 150.0367750 133.1194430  31.9833110 149.4684650 132.6712680  31.3569020
 150.7456750 133.4787210  31.4498260 145.1136930 137.0206450  45.8599840
 144.7291720 136.3800120  46.4582800 145.4249120 137.7242570  46.4294570
 151.2634070 133.8682990  41.3408460 151.6304200 133.3941560  42.0869800
 151.0739130 134.7424560  41.6816800 144.1274560 128.6126680  37.4701930
 143.8421480 128.2482350  38.3080550 144.0653420 127.8807140  36.8565070
 149.0533440 132.9091630  43.6592670 148.7490510 133.7883610  43.8843030
 150.0079900 132.9691420  43.6950110 147.5815230 137.1152620  34.2559520
 146.8077490 136.5750240  34.0958240 148.3109860 136.5959230  33.9177280
 147.6252630 136.7833000  37.8938330 148.1431300 135.9801260  37.8395220
 147.1736650 136.7212140  38.7355160 152.5122130 138.0499280  33.1665630
 152.8537830 138.7941510  32.6708950 151.6834840 138.3630400  33.5290460
 145.1097170 133.7494370  44.8064030 144.7512110 134.4148220  45.3937370
 144.8151730 132.9177920  45.1776650 148.3110290 134.2078610  47.6903580
 148.0110430 134.3535790  46.7931400 149.0821530 133.6483900  47.5976970
 151.4812820 138.1312810  35.9381550 152.1683950 138.6782020  36.3189140
 150.6945240 138.6753540  35.9731160 143.6205220 133.7485630  31.4298630
 144.4900070 134.0310430  31.7134550 143.1295540 134.5621500  31.3147440
 150.7840030 135.1358840  35.5506910 151.2402810 135.9464090  35.7767100
 150.4328240 134.8181980  36.3825400 146.6851810 125.4796490  36.0229430
 146.5566440 125.4714390  36.9714350 145.8613830 125.8179580  35.6720440
 143.9876470 142.9613010  31.9960260 144.3474110 143.5602350  31.3417530
 143.8468810 143.5072900  32.7695290 143.6845740 127.2387610  45.4836130
 142.9704260 127.4384530  46.0888740 144.1040780 126.4627180  45.8550930
 143.9718330 141.2267870  46.4702660 144.0809450 140.2862610  46.3298050
 143.3198890 141.4922620  45.8216390 151.9630920 139.4983760  47.8700780
 151.6427790 138.7793000  48.4146470 151.2889280 140.1738830  47.9436840
 150.0045090 140.3444210  32.8133930 149.9955190 141.0773900  32.1978440
 149.0843450 140.0975790  32.9060890 145.6051730 135.5659100  33.5580690
 144.9979680 136.3058000  33.5675990 146.0801080 135.6558460  32.7318890
 152.9904690 140.4072450  31.4759120 153.0916670 140.2036440  30.5461100
 152.0906430 140.1530730  31.6806900 150.5130580 130.9652810  35.4583020
 149.8046730 131.4339150  35.8996630 150.7975060 130.3074820  36.0928210
 152.1386510 132.3849510  43.4575550 152.6371760 132.8595330  44.1227400
 152.2809460 131.4613030  43.6645580 151.6322800 142.9258770  36.1706790
 151.8864300 142.8880160  35.2486160 150.6835280 142.7992100  36.1635040
 148.7165600 129.2737890  32.8333730 149.5656130 129.7108040  32.7673920
 148.3496870 129.5858150  33.6605790 147.6157020 135.5270250  31.3069260
 148.3820290 135.4151610  31.8694690 147.6931710 134.8308220  30.6546030
 146.3103780 132.9595320  31.9902150 146.3907370 132.0122830  32.1019550
 147.2023530 133.2902200  32.0962810 147.1118490 143.1090710  39.0936690
 147.8480970 142.5606170  39.3645260 147.4959410 143.9746720  38.9542680
 143.9963970 139.1764280  34.9678200 143.0703750 139.4185420  34.9583610
 144.4620400 140.0038540  34.8462950 146.1176770 142.2936780  48.2822270
 146.9189500 142.6148830  48.6957670 145.6028590 141.9332360  49.0042180
 150.2220800 142.2821020  30.9162260 151.0149410 142.5709850  30.4644050
 149.7025150 141.8513190  30.2374740 143.8374580 134.7810240  47.2258320
 144.3413600 134.2017520  47.7974550 143.0982000 135.0650470  47.7634690
 150.7398200 137.5024430  30.7804610 150.6348840 136.8876780  31.5065990
 150.5722420 136.9790320  29.9967620 150.8912520 136.1881230  46.7593840
 150.1258190 136.7566230  46.6748510 151.0728480 135.8957440  45.8662070
 145.8697660 132.9239830  48.1208390 145.9103000 132.6253700  49.0293620
 146.7243160 133.3247440  47.9615910 149.6476050 135.5235380  33.2811900
 150.0692470 135.3575250  34.1243290 149.7726890 134.7135610  32.7867040
 147.8103470 131.5031930  46.0882880 147.2799930 131.0122880  45.4606220
 148.4791540 131.9316130  45.5540810 152.1603690 134.5472990  30.5289000
 152.6809350 133.8322010  30.1630150 152.8072090 135.1858860  30.8289510
 148.2975770 128.4694300  46.1680170 148.2032640 127.8515050  45.4431040
 147.7173160 129.1960590  45.9410080 151.0637210 127.0267540  43.2007560
 150.6154510 127.0491800  42.3553110 150.4302410 126.6286560  43.7977860
 151.4696760 135.9221870  43.8220000 151.8884870 136.7654600  43.6496240
 150.5505390 136.0593910  43.5926780 148.5434950 131.5968610  30.2270060
 148.3424010 130.7335970  30.5883400 148.3727000 131.5101970  29.2891660
 149.3204180 142.2274880  44.9377730 148.7825270 142.9520940  44.6186430
 149.5738140 141.7505220  44.1475070 150.5729430 130.1959400  46.4633660
 151.1629120 129.8875250  47.1511480 149.7549670 129.7239150  46.6193560
 147.3417750 128.6969230  30.2147940 147.6443650 128.7036660  29.3067090
 148.0812340 128.3467090  30.7115600 152.1766390 143.4626090  45.1964380
 152.1025090 144.3661230  45.5036750 151.2745230 143.1437990  45.1686450
 150.5602680 127.6403850  31.2004140 150.2124680 126.9627840  30.6206590
 150.7615450 127.1793360  32.0147530 146.3647880 138.0011650  31.0477740
 146.8022750 138.5441320  31.7035320 146.8495610 137.1758600  31.0574080
 143.5793680 140.7900680  38.4998000 143.9096690 139.9221740  38.2676640
 144.0084680 140.9959200  39.3302960 148.1755600 139.1209690  36.1599970
 147.8751140 138.9974660  37.0603880 148.0693090 138.2618280  35.7515700
 144.0683890 141.6571270  41.2379630 143.6314880 141.8372070  42.0703780
 144.6361570 142.4145890  41.0961350 143.9008320 134.1691500  37.5968510
 143.2457160 133.9003140  36.9528210 144.7386270 134.0595980  37.1470490
 144.9384250 134.5544070  42.1371850 145.3057290 134.4671470  43.0167870
 144.3695070 133.7910620  42.0378710 144.4900250 131.4653160  46.0430270
 143.5956300 131.4319920  46.3823980 145.0297800 131.6639950  46.8081520
 143.1146400 131.3790430  33.5393840 142.2110480 131.6420630  33.3645500
 143.5987020 131.6501600  32.7593800 145.6573610 130.4355970  31.4488220
 146.3665310 130.0139190  30.9635500 144.9413550 130.5031200  30.8171570
 145.3047770 126.4895300  30.4890870 146.0275900 127.0304240  30.8072090
 145.5772290 126.2158720  29.6132410 144.9939960 125.7401490  40.3913490
 145.6416150 125.1898870  39.9508650 145.4141800 125.9944640  41.2129300
 144.7471960 125.8957160  43.1338810 144.3986780 126.3520980  43.8996990
 144.4159660 125.0014290  43.2161240 146.3536330 139.0676760  47.2992000
 146.3105960 138.6969670  48.1806460 146.4847340 140.0054330  47.4393820
 150.0542360 140.6236350  42.9001720 149.8133720 140.8910910  42.0132240
 150.9945000 140.7942080  42.9552580 145.4192600 125.4233360  46.4089580
 145.9675590 125.2421410  45.6455690 145.4847910 124.6327470  46.9445890
 146.1924360 142.0139010  44.4189780 145.5984680 141.8823710  45.1579820
 146.1848200 141.1777150  43.9531880 145.8236590 139.3797390  43.3697820
 145.0970650 138.7602680  43.3023770 145.8845740 139.7738000  42.4995900
 149.4281690 141.5942390  40.1547230 149.9446710 140.9829750  39.6295490
 150.0779070 142.0971170  40.6458240 152.1677190 142.4850880  40.9816210
 152.4555000 142.2305180  40.1049220 152.6800410 141.9328240  41.5721780
 144.1066590 142.6971780  36.5794580 143.9388630 142.0642460  37.2776470
 143.2401100 142.9031180  36.2288770 144.7294610 126.5288560  34.0826440
 145.4873970 126.6417440  33.5090470 144.2671780 127.3657760  34.0369870
 151.2708420 128.6427830  37.0728750 150.4582930 128.2684720  36.7324630
 151.7750060 127.8872910  37.3749940 145.7129290 141.3905010  34.0244720
 145.1876910 141.7713040  33.3206680 145.6373870 142.0155780  34.7454430
 147.1019760 127.0552610  32.6228410 147.6312520 126.2682410  32.4936360
 147.7348080 127.7343800  32.8563940 149.2957600 126.7927750  35.6773800
 148.6660340 126.0915060  35.8443930 148.7562740 127.5531880  35.4606960
 149.4213160 126.0711730  48.1126290 149.1397430 126.5745330  47.3487110
 149.8032860 125.2733480  47.7468420 148.3122260 143.3387390  32.8993970
 149.0441080 143.0546670  32.3517860 148.5715930 143.1000670  33.7893350
 147.4737050 139.4552120  32.9040300 146.8445930 139.9237220  33.4526130
 147.5884880 138.6101340  33.3386490 147.0770640 135.5956610  21.8126530
 146.2455520 135.3405320  22.2123040 147.6851620 135.6667380  22.5484450
 147.0571900 139.6296700  22.0084550 147.3599940 138.7394440  21.8294770
 147.8015490 140.1866920  21.7806800 145.4862590 130.5558500  15.5968920
 144.5979290 130.8974470  15.4948800 145.7703780 130.3558820  14.7049750
 143.4495600 133.1564150  21.4808620 144.0211710 132.3886350  21.4812260
 143.4497140 133.4552910  20.5715230 144.6920470 128.5648510  23.2677550
 144.5123310 127.6674260  23.5480310 144.2900550 129.1120380  23.9424500
 147.6623980 129.1390000  16.6307300 147.7690730 130.0393730  16.9376060
 146.7516340 129.0907970  16.3401950 145.3107140 131.0609010  21.8759890
 145.9917250 131.3247380  22.4947290 144.9955190 130.2209880  22.2097900
 149.5031710 132.1076370  20.9632480 150.0109930 132.6057340  21.6037500
 150.0344950 131.3311570  20.7871840 147.7867810 126.7474930  25.2295900
 147.7886250 127.2647320  24.4241800 146.9572120 126.2705110  25.2065830
 149.0370660 136.3870110  23.4069400 148.7040040 137.0139030  24.0490470
 149.2137340 136.9131990  22.6271070 147.4683140 128.4584890  23.2366350
 147.8099950 129.3026940  22.9420220 146.5298950 128.6068630  23.3531690
 148.2489760 138.3550910  25.2218580 148.8663760 139.0301990  24.9403030
 147.3882880 138.7638890  25.1306080 143.5422100 137.5450770  14.1025430
 143.1650080 138.0337870  13.3710330 143.7995170 138.2176050  14.7331960
 151.1511030 125.9467160  19.5610940 151.4586010 125.3914050  18.8446440
 150.2211730 126.0811620  19.3783930 149.1448430 134.5380730  19.0790790
 148.7405430 133.8257980  18.5836690 149.2311550 134.1933970  19.9678830
 149.6130130 138.2248290  21.2430000 149.3158420 137.6193760  20.5637780
 150.5629950 138.2625600  21.1319360 147.8577050 131.3123940  22.8589830
 148.4091640 131.4219280  22.0843080 148.3720560 131.6861540  23.5745060
 148.7048560 137.9629980  27.8937800 147.8077090 138.1869950  28.1411200
 148.7301430 138.0864920  26.9449200 147.5319780 134.8343300  26.4695170
 147.3927550 135.7066100  26.8382570 146.6501140 134.4916110  26.3243110
 149.3300130 140.7765000  28.6780320 149.3015560 141.1807950  27.8108750
 149.1665100 139.8475360  28.5151920 145.8453060 133.4325710  16.5797440
 145.7250660 134.1587800  15.9678710 145.5353950 132.6628620  16.1025350
 143.4838430 136.6040850  22.3866080 143.5618850 136.7389620  21.4421800
 144.0980110 135.8956740  22.5794200 144.7286060 138.3041040  18.7972260
 144.3214140 138.4455630  17.9425860 145.6199070 138.0201200  18.5943470
 149.0007720 142.5186820  16.9094930 148.8250200 141.6022360  16.6962730
 148.1463460 142.8774110  17.1492730 143.5397950 137.6455020  24.9260540
 143.7028990 137.1760380  24.1079910 144.0050400 137.1378580  25.5909380
 148.3116720 126.7760780  19.9621110 147.8684870 127.5570320  19.6305630
 148.8701710 127.0990670  20.6692050 152.5986530 129.6429300  25.5656430
 152.1365900 129.8512320  26.3776370 152.1964640 128.8288650  25.2627100
 151.4275540 126.3971480  14.8426940 150.8029720 126.3931350  15.5680250
 151.3405660 125.5302440  14.4462910 150.3492620 127.3208110  21.8210710
 150.6464950 128.2270940  21.7402730 150.8978180 126.8326890  21.2070280
 148.1030940 131.8994350  17.6902360 147.8771860 131.6831520  18.5948980
 147.3223470 132.3322810  17.3448330 150.5430150 132.7979930  28.3562630
 150.4473750 131.8574660  28.2063030 151.3862130 133.0195000  27.9610700
 145.6740690 129.2093600  26.5096410 145.2804080 130.0568810  26.7169190
 144.9859090 128.5719970  26.7005050 152.2485740 129.2928570  29.5793150
 151.5584060 129.1000770  30.2139240 152.9918040 129.5763210  30.1117450
 142.9757740 127.1322060  20.5426490 142.6870790 127.7024920  21.2551470
 143.7203500 126.6526510  20.9057720 143.1627970 131.0742180  11.7529210
 143.0802640 132.0172940  11.8944200 142.8111030 130.9317090  10.8741560
 150.9626100 129.8081210  20.8199560 150.9662160 129.3671160  19.9704100
 151.8577220 130.1298540  20.9271380 146.8128480 129.6907700  19.7793770
 146.4728530 130.1682930  20.5360820 146.0505800 129.2372820  19.4194870
 151.0246250 130.8093290  13.8106320 151.1459070 130.7679770  14.7592140
 150.6394760 131.6717440  13.6553050 150.0367750 133.1194430  13.2089620
 149.4684650 132.6712680  12.5825530 150.7456750 133.4787210  12.6754770
 145.1136930 137.0206450  27.0856350 144.7291720 136.3800120  27.6839310
 145.4249120 137.7242570  27.6551080 151.2634070 133.8682990  22.5664970
 151.6304200 133.3941560  23.3126310 151.0739130 134.7424560  22.9073310
 144.1274560 128.6126680  18.6958440 143.8421480 128.2482350  19.5337060
 144.0653420 127.8807140  18.0821580 149.0533440 132.9091630  24.8849180
 148.7490510 133.7883610  25.1099540 150.0079900 132.9691420  24.9206620
 147.5815230 137.1152620  15.4816030 146.8077490 136.5750240  15.3214750
 148.3109860 136.5959230  15.1433790 147.6252630 136.7833000  19.1194840
 148.1431300 135.9801260  19.0651730 147.1736650 136.7212140  19.9611670
 152.5122130 138.0499280  14.3922140 152.8537830 138.7941510  13.8965460
 151.6834840 138.3630400  14.7546970 145.1097170 133.7494370  26.0320540
 144.7512110 134.4148220  26.6193880 144.8151730 132.9177920  26.4033160
 148.3110290 134.2078610  28.9160090 148.0110430 134.3535790  28.0187910
 149.0821530 133.6483900  28.8233480 151.4812820 138.1312810  17.1638060
 152.1683950 138.6782020  17.5445650 150.6945240 138.6753540  17.1987670
 143.6205220 133.7485630  12.6555140 144.4900070 134.0310430  12.9391060
 143.1295540 134.5621500  12.5403950 150.7840030 135.1358840  16.7763420
 151.2402810 135.9464090  17.0023610 150.4328240 134.8181980  17.6081910
 146.6851810 125.4796490  17.2485940 146.5566440 125.4714390  18.1970860
 145.8613830 125.8179580  16.8976950 143.9876470 142.9613010  13.2216770
 144.3474110 143.5602350  12.5674040 143.8468810 143.5072900  13.9951800
 143.6845740 127.2387610  26.7092640 142.9704260 127.4384530  27.3145250
 144.1040780 126.4627180  27.0807440 143.9718330 141.2267870  27.6959170
 144.0809450 140.2862610  27.5554560 143.3198890 141.4922620  27.0472900
 151.9630920 139.4983760  29.0957290 151.6427790 138.7793000  29.6402980
 151.2889280 140.1738830  29.1693350 150.0045090 140.3444210  14.0390440
 149.9955190 141.0773900  13.4234950 149.0843450 140.0975790  14.1317400
 145.6051730 135.5659100  14.7837200 144.9979680 136.3058000  14.7932500
 146.0801080 135.6558460  13.9575400 152.9904690 140.4072450  12.7015630
 153.0916670 140.2036440  11.7717610 152.0906430 140.1530730  12.9063410
 150.5130580 130.9652810  16.6839530 149.8046730 131.4339150  17.1253140
 150.7975060 130.3074820  17.3184720 152.1386510 132.3849510  24.6832060
 152.6371760 132.8595330  25.3483910 152.2809460 131.4613030  24.8902090
 151.6322800 142.9258770  17.3963300 151.8864300 142.8880160  16.4742670
 150.6835280 142.7992100  17.3891550 148.7165600 129.2737890  14.0590240
 149.5656130 129.7108040  13.9930430 148.3496870 129.5858150  14.8862300
 147.6157020 135.5270250  12.5325770 148.3820290 135.4151610  13.0951200
 147.6931710 134.8308220  11.8802540 146.3103780 132.9595320  13.2158660
 146.3907370 132.0122830  13.3276060 147.2023530 133.2902200  13.3219320
 147.1118490 143.1090710  20.3193200 147.8480970 142.5606170  20.5901770
 147.4959410 143.9746720  20.1799190 143.9963970 139.1764280  16.1934710
 143.0703750 139.4185420  16.1840120 144.4620400 140.0038540  16.0719460
 146.1176770 142.2936780  29.5078780 146.9189500 142.6148830  29.9214180
 145.6028590 141.9332360  30.2298690 150.2220800 142.2821020  12.1418770
 151.0149410 142.5709850  11.6900560 149.7025150 141.8513190  11.4631250
 143.8374580 134.7810240  28.4514830 144.3413600 134.2017520  29.0231060
 143.0982000 135.0650470  28.9891200 150.7398200 137.5024430  12.0061120
 150.6348840 136.8876780  12.7322500 150.5722420 136.9790320  11.2224130
 150.8912520 136.1881230  27.9850350 150.1258190 136.7566230  27.9005020
 151.0728480 135.8957440  27.0918580 145.8697660 132.9239830  29.3464900
 145.9103000 132.6253700  30.2550130 146.7243160 133.3247440  29.1872420
 149.6476050 135.5235380  14.5068410 150.0692470 135.3575250  15.3499800
 149.7726890 134.7135610  14.0123550 147.8103470 131.5031930  27.3139390
 147.2799930 131.0122880  26.6862730 148.4791540 131.9316130  26.7797320
 152.1603690 134.5472990  11.7545510 152.6809350 133.8322010  11.3886660
 152.8072090 135.1858860  12.0546020 148.2975770 128.4694300  27.3936680
 148.2032640 127.8515050  26.6687550 147.7173160 129.1960590  27.1666590
 151.0637210 127.0267540  24.4264070 150.6154510 127.0491800  23.5809620
 150.4302410 126.6286560  25.0234370 151.4696760 135.9221870  25.0476510
 151.8884870 136.7654600  24.8752750 150.5505390 136.0593910  24.8183290
 148.5434950 131.5968610  11.4526570 148.3424010 130.7335970  11.8139910
 148.3727000 131.5101970  10.5148170 149.3204180 142.2274880  26.1634240
 148.7825270 142.9520940  25.8442940 149.5738140 141.7505220  25.3731580
 150.5729430 130.1959400  27.6890170 151.1629120 129.8875250  28.3767990
 149.7549670 129.7239150  27.8450070 147.3417750 128.6969230  11.4404450
 147.6443650 128.7036660  10.5323600 148.0812340 128.3467090  11.9372110
 152.1766390 143.4626090  26.4220890 152.1025090 144.3661230  26.7293260
 151.2745230 143.1437990  26.3942960 150.5602680 127.6403850  12.4260650
 150.2124680 126.9627840  11.8463100 150.7615450 127.1793360  13.2404040
 146.3647880 138.0011650  12.2734250 146.8022750 138.5441320  12.9291830
 146.8495610 137.1758600  12.2830590 143.5793680 140.7900680  19.7254510
 143.9096690 139.9221740  19.4933150 144.0084680 140.9959200  20.5559470
 148.1755600 139.1209690  17.3856480 147.8751140 138.9974660  18.2860390
 148.0693090 138.2618280  16.9772210 144.0683890 141.6571270  22.4636140
 143.6314880 141.8372070  23.2960290 144.6361570 142.4145890  22.3217860
 143.9008320 134.1691500  18.8225020 143.2457160 133.9003140  18.1784720
 144.7386270 134.0595980  18.3727000 144.9384250 134.5544070  23.3628360
 145.3057290 134.4671470  24.2424380 144.3695070 133.7910620  23.2635220
 144.4900250 131.4653160  27.2686780 143.5956300 131.4319920  27.6080490
 145.0297800 131.6639950  28.0338030 143.1146400 131.3790430  14.7650350
 142.2110480 131.6420630  14.5902010 143.5987020 131.6501600  13.9850310
 145.6573610 130.4355970  12.6744730 146.3665310 130.0139190  12.1892010
 144.9413550 130.5031200  12.0428080 145.3047770 126.4895300  11.7147380
 146.0275900 127.0304240  12.0328600 145.5772290 126.2158720  10.8388920
 144.9939960 125.7401490  21.6170000 145.6416150 125.1898870  21.1765160
 145.4141800 125.9944640  22.4385810 144.7471960 125.8957160  24.3595320
 144.3986780 126.3520980  25.1253500 144.4159660 125.0014290  24.4417750
 146.3536330 139.0676760  28.5248510 146.3105960 138.6969670  29.4062970
 146.4847340 140.0054330  28.6650330 150.0542360 140.6236350  24.1258230
 149.8133720 140.8910910  23.2388750 150.9945000 140.7942080  24.1809090
 145.4192600 125.4233360  27.6346090 145.9675590 125.2421410  26.8712200
 145.4847910 124.6327470  28.1702400 146.1924360 142.0139010  25.6446290
 145.5984680 141.8823710  26.3836330 146.1848200 141.1777150  25.1788390
 145.8236590 139.3797390  24.5954330 145.0970650 138.7602680  24.5280280
 145.8845740 139.7738000  23.7252410 149.4281690 141.5942390  21.3803740
 149.9446710 140.9829750  20.8552000 150.0779070 142.0971170  21.8714750
 152.1677190 142.4850880  22.2072720 152.4555000 142.2305180  21.3305730
 152.6800410 141.9328240  22.7978290 144.1066590 142.6971780  17.8051090
 143.9388630 142.0642460  18.5032980 143.2401100 142.9031180  17.4545280
 144.7294610 126.5288560  15.3082950 145.4873970 126.6417440  14.7346980
 144.2671780 127.3657760  15.2626380 151.2708420 128.6427830  18.2985260
 150.4582930 128.2684720  17.9581140 151.7750060 127.8872910  18.6006450
 145.7129290 141.3905010  15.2501230 145.1876910 141.7713040  14.5463190
 145.6373870 142.0155780  15.9710940 147.1019760 127.0552610  13.8484920
 147.6312520 126.2682410  13.7192870 147.7348080 127.7343800  14.0820450
 149.2957600 126.7927750  16.9030310 148.6660340 126.0915060  17.0700440
 148.7562740 127.5531880  16.6863470 149.4213160 126.0711730  29.3382800
 149.1397430 126.5745330  28.5743620 149.8032860 125.2733480  28.9724930
 148.3122260 143.3387390  14.1250480 149.0441080 143.0546670  13.5774370
 148.5715930 143.1000670  15.0149860 147.4737050 139.4552120  14.1296810
 146.8445930 139.9237220  14.6782640 147.5884880 138.6101340  14.5643000
 147.0770640 135.5956610   3.0383040 146.2455520 135.3405320   3.4379550
 147.6851620 135.6667380   3.7740960 147.0571900 139.6296700   3.2341060
 147.3599940 138.7394440   3.0551280 147.8015490 140.1866920   3.0063310
 143.4495600 133.1564150   2.7065130 144.0211710 132.3886350   2.7068770
 143.4497140 133.4552910   1.7971740 144.6920470 128.5648510   4.4934060
 144.5123310 127.6674260   4.7736820 144.2900550 129.1120380   5.1681010
 145.3107140 131.0609010   3.1016400 145.9917250 131.3247380   3.7203800
 144.9955190 130.2209880   3.4354410 149.5031710 132.1076370   2.1888990
 150.0109930 132.6057340   2.8294010 150.0344950 131.3311570   2.0128350
 147.7867810 126.7474930   6.4552410 147.7886250 127.2647320   5.6498310
 146.9572120 126.2705110   6.4322340 149.0370660 136.3870110   4.6325910
 148.7040040 137.0139030   5.2746980 149.2137340 136.9131990   3.8527580
 147.4683140 128.4584890   4.4622860 147.8099950 129.3026940   4.1676730
 146.5298950 128.6068630   4.5788200 148.2489760 138.3550910   6.4475090
 148.8663760 139.0301990   6.1659540 147.3882880 138.7638890   6.3562590
 149.6130130 138.2248290   2.4686510 149.3158420 137.6193760   1.7894290
 150.5629950 138.2625600   2.3575870 147.8577050 131.3123940   4.0846340
 148.4091640 131.4219280   3.3099590 148.3720560 131.6861540   4.8001570
 148.7048560 137.9629980   9.1194310 147.8077090 138.1869950   9.3667710
 148.7301430 138.0864920   8.1705710 147.5319780 134.8343300   7.6951680
 147.3927550 135.7066100   8.0639080 146.6501140 134.4916110   7.5499620
 149.3300130 140.7765000   9.9036830 149.3015560 141.1807950   9.0365260
 149.1665100 139.8475360   9.7408430 143.4838430 136.6040850   3.6122590
 143.5618850 136.7389620   2.6678310 144.0980110 135.8956740   3.8050710
 143.5397950 137.6455020   6.1517050 143.7028990 137.1760380   5.3336420
 144.0050400 137.1378580   6.8165890 152.5986530 129.6429300   6.7912940
 152.1365900 129.8512320   7.6032880 152.1964640 128.8288650   6.4883610
 150.3492620 127.3208110   3.0467220 150.6464950 128.2270940   2.9659240
 150.8978180 126.8326890   2.4326790 150.5430150 132.7979930   9.5819140
 150.4473750 131.8574660   9.4319540 151.3862130 133.0195000   9.1867210
 145.6740690 129.2093600   7.7352920 145.2804080 130.0568810   7.9425700
 144.9859090 128.5719970   7.9261560 152.2485740 129.2928570  10.8049660
 151.5584060 129.1000770  11.4395750 152.9918040 129.5763210  11.3373960
 142.9757740 127.1322060   1.7683000 142.6870790 127.7024920   2.4807980
 143.7203500 126.6526510   2.1314230 145.1136930 137.0206450   8.3112860
 144.7291720 136.3800120   8.9095820 145.4249120 137.7242570   8.8807590
 151.2634070 133.8682990   3.7921480 151.6304200 133.3941560   4.5382820
 151.0739130 134.7424560   4.1329820 149.0533440 132.9091630   6.1105690
 148.7490510 133.7883610   6.3356050 150.0079900 132.9691420   6.1463130
 145.1097170 133.7494370   7.2577050 144.7512110 134.4148220   7.8450390
 144.8151730 132.9177920   7.6289670 148.3110290 134.2078610  10.1416600
 148.0110430 134.3535790   9.2444420 149.0821530 133.6483900  10.0489990
 143.6845740 127.2387610   7.9349150 142.9704260 127.4384530   8.5401760
 144.1040780 126.4627180   8.3063950 143.9718330 141.2267870   8.9215680
 144.0809450 140.2862610   8.7811070 143.3198890 141.4922620   8.2729410
 151.9630920 139.4983760  10.3213800 151.6427790 138.7793000  10.8659490
 151.2889280 140.1738830  10.3949860 152.1386510 132.3849510   5.9088570
 152.6371760 132.8595330   6.5740420 152.2809460 131.4613030   6.1158600
 146.1176770 142.2936780  10.7335290 146.9189500 142.6148830  11.1470690
 145.6028590 141.9332360  11.4555200 143.8374580 134.7810240   9.6771340
 144.3413600 134.2017520  10.2487570 143.0982000 135.0650470  10.2147710
 150.8912520 136.1881230   9.2106860 150.1258190 136.7566230   9.1261530
 151.0728480 135.8957440   8.3175090 145.8697660 132.9239830  10.5721410
 145.9103000 132.6253700  11.4806640 146.7243160 133.3247440  10.4128930
 147.8103470 131.5031930   8.5395900 147.2799930 131.0122880   7.9119240
 148.4791540 131.9316130   8.0053830 148.2975770 128.4694300   8.6193190
 148.2032640 127.8515050   7.8944060 147.7173160 129.1960590   8.3923100
 151.0637210 127.0267540   5.6520580 150.6154510 127.0491800   4.8066130
 150.4302410 126.6286560   6.2490880 151.4696760 135.9221870   6.2733020
 151.8884870 136.7654600   6.1009260 150.5505390 136.0593910   6.0439800
 149.3204180 142.2274880   7.3890750 148.7825270 142.9520940   7.0699450
 149.5738140 141.7505220   6.5988090 150.5729430 130.1959400   8.9146680
 151.1629120 129.8875250   9.6024500 149.7549670 129.7239150   9.0706580
 152.1766390 143.4626090   7.6477400 152.1025090 144.3661230   7.9549770
 151.2745230 143.1437990   7.6199470 144.0683890 141.6571270   3.6892650
 143.6314880 141.8372070   4.5216800 144.6361570 142.4145890   3.5474370
 144.9384250 134.5544070   4.5884870 145.3057290 134.4671470   5.4680890
 144.3695070 133.7910620   4.4891730 144.4900250 131.4653160   8.4943290
 143.5956300 131.4319920   8.8337000 145.0297800 131.6639950   9.2594540
 144.9939960 125.7401490   2.8426510 145.6416150 125.1898870   2.4021670
 145.4141800 125.9944640   3.6642320 144.7471960 125.8957160   5.5851830
 144.3986780 126.3520980   6.3510010 144.4159660 125.0014290   5.6674260
 146.3536330 139.0676760   9.7505020 146.3105960 138.6969670  10.6319480
 146.4847340 140.0054330   9.8906840 150.0542360 140.6236350   5.3514740
 149.8133720 140.8910910   4.4645260 150.9945000 140.7942080   5.4065600
 145.4192600 125.4233360   8.8602600 145.9675590 125.2421410   8.0968710
 145.4847910 124.6327470   9.3958910 146.1924360 142.0139010   6.8702800
 145.5984680 141.8823710   7.6092840 146.1848200 141.1777150   6.4044900
 145.8236590 139.3797390   5.8210840 145.0970650 138.7602680   5.7536790
 145.8845740 139.7738000   4.9508920 149.4281690 141.5942390   2.6060250
 149.9446710 140.9829750   2.0808510 150.0779070 142.0971170   3.0971260
 152.1677190 142.4850880   3.4329230 152.4555000 142.2305180   2.5562240
 152.6800410 141.9328240   4.0234800 149.4213160 126.0711730  10.5639310
 149.1397430 126.5745330   9.8000130 149.8032860 125.2733480  10.1981440
 145.4862590 111.7815010 147.0173350 144.5979290 112.1230980 146.9153230
 145.7703780 111.5815330 146.1254180 147.6623980 110.3646510 148.0511730
 147.7690730 111.2650240 148.3580490 146.7516340 110.3164480 147.7606380
 143.5422100 118.7707280 145.5229860 143.1650080 119.2594380 144.7914760
 143.7995170 119.4432560 146.1536390 151.1511030 107.1723670 150.9815370
 151.4586010 106.6170560 150.2650870 150.2211730 107.3068130 150.7988360
 149.1448430 115.7637240 150.4995220 148.7405430 115.0514490 150.0041120
 149.2311550 115.4190480 151.3883260 145.8453060 114.6582220 148.0001870
 145.7250660 115.3844310 147.3883140 145.5353950 113.8885130 147.5229780
 144.7286060 119.5297550 150.2176690 144.3214140 119.6712140 149.3630290
 145.6199070 119.2457710 150.0147900 149.0007720 123.7443330 148.3299360
 148.8250200 122.8278870 148.1167160 148.1463460 124.1030620 148.5697160
 148.3116720 108.0017290 151.3825540 147.8684870 108.7826830 151.0510060
 148.8701710 108.3247180 152.0896480 151.4275540 107.6227990 146.2631370
 150.8029720 107.6187860 146.9884680 151.3405660 106.7558950 145.8667340
 148.1030940 113.1250860 149.1106790 147.8771860 112.9088030 150.0153410
 147.3223470 113.5579320 148.7652760 143.1627970 112.2998690 143.1733640
 143.0802640 113.2429450 143.3148630 142.8111030 112.1573600 142.2945990
 150.9626100 111.0337720 152.2403990 150.9662160 110.5927670 151.3908530
 151.8577220 111.3555050 152.3475810 146.8128480 110.9164210 151.1998200
 146.4728530 111.3939440 151.9565250 146.0505800 110.4629330 150.8399300
 151.0246250 112.0349800 145.2310750 151.1459070 111.9936280 146.1796570
 150.6394760 112.8973950 145.0757480 150.0367750 114.3450940 144.6294050
 149.4684650 113.8969190 144.0029960 150.7456750 114.7043720 144.0959200
 144.1274560 109.8383190 150.1162870 143.8421480 109.4738860 150.9541490
 144.0653420 109.1063650 149.5026010 147.5815230 118.3409130 146.9020460
 146.8077490 117.8006750 146.7419180 148.3109860 117.8215740 146.5638220
 147.6252630 118.0089510 150.5399270 148.1431300 117.2057770 150.4856160
 147.1736650 117.9468650 151.3816100 152.5122130 119.2755790 145.8126570
 152.8537830 120.0198020 145.3169890 151.6834840 119.5886910 146.1751400
 151.4812820 119.3569320 148.5842490 152.1683950 119.9038530 148.9650080
 150.6945240 119.9010050 148.6192100 143.6205220 114.9742140 144.0759570
 144.4900070 115.2566940 144.3595490 143.1295540 115.7878010 143.9608380
 150.7840030 116.3615350 148.1967850 151.2402810 117.1720600 148.4228040
 150.4328240 116.0438490 149.0286340 146.6851810 106.7053000 148.6690370
 146.5566440 106.6970900 149.6175290 145.8613830 107.0436090 148.3181380
 143.9876470 124.1869520 144.6421200 144.3474110 124.7858860 143.9878470
 143.8468810 124.7329410 145.4156230 150.0045090 121.5700720 145.4594870
 149.9955190 122.3030410 144.8439380 149.0843450 121.3232300 145.5521830
 145.6051730 116.7915610 146.2041630 144.9979680 117.5314510 146.2136930
 146.0801080 116.8814970 145.3779830 152.9904690 121.6328960 144.1220060
 153.0916670 121.4292950 143.1922040 152.0906430 121.3787240 144.3267840
 150.5130580 112.1909320 148.1043960 149.8046730 112.6595660 148.5457570
 150.7975060 111.5331330 148.7389150 151.6322800 124.1515280 148.8167730
 151.8864300 124.1136670 147.8947100 150.6835280 124.0248610 148.8095980
 148.7165600 110.4994400 145.4794670 149.5656130 110.9364550 145.4134860
 148.3496870 110.8114660 146.3066730 147.6157020 116.7526760 143.9530200
 148.3820290 116.6408120 144.5155630 147.6931710 116.0564730 143.3006970
 146.3103780 114.1851830 144.6363090 146.3907370 113.2379340 144.7480490
 147.2023530 114.5158710 144.7423750 147.1118490 124.3347220 151.7397630
 147.8480970 123.7862680 152.0106200 147.4959410 125.2003230 151.6003620
 143.9963970 120.4020790 147.6139140 143.0703750 120.6441930 147.6044550
 144.4620400 121.2295050 147.4923890 150.2220800 123.5077530 143.5623200
 151.0149410 123.7966360 143.1104990 149.7025150 123.0769700 142.8835680
 150.7398200 118.7280940 143.4265550 150.6348840 118.1133290 144.1526930
 150.5722420 118.2046830 142.6428560 149.6476050 116.7491890 145.9272840
 150.0692470 116.5831760 146.7704230 149.7726890 115.9392120 145.4327980
 152.1603690 115.7729500 143.1749940 152.6809350 115.0578520 142.8091090
 152.8072090 116.4115370 143.4750450 148.5434950 112.8225120 142.8731000
 148.3424010 111.9592480 143.2344340 148.3727000 112.7358480 141.9352600
 147.3417750 109.9225740 142.8608880 147.6443650 109.9293170 141.9528030
 148.0812340 109.5723600 143.3576540 150.5602680 108.8660360 143.8465080
 150.2124680 108.1884350 143.2667530 150.7615450 108.4049870 144.6608470
 146.3647880 119.2268160 143.6938680 146.8022750 119.7697830 144.3496260
 146.8495610 118.4015110 143.7035020 143.5793680 122.0157190 151.1458940
 143.9096690 121.1478250 150.9137580 144.0084680 122.2215710 151.9763900
 148.1755600 120.3466200 148.8060910 147.8751140 120.2231170 149.7064820
 148.0693090 119.4874790 148.3976640 143.9008320 115.3948010 150.2429450
 143.2457160 115.1259650 149.5989150 144.7386270 115.2852490 149.7931430
 143.1146400 112.6046940 146.1854780 142.2110480 112.8677140 146.0106440
 143.5987020 112.8758110 145.4054740 145.6573610 111.6612480 144.0949160
 146.3665310 111.2395700 143.6096440 144.9413550 111.7287710 143.4632510
 145.3047770 107.7151810 143.1351810 146.0275900 108.2560750 143.4533030
 145.5772290 107.4415230 142.2593350 144.1066590 123.9228290 149.2255520
 143.9388630 123.2898970 149.9237410 143.2401100 124.1287690 148.8749710
 144.7294610 107.7545070 146.7287380 145.4873970 107.8673950 146.1551410
 144.2671780 108.5914270 146.6830810 151.2708420 109.8684340 149.7189690
 150.4582930 109.4941230 149.3785570 151.7750060 109.1129420 150.0210880
 145.7129290 122.6161520 146.6705660 145.1876910 122.9969550 145.9667620
 145.6373870 123.2412290 147.3915370 147.1019760 108.2809120 145.2689350
 147.6312520 107.4938920 145.1397300 147.7348080 108.9600310 145.5024880
 149.2957600 108.0184260 148.3234740 148.6660340 107.3171570 148.4904870
 148.7562740 108.7788390 148.1067900 148.3122260 124.5643900 145.5454910
 149.0441080 124.2803180 144.9978800 148.5715930 124.3257180 146.4354290
 147.4737050 120.6808630 145.5501240 146.8445930 121.1493730 146.0987070
 147.5884880 119.8357850 145.9847430 147.0770640 116.8213120 134.4587470
 146.2455520 116.5661830 134.8583980 147.6851620 116.8923890 135.1945390
 147.0571900 120.8553210 134.6545490 147.3599940 119.9650950 134.4755710
 147.8015490 121.4123430 134.4267740 145.4862590 111.7815010 128.2429860
 144.5979290 112.1230980 128.1409740 145.7703780 111.5815330 127.3510690
 143.4495600 114.3820660 134.1269560 144.0211710 113.6142860 134.1273200
 143.4497140 114.6809420 133.2176170 144.6920470 109.7905020 135.9138490
 144.5123310 108.8930770 136.1941250 144.2900550 110.3376890 136.5885440
 147.6623980 110.3646510 129.2768240 147.7690730 111.2650240 129.5837000
 146.7516340 110.3164480 128.9862890 145.3107140 112.2865520 134.5220830
 145.9917250 112.5503890 135.1408230 144.9955190 111.4466390 134.8558840
 149.5031710 113.3332880 133.6093420 150.0109930 113.8313850 134.2498440
 150.0344950 112.5568080 133.4332780 147.7867810 107.9731440 137.8756840
 147.7886250 108.4903830 137.0702740 146.9572120 107.4961620 137.8526770
 149.0370660 117.6126620 136.0530340 148.7040040 118.2395540 136.6951410
 149.2137340 118.1388500 135.2732010 147.4683140 109.6841400 135.8827290
 147.8099950 110.5283450 135.5881160 146.5298950 109.8325140 135.9992630
 148.2489760 119.5807420 137.8679520 148.8663760 120.2558500 137.5863970
 147.3882880 119.9895400 137.7767020 143.5422100 118.7707280 126.7486370
 143.1650080 119.2594380 126.0171270 143.7995170 119.4432560 127.3792900
 151.1511030 107.1723670 132.2071880 151.4586010 106.6170560 131.4907380
 150.2211730 107.3068130 132.0244870 149.1448430 115.7637240 131.7251730
 148.7405430 115.0514490 131.2297630 149.2311550 115.4190480 132.6139770
 149.6130130 119.4504800 133.8890940 149.3158420 118.8450270 133.2098720
 150.5629950 119.4882110 133.7780300 147.8577050 112.5380450 135.5050770
 148.4091640 112.6475790 134.7304020 148.3720560 112.9118050 136.2206000
 148.7048560 119.1886490 140.5398740 147.8077090 119.4126460 140.7872140
 148.7301430 119.3121430 139.5910140 147.5319780 116.0599810 139.1156110
 147.3927550 116.9322610 139.4843510 146.6501140 115.7172620 138.9704050
 149.3300130 122.0021510 141.3241260 149.3015560 122.4064460 140.4569690
 149.1665100 121.0731870 141.1612860 145.8453060 114.6582220 129.2258380
 145.7250660 115.3844310 128.6139650 145.5353950 113.8885130 128.7486290
 143.4838430 117.8297360 135.0327020 143.5618850 117.9646130 134.0882740
 144.0980110 117.1213250 135.2255140 144.7286060 119.5297550 131.4433200
 144.3214140 119.6712140 130.5886800 145.6199070 119.2457710 131.2404410
 149.0007720 123.7443330 129.5555870 148.8250200 122.8278870 129.3423670
 148.1463460 124.1030620 129.7953670 143.5397950 118.8711530 137.5721480
 143.7028990 118.4016890 136.7540850 144.0050400 118.3635090 138.2370320
 148.3116720 108.0017290 132.6082050 147.8684870 108.7826830 132.2766570
 148.8701710 108.3247180 133.3152990 152.5986530 110.8685810 138.2117370
 152.1365900 111.0768830 139.0237310 152.1964640 110.0545160 137.9088040
 151.4275540 107.6227990 127.4887880 150.8029720 107.6187860 128.2141190
 151.3405660 106.7558950 127.0923850 150.3492620 108.5464620 134.4671650
 150.6464950 109.4527450 134.3863670 150.8978180 108.0583400 133.8531220
 148.1030940 113.1250860 130.3363300 147.8771860 112.9088030 131.2409920
 147.3223470 113.5579320 129.9909270 150.5430150 114.0236440 141.0023570
 150.4473750 113.0831170 140.8523970 151.3862130 114.2451510 140.6071640
 145.6740690 110.4350110 139.1557350 145.2804080 111.2825320 139.3630130
 144.9859090 109.7976480 139.3465990 152.2485740 110.5185080 142.2254090
 151.5584060 110.3257280 142.8600180 152.9918040 110.8019720 142.7578390
 142.9757740 108.3578570 133.1887430 142.6870790 108.9281430 133.9012410
 143.7203500 107.8783020 133.5518660 143.1627970 112.2998690 124.3990150
 143.0802640 113.2429450 124.5405140 142.8111030 112.1573600 123.5202500
 150.9626100 111.0337720 133.4660500 150.9662160 110.5927670 132.6165040
 151.8577220 111.3555050 133.5732320 146.8128480 110.9164210 132.4254710
 146.4728530 111.3939440 133.1821760 146.0505800 110.4629330 132.0655810
 151.0246250 112.0349800 126.4567260 151.1459070 111.9936280 127.4053080
 150.6394760 112.8973950 126.3013990 150.0367750 114.3450940 125.8550560
 149.4684650 113.8969190 125.2286470 150.7456750 114.7043720 125.3215710
 145.1136930 118.2462960 139.7317290 144.7291720 117.6056630 140.3300250
 145.4249120 118.9499080 140.3012020 151.2634070 115.0939500 135.2125910
 151.6304200 114.6198070 135.9587250 151.0739130 115.9681070 135.5534250
 144.1274560 109.8383190 131.3419380 143.8421480 109.4738860 132.1798000
 144.0653420 109.1063650 130.7282520 149.0533440 114.1348140 137.5310120
 148.7490510 115.0140120 137.7560480 150.0079900 114.1947930 137.5667560
 147.5815230 118.3409130 128.1276970 146.8077490 117.8006750 127.9675690
 148.3109860 117.8215740 127.7894730 147.6252630 118.0089510 131.7655780
 148.1431300 117.2057770 131.7112670 147.1736650 117.9468650 132.6072610
 152.5122130 119.2755790 127.0383080 152.8537830 120.0198020 126.5426400
 151.6834840 119.5886910 127.4007910 145.1097170 114.9750880 138.6781480
 144.7512110 115.6404730 139.2654820 144.8151730 114.1434430 139.0494100
 148.3110290 115.4335120 141.5621030 148.0110430 115.5792300 140.6648850
 149.0821530 114.8740410 141.4694420 151.4812820 119.3569320 129.8099000
 152.1683950 119.9038530 130.1906590 150.6945240 119.9010050 129.8448610
 143.6205220 114.9742140 125.3016080 144.4900070 115.2566940 125.5852000
 143.1295540 115.7878010 125.1864890 150.7840030 116.3615350 129.4224360
 151.2402810 117.1720600 129.6484550 150.4328240 116.0438490 130.2542850
 146.6851810 106.7053000 129.8946880 146.5566440 106.6970900 130.8431800
 145.8613830 107.0436090 129.5437890 143.9876470 124.1869520 125.8677710
 144.3474110 124.7858860 125.2134980 143.8468810 124.7329410 126.6412740
 143.6845740 108.4644120 139.3553580 142.9704260 108.6641040 139.9606190
 144.1040780 107.6883690 139.7268380 143.9718330 122.4524380 140.3420110
 144.0809450 121.5119120 140.2015500 143.3198890 122.7179130 139.6933840
 151.9630920 120.7240270 141.7418230 151.6427790 120.0049510 142.2863920
 151.2889280 121.3995340 141.8154290 150.0045090 121.5700720 126.6851380
 149.9955190 122.3030410 126.0695890 149.0843450 121.3232300 126.7778340
 145.6051730 116.7915610 127.4298140 144.9979680 117.5314510 127.4393440
 146.0801080 116.8814970 126.6036340 152.9904690 121.6328960 125.3476570
 153.0916670 121.4292950 124.4178550 152.0906430 121.3787240 125.5524350
 150.5130580 112.1909320 129.3300470 149.8046730 112.6595660 129.7714080
 150.7975060 111.5331330 129.9645660 152.1386510 113.6106020 137.3293000
 152.6371760 114.0851840 137.9944850 152.2809460 112.6869540 137.5363030
 151.6322800 124.1515280 130.0424240 151.8864300 124.1136670 129.1203610
 150.6835280 124.0248610 130.0352490 148.7165600 110.4994400 126.7051180
 149.5656130 110.9364550 126.6391370 148.3496870 110.8114660 127.5323240
 147.6157020 116.7526760 125.1786710 148.3820290 116.6408120 125.7412140
 147.6931710 116.0564730 124.5263480 146.3103780 114.1851830 125.8619600
 146.3907370 113.2379340 125.9737000 147.2023530 114.5158710 125.9680260
 147.1118490 124.3347220 132.9654140 147.8480970 123.7862680 133.2362710
 147.4959410 125.2003230 132.8260130 143.9963970 120.4020790 128.8395650
 143.0703750 120.6441930 128.8301060 144.4620400 121.2295050 128.7180400
 146.1176770 123.5193290 142.1539720 146.9189500 123.8405340 142.5675120
 145.6028590 123.1588870 142.8759630 150.2220800 123.5077530 124.7879710
 151.0149410 123.7966360 124.3361500 149.7025150 123.0769700 124.1092190
 143.8374580 116.0066750 141.0975770 144.3413600 115.4274030 141.6692000
 143.0982000 116.2906980 141.6352140 150.7398200 118.7280940 124.6522060
 150.6348840 118.1133290 125.3783440 150.5722420 118.2046830 123.8685070
 150.8912520 117.4137740 140.6311290 150.1258190 117.9822740 140.5465960
 151.0728480 117.1213950 139.7379520 145.8697660 114.1496340 141.9925840
 145.9103000 113.8510210 142.9011070 146.7243160 114.5503950 141.8333360
 149.6476050 116.7491890 127.1529350 150.0692470 116.5831760 127.9960740
 149.7726890 115.9392120 126.6584490 147.8103470 112.7288440 139.9600330
 147.2799930 112.2379390 139.3323670 148.4791540 113.1572640 139.4258260
 152.1603690 115.7729500 124.4006450 152.6809350 115.0578520 124.0347600
 152.8072090 116.4115370 124.7006960 148.2975770 109.6950810 140.0397620
 148.2032640 109.0771560 139.3148490 147.7173160 110.4217100 139.8127530
 151.0637210 108.2524050 137.0725010 150.6154510 108.2748310 136.2270560
 150.4302410 107.8543070 137.6695310 151.4696760 117.1478380 137.6937450
 151.8884870 117.9911110 137.5213690 150.5505390 117.2850420 137.4644230
 148.5434950 112.8225120 124.0987510 148.3424010 111.9592480 124.4600850
 148.3727000 112.7358480 123.1609110 149.3204180 123.4531390 138.8095180
 148.7825270 124.1777450 138.4903880 149.5738140 122.9761730 138.0192520
 150.5729430 111.4215910 140.3351110 151.1629120 111.1131760 141.0228930
 149.7549670 110.9495660 140.4911010 147.3417750 109.9225740 124.0865390
 147.6443650 109.9293170 123.1784540 148.0812340 109.5723600 124.5833050
 152.1766390 124.6882600 139.0681830 152.1025090 125.5917740 139.3754200
 151.2745230 124.3694500 139.0403900 150.5602680 108.8660360 125.0721590
 150.2124680 108.1884350 124.4924040 150.7615450 108.4049870 125.8864980
 146.3647880 119.2268160 124.9195190 146.8022750 119.7697830 125.5752770
 146.8495610 118.4015110 124.9291530 143.5793680 122.0157190 132.3715450
 143.9096690 121.1478250 132.1394090 144.0084680 122.2215710 133.2020410
 148.1755600 120.3466200 130.0317420 147.8751140 120.2231170 130.9321330
 148.0693090 119.4874790 129.6233150 144.0683890 122.8827780 135.1097080
 143.6314880 123.0628580 135.9421230 144.6361570 123.6402400 134.9678800
 143.9008320 115.3948010 131.4685960 143.2457160 115.1259650 130.8245660
 144.7386270 115.2852490 131.0187940 144.9384250 115.7800580 136.0089300
 145.3057290 115.6927980 136.8885320 144.3695070 115.0167130 135.9096160
 144.4900250 112.6909670 139.9147720 143.5956300 112.6576430 140.2541430
 145.0297800 112.8896460 140.6798970 143.1146400 112.6046940 127.4111290
 142.2110480 112.8677140 127.2362950 143.5987020 112.8758110 126.6311250
 145.6573610 111.6612480 125.3205670 146.3665310 111.2395700 124.8352950
 144.9413550 111.7287710 124.6889020 145.3047770 107.7151810 124.3608320
 146.0275900 108.2560750 124.6789540 145.5772290 107.4415230 123.4849860
 144.9939960 106.9658000 134.2630940 145.6416150 106.4155380 133.8226100
 145.4141800 107.2201150 135.0846750 144.7471960 107.1213670 137.0056260
 144.3986780 107.5777490 137.7714440 144.4159660 106.2270800 137.0878690
 146.3536330 120.2933270 141.1709450 146.3105960 119.9226180 142.0523910
 146.4847340 121.2310840 141.3111270 150.0542360 121.8492860 136.7719170
 149.8133720 122.1167420 135.8849690 150.9945000 122.0198590 136.8270030
 145.4192600 106.6489870 140.2807030 145.9675590 106.4677920 139.5173140
 145.4847910 105.8583980 140.8163340 146.1924360 123.2395520 138.2907230
 145.5984680 123.1080220 139.0297270 146.1848200 122.4033660 137.8249330
 145.8236590 120.6053900 137.2415270 145.0970650 119.9859190 137.1741220
 145.8845740 120.9994510 136.3713350 149.4281690 122.8198900 134.0264680
 149.9446710 122.2086260 133.5012940 150.0779070 123.3227680 134.5175690
 152.1677190 123.7107390 134.8533660 152.4555000 123.4561690 133.9766670
 152.6800410 123.1584750 135.4439230 144.1066590 123.9228290 130.4512030
 143.9388630 123.2898970 131.1493920 143.2401100 124.1287690 130.1006220
 144.7294610 107.7545070 127.9543890 145.4873970 107.8673950 127.3807920
 144.2671780 108.5914270 127.9087320 151.2708420 109.8684340 130.9446200
 150.4582930 109.4941230 130.6042080 151.7750060 109.1129420 131.2467390
 145.7129290 122.6161520 127.8962170 145.1876910 122.9969550 127.1924130
 145.6373870 123.2412290 128.6171880 147.1019760 108.2809120 126.4945860
 147.6312520 107.4938920 126.3653810 147.7348080 108.9600310 126.7281390
 149.2957600 108.0184260 129.5491250 148.6660340 107.3171570 129.7161380
 148.7562740 108.7788390 129.3324410 149.4213160 107.2968240 141.9843740
 149.1397430 107.8001840 141.2204560 149.8032860 106.4989990 141.6185870
 148.3122260 124.5643900 126.7711420 149.0441080 124.2803180 126.2235310
 148.5715930 124.3257180 127.6610800 147.4737050 120.6808630 126.7757750
 146.8445930 121.1493730 127.3243580 147.5884880 119.8357850 127.2103940
 147.0770640 116.8213120 115.6843980 146.2455520 116.5661830 116.0840490
 147.6851620 116.8923890 116.4201900 147.0571900 120.8553210 115.8802000
 147.3599940 119.9650950 115.7012220 147.8015490 121.4123430 115.6524250
 145.4862590 111.7815010 109.4686370 144.5979290 112.1230980 109.3666250
 145.7703780 111.5815330 108.5767200 143.4495600 114.3820660 115.3526070
 144.0211710 113.6142860 115.3529710 143.4497140 114.6809420 114.4432680
 144.6920470 109.7905020 117.1395000 144.5123310 108.8930770 117.4197760
 144.2900550 110.3376890 117.8141950 147.6623980 110.3646510 110.5024750
 147.7690730 111.2650240 110.8093510 146.7516340 110.3164480 110.2119400
 145.3107140 112.2865520 115.7477340 145.9917250 112.5503890 116.3664740
 144.9955190 111.4466390 116.0815350 149.5031710 113.3332880 114.8349930
 150.0109930 113.8313850 115.4754950 150.0344950 112.5568080 114.6589290
 147.7867810 107.9731440 119.1013350 147.7886250 108.4903830 118.2959250
 146.9572120 107.4961620 119.0783280 149.0370660 117.6126620 117.2786850
 148.7040040 118.2395540 117.9207920 149.2137340 118.1388500 116.4988520
 147.4683140 109.6841400 117.1083800 147.8099950 110.5283450 116.8137670
 146.5298950 109.8325140 117.2249140 148.2489760 119.5807420 119.0936030
 148.8663760 120.2558500 118.8120480 147.3882880 119.9895400 119.0023530
 143.5422100 118.7707280 107.9742880 143.1650080 119.2594380 107.2427780
 143.7995170 119.4432560 108.6049410 151.1511030 107.1723670 113.4328390
 151.4586010 106.6170560 112.7163890 150.2211730 107.3068130 113.2501380
 149.1448430 115.7637240 112.9508240 148.7405430 115.0514490 112.4554140
 149.2311550 115.4190480 113.8396280 149.6130130 119.4504800 115.1147450
 149.3158420 118.8450270 114.4355230 150.5629950 119.4882110 115.0036810
 147.8577050 112.5380450 116.7307280 148.4091640 112.6475790 115.9560530
 148.3720560 112.9118050 117.4462510 148.7048560 119.1886490 121.7655250
 147.8077090 119.4126460 122.0128650 148.7301430 119.3121430 120.8166650
 147.5319780 116.0599810 120.3412620 147.3927550 116.9322610 120.7100020
 146.6501140 115.7172620 120.1960560 149.3300130 122.0021510 122.5497770
 149.3015560 122.4064460 121.6826200 149.1665100 121.0731870 122.3869370
 145.8453060 114.6582220 110.4514890 145.7250660 115.3844310 109.8396160
 145.5353950 113.8885130 109.9742800 143.4838430 117.8297360 116.2583530
 143.5618850 117.9646130 115.3139250 144.0980110 117.1213250 116.4511650
 144.7286060 119.5297550 112.6689710 144.3214140 119.6712140 111.8143310
 145.6199070 119.2457710 112.4660920 149.0007720 123.7443330 110.7812380
 148.8250200 122.8278870 110.5680180 148.1463460 124.1030620 111.0210180
 143.5397950 118.8711530 118.7977990 143.7028990 118.4016890 117.9797360
 144.0050400 118.3635090 119.4626830 148.3116720 108.0017290 113.8338560
 147.8684870 108.7826830 113.5023080 148.8701710 108.3247180 114.5409500
 152.5986530 110.8685810 119.4373880 152.1365900 111.0768830 120.2493820
 152.1964640 110.0545160 119.1344550 151.4275540 107.6227990 108.7144390
 150.8029720 107.6187860 109.4397700 151.3405660 106.7558950 108.3180360
 150.3492620 108.5464620 115.6928160 150.6464950 109.4527450 115.6120180
 150.8978180 108.0583400 115.0787730 148.1030940 113.1250860 111.5619810
 147.8771860 112.9088030 112.4666430 147.3223470 113.5579320 111.2165780
 150.5430150 114.0236440 122.2280080 150.4473750 113.0831170 122.0780480
 151.3862130 114.2451510 121.8328150 145.6740690 110.4350110 120.3813860
 145.2804080 111.2825320 120.5886640 144.9859090 109.7976480 120.5722500
 152.2485740 110.5185080 123.4510600 151.5584060 110.3257280 124.0856690
 152.9918040 110.8019720 123.9834900 142.9757740 108.3578570 114.4143940
 142.6870790 108.9281430 115.1268920 143.7203500 107.8783020 114.7775170
 143.1627970 112.2998690 105.6246660 143.0802640 113.2429450 105.7661650
 142.8111030 112.1573600 104.7459010 150.9626100 111.0337720 114.6917010
 150.9662160 110.5927670 113.8421550 151.8577220 111.3555050 114.7988830
 146.8128480 110.9164210 113.6511220 146.4728530 111.3939440 114.4078270
 146.0505800 110.4629330 113.2912320 151.0246250 112.0349800 107.6823770
 151.1459070 111.9936280 108.6309590 150.6394760 112.8973950 107.5270500
 150.0367750 114.3450940 107.0807070 149.4684650 113.8969190 106.4542980
 150.7456750 114.7043720 106.5472220 145.1136930 118.2462960 120.9573800
 144.7291720 117.6056630 121.5556760 145.4249120 118.9499080 121.5268530
 151.2634070 115.0939500 116.4382420 151.6304200 114.6198070 117.1843760
 151.0739130 115.9681070 116.7790760 144.1274560 109.8383190 112.5675890
 143.8421480 109.4738860 113.4054510 144.0653420 109.1063650 111.9539030
 149.0533440 114.1348140 118.7566630 148.7490510 115.0140120 118.9816990
 150.0079900 114.1947930 118.7924070 147.5815230 118.3409130 109.3533480
 146.8077490 117.8006750 109.1932200 148.3109860 117.8215740 109.0151240
 147.6252630 118.0089510 112.9912290 148.1431300 117.2057770 112.9369180
 147.1736650 117.9468650 113.8329120 152.5122130 119.2755790 108.2639590
 152.8537830 120.0198020 107.7682910 151.6834840 119.5886910 108.6264420
 145.1097170 114.9750880 119.9037990 144.7512110 115.6404730 120.4911330
 144.8151730 114.1434430 120.2750610 148.3110290 115.4335120 122.7877540
 148.0110430 115.5792300 121.8905360 149.0821530 114.8740410 122.6950930
 151.4812820 119.3569320 111.0355510 152.1683950 119.9038530 111.4163100
 150.6945240 119.9010050 111.0705120 143.6205220 114.9742140 106.5272590
 144.4900070 115.2566940 106.8108510 143.1295540 115.7878010 106.4121400
 150.7840030 116.3615350 110.6480870 151.2402810 117.1720600 110.8741060
 150.4328240 116.0438490 111.4799360 146.6851810 106.7053000 111.1203390
 146.5566440 106.6970900 112.0688310 145.8613830 107.0436090 110.7694400
 143.9876470 124.1869520 107.0934220 144.3474110 124.7858860 106.4391490
 143.8468810 124.7329410 107.8669250 143.6845740 108.4644120 120.5810090
 142.9704260 108.6641040 121.1862700 144.1040780 107.6883690 120.9524890
 143.9718330 122.4524380 121.5676620 144.0809450 121.5119120 121.4272010
 143.3198890 122.7179130 120.9190350 151.9630920 120.7240270 122.9674740
 151.6427790 120.0049510 123.5120430 151.2889280 121.3995340 123.0410800
 150.0045090 121.5700720 107.9107890 149.9955190 122.3030410 107.2952400
 149.0843450 121.3232300 108.0034850 145.6051730 116.7915610 108.6554650
 144.9979680 117.5314510 108.6649950 146.0801080 116.8814970 107.8292850
 152.9904690 121.6328960 106.5733080 153.0916670 121.4292950 105.6435060
 152.0906430 121.3787240 106.7780860 150.5130580 112.1909320 110.5556980
 149.8046730 112.6595660 110.9970590 150.7975060 111.5331330 111.1902170
 152.1386510 113.6106020 118.5549510 152.6371760 114.0851840 119.2201360
 152.2809460 112.6869540 118.7619540 151.6322800 124.1515280 111.2680750
 151.8864300 124.1136670 110.3460120 150.6835280 124.0248610 111.2609000
 148.7165600 110.4994400 107.9307690 149.5656130 110.9364550 107.8647880
 148.3496870 110.8114660 108.7579750 147.6157020 116.7526760 106.4043220
 148.3820290 116.6408120 106.9668650 147.6931710 116.0564730 105.7519990
 146.3103780 114.1851830 107.0876110 146.3907370 113.2379340 107.1993510
 147.2023530 114.5158710 107.1936770 147.1118490 124.3347220 114.1910650
 147.8480970 123.7862680 114.4619220 147.4959410 125.2003230 114.0516640
 143.9963970 120.4020790 110.0652160 143.0703750 120.6441930 110.0557570
 144.4620400 121.2295050 109.9436910 146.1176770 123.5193290 123.3796230
 146.9189500 123.8405340 123.7931630 145.6028590 123.1588870 124.1016140
 150.2220800 123.5077530 106.0136220 151.0149410 123.7966360 105.5618010
 149.7025150 123.0769700 105.3348700 143.8374580 116.0066750 122.3232280
 144.3413600 115.4274030 122.8948510 143.0982000 116.2906980 122.8608650
 150.7398200 118.7280940 105.8778570 150.6348840 118.1133290 106.6039950
 150.5722420 118.2046830 105.0941580 150.8912520 117.4137740 121.8567800
 150.1258190 117.9822740 121.7722470 151.0728480 117.1213950 120.9636030
 145.8697660 114.1496340 123.2182350 145.9103000 113.8510210 124.1267580
 146.7243160 114.5503950 123.0589870 149.6476050 116.7491890 108.3785860
 150.0692470 116.5831760 109.2217250 149.7726890 115.9392120 107.8841000
 147.8103470 112.7288440 121.1856840 147.2799930 112.2379390 120.5580180
 148.4791540 113.1572640 120.6514770 152.1603690 115.7729500 105.6262960
 152.6809350 115.0578520 105.2604110 152.8072090 116.4115370 105.9263470
 148.2975770 109.6950810 121.2654130 148.2032640 109.0771560 120.5405000
 147.7173160 110.4217100 121.0384040 151.0637210 108.2524050 118.2981520
 150.6154510 108.2748310 117.4527070 150.4302410 107.8543070 118.8951820
 151.4696760 117.1478380 118.9193960 151.8884870 117.9911110 118.7470200
 150.5505390 117.2850420 118.6900740 148.5434950 112.8225120 105.3244020
 148.3424010 111.9592480 105.6857360 148.3727000 112.7358480 104.3865620
 149.3204180 123.4531390 120.0351690 148.7825270 124.1777450 119.7160390
 149.5738140 122.9761730 119.2449030 150.5729430 111.4215910 121.5607620
 151.1629120 111.1131760 122.2485440 149.7549670 110.9495660 121.7167520
 147.3417750 109.9225740 105.3121900 147.6443650 109.9293170 104.4041050
 148.0812340 109.5723600 105.8089560 152.1766390 124.6882600 120.2938340
 152.1025090 125.5917740 120.6010710 151.2745230 124.3694500 120.2660410
 150.5602680 108.8660360 106.2978100 150.2124680 108.1884350 105.7180550
 150.7615450 108.4049870 107.1121490 146.3647880 119.2268160 106.1451700
 146.8022750 119.7697830 106.8009280 146.8495610 118.4015110 106.1548040
 143.5793680 122.0157190 113.5971960 143.9096690 121.1478250 113.3650600
 144.0084680 122.2215710 114.4276920 148.1755600 120.3466200 111.2573930
 147.8751140 120.2231170 112.1577840 148.0693090 119.4874790 110.8489660
 144.0683890 122.8827780 116.3353590 143.6314880 123.0628580 117.1677740
 144.6361570 123.6402400 116.1935310 143.9008320 115.3948010 112.6942470
 143.2457160 115.1259650 112.0502170 144.7386270 115.2852490 112.2444450
 144.9384250 115.7800580 117.2345810 145.3057290 115.6927980 118.1141830
 144.3695070 115.0167130 117.1352670 144.4900250 112.6909670 121.1404230
 143.5956300 112.6576430 121.4797940 145.0297800 112.8896460 121.9055480
 143.1146400 112.6046940 108.6367800 142.2110480 112.8677140 108.4619460
 143.5987020 112.8758110 107.8567760 145.6573610 111.6612480 106.5462180
 146.3665310 111.2395700 106.0609460 144.9413550 111.7287710 105.9145530
 145.3047770 107.7151810 105.5864830 146.0275900 108.2560750 105.9046050
 145.5772290 107.4415230 104.7106370 144.9939960 106.9658000 115.4887450
 145.6416150 106.4155380 115.0482610 145.4141800 107.2201150 116.3103260
 144.7471960 107.1213670 118.2312770 144.3986780 107.5777490 118.9970950
 144.4159660 106.2270800 118.3135200 146.3536330 120.2933270 122.3965960
 146.3105960 119.9226180 123.2780420 146.4847340 121.2310840 122.5367780
 150.0542360 121.8492860 117.9975680 149.8133720 122.1167420 117.1106200
 150.9945000 122.0198590 118.0526540 145.4192600 106.6489870 121.5063540
 145.9675590 106.4677920 120.7429650 145.4847910 105.8583980 122.0419850
 146.1924360 123.2395520 119.5163740 145.5984680 123.1080220 120.2553780
 146.1848200 122.4033660 119.0505840 145.8236590 120.6053900 118.4671780
 145.0970650 119.9859190 118.3997730 145.8845740 120.9994510 117.5969860
 149.4281690 122.8198900 115.2521190 149.9446710 122.2086260 114.7269450
 150.0779070 123.3227680 115.7432200 152.1677190 123.7107390 116.0790170
 152.4555000 123.4561690 115.2023180 152.6800410 123.1584750 116.6695740
 144.1066590 123.9228290 111.6768540 143.9388630 123.2898970 112.3750430
 143.2401100 124.1287690 111.3262730 144.7294610 107.7545070 109.1800400
 145.4873970 107.8673950 108.6064430 144.2671780 108.5914270 109.1343830
 151.2708420 109.8684340 112.1702710 150.4582930 109.4941230 111.8298590
 151.7750060 109.1129420 112.4723900 145.7129290 122.6161520 109.1218680
 145.1876910 122.9969550 108.4180640 145.6373870 123.2412290 109.8428390
 147.1019760 108.2809120 107.7202370 147.6312520 107.4938920 107.5910320
 147.7348080 108.9600310 107.9537900 149.2957600 108.0184260 110.7747760
 148.6660340 107.3171570 110.9417890 148.7562740 108.7788390 110.5580920
 149.4213160 107.2968240 123.2100250 149.1397430 107.8001840 122.4461070
 149.8032860 106.4989990 122.8442380 148.3122260 124.5643900 107.9967930
 149.0441080 124.2803180 107.4491820 148.5715930 124.3257180 108.8867310
 147.4737050 120.6808630 108.0014260 146.8445930 121.1493730 108.5500090
 147.5884880 119.8357850 108.4360450 147.0770640 116.8213120  96.9100490
 146.2455520 116.5661830  97.3097000 147.6851620 116.8923890  97.6458410
 147.0571900 120.8553210  97.1058510 147.3599940 119.9650950  96.9268730
 147.8015490 121.4123430  96.8780760 145.4862590 111.7815010  90.6942880
 144.5979290 112.1230980  90.5922760 145.7703780 111.5815330  89.8023710
 143.4495600 114.3820660  96.5782580 144.0211710 113.6142860  96.5786220
 143.4497140 114.6809420  95.6689190 144.6920470 109.7905020  98.3651510
 144.5123310 108.8930770  98.6454270 144.2900550 110.3376890  99.0398460
 147.6623980 110.3646510  91.7281260 147.7690730 111.2650240  92.0350020
 146.7516340 110.3164480  91.4375910 145.3107140 112.2865520  96.9733850
 145.9917250 112.5503890  97.5921250 144.9955190 111.4466390  97.3071860
 149.5031710 113.3332880  96.0606440 150.0109930 113.8313850  96.7011460
 150.0344950 112.5568080  95.8845800 147.7867810 107.9731440 100.3269860
 147.7886250 108.4903830  99.5215760 146.9572120 107.4961620 100.3039790
 149.0370660 117.6126620  98.5043360 148.7040040 118.2395540  99.1464430
 149.2137340 118.1388500  97.7245030 147.4683140 109.6841400  98.3340310
 147.8099950 110.5283450  98.0394180 146.5298950 109.8325140  98.4505650
 148.2489760 119.5807420 100.3192540 148.8663760 120.2558500 100.0376990
 147.3882880 119.9895400 100.2280040 143.5422100 118.7707280  89.1999390
 143.1650080 119.2594380  88.4684290 143.7995170 119.4432560  89.8305920
 151.1511030 107.1723670  94.6584900 151.4586010 106.6170560  93.9420400
 150.2211730 107.3068130  94.4757890 149.1448430 115.7637240  94.1764750
 148.7405430 115.0514490  93.6810650 149.2311550 115.4190480  95.0652790
 149.6130130 119.4504800  96.3403960 149.3158420 118.8450270  95.6611740
 150.5629950 119.4882110  96.2293320 147.8577050 112.5380450  97.9563790
 148.4091640 112.6475790  97.1817040 148.3720560 112.9118050  98.6719020
 148.7048560 119.1886490 102.9911760 147.8077090 119.4126460 103.2385160
 148.7301430 119.3121430 102.0423160 147.5319780 116.0599810 101.5669130
 147.3927550 116.9322610 101.9356530 146.6501140 115.7172620 101.4217070
 149.3300130 122.0021510 103.7754280 149.3015560 122.4064460 102.9082710
 149.1665100 121.0731870 103.6125880 145.8453060 114.6582220  91.6771400
 145.7250660 115.3844310  91.0652670 145.5353950 113.8885130  91.1999310
 143.4838430 117.8297360  97.4840040 143.5618850 117.9646130  96.5395760
 144.0980110 117.1213250  97.6768160 144.7286060 119.5297550  93.8946220
 144.3214140 119.6712140  93.0399820 145.6199070 119.2457710  93.6917430
 149.0007720 123.7443330  92.0068890 148.8250200 122.8278870  91.7936690
 148.1463460 124.1030620  92.2466690 143.5397950 118.8711530 100.0234500
 143.7028990 118.4016890  99.2053870 144.0050400 118.3635090 100.6883340
 148.3116720 108.0017290  95.0595070 147.8684870 108.7826830  94.7279590
 148.8701710 108.3247180  95.7666010 152.5986530 110.8685810 100.6630390
 152.1365900 111.0768830 101.4750330 152.1964640 110.0545160 100.3601060
 151.4275540 107.6227990  89.9400900 150.8029720 107.6187860  90.6654210
 151.3405660 106.7558950  89.5436870 150.3492620 108.5464620  96.9184670
 150.6464950 109.4527450  96.8376690 150.8978180 108.0583400  96.3044240
 148.1030940 113.1250860  92.7876320 147.8771860 112.9088030  93.6922940
 147.3223470 113.5579320  92.4422290 150.5430150 114.0236440 103.4536590
 150.4473750 113.0831170 103.3036990 151.3862130 114.2451510 103.0584660
 145.6740690 110.4350110 101.6070370 145.2804080 111.2825320 101.8143150
 144.9859090 109.7976480 101.7979010 152.2485740 110.5185080 104.6767110
 151.5584060 110.3257280 105.3113200 152.9918040 110.8019720 105.2091410
 142.9757740 108.3578570  95.6400450 142.6870790 108.9281430  96.3525430
 143.7203500 107.8783020  96.0031680 143.1627970 112.2998690  86.8503170
 143.0802640 113.2429450  86.9918160 142.8111030 112.1573600  85.9715520
 150.9626100 111.0337720  95.9173520 150.9662160 110.5927670  95.0678060
 151.8577220 111.3555050  96.0245340 146.8128480 110.9164210  94.8767730
 146.4728530 111.3939440  95.6334780 146.0505800 110.4629330  94.5168830
 151.0246250 112.0349800  88.9080280 151.1459070 111.9936280  89.8566100
 150.6394760 112.8973950  88.7527010 150.0367750 114.3450940  88.3063580
 149.4684650 113.8969190  87.6799490 150.7456750 114.7043720  87.7728730
 145.1136930 118.2462960 102.1830310 144.7291720 117.6056630 102.7813270
 145.4249120 118.9499080 102.7525040 151.2634070 115.0939500  97.6638930
 151.6304200 114.6198070  98.4100270 151.0739130 115.9681070  98.0047270
 144.1274560 109.8383190  93.7932400 143.8421480 109.4738860  94.6311020
 144.0653420 109.1063650  93.1795540 149.0533440 114.1348140  99.9823140
 148.7490510 115.0140120 100.2073500 150.0079900 114.1947930 100.0180580
 147.5815230 118.3409130  90.5789990 146.8077490 117.8006750  90.4188710
 148.3109860 117.8215740  90.2407750 147.6252630 118.0089510  94.2168800
 148.1431300 117.2057770  94.1625690 147.1736650 117.9468650  95.0585630
 152.5122130 119.2755790  89.4896100 152.8537830 120.0198020  88.9939420
 151.6834840 119.5886910  89.8520930 145.1097170 114.9750880 101.1294500
 144.7512110 115.6404730 101.7167840 144.8151730 114.1434430 101.5007120
 148.3110290 115.4335120 104.0134050 148.0110430 115.5792300 103.1161870
 149.0821530 114.8740410 103.9207440 151.4812820 119.3569320  92.2612020
 152.1683950 119.9038530  92.6419610 150.6945240 119.9010050  92.2961630
 143.6205220 114.9742140  87.7529100 144.4900070 115.2566940  88.0365020
 143.1295540 115.7878010  87.6377910 150.7840030 116.3615350  91.8737380
 151.2402810 117.1720600  92.0997570 150.4328240 116.0438490  92.7055870
 146.6851810 106.7053000  92.3459900 146.5566440 106.6970900  93.2944820
 145.8613830 107.0436090  91.9950910 143.9876470 124.1869520  88.3190730
 144.3474110 124.7858860  87.6648000 143.8468810 124.7329410  89.0925760
 143.6845740 108.4644120 101.8066600 142.9704260 108.6641040 102.4119210
 144.1040780 107.6883690 102.1781400 143.9718330 122.4524380 102.7933130
 144.0809450 121.5119120 102.6528520 143.3198890 122.7179130 102.1446860
 151.9630920 120.7240270 104.1931250 151.6427790 120.0049510 104.7376940
 151.2889280 121.3995340 104.2667310 150.0045090 121.5700720  89.1364400
 149.9955190 122.3030410  88.5208910 149.0843450 121.3232300  89.2291360
 145.6051730 116.7915610  89.8811160 144.9979680 117.5314510  89.8906460
 146.0801080 116.8814970  89.0549360 152.9904690 121.6328960  87.7989590
 153.0916670 121.4292950  86.8691570 152.0906430 121.3787240  88.0037370
 150.5130580 112.1909320  91.7813490 149.8046730 112.6595660  92.2227100
 150.7975060 111.5331330  92.4158680 152.1386510 113.6106020  99.7806020
 152.6371760 114.0851840 100.4457870 152.2809460 112.6869540  99.9876050
 151.6322800 124.1515280  92.4937260 151.8864300 124.1136670  91.5716630
 150.6835280 124.0248610  92.4865510 148.7165600 110.4994400  89.1564200
 149.5656130 110.9364550  89.0904390 148.3496870 110.8114660  89.9836260
 147.6157020 116.7526760  87.6299730 148.3820290 116.6408120  88.1925160
 147.6931710 116.0564730  86.9776500 146.3103780 114.1851830  88.3132620
 146.3907370 113.2379340  88.4250020 147.2023530 114.5158710  88.4193280
 147.1118490 124.3347220  95.4167160 147.8480970 123.7862680  95.6875730
 147.4959410 125.2003230  95.2773150 143.9963970 120.4020790  91.2908670
 143.0703750 120.6441930  91.2814080 144.4620400 121.2295050  91.1693420
 146.1176770 123.5193290 104.6052740 146.9189500 123.8405340 105.0188140
 145.6028590 123.1588870 105.3272650 150.2220800 123.5077530  87.2392730
 151.0149410 123.7966360  86.7874520 149.7025150 123.0769700  86.5605210
 143.8374580 116.0066750 103.5488790 144.3413600 115.4274030 104.1205020
 143.0982000 116.2906980 104.0865160 150.7398200 118.7280940  87.1035080
 150.6348840 118.1133290  87.8296460 150.5722420 118.2046830  86.3198090
 150.8912520 117.4137740 103.0824310 150.1258190 117.9822740 102.9978980
 151.0728480 117.1213950 102.1892540 145.8697660 114.1496340 104.4438860
 145.9103000 113.8510210 105.3524090 146.7243160 114.5503950 104.2846380
 149.6476050 116.7491890  89.6042370 150.0692470 116.5831760  90.4473760
 149.7726890 115.9392120  89.1097510 147.8103470 112.7288440 102.4113350
 147.2799930 112.2379390 101.7836690 148.4791540 113.1572640 101.8771280
 152.1603690 115.7729500  86.8519470 152.6809350 115.0578520  86.4860620
 152.8072090 116.4115370  87.1519980 148.2975770 109.6950810 102.4910640
 148.2032640 109.0771560 101.7661510 147.7173160 110.4217100 102.2640550
 151.0637210 108.2524050  99.5238030 150.6154510 108.2748310  98.6783580
 150.4302410 107.8543070 100.1208330 151.4696760 117.1478380 100.1450470
 151.8884870 117.9911110  99.9726710 150.5505390 117.2850420  99.9157250
 148.5434950 112.8225120  86.5500530 148.3424010 111.9592480  86.9113870
 148.3727000 112.7358480  85.6122130 149.3204180 123.4531390 101.2608200
 148.7825270 124.1777450 100.9416900 149.5738140 122.9761730 100.4705540
 150.5729430 111.4215910 102.7864130 151.1629120 111.1131760 103.4741950
 149.7549670 110.9495660 102.9424030 147.3417750 109.9225740  86.5378410
 147.6443650 109.9293170  85.6297560 148.0812340 109.5723600  87.0346070
 152.1766390 124.6882600 101.5194850 152.1025090 125.5917740 101.8267220
 151.2745230 124.3694500 101.4916920 150.5602680 108.8660360  87.5234610
 150.2124680 108.1884350  86.9437060 150.7615450 108.4049870  88.3378000
 146.3647880 119.2268160  87.3708210 146.8022750 119.7697830  88.0265790
 146.8495610 118.4015110  87.3804550 143.5793680 122.0157190  94.8228470
 143.9096690 121.1478250  94.5907110 144.0084680 122.2215710  95.6533430
 148.1755600 120.3466200  92.4830440 147.8751140 120.2231170  93.3834350
 148.0693090 119.4874790  92.0746170 144.0683890 122.8827780  97.5610100
 143.6314880 123.0628580  98.3934250 144.6361570 123.6402400  97.4191820
 143.9008320 115.3948010  93.9198980 143.2457160 115.1259650  93.2758680
 144.7386270 115.2852490  93.4700960 144.9384250 115.7800580  98.4602320
 145.3057290 115.6927980  99.3398340 144.3695070 115.0167130  98.3609180
 144.4900250 112.6909670 102.3660740 143.5956300 112.6576430 102.7054450
 145.0297800 112.8896460 103.1311990 143.1146400 112.6046940  89.8624310
 142.2110480 112.8677140  89.6875970 143.5987020 112.8758110  89.0824270
 145.6573610 111.6612480  87.7718690 146.3665310 111.2395700  87.2865970
 144.9413550 111.7287710  87.1402040 145.3047770 107.7151810  86.8121340
 146.0275900 108.2560750  87.1302560 145.5772290 107.4415230  85.9362880
 144.9939960 106.9658000  96.7143960 145.6416150 106.4155380  96.2739120
 145.4141800 107.2201150  97.5359770 144.7471960 107.1213670  99.4569280
 144.3986780 107.5777490 100.2227460 144.4159660 106.2270800  99.5391710
 146.3536330 120.2933270 103.6222470 146.3105960 119.9226180 104.5036930
 146.4847340 121.2310840 103.7624290 150.0542360 121.8492860  99.2232190
 149.8133720 122.1167420  98.3362710 150.9945000 122.0198590  99.2783050
 145.4192600 106.6489870 102.7320050 145.9675590 106.4677920 101.9686160
 145.4847910 105.8583980 103.2676360 146.1924360 123.2395520 100.7420250
 145.5984680 123.1080220 101.4810290 146.1848200 122.4033660 100.2762350
 145.8236590 120.6053900  99.6928290 145.0970650 119.9859190  99.6254240
 145.8845740 120.9994510  98.8226370 149.4281690 122.8198900  96.4777700
 149.9446710 122.2086260  95.9525960 150.0779070 123.3227680  96.9688710
 152.1677190 123.7107390  97.3046680 152.4555000 123.4561690  96.4279690
 152.6800410 123.1584750  97.8952250 144.1066590 123.9228290  92.9025050
 143.9388630 123.2898970  93.6006940 143.2401100 124.1287690  92.5519240
 144.7294610 107.7545070  90.4056910 145.4873970 107.8673950  89.8320940
 144.2671780 108.5914270  90.3600340 151.2708420 109.8684340  93.3959220
 150.4582930 109.4941230  93.0555100 151.7750060 109.1129420  93.6980410
 145.7129290 122.6161520  90.3475190 145.1876910 122.9969550  89.6437150
 145.6373870 123.2412290  91.0684900 147.1019760 108.2809120  88.9458880
 147.6312520 107.4938920  88.8166830 147.7348080 108.9600310  89.1794410
 149.2957600 108.0184260  92.0004270 148.6660340 107.3171570  92.1674400
 148.7562740 108.7788390  91.7837430 149.4213160 107.2968240 104.4356760
 149.1397430 107.8001840 103.6717580 149.8032860 106.4989990 104.0698890
 148.3122260 124.5643900  89.2224440 149.0441080 124.2803180  88.6748330
 148.5715930 124.3257180  90.1123820 147.4737050 120.6808630  89.2270770
 146.8445930 121.1493730  89.7756600 147.5884880 119.8357850  89.6616960
 147.0770640 116.8213120  78.1357000 146.2455520 116.5661830  78.5353510
 147.6851620 116.8923890  78.8714920 147.0571900 120.8553210  78.3315020
 147.3599940 119.9650950  78.1525240 147.8015490 121.4123430  78.1037270
 145.4862590 111.7815010  71.9199390 144.5979290 112.1230980  71.8179270
 145.7703780 111.5815330  71.0280220 143.4495600 114.3820660  77.8039090
 144.0211710 113.6142860  77.8042730 143.4497140 114.6809420  76.8945700
 144.6920470 109.7905020  79.5908020 144.5123310 108.8930770  79.8710780
 144.2900550 110.3376890  80.2654970 147.6623980 110.3646510  72.9537770
 147.7690730 111.2650240  73.2606530 146.7516340 110.3164480  72.6632420
 145.3107140 112.2865520  78.1990360 145.9917250 112.5503890  78.8177760
 144.9955190 111.4466390  78.5328370 149.5031710 113.3332880  77.2862950
 150.0109930 113.8313850  77.9267970 150.0344950 112.5568080  77.1102310
 147.7867810 107.9731440  81.5526370 147.7886250 108.4903830  80.7472270
 146.9572120 107.4961620  81.5296300 149.0370660 117.6126620  79.7299870
 148.7040040 118.2395540  80.3720940 149.2137340 118.1388500  78.9501540
 147.4683140 109.6841400  79.5596820 147.8099950 110.5283450  79.2650690
 146.5298950 109.8325140  79.6762160 148.2489760 119.5807420  81.5449050
 148.8663760 120.2558500  81.2633500 147.3882880 119.9895400  81.4536550
 143.5422100 118.7707280  70.4255900 143.1650080 119.2594380  69.6940800
 143.7995170 119.4432560  71.0562430 151.1511030 107.1723670  75.8841410
 151.4586010 106.6170560  75.1676910 150.2211730 107.3068130  75.7014400
 149.1448430 115.7637240  75.4021260 148.7405430 115.0514490  74.9067160
 149.2311550 115.4190480  76.2909300 149.6130130 119.4504800  77.5660470
 149.3158420 118.8450270  76.8868250 150.5629950 119.4882110  77.4549830
 147.8577050 112.5380450  79.1820300 148.4091640 112.6475790  78.4073550
 148.3720560 112.9118050  79.8975530 148.7048560 119.1886490  84.2168270
 147.8077090 119.4126460  84.4641670 148.7301430 119.3121430  83.2679670
 147.5319780 116.0599810  82.7925640 147.3927550 116.9322610  83.1613040
 146.6501140 115.7172620  82.6473580 149.3300130 122.0021510  85.0010790
 149.3015560 122.4064460  84.1339220 149.1665100 121.0731870  84.8382390
 145.8453060 114.6582220  72.9027910 145.7250660 115.3844310  72.2909180
 145.5353950 113.8885130  72.4255820 143.4838430 117.8297360  78.7096550
 143.5618850 117.9646130  77.7652270 144.0980110 117.1213250  78.9024670
 144.7286060 119.5297550  75.1202730 144.3214140 119.6712140  74.2656330
 145.6199070 119.2457710  74.9173940 149.0007720 123.7443330  73.2325400
 148.8250200 122.8278870  73.0193200 148.1463460 124.1030620  73.4723200
 143.5397950 118.8711530  81.2491010 143.7028990 118.4016890  80.4310380
 144.0050400 118.3635090  81.9139850 148.3116720 108.0017290  76.2851580
 147.8684870 108.7826830  75.9536100 148.8701710 108.3247180  76.9922520
 152.5986530 110.8685810  81.8886900 152.1365900 111.0768830  82.7006840
 152.1964640 110.0545160  81.5857570 151.4275540 107.6227990  71.1657410
 150.8029720 107.6187860  71.8910720 151.3405660 106.7558950  70.7693380
 150.3492620 108.5464620  78.1441180 150.6464950 109.4527450  78.0633200
 150.8978180 108.0583400  77.5300750 148.1030940 113.1250860  74.0132830
 147.8771860 112.9088030  74.9179450 147.3223470 113.5579320  73.6678800
 150.5430150 114.0236440  84.6793100 150.4473750 113.0831170  84.5293500
 151.3862130 114.2451510  84.2841170 145.6740690 110.4350110  82.8326880
 145.2804080 111.2825320  83.0399660 144.9859090 109.7976480  83.0235520
 152.2485740 110.5185080  85.9023620 151.5584060 110.3257280  86.5369710
 152.9918040 110.8019720  86.4347920 142.9757740 108.3578570  76.8656960
 142.6870790 108.9281430  77.5781940 143.7203500 107.8783020  77.2288190
 143.1627970 112.2998690  68.0759680 143.0802640 113.2429450  68.2174670
 142.8111030 112.1573600  67.1972030 150.9626100 111.0337720  77.1430030
 150.9662160 110.5927670  76.2934570 151.8577220 111.3555050  77.2501850
 146.8128480 110.9164210  76.1024240 146.4728530 111.3939440  76.8591290
 146.0505800 110.4629330  75.7425340 151.0246250 112.0349800  70.1336790
 151.1459070 111.9936280  71.0822610 150.6394760 112.8973950  69.9783520
 150.0367750 114.3450940  69.5320090 149.4684650 113.8969190  68.9056000
 150.7456750 114.7043720  68.9985240 145.1136930 118.2462960  83.4086820
 144.7291720 117.6056630  84.0069780 145.4249120 118.9499080  83.9781550
 151.2634070 115.0939500  78.8895440 151.6304200 114.6198070  79.6356780
 151.0739130 115.9681070  79.2303780 144.1274560 109.8383190  75.0188910
 143.8421480 109.4738860  75.8567530 144.0653420 109.1063650  74.4052050
 149.0533440 114.1348140  81.2079650 148.7490510 115.0140120  81.4330010
 150.0079900 114.1947930  81.2437090 147.5815230 118.3409130  71.8046500
 146.8077490 117.8006750  71.6445220 148.3109860 117.8215740  71.4664260
 147.6252630 118.0089510  75.4425310 148.1431300 117.2057770  75.3882200
 147.1736650 117.9468650  76.2842140 152.5122130 119.2755790  70.7152610
 152.8537830 120.0198020  70.2195930 151.6834840 119.5886910  71.0777440
 145.1097170 114.9750880  82.3551010 144.7512110 115.6404730  82.9424350
 144.8151730 114.1434430  82.7263630 148.3110290 115.4335120  85.2390560
 148.0110430 115.5792300  84.3418380 149.0821530 114.8740410  85.1463950
 151.4812820 119.3569320  73.4868530 152.1683950 119.9038530  73.8676120
 150.6945240 119.9010050  73.5218140 143.6205220 114.9742140  68.9785610
 144.4900070 115.2566940  69.2621530 143.1295540 115.7878010  68.8634420
 150.7840030 116.3615350  73.0993890 151.2402810 117.1720600  73.3254080
 150.4328240 116.0438490  73.9312380 146.6851810 106.7053000  73.5716410
 146.5566440 106.6970900  74.5201330 145.8613830 107.0436090  73.2207420
 143.9876470 124.1869520  69.5447240 144.3474110 124.7858860  68.8904510
 143.8468810 124.7329410  70.3182270 143.6845740 108.4644120  83.0323110
 142.9704260 108.6641040  83.6375720 144.1040780 107.6883690  83.4037910
 143.9718330 122.4524380  84.0189640 144.0809450 121.5119120  83.8785030
 143.3198890 122.7179130  83.3703370 151.9630920 120.7240270  85.4187760
 151.6427790 120.0049510  85.9633450 151.2889280 121.3995340  85.4923820
 150.0045090 121.5700720  70.3620910 149.9955190 122.3030410  69.7465420
 149.0843450 121.3232300  70.4547870 145.6051730 116.7915610  71.1067670
 144.9979680 117.5314510  71.1162970 146.0801080 116.8814970  70.2805870
 152.9904690 121.6328960  69.0246100 153.0916670 121.4292950  68.0948080
 152.0906430 121.3787240  69.2293880 150.5130580 112.1909320  73.0070000
 149.8046730 112.6595660  73.4483610 150.7975060 111.5331330  73.6415190
 152.1386510 113.6106020  81.0062530 152.6371760 114.0851840  81.6714380
 152.2809460 112.6869540  81.2132560 151.6322800 124.1515280  73.7193770
 151.8864300 124.1136670  72.7973140 150.6835280 124.0248610  73.7122020
 148.7165600 110.4994400  70.3820710 149.5656130 110.9364550  70.3160900
 148.3496870 110.8114660  71.2092770 147.6157020 116.7526760  68.8556240
 148.3820290 116.6408120  69.4181670 147.6931710 116.0564730  68.2033010
 146.3103780 114.1851830  69.5389130 146.3907370 113.2379340  69.6506530
 147.2023530 114.5158710  69.6449790 147.1118490 124.3347220  76.6423670
 147.8480970 123.7862680  76.9132240 147.4959410 125.2003230  76.5029660
 143.9963970 120.4020790  72.5165180 143.0703750 120.6441930  72.5070590
 144.4620400 121.2295050  72.3949930 146.1176770 123.5193290  85.8309250
 146.9189500 123.8405340  86.2444650 145.6028590 123.1588870  86.5529160
 150.2220800 123.5077530  68.4649240 151.0149410 123.7966360  68.0131030
 149.7025150 123.0769700  67.7861720 143.8374580 116.0066750  84.7745300
 144.3413600 115.4274030  85.3461530 143.0982000 116.2906980  85.3121670
 150.7398200 118.7280940  68.3291590 150.6348840 118.1133290  69.0552970
 150.5722420 118.2046830  67.5454600 150.8912520 117.4137740  84.3080820
 150.1258190 117.9822740  84.2235490 151.0728480 117.1213950  83.4149050
 145.8697660 114.1496340  85.6695370 145.9103000 113.8510210  86.5780600
 146.7243160 114.5503950  85.5102890 149.6476050 116.7491890  70.8298880
 150.0692470 116.5831760  71.6730270 149.7726890 115.9392120  70.3354020
 147.8103470 112.7288440  83.6369860 147.2799930 112.2379390  83.0093200
 148.4791540 113.1572640  83.1027790 152.1603690 115.7729500  68.0775980
 152.6809350 115.0578520  67.7117130 152.8072090 116.4115370  68.3776490
 148.2975770 109.6950810  83.7167150 148.2032640 109.0771560  82.9918020
 147.7173160 110.4217100  83.4897060 151.0637210 108.2524050  80.7494540
 150.6154510 108.2748310  79.9040090 150.4302410 107.8543070  81.3464840
 151.4696760 117.1478380  81.3706980 151.8884870 117.9911110  81.1983220
 150.5505390 117.2850420  81.1413760 148.5434950 112.8225120  67.7757040
 148.3424010 111.9592480  68.1370380 148.3727000 112.7358480  66.8378640
 149.3204180 123.4531390  82.4864710 148.7825270 124.1777450  82.1673410
 149.5738140 122.9761730  81.6962050 150.5729430 111.4215910  84.0120640
 151.1629120 111.1131760  84.6998460 149.7549670 110.9495660  84.1680540
 147.3417750 109.9225740  67.7634920 147.6443650 109.9293170  66.8554070
 148.0812340 109.5723600  68.2602580 152.1766390 124.6882600  82.7451360
 152.1025090 125.5917740  83.0523730 151.2745230 124.3694500  82.7173430
 150.5602680 108.8660360  68.7491120 150.2124680 108.1884350  68.1693570
 150.7615450 108.4049870  69.5634510 146.3647880 119.2268160  68.5964720
 146.8022750 119.7697830  69.2522300 146.8495610 118.4015110  68.6061060
 143.5793680 122.0157190  76.0484980 143.9096690 121.1478250  75.8163620
 144.0084680 122.2215710  76.8789940 148.1755600 120.3466200  73.7086950
 147.8751140 120.2231170  74.6090860 148.0693090 119.4874790  73.3002680
 144.0683890 122.8827780  78.7866610 143.6314880 123.0628580  79.6190760
 144.6361570 123.6402400  78.6448330 143.9008320 115.3948010  75.1455490
 143.2457160 115.1259650  74.5015190 144.7386270 115.2852490  74.6957470
 144.9384250 115.7800580  79.6858830 145.3057290 115.6927980  80.5654850
 144.3695070 115.0167130  79.5865690 144.4900250 112.6909670  83.5917250
 143.5956300 112.6576430  83.9310960 145.0297800 112.8896460  84.3568500
 143.1146400 112.6046940  71.0880820 142.2110480 112.8677140  70.9132480
 143.5987020 112.8758110  70.3080780 145.6573610 111.6612480  68.9975200
 146.3665310 111.2395700  68.5122480 144.9413550 111.7287710  68.3658550
 145.3047770 107.7151810  68.0377850 146.0275900 108.2560750  68.3559070
 145.5772290 107.4415230  67.1619390 144.9939960 106.9658000  77.9400470
 145.6416150 106.4155380  77.4995630 145.4141800 107.2201150  78.7616280
 144.7471960 107.1213670  80.6825790 144.3986780 107.5777490  81.4483970
 144.4159660 106.2270800  80.7648220 146.3536330 120.2933270  84.8478980
 146.3105960 119.9226180  85.7293440 146.4847340 121.2310840  84.9880800
 150.0542360 121.8492860  80.4488700 149.8133720 122.1167420  79.5619220
 150.9945000 122.0198590  80.5039560 145.4192600 106.6489870  83.9576560
 145.9675590 106.4677920  83.1942670 145.4847910 105.8583980  84.4932870
 146.1924360 123.2395520  81.9676760 145.5984680 123.1080220  82.7066800
 146.1848200 122.4033660  81.5018860 145.8236590 120.6053900  80.9184800
 145.0970650 119.9859190  80.8510750 145.8845740 120.9994510  80.0482880
 149.4281690 122.8198900  77.7034210 149.9446710 122.2086260  77.1782470
 150.0779070 123.3227680  78.1945220 152.1677190 123.7107390  78.5303190
 152.4555000 123.4561690  77.6536200 152.6800410 123.1584750  79.1208760
 144.1066590 123.9228290  74.1281560 143.9388630 123.2898970  74.8263450
 143.2401100 124.1287690  73.7775750 144.7294610 107.7545070  71.6313420
 145.4873970 107.8673950  71.0577450 144.2671780 108.5914270  71.5856850
 151.2708420 109.8684340  74.6215730 150.4582930 109.4941230  74.2811610
 151.7750060 109.1129420  74.9236920 145.7129290 122.6161520  71.5731700
 145.1876910 122.9969550  70.8693660 145.6373870 123.2412290  72.2941410
 147.1019760 108.2809120  70.1715390 147.6312520 107.4938920  70.0423340
 147.7348080 108.9600310  70.4050920 149.2957600 108.0184260  73.2260780
 148.6660340 107.3171570  73.3930910 148.7562740 108.7788390  73.0093940
 149.4213160 107.2968240  85.6613270 149.1397430 107.8001840  84.8974090
 149.8032860 106.4989990  85.2955400 148.3122260 124.5643900  70.4480950
 149.0441080 124.2803180  69.9004840 148.5715930 124.3257180  71.3380330
 147.4737050 120.6808630  70.4527280 146.8445930 121.1493730  71.0013110
 147.5884880 119.8357850  70.8873470 147.0770640 116.8213120  59.3613510
 146.2455520 116.5661830  59.7610020 147.6851620 116.8923890  60.0971430
 147.0571900 120.8553210  59.5571530 147.3599940 119.9650950  59.3781750
 147.8015490 121.4123430  59.3293780 145.4862590 111.7815010  53.1455900
 144.5979290 112.1230980  53.0435780 145.7703780 111.5815330  52.2536730
 143.4495600 114.3820660  59.0295600 144.0211710 113.6142860  59.0299240
 143.4497140 114.6809420  58.1202210 144.6920470 109.7905020  60.8164530
 144.5123310 108.8930770  61.0967290 144.2900550 110.3376890  61.4911480
 147.6623980 110.3646510  54.1794280 147.7690730 111.2650240  54.4863040
 146.7516340 110.3164480  53.8888930 145.3107140 112.2865520  59.4246870
 145.9917250 112.5503890  60.0434270 144.9955190 111.4466390  59.7584880
 149.5031710 113.3332880  58.5119460 150.0109930 113.8313850  59.1524480
 150.0344950 112.5568080  58.3358820 147.7867810 107.9731440  62.7782880
 147.7886250 108.4903830  61.9728780 146.9572120 107.4961620  62.7552810
 149.0370660 117.6126620  60.9556380 148.7040040 118.2395540  61.5977450
 149.2137340 118.1388500  60.1758050 147.4683140 109.6841400  60.7853330
 147.8099950 110.5283450  60.4907200 146.5298950 109.8325140  60.9018670
 148.2489760 119.5807420  62.7705560 148.8663760 120.2558500  62.4890010
 147.3882880 119.9895400  62.6793060 143.5422100 118.7707280  51.6512410
 143.1650080 119.2594380  50.9197310 143.7995170 119.4432560  52.2818940
 151.1511030 107.1723670  57.1097920 151.4586010 106.6170560  56.3933420
 150.2211730 107.3068130  56.9270910 149.1448430 115.7637240  56.6277770
 148.7405430 115.0514490  56.1323670 149.2311550 115.4190480  57.5165810
 149.6130130 119.4504800  58.7916980 149.3158420 118.8450270  58.1124760
 150.5629950 119.4882110  58.6806340 147.8577050 112.5380450  60.4076810
 148.4091640 112.6475790  59.6330060 148.3720560 112.9118050  61.1232040
 148.7048560 119.1886490  65.4424780 147.8077090 119.4126460  65.6898180
 148.7301430 119.3121430  64.4936180 147.5319780 116.0599810  64.0182150
 147.3927550 116.9322610  64.3869550 146.6501140 115.7172620  63.8730090
 149.3300130 122.0021510  66.2267300 149.3015560 122.4064460  65.3595730
 149.1665100 121.0731870  66.0638900 145.8453060 114.6582220  54.1284420
 145.7250660 115.3844310  53.5165690 145.5353950 113.8885130  53.6512330
 143.4838430 117.8297360  59.9353060 143.5618850 117.9646130  58.9908780
 144.0980110 117.1213250  60.1281180 144.7286060 119.5297550  56.3459240
 144.3214140 119.6712140  55.4912840 145.6199070 119.2457710  56.1430450
 149.0007720 123.7443330  54.4581910 148.8250200 122.8278870  54.2449710
 148.1463460 124.1030620  54.6979710 143.5397950 118.8711530  62.4747520
 143.7028990 118.4016890  61.6566890 144.0050400 118.3635090  63.1396360
 148.3116720 108.0017290  57.5108090 147.8684870 108.7826830  57.1792610
 148.8701710 108.3247180  58.2179030 152.5986530 110.8685810  63.1143410
 152.1365900 111.0768830  63.9263350 152.1964640 110.0545160  62.8114080
 151.4275540 107.6227990  52.3913920 150.8029720 107.6187860  53.1167230
 151.3405660 106.7558950  51.9949890 150.3492620 108.5464620  59.3697690
 150.6464950 109.4527450  59.2889710 150.8978180 108.0583400  58.7557260
 148.1030940 113.1250860  55.2389340 147.8771860 112.9088030  56.1435960
 147.3223470 113.5579320  54.8935310 150.5430150 114.0236440  65.9049610
 150.4473750 113.0831170  65.7550010 151.3862130 114.2451510  65.5097680
 145.6740690 110.4350110  64.0583390 145.2804080 111.2825320  64.2656170
 144.9859090 109.7976480  64.2492030 152.2485740 110.5185080  67.1280130
 151.5584060 110.3257280  67.7626220 152.9918040 110.8019720  67.6604430
 142.9757740 108.3578570  58.0913470 142.6870790 108.9281430  58.8038450
 143.7203500 107.8783020  58.4544700 143.1627970 112.2998690  49.3016190
 143.0802640 113.2429450  49.4431180 142.8111030 112.1573600  48.4228540
 150.9626100 111.0337720  58.3686540 150.9662160 110.5927670  57.5191080
 151.8577220 111.3555050  58.4758360 146.8128480 110.9164210  57.3280750
 146.4728530 111.3939440  58.0847800 146.0505800 110.4629330  56.9681850
 151.0246250 112.0349800  51.3593300 151.1459070 111.9936280  52.3079120
 150.6394760 112.8973950  51.2040030 150.0367750 114.3450940  50.7576600
 149.4684650 113.8969190  50.1312510 150.7456750 114.7043720  50.2241750
 145.1136930 118.2462960  64.6343330 144.7291720 117.6056630  65.2326290
 145.4249120 118.9499080  65.2038060 151.2634070 115.0939500  60.1151950
 151.6304200 114.6198070  60.8613290 151.0739130 115.9681070  60.4560290
 144.1274560 109.8383190  56.2445420 143.8421480 109.4738860  57.0824040
 144.0653420 109.1063650  55.6308560 149.0533440 114.1348140  62.4336160
 148.7490510 115.0140120  62.6586520 150.0079900 114.1947930  62.4693600
 147.5815230 118.3409130  53.0303010 146.8077490 117.8006750  52.8701730
 148.3109860 117.8215740  52.6920770 147.6252630 118.0089510  56.6681820
 148.1431300 117.2057770  56.6138710 147.1736650 117.9468650  57.5098650
 152.5122130 119.2755790  51.9409120 152.8537830 120.0198020  51.4452440
 151.6834840 119.5886910  52.3033950 145.1097170 114.9750880  63.5807520
 144.7512110 115.6404730  64.1680860 144.8151730 114.1434430  63.9520140
 148.3110290 115.4335120  66.4647070 148.0110430 115.5792300  65.5674890
 149.0821530 114.8740410  66.3720460 151.4812820 119.3569320  54.7125040
 152.1683950 119.9038530  55.0932630 150.6945240 119.9010050  54.7474650
 143.6205220 114.9742140  50.2042120 144.4900070 115.2566940  50.4878040
 143.1295540 115.7878010  50.0890930 150.7840030 116.3615350  54.3250400
 151.2402810 117.1720600  54.5510590 150.4328240 116.0438490  55.1568890
 146.6851810 106.7053000  54.7972920 146.5566440 106.6970900  55.7457840
 145.8613830 107.0436090  54.4463930 143.9876470 124.1869520  50.7703750
 144.3474110 124.7858860  50.1161020 143.8468810 124.7329410  51.5438780
 143.6845740 108.4644120  64.2579620 142.9704260 108.6641040  64.8632230
 144.1040780 107.6883690  64.6294420 143.9718330 122.4524380  65.2446150
 144.0809450 121.5119120  65.1041540 143.3198890 122.7179130  64.5959880
 151.9630920 120.7240270  66.6444270 151.6427790 120.0049510  67.1889960
 151.2889280 121.3995340  66.7180330 150.0045090 121.5700720  51.5877420
 149.9955190 122.3030410  50.9721930 149.0843450 121.3232300  51.6804380
 145.6051730 116.7915610  52.3324180 144.9979680 117.5314510  52.3419480
 146.0801080 116.8814970  51.5062380 152.9904690 121.6328960  50.2502610
 153.0916670 121.4292950  49.3204590 152.0906430 121.3787240  50.4550390
 150.5130580 112.1909320  54.2326510 149.8046730 112.6595660  54.6740120
 150.7975060 111.5331330  54.8671700 152.1386510 113.6106020  62.2319040
 152.6371760 114.0851840  62.8970890 152.2809460 112.6869540  62.4389070
 151.6322800 124.1515280  54.9450280 151.8864300 124.1136670  54.0229650
 150.6835280 124.0248610  54.9378530 148.7165600 110.4994400  51.6077220
 149.5656130 110.9364550  51.5417410 148.3496870 110.8114660  52.4349280
 147.6157020 116.7526760  50.0812750 148.3820290 116.6408120  50.6438180
 147.6931710 116.0564730  49.4289520 146.3103780 114.1851830  50.7645640
 146.3907370 113.2379340  50.8763040 147.2023530 114.5158710  50.8706300
 147.1118490 124.3347220  57.8680180 147.8480970 123.7862680  58.1388750
 147.4959410 125.2003230  57.7286170 143.9963970 120.4020790  53.7421690
 143.0703750 120.6441930  53.7327100 144.4620400 121.2295050  53.6206440
 146.1176770 123.5193290  67.0565760 146.9189500 123.8405340  67.4701160
 145.6028590 123.1588870  67.7785670 150.2220800 123.5077530  49.6905750
 151.0149410 123.7966360  49.2387540 149.7025150 123.0769700  49.0118230
 143.8374580 116.0066750  66.0001810 144.3413600 115.4274030  66.5718040
 143.0982000 116.2906980  66.5378180 150.7398200 118.7280940  49.5548100
 150.6348840 118.1133290  50.2809480 150.5722420 118.2046830  48.7711110
 150.8912520 117.4137740  65.5337330 150.1258190 117.9822740  65.4492000
 151.0728480 117.1213950  64.6405560 145.8697660 114.1496340  66.8951880
 145.9103000 113.8510210  67.8037110 146.7243160 114.5503950  66.7359400
 149.6476050 116.7491890  52.0555390 150.0692470 116.5831760  52.8986780
 149.7726890 115.9392120  51.5610530 147.8103470 112.7288440  64.8626370
 147.2799930 112.2379390  64.2349710 148.4791540 113.1572640  64.3284300
 152.1603690 115.7729500  49.3032490 152.6809350 115.0578520  48.9373640
 152.8072090 116.4115370  49.6033000 148.2975770 109.6950810  64.9423660
 148.2032640 109.0771560  64.2174530 147.7173160 110.4217100  64.7153570
 151.0637210 108.2524050  61.9751050 150.6154510 108.2748310  61.1296600
 150.4302410 107.8543070  62.5721350 151.4696760 117.1478380  62.5963490
 151.8884870 117.9911110  62.4239730 150.5505390 117.2850420  62.3670270
 148.5434950 112.8225120  49.0013550 148.3424010 111.9592480  49.3626890
 148.3727000 112.7358480  48.0635150 149.3204180 123.4531390  63.7121220
 148.7825270 124.1777450  63.3929920 149.5738140 122.9761730  62.9218560
 150.5729430 111.4215910  65.2377150 151.1629120 111.1131760  65.9254970
 149.7549670 110.9495660  65.3937050 147.3417750 109.9225740  48.9891430
 147.6443650 109.9293170  48.0810580 148.0812340 109.5723600  49.4859090
 152.1766390 124.6882600  63.9707870 152.1025090 125.5917740  64.2780240
 151.2745230 124.3694500  63.9429940 150.5602680 108.8660360  49.9747630
 150.2124680 108.1884350  49.3950080 150.7615450 108.4049870  50.7891020
 146.3647880 119.2268160  49.8221230 146.8022750 119.7697830  50.4778810
 146.8495610 118.4015110  49.8317570 143.5793680 122.0157190  57.2741490
 143.9096690 121.1478250  57.0420130 144.0084680 122.2215710  58.1046450
 148.1755600 120.3466200  54.9343460 147.8751140 120.2231170  55.8347370
 148.0693090 119.4874790  54.5259190 144.0683890 122.8827780  60.0123120
 143.6314880 123.0628580  60.8447270 144.6361570 123.6402400  59.8704840
 143.9008320 115.3948010  56.3712000 143.2457160 115.1259650  55.7271700
 144.7386270 115.2852490  55.9213980 144.9384250 115.7800580  60.9115340
 145.3057290 115.6927980  61.7911360 144.3695070 115.0167130  60.8122200
 144.4900250 112.6909670  64.8173760 143.5956300 112.6576430  65.1567470
 145.0297800 112.8896460  65.5825010 143.1146400 112.6046940  52.3137330
 142.2110480 112.8677140  52.1388990 143.5987020 112.8758110  51.5337290
 145.6573610 111.6612480  50.2231710 146.3665310 111.2395700  49.7378990
 144.9413550 111.7287710  49.5915060 145.3047770 107.7151810  49.2634360
 146.0275900 108.2560750  49.5815580 145.5772290 107.4415230  48.3875900
 144.9939960 106.9658000  59.1656980 145.6416150 106.4155380  58.7252140
 145.4141800 107.2201150  59.9872790 144.7471960 107.1213670  61.9082300
 144.3986780 107.5777490  62.6740480 144.4159660 106.2270800  61.9904730
 146.3536330 120.2933270  66.0735490 146.3105960 119.9226180  66.9549950
 146.4847340 121.2310840  66.2137310 150.0542360 121.8492860  61.6745210
 149.8133720 122.1167420  60.7875730 150.9945000 122.0198590  61.7296070
 145.4192600 106.6489870  65.1833070 145.9675590 106.4677920  64.4199180
 145.4847910 105.8583980  65.7189380 146.1924360 123.2395520  63.1933270
 145.5984680 123.1080220  63.9323310 146.1848200 122.4033660  62.7275370
 145.8236590 120.6053900  62.1441310 145.0970650 119.9859190  62.0767260
 145.8845740 120.9994510  61.2739390 149.4281690 122.8198900  58.9290720
 149.9446710 122.2086260  58.4038980 150.0779070 123.3227680  59.4201730
 152.1677190 123.7107390  59.7559700 152.4555000 123.4561690  58.8792710
 152.6800410 123.1584750  60.3465270 144.1066590 123.9228290  55.3538070
 143.9388630 123.2898970  56.0519960 143.2401100 124.1287690  55.0032260
 144.7294610 107.7545070  52.8569930 145.4873970 107.8673950  52.2833960
 144.2671780 108.5914270  52.8113360 151.2708420 109.8684340  55.8472240
 150.4582930 109.4941230  55.5068120 151.7750060 109.1129420  56.1493430
 145.7129290 122.6161520  52.7988210 145.1876910 122.9969550  52.0950170
 145.6373870 123.2412290  53.5197920 147.1019760 108.2809120  51.3971900
 147.6312520 107.4938920  51.2679850 147.7348080 108.9600310  51.6307430
 149.2957600 108.0184260  54.4517290 148.6660340 107.3171570  54.6187420
 148.7562740 108.7788390  54.2350450 149.4213160 107.2968240  66.8869780
 149.1397430 107.8001840  66.1230600 149.8032860 106.4989990  66.5211910
 148.3122260 124.5643900  51.6737460 149.0441080 124.2803180  51.1261350
 148.5715930 124.3257180  52.5636840 147.4737050 120.6808630  51.6783790
 146.8445930 121.1493730  52.2269620 147.5884880 119.8357850  52.1129980
 147.0770640 116.8213120  40.5870020 146.2455520 116.5661830  40.9866530
 147.6851620 116.8923890  41.3227940 147.0571900 120.8553210  40.7828040
 147.3599940 119.9650950  40.6038260 147.8015490 121.4123430  40.5550290
 145.4862590 111.7815010  34.3712410 144.5979290 112.1230980  34.2692290
 145.7703780 111.5815330  33.4793240 143.4495600 114.3820660  40.2552110
 144.0211710 113.6142860  40.2555750 143.4497140 114.6809420  39.3458720
 144.6920470 109.7905020  42.0421040 144.5123310 108.8930770  42.3223800
 144.2900550 110.3376890  42.7167990 147.6623980 110.3646510  35.4050790
 147.7690730 111.2650240  35.7119550 146.7516340 110.3164480  35.1145440
 145.3107140 112.2865520  40.6503380 145.9917250 112.5503890  41.2690780
 144.9955190 111.4466390  40.9841390 149.5031710 113.3332880  39.7375970
 150.0109930 113.8313850  40.3780990 150.0344950 112.5568080  39.5615330
 147.7867810 107.9731440  44.0039390 147.7886250 108.4903830  43.1985290
 146.9572120 107.4961620  43.9809320 149.0370660 117.6126620  42.1812890
 148.7040040 118.2395540  42.8233960 149.2137340 118.1388500  41.4014560
 147.4683140 109.6841400  42.0109840 147.8099950 110.5283450  41.7163710
 146.5298950 109.8325140  42.1275180 148.2489760 119.5807420  43.9962070
 148.8663760 120.2558500  43.7146520 147.3882880 119.9895400  43.9049570
 143.5422100 118.7707280  32.8768920 143.1650080 119.2594380  32.1453820
 143.7995170 119.4432560  33.5075450 151.1511030 107.1723670  38.3354430
 151.4586010 106.6170560  37.6189930 150.2211730 107.3068130  38.1527420
 149.1448430 115.7637240  37.8534280 148.7405430 115.0514490  37.3580180
 149.2311550 115.4190480  38.7422320 149.6130130 119.4504800  40.0173490
 149.3158420 118.8450270  39.3381270 150.5629950 119.4882110  39.9062850
 147.8577050 112.5380450  41.6333320 148.4091640 112.6475790  40.8586570
 148.3720560 112.9118050  42.3488550 148.7048560 119.1886490  46.6681290
 147.8077090 119.4126460  46.9154690 148.7301430 119.3121430  45.7192690
 147.5319780 116.0599810  45.2438660 147.3927550 116.9322610  45.6126060
 146.6501140 115.7172620  45.0986600 149.3300130 122.0021510  47.4523810
 149.3015560 122.4064460  46.5852240 149.1665100 121.0731870  47.2895410
 145.8453060 114.6582220  35.3540930 145.7250660 115.3844310  34.7422200
 145.5353950 113.8885130  34.8768840 143.4838430 117.8297360  41.1609570
 143.5618850 117.9646130  40.2165290 144.0980110 117.1213250  41.3537690
 144.7286060 119.5297550  37.5715750 144.3214140 119.6712140  36.7169350
 145.6199070 119.2457710  37.3686960 149.0007720 123.7443330  35.6838420
 148.8250200 122.8278870  35.4706220 148.1463460 124.1030620  35.9236220
 143.5397950 118.8711530  43.7004030 143.7028990 118.4016890  42.8823400
 144.0050400 118.3635090  44.3652870 148.3116720 108.0017290  38.7364600
 147.8684870 108.7826830  38.4049120 148.8701710 108.3247180  39.4435540
 152.5986530 110.8685810  44.3399920 152.1365900 111.0768830  45.1519860
 152.1964640 110.0545160  44.0370590 151.4275540 107.6227990  33.6170430
 150.8029720 107.6187860  34.3423740 151.3405660 106.7558950  33.2206400
 150.3492620 108.5464620  40.5954200 150.6464950 109.4527450  40.5146220
 150.8978180 108.0583400  39.9813770 148.1030940 113.1250860  36.4645850
 147.8771860 112.9088030  37.3692470 147.3223470 113.5579320  36.1191820
 150.5430150 114.0236440  47.1306120 150.4473750 113.0831170  46.9806520
 151.3862130 114.2451510  46.7354190 145.6740690 110.4350110  45.2839900
 145.2804080 111.2825320  45.4912680 144.9859090 109.7976480  45.4748540
 152.2485740 110.5185080  48.3536640 151.5584060 110.3257280  48.9882730
 152.9918040 110.8019720  48.8860940 142.9757740 108.3578570  39.3169980
 142.6870790 108.9281430  40.0294960 143.7203500 107.8783020  39.6801210
 143.1627970 112.2998690  30.5272700 143.0802640 113.2429450  30.6687690
 142.8111030 112.1573600  29.6485050 150.9626100 111.0337720  39.5943050
 150.9662160 110.5927670  38.7447590 151.8577220 111.3555050  39.7014870
 146.8128480 110.9164210  38.5537260 146.4728530 111.3939440  39.3104310
 146.0505800 110.4629330  38.1938360 151.0246250 112.0349800  32.5849810
 151.1459070 111.9936280  33.5335630 150.6394760 112.8973950  32.4296540
 150.0367750 114.3450940  31.9833110 149.4684650 113.8969190  31.3569020
 150.7456750 114.7043720  31.4498260 145.1136930 118.2462960  45.8599840
 144.7291720 117.6056630  46.4582800 145.4249120 118.9499080  46.4294570
 151.2634070 115.0939500  41.3408460 151.6304200 114.6198070  42.0869800
 151.0739130 115.9681070  41.6816800 144.1274560 109.8383190  37.4701930
 143.8421480 109.4738860  38.3080550 144.0653420 109.1063650  36.8565070
 149.0533440 114.1348140  43.6592670 148.7490510 115.0140120  43.8843030
 150.0079900 114.1947930  43.6950110 147.5815230 118.3409130  34.2559520
 146.8077490 117.8006750  34.0958240 148.3109860 117.8215740  33.9177280
 147.6252630 118.0089510  37.8938330 148.1431300 117.2057770  37.8395220
 147.1736650 117.9468650  38.7355160 152.5122130 119.2755790  33.1665630
 152.8537830 120.0198020  32.6708950 151.6834840 119.5886910  33.5290460
 145.1097170 114.9750880  44.8064030 144.7512110 115.6404730  45.3937370
 144.8151730 114.1434430  45.1776650 148.3110290 115.4335120  47.6903580
 148.0110430 115.5792300  46.7931400 149.0821530 114.8740410  47.5976970
 151.4812820 119.3569320  35.9381550 152.1683950 119.9038530  36.3189140
 150.6945240 119.9010050  35.9731160 143.6205220 114.9742140  31.4298630
 144.4900070 115.2566940  31.7134550 143.1295540 115.7878010  31.3147440
 150.7840030 116.3615350  35.5506910 151.2402810 117.1720600  35.7767100
 150.4328240 116.0438490  36.3825400 146.6851810 106.7053000  36.0229430
 146.5566440 106.6970900  36.9714350 145.8613830 107.0436090  35.6720440
 143.9876470 124.1869520  31.9960260 144.3474110 124.7858860  31.3417530
 143.8468810 124.7329410  32.7695290 143.6845740 108.4644120  45.4836130
 142.9704260 108.6641040  46.0888740 144.1040780 107.6883690  45.8550930
 143.9718330 122.4524380  46.4702660 144.0809450 121.5119120  46.3298050
 143.3198890 122.7179130  45.8216390 151.9630920 120.7240270  47.8700780
 151.6427790 120.0049510  48.4146470 151.2889280 121.3995340  47.9436840
 150.0045090 121.5700720  32.8133930 149.9955190 122.3030410  32.1978440
 149.0843450 121.3232300  32.9060890 145.6051730 116.7915610  33.5580690
 144.9979680 117.5314510  33.5675990 146.0801080 116.8814970  32.7318890
 152.9904690 121.6328960  31.4759120 153.0916670 121.4292950  30.5461100
 152.0906430 121.3787240  31.6806900 150.5130580 112.1909320  35.4583020
 149.8046730 112.6595660  35.8996630 150.7975060 111.5331330  36.0928210
 152.1386510 113.6106020  43.4575550 152.6371760 114.0851840  44.1227400
 152.2809460 112.6869540  43.6645580 151.6322800 124.1515280  36.1706790
 151.8864300 124.1136670  35.2486160 150.6835280 124.0248610  36.1635040
 148.7165600 110.4994400  32.8333730 149.5656130 110.9364550  32.7673920
 148.3496870 110.8114660  33.6605790 147.6157020 116.7526760  31.3069260
 148.3820290 116.6408120  31.8694690 147.6931710 116.0564730  30.6546030
 146.3103780 114.1851830  31.9902150 146.3907370 113.2379340  32.1019550
 147.2023530 114.5158710  32.0962810 147.1118490 124.3347220  39.0936690
 147.8480970 123.7862680  39.3645260 147.4959410 125.2003230  38.9542680
 143.9963970 120.4020790  34.9678200 143.0703750 120.6441930  34.9583610
 144.4620400 121.2295050  34.8462950 146.1176770 123.5193290  48.2822270
 146.9189500 123.8405340  48.6957670 145.6028590 123.1588870  49.0042180
 150.2220800 123.5077530  30.9162260 151.0149410 123.7966360  30.4644050
 149.7025150 123.0769700  30.2374740 143.8374580 116.0066750  47.2258320
 144.3413600 115.4274030  47.7974550 143.0982000 116.2906980  47.7634690
 150.7398200 118.7280940  30.7804610 150.6348840 118.1133290  31.5065990
 150.5722420 118.2046830  29.9967620 150.8912520 117.4137740  46.7593840
 150.1258190 117.9822740  46.6748510 151.0728480 117.1213950  45.8662070
 145.8697660 114.1496340  48.1208390 145.9103000 113.8510210  49.0293620
 146.7243160 114.5503950  47.9615910 149.6476050 116.7491890  33.2811900
 150.0692470 116.5831760  34.1243290 149.7726890 115.9392120  32.7867040
 147.8103470 112.7288440  46.0882880 147.2799930 112.2379390  45.4606220
 148.4791540 113.1572640  45.5540810 152.1603690 115.7729500  30.5289000
 152.6809350 115.0578520  30.1630150 152.8072090 116.4115370  30.8289510
 148.2975770 109.6950810  46.1680170 148.2032640 109.0771560  45.4431040
 147.7173160 110.4217100  45.9410080 151.0637210 108.2524050  43.2007560
 150.6154510 108.2748310  42.3553110 150.4302410 107.8543070  43.7977860
 151.4696760 117.1478380  43.8220000 151.8884870 117.9911110  43.6496240
 150.5505390 117.2850420  43.5926780 148.5434950 112.8225120  30.2270060
 148.3424010 111.9592480  30.5883400 148.3727000 112.7358480  29.2891660
 149.3204180 123.4531390  44.9377730 148.7825270 124.1777450  44.6186430
 149.5738140 122.9761730  44.1475070 150.5729430 111.4215910  46.4633660
 151.1629120 111.1131760  47.1511480 149.7549670 110.9495660  46.6193560
 147.3417750 109.9225740  30.2147940 147.6443650 109.9293170  29.3067090
 148.0812340 109.5723600  30.7115600 152.1766390 124.6882600  45.1964380
 152.1025090 125.5917740  45.5036750 151.2745230 124.3694500  45.1686450
 150.5602680 108.8660360  31.2004140 150.2124680 108.1884350  30.6206590
 150.7615450 108.4049870  32.0147530 146.3647880 119.2268160  31.0477740
 146.8022750 119.7697830  31.7035320 146.8495610 118.4015110  31.0574080
 143.5793680 122.0157190  38.4998000 143.9096690 121.1478250  38.2676640
 144.0084680 122.2215710  39.3302960 148.1755600 120.3466200  36.1599970
 147.8751140 120.2231170  37.0603880 148.0693090 119.4874790  35.7515700
 144.0683890 122.8827780  41.2379630 143.6314880 123.0628580  42.0703780
 144.6361570 123.6402400  41.0961350 143.9008320 115.3948010  37.5968510
 143.2457160 115.1259650  36.9528210 144.7386270 115.2852490  37.1470490
 144.9384250 115.7800580  42.1371850 145.3057290 115.6927980  43.0167870
 144.3695070 115.0167130  42.0378710 144.4900250 112.6909670  46.0430270
 143.5956300 112.6576430  46.3823980 145.0297800 112.8896460  46.8081520
 143.1146400 112.6046940  33.5393840 142.2110480 112.8677140  33.3645500
 143.5987020 112.8758110  32.7593800 145.6573610 111.6612480  31.4488220
 146.3665310 111.2395700  30.9635500 144.9413550 111.7287710  30.8171570
 145.3047770 107.7151810  30.4890870 146.0275900 108.2560750  30.8072090
 145.5772290 107.4415230  29.6132410 144.9939960 106.9658000  40.3913490
 145.6416150 106.4155380  39.9508650 145.4141800 107.2201150  41.2129300
 144.7471960 107.1213670  43.1338810 144.3986780 107.5777490  43.8996990
 144.4159660 106.2270800  43.2161240 146.3536330 120.2933270  47.2992000
 146.3105960 119.9226180  48.1806460 146.4847340 121.2310840  47.4393820
 150.0542360 121.8492860  42.9001720 149.8133720 122.1167420  42.0132240
 150.9945000 122.0198590  42.9552580 145.4192600 106.6489870  46.4089580
 145.9675590 106.4677920  45.6455690 145.4847910 105.8583980  46.9445890
 146.1924360 123.2395520  44.4189780 145.5984680 123.1080220  45.1579820
 146.1848200 122.4033660  43.9531880 145.8236590 120.6053900  43.3697820
 145.0970650 119.9859190  43.3023770 145.8845740 120.9994510  42.4995900
 149.4281690 122.8198900  40.1547230 149.9446710 122.2086260  39.6295490
 150.0779070 123.3227680  40.6458240 152.1677190 123.7107390  40.9816210
 152.4555000 123.4561690  40.1049220 152.6800410 123.1584750  41.5721780
 144.1066590 123.9228290  36.5794580 143.9388630 123.2898970  37.2776470
 143.2401100 124.1287690  36.2288770 144.7294610 107.7545070  34.0826440
 145.4873970 107.8673950  33.5090470 144.2671780 108.5914270  34.0369870
 151.2708420 109.8684340  37.0728750 150.4582930 109.4941230  36.7324630
 151.7750060 109.1129420  37.3749940 145.7129290 122.6161520  34.0244720
 145.1876910 122.9969550  33.3206680 145.6373870 123.2412290  34.7454430
 147.1019760 108.2809120  32.6228410 147.6312520 107.4938920  32.4936360
 147.7348080 108.9600310  32.8563940 149.2957600 108.0184260  35.6773800
 148.6660340 107.3171570  35.8443930 148.7562740 108.7788390  35.4606960
 149.4213160 107.2968240  48.1126290 149.1397430 107.8001840  47.3487110
 149.8032860 106.4989990  47.7468420 148.3122260 124.5643900  32.8993970
 149.0441080 124.2803180  32.3517860 148.5715930 124.3257180  33.7893350
 147.4737050 120.6808630  32.9040300 146.8445930 121.1493730  33.4526130
 147.5884880 119.8357850  33.3386490 147.0770640 116.8213120  21.8126530
 146.2455520 116.5661830  22.2123040 147.6851620 116.8923890  22.5484450
 147.0571900 120.8553210  22.0084550 147.3599940 119.9650950  21.8294770
 147.8015490 121.4123430  21.7806800 145.4862590 111.7815010  15.5968920
 144.5979290 112.1230980  15.4948800 145.7703780 111.5815330  14.7049750
 143.4495600 114.3820660  21.4808620 144.0211710 113.6142860  21.4812260
 143.4497140 114.6809420  20.5715230 144.6920470 109.7905020  23.2677550
 144.5123310 108.8930770  23.5480310 144.2900550 110.3376890  23.9424500
 147.6623980 110.3646510  16.6307300 147.7690730 111.2650240  16.9376060
 146.7516340 110.3164480  16.3401950 145.3107140 112.2865520  21.8759890
 145.9917250 112.5503890  22.4947290 144.9955190 111.4466390  22.2097900
 149.5031710 113.3332880  20.9632480 150.0109930 113.8313850  21.6037500
 150.0344950 112.5568080  20.7871840 147.7867810 107.9731440  25.2295900
 147.7886250 108.4903830  24.4241800 146.9572120 107.4961620  25.2065830
 149.0370660 117.6126620  23.4069400 148.7040040 118.2395540  24.0490470
 149.2137340 118.1388500  22.6271070 147.4683140 109.6841400  23.2366350
 147.8099950 110.5283450  22.9420220 146.5298950 109.8325140  23.3531690
 148.2489760 119.5807420  25.2218580 148.8663760 120.2558500  24.9403030
 147.3882880 119.9895400  25.1306080 143.5422100 118.7707280  14.1025430
 143.1650080 119.2594380  13.3710330 143.7995170 119.4432560  14.7331960
 151.1511030 107.1723670  19.5610940 151.4586010 106.6170560  18.8446440
 150.2211730 107.3068130  19.3783930 149.1448430 115.7637240  19.0790790
 148.7405430 115.0514490  18.5836690 149.2311550 115.4190480  19.9678830
 149.6130130 119.4504800  21.2430000 149.3158420 118.8450270  20.5637780
 150.5629950 119.4882110  21.1319360 147.8577050 112.5380450  22.8589830
 148.4091640 112.6475790  22.0843080 148.3720560 112.9118050  23.5745060
 148.7048560 119.1886490  27.8937800 147.8077090 119.4126460  28.1411200
 148.7301430 119.3121430  26.9449200 147.5319780 116.0599810  26.4695170
 147.3927550 116.9322610  26.8382570 146.6501140 115.7172620  26.3243110
 149.3300130 122.0021510  28.6780320 149.3015560 122.4064460  27.8108750
 149.1665100 121.0731870  28.5151920 145.8453060 114.6582220  16.5797440
 145.7250660 115.3844310  15.9678710 145.5353950 113.8885130  16.1025350
 143.4838430 117.8297360  22.3866080 143.5618850 117.9646130  21.4421800
 144.0980110 117.1213250  22.5794200 144.7286060 119.5297550  18.7972260
 144.3214140 119.6712140  17.9425860 145.6199070 119.2457710  18.5943470
 149.0007720 123.7443330  16.9094930 148.8250200 122.8278870  16.6962730
 148.1463460 124.1030620  17.1492730 143.5397950 118.8711530  24.9260540
 143.7028990 118.4016890  24.1079910 144.0050400 118.3635090  25.5909380
 148.3116720 108.0017290  19.9621110 147.8684870 108.7826830  19.6305630
 148.8701710 108.3247180  20.6692050 152.5986530 110.8685810  25.5656430
 152.1365900 111.0768830  26.3776370 152.1964640 110.0545160  25.2627100
 151.4275540 107.6227990  14.8426940 150.8029720 107.6187860  15.5680250
 151.3405660 106.7558950  14.4462910 150.3492620 108.5464620  21.8210710
 150.6464950 109.4527450  21.7402730 150.8978180 108.0583400  21.2070280
 148.1030940 113.1250860  17.6902360 147.8771860 112.9088030  18.5948980
 147.3223470 113.5579320  17.3448330 150.5430150 114.0236440  28.3562630
 150.4473750 113.0831170  28.2063030 151.3862130 114.2451510  27.9610700
 145.6740690 110.4350110  26.5096410 145.2804080 111.2825320  26.7169190
 144.9859090 109.7976480  26.7005050 152.2485740 110.5185080  29.5793150
 151.5584060 110.3257280  30.2139240 152.9918040 110.8019720  30.1117450
 142.9757740 108.3578570  20.5426490 142.6870790 108.9281430  21.2551470
 143.7203500 107.8783020  20.9057720 143.1627970 112.2998690  11.7529210
 143.0802640 113.2429450  11.8944200 142.8111030 112.1573600  10.8741560
 150.9626100 111.0337720  20.8199560 150.9662160 110.5927670  19.9704100
 151.8577220 111.3555050  20.9271380 146.8128480 110.9164210  19.7793770
 146.4728530 111.3939440  20.5360820 146.0505800 110.4629330  19.4194870
 151.0246250 112.0349800  13.8106320 151.1459070 111.9936280  14.7592140
 150.6394760 112.8973950  13.6553050 150.0367750 114.3450940  13.2089620
 149.4684650 113.8969190  12.5825530 150.7456750 114.7043720  12.6754770
 145.1136930 118.2462960  27.0856350 144.7291720 117.6056630  27.6839310
 145.4249120 118.9499080  27.6551080 151.2634070 115.0939500  22.5664970
 151.6304200 114.6198070  23.3126310 151.0739130 115.9681070  22.9073310
 144.1274560 109.8383190  18.6958440 143.8421480 109.4738860  19.5337060
 144.0653420 109.1063650  18.0821580 149.0533440 114.1348140  24.8849180
 148.7490510 115.0140120  25.1099540 150.0079900 114.1947930  24.9206620
 147.5815230 118.3409130  15.4816030 146.8077490 117.8006750  15.3214750
 148.3109860 117.8215740  15.1433790 147.6252630 118.0089510  19.1194840
 148.1431300 117.2057770  19.0651730 147.1736650 117.9468650  19.9611670
 152.5122130 119.2755790  14.3922140 152.8537830 120.0198020  13.8965460
 151.6834840 119.5886910  14.7546970 145.1097170 114.9750880  26.0320540
 144.7512110 115.6404730  26.6193880 144.8151730 114.1434430  26.4033160
 148.3110290 115.4335120  28.9160090 148.0110430 115.5792300  28.0187910
 149.0821530 114.8740410  28.8233480 151.4812820 119.3569320  17.1638060
 152.1683950 119.9038530  17.5445650 150.6945240 119.9010050  17.1987670
 143.6205220 114.9742140  12.6555140 144.4900070 115.2566940  12.9391060
 143.1295540 115.7878010  12.5403950 150.7840030 116.3615350  16.7763420
 151.2402810 117.1720600  17.0023610 150.4328240 116.0438490  17.6081910
 146.6851810 106.7053000  17.2485940 146.5566440 106.6970900  18.1970860
 145.8613830 107.0436090  16.8976950 143.9876470 124.1869520  13.2216770
 144.3474110 124.7858860  12.5674040 143.8468810 124.7329410  13.9951800
 143.6845740 108.4644120  26.7092640 142.9704260 108.6641040  27.3145250
 144.1040780 107.6883690  27.0807440 143.9718330 122.4524380  27.6959170
 144.0809450 121.5119120  27.5554560 143.3198890 122.7179130  27.0472900
 151.9630920 120.7240270  29.0957290 151.6427790 120.0049510  29.6402980
 151.2889280 121.3995340  29.1693350 150.0045090 121.5700720  14.0390440
 149.9955190 122.3030410  13.4234950 149.0843450 121.3232300  14.1317400
 145.6051730 116.7915610  14.7837200 144.9979680 117.5314510  14.7932500
 146.0801080 116.8814970  13.9575400 152.9904690 121.6328960  12.7015630
 153.0916670 121.4292950  11.7717610 152.0906430 121.3787240  12.9063410
 150.5130580 112.1909320  16.6839530 149.8046730 112.6595660  17.1253140
 150.7975060 111.5331330  17.3184720 152.1386510 113.6106020  24.6832060
 152.6371760 114.0851840  25.3483910 152.2809460 112.6869540  24.8902090
 151.6322800 124.1515280  17.3963300 151.8864300 124.1136670  16.4742670
 150.6835280 124.0248610  17.3891550 148.7165600 110.4994400  14.0590240
 149.5656130 110.9364550  13.9930430 148.3496870 110.8114660  14.8862300
 147.6157020 116.7526760  12.5325770 148.3820290 116.6408120  13.0951200
 147.6931710 116.0564730  11.8802540 146.3103780 114.1851830  13.2158660
 146.3907370 113.2379340  13.3276060 147.2023530 114.5158710  13.3219320
 147.1118490 124.3347220  20.3193200 147.8480970 123.7862680  20.5901770
 147.4959410 125.2003230  20.1799190 143.9963970 120.4020790  16.1934710
 143.0703750 120.6441930  16.1840120 144.4620400 121.2295050  16.0719460
 146.1176770 123.5193290  29.5078780 146.9189500 123.8405340  29.9214180
 145.6028590 123.1588870  30.2298690 150.2220800 123.5077530  12.1418770
 151.0149410 123.7966360  11.6900560 149.7025150 123.0769700  11.4631250
 143.8374580 116.0066750  28.4514830 144.3413600 115.4274030  29.0231060
 143.0982000 116.2906980  28.9891200 150.7398200 118.7280940  12.0061120
 150.6348840 118.1133290  12.7322500 150.5722420 118.2046830  11.2224130
 150.8912520 117.4137740  27.9850350 150.1258190 117.9822740  27.9005020
 151.0728480 117.1213950  27.0918580 145.8697660 114.1496340  29.3464900
 145.9103000 113.8510210  30.2550130 146.7243160 114.5503950  29.1872420
 149.6476050 116.7491890  14.5068410 150.0692470 116.5831760  15.3499800
 149.7726890 115.9392120  14.0123550 147.8103470 112.7288440  27.3139390
 147.2799930 112.2379390  26.6862730 148.4791540 113.1572640  26.7797320
 152.1603690 115.7729500  11.7545510 152.6809350 115.0578520  11.3886660
 152.8072090 116.4115370  12.0546020 148.2975770 109.6950810  27.3936680
 148.2032640 109.0771560  26.6687550 147.7173160 110.4217100  27.1666590
 151.0637210 108.2524050  24.4264070 150.6154510 108.2748310  23.5809620
 150.4302410 107.8543070  25.0234370 151.4696760 117.1478380  25.0476510
 151.8884870 117.9911110  24.8752750 150.5505390 117.2850420  24.8183290
 148.5434950 112.8225120  11.4526570 148.3424010 111.9592480  11.8139910
 148.3727000 112.7358480  10.5148170 149.3204180 123.4531390  26.1634240
 148.7825270 124.1777450  25.8442940 149.5738140 122.9761730  25.3731580
 150.5729430 111.4215910  27.6890170 151.1629120 111.1131760  28.3767990
 149.7549670 110.9495660  27.8450070 147.3417750 109.9225740  11.4404450
 147.6443650 109.9293170  10.5323600 148.0812340 109.5723600  11.9372110
 152.1766390 124.6882600  26.4220890 152.1025090 125.5917740  26.7293260
 151.2745230 124.3694500  26.3942960 150.5602680 108.8660360  12.4260650
 150.2124680 108.1884350  11.8463100 150.7615450 108.4049870  13.2404040
 146.3647880 119.2268160  12.2734250 146.8022750 119.7697830  12.9291830
 146.8495610 118.4015110  12.2830590 143.5793680 122.0157190  19.7254510
 143.9096690 121.1478250  19.4933150 144.0084680 122.2215710  20.5559470
 148.1755600 120.3466200  17.3856480 147.8751140 120.2231170  18.2860390
 148.0693090 119.4874790  16.9772210 144.0683890 122.8827780  22.4636140
 143.6314880 123.0628580  23.2960290 144.6361570 123.6402400  22.3217860
 143.9008320 115.3948010  18.8225020 143.2457160 115.1259650  18.1784720
 144.7386270 115.2852490  18.3727000 144.9384250 115.7800580  23.3628360
 145.3057290 115.6927980  24.2424380 144.3695070 115.0167130  23.2635220
 144.4900250 112.6909670  27.2686780 143.5956300 112.6576430  27.6080490
 145.0297800 112.8896460  28.0338030 143.1146400 112.6046940  14.7650350
 142.2110480 112.8677140  14.5902010 143.5987020 112.8758110  13.9850310
 145.6573610 111.6612480  12.6744730 146.3665310 111.2395700  12.1892010
 144.9413550 111.7287710  12.0428080 145.3047770 107.7151810  11.7147380
 146.0275900 108.2560750  12.0328600 145.5772290 107.4415230  10.8388920
 144.9939960 106.9658000  21.6170000 145.6416150 106.4155380  21.1765160
 145.4141800 107.2201150  22.4385810 144.7471960 107.1213670  24.3595320
 144.3986780 107.5777490  25.1253500 144.4159660 106.2270800  24.4417750
 146.3536330 120.2933270  28.5248510 146.3105960 119.9226180  29.4062970
 146.4847340 121.2310840  28.6650330 150.0542360 121.8492860  24.1258230
 149.8133720 122.1167420  23.2388750 150.9945000 122.0198590  24.1809090
 145.4192600 106.6489870  27.6346090 145.9675590 106.4677920  26.8712200
 145.4847910 105.8583980  28.1702400 146.1924360 123.2395520  25.6446290
 145.5984680 123.1080220  26.3836330 146.1848200 122.4033660  25.1788390
 145.8236590 120.6053900  24.5954330 145.0970650 119.9859190  24.5280280
 145.8845740 120.9994510  23.7252410 149.4281690 122.8198900  21.3803740
 149.9446710 122.2086260  20.8552000 150.0779070 123.3227680  21.8714750
 152.1677190 123.7107390  22.2072720 152.4555000 123.4561690  21.3305730
 152.6800410 123.1584750  22.7978290 144.1066590 123.9228290  17.8051090
 143.9388630 123.2898970  18.5032980 143.2401100 124.1287690  17.4545280
 144.7294610 107.7545070  15.3082950 145.4873970 107.8673950  14.7346980
 144.2671780 108.5914270  15.2626380 151.2708420 109.8684340  18.2985260
 150.4582930 109.4941230  17.9581140 151.7750060 109.1129420  18.6006450
 145.7129290 122.6161520  15.2501230 145.1876910 122.9969550  14.5463190
 145.6373870 123.2412290  15.9710940 147.1019760 108.2809120  13.8484920
 147.6312520 107.4938920  13.7192870 147.7348080 108.9600310  14.0820450
 149.2957600 108.0184260  16.9030310 148.6660340 107.3171570  17.0700440
 148.7562740 108.7788390  16.6863470 149.4213160 107.2968240  29.3382800
 149.1397430 107.8001840  28.5743620 149.8032860 106.4989990  28.9724930
 148.3122260 124.5643900  14.1250480 149.0441080 124.2803180  13.5774370
 148.5715930 124.3257180  15.0149860 147.4737050 120.6808630  14.1296810
 146.8445930 121.1493730  14.6782640 147.5884880 119.8357850  14.5643000
 147.0770640 116.8213120   3.0383040 146.2455520 116.5661830   3.4379550
 147.6851620 116.8923890   3.7740960 147.0571900 120.8553210   3.2341060
 147.3599940 119.9650950   3.0551280 147.8015490 121.4123430   3.0063310
 143.4495600 114.3820660   2.7065130 144.0211710 113.6142860   2.7068770
 143.4497140 114.6809420   1.7971740 144.6920470 109.7905020   4.4934060
 144.5123310 108.8930770   4.7736820 144.2900550 110.3376890   5.1681010
 145.3107140 112.2865520   3.1016400 145.9917250 112.5503890   3.7203800
 144.9955190 111.4466390   3.4354410 149.5031710 113.3332880   2.1888990
 150.0109930 113.8313850   2.8294010 150.0344950 112.5568080   2.0128350
 147.7867810 107.9731440   6.4552410 147.7886250 108.4903830   5.6498310
 146.9572120 107.4961620   6.4322340 149.0370660 117.6126620   4.6325910
 148.7040040 118.2395540   5.2746980 149.2137340 118.1388500   3.8527580
 147.4683140 109.6841400   4.4622860 147.8099950 110.5283450   4.1676730
 146.5298950 109.8325140   4.5788200 148.2489760 119.5807420   6.4475090
 148.8663760 120.2558500   6.1659540 147.3882880 119.9895400   6.3562590
 149.6130130 119.4504800   2.4686510 149.3158420 118.8450270   1.7894290
 150.5629950 119.4882110   2.3575870 147.8577050 112.5380450   4.0846340
 148.4091640 112.6475790   3.3099590 148.3720560 112.9118050   4.8001570
 148.7048560 119.1886490   9.1194310 147.8077090 119.4126460   9.3667710
 148.7301430 119.3121430   8.1705710 147.5319780 116.0599810   7.6951680
 147.3927550 116.9322610   8.0639080 146.6501140 115.7172620   7.5499620
 149.3300130 122.0021510   9.9036830 149.3015560 122.4064460   9.0365260
 149.1665100 121.0731870   9.7408430 143.4838430 117.8297360   3.6122590
 143.5618850 117.9646130   2.6678310 144.0980110 117.1213250   3.8050710
 143.5397950 118.8711530   6.1517050 143.7028990 118.4016890   5.3336420
 144.0050400 118.3635090   6.8165890 152.5986530 110.8685810   6.7912940
 152.1365900 111.0768830   7.6032880 152.1964640 110.0545160   6.4883610
 150.3492620 108.5464620   3.0467220 150.6464950 109.4527450   2.9659240
 150.8978180 108.0583400   2.4326790 150.5430150 114.0236440   9.5819140
 150.4473750 113.0831170   9.4319540 151.3862130 114.2451510   9.1867210
 145.6740690 110.4350110   7.7352920 145.2804080 111.2825320   7.9425700
 144.9859090 109.7976480   7.9261560 152.2485740 110.5185080  10.8049660
 151.5584060 110.3257280  11.4395750 152.9918040 110.8019720  11.3373960
 142.9757740 108.3578570   1.7683000 142.6870790 108.9281430   2.4807980
 143.7203500 107.8783020   2.1314230 145.1136930 118.2462960   8.3112860
 144.7291720 117.6056630   8.9095820 145.4249120 118.9499080   8.8807590
 151.2634070 115.0939500   3.7921480 151.6304200 114.6198070   4.5382820
 151.0739130 115.9681070   4.1329820 149.0533440 114.1348140   6.1105690
 148.7490510 115.0140120   6.3356050 150.0079900 114.1947930   6.1463130
 145.1097170 114.9750880   7.2577050 144.7512110 115.6404730   7.8450390
 144.8151730 114.1434430   7.6289670 148.3110290 115.4335120  10.1416600
 148.0110430 115.5792300   9.2444420 149.0821530 114.8740410  10.0489990
 143.6845740 108.4644120   7.9349150 142.9704260 108.6641040   8.5401760
 144.1040780 107.6883690   8.3063950 143.9718330 122.4524380   8.9215680
 144.0809450 121.5119120   8.7811070 143.3198890 122.7179130   8.2729410
 151.9630920 120.7240270  10.3213800 151.6427790 120.0049510  10.8659490
 151.2889280 121.3995340  10.3949860 152.1386510 113.6106020   5.9088570
 152.6371760 114.0851840   6.5740420 152.2809460 112.6869540   6.1158600
 146.1176770 123.5193290  10.7335290 146.9189500 123.8405340  11.1470690
 145.6028590 123.1588870  11.4555200 143.8374580 116.0066750   9.6771340
 144.3413600 115.4274030  10.2487570 143.0982000 116.2906980  10.2147710
 150.8912520 117.4137740   9.2106860 150.1258190 117.9822740   9.1261530
 151.0728480 117.1213950   8.3175090 145.8697660 114.1496340  10.5721410
 145.9103000 113.8510210  11.4806640 146.7243160 114.5503950  10.4128930
 147.8103470 112.7288440   8.5395900 147.2799930 112.2379390   7.9119240
 148.4791540 113.1572640   8.0053830 148.2975770 109.6950810   8.6193190
 148.2032640 109.0771560   7.8944060 147.7173160 110.4217100   8.3923100
 151.0637210 108.2524050   5.6520580 150.6154510 108.2748310   4.8066130
 150.4302410 107.8543070   6.2490880 151.4696760 117.1478380   6.2733020
 151.8884870 117.9911110   6.1009260 150.5505390 117.2850420   6.0439800
 149.3204180 123.4531390   7.3890750 148.7825270 124.1777450   7.0699450
 149.5738140 122.9761730   6.5988090 150.5729430 111.4215910   8.9146680
 151.1629120 111.1131760   9.6024500 149.7549670 110.9495660   9.0706580
 152.1766390 124.6882600   7.6477400 152.1025090 125.5917740   7.9549770
 151.2745230 124.3694500   7.6199470 144.0683890 122.8827780   3.6892650
 143.6314880 123.0628580   4.5216800 144.6361570 123.6402400   3.5474370
 144.9384250 115.7800580   4.5884870 145.3057290 115.6927980   5.4680890
 144.3695070 115.0167130   4.4891730 144.4900250 112.6909670   8.4943290
 143.5956300 112.6576430   8.8337000 145.0297800 112.8896460   9.2594540
 144.9939960 106.9658000   2.8426510 145.6416150 106.4155380   2.4021670
 145.4141800 107.2201150   3.6642320 144.7471960 107.1213670   5.5851830
 144.3986780 107.5777490   6.3510010 144.4159660 106.2270800   5.6674260
 146.3536330 120.2933270   9.7505020 146.3105960 119.9226180  10.6319480
 146.4847340 121.2310840   9.8906840 150.0542360 121.8492860   5.3514740
 149.8133720 122.1167420   4.4645260 150.9945000 122.0198590   5.4065600
 145.4192600 106.6489870   8.8602600 145.9675590 106.4677920   8.0968710
 145.4847910 105.8583980   9.3958910 146.1924360 123.2395520   6.8702800
 145.5984680 123.1080220   7.6092840 146.1848200 122.4033660   6.4044900
 145.8236590 120.6053900   5.8210840 145.0970650 119.9859190   5.7536790
 145.8845740 120.9994510   4.9508920 149.4281690 122.8198900   2.6060250
 149.9446710 122.2086260   2.0808510 150.0779070 123.3227680   3.0971260
 152.1677190 123.7107390   3.4329230 152.4555000 123.4561690   2.5562240
 152.6800410 123.1584750   4.0234800 149.4213160 107.2968240  10.5639310
 149.1397430 107.8001840   9.8000130 149.8032860 106.4989990  10.1981440
 145.4862590  93.0071520 147.0173350 144.5979290  93.3487490 146.9153230
 145.7703780  92.8071840 146.1254180 147.6623980  91.5903020 148.0511730
 147.7690730  92.4906750 148.3580490 146.7516340  91.5420990 147.7606380
 143.5422100  99.9963790 145.5229860 143.1650080 100.4850890 144.7914760
 143.7995170 100.6689070 146.1536390 151.1511030  88.3980180 150.9815370
 151.4586010  87.8427070 150.2650870 150.2211730  88.5324640 150.7988360
 149.1448430  96.9893750 150.4995220 148.7405430  96.2771000 150.0041120
 149.2311550  96.6446990 151.3883260 145.8453060  95.8838730 148.0001870
 145.7250660  96.6100820 147.3883140 145.5353950  95.1141640 147.5229780
 144.7286060 100.7554060 150.2176690 144.3214140 100.8968650 149.3630290
 145.6199070 100.4714220 150.0147900 149.0007720 104.9699840 148.3299360
 148.8250200 104.0535380 148.1167160 148.1463460 105.3287130 148.5697160
 148.3116720  89.2273800 151.3825540 147.8684870  90.0083340 151.0510060
 148.8701710  89.5503690 152.0896480 151.4275540  88.8484500 146.2631370
 150.8029720  88.8444370 146.9884680 151.3405660  87.9815460 145.8667340
 148.1030940  94.3507370 149.1106790 147.8771860  94.1344540 150.0153410
 147.3223470  94.7835830 148.7652760 143.1627970  93.5255200 143.1733640
 143.0802640  94.4685960 143.3148630 142.8111030  93.3830110 142.2945990
 150.9626100  92.2594230 152.2403990 150.9662160  91.8184180 151.3908530
 151.8577220  92.5811560 152.3475810 146.8128480  92.1420720 151.1998200
 146.4728530  92.6195950 151.9565250 146.0505800  91.6885840 150.8399300
 151.0246250  93.2606310 145.2310750 151.1459070  93.2192790 146.1796570
 150.6394760  94.1230460 145.0757480 150.0367750  95.5707450 144.6294050
 149.4684650  95.1225700 144.0029960 150.7456750  95.9300230 144.0959200
 144.1274560  91.0639700 150.1162870 143.8421480  90.6995370 150.9541490
 144.0653420  90.3320160 149.5026010 147.5815230  99.5665640 146.9020460
 146.8077490  99.0263260 146.7419180 148.3109860  99.0472250 146.5638220
 147.6252630  99.2346020 150.5399270 148.1431300  98.4314280 150.4856160
 147.1736650  99.1725160 151.3816100 152.5122130 100.5012300 145.8126570
 152.8537830 101.2454530 145.3169890 151.6834840 100.8143420 146.1751400
 151.4812820 100.5825830 148.5842490 152.1683950 101.1295040 148.9650080
 150.6945240 101.1266560 148.6192100 143.6205220  96.1998650 144.0759570
 144.4900070  96.4823450 144.3595490 143.1295540  97.0134520 143.9608380
 150.7840030  97.5871860 148.1967850 151.2402810  98.3977110 148.4228040
 150.4328240  97.2695000 149.0286340 146.6851810  87.9309510 148.6690370
 146.5566440  87.9227410 149.6175290 145.8613830  88.2692600 148.3181380
 143.9876470 105.4126030 144.6421200 144.3474110 106.0115370 143.9878470
 143.8468810 105.9585920 145.4156230 150.0045090 102.7957230 145.4594870
 149.9955190 103.5286920 144.8439380 149.0843450 102.5488810 145.5521830
 145.6051730  98.0172120 146.2041630 144.9979680  98.7571020 146.2136930
 146.0801080  98.1071480 145.3779830 152.9904690 102.8585470 144.1220060
 153.0916670 102.6549460 143.1922040 152.0906430 102.6043750 144.3267840
 150.5130580  93.4165830 148.1043960 149.8046730  93.8852170 148.5457570
 150.7975060  92.7587840 148.7389150 151.6322800 105.3771790 148.8167730
 151.8864300 105.3393180 147.8947100 150.6835280 105.2505120 148.8095980
 148.7165600  91.7250910 145.4794670 149.5656130  92.1621060 145.4134860
 148.3496870  92.0371170 146.3066730 147.6157020  97.9783270 143.9530200
 148.3820290  97.8664630 144.5155630 147.6931710  97.2821240 143.3006970
 146.3103780  95.4108340 144.6363090 146.3907370  94.4635850 144.7480490
 147.2023530  95.7415220 144.7423750 147.1118490 105.5603730 151.7397630
 147.8480970 105.0119190 152.0106200 147.4959410 106.4259740 151.6003620
 143.9963970 101.6277300 147.6139140 143.0703750 101.8698440 147.6044550
 144.4620400 102.4551560 147.4923890 150.2220800 104.7334040 143.5623200
 151.0149410 105.0222870 143.1104990 149.7025150 104.3026210 142.8835680
 150.7398200  99.9537450 143.4265550 150.6348840  99.3389800 144.1526930
 150.5722420  99.4303340 142.6428560 149.6476050  97.9748400 145.9272840
 150.0692470  97.8088270 146.7704230 149.7726890  97.1648630 145.4327980
 152.1603690  96.9986010 143.1749940 152.6809350  96.2835030 142.8091090
 152.8072090  97.6371880 143.4750450 148.5434950  94.0481630 142.8731000
 148.3424010  93.1848990 143.2344340 148.3727000  93.9614990 141.9352600
 147.3417750  91.1482250 142.8608880 147.6443650  91.1549680 141.9528030
 148.0812340  90.7980110 143.3576540 150.5602680  90.0916870 143.8465080
 150.2124680  89.4140860 143.2667530 150.7615450  89.6306380 144.6608470
 146.3647880 100.4524670 143.6938680 146.8022750 100.9954340 144.3496260
 146.8495610  99.6271620 143.7035020 143.5793680 103.2413700 151.1458940
 143.9096690 102.3734760 150.9137580 144.0084680 103.4472220 151.9763900
 148.1755600 101.5722710 148.8060910 147.8751140 101.4487680 149.7064820
 148.0693090 100.7131300 148.3976640 143.9008320  96.6204520 150.2429450
 143.2457160  96.3516160 149.5989150 144.7386270  96.5109000 149.7931430
 143.1146400  93.8303450 146.1854780 142.2110480  94.0933650 146.0106440
 143.5987020  94.1014620 145.4054740 145.6573610  92.8868990 144.0949160
 146.3665310  92.4652210 143.6096440 144.9413550  92.9544220 143.4632510
 145.3047770  88.9408320 143.1351810 146.0275900  89.4817260 143.4533030
 145.5772290  88.6671740 142.2593350 144.1066590 105.1484800 149.2255520
 143.9388630 104.5155480 149.9237410 143.2401100 105.3544200 148.8749710
 144.7294610  88.9801580 146.7287380 145.4873970  89.0930460 146.1551410
 144.2671780  89.8170780 146.6830810 151.2708420  91.0940850 149.7189690
 150.4582930  90.7197740 149.3785570 151.7750060  90.3385930 150.0210880
 145.7129290 103.8418030 146.6705660 145.1876910 104.2226060 145.9667620
 145.6373870 104.4668800 147.3915370 147.1019760  89.5065630 145.2689350
 147.6312520  88.7195430 145.1397300 147.7348080  90.1856820 145.5024880
 149.2957600  89.2440770 148.3234740 148.6660340  88.5428080 148.4904870
 148.7562740  90.0044900 148.1067900 148.3122260 105.7900410 145.5454910
 149.0441080 105.5059690 144.9978800 148.5715930 105.5513690 146.4354290
 147.4737050 101.9065140 145.5501240 146.8445930 102.3750240 146.0987070
 147.5884880 101.0614360 145.9847430 147.0770640  98.0469630 134.4587470
 146.2455520  97.7918340 134.8583980 147.6851620  98.1180400 135.1945390
 147.0571900 102.0809720 134.6545490 147.3599940 101.1907460 134.4755710
 147.8015490 102.6379940 134.4267740 145.4862590  93.0071520 128.2429860
 144.5979290  93.3487490 128.1409740 145.7703780  92.8071840 127.3510690
 143.4495600  95.6077170 134.1269560 144.0211710  94.8399370 134.1273200
 143.4497140  95.9065930 133.2176170 144.6920470  91.0161530 135.9138490
 144.5123310  90.1187280 136.1941250 144.2900550  91.5633400 136.5885440
 147.6623980  91.5903020 129.2768240 147.7690730  92.4906750 129.5837000
 146.7516340  91.5420990 128.9862890 145.3107140  93.5122030 134.5220830
 145.9917250  93.7760400 135.1408230 144.9955190  92.6722900 134.8558840
 149.5031710  94.5589390 133.6093420 150.0109930  95.0570360 134.2498440
 150.0344950  93.7824590 133.4332780 147.7867810  89.1987950 137.8756840
 147.7886250  89.7160340 137.0702740 146.9572120  88.7218130 137.8526770
 149.0370660  98.8383130 136.0530340 148.7040040  99.4652050 136.6951410
 149.2137340  99.3645010 135.2732010 147.4683140  90.9097910 135.8827290
 147.8099950  91.7539960 135.5881160 146.5298950  91.0581650 135.9992630
 148.2489760 100.8063930 137.8679520 148.8663760 101.4815010 137.5863970
 147.3882880 101.2151910 137.7767020 143.5422100  99.9963790 126.7486370
 143.1650080 100.4850890 126.0171270 143.7995170 100.6689070 127.3792900
 151.1511030  88.3980180 132.2071880 151.4586010  87.8427070 131.4907380
 150.2211730  88.5324640 132.0244870 149.1448430  96.9893750 131.7251730
 148.7405430  96.2771000 131.2297630 149.2311550  96.6446990 132.6139770
 149.6130130 100.6761310 133.8890940 149.3158420 100.0706780 133.2098720
 150.5629950 100.7138620 133.7780300 147.8577050  93.7636960 135.5050770
 148.4091640  93.8732300 134.7304020 148.3720560  94.1374560 136.2206000
 148.7048560 100.4143000 140.5398740 147.8077090 100.6382970 140.7872140
 148.7301430 100.5377940 139.5910140 147.5319780  97.2856320 139.1156110
 147.3927550  98.1579120 139.4843510 146.6501140  96.9429130 138.9704050
 149.3300130 103.2278020 141.3241260 149.3015560 103.6320970 140.4569690
 149.1665100 102.2988380 141.1612860 145.8453060  95.8838730 129.2258380
 145.7250660  96.6100820 128.6139650 145.5353950  95.1141640 128.7486290
 143.4838430  99.0553870 135.0327020 143.5618850  99.1902640 134.0882740
 144.0980110  98.3469760 135.2255140 144.7286060 100.7554060 131.4433200
 144.3214140 100.8968650 130.5886800 145.6199070 100.4714220 131.2404410
 149.0007720 104.9699840 129.5555870 148.8250200 104.0535380 129.3423670
 148.1463460 105.3287130 129.7953670 143.5397950 100.0968040 137.5721480
 143.7028990  99.6273400 136.7540850 144.0050400  99.5891600 138.2370320
 148.3116720  89.2273800 132.6082050 147.8684870  90.0083340 132.2766570
 148.8701710  89.5503690 133.3152990 152.5986530  92.0942320 138.2117370
 152.1365900  92.3025340 139.0237310 152.1964640  91.2801670 137.9088040
 151.4275540  88.8484500 127.4887880 150.8029720  88.8444370 128.2141190
 151.3405660  87.9815460 127.0923850 150.3492620  89.7721130 134.4671650
 150.6464950  90.6783960 134.3863670 150.8978180  89.2839910 133.8531220
 148.1030940  94.3507370 130.3363300 147.8771860  94.1344540 131.2409920
 147.3223470  94.7835830 129.9909270 150.5430150  95.2492950 141.0023570
 150.4473750  94.3087680 140.8523970 151.3862130  95.4708020 140.6071640
 145.6740690  91.6606620 139.1557350 145.2804080  92.5081830 139.3630130
 144.9859090  91.0232990 139.3465990 152.2485740  91.7441590 142.2254090
 151.5584060  91.5513790 142.8600180 152.9918040  92.0276230 142.7578390
 142.9757740  89.5835080 133.1887430 142.6870790  90.1537940 133.9012410
 143.7203500  89.1039530 133.5518660 143.1627970  93.5255200 124.3990150
 143.0802640  94.4685960 124.5405140 142.8111030  93.3830110 123.5202500
 150.9626100  92.2594230 133.4660500 150.9662160  91.8184180 132.6165040
 151.8577220  92.5811560 133.5732320 146.8128480  92.1420720 132.4254710
 146.4728530  92.6195950 133.1821760 146.0505800  91.6885840 132.0655810
 151.0246250  93.2606310 126.4567260 151.1459070  93.2192790 127.4053080
 150.6394760  94.1230460 126.3013990 150.0367750  95.5707450 125.8550560
 149.4684650  95.1225700 125.2286470 150.7456750  95.9300230 125.3215710
 145.1136930  99.4719470 139.7317290 144.7291720  98.8313140 140.3300250
 145.4249120 100.1755590 140.3012020 151.2634070  96.3196010 135.2125910
 151.6304200  95.8454580 135.9587250 151.0739130  97.1937580 135.5534250
 144.1274560  91.0639700 131.3419380 143.8421480  90.6995370 132.1798000
 144.0653420  90.3320160 130.7282520 149.0533440  95.3604650 137.5310120
 148.7490510  96.2396630 137.7560480 150.0079900  95.4204440 137.5667560
 147.5815230  99.5665640 128.1276970 146.8077490  99.0263260 127.9675690
 148.3109860  99.0472250 127.7894730 147.6252630  99.2346020 131.7655780
 148.1431300  98.4314280 131.7112670 147.1736650  99.1725160 132.6072610
 152.5122130 100.5012300 127.0383080 152.8537830 101.2454530 126.5426400
 151.6834840 100.8143420 127.4007910 145.1097170  96.2007390 138.6781480
 144.7512110  96.8661240 139.2654820 144.8151730  95.3690940 139.0494100
 148.3110290  96.6591630 141.5621030 148.0110430  96.8048810 140.6648850
 149.0821530  96.0996920 141.4694420 151.4812820 100.5825830 129.8099000
 152.1683950 101.1295040 130.1906590 150.6945240 101.1266560 129.8448610
 143.6205220  96.1998650 125.3016080 144.4900070  96.4823450 125.5852000
 143.1295540  97.0134520 125.1864890 150.7840030  97.5871860 129.4224360
 151.2402810  98.3977110 129.6484550 150.4328240  97.2695000 130.2542850
 146.6851810  87.9309510 129.8946880 146.5566440  87.9227410 130.8431800
 145.8613830  88.2692600 129.5437890 143.9876470 105.4126030 125.8677710
 144.3474110 106.0115370 125.2134980 143.8468810 105.9585920 126.6412740
 143.6845740  89.6900630 139.3553580 142.9704260  89.8897550 139.9606190
 144.1040780  88.9140200 139.7268380 143.9718330 103.6780890 140.3420110
 144.0809450 102.7375630 140.2015500 143.3198890 103.9435640 139.6933840
 151.9630920 101.9496780 141.7418230 151.6427790 101.2306020 142.2863920
 151.2889280 102.6251850 141.8154290 150.0045090 102.7957230 126.6851380
 149.9955190 103.5286920 126.0695890 149.0843450 102.5488810 126.7778340
 145.6051730  98.0172120 127.4298140 144.9979680  98.7571020 127.4393440
 146.0801080  98.1071480 126.6036340 152.9904690 102.8585470 125.3476570
 153.0916670 102.6549460 124.4178550 152.0906430 102.6043750 125.5524350
 150.5130580  93.4165830 129.3300470 149.8046730  93.8852170 129.7714080
 150.7975060  92.7587840 129.9645660 152.1386510  94.8362530 137.3293000
 152.6371760  95.3108350 137.9944850 152.2809460  93.9126050 137.5363030
 151.6322800 105.3771790 130.0424240 151.8864300 105.3393180 129.1203610
 150.6835280 105.2505120 130.0352490 148.7165600  91.7250910 126.7051180
 149.5656130  92.1621060 126.6391370 148.3496870  92.0371170 127.5323240
 147.6157020  97.9783270 125.1786710 148.3820290  97.8664630 125.7412140
 147.6931710  97.2821240 124.5263480 146.3103780  95.4108340 125.8619600
 146.3907370  94.4635850 125.9737000 147.2023530  95.7415220 125.9680260
 147.1118490 105.5603730 132.9654140 147.8480970 105.0119190 133.2362710
 147.4959410 106.4259740 132.8260130 143.9963970 101.6277300 128.8395650
 143.0703750 101.8698440 128.8301060 144.4620400 102.4551560 128.7180400
 146.1176770 104.7449800 142.1539720 146.9189500 105.0661850 142.5675120
 145.6028590 104.3845380 142.8759630 150.2220800 104.7334040 124.7879710
 151.0149410 105.0222870 124.3361500 149.7025150 104.3026210 124.1092190
 143.8374580  97.2323260 141.0975770 144.3413600  96.6530540 141.6692000
 143.0982000  97.5163490 141.6352140 150.7398200  99.9537450 124.6522060
 150.6348840  99.3389800 125.3783440 150.5722420  99.4303340 123.8685070
 150.8912520  98.6394250 140.6311290 150.1258190  99.2079250 140.5465960
 151.0728480  98.3470460 139.7379520 145.8697660  95.3752850 141.9925840
 145.9103000  95.0766720 142.9011070 146.7243160  95.7760460 141.8333360
 149.6476050  97.9748400 127.1529350 150.0692470  97.8088270 127.9960740
 149.7726890  97.1648630 126.6584490 147.8103470  93.9544950 139.9600330
 147.2799930  93.4635900 139.3323670 148.4791540  94.3829150 139.4258260
 152.1603690  96.9986010 124.4006450 152.6809350  96.2835030 124.0347600
 152.8072090  97.6371880 124.7006960 148.2975770  90.9207320 140.0397620
 148.2032640  90.3028070 139.3148490 147.7173160  91.6473610 139.8127530
 151.0637210  89.4780560 137.0725010 150.6154510  89.5004820 136.2270560
 150.4302410  89.0799580 137.6695310 151.4696760  98.3734890 137.6937450
 151.8884870  99.2167620 137.5213690 150.5505390  98.5106930 137.4644230
 148.5434950  94.0481630 124.0987510 148.3424010  93.1848990 124.4600850
 148.3727000  93.9614990 123.1609110 149.3204180 104.6787900 138.8095180
 148.7825270 105.4033960 138.4903880 149.5738140 104.2018240 138.0192520
 150.5729430  92.6472420 140.3351110 151.1629120  92.3388270 141.0228930
 149.7549670  92.1752170 140.4911010 147.3417750  91.1482250 124.0865390
 147.6443650  91.1549680 123.1784540 148.0812340  90.7980110 124.5833050
 152.1766390 105.9139110 139.0681830 152.1025090 106.8174250 139.3754200
 151.2745230 105.5951010 139.0403900 150.5602680  90.0916870 125.0721590
 150.2124680  89.4140860 124.4924040 150.7615450  89.6306380 125.8864980
 146.3647880 100.4524670 124.9195190 146.8022750 100.9954340 125.5752770
 146.8495610  99.6271620 124.9291530 143.5793680 103.2413700 132.3715450
 143.9096690 102.3734760 132.1394090 144.0084680 103.4472220 133.2020410
 148.1755600 101.5722710 130.0317420 147.8751140 101.4487680 130.9321330
 148.0693090 100.7131300 129.6233150 144.0683890 104.1084290 135.1097080
 143.6314880 104.2885090 135.9421230 144.6361570 104.8658910 134.9678800
 143.9008320  96.6204520 131.4685960 143.2457160  96.3516160 130.8245660
 144.7386270  96.5109000 131.0187940 144.9384250  97.0057090 136.0089300
 145.3057290  96.9184490 136.8885320 144.3695070  96.2423640 135.9096160
 144.4900250  93.9166180 139.9147720 143.5956300  93.8832940 140.2541430
 145.0297800  94.1152970 140.6798970 143.1146400  93.8303450 127.4111290
 142.2110480  94.0933650 127.2362950 143.5987020  94.1014620 126.6311250
 145.6573610  92.8868990 125.3205670 146.3665310  92.4652210 124.8352950
 144.9413550  92.9544220 124.6889020 145.3047770  88.9408320 124.3608320
 146.0275900  89.4817260 124.6789540 145.5772290  88.6671740 123.4849860
 144.9939960  88.1914510 134.2630940 145.6416150  87.6411890 133.8226100
 145.4141800  88.4457660 135.0846750 144.7471960  88.3470180 137.0056260
 144.3986780  88.8034000 137.7714440 144.4159660  87.4527310 137.0878690
 146.3536330 101.5189780 141.1709450 146.3105960 101.1482690 142.0523910
 146.4847340 102.4567350 141.3111270 150.0542360 103.0749370 136.7719170
 149.8133720 103.3423930 135.8849690 150.9945000 103.2455100 136.8270030
 145.4192600  87.8746380 140.2807030 145.9675590  87.6934430 139.5173140
 145.4847910  87.0840490 140.8163340 146.1924360 104.4652030 138.2907230
 145.5984680 104.3336730 139.0297270 146.1848200 103.6290170 137.8249330
 145.8236590 101.8310410 137.2415270 145.0970650 101.2115700 137.1741220
 145.8845740 102.2251020 136.3713350 149.4281690 104.0455410 134.0264680
 149.9446710 103.4342770 133.5012940 150.0779070 104.5484190 134.5175690
 152.1677190 104.9363900 134.8533660 152.4555000 104.6818200 133.9766670
 152.6800410 104.3841260 135.4439230 144.1066590 105.1484800 130.4512030
 143.9388630 104.5155480 131.1493920 143.2401100 105.3544200 130.1006220
 144.7294610  88.9801580 127.9543890 145.4873970  89.0930460 127.3807920
 144.2671780  89.8170780 127.9087320 151.2708420  91.0940850 130.9446200
 150.4582930  90.7197740 130.6042080 151.7750060  90.3385930 131.2467390
 145.7129290 103.8418030 127.8962170 145.1876910 104.2226060 127.1924130
 145.6373870 104.4668800 128.6171880 147.1019760  89.5065630 126.4945860
 147.6312520  88.7195430 126.3653810 147.7348080  90.1856820 126.7281390
 149.2957600  89.2440770 129.5491250 148.6660340  88.5428080 129.7161380
 148.7562740  90.0044900 129.3324410 149.4213160  88.5224750 141.9843740
 149.1397430  89.0258350 141.2204560 149.8032860  87.7246500 141.6185870
 148.3122260 105.7900410 126.7711420 149.0441080 105.5059690 126.2235310
 148.5715930 105.5513690 127.6610800 147.4737050 101.9065140 126.7757750
 146.8445930 102.3750240 127.3243580 147.5884880 101.0614360 127.2103940
 147.0770640  98.0469630 115.6843980 146.2455520  97.7918340 116.0840490
 147.6851620  98.1180400 116.4201900 147.0571900 102.0809720 115.8802000
 147.3599940 101.1907460 115.7012220 147.8015490 102.6379940 115.6524250
 145.4862590  93.0071520 109.4686370 144.5979290  93.3487490 109.3666250
 145.7703780  92.8071840 108.5767200 143.4495600  95.6077170 115.3526070
 144.0211710  94.8399370 115.3529710 143.4497140  95.9065930 114.4432680
 144.6920470  91.0161530 117.1395000 144.5123310  90.1187280 117.4197760
 144.2900550  91.5633400 117.8141950 147.6623980  91.5903020 110.5024750
 147.7690730  92.4906750 110.8093510 146.7516340  91.5420990 110.2119400
 145.3107140  93.5122030 115.7477340 145.9917250  93.7760400 116.3664740
 144.9955190  92.6722900 116.0815350 149.5031710  94.5589390 114.8349930
 150.0109930  95.0570360 115.4754950 150.0344950  93.7824590 114.6589290
 147.7867810  89.1987950 119.1013350 147.7886250  89.7160340 118.2959250
 146.9572120  88.7218130 119.0783280 149.0370660  98.8383130 117.2786850
 148.7040040  99.4652050 117.9207920 149.2137340  99.3645010 116.4988520
 147.4683140  90.9097910 117.1083800 147.8099950  91.7539960 116.8137670
 146.5298950  91.0581650 117.2249140 148.2489760 100.8063930 119.0936030
 148.8663760 101.4815010 118.8120480 147.3882880 101.2151910 119.0023530
 143.5422100  99.9963790 107.9742880 143.1650080 100.4850890 107.2427780
 143.7995170 100.6689070 108.6049410 151.1511030  88.3980180 113.4328390
 151.4586010  87.8427070 112.7163890 150.2211730  88.5324640 113.2501380
 149.1448430  96.9893750 112.9508240 148.7405430  96.2771000 112.4554140
 149.2311550  96.6446990 113.8396280 149.6130130 100.6761310 115.1147450
 149.3158420 100.0706780 114.4355230 150.5629950 100.7138620 115.0036810
 147.8577050  93.7636960 116.7307280 148.4091640  93.8732300 115.9560530
 148.3720560  94.1374560 117.4462510 148.7048560 100.4143000 121.7655250
 147.8077090 100.6382970 122.0128650 148.7301430 100.5377940 120.8166650
 147.5319780  97.2856320 120.3412620 147.3927550  98.1579120 120.7100020
 146.6501140  96.9429130 120.1960560 149.3300130 103.2278020 122.5497770
 149.3015560 103.6320970 121.6826200 149.1665100 102.2988380 122.3869370
 145.8453060  95.8838730 110.4514890 145.7250660  96.6100820 109.8396160
 145.5353950  95.1141640 109.9742800 143.4838430  99.0553870 116.2583530
 143.5618850  99.1902640 115.3139250 144.0980110  98.3469760 116.4511650
 144.7286060 100.7554060 112.6689710 144.3214140 100.8968650 111.8143310
 145.6199070 100.4714220 112.4660920 149.0007720 104.9699840 110.7812380
 148.8250200 104.0535380 110.5680180 148.1463460 105.3287130 111.0210180
 143.5397950 100.0968040 118.7977990 143.7028990  99.6273400 117.9797360
 144.0050400  99.5891600 119.4626830 148.3116720  89.2273800 113.8338560
 147.8684870  90.0083340 113.5023080 148.8701710  89.5503690 114.5409500
 152.5986530  92.0942320 119.4373880 152.1365900  92.3025340 120.2493820
 152.1964640  91.2801670 119.1344550 151.4275540  88.8484500 108.7144390
 150.8029720  88.8444370 109.4397700 151.3405660  87.9815460 108.3180360
 150.3492620  89.7721130 115.6928160 150.6464950  90.6783960 115.6120180
 150.8978180  89.2839910 115.0787730 148.1030940  94.3507370 111.5619810
 147.8771860  94.1344540 112.4666430 147.3223470  94.7835830 111.2165780
 150.5430150  95.2492950 122.2280080 150.4473750  94.3087680 122.0780480
 151.3862130  95.4708020 121.8328150 145.6740690  91.6606620 120.3813860
 145.2804080  92.5081830 120.5886640 144.9859090  91.0232990 120.5722500
 152.2485740  91.7441590 123.4510600 151.5584060  91.5513790 124.0856690
 152.9918040  92.0276230 123.9834900 142.9757740  89.5835080 114.4143940
 142.6870790  90.1537940 115.1268920 143.7203500  89.1039530 114.7775170
 143.1627970  93.5255200 105.6246660 143.0802640  94.4685960 105.7661650
 142.8111030  93.3830110 104.7459010 150.9626100  92.2594230 114.6917010
 150.9662160  91.8184180 113.8421550 151.8577220  92.5811560 114.7988830
 146.8128480  92.1420720 113.6511220 146.4728530  92.6195950 114.4078270
 146.0505800  91.6885840 113.2912320 151.0246250  93.2606310 107.6823770
 151.1459070  93.2192790 108.6309590 150.6394760  94.1230460 107.5270500
 150.0367750  95.5707450 107.0807070 149.4684650  95.1225700 106.4542980
 150.7456750  95.9300230 106.5472220 145.1136930  99.4719470 120.9573800
 144.7291720  98.8313140 121.5556760 145.4249120 100.1755590 121.5268530
 151.2634070  96.3196010 116.4382420 151.6304200  95.8454580 117.1843760
 151.0739130  97.1937580 116.7790760 144.1274560  91.0639700 112.5675890
 143.8421480  90.6995370 113.4054510 144.0653420  90.3320160 111.9539030
 149.0533440  95.3604650 118.7566630 148.7490510  96.2396630 118.9816990
 150.0079900  95.4204440 118.7924070 147.5815230  99.5665640 109.3533480
 146.8077490  99.0263260 109.1932200 148.3109860  99.0472250 109.0151240
 147.6252630  99.2346020 112.9912290 148.1431300  98.4314280 112.9369180
 147.1736650  99.1725160 113.8329120 152.5122130 100.5012300 108.2639590
 152.8537830 101.2454530 107.7682910 151.6834840 100.8143420 108.6264420
 145.1097170  96.2007390 119.9037990 144.7512110  96.8661240 120.4911330
 144.8151730  95.3690940 120.2750610 148.3110290  96.6591630 122.7877540
 148.0110430  96.8048810 121.8905360 149.0821530  96.0996920 122.6950930
 151.4812820 100.5825830 111.0355510 152.1683950 101.1295040 111.4163100
 150.6945240 101.1266560 111.0705120 143.6205220  96.1998650 106.5272590
 144.4900070  96.4823450 106.8108510 143.1295540  97.0134520 106.4121400
 150.7840030  97.5871860 110.6480870 151.2402810  98.3977110 110.8741060
 150.4328240  97.2695000 111.4799360 146.6851810  87.9309510 111.1203390
 146.5566440  87.9227410 112.0688310 145.8613830  88.2692600 110.7694400
 143.9876470 105.4126030 107.0934220 144.3474110 106.0115370 106.4391490
 143.8468810 105.9585920 107.8669250 143.6845740  89.6900630 120.5810090
 142.9704260  89.8897550 121.1862700 144.1040780  88.9140200 120.9524890
 143.9718330 103.6780890 121.5676620 144.0809450 102.7375630 121.4272010
 143.3198890 103.9435640 120.9190350 151.9630920 101.9496780 122.9674740
 151.6427790 101.2306020 123.5120430 151.2889280 102.6251850 123.0410800
 150.0045090 102.7957230 107.9107890 149.9955190 103.5286920 107.2952400
 149.0843450 102.5488810 108.0034850 145.6051730  98.0172120 108.6554650
 144.9979680  98.7571020 108.6649950 146.0801080  98.1071480 107.8292850
 152.9904690 102.8585470 106.5733080 153.0916670 102.6549460 105.6435060
 152.0906430 102.6043750 106.7780860 150.5130580  93.4165830 110.5556980
 149.8046730  93.8852170 110.9970590 150.7975060  92.7587840 111.1902170
 152.1386510  94.8362530 118.5549510 152.6371760  95.3108350 119.2201360
 152.2809460  93.9126050 118.7619540 151.6322800 105.3771790 111.2680750
 151.8864300 105.3393180 110.3460120 150.6835280 105.2505120 111.2609000
 148.7165600  91.7250910 107.9307690 149.5656130  92.1621060 107.8647880
 148.3496870  92.0371170 108.7579750 147.6157020  97.9783270 106.4043220
 148.3820290  97.8664630 106.9668650 147.6931710  97.2821240 105.7519990
 146.3103780  95.4108340 107.0876110 146.3907370  94.4635850 107.1993510
 147.2023530  95.7415220 107.1936770 147.1118490 105.5603730 114.1910650
 147.8480970 105.0119190 114.4619220 147.4959410 106.4259740 114.0516640
 143.9963970 101.6277300 110.0652160 143.0703750 101.8698440 110.0557570
 144.4620400 102.4551560 109.9436910 146.1176770 104.7449800 123.3796230
 146.9189500 105.0661850 123.7931630 145.6028590 104.3845380 124.1016140
 150.2220800 104.7334040 106.0136220 151.0149410 105.0222870 105.5618010
 149.7025150 104.3026210 105.3348700 143.8374580  97.2323260 122.3232280
 144.3413600  96.6530540 122.8948510 143.0982000  97.5163490 122.8608650
 150.7398200  99.9537450 105.8778570 150.6348840  99.3389800 106.6039950
 150.5722420  99.4303340 105.0941580 150.8912520  98.6394250 121.8567800
 150.1258190  99.2079250 121.7722470 151.0728480  98.3470460 120.9636030
 145.8697660  95.3752850 123.2182350 145.9103000  95.0766720 124.1267580
 146.7243160  95.7760460 123.0589870 149.6476050  97.9748400 108.3785860
 150.0692470  97.8088270 109.2217250 149.7726890  97.1648630 107.8841000
 147.8103470  93.9544950 121.1856840 147.2799930  93.4635900 120.5580180
 148.4791540  94.3829150 120.6514770 152.1603690  96.9986010 105.6262960
 152.6809350  96.2835030 105.2604110 152.8072090  97.6371880 105.9263470
 148.2975770  90.9207320 121.2654130 148.2032640  90.3028070 120.5405000
 147.7173160  91.6473610 121.0384040 151.0637210  89.4780560 118.2981520
 150.6154510  89.5004820 117.4527070 150.4302410  89.0799580 118.8951820
 151.4696760  98.3734890 118.9193960 151.8884870  99.2167620 118.7470200
 150.5505390  98.5106930 118.6900740 148.5434950  94.0481630 105.3244020
 148.3424010  93.1848990 105.6857360 148.3727000  93.9614990 104.3865620
 149.3204180 104.6787900 120.0351690 148.7825270 105.4033960 119.7160390
 149.5738140 104.2018240 119.2449030 150.5729430  92.6472420 121.5607620
 151.1629120  92.3388270 122.2485440 149.7549670  92.1752170 121.7167520
 147.3417750  91.1482250 105.3121900 147.6443650  91.1549680 104.4041050
 148.0812340  90.7980110 105.8089560 152.1766390 105.9139110 120.2938340
 152.1025090 106.8174250 120.6010710 151.2745230 105.5951010 120.2660410
 150.5602680  90.0916870 106.2978100 150.2124680  89.4140860 105.7180550
 150.7615450  89.6306380 107.1121490 146.3647880 100.4524670 106.1451700
 146.8022750 100.9954340 106.8009280 146.8495610  99.6271620 106.1548040
 143.5793680 103.2413700 113.5971960 143.9096690 102.3734760 113.3650600
 144.0084680 103.4472220 114.4276920 148.1755600 101.5722710 111.2573930
 147.8751140 101.4487680 112.1577840 148.0693090 100.7131300 110.8489660
 144.0683890 104.1084290 116.3353590 143.6314880 104.2885090 117.1677740
 144.6361570 104.8658910 116.1935310 143.9008320  96.6204520 112.6942470
 143.2457160  96.3516160 112.0502170 144.7386270  96.5109000 112.2444450
 144.9384250  97.0057090 117.2345810 145.3057290  96.9184490 118.1141830
 144.3695070  96.2423640 117.1352670 144.4900250  93.9166180 121.1404230
 143.5956300  93.8832940 121.4797940 145.0297800  94.1152970 121.9055480
 143.1146400  93.8303450 108.6367800 142.2110480  94.0933650 108.4619460
 143.5987020  94.1014620 107.8567760 145.6573610  92.8868990 106.5462180
 146.3665310  92.4652210 106.0609460 144.9413550  92.9544220 105.9145530
 145.3047770  88.9408320 105.5864830 146.0275900  89.4817260 105.9046050
 145.5772290  88.6671740 104.7106370 144.9939960  88.1914510 115.4887450
 145.6416150  87.6411890 115.0482610 145.4141800  88.4457660 116.3103260
 144.7471960  88.3470180 118.2312770 144.3986780  88.8034000 118.9970950
 144.4159660  87.4527310 118.3135200 146.3536330 101.5189780 122.3965960
 146.3105960 101.1482690 123.2780420 146.4847340 102.4567350 122.5367780
 150.0542360 103.0749370 117.9975680 149.8133720 103.3423930 117.1106200
 150.9945000 103.2455100 118.0526540 145.4192600  87.8746380 121.5063540
 145.9675590  87.6934430 120.7429650 145.4847910  87.0840490 122.0419850
 146.1924360 104.4652030 119.5163740 145.5984680 104.3336730 120.2553780
 146.1848200 103.6290170 119.0505840 145.8236590 101.8310410 118.4671780
 145.0970650 101.2115700 118.3997730 145.8845740 102.2251020 117.5969860
 149.4281690 104.0455410 115.2521190 149.9446710 103.4342770 114.7269450
 150.0779070 104.5484190 115.7432200 152.1677190 104.9363900 116.0790170
 152.4555000 104.6818200 115.2023180 152.6800410 104.3841260 116.6695740
 144.1066590 105.1484800 111.6768540 143.9388630 104.5155480 112.3750430
 143.2401100 105.3544200 111.3262730 144.7294610  88.9801580 109.1800400
 145.4873970  89.0930460 108.6064430 144.2671780  89.8170780 109.1343830
 151.2708420  91.0940850 112.1702710 150.4582930  90.7197740 111.8298590
 151.7750060  90.3385930 112.4723900 145.7129290 103.8418030 109.1218680
 145.1876910 104.2226060 108.4180640 145.6373870 104.4668800 109.8428390
 147.1019760  89.5065630 107.7202370 147.6312520  88.7195430 107.5910320
 147.7348080  90.1856820 107.9537900 149.2957600  89.2440770 110.7747760
 148.6660340  88.5428080 110.9417890 148.7562740  90.0044900 110.5580920
 149.4213160  88.5224750 123.2100250 149.1397430  89.0258350 122.4461070
 149.8032860  87.7246500 122.8442380 148.3122260 105.7900410 107.9967930
 149.0441080 105.5059690 107.4491820 148.5715930 105.5513690 108.8867310
 147.4737050 101.9065140 108.0014260 146.8445930 102.3750240 108.5500090
 147.5884880 101.0614360 108.4360450 147.0770640  98.0469630  96.9100490
 146.2455520  97.7918340  97.3097000 147.6851620  98.1180400  97.6458410
 147.0571900 102.0809720  97.1058510 147.3599940 101.1907460  96.9268730
 147.8015490 102.6379940  96.8780760 145.4862590  93.0071520  90.6942880
 144.5979290  93.3487490  90.5922760 145.7703780  92.8071840  89.8023710
 143.4495600  95.6077170  96.5782580 144.0211710  94.8399370  96.5786220
 143.4497140  95.9065930  95.6689190 144.6920470  91.0161530  98.3651510
 144.5123310  90.1187280  98.6454270 144.2900550  91.5633400  99.0398460
 147.6623980  91.5903020  91.7281260 147.7690730  92.4906750  92.0350020
 146.7516340  91.5420990  91.4375910 145.3107140  93.5122030  96.9733850
 145.9917250  93.7760400  97.5921250 144.9955190  92.6722900  97.3071860
 149.5031710  94.5589390  96.0606440 150.0109930  95.0570360  96.7011460
 150.0344950  93.7824590  95.8845800 147.7867810  89.1987950 100.3269860
 147.7886250  89.7160340  99.5215760 146.9572120  88.7218130 100.3039790
 149.0370660  98.8383130  98.5043360 148.7040040  99.4652050  99.1464430
 149.2137340  99.3645010  97.7245030 147.4683140  90.9097910  98.3340310
 147.8099950  91.7539960  98.0394180 146.5298950  91.0581650  98.4505650
 148.2489760 100.8063930 100.3192540 148.8663760 101.4815010 100.0376990
 147.3882880 101.2151910 100.2280040 143.5422100  99.9963790  89.1999390
 143.1650080 100.4850890  88.4684290 143.7995170 100.6689070  89.8305920
 151.1511030  88.3980180  94.6584900 151.4586010  87.8427070  93.9420400
 150.2211730  88.5324640  94.4757890 149.1448430  96.9893750  94.1764750
 148.7405430  96.2771000  93.6810650 149.2311550  96.6446990  95.0652790
 149.6130130 100.6761310  96.3403960 149.3158420 100.0706780  95.6611740
 150.5629950 100.7138620  96.2293320 147.8577050  93.7636960  97.9563790
 148.4091640  93.8732300  97.1817040 148.3720560  94.1374560  98.6719020
 148.7048560 100.4143000 102.9911760 147.8077090 100.6382970 103.2385160
 148.7301430 100.5377940 102.0423160 147.5319780  97.2856320 101.5669130
 147.3927550  98.1579120 101.9356530 146.6501140  96.9429130 101.4217070
 149.3300130 103.2278020 103.7754280 149.3015560 103.6320970 102.9082710
 149.1665100 102.2988380 103.6125880 145.8453060  95.8838730  91.6771400
 145.7250660  96.6100820  91.0652670 145.5353950  95.1141640  91.1999310
 143.4838430  99.0553870  97.4840040 143.5618850  99.1902640  96.5395760
 144.0980110  98.3469760  97.6768160 144.7286060 100.7554060  93.8946220
 144.3214140 100.8968650  93.0399820 145.6199070 100.4714220  93.6917430
 149.0007720 104.9699840  92.0068890 148.8250200 104.0535380  91.7936690
 148.1463460 105.3287130  92.2466690 143.5397950 100.0968040 100.0234500
 143.7028990  99.6273400  99.2053870 144.0050400  99.5891600 100.6883340
 148.3116720  89.2273800  95.0595070 147.8684870  90.0083340  94.7279590
 148.8701710  89.5503690  95.7666010 152.5986530  92.0942320 100.6630390
 152.1365900  92.3025340 101.4750330 152.1964640  91.2801670 100.3601060
 151.4275540  88.8484500  89.9400900 150.8029720  88.8444370  90.6654210
 151.3405660  87.9815460  89.5436870 150.3492620  89.7721130  96.9184670
 150.6464950  90.6783960  96.8376690 150.8978180  89.2839910  96.3044240
 148.1030940  94.3507370  92.7876320 147.8771860  94.1344540  93.6922940
 147.3223470  94.7835830  92.4422290 150.5430150  95.2492950 103.4536590
 150.4473750  94.3087680 103.3036990 151.3862130  95.4708020 103.0584660
 145.6740690  91.6606620 101.6070370 145.2804080  92.5081830 101.8143150
 144.9859090  91.0232990 101.7979010 152.2485740  91.7441590 104.6767110
 151.5584060  91.5513790 105.3113200 152.9918040  92.0276230 105.2091410
 142.9757740  89.5835080  95.6400450 142.6870790  90.1537940  96.3525430
 143.7203500  89.1039530  96.0031680 143.1627970  93.5255200  86.8503170
 143.0802640  94.4685960  86.9918160 142.8111030  93.3830110  85.9715520
 150.9626100  92.2594230  95.9173520 150.9662160  91.8184180  95.0678060
 151.8577220  92.5811560  96.0245340 146.8128480  92.1420720  94.8767730
 146.4728530  92.6195950  95.6334780 146.0505800  91.6885840  94.5168830
 151.0246250  93.2606310  88.9080280 151.1459070  93.2192790  89.8566100
 150.6394760  94.1230460  88.7527010 150.0367750  95.5707450  88.3063580
 149.4684650  95.1225700  87.6799490 150.7456750  95.9300230  87.7728730
 145.1136930  99.4719470 102.1830310 144.7291720  98.8313140 102.7813270
 145.4249120 100.1755590 102.7525040 151.2634070  96.3196010  97.6638930
 151.6304200  95.8454580  98.4100270 151.0739130  97.1937580  98.0047270
 144.1274560  91.0639700  93.7932400 143.8421480  90.6995370  94.6311020
 144.0653420  90.3320160  93.1795540 149.0533440  95.3604650  99.9823140
 148.7490510  96.2396630 100.2073500 150.0079900  95.4204440 100.0180580
 147.5815230  99.5665640  90.5789990 146.8077490  99.0263260  90.4188710
 148.3109860  99.0472250  90.2407750 147.6252630  99.2346020  94.2168800
 148.1431300  98.4314280  94.1625690 147.1736650  99.1725160  95.0585630
 152.5122130 100.5012300  89.4896100 152.8537830 101.2454530  88.9939420
 151.6834840 100.8143420  89.8520930 145.1097170  96.2007390 101.1294500
 144.7512110  96.8661240 101.7167840 144.8151730  95.3690940 101.5007120
 148.3110290  96.6591630 104.0134050 148.0110430  96.8048810 103.1161870
 149.0821530  96.0996920 103.9207440 151.4812820 100.5825830  92.2612020
 152.1683950 101.1295040  92.6419610 150.6945240 101.1266560  92.2961630
 143.6205220  96.1998650  87.7529100 144.4900070  96.4823450  88.0365020
 143.1295540  97.0134520  87.6377910 150.7840030  97.5871860  91.8737380
 151.2402810  98.3977110  92.0997570 150.4328240  97.2695000  92.7055870
 146.6851810  87.9309510  92.3459900 146.5566440  87.9227410  93.2944820
 145.8613830  88.2692600  91.9950910 143.9876470 105.4126030  88.3190730
 144.3474110 106.0115370  87.6648000 143.8468810 105.9585920  89.0925760
 143.6845740  89.6900630 101.8066600 142.9704260  89.8897550 102.4119210
 144.1040780  88.9140200 102.1781400 143.9718330 103.6780890 102.7933130
 144.0809450 102.7375630 102.6528520 143.3198890 103.9435640 102.1446860
 151.9630920 101.9496780 104.1931250 151.6427790 101.2306020 104.7376940
 151.2889280 102.6251850 104.2667310 150.0045090 102.7957230  89.1364400
 149.9955190 103.5286920  88.5208910 149.0843450 102.5488810  89.2291360
 145.6051730  98.0172120  89.8811160 144.9979680  98.7571020  89.8906460
 146.0801080  98.1071480  89.0549360 152.9904690 102.8585470  87.7989590
 153.0916670 102.6549460  86.8691570 152.0906430 102.6043750  88.0037370
 150.5130580  93.4165830  91.7813490 149.8046730  93.8852170  92.2227100
 150.7975060  92.7587840  92.4158680 152.1386510  94.8362530  99.7806020
 152.6371760  95.3108350 100.4457870 152.2809460  93.9126050  99.9876050
 151.6322800 105.3771790  92.4937260 151.8864300 105.3393180  91.5716630
 150.6835280 105.2505120  92.4865510 148.7165600  91.7250910  89.1564200
 149.5656130  92.1621060  89.0904390 148.3496870  92.0371170  89.9836260
 147.6157020  97.9783270  87.6299730 148.3820290  97.8664630  88.1925160
 147.6931710  97.2821240  86.9776500 146.3103780  95.4108340  88.3132620
 146.3907370  94.4635850  88.4250020 147.2023530  95.7415220  88.4193280
 147.1118490 105.5603730  95.4167160 147.8480970 105.0119190  95.6875730
 147.4959410 106.4259740  95.2773150 143.9963970 101.6277300  91.2908670
 143.0703750 101.8698440  91.2814080 144.4620400 102.4551560  91.1693420
 146.1176770 104.7449800 104.6052740 146.9189500 105.0661850 105.0188140
 145.6028590 104.3845380 105.3272650 150.2220800 104.7334040  87.2392730
 151.0149410 105.0222870  86.7874520 149.7025150 104.3026210  86.5605210
 143.8374580  97.2323260 103.5488790 144.3413600  96.6530540 104.1205020
 143.0982000  97.5163490 104.0865160 150.7398200  99.9537450  87.1035080
 150.6348840  99.3389800  87.8296460 150.5722420  99.4303340  86.3198090
 150.8912520  98.6394250 103.0824310 150.1258190  99.2079250 102.9978980
 151.0728480  98.3470460 102.1892540 145.8697660  95.3752850 104.4438860
 145.9103000  95.0766720 105.3524090 146.7243160  95.7760460 104.2846380
 149.6476050  97.9748400  89.6042370 150.0692470  97.8088270  90.4473760
 149.7726890  97.1648630  89.1097510 147.8103470  93.9544950 102.4113350
 147.2799930  93.4635900 101.7836690 148.4791540  94.3829150 101.8771280
 152.1603690  96.9986010  86.8519470 152.6809350  96.2835030  86.4860620
 152.8072090  97.6371880  87.1519980 148.2975770  90.9207320 102.4910640
 148.2032640  90.3028070 101.7661510 147.7173160  91.6473610 102.2640550
 151.0637210  89.4780560  99.5238030 150.6154510  89.5004820  98.6783580
 150.4302410  89.0799580 100.1208330 151.4696760  98.3734890 100.1450470
 151.8884870  99.2167620  99.9726710 150.5505390  98.5106930  99.9157250
 148.5434950  94.0481630  86.5500530 148.3424010  93.1848990  86.9113870
 148.3727000  93.9614990  85.6122130 149.3204180 104.6787900 101.2608200
 148.7825270 105.4033960 100.9416900 149.5738140 104.2018240 100.4705540
 150.5729430  92.6472420 102.7864130 151.1629120  92.3388270 103.4741950
 149.7549670  92.1752170 102.9424030 147.3417750  91.1482250  86.5378410
 147.6443650  91.1549680  85.6297560 148.0812340  90.7980110  87.0346070
 152.1766390 105.9139110 101.5194850 152.1025090 106.8174250 101.8267220
 151.2745230 105.5951010 101.4916920 150.5602680  90.0916870  87.5234610
 150.2124680  89.4140860  86.9437060 150.7615450  89.6306380  88.3378000
 146.3647880 100.4524670  87.3708210 146.8022750 100.9954340  88.0265790
 146.8495610  99.6271620  87.3804550 143.5793680 103.2413700  94.8228470
 143.9096690 102.3734760  94.5907110 144.0084680 103.4472220  95.6533430
 148.1755600 101.5722710  92.4830440 147.8751140 101.4487680  93.3834350
 148.0693090 100.7131300  92.0746170 144.0683890 104.1084290  97.5610100
 143.6314880 104.2885090  98.3934250 144.6361570 104.8658910  97.4191820
 143.9008320  96.6204520  93.9198980 143.2457160  96.3516160  93.2758680
 144.7386270  96.5109000  93.4700960 144.9384250  97.0057090  98.4602320
 145.3057290  96.9184490  99.3398340 144.3695070  96.2423640  98.3609180
 144.4900250  93.9166180 102.3660740 143.5956300  93.8832940 102.7054450
 145.0297800  94.1152970 103.1311990 143.1146400  93.8303450  89.8624310
 142.2110480  94.0933650  89.6875970 143.5987020  94.1014620  89.0824270
 145.6573610  92.8868990  87.7718690 146.3665310  92.4652210  87.2865970
 144.9413550  92.9544220  87.1402040 145.3047770  88.9408320  86.8121340
 146.0275900  89.4817260  87.1302560 145.5772290  88.6671740  85.9362880
 144.9939960  88.1914510  96.7143960 145.6416150  87.6411890  96.2739120
 145.4141800  88.4457660  97.5359770 144.7471960  88.3470180  99.4569280
 144.3986780  88.8034000 100.2227460 144.4159660  87.4527310  99.5391710
 146.3536330 101.5189780 103.6222470 146.3105960 101.1482690 104.5036930
 146.4847340 102.4567350 103.7624290 150.0542360 103.0749370  99.2232190
 149.8133720 103.3423930  98.3362710 150.9945000 103.2455100  99.2783050
 145.4192600  87.8746380 102.7320050 145.9675590  87.6934430 101.9686160
 145.4847910  87.0840490 103.2676360 146.1924360 104.4652030 100.7420250
 145.5984680 104.3336730 101.4810290 146.1848200 103.6290170 100.2762350
 145.8236590 101.8310410  99.6928290 145.0970650 101.2115700  99.6254240
 145.8845740 102.2251020  98.8226370 149.4281690 104.0455410  96.4777700
 149.9446710 103.4342770  95.9525960 150.0779070 104.5484190  96.9688710
 152.1677190 104.9363900  97.3046680 152.4555000 104.6818200  96.4279690
 152.6800410 104.3841260  97.8952250 144.1066590 105.1484800  92.9025050
 143.9388630 104.5155480  93.6006940 143.2401100 105.3544200  92.5519240
 144.7294610  88.9801580  90.4056910 145.4873970  89.0930460  89.8320940
 144.2671780  89.8170780  90.3600340 151.2708420  91.0940850  93.3959220
 150.4582930  90.7197740  93.0555100 151.7750060  90.3385930  93.6980410
 145.7129290 103.8418030  90.3475190 145.1876910 104.2226060  89.6437150
 145.6373870 104.4668800  91.0684900 147.1019760  89.5065630  88.9458880
 147.6312520  88.7195430  88.8166830 147.7348080  90.1856820  89.1794410
 149.2957600  89.2440770  92.0004270 148.6660340  88.5428080  92.1674400
 148.7562740  90.0044900  91.7837430 149.4213160  88.5224750 104.4356760
 149.1397430  89.0258350 103.6717580 149.8032860  87.7246500 104.0698890
 148.3122260 105.7900410  89.2224440 149.0441080 105.5059690  88.6748330
 148.5715930 105.5513690  90.1123820 147.4737050 101.9065140  89.2270770
 146.8445930 102.3750240  89.7756600 147.5884880 101.0614360  89.6616960
 147.0770640  98.0469630  78.1357000 146.2455520  97.7918340  78.5353510
 147.6851620  98.1180400  78.8714920 147.0571900 102.0809720  78.3315020
 147.3599940 101.1907460  78.1525240 147.8015490 102.6379940  78.1037270
 145.4862590  93.0071520  71.9199390 144.5979290  93.3487490  71.8179270
 145.7703780  92.8071840  71.0280220 143.4495600  95.6077170  77.8039090
 144.0211710  94.8399370  77.8042730 143.4497140  95.9065930  76.8945700
 144.6920470  91.0161530  79.5908020 144.5123310  90.1187280  79.8710780
 144.2900550  91.5633400  80.2654970 147.6623980  91.5903020  72.9537770
 147.7690730  92.4906750  73.2606530 146.7516340  91.5420990  72.6632420
 145.3107140  93.5122030  78.1990360 145.9917250  93.7760400  78.8177760
 144.9955190  92.6722900  78.5328370 149.5031710  94.5589390  77.2862950
 150.0109930  95.0570360  77.9267970 150.0344950  93.7824590  77.1102310
 147.7867810  89.1987950  81.5526370 147.7886250  89.7160340  80.7472270
 146.9572120  88.7218130  81.5296300 149.0370660  98.8383130  79.7299870
 148.7040040  99.4652050  80.3720940 149.2137340  99.3645010  78.9501540
 147.4683140  90.9097910  79.5596820 147.8099950  91.7539960  79.2650690
 146.5298950  91.0581650  79.6762160 148.2489760 100.8063930  81.5449050
 148.8663760 101.4815010  81.2633500 147.3882880 101.2151910  81.4536550
 143.5422100  99.9963790  70.4255900 143.1650080 100.4850890  69.6940800
 143.7995170 100.6689070  71.0562430 151.1511030  88.3980180  75.8841410
 151.4586010  87.8427070  75.1676910 150.2211730  88.5324640  75.7014400
 149.1448430  96.9893750  75.4021260 148.7405430  96.2771000  74.9067160
 149.2311550  96.6446990  76.2909300 149.6130130 100.6761310  77.5660470
 149.3158420 100.0706780  76.8868250 150.5629950 100.7138620  77.4549830
 147.8577050  93.7636960  79.1820300 148.4091640  93.8732300  78.4073550
 148.3720560  94.1374560  79.8975530 148.7048560 100.4143000  84.2168270
 147.8077090 100.6382970  84.4641670 148.7301430 100.5377940  83.2679670
 147.5319780  97.2856320  82.7925640 147.3927550  98.1579120  83.1613040
 146.6501140  96.9429130  82.6473580 149.3300130 103.2278020  85.0010790
 149.3015560 103.6320970  84.1339220 149.1665100 102.2988380  84.8382390
 145.8453060  95.8838730  72.9027910 145.7250660  96.6100820  72.2909180
 145.5353950  95.1141640  72.4255820 143.4838430  99.0553870  78.7096550
 143.5618850  99.1902640  77.7652270 144.0980110  98.3469760  78.9024670
 144.7286060 100.7554060  75.1202730 144.3214140 100.8968650  74.2656330
 145.6199070 100.4714220  74.9173940 149.0007720 104.9699840  73.2325400
 148.8250200 104.0535380  73.0193200 148.1463460 105.3287130  73.4723200
 143.5397950 100.0968040  81.2491010 143.7028990  99.6273400  80.4310380
 144.0050400  99.5891600  81.9139850 148.3116720  89.2273800  76.2851580
 147.8684870  90.0083340  75.9536100 148.8701710  89.5503690  76.9922520
 152.5986530  92.0942320  81.8886900 152.1365900  92.3025340  82.7006840
 152.1964640  91.2801670  81.5857570 151.4275540  88.8484500  71.1657410
 150.8029720  88.8444370  71.8910720 151.3405660  87.9815460  70.7693380
 150.3492620  89.7721130  78.1441180 150.6464950  90.6783960  78.0633200
 150.8978180  89.2839910  77.5300750 148.1030940  94.3507370  74.0132830
 147.8771860  94.1344540  74.9179450 147.3223470  94.7835830  73.6678800
 150.5430150  95.2492950  84.6793100 150.4473750  94.3087680  84.5293500
 151.3862130  95.4708020  84.2841170 145.6740690  91.6606620  82.8326880
 145.2804080  92.5081830  83.0399660 144.9859090  91.0232990  83.0235520
 152.2485740  91.7441590  85.9023620 151.5584060  91.5513790  86.5369710
 152.9918040  92.0276230  86.4347920 142.9757740  89.5835080  76.8656960
 142.6870790  90.1537940  77.5781940 143.7203500  89.1039530  77.2288190
 143.1627970  93.5255200  68.0759680 143.0802640  94.4685960  68.2174670
 142.8111030  93.3830110  67.1972030 150.9626100  92.2594230  77.1430030
 150.9662160  91.8184180  76.2934570 151.8577220  92.5811560  77.2501850
 146.8128480  92.1420720  76.1024240 146.4728530  92.6195950  76.8591290
 146.0505800  91.6885840  75.7425340 151.0246250  93.2606310  70.1336790
 151.1459070  93.2192790  71.0822610 150.6394760  94.1230460  69.9783520
 150.0367750  95.5707450  69.5320090 149.4684650  95.1225700  68.9056000
 150.7456750  95.9300230  68.9985240 145.1136930  99.4719470  83.4086820
 144.7291720  98.8313140  84.0069780 145.4249120 100.1755590  83.9781550
 151.2634070  96.3196010  78.8895440 151.6304200  95.8454580  79.6356780
 151.0739130  97.1937580  79.2303780 144.1274560  91.0639700  75.0188910
 143.8421480  90.6995370  75.8567530 144.0653420  90.3320160  74.4052050
 149.0533440  95.3604650  81.2079650 148.7490510  96.2396630  81.4330010
 150.0079900  95.4204440  81.2437090 147.5815230  99.5665640  71.8046500
 146.8077490  99.0263260  71.6445220 148.3109860  99.0472250  71.4664260
 147.6252630  99.2346020  75.4425310 148.1431300  98.4314280  75.3882200
 147.1736650  99.1725160  76.2842140 152.5122130 100.5012300  70.7152610
 152.8537830 101.2454530  70.2195930 151.6834840 100.8143420  71.0777440
 145.1097170  96.2007390  82.3551010 144.7512110  96.8661240  82.9424350
 144.8151730  95.3690940  82.7263630 148.3110290  96.6591630  85.2390560
 148.0110430  96.8048810  84.3418380 149.0821530  96.0996920  85.1463950
 151.4812820 100.5825830  73.4868530 152.1683950 101.1295040  73.8676120
 150.6945240 101.1266560  73.5218140 143.6205220  96.1998650  68.9785610
 144.4900070  96.4823450  69.2621530 143.1295540  97.0134520  68.8634420
 150.7840030  97.5871860  73.0993890 151.2402810  98.3977110  73.3254080
 150.4328240  97.2695000  73.9312380 146.6851810  87.9309510  73.5716410
 146.5566440  87.9227410  74.5201330 145.8613830  88.2692600  73.2207420
 143.9876470 105.4126030  69.5447240 144.3474110 106.0115370  68.8904510
 143.8468810 105.9585920  70.3182270 143.6845740  89.6900630  83.0323110
 142.9704260  89.8897550  83.6375720 144.1040780  88.9140200  83.4037910
 143.9718330 103.6780890  84.0189640 144.0809450 102.7375630  83.8785030
 143.3198890 103.9435640  83.3703370 151.9630920 101.9496780  85.4187760
 151.6427790 101.2306020  85.9633450 151.2889280 102.6251850  85.4923820
 150.0045090 102.7957230  70.3620910 149.9955190 103.5286920  69.7465420
 149.0843450 102.5488810  70.4547870 145.6051730  98.0172120  71.1067670
 144.9979680  98.7571020  71.1162970 146.0801080  98.1071480  70.2805870
 152.9904690 102.8585470  69.0246100 153.0916670 102.6549460  68.0948080
 152.0906430 102.6043750  69.2293880 150.5130580  93.4165830  73.0070000
 149.8046730  93.8852170  73.4483610 150.7975060  92.7587840  73.6415190
 152.1386510  94.8362530  81.0062530 152.6371760  95.3108350  81.6714380
 152.2809460  93.9126050  81.2132560 151.6322800 105.3771790  73.7193770
 151.8864300 105.3393180  72.7973140 150.6835280 105.2505120  73.7122020
 148.7165600  91.7250910  70.3820710 149.5656130  92.1621060  70.3160900
 148.3496870  92.0371170  71.2092770 147.6157020  97.9783270  68.8556240
 148.3820290  97.8664630  69.4181670 147.6931710  97.2821240  68.2033010
 146.3103780  95.4108340  69.5389130 146.3907370  94.4635850  69.6506530
 147.2023530  95.7415220  69.6449790 147.1118490 105.5603730  76.6423670
 147.8480970 105.0119190  76.9132240 147.4959410 106.4259740  76.5029660
 143.9963970 101.6277300  72.5165180 143.0703750 101.8698440  72.5070590
 144.4620400 102.4551560  72.3949930 146.1176770 104.7449800  85.8309250
 146.9189500 105.0661850  86.2444650 145.6028590 104.3845380  86.5529160
 150.2220800 104.7334040  68.4649240 151.0149410 105.0222870  68.0131030
 149.7025150 104.3026210  67.7861720 143.8374580  97.2323260  84.7745300
 144.3413600  96.6530540  85.3461530 143.0982000  97.5163490  85.3121670
 150.7398200  99.9537450  68.3291590 150.6348840  99.3389800  69.0552970
 150.5722420  99.4303340  67.5454600 150.8912520  98.6394250  84.3080820
 150.1258190  99.2079250  84.2235490 151.0728480  98.3470460  83.4149050
 145.8697660  95.3752850  85.6695370 145.9103000  95.0766720  86.5780600
 146.7243160  95.7760460  85.5102890 149.6476050  97.9748400  70.8298880
 150.0692470  97.8088270  71.6730270 149.7726890  97.1648630  70.3354020
 147.8103470  93.9544950  83.6369860 147.2799930  93.4635900  83.0093200
 148.4791540  94.3829150  83.1027790 152.1603690  96.9986010  68.0775980
 152.6809350  96.2835030  67.7117130 152.8072090  97.6371880  68.3776490
 148.2975770  90.9207320  83.7167150 148.2032640  90.3028070  82.9918020
 147.7173160  91.6473610  83.4897060 151.0637210  89.4780560  80.7494540
 150.6154510  89.5004820  79.9040090 150.4302410  89.0799580  81.3464840
 151.4696760  98.3734890  81.3706980 151.8884870  99.2167620  81.1983220
 150.5505390  98.5106930  81.1413760 148.5434950  94.0481630  67.7757040
 148.3424010  93.1848990  68.1370380 148.3727000  93.9614990  66.8378640
 149.3204180 104.6787900  82.4864710 148.7825270 105.4033960  82.1673410
 149.5738140 104.2018240  81.6962050 150.5729430  92.6472420  84.0120640
 151.1629120  92.3388270  84.6998460 149.7549670  92.1752170  84.1680540
 147.3417750  91.1482250  67.7634920 147.6443650  91.1549680  66.8554070
 148.0812340  90.7980110  68.2602580 152.1766390 105.9139110  82.7451360
 152.1025090 106.8174250  83.0523730 151.2745230 105.5951010  82.7173430
 150.5602680  90.0916870  68.7491120 150.2124680  89.4140860  68.1693570
 150.7615450  89.6306380  69.5634510 146.3647880 100.4524670  68.5964720
 146.8022750 100.9954340  69.2522300 146.8495610  99.6271620  68.6061060
 143.5793680 103.2413700  76.0484980 143.9096690 102.3734760  75.8163620
 144.0084680 103.4472220  76.8789940 148.1755600 101.5722710  73.7086950
 147.8751140 101.4487680  74.6090860 148.0693090 100.7131300  73.3002680
 144.0683890 104.1084290  78.7866610 143.6314880 104.2885090  79.6190760
 144.6361570 104.8658910  78.6448330 143.9008320  96.6204520  75.1455490
 143.2457160  96.3516160  74.5015190 144.7386270  96.5109000  74.6957470
 144.9384250  97.0057090  79.6858830 145.3057290  96.9184490  80.5654850
 144.3695070  96.2423640  79.5865690 144.4900250  93.9166180  83.5917250
 143.5956300  93.8832940  83.9310960 145.0297800  94.1152970  84.3568500
 143.1146400  93.8303450  71.0880820 142.2110480  94.0933650  70.9132480
 143.5987020  94.1014620  70.3080780 145.6573610  92.8868990  68.9975200
 146.3665310  92.4652210  68.5122480 144.9413550  92.9544220  68.3658550
 145.3047770  88.9408320  68.0377850 146.0275900  89.4817260  68.3559070
 145.5772290  88.6671740  67.1619390 144.9939960  88.1914510  77.9400470
 145.6416150  87.6411890  77.4995630 145.4141800  88.4457660  78.7616280
 144.7471960  88.3470180  80.6825790 144.3986780  88.8034000  81.4483970
 144.4159660  87.4527310  80.7648220 146.3536330 101.5189780  84.8478980
 146.3105960 101.1482690  85.7293440 146.4847340 102.4567350  84.9880800
 150.0542360 103.0749370  80.4488700 149.8133720 103.3423930  79.5619220
 150.9945000 103.2455100  80.5039560 145.4192600  87.8746380  83.9576560
 145.9675590  87.6934430  83.1942670 145.4847910  87.0840490  84.4932870
 146.1924360 104.4652030  81.9676760 145.5984680 104.3336730  82.7066800
 146.1848200 103.6290170  81.5018860 145.8236590 101.8310410  80.9184800
 145.0970650 101.2115700  80.8510750 145.8845740 102.2251020  80.0482880
 149.4281690 104.0455410  77.7034210 149.9446710 103.4342770  77.1782470
 150.0779070 104.5484190  78.1945220 152.1677190 104.9363900  78.5303190
 152.4555000 104.6818200  77.6536200 152.6800410 104.3841260  79.1208760
 144.1066590 105.1484800  74.1281560 143.9388630 104.5155480  74.8263450
 143.2401100 105.3544200  73.7775750 144.7294610  88.9801580  71.6313420
 145.4873970  89.0930460  71.0577450 144.2671780  89.8170780  71.5856850
 151.2708420  91.0940850  74.6215730 150.4582930  90.7197740  74.2811610
 151.7750060  90.3385930  74.9236920 145.7129290 103.8418030  71.5731700
 145.1876910 104.2226060  70.8693660 145.6373870 104.4668800  72.2941410
 147.1019760  89.5065630  70.1715390 147.6312520  88.7195430  70.0423340
 147.7348080  90.1856820  70.4050920 149.2957600  89.2440770  73.2260780
 148.6660340  88.5428080  73.3930910 148.7562740  90.0044900  73.0093940
 149.4213160  88.5224750  85.6613270 149.1397430  89.0258350  84.8974090
 149.8032860  87.7246500  85.2955400 148.3122260 105.7900410  70.4480950
 149.0441080 105.5059690  69.9004840 148.5715930 105.5513690  71.3380330
 147.4737050 101.9065140  70.4527280 146.8445930 102.3750240  71.0013110
 147.5884880 101.0614360  70.8873470 147.0770640  98.0469630  59.3613510
 146.2455520  97.7918340  59.7610020 147.6851620  98.1180400  60.0971430
 147.0571900 102.0809720  59.5571530 147.3599940 101.1907460  59.3781750
 147.8015490 102.6379940  59.3293780 145.4862590  93.0071520  53.1455900
 144.5979290  93.3487490  53.0435780 145.7703780  92.8071840  52.2536730
 143.4495600  95.6077170  59.0295600 144.0211710  94.8399370  59.0299240
 143.4497140  95.9065930  58.1202210 144.6920470  91.0161530  60.8164530
 144.5123310  90.1187280  61.0967290 144.2900550  91.5633400  61.4911480
 147.6623980  91.5903020  54.1794280 147.7690730  92.4906750  54.4863040
 146.7516340  91.5420990  53.8888930 145.3107140  93.5122030  59.4246870
 145.9917250  93.7760400  60.0434270 144.9955190  92.6722900  59.7584880
 149.5031710  94.5589390  58.5119460 150.0109930  95.0570360  59.1524480
 150.0344950  93.7824590  58.3358820 147.7867810  89.1987950  62.7782880
 147.7886250  89.7160340  61.9728780 146.9572120  88.7218130  62.7552810
 149.0370660  98.8383130  60.9556380 148.7040040  99.4652050  61.5977450
 149.2137340  99.3645010  60.1758050 147.4683140  90.9097910  60.7853330
 147.8099950  91.7539960  60.4907200 146.5298950  91.0581650  60.9018670
 148.2489760 100.8063930  62.7705560 148.8663760 101.4815010  62.4890010
 147.3882880 101.2151910  62.6793060 143.5422100  99.9963790  51.6512410
 143.1650080 100.4850890  50.9197310 143.7995170 100.6689070  52.2818940
 151.1511030  88.3980180  57.1097920 151.4586010  87.8427070  56.3933420
 150.2211730  88.5324640  56.9270910 149.1448430  96.9893750  56.6277770
 148.7405430  96.2771000  56.1323670 149.2311550  96.6446990  57.5165810
 149.6130130 100.6761310  58.7916980 149.3158420 100.0706780  58.1124760
 150.5629950 100.7138620  58.6806340 147.8577050  93.7636960  60.4076810
 148.4091640  93.8732300  59.6330060 148.3720560  94.1374560  61.1232040
 148.7048560 100.4143000  65.4424780 147.8077090 100.6382970  65.6898180
 148.7301430 100.5377940  64.4936180 147.5319780  97.2856320  64.0182150
 147.3927550  98.1579120  64.3869550 146.6501140  96.9429130  63.8730090
 149.3300130 103.2278020  66.2267300 149.3015560 103.6320970  65.3595730
 149.1665100 102.2988380  66.0638900 145.8453060  95.8838730  54.1284420
 145.7250660  96.6100820  53.5165690 145.5353950  95.1141640  53.6512330
 143.4838430  99.0553870  59.9353060 143.5618850  99.1902640  58.9908780
 144.0980110  98.3469760  60.1281180 144.7286060 100.7554060  56.3459240
 144.3214140 100.8968650  55.4912840 145.6199070 100.4714220  56.1430450
 149.0007720 104.9699840  54.4581910 148.8250200 104.0535380  54.2449710
 148.1463460 105.3287130  54.6979710 143.5397950 100.0968040  62.4747520
 143.7028990  99.6273400  61.6566890 144.0050400  99.5891600  63.1396360
 148.3116720  89.2273800  57.5108090 147.8684870  90.0083340  57.1792610
 148.8701710  89.5503690  58.2179030 152.5986530  92.0942320  63.1143410
 152.1365900  92.3025340  63.9263350 152.1964640  91.2801670  62.8114080
 151.4275540  88.8484500  52.3913920 150.8029720  88.8444370  53.1167230
 151.3405660  87.9815460  51.9949890 150.3492620  89.7721130  59.3697690
 150.6464950  90.6783960  59.2889710 150.8978180  89.2839910  58.7557260
 148.1030940  94.3507370  55.2389340 147.8771860  94.1344540  56.1435960
 147.3223470  94.7835830  54.8935310 150.5430150  95.2492950  65.9049610
 150.4473750  94.3087680  65.7550010 151.3862130  95.4708020  65.5097680
 145.6740690  91.6606620  64.0583390 145.2804080  92.5081830  64.2656170
 144.9859090  91.0232990  64.2492030 152.2485740  91.7441590  67.1280130
 151.5584060  91.5513790  67.7626220 152.9918040  92.0276230  67.6604430
 142.9757740  89.5835080  58.0913470 142.6870790  90.1537940  58.8038450
 143.7203500  89.1039530  58.4544700 143.1627970  93.5255200  49.3016190
 143.0802640  94.4685960  49.4431180 142.8111030  93.3830110  48.4228540
 150.9626100  92.2594230  58.3686540 150.9662160  91.8184180  57.5191080
 151.8577220  92.5811560  58.4758360 146.8128480  92.1420720  57.3280750
 146.4728530  92.6195950  58.0847800 146.0505800  91.6885840  56.9681850
 151.0246250  93.2606310  51.3593300 151.1459070  93.2192790  52.3079120
 150.6394760  94.1230460  51.2040030 150.0367750  95.5707450  50.7576600
 149.4684650  95.1225700  50.1312510 150.7456750  95.9300230  50.2241750
 145.1136930  99.4719470  64.6343330 144.7291720  98.8313140  65.2326290
 145.4249120 100.1755590  65.2038060 151.2634070  96.3196010  60.1151950
 151.6304200  95.8454580  60.8613290 151.0739130  97.1937580  60.4560290
 144.1274560  91.0639700  56.2445420 143.8421480  90.6995370  57.0824040
 144.0653420  90.3320160  55.6308560 149.0533440  95.3604650  62.4336160
 148.7490510  96.2396630  62.6586520 150.0079900  95.4204440  62.4693600
 147.5815230  99.5665640  53.0303010 146.8077490  99.0263260  52.8701730
 148.3109860  99.0472250  52.6920770 147.6252630  99.2346020  56.6681820
 148.1431300  98.4314280  56.6138710 147.1736650  99.1725160  57.5098650
 152.5122130 100.5012300  51.9409120 152.8537830 101.2454530  51.4452440
 151.6834840 100.8143420  52.3033950 145.1097170  96.2007390  63.5807520
 144.7512110  96.8661240  64.1680860 144.8151730  95.3690940  63.9520140
 148.3110290  96.6591630  66.4647070 148.0110430  96.8048810  65.5674890
 149.0821530  96.0996920  66.3720460 151.4812820 100.5825830  54.7125040
 152.1683950 101.1295040  55.0932630 150.6945240 101.1266560  54.7474650
 143.6205220  96.1998650  50.2042120 144.4900070  96.4823450  50.4878040
 143.1295540  97.0134520  50.0890930 150.7840030  97.5871860  54.3250400
 151.2402810  98.3977110  54.5510590 150.4328240  97.2695000  55.1568890
 146.6851810  87.9309510  54.7972920 146.5566440  87.9227410  55.7457840
 145.8613830  88.2692600  54.4463930 143.9876470 105.4126030  50.7703750
 144.3474110 106.0115370  50.1161020 143.8468810 105.9585920  51.5438780
 143.6845740  89.6900630  64.2579620 142.9704260  89.8897550  64.8632230
 144.1040780  88.9140200  64.6294420 143.9718330 103.6780890  65.2446150
 144.0809450 102.7375630  65.1041540 143.3198890 103.9435640  64.5959880
 151.9630920 101.9496780  66.6444270 151.6427790 101.2306020  67.1889960
 151.2889280 102.6251850  66.7180330 150.0045090 102.7957230  51.5877420
 149.9955190 103.5286920  50.9721930 149.0843450 102.5488810  51.6804380
 145.6051730  98.0172120  52.3324180 144.9979680  98.7571020  52.3419480
 146.0801080  98.1071480  51.5062380 152.9904690 102.8585470  50.2502610
 153.0916670 102.6549460  49.3204590 152.0906430 102.6043750  50.4550390
 150.5130580  93.4165830  54.2326510 149.8046730  93.8852170  54.6740120
 150.7975060  92.7587840  54.8671700 152.1386510  94.8362530  62.2319040
 152.6371760  95.3108350  62.8970890 152.2809460  93.9126050  62.4389070
 151.6322800 105.3771790  54.9450280 151.8864300 105.3393180  54.0229650
 150.6835280 105.2505120  54.9378530 148.7165600  91.7250910  51.6077220
 149.5656130  92.1621060  51.5417410 148.3496870  92.0371170  52.4349280
 147.6157020  97.9783270  50.0812750 148.3820290  97.8664630  50.6438180
 147.6931710  97.2821240  49.4289520 146.3103780  95.4108340  50.7645640
 146.3907370  94.4635850  50.8763040 147.2023530  95.7415220  50.8706300
 147.1118490 105.5603730  57.8680180 147.8480970 105.0119190  58.1388750
 147.4959410 106.4259740  57.7286170 143.9963970 101.6277300  53.7421690
 143.0703750 101.8698440  53.7327100 144.4620400 102.4551560  53.6206440
 146.1176770 104.7449800  67.0565760 146.9189500 105.0661850  67.4701160
 145.6028590 104.3845380  67.7785670 150.2220800 104.7334040  49.6905750
 151.0149410 105.0222870  49.2387540 149.7025150 104.3026210  49.0118230
 143.8374580  97.2323260  66.0001810 144.3413600  96.6530540  66.5718040
 143.0982000  97.5163490  66.5378180 150.7398200  99.9537450  49.5548100
 150.6348840  99.3389800  50.2809480 150.5722420  99.4303340  48.7711110
 150.8912520  98.6394250  65.5337330 150.1258190  99.2079250  65.4492000
 151.0728480  98.3470460  64.6405560 145.8697660  95.3752850  66.8951880
 145.9103000  95.0766720  67.8037110 146.7243160  95.7760460  66.7359400
 149.6476050  97.9748400  52.0555390 150.0692470  97.8088270  52.8986780
 149.7726890  97.1648630  51.5610530 147.8103470  93.9544950  64.8626370
 147.2799930  93.4635900  64.2349710 148.4791540  94.3829150  64.3284300
 152.1603690  96.9986010  49.3032490 152.6809350  96.2835030  48.9373640
 152.8072090  97.6371880  49.6033000 148.2975770  90.9207320  64.9423660
 148.2032640  90.3028070  64.2174530 147.7173160  91.6473610  64.7153570
 151.0637210  89.4780560  61.9751050 150.6154510  89.5004820  61.1296600
 150.4302410  89.0799580  62.5721350 151.4696760  98.3734890  62.5963490
 151.8884870  99.2167620  62.4239730 150.5505390  98.5106930  62.3670270
 148.5434950  94.0481630  49.0013550 148.3424010  93.1848990  49.3626890
 148.3727000  93.9614990  48.0635150 149.3204180 104.6787900  63.7121220
 148.7825270 105.4033960  63.3929920 149.5738140 104.2018240  62.9218560
 150.5729430  92.6472420  65.2377150 151.1629120  92.3388270  65.9254970
 149.7549670  92.1752170  65.3937050 147.3417750  91.1482250  48.9891430
 147.6443650  91.1549680  48.0810580 148.0812340  90.7980110  49.4859090
 152.1766390 105.9139110  63.9707870 152.1025090 106.8174250  64.2780240
 151.2745230 105.5951010  63.9429940 150.5602680  90.0916870  49.9747630
 150.2124680  89.4140860  49.3950080 150.7615450  89.6306380  50.7891020
 146.3647880 100.4524670  49.8221230 146.8022750 100.9954340  50.4778810
 146.8495610  99.6271620  49.8317570 143.5793680 103.2413700  57.2741490
 143.9096690 102.3734760  57.0420130 144.0084680 103.4472220  58.1046450
 148.1755600 101.5722710  54.9343460 147.8751140 101.4487680  55.8347370
 148.0693090 100.7131300  54.5259190 144.0683890 104.1084290  60.0123120
 143.6314880 104.2885090  60.8447270 144.6361570 104.8658910  59.8704840
 143.9008320  96.6204520  56.3712000 143.2457160  96.3516160  55.7271700
 144.7386270  96.5109000  55.9213980 144.9384250  97.0057090  60.9115340
 145.3057290  96.9184490  61.7911360 144.3695070  96.2423640  60.8122200
 144.4900250  93.9166180  64.8173760 143.5956300  93.8832940  65.1567470
 145.0297800  94.1152970  65.5825010 143.1146400  93.8303450  52.3137330
 142.2110480  94.0933650  52.1388990 143.5987020  94.1014620  51.5337290
 145.6573610  92.8868990  50.2231710 146.3665310  92.4652210  49.7378990
 144.9413550  92.9544220  49.5915060 145.3047770  88.9408320  49.2634360
 146.0275900  89.4817260  49.5815580 145.5772290  88.6671740  48.3875900
 144.9939960  88.1914510  59.1656980 145.6416150  87.6411890  58.7252140
 145.4141800  88.4457660  59.9872790 144.7471960  88.3470180  61.9082300
 144.3986780  88.8034000  62.6740480 144.4159660  87.4527310  61.9904730
 146.3536330 101.5189780  66.0735490 146.3105960 101.1482690  66.9549950
 146.4847340 102.4567350  66.2137310 150.0542360 103.0749370  61.6745210
 149.8133720 103.3423930  60.7875730 150.9945000 103.2455100  61.7296070
 145.4192600  87.8746380  65.1833070 145.9675590  87.6934430  64.4199180
 145.4847910  87.0840490  65.7189380 146.1924360 104.4652030  63.1933270
 145.5984680 104.3336730  63.9323310 146.1848200 103.6290170  62.7275370
 145.8236590 101.8310410  62.1441310 145.0970650 101.2115700  62.0767260
 145.8845740 102.2251020  61.2739390 149.4281690 104.0455410  58.9290720
 149.9446710 103.4342770  58.4038980 150.0779070 104.5484190  59.4201730
 152.1677190 104.9363900  59.7559700 152.4555000 104.6818200  58.8792710
 152.6800410 104.3841260  60.3465270 144.1066590 105.1484800  55.3538070
 143.9388630 104.5155480  56.0519960 143.2401100 105.3544200  55.0032260
 144.7294610  88.9801580  52.8569930 145.4873970  89.0930460  52.2833960
 144.2671780  89.8170780  52.8113360 151.2708420  91.0940850  55.8472240
 150.4582930  90.7197740  55.5068120 151.7750060  90.3385930  56.1493430
 145.7129290 103.8418030  52.7988210 145.1876910 104.2226060  52.0950170
 145.6373870 104.4668800  53.5197920 147.1019760  89.5065630  51.3971900
 147.6312520  88.7195430  51.2679850 147.7348080  90.1856820  51.6307430
 149.2957600  89.2440770  54.4517290 148.6660340  88.5428080  54.6187420
 148.7562740  90.0044900  54.2350450 149.4213160  88.5224750  66.8869780
 149.1397430  89.0258350  66.1230600 149.8032860  87.7246500  66.5211910
 148.3122260 105.7900410  51.6737460 149.0441080 105.5059690  51.1261350
 148.5715930 105.5513690  52.5636840 147.4737050 101.9065140  51.6783790
 146.8445930 102.3750240  52.2269620 147.5884880 101.0614360  52.1129980
 147.0770640  98.0469630  40.5870020 146.2455520  97.7918340  40.9866530
 147.6851620  98.1180400  41.3227940 147.0571900 102.0809720  40.7828040
 147.3599940 101.1907460  40.6038260 147.8015490 102.6379940  40.5550290
 145.4862590  93.0071520  34.3712410 144.5979290  93.3487490  34.2692290
 145.7703780  92.8071840  33.4793240 143.4495600  95.6077170  40.2552110
 144.0211710  94.8399370  40.2555750 143.4497140  95.9065930  39.3458720
 144.6920470  91.0161530  42.0421040 144.5123310  90.1187280  42.3223800
 144.2900550  91.5633400  42.7167990 147.6623980  91.5903020  35.4050790
 147.7690730  92.4906750  35.7119550 146.7516340  91.5420990  35.1145440
 145.3107140  93.5122030  40.6503380 145.9917250  93.7760400  41.2690780
 144.9955190  92.6722900  40.9841390 149.5031710  94.5589390  39.7375970
 150.0109930  95.0570360  40.3780990 150.0344950  93.7824590  39.5615330
 147.7867810  89.1987950  44.0039390 147.7886250  89.7160340  43.1985290
 146.9572120  88.7218130  43.9809320 149.0370660  98.8383130  42.1812890
 148.7040040  99.4652050  42.8233960 149.2137340  99.3645010  41.4014560
 147.4683140  90.9097910  42.0109840 147.8099950  91.7539960  41.7163710
 146.5298950  91.0581650  42.1275180 148.2489760 100.8063930  43.9962070
 148.8663760 101.4815010  43.7146520 147.3882880 101.2151910  43.9049570
 143.5422100  99.9963790  32.8768920 143.1650080 100.4850890  32.1453820
 143.7995170 100.6689070  33.5075450 151.1511030  88.3980180  38.3354430
 151.4586010  87.8427070  37.6189930 150.2211730  88.5324640  38.1527420
 149.1448430  96.9893750  37.8534280 148.7405430  96.2771000  37.3580180
 149.2311550  96.6446990  38.7422320 149.6130130 100.6761310  40.0173490
 149.3158420 100.0706780  39.3381270 150.5629950 100.7138620  39.9062850
 147.8577050  93.7636960  41.6333320 148.4091640  93.8732300  40.8586570
 148.3720560  94.1374560  42.3488550 148.7048560 100.4143000  46.6681290
 147.8077090 100.6382970  46.9154690 148.7301430 100.5377940  45.7192690
 147.5319780  97.2856320  45.2438660 147.3927550  98.1579120  45.6126060
 146.6501140  96.9429130  45.0986600 149.3300130 103.2278020  47.4523810
 149.3015560 103.6320970  46.5852240 149.1665100 102.2988380  47.2895410
 145.8453060  95.8838730  35.3540930 145.7250660  96.6100820  34.7422200
 145.5353950  95.1141640  34.8768840 143.4838430  99.0553870  41.1609570
 143.5618850  99.1902640  40.2165290 144.0980110  98.3469760  41.3537690
 144.7286060 100.7554060  37.5715750 144.3214140 100.8968650  36.7169350
 145.6199070 100.4714220  37.3686960 149.0007720 104.9699840  35.6838420
 148.8250200 104.0535380  35.4706220 148.1463460 105.3287130  35.9236220
 143.5397950 100.0968040  43.7004030 143.7028990  99.6273400  42.8823400
 144.0050400  99.5891600  44.3652870 148.3116720  89.2273800  38.7364600
 147.8684870  90.0083340  38.4049120 148.8701710  89.5503690  39.4435540
 152.5986530  92.0942320  44.3399920 152.1365900  92.3025340  45.1519860
 152.1964640  91.2801670  44.0370590 151.4275540  88.8484500  33.6170430
 150.8029720  88.8444370  34.3423740 151.3405660  87.9815460  33.2206400
 150.3492620  89.7721130  40.5954200 150.6464950  90.6783960  40.5146220
 150.8978180  89.2839910  39.9813770 148.1030940  94.3507370  36.4645850
 147.8771860  94.1344540  37.3692470 147.3223470  94.7835830  36.1191820
 150.5430150  95.2492950  47.1306120 150.4473750  94.3087680  46.9806520
 151.3862130  95.4708020  46.7354190 145.6740690  91.6606620  45.2839900
 145.2804080  92.5081830  45.4912680 144.9859090  91.0232990  45.4748540
 152.2485740  91.7441590  48.3536640 151.5584060  91.5513790  48.9882730
 152.9918040  92.0276230  48.8860940 142.9757740  89.5835080  39.3169980
 142.6870790  90.1537940  40.0294960 143.7203500  89.1039530  39.6801210
 143.1627970  93.5255200  30.5272700 143.0802640  94.4685960  30.6687690
 142.8111030  93.3830110  29.6485050 150.9626100  92.2594230  39.5943050
 150.9662160  91.8184180  38.7447590 151.8577220  92.5811560  39.7014870
 146.8128480  92.1420720  38.5537260 146.4728530  92.6195950  39.3104310
 146.0505800  91.6885840  38.1938360 151.0246250  93.2606310  32.5849810
 151.1459070  93.2192790  33.5335630 150.6394760  94.1230460  32.4296540
 150.0367750  95.5707450  31.9833110 149.4684650  95.1225700  31.3569020
 150.7456750  95.9300230  31.4498260 145.1136930  99.4719470  45.8599840
 144.7291720  98.8313140  46.4582800 145.4249120 100.1755590  46.4294570
 151.2634070  96.3196010  41.3408460 151.6304200  95.8454580  42.0869800
 151.0739130  97.1937580  41.6816800 144.1274560  91.0639700  37.4701930
 143.8421480  90.6995370  38.3080550 144.0653420  90.3320160  36.8565070
 149.0533440  95.3604650  43.6592670 148.7490510  96.2396630  43.8843030
 150.0079900  95.4204440  43.6950110 147.5815230  99.5665640  34.2559520
 146.8077490  99.0263260  34.0958240 148.3109860  99.0472250  33.9177280
 147.6252630  99.2346020  37.8938330 148.1431300  98.4314280  37.8395220
 147.1736650  99.1725160  38.7355160 152.5122130 100.5012300  33.1665630
 152.8537830 101.2454530  32.6708950 151.6834840 100.8143420  33.5290460
 145.1097170  96.2007390  44.8064030 144.7512110  96.8661240  45.3937370
 144.8151730  95.3690940  45.1776650 148.3110290  96.6591630  47.6903580
 148.0110430  96.8048810  46.7931400 149.0821530  96.0996920  47.5976970
 151.4812820 100.5825830  35.9381550 152.1683950 101.1295040  36.3189140
 150.6945240 101.1266560  35.9731160 143.6205220  96.1998650  31.4298630
 144.4900070  96.4823450  31.7134550 143.1295540  97.0134520  31.3147440
 150.7840030  97.5871860  35.5506910 151.2402810  98.3977110  35.7767100
 150.4328240  97.2695000  36.3825400 146.6851810  87.9309510  36.0229430
 146.5566440  87.9227410  36.9714350 145.8613830  88.2692600  35.6720440
 143.9876470 105.4126030  31.9960260 144.3474110 106.0115370  31.3417530
 143.8468810 105.9585920  32.7695290 143.6845740  89.6900630  45.4836130
 142.9704260  89.8897550  46.0888740 144.1040780  88.9140200  45.8550930
 143.9718330 103.6780890  46.4702660 144.0809450 102.7375630  46.3298050
 143.3198890 103.9435640  45.8216390 151.9630920 101.9496780  47.8700780
 151.6427790 101.2306020  48.4146470 151.2889280 102.6251850  47.9436840
 150.0045090 102.7957230  32.8133930 149.9955190 103.5286920  32.1978440
 149.0843450 102.5488810  32.9060890 145.6051730  98.0172120  33.5580690
 144.9979680  98.7571020  33.5675990 146.0801080  98.1071480  32.7318890
 152.9904690 102.8585470  31.4759120 153.0916670 102.6549460  30.5461100
 152.0906430 102.6043750  31.6806900 150.5130580  93.4165830  35.4583020
 149.8046730  93.8852170  35.8996630 150.7975060  92.7587840  36.0928210
 152.1386510  94.8362530  43.4575550 152.6371760  95.3108350  44.1227400
 152.2809460  93.9126050  43.6645580 151.6322800 105.3771790  36.1706790
 151.8864300 105.3393180  35.2486160 150.6835280 105.2505120  36.1635040
 148.7165600  91.7250910  32.8333730 149.5656130  92.1621060  32.7673920
 148.3496870  92.0371170  33.6605790 147.6157020  97.9783270  31.3069260
 148.3820290  97.8664630  31.8694690 147.6931710  97.2821240  30.6546030
 146.3103780  95.4108340  31.9902150 146.3907370  94.4635850  32.1019550
 147.2023530  95.7415220  32.0962810 147.1118490 105.5603730  39.0936690
 147.8480970 105.0119190  39.3645260 147.4959410 106.4259740  38.9542680
 143.9963970 101.6277300  34.9678200 143.0703750 101.8698440  34.9583610
 144.4620400 102.4551560  34.8462950 146.1176770 104.7449800  48.2822270
 146.9189500 105.0661850  48.6957670 145.6028590 104.3845380  49.0042180
 150.2220800 104.7334040  30.9162260 151.0149410 105.0222870  30.4644050
 149.7025150 104.3026210  30.2374740 143.8374580  97.2323260  47.2258320
 144.3413600  96.6530540  47.7974550 143.0982000  97.5163490  47.7634690
 150.7398200  99.9537450  30.7804610 150.6348840  99.3389800  31.5065990
 150.5722420  99.4303340  29.9967620 150.8912520  98.6394250  46.7593840
 150.1258190  99.2079250  46.6748510 151.0728480  98.3470460  45.8662070
 145.8697660  95.3752850  48.1208390 145.9103000  95.0766720  49.0293620
 146.7243160  95.7760460  47.9615910 149.6476050  97.9748400  33.2811900
 150.0692470  97.8088270  34.1243290 149.7726890  97.1648630  32.7867040
 147.8103470  93.9544950  46.0882880 147.2799930  93.4635900  45.4606220
 148.4791540  94.3829150  45.5540810 152.1603690  96.9986010  30.5289000
 152.6809350  96.2835030  30.1630150 152.8072090  97.6371880  30.8289510
 148.2975770  90.9207320  46.1680170 148.2032640  90.3028070  45.4431040
 147.7173160  91.6473610  45.9410080 151.0637210  89.4780560  43.2007560
 150.6154510  89.5004820  42.3553110 150.4302410  89.0799580  43.7977860
 151.4696760  98.3734890  43.8220000 151.8884870  99.2167620  43.6496240
 150.5505390  98.5106930  43.5926780 148.5434950  94.0481630  30.2270060
 148.3424010  93.1848990  30.5883400 148.3727000  93.9614990  29.2891660
 149.3204180 104.6787900  44.9377730 148.7825270 105.4033960  44.6186430
 149.5738140 104.2018240  44.1475070 150.5729430  92.6472420  46.4633660
 151.1629120  92.3388270  47.1511480 149.7549670  92.1752170  46.6193560
 147.3417750  91.1482250  30.2147940 147.6443650  91.1549680  29.3067090
 148.0812340  90.7980110  30.7115600 152.1766390 105.9139110  45.1964380
 152.1025090 106.8174250  45.5036750 151.2745230 105.5951010  45.1686450
 150.5602680  90.0916870  31.2004140 150.2124680  89.4140860  30.6206590
 150.7615450  89.6306380  32.0147530 146.3647880 100.4524670  31.0477740
 146.8022750 100.9954340  31.7035320 146.8495610  99.6271620  31.0574080
 143.5793680 103.2413700  38.4998000 143.9096690 102.3734760  38.2676640
 144.0084680 103.4472220  39.3302960 148.1755600 101.5722710  36.1599970
 147.8751140 101.4487680  37.0603880 148.0693090 100.7131300  35.7515700
 144.0683890 104.1084290  41.2379630 143.6314880 104.2885090  42.0703780
 144.6361570 104.8658910  41.0961350 143.9008320  96.6204520  37.5968510
 143.2457160  96.3516160  36.9528210 144.7386270  96.5109000  37.1470490
 144.9384250  97.0057090  42.1371850 145.3057290  96.9184490  43.0167870
 144.3695070  96.2423640  42.0378710 144.4900250  93.9166180  46.0430270
 143.5956300  93.8832940  46.3823980 145.0297800  94.1152970  46.8081520
 143.1146400  93.8303450  33.5393840 142.2110480  94.0933650  33.3645500
 143.5987020  94.1014620  32.7593800 145.6573610  92.8868990  31.4488220
 146.3665310  92.4652210  30.9635500 144.9413550  92.9544220  30.8171570
 145.3047770  88.9408320  30.4890870 146.0275900  89.4817260  30.8072090
 145.5772290  88.6671740  29.6132410 144.9939960  88.1914510  40.3913490
 145.6416150  87.6411890  39.9508650 145.4141800  88.4457660  41.2129300
 144.7471960  88.3470180  43.1338810 144.3986780  88.8034000  43.8996990
 144.4159660  87.4527310  43.2161240 146.3536330 101.5189780  47.2992000
 146.3105960 101.1482690  48.1806460 146.4847340 102.4567350  47.4393820
 150.0542360 103.0749370  42.9001720 149.8133720 103.3423930  42.0132240
 150.9945000 103.2455100  42.9552580 145.4192600  87.8746380  46.4089580
 145.9675590  87.6934430  45.6455690 145.4847910  87.0840490  46.9445890
 146.1924360 104.4652030  44.4189780 145.5984680 104.3336730  45.1579820
 146.1848200 103.6290170  43.9531880 145.8236590 101.8310410  43.3697820
 145.0970650 101.2115700  43.3023770 145.8845740 102.2251020  42.4995900
 149.4281690 104.0455410  40.1547230 149.9446710 103.4342770  39.6295490
 150.0779070 104.5484190  40.6458240 152.1677190 104.9363900  40.9816210
 152.4555000 104.6818200  40.1049220 152.6800410 104.3841260  41.5721780
 144.1066590 105.1484800  36.5794580 143.9388630 104.5155480  37.2776470
 143.2401100 105.3544200  36.2288770 144.7294610  88.9801580  34.0826440
 145.4873970  89.0930460  33.5090470 144.2671780  89.8170780  34.0369870
 151.2708420  91.0940850  37.0728750 150.4582930  90.7197740  36.7324630
 151.7750060  90.3385930  37.3749940 145.7129290 103.8418030  34.0244720
 145.1876910 104.2226060  33.3206680 145.6373870 104.4668800  34.7454430
 147.1019760  89.5065630  32.6228410 147.6312520  88.7195430  32.4936360
 147.7348080  90.1856820  32.8563940 149.2957600  89.2440770  35.6773800
 148.6660340  88.5428080  35.8443930 148.7562740  90.0044900  35.4606960
 149.4213160  88.5224750  48.1126290 149.1397430  89.0258350  47.3487110
 149.8032860  87.7246500  47.7468420 148.3122260 105.7900410  32.8993970
 149.0441080 105.5059690  32.3517860 148.5715930 105.5513690  33.7893350
 147.4737050 101.9065140  32.9040300 146.8445930 102.3750240  33.4526130
 147.5884880 101.0614360  33.3386490 147.0770640  98.0469630  21.8126530
 146.2455520  97.7918340  22.2123040 147.6851620  98.1180400  22.5484450
 147.0571900 102.0809720  22.0084550 147.3599940 101.1907460  21.8294770
 147.8015490 102.6379940  21.7806800 145.4862590  93.0071520  15.5968920
 144.5979290  93.3487490  15.4948800 145.7703780  92.8071840  14.7049750
 143.4495600  95.6077170  21.4808620 144.0211710  94.8399370  21.4812260
 143.4497140  95.9065930  20.5715230 144.6920470  91.0161530  23.2677550
 144.5123310  90.1187280  23.5480310 144.2900550  91.5633400  23.9424500
 147.6623980  91.5903020  16.6307300 147.7690730  92.4906750  16.9376060
 146.7516340  91.5420990  16.3401950 145.3107140  93.5122030  21.8759890
 145.9917250  93.7760400  22.4947290 144.9955190  92.6722900  22.2097900
 149.5031710  94.5589390  20.9632480 150.0109930  95.0570360  21.6037500
 150.0344950  93.7824590  20.7871840 147.7867810  89.1987950  25.2295900
 147.7886250  89.7160340  24.4241800 146.9572120  88.7218130  25.2065830
 149.0370660  98.8383130  23.4069400 148.7040040  99.4652050  24.0490470
 149.2137340  99.3645010  22.6271070 147.4683140  90.9097910  23.2366350
 147.8099950  91.7539960  22.9420220 146.5298950  91.0581650  23.3531690
 148.2489760 100.8063930  25.2218580 148.8663760 101.4815010  24.9403030
 147.3882880 101.2151910  25.1306080 143.5422100  99.9963790  14.1025430
 143.1650080 100.4850890  13.3710330 143.7995170 100.6689070  14.7331960
 151.1511030  88.3980180  19.5610940 151.4586010  87.8427070  18.8446440
 150.2211730  88.5324640  19.3783930 149.1448430  96.9893750  19.0790790
 148.7405430  96.2771000  18.5836690 149.2311550  96.6446990  19.9678830
 149.6130130 100.6761310  21.2430000 149.3158420 100.0706780  20.5637780
 150.5629950 100.7138620  21.1319360 147.8577050  93.7636960  22.8589830
 148.4091640  93.8732300  22.0843080 148.3720560  94.1374560  23.5745060
 148.7048560 100.4143000  27.8937800 147.8077090 100.6382970  28.1411200
 148.7301430 100.5377940  26.9449200 147.5319780  97.2856320  26.4695170
 147.3927550  98.1579120  26.8382570 146.6501140  96.9429130  26.3243110
 149.3300130 103.2278020  28.6780320 149.3015560 103.6320970  27.8108750
 149.1665100 102.2988380  28.5151920 145.8453060  95.8838730  16.5797440
 145.7250660  96.6100820  15.9678710 145.5353950  95.1141640  16.1025350
 143.4838430  99.0553870  22.3866080 143.5618850  99.1902640  21.4421800
 144.0980110  98.3469760  22.5794200 144.7286060 100.7554060  18.7972260
 144.3214140 100.8968650  17.9425860 145.6199070 100.4714220  18.5943470
 149.0007720 104.9699840  16.9094930 148.8250200 104.0535380  16.6962730
 148.1463460 105.3287130  17.1492730 143.5397950 100.0968040  24.9260540
 143.7028990  99.6273400  24.1079910 144.0050400  99.5891600  25.5909380
 148.3116720  89.2273800  19.9621110 147.8684870  90.0083340  19.6305630
 148.8701710  89.5503690  20.6692050 152.5986530  92.0942320  25.5656430
 152.1365900  92.3025340  26.3776370 152.1964640  91.2801670  25.2627100
 151.4275540  88.8484500  14.8426940 150.8029720  88.8444370  15.5680250
 151.3405660  87.9815460  14.4462910 150.3492620  89.7721130  21.8210710
 150.6464950  90.6783960  21.7402730 150.8978180  89.2839910  21.2070280
 148.1030940  94.3507370  17.6902360 147.8771860  94.1344540  18.5948980
 147.3223470  94.7835830  17.3448330 150.5430150  95.2492950  28.3562630
 150.4473750  94.3087680  28.2063030 151.3862130  95.4708020  27.9610700
 145.6740690  91.6606620  26.5096410 145.2804080  92.5081830  26.7169190
 144.9859090  91.0232990  26.7005050 152.2485740  91.7441590  29.5793150
 151.5584060  91.5513790  30.2139240 152.9918040  92.0276230  30.1117450
 142.9757740  89.5835080  20.5426490 142.6870790  90.1537940  21.2551470
 143.7203500  89.1039530  20.9057720 143.1627970  93.5255200  11.7529210
 143.0802640  94.4685960  11.8944200 142.8111030  93.3830110  10.8741560
 150.9626100  92.2594230  20.8199560 150.9662160  91.8184180  19.9704100
 151.8577220  92.5811560  20.9271380 146.8128480  92.1420720  19.7793770
 146.4728530  92.6195950  20.5360820 146.0505800  91.6885840  19.4194870
 151.0246250  93.2606310  13.8106320 151.1459070  93.2192790  14.7592140
 150.6394760  94.1230460  13.6553050 150.0367750  95.5707450  13.2089620
 149.4684650  95.1225700  12.5825530 150.7456750  95.9300230  12.6754770
 145.1136930  99.4719470  27.0856350 144.7291720  98.8313140  27.6839310
 145.4249120 100.1755590  27.6551080 151.2634070  96.3196010  22.5664970
 151.6304200  95.8454580  23.3126310 151.0739130  97.1937580  22.9073310
 144.1274560  91.0639700  18.6958440 143.8421480  90.6995370  19.5337060
 144.0653420  90.3320160  18.0821580 149.0533440  95.3604650  24.8849180
 148.7490510  96.2396630  25.1099540 150.0079900  95.4204440  24.9206620
 147.5815230  99.5665640  15.4816030 146.8077490  99.0263260  15.3214750
 148.3109860  99.0472250  15.1433790 147.6252630  99.2346020  19.1194840
 148.1431300  98.4314280  19.0651730 147.1736650  99.1725160  19.9611670
 152.5122130 100.5012300  14.3922140 152.8537830 101.2454530  13.8965460
 151.6834840 100.8143420  14.7546970 145.1097170  96.2007390  26.0320540
 144.7512110  96.8661240  26.6193880 144.8151730  95.3690940  26.4033160
 148.3110290  96.6591630  28.9160090 148.0110430  96.8048810  28.0187910
 149.0821530  96.0996920  28.8233480 151.4812820 100.5825830  17.1638060
 152.1683950 101.1295040  17.5445650 150.6945240 101.1266560  17.1987670
 143.6205220  96.1998650  12.6555140 144.4900070  96.4823450  12.9391060
 143.1295540  97.0134520  12.5403950 150.7840030  97.5871860  16.7763420
 151.2402810  98.3977110  17.0023610 150.4328240  97.2695000  17.6081910
 146.6851810  87.9309510  17.2485940 146.5566440  87.9227410  18.1970860
 145.8613830  88.2692600  16.8976950 143.9876470 105.4126030  13.2216770
 144.3474110 106.0115370  12.5674040 143.8468810 105.9585920  13.9951800
 143.6845740  89.6900630  26.7092640 142.9704260  89.8897550  27.3145250
 144.1040780  88.9140200  27.0807440 143.9718330 103.6780890  27.6959170
 144.0809450 102.7375630  27.5554560 143.3198890 103.9435640  27.0472900
 151.9630920 101.9496780  29.0957290 151.6427790 101.2306020  29.6402980
 151.2889280 102.6251850  29.1693350 150.0045090 102.7957230  14.0390440
 149.9955190 103.5286920  13.4234950 149.0843450 102.5488810  14.1317400
 145.6051730  98.0172120  14.7837200 144.9979680  98.7571020  14.7932500
 146.0801080  98.1071480  13.9575400 152.9904690 102.8585470  12.7015630
 153.0916670 102.6549460  11.7717610 152.0906430 102.6043750  12.9063410
 150.5130580  93.4165830  16.6839530 149.8046730  93.8852170  17.1253140
 150.7975060  92.7587840  17.3184720 152.1386510  94.8362530  24.6832060
 152.6371760  95.3108350  25.3483910 152.2809460  93.9126050  24.8902090
 151.6322800 105.3771790  17.3963300 151.8864300 105.3393180  16.4742670
 150.6835280 105.2505120  17.3891550 148.7165600  91.7250910  14.0590240
 149.5656130  92.1621060  13.9930430 148.3496870  92.0371170  14.8862300
 147.6157020  97.9783270  12.5325770 148.3820290  97.8664630  13.0951200
 147.6931710  97.2821240  11.8802540 146.3103780  95.4108340  13.2158660
 146.3907370  94.4635850  13.3276060 147.2023530  95.7415220  13.3219320
 147.1118490 105.5603730  20.3193200 147.8480970 105.0119190  20.5901770
 147.4959410 106.4259740  20.1799190 143.9963970 101.6277300  16.1934710
 143.0703750 101.8698440  16.1840120 144.4620400 102.4551560  16.0719460
 146.1176770 104.7449800  29.5078780 146.9189500 105.0661850  29.9214180
 145.6028590 104.3845380  30.2298690 150.2220800 104.7334040  12.1418770
 151.0149410 105.0222870  11.6900560 149.7025150 104.3026210  11.4631250
 143.8374580  97.2323260  28.4514830 144.3413600  96.6530540  29.0231060
 143.0982000  97.5163490  28.9891200 150.7398200  99.9537450  12.0061120
 150.6348840  99.3389800  12.7322500 150.5722420  99.4303340  11.2224130
 150.8912520  98.6394250  27.9850350 150.1258190  99.2079250  27.9005020
 151.0728480  98.3470460  27.0918580 145.8697660  95.3752850  29.3464900
 145.9103000  95.0766720  30.2550130 146.7243160  95.7760460  29.1872420
 149.6476050  97.9748400  14.5068410 150.0692470  97.8088270  15.3499800
 149.7726890  97.1648630  14.0123550 147.8103470  93.9544950  27.3139390
 147.2799930  93.4635900  26.6862730 148.4791540  94.3829150  26.7797320
 152.1603690  96.9986010  11.7545510 152.6809350  96.2835030  11.3886660
 152.8072090  97.6371880  12.0546020 148.2975770  90.9207320  27.3936680
 148.2032640  90.3028070  26.6687550 147.7173160  91.6473610  27.1666590
 151.0637210  89.4780560  24.4264070 150.6154510  89.5004820  23.5809620
 150.4302410  89.0799580  25.0234370 151.4696760  98.3734890  25.0476510
 151.8884870  99.2167620  24.8752750 150.5505390  98.5106930  24.8183290
 148.5434950  94.0481630  11.4526570 148.3424010  93.1848990  11.8139910
 148.3727000  93.9614990  10.5148170 149.3204180 104.6787900  26.1634240
 148.7825270 105.4033960  25.8442940 149.5738140 104.2018240  25.3731580
 150.5729430  92.6472420  27.6890170 151.1629120  92.3388270  28.3767990
 149.7549670  92.1752170  27.8450070 147.3417750  91.1482250  11.4404450
 147.6443650  91.1549680  10.5323600 148.0812340  90.7980110  11.9372110
 152.1766390 105.9139110  26.4220890 152.1025090 106.8174250  26.7293260
 151.2745230 105.5951010  26.3942960 150.5602680  90.0916870  12.4260650
 150.2124680  89.4140860  11.8463100 150.7615450  89.6306380  13.2404040
 146.3647880 100.4524670  12.2734250 146.8022750 100.9954340  12.9291830
 146.8495610  99.6271620  12.2830590 143.5793680 103.2413700  19.7254510
 143.9096690 102.3734760  19.4933150 144.0084680 103.4472220  20.5559470
 148.1755600 101.5722710  17.3856480 147.8751140 101.4487680  18.2860390
 148.0693090 100.7131300  16.9772210 144.0683890 104.1084290  22.4636140
 143.6314880 104.2885090  23.2960290 144.6361570 104.8658910  22.3217860
 143.9008320  96.6204520  18.8225020 143.2457160  96.3516160  18.1784720
 144.7386270  96.5109000  18.3727000 144.9384250  97.0057090  23.3628360
 145.3057290  96.9184490  24.2424380 144.3695070  96.2423640  23.2635220
 144.4900250  93.9166180  27.2686780 143.5956300  93.8832940  27.6080490
 145.0297800  94.1152970  28.0338030 143.1146400  93.8303450  14.7650350
 142.2110480  94.0933650  14.5902010 143.5987020  94.1014620  13.9850310
 145.6573610  92.8868990  12.6744730 146.3665310  92.4652210  12.1892010
 144.9413550  92.9544220  12.0428080 145.3047770  88.9408320  11.7147380
 146.0275900  89.4817260  12.0328600 145.5772290  88.6671740  10.8388920
 144.9939960  88.1914510  21.6170000 145.6416150  87.6411890  21.1765160
 145.4141800  88.4457660  22.4385810 144.7471960  88.3470180  24.3595320
 144.3986780  88.8034000  25.1253500 144.4159660  87.4527310  24.4417750
 146.3536330 101.5189780  28.5248510 146.3105960 101.1482690  29.4062970
 146.4847340 102.4567350  28.6650330 150.0542360 103.0749370  24.1258230
 149.8133720 103.3423930  23.2388750 150.9945000 103.2455100  24.1809090
 145.4192600  87.8746380  27.6346090 145.9675590  87.6934430  26.8712200
 145.4847910  87.0840490  28.1702400 146.1924360 104.4652030  25.6446290
 145.5984680 104.3336730  26.3836330 146.1848200 103.6290170  25.1788390
 145.8236590 101.8310410  24.5954330 145.0970650 101.2115700  24.5280280
 145.8845740 102.2251020  23.7252410 149.4281690 104.0455410  21.3803740
 149.9446710 103.4342770  20.8552000 150.0779070 104.5484190  21.8714750
 152.1677190 104.9363900  22.2072720 152.4555000 104.6818200  21.3305730
 152.6800410 104.3841260  22.7978290 144.1066590 105.1484800  17.8051090
 143.9388630 104.5155480  18.5032980 143.2401100 105.3544200  17.4545280
 144.7294610  88.9801580  15.3082950 145.4873970  89.0930460  14.7346980
 144.2671780  89.8170780  15.2626380 151.2708420  91.0940850  18.2985260
 150.4582930  90.7197740  17.9581140 151.7750060  90.3385930  18.6006450
 145.7129290 103.8418030  15.2501230 145.1876910 104.2226060  14.5463190
 145.6373870 104.4668800  15.9710940 147.1019760  89.5065630  13.8484920
 147.6312520  88.7195430  13.7192870 147.7348080  90.1856820  14.0820450
 149.2957600  89.2440770  16.9030310 148.6660340  88.5428080  17.0700440
 148.7562740  90.0044900  16.6863470 149.4213160  88.5224750  29.3382800
 149.1397430  89.0258350  28.5743620 149.8032860  87.7246500  28.9724930
 148.3122260 105.7900410  14.1250480 149.0441080 105.5059690  13.5774370
 148.5715930 105.5513690  15.0149860 147.4737050 101.9065140  14.1296810
 146.8445930 102.3750240  14.6782640 147.5884880 101.0614360  14.5643000
 147.0770640  98.0469630   3.0383040 146.2455520  97.7918340   3.4379550
 147.6851620  98.1180400   3.7740960 147.0571900 102.0809720   3.2341060
 147.3599940 101.1907460   3.0551280 147.8015490 102.6379940   3.0063310
 143.4495600  95.6077170   2.7065130 144.0211710  94.8399370   2.7068770
 143.4497140  95.9065930   1.7971740 144.6920470  91.0161530   4.4934060
 144.5123310  90.1187280   4.7736820 144.2900550  91.5633400   5.1681010
 145.3107140  93.5122030   3.1016400 145.9917250  93.7760400   3.7203800
 144.9955190  92.6722900   3.4354410 149.5031710  94.5589390   2.1888990
 150.0109930  95.0570360   2.8294010 150.0344950  93.7824590   2.0128350
 147.7867810  89.1987950   6.4552410 147.7886250  89.7160340   5.6498310
 146.9572120  88.7218130   6.4322340 149.0370660  98.8383130   4.6325910
 148.7040040  99.4652050   5.2746980 149.2137340  99.3645010   3.8527580
 147.4683140  90.9097910   4.4622860 147.8099950  91.7539960   4.1676730
 146.5298950  91.0581650   4.5788200 148.2489760 100.8063930   6.4475090
 148.8663760 101.4815010   6.1659540 147.3882880 101.2151910   6.3562590
 149.6130130 100.6761310   2.4686510 149.3158420 100.0706780   1.7894290
 150.5629950 100.7138620   2.3575870 147.8577050  93.7636960   4.0846340
 148.4091640  93.8732300   3.3099590 148.3720560  94.1374560   4.8001570
 148.7048560 100.4143000   9.1194310 147.8077090 100.6382970   9.3667710
 148.7301430 100.5377940   8.1705710 147.5319780  97.2856320   7.6951680
 147.3927550  98.1579120   8.0639080 146.6501140  96.9429130   7.5499620
 149.3300130 103.2278020   9.9036830 149.3015560 103.6320970   9.0365260
 149.1665100 102.2988380   9.7408430 143.4838430  99.0553870   3.6122590
 143.5618850  99.1902640   2.6678310 144.0980110  98.3469760   3.8050710
 143.5397950 100.0968040   6.1517050 143.7028990  99.6273400   5.3336420
 144.0050400  99.5891600   6.8165890 152.5986530  92.0942320   6.7912940
 152.1365900  92.3025340   7.6032880 152.1964640  91.2801670   6.4883610
 150.3492620  89.7721130   3.0467220 150.6464950  90.6783960   2.9659240
 150.8978180  89.2839910   2.4326790 150.5430150  95.2492950   9.5819140
 150.4473750  94.3087680   9.4319540 151.3862130  95.4708020   9.1867210
 145.6740690  91.6606620   7.7352920 145.2804080  92.5081830   7.9425700
 144.9859090  91.0232990   7.9261560 152.2485740  91.7441590  10.8049660
 151.5584060  91.5513790  11.4395750 152.9918040  92.0276230  11.3373960
 142.9757740  89.5835080   1.7683000 142.6870790  90.1537940   2.4807980
 143.7203500  89.1039530   2.1314230 145.1136930  99.4719470   8.3112860
 144.7291720  98.8313140   8.9095820 145.4249120 100.1755590   8.8807590
 151.2634070  96.3196010   3.7921480 151.6304200  95.8454580   4.5382820
 151.0739130  97.1937580   4.1329820 149.0533440  95.3604650   6.1105690
 148.7490510  96.2396630   6.3356050 150.0079900  95.4204440   6.1463130
 145.1097170  96.2007390   7.2577050 144.7512110  96.8661240   7.8450390
 144.8151730  95.3690940   7.6289670 148.3110290  96.6591630  10.1416600
 148.0110430  96.8048810   9.2444420 149.0821530  96.0996920  10.0489990
 143.6845740  89.6900630   7.9349150 142.9704260  89.8897550   8.5401760
 144.1040780  88.9140200   8.3063950 143.9718330 103.6780890   8.9215680
 144.0809450 102.7375630   8.7811070 143.3198890 103.9435640   8.2729410
 151.9630920 101.9496780  10.3213800 151.6427790 101.2306020  10.8659490
 151.2889280 102.6251850  10.3949860 152.1386510  94.8362530   5.9088570
 152.6371760  95.3108350   6.5740420 152.2809460  93.9126050   6.1158600
 146.1176770 104.7449800  10.7335290 146.9189500 105.0661850  11.1470690
 145.6028590 104.3845380  11.4555200 143.8374580  97.2323260   9.6771340
 144.3413600  96.6530540  10.2487570 143.0982000  97.5163490  10.2147710
 150.8912520  98.6394250   9.2106860 150.1258190  99.2079250   9.1261530
 151.0728480  98.3470460   8.3175090 145.8697660  95.3752850  10.5721410
 145.9103000  95.0766720  11.4806640 146.7243160  95.7760460  10.4128930
 147.8103470  93.9544950   8.5395900 147.2799930  93.4635900   7.9119240
 148.4791540  94.3829150   8.0053830 148.2975770  90.9207320   8.6193190
 148.2032640  90.3028070   7.8944060 147.7173160  91.6473610   8.3923100
 151.0637210  89.4780560   5.6520580 150.6154510  89.5004820   4.8066130
 150.4302410  89.0799580   6.2490880 151.4696760  98.3734890   6.2733020
 151.8884870  99.2167620   6.1009260 150.5505390  98.5106930   6.0439800
 149.3204180 104.6787900   7.3890750 148.7825270 105.4033960   7.0699450
 149.5738140 104.2018240   6.5988090 150.5729430  92.6472420   8.9146680
 151.1629120  92.3388270   9.6024500 149.7549670  92.1752170   9.0706580
 152.1766390 105.9139110   7.6477400 152.1025090 106.8174250   7.9549770
 151.2745230 105.5951010   7.6199470 144.0683890 104.1084290   3.6892650
 143.6314880 104.2885090   4.5216800 144.6361570 104.8658910   3.5474370
 144.9384250  97.0057090   4.5884870 145.3057290  96.9184490   5.4680890
 144.3695070  96.2423640   4.4891730 144.4900250  93.9166180   8.4943290
 143.5956300  93.8832940   8.8337000 145.0297800  94.1152970   9.2594540
 144.9939960  88.1914510   2.8426510 145.6416150  87.6411890   2.4021670
 145.4141800  88.4457660   3.6642320 144.7471960  88.3470180   5.5851830
 144.3986780  88.8034000   6.3510010 144.4159660  87.4527310   5.6674260
 146.3536330 101.5189780   9.7505020 146.3105960 101.1482690  10.6319480
 146.4847340 102.4567350   9.8906840 150.0542360 103.0749370   5.3514740
 149.8133720 103.3423930   4.4645260 150.9945000 103.2455100   5.4065600
 145.4192600  87.8746380   8.8602600 145.9675590  87.6934430   8.0968710
 145.4847910  87.0840490   9.3958910 146.1924360 104.4652030   6.8702800
 145.5984680 104.3336730   7.6092840 146.1848200 103.6290170   6.4044900
 145.8236590 101.8310410   5.8210840 145.0970650 101.2115700   5.7536790
 145.8845740 102.2251020   4.9508920 149.4281690 104.0455410   2.6060250
 149.9446710 103.4342770   2.0808510 150.0779070 104.5484190   3.0971260
 152.1677190 104.9363900   3.4329230 152.4555000 104.6818200   2.5562240
 152.6800410 104.3841260   4.0234800 149.4213160  88.5224750  10.5639310
 149.1397430  89.0258350   9.8000130 149.8032860  87.7246500  10.1981440
 145.4862590  74.2328030 147.0173350 144.5979290  74.5744000 146.9153230
 145.7703780  74.0328350 146.1254180 147.6623980  72.8159530 148.0511730
 147.7690730  73.7163260 148.3580490 146.7516340  72.7677500 147.7606380
 143.5422100  81.2220300 145.5229860 143.1650080  81.7107400 144.7914760
 143.7995170  81.8945580 146.1536390 151.1511030  69.6236690 150.9815370
 151.4586010  69.0683580 150.2650870 150.2211730  69.7581150 150.7988360
 149.1448430  78.2150260 150.4995220 148.7405430  77.5027510 150.0041120
 149.2311550  77.8703500 151.3883260 145.8453060  77.1095240 148.0001870
 145.7250660  77.8357330 147.3883140 145.5353950  76.3398150 147.5229780
 144.7286060  81.9810570 150.2176690 144.3214140  82.1225160 149.3630290
 145.6199070  81.6970730 150.0147900 149.0007720  86.1956350 148.3299360
 148.8250200  85.2791890 148.1167160 148.1463460  86.5543640 148.5697160
 148.3116720  70.4530310 151.3825540 147.8684870  71.2339850 151.0510060
 148.8701710  70.7760200 152.0896480 151.4275540  70.0741010 146.2631370
 150.8029720  70.0700880 146.9884680 151.3405660  69.2071970 145.8667340
 148.1030940  75.5763880 149.1106790 147.8771860  75.3601050 150.0153410
 147.3223470  76.0092340 148.7652760 143.1627970  74.7511710 143.1733640
 143.0802640  75.6942470 143.3148630 142.8111030  74.6086620 142.2945990
 150.9626100  73.4850740 152.2403990 150.9662160  73.0440690 151.3908530
 151.8577220  73.8068070 152.3475810 146.8128480  73.3677230 151.1998200
 146.4728530  73.8452460 151.9565250 146.0505800  72.9142350 150.8399300
 151.0246250  74.4862820 145.2310750 151.1459070  74.4449300 146.1796570
 150.6394760  75.3486970 145.0757480 150.0367750  76.7963960 144.6294050
 149.4684650  76.3482210 144.0029960 150.7456750  77.1556740 144.0959200
 144.1274560  72.2896210 150.1162870 143.8421480  71.9251880 150.9541490
 144.0653420  71.5576670 149.5026010 147.5815230  80.7922150 146.9020460
 146.8077490  80.2519770 146.7419180 148.3109860  80.2728760 146.5638220
 147.6252630  80.4602530 150.5399270 148.1431300  79.6570790 150.4856160
 147.1736650  80.3981670 151.3816100 152.5122130  81.7268810 145.8126570
 152.8537830  82.4711040 145.3169890 151.6834840  82.0399930 146.1751400
 151.4812820  81.8082340 148.5842490 152.1683950  82.3551550 148.9650080
 150.6945240  82.3523070 148.6192100 143.6205220  77.4255160 144.0759570
 144.4900070  77.7079960 144.3595490 143.1295540  78.2391030 143.9608380
 150.7840030  78.8128370 148.1967850 151.2402810  79.6233620 148.4228040
 150.4328240  78.4951510 149.0286340 146.6851810  69.1566020 148.6690370
 146.5566440  69.1483920 149.6175290 145.8613830  69.4949110 148.3181380
 143.9876470  86.6382540 144.6421200 144.3474110  87.2371880 143.9878470
 143.8468810  87.1842430 145.4156230 150.0045090  84.0213740 145.4594870
 149.9955190  84.7543430 144.8439380 149.0843450  83.7745320 145.5521830
 145.6051730  79.2428630 146.2041630 144.9979680  79.9827530 146.2136930
 146.0801080  79.3327990 145.3779830 152.9904690  84.0841980 144.1220060
 153.0916670  83.8805970 143.1922040 152.0906430  83.8300260 144.3267840
 150.5130580  74.6422340 148.1043960 149.8046730  75.1108680 148.5457570
 150.7975060  73.9844350 148.7389150 151.6322800  86.6028300 148.8167730
 151.8864300  86.5649690 147.8947100 150.6835280  86.4761630 148.8095980
 148.7165600  72.9507420 145.4794670 149.5656130  73.3877570 145.4134860
 148.3496870  73.2627680 146.3066730 147.6157020  79.2039780 143.9530200
 148.3820290  79.0921140 144.5155630 147.6931710  78.5077750 143.3006970
 146.3103780  76.6364850 144.6363090 146.3907370  75.6892360 144.7480490
 147.2023530  76.9671730 144.7423750 147.1118490  86.7860240 151.7397630
 147.8480970  86.2375700 152.0106200 147.4959410  87.6516250 151.6003620
 143.9963970  82.8533810 147.6139140 143.0703750  83.0954950 147.6044550
 144.4620400  83.6808070 147.4923890 150.2220800  85.9590550 143.5623200
 151.0149410  86.2479380 143.1104990 149.7025150  85.5282720 142.8835680
 150.7398200  81.1793960 143.4265550 150.6348840  80.5646310 144.1526930
 150.5722420  80.6559850 142.6428560 149.6476050  79.2004910 145.9272840
 150.0692470  79.0344780 146.7704230 149.7726890  78.3905140 145.4327980
 152.1603690  78.2242520 143.1749940 152.6809350  77.5091540 142.8091090
 152.8072090  78.8628390 143.4750450 148.5434950  75.2738140 142.8731000
 148.3424010  74.4105500 143.2344340 148.3727000  75.1871500 141.9352600
 147.3417750  72.3738760 142.8608880 147.6443650  72.3806190 141.9528030
 148.0812340  72.0236620 143.3576540 150.5602680  71.3173380 143.8465080
 150.2124680  70.6397370 143.2667530 150.7615450  70.8562890 144.6608470
 146.3647880  81.6781180 143.6938680 146.8022750  82.2210850 144.3496260
 146.8495610  80.8528130 143.7035020 143.5793680  84.4670210 151.1458940
 143.9096690  83.5991270 150.9137580 144.0084680  84.6728730 151.9763900
 148.1755600  82.7979220 148.8060910 147.8751140  82.6744190 149.7064820
 148.0693090  81.9387810 148.3976640 143.9008320  77.8461030 150.2429450
 143.2457160  77.5772670 149.5989150 144.7386270  77.7365510 149.7931430
 143.1146400  75.0559960 146.1854780 142.2110480  75.3190160 146.0106440
 143.5987020  75.3271130 145.4054740 145.6573610  74.1125500 144.0949160
 146.3665310  73.6908720 143.6096440 144.9413550  74.1800730 143.4632510
 145.3047770  70.1664830 143.1351810 146.0275900  70.7073770 143.4533030
 145.5772290  69.8928250 142.2593350 144.1066590  86.3741310 149.2255520
 143.9388630  85.7411990 149.9237410 143.2401100  86.5800710 148.8749710
 144.7294610  70.2058090 146.7287380 145.4873970  70.3186970 146.1551410
 144.2671780  71.0427290 146.6830810 151.2708420  72.3197360 149.7189690
 150.4582930  71.9454250 149.3785570 151.7750060  71.5642440 150.0210880
 145.7129290  85.0674540 146.6705660 145.1876910  85.4482570 145.9667620
 145.6373870  85.6925310 147.3915370 147.1019760  70.7322140 145.2689350
 147.6312520  69.9451940 145.1397300 147.7348080  71.4113330 145.5024880
 149.2957600  70.4697280 148.3234740 148.6660340  69.7684590 148.4904870
 148.7562740  71.2301410 148.1067900 148.3122260  87.0156920 145.5454910
 149.0441080  86.7316200 144.9978800 148.5715930  86.7770200 146.4354290
 147.4737050  83.1321650 145.5501240 146.8445930  83.6006750 146.0987070
 147.5884880  82.2870870 145.9847430 147.0770640  79.2726140 134.4587470
 146.2455520  79.0174850 134.8583980 147.6851620  79.3436910 135.1945390
 147.0571900  83.3066230 134.6545490 147.3599940  82.4163970 134.4755710
 147.8015490  83.8636450 134.4267740 145.4862590  74.2328030 128.2429860
 144.5979290  74.5744000 128.1409740 145.7703780  74.0328350 127.3510690
 143.4495600  76.8333680 134.1269560 144.0211710  76.0655880 134.1273200
 143.4497140  77.1322440 133.2176170 144.6920470  72.2418040 135.9138490
 144.5123310  71.3443790 136.1941250 144.2900550  72.7889910 136.5885440
 147.6623980  72.8159530 129.2768240 147.7690730  73.7163260 129.5837000
 146.7516340  72.7677500 128.9862890 145.3107140  74.7378540 134.5220830
 145.9917250  75.0016910 135.1408230 144.9955190  73.8979410 134.8558840
 149.5031710  75.7845900 133.6093420 150.0109930  76.2826870 134.2498440
 150.0344950  75.0081100 133.4332780 147.7867810  70.4244460 137.8756840
 147.7886250  70.9416850 137.0702740 146.9572120  69.9474640 137.8526770
 149.0370660  80.0639640 136.0530340 148.7040040  80.6908560 136.6951410
 149.2137340  80.5901520 135.2732010 147.4683140  72.1354420 135.8827290
 147.8099950  72.9796470 135.5881160 146.5298950  72.2838160 135.9992630
 148.2489760  82.0320440 137.8679520 148.8663760  82.7071520 137.5863970
 147.3882880  82.4408420 137.7767020 143.5422100  81.2220300 126.7486370
 143.1650080  81.7107400 126.0171270 143.7995170  81.8945580 127.3792900
 151.1511030  69.6236690 132.2071880 151.4586010  69.0683580 131.4907380
 150.2211730  69.7581150 132.0244870 149.1448430  78.2150260 131.7251730
 148.7405430  77.5027510 131.2297630 149.2311550  77.8703500 132.6139770
 149.6130130  81.9017820 133.8890940 149.3158420  81.2963290 133.2098720
 150.5629950  81.9395130 133.7780300 147.8577050  74.9893470 135.5050770
 148.4091640  75.0988810 134.7304020 148.3720560  75.3631070 136.2206000
 148.7048560  81.6399510 140.5398740 147.8077090  81.8639480 140.7872140
 148.7301430  81.7634450 139.5910140 147.5319780  78.5112830 139.1156110
 147.3927550  79.3835630 139.4843510 146.6501140  78.1685640 138.9704050
 149.3300130  84.4534530 141.3241260 149.3015560  84.8577480 140.4569690
 149.1665100  83.5244890 141.1612860 145.8453060  77.1095240 129.2258380
 145.7250660  77.8357330 128.6139650 145.5353950  76.3398150 128.7486290
 143.4838430  80.2810380 135.0327020 143.5618850  80.4159150 134.0882740
 144.0980110  79.5726270 135.2255140 144.7286060  81.9810570 131.4433200
 144.3214140  82.1225160 130.5886800 145.6199070  81.6970730 131.2404410
 149.0007720  86.1956350 129.5555870 148.8250200  85.2791890 129.3423670
 148.1463460  86.5543640 129.7953670 143.5397950  81.3224550 137.5721480
 143.7028990  80.8529910 136.7540850 144.0050400  80.8148110 138.2370320
 148.3116720  70.4530310 132.6082050 147.8684870  71.2339850 132.2766570
 148.8701710  70.7760200 133.3152990 152.5986530  73.3198830 138.2117370
 152.1365900  73.5281850 139.0237310 152.1964640  72.5058180 137.9088040
 151.4275540  70.0741010 127.4887880 150.8029720  70.0700880 128.2141190
 151.3405660  69.2071970 127.0923850 150.3492620  70.9977640 134.4671650
 150.6464950  71.9040470 134.3863670 150.8978180  70.5096420 133.8531220
 148.1030940  75.5763880 130.3363300 147.8771860  75.3601050 131.2409920
 147.3223470  76.0092340 129.9909270 150.5430150  76.4749460 141.0023570
 150.4473750  75.5344190 140.8523970 151.3862130  76.6964530 140.6071640
 145.6740690  72.8863130 139.1557350 145.2804080  73.7338340 139.3630130
 144.9859090  72.2489500 139.3465990 152.2485740  72.9698100 142.2254090
 151.5584060  72.7770300 142.8600180 152.9918040  73.2532740 142.7578390
 142.9757740  70.8091590 133.1887430 142.6870790  71.3794450 133.9012410
 143.7203500  70.3296040 133.5518660 143.1627970  74.7511710 124.3990150
 143.0802640  75.6942470 124.5405140 142.8111030  74.6086620 123.5202500
 150.9626100  73.4850740 133.4660500 150.9662160  73.0440690 132.6165040
 151.8577220  73.8068070 133.5732320 146.8128480  73.3677230 132.4254710
 146.4728530  73.8452460 133.1821760 146.0505800  72.9142350 132.0655810
 151.0246250  74.4862820 126.4567260 151.1459070  74.4449300 127.4053080
 150.6394760  75.3486970 126.3013990 150.0367750  76.7963960 125.8550560
 149.4684650  76.3482210 125.2286470 150.7456750  77.1556740 125.3215710
 145.1136930  80.6975980 139.7317290 144.7291720  80.0569650 140.3300250
 145.4249120  81.4012100 140.3012020 151.2634070  77.5452520 135.2125910
 151.6304200  77.0711090 135.9587250 151.0739130  78.4194090 135.5534250
 144.1274560  72.2896210 131.3419380 143.8421480  71.9251880 132.1798000
 144.0653420  71.5576670 130.7282520 149.0533440  76.5861160 137.5310120
 148.7490510  77.4653140 137.7560480 150.0079900  76.6460950 137.5667560
 147.5815230  80.7922150 128.1276970 146.8077490  80.2519770 127.9675690
 148.3109860  80.2728760 127.7894730 147.6252630  80.4602530 131.7655780
 148.1431300  79.6570790 131.7112670 147.1736650  80.3981670 132.6072610
 152.5122130  81.7268810 127.0383080 152.8537830  82.4711040 126.5426400
 151.6834840  82.0399930 127.4007910 145.1097170  77.4263900 138.6781480
 144.7512110  78.0917750 139.2654820 144.8151730  76.5947450 139.0494100
 148.3110290  77.8848140 141.5621030 148.0110430  78.0305320 140.6648850
 149.0821530  77.3253430 141.4694420 151.4812820  81.8082340 129.8099000
 152.1683950  82.3551550 130.1906590 150.6945240  82.3523070 129.8448610
 143.6205220  77.4255160 125.3016080 144.4900070  77.7079960 125.5852000
 143.1295540  78.2391030 125.1864890 150.7840030  78.8128370 129.4224360
 151.2402810  79.6233620 129.6484550 150.4328240  78.4951510 130.2542850
 146.6851810  69.1566020 129.8946880 146.5566440  69.1483920 130.8431800
 145.8613830  69.4949110 129.5437890 143.9876470  86.6382540 125.8677710
 144.3474110  87.2371880 125.2134980 143.8468810  87.1842430 126.6412740
 143.6845740  70.9157140 139.3553580 142.9704260  71.1154060 139.9606190
 144.1040780  70.1396710 139.7268380 143.9718330  84.9037400 140.3420110
 144.0809450  83.9632140 140.2015500 143.3198890  85.1692150 139.6933840
 151.9630920  83.1753290 141.7418230 151.6427790  82.4562530 142.2863920
 151.2889280  83.8508360 141.8154290 150.0045090  84.0213740 126.6851380
 149.9955190  84.7543430 126.0695890 149.0843450  83.7745320 126.7778340
 145.6051730  79.2428630 127.4298140 144.9979680  79.9827530 127.4393440
 146.0801080  79.3327990 126.6036340 152.9904690  84.0841980 125.3476570
 153.0916670  83.8805970 124.4178550 152.0906430  83.8300260 125.5524350
 150.5130580  74.6422340 129.3300470 149.8046730  75.1108680 129.7714080
 150.7975060  73.9844350 129.9645660 152.1386510  76.0619040 137.3293000
 152.6371760  76.5364860 137.9944850 152.2809460  75.1382560 137.5363030
 151.6322800  86.6028300 130.0424240 151.8864300  86.5649690 129.1203610
 150.6835280  86.4761630 130.0352490 148.7165600  72.9507420 126.7051180
 149.5656130  73.3877570 126.6391370 148.3496870  73.2627680 127.5323240
 147.6157020  79.2039780 125.1786710 148.3820290  79.0921140 125.7412140
 147.6931710  78.5077750 124.5263480 146.3103780  76.6364850 125.8619600
 146.3907370  75.6892360 125.9737000 147.2023530  76.9671730 125.9680260
 147.1118490  86.7860240 132.9654140 147.8480970  86.2375700 133.2362710
 147.4959410  87.6516250 132.8260130 143.9963970  82.8533810 128.8395650
 143.0703750  83.0954950 128.8301060 144.4620400  83.6808070 128.7180400
 146.1176770  85.9706310 142.1539720 146.9189500  86.2918360 142.5675120
 145.6028590  85.6101890 142.8759630 150.2220800  85.9590550 124.7879710
 151.0149410  86.2479380 124.3361500 149.7025150  85.5282720 124.1092190
 143.8374580  78.4579770 141.0975770 144.3413600  77.8787050 141.6692000
 143.0982000  78.7420000 141.6352140 150.7398200  81.1793960 124.6522060
 150.6348840  80.5646310 125.3783440 150.5722420  80.6559850 123.8685070
 150.8912520  79.8650760 140.6311290 150.1258190  80.4335760 140.5465960
 151.0728480  79.5726970 139.7379520 145.8697660  76.6009360 141.9925840
 145.9103000  76.3023230 142.9011070 146.7243160  77.0016970 141.8333360
 149.6476050  79.2004910 127.1529350 150.0692470  79.0344780 127.9960740
 149.7726890  78.3905140 126.6584490 147.8103470  75.1801460 139.9600330
 147.2799930  74.6892410 139.3323670 148.4791540  75.6085660 139.4258260
 152.1603690  78.2242520 124.4006450 152.6809350  77.5091540 124.0347600
 152.8072090  78.8628390 124.7006960 148.2975770  72.1463830 140.0397620
 148.2032640  71.5284580 139.3148490 147.7173160  72.8730120 139.8127530
 151.0637210  70.7037070 137.0725010 150.6154510  70.7261330 136.2270560
 150.4302410  70.3056090 137.6695310 151.4696760  79.5991400 137.6937450
 151.8884870  80.4424130 137.5213690 150.5505390  79.7363440 137.4644230
 148.5434950  75.2738140 124.0987510 148.3424010  74.4105500 124.4600850
 148.3727000  75.1871500 123.1609110 149.3204180  85.9044410 138.8095180
 148.7825270  86.6290470 138.4903880 149.5738140  85.4274750 138.0192520
 150.5729430  73.8728930 140.3351110 151.1629120  73.5644780 141.0228930
 149.7549670  73.4008680 140.4911010 147.3417750  72.3738760 124.0865390
 147.6443650  72.3806190 123.1784540 148.0812340  72.0236620 124.5833050
 152.1766390  87.1395620 139.0681830 152.1025090  88.0430760 139.3754200
 151.2745230  86.8207520 139.0403900 150.5602680  71.3173380 125.0721590
 150.2124680  70.6397370 124.4924040 150.7615450  70.8562890 125.8864980
 146.3647880  81.6781180 124.9195190 146.8022750  82.2210850 125.5752770
 146.8495610  80.8528130 124.9291530 143.5793680  84.4670210 132.3715450
 143.9096690  83.5991270 132.1394090 144.0084680  84.6728730 133.2020410
 148.1755600  82.7979220 130.0317420 147.8751140  82.6744190 130.9321330
 148.0693090  81.9387810 129.6233150 144.0683890  85.3340800 135.1097080
 143.6314880  85.5141600 135.9421230 144.6361570  86.0915420 134.9678800
 143.9008320  77.8461030 131.4685960 143.2457160  77.5772670 130.8245660
 144.7386270  77.7365510 131.0187940 144.9384250  78.2313600 136.0089300
 145.3057290  78.1441000 136.8885320 144.3695070  77.4680150 135.9096160
 144.4900250  75.1422690 139.9147720 143.5956300  75.1089450 140.2541430
 145.0297800  75.3409480 140.6798970 143.1146400  75.0559960 127.4111290
 142.2110480  75.3190160 127.2362950 143.5987020  75.3271130 126.6311250
 145.6573610  74.1125500 125.3205670 146.3665310  73.6908720 124.8352950
 144.9413550  74.1800730 124.6889020 145.3047770  70.1664830 124.3608320
 146.0275900  70.7073770 124.6789540 145.5772290  69.8928250 123.4849860
 144.9939960  69.4171020 134.2630940 145.6416150  68.8668400 133.8226100
 145.4141800  69.6714170 135.0846750 144.7471960  69.5726690 137.0056260
 144.3986780  70.0290510 137.7714440 144.4159660  68.6783820 137.0878690
 146.3536330  82.7446290 141.1709450 146.3105960  82.3739200 142.0523910
 146.4847340  83.6823860 141.3111270 150.0542360  84.3005880 136.7719170
 149.8133720  84.5680440 135.8849690 150.9945000  84.4711610 136.8270030
 145.4192600  69.1002890 140.2807030 145.9675590  68.9190940 139.5173140
 145.4847910  68.3097000 140.8163340 146.1924360  85.6908540 138.2907230
 145.5984680  85.5593240 139.0297270 146.1848200  84.8546680 137.8249330
 145.8236590  83.0566920 137.2415270 145.0970650  82.4372210 137.1741220
 145.8845740  83.4507530 136.3713350 149.4281690  85.2711920 134.0264680
 149.9446710  84.6599280 133.5012940 150.0779070  85.7740700 134.5175690
 152.1677190  86.1620410 134.8533660 152.4555000  85.9074710 133.9766670
 152.6800410  85.6097770 135.4439230 144.1066590  86.3741310 130.4512030
 143.9388630  85.7411990 131.1493920 143.2401100  86.5800710 130.1006220
 144.7294610  70.2058090 127.9543890 145.4873970  70.3186970 127.3807920
 144.2671780  71.0427290 127.9087320 151.2708420  72.3197360 130.9446200
 150.4582930  71.9454250 130.6042080 151.7750060  71.5642440 131.2467390
 145.7129290  85.0674540 127.8962170 145.1876910  85.4482570 127.1924130
 145.6373870  85.6925310 128.6171880 147.1019760  70.7322140 126.4945860
 147.6312520  69.9451940 126.3653810 147.7348080  71.4113330 126.7281390
 149.2957600  70.4697280 129.5491250 148.6660340  69.7684590 129.7161380
 148.7562740  71.2301410 129.3324410 149.4213160  69.7481260 141.9843740
 149.1397430  70.2514860 141.2204560 149.8032860  68.9503010 141.6185870
 148.3122260  87.0156920 126.7711420 149.0441080  86.7316200 126.2235310
 148.5715930  86.7770200 127.6610800 147.4737050  83.1321650 126.7757750
 146.8445930  83.6006750 127.3243580 147.5884880  82.2870870 127.2103940
 147.0770640  79.2726140 115.6843980 146.2455520  79.0174850 116.0840490
 147.6851620  79.3436910 116.4201900 147.0571900  83.3066230 115.8802000
 147.3599940  82.4163970 115.7012220 147.8015490  83.8636450 115.6524250
 145.4862590  74.2328030 109.4686370 144.5979290  74.5744000 109.3666250
 145.7703780  74.0328350 108.5767200 143.4495600  76.8333680 115.3526070
 144.0211710  76.0655880 115.3529710 143.4497140  77.1322440 114.4432680
 144.6920470  72.2418040 117.1395000 144.5123310  71.3443790 117.4197760
 144.2900550  72.7889910 117.8141950 147.6623980  72.8159530 110.5024750
 147.7690730  73.7163260 110.8093510 146.7516340  72.7677500 110.2119400
 145.3107140  74.7378540 115.7477340 145.9917250  75.0016910 116.3664740
 144.9955190  73.8979410 116.0815350 149.5031710  75.7845900 114.8349930
 150.0109930  76.2826870 115.4754950 150.0344950  75.0081100 114.6589290
 147.7867810  70.4244460 119.1013350 147.7886250  70.9416850 118.2959250
 146.9572120  69.9474640 119.0783280 149.0370660  80.0639640 117.2786850
 148.7040040  80.6908560 117.9207920 149.2137340  80.5901520 116.4988520
 147.4683140  72.1354420 117.1083800 147.8099950  72.9796470 116.8137670
 146.5298950  72.2838160 117.2249140 148.2489760  82.0320440 119.0936030
 148.8663760  82.7071520 118.8120480 147.3882880  82.4408420 119.0023530
 143.5422100  81.2220300 107.9742880 143.1650080  81.7107400 107.2427780
 143.7995170  81.8945580 108.6049410 151.1511030  69.6236690 113.4328390
 151.4586010  69.0683580 112.7163890 150.2211730  69.7581150 113.2501380
 149.1448430  78.2150260 112.9508240 148.7405430  77.5027510 112.4554140
 149.2311550  77.8703500 113.8396280 149.6130130  81.9017820 115.1147450
 149.3158420  81.2963290 114.4355230 150.5629950  81.9395130 115.0036810
 147.8577050  74.9893470 116.7307280 148.4091640  75.0988810 115.9560530
 148.3720560  75.3631070 117.4462510 148.7048560  81.6399510 121.7655250
 147.8077090  81.8639480 122.0128650 148.7301430  81.7634450 120.8166650
 147.5319780  78.5112830 120.3412620 147.3927550  79.3835630 120.7100020
 146.6501140  78.1685640 120.1960560 149.3300130  84.4534530 122.5497770
 149.3015560  84.8577480 121.6826200 149.1665100  83.5244890 122.3869370
 145.8453060  77.1095240 110.4514890 145.7250660  77.8357330 109.8396160
 145.5353950  76.3398150 109.9742800 143.4838430  80.2810380 116.2583530
 143.5618850  80.4159150 115.3139250 144.0980110  79.5726270 116.4511650
 144.7286060  81.9810570 112.6689710 144.3214140  82.1225160 111.8143310
 145.6199070  81.6970730 112.4660920 149.0007720  86.1956350 110.7812380
 148.8250200  85.2791890 110.5680180 148.1463460  86.5543640 111.0210180
 143.5397950  81.3224550 118.7977990 143.7028990  80.8529910 117.9797360
 144.0050400  80.8148110 119.4626830 148.3116720  70.4530310 113.8338560
 147.8684870  71.2339850 113.5023080 148.8701710  70.7760200 114.5409500
 152.5986530  73.3198830 119.4373880 152.1365900  73.5281850 120.2493820
 152.1964640  72.5058180 119.1344550 151.4275540  70.0741010 108.7144390
 150.8029720  70.0700880 109.4397700 151.3405660  69.2071970 108.3180360
 150.3492620  70.9977640 115.6928160 150.6464950  71.9040470 115.6120180
 150.8978180  70.5096420 115.0787730 148.1030940  75.5763880 111.5619810
 147.8771860  75.3601050 112.4666430 147.3223470  76.0092340 111.2165780
 150.5430150  76.4749460 122.2280080 150.4473750  75.5344190 122.0780480
 151.3862130  76.6964530 121.8328150 145.6740690  72.8863130 120.3813860
 145.2804080  73.7338340 120.5886640 144.9859090  72.2489500 120.5722500
 152.2485740  72.9698100 123.4510600 151.5584060  72.7770300 124.0856690
 152.9918040  73.2532740 123.9834900 142.9757740  70.8091590 114.4143940
 142.6870790  71.3794450 115.1268920 143.7203500  70.3296040 114.7775170
 143.1627970  74.7511710 105.6246660 143.0802640  75.6942470 105.7661650
 142.8111030  74.6086620 104.7459010 150.9626100  73.4850740 114.6917010
 150.9662160  73.0440690 113.8421550 151.8577220  73.8068070 114.7988830
 146.8128480  73.3677230 113.6511220 146.4728530  73.8452460 114.4078270
 146.0505800  72.9142350 113.2912320 151.0246250  74.4862820 107.6823770
 151.1459070  74.4449300 108.6309590 150.6394760  75.3486970 107.5270500
 150.0367750  76.7963960 107.0807070 149.4684650  76.3482210 106.4542980
 150.7456750  77.1556740 106.5472220 145.1136930  80.6975980 120.9573800
 144.7291720  80.0569650 121.5556760 145.4249120  81.4012100 121.5268530
 151.2634070  77.5452520 116.4382420 151.6304200  77.0711090 117.1843760
 151.0739130  78.4194090 116.7790760 144.1274560  72.2896210 112.5675890
 143.8421480  71.9251880 113.4054510 144.0653420  71.5576670 111.9539030
 149.0533440  76.5861160 118.7566630 148.7490510  77.4653140 118.9816990
 150.0079900  76.6460950 118.7924070 147.5815230  80.7922150 109.3533480
 146.8077490  80.2519770 109.1932200 148.3109860  80.2728760 109.0151240
 147.6252630  80.4602530 112.9912290 148.1431300  79.6570790 112.9369180
 147.1736650  80.3981670 113.8329120 152.5122130  81.7268810 108.2639590
 152.8537830  82.4711040 107.7682910 151.6834840  82.0399930 108.6264420
 145.1097170  77.4263900 119.9037990 144.7512110  78.0917750 120.4911330
 144.8151730  76.5947450 120.2750610 148.3110290  77.8848140 122.7877540
 148.0110430  78.0305320 121.8905360 149.0821530  77.3253430 122.6950930
 151.4812820  81.8082340 111.0355510 152.1683950  82.3551550 111.4163100
 150.6945240  82.3523070 111.0705120 143.6205220  77.4255160 106.5272590
 144.4900070  77.7079960 106.8108510 143.1295540  78.2391030 106.4121400
 150.7840030  78.8128370 110.6480870 151.2402810  79.6233620 110.8741060
 150.4328240  78.4951510 111.4799360 146.6851810  69.1566020 111.1203390
 146.5566440  69.1483920 112.0688310 145.8613830  69.4949110 110.7694400
 143.9876470  86.6382540 107.0934220 144.3474110  87.2371880 106.4391490
 143.8468810  87.1842430 107.8669250 143.6845740  70.9157140 120.5810090
 142.9704260  71.1154060 121.1862700 144.1040780  70.1396710 120.9524890
 143.9718330  84.9037400 121.5676620 144.0809450  83.9632140 121.4272010
 143.3198890  85.1692150 120.9190350 151.9630920  83.1753290 122.9674740
 151.6427790  82.4562530 123.5120430 151.2889280  83.8508360 123.0410800
 150.0045090  84.0213740 107.9107890 149.9955190  84.7543430 107.2952400
 149.0843450  83.7745320 108.0034850 145.6051730  79.2428630 108.6554650
 144.9979680  79.9827530 108.6649950 146.0801080  79.3327990 107.8292850
 152.9904690  84.0841980 106.5733080 153.0916670  83.8805970 105.6435060
 152.0906430  83.8300260 106.7780860 150.5130580  74.6422340 110.5556980
 149.8046730  75.1108680 110.9970590 150.7975060  73.9844350 111.1902170
 152.1386510  76.0619040 118.5549510 152.6371760  76.5364860 119.2201360
 152.2809460  75.1382560 118.7619540 151.6322800  86.6028300 111.2680750
 151.8864300  86.5649690 110.3460120 150.6835280  86.4761630 111.2609000
 148.7165600  72.9507420 107.9307690 149.5656130  73.3877570 107.8647880
 148.3496870  73.2627680 108.7579750 147.6157020  79.2039780 106.4043220
 148.3820290  79.0921140 106.9668650 147.6931710  78.5077750 105.7519990
 146.3103780  76.6364850 107.0876110 146.3907370  75.6892360 107.1993510
 147.2023530  76.9671730 107.1936770 147.1118490  86.7860240 114.1910650
 147.8480970  86.2375700 114.4619220 147.4959410  87.6516250 114.0516640
 143.9963970  82.8533810 110.0652160 143.0703750  83.0954950 110.0557570
 144.4620400  83.6808070 109.9436910 146.1176770  85.9706310 123.3796230
 146.9189500  86.2918360 123.7931630 145.6028590  85.6101890 124.1016140
 150.2220800  85.9590550 106.0136220 151.0149410  86.2479380 105.5618010
 149.7025150  85.5282720 105.3348700 143.8374580  78.4579770 122.3232280
 144.3413600  77.8787050 122.8948510 143.0982000  78.7420000 122.8608650
 150.7398200  81.1793960 105.8778570 150.6348840  80.5646310 106.6039950
 150.5722420  80.6559850 105.0941580 150.8912520  79.8650760 121.8567800
 150.1258190  80.4335760 121.7722470 151.0728480  79.5726970 120.9636030
 145.8697660  76.6009360 123.2182350 145.9103000  76.3023230 124.1267580
 146.7243160  77.0016970 123.0589870 149.6476050  79.2004910 108.3785860
 150.0692470  79.0344780 109.2217250 149.7726890  78.3905140 107.8841000
 147.8103470  75.1801460 121.1856840 147.2799930  74.6892410 120.5580180
 148.4791540  75.6085660 120.6514770 152.1603690  78.2242520 105.6262960
 152.6809350  77.5091540 105.2604110 152.8072090  78.8628390 105.9263470
 148.2975770  72.1463830 121.2654130 148.2032640  71.5284580 120.5405000
 147.7173160  72.8730120 121.0384040 151.0637210  70.7037070 118.2981520
 150.6154510  70.7261330 117.4527070 150.4302410  70.3056090 118.8951820
 151.4696760  79.5991400 118.9193960 151.8884870  80.4424130 118.7470200
 150.5505390  79.7363440 118.6900740 148.5434950  75.2738140 105.3244020
 148.3424010  74.4105500 105.6857360 148.3727000  75.1871500 104.3865620
 149.3204180  85.9044410 120.0351690 148.7825270  86.6290470 119.7160390
 149.5738140  85.4274750 119.2449030 150.5729430  73.8728930 121.5607620
 151.1629120  73.5644780 122.2485440 149.7549670  73.4008680 121.7167520
 147.3417750  72.3738760 105.3121900 147.6443650  72.3806190 104.4041050
 148.0812340  72.0236620 105.8089560 152.1766390  87.1395620 120.2938340
 152.1025090  88.0430760 120.6010710 151.2745230  86.8207520 120.2660410
 150.5602680  71.3173380 106.2978100 150.2124680  70.6397370 105.7180550
 150.7615450  70.8562890 107.1121490 146.3647880  81.6781180 106.1451700
 146.8022750  82.2210850 106.8009280 146.8495610  80.8528130 106.1548040
 143.5793680  84.4670210 113.5971960 143.9096690  83.5991270 113.3650600
 144.0084680  84.6728730 114.4276920 148.1755600  82.7979220 111.2573930
 147.8751140  82.6744190 112.1577840 148.0693090  81.9387810 110.8489660
 144.0683890  85.3340800 116.3353590 143.6314880  85.5141600 117.1677740
 144.6361570  86.0915420 116.1935310 143.9008320  77.8461030 112.6942470
 143.2457160  77.5772670 112.0502170 144.7386270  77.7365510 112.2444450
 144.9384250  78.2313600 117.2345810 145.3057290  78.1441000 118.1141830
 144.3695070  77.4680150 117.1352670 144.4900250  75.1422690 121.1404230
 143.5956300  75.1089450 121.4797940 145.0297800  75.3409480 121.9055480
 143.1146400  75.0559960 108.6367800 142.2110480  75.3190160 108.4619460
 143.5987020  75.3271130 107.8567760 145.6573610  74.1125500 106.5462180
 146.3665310  73.6908720 106.0609460 144.9413550  74.1800730 105.9145530
 145.3047770  70.1664830 105.5864830 146.0275900  70.7073770 105.9046050
 145.5772290  69.8928250 104.7106370 144.9939960  69.4171020 115.4887450
 145.6416150  68.8668400 115.0482610 145.4141800  69.6714170 116.3103260
 144.7471960  69.5726690 118.2312770 144.3986780  70.0290510 118.9970950
 144.4159660  68.6783820 118.3135200 146.3536330  82.7446290 122.3965960
 146.3105960  82.3739200 123.2780420 146.4847340  83.6823860 122.5367780
 150.0542360  84.3005880 117.9975680 149.8133720  84.5680440 117.1106200
 150.9945000  84.4711610 118.0526540 145.4192600  69.1002890 121.5063540
 145.9675590  68.9190940 120.7429650 145.4847910  68.3097000 122.0419850
 146.1924360  85.6908540 119.5163740 145.5984680  85.5593240 120.2553780
 146.1848200  84.8546680 119.0505840 145.8236590  83.0566920 118.4671780
 145.0970650  82.4372210 118.3997730 145.8845740  83.4507530 117.5969860
 149.4281690  85.2711920 115.2521190 149.9446710  84.6599280 114.7269450
 150.0779070  85.7740700 115.7432200 152.1677190  86.1620410 116.0790170
 152.4555000  85.9074710 115.2023180 152.6800410  85.6097770 116.6695740
 144.1066590  86.3741310 111.6768540 143.9388630  85.7411990 112.3750430
 143.2401100  86.5800710 111.3262730 144.7294610  70.2058090 109.1800400
 145.4873970  70.3186970 108.6064430 144.2671780  71.0427290 109.1343830
 151.2708420  72.3197360 112.1702710 150.4582930  71.9454250 111.8298590
 151.7750060  71.5642440 112.4723900 145.7129290  85.0674540 109.1218680
 145.1876910  85.4482570 108.4180640 145.6373870  85.6925310 109.8428390
 147.1019760  70.7322140 107.7202370 147.6312520  69.9451940 107.5910320
 147.7348080  71.4113330 107.9537900 149.2957600  70.4697280 110.7747760
 148.6660340  69.7684590 110.9417890 148.7562740  71.2301410 110.5580920
 149.4213160  69.7481260 123.2100250 149.1397430  70.2514860 122.4461070
 149.8032860  68.9503010 122.8442380 148.3122260  87.0156920 107.9967930
 149.0441080  86.7316200 107.4491820 148.5715930  86.7770200 108.8867310
 147.4737050  83.1321650 108.0014260 146.8445930  83.6006750 108.5500090
 147.5884880  82.2870870 108.4360450 147.0770640  79.2726140  96.9100490
 146.2455520  79.0174850  97.3097000 147.6851620  79.3436910  97.6458410
 147.0571900  83.3066230  97.1058510 147.3599940  82.4163970  96.9268730
 147.8015490  83.8636450  96.8780760 145.4862590  74.2328030  90.6942880
 144.5979290  74.5744000  90.5922760 145.7703780  74.0328350  89.8023710
 143.4495600  76.8333680  96.5782580 144.0211710  76.0655880  96.5786220
 143.4497140  77.1322440  95.6689190 144.6920470  72.2418040  98.3651510
 144.5123310  71.3443790  98.6454270 144.2900550  72.7889910  99.0398460
 147.6623980  72.8159530  91.7281260 147.7690730  73.7163260  92.0350020
 146.7516340  72.7677500  91.4375910 145.3107140  74.7378540  96.9733850
 145.9917250  75.0016910  97.5921250 144.9955190  73.8979410  97.3071860
 149.5031710  75.7845900  96.0606440 150.0109930  76.2826870  96.7011460
 150.0344950  75.0081100  95.8845800 147.7867810  70.4244460 100.3269860
 147.7886250  70.9416850  99.5215760 146.9572120  69.9474640 100.3039790
 149.0370660  80.0639640  98.5043360 148.7040040  80.6908560  99.1464430
 149.2137340  80.5901520  97.7245030 147.4683140  72.1354420  98.3340310
 147.8099950  72.9796470  98.0394180 146.5298950  72.2838160  98.4505650
 148.2489760  82.0320440 100.3192540 148.8663760  82.7071520 100.0376990
 147.3882880  82.4408420 100.2280040 143.5422100  81.2220300  89.1999390
 143.1650080  81.7107400  88.4684290 143.7995170  81.8945580  89.8305920
 151.1511030  69.6236690  94.6584900 151.4586010  69.0683580  93.9420400
 150.2211730  69.7581150  94.4757890 149.1448430  78.2150260  94.1764750
 148.7405430  77.5027510  93.6810650 149.2311550  77.8703500  95.0652790
 149.6130130  81.9017820  96.3403960 149.3158420  81.2963290  95.6611740
 150.5629950  81.9395130  96.2293320 147.8577050  74.9893470  97.9563790
 148.4091640  75.0988810  97.1817040 148.3720560  75.3631070  98.6719020
 148.7048560  81.6399510 102.9911760 147.8077090  81.8639480 103.2385160
 148.7301430  81.7634450 102.0423160 147.5319780  78.5112830 101.5669130
 147.3927550  79.3835630 101.9356530 146.6501140  78.1685640 101.4217070
 149.3300130  84.4534530 103.7754280 149.3015560  84.8577480 102.9082710
 149.1665100  83.5244890 103.6125880 145.8453060  77.1095240  91.6771400
 145.7250660  77.8357330  91.0652670 145.5353950  76.3398150  91.1999310
 143.4838430  80.2810380  97.4840040 143.5618850  80.4159150  96.5395760
 144.0980110  79.5726270  97.6768160 144.7286060  81.9810570  93.8946220
 144.3214140  82.1225160  93.0399820 145.6199070  81.6970730  93.6917430
 149.0007720  86.1956350  92.0068890 148.8250200  85.2791890  91.7936690
 148.1463460  86.5543640  92.2466690 143.5397950  81.3224550 100.0234500
 143.7028990  80.8529910  99.2053870 144.0050400  80.8148110 100.6883340
 148.3116720  70.4530310  95.0595070 147.8684870  71.2339850  94.7279590
 148.8701710  70.7760200  95.7666010 152.5986530  73.3198830 100.6630390
 152.1365900  73.5281850 101.4750330 152.1964640  72.5058180 100.3601060
 151.4275540  70.0741010  89.9400900 150.8029720  70.0700880  90.6654210
 151.3405660  69.2071970  89.5436870 150.3492620  70.9977640  96.9184670
 150.6464950  71.9040470  96.8376690 150.8978180  70.5096420  96.3044240
 148.1030940  75.5763880  92.7876320 147.8771860  75.3601050  93.6922940
 147.3223470  76.0092340  92.4422290 150.5430150  76.4749460 103.4536590
 150.4473750  75.5344190 103.3036990 151.3862130  76.6964530 103.0584660
 145.6740690  72.8863130 101.6070370 145.2804080  73.7338340 101.8143150
 144.9859090  72.2489500 101.7979010 152.2485740  72.9698100 104.6767110
 151.5584060  72.7770300 105.3113200 152.9918040  73.2532740 105.2091410
 142.9757740  70.8091590  95.6400450 142.6870790  71.3794450  96.3525430
 143.7203500  70.3296040  96.0031680 143.1627970  74.7511710  86.8503170
 143.0802640  75.6942470  86.9918160 142.8111030  74.6086620  85.9715520
 150.9626100  73.4850740  95.9173520 150.9662160  73.0440690  95.0678060
 151.8577220  73.8068070  96.0245340 146.8128480  73.3677230  94.8767730
 146.4728530  73.8452460  95.6334780 146.0505800  72.9142350  94.5168830
 151.0246250  74.4862820  88.9080280 151.1459070  74.4449300  89.8566100
 150.6394760  75.3486970  88.7527010 150.0367750  76.7963960  88.3063580
 149.4684650  76.3482210  87.6799490 150.7456750  77.1556740  87.7728730
 145.1136930  80.6975980 102.1830310 144.7291720  80.0569650 102.7813270
 145.4249120  81.4012100 102.7525040 151.2634070  77.5452520  97.6638930
 151.6304200  77.0711090  98.4100270 151.0739130  78.4194090  98.0047270
 144.1274560  72.2896210  93.7932400 143.8421480  71.9251880  94.6311020
 144.0653420  71.5576670  93.1795540 149.0533440  76.5861160  99.9823140
 148.7490510  77.4653140 100.2073500 150.0079900  76.6460950 100.0180580
 147.5815230  80.7922150  90.5789990 146.8077490  80.2519770  90.4188710
 148.3109860  80.2728760  90.2407750 147.6252630  80.4602530  94.2168800
 148.1431300  79.6570790  94.1625690 147.1736650  80.3981670  95.0585630
 152.5122130  81.7268810  89.4896100 152.8537830  82.4711040  88.9939420
 151.6834840  82.0399930  89.8520930 145.1097170  77.4263900 101.1294500
 144.7512110  78.0917750 101.7167840 144.8151730  76.5947450 101.5007120
 148.3110290  77.8848140 104.0134050 148.0110430  78.0305320 103.1161870
 149.0821530  77.3253430 103.9207440 151.4812820  81.8082340  92.2612020
 152.1683950  82.3551550  92.6419610 150.6945240  82.3523070  92.2961630
 143.6205220  77.4255160  87.7529100 144.4900070  77.7079960  88.0365020
 143.1295540  78.2391030  87.6377910 150.7840030  78.8128370  91.8737380
 151.2402810  79.6233620  92.0997570 150.4328240  78.4951510  92.7055870
 146.6851810  69.1566020  92.3459900 146.5566440  69.1483920  93.2944820
 145.8613830  69.4949110  91.9950910 143.9876470  86.6382540  88.3190730
 144.3474110  87.2371880  87.6648000 143.8468810  87.1842430  89.0925760
 143.6845740  70.9157140 101.8066600 142.9704260  71.1154060 102.4119210
 144.1040780  70.1396710 102.1781400 143.9718330  84.9037400 102.7933130
 144.0809450  83.9632140 102.6528520 143.3198890  85.1692150 102.1446860
 151.9630920  83.1753290 104.1931250 151.6427790  82.4562530 104.7376940
 151.2889280  83.8508360 104.2667310 150.0045090  84.0213740  89.1364400
 149.9955190  84.7543430  88.5208910 149.0843450  83.7745320  89.2291360
 145.6051730  79.2428630  89.8811160 144.9979680  79.9827530  89.8906460
 146.0801080  79.3327990  89.0549360 152.9904690  84.0841980  87.7989590
 153.0916670  83.8805970  86.8691570 152.0906430  83.8300260  88.0037370
 150.5130580  74.6422340  91.7813490 149.8046730  75.1108680  92.2227100
 150.7975060  73.9844350  92.4158680 152.1386510  76.0619040  99.7806020
 152.6371760  76.5364860 100.4457870 152.2809460  75.1382560  99.9876050
 151.6322800  86.6028300  92.4937260 151.8864300  86.5649690  91.5716630
 150.6835280  86.4761630  92.4865510 148.7165600  72.9507420  89.1564200
 149.5656130  73.3877570  89.0904390 148.3496870  73.2627680  89.9836260
 147.6157020  79.2039780  87.6299730 148.3820290  79.0921140  88.1925160
 147.6931710  78.5077750  86.9776500 146.3103780  76.6364850  88.3132620
 146.3907370  75.6892360  88.4250020 147.2023530  76.9671730  88.4193280
 147.1118490  86.7860240  95.4167160 147.8480970  86.2375700  95.6875730
 147.4959410  87.6516250  95.2773150 143.9963970  82.8533810  91.2908670
 143.0703750  83.0954950  91.2814080 144.4620400  83.6808070  91.1693420
 146.1176770  85.9706310 104.6052740 146.9189500  86.2918360 105.0188140
 145.6028590  85.6101890 105.3272650 150.2220800  85.9590550  87.2392730
 151.0149410  86.2479380  86.7874520 149.7025150  85.5282720  86.5605210
 143.8374580  78.4579770 103.5488790 144.3413600  77.8787050 104.1205020
 143.0982000  78.7420000 104.0865160 150.7398200  81.1793960  87.1035080
 150.6348840  80.5646310  87.8296460 150.5722420  80.6559850  86.3198090
 150.8912520  79.8650760 103.0824310 150.1258190  80.4335760 102.9978980
 151.0728480  79.5726970 102.1892540 145.8697660  76.6009360 104.4438860
 145.9103000  76.3023230 105.3524090 146.7243160  77.0016970 104.2846380
 149.6476050  79.2004910  89.6042370 150.0692470  79.0344780  90.4473760
 149.7726890  78.3905140  89.1097510 147.8103470  75.1801460 102.4113350
 147.2799930  74.6892410 101.7836690 148.4791540  75.6085660 101.8771280
 152.1603690  78.2242520  86.8519470 152.6809350  77.5091540  86.4860620
 152.8072090  78.8628390  87.1519980 148.2975770  72.1463830 102.4910640
 148.2032640  71.5284580 101.7661510 147.7173160  72.8730120 102.2640550
 151.0637210  70.7037070  99.5238030 150.6154510  70.7261330  98.6783580
 150.4302410  70.3056090 100.1208330 151.4696760  79.5991400 100.1450470
 151.8884870  80.4424130  99.9726710 150.5505390  79.7363440  99.9157250
 148.5434950  75.2738140  86.5500530 148.3424010  74.4105500  86.9113870
 148.3727000  75.1871500  85.6122130 149.3204180  85.9044410 101.2608200
 148.7825270  86.6290470 100.9416900 149.5738140  85.4274750 100.4705540
 150.5729430  73.8728930 102.7864130 151.1629120  73.5644780 103.4741950
 149.7549670  73.4008680 102.9424030 147.3417750  72.3738760  86.5378410
 147.6443650  72.3806190  85.6297560 148.0812340  72.0236620  87.0346070
 152.1766390  87.1395620 101.5194850 152.1025090  88.0430760 101.8267220
 151.2745230  86.8207520 101.4916920 150.5602680  71.3173380  87.5234610
 150.2124680  70.6397370  86.9437060 150.7615450  70.8562890  88.3378000
 146.3647880  81.6781180  87.3708210 146.8022750  82.2210850  88.0265790
 146.8495610  80.8528130  87.3804550 143.5793680  84.4670210  94.8228470
 143.9096690  83.5991270  94.5907110 144.0084680  84.6728730  95.6533430
 148.1755600  82.7979220  92.4830440 147.8751140  82.6744190  93.3834350
 148.0693090  81.9387810  92.0746170 144.0683890  85.3340800  97.5610100
 143.6314880  85.5141600  98.3934250 144.6361570  86.0915420  97.4191820
 143.9008320  77.8461030  93.9198980 143.2457160  77.5772670  93.2758680
 144.7386270  77.7365510  93.4700960 144.9384250  78.2313600  98.4602320
 145.3057290  78.1441000  99.3398340 144.3695070  77.4680150  98.3609180
 144.4900250  75.1422690 102.3660740 143.5956300  75.1089450 102.7054450
 145.0297800  75.3409480 103.1311990 143.1146400  75.0559960  89.8624310
 142.2110480  75.3190160  89.6875970 143.5987020  75.3271130  89.0824270
 145.6573610  74.1125500  87.7718690 146.3665310  73.6908720  87.2865970
 144.9413550  74.1800730  87.1402040 145.3047770  70.1664830  86.8121340
 146.0275900  70.7073770  87.1302560 145.5772290  69.8928250  85.9362880
 144.9939960  69.4171020  96.7143960 145.6416150  68.8668400  96.2739120
 145.4141800  69.6714170  97.5359770 144.7471960  69.5726690  99.4569280
 144.3986780  70.0290510 100.2227460 144.4159660  68.6783820  99.5391710
 146.3536330  82.7446290 103.6222470 146.3105960  82.3739200 104.5036930
 146.4847340  83.6823860 103.7624290 150.0542360  84.3005880  99.2232190
 149.8133720  84.5680440  98.3362710 150.9945000  84.4711610  99.2783050
 145.4192600  69.1002890 102.7320050 145.9675590  68.9190940 101.9686160
 145.4847910  68.3097000 103.2676360 146.1924360  85.6908540 100.7420250
 145.5984680  85.5593240 101.4810290 146.1848200  84.8546680 100.2762350
 145.8236590  83.0566920  99.6928290 145.0970650  82.4372210  99.6254240
 145.8845740  83.4507530  98.8226370 149.4281690  85.2711920  96.4777700
 149.9446710  84.6599280  95.9525960 150.0779070  85.7740700  96.9688710
 152.1677190  86.1620410  97.3046680 152.4555000  85.9074710  96.4279690
 152.6800410  85.6097770  97.8952250 144.1066590  86.3741310  92.9025050
 143.9388630  85.7411990  93.6006940 143.2401100  86.5800710  92.5519240
 144.7294610  70.2058090  90.4056910 145.4873970  70.3186970  89.8320940
 144.2671780  71.0427290  90.3600340 151.2708420  72.3197360  93.3959220
 150.4582930  71.9454250  93.0555100 151.7750060  71.5642440  93.6980410
 145.7129290  85.0674540  90.3475190 145.1876910  85.4482570  89.6437150
 145.6373870  85.6925310  91.0684900 147.1019760  70.7322140  88.9458880
 147.6312520  69.9451940  88.8166830 147.7348080  71.4113330  89.1794410
 149.2957600  70.4697280  92.0004270 148.6660340  69.7684590  92.1674400
 148.7562740  71.2301410  91.7837430 149.4213160  69.7481260 104.4356760
 149.1397430  70.2514860 103.6717580 149.8032860  68.9503010 104.0698890
 148.3122260  87.0156920  89.2224440 149.0441080  86.7316200  88.6748330
 148.5715930  86.7770200  90.1123820 147.4737050  83.1321650  89.2270770
 146.8445930  83.6006750  89.7756600 147.5884880  82.2870870  89.6616960
 147.0770640  79.2726140  78.1357000 146.2455520  79.0174850  78.5353510
 147.6851620  79.3436910  78.8714920 147.0571900  83.3066230  78.3315020
 147.3599940  82.4163970  78.1525240 147.8015490  83.8636450  78.1037270
 145.4862590  74.2328030  71.9199390 144.5979290  74.5744000  71.8179270
 145.7703780  74.0328350  71.0280220 143.4495600  76.8333680  77.8039090
 144.0211710  76.0655880  77.8042730 143.4497140  77.1322440  76.8945700
 144.6920470  72.2418040  79.5908020 144.5123310  71.3443790  79.8710780
 144.2900550  72.7889910  80.2654970 147.6623980  72.8159530  72.9537770
 147.7690730  73.7163260  73.2606530 146.7516340  72.7677500  72.6632420
 145.3107140  74.7378540  78.1990360 145.9917250  75.0016910  78.8177760
 144.9955190  73.8979410  78.5328370 149.5031710  75.7845900  77.2862950
 150.0109930  76.2826870  77.9267970 150.0344950  75.0081100  77.1102310
 147.7867810  70.4244460  81.5526370 147.7886250  70.9416850  80.7472270
 146.9572120  69.9474640  81.5296300 149.0370660  80.0639640  79.7299870
 148.7040040  80.6908560  80.3720940 149.2137340  80.5901520  78.9501540
 147.4683140  72.1354420  79.5596820 147.8099950  72.9796470  79.2650690
 146.5298950  72.2838160  79.6762160 148.2489760  82.0320440  81.5449050
 148.8663760  82.7071520  81.2633500 147.3882880  82.4408420  81.4536550
 143.5422100  81.2220300  70.4255900 143.1650080  81.7107400  69.6940800
 143.7995170  81.8945580  71.0562430 151.1511030  69.6236690  75.8841410
 151.4586010  69.0683580  75.1676910 150.2211730  69.7581150  75.7014400
 149.1448430  78.2150260  75.4021260 148.7405430  77.5027510  74.9067160
 149.2311550  77.8703500  76.2909300 149.6130130  81.9017820  77.5660470
 149.3158420  81.2963290  76.8868250 150.5629950  81.9395130  77.4549830
 147.8577050  74.9893470  79.1820300 148.4091640  75.0988810  78.4073550
 148.3720560  75.3631070  79.8975530 148.7048560  81.6399510  84.2168270
 147.8077090  81.8639480  84.4641670 148.7301430  81.7634450  83.2679670
 147.5319780  78.5112830  82.7925640 147.3927550  79.3835630  83.1613040
 146.6501140  78.1685640  82.6473580 149.3300130  84.4534530  85.0010790
 149.3015560  84.8577480  84.1339220 149.1665100  83.5244890  84.8382390
 145.8453060  77.1095240  72.9027910 145.7250660  77.8357330  72.2909180
 145.5353950  76.3398150  72.4255820 143.4838430  80.2810380  78.7096550
 143.5618850  80.4159150  77.7652270 144.0980110  79.5726270  78.9024670
 144.7286060  81.9810570  75.1202730 144.3214140  82.1225160  74.2656330
 145.6199070  81.6970730  74.9173940 149.0007720  86.1956350  73.2325400
 148.8250200  85.2791890  73.0193200 148.1463460  86.5543640  73.4723200
 143.5397950  81.3224550  81.2491010 143.7028990  80.8529910  80.4310380
 144.0050400  80.8148110  81.9139850 148.3116720  70.4530310  76.2851580
 147.8684870  71.2339850  75.9536100 148.8701710  70.7760200  76.9922520
 152.5986530  73.3198830  81.8886900 152.1365900  73.5281850  82.7006840
 152.1964640  72.5058180  81.5857570 151.4275540  70.0741010  71.1657410
 150.8029720  70.0700880  71.8910720 151.3405660  69.2071970  70.7693380
 150.3492620  70.9977640  78.1441180 150.6464950  71.9040470  78.0633200
 150.8978180  70.5096420  77.5300750 148.1030940  75.5763880  74.0132830
 147.8771860  75.3601050  74.9179450 147.3223470  76.0092340  73.6678800
 150.5430150  76.4749460  84.6793100 150.4473750  75.5344190  84.5293500
 151.3862130  76.6964530  84.2841170 145.6740690  72.8863130  82.8326880
 145.2804080  73.7338340  83.0399660 144.9859090  72.2489500  83.0235520
 152.2485740  72.9698100  85.9023620 151.5584060  72.7770300  86.5369710
 152.9918040  73.2532740  86.4347920 142.9757740  70.8091590  76.8656960
 142.6870790  71.3794450  77.5781940 143.7203500  70.3296040  77.2288190
 143.1627970  74.7511710  68.0759680 143.0802640  75.6942470  68.2174670
 142.8111030  74.6086620  67.1972030 150.9626100  73.4850740  77.1430030
 150.9662160  73.0440690  76.2934570 151.8577220  73.8068070  77.2501850
 146.8128480  73.3677230  76.1024240 146.4728530  73.8452460  76.8591290
 146.0505800  72.9142350  75.7425340 151.0246250  74.4862820  70.1336790
 151.1459070  74.4449300  71.0822610 150.6394760  75.3486970  69.9783520
 150.0367750  76.7963960  69.5320090 149.4684650  76.3482210  68.9056000
 150.7456750  77.1556740  68.9985240 145.1136930  80.6975980  83.4086820
 144.7291720  80.0569650  84.0069780 145.4249120  81.4012100  83.9781550
 151.2634070  77.5452520  78.8895440 151.6304200  77.0711090  79.6356780
 151.0739130  78.4194090  79.2303780 144.1274560  72.2896210  75.0188910
 143.8421480  71.9251880  75.8567530 144.0653420  71.5576670  74.4052050
 149.0533440  76.5861160  81.2079650 148.7490510  77.4653140  81.4330010
 150.0079900  76.6460950  81.2437090 147.5815230  80.7922150  71.8046500
 146.8077490  80.2519770  71.6445220 148.3109860  80.2728760  71.4664260
 147.6252630  80.4602530  75.4425310 148.1431300  79.6570790  75.3882200
 147.1736650  80.3981670  76.2842140 152.5122130  81.7268810  70.7152610
 152.8537830  82.4711040  70.2195930 151.6834840  82.0399930  71.0777440
 145.1097170  77.4263900  82.3551010 144.7512110  78.0917750  82.9424350
 144.8151730  76.5947450  82.7263630 148.3110290  77.8848140  85.2390560
 148.0110430  78.0305320  84.3418380 149.0821530  77.3253430  85.1463950
 151.4812820  81.8082340  73.4868530 152.1683950  82.3551550  73.8676120
 150.6945240  82.3523070  73.5218140 143.6205220  77.4255160  68.9785610
 144.4900070  77.7079960  69.2621530 143.1295540  78.2391030  68.8634420
 150.7840030  78.8128370  73.0993890 151.2402810  79.6233620  73.3254080
 150.4328240  78.4951510  73.9312380 146.6851810  69.1566020  73.5716410
 146.5566440  69.1483920  74.5201330 145.8613830  69.4949110  73.2207420
 143.6845740  70.9157140  83.0323110 142.9704260  71.1154060  83.6375720
 144.1040780  70.1396710  83.4037910 143.9718330  84.9037400  84.0189640
 144.0809450  83.9632140  83.8785030 143.3198890  85.1692150  83.3703370
 151.9630920  83.1753290  85.4187760 151.6427790  82.4562530  85.9633450
 151.2889280  83.8508360  85.4923820 150.0045090  84.0213740  70.3620910
 149.9955190  84.7543430  69.7465420 149.0843450  83.7745320  70.4547870
 145.6051730  79.2428630  71.1067670 144.9979680  79.9827530  71.1162970
 146.0801080  79.3327990  70.2805870 152.9904690  84.0841980  69.0246100
 153.0916670  83.8805970  68.0948080 152.0906430  83.8300260  69.2293880
 150.5130580  74.6422340  73.0070000 149.8046730  75.1108680  73.4483610
 150.7975060  73.9844350  73.6415190 152.1386510  76.0619040  81.0062530
 152.6371760  76.5364860  81.6714380 152.2809460  75.1382560  81.2132560
 151.6322800  86.6028300  73.7193770 151.8864300  86.5649690  72.7973140
 150.6835280  86.4761630  73.7122020 148.7165600  72.9507420  70.3820710
 149.5656130  73.3877570  70.3160900 148.3496870  73.2627680  71.2092770
 147.6157020  79.2039780  68.8556240 148.3820290  79.0921140  69.4181670
 147.6931710  78.5077750  68.2033010 146.3103780  76.6364850  69.5389130
 146.3907370  75.6892360  69.6506530 147.2023530  76.9671730  69.6449790
 147.1118490  86.7860240  76.6423670 147.8480970  86.2375700  76.9132240
 147.4959410  87.6516250  76.5029660 143.9963970  82.8533810  72.5165180
 143.0703750  83.0954950  72.5070590 144.4620400  83.6808070  72.3949930
 146.1176770  85.9706310  85.8309250 146.9189500  86.2918360  86.2444650
 145.6028590  85.6101890  86.5529160 150.2220800  85.9590550  68.4649240
 151.0149410  86.2479380  68.0131030 149.7025150  85.5282720  67.7861720
 143.8374580  78.4579770  84.7745300 144.3413600  77.8787050  85.3461530
 143.0982000  78.7420000  85.3121670 150.7398200  81.1793960  68.3291590
 150.6348840  80.5646310  69.0552970 150.5722420  80.6559850  67.5454600
 150.8912520  79.8650760  84.3080820 150.1258190  80.4335760  84.2235490
 151.0728480  79.5726970  83.4149050 145.8697660  76.6009360  85.6695370
 145.9103000  76.3023230  86.5780600 146.7243160  77.0016970  85.5102890
 149.6476050  79.2004910  70.8298880 150.0692470  79.0344780  71.6730270
 149.7726890  78.3905140  70.3354020 147.8103470  75.1801460  83.6369860
 147.2799930  74.6892410  83.0093200 148.4791540  75.6085660  83.1027790
 152.1603690  78.2242520  68.0775980 152.6809350  77.5091540  67.7117130
 152.8072090  78.8628390  68.3776490 148.2975770  72.1463830  83.7167150
 148.2032640  71.5284580  82.9918020 147.7173160  72.8730120  83.4897060
 151.0637210  70.7037070  80.7494540 150.6154510  70.7261330  79.9040090
 150.4302410  70.3056090  81.3464840 151.4696760  79.5991400  81.3706980
 151.8884870  80.4424130  81.1983220 150.5505390  79.7363440  81.1413760
 148.5434950  75.2738140  67.7757040 148.3424010  74.4105500  68.1370380
 148.3727000  75.1871500  66.8378640 149.3204180  85.9044410  82.4864710
 148.7825270  86.6290470  82.1673410 149.5738140  85.4274750  81.6962050
 150.5729430  73.8728930  84.0120640 151.1629120  73.5644780  84.6998460
 149.7549670  73.4008680  84.1680540 147.3417750  72.3738760  67.7634920
 147.6443650  72.3806190  66.8554070 148.0812340  72.0236620  68.2602580
 152.1766390  87.1395620  82.7451360 152.1025090  88.0430760  83.0523730
 151.2745230  86.8207520  82.7173430 150.5602680  71.3173380  68.7491120
 150.2124680  70.6397370  68.1693570 150.7615450  70.8562890  69.5634510
 146.3647880  81.6781180  68.5964720 146.8022750  82.2210850  69.2522300
 146.8495610  80.8528130  68.6061060 148.1755600  82.7979220  73.7086950
 147.8751140  82.6744190  74.6090860 148.0693090  81.9387810  73.3002680
 144.0683890  85.3340800  78.7866610 143.6314880  85.5141600  79.6190760
 144.6361570  86.0915420  78.6448330 143.9008320  77.8461030  75.1455490
 143.2457160  77.5772670  74.5015190 144.7386270  77.7365510  74.6957470
 144.9384250  78.2313600  79.6858830 145.3057290  78.1441000  80.5654850
 144.3695070  77.4680150  79.5865690 144.4900250  75.1422690  83.5917250
 143.5956300  75.1089450  83.9310960 145.0297800  75.3409480  84.3568500
 143.1146400  75.0559960  71.0880820 142.2110480  75.3190160  70.9132480
 143.5987020  75.3271130  70.3080780 145.6573610  74.1125500  68.9975200
 146.3665310  73.6908720  68.5122480 144.9413550  74.1800730  68.3658550
 145.3047770  70.1664830  68.0377850 146.0275900  70.7073770  68.3559070
 145.5772290  69.8928250  67.1619390 144.9939960  69.4171020  77.9400470
 145.6416150  68.8668400  77.4995630 145.4141800  69.6714170  78.7616280
 144.7471960  69.5726690  80.6825790 144.3986780  70.0290510  81.4483970
 144.4159660  68.6783820  80.7648220 146.3536330  82.7446290  84.8478980
 146.3105960  82.3739200  85.7293440 146.4847340  83.6823860  84.9880800
 150.0542360  84.3005880  80.4488700 149.8133720  84.5680440  79.5619220
 150.9945000  84.4711610  80.5039560 145.4192600  69.1002890  83.9576560
 145.9675590  68.9190940  83.1942670 145.4847910  68.3097000  84.4932870
 146.1924360  85.6908540  81.9676760 145.5984680  85.5593240  82.7066800
 146.1848200  84.8546680  81.5018860 145.8236590  83.0566920  80.9184800
 145.0970650  82.4372210  80.8510750 145.8845740  83.4507530  80.0482880
 149.4281690  85.2711920  77.7034210 149.9446710  84.6599280  77.1782470
 150.0779070  85.7740700  78.1945220 152.1677190  86.1620410  78.5303190
 152.4555000  85.9074710  77.6536200 152.6800410  85.6097770  79.1208760
 144.1066590  86.3741310  74.1281560 143.9388630  85.7411990  74.8263450
 143.2401100  86.5800710  73.7775750 144.7294610  70.2058090  71.6313420
 145.4873970  70.3186970  71.0577450 144.2671780  71.0427290  71.5856850
 151.2708420  72.3197360  74.6215730 150.4582930  71.9454250  74.2811610
 151.7750060  71.5642440  74.9236920 145.7129290  85.0674540  71.5731700
 145.1876910  85.4482570  70.8693660 145.6373870  85.6925310  72.2941410
 147.1019760  70.7322140  70.1715390 147.6312520  69.9451940  70.0423340
 147.7348080  71.4113330  70.4050920 149.2957600  70.4697280  73.2260780
 148.6660340  69.7684590  73.3930910 148.7562740  71.2301410  73.0093940
 149.4213160  69.7481260  85.6613270 149.1397430  70.2514860  84.8974090
 149.8032860  68.9503010  85.2955400 148.3122260  87.0156920  70.4480950
 149.0441080  86.7316200  69.9004840 148.5715930  86.7770200  71.3380330
 147.4737050  83.1321650  70.4527280 146.8445930  83.6006750  71.0013110
 147.5884880  82.2870870  70.8873470 147.0770640  79.2726140  59.3613510
 146.2455520  79.0174850  59.7610020 147.6851620  79.3436910  60.0971430
 147.0571900  83.3066230  59.5571530 147.3599940  82.4163970  59.3781750
 147.8015490  83.8636450  59.3293780 145.4862590  74.2328030  53.1455900
 144.5979290  74.5744000  53.0435780 145.7703780  74.0328350  52.2536730
 143.4495600  76.8333680  59.0295600 144.0211710  76.0655880  59.0299240
 143.4497140  77.1322440  58.1202210 144.6920470  72.2418040  60.8164530
 144.5123310  71.3443790  61.0967290 144.2900550  72.7889910  61.4911480
 147.6623980  72.8159530  54.1794280 147.7690730  73.7163260  54.4863040
 146.7516340  72.7677500  53.8888930 145.3107140  74.7378540  59.4246870
 145.9917250  75.0016910  60.0434270 144.9955190  73.8979410  59.7584880
 149.5031710  75.7845900  58.5119460 150.0109930  76.2826870  59.1524480
 150.0344950  75.0081100  58.3358820 147.7867810  70.4244460  62.7782880
 147.7886250  70.9416850  61.9728780 146.9572120  69.9474640  62.7552810
 149.0370660  80.0639640  60.9556380 148.7040040  80.6908560  61.5977450
 149.2137340  80.5901520  60.1758050 147.4683140  72.1354420  60.7853330
 147.8099950  72.9796470  60.4907200 146.5298950  72.2838160  60.9018670
 148.2489760  82.0320440  62.7705560 148.8663760  82.7071520  62.4890010
 147.3882880  82.4408420  62.6793060 143.5422100  81.2220300  51.6512410
 143.1650080  81.7107400  50.9197310 143.7995170  81.8945580  52.2818940
 151.1511030  69.6236690  57.1097920 151.4586010  69.0683580  56.3933420
 150.2211730  69.7581150  56.9270910 149.1448430  78.2150260  56.6277770
 148.7405430  77.5027510  56.1323670 149.2311550  77.8703500  57.5165810
 149.6130130  81.9017820  58.7916980 149.3158420  81.2963290  58.1124760
 150.5629950  81.9395130  58.6806340 147.8577050  74.9893470  60.4076810
 148.4091640  75.0988810  59.6330060 148.3720560  75.3631070  61.1232040
 148.7048560  81.6399510  65.4424780 147.8077090  81.8639480  65.6898180
 148.7301430  81.7634450  64.4936180 147.5319780  78.5112830  64.0182150
 147.3927550  79.3835630  64.3869550 146.6501140  78.1685640  63.8730090
 149.3300130  84.4534530  66.2267300 149.3015560  84.8577480  65.3595730
 149.1665100  83.5244890  66.0638900 145.8453060  77.1095240  54.1284420
 145.7250660  77.8357330  53.5165690 145.5353950  76.3398150  53.6512330
 143.4838430  80.2810380  59.9353060 143.5618850  80.4159150  58.9908780
 144.0980110  79.5726270  60.1281180 144.7286060  81.9810570  56.3459240
 144.3214140  82.1225160  55.4912840 145.6199070  81.6970730  56.1430450
 149.0007720  86.1956350  54.4581910 148.8250200  85.2791890  54.2449710
 148.1463460  86.5543640  54.6979710 143.5397950  81.3224550  62.4747520
 143.7028990  80.8529910  61.6566890 144.0050400  80.8148110  63.1396360
 148.3116720  70.4530310  57.5108090 147.8684870  71.2339850  57.1792610
 148.8701710  70.7760200  58.2179030 152.5986530  73.3198830  63.1143410
 152.1365900  73.5281850  63.9263350 152.1964640  72.5058180  62.8114080
 151.4275540  70.0741010  52.3913920 150.8029720  70.0700880  53.1167230
 151.3405660  69.2071970  51.9949890 150.3492620  70.9977640  59.3697690
 150.6464950  71.9040470  59.2889710 150.8978180  70.5096420  58.7557260
 148.1030940  75.5763880  55.2389340 147.8771860  75.3601050  56.1435960
 147.3223470  76.0092340  54.8935310 150.5430150  76.4749460  65.9049610
 150.4473750  75.5344190  65.7550010 151.3862130  76.6964530  65.5097680
 145.6740690  72.8863130  64.0583390 145.2804080  73.7338340  64.2656170
 144.9859090  72.2489500  64.2492030 152.2485740  72.9698100  67.1280130
 151.5584060  72.7770300  67.7626220 152.9918040  73.2532740  67.6604430
 142.9757740  70.8091590  58.0913470 142.6870790  71.3794450  58.8038450
 143.7203500  70.3296040  58.4544700 143.1627970  74.7511710  49.3016190
 143.0802640  75.6942470  49.4431180 142.8111030  74.6086620  48.4228540
 150.9626100  73.4850740  58.3686540 150.9662160  73.0440690  57.5191080
 151.8577220  73.8068070  58.4758360 146.8128480  73.3677230  57.3280750
 146.4728530  73.8452460  58.0847800 146.0505800  72.9142350  56.9681850
 151.0246250  74.4862820  51.3593300 151.1459070  74.4449300  52.3079120
 150.6394760  75.3486970  51.2040030 150.0367750  76.7963960  50.7576600
 149.4684650  76.3482210  50.1312510 150.7456750  77.1556740  50.2241750
 145.1136930  80.6975980  64.6343330 144.7291720  80.0569650  65.2326290
 145.4249120  81.4012100  65.2038060 151.2634070  77.5452520  60.1151950
 151.6304200  77.0711090  60.8613290 151.0739130  78.4194090  60.4560290
 144.1274560  72.2896210  56.2445420 143.8421480  71.9251880  57.0824040
 144.0653420  71.5576670  55.6308560 149.0533440  76.5861160  62.4336160
 148.7490510  77.4653140  62.6586520 150.0079900  76.6460950  62.4693600
 147.5815230  80.7922150  53.0303010 146.8077490  80.2519770  52.8701730
 148.3109860  80.2728760  52.6920770 147.6252630  80.4602530  56.6681820
 148.1431300  79.6570790  56.6138710 147.1736650  80.3981670  57.5098650
 152.5122130  81.7268810  51.9409120 152.8537830  82.4711040  51.4452440
 151.6834840  82.0399930  52.3033950 145.1097170  77.4263900  63.5807520
 144.7512110  78.0917750  64.1680860 144.8151730  76.5947450  63.9520140
 148.3110290  77.8848140  66.4647070 148.0110430  78.0305320  65.5674890
 149.0821530  77.3253430  66.3720460 151.4812820  81.8082340  54.7125040
 152.1683950  82.3551550  55.0932630 150.6945240  82.3523070  54.7474650
 143.6205220  77.4255160  50.2042120 144.4900070  77.7079960  50.4878040
 143.1295540  78.2391030  50.0890930 150.7840030  78.8128370  54.3250400
 151.2402810  79.6233620  54.5510590 150.4328240  78.4951510  55.1568890
 146.6851810  69.1566020  54.7972920 146.5566440  69.1483920  55.7457840
 145.8613830  69.4949110  54.4463930 143.9876470  86.6382540  50.7703750
 144.3474110  87.2371880  50.1161020 143.8468810  87.1842430  51.5438780
 143.6845740  70.9157140  64.2579620 142.9704260  71.1154060  64.8632230
 144.1040780  70.1396710  64.6294420 143.9718330  84.9037400  65.2446150
 144.0809450  83.9632140  65.1041540 143.3198890  85.1692150  64.5959880
 151.9630920  83.1753290  66.6444270 151.6427790  82.4562530  67.1889960
 151.2889280  83.8508360  66.7180330 150.0045090  84.0213740  51.5877420
 149.9955190  84.7543430  50.9721930 149.0843450  83.7745320  51.6804380
 145.6051730  79.2428630  52.3324180 144.9979680  79.9827530  52.3419480
 146.0801080  79.3327990  51.5062380 152.9904690  84.0841980  50.2502610
 153.0916670  83.8805970  49.3204590 152.0906430  83.8300260  50.4550390
 150.5130580  74.6422340  54.2326510 149.8046730  75.1108680  54.6740120
 150.7975060  73.9844350  54.8671700 152.1386510  76.0619040  62.2319040
 152.6371760  76.5364860  62.8970890 152.2809460  75.1382560  62.4389070
 151.6322800  86.6028300  54.9450280 151.8864300  86.5649690  54.0229650
 150.6835280  86.4761630  54.9378530 148.7165600  72.9507420  51.6077220
 149.5656130  73.3877570  51.5417410 148.3496870  73.2627680  52.4349280
 147.6157020  79.2039780  50.0812750 148.3820290  79.0921140  50.6438180
 147.6931710  78.5077750  49.4289520 146.3103780  76.6364850  50.7645640
 146.3907370  75.6892360  50.8763040 147.2023530  76.9671730  50.8706300
 147.1118490  86.7860240  57.8680180 147.8480970  86.2375700  58.1388750
 147.4959410  87.6516250  57.7286170 143.9963970  82.8533810  53.7421690
 143.0703750  83.0954950  53.7327100 144.4620400  83.6808070  53.6206440
 146.1176770  85.9706310  67.0565760 146.9189500  86.2918360  67.4701160
 145.6028590  85.6101890  67.7785670 150.2220800  85.9590550  49.6905750
 151.0149410  86.2479380  49.2387540 149.7025150  85.5282720  49.0118230
 143.8374580  78.4579770  66.0001810 144.3413600  77.8787050  66.5718040
 143.0982000  78.7420000  66.5378180 150.7398200  81.1793960  49.5548100
 150.6348840  80.5646310  50.2809480 150.5722420  80.6559850  48.7711110
 150.8912520  79.8650760  65.5337330 150.1258190  80.4335760  65.4492000
 151.0728480  79.5726970  64.6405560 145.8697660  76.6009360  66.8951880
 145.9103000  76.3023230  67.8037110 146.7243160  77.0016970  66.7359400
 149.6476050  79.2004910  52.0555390 150.0692470  79.0344780  52.8986780
 149.7726890  78.3905140  51.5610530 147.8103470  75.1801460  64.8626370
 147.2799930  74.6892410  64.2349710 148.4791540  75.6085660  64.3284300
 152.1603690  78.2242520  49.3032490 152.6809350  77.5091540  48.9373640
 152.8072090  78.8628390  49.6033000 148.2975770  72.1463830  64.9423660
 148.2032640  71.5284580  64.2174530 147.7173160  72.8730120  64.7153570
 151.0637210  70.7037070  61.9751050 150.6154510  70.7261330  61.1296600
 150.4302410  70.3056090  62.5721350 151.4696760  79.5991400  62.5963490
 151.8884870  80.4424130  62.4239730 150.5505390  79.7363440  62.3670270
 148.5434950  75.2738140  49.0013550 148.3424010  74.4105500  49.3626890
 148.3727000  75.1871500  48.0635150 149.3204180  85.9044410  63.7121220
 148.7825270  86.6290470  63.3929920 149.5738140  85.4274750  62.9218560
 150.5729430  73.8728930  65.2377150 151.1629120  73.5644780  65.9254970
 149.7549670  73.4008680  65.3937050 147.3417750  72.3738760  48.9891430
 147.6443650  72.3806190  48.0810580 148.0812340  72.0236620  49.4859090
 152.1766390  87.1395620  63.9707870 152.1025090  88.0430760  64.2780240
 151.2745230  86.8207520  63.9429940 150.5602680  71.3173380  49.9747630
 150.2124680  70.6397370  49.3950080 150.7615450  70.8562890  50.7891020
 146.3647880  81.6781180  49.8221230 146.8022750  82.2210850  50.4778810
 146.8495610  80.8528130  49.8317570 143.5793680  84.4670210  57.2741490
 143.9096690  83.5991270  57.0420130 144.0084680  84.6728730  58.1046450
 148.1755600  82.7979220  54.9343460 147.8751140  82.6744190  55.8347370
 148.0693090  81.9387810  54.5259190 144.0683890  85.3340800  60.0123120
 143.6314880  85.5141600  60.8447270 144.6361570  86.0915420  59.8704840
 143.9008320  77.8461030  56.3712000 143.2457160  77.5772670  55.7271700
 144.7386270  77.7365510  55.9213980 144.9384250  78.2313600  60.9115340
 145.3057290  78.1441000  61.7911360 144.3695070  77.4680150  60.8122200
 144.4900250  75.1422690  64.8173760 143.5956300  75.1089450  65.1567470
 145.0297800  75.3409480  65.5825010 143.1146400  75.0559960  52.3137330
 142.2110480  75.3190160  52.1388990 143.5987020  75.3271130  51.5337290
 145.6573610  74.1125500  50.2231710 146.3665310  73.6908720  49.7378990
 144.9413550  74.1800730  49.5915060 145.3047770  70.1664830  49.2634360
 146.0275900  70.7073770  49.5815580 145.5772290  69.8928250  48.3875900
 144.9939960  69.4171020  59.1656980 145.6416150  68.8668400  58.7252140
 145.4141800  69.6714170  59.9872790 144.7471960  69.5726690  61.9082300
 144.3986780  70.0290510  62.6740480 144.4159660  68.6783820  61.9904730
 146.3536330  82.7446290  66.0735490 146.3105960  82.3739200  66.9549950
 146.4847340  83.6823860  66.2137310 150.0542360  84.3005880  61.6745210
 149.8133720  84.5680440  60.7875730 150.9945000  84.4711610  61.7296070
 145.4192600  69.1002890  65.1833070 145.9675590  68.9190940  64.4199180
 145.4847910  68.3097000  65.7189380 146.1924360  85.6908540  63.1933270
 145.5984680  85.5593240  63.9323310 146.1848200  84.8546680  62.7275370
 145.8236590  83.0566920  62.1441310 145.0970650  82.4372210  62.0767260
 145.8845740  83.4507530  61.2739390 149.4281690  85.2711920  58.9290720
 149.9446710  84.6599280  58.4038980 150.0779070  85.7740700  59.4201730
 152.1677190  86.1620410  59.7559700 152.4555000  85.9074710  58.8792710
 152.6800410  85.6097770  60.3465270 144.1066590  86.3741310  55.3538070
 143.9388630  85.7411990  56.0519960 143.2401100  86.5800710  55.0032260
 144.7294610  70.2058090  52.8569930 145.4873970  70.3186970  52.2833960
 144.2671780  71.0427290  52.8113360 151.2708420  72.3197360  55.8472240
 150.4582930  71.9454250  55.5068120 151.7750060  71.5642440  56.1493430
 145.7129290  85.0674540  52.7988210 145.1876910  85.4482570  52.0950170
 145.6373870  85.6925310  53.5197920 147.1019760  70.7322140  51.3971900
 147.6312520  69.9451940  51.2679850 147.7348080  71.4113330  51.6307430
 149.2957600  70.4697280  54.4517290 148.6660340  69.7684590  54.6187420
 148.7562740  71.2301410  54.2350450 149.4213160  69.7481260  66.8869780
 149.1397430  70.2514860  66.1230600 149.8032860  68.9503010  66.5211910
 148.3122260  87.0156920  51.6737460 149.0441080  86.7316200  51.1261350
 148.5715930  86.7770200  52.5636840 147.4737050  83.1321650  51.6783790
 146.8445930  83.6006750  52.2269620 147.5884880  82.2870870  52.1129980
 147.0770640  79.2726140  40.5870020 146.2455520  79.0174850  40.9866530
 147.6851620  79.3436910  41.3227940 147.0571900  83.3066230  40.7828040
 147.3599940  82.4163970  40.6038260 147.8015490  83.8636450  40.5550290
 145.4862590  74.2328030  34.3712410 144.5979290  74.5744000  34.2692290
 145.7703780  74.0328350  33.4793240 143.4495600  76.8333680  40.2552110
 144.0211710  76.0655880  40.2555750 143.4497140  77.1322440  39.3458720
 144.6920470  72.2418040  42.0421040 144.5123310  71.3443790  42.3223800
 144.2900550  72.7889910  42.7167990 147.6623980  72.8159530  35.4050790
 147.7690730  73.7163260  35.7119550 146.7516340  72.7677500  35.1145440
 145.3107140  74.7378540  40.6503380 145.9917250  75.0016910  41.2690780
 144.9955190  73.8979410  40.9841390 149.5031710  75.7845900  39.7375970
 150.0109930  76.2826870  40.3780990 150.0344950  75.0081100  39.5615330
 147.7867810  70.4244460  44.0039390 147.7886250  70.9416850  43.1985290
 146.9572120  69.9474640  43.9809320 149.0370660  80.0639640  42.1812890
 148.7040040  80.6908560  42.8233960 149.2137340  80.5901520  41.4014560
 147.4683140  72.1354420  42.0109840 147.8099950  72.9796470  41.7163710
 146.5298950  72.2838160  42.1275180 148.2489760  82.0320440  43.9962070
 148.8663760  82.7071520  43.7146520 147.3882880  82.4408420  43.9049570
 143.5422100  81.2220300  32.8768920 143.1650080  81.7107400  32.1453820
 143.7995170  81.8945580  33.5075450 151.1511030  69.6236690  38.3354430
 151.4586010  69.0683580  37.6189930 150.2211730  69.7581150  38.1527420
 149.1448430  78.2150260  37.8534280 148.7405430  77.5027510  37.3580180
 149.2311550  77.8703500  38.7422320 149.6130130  81.9017820  40.0173490
 149.3158420  81.2963290  39.3381270 150.5629950  81.9395130  39.9062850
 147.8577050  74.9893470  41.6333320 148.4091640  75.0988810  40.8586570
 148.3720560  75.3631070  42.3488550 148.7048560  81.6399510  46.6681290
 147.8077090  81.8639480  46.9154690 148.7301430  81.7634450  45.7192690
 147.5319780  78.5112830  45.2438660 147.3927550  79.3835630  45.6126060
 146.6501140  78.1685640  45.0986600 149.3300130  84.4534530  47.4523810
 149.3015560  84.8577480  46.5852240 149.1665100  83.5244890  47.2895410
 145.8453060  77.1095240  35.3540930 145.7250660  77.8357330  34.7422200
 145.5353950  76.3398150  34.8768840 143.4838430  80.2810380  41.1609570
 143.5618850  80.4159150  40.2165290 144.0980110  79.5726270  41.3537690
 144.7286060  81.9810570  37.5715750 144.3214140  82.1225160  36.7169350
 145.6199070  81.6970730  37.3686960 149.0007720  86.1956350  35.6838420
 148.8250200  85.2791890  35.4706220 148.1463460  86.5543640  35.9236220
 143.5397950  81.3224550  43.7004030 143.7028990  80.8529910  42.8823400
 144.0050400  80.8148110  44.3652870 148.3116720  70.4530310  38.7364600
 147.8684870  71.2339850  38.4049120 148.8701710  70.7760200  39.4435540
 152.5986530  73.3198830  44.3399920 152.1365900  73.5281850  45.1519860
 152.1964640  72.5058180  44.0370590 151.4275540  70.0741010  33.6170430
 150.8029720  70.0700880  34.3423740 151.3405660  69.2071970  33.2206400
 150.3492620  70.9977640  40.5954200 150.6464950  71.9040470  40.5146220
 150.8978180  70.5096420  39.9813770 148.1030940  75.5763880  36.4645850
 147.8771860  75.3601050  37.3692470 147.3223470  76.0092340  36.1191820
 150.5430150  76.4749460  47.1306120 150.4473750  75.5344190  46.9806520
 151.3862130  76.6964530  46.7354190 145.6740690  72.8863130  45.2839900
 145.2804080  73.7338340  45.4912680 144.9859090  72.2489500  45.4748540
 152.2485740  72.9698100  48.3536640 151.5584060  72.7770300  48.9882730
 152.9918040  73.2532740  48.8860940 142.9757740  70.8091590  39.3169980
 142.6870790  71.3794450  40.0294960 143.7203500  70.3296040  39.6801210
 143.1627970  74.7511710  30.5272700 143.0802640  75.6942470  30.6687690
 142.8111030  74.6086620  29.6485050 150.9626100  73.4850740  39.5943050
 150.9662160  73.0440690  38.7447590 151.8577220  73.8068070  39.7014870
 146.8128480  73.3677230  38.5537260 146.4728530  73.8452460  39.3104310
 146.0505800  72.9142350  38.1938360 151.0246250  74.4862820  32.5849810
 151.1459070  74.4449300  33.5335630 150.6394760  75.3486970  32.4296540
 150.0367750  76.7963960  31.9833110 149.4684650  76.3482210  31.3569020
 150.7456750  77.1556740  31.4498260 145.1136930  80.6975980  45.8599840
 144.7291720  80.0569650  46.4582800 145.4249120  81.4012100  46.4294570
 151.2634070  77.5452520  41.3408460 151.6304200  77.0711090  42.0869800
 151.0739130  78.4194090  41.6816800 144.1274560  72.2896210  37.4701930
 143.8421480  71.9251880  38.3080550 144.0653420  71.5576670  36.8565070
 149.0533440  76.5861160  43.6592670 148.7490510  77.4653140  43.8843030
 150.0079900  76.6460950  43.6950110 147.5815230  80.7922150  34.2559520
 146.8077490  80.2519770  34.0958240 148.3109860  80.2728760  33.9177280
 147.6252630  80.4602530  37.8938330 148.1431300  79.6570790  37.8395220
 147.1736650  80.3981670  38.7355160 152.5122130  81.7268810  33.1665630
 152.8537830  82.4711040  32.6708950 151.6834840  82.0399930  33.5290460
 145.1097170  77.4263900  44.8064030 144.7512110  78.0917750  45.3937370
 144.8151730  76.5947450  45.1776650 148.3110290  77.8848140  47.6903580
 148.0110430  78.0305320  46.7931400 149.0821530  77.3253430  47.5976970
 151.4812820  81.8082340  35.9381550 152.1683950  82.3551550  36.3189140
 150.6945240  82.3523070  35.9731160 143.6205220  77.4255160  31.4298630
 144.4900070  77.7079960  31.7134550 143.1295540  78.2391030  31.3147440
 150.7840030  78.8128370  35.5506910 151.2402810  79.6233620  35.7767100
 150.4328240  78.4951510  36.3825400 146.6851810  69.1566020  36.0229430
 146.5566440  69.1483920  36.9714350 145.8613830  69.4949110  35.6720440
 143.9876470  86.6382540  31.9960260 144.3474110  87.2371880  31.3417530
 143.8468810  87.1842430  32.7695290 143.6845740  70.9157140  45.4836130
 142.9704260  71.1154060  46.0888740 144.1040780  70.1396710  45.8550930
 143.9718330  84.9037400  46.4702660 144.0809450  83.9632140  46.3298050
 143.3198890  85.1692150  45.8216390 151.9630920  83.1753290  47.8700780
 151.6427790  82.4562530  48.4146470 151.2889280  83.8508360  47.9436840
 150.0045090  84.0213740  32.8133930 149.9955190  84.7543430  32.1978440
 149.0843450  83.7745320  32.9060890 145.6051730  79.2428630  33.5580690
 144.9979680  79.9827530  33.5675990 146.0801080  79.3327990  32.7318890
 152.9904690  84.0841980  31.4759120 153.0916670  83.8805970  30.5461100
 152.0906430  83.8300260  31.6806900 150.5130580  74.6422340  35.4583020
 149.8046730  75.1108680  35.8996630 150.7975060  73.9844350  36.0928210
 152.1386510  76.0619040  43.4575550 152.6371760  76.5364860  44.1227400
 152.2809460  75.1382560  43.6645580 151.6322800  86.6028300  36.1706790
 151.8864300  86.5649690  35.2486160 150.6835280  86.4761630  36.1635040
 148.7165600  72.9507420  32.8333730 149.5656130  73.3877570  32.7673920
 148.3496870  73.2627680  33.6605790 147.6157020  79.2039780  31.3069260
 148.3820290  79.0921140  31.8694690 147.6931710  78.5077750  30.6546030
 146.3103780  76.6364850  31.9902150 146.3907370  75.6892360  32.1019550
 147.2023530  76.9671730  32.0962810 147.1118490  86.7860240  39.0936690
 147.8480970  86.2375700  39.3645260 147.4959410  87.6516250  38.9542680
 143.9963970  82.8533810  34.9678200 143.0703750  83.0954950  34.9583610
 144.4620400  83.6808070  34.8462950 146.1176770  85.9706310  48.2822270
 146.9189500  86.2918360  48.6957670 145.6028590  85.6101890  49.0042180
 150.2220800  85.9590550  30.9162260 151.0149410  86.2479380  30.4644050
 149.7025150  85.5282720  30.2374740 143.8374580  78.4579770  47.2258320
 144.3413600  77.8787050  47.7974550 143.0982000  78.7420000  47.7634690
 150.7398200  81.1793960  30.7804610 150.6348840  80.5646310  31.5065990
 150.5722420  80.6559850  29.9967620 150.8912520  79.8650760  46.7593840
 150.1258190  80.4335760  46.6748510 151.0728480  79.5726970  45.8662070
 145.8697660  76.6009360  48.1208390 145.9103000  76.3023230  49.0293620
 146.7243160  77.0016970  47.9615910 149.6476050  79.2004910  33.2811900
 150.0692470  79.0344780  34.1243290 149.7726890  78.3905140  32.7867040
 147.8103470  75.1801460  46.0882880 147.2799930  74.6892410  45.4606220
 148.4791540  75.6085660  45.5540810 152.1603690  78.2242520  30.5289000
 152.6809350  77.5091540  30.1630150 152.8072090  78.8628390  30.8289510
 148.2975770  72.1463830  46.1680170 148.2032640  71.5284580  45.4431040
 147.7173160  72.8730120  45.9410080 151.0637210  70.7037070  43.2007560
 150.6154510  70.7261330  42.3553110 150.4302410  70.3056090  43.7977860
 151.4696760  79.5991400  43.8220000 151.8884870  80.4424130  43.6496240
 150.5505390  79.7363440  43.5926780 148.5434950  75.2738140  30.2270060
 148.3424010  74.4105500  30.5883400 148.3727000  75.1871500  29.2891660
 149.3204180  85.9044410  44.9377730 148.7825270  86.6290470  44.6186430
 149.5738140  85.4274750  44.1475070 150.5729430  73.8728930  46.4633660
 151.1629120  73.5644780  47.1511480 149.7549670  73.4008680  46.6193560
 147.3417750  72.3738760  30.2147940 147.6443650  72.3806190  29.3067090
 148.0812340  72.0236620  30.7115600 152.1766390  87.1395620  45.1964380
 152.1025090  88.0430760  45.5036750 151.2745230  86.8207520  45.1686450
 150.5602680  71.3173380  31.2004140 150.2124680  70.6397370  30.6206590
 150.7615450  70.8562890  32.0147530 146.3647880  81.6781180  31.0477740
 146.8022750  82.2210850  31.7035320 146.8495610  80.8528130  31.0574080
 143.5793680  84.4670210  38.4998000 143.9096690  83.5991270  38.2676640
 144.0084680  84.6728730  39.3302960 148.1755600  82.7979220  36.1599970
 147.8751140  82.6744190  37.0603880 148.0693090  81.9387810  35.7515700
 144.0683890  85.3340800  41.2379630 143.6314880  85.5141600  42.0703780
 144.6361570  86.0915420  41.0961350 143.9008320  77.8461030  37.5968510
 143.2457160  77.5772670  36.9528210 144.7386270  77.7365510  37.1470490
 144.9384250  78.2313600  42.1371850 145.3057290  78.1441000  43.0167870
 144.3695070  77.4680150  42.0378710 144.4900250  75.1422690  46.0430270
 143.5956300  75.1089450  46.3823980 145.0297800  75.3409480  46.8081520
 143.1146400  75.0559960  33.5393840 142.2110480  75.3190160  33.3645500
 143.5987020  75.3271130  32.7593800 145.6573610  74.1125500  31.4488220
 146.3665310  73.6908720  30.9635500 144.9413550  74.1800730  30.8171570
 145.3047770  70.1664830  30.4890870 146.0275900  70.7073770  30.8072090
 145.5772290  69.8928250  29.6132410 144.9939960  69.4171020  40.3913490
 145.6416150  68.8668400  39.9508650 145.4141800  69.6714170  41.2129300
 144.7471960  69.5726690  43.1338810 144.3986780  70.0290510  43.8996990
 144.4159660  68.6783820  43.2161240 146.3536330  82.7446290  47.2992000
 146.3105960  82.3739200  48.1806460 146.4847340  83.6823860  47.4393820
 150.0542360  84.3005880  42.9001720 149.8133720  84.5680440  42.0132240
 150.9945000  84.4711610  42.9552580 145.4192600  69.1002890  46.4089580
 145.9675590  68.9190940  45.6455690 145.4847910  68.3097000  46.9445890
 146.1924360  85.6908540  44.4189780 145.5984680  85.5593240  45.1579820
 146.1848200  84.8546680  43.9531880 145.8236590  83.0566920  43.3697820
 145.0970650  82.4372210  43.3023770 145.8845740  83.4507530  42.4995900
 149.4281690  85.2711920  40.1547230 149.9446710  84.6599280  39.6295490
 150.0779070  85.7740700  40.6458240 152.1677190  86.1620410  40.9816210
 152.4555000  85.9074710  40.1049220 152.6800410  85.6097770  41.5721780
 144.1066590  86.3741310  36.5794580 143.9388630  85.7411990  37.2776470
 143.2401100  86.5800710  36.2288770 144.7294610  70.2058090  34.0826440
 145.4873970  70.3186970  33.5090470 144.2671780  71.0427290  34.0369870
 151.2708420  72.3197360  37.0728750 150.4582930  71.9454250  36.7324630
 151.7750060  71.5642440  37.3749940 145.7129290  85.0674540  34.0244720
 145.1876910  85.4482570  33.3206680 145.6373870  85.6925310  34.7454430
 147.1019760  70.7322140  32.6228410 147.6312520  69.9451940  32.4936360
 147.7348080  71.4113330  32.8563940 149.2957600  70.4697280  35.6773800
 148.6660340  69.7684590  35.8443930 148.7562740  71.2301410  35.4606960
 149.4213160  69.7481260  48.1126290 149.1397430  70.2514860  47.3487110
 149.8032860  68.9503010  47.7468420 148.3122260  87.0156920  32.8993970
 149.0441080  86.7316200  32.3517860 148.5715930  86.7770200  33.7893350
 147.4737050  83.1321650  32.9040300 146.8445930  83.6006750  33.4526130
 147.5884880  82.2870870  33.3386490 147.0770640  79.2726140  21.8126530
 146.2455520  79.0174850  22.2123040 147.6851620  79.3436910  22.5484450
 147.0571900  83.3066230  22.0084550 147.3599940  82.4163970  21.8294770
 147.8015490  83.8636450  21.7806800 145.4862590  74.2328030  15.5968920
 144.5979290  74.5744000  15.4948800 145.7703780  74.0328350  14.7049750
 143.4495600  76.8333680  21.4808620 144.0211710  76.0655880  21.4812260
 143.4497140  77.1322440  20.5715230 144.6920470  72.2418040  23.2677550
 144.5123310  71.3443790  23.5480310 144.2900550  72.7889910  23.9424500
 147.6623980  72.8159530  16.6307300 147.7690730  73.7163260  16.9376060
 146.7516340  72.7677500  16.3401950 145.3107140  74.7378540  21.8759890
 145.9917250  75.0016910  22.4947290 144.9955190  73.8979410  22.2097900
 149.5031710  75.7845900  20.9632480 150.0109930  76.2826870  21.6037500
 150.0344950  75.0081100  20.7871840 147.7867810  70.4244460  25.2295900
 147.7886250  70.9416850  24.4241800 146.9572120  69.9474640  25.2065830
 149.0370660  80.0639640  23.4069400 148.7040040  80.6908560  24.0490470
 149.2137340  80.5901520  22.6271070 147.4683140  72.1354420  23.2366350
 147.8099950  72.9796470  22.9420220 146.5298950  72.2838160  23.3531690
 148.2489760  82.0320440  25.2218580 148.8663760  82.7071520  24.9403030
 147.3882880  82.4408420  25.1306080 143.5422100  81.2220300  14.1025430
 143.1650080  81.7107400  13.3710330 143.7995170  81.8945580  14.7331960
 151.1511030  69.6236690  19.5610940 151.4586010  69.0683580  18.8446440
 150.2211730  69.7581150  19.3783930 149.1448430  78.2150260  19.0790790
 148.7405430  77.5027510  18.5836690 149.2311550  77.8703500  19.9678830
 149.6130130  81.9017820  21.2430000 149.3158420  81.2963290  20.5637780
 150.5629950  81.9395130  21.1319360 147.8577050  74.9893470  22.8589830
 148.4091640  75.0988810  22.0843080 148.3720560  75.3631070  23.5745060
 148.7048560  81.6399510  27.8937800 147.8077090  81.8639480  28.1411200
 148.7301430  81.7634450  26.9449200 147.5319780  78.5112830  26.4695170
 147.3927550  79.3835630  26.8382570 146.6501140  78.1685640  26.3243110
 149.3300130  84.4534530  28.6780320 149.3015560  84.8577480  27.8108750
 149.1665100  83.5244890  28.5151920 145.8453060  77.1095240  16.5797440
 145.7250660  77.8357330  15.9678710 145.5353950  76.3398150  16.1025350
 143.4838430  80.2810380  22.3866080 143.5618850  80.4159150  21.4421800
 144.0980110  79.5726270  22.5794200 144.7286060  81.9810570  18.7972260
 144.3214140  82.1225160  17.9425860 145.6199070  81.6970730  18.5943470
 149.0007720  86.1956350  16.9094930 148.8250200  85.2791890  16.6962730
 148.1463460  86.5543640  17.1492730 143.5397950  81.3224550  24.9260540
 143.7028990  80.8529910  24.1079910 144.0050400  80.8148110  25.5909380
 148.3116720  70.4530310  19.9621110 147.8684870  71.2339850  19.6305630
 148.8701710  70.7760200  20.6692050 152.5986530  73.3198830  25.5656430
 152.1365900  73.5281850  26.3776370 152.1964640  72.5058180  25.2627100
 151.4275540  70.0741010  14.8426940 150.8029720  70.0700880  15.5680250
 151.3405660  69.2071970  14.4462910 150.3492620  70.9977640  21.8210710
 150.6464950  71.9040470  21.7402730 150.8978180  70.5096420  21.2070280
 148.1030940  75.5763880  17.6902360 147.8771860  75.3601050  18.5948980
 147.3223470  76.0092340  17.3448330 150.5430150  76.4749460  28.3562630
 150.4473750  75.5344190  28.2063030 151.3862130  76.6964530  27.9610700
 145.6740690  72.8863130  26.5096410 145.2804080  73.7338340  26.7169190
 144.9859090  72.2489500  26.7005050 152.2485740  72.9698100  29.5793150
 151.5584060  72.7770300  30.2139240 152.9918040  73.2532740  30.1117450
 142.9757740  70.8091590  20.5426490 142.6870790  71.3794450  21.2551470
 143.7203500  70.3296040  20.9057720 143.1627970  74.7511710  11.7529210
 143.0802640  75.6942470  11.8944200 142.8111030  74.6086620  10.8741560
 150.9626100  73.4850740  20.8199560 150.9662160  73.0440690  19.9704100
 151.8577220  73.8068070  20.9271380 146.8128480  73.3677230  19.7793770
 146.4728530  73.8452460  20.5360820 146.0505800  72.9142350  19.4194870
 151.0246250  74.4862820  13.8106320 151.1459070  74.4449300  14.7592140
 150.6394760  75.3486970  13.6553050 150.0367750  76.7963960  13.2089620
 149.4684650  76.3482210  12.5825530 150.7456750  77.1556740  12.6754770
 145.1136930  80.6975980  27.0856350 144.7291720  80.0569650  27.6839310
 145.4249120  81.4012100  27.6551080 151.2634070  77.5452520  22.5664970
 151.6304200  77.0711090  23.3126310 151.0739130  78.4194090  22.9073310
 144.1274560  72.2896210  18.6958440 143.8421480  71.9251880  19.5337060
 144.0653420  71.5576670  18.0821580 149.0533440  76.5861160  24.8849180
 148.7490510  77.4653140  25.1099540 150.0079900  76.6460950  24.9206620
 147.5815230  80.7922150  15.4816030 146.8077490  80.2519770  15.3214750
 148.3109860  80.2728760  15.1433790 147.6252630  80.4602530  19.1194840
 148.1431300  79.6570790  19.0651730 147.1736650  80.3981670  19.9611670
 152.5122130  81.7268810  14.3922140 152.8537830  82.4711040  13.8965460
 151.6834840  82.0399930  14.7546970 145.1097170  77.4263900  26.0320540
 144.7512110  78.0917750  26.6193880 144.8151730  76.5947450  26.4033160
 148.3110290  77.8848140  28.9160090 148.0110430  78.0305320  28.0187910
 149.0821530  77.3253430  28.8233480 151.4812820  81.8082340  17.1638060
 152.1683950  82.3551550  17.5445650 150.6945240  82.3523070  17.1987670
 143.6205220  77.4255160  12.6555140 144.4900070  77.7079960  12.9391060
 143.1295540  78.2391030  12.5403950 150.7840030  78.8128370  16.7763420
 151.2402810  79.6233620  17.0023610 150.4328240  78.4951510  17.6081910
 146.6851810  69.1566020  17.2485940 146.5566440  69.1483920  18.1970860
 145.8613830  69.4949110  16.8976950 143.9876470  86.6382540  13.2216770
 144.3474110  87.2371880  12.5674040 143.8468810  87.1842430  13.9951800
 143.6845740  70.9157140  26.7092640 142.9704260  71.1154060  27.3145250
 144.1040780  70.1396710  27.0807440 143.9718330  84.9037400  27.6959170
 144.0809450  83.9632140  27.5554560 143.3198890  85.1692150  27.0472900
 151.9630920  83.1753290  29.0957290 151.6427790  82.4562530  29.6402980
 151.2889280  83.8508360  29.1693350 150.0045090  84.0213740  14.0390440
 149.9955190  84.7543430  13.4234950 149.0843450  83.7745320  14.1317400
 145.6051730  79.2428630  14.7837200 144.9979680  79.9827530  14.7932500
 146.0801080  79.3327990  13.9575400 152.9904690  84.0841980  12.7015630
 153.0916670  83.8805970  11.7717610 152.0906430  83.8300260  12.9063410
 150.5130580  74.6422340  16.6839530 149.8046730  75.1108680  17.1253140
 150.7975060  73.9844350  17.3184720 152.1386510  76.0619040  24.6832060
 152.6371760  76.5364860  25.3483910 152.2809460  75.1382560  24.8902090
 151.6322800  86.6028300  17.3963300 151.8864300  86.5649690  16.4742670
 150.6835280  86.4761630  17.3891550 148.7165600  72.9507420  14.0590240
 149.5656130  73.3877570  13.9930430 148.3496870  73.2627680  14.8862300
 147.6157020  79.2039780  12.5325770 148.3820290  79.0921140  13.0951200
 147.6931710  78.5077750  11.8802540 146.3103780  76.6364850  13.2158660
 146.3907370  75.6892360  13.3276060 147.2023530  76.9671730  13.3219320
 147.1118490  86.7860240  20.3193200 147.8480970  86.2375700  20.5901770
 147.4959410  87.6516250  20.1799190 143.9963970  82.8533810  16.1934710
 143.0703750  83.0954950  16.1840120 144.4620400  83.6808070  16.0719460
 146.1176770  85.9706310  29.5078780 146.9189500  86.2918360  29.9214180
 145.6028590  85.6101890  30.2298690 150.2220800  85.9590550  12.1418770
 151.0149410  86.2479380  11.6900560 149.7025150  85.5282720  11.4631250
 143.8374580  78.4579770  28.4514830 144.3413600  77.8787050  29.0231060
 143.0982000  78.7420000  28.9891200 150.7398200  81.1793960  12.0061120
 150.6348840  80.5646310  12.7322500 150.5722420  80.6559850  11.2224130
 150.8912520  79.8650760  27.9850350 150.1258190  80.4335760  27.9005020
 151.0728480  79.5726970  27.0918580 145.8697660  76.6009360  29.3464900
 145.9103000  76.3023230  30.2550130 146.7243160  77.0016970  29.1872420
 149.6476050  79.2004910  14.5068410 150.0692470  79.0344780  15.3499800
 149.7726890  78.3905140  14.0123550 147.8103470  75.1801460  27.3139390
 147.2799930  74.6892410  26.6862730 148.4791540  75.6085660  26.7797320
 152.1603690  78.2242520  11.7545510 152.6809350  77.5091540  11.3886660
 152.8072090  78.8628390  12.0546020 148.2975770  72.1463830  27.3936680
 148.2032640  71.5284580  26.6687550 147.7173160  72.8730120  27.1666590
 151.0637210  70.7037070  24.4264070 150.6154510  70.7261330  23.5809620
 150.4302410  70.3056090  25.0234370 151.4696760  79.5991400  25.0476510
 151.8884870  80.4424130  24.8752750 150.5505390  79.7363440  24.8183290
 148.5434950  75.2738140  11.4526570 148.3424010  74.4105500  11.8139910
 148.3727000  75.1871500  10.5148170 149.3204180  85.9044410  26.1634240
 148.7825270  86.6290470  25.8442940 149.5738140  85.4274750  25.3731580
 150.5729430  73.8728930  27.6890170 151.1629120  73.5644780  28.3767990
 149.7549670  73.4008680  27.8450070 147.3417750  72.3738760  11.4404450
 147.6443650  72.3806190  10.5323600 148.0812340  72.0236620  11.9372110
 152.1766390  87.1395620  26.4220890 152.1025090  88.0430760  26.7293260
 151.2745230  86.8207520  26.3942960 150.5602680  71.3173380  12.4260650
 150.2124680  70.6397370  11.8463100 150.7615450  70.8562890  13.2404040
 146.3647880  81.6781180  12.2734250 146.8022750  82.2210850  12.9291830
 146.8495610  80.8528130  12.2830590 143.5793680  84.4670210  19.7254510
 143.9096690  83.5991270  19.4933150 144.0084680  84.6728730  20.5559470
 148.1755600  82.7979220  17.3856480 147.8751140  82.6744190  18.2860390
 148.0693090  81.9387810  16.9772210 144.0683890  85.3340800  22.4636140
 143.6314880  85.5141600  23.2960290 144.6361570  86.0915420  22.3217860
 143.9008320  77.8461030  18.8225020 143.2457160  77.5772670  18.1784720
 144.7386270  77.7365510  18.3727000 144.9384250  78.2313600  23.3628360
 145.3057290  78.1441000  24.2424380 144.3695070  77.4680150  23.2635220
 144.4900250  75.1422690  27.2686780 143.5956300  75.1089450  27.6080490
 145.0297800  75.3409480  28.0338030 143.1146400  75.0559960  14.7650350
 142.2110480  75.3190160  14.5902010 143.5987020  75.3271130  13.9850310
 145.6573610  74.1125500  12.6744730 146.3665310  73.6908720  12.1892010
 144.9413550  74.1800730  12.0428080 145.3047770  70.1664830  11.7147380
 146.0275900  70.7073770  12.0328600 145.5772290  69.8928250  10.8388920
 144.9939960  69.4171020  21.6170000 145.6416150  68.8668400  21.1765160
 145.4141800  69.6714170  22.4385810 144.7471960  69.5726690  24.3595320
 144.3986780  70.0290510  25.1253500 144.4159660  68.6783820  24.4417750
 146.3536330  82.7446290  28.5248510 146.3105960  82.3739200  29.4062970
 146.4847340  83.6823860  28.6650330 150.0542360  84.3005880  24.1258230
 149.8133720  84.5680440  23.2388750 150.9945000  84.4711610  24.1809090
 145.4192600  69.1002890  27.6346090 145.9675590  68.9190940  26.8712200
 145.4847910  68.3097000  28.1702400 146.1924360  85.6908540  25.6446290
 145.5984680  85.5593240  26.3836330 146.1848200  84.8546680  25.1788390
 145.8236590  83.0566920  24.5954330 145.0970650  82.4372210  24.5280280
 145.8845740  83.4507530  23.7252410 149.4281690  85.2711920  21.3803740
 149.9446710  84.6599280  20.8552000 150.0779070  85.7740700  21.8714750
 152.1677190  86.1620410  22.2072720 152.4555000  85.9074710  21.3305730
 152.6800410  85.6097770  22.7978290 144.1066590  86.3741310  17.8051090
 143.9388630  85.7411990  18.5032980 143.2401100  86.5800710  17.4545280
 144.7294610  70.2058090  15.3082950 145.4873970  70.3186970  14.7346980
 144.2671780  71.0427290  15.2626380 151.2708420  72.3197360  18.2985260
 150.4582930  71.9454250  17.9581140 151.7750060  71.5642440  18.6006450
 145.7129290  85.0674540  15.2501230 145.1876910  85.4482570  14.5463190
 145.6373870  85.6925310  15.9710940 147.1019760  70.7322140  13.8484920
 147.6312520  69.9451940  13.7192870 147.7348080  71.4113330  14.0820450
 149.2957600  70.4697280  16.9030310 148.6660340  69.7684590  17.0700440
 148.7562740  71.2301410  16.6863470 149.4213160  69.7481260  29.3382800
 149.1397430  70.2514860  28.5743620 149.8032860  68.9503010  28.9724930
 148.3122260  87.0156920  14.1250480 149.0441080  86.7316200  13.5774370
 148.5715930  86.7770200  15.0149860 147.4737050  83.1321650  14.1296810
 146.8445930  83.6006750  14.6782640 147.5884880  82.2870870  14.5643000
 147.0770640  79.2726140   3.0383040 146.2455520  79.0174850   3.4379550
 147.6851620  79.3436910   3.7740960 147.0571900  83.3066230   3.2341060
 147.3599940  82.4163970   3.0551280 147.8015490  83.8636450   3.0063310
 143.4495600  76.8333680   2.7065130 144.0211710  76.0655880   2.7068770
 143.4497140  77.1322440   1.7971740 144.6920470  72.2418040   4.4934060
 144.5123310  71.3443790   4.7736820 144.2900550  72.7889910   5.1681010
 145.3107140  74.7378540   3.1016400 145.9917250  75.0016910   3.7203800
 144.9955190  73.8979410   3.4354410 149.5031710  75.7845900   2.1888990
 150.0109930  76.2826870   2.8294010 150.0344950  75.0081100   2.0128350
 147.7867810  70.4244460   6.4552410 147.7886250  70.9416850   5.6498310
 146.9572120  69.9474640   6.4322340 149.0370660  80.0639640   4.6325910
 148.7040040  80.6908560   5.2746980 149.2137340  80.5901520   3.8527580
 147.4683140  72.1354420   4.4622860 147.8099950  72.9796470   4.1676730
 146.5298950  72.2838160   4.5788200 148.2489760  82.0320440   6.4475090
 148.8663760  82.7071520   6.1659540 147.3882880  82.4408420   6.3562590
 149.6130130  81.9017820   2.4686510 149.3158420  81.2963290   1.7894290
 150.5629950  81.9395130   2.3575870 147.8577050  74.9893470   4.0846340
 148.4091640  75.0988810   3.3099590 148.3720560  75.3631070   4.8001570
 148.7048560  81.6399510   9.1194310 147.8077090  81.8639480   9.3667710
 148.7301430  81.7634450   8.1705710 147.5319780  78.5112830   7.6951680
 147.3927550  79.3835630   8.0639080 146.6501140  78.1685640   7.5499620
 149.3300130  84.4534530   9.9036830 149.3015560  84.8577480   9.0365260
 149.1665100  83.5244890   9.7408430 143.4838430  80.2810380   3.6122590
 143.5618850  80.4159150   2.6678310 144.0980110  79.5726270   3.8050710
 143.5397950  81.3224550   6.1517050 143.7028990  80.8529910   5.3336420
 144.0050400  80.8148110   6.8165890 152.5986530  73.3198830   6.7912940
 152.1365900  73.5281850   7.6032880 152.1964640  72.5058180   6.4883610
 150.3492620  70.9977640   3.0467220 150.6464950  71.9040470   2.9659240
 150.8978180  70.5096420   2.4326790 150.5430150  76.4749460   9.5819140
 150.4473750  75.5344190   9.4319540 151.3862130  76.6964530   9.1867210
 145.6740690  72.8863130   7.7352920 145.2804080  73.7338340   7.9425700
 144.9859090  72.2489500   7.9261560 152.2485740  72.9698100  10.8049660
 151.5584060  72.7770300  11.4395750 152.9918040  73.2532740  11.3373960
 142.9757740  70.8091590   1.7683000 142.6870790  71.3794450   2.4807980
 143.7203500  70.3296040   2.1314230 145.1136930  80.6975980   8.3112860
 144.7291720  80.0569650   8.9095820 145.4249120  81.4012100   8.8807590
 151.2634070  77.5452520   3.7921480 151.6304200  77.0711090   4.5382820
 151.0739130  78.4194090   4.1329820 149.0533440  76.5861160   6.1105690
 148.7490510  77.4653140   6.3356050 150.0079900  76.6460950   6.1463130
 145.1097170  77.4263900   7.2577050 144.7512110  78.0917750   7.8450390
 144.8151730  76.5947450   7.6289670 148.3110290  77.8848140  10.1416600
 148.0110430  78.0305320   9.2444420 149.0821530  77.3253430  10.0489990
 143.6845740  70.9157140   7.9349150 142.9704260  71.1154060   8.5401760
 144.1040780  70.1396710   8.3063950 143.9718330  84.9037400   8.9215680
 144.0809450  83.9632140   8.7811070 143.3198890  85.1692150   8.2729410
 151.9630920  83.1753290  10.3213800 151.6427790  82.4562530  10.8659490
 151.2889280  83.8508360  10.3949860 152.1386510  76.0619040   5.9088570
 152.6371760  76.5364860   6.5740420 152.2809460  75.1382560   6.1158600
 146.1176770  85.9706310  10.7335290 146.9189500  86.2918360  11.1470690
 145.6028590  85.6101890  11.4555200 143.8374580  78.4579770   9.6771340
 144.3413600  77.8787050  10.2487570 143.0982000  78.7420000  10.2147710
 150.8912520  79.8650760   9.2106860 150.1258190  80.4335760   9.1261530
 151.0728480  79.5726970   8.3175090 145.8697660  76.6009360  10.5721410
 145.9103000  76.3023230  11.4806640 146.7243160  77.0016970  10.4128930
 147.8103470  75.1801460   8.5395900 147.2799930  74.6892410   7.9119240
 148.4791540  75.6085660   8.0053830 148.2975770  72.1463830   8.6193190
 148.2032640  71.5284580   7.8944060 147.7173160  72.8730120   8.3923100
 151.0637210  70.7037070   5.6520580 150.6154510  70.7261330   4.8066130
 150.4302410  70.3056090   6.2490880 151.4696760  79.5991400   6.2733020
 151.8884870  80.4424130   6.1009260 150.5505390  79.7363440   6.0439800
 149.3204180  85.9044410   7.3890750 148.7825270  86.6290470   7.0699450
 149.5738140  85.4274750   6.5988090 150.5729430  73.8728930   8.9146680
 151.1629120  73.5644780   9.6024500 149.7549670  73.4008680   9.0706580
 152.1766390  87.1395620   7.6477400 152.1025090  88.0430760   7.9549770
 151.2745230  86.8207520   7.6199470 144.0683890  85.3340800   3.6892650
 143.6314880  85.5141600   4.5216800 144.6361570  86.0915420   3.5474370
 144.9384250  78.2313600   4.5884870 145.3057290  78.1441000   5.4680890
 144.3695070  77.4680150   4.4891730 144.4900250  75.1422690   8.4943290
 143.5956300  75.1089450   8.8337000 145.0297800  75.3409480   9.2594540
 144.9939960  69.4171020   2.8426510 145.6416150  68.8668400   2.4021670
 145.4141800  69.6714170   3.6642320 144.7471960  69.5726690   5.5851830
 144.3986780  70.0290510   6.3510010 144.4159660  68.6783820   5.6674260
 146.3536330  82.7446290   9.7505020 146.3105960  82.3739200  10.6319480
 146.4847340  83.6823860   9.8906840 150.0542360  84.3005880   5.3514740
 149.8133720  84.5680440   4.4645260 150.9945000  84.4711610   5.4065600
 145.4192600  69.1002890   8.8602600 145.9675590  68.9190940   8.0968710
 145.4847910  68.3097000   9.3958910 146.1924360  85.6908540   6.8702800
 145.5984680  85.5593240   7.6092840 146.1848200  84.8546680   6.4044900
 145.8236590  83.0566920   5.8210840 145.0970650  82.4372210   5.7536790
 145.8845740  83.4507530   4.9508920 149.4281690  85.2711920   2.6060250
 149.9446710  84.6599280   2.0808510 150.0779070  85.7740700   3.0971260
 152.1677190  86.1620410   3.4329230 152.4555000  85.9074710   2.5562240
 152.6800410  85.6097770   4.0234800 149.4213160  69.7481260  10.5639310
 149.1397430  70.2514860   9.8000130 149.8032860  68.9503010  10.1981440
 145.4862590  55.4584540 147.0173350 144.5979290  55.8000510 146.9153230
 145.7703780  55.2584860 146.1254180 147.6623980  54.0416040 148.0511730
 147.7690730  54.9419770 148.3580490 146.7516340  53.9934010 147.7606380
 143.5422100  62.4476810 145.5229860 143.1650080  62.9363910 144.7914760
 143.7995170  63.1202090 146.1536390 151.1511030  50.8493200 150.9815370
 151.4586010  50.2940090 150.2650870 150.2211730  50.9837660 150.7988360
 149.1448430  59.4406770 150.4995220 148.7405430  58.7284020 150.0041120
 149.2311550  59.0960010 151.3883260 145.8453060  58.3351750 148.0001870
 145.7250660  59.0613840 147.3883140 145.5353950  57.5654660 147.5229780
 144.7286060  63.2067080 150.2176690 144.3214140  63.3481670 149.3630290
 145.6199070  62.9227240 150.0147900 149.0007720  67.4212860 148.3299360
 148.8250200  66.5048400 148.1167160 148.1463460  67.7800150 148.5697160
 148.3116720  51.6786820 151.3825540 147.8684870  52.4596360 151.0510060
 148.8701710  52.0016710 152.0896480 151.4275540  51.2997520 146.2631370
 150.8029720  51.2957390 146.9884680 151.3405660  50.4328480 145.8667340
 148.1030940  56.8020390 149.1106790 147.8771860  56.5857560 150.0153410
 147.3223470  57.2348850 148.7652760 143.1627970  55.9768220 143.1733640
 143.0802640  56.9198980 143.3148630 142.8111030  55.8343130 142.2945990
 150.9626100  54.7107250 152.2403990 150.9662160  54.2697200 151.3908530
 151.8577220  55.0324580 152.3475810 146.8128480  54.5933740 151.1998200
 146.4728530  55.0708970 151.9565250 146.0505800  54.1398860 150.8399300
 151.0246250  55.7119330 145.2310750 151.1459070  55.6705810 146.1796570
 150.6394760  56.5743480 145.0757480 150.0367750  58.0220470 144.6294050
 149.4684650  57.5738720 144.0029960 150.7456750  58.3813250 144.0959200
 144.1274560  53.5152720 150.1162870 143.8421480  53.1508390 150.9541490
 144.0653420  52.7833180 149.5026010 147.5815230  62.0178660 146.9020460
 146.8077490  61.4776280 146.7419180 148.3109860  61.4985270 146.5638220
 147.6252630  61.6859040 150.5399270 148.1431300  60.8827300 150.4856160
 147.1736650  61.6238180 151.3816100 152.5122130  62.9525320 145.8126570
 152.8537830  63.6967550 145.3169890 151.6834840  63.2656440 146.1751400
 151.4812820  63.0338850 148.5842490 152.1683950  63.5808060 148.9650080
 150.6945240  63.5779580 148.6192100 143.6205220  58.6511670 144.0759570
 144.4900070  58.9336470 144.3595490 143.1295540  59.4647540 143.9608380
 150.7840030  60.0384880 148.1967850 151.2402810  60.8490130 148.4228040
 150.4328240  59.7208020 149.0286340 146.6851810  50.3822530 148.6690370
 146.5566440  50.3740430 149.6175290 145.8613830  50.7205620 148.3181380
 143.9876470  67.8639050 144.6421200 144.3474110  68.4628390 143.9878470
 143.8468810  68.4098940 145.4156230 150.0045090  65.2470250 145.4594870
 149.9955190  65.9799940 144.8439380 149.0843450  65.0001830 145.5521830
 145.6051730  60.4685140 146.2041630 144.9979680  61.2084040 146.2136930
 146.0801080  60.5584500 145.3779830 152.9904690  65.3098490 144.1220060
 153.0916670  65.1062480 143.1922040 152.0906430  65.0556770 144.3267840
 150.5130580  55.8678850 148.1043960 149.8046730  56.3365190 148.5457570
 150.7975060  55.2100860 148.7389150 151.6322800  67.8284810 148.8167730
 151.8864300  67.7906200 147.8947100 150.6835280  67.7018140 148.8095980
 148.7165600  54.1763930 145.4794670 149.5656130  54.6134080 145.4134860
 148.3496870  54.4884190 146.3066730 147.6157020  60.4296290 143.9530200
 148.3820290  60.3177650 144.5155630 147.6931710  59.7334260 143.3006970
 146.3103780  57.8621360 144.6363090 146.3907370  56.9148870 144.7480490
 147.2023530  58.1928240 144.7423750 147.1118490  68.0116750 151.7397630
 147.8480970  67.4632210 152.0106200 147.4959410  68.8772760 151.6003620
 143.9963970  64.0790320 147.6139140 143.0703750  64.3211460 147.6044550
 144.4620400  64.9064580 147.4923890 150.2220800  67.1847060 143.5623200
 151.0149410  67.4735890 143.1104990 149.7025150  66.7539230 142.8835680
 150.7398200  62.4050470 143.4265550 150.6348840  61.7902820 144.1526930
 150.5722420  61.8816360 142.6428560 149.6476050  60.4261420 145.9272840
 150.0692470  60.2601290 146.7704230 149.7726890  59.6161650 145.4327980
 152.1603690  59.4499030 143.1749940 152.6809350  58.7348050 142.8091090
 152.8072090  60.0884900 143.4750450 148.5434950  56.4994650 142.8731000
 148.3424010  55.6362010 143.2344340 148.3727000  56.4128010 141.9352600
 147.3417750  53.5995270 142.8608880 147.6443650  53.6062700 141.9528030
 148.0812340  53.2493130 143.3576540 150.5602680  52.5429890 143.8465080
 150.2124680  51.8653880 143.2667530 150.7615450  52.0819400 144.6608470
 146.3647880  62.9037690 143.6938680 146.8022750  63.4467360 144.3496260
 146.8495610  62.0784640 143.7035020 143.5793680  65.6926720 151.1458940
 143.9096690  64.8247780 150.9137580 144.0084680  65.8985240 151.9763900
 148.1755600  64.0235730 148.8060910 147.8751140  63.9000700 149.7064820
 148.0693090  63.1644320 148.3976640 143.9008320  59.0717540 150.2429450
 143.2457160  58.8029180 149.5989150 144.7386270  58.9622020 149.7931430
 143.1146400  56.2816470 146.1854780 142.2110480  56.5446670 146.0106440
 143.5987020  56.5527640 145.4054740 145.6573610  55.3382010 144.0949160
 146.3665310  54.9165230 143.6096440 144.9413550  55.4057240 143.4632510
 145.3047770  51.3921340 143.1351810 146.0275900  51.9330280 143.4533030
 145.5772290  51.1184760 142.2593350 144.1066590  67.5997820 149.2255520
 143.9388630  66.9668500 149.9237410 143.2401100  67.8057220 148.8749710
 144.7294610  51.4314600 146.7287380 145.4873970  51.5443480 146.1551410
 144.2671780  52.2683800 146.6830810 151.2708420  53.5453870 149.7189690
 150.4582930  53.1710760 149.3785570 151.7750060  52.7898950 150.0210880
 145.7129290  66.2931050 146.6705660 145.1876910  66.6739080 145.9667620
 145.6373870  66.9181820 147.3915370 147.1019760  51.9578650 145.2689350
 147.6312520  51.1708450 145.1397300 147.7348080  52.6369840 145.5024880
 149.2957600  51.6953790 148.3234740 148.6660340  50.9941100 148.4904870
 148.7562740  52.4557920 148.1067900 148.3122260  68.2413430 145.5454910
 149.0441080  67.9572710 144.9978800 148.5715930  68.0026710 146.4354290
 147.4737050  64.3578160 145.5501240 146.8445930  64.8263260 146.0987070
 147.5884880  63.5127380 145.9847430 147.0770640  60.4982650 134.4587470
 146.2455520  60.2431360 134.8583980 147.6851620  60.5693420 135.1945390
 147.0571900  64.5322740 134.6545490 147.3599940  63.6420480 134.4755710
 147.8015490  65.0892960 134.4267740 145.4862590  55.4584540 128.2429860
 144.5979290  55.8000510 128.1409740 145.7703780  55.2584860 127.3510690
 143.4495600  58.0590190 134.1269560 144.0211710  57.2912390 134.1273200
 143.4497140  58.3578950 133.2176170 144.6920470  53.4674550 135.9138490
 144.5123310  52.5700300 136.1941250 144.2900550  54.0146420 136.5885440
 147.6623980  54.0416040 129.2768240 147.7690730  54.9419770 129.5837000
 146.7516340  53.9934010 128.9862890 145.3107140  55.9635050 134.5220830
 145.9917250  56.2273420 135.1408230 144.9955190  55.1235920 134.8558840
 149.5031710  57.0102410 133.6093420 150.0109930  57.5083380 134.2498440
 150.0344950  56.2337610 133.4332780 147.7867810  51.6500970 137.8756840
 147.7886250  52.1673360 137.0702740 146.9572120  51.1731150 137.8526770
 149.0370660  61.2896150 136.0530340 148.7040040  61.9165070 136.6951410
 149.2137340  61.8158030 135.2732010 147.4683140  53.3610930 135.8827290
 147.8099950  54.2052980 135.5881160 146.5298950  53.5094670 135.9992630
 148.2489760  63.2576950 137.8679520 148.8663760  63.9328030 137.5863970
 147.3882880  63.6664930 137.7767020 143.5422100  62.4476810 126.7486370
 143.1650080  62.9363910 126.0171270 143.7995170  63.1202090 127.3792900
 151.1511030  50.8493200 132.2071880 151.4586010  50.2940090 131.4907380
 150.2211730  50.9837660 132.0244870 149.1448430  59.4406770 131.7251730
 148.7405430  58.7284020 131.2297630 149.2311550  59.0960010 132.6139770
 149.6130130  63.1274330 133.8890940 149.3158420  62.5219800 133.2098720
 150.5629950  63.1651640 133.7780300 147.8577050  56.2149980 135.5050770
 148.4091640  56.3245320 134.7304020 148.3720560  56.5887580 136.2206000
 148.7048560  62.8656020 140.5398740 147.8077090  63.0895990 140.7872140
 148.7301430  62.9890960 139.5910140 147.5319780  59.7369340 139.1156110
 147.3927550  60.6092140 139.4843510 146.6501140  59.3942150 138.9704050
 149.3300130  65.6791040 141.3241260 149.3015560  66.0833990 140.4569690
 149.1665100  64.7501400 141.1612860 145.8453060  58.3351750 129.2258380
 145.7250660  59.0613840 128.6139650 145.5353950  57.5654660 128.7486290
 143.4838430  61.5066890 135.0327020 143.5618850  61.6415660 134.0882740
 144.0980110  60.7982780 135.2255140 144.7286060  63.2067080 131.4433200
 144.3214140  63.3481670 130.5886800 145.6199070  62.9227240 131.2404410
 149.0007720  67.4212860 129.5555870 148.8250200  66.5048400 129.3423670
 148.1463460  67.7800150 129.7953670 143.5397950  62.5481060 137.5721480
 143.7028990  62.0786420 136.7540850 144.0050400  62.0404620 138.2370320
 148.3116720  51.6786820 132.6082050 147.8684870  52.4596360 132.2766570
 148.8701710  52.0016710 133.3152990 152.5986530  54.5455340 138.2117370
 152.1365900  54.7538360 139.0237310 152.1964640  53.7314690 137.9088040
 151.4275540  51.2997520 127.4887880 150.8029720  51.2957390 128.2141190
 151.3405660  50.4328480 127.0923850 150.3492620  52.2234150 134.4671650
 150.6464950  53.1296980 134.3863670 150.8978180  51.7352930 133.8531220
 148.1030940  56.8020390 130.3363300 147.8771860  56.5857560 131.2409920
 147.3223470  57.2348850 129.9909270 150.5430150  57.7005970 141.0023570
 150.4473750  56.7600700 140.8523970 151.3862130  57.9221040 140.6071640
 145.6740690  54.1119640 139.1557350 145.2804080  54.9594850 139.3630130
 144.9859090  53.4746010 139.3465990 152.2485740  54.1954610 142.2254090
 151.5584060  54.0026810 142.8600180 152.9918040  54.4789250 142.7578390
 142.9757740  52.0348100 133.1887430 142.6870790  52.6050960 133.9012410
 143.7203500  51.5552550 133.5518660 143.1627970  55.9768220 124.3990150
 143.0802640  56.9198980 124.5405140 142.8111030  55.8343130 123.5202500
 150.9626100  54.7107250 133.4660500 150.9662160  54.2697200 132.6165040
 151.8577220  55.0324580 133.5732320 146.8128480  54.5933740 132.4254710
 146.4728530  55.0708970 133.1821760 146.0505800  54.1398860 132.0655810
 151.0246250  55.7119330 126.4567260 151.1459070  55.6705810 127.4053080
 150.6394760  56.5743480 126.3013990 150.0367750  58.0220470 125.8550560
 149.4684650  57.5738720 125.2286470 150.7456750  58.3813250 125.3215710
 145.1136930  61.9232490 139.7317290 144.7291720  61.2826160 140.3300250
 145.4249120  62.6268610 140.3012020 151.2634070  58.7709030 135.2125910
 151.6304200  58.2967600 135.9587250 151.0739130  59.6450600 135.5534250
 144.1274560  53.5152720 131.3419380 143.8421480  53.1508390 132.1798000
 144.0653420  52.7833180 130.7282520 149.0533440  57.8117670 137.5310120
 148.7490510  58.6909650 137.7560480 150.0079900  57.8717460 137.5667560
 147.5815230  62.0178660 128.1276970 146.8077490  61.4776280 127.9675690
 148.3109860  61.4985270 127.7894730 147.6252630  61.6859040 131.7655780
 148.1431300  60.8827300 131.7112670 147.1736650  61.6238180 132.6072610
 152.5122130  62.9525320 127.0383080 152.8537830  63.6967550 126.5426400
 151.6834840  63.2656440 127.4007910 145.1097170  58.6520410 138.6781480
 144.7512110  59.3174260 139.2654820 144.8151730  57.8203960 139.0494100
 148.3110290  59.1104650 141.5621030 148.0110430  59.2561830 140.6648850
 149.0821530  58.5509940 141.4694420 151.4812820  63.0338850 129.8099000
 152.1683950  63.5808060 130.1906590 150.6945240  63.5779580 129.8448610
 143.6205220  58.6511670 125.3016080 144.4900070  58.9336470 125.5852000
 143.1295540  59.4647540 125.1864890 150.7840030  60.0384880 129.4224360
 151.2402810  60.8490130 129.6484550 150.4328240  59.7208020 130.2542850
 146.6851810  50.3822530 129.8946880 146.5566440  50.3740430 130.8431800
 145.8613830  50.7205620 129.5437890 143.9876470  67.8639050 125.8677710
 144.3474110  68.4628390 125.2134980 143.8468810  68.4098940 126.6412740
 143.6845740  52.1413650 139.3553580 142.9704260  52.3410570 139.9606190
 144.1040780  51.3653220 139.7268380 143.9718330  66.1293910 140.3420110
 144.0809450  65.1888650 140.2015500 143.3198890  66.3948660 139.6933840
 151.9630920  64.4009800 141.7418230 151.6427790  63.6819040 142.2863920
 151.2889280  65.0764870 141.8154290 150.0045090  65.2470250 126.6851380
 149.9955190  65.9799940 126.0695890 149.0843450  65.0001830 126.7778340
 145.6051730  60.4685140 127.4298140 144.9979680  61.2084040 127.4393440
 146.0801080  60.5584500 126.6036340 152.9904690  65.3098490 125.3476570
 153.0916670  65.1062480 124.4178550 152.0906430  65.0556770 125.5524350
 150.5130580  55.8678850 129.3300470 149.8046730  56.3365190 129.7714080
 150.7975060  55.2100860 129.9645660 152.1386510  57.2875550 137.3293000
 152.6371760  57.7621370 137.9944850 152.2809460  56.3639070 137.5363030
 151.6322800  67.8284810 130.0424240 151.8864300  67.7906200 129.1203610
 150.6835280  67.7018140 130.0352490 148.7165600  54.1763930 126.7051180
 149.5656130  54.6134080 126.6391370 148.3496870  54.4884190 127.5323240
 147.6157020  60.4296290 125.1786710 148.3820290  60.3177650 125.7412140
 147.6931710  59.7334260 124.5263480 146.3103780  57.8621360 125.8619600
 146.3907370  56.9148870 125.9737000 147.2023530  58.1928240 125.9680260
 147.1118490  68.0116750 132.9654140 147.8480970  67.4632210 133.2362710
 147.4959410  68.8772760 132.8260130 143.9963970  64.0790320 128.8395650
 143.0703750  64.3211460 128.8301060 144.4620400  64.9064580 128.7180400
 146.1176770  67.1962820 142.1539720 146.9189500  67.5174870 142.5675120
 145.6028590  66.8358400 142.8759630 150.2220800  67.1847060 124.7879710
 151.0149410  67.4735890 124.3361500 149.7025150  66.7539230 124.1092190
 143.8374580  59.6836280 141.0975770 144.3413600  59.1043560 141.6692000
 143.0982000  59.9676510 141.6352140 150.7398200  62.4050470 124.6522060
 150.6348840  61.7902820 125.3783440 150.5722420  61.8816360 123.8685070
 150.8912520  61.0907270 140.6311290 150.1258190  61.6592270 140.5465960
 151.0728480  60.7983480 139.7379520 145.8697660  57.8265870 141.9925840
 145.9103000  57.5279740 142.9011070 146.7243160  58.2273480 141.8333360
 149.6476050  60.4261420 127.1529350 150.0692470  60.2601290 127.9960740
 149.7726890  59.6161650 126.6584490 147.8103470  56.4057970 139.9600330
 147.2799930  55.9148920 139.3323670 148.4791540  56.8342170 139.4258260
 152.1603690  59.4499030 124.4006450 152.6809350  58.7348050 124.0347600
 152.8072090  60.0884900 124.7006960 148.2975770  53.3720340 140.0397620
 148.2032640  52.7541090 139.3148490 147.7173160  54.0986630 139.8127530
 151.0637210  51.9293580 137.0725010 150.6154510  51.9517840 136.2270560
 150.4302410  51.5312600 137.6695310 151.4696760  60.8247910 137.6937450
 151.8884870  61.6680640 137.5213690 150.5505390  60.9619950 137.4644230
 148.5434950  56.4994650 124.0987510 148.3424010  55.6362010 124.4600850
 148.3727000  56.4128010 123.1609110 149.3204180  67.1300920 138.8095180
 148.7825270  67.8546980 138.4903880 149.5738140  66.6531260 138.0192520
 150.5729430  55.0985440 140.3351110 151.1629120  54.7901290 141.0228930
 149.7549670  54.6265190 140.4911010 147.3417750  53.5995270 124.0865390
 147.6443650  53.6062700 123.1784540 148.0812340  53.2493130 124.5833050
 152.1766390  68.3652130 139.0681830 152.1025090  69.2687270 139.3754200
 151.2745230  68.0464030 139.0403900 150.5602680  52.5429890 125.0721590
 150.2124680  51.8653880 124.4924040 150.7615450  52.0819400 125.8864980
 146.3647880  62.9037690 124.9195190 146.8022750  63.4467360 125.5752770
 146.8495610  62.0784640 124.9291530 143.5793680  65.6926720 132.3715450
 143.9096690  64.8247780 132.1394090 144.0084680  65.8985240 133.2020410
 148.1755600  64.0235730 130.0317420 147.8751140  63.9000700 130.9321330
 148.0693090  63.1644320 129.6233150 144.0683890  66.5597310 135.1097080
 143.6314880  66.7398110 135.9421230 144.6361570  67.3171930 134.9678800
 143.9008320  59.0717540 131.4685960 143.2457160  58.8029180 130.8245660
 144.7386270  58.9622020 131.0187940 144.9384250  59.4570110 136.0089300
 145.3057290  59.3697510 136.8885320 144.3695070  58.6936660 135.9096160
 144.4900250  56.3679200 139.9147720 143.5956300  56.3345960 140.2541430
 145.0297800  56.5665990 140.6798970 143.1146400  56.2816470 127.4111290
 142.2110480  56.5446670 127.2362950 143.5987020  56.5527640 126.6311250
 145.6573610  55.3382010 125.3205670 146.3665310  54.9165230 124.8352950
 144.9413550  55.4057240 124.6889020 145.3047770  51.3921340 124.3608320
 146.0275900  51.9330280 124.6789540 145.5772290  51.1184760 123.4849860
 144.9939960  50.6427530 134.2630940 145.6416150  50.0924910 133.8226100
 145.4141800  50.8970680 135.0846750 144.7471960  50.7983200 137.0056260
 144.3986780  51.2547020 137.7714440 144.4159660  49.9040330 137.0878690
 146.3536330  63.9702800 141.1709450 146.3105960  63.5995710 142.0523910
 146.4847340  64.9080370 141.3111270 150.0542360  65.5262390 136.7719170
 149.8133720  65.7936950 135.8849690 150.9945000  65.6968120 136.8270030
 145.4192600  50.3259400 140.2807030 145.9675590  50.1447450 139.5173140
 145.4847910  49.5353510 140.8163340 146.1924360  66.9165050 138.2907230
 145.5984680  66.7849750 139.0297270 146.1848200  66.0803190 137.8249330
 145.8236590  64.2823430 137.2415270 145.0970650  63.6628720 137.1741220
 145.8845740  64.6764040 136.3713350 149.4281690  66.4968430 134.0264680
 149.9446710  65.8855790 133.5012940 150.0779070  66.9997210 134.5175690
 152.1677190  67.3876920 134.8533660 152.4555000  67.1331220 133.9766670
 152.6800410  66.8354280 135.4439230 144.1066590  67.5997820 130.4512030
 143.9388630  66.9668500 131.1493920 143.2401100  67.8057220 130.1006220
 144.7294610  51.4314600 127.9543890 145.4873970  51.5443480 127.3807920
 144.2671780  52.2683800 127.9087320 151.2708420  53.5453870 130.9446200
 150.4582930  53.1710760 130.6042080 151.7750060  52.7898950 131.2467390
 145.7129290  66.2931050 127.8962170 145.1876910  66.6739080 127.1924130
 145.6373870  66.9181820 128.6171880 147.1019760  51.9578650 126.4945860
 147.6312520  51.1708450 126.3653810 147.7348080  52.6369840 126.7281390
 149.2957600  51.6953790 129.5491250 148.6660340  50.9941100 129.7161380
 148.7562740  52.4557920 129.3324410 149.4213160  50.9737770 141.9843740
 149.1397430  51.4771370 141.2204560 149.8032860  50.1759520 141.6185870
 148.3122260  68.2413430 126.7711420 149.0441080  67.9572710 126.2235310
 148.5715930  68.0026710 127.6610800 147.4737050  64.3578160 126.7757750
 146.8445930  64.8263260 127.3243580 147.5884880  63.5127380 127.2103940
 147.0770640  60.4982650 115.6843980 146.2455520  60.2431360 116.0840490
 147.6851620  60.5693420 116.4201900 147.0571900  64.5322740 115.8802000
 147.3599940  63.6420480 115.7012220 147.8015490  65.0892960 115.6524250
 145.4862590  55.4584540 109.4686370 144.5979290  55.8000510 109.3666250
 145.7703780  55.2584860 108.5767200 143.4495600  58.0590190 115.3526070
 144.0211710  57.2912390 115.3529710 143.4497140  58.3578950 114.4432680
 144.6920470  53.4674550 117.1395000 144.5123310  52.5700300 117.4197760
 144.2900550  54.0146420 117.8141950 147.6623980  54.0416040 110.5024750
 147.7690730  54.9419770 110.8093510 146.7516340  53.9934010 110.2119400
 145.3107140  55.9635050 115.7477340 145.9917250  56.2273420 116.3664740
 144.9955190  55.1235920 116.0815350 149.5031710  57.0102410 114.8349930
 150.0109930  57.5083380 115.4754950 150.0344950  56.2337610 114.6589290
 147.7867810  51.6500970 119.1013350 147.7886250  52.1673360 118.2959250
 146.9572120  51.1731150 119.0783280 149.0370660  61.2896150 117.2786850
 148.7040040  61.9165070 117.9207920 149.2137340  61.8158030 116.4988520
 147.4683140  53.3610930 117.1083800 147.8099950  54.2052980 116.8137670
 146.5298950  53.5094670 117.2249140 148.2489760  63.2576950 119.0936030
 148.8663760  63.9328030 118.8120480 147.3882880  63.6664930 119.0023530
 143.5422100  62.4476810 107.9742880 143.1650080  62.9363910 107.2427780
 143.7995170  63.1202090 108.6049410 151.1511030  50.8493200 113.4328390
 151.4586010  50.2940090 112.7163890 150.2211730  50.9837660 113.2501380
 149.1448430  59.4406770 112.9508240 148.7405430  58.7284020 112.4554140
 149.2311550  59.0960010 113.8396280 149.6130130  63.1274330 115.1147450
 149.3158420  62.5219800 114.4355230 150.5629950  63.1651640 115.0036810
 147.8577050  56.2149980 116.7307280 148.4091640  56.3245320 115.9560530
 148.3720560  56.5887580 117.4462510 148.7048560  62.8656020 121.7655250
 147.8077090  63.0895990 122.0128650 148.7301430  62.9890960 120.8166650
 147.5319780  59.7369340 120.3412620 147.3927550  60.6092140 120.7100020
 146.6501140  59.3942150 120.1960560 149.3300130  65.6791040 122.5497770
 149.3015560  66.0833990 121.6826200 149.1665100  64.7501400 122.3869370
 145.8453060  58.3351750 110.4514890 145.7250660  59.0613840 109.8396160
 145.5353950  57.5654660 109.9742800 143.4838430  61.5066890 116.2583530
 143.5618850  61.6415660 115.3139250 144.0980110  60.7982780 116.4511650
 144.7286060  63.2067080 112.6689710 144.3214140  63.3481670 111.8143310
 145.6199070  62.9227240 112.4660920 149.0007720  67.4212860 110.7812380
 148.8250200  66.5048400 110.5680180 148.1463460  67.7800150 111.0210180
 143.5397950  62.5481060 118.7977990 143.7028990  62.0786420 117.9797360
 144.0050400  62.0404620 119.4626830 148.3116720  51.6786820 113.8338560
 147.8684870  52.4596360 113.5023080 148.8701710  52.0016710 114.5409500
 152.5986530  54.5455340 119.4373880 152.1365900  54.7538360 120.2493820
 152.1964640  53.7314690 119.1344550 151.4275540  51.2997520 108.7144390
 150.8029720  51.2957390 109.4397700 151.3405660  50.4328480 108.3180360
 150.3492620  52.2234150 115.6928160 150.6464950  53.1296980 115.6120180
 150.8978180  51.7352930 115.0787730 148.1030940  56.8020390 111.5619810
 147.8771860  56.5857560 112.4666430 147.3223470  57.2348850 111.2165780
 150.5430150  57.7005970 122.2280080 150.4473750  56.7600700 122.0780480
 151.3862130  57.9221040 121.8328150 145.6740690  54.1119640 120.3813860
 145.2804080  54.9594850 120.5886640 144.9859090  53.4746010 120.5722500
 152.2485740  54.1954610 123.4510600 151.5584060  54.0026810 124.0856690
 152.9918040  54.4789250 123.9834900 142.9757740  52.0348100 114.4143940
 142.6870790  52.6050960 115.1268920 143.7203500  51.5552550 114.7775170
 143.1627970  55.9768220 105.6246660 143.0802640  56.9198980 105.7661650
 142.8111030  55.8343130 104.7459010 150.9626100  54.7107250 114.6917010
 150.9662160  54.2697200 113.8421550 151.8577220  55.0324580 114.7988830
 146.8128480  54.5933740 113.6511220 146.4728530  55.0708970 114.4078270
 146.0505800  54.1398860 113.2912320 151.0246250  55.7119330 107.6823770
 151.1459070  55.6705810 108.6309590 150.6394760  56.5743480 107.5270500
 150.0367750  58.0220470 107.0807070 149.4684650  57.5738720 106.4542980
 150.7456750  58.3813250 106.5472220 145.1136930  61.9232490 120.9573800
 144.7291720  61.2826160 121.5556760 145.4249120  62.6268610 121.5268530
 151.2634070  58.7709030 116.4382420 151.6304200  58.2967600 117.1843760
 151.0739130  59.6450600 116.7790760 144.1274560  53.5152720 112.5675890
 143.8421480  53.1508390 113.4054510 144.0653420  52.7833180 111.9539030
 149.0533440  57.8117670 118.7566630 148.7490510  58.6909650 118.9816990
 150.0079900  57.8717460 118.7924070 147.5815230  62.0178660 109.3533480
 146.8077490  61.4776280 109.1932200 148.3109860  61.4985270 109.0151240
 147.6252630  61.6859040 112.9912290 148.1431300  60.8827300 112.9369180
 147.1736650  61.6238180 113.8329120 152.5122130  62.9525320 108.2639590
 152.8537830  63.6967550 107.7682910 151.6834840  63.2656440 108.6264420
 145.1097170  58.6520410 119.9037990 144.7512110  59.3174260 120.4911330
 144.8151730  57.8203960 120.2750610 148.3110290  59.1104650 122.7877540
 148.0110430  59.2561830 121.8905360 149.0821530  58.5509940 122.6950930
 151.4812820  63.0338850 111.0355510 152.1683950  63.5808060 111.4163100
 150.6945240  63.5779580 111.0705120 143.6205220  58.6511670 106.5272590
 144.4900070  58.9336470 106.8108510 143.1295540  59.4647540 106.4121400
 150.7840030  60.0384880 110.6480870 151.2402810  60.8490130 110.8741060
 150.4328240  59.7208020 111.4799360 146.6851810  50.3822530 111.1203390
 146.5566440  50.3740430 112.0688310 145.8613830  50.7205620 110.7694400
 143.9876470  67.8639050 107.0934220 144.3474110  68.4628390 106.4391490
 143.8468810  68.4098940 107.8669250 143.6845740  52.1413650 120.5810090
 142.9704260  52.3410570 121.1862700 144.1040780  51.3653220 120.9524890
 143.9718330  66.1293910 121.5676620 144.0809450  65.1888650 121.4272010
 143.3198890  66.3948660 120.9190350 151.9630920  64.4009800 122.9674740
 151.6427790  63.6819040 123.5120430 151.2889280  65.0764870 123.0410800
 150.0045090  65.2470250 107.9107890 149.9955190  65.9799940 107.2952400
 149.0843450  65.0001830 108.0034850 145.6051730  60.4685140 108.6554650
 144.9979680  61.2084040 108.6649950 146.0801080  60.5584500 107.8292850
 152.9904690  65.3098490 106.5733080 153.0916670  65.1062480 105.6435060
 152.0906430  65.0556770 106.7780860 150.5130580  55.8678850 110.5556980
 149.8046730  56.3365190 110.9970590 150.7975060  55.2100860 111.1902170
 152.1386510  57.2875550 118.5549510 152.6371760  57.7621370 119.2201360
 152.2809460  56.3639070 118.7619540 151.6322800  67.8284810 111.2680750
 151.8864300  67.7906200 110.3460120 150.6835280  67.7018140 111.2609000
 148.7165600  54.1763930 107.9307690 149.5656130  54.6134080 107.8647880
 148.3496870  54.4884190 108.7579750 147.6157020  60.4296290 106.4043220
 148.3820290  60.3177650 106.9668650 147.6931710  59.7334260 105.7519990
 146.3103780  57.8621360 107.0876110 146.3907370  56.9148870 107.1993510
 147.2023530  58.1928240 107.1936770 147.1118490  68.0116750 114.1910650
 147.8480970  67.4632210 114.4619220 147.4959410  68.8772760 114.0516640
 143.9963970  64.0790320 110.0652160 143.0703750  64.3211460 110.0557570
 144.4620400  64.9064580 109.9436910 146.1176770  67.1962820 123.3796230
 146.9189500  67.5174870 123.7931630 145.6028590  66.8358400 124.1016140
 150.2220800  67.1847060 106.0136220 151.0149410  67.4735890 105.5618010
 149.7025150  66.7539230 105.3348700 143.8374580  59.6836280 122.3232280
 144.3413600  59.1043560 122.8948510 143.0982000  59.9676510 122.8608650
 150.7398200  62.4050470 105.8778570 150.6348840  61.7902820 106.6039950
 150.5722420  61.8816360 105.0941580 150.8912520  61.0907270 121.8567800
 150.1258190  61.6592270 121.7722470 151.0728480  60.7983480 120.9636030
 145.8697660  57.8265870 123.2182350 145.9103000  57.5279740 124.1267580
 146.7243160  58.2273480 123.0589870 149.6476050  60.4261420 108.3785860
 150.0692470  60.2601290 109.2217250 149.7726890  59.6161650 107.8841000
 147.8103470  56.4057970 121.1856840 147.2799930  55.9148920 120.5580180
 148.4791540  56.8342170 120.6514770 152.1603690  59.4499030 105.6262960
 152.6809350  58.7348050 105.2604110 152.8072090  60.0884900 105.9263470
 148.2975770  53.3720340 121.2654130 148.2032640  52.7541090 120.5405000
 147.7173160  54.0986630 121.0384040 151.0637210  51.9293580 118.2981520
 150.6154510  51.9517840 117.4527070 150.4302410  51.5312600 118.8951820
 151.4696760  60.8247910 118.9193960 151.8884870  61.6680640 118.7470200
 150.5505390  60.9619950 118.6900740 148.5434950  56.4994650 105.3244020
 148.3424010  55.6362010 105.6857360 148.3727000  56.4128010 104.3865620
 149.3204180  67.1300920 120.0351690 148.7825270  67.8546980 119.7160390
 149.5738140  66.6531260 119.2449030 150.5729430  55.0985440 121.5607620
 151.1629120  54.7901290 122.2485440 149.7549670  54.6265190 121.7167520
 147.3417750  53.5995270 105.3121900 147.6443650  53.6062700 104.4041050
 148.0812340  53.2493130 105.8089560 152.1766390  68.3652130 120.2938340
 152.1025090  69.2687270 120.6010710 151.2745230  68.0464030 120.2660410
 150.5602680  52.5429890 106.2978100 150.2124680  51.8653880 105.7180550
 150.7615450  52.0819400 107.1121490 146.3647880  62.9037690 106.1451700
 146.8022750  63.4467360 106.8009280 146.8495610  62.0784640 106.1548040
 143.5793680  65.6926720 113.5971960 143.9096690  64.8247780 113.3650600
 144.0084680  65.8985240 114.4276920 148.1755600  64.0235730 111.2573930
 147.8751140  63.9000700 112.1577840 148.0693090  63.1644320 110.8489660
 144.0683890  66.5597310 116.3353590 143.6314880  66.7398110 117.1677740
 144.6361570  67.3171930 116.1935310 143.9008320  59.0717540 112.6942470
 143.2457160  58.8029180 112.0502170 144.7386270  58.9622020 112.2444450
 144.9384250  59.4570110 117.2345810 145.3057290  59.3697510 118.1141830
 144.3695070  58.6936660 117.1352670 144.4900250  56.3679200 121.1404230
 143.5956300  56.3345960 121.4797940 145.0297800  56.5665990 121.9055480
 143.1146400  56.2816470 108.6367800 142.2110480  56.5446670 108.4619460
 143.5987020  56.5527640 107.8567760 145.6573610  55.3382010 106.5462180
 146.3665310  54.9165230 106.0609460 144.9413550  55.4057240 105.9145530
 145.3047770  51.3921340 105.5864830 146.0275900  51.9330280 105.9046050
 145.5772290  51.1184760 104.7106370 144.9939960  50.6427530 115.4887450
 145.6416150  50.0924910 115.0482610 145.4141800  50.8970680 116.3103260
 144.7471960  50.7983200 118.2312770 144.3986780  51.2547020 118.9970950
 144.4159660  49.9040330 118.3135200 146.3536330  63.9702800 122.3965960
 146.3105960  63.5995710 123.2780420 146.4847340  64.9080370 122.5367780
 150.0542360  65.5262390 117.9975680 149.8133720  65.7936950 117.1106200
 150.9945000  65.6968120 118.0526540 145.4192600  50.3259400 121.5063540
 145.9675590  50.1447450 120.7429650 145.4847910  49.5353510 122.0419850
 146.1924360  66.9165050 119.5163740 145.5984680  66.7849750 120.2553780
 146.1848200  66.0803190 119.0505840 145.8236590  64.2823430 118.4671780
 145.0970650  63.6628720 118.3997730 145.8845740  64.6764040 117.5969860
 149.4281690  66.4968430 115.2521190 149.9446710  65.8855790 114.7269450
 150.0779070  66.9997210 115.7432200 152.1677190  67.3876920 116.0790170
 152.4555000  67.1331220 115.2023180 152.6800410  66.8354280 116.6695740
 144.1066590  67.5997820 111.6768540 143.9388630  66.9668500 112.3750430
 143.2401100  67.8057220 111.3262730 144.7294610  51.4314600 109.1800400
 145.4873970  51.5443480 108.6064430 144.2671780  52.2683800 109.1343830
 151.2708420  53.5453870 112.1702710 150.4582930  53.1710760 111.8298590
 151.7750060  52.7898950 112.4723900 145.7129290  66.2931050 109.1218680
 145.1876910  66.6739080 108.4180640 145.6373870  66.9181820 109.8428390
 147.1019760  51.9578650 107.7202370 147.6312520  51.1708450 107.5910320
 147.7348080  52.6369840 107.9537900 149.2957600  51.6953790 110.7747760
 148.6660340  50.9941100 110.9417890 148.7562740  52.4557920 110.5580920
 149.4213160  50.9737770 123.2100250 149.1397430  51.4771370 122.4461070
 149.8032860  50.1759520 122.8442380 148.3122260  68.2413430 107.9967930
 149.0441080  67.9572710 107.4491820 148.5715930  68.0026710 108.8867310
 147.4737050  64.3578160 108.0014260 146.8445930  64.8263260 108.5500090
 147.5884880  63.5127380 108.4360450 147.0770640  60.4982650  96.9100490
 146.2455520  60.2431360  97.3097000 147.6851620  60.5693420  97.6458410
 147.0571900  64.5322740  97.1058510 147.3599940  63.6420480  96.9268730
 147.8015490  65.0892960  96.8780760 145.4862590  55.4584540  90.6942880
 144.5979290  55.8000510  90.5922760 145.7703780  55.2584860  89.8023710
 143.4495600  58.0590190  96.5782580 144.0211710  57.2912390  96.5786220
 143.4497140  58.3578950  95.6689190 144.6920470  53.4674550  98.3651510
 144.5123310  52.5700300  98.6454270 144.2900550  54.0146420  99.0398460
 147.6623980  54.0416040  91.7281260 147.7690730  54.9419770  92.0350020
 146.7516340  53.9934010  91.4375910 145.3107140  55.9635050  96.9733850
 145.9917250  56.2273420  97.5921250 144.9955190  55.1235920  97.3071860
 149.5031710  57.0102410  96.0606440 150.0109930  57.5083380  96.7011460
 150.0344950  56.2337610  95.8845800 147.7867810  51.6500970 100.3269860
 147.7886250  52.1673360  99.5215760 146.9572120  51.1731150 100.3039790
 149.0370660  61.2896150  98.5043360 148.7040040  61.9165070  99.1464430
 149.2137340  61.8158030  97.7245030 147.4683140  53.3610930  98.3340310
 147.8099950  54.2052980  98.0394180 146.5298950  53.5094670  98.4505650
 148.2489760  63.2576950 100.3192540 148.8663760  63.9328030 100.0376990
 147.3882880  63.6664930 100.2280040 143.5422100  62.4476810  89.1999390
 143.1650080  62.9363910  88.4684290 143.7995170  63.1202090  89.8305920
 151.1511030  50.8493200  94.6584900 151.4586010  50.2940090  93.9420400
 150.2211730  50.9837660  94.4757890 149.1448430  59.4406770  94.1764750
 148.7405430  58.7284020  93.6810650 149.2311550  59.0960010  95.0652790
 149.6130130  63.1274330  96.3403960 149.3158420  62.5219800  95.6611740
 150.5629950  63.1651640  96.2293320 147.8577050  56.2149980  97.9563790
 148.4091640  56.3245320  97.1817040 148.3720560  56.5887580  98.6719020
 148.7048560  62.8656020 102.9911760 147.8077090  63.0895990 103.2385160
 148.7301430  62.9890960 102.0423160 147.5319780  59.7369340 101.5669130
 147.3927550  60.6092140 101.9356530 146.6501140  59.3942150 101.4217070
 149.3300130  65.6791040 103.7754280 149.3015560  66.0833990 102.9082710
 149.1665100  64.7501400 103.6125880 145.8453060  58.3351750  91.6771400
 145.7250660  59.0613840  91.0652670 145.5353950  57.5654660  91.1999310
 143.4838430  61.5066890  97.4840040 143.5618850  61.6415660  96.5395760
 144.0980110  60.7982780  97.6768160 144.7286060  63.2067080  93.8946220
 144.3214140  63.3481670  93.0399820 145.6199070  62.9227240  93.6917430
 149.0007720  67.4212860  92.0068890 148.8250200  66.5048400  91.7936690
 148.1463460  67.7800150  92.2466690 143.5397950  62.5481060 100.0234500
 143.7028990  62.0786420  99.2053870 144.0050400  62.0404620 100.6883340
 148.3116720  51.6786820  95.0595070 147.8684870  52.4596360  94.7279590
 148.8701710  52.0016710  95.7666010 152.5986530  54.5455340 100.6630390
 152.1365900  54.7538360 101.4750330 152.1964640  53.7314690 100.3601060
 151.4275540  51.2997520  89.9400900 150.8029720  51.2957390  90.6654210
 151.3405660  50.4328480  89.5436870 150.3492620  52.2234150  96.9184670
 150.6464950  53.1296980  96.8376690 150.8978180  51.7352930  96.3044240
 148.1030940  56.8020390  92.7876320 147.8771860  56.5857560  93.6922940
 147.3223470  57.2348850  92.4422290 150.5430150  57.7005970 103.4536590
 150.4473750  56.7600700 103.3036990 151.3862130  57.9221040 103.0584660
 145.6740690  54.1119640 101.6070370 145.2804080  54.9594850 101.8143150
 144.9859090  53.4746010 101.7979010 152.2485740  54.1954610 104.6767110
 151.5584060  54.0026810 105.3113200 152.9918040  54.4789250 105.2091410
 142.9757740  52.0348100  95.6400450 142.6870790  52.6050960  96.3525430
 143.7203500  51.5552550  96.0031680 143.1627970  55.9768220  86.8503170
 143.0802640  56.9198980  86.9918160 142.8111030  55.8343130  85.9715520
 150.9626100  54.7107250  95.9173520 150.9662160  54.2697200  95.0678060
 151.8577220  55.0324580  96.0245340 146.8128480  54.5933740  94.8767730
 146.4728530  55.0708970  95.6334780 146.0505800  54.1398860  94.5168830
 151.0246250  55.7119330  88.9080280 151.1459070  55.6705810  89.8566100
 150.6394760  56.5743480  88.7527010 150.0367750  58.0220470  88.3063580
 149.4684650  57.5738720  87.6799490 150.7456750  58.3813250  87.7728730
 145.1136930  61.9232490 102.1830310 144.7291720  61.2826160 102.7813270
 145.4249120  62.6268610 102.7525040 151.2634070  58.7709030  97.6638930
 151.6304200  58.2967600  98.4100270 151.0739130  59.6450600  98.0047270
 144.1274560  53.5152720  93.7932400 143.8421480  53.1508390  94.6311020
 144.0653420  52.7833180  93.1795540 149.0533440  57.8117670  99.9823140
 148.7490510  58.6909650 100.2073500 150.0079900  57.8717460 100.0180580
 147.5815230  62.0178660  90.5789990 146.8077490  61.4776280  90.4188710
 148.3109860  61.4985270  90.2407750 147.6252630  61.6859040  94.2168800
 148.1431300  60.8827300  94.1625690 147.1736650  61.6238180  95.0585630
 152.5122130  62.9525320  89.4896100 152.8537830  63.6967550  88.9939420
 151.6834840  63.2656440  89.8520930 145.1097170  58.6520410 101.1294500
 144.7512110  59.3174260 101.7167840 144.8151730  57.8203960 101.5007120
 148.3110290  59.1104650 104.0134050 148.0110430  59.2561830 103.1161870
 149.0821530  58.5509940 103.9207440 151.4812820  63.0338850  92.2612020
 152.1683950  63.5808060  92.6419610 150.6945240  63.5779580  92.2961630
 143.6205220  58.6511670  87.7529100 144.4900070  58.9336470  88.0365020
 143.1295540  59.4647540  87.6377910 150.7840030  60.0384880  91.8737380
 151.2402810  60.8490130  92.0997570 150.4328240  59.7208020  92.7055870
 146.6851810  50.3822530  92.3459900 146.5566440  50.3740430  93.2944820
 145.8613830  50.7205620  91.9950910 143.9876470  67.8639050  88.3190730
 144.3474110  68.4628390  87.6648000 143.8468810  68.4098940  89.0925760
 143.6845740  52.1413650 101.8066600 142.9704260  52.3410570 102.4119210
 144.1040780  51.3653220 102.1781400 143.9718330  66.1293910 102.7933130
 144.0809450  65.1888650 102.6528520 143.3198890  66.3948660 102.1446860
 151.9630920  64.4009800 104.1931250 151.6427790  63.6819040 104.7376940
 151.2889280  65.0764870 104.2667310 150.0045090  65.2470250  89.1364400
 149.9955190  65.9799940  88.5208910 149.0843450  65.0001830  89.2291360
 145.6051730  60.4685140  89.8811160 144.9979680  61.2084040  89.8906460
 146.0801080  60.5584500  89.0549360 152.9904690  65.3098490  87.7989590
 153.0916670  65.1062480  86.8691570 152.0906430  65.0556770  88.0037370
 150.5130580  55.8678850  91.7813490 149.8046730  56.3365190  92.2227100
 150.7975060  55.2100860  92.4158680 152.1386510  57.2875550  99.7806020
 152.6371760  57.7621370 100.4457870 152.2809460  56.3639070  99.9876050
 151.6322800  67.8284810  92.4937260 151.8864300  67.7906200  91.5716630
 150.6835280  67.7018140  92.4865510 148.7165600  54.1763930  89.1564200
 149.5656130  54.6134080  89.0904390 148.3496870  54.4884190  89.9836260
 147.6157020  60.4296290  87.6299730 148.3820290  60.3177650  88.1925160
 147.6931710  59.7334260  86.9776500 146.3103780  57.8621360  88.3132620
 146.3907370  56.9148870  88.4250020 147.2023530  58.1928240  88.4193280
 147.1118490  68.0116750  95.4167160 147.8480970  67.4632210  95.6875730
 147.4959410  68.8772760  95.2773150 143.9963970  64.0790320  91.2908670
 143.0703750  64.3211460  91.2814080 144.4620400  64.9064580  91.1693420
 146.1176770  67.1962820 104.6052740 146.9189500  67.5174870 105.0188140
 145.6028590  66.8358400 105.3272650 150.2220800  67.1847060  87.2392730
 151.0149410  67.4735890  86.7874520 149.7025150  66.7539230  86.5605210
 143.8374580  59.6836280 103.5488790 144.3413600  59.1043560 104.1205020
 143.0982000  59.9676510 104.0865160 150.7398200  62.4050470  87.1035080
 150.6348840  61.7902820  87.8296460 150.5722420  61.8816360  86.3198090
 150.8912520  61.0907270 103.0824310 150.1258190  61.6592270 102.9978980
 151.0728480  60.7983480 102.1892540 145.8697660  57.8265870 104.4438860
 145.9103000  57.5279740 105.3524090 146.7243160  58.2273480 104.2846380
 149.6476050  60.4261420  89.6042370 150.0692470  60.2601290  90.4473760
 149.7726890  59.6161650  89.1097510 147.8103470  56.4057970 102.4113350
 147.2799930  55.9148920 101.7836690 148.4791540  56.8342170 101.8771280
 152.1603690  59.4499030  86.8519470 152.6809350  58.7348050  86.4860620
 152.8072090  60.0884900  87.1519980 148.2975770  53.3720340 102.4910640
 148.2032640  52.7541090 101.7661510 147.7173160  54.0986630 102.2640550
 151.0637210  51.9293580  99.5238030 150.6154510  51.9517840  98.6783580
 150.4302410  51.5312600 100.1208330 151.4696760  60.8247910 100.1450470
 151.8884870  61.6680640  99.9726710 150.5505390  60.9619950  99.9157250
 148.5434950  56.4994650  86.5500530 148.3424010  55.6362010  86.9113870
 148.3727000  56.4128010  85.6122130 149.3204180  67.1300920 101.2608200
 148.7825270  67.8546980 100.9416900 149.5738140  66.6531260 100.4705540
 150.5729430  55.0985440 102.7864130 151.1629120  54.7901290 103.4741950
 149.7549670  54.6265190 102.9424030 147.3417750  53.5995270  86.5378410
 147.6443650  53.6062700  85.6297560 148.0812340  53.2493130  87.0346070
 152.1766390  68.3652130 101.5194850 152.1025090  69.2687270 101.8267220
 151.2745230  68.0464030 101.4916920 150.5602680  52.5429890  87.5234610
 150.2124680  51.8653880  86.9437060 150.7615450  52.0819400  88.3378000
 146.3647880  62.9037690  87.3708210 146.8022750  63.4467360  88.0265790
 146.8495610  62.0784640  87.3804550 143.5793680  65.6926720  94.8228470
 143.9096690  64.8247780  94.5907110 144.0084680  65.8985240  95.6533430
 148.1755600  64.0235730  92.4830440 147.8751140  63.9000700  93.3834350
 148.0693090  63.1644320  92.0746170 144.0683890  66.5597310  97.5610100
 143.6314880  66.7398110  98.3934250 144.6361570  67.3171930  97.4191820
 143.9008320  59.0717540  93.9198980 143.2457160  58.8029180  93.2758680
 144.7386270  58.9622020  93.4700960 144.9384250  59.4570110  98.4602320
 145.3057290  59.3697510  99.3398340 144.3695070  58.6936660  98.3609180
 144.4900250  56.3679200 102.3660740 143.5956300  56.3345960 102.7054450
 145.0297800  56.5665990 103.1311990 143.1146400  56.2816470  89.8624310
 142.2110480  56.5446670  89.6875970 143.5987020  56.5527640  89.0824270
 145.6573610  55.3382010  87.7718690 146.3665310  54.9165230  87.2865970
 144.9413550  55.4057240  87.1402040 145.3047770  51.3921340  86.8121340
 146.0275900  51.9330280  87.1302560 145.5772290  51.1184760  85.9362880
 144.9939960  50.6427530  96.7143960 145.6416150  50.0924910  96.2739120
 145.4141800  50.8970680  97.5359770 144.7471960  50.7983200  99.4569280
 144.3986780  51.2547020 100.2227460 144.4159660  49.9040330  99.5391710
 146.3536330  63.9702800 103.6222470 146.3105960  63.5995710 104.5036930
 146.4847340  64.9080370 103.7624290 150.0542360  65.5262390  99.2232190
 149.8133720  65.7936950  98.3362710 150.9945000  65.6968120  99.2783050
 145.4192600  50.3259400 102.7320050 145.9675590  50.1447450 101.9686160
 145.4847910  49.5353510 103.2676360 146.1924360  66.9165050 100.7420250
 145.5984680  66.7849750 101.4810290 146.1848200  66.0803190 100.2762350
 145.8236590  64.2823430  99.6928290 145.0970650  63.6628720  99.6254240
 145.8845740  64.6764040  98.8226370 149.4281690  66.4968430  96.4777700
 149.9446710  65.8855790  95.9525960 150.0779070  66.9997210  96.9688710
 152.1677190  67.3876920  97.3046680 152.4555000  67.1331220  96.4279690
 152.6800410  66.8354280  97.8952250 144.1066590  67.5997820  92.9025050
 143.9388630  66.9668500  93.6006940 143.2401100  67.8057220  92.5519240
 144.7294610  51.4314600  90.4056910 145.4873970  51.5443480  89.8320940
 144.2671780  52.2683800  90.3600340 151.2708420  53.5453870  93.3959220
 150.4582930  53.1710760  93.0555100 151.7750060  52.7898950  93.6980410
 145.7129290  66.2931050  90.3475190 145.1876910  66.6739080  89.6437150
 145.6373870  66.9181820  91.0684900 147.1019760  51.9578650  88.9458880
 147.6312520  51.1708450  88.8166830 147.7348080  52.6369840  89.1794410
 149.2957600  51.6953790  92.0004270 148.6660340  50.9941100  92.1674400
 148.7562740  52.4557920  91.7837430 149.4213160  50.9737770 104.4356760
 149.1397430  51.4771370 103.6717580 149.8032860  50.1759520 104.0698890
 148.3122260  68.2413430  89.2224440 149.0441080  67.9572710  88.6748330
 148.5715930  68.0026710  90.1123820 147.4737050  64.3578160  89.2270770
 146.8445930  64.8263260  89.7756600 147.5884880  63.5127380  89.6616960
 147.0770640  60.4982650  78.1357000 146.2455520  60.2431360  78.5353510
 147.6851620  60.5693420  78.8714920 147.0571900  64.5322740  78.3315020
 147.3599940  63.6420480  78.1525240 147.8015490  65.0892960  78.1037270
 145.4862590  55.4584540  71.9199390 144.5979290  55.8000510  71.8179270
 145.7703780  55.2584860  71.0280220 143.4495600  58.0590190  77.8039090
 144.0211710  57.2912390  77.8042730 143.4497140  58.3578950  76.8945700
 144.6920470  53.4674550  79.5908020 144.5123310  52.5700300  79.8710780
 144.2900550  54.0146420  80.2654970 147.6623980  54.0416040  72.9537770
 147.7690730  54.9419770  73.2606530 146.7516340  53.9934010  72.6632420
 145.3107140  55.9635050  78.1990360 145.9917250  56.2273420  78.8177760
 144.9955190  55.1235920  78.5328370 149.5031710  57.0102410  77.2862950
 150.0109930  57.5083380  77.9267970 150.0344950  56.2337610  77.1102310
 147.7867810  51.6500970  81.5526370 147.7886250  52.1673360  80.7472270
 146.9572120  51.1731150  81.5296300 149.0370660  61.2896150  79.7299870
 148.7040040  61.9165070  80.3720940 149.2137340  61.8158030  78.9501540
 147.4683140  53.3610930  79.5596820 147.8099950  54.2052980  79.2650690
 146.5298950  53.5094670  79.6762160 148.2489760  63.2576950  81.5449050
 148.8663760  63.9328030  81.2633500 147.3882880  63.6664930  81.4536550
 143.5422100  62.4476810  70.4255900 143.1650080  62.9363910  69.6940800
 143.7995170  63.1202090  71.0562430 151.1511030  50.8493200  75.8841410
 151.4586010  50.2940090  75.1676910 150.2211730  50.9837660  75.7014400
 149.1448430  59.4406770  75.4021260 148.7405430  58.7284020  74.9067160
 149.2311550  59.0960010  76.2909300 149.6130130  63.1274330  77.5660470
 149.3158420  62.5219800  76.8868250 150.5629950  63.1651640  77.4549830
 147.8577050  56.2149980  79.1820300 148.4091640  56.3245320  78.4073550
 148.3720560  56.5887580  79.8975530 148.7048560  62.8656020  84.2168270
 147.8077090  63.0895990  84.4641670 148.7301430  62.9890960  83.2679670
 147.5319780  59.7369340  82.7925640 147.3927550  60.6092140  83.1613040
 146.6501140  59.3942150  82.6473580 149.3300130  65.6791040  85.0010790
 149.3015560  66.0833990  84.1339220 149.1665100  64.7501400  84.8382390
 145.8453060  58.3351750  72.9027910 145.7250660  59.0613840  72.2909180
 145.5353950  57.5654660  72.4255820 144.7286060  63.2067080  75.1202730
 144.3214140  63.3481670  74.2656330 145.6199070  62.9227240  74.9173940
 149.0007720  67.4212860  73.2325400 148.8250200  66.5048400  73.0193200
 148.1463460  67.7800150  73.4723200 148.3116720  51.6786820  76.2851580
 147.8684870  52.4596360  75.9536100 148.8701710  52.0016710  76.9922520
 152.5986530  54.5455340  81.8886900 152.1365900  54.7538360  82.7006840
 152.1964640  53.7314690  81.5857570 151.4275540  51.2997520  71.1657410
 150.8029720  51.2957390  71.8910720 151.3405660  50.4328480  70.7693380
 150.3492620  52.2234150  78.1441180 150.6464950  53.1296980  78.0633200
 150.8978180  51.7352930  77.5300750 148.1030940  56.8020390  74.0132830
 147.8771860  56.5857560  74.9179450 147.3223470  57.2348850  73.6678800
 150.5430150  57.7005970  84.6793100 150.4473750  56.7600700  84.5293500
 151.3862130  57.9221040  84.2841170 145.6740690  54.1119640  82.8326880
 145.2804080  54.9594850  83.0399660 144.9859090  53.4746010  83.0235520
 152.2485740  54.1954610  85.9023620 151.5584060  54.0026810  86.5369710
 152.9918040  54.4789250  86.4347920 142.9757740  52.0348100  76.8656960
 142.6870790  52.6050960  77.5781940 143.7203500  51.5552550  77.2288190
 143.1627970  55.9768220  68.0759680 143.0802640  56.9198980  68.2174670
 142.8111030  55.8343130  67.1972030 150.9626100  54.7107250  77.1430030
 150.9662160  54.2697200  76.2934570 151.8577220  55.0324580  77.2501850
 146.8128480  54.5933740  76.1024240 146.4728530  55.0708970  76.8591290
 146.0505800  54.1398860  75.7425340 151.0246250  55.7119330  70.1336790
 151.1459070  55.6705810  71.0822610 150.6394760  56.5743480  69.9783520
 150.0367750  58.0220470  69.5320090 149.4684650  57.5738720  68.9056000
 150.7456750  58.3813250  68.9985240 145.1136930  61.9232490  83.4086820
 144.7291720  61.2826160  84.0069780 145.4249120  62.6268610  83.9781550
 151.2634070  58.7709030  78.8895440 151.6304200  58.2967600  79.6356780
 151.0739130  59.6450600  79.2303780 144.1274560  53.5152720  75.0188910
 143.8421480  53.1508390  75.8567530 144.0653420  52.7833180  74.4052050
 149.0533440  57.8117670  81.2079650 148.7490510  58.6909650  81.4330010
 150.0079900  57.8717460  81.2437090 147.5815230  62.0178660  71.8046500
 146.8077490  61.4776280  71.6445220 148.3109860  61.4985270  71.4664260
 147.6252630  61.6859040  75.4425310 148.1431300  60.8827300  75.3882200
 147.1736650  61.6238180  76.2842140 152.5122130  62.9525320  70.7152610
 152.8537830  63.6967550  70.2195930 151.6834840  63.2656440  71.0777440
 145.1097170  58.6520410  82.3551010 144.7512110  59.3174260  82.9424350
 144.8151730  57.8203960  82.7263630 148.3110290  59.1104650  85.2390560
 148.0110430  59.2561830  84.3418380 149.0821530  58.5509940  85.1463950
 151.4812820  63.0338850  73.4868530 152.1683950  63.5808060  73.8676120
 150.6945240  63.5779580  73.5218140 143.6205220  58.6511670  68.9785610
 144.4900070  58.9336470  69.2621530 143.1295540  59.4647540  68.8634420
 150.7840030  60.0384880  73.0993890 151.2402810  60.8490130  73.3254080
 150.4328240  59.7208020  73.9312380 146.6851810  50.3822530  73.5716410
 146.5566440  50.3740430  74.5201330 145.8613830  50.7205620  73.2207420
 143.9876470  67.8639050  69.5447240 144.3474110  68.4628390  68.8904510
 143.8468810  68.4098940  70.3182270 143.6845740  52.1413650  83.0323110
 142.9704260  52.3410570  83.6375720 144.1040780  51.3653220  83.4037910
 143.9718330  66.1293910  84.0189640 144.0809450  65.1888650  83.8785030
 143.3198890  66.3948660  83.3703370 151.9630920  64.4009800  85.4187760
 151.6427790  63.6819040  85.9633450 151.2889280  65.0764870  85.4923820
 150.0045090  65.2470250  70.3620910 149.9955190  65.9799940  69.7465420
 149.0843450  65.0001830  70.4547870 145.6051730  60.4685140  71.1067670
 144.9979680  61.2084040  71.1162970 146.0801080  60.5584500  70.2805870
 152.9904690  65.3098490  69.0246100 153.0916670  65.1062480  68.0948080
 152.0906430  65.0556770  69.2293880 150.5130580  55.8678850  73.0070000
 149.8046730  56.3365190  73.4483610 150.7975060  55.2100860  73.6415190
 152.1386510  57.2875550  81.0062530 152.6371760  57.7621370  81.6714380
 152.2809460  56.3639070  81.2132560 151.6322800  67.8284810  73.7193770
 151.8864300  67.7906200  72.7973140 150.6835280  67.7018140  73.7122020
 148.7165600  54.1763930  70.3820710 149.5656130  54.6134080  70.3160900
 148.3496870  54.4884190  71.2092770 147.6157020  60.4296290  68.8556240
 148.3820290  60.3177650  69.4181670 147.6931710  59.7334260  68.2033010
 146.3103780  57.8621360  69.5389130 146.3907370  56.9148870  69.6506530
 147.2023530  58.1928240  69.6449790 147.1118490  68.0116750  76.6423670
 147.8480970  67.4632210  76.9132240 147.4959410  68.8772760  76.5029660
 143.9963970  64.0790320  72.5165180 143.0703750  64.3211460  72.5070590
 144.4620400  64.9064580  72.3949930 146.1176770  67.1962820  85.8309250
 146.9189500  67.5174870  86.2444650 145.6028590  66.8358400  86.5529160
 150.2220800  67.1847060  68.4649240 151.0149410  67.4735890  68.0131030
 149.7025150  66.7539230  67.7861720 150.7398200  62.4050470  68.3291590
 150.6348840  61.7902820  69.0552970 150.5722420  61.8816360  67.5454600
 150.8912520  61.0907270  84.3080820 150.1258190  61.6592270  84.2235490
 151.0728480  60.7983480  83.4149050 145.8697660  57.8265870  85.6695370
 145.9103000  57.5279740  86.5780600 146.7243160  58.2273480  85.5102890
 149.6476050  60.4261420  70.8298880 150.0692470  60.2601290  71.6730270
 149.7726890  59.6161650  70.3354020 147.8103470  56.4057970  83.6369860
 147.2799930  55.9148920  83.0093200 148.4791540  56.8342170  83.1027790
 152.1603690  59.4499030  68.0775980 152.6809350  58.7348050  67.7117130
 152.8072090  60.0884900  68.3776490 148.2975770  53.3720340  83.7167150
 148.2032640  52.7541090  82.9918020 147.7173160  54.0986630  83.4897060
 151.0637210  51.9293580  80.7494540 150.6154510  51.9517840  79.9040090
 150.4302410  51.5312600  81.3464840 151.4696760  60.8247910  81.3706980
 151.8884870  61.6680640  81.1983220 150.5505390  60.9619950  81.1413760
 148.5434950  56.4994650  67.7757040 148.3424010  55.6362010  68.1370380
 148.3727000  56.4128010  66.8378640 149.3204180  67.1300920  82.4864710
 148.7825270  67.8546980  82.1673410 149.5738140  66.6531260  81.6962050
 150.5729430  55.0985440  84.0120640 151.1629120  54.7901290  84.6998460
 149.7549670  54.6265190  84.1680540 147.3417750  53.5995270  67.7634920
 147.6443650  53.6062700  66.8554070 148.0812340  53.2493130  68.2602580
 152.1766390  68.3652130  82.7451360 152.1025090  69.2687270  83.0523730
 151.2745230  68.0464030  82.7173430 150.5602680  52.5429890  68.7491120
 150.2124680  51.8653880  68.1693570 150.7615450  52.0819400  69.5634510
 146.3647880  62.9037690  68.5964720 146.8022750  63.4467360  69.2522300
 146.8495610  62.0784640  68.6061060 148.1755600  64.0235730  73.7086950
 147.8751140  63.9000700  74.6090860 148.0693090  63.1644320  73.3002680
 144.0683890  66.5597310  78.7866610 143.6314880  66.7398110  79.6190760
 144.6361570  67.3171930  78.6448330 143.9008320  59.0717540  75.1455490
 143.2457160  58.8029180  74.5015190 144.7386270  58.9622020  74.6957470
 144.9384250  59.4570110  79.6858830 145.3057290  59.3697510  80.5654850
 144.3695070  58.6936660  79.5865690 144.4900250  56.3679200  83.5917250
 143.5956300  56.3345960  83.9310960 145.0297800  56.5665990  84.3568500
 143.1146400  56.2816470  71.0880820 142.2110480  56.5446670  70.9132480
 143.5987020  56.5527640  70.3080780 145.6573610  55.3382010  68.9975200
 146.3665310  54.9165230  68.5122480 144.9413550  55.4057240  68.3658550
 145.3047770  51.3921340  68.0377850 146.0275900  51.9330280  68.3559070
 145.5772290  51.1184760  67.1619390 144.9939960  50.6427530  77.9400470
 145.6416150  50.0924910  77.4995630 145.4141800  50.8970680  78.7616280
 144.7471960  50.7983200  80.6825790 144.3986780  51.2547020  81.4483970
 144.4159660  49.9040330  80.7648220 146.3536330  63.9702800  84.8478980
 146.3105960  63.5995710  85.7293440 146.4847340  64.9080370  84.9880800
 150.0542360  65.5262390  80.4488700 149.8133720  65.7936950  79.5619220
 150.9945000  65.6968120  80.5039560 145.4192600  50.3259400  83.9576560
 145.9675590  50.1447450  83.1942670 145.4847910  49.5353510  84.4932870
 146.1924360  66.9165050  81.9676760 145.5984680  66.7849750  82.7066800
 146.1848200  66.0803190  81.5018860 145.8236590  64.2823430  80.9184800
 145.0970650  63.6628720  80.8510750 145.8845740  64.6764040  80.0482880
 149.4281690  66.4968430  77.7034210 149.9446710  65.8855790  77.1782470
 150.0779070  66.9997210  78.1945220 152.1677190  67.3876920  78.5303190
 152.4555000  67.1331220  77.6536200 152.6800410  66.8354280  79.1208760
 144.1066590  67.5997820  74.1281560 143.9388630  66.9668500  74.8263450
 143.2401100  67.8057220  73.7775750 144.7294610  51.4314600  71.6313420
 145.4873970  51.5443480  71.0577450 144.2671780  52.2683800  71.5856850
 151.2708420  53.5453870  74.6215730 150.4582930  53.1710760  74.2811610
 151.7750060  52.7898950  74.9236920 145.7129290  66.2931050  71.5731700
 145.1876910  66.6739080  70.8693660 145.6373870  66.9181820  72.2941410
 147.1019760  51.9578650  70.1715390 147.6312520  51.1708450  70.0423340
 147.7348080  52.6369840  70.4050920 149.2957600  51.6953790  73.2260780
 148.6660340  50.9941100  73.3930910 148.7562740  52.4557920  73.0093940
 149.4213160  50.9737770  85.6613270 149.1397430  51.4771370  84.8974090
 149.8032860  50.1759520  85.2955400 148.3122260  68.2413430  70.4480950
 149.0441080  67.9572710  69.9004840 148.5715930  68.0026710  71.3380330
 147.4737050  64.3578160  70.4527280 146.8445930  64.8263260  71.0013110
 147.5884880  63.5127380  70.8873470 147.0770640  60.4982650  59.3613510
 146.2455520  60.2431360  59.7610020 147.6851620  60.5693420  60.0971430
 147.0571900  64.5322740  59.5571530 147.3599940  63.6420480  59.3781750
 147.8015490  65.0892960  59.3293780 145.4862590  55.4584540  53.1455900
 144.5979290  55.8000510  53.0435780 145.7703780  55.2584860  52.2536730
 143.4495600  58.0590190  59.0295600 144.0211710  57.2912390  59.0299240
 143.4497140  58.3578950  58.1202210 144.6920470  53.4674550  60.8164530
 144.5123310  52.5700300  61.0967290 144.2900550  54.0146420  61.4911480
 147.6623980  54.0416040  54.1794280 147.7690730  54.9419770  54.4863040
 146.7516340  53.9934010  53.8888930 145.3107140  55.9635050  59.4246870
 145.9917250  56.2273420  60.0434270 144.9955190  55.1235920  59.7584880
 149.5031710  57.0102410  58.5119460 150.0109930  57.5083380  59.1524480
 150.0344950  56.2337610  58.3358820 147.7867810  51.6500970  62.7782880
 147.7886250  52.1673360  61.9728780 146.9572120  51.1731150  62.7552810
 149.0370660  61.2896150  60.9556380 148.7040040  61.9165070  61.5977450
 149.2137340  61.8158030  60.1758050 147.4683140  53.3610930  60.7853330
 147.8099950  54.2052980  60.4907200 146.5298950  53.5094670  60.9018670
 148.2489760  63.2576950  62.7705560 148.8663760  63.9328030  62.4890010
 147.3882880  63.6664930  62.6793060 143.5422100  62.4476810  51.6512410
 143.1650080  62.9363910  50.9197310 143.7995170  63.1202090  52.2818940
 151.1511030  50.8493200  57.1097920 151.4586010  50.2940090  56.3933420
 150.2211730  50.9837660  56.9270910 149.1448430  59.4406770  56.6277770
 148.7405430  58.7284020  56.1323670 149.2311550  59.0960010  57.5165810
 149.6130130  63.1274330  58.7916980 149.3158420  62.5219800  58.1124760
 150.5629950  63.1651640  58.6806340 147.8577050  56.2149980  60.4076810
 148.4091640  56.3245320  59.6330060 148.3720560  56.5887580  61.1232040
 148.7048560  62.8656020  65.4424780 147.8077090  63.0895990  65.6898180
 148.7301430  62.9890960  64.4936180 147.5319780  59.7369340  64.0182150
 147.3927550  60.6092140  64.3869550 146.6501140  59.3942150  63.8730090
 149.3300130  65.6791040  66.2267300 149.3015560  66.0833990  65.3595730
 149.1665100  64.7501400  66.0638900 145.8453060  58.3351750  54.1284420
 145.7250660  59.0613840  53.5165690 145.5353950  57.5654660  53.6512330
 143.4838430  61.5066890  59.9353060 143.5618850  61.6415660  58.9908780
 144.0980110  60.7982780  60.1281180 144.7286060  63.2067080  56.3459240
 144.3214140  63.3481670  55.4912840 145.6199070  62.9227240  56.1430450
 149.0007720  67.4212860  54.4581910 148.8250200  66.5048400  54.2449710
 148.1463460  67.7800150  54.6979710 143.5397950  62.5481060  62.4747520
 143.7028990  62.0786420  61.6566890 144.0050400  62.0404620  63.1396360
 148.3116720  51.6786820  57.5108090 147.8684870  52.4596360  57.1792610
 148.8701710  52.0016710  58.2179030 152.5986530  54.5455340  63.1143410
 152.1365900  54.7538360  63.9263350 152.1964640  53.7314690  62.8114080
 151.4275540  51.2997520  52.3913920 150.8029720  51.2957390  53.1167230
 151.3405660  50.4328480  51.9949890 150.3492620  52.2234150  59.3697690
 150.6464950  53.1296980  59.2889710 150.8978180  51.7352930  58.7557260
 148.1030940  56.8020390  55.2389340 147.8771860  56.5857560  56.1435960
 147.3223470  57.2348850  54.8935310 150.5430150  57.7005970  65.9049610
 150.4473750  56.7600700  65.7550010 151.3862130  57.9221040  65.5097680
 145.6740690  54.1119640  64.0583390 145.2804080  54.9594850  64.2656170
 144.9859090  53.4746010  64.2492030 152.2485740  54.1954610  67.1280130
 151.5584060  54.0026810  67.7626220 152.9918040  54.4789250  67.6604430
 142.9757740  52.0348100  58.0913470 142.6870790  52.6050960  58.8038450
 143.7203500  51.5552550  58.4544700 143.1627970  55.9768220  49.3016190
 143.0802640  56.9198980  49.4431180 142.8111030  55.8343130  48.4228540
 150.9626100  54.7107250  58.3686540 150.9662160  54.2697200  57.5191080
 151.8577220  55.0324580  58.4758360 146.8128480  54.5933740  57.3280750
 146.4728530  55.0708970  58.0847800 146.0505800  54.1398860  56.9681850
 151.0246250  55.7119330  51.3593300 151.1459070  55.6705810  52.3079120
 150.6394760  56.5743480  51.2040030 150.0367750  58.0220470  50.7576600
 149.4684650  57.5738720  50.1312510 150.7456750  58.3813250  50.2241750
 145.1136930  61.9232490  64.6343330 144.7291720  61.2826160  65.2326290
 145.4249120  62.6268610  65.2038060 151.2634070  58.7709030  60.1151950
 151.6304200  58.2967600  60.8613290 151.0739130  59.6450600  60.4560290
 144.1274560  53.5152720  56.2445420 143.8421480  53.1508390  57.0824040
 144.0653420  52.7833180  55.6308560 149.0533440  57.8117670  62.4336160
 148.7490510  58.6909650  62.6586520 150.0079900  57.8717460  62.4693600
 147.5815230  62.0178660  53.0303010 146.8077490  61.4776280  52.8701730
 148.3109860  61.4985270  52.6920770 147.6252630  61.6859040  56.6681820
 148.1431300  60.8827300  56.6138710 147.1736650  61.6238180  57.5098650
 152.5122130  62.9525320  51.9409120 152.8537830  63.6967550  51.4452440
 151.6834840  63.2656440  52.3033950 145.1097170  58.6520410  63.5807520
 144.7512110  59.3174260  64.1680860 144.8151730  57.8203960  63.9520140
 148.3110290  59.1104650  66.4647070 148.0110430  59.2561830  65.5674890
 149.0821530  58.5509940  66.3720460 151.4812820  63.0338850  54.7125040
 152.1683950  63.5808060  55.0932630 150.6945240  63.5779580  54.7474650
 143.6205220  58.6511670  50.2042120 144.4900070  58.9336470  50.4878040
 143.1295540  59.4647540  50.0890930 150.7840030  60.0384880  54.3250400
 151.2402810  60.8490130  54.5510590 150.4328240  59.7208020  55.1568890
 146.6851810  50.3822530  54.7972920 146.5566440  50.3740430  55.7457840
 145.8613830  50.7205620  54.4463930 143.9876470  67.8639050  50.7703750
 144.3474110  68.4628390  50.1161020 143.8468810  68.4098940  51.5438780
 143.6845740  52.1413650  64.2579620 142.9704260  52.3410570  64.8632230
 144.1040780  51.3653220  64.6294420 143.9718330  66.1293910  65.2446150
 144.0809450  65.1888650  65.1041540 143.3198890  66.3948660  64.5959880
 151.9630920  64.4009800  66.6444270 151.6427790  63.6819040  67.1889960
 151.2889280  65.0764870  66.7180330 150.0045090  65.2470250  51.5877420
 149.9955190  65.9799940  50.9721930 149.0843450  65.0001830  51.6804380
 145.6051730  60.4685140  52.3324180 144.9979680  61.2084040  52.3419480
 146.0801080  60.5584500  51.5062380 152.9904690  65.3098490  50.2502610
 153.0916670  65.1062480  49.3204590 152.0906430  65.0556770  50.4550390
 150.5130580  55.8678850  54.2326510 149.8046730  56.3365190  54.6740120
 150.7975060  55.2100860  54.8671700 152.1386510  57.2875550  62.2319040
 152.6371760  57.7621370  62.8970890 152.2809460  56.3639070  62.4389070
 151.6322800  67.8284810  54.9450280 151.8864300  67.7906200  54.0229650
 150.6835280  67.7018140  54.9378530 148.7165600  54.1763930  51.6077220
 149.5656130  54.6134080  51.5417410 148.3496870  54.4884190  52.4349280
 147.6157020  60.4296290  50.0812750 148.3820290  60.3177650  50.6438180
 147.6931710  59.7334260  49.4289520 146.3103780  57.8621360  50.7645640
 146.3907370  56.9148870  50.8763040 147.2023530  58.1928240  50.8706300
 147.1118490  68.0116750  57.8680180 147.8480970  67.4632210  58.1388750
 147.4959410  68.8772760  57.7286170 143.9963970  64.0790320  53.7421690
 143.0703750  64.3211460  53.7327100 144.4620400  64.9064580  53.6206440
 146.1176770  67.1962820  67.0565760 146.9189500  67.5174870  67.4701160
 145.6028590  66.8358400  67.7785670 150.2220800  67.1847060  49.6905750
 151.0149410  67.4735890  49.2387540 149.7025150  66.7539230  49.0118230
 143.8374580  59.6836280  66.0001810 144.3413600  59.1043560  66.5718040
 143.0982000  59.9676510  66.5378180 150.7398200  62.4050470  49.5548100
 150.6348840  61.7902820  50.2809480 150.5722420  61.8816360  48.7711110
 150.8912520  61.0907270  65.5337330 150.1258190  61.6592270  65.4492000
 151.0728480  60.7983480  64.6405560 145.8697660  57.8265870  66.8951880
 145.9103000  57.5279740  67.8037110 146.7243160  58.2273480  66.7359400
 149.6476050  60.4261420  52.0555390 150.0692470  60.2601290  52.8986780
 149.7726890  59.6161650  51.5610530 147.8103470  56.4057970  64.8626370
 147.2799930  55.9148920  64.2349710 148.4791540  56.8342170  64.3284300
 152.1603690  59.4499030  49.3032490 152.6809350  58.7348050  48.9373640
 152.8072090  60.0884900  49.6033000 148.2975770  53.3720340  64.9423660
 148.2032640  52.7541090  64.2174530 147.7173160  54.0986630  64.7153570
 151.0637210  51.9293580  61.9751050 150.6154510  51.9517840  61.1296600
 150.4302410  51.5312600  62.5721350 151.4696760  60.8247910  62.5963490
 151.8884870  61.6680640  62.4239730 150.5505390  60.9619950  62.3670270
 148.5434950  56.4994650  49.0013550 148.3424010  55.6362010  49.3626890
 148.3727000  56.4128010  48.0635150 149.3204180  67.1300920  63.7121220
 148.7825270  67.8546980  63.3929920 149.5738140  66.6531260  62.9218560
 150.5729430  55.0985440  65.2377150 151.1629120  54.7901290  65.9254970
 149.7549670  54.6265190  65.3937050 147.3417750  53.5995270  48.9891430
 147.6443650  53.6062700  48.0810580 148.0812340  53.2493130  49.4859090
 152.1766390  68.3652130  63.9707870 152.1025090  69.2687270  64.2780240
 151.2745230  68.0464030  63.9429940 150.5602680  52.5429890  49.9747630
 150.2124680  51.8653880  49.3950080 150.7615450  52.0819400  50.7891020
 146.3647880  62.9037690  49.8221230 146.8022750  63.4467360  50.4778810
 146.8495610  62.0784640  49.8317570 143.5793680  65.6926720  57.2741490
 143.9096690  64.8247780  57.0420130 144.0084680  65.8985240  58.1046450
 148.1755600  64.0235730  54.9343460 147.8751140  63.9000700  55.8347370
 148.0693090  63.1644320  54.5259190 144.0683890  66.5597310  60.0123120
 143.6314880  66.7398110  60.8447270 144.6361570  67.3171930  59.8704840
 143.9008320  59.0717540  56.3712000 143.2457160  58.8029180  55.7271700
 144.7386270  58.9622020  55.9213980 144.9384250  59.4570110  60.9115340
 145.3057290  59.3697510  61.7911360 144.3695070  58.6936660  60.8122200
 144.4900250  56.3679200  64.8173760 143.5956300  56.3345960  65.1567470
 145.0297800  56.5665990  65.5825010 143.1146400  56.2816470  52.3137330
 142.2110480  56.5446670  52.1388990 143.5987020  56.5527640  51.5337290
 145.6573610  55.3382010  50.2231710 146.3665310  54.9165230  49.7378990
 144.9413550  55.4057240  49.5915060 145.3047770  51.3921340  49.2634360
 146.0275900  51.9330280  49.5815580 145.5772290  51.1184760  48.3875900
 144.9939960  50.6427530  59.1656980 145.6416150  50.0924910  58.7252140
 145.4141800  50.8970680  59.9872790 144.7471960  50.7983200  61.9082300
 144.3986780  51.2547020  62.6740480 144.4159660  49.9040330  61.9904730
 146.3536330  63.9702800  66.0735490 146.3105960  63.5995710  66.9549950
 146.4847340  64.9080370  66.2137310 150.0542360  65.5262390  61.6745210
 149.8133720  65.7936950  60.7875730 150.9945000  65.6968120  61.7296070
 145.4192600  50.3259400  65.1833070 145.9675590  50.1447450  64.4199180
 145.4847910  49.5353510  65.7189380 146.1924360  66.9165050  63.1933270
 145.5984680  66.7849750  63.9323310 146.1848200  66.0803190  62.7275370
 145.8236590  64.2823430  62.1441310 145.0970650  63.6628720  62.0767260
 145.8845740  64.6764040  61.2739390 149.4281690  66.4968430  58.9290720
 149.9446710  65.8855790  58.4038980 150.0779070  66.9997210  59.4201730
 152.1677190  67.3876920  59.7559700 152.4555000  67.1331220  58.8792710
 152.6800410  66.8354280  60.3465270 144.1066590  67.5997820  55.3538070
 143.9388630  66.9668500  56.0519960 143.2401100  67.8057220  55.0032260
 144.7294610  51.4314600  52.8569930 145.4873970  51.5443480  52.2833960
 144.2671780  52.2683800  52.8113360 151.2708420  53.5453870  55.8472240
 150.4582930  53.1710760  55.5068120 151.7750060  52.7898950  56.1493430
 145.7129290  66.2931050  52.7988210 145.1876910  66.6739080  52.0950170
 145.6373870  66.9181820  53.5197920 147.1019760  51.9578650  51.3971900
 147.6312520  51.1708450  51.2679850 147.7348080  52.6369840  51.6307430
 149.2957600  51.6953790  54.4517290 148.6660340  50.9941100  54.6187420
 148.7562740  52.4557920  54.2350450 149.4213160  50.9737770  66.8869780
 149.1397430  51.4771370  66.1230600 149.8032860  50.1759520  66.5211910
 148.3122260  68.2413430  51.6737460 149.0441080  67.9572710  51.1261350
 148.5715930  68.0026710  52.5636840 147.4737050  64.3578160  51.6783790
 146.8445930  64.8263260  52.2269620 147.5884880  63.5127380  52.1129980
 147.0770640  60.4982650  40.5870020 146.2455520  60.2431360  40.9866530
 147.6851620  60.5693420  41.3227940 147.0571900  64.5322740  40.7828040
 147.3599940  63.6420480  40.6038260 147.8015490  65.0892960  40.5550290
 145.4862590  55.4584540  34.3712410 144.5979290  55.8000510  34.2692290
 145.7703780  55.2584860  33.4793240 143.4495600  58.0590190  40.2552110
 144.0211710  57.2912390  40.2555750 143.4497140  58.3578950  39.3458720
 144.6920470  53.4674550  42.0421040 144.5123310  52.5700300  42.3223800
 144.2900550  54.0146420  42.7167990 147.6623980  54.0416040  35.4050790
 147.7690730  54.9419770  35.7119550 146.7516340  53.9934010  35.1145440
 145.3107140  55.9635050  40.6503380 145.9917250  56.2273420  41.2690780
 144.9955190  55.1235920  40.9841390 149.5031710  57.0102410  39.7375970
 150.0109930  57.5083380  40.3780990 150.0344950  56.2337610  39.5615330
 147.7867810  51.6500970  44.0039390 147.7886250  52.1673360  43.1985290
 146.9572120  51.1731150  43.9809320 149.0370660  61.2896150  42.1812890
 148.7040040  61.9165070  42.8233960 149.2137340  61.8158030  41.4014560
 147.4683140  53.3610930  42.0109840 147.8099950  54.2052980  41.7163710
 146.5298950  53.5094670  42.1275180 148.2489760  63.2576950  43.9962070
 148.8663760  63.9328030  43.7146520 147.3882880  63.6664930  43.9049570
 143.5422100  62.4476810  32.8768920 143.1650080  62.9363910  32.1453820
 143.7995170  63.1202090  33.5075450 151.1511030  50.8493200  38.3354430
 151.4586010  50.2940090  37.6189930 150.2211730  50.9837660  38.1527420
 149.1448430  59.4406770  37.8534280 148.7405430  58.7284020  37.3580180
 149.2311550  59.0960010  38.7422320 149.6130130  63.1274330  40.0173490
 149.3158420  62.5219800  39.3381270 150.5629950  63.1651640  39.9062850
 147.8577050  56.2149980  41.6333320 148.4091640  56.3245320  40.8586570
 148.3720560  56.5887580  42.3488550 148.7048560  62.8656020  46.6681290
 147.8077090  63.0895990  46.9154690 148.7301430  62.9890960  45.7192690
 147.5319780  59.7369340  45.2438660 147.3927550  60.6092140  45.6126060
 146.6501140  59.3942150  45.0986600 149.3300130  65.6791040  47.4523810
 149.3015560  66.0833990  46.5852240 149.1665100  64.7501400  47.2895410
 145.8453060  58.3351750  35.3540930 145.7250660  59.0613840  34.7422200
 145.5353950  57.5654660  34.8768840 143.4838430  61.5066890  41.1609570
 143.5618850  61.6415660  40.2165290 144.0980110  60.7982780  41.3537690
 144.7286060  63.2067080  37.5715750 144.3214140  63.3481670  36.7169350
 145.6199070  62.9227240  37.3686960 149.0007720  67.4212860  35.6838420
 148.8250200  66.5048400  35.4706220 148.1463460  67.7800150  35.9236220
 143.5397950  62.5481060  43.7004030 143.7028990  62.0786420  42.8823400
 144.0050400  62.0404620  44.3652870 148.3116720  51.6786820  38.7364600
 147.8684870  52.4596360  38.4049120 148.8701710  52.0016710  39.4435540
 152.5986530  54.5455340  44.3399920 152.1365900  54.7538360  45.1519860
 152.1964640  53.7314690  44.0370590 151.4275540  51.2997520  33.6170430
 150.8029720  51.2957390  34.3423740 151.3405660  50.4328480  33.2206400
 150.3492620  52.2234150  40.5954200 150.6464950  53.1296980  40.5146220
 150.8978180  51.7352930  39.9813770 148.1030940  56.8020390  36.4645850
 147.8771860  56.5857560  37.3692470 147.3223470  57.2348850  36.1191820
 150.5430150  57.7005970  47.1306120 150.4473750  56.7600700  46.9806520
 151.3862130  57.9221040  46.7354190 145.6740690  54.1119640  45.2839900
 145.2804080  54.9594850  45.4912680 144.9859090  53.4746010  45.4748540
 152.2485740  54.1954610  48.3536640 151.5584060  54.0026810  48.9882730
 152.9918040  54.4789250  48.8860940 142.9757740  52.0348100  39.3169980
 142.6870790  52.6050960  40.0294960 143.7203500  51.5552550  39.6801210
 143.1627970  55.9768220  30.5272700 143.0802640  56.9198980  30.6687690
 142.8111030  55.8343130  29.6485050 150.9626100  54.7107250  39.5943050
 150.9662160  54.2697200  38.7447590 151.8577220  55.0324580  39.7014870
 146.8128480  54.5933740  38.5537260 146.4728530  55.0708970  39.3104310
 146.0505800  54.1398860  38.1938360 151.0246250  55.7119330  32.5849810
 151.1459070  55.6705810  33.5335630 150.6394760  56.5743480  32.4296540
 150.0367750  58.0220470  31.9833110 149.4684650  57.5738720  31.3569020
 150.7456750  58.3813250  31.4498260 145.1136930  61.9232490  45.8599840
 144.7291720  61.2826160  46.4582800 145.4249120  62.6268610  46.4294570
 151.2634070  58.7709030  41.3408460 151.6304200  58.2967600  42.0869800
 151.0739130  59.6450600  41.6816800 144.1274560  53.5152720  37.4701930
 143.8421480  53.1508390  38.3080550 144.0653420  52.7833180  36.8565070
 149.0533440  57.8117670  43.6592670 148.7490510  58.6909650  43.8843030
 150.0079900  57.8717460  43.6950110 147.5815230  62.0178660  34.2559520
 146.8077490  61.4776280  34.0958240 148.3109860  61.4985270  33.9177280
 147.6252630  61.6859040  37.8938330 148.1431300  60.8827300  37.8395220
 147.1736650  61.6238180  38.7355160 152.5122130  62.9525320  33.1665630
 152.8537830  63.6967550  32.6708950 151.6834840  63.2656440  33.5290460
 145.1097170  58.6520410  44.8064030 144.7512110  59.3174260  45.3937370
 144.8151730  57.8203960  45.1776650 148.3110290  59.1104650  47.6903580
 148.0110430  59.2561830  46.7931400 149.0821530  58.5509940  47.5976970
 151.4812820  63.0338850  35.9381550 152.1683950  63.5808060  36.3189140
 150.6945240  63.5779580  35.9731160 143.6205220  58.6511670  31.4298630
 144.4900070  58.9336470  31.7134550 143.1295540  59.4647540  31.3147440
 150.7840030  60.0384880  35.5506910 151.2402810  60.8490130  35.7767100
 150.4328240  59.7208020  36.3825400 146.6851810  50.3822530  36.0229430
 146.5566440  50.3740430  36.9714350 145.8613830  50.7205620  35.6720440
 143.9876470  67.8639050  31.9960260 144.3474110  68.4628390  31.3417530
 143.8468810  68.4098940  32.7695290 143.6845740  52.1413650  45.4836130
 142.9704260  52.3410570  46.0888740 144.1040780  51.3653220  45.8550930
 143.9718330  66.1293910  46.4702660 144.0809450  65.1888650  46.3298050
 143.3198890  66.3948660  45.8216390 151.9630920  64.4009800  47.8700780
 151.6427790  63.6819040  48.4146470 151.2889280  65.0764870  47.9436840
 150.0045090  65.2470250  32.8133930 149.9955190  65.9799940  32.1978440
 149.0843450  65.0001830  32.9060890 145.6051730  60.4685140  33.5580690
 144.9979680  61.2084040  33.5675990 146.0801080  60.5584500  32.7318890
 152.9904690  65.3098490  31.4759120 153.0916670  65.1062480  30.5461100
 152.0906430  65.0556770  31.6806900 150.5130580  55.8678850  35.4583020
 149.8046730  56.3365190  35.8996630 150.7975060  55.2100860  36.0928210
 152.1386510  57.2875550  43.4575550 152.6371760  57.7621370  44.1227400
 152.2809460  56.3639070  43.6645580 151.6322800  67.8284810  36.1706790
 151.8864300  67.7906200  35.2486160 150.6835280  67.7018140  36.1635040
 148.7165600  54.1763930  32.8333730 149.5656130  54.6134080  32.7673920
 148.3496870  54.4884190  33.6605790 147.6157020  60.4296290  31.3069260
 148.3820290  60.3177650  31.8694690 147.6931710  59.7334260  30.6546030
 146.3103780  57.8621360  31.9902150 146.3907370  56.9148870  32.1019550
 147.2023530  58.1928240  32.0962810 147.1118490  68.0116750  39.0936690
 147.8480970  67.4632210  39.3645260 147.4959410  68.8772760  38.9542680
 143.9963970  64.0790320  34.9678200 143.0703750  64.3211460  34.9583610
 144.4620400  64.9064580  34.8462950 146.1176770  67.1962820  48.2822270
 146.9189500  67.5174870  48.6957670 145.6028590  66.8358400  49.0042180
 150.2220800  67.1847060  30.9162260 151.0149410  67.4735890  30.4644050
 149.7025150  66.7539230  30.2374740 143.8374580  59.6836280  47.2258320
 144.3413600  59.1043560  47.7974550 143.0982000  59.9676510  47.7634690
 150.7398200  62.4050470  30.7804610 150.6348840  61.7902820  31.5065990
 150.5722420  61.8816360  29.9967620 150.8912520  61.0907270  46.7593840
 150.1258190  61.6592270  46.6748510 151.0728480  60.7983480  45.8662070
 145.8697660  57.8265870  48.1208390 145.9103000  57.5279740  49.0293620
 146.7243160  58.2273480  47.9615910 149.6476050  60.4261420  33.2811900
 150.0692470  60.2601290  34.1243290 149.7726890  59.6161650  32.7867040
 147.8103470  56.4057970  46.0882880 147.2799930  55.9148920  45.4606220
 148.4791540  56.8342170  45.5540810 152.1603690  59.4499030  30.5289000
 152.6809350  58.7348050  30.1630150 152.8072090  60.0884900  30.8289510
 148.2975770  53.3720340  46.1680170 148.2032640  52.7541090  45.4431040
 147.7173160  54.0986630  45.9410080 151.0637210  51.9293580  43.2007560
 150.6154510  51.9517840  42.3553110 150.4302410  51.5312600  43.7977860
 151.4696760  60.8247910  43.8220000 151.8884870  61.6680640  43.6496240
 150.5505390  60.9619950  43.5926780 148.5434950  56.4994650  30.2270060
 148.3424010  55.6362010  30.5883400 148.3727000  56.4128010  29.2891660
 149.3204180  67.1300920  44.9377730 148.7825270  67.8546980  44.6186430
 149.5738140  66.6531260  44.1475070 150.5729430  55.0985440  46.4633660
 151.1629120  54.7901290  47.1511480 149.7549670  54.6265190  46.6193560
 147.3417750  53.5995270  30.2147940 147.6443650  53.6062700  29.3067090
 148.0812340  53.2493130  30.7115600 152.1766390  68.3652130  45.1964380
 152.1025090  69.2687270  45.5036750 151.2745230  68.0464030  45.1686450
 150.5602680  52.5429890  31.2004140 150.2124680  51.8653880  30.6206590
 150.7615450  52.0819400  32.0147530 146.3647880  62.9037690  31.0477740
 146.8022750  63.4467360  31.7035320 146.8495610  62.0784640  31.0574080
 143.5793680  65.6926720  38.4998000 143.9096690  64.8247780  38.2676640
 144.0084680  65.8985240  39.3302960 148.1755600  64.0235730  36.1599970
 147.8751140  63.9000700  37.0603880 148.0693090  63.1644320  35.7515700
 144.0683890  66.5597310  41.2379630 143.6314880  66.7398110  42.0703780
 144.6361570  67.3171930  41.0961350 143.9008320  59.0717540  37.5968510
 143.2457160  58.8029180  36.9528210 144.7386270  58.9622020  37.1470490
 144.9384250  59.4570110  42.1371850 145.3057290  59.3697510  43.0167870
 144.3695070  58.6936660  42.0378710 144.4900250  56.3679200  46.0430270
 143.5956300  56.3345960  46.3823980 145.0297800  56.5665990  46.8081520
 143.1146400  56.2816470  33.5393840 142.2110480  56.5446670  33.3645500
 143.5987020  56.5527640  32.7593800 145.6573610  55.3382010  31.4488220
 146.3665310  54.9165230  30.9635500 144.9413550  55.4057240  30.8171570
 145.3047770  51.3921340  30.4890870 146.0275900  51.9330280  30.8072090
 145.5772290  51.1184760  29.6132410 144.9939960  50.6427530  40.3913490
 145.6416150  50.0924910  39.9508650 145.4141800  50.8970680  41.2129300
 144.7471960  50.7983200  43.1338810 144.3986780  51.2547020  43.8996990
 144.4159660  49.9040330  43.2161240 146.3536330  63.9702800  47.2992000
 146.3105960  63.5995710  48.1806460 146.4847340  64.9080370  47.4393820
 150.0542360  65.5262390  42.9001720 149.8133720  65.7936950  42.0132240
 150.9945000  65.6968120  42.9552580 145.4192600  50.3259400  46.4089580
 145.9675590  50.1447450  45.6455690 145.4847910  49.5353510  46.9445890
 146.1924360  66.9165050  44.4189780 145.5984680  66.7849750  45.1579820
 146.1848200  66.0803190  43.9531880 145.8236590  64.2823430  43.3697820
 145.0970650  63.6628720  43.3023770 145.8845740  64.6764040  42.4995900
 149.4281690  66.4968430  40.1547230 149.9446710  65.8855790  39.6295490
 150.0779070  66.9997210  40.6458240 152.1677190  67.3876920  40.9816210
 152.4555000  67.1331220  40.1049220 152.6800410  66.8354280  41.5721780
 144.1066590  67.5997820  36.5794580 143.9388630  66.9668500  37.2776470
 143.2401100  67.8057220  36.2288770 144.7294610  51.4314600  34.0826440
 145.4873970  51.5443480  33.5090470 144.2671780  52.2683800  34.0369870
 151.2708420  53.5453870  37.0728750 150.4582930  53.1710760  36.7324630
 151.7750060  52.7898950  37.3749940 145.7129290  66.2931050  34.0244720
 145.1876910  66.6739080  33.3206680 145.6373870  66.9181820  34.7454430
 147.1019760  51.9578650  32.6228410 147.6312520  51.1708450  32.4936360
 147.7348080  52.6369840  32.8563940 149.2957600  51.6953790  35.6773800
 148.6660340  50.9941100  35.8443930 148.7562740  52.4557920  35.4606960
 149.4213160  50.9737770  48.1126290 149.1397430  51.4771370  47.3487110
 149.8032860  50.1759520  47.7468420 148.3122260  68.2413430  32.8993970
 149.0441080  67.9572710  32.3517860 148.5715930  68.0026710  33.7893350
 147.4737050  64.3578160  32.9040300 146.8445930  64.8263260  33.4526130
 147.5884880  63.5127380  33.3386490 147.0770640  60.4982650  21.8126530
 146.2455520  60.2431360  22.2123040 147.6851620  60.5693420  22.5484450
 147.0571900  64.5322740  22.0084550 147.3599940  63.6420480  21.8294770
 147.8015490  65.0892960  21.7806800 145.4862590  55.4584540  15.5968920
 144.5979290  55.8000510  15.4948800 145.7703780  55.2584860  14.7049750
 143.4495600  58.0590190  21.4808620 144.0211710  57.2912390  21.4812260
 143.4497140  58.3578950  20.5715230 144.6920470  53.4674550  23.2677550
 144.5123310  52.5700300  23.5480310 144.2900550  54.0146420  23.9424500
 147.6623980  54.0416040  16.6307300 147.7690730  54.9419770  16.9376060
 146.7516340  53.9934010  16.3401950 145.3107140  55.9635050  21.8759890
 145.9917250  56.2273420  22.4947290 144.9955190  55.1235920  22.2097900
 149.5031710  57.0102410  20.9632480 150.0109930  57.5083380  21.6037500
 150.0344950  56.2337610  20.7871840 147.7867810  51.6500970  25.2295900
 147.7886250  52.1673360  24.4241800 146.9572120  51.1731150  25.2065830
 149.0370660  61.2896150  23.4069400 148.7040040  61.9165070  24.0490470
 149.2137340  61.8158030  22.6271070 147.4683140  53.3610930  23.2366350
 147.8099950  54.2052980  22.9420220 146.5298950  53.5094670  23.3531690
 148.2489760  63.2576950  25.2218580 148.8663760  63.9328030  24.9403030
 147.3882880  63.6664930  25.1306080 143.5422100  62.4476810  14.1025430
 143.1650080  62.9363910  13.3710330 143.7995170  63.1202090  14.7331960
 151.1511030  50.8493200  19.5610940 151.4586010  50.2940090  18.8446440
 150.2211730  50.9837660  19.3783930 149.1448430  59.4406770  19.0790790
 148.7405430  58.7284020  18.5836690 149.2311550  59.0960010  19.9678830
 149.6130130  63.1274330  21.2430000 149.3158420  62.5219800  20.5637780
 150.5629950  63.1651640  21.1319360 147.8577050  56.2149980  22.8589830
 148.4091640  56.3245320  22.0843080 148.3720560  56.5887580  23.5745060
 148.7048560  62.8656020  27.8937800 147.8077090  63.0895990  28.1411200
 148.7301430  62.9890960  26.9449200 147.5319780  59.7369340  26.4695170
 147.3927550  60.6092140  26.8382570 146.6501140  59.3942150  26.3243110
 149.3300130  65.6791040  28.6780320 149.3015560  66.0833990  27.8108750
 149.1665100  64.7501400  28.5151920 145.8453060  58.3351750  16.5797440
 145.7250660  59.0613840  15.9678710 145.5353950  57.5654660  16.1025350
 143.4838430  61.5066890  22.3866080 143.5618850  61.6415660  21.4421800
 144.0980110  60.7982780  22.5794200 144.7286060  63.2067080  18.7972260
 144.3214140  63.3481670  17.9425860 145.6199070  62.9227240  18.5943470
 149.0007720  67.4212860  16.9094930 148.8250200  66.5048400  16.6962730
 148.1463460  67.7800150  17.1492730 143.5397950  62.5481060  24.9260540
 143.7028990  62.0786420  24.1079910 144.0050400  62.0404620  25.5909380
 148.3116720  51.6786820  19.9621110 147.8684870  52.4596360  19.6305630
 148.8701710  52.0016710  20.6692050 152.5986530  54.5455340  25.5656430
 152.1365900  54.7538360  26.3776370 152.1964640  53.7314690  25.2627100
 151.4275540  51.2997520  14.8426940 150.8029720  51.2957390  15.5680250
 151.3405660  50.4328480  14.4462910 150.3492620  52.2234150  21.8210710
 150.6464950  53.1296980  21.7402730 150.8978180  51.7352930  21.2070280
 148.1030940  56.8020390  17.6902360 147.8771860  56.5857560  18.5948980
 147.3223470  57.2348850  17.3448330 150.5430150  57.7005970  28.3562630
 150.4473750  56.7600700  28.2063030 151.3862130  57.9221040  27.9610700
 145.6740690  54.1119640  26.5096410 145.2804080  54.9594850  26.7169190
 144.9859090  53.4746010  26.7005050 152.2485740  54.1954610  29.5793150
 151.5584060  54.0026810  30.2139240 152.9918040  54.4789250  30.1117450
 142.9757740  52.0348100  20.5426490 142.6870790  52.6050960  21.2551470
 143.7203500  51.5552550  20.9057720 143.1627970  55.9768220  11.7529210
 143.0802640  56.9198980  11.8944200 142.8111030  55.8343130  10.8741560
 150.9626100  54.7107250  20.8199560 150.9662160  54.2697200  19.9704100
 151.8577220  55.0324580  20.9271380 146.8128480  54.5933740  19.7793770
 146.4728530  55.0708970  20.5360820 146.0505800  54.1398860  19.4194870
 151.0246250  55.7119330  13.8106320 151.1459070  55.6705810  14.7592140
 150.6394760  56.5743480  13.6553050 150.0367750  58.0220470  13.2089620
 149.4684650  57.5738720  12.5825530 150.7456750  58.3813250  12.6754770
 145.1136930  61.9232490  27.0856350 144.7291720  61.2826160  27.6839310
 145.4249120  62.6268610  27.6551080 151.2634070  58.7709030  22.5664970
 151.6304200  58.2967600  23.3126310 151.0739130  59.6450600  22.9073310
 144.1274560  53.5152720  18.6958440 143.8421480  53.1508390  19.5337060
 144.0653420  52.7833180  18.0821580 149.0533440  57.8117670  24.8849180
 148.7490510  58.6909650  25.1099540 150.0079900  57.8717460  24.9206620
 147.5815230  62.0178660  15.4816030 146.8077490  61.4776280  15.3214750
 148.3109860  61.4985270  15.1433790 147.6252630  61.6859040  19.1194840
 148.1431300  60.8827300  19.0651730 147.1736650  61.6238180  19.9611670
 152.5122130  62.9525320  14.3922140 152.8537830  63.6967550  13.8965460
 151.6834840  63.2656440  14.7546970 145.1097170  58.6520410  26.0320540
 144.7512110  59.3174260  26.6193880 144.8151730  57.8203960  26.4033160
 148.3110290  59.1104650  28.9160090 148.0110430  59.2561830  28.0187910
 149.0821530  58.5509940  28.8233480 151.4812820  63.0338850  17.1638060
 152.1683950  63.5808060  17.5445650 150.6945240  63.5779580  17.1987670
 143.6205220  58.6511670  12.6555140 144.4900070  58.9336470  12.9391060
 143.1295540  59.4647540  12.5403950 150.7840030  60.0384880  16.7763420
 151.2402810  60.8490130  17.0023610 150.4328240  59.7208020  17.6081910
 146.6851810  50.3822530  17.2485940 146.5566440  50.3740430  18.1970860
 145.8613830  50.7205620  16.8976950 143.9876470  67.8639050  13.2216770
 144.3474110  68.4628390  12.5674040 143.8468810  68.4098940  13.9951800
 143.6845740  52.1413650  26.7092640 142.9704260  52.3410570  27.3145250
 144.1040780  51.3653220  27.0807440 143.9718330  66.1293910  27.6959170
 144.0809450  65.1888650  27.5554560 143.3198890  66.3948660  27.0472900
 151.9630920  64.4009800  29.0957290 151.6427790  63.6819040  29.6402980
 151.2889280  65.0764870  29.1693350 150.0045090  65.2470250  14.0390440
 149.9955190  65.9799940  13.4234950 149.0843450  65.0001830  14.1317400
 145.6051730  60.4685140  14.7837200 144.9979680  61.2084040  14.7932500
 146.0801080  60.5584500  13.9575400 152.9904690  65.3098490  12.7015630
 153.0916670  65.1062480  11.7717610 152.0906430  65.0556770  12.9063410
 150.5130580  55.8678850  16.6839530 149.8046730  56.3365190  17.1253140
 150.7975060  55.2100860  17.3184720 152.1386510  57.2875550  24.6832060
 152.6371760  57.7621370  25.3483910 152.2809460  56.3639070  24.8902090
 151.6322800  67.8284810  17.3963300 151.8864300  67.7906200  16.4742670
 150.6835280  67.7018140  17.3891550 148.7165600  54.1763930  14.0590240
 149.5656130  54.6134080  13.9930430 148.3496870  54.4884190  14.8862300
 147.6157020  60.4296290  12.5325770 148.3820290  60.3177650  13.0951200
 147.6931710  59.7334260  11.8802540 146.3103780  57.8621360  13.2158660
 146.3907370  56.9148870  13.3276060 147.2023530  58.1928240  13.3219320
 147.1118490  68.0116750  20.3193200 147.8480970  67.4632210  20.5901770
 147.4959410  68.8772760  20.1799190 143.9963970  64.0790320  16.1934710
 143.0703750  64.3211460  16.1840120 144.4620400  64.9064580  16.0719460
 146.1176770  67.1962820  29.5078780 146.9189500  67.5174870  29.9214180
 145.6028590  66.8358400  30.2298690 150.2220800  67.1847060  12.1418770
 151.0149410  67.4735890  11.6900560 149.7025150  66.7539230  11.4631250
 143.8374580  59.6836280  28.4514830 144.3413600  59.1043560  29.0231060
 143.0982000  59.9676510  28.9891200 150.7398200  62.4050470  12.0061120
 150.6348840  61.7902820  12.7322500 150.5722420  61.8816360  11.2224130
 150.8912520  61.0907270  27.9850350 150.1258190  61.6592270  27.9005020
 151.0728480  60.7983480  27.0918580 145.8697660  57.8265870  29.3464900
 145.9103000  57.5279740  30.2550130 146.7243160  58.2273480  29.1872420
 149.6476050  60.4261420  14.5068410 150.0692470  60.2601290  15.3499800
 149.7726890  59.6161650  14.0123550 147.8103470  56.4057970  27.3139390
 147.2799930  55.9148920  26.6862730 148.4791540  56.8342170  26.7797320
 152.1603690  59.4499030  11.7545510 152.6809350  58.7348050  11.3886660
 152.8072090  60.0884900  12.0546020 148.2975770  53.3720340  27.3936680
 148.2032640  52.7541090  26.6687550 147.7173160  54.0986630  27.1666590
 151.0637210  51.9293580  24.4264070 150.6154510  51.9517840  23.5809620
 150.4302410  51.5312600  25.0234370 151.4696760  60.8247910  25.0476510
 151.8884870  61.6680640  24.8752750 150.5505390  60.9619950  24.8183290
 148.5434950  56.4994650  11.4526570 148.3424010  55.6362010  11.8139910
 148.3727000  56.4128010  10.5148170 149.3204180  67.1300920  26.1634240
 148.7825270  67.8546980  25.8442940 149.5738140  66.6531260  25.3731580
 150.5729430  55.0985440  27.6890170 151.1629120  54.7901290  28.3767990
 149.7549670  54.6265190  27.8450070 147.3417750  53.5995270  11.4404450
 147.6443650  53.6062700  10.5323600 148.0812340  53.2493130  11.9372110
 152.1766390  68.3652130  26.4220890 152.1025090  69.2687270  26.7293260
 151.2745230  68.0464030  26.3942960 150.5602680  52.5429890  12.4260650
 150.2124680  51.8653880  11.8463100 150.7615450  52.0819400  13.2404040
 146.3647880  62.9037690  12.2734250 146.8022750  63.4467360  12.9291830
 146.8495610  62.0784640  12.2830590 143.5793680  65.6926720  19.7254510
 143.9096690  64.8247780  19.4933150 144.0084680  65.8985240  20.5559470
 148.1755600  64.0235730  17.3856480 147.8751140  63.9000700  18.2860390
 148.0693090  63.1644320  16.9772210 144.0683890  66.5597310  22.4636140
 143.6314880  66.7398110  23.2960290 144.6361570  67.3171930  22.3217860
 143.9008320  59.0717540  18.8225020 143.2457160  58.8029180  18.1784720
 144.7386270  58.9622020  18.3727000 144.9384250  59.4570110  23.3628360
 145.3057290  59.3697510  24.2424380 144.3695070  58.6936660  23.2635220
 144.4900250  56.3679200  27.2686780 143.5956300  56.3345960  27.6080490
 145.0297800  56.5665990  28.0338030 143.1146400  56.2816470  14.7650350
 142.2110480  56.5446670  14.5902010 143.5987020  56.5527640  13.9850310
 145.6573610  55.3382010  12.6744730 146.3665310  54.9165230  12.1892010
 144.9413550  55.4057240  12.0428080 145.3047770  51.3921340  11.7147380
 146.0275900  51.9330280  12.0328600 145.5772290  51.1184760  10.8388920
 144.9939960  50.6427530  21.6170000 145.6416150  50.0924910  21.1765160
 145.4141800  50.8970680  22.4385810 144.7471960  50.7983200  24.3595320
 144.3986780  51.2547020  25.1253500 144.4159660  49.9040330  24.4417750
 146.3536330  63.9702800  28.5248510 146.3105960  63.5995710  29.4062970
 146.4847340  64.9080370  28.6650330 150.0542360  65.5262390  24.1258230
 149.8133720  65.7936950  23.2388750 150.9945000  65.6968120  24.1809090
 145.4192600  50.3259400  27.6346090 145.9675590  50.1447450  26.8712200
 145.4847910  49.5353510  28.1702400 146.1924360  66.9165050  25.6446290
 145.5984680  66.7849750  26.3836330 146.1848200  66.0803190  25.1788390
 145.8236590  64.2823430  24.5954330 145.0970650  63.6628720  24.5280280
 145.8845740  64.6764040  23.7252410 149.4281690  66.4968430  21.3803740
 149.9446710  65.8855790  20.8552000 150.0779070  66.9997210  21.8714750
 152.1677190  67.3876920  22.2072720 152.4555000  67.1331220  21.3305730
 152.6800410  66.8354280  22.7978290 144.1066590  67.5997820  17.8051090
 143.9388630  66.9668500  18.5032980 143.2401100  67.8057220  17.4545280
 144.7294610  51.4314600  15.3082950 145.4873970  51.5443480  14.7346980
 144.2671780  52.2683800  15.2626380 151.2708420  53.5453870  18.2985260
 150.4582930  53.1710760  17.9581140 151.7750060  52.7898950  18.6006450
 145.7129290  66.2931050  15.2501230 145.1876910  66.6739080  14.5463190
 145.6373870  66.9181820  15.9710940 147.1019760  51.9578650  13.8484920
 147.6312520  51.1708450  13.7192870 147.7348080  52.6369840  14.0820450
 149.2957600  51.6953790  16.9030310 148.6660340  50.9941100  17.0700440
 148.7562740  52.4557920  16.6863470 149.4213160  50.9737770  29.3382800
 149.1397430  51.4771370  28.5743620 149.8032860  50.1759520  28.9724930
 148.3122260  68.2413430  14.1250480 149.0441080  67.9572710  13.5774370
 148.5715930  68.0026710  15.0149860 147.4737050  64.3578160  14.1296810
 146.8445930  64.8263260  14.6782640 147.5884880  63.5127380  14.5643000
 147.0770640  60.4982650   3.0383040 146.2455520  60.2431360   3.4379550
 147.6851620  60.5693420   3.7740960 147.0571900  64.5322740   3.2341060
 147.3599940  63.6420480   3.0551280 147.8015490  65.0892960   3.0063310
 143.4495600  58.0590190   2.7065130 144.0211710  57.2912390   2.7068770
 143.4497140  58.3578950   1.7971740 144.6920470  53.4674550   4.4934060
 144.5123310  52.5700300   4.7736820 144.2900550  54.0146420   5.1681010
 145.3107140  55.9635050   3.1016400 145.9917250  56.2273420   3.7203800
 144.9955190  55.1235920   3.4354410 149.5031710  57.0102410   2.1888990
 150.0109930  57.5083380   2.8294010 150.0344950  56.2337610   2.0128350
 147.7867810  51.6500970   6.4552410 147.7886250  52.1673360   5.6498310
 146.9572120  51.1731150   6.4322340 149.0370660  61.2896150   4.6325910
 148.7040040  61.9165070   5.2746980 149.2137340  61.8158030   3.8527580
 147.4683140  53.3610930   4.4622860 147.8099950  54.2052980   4.1676730
 146.5298950  53.5094670   4.5788200 148.2489760  63.2576950   6.4475090
 148.8663760  63.9328030   6.1659540 147.3882880  63.6664930   6.3562590
 149.6130130  63.1274330   2.4686510 149.3158420  62.5219800   1.7894290
 150.5629950  63.1651640   2.3575870 147.8577050  56.2149980   4.0846340
 148.4091640  56.3245320   3.3099590 148.3720560  56.5887580   4.8001570
 148.7048560  62.8656020   9.1194310 147.8077090  63.0895990   9.3667710
 148.7301430  62.9890960   8.1705710 147.5319780  59.7369340   7.6951680
 147.3927550  60.6092140   8.0639080 146.6501140  59.3942150   7.5499620
 149.3300130  65.6791040   9.9036830 149.3015560  66.0833990   9.0365260
 149.1665100  64.7501400   9.7408430 143.4838430  61.5066890   3.6122590
 143.5618850  61.6415660   2.6678310 144.0980110  60.7982780   3.8050710
 143.5397950  62.5481060   6.1517050 143.7028990  62.0786420   5.3336420
 144.0050400  62.0404620   6.8165890 152.5986530  54.5455340   6.7912940
 152.1365900  54.7538360   7.6032880 152.1964640  53.7314690   6.4883610
 150.3492620  52.2234150   3.0467220 150.6464950  53.1296980   2.9659240
 150.8978180  51.7352930   2.4326790 150.5430150  57.7005970   9.5819140
 150.4473750  56.7600700   9.4319540 151.3862130  57.9221040   9.1867210
 145.6740690  54.1119640   7.7352920 145.2804080  54.9594850   7.9425700
 144.9859090  53.4746010   7.9261560 152.2485740  54.1954610  10.8049660
 151.5584060  54.0026810  11.4395750 152.9918040  54.4789250  11.3373960
 142.9757740  52.0348100   1.7683000 142.6870790  52.6050960   2.4807980
 143.7203500  51.5552550   2.1314230 145.1136930  61.9232490   8.3112860
 144.7291720  61.2826160   8.9095820 145.4249120  62.6268610   8.8807590
 151.2634070  58.7709030   3.7921480 151.6304200  58.2967600   4.5382820
 151.0739130  59.6450600   4.1329820 149.0533440  57.8117670   6.1105690
 148.7490510  58.6909650   6.3356050 150.0079900  57.8717460   6.1463130
 145.1097170  58.6520410   7.2577050 144.7512110  59.3174260   7.8450390
 144.8151730  57.8203960   7.6289670 148.3110290  59.1104650  10.1416600
 148.0110430  59.2561830   9.2444420 149.0821530  58.5509940  10.0489990
 143.6845740  52.1413650   7.9349150 142.9704260  52.3410570   8.5401760
 144.1040780  51.3653220   8.3063950 143.9718330  66.1293910   8.9215680
 144.0809450  65.1888650   8.7811070 143.3198890  66.3948660   8.2729410
 151.9630920  64.4009800  10.3213800 151.6427790  63.6819040  10.8659490
 151.2889280  65.0764870  10.3949860 152.1386510  57.2875550   5.9088570
 152.6371760  57.7621370   6.5740420 152.2809460  56.3639070   6.1158600
 146.1176770  67.1962820  10.7335290 146.9189500  67.5174870  11.1470690
 145.6028590  66.8358400  11.4555200 143.8374580  59.6836280   9.6771340
 144.3413600  59.1043560  10.2487570 143.0982000  59.9676510  10.2147710
 150.8912520  61.0907270   9.2106860 150.1258190  61.6592270   9.1261530
 151.0728480  60.7983480   8.3175090 145.8697660  57.8265870  10.5721410
 145.9103000  57.5279740  11.4806640 146.7243160  58.2273480  10.4128930
 147.8103470  56.4057970   8.5395900 147.2799930  55.9148920   7.9119240
 148.4791540  56.8342170   8.0053830 148.2975770  53.3720340   8.6193190
 148.2032640  52.7541090   7.8944060 147.7173160  54.0986630   8.3923100
 151.0637210  51.9293580   5.6520580 150.6154510  51.9517840   4.8066130
 150.4302410  51.5312600   6.2490880 151.4696760  60.8247910   6.2733020
 151.8884870  61.6680640   6.1009260 150.5505390  60.9619950   6.0439800
 149.3204180  67.1300920   7.3890750 148.7825270  67.8546980   7.0699450
 149.5738140  66.6531260   6.5988090 150.5729430  55.0985440   8.9146680
 151.1629120  54.7901290   9.6024500 149.7549670  54.6265190   9.0706580
 152.1766390  68.3652130   7.6477400 152.1025090  69.2687270   7.9549770
 151.2745230  68.0464030   7.6199470 144.0683890  66.5597310   3.6892650
 143.6314880  66.7398110   4.5216800 144.6361570  67.3171930   3.5474370
 144.9384250  59.4570110   4.5884870 145.3057290  59.3697510   5.4680890
 144.3695070  58.6936660   4.4891730 144.4900250  56.3679200   8.4943290
 143.5956300  56.3345960   8.8337000 145.0297800  56.5665990   9.2594540
 144.9939960  50.6427530   2.8426510 145.6416150  50.0924910   2.4021670
 145.4141800  50.8970680   3.6642320 144.7471960  50.7983200   5.5851830
 144.3986780  51.2547020   6.3510010 144.4159660  49.9040330   5.6674260
 146.3536330  63.9702800   9.7505020 146.3105960  63.5995710  10.6319480
 146.4847340  64.9080370   9.8906840 150.0542360  65.5262390   5.3514740
 149.8133720  65.7936950   4.4645260 150.9945000  65.6968120   5.4065600
 145.4192600  50.3259400   8.8602600 145.9675590  50.1447450   8.0968710
 145.4847910  49.5353510   9.3958910 146.1924360  66.9165050   6.8702800
 145.5984680  66.7849750   7.6092840 146.1848200  66.0803190   6.4044900
 145.8236590  64.2823430   5.8210840 145.0970650  63.6628720   5.7536790
 145.8845740  64.6764040   4.9508920 149.4281690  66.4968430   2.6060250
 149.9446710  65.8855790   2.0808510 150.0779070  66.9997210   3.0971260
 152.1677190  67.3876920   3.4329230 152.4555000  67.1331220   2.5562240
 152.6800410  66.8354280   4.0234800 149.4213160  50.9737770  10.5639310
 149.1397430  51.4771370   9.8000130 149.8032860  50.1759520  10.1981440
 145.4862590  36.6841050 147.0173350 144.5979290  37.0257020 146.9153230
 145.7703780  36.4841370 146.1254180 147.6623980  35.2672550 148.0511730
 147.7690730  36.1676280 148.3580490 146.7516340  35.2190520 147.7606380
 143.5422100  43.6733320 145.5229860 143.1650080  44.1620420 144.7914760
 143.7995170  44.3458600 146.1536390 151.1511030  32.0749710 150.9815370
 151.4586010  31.5196600 150.2650870 150.2211730  32.2094170 150.7988360
 149.1448430  40.6663280 150.4995220 148.7405430  39.9540530 150.0041120
 149.2311550  40.3216520 151.3883260 145.8453060  39.5608260 148.0001870
 145.7250660  40.2870350 147.3883140 145.5353950  38.7911170 147.5229780
 144.7286060  44.4323590 150.2176690 144.3214140  44.5738180 149.3630290
 145.6199070  44.1483750 150.0147900 149.0007720  48.6469370 148.3299360
 148.8250200  47.7304910 148.1167160 148.1463460  49.0056660 148.5697160
 148.3116720  32.9043330 151.3825540 147.8684870  33.6852870 151.0510060
 148.8701710  33.2273220 152.0896480 151.4275540  32.5254030 146.2631370
 150.8029720  32.5213900 146.9884680 151.3405660  31.6584990 145.8667340
 148.1030940  38.0276900 149.1106790 147.8771860  37.8114070 150.0153410
 147.3223470  38.4605360 148.7652760 143.1627970  37.2024730 143.1733640
 143.0802640  38.1455490 143.3148630 142.8111030  37.0599640 142.2945990
 150.9626100  35.9363760 152.2403990 150.9662160  35.4953710 151.3908530
 151.8577220  36.2581090 152.3475810 146.8128480  35.8190250 151.1998200
 146.4728530  36.2965480 151.9565250 146.0505800  35.3655370 150.8399300
 151.0246250  36.9375840 145.2310750 151.1459070  36.8962320 146.1796570
 150.6394760  37.7999990 145.0757480 150.0367750  39.2476980 144.6294050
 149.4684650  38.7995230 144.0029960 150.7456750  39.6069760 144.0959200
 144.1274560  34.7409230 150.1162870 143.8421480  34.3764900 150.9541490
 144.0653420  34.0089690 149.5026010 147.5815230  43.2435170 146.9020460
 146.8077490  42.7032790 146.7419180 148.3109860  42.7241780 146.5638220
 147.6252630  42.9115550 150.5399270 148.1431300  42.1083810 150.4856160
 147.1736650  42.8494690 151.3816100 152.5122130  44.1781830 145.8126570
 152.8537830  44.9224060 145.3169890 151.6834840  44.4912950 146.1751400
 151.4812820  44.2595360 148.5842490 152.1683950  44.8064570 148.9650080
 150.6945240  44.8036090 148.6192100 143.6205220  39.8768180 144.0759570
 144.4900070  40.1592980 144.3595490 143.1295540  40.6904050 143.9608380
 150.7840030  41.2641390 148.1967850 151.2402810  42.0746640 148.4228040
 150.4328240  40.9464530 149.0286340 146.6851810  31.6079040 148.6690370
 146.5566440  31.5996940 149.6175290 145.8613830  31.9462130 148.3181380
 143.9876470  49.0895560 144.6421200 144.3474110  49.6884900 143.9878470
 143.8468810  49.6355450 145.4156230 150.0045090  46.4726760 145.4594870
 149.9955190  47.2056450 144.8439380 149.0843450  46.2258340 145.5521830
 145.6051730  41.6941650 146.2041630 144.9979680  42.4340550 146.2136930
 146.0801080  41.7841010 145.3779830 152.9904690  46.5355000 144.1220060
 153.0916670  46.3318990 143.1922040 152.0906430  46.2813280 144.3267840
 150.5130580  37.0935360 148.1043960 149.8046730  37.5621700 148.5457570
 150.7975060  36.4357370 148.7389150 151.6322800  49.0541320 148.8167730
 151.8864300  49.0162710 147.8947100 150.6835280  48.9274650 148.8095980
 148.7165600  35.4020440 145.4794670 149.5656130  35.8390590 145.4134860
 148.3496870  35.7140700 146.3066730 147.6157020  41.6552800 143.9530200
 148.3820290  41.5434160 144.5155630 147.6931710  40.9590770 143.3006970
 146.3103780  39.0877870 144.6363090 146.3907370  38.1405380 144.7480490
 147.2023530  39.4184750 144.7423750 147.1118490  49.2373260 151.7397630
 147.8480970  48.6888720 152.0106200 147.4959410  50.1029270 151.6003620
 143.9963970  45.3046830 147.6139140 143.0703750  45.5467970 147.6044550
 144.4620400  46.1321090 147.4923890 150.2220800  48.4103570 143.5623200
 151.0149410  48.6992400 143.1104990 149.7025150  47.9795740 142.8835680
 150.7398200  43.6306980 143.4265550 150.6348840  43.0159330 144.1526930
 150.5722420  43.1072870 142.6428560 149.6476050  41.6517930 145.9272840
 150.0692470  41.4857800 146.7704230 149.7726890  40.8418160 145.4327980
 152.1603690  40.6755540 143.1749940 152.6809350  39.9604560 142.8091090
 152.8072090  41.3141410 143.4750450 148.5434950  37.7251160 142.8731000
 148.3424010  36.8618520 143.2344340 148.3727000  37.6384520 141.9352600
 147.3417750  34.8251780 142.8608880 147.6443650  34.8319210 141.9528030
 148.0812340  34.4749640 143.3576540 150.5602680  33.7686400 143.8465080
 150.2124680  33.0910390 143.2667530 150.7615450  33.3075910 144.6608470
 146.3647880  44.1294200 143.6938680 146.8022750  44.6723870 144.3496260
 146.8495610  43.3041150 143.7035020 143.5793680  46.9183230 151.1458940
 143.9096690  46.0504290 150.9137580 144.0084680  47.1241750 151.9763900
 148.1755600  45.2492240 148.8060910 147.8751140  45.1257210 149.7064820
 148.0693090  44.3900830 148.3976640 143.9008320  40.2974050 150.2429450
 143.2457160  40.0285690 149.5989150 144.7386270  40.1878530 149.7931430
 143.1146400  37.5072980 146.1854780 142.2110480  37.7703180 146.0106440
 143.5987020  37.7784150 145.4054740 145.6573610  36.5638520 144.0949160
 146.3665310  36.1421740 143.6096440 144.9413550  36.6313750 143.4632510
 145.3047770  32.6177850 143.1351810 146.0275900  33.1586790 143.4533030
 145.5772290  32.3441270 142.2593350 144.1066590  48.8254330 149.2255520
 143.9388630  48.1925010 149.9237410 143.2401100  49.0313730 148.8749710
 144.7294610  32.6571110 146.7287380 145.4873970  32.7699990 146.1551410
 144.2671780  33.4940310 146.6830810 151.2708420  34.7710380 149.7189690
 150.4582930  34.3967270 149.3785570 151.7750060  34.0155460 150.0210880
 145.7129290  47.5187560 146.6705660 145.1876910  47.8995590 145.9667620
 145.6373870  48.1438330 147.3915370 147.1019760  33.1835160 145.2689350
 147.6312520  32.3964960 145.1397300 147.7348080  33.8626350 145.5024880
 149.2957600  32.9210300 148.3234740 148.6660340  32.2197610 148.4904870
 148.7562740  33.6814430 148.1067900 148.3122260  49.4669940 145.5454910
 149.0441080  49.1829220 144.9978800 148.5715930  49.2283220 146.4354290
 147.4737050  45.5834670 145.5501240 146.8445930  46.0519770 146.0987070
 147.5884880  44.7383890 145.9847430 147.0770640  41.7239160 134.4587470
 146.2455520  41.4687870 134.8583980 147.6851620  41.7949930 135.1945390
 147.0571900  45.7579250 134.6545490 147.3599940  44.8676990 134.4755710
 147.8015490  46.3149470 134.4267740 145.4862590  36.6841050 128.2429860
 144.5979290  37.0257020 128.1409740 145.7703780  36.4841370 127.3510690
 143.4495600  39.2846700 134.1269560 144.0211710  38.5168900 134.1273200
 143.4497140  39.5835460 133.2176170 144.6920470  34.6931060 135.9138490
 144.5123310  33.7956810 136.1941250 144.2900550  35.2402930 136.5885440
 147.6623980  35.2672550 129.2768240 147.7690730  36.1676280 129.5837000
 146.7516340  35.2190520 128.9862890 145.3107140  37.1891560 134.5220830
 145.9917250  37.4529930 135.1408230 144.9955190  36.3492430 134.8558840
 149.5031710  38.2358920 133.6093420 150.0109930  38.7339890 134.2498440
 150.0344950  37.4594120 133.4332780 147.7867810  32.8757480 137.8756840
 147.7886250  33.3929870 137.0702740 146.9572120  32.3987660 137.8526770
 149.0370660  42.5152660 136.0530340 148.7040040  43.1421580 136.6951410
 149.2137340  43.0414540 135.2732010 147.4683140  34.5867440 135.8827290
 147.8099950  35.4309490 135.5881160 146.5298950  34.7351180 135.9992630
 148.2489760  44.4833460 137.8679520 148.8663760  45.1584540 137.5863970
 147.3882880  44.8921440 137.7767020 143.5422100  43.6733320 126.7486370
 143.1650080  44.1620420 126.0171270 143.7995170  44.3458600 127.3792900
 151.1511030  32.0749710 132.2071880 151.4586010  31.5196600 131.4907380
 150.2211730  32.2094170 132.0244870 149.1448430  40.6663280 131.7251730
 148.7405430  39.9540530 131.2297630 149.2311550  40.3216520 132.6139770
 149.6130130  44.3530840 133.8890940 149.3158420  43.7476310 133.2098720
 150.5629950  44.3908150 133.7780300 147.8577050  37.4406490 135.5050770
 148.4091640  37.5501830 134.7304020 148.3720560  37.8144090 136.2206000
 148.7048560  44.0912530 140.5398740 147.8077090  44.3152500 140.7872140
 148.7301430  44.2147470 139.5910140 147.5319780  40.9625850 139.1156110
 147.3927550  41.8348650 139.4843510 146.6501140  40.6198660 138.9704050
 149.3300130  46.9047550 141.3241260 149.3015560  47.3090500 140.4569690
 149.1665100  45.9757910 141.1612860 145.8453060  39.5608260 129.2258380
 145.7250660  40.2870350 128.6139650 145.5353950  38.7911170 128.7486290
 143.4838430  42.7323400 135.0327020 143.5618850  42.8672170 134.0882740
 144.0980110  42.0239290 135.2255140 144.7286060  44.4323590 131.4433200
 144.3214140  44.5738180 130.5886800 145.6199070  44.1483750 131.2404410
 149.0007720  48.6469370 129.5555870 148.8250200  47.7304910 129.3423670
 148.1463460  49.0056660 129.7953670 143.5397950  43.7737570 137.5721480
 143.7028990  43.3042930 136.7540850 144.0050400  43.2661130 138.2370320
 148.3116720  32.9043330 132.6082050 147.8684870  33.6852870 132.2766570
 148.8701710  33.2273220 133.3152990 152.5986530  35.7711850 138.2117370
 152.1365900  35.9794870 139.0237310 152.1964640  34.9571200 137.9088040
 151.4275540  32.5254030 127.4887880 150.8029720  32.5213900 128.2141190
 151.3405660  31.6584990 127.0923850 150.3492620  33.4490660 134.4671650
 150.6464950  34.3553490 134.3863670 150.8978180  32.9609440 133.8531220
 148.1030940  38.0276900 130.3363300 147.8771860  37.8114070 131.2409920
 147.3223470  38.4605360 129.9909270 150.5430150  38.9262480 141.0023570
 150.4473750  37.9857210 140.8523970 151.3862130  39.1477550 140.6071640
 145.6740690  35.3376150 139.1557350 145.2804080  36.1851360 139.3630130
 144.9859090  34.7002520 139.3465990 152.2485740  35.4211120 142.2254090
 151.5584060  35.2283320 142.8600180 152.9918040  35.7045760 142.7578390
 142.9757740  33.2604610 133.1887430 142.6870790  33.8307470 133.9012410
 143.7203500  32.7809060 133.5518660 143.1627970  37.2024730 124.3990150
 143.0802640  38.1455490 124.5405140 142.8111030  37.0599640 123.5202500
 150.9626100  35.9363760 133.4660500 150.9662160  35.4953710 132.6165040
 151.8577220  36.2581090 133.5732320 146.8128480  35.8190250 132.4254710
 146.4728530  36.2965480 133.1821760 146.0505800  35.3655370 132.0655810
 151.0246250  36.9375840 126.4567260 151.1459070  36.8962320 127.4053080
 150.6394760  37.7999990 126.3013990 150.0367750  39.2476980 125.8550560
 149.4684650  38.7995230 125.2286470 150.7456750  39.6069760 125.3215710
 145.1136930  43.1489000 139.7317290 144.7291720  42.5082670 140.3300250
 145.4249120  43.8525120 140.3012020 151.2634070  39.9965540 135.2125910
 151.6304200  39.5224110 135.9587250 151.0739130  40.8707110 135.5534250
 144.1274560  34.7409230 131.3419380 143.8421480  34.3764900 132.1798000
 144.0653420  34.0089690 130.7282520 149.0533440  39.0374180 137.5310120
 148.7490510  39.9166160 137.7560480 150.0079900  39.0973970 137.5667560
 147.5815230  43.2435170 128.1276970 146.8077490  42.7032790 127.9675690
 148.3109860  42.7241780 127.7894730 147.6252630  42.9115550 131.7655780
 148.1431300  42.1083810 131.7112670 147.1736650  42.8494690 132.6072610
 152.5122130  44.1781830 127.0383080 152.8537830  44.9224060 126.5426400
 151.6834840  44.4912950 127.4007910 145.1097170  39.8776920 138.6781480
 144.7512110  40.5430770 139.2654820 144.8151730  39.0460470 139.0494100
 148.3110290  40.3361160 141.5621030 148.0110430  40.4818340 140.6648850
 149.0821530  39.7766450 141.4694420 151.4812820  44.2595360 129.8099000
 152.1683950  44.8064570 130.1906590 150.6945240  44.8036090 129.8448610
 143.6205220  39.8768180 125.3016080 144.4900070  40.1592980 125.5852000
 143.1295540  40.6904050 125.1864890 150.7840030  41.2641390 129.4224360
 151.2402810  42.0746640 129.6484550 150.4328240  40.9464530 130.2542850
 146.6851810  31.6079040 129.8946880 146.5566440  31.5996940 130.8431800
 145.8613830  31.9462130 129.5437890 143.9876470  49.0895560 125.8677710
 144.3474110  49.6884900 125.2134980 143.8468810  49.6355450 126.6412740
 143.6845740  33.3670160 139.3553580 142.9704260  33.5667080 139.9606190
 144.1040780  32.5909730 139.7268380 143.9718330  47.3550420 140.3420110
 144.0809450  46.4145160 140.2015500 143.3198890  47.6205170 139.6933840
 151.9630920  45.6266310 141.7418230 151.6427790  44.9075550 142.2863920
 151.2889280  46.3021380 141.8154290 150.0045090  46.4726760 126.6851380
 149.9955190  47.2056450 126.0695890 149.0843450  46.2258340 126.7778340
 145.6051730  41.6941650 127.4298140 144.9979680  42.4340550 127.4393440
 146.0801080  41.7841010 126.6036340 152.9904690  46.5355000 125.3476570
 153.0916670  46.3318990 124.4178550 152.0906430  46.2813280 125.5524350
 150.5130580  37.0935360 129.3300470 149.8046730  37.5621700 129.7714080
 150.7975060  36.4357370 129.9645660 152.1386510  38.5132060 137.3293000
 152.6371760  38.9877880 137.9944850 152.2809460  37.5895580 137.5363030
 151.6322800  49.0541320 130.0424240 151.8864300  49.0162710 129.1203610
 150.6835280  48.9274650 130.0352490 148.7165600  35.4020440 126.7051180
 149.5656130  35.8390590 126.6391370 148.3496870  35.7140700 127.5323240
 147.6157020  41.6552800 125.1786710 148.3820290  41.5434160 125.7412140
 147.6931710  40.9590770 124.5263480 146.3103780  39.0877870 125.8619600
 146.3907370  38.1405380 125.9737000 147.2023530  39.4184750 125.9680260
 147.1118490  49.2373260 132.9654140 147.8480970  48.6888720 133.2362710
 147.4959410  50.1029270 132.8260130 143.9963970  45.3046830 128.8395650
 143.0703750  45.5467970 128.8301060 144.4620400  46.1321090 128.7180400
 146.1176770  48.4219330 142.1539720 146.9189500  48.7431380 142.5675120
 145.6028590  48.0614910 142.8759630 150.2220800  48.4103570 124.7879710
 151.0149410  48.6992400 124.3361500 149.7025150  47.9795740 124.1092190
 143.8374580  40.9092790 141.0975770 144.3413600  40.3300070 141.6692000
 143.0982000  41.1933020 141.6352140 150.7398200  43.6306980 124.6522060
 150.6348840  43.0159330 125.3783440 150.5722420  43.1072870 123.8685070
 150.8912520  42.3163780 140.6311290 150.1258190  42.8848780 140.5465960
 151.0728480  42.0239990 139.7379520 145.8697660  39.0522380 141.9925840
 145.9103000  38.7536250 142.9011070 146.7243160  39.4529990 141.8333360
 149.6476050  41.6517930 127.1529350 150.0692470  41.4857800 127.9960740
 149.7726890  40.8418160 126.6584490 147.8103470  37.6314480 139.9600330
 147.2799930  37.1405430 139.3323670 148.4791540  38.0598680 139.4258260
 152.1603690  40.6755540 124.4006450 152.6809350  39.9604560 124.0347600
 152.8072090  41.3141410 124.7006960 148.2975770  34.5976850 140.0397620
 148.2032640  33.9797600 139.3148490 147.7173160  35.3243140 139.8127530
 151.0637210  33.1550090 137.0725010 150.6154510  33.1774350 136.2270560
 150.4302410  32.7569110 137.6695310 151.4696760  42.0504420 137.6937450
 151.8884870  42.8937150 137.5213690 150.5505390  42.1876460 137.4644230
 148.5434950  37.7251160 124.0987510 148.3424010  36.8618520 124.4600850
 148.3727000  37.6384520 123.1609110 149.3204180  48.3557430 138.8095180
 148.7825270  49.0803490 138.4903880 149.5738140  47.8787770 138.0192520
 150.5729430  36.3241950 140.3351110 151.1629120  36.0157800 141.0228930
 149.7549670  35.8521700 140.4911010 147.3417750  34.8251780 124.0865390
 147.6443650  34.8319210 123.1784540 148.0812340  34.4749640 124.5833050
 152.1766390  49.5908640 139.0681830 152.1025090  50.4943780 139.3754200
 151.2745230  49.2720540 139.0403900 150.5602680  33.7686400 125.0721590
 150.2124680  33.0910390 124.4924040 150.7615450  33.3075910 125.8864980
 146.3647880  44.1294200 124.9195190 146.8022750  44.6723870 125.5752770
 146.8495610  43.3041150 124.9291530 143.5793680  46.9183230 132.3715450
 143.9096690  46.0504290 132.1394090 144.0084680  47.1241750 133.2020410
 148.1755600  45.2492240 130.0317420 147.8751140  45.1257210 130.9321330
 148.0693090  44.3900830 129.6233150 144.0683890  47.7853820 135.1097080
 143.6314880  47.9654620 135.9421230 144.6361570  48.5428440 134.9678800
 143.9008320  40.2974050 131.4685960 143.2457160  40.0285690 130.8245660
 144.7386270  40.1878530 131.0187940 144.9384250  40.6826620 136.0089300
 145.3057290  40.5954020 136.8885320 144.3695070  39.9193170 135.9096160
 144.4900250  37.5935710 139.9147720 143.5956300  37.5602470 140.2541430
 145.0297800  37.7922500 140.6798970 143.1146400  37.5072980 127.4111290
 142.2110480  37.7703180 127.2362950 143.5987020  37.7784150 126.6311250
 145.6573610  36.5638520 125.3205670 146.3665310  36.1421740 124.8352950
 144.9413550  36.6313750 124.6889020 145.3047770  32.6177850 124.3608320
 146.0275900  33.1586790 124.6789540 145.5772290  32.3441270 123.4849860
 144.9939960  31.8684040 134.2630940 145.6416150  31.3181420 133.8226100
 145.4141800  32.1227190 135.0846750 144.7471960  32.0239710 137.0056260
 144.3986780  32.4803530 137.7714440 144.4159660  31.1296840 137.0878690
 146.3536330  45.1959310 141.1709450 146.3105960  44.8252220 142.0523910
 146.4847340  46.1336880 141.3111270 150.0542360  46.7518900 136.7719170
 149.8133720  47.0193460 135.8849690 150.9945000  46.9224630 136.8270030
 145.4192600  31.5515910 140.2807030 145.9675590  31.3703960 139.5173140
 145.4847910  30.7610020 140.8163340 146.1924360  48.1421560 138.2907230
 145.5984680  48.0106260 139.0297270 146.1848200  47.3059700 137.8249330
 145.8236590  45.5079940 137.2415270 145.0970650  44.8885230 137.1741220
 145.8845740  45.9020550 136.3713350 149.4281690  47.7224940 134.0264680
 149.9446710  47.1112300 133.5012940 150.0779070  48.2253720 134.5175690
 152.1677190  48.6133430 134.8533660 152.4555000  48.3587730 133.9766670
 152.6800410  48.0610790 135.4439230 144.1066590  48.8254330 130.4512030
 143.9388630  48.1925010 131.1493920 143.2401100  49.0313730 130.1006220
 144.7294610  32.6571110 127.9543890 145.4873970  32.7699990 127.3807920
 144.2671780  33.4940310 127.9087320 151.2708420  34.7710380 130.9446200
 150.4582930  34.3967270 130.6042080 151.7750060  34.0155460 131.2467390
 145.7129290  47.5187560 127.8962170 145.1876910  47.8995590 127.1924130
 145.6373870  48.1438330 128.6171880 147.1019760  33.1835160 126.4945860
 147.6312520  32.3964960 126.3653810 147.7348080  33.8626350 126.7281390
 149.2957600  32.9210300 129.5491250 148.6660340  32.2197610 129.7161380
 148.7562740  33.6814430 129.3324410 149.4213160  32.1994280 141.9843740
 149.1397430  32.7027880 141.2204560 149.8032860  31.4016030 141.6185870
 148.3122260  49.4669940 126.7711420 149.0441080  49.1829220 126.2235310
 148.5715930  49.2283220 127.6610800 147.4737050  45.5834670 126.7757750
 146.8445930  46.0519770 127.3243580 147.5884880  44.7383890 127.2103940
 147.0770640  41.7239160 115.6843980 146.2455520  41.4687870 116.0840490
 147.6851620  41.7949930 116.4201900 147.0571900  45.7579250 115.8802000
 147.3599940  44.8676990 115.7012220 147.8015490  46.3149470 115.6524250
 145.4862590  36.6841050 109.4686370 144.5979290  37.0257020 109.3666250
 145.7703780  36.4841370 108.5767200 143.4495600  39.2846700 115.3526070
 144.0211710  38.5168900 115.3529710 143.4497140  39.5835460 114.4432680
 144.6920470  34.6931060 117.1395000 144.5123310  33.7956810 117.4197760
 144.2900550  35.2402930 117.8141950 147.6623980  35.2672550 110.5024750
 147.7690730  36.1676280 110.8093510 146.7516340  35.2190520 110.2119400
 145.3107140  37.1891560 115.7477340 145.9917250  37.4529930 116.3664740
 144.9955190  36.3492430 116.0815350 149.5031710  38.2358920 114.8349930
 150.0109930  38.7339890 115.4754950 150.0344950  37.4594120 114.6589290
 147.7867810  32.8757480 119.1013350 147.7886250  33.3929870 118.2959250
 146.9572120  32.3987660 119.0783280 149.0370660  42.5152660 117.2786850
 148.7040040  43.1421580 117.9207920 149.2137340  43.0414540 116.4988520
 147.4683140  34.5867440 117.1083800 147.8099950  35.4309490 116.8137670
 146.5298950  34.7351180 117.2249140 148.2489760  44.4833460 119.0936030
 148.8663760  45.1584540 118.8120480 147.3882880  44.8921440 119.0023530
 143.5422100  43.6733320 107.9742880 143.1650080  44.1620420 107.2427780
 143.7995170  44.3458600 108.6049410 151.1511030  32.0749710 113.4328390
 151.4586010  31.5196600 112.7163890 150.2211730  32.2094170 113.2501380
 149.1448430  40.6663280 112.9508240 148.7405430  39.9540530 112.4554140
 149.2311550  40.3216520 113.8396280 149.6130130  44.3530840 115.1147450
 149.3158420  43.7476310 114.4355230 150.5629950  44.3908150 115.0036810
 147.8577050  37.4406490 116.7307280 148.4091640  37.5501830 115.9560530
 148.3720560  37.8144090 117.4462510 148.7048560  44.0912530 121.7655250
 147.8077090  44.3152500 122.0128650 148.7301430  44.2147470 120.8166650
 147.5319780  40.9625850 120.3412620 147.3927550  41.8348650 120.7100020
 146.6501140  40.6198660 120.1960560 149.3300130  46.9047550 122.5497770
 149.3015560  47.3090500 121.6826200 149.1665100  45.9757910 122.3869370
 145.8453060  39.5608260 110.4514890 145.7250660  40.2870350 109.8396160
 145.5353950  38.7911170 109.9742800 143.4838430  42.7323400 116.2583530
 143.5618850  42.8672170 115.3139250 144.0980110  42.0239290 116.4511650
 144.7286060  44.4323590 112.6689710 144.3214140  44.5738180 111.8143310
 145.6199070  44.1483750 112.4660920 149.0007720  48.6469370 110.7812380
 148.8250200  47.7304910 110.5680180 148.1463460  49.0056660 111.0210180
 143.5397950  43.7737570 118.7977990 143.7028990  43.3042930 117.9797360
 144.0050400  43.2661130 119.4626830 148.3116720  32.9043330 113.8338560
 147.8684870  33.6852870 113.5023080 148.8701710  33.2273220 114.5409500
 152.5986530  35.7711850 119.4373880 152.1365900  35.9794870 120.2493820
 152.1964640  34.9571200 119.1344550 151.4275540  32.5254030 108.7144390
 150.8029720  32.5213900 109.4397700 151.3405660  31.6584990 108.3180360
 150.3492620  33.4490660 115.6928160 150.6464950  34.3553490 115.6120180
 150.8978180  32.9609440 115.0787730 148.1030940  38.0276900 111.5619810
 147.8771860  37.8114070 112.4666430 147.3223470  38.4605360 111.2165780
 150.5430150  38.9262480 122.2280080 150.4473750  37.9857210 122.0780480
 151.3862130  39.1477550 121.8328150 145.6740690  35.3376150 120.3813860
 145.2804080  36.1851360 120.5886640 144.9859090  34.7002520 120.5722500
 152.2485740  35.4211120 123.4510600 151.5584060  35.2283320 124.0856690
 152.9918040  35.7045760 123.9834900 142.9757740  33.2604610 114.4143940
 142.6870790  33.8307470 115.1268920 143.7203500  32.7809060 114.7775170
 143.1627970  37.2024730 105.6246660 143.0802640  38.1455490 105.7661650
 142.8111030  37.0599640 104.7459010 150.9626100  35.9363760 114.6917010
 150.9662160  35.4953710 113.8421550 151.8577220  36.2581090 114.7988830
 146.8128480  35.8190250 113.6511220 146.4728530  36.2965480 114.4078270
 146.0505800  35.3655370 113.2912320 151.0246250  36.9375840 107.6823770
 151.1459070  36.8962320 108.6309590 150.6394760  37.7999990 107.5270500
 150.0367750  39.2476980 107.0807070 149.4684650  38.7995230 106.4542980
 150.7456750  39.6069760 106.5472220 145.1136930  43.1489000 120.9573800
 144.7291720  42.5082670 121.5556760 145.4249120  43.8525120 121.5268530
 151.2634070  39.9965540 116.4382420 151.6304200  39.5224110 117.1843760
 151.0739130  40.8707110 116.7790760 144.1274560  34.7409230 112.5675890
 143.8421480  34.3764900 113.4054510 144.0653420  34.0089690 111.9539030
 149.0533440  39.0374180 118.7566630 148.7490510  39.9166160 118.9816990
 150.0079900  39.0973970 118.7924070 147.5815230  43.2435170 109.3533480
 146.8077490  42.7032790 109.1932200 148.3109860  42.7241780 109.0151240
 147.6252630  42.9115550 112.9912290 148.1431300  42.1083810 112.9369180
 147.1736650  42.8494690 113.8329120 152.5122130  44.1781830 108.2639590
 152.8537830  44.9224060 107.7682910 151.6834840  44.4912950 108.6264420
 145.1097170  39.8776920 119.9037990 144.7512110  40.5430770 120.4911330
 144.8151730  39.0460470 120.2750610 148.3110290  40.3361160 122.7877540
 148.0110430  40.4818340 121.8905360 149.0821530  39.7766450 122.6950930
 151.4812820  44.2595360 111.0355510 152.1683950  44.8064570 111.4163100
 150.6945240  44.8036090 111.0705120 143.6205220  39.8768180 106.5272590
 144.4900070  40.1592980 106.8108510 143.1295540  40.6904050 106.4121400
 150.7840030  41.2641390 110.6480870 151.2402810  42.0746640 110.8741060
 150.4328240  40.9464530 111.4799360 146.6851810  31.6079040 111.1203390
 146.5566440  31.5996940 112.0688310 145.8613830  31.9462130 110.7694400
 143.9876470  49.0895560 107.0934220 144.3474110  49.6884900 106.4391490
 143.8468810  49.6355450 107.8669250 143.6845740  33.3670160 120.5810090
 142.9704260  33.5667080 121.1862700 144.1040780  32.5909730 120.9524890
 143.9718330  47.3550420 121.5676620 144.0809450  46.4145160 121.4272010
 143.3198890  47.6205170 120.9190350 151.9630920  45.6266310 122.9674740
 151.6427790  44.9075550 123.5120430 151.2889280  46.3021380 123.0410800
 150.0045090  46.4726760 107.9107890 149.9955190  47.2056450 107.2952400
 149.0843450  46.2258340 108.0034850 145.6051730  41.6941650 108.6554650
 144.9979680  42.4340550 108.6649950 146.0801080  41.7841010 107.8292850
 152.9904690  46.5355000 106.5733080 153.0916670  46.3318990 105.6435060
 152.0906430  46.2813280 106.7780860 150.5130580  37.0935360 110.5556980
 149.8046730  37.5621700 110.9970590 150.7975060  36.4357370 111.1902170
 152.1386510  38.5132060 118.5549510 152.6371760  38.9877880 119.2201360
 152.2809460  37.5895580 118.7619540 151.6322800  49.0541320 111.2680750
 151.8864300  49.0162710 110.3460120 150.6835280  48.9274650 111.2609000
 148.7165600  35.4020440 107.9307690 149.5656130  35.8390590 107.8647880
 148.3496870  35.7140700 108.7579750 147.6157020  41.6552800 106.4043220
 148.3820290  41.5434160 106.9668650 147.6931710  40.9590770 105.7519990
 146.3103780  39.0877870 107.0876110 146.3907370  38.1405380 107.1993510
 147.2023530  39.4184750 107.1936770 147.1118490  49.2373260 114.1910650
 147.8480970  48.6888720 114.4619220 147.4959410  50.1029270 114.0516640
 143.9963970  45.3046830 110.0652160 143.0703750  45.5467970 110.0557570
 144.4620400  46.1321090 109.9436910 146.1176770  48.4219330 123.3796230
 146.9189500  48.7431380 123.7931630 145.6028590  48.0614910 124.1016140
 150.2220800  48.4103570 106.0136220 151.0149410  48.6992400 105.5618010
 149.7025150  47.9795740 105.3348700 143.8374580  40.9092790 122.3232280
 144.3413600  40.3300070 122.8948510 143.0982000  41.1933020 122.8608650
 150.7398200  43.6306980 105.8778570 150.6348840  43.0159330 106.6039950
 150.5722420  43.1072870 105.0941580 150.8912520  42.3163780 121.8567800
 150.1258190  42.8848780 121.7722470 151.0728480  42.0239990 120.9636030
 145.8697660  39.0522380 123.2182350 145.9103000  38.7536250 124.1267580
 146.7243160  39.4529990 123.0589870 149.6476050  41.6517930 108.3785860
 150.0692470  41.4857800 109.2217250 149.7726890  40.8418160 107.8841000
 147.8103470  37.6314480 121.1856840 147.2799930  37.1405430 120.5580180
 148.4791540  38.0598680 120.6514770 152.1603690  40.6755540 105.6262960
 152.6809350  39.9604560 105.2604110 152.8072090  41.3141410 105.9263470
 148.2975770  34.5976850 121.2654130 148.2032640  33.9797600 120.5405000
 147.7173160  35.3243140 121.0384040 151.0637210  33.1550090 118.2981520
 150.6154510  33.1774350 117.4527070 150.4302410  32.7569110 118.8951820
 151.4696760  42.0504420 118.9193960 151.8884870  42.8937150 118.7470200
 150.5505390  42.1876460 118.6900740 148.5434950  37.7251160 105.3244020
 148.3424010  36.8618520 105.6857360 148.3727000  37.6384520 104.3865620
 149.3204180  48.3557430 120.0351690 148.7825270  49.0803490 119.7160390
 149.5738140  47.8787770 119.2449030 150.5729430  36.3241950 121.5607620
 151.1629120  36.0157800 122.2485440 149.7549670  35.8521700 121.7167520
 147.3417750  34.8251780 105.3121900 147.6443650  34.8319210 104.4041050
 148.0812340  34.4749640 105.8089560 152.1766390  49.5908640 120.2938340
 152.1025090  50.4943780 120.6010710 151.2745230  49.2720540 120.2660410
 150.5602680  33.7686400 106.2978100 150.2124680  33.0910390 105.7180550
 150.7615450  33.3075910 107.1121490 146.3647880  44.1294200 106.1451700
 146.8022750  44.6723870 106.8009280 146.8495610  43.3041150 106.1548040
 143.5793680  46.9183230 113.5971960 143.9096690  46.0504290 113.3650600
 144.0084680  47.1241750 114.4276920 148.1755600  45.2492240 111.2573930
 147.8751140  45.1257210 112.1577840 148.0693090  44.3900830 110.8489660
 144.0683890  47.7853820 116.3353590 143.6314880  47.9654620 117.1677740
 144.6361570  48.5428440 116.1935310 143.9008320  40.2974050 112.6942470
 143.2457160  40.0285690 112.0502170 144.7386270  40.1878530 112.2444450
 144.9384250  40.6826620 117.2345810 145.3057290  40.5954020 118.1141830
 144.3695070  39.9193170 117.1352670 144.4900250  37.5935710 121.1404230
 143.5956300  37.5602470 121.4797940 145.0297800  37.7922500 121.9055480
 143.1146400  37.5072980 108.6367800 142.2110480  37.7703180 108.4619460
 143.5987020  37.7784150 107.8567760 145.6573610  36.5638520 106.5462180
 146.3665310  36.1421740 106.0609460 144.9413550  36.6313750 105.9145530
 145.3047770  32.6177850 105.5864830 146.0275900  33.1586790 105.9046050
 145.5772290  32.3441270 104.7106370 144.9939960  31.8684040 115.4887450
 145.6416150  31.3181420 115.0482610 145.4141800  32.1227190 116.3103260
 144.7471960  32.0239710 118.2312770 144.3986780  32.4803530 118.9970950
 144.4159660  31.1296840 118.3135200 146.3536330  45.1959310 122.3965960
 146.3105960  44.8252220 123.2780420 146.4847340  46.1336880 122.5367780
 150.0542360  46.7518900 117.9975680 149.8133720  47.0193460 117.1106200
 150.9945000  46.9224630 118.0526540 145.4192600  31.5515910 121.5063540
 145.9675590  31.3703960 120.7429650 145.4847910  30.7610020 122.0419850
 146.1924360  48.1421560 119.5163740 145.5984680  48.0106260 120.2553780
 146.1848200  47.3059700 119.0505840 145.8236590  45.5079940 118.4671780
 145.0970650  44.8885230 118.3997730 145.8845740  45.9020550 117.5969860
 149.4281690  47.7224940 115.2521190 149.9446710  47.1112300 114.7269450
 150.0779070  48.2253720 115.7432200 152.1677190  48.6133430 116.0790170
 152.4555000  48.3587730 115.2023180 152.6800410  48.0610790 116.6695740
 144.1066590  48.8254330 111.6768540 143.9388630  48.1925010 112.3750430
 143.2401100  49.0313730 111.3262730 144.7294610  32.6571110 109.1800400
 145.4873970  32.7699990 108.6064430 144.2671780  33.4940310 109.1343830
 151.2708420  34.7710380 112.1702710 150.4582930  34.3967270 111.8298590
 151.7750060  34.0155460 112.4723900 145.7129290  47.5187560 109.1218680
 145.1876910  47.8995590 108.4180640 145.6373870  48.1438330 109.8428390
 147.1019760  33.1835160 107.7202370 147.6312520  32.3964960 107.5910320
 147.7348080  33.8626350 107.9537900 149.2957600  32.9210300 110.7747760
 148.6660340  32.2197610 110.9417890 148.7562740  33.6814430 110.5580920
 149.4213160  32.1994280 123.2100250 149.1397430  32.7027880 122.4461070
 149.8032860  31.4016030 122.8442380 148.3122260  49.4669940 107.9967930
 149.0441080  49.1829220 107.4491820 148.5715930  49.2283220 108.8867310
 147.4737050  45.5834670 108.0014260 146.8445930  46.0519770 108.5500090
 147.5884880  44.7383890 108.4360450 147.0770640  41.7239160  96.9100490
 146.2455520  41.4687870  97.3097000 147.6851620  41.7949930  97.6458410
 147.0571900  45.7579250  97.1058510 147.3599940  44.8676990  96.9268730
 147.8015490  46.3149470  96.8780760 145.4862590  36.6841050  90.6942880
 144.5979290  37.0257020  90.5922760 145.7703780  36.4841370  89.8023710
 143.4495600  39.2846700  96.5782580 144.0211710  38.5168900  96.5786220
 143.4497140  39.5835460  95.6689190 144.6920470  34.6931060  98.3651510
 144.5123310  33.7956810  98.6454270 144.2900550  35.2402930  99.0398460
 147.6623980  35.2672550  91.7281260 147.7690730  36.1676280  92.0350020
 146.7516340  35.2190520  91.4375910 145.3107140  37.1891560  96.9733850
 145.9917250  37.4529930  97.5921250 144.9955190  36.3492430  97.3071860
 149.5031710  38.2358920  96.0606440 150.0109930  38.7339890  96.7011460
 150.0344950  37.4594120  95.8845800 147.7867810  32.8757480 100.3269860
 147.7886250  33.3929870  99.5215760 146.9572120  32.3987660 100.3039790
 149.0370660  42.5152660  98.5043360 148.7040040  43.1421580  99.1464430
 149.2137340  43.0414540  97.7245030 147.4683140  34.5867440  98.3340310
 147.8099950  35.4309490  98.0394180 146.5298950  34.7351180  98.4505650
 148.2489760  44.4833460 100.3192540 148.8663760  45.1584540 100.0376990
 147.3882880  44.8921440 100.2280040 143.5422100  43.6733320  89.1999390
 143.1650080  44.1620420  88.4684290 143.7995170  44.3458600  89.8305920
 151.1511030  32.0749710  94.6584900 151.4586010  31.5196600  93.9420400
 150.2211730  32.2094170  94.4757890 149.1448430  40.6663280  94.1764750
 148.7405430  39.9540530  93.6810650 149.2311550  40.3216520  95.0652790
 149.6130130  44.3530840  96.3403960 149.3158420  43.7476310  95.6611740
 150.5629950  44.3908150  96.2293320 147.8577050  37.4406490  97.9563790
 148.4091640  37.5501830  97.1817040 148.3720560  37.8144090  98.6719020
 148.7048560  44.0912530 102.9911760 147.8077090  44.3152500 103.2385160
 148.7301430  44.2147470 102.0423160 147.5319780  40.9625850 101.5669130
 147.3927550  41.8348650 101.9356530 146.6501140  40.6198660 101.4217070
 149.3300130  46.9047550 103.7754280 149.3015560  47.3090500 102.9082710
 149.1665100  45.9757910 103.6125880 145.8453060  39.5608260  91.6771400
 145.7250660  40.2870350  91.0652670 145.5353950  38.7911170  91.1999310
 143.4838430  42.7323400  97.4840040 143.5618850  42.8672170  96.5395760
 144.0980110  42.0239290  97.6768160 144.7286060  44.4323590  93.8946220
 144.3214140  44.5738180  93.0399820 145.6199070  44.1483750  93.6917430
 149.0007720  48.6469370  92.0068890 148.8250200  47.7304910  91.7936690
 148.1463460  49.0056660  92.2466690 143.5397950  43.7737570 100.0234500
 143.7028990  43.3042930  99.2053870 144.0050400  43.2661130 100.6883340
 148.3116720  32.9043330  95.0595070 147.8684870  33.6852870  94.7279590
 148.8701710  33.2273220  95.7666010 152.5986530  35.7711850 100.6630390
 152.1365900  35.9794870 101.4750330 152.1964640  34.9571200 100.3601060
 151.4275540  32.5254030  89.9400900 150.8029720  32.5213900  90.6654210
 151.3405660  31.6584990  89.5436870 150.3492620  33.4490660  96.9184670
 150.6464950  34.3553490  96.8376690 150.8978180  32.9609440  96.3044240
 148.1030940  38.0276900  92.7876320 147.8771860  37.8114070  93.6922940
 147.3223470  38.4605360  92.4422290 150.5430150  38.9262480 103.4536590
 150.4473750  37.9857210 103.3036990 151.3862130  39.1477550 103.0584660
 145.6740690  35.3376150 101.6070370 145.2804080  36.1851360 101.8143150
 144.9859090  34.7002520 101.7979010 152.2485740  35.4211120 104.6767110
 151.5584060  35.2283320 105.3113200 152.9918040  35.7045760 105.2091410
 142.9757740  33.2604610  95.6400450 142.6870790  33.8307470  96.3525430
 143.7203500  32.7809060  96.0031680 143.1627970  37.2024730  86.8503170
 143.0802640  38.1455490  86.9918160 142.8111030  37.0599640  85.9715520
 150.9626100  35.9363760  95.9173520 150.9662160  35.4953710  95.0678060
 151.8577220  36.2581090  96.0245340 146.8128480  35.8190250  94.8767730
 146.4728530  36.2965480  95.6334780 146.0505800  35.3655370  94.5168830
 151.0246250  36.9375840  88.9080280 151.1459070  36.8962320  89.8566100
 150.6394760  37.7999990  88.7527010 150.0367750  39.2476980  88.3063580
 149.4684650  38.7995230  87.6799490 150.7456750  39.6069760  87.7728730
 145.1136930  43.1489000 102.1830310 144.7291720  42.5082670 102.7813270
 145.4249120  43.8525120 102.7525040 151.2634070  39.9965540  97.6638930
 151.6304200  39.5224110  98.4100270 151.0739130  40.8707110  98.0047270
 144.1274560  34.7409230  93.7932400 143.8421480  34.3764900  94.6311020
 144.0653420  34.0089690  93.1795540 149.0533440  39.0374180  99.9823140
 148.7490510  39.9166160 100.2073500 150.0079900  39.0973970 100.0180580
 147.5815230  43.2435170  90.5789990 146.8077490  42.7032790  90.4188710
 148.3109860  42.7241780  90.2407750 147.6252630  42.9115550  94.2168800
 148.1431300  42.1083810  94.1625690 147.1736650  42.8494690  95.0585630
 152.5122130  44.1781830  89.4896100 152.8537830  44.9224060  88.9939420
 151.6834840  44.4912950  89.8520930 145.1097170  39.8776920 101.1294500
 144.7512110  40.5430770 101.7167840 144.8151730  39.0460470 101.5007120
 148.3110290  40.3361160 104.0134050 148.0110430  40.4818340 103.1161870
 149.0821530  39.7766450 103.9207440 151.4812820  44.2595360  92.2612020
 152.1683950  44.8064570  92.6419610 150.6945240  44.8036090  92.2961630
 143.6205220  39.8768180  87.7529100 144.4900070  40.1592980  88.0365020
 143.1295540  40.6904050  87.6377910 150.7840030  41.2641390  91.8737380
 151.2402810  42.0746640  92.0997570 150.4328240  40.9464530  92.7055870
 146.6851810  31.6079040  92.3459900 146.5566440  31.5996940  93.2944820
 145.8613830  31.9462130  91.9950910 143.9876470  49.0895560  88.3190730
 144.3474110  49.6884900  87.6648000 143.8468810  49.6355450  89.0925760
 143.6845740  33.3670160 101.8066600 142.9704260  33.5667080 102.4119210
 144.1040780  32.5909730 102.1781400 143.9718330  47.3550420 102.7933130
 144.0809450  46.4145160 102.6528520 143.3198890  47.6205170 102.1446860
 151.9630920  45.6266310 104.1931250 151.6427790  44.9075550 104.7376940
 151.2889280  46.3021380 104.2667310 150.0045090  46.4726760  89.1364400
 149.9955190  47.2056450  88.5208910 149.0843450  46.2258340  89.2291360
 145.6051730  41.6941650  89.8811160 144.9979680  42.4340550  89.8906460
 146.0801080  41.7841010  89.0549360 152.9904690  46.5355000  87.7989590
 153.0916670  46.3318990  86.8691570 152.0906430  46.2813280  88.0037370
 150.5130580  37.0935360  91.7813490 149.8046730  37.5621700  92.2227100
 150.7975060  36.4357370  92.4158680 152.1386510  38.5132060  99.7806020
 152.6371760  38.9877880 100.4457870 152.2809460  37.5895580  99.9876050
 151.6322800  49.0541320  92.4937260 151.8864300  49.0162710  91.5716630
 150.6835280  48.9274650  92.4865510 148.7165600  35.4020440  89.1564200
 149.5656130  35.8390590  89.0904390 148.3496870  35.7140700  89.9836260
 147.6157020  41.6552800  87.6299730 148.3820290  41.5434160  88.1925160
 147.6931710  40.9590770  86.9776500 146.3103780  39.0877870  88.3132620
 146.3907370  38.1405380  88.4250020 147.2023530  39.4184750  88.4193280
 147.1118490  49.2373260  95.4167160 147.8480970  48.6888720  95.6875730
 147.4959410  50.1029270  95.2773150 143.9963970  45.3046830  91.2908670
 143.0703750  45.5467970  91.2814080 144.4620400  46.1321090  91.1693420
 146.1176770  48.4219330 104.6052740 146.9189500  48.7431380 105.0188140
 145.6028590  48.0614910 105.3272650 150.2220800  48.4103570  87.2392730
 151.0149410  48.6992400  86.7874520 149.7025150  47.9795740  86.5605210
 143.8374580  40.9092790 103.5488790 144.3413600  40.3300070 104.1205020
 143.0982000  41.1933020 104.0865160 150.7398200  43.6306980  87.1035080
 150.6348840  43.0159330  87.8296460 150.5722420  43.1072870  86.3198090
 150.8912520  42.3163780 103.0824310 150.1258190  42.8848780 102.9978980
 151.0728480  42.0239990 102.1892540 145.8697660  39.0522380 104.4438860
 145.9103000  38.7536250 105.3524090 146.7243160  39.4529990 104.2846380
 149.6476050  41.6517930  89.6042370 150.0692470  41.4857800  90.4473760
 149.7726890  40.8418160  89.1097510 147.8103470  37.6314480 102.4113350
 147.2799930  37.1405430 101.7836690 148.4791540  38.0598680 101.8771280
 152.1603690  40.6755540  86.8519470 152.6809350  39.9604560  86.4860620
 152.8072090  41.3141410  87.1519980 148.2975770  34.5976850 102.4910640
 148.2032640  33.9797600 101.7661510 147.7173160  35.3243140 102.2640550
 151.0637210  33.1550090  99.5238030 150.6154510  33.1774350  98.6783580
 150.4302410  32.7569110 100.1208330 151.4696760  42.0504420 100.1450470
 151.8884870  42.8937150  99.9726710 150.5505390  42.1876460  99.9157250
 148.5434950  37.7251160  86.5500530 148.3424010  36.8618520  86.9113870
 148.3727000  37.6384520  85.6122130 149.3204180  48.3557430 101.2608200
 148.7825270  49.0803490 100.9416900 149.5738140  47.8787770 100.4705540
 150.5729430  36.3241950 102.7864130 151.1629120  36.0157800 103.4741950
 149.7549670  35.8521700 102.9424030 147.3417750  34.8251780  86.5378410
 147.6443650  34.8319210  85.6297560 148.0812340  34.4749640  87.0346070
 152.1766390  49.5908640 101.5194850 152.1025090  50.4943780 101.8267220
 151.2745230  49.2720540 101.4916920 150.5602680  33.7686400  87.5234610
 150.2124680  33.0910390  86.9437060 150.7615450  33.3075910  88.3378000
 146.3647880  44.1294200  87.3708210 146.8022750  44.6723870  88.0265790
 146.8495610  43.3041150  87.3804550 143.5793680  46.9183230  94.8228470
 143.9096690  46.0504290  94.5907110 144.0084680  47.1241750  95.6533430
 148.1755600  45.2492240  92.4830440 147.8751140  45.1257210  93.3834350
 148.0693090  44.3900830  92.0746170 144.0683890  47.7853820  97.5610100
 143.6314880  47.9654620  98.3934250 144.6361570  48.5428440  97.4191820
 143.9008320  40.2974050  93.9198980 143.2457160  40.0285690  93.2758680
 144.7386270  40.1878530  93.4700960 144.9384250  40.6826620  98.4602320
 145.3057290  40.5954020  99.3398340 144.3695070  39.9193170  98.3609180
 144.4900250  37.5935710 102.3660740 143.5956300  37.5602470 102.7054450
 145.0297800  37.7922500 103.1311990 143.1146400  37.5072980  89.8624310
 142.2110480  37.7703180  89.6875970 143.5987020  37.7784150  89.0824270
 145.6573610  36.5638520  87.7718690 146.3665310  36.1421740  87.2865970
 144.9413550  36.6313750  87.1402040 145.3047770  32.6177850  86.8121340
 146.0275900  33.1586790  87.1302560 145.5772290  32.3441270  85.9362880
 144.9939960  31.8684040  96.7143960 145.6416150  31.3181420  96.2739120
 145.4141800  32.1227190  97.5359770 144.7471960  32.0239710  99.4569280
 144.3986780  32.4803530 100.2227460 144.4159660  31.1296840  99.5391710
 146.3536330  45.1959310 103.6222470 146.3105960  44.8252220 104.5036930
 146.4847340  46.1336880 103.7624290 150.0542360  46.7518900  99.2232190
 149.8133720  47.0193460  98.3362710 150.9945000  46.9224630  99.2783050
 145.4192600  31.5515910 102.7320050 145.9675590  31.3703960 101.9686160
 145.4847910  30.7610020 103.2676360 146.1924360  48.1421560 100.7420250
 145.5984680  48.0106260 101.4810290 146.1848200  47.3059700 100.2762350
 145.8236590  45.5079940  99.6928290 145.0970650  44.8885230  99.6254240
 145.8845740  45.9020550  98.8226370 149.4281690  47.7224940  96.4777700
 149.9446710  47.1112300  95.9525960 150.0779070  48.2253720  96.9688710
 152.1677190  48.6133430  97.3046680 152.4555000  48.3587730  96.4279690
 152.6800410  48.0610790  97.8952250 144.1066590  48.8254330  92.9025050
 143.9388630  48.1925010  93.6006940 143.2401100  49.0313730  92.5519240
 144.7294610  32.6571110  90.4056910 145.4873970  32.7699990  89.8320940
 144.2671780  33.4940310  90.3600340 151.2708420  34.7710380  93.3959220
 150.4582930  34.3967270  93.0555100 151.7750060  34.0155460  93.6980410
 145.7129290  47.5187560  90.3475190 145.1876910  47.8995590  89.6437150
 145.6373870  48.1438330  91.0684900 147.1019760  33.1835160  88.9458880
 147.6312520  32.3964960  88.8166830 147.7348080  33.8626350  89.1794410
 149.2957600  32.9210300  92.0004270 148.6660340  32.2197610  92.1674400
 148.7562740  33.6814430  91.7837430 149.4213160  32.1994280 104.4356760
 149.1397430  32.7027880 103.6717580 149.8032860  31.4016030 104.0698890
 148.3122260  49.4669940  89.2224440 149.0441080  49.1829220  88.6748330
 148.5715930  49.2283220  90.1123820 147.4737050  45.5834670  89.2270770
 146.8445930  46.0519770  89.7756600 147.5884880  44.7383890  89.6616960
 147.0770640  41.7239160  78.1357000 146.2455520  41.4687870  78.5353510
 147.6851620  41.7949930  78.8714920 147.0571900  45.7579250  78.3315020
 147.3599940  44.8676990  78.1525240 147.8015490  46.3149470  78.1037270
 145.4862590  36.6841050  71.9199390 144.5979290  37.0257020  71.8179270
 145.7703780  36.4841370  71.0280220 143.4495600  39.2846700  77.8039090
 144.0211710  38.5168900  77.8042730 143.4497140  39.5835460  76.8945700
 144.6920470  34.6931060  79.5908020 144.5123310  33.7956810  79.8710780
 144.2900550  35.2402930  80.2654970 147.6623980  35.2672550  72.9537770
 147.7690730  36.1676280  73.2606530 146.7516340  35.2190520  72.6632420
 145.3107140  37.1891560  78.1990360 145.9917250  37.4529930  78.8177760
 144.9955190  36.3492430  78.5328370 149.5031710  38.2358920  77.2862950
 150.0109930  38.7339890  77.9267970 150.0344950  37.4594120  77.1102310
 147.7867810  32.8757480  81.5526370 147.7886250  33.3929870  80.7472270
 146.9572120  32.3987660  81.5296300 149.0370660  42.5152660  79.7299870
 148.7040040  43.1421580  80.3720940 149.2137340  43.0414540  78.9501540
 147.4683140  34.5867440  79.5596820 147.8099950  35.4309490  79.2650690
 146.5298950  34.7351180  79.6762160 148.2489760  44.4833460  81.5449050
 148.8663760  45.1584540  81.2633500 147.3882880  44.8921440  81.4536550
 143.5422100  43.6733320  70.4255900 143.1650080  44.1620420  69.6940800
 143.7995170  44.3458600  71.0562430 151.1511030  32.0749710  75.8841410
 151.4586010  31.5196600  75.1676910 150.2211730  32.2094170  75.7014400
 149.1448430  40.6663280  75.4021260 148.7405430  39.9540530  74.9067160
 149.2311550  40.3216520  76.2909300 149.6130130  44.3530840  77.5660470
 149.3158420  43.7476310  76.8868250 150.5629950  44.3908150  77.4549830
 147.8577050  37.4406490  79.1820300 148.4091640  37.5501830  78.4073550
 148.3720560  37.8144090  79.8975530 148.7048560  44.0912530  84.2168270
 147.8077090  44.3152500  84.4641670 148.7301430  44.2147470  83.2679670
 147.5319780  40.9625850  82.7925640 147.3927550  41.8348650  83.1613040
 146.6501140  40.6198660  82.6473580 149.3300130  46.9047550  85.0010790
 149.3015560  47.3090500  84.1339220 149.1665100  45.9757910  84.8382390
 145.8453060  39.5608260  72.9027910 145.7250660  40.2870350  72.2909180
 145.5353950  38.7911170  72.4255820 143.4838430  42.7323400  78.7096550
 143.5618850  42.8672170  77.7652270 144.0980110  42.0239290  78.9024670
 144.7286060  44.4323590  75.1202730 144.3214140  44.5738180  74.2656330
 145.6199070  44.1483750  74.9173940 149.0007720  48.6469370  73.2325400
 148.8250200  47.7304910  73.0193200 148.1463460  49.0056660  73.4723200
 143.5397950  43.7737570  81.2491010 143.7028990  43.3042930  80.4310380
 144.0050400  43.2661130  81.9139850 148.3116720  32.9043330  76.2851580
 147.8684870  33.6852870  75.9536100 148.8701710  33.2273220  76.9922520
 152.5986530  35.7711850  81.8886900 152.1365900  35.9794870  82.7006840
 152.1964640  34.9571200  81.5857570 151.4275540  32.5254030  71.1657410
 150.8029720  32.5213900  71.8910720 151.3405660  31.6584990  70.7693380
 150.3492620  33.4490660  78.1441180 150.6464950  34.3553490  78.0633200
 150.8978180  32.9609440  77.5300750 148.1030940  38.0276900  74.0132830
 147.8771860  37.8114070  74.9179450 147.3223470  38.4605360  73.6678800
 150.5430150  38.9262480  84.6793100 150.4473750  37.9857210  84.5293500
 151.3862130  39.1477550  84.2841170 145.6740690  35.3376150  82.8326880
 145.2804080  36.1851360  83.0399660 144.9859090  34.7002520  83.0235520
 152.2485740  35.4211120  85.9023620 151.5584060  35.2283320  86.5369710
 152.9918040  35.7045760  86.4347920 142.9757740  33.2604610  76.8656960
 142.6870790  33.8307470  77.5781940 143.7203500  32.7809060  77.2288190
 143.1627970  37.2024730  68.0759680 143.0802640  38.1455490  68.2174670
 142.8111030  37.0599640  67.1972030 150.9626100  35.9363760  77.1430030
 150.9662160  35.4953710  76.2934570 151.8577220  36.2581090  77.2501850
 146.8128480  35.8190250  76.1024240 146.4728530  36.2965480  76.8591290
 146.0505800  35.3655370  75.7425340 151.0246250  36.9375840  70.1336790
 151.1459070  36.8962320  71.0822610 150.6394760  37.7999990  69.9783520
 150.0367750  39.2476980  69.5320090 149.4684650  38.7995230  68.9056000
 150.7456750  39.6069760  68.9985240 145.1136930  43.1489000  83.4086820
 144.7291720  42.5082670  84.0069780 145.4249120  43.8525120  83.9781550
 151.2634070  39.9965540  78.8895440 151.6304200  39.5224110  79.6356780
 151.0739130  40.8707110  79.2303780 144.1274560  34.7409230  75.0188910
 143.8421480  34.3764900  75.8567530 144.0653420  34.0089690  74.4052050
 149.0533440  39.0374180  81.2079650 148.7490510  39.9166160  81.4330010
 150.0079900  39.0973970  81.2437090 147.5815230  43.2435170  71.8046500
 146.8077490  42.7032790  71.6445220 148.3109860  42.7241780  71.4664260
 147.6252630  42.9115550  75.4425310 148.1431300  42.1083810  75.3882200
 147.1736650  42.8494690  76.2842140 152.5122130  44.1781830  70.7152610
 152.8537830  44.9224060  70.2195930 151.6834840  44.4912950  71.0777440
 145.1097170  39.8776920  82.3551010 144.7512110  40.5430770  82.9424350
 144.8151730  39.0460470  82.7263630 148.3110290  40.3361160  85.2390560
 148.0110430  40.4818340  84.3418380 149.0821530  39.7766450  85.1463950
 151.4812820  44.2595360  73.4868530 152.1683950  44.8064570  73.8676120
 150.6945240  44.8036090  73.5218140 143.6205220  39.8768180  68.9785610
 144.4900070  40.1592980  69.2621530 143.1295540  40.6904050  68.8634420
 150.7840030  41.2641390  73.0993890 151.2402810  42.0746640  73.3254080
 150.4328240  40.9464530  73.9312380 146.6851810  31.6079040  73.5716410
 146.5566440  31.5996940  74.5201330 145.8613830  31.9462130  73.2207420
 143.9876470  49.0895560  69.5447240 144.3474110  49.6884900  68.8904510
 143.8468810  49.6355450  70.3182270 143.6845740  33.3670160  83.0323110
 142.9704260  33.5667080  83.6375720 144.1040780  32.5909730  83.4037910
 143.9718330  47.3550420  84.0189640 144.0809450  46.4145160  83.8785030
 143.3198890  47.6205170  83.3703370 151.9630920  45.6266310  85.4187760
 151.6427790  44.9075550  85.9633450 151.2889280  46.3021380  85.4923820
 150.0045090  46.4726760  70.3620910 149.9955190  47.2056450  69.7465420
 149.0843450  46.2258340  70.4547870 145.6051730  41.6941650  71.1067670
 144.9979680  42.4340550  71.1162970 146.0801080  41.7841010  70.2805870
 152.9904690  46.5355000  69.0246100 153.0916670  46.3318990  68.0948080
 152.0906430  46.2813280  69.2293880 150.5130580  37.0935360  73.0070000
 149.8046730  37.5621700  73.4483610 150.7975060  36.4357370  73.6415190
 152.1386510  38.5132060  81.0062530 152.6371760  38.9877880  81.6714380
 152.2809460  37.5895580  81.2132560 151.6322800  49.0541320  73.7193770
 151.8864300  49.0162710  72.7973140 150.6835280  48.9274650  73.7122020
 148.7165600  35.4020440  70.3820710 149.5656130  35.8390590  70.3160900
 148.3496870  35.7140700  71.2092770 147.6157020  41.6552800  68.8556240
 148.3820290  41.5434160  69.4181670 147.6931710  40.9590770  68.2033010
 146.3103780  39.0877870  69.5389130 146.3907370  38.1405380  69.6506530
 147.2023530  39.4184750  69.6449790 147.1118490  49.2373260  76.6423670
 147.8480970  48.6888720  76.9132240 147.4959410  50.1029270  76.5029660
 143.9963970  45.3046830  72.5165180 143.0703750  45.5467970  72.5070590
 144.4620400  46.1321090  72.3949930 146.1176770  48.4219330  85.8309250
 146.9189500  48.7431380  86.2444650 145.6028590  48.0614910  86.5529160
 150.2220800  48.4103570  68.4649240 151.0149410  48.6992400  68.0131030
 149.7025150  47.9795740  67.7861720 143.8374580  40.9092790  84.7745300
 144.3413600  40.3300070  85.3461530 143.0982000  41.1933020  85.3121670
 150.7398200  43.6306980  68.3291590 150.6348840  43.0159330  69.0552970
 150.5722420  43.1072870  67.5454600 150.8912520  42.3163780  84.3080820
 150.1258190  42.8848780  84.2235490 151.0728480  42.0239990  83.4149050
 145.8697660  39.0522380  85.6695370 145.9103000  38.7536250  86.5780600
 146.7243160  39.4529990  85.5102890 149.6476050  41.6517930  70.8298880
 150.0692470  41.4857800  71.6730270 149.7726890  40.8418160  70.3354020
 147.8103470  37.6314480  83.6369860 147.2799930  37.1405430  83.0093200
 148.4791540  38.0598680  83.1027790 152.1603690  40.6755540  68.0775980
 152.6809350  39.9604560  67.7117130 152.8072090  41.3141410  68.3776490
 148.2975770  34.5976850  83.7167150 148.2032640  33.9797600  82.9918020
 147.7173160  35.3243140  83.4897060 151.0637210  33.1550090  80.7494540
 150.6154510  33.1774350  79.9040090 150.4302410  32.7569110  81.3464840
 151.4696760  42.0504420  81.3706980 151.8884870  42.8937150  81.1983220
 150.5505390  42.1876460  81.1413760 148.5434950  37.7251160  67.7757040
 148.3424010  36.8618520  68.1370380 148.3727000  37.6384520  66.8378640
 149.3204180  48.3557430  82.4864710 148.7825270  49.0803490  82.1673410
 149.5738140  47.8787770  81.6962050 150.5729430  36.3241950  84.0120640
 151.1629120  36.0157800  84.6998460 149.7549670  35.8521700  84.1680540
 147.3417750  34.8251780  67.7634920 147.6443650  34.8319210  66.8554070
 148.0812340  34.4749640  68.2602580 152.1766390  49.5908640  82.7451360
 152.1025090  50.4943780  83.0523730 151.2745230  49.2720540  82.7173430
 150.5602680  33.7686400  68.7491120 150.2124680  33.0910390  68.1693570
 150.7615450  33.3075910  69.5634510 146.3647880  44.1294200  68.5964720
 146.8022750  44.6723870  69.2522300 146.8495610  43.3041150  68.6061060
 143.5793680  46.9183230  76.0484980 143.9096690  46.0504290  75.8163620
 144.0084680  47.1241750  76.8789940 148.1755600  45.2492240  73.7086950
 147.8751140  45.1257210  74.6090860 148.0693090  44.3900830  73.3002680
 144.0683890  47.7853820  78.7866610 143.6314880  47.9654620  79.6190760
 144.6361570  48.5428440  78.6448330 143.9008320  40.2974050  75.1455490
 143.2457160  40.0285690  74.5015190 144.7386270  40.1878530  74.6957470
 144.9384250  40.6826620  79.6858830 145.3057290  40.5954020  80.5654850
 144.3695070  39.9193170  79.5865690 144.4900250  37.5935710  83.5917250
 143.5956300  37.5602470  83.9310960 145.0297800  37.7922500  84.3568500
 143.1146400  37.5072980  71.0880820 142.2110480  37.7703180  70.9132480
 143.5987020  37.7784150  70.3080780 145.6573610  36.5638520  68.9975200
 146.3665310  36.1421740  68.5122480 144.9413550  36.6313750  68.3658550
 145.3047770  32.6177850  68.0377850 146.0275900  33.1586790  68.3559070
 145.5772290  32.3441270  67.1619390 144.9939960  31.8684040  77.9400470
 145.6416150  31.3181420  77.4995630 145.4141800  32.1227190  78.7616280
 144.7471960  32.0239710  80.6825790 144.3986780  32.4803530  81.4483970
 144.4159660  31.1296840  80.7648220 146.3536330  45.1959310  84.8478980
 146.3105960  44.8252220  85.7293440 146.4847340  46.1336880  84.9880800
 150.0542360  46.7518900  80.4488700 149.8133720  47.0193460  79.5619220
 150.9945000  46.9224630  80.5039560 145.4192600  31.5515910  83.9576560
 145.9675590  31.3703960  83.1942670 145.4847910  30.7610020  84.4932870
 146.1924360  48.1421560  81.9676760 145.5984680  48.0106260  82.7066800
 146.1848200  47.3059700  81.5018860 145.8236590  45.5079940  80.9184800
 145.0970650  44.8885230  80.8510750 145.8845740  45.9020550  80.0482880
 149.4281690  47.7224940  77.7034210 149.9446710  47.1112300  77.1782470
 150.0779070  48.2253720  78.1945220 152.1677190  48.6133430  78.5303190
 152.4555000  48.3587730  77.6536200 152.6800410  48.0610790  79.1208760
 144.1066590  48.8254330  74.1281560 143.9388630  48.1925010  74.8263450
 143.2401100  49.0313730  73.7775750 144.7294610  32.6571110  71.6313420
 145.4873970  32.7699990  71.0577450 144.2671780  33.4940310  71.5856850
 151.2708420  34.7710380  74.6215730 150.4582930  34.3967270  74.2811610
 151.7750060  34.0155460  74.9236920 145.7129290  47.5187560  71.5731700
 145.1876910  47.8995590  70.8693660 145.6373870  48.1438330  72.2941410
 147.1019760  33.1835160  70.1715390 147.6312520  32.3964960  70.0423340
 147.7348080  33.8626350  70.4050920 149.2957600  32.9210300  73.2260780
 148.6660340  32.2197610  73.3930910 148.7562740  33.6814430  73.0093940
 149.4213160  32.1994280  85.6613270 149.1397430  32.7027880  84.8974090
 149.8032860  31.4016030  85.2955400 148.3122260  49.4669940  70.4480950
 149.0441080  49.1829220  69.9004840 148.5715930  49.2283220  71.3380330
 147.4737050  45.5834670  70.4527280 146.8445930  46.0519770  71.0013110
 147.5884880  44.7383890  70.8873470 147.0770640  41.7239160  59.3613510
 146.2455520  41.4687870  59.7610020 147.6851620  41.7949930  60.0971430
 147.0571900  45.7579250  59.5571530 147.3599940  44.8676990  59.3781750
 147.8015490  46.3149470  59.3293780 145.4862590  36.6841050  53.1455900
 144.5979290  37.0257020  53.0435780 145.7703780  36.4841370  52.2536730
 143.4495600  39.2846700  59.0295600 144.0211710  38.5168900  59.0299240
 143.4497140  39.5835460  58.1202210 144.6920470  34.6931060  60.8164530
 144.5123310  33.7956810  61.0967290 144.2900550  35.2402930  61.4911480
 147.6623980  35.2672550  54.1794280 147.7690730  36.1676280  54.4863040
 146.7516340  35.2190520  53.8888930 145.3107140  37.1891560  59.4246870
 145.9917250  37.4529930  60.0434270 144.9955190  36.3492430  59.7584880
 149.5031710  38.2358920  58.5119460 150.0109930  38.7339890  59.1524480
 150.0344950  37.4594120  58.3358820 147.7867810  32.8757480  62.7782880
 147.7886250  33.3929870  61.9728780 146.9572120  32.3987660  62.7552810
 149.0370660  42.5152660  60.9556380 148.7040040  43.1421580  61.5977450
 149.2137340  43.0414540  60.1758050 147.4683140  34.5867440  60.7853330
 147.8099950  35.4309490  60.4907200 146.5298950  34.7351180  60.9018670
 148.2489760  44.4833460  62.7705560 148.8663760  45.1584540  62.4890010
 147.3882880  44.8921440  62.6793060 143.5422100  43.6733320  51.6512410
 143.1650080  44.1620420  50.9197310 143.7995170  44.3458600  52.2818940
 151.1511030  32.0749710  57.1097920 151.4586010  31.5196600  56.3933420
 150.2211730  32.2094170  56.9270910 149.1448430  40.6663280  56.6277770
 148.7405430  39.9540530  56.1323670 149.2311550  40.3216520  57.5165810
 149.6130130  44.3530840  58.7916980 149.3158420  43.7476310  58.1124760
 150.5629950  44.3908150  58.6806340 147.8577050  37.4406490  60.4076810
 148.4091640  37.5501830  59.6330060 148.3720560  37.8144090  61.1232040
 148.7048560  44.0912530  65.4424780 147.8077090  44.3152500  65.6898180
 148.7301430  44.2147470  64.4936180 147.5319780  40.9625850  64.0182150
 147.3927550  41.8348650  64.3869550 146.6501140  40.6198660  63.8730090
 149.3300130  46.9047550  66.2267300 149.3015560  47.3090500  65.3595730
 149.1665100  45.9757910  66.0638900 145.8453060  39.5608260  54.1284420
 145.7250660  40.2870350  53.5165690 145.5353950  38.7911170  53.6512330
 143.4838430  42.7323400  59.9353060 143.5618850  42.8672170  58.9908780
 144.0980110  42.0239290  60.1281180 144.7286060  44.4323590  56.3459240
 144.3214140  44.5738180  55.4912840 145.6199070  44.1483750  56.1430450
 149.0007720  48.6469370  54.4581910 148.8250200  47.7304910  54.2449710
 148.1463460  49.0056660  54.6979710 143.5397950  43.7737570  62.4747520
 143.7028990  43.3042930  61.6566890 144.0050400  43.2661130  63.1396360
 148.3116720  32.9043330  57.5108090 147.8684870  33.6852870  57.1792610
 148.8701710  33.2273220  58.2179030 152.5986530  35.7711850  63.1143410
 152.1365900  35.9794870  63.9263350 152.1964640  34.9571200  62.8114080
 151.4275540  32.5254030  52.3913920 150.8029720  32.5213900  53.1167230
 151.3405660  31.6584990  51.9949890 150.3492620  33.4490660  59.3697690
 150.6464950  34.3553490  59.2889710 150.8978180  32.9609440  58.7557260
 148.1030940  38.0276900  55.2389340 147.8771860  37.8114070  56.1435960
 147.3223470  38.4605360  54.8935310 150.5430150  38.9262480  65.9049610
 150.4473750  37.9857210  65.7550010 151.3862130  39.1477550  65.5097680
 145.6740690  35.3376150  64.0583390 145.2804080  36.1851360  64.2656170
 144.9859090  34.7002520  64.2492030 152.2485740  35.4211120  67.1280130
 151.5584060  35.2283320  67.7626220 152.9918040  35.7045760  67.6604430
 142.9757740  33.2604610  58.0913470 142.6870790  33.8307470  58.8038450
 143.7203500  32.7809060  58.4544700 143.1627970  37.2024730  49.3016190
 143.0802640  38.1455490  49.4431180 142.8111030  37.0599640  48.4228540
 150.9626100  35.9363760  58.3686540 150.9662160  35.4953710  57.5191080
 151.8577220  36.2581090  58.4758360 146.8128480  35.8190250  57.3280750
 146.4728530  36.2965480  58.0847800 146.0505800  35.3655370  56.9681850
 151.0246250  36.9375840  51.3593300 151.1459070  36.8962320  52.3079120
 150.6394760  37.7999990  51.2040030 150.0367750  39.2476980  50.7576600
 149.4684650  38.7995230  50.1312510 150.7456750  39.6069760  50.2241750
 145.1136930  43.1489000  64.6343330 144.7291720  42.5082670  65.2326290
 145.4249120  43.8525120  65.2038060 151.2634070  39.9965540  60.1151950
 151.6304200  39.5224110  60.8613290 151.0739130  40.8707110  60.4560290
 144.1274560  34.7409230  56.2445420 143.8421480  34.3764900  57.0824040
 144.0653420  34.0089690  55.6308560 149.0533440  39.0374180  62.4336160
 148.7490510  39.9166160  62.6586520 150.0079900  39.0973970  62.4693600
 147.5815230  43.2435170  53.0303010 146.8077490  42.7032790  52.8701730
 148.3109860  42.7241780  52.6920770 147.6252630  42.9115550  56.6681820
 148.1431300  42.1083810  56.6138710 147.1736650  42.8494690  57.5098650
 152.5122130  44.1781830  51.9409120 152.8537830  44.9224060  51.4452440
 151.6834840  44.4912950  52.3033950 145.1097170  39.8776920  63.5807520
 144.7512110  40.5430770  64.1680860 144.8151730  39.0460470  63.9520140
 148.3110290  40.3361160  66.4647070 148.0110430  40.4818340  65.5674890
 149.0821530  39.7766450  66.3720460 151.4812820  44.2595360  54.7125040
 152.1683950  44.8064570  55.0932630 150.6945240  44.8036090  54.7474650
 143.6205220  39.8768180  50.2042120 144.4900070  40.1592980  50.4878040
 143.1295540  40.6904050  50.0890930 150.7840030  41.2641390  54.3250400
 151.2402810  42.0746640  54.5510590 150.4328240  40.9464530  55.1568890
 146.6851810  31.6079040  54.7972920 146.5566440  31.5996940  55.7457840
 145.8613830  31.9462130  54.4463930 143.9876470  49.0895560  50.7703750
 144.3474110  49.6884900  50.1161020 143.8468810  49.6355450  51.5438780
 143.6845740  33.3670160  64.2579620 142.9704260  33.5667080  64.8632230
 144.1040780  32.5909730  64.6294420 143.9718330  47.3550420  65.2446150
 144.0809450  46.4145160  65.1041540 143.3198890  47.6205170  64.5959880
 151.9630920  45.6266310  66.6444270 151.6427790  44.9075550  67.1889960
 151.2889280  46.3021380  66.7180330 150.0045090  46.4726760  51.5877420
 149.9955190  47.2056450  50.9721930 149.0843450  46.2258340  51.6804380
 145.6051730  41.6941650  52.3324180 144.9979680  42.4340550  52.3419480
 146.0801080  41.7841010  51.5062380 152.9904690  46.5355000  50.2502610
 153.0916670  46.3318990  49.3204590 152.0906430  46.2813280  50.4550390
 150.5130580  37.0935360  54.2326510 149.8046730  37.5621700  54.6740120
 150.7975060  36.4357370  54.8671700 152.1386510  38.5132060  62.2319040
 152.6371760  38.9877880  62.8970890 152.2809460  37.5895580  62.4389070
 151.6322800  49.0541320  54.9450280 151.8864300  49.0162710  54.0229650
 150.6835280  48.9274650  54.9378530 148.7165600  35.4020440  51.6077220
 149.5656130  35.8390590  51.5417410 148.3496870  35.7140700  52.4349280
 147.6157020  41.6552800  50.0812750 148.3820290  41.5434160  50.6438180
 147.6931710  40.9590770  49.4289520 146.3103780  39.0877870  50.7645640
 146.3907370  38.1405380  50.8763040 147.2023530  39.4184750  50.8706300
 147.1118490  49.2373260  57.8680180 147.8480970  48.6888720  58.1388750
 147.4959410  50.1029270  57.7286170 143.9963970  45.3046830  53.7421690
 143.0703750  45.5467970  53.7327100 144.4620400  46.1321090  53.6206440
 146.1176770  48.4219330  67.0565760 146.9189500  48.7431380  67.4701160
 145.6028590  48.0614910  67.7785670 150.2220800  48.4103570  49.6905750
 151.0149410  48.6992400  49.2387540 149.7025150  47.9795740  49.0118230
 143.8374580  40.9092790  66.0001810 144.3413600  40.3300070  66.5718040
 143.0982000  41.1933020  66.5378180 150.7398200  43.6306980  49.5548100
 150.6348840  43.0159330  50.2809480 150.5722420  43.1072870  48.7711110
 150.8912520  42.3163780  65.5337330 150.1258190  42.8848780  65.4492000
 151.0728480  42.0239990  64.6405560 145.8697660  39.0522380  66.8951880
 145.9103000  38.7536250  67.8037110 146.7243160  39.4529990  66.7359400
 149.6476050  41.6517930  52.0555390 150.0692470  41.4857800  52.8986780
 149.7726890  40.8418160  51.5610530 147.8103470  37.6314480  64.8626370
 147.2799930  37.1405430  64.2349710 148.4791540  38.0598680  64.3284300
 152.1603690  40.6755540  49.3032490 152.6809350  39.9604560  48.9373640
 152.8072090  41.3141410  49.6033000 148.2975770  34.5976850  64.9423660
 148.2032640  33.9797600  64.2174530 147.7173160  35.3243140  64.7153570
 151.0637210  33.1550090  61.9751050 150.6154510  33.1774350  61.1296600
 150.4302410  32.7569110  62.5721350 151.4696760  42.0504420  62.5963490
 151.8884870  42.8937150  62.4239730 150.5505390  42.1876460  62.3670270
 148.5434950  37.7251160  49.0013550 148.3424010  36.8618520  49.3626890
 148.3727000  37.6384520  48.0635150 149.3204180  48.3557430  63.7121220
 148.7825270  49.0803490  63.3929920 149.5738140  47.8787770  62.9218560
 150.5729430  36.3241950  65.2377150 151.1629120  36.0157800  65.9254970
 149.7549670  35.8521700  65.3937050 147.3417750  34.8251780  48.9891430
 147.6443650  34.8319210  48.0810580 148.0812340  34.4749640  49.4859090
 152.1766390  49.5908640  63.9707870 152.1025090  50.4943780  64.2780240
 151.2745230  49.2720540  63.9429940 150.5602680  33.7686400  49.9747630
 150.2124680  33.0910390  49.3950080 150.7615450  33.3075910  50.7891020
 146.3647880  44.1294200  49.8221230 146.8022750  44.6723870  50.4778810
 146.8495610  43.3041150  49.8317570 143.5793680  46.9183230  57.2741490
 143.9096690  46.0504290  57.0420130 144.0084680  47.1241750  58.1046450
 148.1755600  45.2492240  54.9343460 147.8751140  45.1257210  55.8347370
 148.0693090  44.3900830  54.5259190 144.0683890  47.7853820  60.0123120
 143.6314880  47.9654620  60.8447270 144.6361570  48.5428440  59.8704840
 143.9008320  40.2974050  56.3712000 143.2457160  40.0285690  55.7271700
 144.7386270  40.1878530  55.9213980 144.9384250  40.6826620  60.9115340
 145.3057290  40.5954020  61.7911360 144.3695070  39.9193170  60.8122200
 144.4900250  37.5935710  64.8173760 143.5956300  37.5602470  65.1567470
 145.0297800  37.7922500  65.5825010 143.1146400  37.5072980  52.3137330
 142.2110480  37.7703180  52.1388990 143.5987020  37.7784150  51.5337290
 145.6573610  36.5638520  50.2231710 146.3665310  36.1421740  49.7378990
 144.9413550  36.6313750  49.5915060 145.3047770  32.6177850  49.2634360
 146.0275900  33.1586790  49.5815580 145.5772290  32.3441270  48.3875900
 144.9939960  31.8684040  59.1656980 145.6416150  31.3181420  58.7252140
 145.4141800  32.1227190  59.9872790 144.7471960  32.0239710  61.9082300
 144.3986780  32.4803530  62.6740480 144.4159660  31.1296840  61.9904730
 146.3536330  45.1959310  66.0735490 146.3105960  44.8252220  66.9549950
 146.4847340  46.1336880  66.2137310 150.0542360  46.7518900  61.6745210
 149.8133720  47.0193460  60.7875730 150.9945000  46.9224630  61.7296070
 145.4192600  31.5515910  65.1833070 145.9675590  31.3703960  64.4199180
 145.4847910  30.7610020  65.7189380 146.1924360  48.1421560  63.1933270
 145.5984680  48.0106260  63.9323310 146.1848200  47.3059700  62.7275370
 145.8236590  45.5079940  62.1441310 145.0970650  44.8885230  62.0767260
 145.8845740  45.9020550  61.2739390 149.4281690  47.7224940  58.9290720
 149.9446710  47.1112300  58.4038980 150.0779070  48.2253720  59.4201730
 152.1677190  48.6133430  59.7559700 152.4555000  48.3587730  58.8792710
 152.6800410  48.0610790  60.3465270 144.1066590  48.8254330  55.3538070
 143.9388630  48.1925010  56.0519960 143.2401100  49.0313730  55.0032260
 144.7294610  32.6571110  52.8569930 145.4873970  32.7699990  52.2833960
 144.2671780  33.4940310  52.8113360 151.2708420  34.7710380  55.8472240
 150.4582930  34.3967270  55.5068120 151.7750060  34.0155460  56.1493430
 145.7129290  47.5187560  52.7988210 145.1876910  47.8995590  52.0950170
 145.6373870  48.1438330  53.5197920 147.1019760  33.1835160  51.3971900
 147.6312520  32.3964960  51.2679850 147.7348080  33.8626350  51.6307430
 149.2957600  32.9210300  54.4517290 148.6660340  32.2197610  54.6187420
 148.7562740  33.6814430  54.2350450 149.4213160  32.1994280  66.8869780
 149.1397430  32.7027880  66.1230600 149.8032860  31.4016030  66.5211910
 148.3122260  49.4669940  51.6737460 149.0441080  49.1829220  51.1261350
 148.5715930  49.2283220  52.5636840 147.4737050  45.5834670  51.6783790
 146.8445930  46.0519770  52.2269620 147.5884880  44.7383890  52.1129980
 147.0770640  41.7239160  40.5870020 146.2455520  41.4687870  40.9866530
 147.6851620  41.7949930  41.3227940 147.0571900  45.7579250  40.7828040
 147.3599940  44.8676990  40.6038260 147.8015490  46.3149470  40.5550290
 145.4862590  36.6841050  34.3712410 144.5979290  37.0257020  34.2692290
 145.7703780  36.4841370  33.4793240 143.4495600  39.2846700  40.2552110
 144.0211710  38.5168900  40.2555750 143.4497140  39.5835460  39.3458720
 144.6920470  34.6931060  42.0421040 144.5123310  33.7956810  42.3223800
 144.2900550  35.2402930  42.7167990 147.6623980  35.2672550  35.4050790
 147.7690730  36.1676280  35.7119550 146.7516340  35.2190520  35.1145440
 145.3107140  37.1891560  40.6503380 145.9917250  37.4529930  41.2690780
 144.9955190  36.3492430  40.9841390 149.5031710  38.2358920  39.7375970
 150.0109930  38.7339890  40.3780990 150.0344950  37.4594120  39.5615330
 147.7867810  32.8757480  44.0039390 147.7886250  33.3929870  43.1985290
 146.9572120  32.3987660  43.9809320 149.0370660  42.5152660  42.1812890
 148.7040040  43.1421580  42.8233960 149.2137340  43.0414540  41.4014560
 147.4683140  34.5867440  42.0109840 147.8099950  35.4309490  41.7163710
 146.5298950  34.7351180  42.1275180 148.2489760  44.4833460  43.9962070
 148.8663760  45.1584540  43.7146520 147.3882880  44.8921440  43.9049570
 143.5422100  43.6733320  32.8768920 143.1650080  44.1620420  32.1453820
 143.7995170  44.3458600  33.5075450 151.1511030  32.0749710  38.3354430
 151.4586010  31.5196600  37.6189930 150.2211730  32.2094170  38.1527420
 149.1448430  40.6663280  37.8534280 148.7405430  39.9540530  37.3580180
 149.2311550  40.3216520  38.7422320 149.6130130  44.3530840  40.0173490
 149.3158420  43.7476310  39.3381270 150.5629950  44.3908150  39.9062850
 147.8577050  37.4406490  41.6333320 148.4091640  37.5501830  40.8586570
 148.3720560  37.8144090  42.3488550 148.7048560  44.0912530  46.6681290
 147.8077090  44.3152500  46.9154690 148.7301430  44.2147470  45.7192690
 147.5319780  40.9625850  45.2438660 147.3927550  41.8348650  45.6126060
 146.6501140  40.6198660  45.0986600 149.3300130  46.9047550  47.4523810
 149.3015560  47.3090500  46.5852240 149.1665100  45.9757910  47.2895410
 145.8453060  39.5608260  35.3540930 145.7250660  40.2870350  34.7422200
 145.5353950  38.7911170  34.8768840 143.4838430  42.7323400  41.1609570
 143.5618850  42.8672170  40.2165290 144.0980110  42.0239290  41.3537690
 144.7286060  44.4323590  37.5715750 144.3214140  44.5738180  36.7169350
 145.6199070  44.1483750  37.3686960 149.0007720  48.6469370  35.6838420
 148.8250200  47.7304910  35.4706220 148.1463460  49.0056660  35.9236220
 143.5397950  43.7737570  43.7004030 143.7028990  43.3042930  42.8823400
 144.0050400  43.2661130  44.3652870 148.3116720  32.9043330  38.7364600
 147.8684870  33.6852870  38.4049120 148.8701710  33.2273220  39.4435540
 152.5986530  35.7711850  44.3399920 152.1365900  35.9794870  45.1519860
 152.1964640  34.9571200  44.0370590 151.4275540  32.5254030  33.6170430
 150.8029720  32.5213900  34.3423740 151.3405660  31.6584990  33.2206400
 150.3492620  33.4490660  40.5954200 150.6464950  34.3553490  40.5146220
 150.8978180  32.9609440  39.9813770 148.1030940  38.0276900  36.4645850
 147.8771860  37.8114070  37.3692470 147.3223470  38.4605360  36.1191820
 150.5430150  38.9262480  47.1306120 150.4473750  37.9857210  46.9806520
 151.3862130  39.1477550  46.7354190 145.6740690  35.3376150  45.2839900
 145.2804080  36.1851360  45.4912680 144.9859090  34.7002520  45.4748540
 152.2485740  35.4211120  48.3536640 151.5584060  35.2283320  48.9882730
 152.9918040  35.7045760  48.8860940 142.9757740  33.2604610  39.3169980
 142.6870790  33.8307470  40.0294960 143.7203500  32.7809060  39.6801210
 143.1627970  37.2024730  30.5272700 143.0802640  38.1455490  30.6687690
 142.8111030  37.0599640  29.6485050 150.9626100  35.9363760  39.5943050
 150.9662160  35.4953710  38.7447590 151.8577220  36.2581090  39.7014870
 146.8128480  35.8190250  38.5537260 146.4728530  36.2965480  39.3104310
 146.0505800  35.3655370  38.1938360 151.0246250  36.9375840  32.5849810
 151.1459070  36.8962320  33.5335630 150.6394760  37.7999990  32.4296540
 150.0367750  39.2476980  31.9833110 149.4684650  38.7995230  31.3569020
 150.7456750  39.6069760  31.4498260 145.1136930  43.1489000  45.8599840
 144.7291720  42.5082670  46.4582800 145.4249120  43.8525120  46.4294570
 151.2634070  39.9965540  41.3408460 151.6304200  39.5224110  42.0869800
 151.0739130  40.8707110  41.6816800 144.1274560  34.7409230  37.4701930
 143.8421480  34.3764900  38.3080550 144.0653420  34.0089690  36.8565070
 149.0533440  39.0374180  43.6592670 148.7490510  39.9166160  43.8843030
 150.0079900  39.0973970  43.6950110 147.5815230  43.2435170  34.2559520
 146.8077490  42.7032790  34.0958240 148.3109860  42.7241780  33.9177280
 147.6252630  42.9115550  37.8938330 148.1431300  42.1083810  37.8395220
 147.1736650  42.8494690  38.7355160 152.5122130  44.1781830  33.1665630
 152.8537830  44.9224060  32.6708950 151.6834840  44.4912950  33.5290460
 145.1097170  39.8776920  44.8064030 144.7512110  40.5430770  45.3937370
 144.8151730  39.0460470  45.1776650 148.3110290  40.3361160  47.6903580
 148.0110430  40.4818340  46.7931400 149.0821530  39.7766450  47.5976970
 151.4812820  44.2595360  35.9381550 152.1683950  44.8064570  36.3189140
 150.6945240  44.8036090  35.9731160 143.6205220  39.8768180  31.4298630
 144.4900070  40.1592980  31.7134550 143.1295540  40.6904050  31.3147440
 150.7840030  41.2641390  35.5506910 151.2402810  42.0746640  35.7767100
 150.4328240  40.9464530  36.3825400 146.6851810  31.6079040  36.0229430
 146.5566440  31.5996940  36.9714350 145.8613830  31.9462130  35.6720440
 143.9876470  49.0895560  31.9960260 144.3474110  49.6884900  31.3417530
 143.8468810  49.6355450  32.7695290 143.6845740  33.3670160  45.4836130
 142.9704260  33.5667080  46.0888740 144.1040780  32.5909730  45.8550930
 143.9718330  47.3550420  46.4702660 144.0809450  46.4145160  46.3298050
 143.3198890  47.6205170  45.8216390 151.9630920  45.6266310  47.8700780
 151.6427790  44.9075550  48.4146470 151.2889280  46.3021380  47.9436840
 150.0045090  46.4726760  32.8133930 149.9955190  47.2056450  32.1978440
 149.0843450  46.2258340  32.9060890 145.6051730  41.6941650  33.5580690
 144.9979680  42.4340550  33.5675990 146.0801080  41.7841010  32.7318890
 152.9904690  46.5355000  31.4759120 153.0916670  46.3318990  30.5461100
 152.0906430  46.2813280  31.6806900 150.5130580  37.0935360  35.4583020
 149.8046730  37.5621700  35.8996630 150.7975060  36.4357370  36.0928210
 152.1386510  38.5132060  43.4575550 152.6371760  38.9877880  44.1227400
 152.2809460  37.5895580  43.6645580 151.6322800  49.0541320  36.1706790
 151.8864300  49.0162710  35.2486160 150.6835280  48.9274650  36.1635040
 148.7165600  35.4020440  32.8333730 149.5656130  35.8390590  32.7673920
 148.3496870  35.7140700  33.6605790 147.6157020  41.6552800  31.3069260
 148.3820290  41.5434160  31.8694690 147.6931710  40.9590770  30.6546030
 146.3103780  39.0877870  31.9902150 146.3907370  38.1405380  32.1019550
 147.2023530  39.4184750  32.0962810 147.1118490  49.2373260  39.0936690
 147.8480970  48.6888720  39.3645260 147.4959410  50.1029270  38.9542680
 143.9963970  45.3046830  34.9678200 143.0703750  45.5467970  34.9583610
 144.4620400  46.1321090  34.8462950 146.1176770  48.4219330  48.2822270
 146.9189500  48.7431380  48.6957670 145.6028590  48.0614910  49.0042180
 150.2220800  48.4103570  30.9162260 151.0149410  48.6992400  30.4644050
 149.7025150  47.9795740  30.2374740 143.8374580  40.9092790  47.2258320
 144.3413600  40.3300070  47.7974550 143.0982000  41.1933020  47.7634690
 150.7398200  43.6306980  30.7804610 150.6348840  43.0159330  31.5065990
 150.5722420  43.1072870  29.9967620 150.8912520  42.3163780  46.7593840
 150.1258190  42.8848780  46.6748510 151.0728480  42.0239990  45.8662070
 145.8697660  39.0522380  48.1208390 145.9103000  38.7536250  49.0293620
 146.7243160  39.4529990  47.9615910 149.6476050  41.6517930  33.2811900
 150.0692470  41.4857800  34.1243290 149.7726890  40.8418160  32.7867040
 147.8103470  37.6314480  46.0882880 147.2799930  37.1405430  45.4606220
 148.4791540  38.0598680  45.5540810 152.1603690  40.6755540  30.5289000
 152.6809350  39.9604560  30.1630150 152.8072090  41.3141410  30.8289510
 148.2975770  34.5976850  46.1680170 148.2032640  33.9797600  45.4431040
 147.7173160  35.3243140  45.9410080 151.0637210  33.1550090  43.2007560
 150.6154510  33.1774350  42.3553110 150.4302410  32.7569110  43.7977860
 151.4696760  42.0504420  43.8220000 151.8884870  42.8937150  43.6496240
 150.5505390  42.1876460  43.5926780 148.5434950  37.7251160  30.2270060
 148.3424010  36.8618520  30.5883400 148.3727000  37.6384520  29.2891660
 149.3204180  48.3557430  44.9377730 148.7825270  49.0803490  44.6186430
 149.5738140  47.8787770  44.1475070 150.5729430  36.3241950  46.4633660
 151.1629120  36.0157800  47.1511480 149.7549670  35.8521700  46.6193560
 147.3417750  34.8251780  30.2147940 147.6443650  34.8319210  29.3067090
 148.0812340  34.4749640  30.7115600 152.1766390  49.5908640  45.1964380
 152.1025090  50.4943780  45.5036750 151.2745230  49.2720540  45.1686450
 150.5602680  33.7686400  31.2004140 150.2124680  33.0910390  30.6206590
 150.7615450  33.3075910  32.0147530 146.3647880  44.1294200  31.0477740
 146.8022750  44.6723870  31.7035320 146.8495610  43.3041150  31.0574080
 143.5793680  46.9183230  38.4998000 143.9096690  46.0504290  38.2676640
 144.0084680  47.1241750  39.3302960 148.1755600  45.2492240  36.1599970
 147.8751140  45.1257210  37.0603880 148.0693090  44.3900830  35.7515700
 144.0683890  47.7853820  41.2379630 143.6314880  47.9654620  42.0703780
 144.6361570  48.5428440  41.0961350 143.9008320  40.2974050  37.5968510
 143.2457160  40.0285690  36.9528210 144.7386270  40.1878530  37.1470490
 144.9384250  40.6826620  42.1371850 145.3057290  40.5954020  43.0167870
 144.3695070  39.9193170  42.0378710 144.4900250  37.5935710  46.0430270
 143.5956300  37.5602470  46.3823980 145.0297800  37.7922500  46.8081520
 143.1146400  37.5072980  33.5393840 142.2110480  37.7703180  33.3645500
 143.5987020  37.7784150  32.7593800 145.6573610  36.5638520  31.4488220
 146.3665310  36.1421740  30.9635500 144.9413550  36.6313750  30.8171570
 145.3047770  32.6177850  30.4890870 146.0275900  33.1586790  30.8072090
 145.5772290  32.3441270  29.6132410 144.9939960  31.8684040  40.3913490
 145.6416150  31.3181420  39.9508650 145.4141800  32.1227190  41.2129300
 144.7471960  32.0239710  43.1338810 144.3986780  32.4803530  43.8996990
 144.4159660  31.1296840  43.2161240 146.3536330  45.1959310  47.2992000
 146.3105960  44.8252220  48.1806460 146.4847340  46.1336880  47.4393820
 150.0542360  46.7518900  42.9001720 149.8133720  47.0193460  42.0132240
 150.9945000  46.9224630  42.9552580 145.4192600  31.5515910  46.4089580
 145.9675590  31.3703960  45.6455690 145.4847910  30.7610020  46.9445890
 146.1924360  48.1421560  44.4189780 145.5984680  48.0106260  45.1579820
 146.1848200  47.3059700  43.9531880 145.8236590  45.5079940  43.3697820
 145.0970650  44.8885230  43.3023770 145.8845740  45.9020550  42.4995900
 149.4281690  47.7224940  40.1547230 149.9446710  47.1112300  39.6295490
 150.0779070  48.2253720  40.6458240 152.1677190  48.6133430  40.9816210
 152.4555000  48.3587730  40.1049220 152.6800410  48.0610790  41.5721780
 144.1066590  48.8254330  36.5794580 143.9388630  48.1925010  37.2776470
 143.2401100  49.0313730  36.2288770 144.7294610  32.6571110  34.0826440
 145.4873970  32.7699990  33.5090470 144.2671780  33.4940310  34.0369870
 151.2708420  34.7710380  37.0728750 150.4582930  34.3967270  36.7324630
 151.7750060  34.0155460  37.3749940 145.7129290  47.5187560  34.0244720
 145.1876910  47.8995590  33.3206680 145.6373870  48.1438330  34.7454430
 147.1019760  33.1835160  32.6228410 147.6312520  32.3964960  32.4936360
 147.7348080  33.8626350  32.8563940 149.2957600  32.9210300  35.6773800
 148.6660340  32.2197610  35.8443930 148.7562740  33.6814430  35.4606960
 149.4213160  32.1994280  48.1126290 149.1397430  32.7027880  47.3487110
 149.8032860  31.4016030  47.7468420 148.3122260  49.4669940  32.8993970
 149.0441080  49.1829220  32.3517860 148.5715930  49.2283220  33.7893350
 147.4737050  45.5834670  32.9040300 146.8445930  46.0519770  33.4526130
 147.5884880  44.7383890  33.3386490 147.0770640  41.7239160  21.8126530
 146.2455520  41.4687870  22.2123040 147.6851620  41.7949930  22.5484450
 147.0571900  45.7579250  22.0084550 147.3599940  44.8676990  21.8294770
 147.8015490  46.3149470  21.7806800 145.4862590  36.6841050  15.5968920
 144.5979290  37.0257020  15.4948800 145.7703780  36.4841370  14.7049750
 143.4495600  39.2846700  21.4808620 144.0211710  38.5168900  21.4812260
 143.4497140  39.5835460  20.5715230 144.6920470  34.6931060  23.2677550
 144.5123310  33.7956810  23.5480310 144.2900550  35.2402930  23.9424500
 147.6623980  35.2672550  16.6307300 147.7690730  36.1676280  16.9376060
 146.7516340  35.2190520  16.3401950 145.3107140  37.1891560  21.8759890
 145.9917250  37.4529930  22.4947290 144.9955190  36.3492430  22.2097900
 149.5031710  38.2358920  20.9632480 150.0109930  38.7339890  21.6037500
 150.0344950  37.4594120  20.7871840 147.7867810  32.8757480  25.2295900
 147.7886250  33.3929870  24.4241800 146.9572120  32.3987660  25.2065830
 149.0370660  42.5152660  23.4069400 148.7040040  43.1421580  24.0490470
 149.2137340  43.0414540  22.6271070 147.4683140  34.5867440  23.2366350
 147.8099950  35.4309490  22.9420220 146.5298950  34.7351180  23.3531690
 148.2489760  44.4833460  25.2218580 148.8663760  45.1584540  24.9403030
 147.3882880  44.8921440  25.1306080 143.5422100  43.6733320  14.1025430
 143.1650080  44.1620420  13.3710330 143.7995170  44.3458600  14.7331960
 151.1511030  32.0749710  19.5610940 151.4586010  31.5196600  18.8446440
 150.2211730  32.2094170  19.3783930 149.1448430  40.6663280  19.0790790
 148.7405430  39.9540530  18.5836690 149.2311550  40.3216520  19.9678830
 149.6130130  44.3530840  21.2430000 149.3158420  43.7476310  20.5637780
 150.5629950  44.3908150  21.1319360 147.8577050  37.4406490  22.8589830
 148.4091640  37.5501830  22.0843080 148.3720560  37.8144090  23.5745060
 148.7048560  44.0912530  27.8937800 147.8077090  44.3152500  28.1411200
 148.7301430  44.2147470  26.9449200 147.5319780  40.9625850  26.4695170
 147.3927550  41.8348650  26.8382570 146.6501140  40.6198660  26.3243110
 149.3300130  46.9047550  28.6780320 149.3015560  47.3090500  27.8108750
 149.1665100  45.9757910  28.5151920 145.8453060  39.5608260  16.5797440
 145.7250660  40.2870350  15.9678710 145.5353950  38.7911170  16.1025350
 143.4838430  42.7323400  22.3866080 143.5618850  42.8672170  21.4421800
 144.0980110  42.0239290  22.5794200 144.7286060  44.4323590  18.7972260
 144.3214140  44.5738180  17.9425860 145.6199070  44.1483750  18.5943470
 149.0007720  48.6469370  16.9094930 148.8250200  47.7304910  16.6962730
 148.1463460  49.0056660  17.1492730 143.5397950  43.7737570  24.9260540
 143.7028990  43.3042930  24.1079910 144.0050400  43.2661130  25.5909380
 148.3116720  32.9043330  19.9621110 147.8684870  33.6852870  19.6305630
 148.8701710  33.2273220  20.6692050 152.5986530  35.7711850  25.5656430
 152.1365900  35.9794870  26.3776370 152.1964640  34.9571200  25.2627100
 151.4275540  32.5254030  14.8426940 150.8029720  32.5213900  15.5680250
 151.3405660  31.6584990  14.4462910 150.3492620  33.4490660  21.8210710
 150.6464950  34.3553490  21.7402730 150.8978180  32.9609440  21.2070280
 148.1030940  38.0276900  17.6902360 147.8771860  37.8114070  18.5948980
 147.3223470  38.4605360  17.3448330 150.5430150  38.9262480  28.3562630
 150.4473750  37.9857210  28.2063030 151.3862130  39.1477550  27.9610700
 145.6740690  35.3376150  26.5096410 145.2804080  36.1851360  26.7169190
 144.9859090  34.7002520  26.7005050 152.2485740  35.4211120  29.5793150
 151.5584060  35.2283320  30.2139240 152.9918040  35.7045760  30.1117450
 142.9757740  33.2604610  20.5426490 142.6870790  33.8307470  21.2551470
 143.7203500  32.7809060  20.9057720 143.1627970  37.2024730  11.7529210
 143.0802640  38.1455490  11.8944200 142.8111030  37.0599640  10.8741560
 150.9626100  35.9363760  20.8199560 150.9662160  35.4953710  19.9704100
 151.8577220  36.2581090  20.9271380 146.8128480  35.8190250  19.7793770
 146.4728530  36.2965480  20.5360820 146.0505800  35.3655370  19.4194870
 151.0246250  36.9375840  13.8106320 151.1459070  36.8962320  14.7592140
 150.6394760  37.7999990  13.6553050 150.0367750  39.2476980  13.2089620
 149.4684650  38.7995230  12.5825530 150.7456750  39.6069760  12.6754770
 145.1136930  43.1489000  27.0856350 144.7291720  42.5082670  27.6839310
 145.4249120  43.8525120  27.6551080 151.2634070  39.9965540  22.5664970
 151.6304200  39.5224110  23.3126310 151.0739130  40.8707110  22.9073310
 144.1274560  34.7409230  18.6958440 143.8421480  34.3764900  19.5337060
 144.0653420  34.0089690  18.0821580 149.0533440  39.0374180  24.8849180
 148.7490510  39.9166160  25.1099540 150.0079900  39.0973970  24.9206620
 147.5815230  43.2435170  15.4816030 146.8077490  42.7032790  15.3214750
 148.3109860  42.7241780  15.1433790 147.6252630  42.9115550  19.1194840
 148.1431300  42.1083810  19.0651730 147.1736650  42.8494690  19.9611670
 152.5122130  44.1781830  14.3922140 152.8537830  44.9224060  13.8965460
 151.6834840  44.4912950  14.7546970 145.1097170  39.8776920  26.0320540
 144.7512110  40.5430770  26.6193880 144.8151730  39.0460470  26.4033160
 148.3110290  40.3361160  28.9160090 148.0110430  40.4818340  28.0187910
 149.0821530  39.7766450  28.8233480 151.4812820  44.2595360  17.1638060
 152.1683950  44.8064570  17.5445650 150.6945240  44.8036090  17.1987670
 143.6205220  39.8768180  12.6555140 144.4900070  40.1592980  12.9391060
 143.1295540  40.6904050  12.5403950 150.7840030  41.2641390  16.7763420
 151.2402810  42.0746640  17.0023610 150.4328240  40.9464530  17.6081910
 146.6851810  31.6079040  17.2485940 146.5566440  31.5996940  18.1970860
 145.8613830  31.9462130  16.8976950 143.9876470  49.0895560  13.2216770
 144.3474110  49.6884900  12.5674040 143.8468810  49.6355450  13.9951800
 143.6845740  33.3670160  26.7092640 142.9704260  33.5667080  27.3145250
 144.1040780  32.5909730  27.0807440 143.9718330  47.3550420  27.6959170
 144.0809450  46.4145160  27.5554560 143.3198890  47.6205170  27.0472900
 151.9630920  45.6266310  29.0957290 151.6427790  44.9075550  29.6402980
 151.2889280  46.3021380  29.1693350 150.0045090  46.4726760  14.0390440
 149.9955190  47.2056450  13.4234950 149.0843450  46.2258340  14.1317400
 145.6051730  41.6941650  14.7837200 144.9979680  42.4340550  14.7932500
 146.0801080  41.7841010  13.9575400 152.9904690  46.5355000  12.7015630
 153.0916670  46.3318990  11.7717610 152.0906430  46.2813280  12.9063410
 150.5130580  37.0935360  16.6839530 149.8046730  37.5621700  17.1253140
 150.7975060  36.4357370  17.3184720 152.1386510  38.5132060  24.6832060
 152.6371760  38.9877880  25.3483910 152.2809460  37.5895580  24.8902090
 151.6322800  49.0541320  17.3963300 151.8864300  49.0162710  16.4742670
 150.6835280  48.9274650  17.3891550 148.7165600  35.4020440  14.0590240
 149.5656130  35.8390590  13.9930430 148.3496870  35.7140700  14.8862300
 147.6157020  41.6552800  12.5325770 148.3820290  41.5434160  13.0951200
 147.6931710  40.9590770  11.8802540 146.3103780  39.0877870  13.2158660
 146.3907370  38.1405380  13.3276060 147.2023530  39.4184750  13.3219320
 147.1118490  49.2373260  20.3193200 147.8480970  48.6888720  20.5901770
 147.4959410  50.1029270  20.1799190 143.9963970  45.3046830  16.1934710
 143.0703750  45.5467970  16.1840120 144.4620400  46.1321090  16.0719460
 146.1176770  48.4219330  29.5078780 146.9189500  48.7431380  29.9214180
 145.6028590  48.0614910  30.2298690 150.2220800  48.4103570  12.1418770
 151.0149410  48.6992400  11.6900560 149.7025150  47.9795740  11.4631250
 143.8374580  40.9092790  28.4514830 144.3413600  40.3300070  29.0231060
 143.0982000  41.1933020  28.9891200 150.7398200  43.6306980  12.0061120
 150.6348840  43.0159330  12.7322500 150.5722420  43.1072870  11.2224130
 150.8912520  42.3163780  27.9850350 150.1258190  42.8848780  27.9005020
 151.0728480  42.0239990  27.0918580 145.8697660  39.0522380  29.3464900
 145.9103000  38.7536250  30.2550130 146.7243160  39.4529990  29.1872420
 149.6476050  41.6517930  14.5068410 150.0692470  41.4857800  15.3499800
 149.7726890  40.8418160  14.0123550 147.8103470  37.6314480  27.3139390
 147.2799930  37.1405430  26.6862730 148.4791540  38.0598680  26.7797320
 152.1603690  40.6755540  11.7545510 152.6809350  39.9604560  11.3886660
 152.8072090  41.3141410  12.0546020 148.2975770  34.5976850  27.3936680
 148.2032640  33.9797600  26.6687550 147.7173160  35.3243140  27.1666590
 151.0637210  33.1550090  24.4264070 150.6154510  33.1774350  23.5809620
 150.4302410  32.7569110  25.0234370 151.4696760  42.0504420  25.0476510
 151.8884870  42.8937150  24.8752750 150.5505390  42.1876460  24.8183290
 148.5434950  37.7251160  11.4526570 148.3424010  36.8618520  11.8139910
 148.3727000  37.6384520  10.5148170 149.3204180  48.3557430  26.1634240
 148.7825270  49.0803490  25.8442940 149.5738140  47.8787770  25.3731580
 150.5729430  36.3241950  27.6890170 151.1629120  36.0157800  28.3767990
 149.7549670  35.8521700  27.8450070 147.3417750  34.8251780  11.4404450
 147.6443650  34.8319210  10.5323600 148.0812340  34.4749640  11.9372110
 152.1766390  49.5908640  26.4220890 152.1025090  50.4943780  26.7293260
 151.2745230  49.2720540  26.3942960 150.5602680  33.7686400  12.4260650
 150.2124680  33.0910390  11.8463100 150.7615450  33.3075910  13.2404040
 146.3647880  44.1294200  12.2734250 146.8022750  44.6723870  12.9291830
 146.8495610  43.3041150  12.2830590 143.5793680  46.9183230  19.7254510
 143.9096690  46.0504290  19.4933150 144.0084680  47.1241750  20.5559470
 148.1755600  45.2492240  17.3856480 147.8751140  45.1257210  18.2860390
 148.0693090  44.3900830  16.9772210 144.0683890  47.7853820  22.4636140
 143.6314880  47.9654620  23.2960290 144.6361570  48.5428440  22.3217860
 143.9008320  40.2974050  18.8225020 143.2457160  40.0285690  18.1784720
 144.7386270  40.1878530  18.3727000 144.9384250  40.6826620  23.3628360
 145.3057290  40.5954020  24.2424380 144.3695070  39.9193170  23.2635220
 144.4900250  37.5935710  27.2686780 143.5956300  37.5602470  27.6080490
 145.0297800  37.7922500  28.0338030 143.1146400  37.5072980  14.7650350
 142.2110480  37.7703180  14.5902010 143.5987020  37.7784150  13.9850310
 145.6573610  36.5638520  12.6744730 146.3665310  36.1421740  12.1892010
 144.9413550  36.6313750  12.0428080 145.3047770  32.6177850  11.7147380
 146.0275900  33.1586790  12.0328600 145.5772290  32.3441270  10.8388920
 144.9939960  31.8684040  21.6170000 145.6416150  31.3181420  21.1765160
 145.4141800  32.1227190  22.4385810 144.7471960  32.0239710  24.3595320
 144.3986780  32.4803530  25.1253500 144.4159660  31.1296840  24.4417750
 146.3536330  45.1959310  28.5248510 146.3105960  44.8252220  29.4062970
 146.4847340  46.1336880  28.6650330 150.0542360  46.7518900  24.1258230
 149.8133720  47.0193460  23.2388750 150.9945000  46.9224630  24.1809090
 145.4192600  31.5515910  27.6346090 145.9675590  31.3703960  26.8712200
 145.4847910  30.7610020  28.1702400 146.1924360  48.1421560  25.6446290
 145.5984680  48.0106260  26.3836330 146.1848200  47.3059700  25.1788390
 145.8236590  45.5079940  24.5954330 145.0970650  44.8885230  24.5280280
 145.8845740  45.9020550  23.7252410 149.4281690  47.7224940  21.3803740
 149.9446710  47.1112300  20.8552000 150.0779070  48.2253720  21.8714750
 152.1677190  48.6133430  22.2072720 152.4555000  48.3587730  21.3305730
 152.6800410  48.0610790  22.7978290 144.1066590  48.8254330  17.8051090
 143.9388630  48.1925010  18.5032980 143.2401100  49.0313730  17.4545280
 144.7294610  32.6571110  15.3082950 145.4873970  32.7699990  14.7346980
 144.2671780  33.4940310  15.2626380 151.2708420  34.7710380  18.2985260
 150.4582930  34.3967270  17.9581140 151.7750060  34.0155460  18.6006450
 145.7129290  47.5187560  15.2501230 145.1876910  47.8995590  14.5463190
 145.6373870  48.1438330  15.9710940 147.1019760  33.1835160  13.8484920
 147.6312520  32.3964960  13.7192870 147.7348080  33.8626350  14.0820450
 149.2957600  32.9210300  16.9030310 148.6660340  32.2197610  17.0700440
 148.7562740  33.6814430  16.6863470 149.4213160  32.1994280  29.3382800
 149.1397430  32.7027880  28.5743620 149.8032860  31.4016030  28.9724930
 148.3122260  49.4669940  14.1250480 149.0441080  49.1829220  13.5774370
 148.5715930  49.2283220  15.0149860 147.4737050  45.5834670  14.1296810
 146.8445930  46.0519770  14.6782640 147.5884880  44.7383890  14.5643000
 147.0770640  41.7239160   3.0383040 146.2455520  41.4687870   3.4379550
 147.6851620  41.7949930   3.7740960 147.0571900  45.7579250   3.2341060
 147.3599940  44.8676990   3.0551280 147.8015490  46.3149470   3.0063310
 143.4495600  39.2846700   2.7065130 144.0211710  38.5168900   2.7068770
 143.4497140  39.5835460   1.7971740 144.6920470  34.6931060   4.4934060
 144.5123310  33.7956810   4.7736820 144.2900550  35.2402930   5.1681010
 145.3107140  37.1891560   3.1016400 145.9917250  37.4529930   3.7203800
 144.9955190  36.3492430   3.4354410 149.5031710  38.2358920   2.1888990
 150.0109930  38.7339890   2.8294010 150.0344950  37.4594120   2.0128350
 147.7867810  32.8757480   6.4552410 147.7886250  33.3929870   5.6498310
 146.9572120  32.3987660   6.4322340 149.0370660  42.5152660   4.6325910
 148.7040040  43.1421580   5.2746980 149.2137340  43.0414540   3.8527580
 147.4683140  34.5867440   4.4622860 147.8099950  35.4309490   4.1676730
 146.5298950  34.7351180   4.5788200 148.2489760  44.4833460   6.4475090
 148.8663760  45.1584540   6.1659540 147.3882880  44.8921440   6.3562590
 149.6130130  44.3530840   2.4686510 149.3158420  43.7476310   1.7894290
 150.5629950  44.3908150   2.3575870 147.8577050  37.4406490   4.0846340
 148.4091640  37.5501830   3.3099590 148.3720560  37.8144090   4.8001570
 148.7048560  44.0912530   9.1194310 147.8077090  44.3152500   9.3667710
 148.7301430  44.2147470   8.1705710 147.5319780  40.9625850   7.6951680
 147.3927550  41.8348650   8.0639080 146.6501140  40.6198660   7.5499620
 149.3300130  46.9047550   9.9036830 149.3015560  47.3090500   9.0365260
 149.1665100  45.9757910   9.7408430 143.4838430  42.7323400   3.6122590
 143.5618850  42.8672170   2.6678310 144.0980110  42.0239290   3.8050710
 143.5397950  43.7737570   6.1517050 143.7028990  43.3042930   5.3336420
 144.0050400  43.2661130   6.8165890 152.5986530  35.7711850   6.7912940
 152.1365900  35.9794870   7.6032880 152.1964640  34.9571200   6.4883610
 150.3492620  33.4490660   3.0467220 150.6464950  34.3553490   2.9659240
 150.8978180  32.9609440   2.4326790 150.5430150  38.9262480   9.5819140
 150.4473750  37.9857210   9.4319540 151.3862130  39.1477550   9.1867210
 145.6740690  35.3376150   7.7352920 145.2804080  36.1851360   7.9425700
 144.9859090  34.7002520   7.9261560 152.2485740  35.4211120  10.8049660
 151.5584060  35.2283320  11.4395750 152.9918040  35.7045760  11.3373960
 142.9757740  33.2604610   1.7683000 142.6870790  33.8307470   2.4807980
 143.7203500  32.7809060   2.1314230 145.1136930  43.1489000   8.3112860
 144.7291720  42.5082670   8.9095820 145.4249120  43.8525120   8.8807590
 151.2634070  39.9965540   3.7921480 151.6304200  39.5224110   4.5382820
 151.0739130  40.8707110   4.1329820 149.0533440  39.0374180   6.1105690
 148.7490510  39.9166160   6.3356050 150.0079900  39.0973970   6.1463130
 145.1097170  39.8776920   7.2577050 144.7512110  40.5430770   7.8450390
 144.8151730  39.0460470   7.6289670 148.3110290  40.3361160  10.1416600
 148.0110430  40.4818340   9.2444420 149.0821530  39.7766450  10.0489990
 143.6845740  33.3670160   7.9349150 142.9704260  33.5667080   8.5401760
 144.1040780  32.5909730   8.3063950 143.9718330  47.3550420   8.9215680
 144.0809450  46.4145160   8.7811070 143.3198890  47.6205170   8.2729410
 151.9630920  45.6266310  10.3213800 151.6427790  44.9075550  10.8659490
 151.2889280  46.3021380  10.3949860 152.1386510  38.5132060   5.9088570
 152.6371760  38.9877880   6.5740420 152.2809460  37.5895580   6.1158600
 146.1176770  48.4219330  10.7335290 146.9189500  48.7431380  11.1470690
 145.6028590  48.0614910  11.4555200 143.8374580  40.9092790   9.6771340
 144.3413600  40.3300070  10.2487570 143.0982000  41.1933020  10.2147710
 150.8912520  42.3163780   9.2106860 150.1258190  42.8848780   9.1261530
 151.0728480  42.0239990   8.3175090 145.8697660  39.0522380  10.5721410
 145.9103000  38.7536250  11.4806640 146.7243160  39.4529990  10.4128930
 147.8103470  37.6314480   8.5395900 147.2799930  37.1405430   7.9119240
 148.4791540  38.0598680   8.0053830 148.2975770  34.5976850   8.6193190
 148.2032640  33.9797600   7.8944060 147.7173160  35.3243140   8.3923100
 151.0637210  33.1550090   5.6520580 150.6154510  33.1774350   4.8066130
 150.4302410  32.7569110   6.2490880 151.4696760  42.0504420   6.2733020
 151.8884870  42.8937150   6.1009260 150.5505390  42.1876460   6.0439800
 149.3204180  48.3557430   7.3890750 148.7825270  49.0803490   7.0699450
 149.5738140  47.8787770   6.5988090 150.5729430  36.3241950   8.9146680
 151.1629120  36.0157800   9.6024500 149.7549670  35.8521700   9.0706580
 152.1766390  49.5908640   7.6477400 152.1025090  50.4943780   7.9549770
 151.2745230  49.2720540   7.6199470 144.0683890  47.7853820   3.6892650
 143.6314880  47.9654620   4.5216800 144.6361570  48.5428440   3.5474370
 144.9384250  40.6826620   4.5884870 145.3057290  40.5954020   5.4680890
 144.3695070  39.9193170   4.4891730 144.4900250  37.5935710   8.4943290
 143.5956300  37.5602470   8.8337000 145.0297800  37.7922500   9.2594540
 144.9939960  31.8684040   2.8426510 145.6416150  31.3181420   2.4021670
 145.4141800  32.1227190   3.6642320 144.7471960  32.0239710   5.5851830
 144.3986780  32.4803530   6.3510010 144.4159660  31.1296840   5.6674260
 146.3536330  45.1959310   9.7505020 146.3105960  44.8252220  10.6319480
 146.4847340  46.1336880   9.8906840 150.0542360  46.7518900   5.3514740
 149.8133720  47.0193460   4.4645260 150.9945000  46.9224630   5.4065600
 145.4192600  31.5515910   8.8602600 145.9675590  31.3703960   8.0968710
 145.4847910  30.7610020   9.3958910 146.1924360  48.1421560   6.8702800
 145.5984680  48.0106260   7.6092840 146.1848200  47.3059700   6.4044900
 145.8236590  45.5079940   5.8210840 145.0970650  44.8885230   5.7536790
 145.8845740  45.9020550   4.9508920 149.4281690  47.7224940   2.6060250
 149.9446710  47.1112300   2.0808510 150.0779070  48.2253720   3.0971260
 152.1677190  48.6133430   3.4329230 152.4555000  48.3587730   2.5562240
 152.6800410  48.0610790   4.0234800 149.4213160  32.1994280  10.5639310
 149.1397430  32.7027880   9.8000130 149.8032860  31.4016030  10.1981440
 145.4862590  17.9097560 147.0173350 144.5979290  18.2513530 146.9153230
 145.7703780  17.7097880 146.1254180 147.6623980  16.4929060 148.0511730
 147.7690730  17.3932790 148.3580490 146.7516340  16.4447030 147.7606380
 143.5422100  24.8989830 145.5229860 143.1650080  25.3876930 144.7914760
 143.7995170  25.5715110 146.1536390 151.1511030  13.3006220 150.9815370
 151.4586010  12.7453110 150.2650870 150.2211730  13.4350680 150.7988360
 149.1448430  21.8919790 150.4995220 148.7405430  21.1797040 150.0041120
 149.2311550  21.5473030 151.3883260 145.8453060  20.7864770 148.0001870
 145.7250660  21.5126860 147.3883140 145.5353950  20.0167680 147.5229780
 144.7286060  25.6580100 150.2176690 144.3214140  25.7994690 149.3630290
 145.6199070  25.3740260 150.0147900 149.0007720  29.8725880 148.3299360
 148.8250200  28.9561420 148.1167160 148.1463460  30.2313170 148.5697160
 148.3116720  14.1299840 151.3825540 147.8684870  14.9109380 151.0510060
 148.8701710  14.4529730 152.0896480 151.4275540  13.7510540 146.2631370
 150.8029720  13.7470410 146.9884680 151.3405660  12.8841500 145.8667340
 148.1030940  19.2533410 149.1106790 147.8771860  19.0370580 150.0153410
 147.3223470  19.6861870 148.7652760 143.1627970  18.4281240 143.1733640
 143.0802640  19.3712000 143.3148630 142.8111030  18.2856150 142.2945990
 150.9626100  17.1620270 152.2403990 150.9662160  16.7210220 151.3908530
 151.8577220  17.4837600 152.3475810 146.8128480  17.0446760 151.1998200
 146.4728530  17.5221990 151.9565250 146.0505800  16.5911880 150.8399300
 151.0246250  18.1632350 145.2310750 151.1459070  18.1218830 146.1796570
 150.6394760  19.0256500 145.0757480 150.0367750  20.4733490 144.6294050
 149.4684650  20.0251740 144.0029960 150.7456750  20.8326270 144.0959200
 144.1274560  15.9665740 150.1162870 143.8421480  15.6021410 150.9541490
 144.0653420  15.2346200 149.5026010 147.5815230  24.4691680 146.9020460
 146.8077490  23.9289300 146.7419180 148.3109860  23.9498290 146.5638220
 147.6252630  24.1372060 150.5399270 148.1431300  23.3340320 150.4856160
 147.1736650  24.0751200 151.3816100 152.5122130  25.4038340 145.8126570
 152.8537830  26.1480570 145.3169890 151.6834840  25.7169460 146.1751400
 151.4812820  25.4851870 148.5842490 152.1683950  26.0321080 148.9650080
 150.6945240  26.0292600 148.6192100 143.6205220  21.1024690 144.0759570
 144.4900070  21.3849490 144.3595490 143.1295540  21.9160560 143.9608380
 150.7840030  22.4897900 148.1967850 151.2402810  23.3003150 148.4228040
 150.4328240  22.1721040 149.0286340 146.6851810  12.8335550 148.6690370
 146.5566440  12.8253450 149.6175290 145.8613830  13.1718640 148.3181380
 143.9876470  30.3152070 144.6421200 144.3474110  30.9141410 143.9878470
 143.8468810  30.8611960 145.4156230 150.0045090  27.6983270 145.4594870
 149.9955190  28.4312960 144.8439380 149.0843450  27.4514850 145.5521830
 145.6051730  22.9198160 146.2041630 144.9979680  23.6597060 146.2136930
 146.0801080  23.0097520 145.3779830 152.9904690  27.7611510 144.1220060
 153.0916670  27.5575500 143.1922040 152.0906430  27.5069790 144.3267840
 150.5130580  18.3191870 148.1043960 149.8046730  18.7878210 148.5457570
 150.7975060  17.6613880 148.7389150 151.6322800  30.2797830 148.8167730
 151.8864300  30.2419220 147.8947100 150.6835280  30.1531160 148.8095980
 148.7165600  16.6276950 145.4794670 149.5656130  17.0647100 145.4134860
 148.3496870  16.9397210 146.3066730 147.6157020  22.8809310 143.9530200
 148.3820290  22.7690670 144.5155630 147.6931710  22.1847280 143.3006970
 146.3103780  20.3134380 144.6363090 146.3907370  19.3661890 144.7480490
 147.2023530  20.6441260 144.7423750 147.1118490  30.4629770 151.7397630
 147.8480970  29.9145230 152.0106200 147.4959410  31.3285780 151.6003620
 143.9963970  26.5303340 147.6139140 143.0703750  26.7724480 147.6044550
 144.4620400  27.3577600 147.4923890 150.2220800  29.6360080 143.5623200
 151.0149410  29.9248910 143.1104990 149.7025150  29.2052250 142.8835680
 150.7398200  24.8563490 143.4265550 150.6348840  24.2415840 144.1526930
 150.5722420  24.3329380 142.6428560 149.6476050  22.8774440 145.9272840
 150.0692470  22.7114310 146.7704230 149.7726890  22.0674670 145.4327980
 152.1603690  21.9012050 143.1749940 152.6809350  21.1861070 142.8091090
 152.8072090  22.5397920 143.4750450 148.5434950  18.9507670 142.8731000
 148.3424010  18.0875030 143.2344340 148.3727000  18.8641030 141.9352600
 147.3417750  16.0508290 142.8608880 147.6443650  16.0575720 141.9528030
 148.0812340  15.7006150 143.3576540 150.5602680  14.9942910 143.8465080
 150.2124680  14.3166900 143.2667530 150.7615450  14.5332420 144.6608470
 146.3647880  25.3550710 143.6938680 146.8022750  25.8980380 144.3496260
 146.8495610  24.5297660 143.7035020 143.5793680  28.1439740 151.1458940
 143.9096690  27.2760800 150.9137580 144.0084680  28.3498260 151.9763900
 148.1755600  26.4748750 148.8060910 147.8751140  26.3513720 149.7064820
 148.0693090  25.6157340 148.3976640 143.9008320  21.5230560 150.2429450
 143.2457160  21.2542200 149.5989150 144.7386270  21.4135040 149.7931430
 143.1146400  18.7329490 146.1854780 142.2110480  18.9959690 146.0106440
 143.5987020  19.0040660 145.4054740 145.6573610  17.7895030 144.0949160
 146.3665310  17.3678250 143.6096440 144.9413550  17.8570260 143.4632510
 145.3047770  13.8434360 143.1351810 146.0275900  14.3843300 143.4533030
 145.5772290  13.5697780 142.2593350 144.1066590  30.0510840 149.2255520
 143.9388630  29.4181520 149.9237410 143.2401100  30.2570240 148.8749710
 144.7294610  13.8827620 146.7287380 145.4873970  13.9956500 146.1551410
 144.2671780  14.7196820 146.6830810 151.2708420  15.9966890 149.7189690
 150.4582930  15.6223780 149.3785570 151.7750060  15.2411970 150.0210880
 145.7129290  28.7444070 146.6705660 145.1876910  29.1252100 145.9667620
 145.6373870  29.3694840 147.3915370 147.1019760  14.4091670 145.2689350
 147.6312520  13.6221470 145.1397300 147.7348080  15.0882860 145.5024880
 149.2957600  14.1466810 148.3234740 148.6660340  13.4454120 148.4904870
 148.7562740  14.9070940 148.1067900 148.3122260  30.6926450 145.5454910
 149.0441080  30.4085730 144.9978800 148.5715930  30.4539730 146.4354290
 147.4737050  26.8091180 145.5501240 146.8445930  27.2776280 146.0987070
 147.5884880  25.9640400 145.9847430 147.0770640  22.9495670 134.4587470
 146.2455520  22.6944380 134.8583980 147.6851620  23.0206440 135.1945390
 147.0571900  26.9835760 134.6545490 147.3599940  26.0933500 134.4755710
 147.8015490  27.5405980 134.4267740 145.4862590  17.9097560 128.2429860
 144.5979290  18.2513530 128.1409740 145.7703780  17.7097880 127.3510690
 143.4495600  20.5103210 134.1269560 144.0211710  19.7425410 134.1273200
 143.4497140  20.8091970 133.2176170 144.6920470  15.9187570 135.9138490
 144.5123310  15.0213320 136.1941250 144.2900550  16.4659440 136.5885440
 147.6623980  16.4929060 129.2768240 147.7690730  17.3932790 129.5837000
 146.7516340  16.4447030 128.9862890 145.3107140  18.4148070 134.5220830
 145.9917250  18.6786440 135.1408230 144.9955190  17.5748940 134.8558840
 149.5031710  19.4615430 133.6093420 150.0109930  19.9596400 134.2498440
 150.0344950  18.6850630 133.4332780 147.7867810  14.1013990 137.8756840
 147.7886250  14.6186380 137.0702740 146.9572120  13.6244170 137.8526770
 149.0370660  23.7409170 136.0530340 148.7040040  24.3678090 136.6951410
 149.2137340  24.2671050 135.2732010 147.4683140  15.8123950 135.8827290
 147.8099950  16.6566000 135.5881160 146.5298950  15.9607690 135.9992630
 148.2489760  25.7089970 137.8679520 148.8663760  26.3841050 137.5863970
 147.3882880  26.1177950 137.7767020 143.5422100  24.8989830 126.7486370
 143.1650080  25.3876930 126.0171270 143.7995170  25.5715110 127.3792900
 151.1511030  13.3006220 132.2071880 151.4586010  12.7453110 131.4907380
 150.2211730  13.4350680 132.0244870 149.1448430  21.8919790 131.7251730
 148.7405430  21.1797040 131.2297630 149.2311550  21.5473030 132.6139770
 149.6130130  25.5787350 133.8890940 149.3158420  24.9732820 133.2098720
 150.5629950  25.6164660 133.7780300 147.8577050  18.6663000 135.5050770
 148.4091640  18.7758340 134.7304020 148.3720560  19.0400600 136.2206000
 148.7048560  25.3169040 140.5398740 147.8077090  25.5409010 140.7872140
 148.7301430  25.4403980 139.5910140 147.5319780  22.1882360 139.1156110
 147.3927550  23.0605160 139.4843510 146.6501140  21.8455170 138.9704050
 149.3300130  28.1304060 141.3241260 149.3015560  28.5347010 140.4569690
 149.1665100  27.2014420 141.1612860 145.8453060  20.7864770 129.2258380
 145.7250660  21.5126860 128.6139650 145.5353950  20.0167680 128.7486290
 143.4838430  23.9579910 135.0327020 143.5618850  24.0928680 134.0882740
 144.0980110  23.2495800 135.2255140 144.7286060  25.6580100 131.4433200
 144.3214140  25.7994690 130.5886800 145.6199070  25.3740260 131.2404410
 149.0007720  29.8725880 129.5555870 148.8250200  28.9561420 129.3423670
 148.1463460  30.2313170 129.7953670 143.5397950  24.9994080 137.5721480
 143.7028990  24.5299440 136.7540850 144.0050400  24.4917640 138.2370320
 148.3116720  14.1299840 132.6082050 147.8684870  14.9109380 132.2766570
 148.8701710  14.4529730 133.3152990 152.5986530  16.9968360 138.2117370
 152.1365900  17.2051380 139.0237310 152.1964640  16.1827710 137.9088040
 151.4275540  13.7510540 127.4887880 150.8029720  13.7470410 128.2141190
 151.3405660  12.8841500 127.0923850 150.3492620  14.6747170 134.4671650
 150.6464950  15.5810000 134.3863670 150.8978180  14.1865950 133.8531220
 148.1030940  19.2533410 130.3363300 147.8771860  19.0370580 131.2409920
 147.3223470  19.6861870 129.9909270 150.5430150  20.1518990 141.0023570
 150.4473750  19.2113720 140.8523970 151.3862130  20.3734060 140.6071640
 145.6740690  16.5632660 139.1557350 145.2804080  17.4107870 139.3630130
 144.9859090  15.9259030 139.3465990 152.2485740  16.6467630 142.2254090
 151.5584060  16.4539830 142.8600180 152.9918040  16.9302270 142.7578390
 142.9757740  14.4861120 133.1887430 142.6870790  15.0563980 133.9012410
 143.7203500  14.0065570 133.5518660 143.1627970  18.4281240 124.3990150
 143.0802640  19.3712000 124.5405140 142.8111030  18.2856150 123.5202500
 150.9626100  17.1620270 133.4660500 150.9662160  16.7210220 132.6165040
 151.8577220  17.4837600 133.5732320 146.8128480  17.0446760 132.4254710
 146.4728530  17.5221990 133.1821760 146.0505800  16.5911880 132.0655810
 151.0246250  18.1632350 126.4567260 151.1459070  18.1218830 127.4053080
 150.6394760  19.0256500 126.3013990 150.0367750  20.4733490 125.8550560
 149.4684650  20.0251740 125.2286470 150.7456750  20.8326270 125.3215710
 145.1136930  24.3745510 139.7317290 144.7291720  23.7339180 140.3300250
 145.4249120  25.0781630 140.3012020 151.2634070  21.2222050 135.2125910
 151.6304200  20.7480620 135.9587250 151.0739130  22.0963620 135.5534250
 144.1274560  15.9665740 131.3419380 143.8421480  15.6021410 132.1798000
 144.0653420  15.2346200 130.7282520 149.0533440  20.2630690 137.5310120
 148.7490510  21.1422670 137.7560480 150.0079900  20.3230480 137.5667560
 147.5815230  24.4691680 128.1276970 146.8077490  23.9289300 127.9675690
 148.3109860  23.9498290 127.7894730 147.6252630  24.1372060 131.7655780
 148.1431300  23.3340320 131.7112670 147.1736650  24.0751200 132.6072610
 152.5122130  25.4038340 127.0383080 152.8537830  26.1480570 126.5426400
 151.6834840  25.7169460 127.4007910 145.1097170  21.1033430 138.6781480
 144.7512110  21.7687280 139.2654820 144.8151730  20.2716980 139.0494100
 148.3110290  21.5617670 141.5621030 148.0110430  21.7074850 140.6648850
 149.0821530  21.0022960 141.4694420 151.4812820  25.4851870 129.8099000
 152.1683950  26.0321080 130.1906590 150.6945240  26.0292600 129.8448610
 143.6205220  21.1024690 125.3016080 144.4900070  21.3849490 125.5852000
 143.1295540  21.9160560 125.1864890 150.7840030  22.4897900 129.4224360
 151.2402810  23.3003150 129.6484550 150.4328240  22.1721040 130.2542850
 146.6851810  12.8335550 129.8946880 146.5566440  12.8253450 130.8431800
 145.8613830  13.1718640 129.5437890 143.9876470  30.3152070 125.8677710
 144.3474110  30.9141410 125.2134980 143.8468810  30.8611960 126.6412740
 143.6845740  14.5926670 139.3553580 142.9704260  14.7923590 139.9606190
 144.1040780  13.8166240 139.7268380 143.9718330  28.5806930 140.3420110
 144.0809450  27.6401670 140.2015500 143.3198890  28.8461680 139.6933840
 151.9630920  26.8522820 141.7418230 151.6427790  26.1332060 142.2863920
 151.2889280  27.5277890 141.8154290 150.0045090  27.6983270 126.6851380
 149.9955190  28.4312960 126.0695890 149.0843450  27.4514850 126.7778340
 145.6051730  22.9198160 127.4298140 144.9979680  23.6597060 127.4393440
 146.0801080  23.0097520 126.6036340 152.9904690  27.7611510 125.3476570
 153.0916670  27.5575500 124.4178550 152.0906430  27.5069790 125.5524350
 150.5130580  18.3191870 129.3300470 149.8046730  18.7878210 129.7714080
 150.7975060  17.6613880 129.9645660 152.1386510  19.7388570 137.3293000
 152.6371760  20.2134390 137.9944850 152.2809460  18.8152090 137.5363030
 151.6322800  30.2797830 130.0424240 151.8864300  30.2419220 129.1203610
 150.6835280  30.1531160 130.0352490 148.7165600  16.6276950 126.7051180
 149.5656130  17.0647100 126.6391370 148.3496870  16.9397210 127.5323240
 147.6157020  22.8809310 125.1786710 148.3820290  22.7690670 125.7412140
 147.6931710  22.1847280 124.5263480 146.3103780  20.3134380 125.8619600
 146.3907370  19.3661890 125.9737000 147.2023530  20.6441260 125.9680260
 147.1118490  30.4629770 132.9654140 147.8480970  29.9145230 133.2362710
 147.4959410  31.3285780 132.8260130 143.9963970  26.5303340 128.8395650
 143.0703750  26.7724480 128.8301060 144.4620400  27.3577600 128.7180400
 146.1176770  29.6475840 142.1539720 146.9189500  29.9687890 142.5675120
 145.6028590  29.2871420 142.8759630 150.2220800  29.6360080 124.7879710
 151.0149410  29.9248910 124.3361500 149.7025150  29.2052250 124.1092190
 143.8374580  22.1349300 141.0975770 144.3413600  21.5556580 141.6692000
 143.0982000  22.4189530 141.6352140 150.7398200  24.8563490 124.6522060
 150.6348840  24.2415840 125.3783440 150.5722420  24.3329380 123.8685070
 150.8912520  23.5420290 140.6311290 150.1258190  24.1105290 140.5465960
 151.0728480  23.2496500 139.7379520 145.8697660  20.2778890 141.9925840
 145.9103000  19.9792760 142.9011070 146.7243160  20.6786500 141.8333360
 149.6476050  22.8774440 127.1529350 150.0692470  22.7114310 127.9960740
 149.7726890  22.0674670 126.6584490 147.8103470  18.8570990 139.9600330
 147.2799930  18.3661940 139.3323670 148.4791540  19.2855190 139.4258260
 152.1603690  21.9012050 124.4006450 152.6809350  21.1861070 124.0347600
 152.8072090  22.5397920 124.7006960 148.2975770  15.8233360 140.0397620
 148.2032640  15.2054110 139.3148490 147.7173160  16.5499650 139.8127530
 151.0637210  14.3806600 137.0725010 150.6154510  14.4030860 136.2270560
 150.4302410  13.9825620 137.6695310 151.4696760  23.2760930 137.6937450
 151.8884870  24.1193660 137.5213690 150.5505390  23.4132970 137.4644230
 148.5434950  18.9507670 124.0987510 148.3424010  18.0875030 124.4600850
 148.3727000  18.8641030 123.1609110 149.3204180  29.5813940 138.8095180
 148.7825270  30.3060000 138.4903880 149.5738140  29.1044280 138.0192520
 150.5729430  17.5498460 140.3351110 151.1629120  17.2414310 141.0228930
 149.7549670  17.0778210 140.4911010 147.3417750  16.0508290 124.0865390
 147.6443650  16.0575720 123.1784540 148.0812340  15.7006150 124.5833050
 152.1766390  30.8165150 139.0681830 152.1025090  31.7200290 139.3754200
 151.2745230  30.4977050 139.0403900 150.5602680  14.9942910 125.0721590
 150.2124680  14.3166900 124.4924040 150.7615450  14.5332420 125.8864980
 146.3647880  25.3550710 124.9195190 146.8022750  25.8980380 125.5752770
 146.8495610  24.5297660 124.9291530 143.5793680  28.1439740 132.3715450
 143.9096690  27.2760800 132.1394090 144.0084680  28.3498260 133.2020410
 148.1755600  26.4748750 130.0317420 147.8751140  26.3513720 130.9321330
 148.0693090  25.6157340 129.6233150 144.0683890  29.0110330 135.1097080
 143.6314880  29.1911130 135.9421230 144.6361570  29.7684950 134.9678800
 143.9008320  21.5230560 131.4685960 143.2457160  21.2542200 130.8245660
 144.7386270  21.4135040 131.0187940 144.9384250  21.9083130 136.0089300
 145.3057290  21.8210530 136.8885320 144.3695070  21.1449680 135.9096160
 144.4900250  18.8192220 139.9147720 143.5956300  18.7858980 140.2541430
 145.0297800  19.0179010 140.6798970 143.1146400  18.7329490 127.4111290
 142.2110480  18.9959690 127.2362950 143.5987020  19.0040660 126.6311250
 145.6573610  17.7895030 125.3205670 146.3665310  17.3678250 124.8352950
 144.9413550  17.8570260 124.6889020 145.3047770  13.8434360 124.3608320
 146.0275900  14.3843300 124.6789540 145.5772290  13.5697780 123.4849860
 144.9939960  13.0940550 134.2630940 145.6416150  12.5437930 133.8226100
 145.4141800  13.3483700 135.0846750 144.7471960  13.2496220 137.0056260
 144.3986780  13.7060040 137.7714440 144.4159660  12.3553350 137.0878690
 146.3536330  26.4215820 141.1709450 146.3105960  26.0508730 142.0523910
 146.4847340  27.3593390 141.3111270 150.0542360  27.9775410 136.7719170
 149.8133720  28.2449970 135.8849690 150.9945000  28.1481140 136.8270030
 145.4192600  12.7772420 140.2807030 145.9675590  12.5960470 139.5173140
 145.4847910  11.9866530 140.8163340 146.1924360  29.3678070 138.2907230
 145.5984680  29.2362770 139.0297270 146.1848200  28.5316210 137.8249330
 145.8236590  26.7336450 137.2415270 145.0970650  26.1141740 137.1741220
 145.8845740  27.1277060 136.3713350 149.4281690  28.9481450 134.0264680
 149.9446710  28.3368810 133.5012940 150.0779070  29.4510230 134.5175690
 152.1677190  29.8389940 134.8533660 152.4555000  29.5844240 133.9766670
 152.6800410  29.2867300 135.4439230 144.1066590  30.0510840 130.4512030
 143.9388630  29.4181520 131.1493920 143.2401100  30.2570240 130.1006220
 144.7294610  13.8827620 127.9543890 145.4873970  13.9956500 127.3807920
 144.2671780  14.7196820 127.9087320 151.2708420  15.9966890 130.9446200
 150.4582930  15.6223780 130.6042080 151.7750060  15.2411970 131.2467390
 145.7129290  28.7444070 127.8962170 145.1876910  29.1252100 127.1924130
 145.6373870  29.3694840 128.6171880 147.1019760  14.4091670 126.4945860
 147.6312520  13.6221470 126.3653810 147.7348080  15.0882860 126.7281390
 149.2957600  14.1466810 129.5491250 148.6660340  13.4454120 129.7161380
 148.7562740  14.9070940 129.3324410 149.4213160  13.4250790 141.9843740
 149.1397430  13.9284390 141.2204560 149.8032860  12.6272540 141.6185870
 148.3122260  30.6926450 126.7711420 149.0441080  30.4085730 126.2235310
 148.5715930  30.4539730 127.6610800 147.4737050  26.8091180 126.7757750
 146.8445930  27.2776280 127.3243580 147.5884880  25.9640400 127.2103940
 147.0770640  22.9495670 115.6843980 146.2455520  22.6944380 116.0840490
 147.6851620  23.0206440 116.4201900 147.0571900  26.9835760 115.8802000
 147.3599940  26.0933500 115.7012220 147.8015490  27.5405980 115.6524250
 145.4862590  17.9097560 109.4686370 144.5979290  18.2513530 109.3666250
 145.7703780  17.7097880 108.5767200 143.4495600  20.5103210 115.3526070
 144.0211710  19.7425410 115.3529710 143.4497140  20.8091970 114.4432680
 144.6920470  15.9187570 117.1395000 144.5123310  15.0213320 117.4197760
 144.2900550  16.4659440 117.8141950 147.6623980  16.4929060 110.5024750
 147.7690730  17.3932790 110.8093510 146.7516340  16.4447030 110.2119400
 145.3107140  18.4148070 115.7477340 145.9917250  18.6786440 116.3664740
 144.9955190  17.5748940 116.0815350 149.5031710  19.4615430 114.8349930
 150.0109930  19.9596400 115.4754950 150.0344950  18.6850630 114.6589290
 147.7867810  14.1013990 119.1013350 147.7886250  14.6186380 118.2959250
 146.9572120  13.6244170 119.0783280 149.0370660  23.7409170 117.2786850
 148.7040040  24.3678090 117.9207920 149.2137340  24.2671050 116.4988520
 147.4683140  15.8123950 117.1083800 147.8099950  16.6566000 116.8137670
 146.5298950  15.9607690 117.2249140 148.2489760  25.7089970 119.0936030
 148.8663760  26.3841050 118.8120480 147.3882880  26.1177950 119.0023530
 143.5422100  24.8989830 107.9742880 143.1650080  25.3876930 107.2427780
 143.7995170  25.5715110 108.6049410 151.1511030  13.3006220 113.4328390
 151.4586010  12.7453110 112.7163890 150.2211730  13.4350680 113.2501380
 149.1448430  21.8919790 112.9508240 148.7405430  21.1797040 112.4554140
 149.2311550  21.5473030 113.8396280 149.6130130  25.5787350 115.1147450
 149.3158420  24.9732820 114.4355230 150.5629950  25.6164660 115.0036810
 147.8577050  18.6663000 116.7307280 148.4091640  18.7758340 115.9560530
 148.3720560  19.0400600 117.4462510 148.7048560  25.3169040 121.7655250
 147.8077090  25.5409010 122.0128650 148.7301430  25.4403980 120.8166650
 147.5319780  22.1882360 120.3412620 147.3927550  23.0605160 120.7100020
 146.6501140  21.8455170 120.1960560 149.3300130  28.1304060 122.5497770
 149.3015560  28.5347010 121.6826200 149.1665100  27.2014420 122.3869370
 145.8453060  20.7864770 110.4514890 145.7250660  21.5126860 109.8396160
 145.5353950  20.0167680 109.9742800 143.4838430  23.9579910 116.2583530
 143.5618850  24.0928680 115.3139250 144.0980110  23.2495800 116.4511650
 144.7286060  25.6580100 112.6689710 144.3214140  25.7994690 111.8143310
 145.6199070  25.3740260 112.4660920 149.0007720  29.8725880 110.7812380
 148.8250200  28.9561420 110.5680180 148.1463460  30.2313170 111.0210180
 143.5397950  24.9994080 118.7977990 143.7028990  24.5299440 117.9797360
 144.0050400  24.4917640 119.4626830 148.3116720  14.1299840 113.8338560
 147.8684870  14.9109380 113.5023080 148.8701710  14.4529730 114.5409500
 152.5986530  16.9968360 119.4373880 152.1365900  17.2051380 120.2493820
 152.1964640  16.1827710 119.1344550 151.4275540  13.7510540 108.7144390
 150.8029720  13.7470410 109.4397700 151.3405660  12.8841500 108.3180360
 150.3492620  14.6747170 115.6928160 150.6464950  15.5810000 115.6120180
 150.8978180  14.1865950 115.0787730 148.1030940  19.2533410 111.5619810
 147.8771860  19.0370580 112.4666430 147.3223470  19.6861870 111.2165780
 150.5430150  20.1518990 122.2280080 150.4473750  19.2113720 122.0780480
 151.3862130  20.3734060 121.8328150 145.6740690  16.5632660 120.3813860
 145.2804080  17.4107870 120.5886640 144.9859090  15.9259030 120.5722500
 152.2485740  16.6467630 123.4510600 151.5584060  16.4539830 124.0856690
 152.9918040  16.9302270 123.9834900 142.9757740  14.4861120 114.4143940
 142.6870790  15.0563980 115.1268920 143.7203500  14.0065570 114.7775170
 143.1627970  18.4281240 105.6246660 143.0802640  19.3712000 105.7661650
 142.8111030  18.2856150 104.7459010 150.9626100  17.1620270 114.6917010
 150.9662160  16.7210220 113.8421550 151.8577220  17.4837600 114.7988830
 146.8128480  17.0446760 113.6511220 146.4728530  17.5221990 114.4078270
 146.0505800  16.5911880 113.2912320 151.0246250  18.1632350 107.6823770
 151.1459070  18.1218830 108.6309590 150.6394760  19.0256500 107.5270500
 150.0367750  20.4733490 107.0807070 149.4684650  20.0251740 106.4542980
 150.7456750  20.8326270 106.5472220 145.1136930  24.3745510 120.9573800
 144.7291720  23.7339180 121.5556760 145.4249120  25.0781630 121.5268530
 151.2634070  21.2222050 116.4382420 151.6304200  20.7480620 117.1843760
 151.0739130  22.0963620 116.7790760 144.1274560  15.9665740 112.5675890
 143.8421480  15.6021410 113.4054510 144.0653420  15.2346200 111.9539030
 149.0533440  20.2630690 118.7566630 148.7490510  21.1422670 118.9816990
 150.0079900  20.3230480 118.7924070 147.5815230  24.4691680 109.3533480
 146.8077490  23.9289300 109.1932200 148.3109860  23.9498290 109.0151240
 147.6252630  24.1372060 112.9912290 148.1431300  23.3340320 112.9369180
 147.1736650  24.0751200 113.8329120 152.5122130  25.4038340 108.2639590
 152.8537830  26.1480570 107.7682910 151.6834840  25.7169460 108.6264420
 145.1097170  21.1033430 119.9037990 144.7512110  21.7687280 120.4911330
 144.8151730  20.2716980 120.2750610 148.3110290  21.5617670 122.7877540
 148.0110430  21.7074850 121.8905360 149.0821530  21.0022960 122.6950930
 151.4812820  25.4851870 111.0355510 152.1683950  26.0321080 111.4163100
 150.6945240  26.0292600 111.0705120 143.6205220  21.1024690 106.5272590
 144.4900070  21.3849490 106.8108510 143.1295540  21.9160560 106.4121400
 150.7840030  22.4897900 110.6480870 151.2402810  23.3003150 110.8741060
 150.4328240  22.1721040 111.4799360 146.6851810  12.8335550 111.1203390
 146.5566440  12.8253450 112.0688310 145.8613830  13.1718640 110.7694400
 143.9876470  30.3152070 107.0934220 144.3474110  30.9141410 106.4391490
 143.8468810  30.8611960 107.8669250 143.6845740  14.5926670 120.5810090
 142.9704260  14.7923590 121.1862700 144.1040780  13.8166240 120.9524890
 143.9718330  28.5806930 121.5676620 144.0809450  27.6401670 121.4272010
 143.3198890  28.8461680 120.9190350 151.9630920  26.8522820 122.9674740
 151.6427790  26.1332060 123.5120430 151.2889280  27.5277890 123.0410800
 150.0045090  27.6983270 107.9107890 149.9955190  28.4312960 107.2952400
 149.0843450  27.4514850 108.0034850 145.6051730  22.9198160 108.6554650
 144.9979680  23.6597060 108.6649950 146.0801080  23.0097520 107.8292850
 152.9904690  27.7611510 106.5733080 153.0916670  27.5575500 105.6435060
 152.0906430  27.5069790 106.7780860 150.5130580  18.3191870 110.5556980
 149.8046730  18.7878210 110.9970590 150.7975060  17.6613880 111.1902170
 152.1386510  19.7388570 118.5549510 152.6371760  20.2134390 119.2201360
 152.2809460  18.8152090 118.7619540 151.6322800  30.2797830 111.2680750
 151.8864300  30.2419220 110.3460120 150.6835280  30.1531160 111.2609000
 148.7165600  16.6276950 107.9307690 149.5656130  17.0647100 107.8647880
 148.3496870  16.9397210 108.7579750 147.6157020  22.8809310 106.4043220
 148.3820290  22.7690670 106.9668650 147.6931710  22.1847280 105.7519990
 146.3103780  20.3134380 107.0876110 146.3907370  19.3661890 107.1993510
 147.2023530  20.6441260 107.1936770 147.1118490  30.4629770 114.1910650
 147.8480970  29.9145230 114.4619220 147.4959410  31.3285780 114.0516640
 143.9963970  26.5303340 110.0652160 143.0703750  26.7724480 110.0557570
 144.4620400  27.3577600 109.9436910 146.1176770  29.6475840 123.3796230
 146.9189500  29.9687890 123.7931630 145.6028590  29.2871420 124.1016140
 150.2220800  29.6360080 106.0136220 151.0149410  29.9248910 105.5618010
 149.7025150  29.2052250 105.3348700 143.8374580  22.1349300 122.3232280
 144.3413600  21.5556580 122.8948510 143.0982000  22.4189530 122.8608650
 150.7398200  24.8563490 105.8778570 150.6348840  24.2415840 106.6039950
 150.5722420  24.3329380 105.0941580 150.8912520  23.5420290 121.8567800
 150.1258190  24.1105290 121.7722470 151.0728480  23.2496500 120.9636030
 145.8697660  20.2778890 123.2182350 145.9103000  19.9792760 124.1267580
 146.7243160  20.6786500 123.0589870 149.6476050  22.8774440 108.3785860
 150.0692470  22.7114310 109.2217250 149.7726890  22.0674670 107.8841000
 147.8103470  18.8570990 121.1856840 147.2799930  18.3661940 120.5580180
 148.4791540  19.2855190 120.6514770 152.1603690  21.9012050 105.6262960
 152.6809350  21.1861070 105.2604110 152.8072090  22.5397920 105.9263470
 148.2975770  15.8233360 121.2654130 148.2032640  15.2054110 120.5405000
 147.7173160  16.5499650 121.0384040 151.0637210  14.3806600 118.2981520
 150.6154510  14.4030860 117.4527070 150.4302410  13.9825620 118.8951820
 151.4696760  23.2760930 118.9193960 151.8884870  24.1193660 118.7470200
 150.5505390  23.4132970 118.6900740 148.5434950  18.9507670 105.3244020
 148.3424010  18.0875030 105.6857360 148.3727000  18.8641030 104.3865620
 149.3204180  29.5813940 120.0351690 148.7825270  30.3060000 119.7160390
 149.5738140  29.1044280 119.2449030 150.5729430  17.5498460 121.5607620
 151.1629120  17.2414310 122.2485440 149.7549670  17.0778210 121.7167520
 147.3417750  16.0508290 105.3121900 147.6443650  16.0575720 104.4041050
 148.0812340  15.7006150 105.8089560 152.1766390  30.8165150 120.2938340
 152.1025090  31.7200290 120.6010710 151.2745230  30.4977050 120.2660410
 150.5602680  14.9942910 106.2978100 150.2124680  14.3166900 105.7180550
 150.7615450  14.5332420 107.1121490 146.3647880  25.3550710 106.1451700
 146.8022750  25.8980380 106.8009280 146.8495610  24.5297660 106.1548040
 143.5793680  28.1439740 113.5971960 143.9096690  27.2760800 113.3650600
 144.0084680  28.3498260 114.4276920 148.1755600  26.4748750 111.2573930
 147.8751140  26.3513720 112.1577840 148.0693090  25.6157340 110.8489660
 144.0683890  29.0110330 116.3353590 143.6314880  29.1911130 117.1677740
 144.6361570  29.7684950 116.1935310 143.9008320  21.5230560 112.6942470
 143.2457160  21.2542200 112.0502170 144.7386270  21.4135040 112.2444450
 144.9384250  21.9083130 117.2345810 145.3057290  21.8210530 118.1141830
 144.3695070  21.1449680 117.1352670 144.4900250  18.8192220 121.1404230
 143.5956300  18.7858980 121.4797940 145.0297800  19.0179010 121.9055480
 143.1146400  18.7329490 108.6367800 142.2110480  18.9959690 108.4619460
 143.5987020  19.0040660 107.8567760 145.6573610  17.7895030 106.5462180
 146.3665310  17.3678250 106.0609460 144.9413550  17.8570260 105.9145530
 145.3047770  13.8434360 105.5864830 146.0275900  14.3843300 105.9046050
 145.5772290  13.5697780 104.7106370 144.9939960  13.0940550 115.4887450
 145.6416150  12.5437930 115.0482610 145.4141800  13.3483700 116.3103260
 144.7471960  13.2496220 118.2312770 144.3986780  13.7060040 118.9970950
 144.4159660  12.3553350 118.3135200 146.3536330  26.4215820 122.3965960
 146.3105960  26.0508730 123.2780420 146.4847340  27.3593390 122.5367780
 150.0542360  27.9775410 117.9975680 149.8133720  28.2449970 117.1106200
 150.9945000  28.1481140 118.0526540 145.4192600  12.7772420 121.5063540
 145.9675590  12.5960470 120.7429650 145.4847910  11.9866530 122.0419850
 146.1924360  29.3678070 119.5163740 145.5984680  29.2362770 120.2553780
 146.1848200  28.5316210 119.0505840 145.8236590  26.7336450 118.4671780
 145.0970650  26.1141740 118.3997730 145.8845740  27.1277060 117.5969860
 149.4281690  28.9481450 115.2521190 149.9446710  28.3368810 114.7269450
 150.0779070  29.4510230 115.7432200 152.1677190  29.8389940 116.0790170
 152.4555000  29.5844240 115.2023180 152.6800410  29.2867300 116.6695740
 144.1066590  30.0510840 111.6768540 143.9388630  29.4181520 112.3750430
 143.2401100  30.2570240 111.3262730 144.7294610  13.8827620 109.1800400
 145.4873970  13.9956500 108.6064430 144.2671780  14.7196820 109.1343830
 151.2708420  15.9966890 112.1702710 150.4582930  15.6223780 111.8298590
 151.7750060  15.2411970 112.4723900 145.7129290  28.7444070 109.1218680
 145.1876910  29.1252100 108.4180640 145.6373870  29.3694840 109.8428390
 147.1019760  14.4091670 107.7202370 147.6312520  13.6221470 107.5910320
 147.7348080  15.0882860 107.9537900 149.2957600  14.1466810 110.7747760
 148.6660340  13.4454120 110.9417890 148.7562740  14.9070940 110.5580920
 149.4213160  13.4250790 123.2100250 149.1397430  13.9284390 122.4461070
 149.8032860  12.6272540 122.8442380 148.3122260  30.6926450 107.9967930
 149.0441080  30.4085730 107.4491820 148.5715930  30.4539730 108.8867310
 147.4737050  26.8091180 108.0014260 146.8445930  27.2776280 108.5500090
 147.5884880  25.9640400 108.4360450 147.0770640  22.9495670  96.9100490
 146.2455520  22.6944380  97.3097000 147.6851620  23.0206440  97.6458410
 147.0571900  26.9835760  97.1058510 147.3599940  26.0933500  96.9268730
 147.8015490  27.5405980  96.8780760 145.4862590  17.9097560  90.6942880
 144.5979290  18.2513530  90.5922760 145.7703780  17.7097880  89.8023710
 143.4495600  20.5103210  96.5782580 144.0211710  19.7425410  96.5786220
 143.4497140  20.8091970  95.6689190 144.6920470  15.9187570  98.3651510
 144.5123310  15.0213320  98.6454270 144.2900550  16.4659440  99.0398460
 147.6623980  16.4929060  91.7281260 147.7690730  17.3932790  92.0350020
 146.7516340  16.4447030  91.4375910 145.3107140  18.4148070  96.9733850
 145.9917250  18.6786440  97.5921250 144.9955190  17.5748940  97.3071860
 149.5031710  19.4615430  96.0606440 150.0109930  19.9596400  96.7011460
 150.0344950  18.6850630  95.8845800 147.7867810  14.1013990 100.3269860
 147.7886250  14.6186380  99.5215760 146.9572120  13.6244170 100.3039790
 149.0370660  23.7409170  98.5043360 148.7040040  24.3678090  99.1464430
 149.2137340  24.2671050  97.7245030 147.4683140  15.8123950  98.3340310
 147.8099950  16.6566000  98.0394180 146.5298950  15.9607690  98.4505650
 148.2489760  25.7089970 100.3192540 148.8663760  26.3841050 100.0376990
 147.3882880  26.1177950 100.2280040 143.5422100  24.8989830  89.1999390
 143.1650080  25.3876930  88.4684290 143.7995170  25.5715110  89.8305920
 151.1511030  13.3006220  94.6584900 151.4586010  12.7453110  93.9420400
 150.2211730  13.4350680  94.4757890 149.1448430  21.8919790  94.1764750
 148.7405430  21.1797040  93.6810650 149.2311550  21.5473030  95.0652790
 149.6130130  25.5787350  96.3403960 149.3158420  24.9732820  95.6611740
 150.5629950  25.6164660  96.2293320 147.8577050  18.6663000  97.9563790
 148.4091640  18.7758340  97.1817040 148.3720560  19.0400600  98.6719020
 148.7048560  25.3169040 102.9911760 147.8077090  25.5409010 103.2385160
 148.7301430  25.4403980 102.0423160 147.5319780  22.1882360 101.5669130
 147.3927550  23.0605160 101.9356530 146.6501140  21.8455170 101.4217070
 149.3300130  28.1304060 103.7754280 149.3015560  28.5347010 102.9082710
 149.1665100  27.2014420 103.6125880 145.8453060  20.7864770  91.6771400
 145.7250660  21.5126860  91.0652670 145.5353950  20.0167680  91.1999310
 143.4838430  23.9579910  97.4840040 143.5618850  24.0928680  96.5395760
 144.0980110  23.2495800  97.6768160 144.7286060  25.6580100  93.8946220
 144.3214140  25.7994690  93.0399820 145.6199070  25.3740260  93.6917430
 149.0007720  29.8725880  92.0068890 148.8250200  28.9561420  91.7936690
 148.1463460  30.2313170  92.2466690 143.5397950  24.9994080 100.0234500
 143.7028990  24.5299440  99.2053870 144.0050400  24.4917640 100.6883340
 148.3116720  14.1299840  95.0595070 147.8684870  14.9109380  94.7279590
 148.8701710  14.4529730  95.7666010 152.5986530  16.9968360 100.6630390
 152.1365900  17.2051380 101.4750330 152.1964640  16.1827710 100.3601060
 151.4275540  13.7510540  89.9400900 150.8029720  13.7470410  90.6654210
 151.3405660  12.8841500  89.5436870 150.3492620  14.6747170  96.9184670
 150.6464950  15.5810000  96.8376690 150.8978180  14.1865950  96.3044240
 148.1030940  19.2533410  92.7876320 147.8771860  19.0370580  93.6922940
 147.3223470  19.6861870  92.4422290 150.5430150  20.1518990 103.4536590
 150.4473750  19.2113720 103.3036990 151.3862130  20.3734060 103.0584660
 145.6740690  16.5632660 101.6070370 145.2804080  17.4107870 101.8143150
 144.9859090  15.9259030 101.7979010 152.2485740  16.6467630 104.6767110
 151.5584060  16.4539830 105.3113200 152.9918040  16.9302270 105.2091410
 142.9757740  14.4861120  95.6400450 142.6870790  15.0563980  96.3525430
 143.7203500  14.0065570  96.0031680 143.1627970  18.4281240  86.8503170
 143.0802640  19.3712000  86.9918160 142.8111030  18.2856150  85.9715520
 150.9626100  17.1620270  95.9173520 150.9662160  16.7210220  95.0678060
 151.8577220  17.4837600  96.0245340 146.8128480  17.0446760  94.8767730
 146.4728530  17.5221990  95.6334780 146.0505800  16.5911880  94.5168830
 151.0246250  18.1632350  88.9080280 151.1459070  18.1218830  89.8566100
 150.6394760  19.0256500  88.7527010 150.0367750  20.4733490  88.3063580
 149.4684650  20.0251740  87.6799490 150.7456750  20.8326270  87.7728730
 145.1136930  24.3745510 102.1830310 144.7291720  23.7339180 102.7813270
 145.4249120  25.0781630 102.7525040 151.2634070  21.2222050  97.6638930
 151.6304200  20.7480620  98.4100270 151.0739130  22.0963620  98.0047270
 144.1274560  15.9665740  93.7932400 143.8421480  15.6021410  94.6311020
 144.0653420  15.2346200  93.1795540 149.0533440  20.2630690  99.9823140
 148.7490510  21.1422670 100.2073500 150.0079900  20.3230480 100.0180580
 147.5815230  24.4691680  90.5789990 146.8077490  23.9289300  90.4188710
 148.3109860  23.9498290  90.2407750 147.6252630  24.1372060  94.2168800
 148.1431300  23.3340320  94.1625690 147.1736650  24.0751200  95.0585630
 152.5122130  25.4038340  89.4896100 152.8537830  26.1480570  88.9939420
 151.6834840  25.7169460  89.8520930 145.1097170  21.1033430 101.1294500
 144.7512110  21.7687280 101.7167840 144.8151730  20.2716980 101.5007120
 148.3110290  21.5617670 104.0134050 148.0110430  21.7074850 103.1161870
 149.0821530  21.0022960 103.9207440 151.4812820  25.4851870  92.2612020
 152.1683950  26.0321080  92.6419610 150.6945240  26.0292600  92.2961630
 143.6205220  21.1024690  87.7529100 144.4900070  21.3849490  88.0365020
 143.1295540  21.9160560  87.6377910 150.7840030  22.4897900  91.8737380
 151.2402810  23.3003150  92.0997570 150.4328240  22.1721040  92.7055870
 146.6851810  12.8335550  92.3459900 146.5566440  12.8253450  93.2944820
 145.8613830  13.1718640  91.9950910 143.9876470  30.3152070  88.3190730
 144.3474110  30.9141410  87.6648000 143.8468810  30.8611960  89.0925760
 143.6845740  14.5926670 101.8066600 142.9704260  14.7923590 102.4119210
 144.1040780  13.8166240 102.1781400 143.9718330  28.5806930 102.7933130
 144.0809450  27.6401670 102.6528520 143.3198890  28.8461680 102.1446860
 151.9630920  26.8522820 104.1931250 151.6427790  26.1332060 104.7376940
 151.2889280  27.5277890 104.2667310 150.0045090  27.6983270  89.1364400
 149.9955190  28.4312960  88.5208910 149.0843450  27.4514850  89.2291360
 145.6051730  22.9198160  89.8811160 144.9979680  23.6597060  89.8906460
 146.0801080  23.0097520  89.0549360 152.9904690  27.7611510  87.7989590
 153.0916670  27.5575500  86.8691570 152.0906430  27.5069790  88.0037370
 150.5130580  18.3191870  91.7813490 149.8046730  18.7878210  92.2227100
 150.7975060  17.6613880  92.4158680 152.1386510  19.7388570  99.7806020
 152.6371760  20.2134390 100.4457870 152.2809460  18.8152090  99.9876050
 151.6322800  30.2797830  92.4937260 151.8864300  30.2419220  91.5716630
 150.6835280  30.1531160  92.4865510 148.7165600  16.6276950  89.1564200
 149.5656130  17.0647100  89.0904390 148.3496870  16.9397210  89.9836260
 147.6157020  22.8809310  87.6299730 148.3820290  22.7690670  88.1925160
 147.6931710  22.1847280  86.9776500 146.3103780  20.3134380  88.3132620
 146.3907370  19.3661890  88.4250020 147.2023530  20.6441260  88.4193280
 147.1118490  30.4629770  95.4167160 147.8480970  29.9145230  95.6875730
 147.4959410  31.3285780  95.2773150 143.9963970  26.5303340  91.2908670
 143.0703750  26.7724480  91.2814080 144.4620400  27.3577600  91.1693420
 146.1176770  29.6475840 104.6052740 146.9189500  29.9687890 105.0188140
 145.6028590  29.2871420 105.3272650 150.2220800  29.6360080  87.2392730
 151.0149410  29.9248910  86.7874520 149.7025150  29.2052250  86.5605210
 143.8374580  22.1349300 103.5488790 144.3413600  21.5556580 104.1205020
 143.0982000  22.4189530 104.0865160 150.7398200  24.8563490  87.1035080
 150.6348840  24.2415840  87.8296460 150.5722420  24.3329380  86.3198090
 150.8912520  23.5420290 103.0824310 150.1258190  24.1105290 102.9978980
 151.0728480  23.2496500 102.1892540 145.8697660  20.2778890 104.4438860
 145.9103000  19.9792760 105.3524090 146.7243160  20.6786500 104.2846380
 149.6476050  22.8774440  89.6042370 150.0692470  22.7114310  90.4473760
 149.7726890  22.0674670  89.1097510 147.8103470  18.8570990 102.4113350
 147.2799930  18.3661940 101.7836690 148.4791540  19.2855190 101.8771280
 152.1603690  21.9012050  86.8519470 152.6809350  21.1861070  86.4860620
 152.8072090  22.5397920  87.1519980 148.2975770  15.8233360 102.4910640
 148.2032640  15.2054110 101.7661510 147.7173160  16.5499650 102.2640550
 151.0637210  14.3806600  99.5238030 150.6154510  14.4030860  98.6783580
 150.4302410  13.9825620 100.1208330 151.4696760  23.2760930 100.1450470
 151.8884870  24.1193660  99.9726710 150.5505390  23.4132970  99.9157250
 148.5434950  18.9507670  86.5500530 148.3424010  18.0875030  86.9113870
 148.3727000  18.8641030  85.6122130 149.3204180  29.5813940 101.2608200
 148.7825270  30.3060000 100.9416900 149.5738140  29.1044280 100.4705540
 150.5729430  17.5498460 102.7864130 151.1629120  17.2414310 103.4741950
 149.7549670  17.0778210 102.9424030 147.3417750  16.0508290  86.5378410
 147.6443650  16.0575720  85.6297560 148.0812340  15.7006150  87.0346070
 152.1766390  30.8165150 101.5194850 152.1025090  31.7200290 101.8267220
 151.2745230  30.4977050 101.4916920 150.5602680  14.9942910  87.5234610
 150.2124680  14.3166900  86.9437060 150.7615450  14.5332420  88.3378000
 146.3647880  25.3550710  87.3708210 146.8022750  25.8980380  88.0265790
 146.8495610  24.5297660  87.3804550 143.5793680  28.1439740  94.8228470
 143.9096690  27.2760800  94.5907110 144.0084680  28.3498260  95.6533430
 148.1755600  26.4748750  92.4830440 147.8751140  26.3513720  93.3834350
 148.0693090  25.6157340  92.0746170 144.0683890  29.0110330  97.5610100
 143.6314880  29.1911130  98.3934250 144.6361570  29.7684950  97.4191820
 143.9008320  21.5230560  93.9198980 143.2457160  21.2542200  93.2758680
 144.7386270  21.4135040  93.4700960 144.9384250  21.9083130  98.4602320
 145.3057290  21.8210530  99.3398340 144.3695070  21.1449680  98.3609180
 144.4900250  18.8192220 102.3660740 143.5956300  18.7858980 102.7054450
 145.0297800  19.0179010 103.1311990 143.1146400  18.7329490  89.8624310
 142.2110480  18.9959690  89.6875970 143.5987020  19.0040660  89.0824270
 145.6573610  17.7895030  87.7718690 146.3665310  17.3678250  87.2865970
 144.9413550  17.8570260  87.1402040 145.3047770  13.8434360  86.8121340
 146.0275900  14.3843300  87.1302560 145.5772290  13.5697780  85.9362880
 144.9939960  13.0940550  96.7143960 145.6416150  12.5437930  96.2739120
 145.4141800  13.3483700  97.5359770 144.7471960  13.2496220  99.4569280
 144.3986780  13.7060040 100.2227460 144.4159660  12.3553350  99.5391710
 146.3536330  26.4215820 103.6222470 146.3105960  26.0508730 104.5036930
 146.4847340  27.3593390 103.7624290 150.0542360  27.9775410  99.2232190
 149.8133720  28.2449970  98.3362710 150.9945000  28.1481140  99.2783050
 145.4192600  12.7772420 102.7320050 145.9675590  12.5960470 101.9686160
 145.4847910  11.9866530 103.2676360 146.1924360  29.3678070 100.7420250
 145.5984680  29.2362770 101.4810290 146.1848200  28.5316210 100.2762350
 145.8236590  26.7336450  99.6928290 145.0970650  26.1141740  99.6254240
 145.8845740  27.1277060  98.8226370 149.4281690  28.9481450  96.4777700
 149.9446710  28.3368810  95.9525960 150.0779070  29.4510230  96.9688710
 152.1677190  29.8389940  97.3046680 152.4555000  29.5844240  96.4279690
 152.6800410  29.2867300  97.8952250 144.1066590  30.0510840  92.9025050
 143.9388630  29.4181520  93.6006940 143.2401100  30.2570240  92.5519240
 144.7294610  13.8827620  90.4056910 145.4873970  13.9956500  89.8320940
 144.2671780  14.7196820  90.3600340 151.2708420  15.9966890  93.3959220
 150.4582930  15.6223780  93.0555100 151.7750060  15.2411970  93.6980410
 145.7129290  28.7444070  90.3475190 145.1876910  29.1252100  89.6437150
 145.6373870  29.3694840  91.0684900 147.1019760  14.4091670  88.9458880
 147.6312520  13.6221470  88.8166830 147.7348080  15.0882860  89.1794410
 149.2957600  14.1466810  92.0004270 148.6660340  13.4454120  92.1674400
 148.7562740  14.9070940  91.7837430 149.4213160  13.4250790 104.4356760
 149.1397430  13.9284390 103.6717580 149.8032860  12.6272540 104.0698890
 148.3122260  30.6926450  89.2224440 149.0441080  30.4085730  88.6748330
 148.5715930  30.4539730  90.1123820 147.4737050  26.8091180  89.2270770
 146.8445930  27.2776280  89.7756600 147.5884880  25.9640400  89.6616960
 147.0770640  22.9495670  78.1357000 146.2455520  22.6944380  78.5353510
 147.6851620  23.0206440  78.8714920 147.0571900  26.9835760  78.3315020
 147.3599940  26.0933500  78.1525240 147.8015490  27.5405980  78.1037270
 145.4862590  17.9097560  71.9199390 144.5979290  18.2513530  71.8179270
 145.7703780  17.7097880  71.0280220 143.4495600  20.5103210  77.8039090
 144.0211710  19.7425410  77.8042730 143.4497140  20.8091970  76.8945700
 144.6920470  15.9187570  79.5908020 144.5123310  15.0213320  79.8710780
 144.2900550  16.4659440  80.2654970 147.6623980  16.4929060  72.9537770
 147.7690730  17.3932790  73.2606530 146.7516340  16.4447030  72.6632420
 145.3107140  18.4148070  78.1990360 145.9917250  18.6786440  78.8177760
 144.9955190  17.5748940  78.5328370 149.5031710  19.4615430  77.2862950
 150.0109930  19.9596400  77.9267970 150.0344950  18.6850630  77.1102310
 147.7867810  14.1013990  81.5526370 147.7886250  14.6186380  80.7472270
 146.9572120  13.6244170  81.5296300 149.0370660  23.7409170  79.7299870
 148.7040040  24.3678090  80.3720940 149.2137340  24.2671050  78.9501540
 147.4683140  15.8123950  79.5596820 147.8099950  16.6566000  79.2650690
 146.5298950  15.9607690  79.6762160 148.2489760  25.7089970  81.5449050
 148.8663760  26.3841050  81.2633500 147.3882880  26.1177950  81.4536550
 143.5422100  24.8989830  70.4255900 143.1650080  25.3876930  69.6940800
 143.7995170  25.5715110  71.0562430 151.1511030  13.3006220  75.8841410
 151.4586010  12.7453110  75.1676910 150.2211730  13.4350680  75.7014400
 149.1448430  21.8919790  75.4021260 148.7405430  21.1797040  74.9067160
 149.2311550  21.5473030  76.2909300 149.6130130  25.5787350  77.5660470
 149.3158420  24.9732820  76.8868250 150.5629950  25.6164660  77.4549830
 147.8577050  18.6663000  79.1820300 148.4091640  18.7758340  78.4073550
 148.3720560  19.0400600  79.8975530 148.7048560  25.3169040  84.2168270
 147.8077090  25.5409010  84.4641670 148.7301430  25.4403980  83.2679670
 147.5319780  22.1882360  82.7925640 147.3927550  23.0605160  83.1613040
 146.6501140  21.8455170  82.6473580 149.3300130  28.1304060  85.0010790
 149.3015560  28.5347010  84.1339220 149.1665100  27.2014420  84.8382390
 145.8453060  20.7864770  72.9027910 145.7250660  21.5126860  72.2909180
 145.5353950  20.0167680  72.4255820 143.4838430  23.9579910  78.7096550
 143.5618850  24.0928680  77.7652270 144.0980110  23.2495800  78.9024670
 144.7286060  25.6580100  75.1202730 144.3214140  25.7994690  74.2656330
 145.6199070  25.3740260  74.9173940 149.0007720  29.8725880  73.2325400
 148.8250200  28.9561420  73.0193200 148.1463460  30.2313170  73.4723200
 143.5397950  24.9994080  81.2491010 143.7028990  24.5299440  80.4310380
 144.0050400  24.4917640  81.9139850 148.3116720  14.1299840  76.2851580
 147.8684870  14.9109380  75.9536100 148.8701710  14.4529730  76.9922520
 152.5986530  16.9968360  81.8886900 152.1365900  17.2051380  82.7006840
 152.1964640  16.1827710  81.5857570 151.4275540  13.7510540  71.1657410
 150.8029720  13.7470410  71.8910720 151.3405660  12.8841500  70.7693380
 150.3492620  14.6747170  78.1441180 150.6464950  15.5810000  78.0633200
 150.8978180  14.1865950  77.5300750 148.1030940  19.2533410  74.0132830
 147.8771860  19.0370580  74.9179450 147.3223470  19.6861870  73.6678800
 150.5430150  20.1518990  84.6793100 150.4473750  19.2113720  84.5293500
 151.3862130  20.3734060  84.2841170 145.6740690  16.5632660  82.8326880
 145.2804080  17.4107870  83.0399660 144.9859090  15.9259030  83.0235520
 152.2485740  16.6467630  85.9023620 151.5584060  16.4539830  86.5369710
 152.9918040  16.9302270  86.4347920 142.9757740  14.4861120  76.8656960
 142.6870790  15.0563980  77.5781940 143.7203500  14.0065570  77.2288190
 143.1627970  18.4281240  68.0759680 143.0802640  19.3712000  68.2174670
 142.8111030  18.2856150  67.1972030 150.9626100  17.1620270  77.1430030
 150.9662160  16.7210220  76.2934570 151.8577220  17.4837600  77.2501850
 146.8128480  17.0446760  76.1024240 146.4728530  17.5221990  76.8591290
 146.0505800  16.5911880  75.7425340 151.0246250  18.1632350  70.1336790
 151.1459070  18.1218830  71.0822610 150.6394760  19.0256500  69.9783520
 150.0367750  20.4733490  69.5320090 149.4684650  20.0251740  68.9056000
 150.7456750  20.8326270  68.9985240 145.1136930  24.3745510  83.4086820
 144.7291720  23.7339180  84.0069780 145.4249120  25.0781630  83.9781550
 151.2634070  21.2222050  78.8895440 151.6304200  20.7480620  79.6356780
 151.0739130  22.0963620  79.2303780 144.1274560  15.9665740  75.0188910
 143.8421480  15.6021410  75.8567530 144.0653420  15.2346200  74.4052050
 149.0533440  20.2630690  81.2079650 148.7490510  21.1422670  81.4330010
 150.0079900  20.3230480  81.2437090 147.5815230  24.4691680  71.8046500
 146.8077490  23.9289300  71.6445220 148.3109860  23.9498290  71.4664260
 147.6252630  24.1372060  75.4425310 148.1431300  23.3340320  75.3882200
 147.1736650  24.0751200  76.2842140 152.5122130  25.4038340  70.7152610
 152.8537830  26.1480570  70.2195930 151.6834840  25.7169460  71.0777440
 145.1097170  21.1033430  82.3551010 144.7512110  21.7687280  82.9424350
 144.8151730  20.2716980  82.7263630 148.3110290  21.5617670  85.2390560
 148.0110430  21.7074850  84.3418380 149.0821530  21.0022960  85.1463950
 151.4812820  25.4851870  73.4868530 152.1683950  26.0321080  73.8676120
 150.6945240  26.0292600  73.5218140 143.6205220  21.1024690  68.9785610
 144.4900070  21.3849490  69.2621530 143.1295540  21.9160560  68.8634420
 150.7840030  22.4897900  73.0993890 151.2402810  23.3003150  73.3254080
 150.4328240  22.1721040  73.9312380 146.6851810  12.8335550  73.5716410
 146.5566440  12.8253450  74.5201330 145.8613830  13.1718640  73.2207420
 143.9876470  30.3152070  69.5447240 144.3474110  30.9141410  68.8904510
 143.8468810  30.8611960  70.3182270 143.6845740  14.5926670  83.0323110
 142.9704260  14.7923590  83.6375720 144.1040780  13.8166240  83.4037910
 143.9718330  28.5806930  84.0189640 144.0809450  27.6401670  83.8785030
 143.3198890  28.8461680  83.3703370 151.9630920  26.8522820  85.4187760
 151.6427790  26.1332060  85.9633450 151.2889280  27.5277890  85.4923820
 150.0045090  27.6983270  70.3620910 149.9955190  28.4312960  69.7465420
 149.0843450  27.4514850  70.4547870 145.6051730  22.9198160  71.1067670
 144.9979680  23.6597060  71.1162970 146.0801080  23.0097520  70.2805870
 152.9904690  27.7611510  69.0246100 153.0916670  27.5575500  68.0948080
 152.0906430  27.5069790  69.2293880 150.5130580  18.3191870  73.0070000
 149.8046730  18.7878210  73.4483610 150.7975060  17.6613880  73.6415190
 152.1386510  19.7388570  81.0062530 152.6371760  20.2134390  81.6714380
 152.2809460  18.8152090  81.2132560 151.6322800  30.2797830  73.7193770
 151.8864300  30.2419220  72.7973140 150.6835280  30.1531160  73.7122020
 148.7165600  16.6276950  70.3820710 149.5656130  17.0647100  70.3160900
 148.3496870  16.9397210  71.2092770 147.6157020  22.8809310  68.8556240
 148.3820290  22.7690670  69.4181670 147.6931710  22.1847280  68.2033010
 146.3103780  20.3134380  69.5389130 146.3907370  19.3661890  69.6506530
 147.2023530  20.6441260  69.6449790 147.1118490  30.4629770  76.6423670
 147.8480970  29.9145230  76.9132240 147.4959410  31.3285780  76.5029660
 143.9963970  26.5303340  72.5165180 143.0703750  26.7724480  72.5070590
 144.4620400  27.3577600  72.3949930 146.1176770  29.6475840  85.8309250
 146.9189500  29.9687890  86.2444650 145.6028590  29.2871420  86.5529160
 150.2220800  29.6360080  68.4649240 151.0149410  29.9248910  68.0131030
 149.7025150  29.2052250  67.7861720 143.8374580  22.1349300  84.7745300
 144.3413600  21.5556580  85.3461530 143.0982000  22.4189530  85.3121670
 150.7398200  24.8563490  68.3291590 150.6348840  24.2415840  69.0552970
 150.5722420  24.3329380  67.5454600 150.8912520  23.5420290  84.3080820
 150.1258190  24.1105290  84.2235490 151.0728480  23.2496500  83.4149050
 145.8697660  20.2778890  85.6695370 145.9103000  19.9792760  86.5780600
 146.7243160  20.6786500  85.5102890 149.6476050  22.8774440  70.8298880
 150.0692470  22.7114310  71.6730270 149.7726890  22.0674670  70.3354020
 147.8103470  18.8570990  83.6369860 147.2799930  18.3661940  83.0093200
 148.4791540  19.2855190  83.1027790 152.1603690  21.9012050  68.0775980
 152.6809350  21.1861070  67.7117130 152.8072090  22.5397920  68.3776490
 148.2975770  15.8233360  83.7167150 148.2032640  15.2054110  82.9918020
 147.7173160  16.5499650  83.4897060 151.0637210  14.3806600  80.7494540
 150.6154510  14.4030860  79.9040090 150.4302410  13.9825620  81.3464840
 151.4696760  23.2760930  81.3706980 151.8884870  24.1193660  81.1983220
 150.5505390  23.4132970  81.1413760 148.5434950  18.9507670  67.7757040
 148.3424010  18.0875030  68.1370380 148.3727000  18.8641030  66.8378640
 149.3204180  29.5813940  82.4864710 148.7825270  30.3060000  82.1673410
 149.5738140  29.1044280  81.6962050 150.5729430  17.5498460  84.0120640
 151.1629120  17.2414310  84.6998460 149.7549670  17.0778210  84.1680540
 147.3417750  16.0508290  67.7634920 147.6443650  16.0575720  66.8554070
 148.0812340  15.7006150  68.2602580 152.1766390  30.8165150  82.7451360
 152.1025090  31.7200290  83.0523730 151.2745230  30.4977050  82.7173430
 150.5602680  14.9942910  68.7491120 150.2124680  14.3166900  68.1693570
 150.7615450  14.5332420  69.5634510 146.3647880  25.3550710  68.5964720
 146.8022750  25.8980380  69.2522300 146.8495610  24.5297660  68.6061060
 143.5793680  28.1439740  76.0484980 143.9096690  27.2760800  75.8163620
 144.0084680  28.3498260  76.8789940 148.1755600  26.4748750  73.7086950
 147.8751140  26.3513720  74.6090860 148.0693090  25.6157340  73.3002680
 144.0683890  29.0110330  78.7866610 143.6314880  29.1911130  79.6190760
 144.6361570  29.7684950  78.6448330 143.9008320  21.5230560  75.1455490
 143.2457160  21.2542200  74.5015190 144.7386270  21.4135040  74.6957470
 144.9384250  21.9083130  79.6858830 145.3057290  21.8210530  80.5654850
 144.3695070  21.1449680  79.5865690 144.4900250  18.8192220  83.5917250
 143.5956300  18.7858980  83.9310960 145.0297800  19.0179010  84.3568500
 143.1146400  18.7329490  71.0880820 142.2110480  18.9959690  70.9132480
 143.5987020  19.0040660  70.3080780 145.6573610  17.7895030  68.9975200
 146.3665310  17.3678250  68.5122480 144.9413550  17.8570260  68.3658550
 145.3047770  13.8434360  68.0377850 146.0275900  14.3843300  68.3559070
 145.5772290  13.5697780  67.1619390 144.9939960  13.0940550  77.9400470
 145.6416150  12.5437930  77.4995630 145.4141800  13.3483700  78.7616280
 144.7471960  13.2496220  80.6825790 144.3986780  13.7060040  81.4483970
 144.4159660  12.3553350  80.7648220 146.3536330  26.4215820  84.8478980
 146.3105960  26.0508730  85.7293440 146.4847340  27.3593390  84.9880800
 150.0542360  27.9775410  80.4488700 149.8133720  28.2449970  79.5619220
 150.9945000  28.1481140  80.5039560 145.4192600  12.7772420  83.9576560
 145.9675590  12.5960470  83.1942670 145.4847910  11.9866530  84.4932870
 146.1924360  29.3678070  81.9676760 145.5984680  29.2362770  82.7066800
 146.1848200  28.5316210  81.5018860 145.8236590  26.7336450  80.9184800
 145.0970650  26.1141740  80.8510750 145.8845740  27.1277060  80.0482880
 149.4281690  28.9481450  77.7034210 149.9446710  28.3368810  77.1782470
 150.0779070  29.4510230  78.1945220 152.1677190  29.8389940  78.5303190
 152.4555000  29.5844240  77.6536200 152.6800410  29.2867300  79.1208760
 144.1066590  30.0510840  74.1281560 143.9388630  29.4181520  74.8263450
 143.2401100  30.2570240  73.7775750 144.7294610  13.8827620  71.6313420
 145.4873970  13.9956500  71.0577450 144.2671780  14.7196820  71.5856850
 151.2708420  15.9966890  74.6215730 150.4582930  15.6223780  74.2811610
 151.7750060  15.2411970  74.9236920 145.7129290  28.7444070  71.5731700
 145.1876910  29.1252100  70.8693660 145.6373870  29.3694840  72.2941410
 147.1019760  14.4091670  70.1715390 147.6312520  13.6221470  70.0423340
 147.7348080  15.0882860  70.4050920 149.2957600  14.1466810  73.2260780
 148.6660340  13.4454120  73.3930910 148.7562740  14.9070940  73.0093940
 149.4213160  13.4250790  85.6613270 149.1397430  13.9284390  84.8974090
 149.8032860  12.6272540  85.2955400 148.3122260  30.6926450  70.4480950
 149.0441080  30.4085730  69.9004840 148.5715930  30.4539730  71.3380330
 147.4737050  26.8091180  70.4527280 146.8445930  27.2776280  71.0013110
 147.5884880  25.9640400  70.8873470 147.0770640  22.9495670  59.3613510
 146.2455520  22.6944380  59.7610020 147.6851620  23.0206440  60.0971430
 147.0571900  26.9835760  59.5571530 147.3599940  26.0933500  59.3781750
 147.8015490  27.5405980  59.3293780 145.4862590  17.9097560  53.1455900
 144.5979290  18.2513530  53.0435780 145.7703780  17.7097880  52.2536730
 143.4495600  20.5103210  59.0295600 144.0211710  19.7425410  59.0299240
 143.4497140  20.8091970  58.1202210 144.6920470  15.9187570  60.8164530
 144.5123310  15.0213320  61.0967290 144.2900550  16.4659440  61.4911480
 147.6623980  16.4929060  54.1794280 147.7690730  17.3932790  54.4863040
 146.7516340  16.4447030  53.8888930 145.3107140  18.4148070  59.4246870
 145.9917250  18.6786440  60.0434270 144.9955190  17.5748940  59.7584880
 149.5031710  19.4615430  58.5119460 150.0109930  19.9596400  59.1524480
 150.0344950  18.6850630  58.3358820 147.7867810  14.1013990  62.7782880
 147.7886250  14.6186380  61.9728780 146.9572120  13.6244170  62.7552810
 149.0370660  23.7409170  60.9556380 148.7040040  24.3678090  61.5977450
 149.2137340  24.2671050  60.1758050 147.4683140  15.8123950  60.7853330
 147.8099950  16.6566000  60.4907200 146.5298950  15.9607690  60.9018670
 148.2489760  25.7089970  62.7705560 148.8663760  26.3841050  62.4890010
 147.3882880  26.1177950  62.6793060 143.5422100  24.8989830  51.6512410
 143.1650080  25.3876930  50.9197310 143.7995170  25.5715110  52.2818940
 151.1511030  13.3006220  57.1097920 151.4586010  12.7453110  56.3933420
 150.2211730  13.4350680  56.9270910 149.1448430  21.8919790  56.6277770
 148.7405430  21.1797040  56.1323670 149.2311550  21.5473030  57.5165810
 149.6130130  25.5787350  58.7916980 149.3158420  24.9732820  58.1124760
 150.5629950  25.6164660  58.6806340 147.8577050  18.6663000  60.4076810
 148.4091640  18.7758340  59.6330060 148.3720560  19.0400600  61.1232040
 148.7048560  25.3169040  65.4424780 147.8077090  25.5409010  65.6898180
 148.7301430  25.4403980  64.4936180 147.5319780  22.1882360  64.0182150
 147.3927550  23.0605160  64.3869550 146.6501140  21.8455170  63.8730090
 149.3300130  28.1304060  66.2267300 149.3015560  28.5347010  65.3595730
 149.1665100  27.2014420  66.0638900 145.8453060  20.7864770  54.1284420
 145.7250660  21.5126860  53.5165690 145.5353950  20.0167680  53.6512330
 143.4838430  23.9579910  59.9353060 143.5618850  24.0928680  58.9908780
 144.0980110  23.2495800  60.1281180 144.7286060  25.6580100  56.3459240
 144.3214140  25.7994690  55.4912840 145.6199070  25.3740260  56.1430450
 149.0007720  29.8725880  54.4581910 148.8250200  28.9561420  54.2449710
 148.1463460  30.2313170  54.6979710 143.5397950  24.9994080  62.4747520
 143.7028990  24.5299440  61.6566890 144.0050400  24.4917640  63.1396360
 148.3116720  14.1299840  57.5108090 147.8684870  14.9109380  57.1792610
 148.8701710  14.4529730  58.2179030 152.5986530  16.9968360  63.1143410
 152.1365900  17.2051380  63.9263350 152.1964640  16.1827710  62.8114080
 151.4275540  13.7510540  52.3913920 150.8029720  13.7470410  53.1167230
 151.3405660  12.8841500  51.9949890 150.3492620  14.6747170  59.3697690
 150.6464950  15.5810000  59.2889710 150.8978180  14.1865950  58.7557260
 148.1030940  19.2533410  55.2389340 147.8771860  19.0370580  56.1435960
 147.3223470  19.6861870  54.8935310 150.5430150  20.1518990  65.9049610
 150.4473750  19.2113720  65.7550010 151.3862130  20.3734060  65.5097680
 145.6740690  16.5632660  64.0583390 145.2804080  17.4107870  64.2656170
 144.9859090  15.9259030  64.2492030 152.2485740  16.6467630  67.1280130
 151.5584060  16.4539830  67.7626220 152.9918040  16.9302270  67.6604430
 142.9757740  14.4861120  58.0913470 142.6870790  15.0563980  58.8038450
 143.7203500  14.0065570  58.4544700 143.1627970  18.4281240  49.3016190
 143.0802640  19.3712000  49.4431180 142.8111030  18.2856150  48.4228540
 150.9626100  17.1620270  58.3686540 150.9662160  16.7210220  57.5191080
 151.8577220  17.4837600  58.4758360 146.8128480  17.0446760  57.3280750
 146.4728530  17.5221990  58.0847800 146.0505800  16.5911880  56.9681850
 151.0246250  18.1632350  51.3593300 151.1459070  18.1218830  52.3079120
 150.6394760  19.0256500  51.2040030 150.0367750  20.4733490  50.7576600
 149.4684650  20.0251740  50.1312510 150.7456750  20.8326270  50.2241750
 145.1136930  24.3745510  64.6343330 144.7291720  23.7339180  65.2326290
 145.4249120  25.0781630  65.2038060 151.2634070  21.2222050  60.1151950
 151.6304200  20.7480620  60.8613290 151.0739130  22.0963620  60.4560290
 144.1274560  15.9665740  56.2445420 143.8421480  15.6021410  57.0824040
 144.0653420  15.2346200  55.6308560 149.0533440  20.2630690  62.4336160
 148.7490510  21.1422670  62.6586520 150.0079900  20.3230480  62.4693600
 147.5815230  24.4691680  53.0303010 146.8077490  23.9289300  52.8701730
 148.3109860  23.9498290  52.6920770 147.6252630  24.1372060  56.6681820
 148.1431300  23.3340320  56.6138710 147.1736650  24.0751200  57.5098650
 152.5122130  25.4038340  51.9409120 152.8537830  26.1480570  51.4452440
 151.6834840  25.7169460  52.3033950 145.1097170  21.1033430  63.5807520
 144.7512110  21.7687280  64.1680860 144.8151730  20.2716980  63.9520140
 148.3110290  21.5617670  66.4647070 148.0110430  21.7074850  65.5674890
 149.0821530  21.0022960  66.3720460 151.4812820  25.4851870  54.7125040
 152.1683950  26.0321080  55.0932630 150.6945240  26.0292600  54.7474650
 143.6205220  21.1024690  50.2042120 144.4900070  21.3849490  50.4878040
 143.1295540  21.9160560  50.0890930 150.7840030  22.4897900  54.3250400
 151.2402810  23.3003150  54.5510590 150.4328240  22.1721040  55.1568890
 146.6851810  12.8335550  54.7972920 146.5566440  12.8253450  55.7457840
 145.8613830  13.1718640  54.4463930 143.9876470  30.3152070  50.7703750
 144.3474110  30.9141410  50.1161020 143.8468810  30.8611960  51.5438780
 143.6845740  14.5926670  64.2579620 142.9704260  14.7923590  64.8632230
 144.1040780  13.8166240  64.6294420 143.9718330  28.5806930  65.2446150
 144.0809450  27.6401670  65.1041540 143.3198890  28.8461680  64.5959880
 151.9630920  26.8522820  66.6444270 151.6427790  26.1332060  67.1889960
 151.2889280  27.5277890  66.7180330 150.0045090  27.6983270  51.5877420
 149.9955190  28.4312960  50.9721930 149.0843450  27.4514850  51.6804380
 145.6051730  22.9198160  52.3324180 144.9979680  23.6597060  52.3419480
 146.0801080  23.0097520  51.5062380 152.9904690  27.7611510  50.2502610
 153.0916670  27.5575500  49.3204590 152.0906430  27.5069790  50.4550390
 150.5130580  18.3191870  54.2326510 149.8046730  18.7878210  54.6740120
 150.7975060  17.6613880  54.8671700 152.1386510  19.7388570  62.2319040
 152.6371760  20.2134390  62.8970890 152.2809460  18.8152090  62.4389070
 151.6322800  30.2797830  54.9450280 151.8864300  30.2419220  54.0229650
 150.6835280  30.1531160  54.9378530 148.7165600  16.6276950  51.6077220
 149.5656130  17.0647100  51.5417410 148.3496870  16.9397210  52.4349280
 147.6157020  22.8809310  50.0812750 148.3820290  22.7690670  50.6438180
 147.6931710  22.1847280  49.4289520 146.3103780  20.3134380  50.7645640
 146.3907370  19.3661890  50.8763040 147.2023530  20.6441260  50.8706300
 147.1118490  30.4629770  57.8680180 147.8480970  29.9145230  58.1388750
 147.4959410  31.3285780  57.7286170 143.9963970  26.5303340  53.7421690
 143.0703750  26.7724480  53.7327100 144.4620400  27.3577600  53.6206440
 146.1176770  29.6475840  67.0565760 146.9189500  29.9687890  67.4701160
 145.6028590  29.2871420  67.7785670 150.2220800  29.6360080  49.6905750
 151.0149410  29.9248910  49.2387540 149.7025150  29.2052250  49.0118230
 143.8374580  22.1349300  66.0001810 144.3413600  21.5556580  66.5718040
 143.0982000  22.4189530  66.5378180 150.7398200  24.8563490  49.5548100
 150.6348840  24.2415840  50.2809480 150.5722420  24.3329380  48.7711110
 150.8912520  23.5420290  65.5337330 150.1258190  24.1105290  65.4492000
 151.0728480  23.2496500  64.6405560 145.8697660  20.2778890  66.8951880
 145.9103000  19.9792760  67.8037110 146.7243160  20.6786500  66.7359400
 149.6476050  22.8774440  52.0555390 150.0692470  22.7114310  52.8986780
 149.7726890  22.0674670  51.5610530 147.8103470  18.8570990  64.8626370
 147.2799930  18.3661940  64.2349710 148.4791540  19.2855190  64.3284300
 152.1603690  21.9012050  49.3032490 152.6809350  21.1861070  48.9373640
 152.8072090  22.5397920  49.6033000 148.2975770  15.8233360  64.9423660
 148.2032640  15.2054110  64.2174530 147.7173160  16.5499650  64.7153570
 151.0637210  14.3806600  61.9751050 150.6154510  14.4030860  61.1296600
 150.4302410  13.9825620  62.5721350 151.4696760  23.2760930  62.5963490
 151.8884870  24.1193660  62.4239730 150.5505390  23.4132970  62.3670270
 148.5434950  18.9507670  49.0013550 148.3424010  18.0875030  49.3626890
 148.3727000  18.8641030  48.0635150 149.3204180  29.5813940  63.7121220
 148.7825270  30.3060000  63.3929920 149.5738140  29.1044280  62.9218560
 150.5729430  17.5498460  65.2377150 151.1629120  17.2414310  65.9254970
 149.7549670  17.0778210  65.3937050 147.3417750  16.0508290  48.9891430
 147.6443650  16.0575720  48.0810580 148.0812340  15.7006150  49.4859090
 152.1766390  30.8165150  63.9707870 152.1025090  31.7200290  64.2780240
 151.2745230  30.4977050  63.9429940 150.5602680  14.9942910  49.9747630
 150.2124680  14.3166900  49.3950080 150.7615450  14.5332420  50.7891020
 146.3647880  25.3550710  49.8221230 146.8022750  25.8980380  50.4778810
 146.8495610  24.5297660  49.8317570 143.5793680  28.1439740  57.2741490
 143.9096690  27.2760800  57.0420130 144.0084680  28.3498260  58.1046450
 148.1755600  26.4748750  54.9343460 147.8751140  26.3513720  55.8347370
 148.0693090  25.6157340  54.5259190 144.0683890  29.0110330  60.0123120
 143.6314880  29.1911130  60.8447270 144.6361570  29.7684950  59.8704840
 143.9008320  21.5230560  56.3712000 143.2457160  21.2542200  55.7271700
 144.7386270  21.4135040  55.9213980 144.9384250  21.9083130  60.9115340
 145.3057290  21.8210530  61.7911360 144.3695070  21.1449680  60.8122200
 144.4900250  18.8192220  64.8173760 143.5956300  18.7858980  65.1567470
 145.0297800  19.0179010  65.5825010 143.1146400  18.7329490  52.3137330
 142.2110480  18.9959690  52.1388990 143.5987020  19.0040660  51.5337290
 145.6573610  17.7895030  50.2231710 146.3665310  17.3678250  49.7378990
 144.9413550  17.8570260  49.5915060 145.3047770  13.8434360  49.2634360
 146.0275900  14.3843300  49.5815580 145.5772290  13.5697780  48.3875900
 144.9939960  13.0940550  59.1656980 145.6416150  12.5437930  58.7252140
 145.4141800  13.3483700  59.9872790 144.7471960  13.2496220  61.9082300
 144.3986780  13.7060040  62.6740480 144.4159660  12.3553350  61.9904730
 146.3536330  26.4215820  66.0735490 146.3105960  26.0508730  66.9549950
 146.4847340  27.3593390  66.2137310 150.0542360  27.9775410  61.6745210
 149.8133720  28.2449970  60.7875730 150.9945000  28.1481140  61.7296070
 145.4192600  12.7772420  65.1833070 145.9675590  12.5960470  64.4199180
 145.4847910  11.9866530  65.7189380 146.1924360  29.3678070  63.1933270
 145.5984680  29.2362770  63.9323310 146.1848200  28.5316210  62.7275370
 145.8236590  26.7336450  62.1441310 145.0970650  26.1141740  62.0767260
 145.8845740  27.1277060  61.2739390 149.4281690  28.9481450  58.9290720
 149.9446710  28.3368810  58.4038980 150.0779070  29.4510230  59.4201730
 152.1677190  29.8389940  59.7559700 152.4555000  29.5844240  58.8792710
 152.6800410  29.2867300  60.3465270 144.1066590  30.0510840  55.3538070
 143.9388630  29.4181520  56.0519960 143.2401100  30.2570240  55.0032260
 144.7294610  13.8827620  52.8569930 145.4873970  13.9956500  52.2833960
 144.2671780  14.7196820  52.8113360 151.2708420  15.9966890  55.8472240
 150.4582930  15.6223780  55.5068120 151.7750060  15.2411970  56.1493430
 145.7129290  28.7444070  52.7988210 145.1876910  29.1252100  52.0950170
 145.6373870  29.3694840  53.5197920 147.1019760  14.4091670  51.3971900
 147.6312520  13.6221470  51.2679850 147.7348080  15.0882860  51.6307430
 149.2957600  14.1466810  54.4517290 148.6660340  13.4454120  54.6187420
 148.7562740  14.9070940  54.2350450 149.4213160  13.4250790  66.8869780
 149.1397430  13.9284390  66.1230600 149.8032860  12.6272540  66.5211910
 148.3122260  30.6926450  51.6737460 149.0441080  30.4085730  51.1261350
 148.5715930  30.4539730  52.5636840 147.4737050  26.8091180  51.6783790
 146.8445930  27.2776280  52.2269620 147.5884880  25.9640400  52.1129980
 147.0770640  22.9495670  40.5870020 146.2455520  22.6944380  40.9866530
 147.6851620  23.0206440  41.3227940 147.0571900  26.9835760  40.7828040
 147.3599940  26.0933500  40.6038260 147.8015490  27.5405980  40.5550290
 145.4862590  17.9097560  34.3712410 144.5979290  18.2513530  34.2692290
 145.7703780  17.7097880  33.4793240 143.4495600  20.5103210  40.2552110
 144.0211710  19.7425410  40.2555750 143.4497140  20.8091970  39.3458720
 144.6920470  15.9187570  42.0421040 144.5123310  15.0213320  42.3223800
 144.2900550  16.4659440  42.7167990 147.6623980  16.4929060  35.4050790
 147.7690730  17.3932790  35.7119550 146.7516340  16.4447030  35.1145440
 145.3107140  18.4148070  40.6503380 145.9917250  18.6786440  41.2690780
 144.9955190  17.5748940  40.9841390 149.5031710  19.4615430  39.7375970
 150.0109930  19.9596400  40.3780990 150.0344950  18.6850630  39.5615330
 147.7867810  14.1013990  44.0039390 147.7886250  14.6186380  43.1985290
 146.9572120  13.6244170  43.9809320 149.0370660  23.7409170  42.1812890
 148.7040040  24.3678090  42.8233960 149.2137340  24.2671050  41.4014560
 147.4683140  15.8123950  42.0109840 147.8099950  16.6566000  41.7163710
 146.5298950  15.9607690  42.1275180 148.2489760  25.7089970  43.9962070
 148.8663760  26.3841050  43.7146520 147.3882880  26.1177950  43.9049570
 143.5422100  24.8989830  32.8768920 143.1650080  25.3876930  32.1453820
 143.7995170  25.5715110  33.5075450 151.1511030  13.3006220  38.3354430
 151.4586010  12.7453110  37.6189930 150.2211730  13.4350680  38.1527420
 149.1448430  21.8919790  37.8534280 148.7405430  21.1797040  37.3580180
 149.2311550  21.5473030  38.7422320 149.6130130  25.5787350  40.0173490
 149.3158420  24.9732820  39.3381270 150.5629950  25.6164660  39.9062850
 147.8577050  18.6663000  41.6333320 148.4091640  18.7758340  40.8586570
 148.3720560  19.0400600  42.3488550 148.7048560  25.3169040  46.6681290
 147.8077090  25.5409010  46.9154690 148.7301430  25.4403980  45.7192690
 147.5319780  22.1882360  45.2438660 147.3927550  23.0605160  45.6126060
 146.6501140  21.8455170  45.0986600 149.3300130  28.1304060  47.4523810
 149.3015560  28.5347010  46.5852240 149.1665100  27.2014420  47.2895410
 145.8453060  20.7864770  35.3540930 145.7250660  21.5126860  34.7422200
 145.5353950  20.0167680  34.8768840 143.4838430  23.9579910  41.1609570
 143.5618850  24.0928680  40.2165290 144.0980110  23.2495800  41.3537690
 144.7286060  25.6580100  37.5715750 144.3214140  25.7994690  36.7169350
 145.6199070  25.3740260  37.3686960 149.0007720  29.8725880  35.6838420
 148.8250200  28.9561420  35.4706220 148.1463460  30.2313170  35.9236220
 143.5397950  24.9994080  43.7004030 143.7028990  24.5299440  42.8823400
 144.0050400  24.4917640  44.3652870 148.3116720  14.1299840  38.7364600
 147.8684870  14.9109380  38.4049120 148.8701710  14.4529730  39.4435540
 152.5986530  16.9968360  44.3399920 152.1365900  17.2051380  45.1519860
 152.1964640  16.1827710  44.0370590 151.4275540  13.7510540  33.6170430
 150.8029720  13.7470410  34.3423740 151.3405660  12.8841500  33.2206400
 150.3492620  14.6747170  40.5954200 150.6464950  15.5810000  40.5146220
 150.8978180  14.1865950  39.9813770 148.1030940  19.2533410  36.4645850
 147.8771860  19.0370580  37.3692470 147.3223470  19.6861870  36.1191820
 150.5430150  20.1518990  47.1306120 150.4473750  19.2113720  46.9806520
 151.3862130  20.3734060  46.7354190 145.6740690  16.5632660  45.2839900
 145.2804080  17.4107870  45.4912680 144.9859090  15.9259030  45.4748540
 152.2485740  16.6467630  48.3536640 151.5584060  16.4539830  48.9882730
 152.9918040  16.9302270  48.8860940 142.9757740  14.4861120  39.3169980
 142.6870790  15.0563980  40.0294960 143.7203500  14.0065570  39.6801210
 143.1627970  18.4281240  30.5272700 143.0802640  19.3712000  30.6687690
 142.8111030  18.2856150  29.6485050 150.9626100  17.1620270  39.5943050
 150.9662160  16.7210220  38.7447590 151.8577220  17.4837600  39.7014870
 146.8128480  17.0446760  38.5537260 146.4728530  17.5221990  39.3104310
 146.0505800  16.5911880  38.1938360 151.0246250  18.1632350  32.5849810
 151.1459070  18.1218830  33.5335630 150.6394760  19.0256500  32.4296540
 150.0367750  20.4733490  31.9833110 149.4684650  20.0251740  31.3569020
 150.7456750  20.8326270  31.4498260 145.1136930  24.3745510  45.8599840
 144.7291720  23.7339180  46.4582800 145.4249120  25.0781630  46.4294570
 151.2634070  21.2222050  41.3408460 151.6304200  20.7480620  42.0869800
 151.0739130  22.0963620  41.6816800 144.1274560  15.9665740  37.4701930
 143.8421480  15.6021410  38.3080550 144.0653420  15.2346200  36.8565070
 149.0533440  20.2630690  43.6592670 148.7490510  21.1422670  43.8843030
 150.0079900  20.3230480  43.6950110 147.5815230  24.4691680  34.2559520
 146.8077490  23.9289300  34.0958240 148.3109860  23.9498290  33.9177280
 147.6252630  24.1372060  37.8938330 148.1431300  23.3340320  37.8395220
 147.1736650  24.0751200  38.7355160 152.5122130  25.4038340  33.1665630
 152.8537830  26.1480570  32.6708950 151.6834840  25.7169460  33.5290460
 145.1097170  21.1033430  44.8064030 144.7512110  21.7687280  45.3937370
 144.8151730  20.2716980  45.1776650 148.3110290  21.5617670  47.6903580
 148.0110430  21.7074850  46.7931400 149.0821530  21.0022960  47.5976970
 151.4812820  25.4851870  35.9381550 152.1683950  26.0321080  36.3189140
 150.6945240  26.0292600  35.9731160 143.6205220  21.1024690  31.4298630
 144.4900070  21.3849490  31.7134550 143.1295540  21.9160560  31.3147440
 150.7840030  22.4897900  35.5506910 151.2402810  23.3003150  35.7767100
 150.4328240  22.1721040  36.3825400 146.6851810  12.8335550  36.0229430
 146.5566440  12.8253450  36.9714350 145.8613830  13.1718640  35.6720440
 143.9876470  30.3152070  31.9960260 144.3474110  30.9141410  31.3417530
 143.8468810  30.8611960  32.7695290 143.6845740  14.5926670  45.4836130
 142.9704260  14.7923590  46.0888740 144.1040780  13.8166240  45.8550930
 143.9718330  28.5806930  46.4702660 144.0809450  27.6401670  46.3298050
 143.3198890  28.8461680  45.8216390 151.9630920  26.8522820  47.8700780
 151.6427790  26.1332060  48.4146470 151.2889280  27.5277890  47.9436840
 150.0045090  27.6983270  32.8133930 149.9955190  28.4312960  32.1978440
 149.0843450  27.4514850  32.9060890 145.6051730  22.9198160  33.5580690
 144.9979680  23.6597060  33.5675990 146.0801080  23.0097520  32.7318890
 152.9904690  27.7611510  31.4759120 153.0916670  27.5575500  30.5461100
 152.0906430  27.5069790  31.6806900 150.5130580  18.3191870  35.4583020
 149.8046730  18.7878210  35.8996630 150.7975060  17.6613880  36.0928210
 152.1386510  19.7388570  43.4575550 152.6371760  20.2134390  44.1227400
 152.2809460  18.8152090  43.6645580 151.6322800  30.2797830  36.1706790
 151.8864300  30.2419220  35.2486160 150.6835280  30.1531160  36.1635040
 148.7165600  16.6276950  32.8333730 149.5656130  17.0647100  32.7673920
 148.3496870  16.9397210  33.6605790 147.6157020  22.8809310  31.3069260
 148.3820290  22.7690670  31.8694690 147.6931710  22.1847280  30.6546030
 146.3103780  20.3134380  31.9902150 146.3907370  19.3661890  32.1019550
 147.2023530  20.6441260  32.0962810 147.1118490  30.4629770  39.0936690
 147.8480970  29.9145230  39.3645260 147.4959410  31.3285780  38.9542680
 143.9963970  26.5303340  34.9678200 143.0703750  26.7724480  34.9583610
 144.4620400  27.3577600  34.8462950 146.1176770  29.6475840  48.2822270
 146.9189500  29.9687890  48.6957670 145.6028590  29.2871420  49.0042180
 150.2220800  29.6360080  30.9162260 151.0149410  29.9248910  30.4644050
 149.7025150  29.2052250  30.2374740 143.8374580  22.1349300  47.2258320
 144.3413600  21.5556580  47.7974550 143.0982000  22.4189530  47.7634690
 150.7398200  24.8563490  30.7804610 150.6348840  24.2415840  31.5065990
 150.5722420  24.3329380  29.9967620 150.8912520  23.5420290  46.7593840
 150.1258190  24.1105290  46.6748510 151.0728480  23.2496500  45.8662070
 145.8697660  20.2778890  48.1208390 145.9103000  19.9792760  49.0293620
 146.7243160  20.6786500  47.9615910 149.6476050  22.8774440  33.2811900
 150.0692470  22.7114310  34.1243290 149.7726890  22.0674670  32.7867040
 147.8103470  18.8570990  46.0882880 147.2799930  18.3661940  45.4606220
 148.4791540  19.2855190  45.5540810 152.1603690  21.9012050  30.5289000
 152.6809350  21.1861070  30.1630150 152.8072090  22.5397920  30.8289510
 148.2975770  15.8233360  46.1680170 148.2032640  15.2054110  45.4431040
 147.7173160  16.5499650  45.9410080 151.0637210  14.3806600  43.2007560
 150.6154510  14.4030860  42.3553110 150.4302410  13.9825620  43.7977860
 151.4696760  23.2760930  43.8220000 151.8884870  24.1193660  43.6496240
 150.5505390  23.4132970  43.5926780 148.5434950  18.9507670  30.2270060
 148.3424010  18.0875030  30.5883400 148.3727000  18.8641030  29.2891660
 149.3204180  29.5813940  44.9377730 148.7825270  30.3060000  44.6186430
 149.5738140  29.1044280  44.1475070 150.5729430  17.5498460  46.4633660
 151.1629120  17.2414310  47.1511480 149.7549670  17.0778210  46.6193560
 147.3417750  16.0508290  30.2147940 147.6443650  16.0575720  29.3067090
 148.0812340  15.7006150  30.7115600 152.1766390  30.8165150  45.1964380
 152.1025090  31.7200290  45.5036750 151.2745230  30.4977050  45.1686450
 150.5602680  14.9942910  31.2004140 150.2124680  14.3166900  30.6206590
 150.7615450  14.5332420  32.0147530 146.3647880  25.3550710  31.0477740
 146.8022750  25.8980380  31.7035320 146.8495610  24.5297660  31.0574080
 143.5793680  28.1439740  38.4998000 143.9096690  27.2760800  38.2676640
 144.0084680  28.3498260  39.3302960 148.1755600  26.4748750  36.1599970
 147.8751140  26.3513720  37.0603880 148.0693090  25.6157340  35.7515700
 144.0683890  29.0110330  41.2379630 143.6314880  29.1911130  42.0703780
 144.6361570  29.7684950  41.0961350 143.9008320  21.5230560  37.5968510
 143.2457160  21.2542200  36.9528210 144.7386270  21.4135040  37.1470490
 144.9384250  21.9083130  42.1371850 145.3057290  21.8210530  43.0167870
 144.3695070  21.1449680  42.0378710 144.4900250  18.8192220  46.0430270
 143.5956300  18.7858980  46.3823980 145.0297800  19.0179010  46.8081520
 143.1146400  18.7329490  33.5393840 142.2110480  18.9959690  33.3645500
 143.5987020  19.0040660  32.7593800 145.6573610  17.7895030  31.4488220
 146.3665310  17.3678250  30.9635500 144.9413550  17.8570260  30.8171570
 145.3047770  13.8434360  30.4890870 146.0275900  14.3843300  30.8072090
 145.5772290  13.5697780  29.6132410 144.9939960  13.0940550  40.3913490
 145.6416150  12.5437930  39.9508650 145.4141800  13.3483700  41.2129300
 144.7471960  13.2496220  43.1338810 144.3986780  13.7060040  43.8996990
 144.4159660  12.3553350  43.2161240 146.3536330  26.4215820  47.2992000
 146.3105960  26.0508730  48.1806460 146.4847340  27.3593390  47.4393820
 150.0542360  27.9775410  42.9001720 149.8133720  28.2449970  42.0132240
 150.9945000  28.1481140  42.9552580 145.4192600  12.7772420  46.4089580
 145.9675590  12.5960470  45.6455690 145.4847910  11.9866530  46.9445890
 146.1924360  29.3678070  44.4189780 145.5984680  29.2362770  45.1579820
 146.1848200  28.5316210  43.9531880 145.8236590  26.7336450  43.3697820
 145.0970650  26.1141740  43.3023770 145.8845740  27.1277060  42.4995900
 149.4281690  28.9481450  40.1547230 149.9446710  28.3368810  39.6295490
 150.0779070  29.4510230  40.6458240 152.1677190  29.8389940  40.9816210
 152.4555000  29.5844240  40.1049220 152.6800410  29.2867300  41.5721780
 144.1066590  30.0510840  36.5794580 143.9388630  29.4181520  37.2776470
 143.2401100  30.2570240  36.2288770 144.7294610  13.8827620  34.0826440
 145.4873970  13.9956500  33.5090470 144.2671780  14.7196820  34.0369870
 151.2708420  15.9966890  37.0728750 150.4582930  15.6223780  36.7324630
 151.7750060  15.2411970  37.3749940 145.7129290  28.7444070  34.0244720
 145.1876910  29.1252100  33.3206680 145.6373870  29.3694840  34.7454430
 147.1019760  14.4091670  32.6228410 147.6312520  13.6221470  32.4936360
 147.7348080  15.0882860  32.8563940 149.2957600  14.1466810  35.6773800
 148.6660340  13.4454120  35.8443930 148.7562740  14.9070940  35.4606960
 149.4213160  13.4250790  48.1126290 149.1397430  13.9284390  47.3487110
 149.8032860  12.6272540  47.7468420 148.3122260  30.6926450  32.8993970
 149.0441080  30.4085730  32.3517860 148.5715930  30.4539730  33.7893350
 147.4737050  26.8091180  32.9040300 146.8445930  27.2776280  33.4526130
 147.5884880  25.9640400  33.3386490 147.0770640  22.9495670  21.8126530
 146.2455520  22.6944380  22.2123040 147.6851620  23.0206440  22.5484450
 147.0571900  26.9835760  22.0084550 147.3599940  26.0933500  21.8294770
 147.8015490  27.5405980  21.7806800 145.4862590  17.9097560  15.5968920
 144.5979290  18.2513530  15.4948800 145.7703780  17.7097880  14.7049750
 143.4495600  20.5103210  21.4808620 144.0211710  19.7425410  21.4812260
 143.4497140  20.8091970  20.5715230 144.6920470  15.9187570  23.2677550
 144.5123310  15.0213320  23.5480310 144.2900550  16.4659440  23.9424500
 147.6623980  16.4929060  16.6307300 147.7690730  17.3932790  16.9376060
 146.7516340  16.4447030  16.3401950 145.3107140  18.4148070  21.8759890
 145.9917250  18.6786440  22.4947290 144.9955190  17.5748940  22.2097900
 149.5031710  19.4615430  20.9632480 150.0109930  19.9596400  21.6037500
 150.0344950  18.6850630  20.7871840 147.7867810  14.1013990  25.2295900
 147.7886250  14.6186380  24.4241800 146.9572120  13.6244170  25.2065830
 149.0370660  23.7409170  23.4069400 148.7040040  24.3678090  24.0490470
 149.2137340  24.2671050  22.6271070 147.4683140  15.8123950  23.2366350
 147.8099950  16.6566000  22.9420220 146.5298950  15.9607690  23.3531690
 148.2489760  25.7089970  25.2218580 148.8663760  26.3841050  24.9403030
 147.3882880  26.1177950  25.1306080 143.5422100  24.8989830  14.1025430
 143.1650080  25.3876930  13.3710330 143.7995170  25.5715110  14.7331960
 151.1511030  13.3006220  19.5610940 151.4586010  12.7453110  18.8446440
 150.2211730  13.4350680  19.3783930 149.1448430  21.8919790  19.0790790
 148.7405430  21.1797040  18.5836690 149.2311550  21.5473030  19.9678830
 149.6130130  25.5787350  21.2430000 149.3158420  24.9732820  20.5637780
 150.5629950  25.6164660  21.1319360 147.8577050  18.6663000  22.8589830
 148.4091640  18.7758340  22.0843080 148.3720560  19.0400600  23.5745060
 148.7048560  25.3169040  27.8937800 147.8077090  25.5409010  28.1411200
 148.7301430  25.4403980  26.9449200 147.5319780  22.1882360  26.4695170
 147.3927550  23.0605160  26.8382570 146.6501140  21.8455170  26.3243110
 149.3300130  28.1304060  28.6780320 149.3015560  28.5347010  27.8108750
 149.1665100  27.2014420  28.5151920 145.8453060  20.7864770  16.5797440
 145.7250660  21.5126860  15.9678710 145.5353950  20.0167680  16.1025350
 143.4838430  23.9579910  22.3866080 143.5618850  24.0928680  21.4421800
 144.0980110  23.2495800  22.5794200 144.7286060  25.6580100  18.7972260
 144.3214140  25.7994690  17.9425860 145.6199070  25.3740260  18.5943470
 149.0007720  29.8725880  16.9094930 148.8250200  28.9561420  16.6962730
 148.1463460  30.2313170  17.1492730 143.5397950  24.9994080  24.9260540
 143.7028990  24.5299440  24.1079910 144.0050400  24.4917640  25.5909380
 148.3116720  14.1299840  19.9621110 147.8684870  14.9109380  19.6305630
 148.8701710  14.4529730  20.6692050 152.5986530  16.9968360  25.5656430
 152.1365900  17.2051380  26.3776370 152.1964640  16.1827710  25.2627100
 151.4275540  13.7510540  14.8426940 150.8029720  13.7470410  15.5680250
 151.3405660  12.8841500  14.4462910 150.3492620  14.6747170  21.8210710
 150.6464950  15.5810000  21.7402730 150.8978180  14.1865950  21.2070280
 148.1030940  19.2533410  17.6902360 147.8771860  19.0370580  18.5948980
 147.3223470  19.6861870  17.3448330 150.5430150  20.1518990  28.3562630
 150.4473750  19.2113720  28.2063030 151.3862130  20.3734060  27.9610700
 145.6740690  16.5632660  26.5096410 145.2804080  17.4107870  26.7169190
 144.9859090  15.9259030  26.7005050 152.2485740  16.6467630  29.5793150
 151.5584060  16.4539830  30.2139240 152.9918040  16.9302270  30.1117450
 142.9757740  14.4861120  20.5426490 142.6870790  15.0563980  21.2551470
 143.7203500  14.0065570  20.9057720 143.1627970  18.4281240  11.7529210
 143.0802640  19.3712000  11.8944200 142.8111030  18.2856150  10.8741560
 150.9626100  17.1620270  20.8199560 150.9662160  16.7210220  19.9704100
 151.8577220  17.4837600  20.9271380 146.8128480  17.0446760  19.7793770
 146.4728530  17.5221990  20.5360820 146.0505800  16.5911880  19.4194870
 151.0246250  18.1632350  13.8106320 151.1459070  18.1218830  14.7592140
 150.6394760  19.0256500  13.6553050 150.0367750  20.4733490  13.2089620
 149.4684650  20.0251740  12.5825530 150.7456750  20.8326270  12.6754770
 145.1136930  24.3745510  27.0856350 144.7291720  23.7339180  27.6839310
 145.4249120  25.0781630  27.6551080 151.2634070  21.2222050  22.5664970
 151.6304200  20.7480620  23.3126310 151.0739130  22.0963620  22.9073310
 144.1274560  15.9665740  18.6958440 143.8421480  15.6021410  19.5337060
 144.0653420  15.2346200  18.0821580 149.0533440  20.2630690  24.8849180
 148.7490510  21.1422670  25.1099540 150.0079900  20.3230480  24.9206620
 147.5815230  24.4691680  15.4816030 146.8077490  23.9289300  15.3214750
 148.3109860  23.9498290  15.1433790 147.6252630  24.1372060  19.1194840
 148.1431300  23.3340320  19.0651730 147.1736650  24.0751200  19.9611670
 152.5122130  25.4038340  14.3922140 152.8537830  26.1480570  13.8965460
 151.6834840  25.7169460  14.7546970 145.1097170  21.1033430  26.0320540
 144.7512110  21.7687280  26.6193880 144.8151730  20.2716980  26.4033160
 148.3110290  21.5617670  28.9160090 148.0110430  21.7074850  28.0187910
 149.0821530  21.0022960  28.8233480 151.4812820  25.4851870  17.1638060
 152.1683950  26.0321080  17.5445650 150.6945240  26.0292600  17.1987670
 143.6205220  21.1024690  12.6555140 144.4900070  21.3849490  12.9391060
 143.1295540  21.9160560  12.5403950 150.7840030  22.4897900  16.7763420
 151.2402810  23.3003150  17.0023610 150.4328240  22.1721040  17.6081910
 146.6851810  12.8335550  17.2485940 146.5566440  12.8253450  18.1970860
 145.8613830  13.1718640  16.8976950 143.9876470  30.3152070  13.2216770
 144.3474110  30.9141410  12.5674040 143.8468810  30.8611960  13.9951800
 143.6845740  14.5926670  26.7092640 142.9704260  14.7923590  27.3145250
 144.1040780  13.8166240  27.0807440 143.9718330  28.5806930  27.6959170
 144.0809450  27.6401670  27.5554560 143.3198890  28.8461680  27.0472900
 151.9630920  26.8522820  29.0957290 151.6427790  26.1332060  29.6402980
 151.2889280  27.5277890  29.1693350 150.0045090  27.6983270  14.0390440
 149.9955190  28.4312960  13.4234950 149.0843450  27.4514850  14.1317400
 145.6051730  22.9198160  14.7837200 144.9979680  23.6597060  14.7932500
 146.0801080  23.0097520  13.9575400 152.9904690  27.7611510  12.7015630
 153.0916670  27.5575500  11.7717610 152.0906430  27.5069790  12.9063410
 150.5130580  18.3191870  16.6839530 149.8046730  18.7878210  17.1253140
 150.7975060  17.6613880  17.3184720 152.1386510  19.7388570  24.6832060
 152.6371760  20.2134390  25.3483910 152.2809460  18.8152090  24.8902090
 151.6322800  30.2797830  17.3963300 151.8864300  30.2419220  16.4742670
 150.6835280  30.1531160  17.3891550 148.7165600  16.6276950  14.0590240
 149.5656130  17.0647100  13.9930430 148.3496870  16.9397210  14.8862300
 147.6157020  22.8809310  12.5325770 148.3820290  22.7690670  13.0951200
 147.6931710  22.1847280  11.8802540 146.3103780  20.3134380  13.2158660
 146.3907370  19.3661890  13.3276060 147.2023530  20.6441260  13.3219320
 147.1118490  30.4629770  20.3193200 147.8480970  29.9145230  20.5901770
 147.4959410  31.3285780  20.1799190 143.9963970  26.5303340  16.1934710
 143.0703750  26.7724480  16.1840120 144.4620400  27.3577600  16.0719460
 146.1176770  29.6475840  29.5078780 146.9189500  29.9687890  29.9214180
 145.6028590  29.2871420  30.2298690 150.2220800  29.6360080  12.1418770
 151.0149410  29.9248910  11.6900560 149.7025150  29.2052250  11.4631250
 143.8374580  22.1349300  28.4514830 144.3413600  21.5556580  29.0231060
 143.0982000  22.4189530  28.9891200 150.7398200  24.8563490  12.0061120
 150.6348840  24.2415840  12.7322500 150.5722420  24.3329380  11.2224130
 150.8912520  23.5420290  27.9850350 150.1258190  24.1105290  27.9005020
 151.0728480  23.2496500  27.0918580 145.8697660  20.2778890  29.3464900
 145.9103000  19.9792760  30.2550130 146.7243160  20.6786500  29.1872420
 149.6476050  22.8774440  14.5068410 150.0692470  22.7114310  15.3499800
 149.7726890  22.0674670  14.0123550 147.8103470  18.8570990  27.3139390
 147.2799930  18.3661940  26.6862730 148.4791540  19.2855190  26.7797320
 152.1603690  21.9012050  11.7545510 152.6809350  21.1861070  11.3886660
 152.8072090  22.5397920  12.0546020 148.2975770  15.8233360  27.3936680
 148.2032640  15.2054110  26.6687550 147.7173160  16.5499650  27.1666590
 151.0637210  14.3806600  24.4264070 150.6154510  14.4030860  23.5809620
 150.4302410  13.9825620  25.0234370 151.4696760  23.2760930  25.0476510
 151.8884870  24.1193660  24.8752750 150.5505390  23.4132970  24.8183290
 148.5434950  18.9507670  11.4526570 148.3424010  18.0875030  11.8139910
 148.3727000  18.8641030  10.5148170 149.3204180  29.5813940  26.1634240
 148.7825270  30.3060000  25.8442940 149.5738140  29.1044280  25.3731580
 150.5729430  17.5498460  27.6890170 151.1629120  17.2414310  28.3767990
 149.7549670  17.0778210  27.8450070 147.3417750  16.0508290  11.4404450
 147.6443650  16.0575720  10.5323600 148.0812340  15.7006150  11.9372110
 152.1766390  30.8165150  26.4220890 152.1025090  31.7200290  26.7293260
 151.2745230  30.4977050  26.3942960 150.5602680  14.9942910  12.4260650
 150.2124680  14.3166900  11.8463100 150.7615450  14.5332420  13.2404040
 146.3647880  25.3550710  12.2734250 146.8022750  25.8980380  12.9291830
 146.8495610  24.5297660  12.2830590 143.5793680  28.1439740  19.7254510
 143.9096690  27.2760800  19.4933150 144.0084680  28.3498260  20.5559470
 148.1755600  26.4748750  17.3856480 147.8751140  26.3513720  18.2860390
 148.0693090  25.6157340  16.9772210 144.0683890  29.0110330  22.4636140
 143.6314880  29.1911130  23.2960290 144.6361570  29.7684950  22.3217860
 143.9008320  21.5230560  18.8225020 143.2457160  21.2542200  18.1784720
 144.7386270  21.4135040  18.3727000 144.9384250  21.9083130  23.3628360
 145.3057290  21.8210530  24.2424380 144.3695070  21.1449680  23.2635220
 144.4900250  18.8192220  27.2686780 143.5956300  18.7858980  27.6080490
 145.0297800  19.0179010  28.0338030 143.1146400  18.7329490  14.7650350
 142.2110480  18.9959690  14.5902010 143.5987020  19.0040660  13.9850310
 145.6573610  17.7895030  12.6744730 146.3665310  17.3678250  12.1892010
 144.9413550  17.8570260  12.0428080 145.3047770  13.8434360  11.7147380
 146.0275900  14.3843300  12.0328600 145.5772290  13.5697780  10.8388920
 144.9939960  13.0940550  21.6170000 145.6416150  12.5437930  21.1765160
 145.4141800  13.3483700  22.4385810 144.7471960  13.2496220  24.3595320
 144.3986780  13.7060040  25.1253500 144.4159660  12.3553350  24.4417750
 146.3536330  26.4215820  28.5248510 146.3105960  26.0508730  29.4062970
 146.4847340  27.3593390  28.6650330 150.0542360  27.9775410  24.1258230
 149.8133720  28.2449970  23.2388750 150.9945000  28.1481140  24.1809090
 145.4192600  12.7772420  27.6346090 145.9675590  12.5960470  26.8712200
 145.4847910  11.9866530  28.1702400 146.1924360  29.3678070  25.6446290
 145.5984680  29.2362770  26.3836330 146.1848200  28.5316210  25.1788390
 145.8236590  26.7336450  24.5954330 145.0970650  26.1141740  24.5280280
 145.8845740  27.1277060  23.7252410 149.4281690  28.9481450  21.3803740
 149.9446710  28.3368810  20.8552000 150.0779070  29.4510230  21.8714750
 152.1677190  29.8389940  22.2072720 152.4555000  29.5844240  21.3305730
 152.6800410  29.2867300  22.7978290 144.1066590  30.0510840  17.8051090
 143.9388630  29.4181520  18.5032980 143.2401100  30.2570240  17.4545280
 144.7294610  13.8827620  15.3082950 145.4873970  13.9956500  14.7346980
 144.2671780  14.7196820  15.2626380 151.2708420  15.9966890  18.2985260
 150.4582930  15.6223780  17.9581140 151.7750060  15.2411970  18.6006450
 145.7129290  28.7444070  15.2501230 145.1876910  29.1252100  14.5463190
 145.6373870  29.3694840  15.9710940 147.1019760  14.4091670  13.8484920
 147.6312520  13.6221470  13.7192870 147.7348080  15.0882860  14.0820450
 149.2957600  14.1466810  16.9030310 148.6660340  13.4454120  17.0700440
 148.7562740  14.9070940  16.6863470 149.4213160  13.4250790  29.3382800
 149.1397430  13.9284390  28.5743620 149.8032860  12.6272540  28.9724930
 148.3122260  30.6926450  14.1250480 149.0441080  30.4085730  13.5774370
 148.5715930  30.4539730  15.0149860 147.4737050  26.8091180  14.1296810
 146.8445930  27.2776280  14.6782640 147.5884880  25.9640400  14.5643000
 147.0770640  22.9495670   3.0383040 146.2455520  22.6944380   3.4379550
 147.6851620  23.0206440   3.7740960 147.0571900  26.9835760   3.2341060
 147.3599940  26.0933500   3.0551280 147.8015490  27.5405980   3.0063310
 143.4495600  20.5103210   2.7065130 144.0211710  19.7425410   2.7068770
 143.4497140  20.8091970   1.7971740 144.6920470  15.9187570   4.4934060
 144.5123310  15.0213320   4.7736820 144.2900550  16.4659440   5.1681010
 145.3107140  18.4148070   3.1016400 145.9917250  18.6786440   3.7203800
 144.9955190  17.5748940   3.4354410 149.5031710  19.4615430   2.1888990
 150.0109930  19.9596400   2.8294010 150.0344950  18.6850630   2.0128350
 147.7867810  14.1013990   6.4552410 147.7886250  14.6186380   5.6498310
 146.9572120  13.6244170   6.4322340 149.0370660  23.7409170   4.6325910
 148.7040040  24.3678090   5.2746980 149.2137340  24.2671050   3.8527580
 147.4683140  15.8123950   4.4622860 147.8099950  16.6566000   4.1676730
 146.5298950  15.9607690   4.5788200 148.2489760  25.7089970   6.4475090
 148.8663760  26.3841050   6.1659540 147.3882880  26.1177950   6.3562590
 149.6130130  25.5787350   2.4686510 149.3158420  24.9732820   1.7894290
 150.5629950  25.6164660   2.3575870 147.8577050  18.6663000   4.0846340
 148.4091640  18.7758340   3.3099590 148.3720560  19.0400600   4.8001570
 148.7048560  25.3169040   9.1194310 147.8077090  25.5409010   9.3667710
 148.7301430  25.4403980   8.1705710 147.5319780  22.1882360   7.6951680
 147.3927550  23.0605160   8.0639080 146.6501140  21.8455170   7.5499620
 149.3300130  28.1304060   9.9036830 149.3015560  28.5347010   9.0365260
 149.1665100  27.2014420   9.7408430 143.4838430  23.9579910   3.6122590
 143.5618850  24.0928680   2.6678310 144.0980110  23.2495800   3.8050710
 143.5397950  24.9994080   6.1517050 143.7028990  24.5299440   5.3336420
 144.0050400  24.4917640   6.8165890 152.5986530  16.9968360   6.7912940
 152.1365900  17.2051380   7.6032880 152.1964640  16.1827710   6.4883610
 150.3492620  14.6747170   3.0467220 150.6464950  15.5810000   2.9659240
 150.8978180  14.1865950   2.4326790 150.5430150  20.1518990   9.5819140
 150.4473750  19.2113720   9.4319540 151.3862130  20.3734060   9.1867210
 145.6740690  16.5632660   7.7352920 145.2804080  17.4107870   7.9425700
 144.9859090  15.9259030   7.9261560 152.2485740  16.6467630  10.8049660
 151.5584060  16.4539830  11.4395750 152.9918040  16.9302270  11.3373960
 142.9757740  14.4861120   1.7683000 142.6870790  15.0563980   2.4807980
 143.7203500  14.0065570   2.1314230 145.1136930  24.3745510   8.3112860
 144.7291720  23.7339180   8.9095820 145.4249120  25.0781630   8.8807590
 151.2634070  21.2222050   3.7921480 151.6304200  20.7480620   4.5382820
 151.0739130  22.0963620   4.1329820 149.0533440  20.2630690   6.1105690
 148.7490510  21.1422670   6.3356050 150.0079900  20.3230480   6.1463130
 145.1097170  21.1033430   7.2577050 144.7512110  21.7687280   7.8450390
 144.8151730  20.2716980   7.6289670 148.3110290  21.5617670  10.1416600
 148.0110430  21.7074850   9.2444420 149.0821530  21.0022960  10.0489990
 143.6845740  14.5926670   7.9349150 142.9704260  14.7923590   8.5401760
 144.1040780  13.8166240   8.3063950 143.9718330  28.5806930   8.9215680
 144.0809450  27.6401670   8.7811070 143.3198890  28.8461680   8.2729410
 151.9630920  26.8522820  10.3213800 151.6427790  26.1332060  10.8659490
 151.2889280  27.5277890  10.3949860 152.1386510  19.7388570   5.9088570
 152.6371760  20.2134390   6.5740420 152.2809460  18.8152090   6.1158600
 146.1176770  29.6475840  10.7335290 146.9189500  29.9687890  11.1470690
 145.6028590  29.2871420  11.4555200 143.8374580  22.1349300   9.6771340
 144.3413600  21.5556580  10.2487570 143.0982000  22.4189530  10.2147710
 150.8912520  23.5420290   9.2106860 150.1258190  24.1105290   9.1261530
 151.0728480  23.2496500   8.3175090 145.8697660  20.2778890  10.5721410
 145.9103000  19.9792760  11.4806640 146.7243160  20.6786500  10.4128930
 147.8103470  18.8570990   8.5395900 147.2799930  18.3661940   7.9119240
 148.4791540  19.2855190   8.0053830 148.2975770  15.8233360   8.6193190
 148.2032640  15.2054110   7.8944060 147.7173160  16.5499650   8.3923100
 151.0637210  14.3806600   5.6520580 150.6154510  14.4030860   4.8066130
 150.4302410  13.9825620   6.2490880 151.4696760  23.2760930   6.2733020
 151.8884870  24.1193660   6.1009260 150.5505390  23.4132970   6.0439800
 149.3204180  29.5813940   7.3890750 148.7825270  30.3060000   7.0699450
 149.5738140  29.1044280   6.5988090 150.5729430  17.5498460   8.9146680
 151.1629120  17.2414310   9.6024500 149.7549670  17.0778210   9.0706580
 152.1766390  30.8165150   7.6477400 152.1025090  31.7200290   7.9549770
 151.2745230  30.4977050   7.6199470 144.0683890  29.0110330   3.6892650
 143.6314880  29.1911130   4.5216800 144.6361570  29.7684950   3.5474370
 144.9384250  21.9083130   4.5884870 145.3057290  21.8210530   5.4680890
 144.3695070  21.1449680   4.4891730 144.4900250  18.8192220   8.4943290
 143.5956300  18.7858980   8.8337000 145.0297800  19.0179010   9.2594540
 144.9939960  13.0940550   2.8426510 145.6416150  12.5437930   2.4021670
 145.4141800  13.3483700   3.6642320 144.7471960  13.2496220   5.5851830
 144.3986780  13.7060040   6.3510010 144.4159660  12.3553350   5.6674260
 146.3536330  26.4215820   9.7505020 146.3105960  26.0508730  10.6319480
 146.4847340  27.3593390   9.8906840 150.0542360  27.9775410   5.3514740
 149.8133720  28.2449970   4.4645260 150.9945000  28.1481140   5.4065600
 145.4192600  12.7772420   8.8602600 145.9675590  12.5960470   8.0968710
 145.4847910  11.9866530   9.3958910 146.1924360  29.3678070   6.8702800
 145.5984680  29.2362770   7.6092840 146.1848200  28.5316210   6.4044900
 145.8236590  26.7336450   5.8210840 145.0970650  26.1141740   5.7536790
 145.8845740  27.1277060   4.9508920 149.4281690  28.9481450   2.6060250
 149.9446710  28.3368810   2.0808510 150.0779070  29.4510230   3.0971260
 152.1677190  29.8389940   3.4329230 152.4555000  29.5844240   2.5562240
 152.6800410  29.2867300   4.0234800 149.4213160  13.4250790  10.5639310
 149.1397430  13.9284390   9.8000130 149.8032860  12.6272540  10.1981440
 143.5422100   6.1246340 145.5229860 143.1650080   6.6133440 144.7914760
 143.7995170   6.7971620 146.1536390 149.1448430   3.1176300 150.4995220
 148.7405430   2.4053550 150.0041120 149.2311550   2.7729540 151.3883260
 144.7286060   6.8836610 150.2176690 144.3214140   7.0251200 149.3630290
 145.6199070   6.5996770 150.0147900 149.0007720  11.0982390 148.3299360
 148.8250200  10.1817930 148.1167160 148.1463460  11.4569680 148.5697160
 147.5815230   5.6948190 146.9020460 146.8077490   5.1545810 146.7419180
 148.3109860   5.1754800 146.5638220 147.6252630   5.3628570 150.5399270
 148.1431300   4.5596830 150.4856160 147.1736650   5.3007710 151.3816100
 152.5122130   6.6294850 145.8126570 152.8537830   7.3737080 145.3169890
 151.6834840   6.9425970 146.1751400 151.4812820   6.7108380 148.5842490
 152.1683950   7.2577590 148.9650080 150.6945240   7.2549110 148.6192100
 143.6205220   2.3281200 144.0759570 144.4900070   2.6106000 144.3595490
 143.1295540   3.1417070 143.9608380 150.7840030   3.7154410 148.1967850
 151.2402810   4.5259660 148.4228040 150.4328240   3.3977550 149.0286340
 143.9876470  11.5408580 144.6421200 144.3474110  12.1397920 143.9878470
 143.8468810  12.0868470 145.4156230 150.0045090   8.9239780 145.4594870
 149.9955190   9.6569470 144.8439380 149.0843450   8.6771360 145.5521830
 145.6051730   4.1454670 146.2041630 144.9979680   4.8853570 146.2136930
 146.0801080   4.2354030 145.3779830 152.9904690   8.9868020 144.1220060
 153.0916670   8.7832010 143.1922040 152.0906430   8.7326300 144.3267840
 151.6322800  11.5054340 148.8167730 151.8864300  11.4675730 147.8947100
 150.6835280  11.3787670 148.8095980 147.6157020   4.1065820 143.9530200
 148.3820290   3.9947180 144.5155630 147.6931710   3.4103790 143.3006970
 147.1118490  11.6886280 151.7397630 147.8480970  11.1401740 152.0106200
 147.4959410  12.5542290 151.6003620 143.9963970   7.7559850 147.6139140
 143.0703750   7.9980990 147.6044550 144.4620400   8.5834110 147.4923890
 150.2220800  10.8616590 143.5623200 151.0149410  11.1505420 143.1104990
 149.7025150  10.4308760 142.8835680 150.7398200   6.0820000 143.4265550
 150.6348840   5.4672350 144.1526930 150.5722420   5.5585890 142.6428560
 149.6476050   4.1030950 145.9272840 150.0692470   3.9370820 146.7704230
 149.7726890   3.2931180 145.4327980 152.1603690   3.1268560 143.1749940
 152.6809350   2.4117580 142.8091090 152.8072090   3.7654430 143.4750450
 146.3647880   6.5807220 143.6938680 146.8022750   7.1236890 144.3496260
 146.8495610   5.7554170 143.7035020 143.5793680   9.3696250 151.1458940
 143.9096690   8.5017310 150.9137580 144.0084680   9.5754770 151.9763900
 148.1755600   7.7005260 148.8060910 147.8751140   7.5770230 149.7064820
 148.0693090   6.8413850 148.3976640 143.9008320   2.7487070 150.2429450
 143.2457160   2.4798710 149.5989150 144.7386270   2.6391550 149.7931430
 144.1066590  11.2767350 149.2255520 143.9388630  10.6438030 149.9237410
 143.2401100  11.4826750 148.8749710 145.7129290   9.9700580 146.6705660
 145.1876910  10.3508610 145.9667620 145.6373870  10.5951350 147.3915370
 148.3122260  11.9182960 145.5454910 149.0441080  11.6342240 144.9978800
 148.5715930  11.6796240 146.4354290 147.4737050   8.0347690 145.5501240
 146.8445930   8.5032790 146.0987070 147.5884880   7.1896910 145.9847430
 147.0770640   4.1752180 134.4587470 146.2455520   3.9200890 134.8583980
 147.6851620   4.2462950 135.1945390 147.0571900   8.2092270 134.6545490
 147.3599940   7.3190010 134.4755710 147.8015490   8.7662490 134.4267740
 149.0370660   4.9665680 136.0530340 148.7040040   5.5934600 136.6951410
 149.2137340   5.4927560 135.2732010 148.2489760   6.9346480 137.8679520
 148.8663760   7.6097560 137.5863970 147.3882880   7.3434460 137.7767020
 143.5422100   6.1246340 126.7486370 143.1650080   6.6133440 126.0171270
 143.7995170   6.7971620 127.3792900 149.1448430   3.1176300 131.7251730
 148.7405430   2.4053550 131.2297630 149.2311550   2.7729540 132.6139770
 149.6130130   6.8043860 133.8890940 149.3158420   6.1989330 133.2098720
 150.5629950   6.8421170 133.7780300 148.7048560   6.5425550 140.5398740
 147.8077090   6.7665520 140.7872140 148.7301430   6.6660490 139.5910140
 147.5319780   3.4138870 139.1156110 147.3927550   4.2861670 139.4843510
 146.6501140   3.0711680 138.9704050 149.3300130   9.3560570 141.3241260
 149.3015560   9.7603520 140.4569690 149.1665100   8.4270930 141.1612860
 143.4838430   5.1836420 135.0327020 143.5618850   5.3185190 134.0882740
 144.0980110   4.4752310 135.2255140 144.7286060   6.8836610 131.4433200
 144.3214140   7.0251200 130.5886800 145.6199070   6.5996770 131.2404410
 149.0007720  11.0982390 129.5555870 148.8250200  10.1817930 129.3423670
 148.1463460  11.4569680 129.7953670 143.5397950   6.2250590 137.5721480
 143.7028990   5.7555950 136.7540850 144.0050400   5.7174150 138.2370320
 145.1136930   5.6002020 139.7317290 144.7291720   4.9595690 140.3300250
 145.4249120   6.3038140 140.3012020 151.2634070   2.4478560 135.2125910
 151.6304200   1.9737130 135.9587250 151.0739130   3.3220130 135.5534250
 147.5815230   5.6948190 128.1276970 146.8077490   5.1545810 127.9675690
 148.3109860   5.1754800 127.7894730 147.6252630   5.3628570 131.7655780
 148.1431300   4.5596830 131.7112670 147.1736650   5.3007710 132.6072610
 152.5122130   6.6294850 127.0383080 152.8537830   7.3737080 126.5426400
 151.6834840   6.9425970 127.4007910 148.3110290   2.7874180 141.5621030
 148.0110430   2.9331360 140.6648850 149.0821530   2.2279470 141.4694420
 151.4812820   6.7108380 129.8099000 152.1683950   7.2577590 130.1906590
 150.6945240   7.2549110 129.8448610 143.6205220   2.3281200 125.3016080
 144.4900070   2.6106000 125.5852000 143.1295540   3.1417070 125.1864890
 150.7840030   3.7154410 129.4224360 151.2402810   4.5259660 129.6484550
 150.4328240   3.3977550 130.2542850 143.9876470  11.5408580 125.8677710
 144.3474110  12.1397920 125.2134980 143.8468810  12.0868470 126.6412740
 143.9718330   9.8063440 140.3420110 144.0809450   8.8658180 140.2015500
 143.3198890  10.0718190 139.6933840 151.9630920   8.0779330 141.7418230
 151.6427790   7.3588570 142.2863920 151.2889280   8.7534400 141.8154290
 150.0045090   8.9239780 126.6851380 149.9955190   9.6569470 126.0695890
 149.0843450   8.6771360 126.7778340 145.6051730   4.1454670 127.4298140
 144.9979680   4.8853570 127.4393440 146.0801080   4.2354030 126.6036340
 152.9904690   8.9868020 125.3476570 153.0916670   8.7832010 124.4178550
 152.0906430   8.7326300 125.5524350 151.6322800  11.5054340 130.0424240
 151.8864300  11.4675730 129.1203610 150.6835280  11.3787670 130.0352490
 147.6157020   4.1065820 125.1786710 148.3820290   3.9947180 125.7412140
 147.6931710   3.4103790 124.5263480 147.1118490  11.6886280 132.9654140
 147.8480970  11.1401740 133.2362710 147.4959410  12.5542290 132.8260130
 143.9963970   7.7559850 128.8395650 143.0703750   7.9980990 128.8301060
 144.4620400   8.5834110 128.7180400 146.1176770  10.8732350 142.1539720
 146.9189500  11.1944400 142.5675120 145.6028590  10.5127930 142.8759630
 150.2220800  10.8616590 124.7879710 151.0149410  11.1505420 124.3361500
 149.7025150  10.4308760 124.1092190 143.8374580   3.3605810 141.0975770
 144.3413600   2.7813090 141.6692000 143.0982000   3.6446040 141.6352140
 150.7398200   6.0820000 124.6522060 150.6348840   5.4672350 125.3783440
 150.5722420   5.5585890 123.8685070 150.8912520   4.7676800 140.6311290
 150.1258190   5.3361800 140.5465960 151.0728480   4.4753010 139.7379520
 149.6476050   4.1030950 127.1529350 150.0692470   3.9370820 127.9960740
 149.7726890   3.2931180 126.6584490 152.1603690   3.1268560 124.4006450
 152.6809350   2.4117580 124.0347600 152.8072090   3.7654430 124.7006960
 151.4696760   4.5017440 137.6937450 151.8884870   5.3450170 137.5213690
 150.5505390   4.6389480 137.4644230 149.3204180  10.8070450 138.8095180
 148.7825270  11.5316510 138.4903880 149.5738140  10.3300790 138.0192520
 152.1766390  12.0421660 139.0681830 152.1025090  12.9456800 139.3754200
 151.2745230  11.7233560 139.0403900 146.3647880   6.5807220 124.9195190
 146.8022750   7.1236890 125.5752770 146.8495610   5.7554170 124.9291530
 143.5793680   9.3696250 132.3715450 143.9096690   8.5017310 132.1394090
 144.0084680   9.5754770 133.2020410 148.1755600   7.7005260 130.0317420
 147.8751140   7.5770230 130.9321330 148.0693090   6.8413850 129.6233150
 144.0683890  10.2366840 135.1097080 143.6314880  10.4167640 135.9421230
 144.6361570  10.9941460 134.9678800 143.9008320   2.7487070 131.4685960
 143.2457160   2.4798710 130.8245660 144.7386270   2.6391550 131.0187940
 144.9384250   3.1339640 136.0089300 145.3057290   3.0467040 136.8885320
 144.3695070   2.3706190 135.9096160 146.3536330   7.6472330 141.1709450
 146.3105960   7.2765240 142.0523910 146.4847340   8.5849900 141.3111270
 150.0542360   9.2031920 136.7719170 149.8133720   9.4706480 135.8849690
 150.9945000   9.3737650 136.8270030 146.1924360  10.5934580 138.2907230
 145.5984680  10.4619280 139.0297270 146.1848200   9.7572720 137.8249330
 145.8236590   7.9592960 137.2415270 145.0970650   7.3398250 137.1741220
 145.8845740   8.3533570 136.3713350 149.4281690  10.1737960 134.0264680
 149.9446710   9.5625320 133.5012940 150.0779070  10.6766740 134.5175690
 152.1677190  11.0646450 134.8533660 152.4555000  10.8100750 133.9766670
 152.6800410  10.5123810 135.4439230 144.1066590  11.2767350 130.4512030
 143.9388630  10.6438030 131.1493920 143.2401100  11.4826750 130.1006220
 145.7129290   9.9700580 127.8962170 145.1876910  10.3508610 127.1924130
 145.6373870  10.5951350 128.6171880 148.3122260  11.9182960 126.7711420
 149.0441080  11.6342240 126.2235310 148.5715930  11.6796240 127.6610800
 147.4737050   8.0347690 126.7757750 146.8445930   8.5032790 127.3243580
 147.5884880   7.1896910 127.2103940 147.0770640   4.1752180 115.6843980
 146.2455520   3.9200890 116.0840490 147.6851620   4.2462950 116.4201900
 147.0571900   8.2092270 115.8802000 147.3599940   7.3190010 115.7012220
 147.8015490   8.7662490 115.6524250 149.0370660   4.9665680 117.2786850
 148.7040040   5.5934600 117.9207920 149.2137340   5.4927560 116.4988520
 148.2489760   6.9346480 119.0936030 148.8663760   7.6097560 118.8120480
 147.3882880   7.3434460 119.0023530 143.5422100   6.1246340 107.9742880
 143.1650080   6.6133440 107.2427780 143.7995170   6.7971620 108.6049410
 149.1448430   3.1176300 112.9508240 148.7405430   2.4053550 112.4554140
 149.2311550   2.7729540 113.8396280 149.6130130   6.8043860 115.1147450
 149.3158420   6.1989330 114.4355230 150.5629950   6.8421170 115.0036810
 148.7048560   6.5425550 121.7655250 147.8077090   6.7665520 122.0128650
 148.7301430   6.6660490 120.8166650 147.5319780   3.4138870 120.3412620
 147.3927550   4.2861670 120.7100020 146.6501140   3.0711680 120.1960560
 149.3300130   9.3560570 122.5497770 149.3015560   9.7603520 121.6826200
 149.1665100   8.4270930 122.3869370 143.4838430   5.1836420 116.2583530
 143.5618850   5.3185190 115.3139250 144.0980110   4.4752310 116.4511650
 144.7286060   6.8836610 112.6689710 144.3214140   7.0251200 111.8143310
 145.6199070   6.5996770 112.4660920 149.0007720  11.0982390 110.7812380
 148.8250200  10.1817930 110.5680180 148.1463460  11.4569680 111.0210180
 143.5397950   6.2250590 118.7977990 143.7028990   5.7555950 117.9797360
 144.0050400   5.7174150 119.4626830 145.1136930   5.6002020 120.9573800
 144.7291720   4.9595690 121.5556760 145.4249120   6.3038140 121.5268530
 151.2634070   2.4478560 116.4382420 151.6304200   1.9737130 117.1843760
 151.0739130   3.3220130 116.7790760 147.5815230   5.6948190 109.3533480
 146.8077490   5.1545810 109.1932200 148.3109860   5.1754800 109.0151240
 147.6252630   5.3628570 112.9912290 148.1431300   4.5596830 112.9369180
 147.1736650   5.3007710 113.8329120 152.5122130   6.6294850 108.2639590
 152.8537830   7.3737080 107.7682910 151.6834840   6.9425970 108.6264420
 148.3110290   2.7874180 122.7877540 148.0110430   2.9331360 121.8905360
 149.0821530   2.2279470 122.6950930 151.4812820   6.7108380 111.0355510
 152.1683950   7.2577590 111.4163100 150.6945240   7.2549110 111.0705120
 143.6205220   2.3281200 106.5272590 144.4900070   2.6106000 106.8108510
 143.1295540   3.1417070 106.4121400 150.7840030   3.7154410 110.6480870
 151.2402810   4.5259660 110.8741060 150.4328240   3.3977550 111.4799360
 143.9876470  11.5408580 107.0934220 144.3474110  12.1397920 106.4391490
 143.8468810  12.0868470 107.8669250 143.9718330   9.8063440 121.5676620
 144.0809450   8.8658180 121.4272010 143.3198890  10.0718190 120.9190350
 151.9630920   8.0779330 122.9674740 151.6427790   7.3588570 123.5120430
 151.2889280   8.7534400 123.0410800 150.0045090   8.9239780 107.9107890
 149.9955190   9.6569470 107.2952400 149.0843450   8.6771360 108.0034850
 145.6051730   4.1454670 108.6554650 144.9979680   4.8853570 108.6649950
 146.0801080   4.2354030 107.8292850 152.9904690   8.9868020 106.5733080
 153.0916670   8.7832010 105.6435060 152.0906430   8.7326300 106.7780860
 151.6322800  11.5054340 111.2680750 151.8864300  11.4675730 110.3460120
 150.6835280  11.3787670 111.2609000 147.6157020   4.1065820 106.4043220
 148.3820290   3.9947180 106.9668650 147.6931710   3.4103790 105.7519990
 147.1118490  11.6886280 114.1910650 147.8480970  11.1401740 114.4619220
 147.4959410  12.5542290 114.0516640 143.9963970   7.7559850 110.0652160
 143.0703750   7.9980990 110.0557570 144.4620400   8.5834110 109.9436910
 146.1176770  10.8732350 123.3796230 146.9189500  11.1944400 123.7931630
 145.6028590  10.5127930 124.1016140 150.2220800  10.8616590 106.0136220
 151.0149410  11.1505420 105.5618010 149.7025150  10.4308760 105.3348700
 143.8374580   3.3605810 122.3232280 144.3413600   2.7813090 122.8948510
 143.0982000   3.6446040 122.8608650 150.7398200   6.0820000 105.8778570
 150.6348840   5.4672350 106.6039950 150.5722420   5.5585890 105.0941580
 150.8912520   4.7676800 121.8567800 150.1258190   5.3361800 121.7722470
 151.0728480   4.4753010 120.9636030 149.6476050   4.1030950 108.3785860
 150.0692470   3.9370820 109.2217250 149.7726890   3.2931180 107.8841000
 152.1603690   3.1268560 105.6262960 152.6809350   2.4117580 105.2604110
 152.8072090   3.7654430 105.9263470 151.4696760   4.5017440 118.9193960
 151.8884870   5.3450170 118.7470200 150.5505390   4.6389480 118.6900740
 149.3204180  10.8070450 120.0351690 148.7825270  11.5316510 119.7160390
 149.5738140  10.3300790 119.2449030 152.1766390  12.0421660 120.2938340
 152.1025090  12.9456800 120.6010710 151.2745230  11.7233560 120.2660410
 146.3647880   6.5807220 106.1451700 146.8022750   7.1236890 106.8009280
 146.8495610   5.7554170 106.1548040 143.5793680   9.3696250 113.5971960
 143.9096690   8.5017310 113.3650600 144.0084680   9.5754770 114.4276920
 148.1755600   7.7005260 111.2573930 147.8751140   7.5770230 112.1577840
 148.0693090   6.8413850 110.8489660 144.0683890  10.2366840 116.3353590
 143.6314880  10.4167640 117.1677740 144.6361570  10.9941460 116.1935310
 143.9008320   2.7487070 112.6942470 143.2457160   2.4798710 112.0502170
 144.7386270   2.6391550 112.2444450 144.9384250   3.1339640 117.2345810
 145.3057290   3.0467040 118.1141830 144.3695070   2.3706190 117.1352670
 146.3536330   7.6472330 122.3965960 146.3105960   7.2765240 123.2780420
 146.4847340   8.5849900 122.5367780 150.0542360   9.2031920 117.9975680
 149.8133720   9.4706480 117.1106200 150.9945000   9.3737650 118.0526540
 146.1924360  10.5934580 119.5163740 145.5984680  10.4619280 120.2553780
 146.1848200   9.7572720 119.0505840 145.8236590   7.9592960 118.4671780
 145.0970650   7.3398250 118.3997730 145.8845740   8.3533570 117.5969860
 149.4281690  10.1737960 115.2521190 149.9446710   9.5625320 114.7269450
 150.0779070  10.6766740 115.7432200 152.1677190  11.0646450 116.0790170
 152.4555000  10.8100750 115.2023180 152.6800410  10.5123810 116.6695740
 144.1066590  11.2767350 111.6768540 143.9388630  10.6438030 112.3750430
 143.2401100  11.4826750 111.3262730 145.7129290   9.9700580 109.1218680
 145.1876910  10.3508610 108.4180640 145.6373870  10.5951350 109.8428390
 148.3122260  11.9182960 107.9967930 149.0441080  11.6342240 107.4491820
 148.5715930  11.6796240 108.8867310 147.4737050   8.0347690 108.0014260
 146.8445930   8.5032790 108.5500090 147.5884880   7.1896910 108.4360450
 147.0770640   4.1752180  96.9100490 146.2455520   3.9200890  97.3097000
 147.6851620   4.2462950  97.6458410 147.0571900   8.2092270  97.1058510
 147.3599940   7.3190010  96.9268730 147.8015490   8.7662490  96.8780760
 149.0370660   4.9665680  98.5043360 148.7040040   5.5934600  99.1464430
 149.2137340   5.4927560  97.7245030 148.2489760   6.9346480 100.3192540
 148.8663760   7.6097560 100.0376990 147.3882880   7.3434460 100.2280040
 143.5422100   6.1246340  89.1999390 143.1650080   6.6133440  88.4684290
 143.7995170   6.7971620  89.8305920 149.1448430   3.1176300  94.1764750
 148.7405430   2.4053550  93.6810650 149.2311550   2.7729540  95.0652790
 149.6130130   6.8043860  96.3403960 149.3158420   6.1989330  95.6611740
 150.5629950   6.8421170  96.2293320 148.7048560   6.5425550 102.9911760
 147.8077090   6.7665520 103.2385160 148.7301430   6.6660490 102.0423160
 147.5319780   3.4138870 101.5669130 147.3927550   4.2861670 101.9356530
 146.6501140   3.0711680 101.4217070 149.3300130   9.3560570 103.7754280
 149.3015560   9.7603520 102.9082710 149.1665100   8.4270930 103.6125880
 143.4838430   5.1836420  97.4840040 143.5618850   5.3185190  96.5395760
 144.0980110   4.4752310  97.6768160 144.7286060   6.8836610  93.8946220
 144.3214140   7.0251200  93.0399820 145.6199070   6.5996770  93.6917430
 149.0007720  11.0982390  92.0068890 148.8250200  10.1817930  91.7936690
 148.1463460  11.4569680  92.2466690 143.5397950   6.2250590 100.0234500
 143.7028990   5.7555950  99.2053870 144.0050400   5.7174150 100.6883340
 145.1136930   5.6002020 102.1830310 144.7291720   4.9595690 102.7813270
 145.4249120   6.3038140 102.7525040 151.2634070   2.4478560  97.6638930
 151.6304200   1.9737130  98.4100270 151.0739130   3.3220130  98.0047270
 147.5815230   5.6948190  90.5789990 146.8077490   5.1545810  90.4188710
 148.3109860   5.1754800  90.2407750 147.6252630   5.3628570  94.2168800
 148.1431300   4.5596830  94.1625690 147.1736650   5.3007710  95.0585630
 152.5122130   6.6294850  89.4896100 152.8537830   7.3737080  88.9939420
 151.6834840   6.9425970  89.8520930 148.3110290   2.7874180 104.0134050
 148.0110430   2.9331360 103.1161870 149.0821530   2.2279470 103.9207440
 151.4812820   6.7108380  92.2612020 152.1683950   7.2577590  92.6419610
 150.6945240   7.2549110  92.2961630 143.6205220   2.3281200  87.7529100
 144.4900070   2.6106000  88.0365020 143.1295540   3.1417070  87.6377910
 150.7840030   3.7154410  91.8737380 151.2402810   4.5259660  92.0997570
 150.4328240   3.3977550  92.7055870 143.9876470  11.5408580  88.3190730
 144.3474110  12.1397920  87.6648000 143.8468810  12.0868470  89.0925760
 143.9718330   9.8063440 102.7933130 144.0809450   8.8658180 102.6528520
 143.3198890  10.0718190 102.1446860 151.9630920   8.0779330 104.1931250
 151.6427790   7.3588570 104.7376940 151.2889280   8.7534400 104.2667310
 150.0045090   8.9239780  89.1364400 149.9955190   9.6569470  88.5208910
 149.0843450   8.6771360  89.2291360 145.6051730   4.1454670  89.8811160
 144.9979680   4.8853570  89.8906460 146.0801080   4.2354030  89.0549360
 152.9904690   8.9868020  87.7989590 153.0916670   8.7832010  86.8691570
 152.0906430   8.7326300  88.0037370 151.6322800  11.5054340  92.4937260
 151.8864300  11.4675730  91.5716630 150.6835280  11.3787670  92.4865510
 147.6157020   4.1065820  87.6299730 148.3820290   3.9947180  88.1925160
 147.6931710   3.4103790  86.9776500 147.1118490  11.6886280  95.4167160
 147.8480970  11.1401740  95.6875730 147.4959410  12.5542290  95.2773150
 143.9963970   7.7559850  91.2908670 143.0703750   7.9980990  91.2814080
 144.4620400   8.5834110  91.1693420 146.1176770  10.8732350 104.6052740
 146.9189500  11.1944400 105.0188140 145.6028590  10.5127930 105.3272650
 150.2220800  10.8616590  87.2392730 151.0149410  11.1505420  86.7874520
 149.7025150  10.4308760  86.5605210 143.8374580   3.3605810 103.5488790
 144.3413600   2.7813090 104.1205020 143.0982000   3.6446040 104.0865160
 150.7398200   6.0820000  87.1035080 150.6348840   5.4672350  87.8296460
 150.5722420   5.5585890  86.3198090 150.8912520   4.7676800 103.0824310
 150.1258190   5.3361800 102.9978980 151.0728480   4.4753010 102.1892540
 149.6476050   4.1030950  89.6042370 150.0692470   3.9370820  90.4473760
 149.7726890   3.2931180  89.1097510 152.1603690   3.1268560  86.8519470
 152.6809350   2.4117580  86.4860620 152.8072090   3.7654430  87.1519980
 151.4696760   4.5017440 100.1450470 151.8884870   5.3450170  99.9726710
 150.5505390   4.6389480  99.9157250 149.3204180  10.8070450 101.2608200
 148.7825270  11.5316510 100.9416900 149.5738140  10.3300790 100.4705540
 152.1766390  12.0421660 101.5194850 152.1025090  12.9456800 101.8267220
 151.2745230  11.7233560 101.4916920 146.3647880   6.5807220  87.3708210
 146.8022750   7.1236890  88.0265790 146.8495610   5.7554170  87.3804550
 143.5793680   9.3696250  94.8228470 143.9096690   8.5017310  94.5907110
 144.0084680   9.5754770  95.6533430 148.1755600   7.7005260  92.4830440
 147.8751140   7.5770230  93.3834350 148.0693090   6.8413850  92.0746170
 144.0683890  10.2366840  97.5610100 143.6314880  10.4167640  98.3934250
 144.6361570  10.9941460  97.4191820 143.9008320   2.7487070  93.9198980
 143.2457160   2.4798710  93.2758680 144.7386270   2.6391550  93.4700960
 144.9384250   3.1339640  98.4602320 145.3057290   3.0467040  99.3398340
 144.3695070   2.3706190  98.3609180 146.3536330   7.6472330 103.6222470
 146.3105960   7.2765240 104.5036930 146.4847340   8.5849900 103.7624290
 150.0542360   9.2031920  99.2232190 149.8133720   9.4706480  98.3362710
 150.9945000   9.3737650  99.2783050 146.1924360  10.5934580 100.7420250
 145.5984680  10.4619280 101.4810290 146.1848200   9.7572720 100.2762350
 145.8236590   7.9592960  99.6928290 145.0970650   7.3398250  99.6254240
 145.8845740   8.3533570  98.8226370 149.4281690  10.1737960  96.4777700
 149.9446710   9.5625320  95.9525960 150.0779070  10.6766740  96.9688710
 152.1677190  11.0646450  97.3046680 152.4555000  10.8100750  96.4279690
 152.6800410  10.5123810  97.8952250 144.1066590  11.2767350  92.9025050
 143.9388630  10.6438030  93.6006940 143.2401100  11.4826750  92.5519240
 145.7129290   9.9700580  90.3475190 145.1876910  10.3508610  89.6437150
 145.6373870  10.5951350  91.0684900 148.3122260  11.9182960  89.2224440
 149.0441080  11.6342240  88.6748330 148.5715930  11.6796240  90.1123820
 147.4737050   8.0347690  89.2270770 146.8445930   8.5032790  89.7756600
 147.5884880   7.1896910  89.6616960 147.0770640   4.1752180  78.1357000
 146.2455520   3.9200890  78.5353510 147.6851620   4.2462950  78.8714920
 147.0571900   8.2092270  78.3315020 147.3599940   7.3190010  78.1525240
 147.8015490   8.7662490  78.1037270 149.0370660   4.9665680  79.7299870
 148.7040040   5.5934600  80.3720940 149.2137340   5.4927560  78.9501540
 148.2489760   6.9346480  81.5449050 148.8663760   7.6097560  81.2633500
 147.3882880   7.3434460  81.4536550 143.5422100   6.1246340  70.4255900
 143.1650080   6.6133440  69.6940800 143.7995170   6.7971620  71.0562430
 149.1448430   3.1176300  75.4021260 148.7405430   2.4053550  74.9067160
 149.2311550   2.7729540  76.2909300 149.6130130   6.8043860  77.5660470
 149.3158420   6.1989330  76.8868250 150.5629950   6.8421170  77.4549830
 148.7048560   6.5425550  84.2168270 147.8077090   6.7665520  84.4641670
 148.7301430   6.6660490  83.2679670 147.5319780   3.4138870  82.7925640
 147.3927550   4.2861670  83.1613040 146.6501140   3.0711680  82.6473580
 149.3300130   9.3560570  85.0010790 149.3015560   9.7603520  84.1339220
 149.1665100   8.4270930  84.8382390 143.4838430   5.1836420  78.7096550
 143.5618850   5.3185190  77.7652270 144.0980110   4.4752310  78.9024670
 144.7286060   6.8836610  75.1202730 144.3214140   7.0251200  74.2656330
 145.6199070   6.5996770  74.9173940 149.0007720  11.0982390  73.2325400
 148.8250200  10.1817930  73.0193200 148.1463460  11.4569680  73.4723200
 143.5397950   6.2250590  81.2491010 143.7028990   5.7555950  80.4310380
 144.0050400   5.7174150  81.9139850 145.1136930   5.6002020  83.4086820
 144.7291720   4.9595690  84.0069780 145.4249120   6.3038140  83.9781550
 151.2634070   2.4478560  78.8895440 151.6304200   1.9737130  79.6356780
 151.0739130   3.3220130  79.2303780 147.5815230   5.6948190  71.8046500
 146.8077490   5.1545810  71.6445220 148.3109860   5.1754800  71.4664260
 147.6252630   5.3628570  75.4425310 148.1431300   4.5596830  75.3882200
 147.1736650   5.3007710  76.2842140 152.5122130   6.6294850  70.7152610
 152.8537830   7.3737080  70.2195930 151.6834840   6.9425970  71.0777440
 148.3110290   2.7874180  85.2390560 148.0110430   2.9331360  84.3418380
 149.0821530   2.2279470  85.1463950 151.4812820   6.7108380  73.4868530
 152.1683950   7.2577590  73.8676120 150.6945240   7.2549110  73.5218140
 143.6205220   2.3281200  68.9785610 144.4900070   2.6106000  69.2621530
 143.1295540   3.1417070  68.8634420 150.7840030   3.7154410  73.0993890
 151.2402810   4.5259660  73.3254080 150.4328240   3.3977550  73.9312380
 143.9876470  11.5408580  69.5447240 144.3474110  12.1397920  68.8904510
 143.8468810  12.0868470  70.3182270 143.9718330   9.8063440  84.0189640
 144.0809450   8.8658180  83.8785030 143.3198890  10.0718190  83.3703370
 151.9630920   8.0779330  85.4187760 151.6427790   7.3588570  85.9633450
 151.2889280   8.7534400  85.4923820 150.0045090   8.9239780  70.3620910
 149.9955190   9.6569470  69.7465420 149.0843450   8.6771360  70.4547870
 145.6051730   4.1454670  71.1067670 144.9979680   4.8853570  71.1162970
 146.0801080   4.2354030  70.2805870 152.9904690   8.9868020  69.0246100
 153.0916670   8.7832010  68.0948080 152.0906430   8.7326300  69.2293880
 151.6322800  11.5054340  73.7193770 151.8864300  11.4675730  72.7973140
 150.6835280  11.3787670  73.7122020 147.6157020   4.1065820  68.8556240
 148.3820290   3.9947180  69.4181670 147.6931710   3.4103790  68.2033010
 147.1118490  11.6886280  76.6423670 147.8480970  11.1401740  76.9132240
 147.4959410  12.5542290  76.5029660 143.9963970   7.7559850  72.5165180
 143.0703750   7.9980990  72.5070590 144.4620400   8.5834110  72.3949930
 146.1176770  10.8732350  85.8309250 146.9189500  11.1944400  86.2444650
 145.6028590  10.5127930  86.5529160 150.2220800  10.8616590  68.4649240
 151.0149410  11.1505420  68.0131030 149.7025150  10.4308760  67.7861720
 143.8374580   3.3605810  84.7745300 144.3413600   2.7813090  85.3461530
 143.0982000   3.6446040  85.3121670 150.7398200   6.0820000  68.3291590
 150.6348840   5.4672350  69.0552970 150.5722420   5.5585890  67.5454600
 150.8912520   4.7676800  84.3080820 150.1258190   5.3361800  84.2235490
 151.0728480   4.4753010  83.4149050 149.6476050   4.1030950  70.8298880
 150.0692470   3.9370820  71.6730270 149.7726890   3.2931180  70.3354020
 152.1603690   3.1268560  68.0775980 152.6809350   2.4117580  67.7117130
 152.8072090   3.7654430  68.3776490 151.4696760   4.5017440  81.3706980
 151.8884870   5.3450170  81.1983220 150.5505390   4.6389480  81.1413760
 149.3204180  10.8070450  82.4864710 148.7825270  11.5316510  82.1673410
 149.5738140  10.3300790  81.6962050 152.1766390  12.0421660  82.7451360
 152.1025090  12.9456800  83.0523730 151.2745230  11.7233560  82.7173430
 146.3647880   6.5807220  68.5964720 146.8022750   7.1236890  69.2522300
 146.8495610   5.7554170  68.6061060 143.5793680   9.3696250  76.0484980
 143.9096690   8.5017310  75.8163620 144.0084680   9.5754770  76.8789940
 148.1755600   7.7005260  73.7086950 147.8751140   7.5770230  74.6090860
 148.0693090   6.8413850  73.3002680 144.0683890  10.2366840  78.7866610
 143.6314880  10.4167640  79.6190760 144.6361570  10.9941460  78.6448330
 143.9008320   2.7487070  75.1455490 143.2457160   2.4798710  74.5015190
 144.7386270   2.6391550  74.6957470 144.9384250   3.1339640  79.6858830
 145.3057290   3.0467040  80.5654850 144.3695070   2.3706190  79.5865690
 146.3536330   7.6472330  84.8478980 146.3105960   7.2765240  85.7293440
 146.4847340   8.5849900  84.9880800 150.0542360   9.2031920  80.4488700
 149.8133720   9.4706480  79.5619220 150.9945000   9.3737650  80.5039560
 146.1924360  10.5934580  81.9676760 145.5984680  10.4619280  82.7066800
 146.1848200   9.7572720  81.5018860 145.8236590   7.9592960  80.9184800
 145.0970650   7.3398250  80.8510750 145.8845740   8.3533570  80.0482880
 149.4281690  10.1737960  77.7034210 149.9446710   9.5625320  77.1782470
 150.0779070  10.6766740  78.1945220 152.1677190  11.0646450  78.5303190
 152.4555000  10.8100750  77.6536200 152.6800410  10.5123810  79.1208760
 144.1066590  11.2767350  74.1281560 143.9388630  10.6438030  74.8263450
 143.2401100  11.4826750  73.7775750 145.7129290   9.9700580  71.5731700
 145.1876910  10.3508610  70.8693660 145.6373870  10.5951350  72.2941410
 148.3122260  11.9182960  70.4480950 149.0441080  11.6342240  69.9004840
 148.5715930  11.6796240  71.3380330 147.4737050   8.0347690  70.4527280
 146.8445930   8.5032790  71.0013110 147.5884880   7.1896910  70.8873470
 147.0770640   4.1752180  59.3613510 146.2455520   3.9200890  59.7610020
 147.6851620   4.2462950  60.0971430 147.0571900   8.2092270  59.5571530
 147.3599940   7.3190010  59.3781750 147.8015490   8.7662490  59.3293780
 149.0370660   4.9665680  60.9556380 148.7040040   5.5934600  61.5977450
 149.2137340   5.4927560  60.1758050 148.2489760   6.9346480  62.7705560
 148.8663760   7.6097560  62.4890010 147.3882880   7.3434460  62.6793060
 143.5422100   6.1246340  51.6512410 143.1650080   6.6133440  50.9197310
 143.7995170   6.7971620  52.2818940 149.1448430   3.1176300  56.6277770
 148.7405430   2.4053550  56.1323670 149.2311550   2.7729540  57.5165810
 149.6130130   6.8043860  58.7916980 149.3158420   6.1989330  58.1124760
 150.5629950   6.8421170  58.6806340 148.7048560   6.5425550  65.4424780
 147.8077090   6.7665520  65.6898180 148.7301430   6.6660490  64.4936180
 147.5319780   3.4138870  64.0182150 147.3927550   4.2861670  64.3869550
 146.6501140   3.0711680  63.8730090 149.3300130   9.3560570  66.2267300
 149.3015560   9.7603520  65.3595730 149.1665100   8.4270930  66.0638900
 143.4838430   5.1836420  59.9353060 143.5618850   5.3185190  58.9908780
 144.0980110   4.4752310  60.1281180 144.7286060   6.8836610  56.3459240
 144.3214140   7.0251200  55.4912840 145.6199070   6.5996770  56.1430450
 149.0007720  11.0982390  54.4581910 148.8250200  10.1817930  54.2449710
 148.1463460  11.4569680  54.6979710 143.5397950   6.2250590  62.4747520
 143.7028990   5.7555950  61.6566890 144.0050400   5.7174150  63.1396360
 145.1136930   5.6002020  64.6343330 144.7291720   4.9595690  65.2326290
 145.4249120   6.3038140  65.2038060 151.2634070   2.4478560  60.1151950
 151.6304200   1.9737130  60.8613290 151.0739130   3.3220130  60.4560290
 147.5815230   5.6948190  53.0303010 146.8077490   5.1545810  52.8701730
 148.3109860   5.1754800  52.6920770 147.6252630   5.3628570  56.6681820
 148.1431300   4.5596830  56.6138710 147.1736650   5.3007710  57.5098650
 152.5122130   6.6294850  51.9409120 152.8537830   7.3737080  51.4452440
 151.6834840   6.9425970  52.3033950 148.3110290   2.7874180  66.4647070
 148.0110430   2.9331360  65.5674890 149.0821530   2.2279470  66.3720460
 151.4812820   6.7108380  54.7125040 152.1683950   7.2577590  55.0932630
 150.6945240   7.2549110  54.7474650 143.6205220   2.3281200  50.2042120
 144.4900070   2.6106000  50.4878040 143.1295540   3.1417070  50.0890930
 150.7840030   3.7154410  54.3250400 151.2402810   4.5259660  54.5510590
 150.4328240   3.3977550  55.1568890 143.9876470  11.5408580  50.7703750
 144.3474110  12.1397920  50.1161020 143.8468810  12.0868470  51.5438780
 143.9718330   9.8063440  65.2446150 144.0809450   8.8658180  65.1041540
 143.3198890  10.0718190  64.5959880 151.9630920   8.0779330  66.6444270
 151.6427790   7.3588570  67.1889960 151.2889280   8.7534400  66.7180330
 150.0045090   8.9239780  51.5877420 149.9955190   9.6569470  50.9721930
 149.0843450   8.6771360  51.6804380 145.6051730   4.1454670  52.3324180
 144.9979680   4.8853570  52.3419480 146.0801080   4.2354030  51.5062380
 152.9904690   8.9868020  50.2502610 153.0916670   8.7832010  49.3204590
 152.0906430   8.7326300  50.4550390 151.6322800  11.5054340  54.9450280
 151.8864300  11.4675730  54.0229650 150.6835280  11.3787670  54.9378530
 147.6157020   4.1065820  50.0812750 148.3820290   3.9947180  50.6438180
 147.6931710   3.4103790  49.4289520 147.1118490  11.6886280  57.8680180
 147.8480970  11.1401740  58.1388750 147.4959410  12.5542290  57.7286170
 143.9963970   7.7559850  53.7421690 143.0703750   7.9980990  53.7327100
 144.4620400   8.5834110  53.6206440 146.1176770  10.8732350  67.0565760
 146.9189500  11.1944400  67.4701160 145.6028590  10.5127930  67.7785670
 150.2220800  10.8616590  49.6905750 151.0149410  11.1505420  49.2387540
 149.7025150  10.4308760  49.0118230 143.8374580   3.3605810  66.0001810
 144.3413600   2.7813090  66.5718040 143.0982000   3.6446040  66.5378180
 150.7398200   6.0820000  49.5548100 150.6348840   5.4672350  50.2809480
 150.5722420   5.5585890  48.7711110 150.8912520   4.7676800  65.5337330
 150.1258190   5.3361800  65.4492000 151.0728480   4.4753010  64.6405560
 149.6476050   4.1030950  52.0555390 150.0692470   3.9370820  52.8986780
 149.7726890   3.2931180  51.5610530 152.1603690   3.1268560  49.3032490
 152.6809350   2.4117580  48.9373640 152.8072090   3.7654430  49.6033000
 151.4696760   4.5017440  62.5963490 151.8884870   5.3450170  62.4239730
 150.5505390   4.6389480  62.3670270 149.3204180  10.8070450  63.7121220
 148.7825270  11.5316510  63.3929920 149.5738140  10.3300790  62.9218560
 152.1766390  12.0421660  63.9707870 152.1025090  12.9456800  64.2780240
 151.2745230  11.7233560  63.9429940 146.3647880   6.5807220  49.8221230
 146.8022750   7.1236890  50.4778810 146.8495610   5.7554170  49.8317570
 143.5793680   9.3696250  57.2741490 143.9096690   8.5017310  57.0420130
 144.0084680   9.5754770  58.1046450 148.1755600   7.7005260  54.9343460
 147.8751140   7.5770230  55.8347370 148.0693090   6.8413850  54.5259190
 144.0683890  10.2366840  60.0123120 143.6314880  10.4167640  60.8447270
 144.6361570  10.9941460  59.8704840 143.9008320   2.7487070  56.3712000
 143.2457160   2.4798710  55.7271700 144.7386270   2.6391550  55.9213980
 144.9384250   3.1339640  60.9115340 145.3057290   3.0467040  61.7911360
 144.3695070   2.3706190  60.8122200 146.3536330   7.6472330  66.0735490
 146.3105960   7.2765240  66.9549950 146.4847340   8.5849900  66.2137310
 150.0542360   9.2031920  61.6745210 149.8133720   9.4706480  60.7875730
 150.9945000   9.3737650  61.7296070 146.1924360  10.5934580  63.1933270
 145.5984680  10.4619280  63.9323310 146.1848200   9.7572720  62.7275370
 145.8236590   7.9592960  62.1441310 145.0970650   7.3398250  62.0767260
 145.8845740   8.3533570  61.2739390 149.4281690  10.1737960  58.9290720
 149.9446710   9.5625320  58.4038980 150.0779070  10.6766740  59.4201730
 152.1677190  11.0646450  59.7559700 152.4555000  10.8100750  58.8792710
 152.6800410  10.5123810  60.3465270 144.1066590  11.2767350  55.3538070
 143.9388630  10.6438030  56.0519960 143.2401100  11.4826750  55.0032260
 145.7129290   9.9700580  52.7988210 145.1876910  10.3508610  52.0950170
 145.6373870  10.5951350  53.5197920 148.3122260  11.9182960  51.6737460
 149.0441080  11.6342240  51.1261350 148.5715930  11.6796240  52.5636840
 147.4737050   8.0347690  51.6783790 146.8445930   8.5032790  52.2269620
 147.5884880   7.1896910  52.1129980 147.0770640   4.1752180  40.5870020
 146.2455520   3.9200890  40.9866530 147.6851620   4.2462950  41.3227940
 147.0571900   8.2092270  40.7828040 147.3599940   7.3190010  40.6038260
 147.8015490   8.7662490  40.5550290 149.0370660   4.9665680  42.1812890
 148.7040040   5.5934600  42.8233960 149.2137340   5.4927560  41.4014560
 148.2489760   6.9346480  43.9962070 148.8663760   7.6097560  43.7146520
 147.3882880   7.3434460  43.9049570 143.5422100   6.1246340  32.8768920
 143.1650080   6.6133440  32.1453820 143.7995170   6.7971620  33.5075450
 149.1448430   3.1176300  37.8534280 148.7405430   2.4053550  37.3580180
 149.2311550   2.7729540  38.7422320 149.6130130   6.8043860  40.0173490
 149.3158420   6.1989330  39.3381270 150.5629950   6.8421170  39.9062850
 148.7048560   6.5425550  46.6681290 147.8077090   6.7665520  46.9154690
 148.7301430   6.6660490  45.7192690 147.5319780   3.4138870  45.2438660
 147.3927550   4.2861670  45.6126060 146.6501140   3.0711680  45.0986600
 149.3300130   9.3560570  47.4523810 149.3015560   9.7603520  46.5852240
 149.1665100   8.4270930  47.2895410 143.4838430   5.1836420  41.1609570
 143.5618850   5.3185190  40.2165290 144.0980110   4.4752310  41.3537690
 144.7286060   6.8836610  37.5715750 144.3214140   7.0251200  36.7169350
 145.6199070   6.5996770  37.3686960 149.0007720  11.0982390  35.6838420
 148.8250200  10.1817930  35.4706220 148.1463460  11.4569680  35.9236220
 143.5397950   6.2250590  43.7004030 143.7028990   5.7555950  42.8823400
 144.0050400   5.7174150  44.3652870 145.1136930   5.6002020  45.8599840
 144.7291720   4.9595690  46.4582800 145.4249120   6.3038140  46.4294570
 151.2634070   2.4478560  41.3408460 151.6304200   1.9737130  42.0869800
 151.0739130   3.3220130  41.6816800 147.5815230   5.6948190  34.2559520
 146.8077490   5.1545810  34.0958240 148.3109860   5.1754800  33.9177280
 147.6252630   5.3628570  37.8938330 148.1431300   4.5596830  37.8395220
 147.1736650   5.3007710  38.7355160 152.5122130   6.6294850  33.1665630
 152.8537830   7.3737080  32.6708950 151.6834840   6.9425970  33.5290460
 148.3110290   2.7874180  47.6903580 148.0110430   2.9331360  46.7931400
 149.0821530   2.2279470  47.5976970 151.4812820   6.7108380  35.9381550
 152.1683950   7.2577590  36.3189140 150.6945240   7.2549110  35.9731160
 143.6205220   2.3281200  31.4298630 144.4900070   2.6106000  31.7134550
 143.1295540   3.1417070  31.3147440 150.7840030   3.7154410  35.5506910
 151.2402810   4.5259660  35.7767100 150.4328240   3.3977550  36.3825400
 143.9876470  11.5408580  31.9960260 144.3474110  12.1397920  31.3417530
 143.8468810  12.0868470  32.7695290 143.9718330   9.8063440  46.4702660
 144.0809450   8.8658180  46.3298050 143.3198890  10.0718190  45.8216390
 151.9630920   8.0779330  47.8700780 151.6427790   7.3588570  48.4146470
 151.2889280   8.7534400  47.9436840 150.0045090   8.9239780  32.8133930
 149.9955190   9.6569470  32.1978440 149.0843450   8.6771360  32.9060890
 145.6051730   4.1454670  33.5580690 144.9979680   4.8853570  33.5675990
 146.0801080   4.2354030  32.7318890 152.9904690   8.9868020  31.4759120
 153.0916670   8.7832010  30.5461100 152.0906430   8.7326300  31.6806900
 151.6322800  11.5054340  36.1706790 151.8864300  11.4675730  35.2486160
 150.6835280  11.3787670  36.1635040 147.6157020   4.1065820  31.3069260
 148.3820290   3.9947180  31.8694690 147.6931710   3.4103790  30.6546030
 147.1118490  11.6886280  39.0936690 147.8480970  11.1401740  39.3645260
 147.4959410  12.5542290  38.9542680 143.9963970   7.7559850  34.9678200
 143.0703750   7.9980990  34.9583610 144.4620400   8.5834110  34.8462950
 146.1176770  10.8732350  48.2822270 146.9189500  11.1944400  48.6957670
 145.6028590  10.5127930  49.0042180 150.2220800  10.8616590  30.9162260
 151.0149410  11.1505420  30.4644050 149.7025150  10.4308760  30.2374740
 143.8374580   3.3605810  47.2258320 144.3413600   2.7813090  47.7974550
 143.0982000   3.6446040  47.7634690 150.7398200   6.0820000  30.7804610
 150.6348840   5.4672350  31.5065990 150.5722420   5.5585890  29.9967620
 150.8912520   4.7676800  46.7593840 150.1258190   5.3361800  46.6748510
 151.0728480   4.4753010  45.8662070 149.6476050   4.1030950  33.2811900
 150.0692470   3.9370820  34.1243290 149.7726890   3.2931180  32.7867040
 152.1603690   3.1268560  30.5289000 152.6809350   2.4117580  30.1630150
 152.8072090   3.7654430  30.8289510 151.4696760   4.5017440  43.8220000
 151.8884870   5.3450170  43.6496240 150.5505390   4.6389480  43.5926780
 149.3204180  10.8070450  44.9377730 148.7825270  11.5316510  44.6186430
 149.5738140  10.3300790  44.1475070 152.1766390  12.0421660  45.1964380
 152.1025090  12.9456800  45.5036750 151.2745230  11.7233560  45.1686450
 146.3647880   6.5807220  31.0477740 146.8022750   7.1236890  31.7035320
 146.8495610   5.7554170  31.0574080 143.5793680   9.3696250  38.4998000
 143.9096690   8.5017310  38.2676640 144.0084680   9.5754770  39.3302960
 148.1755600   7.7005260  36.1599970 147.8751140   7.5770230  37.0603880
 148.0693090   6.8413850  35.7515700 144.0683890  10.2366840  41.2379630
 143.6314880  10.4167640  42.0703780 144.6361570  10.9941460  41.0961350
 143.9008320   2.7487070  37.5968510 143.2457160   2.4798710  36.9528210
 144.7386270   2.6391550  37.1470490 144.9384250   3.1339640  42.1371850
 145.3057290   3.0467040  43.0167870 144.3695070   2.3706190  42.0378710
 146.3536330   7.6472330  47.2992000 146.3105960   7.2765240  48.1806460
 146.4847340   8.5849900  47.4393820 150.0542360   9.2031920  42.9001720
 149.8133720   9.4706480  42.0132240 150.9945000   9.3737650  42.9552580
 146.1924360  10.5934580  44.4189780 145.5984680  10.4619280  45.1579820
 146.1848200   9.7572720  43.9531880 145.8236590   7.9592960  43.3697820
 145.0970650   7.3398250  43.3023770 145.8845740   8.3533570  42.4995900
 149.4281690  10.1737960  40.1547230 149.9446710   9.5625320  39.6295490
 150.0779070  10.6766740  40.6458240 152.1677190  11.0646450  40.9816210
 152.4555000  10.8100750  40.1049220 152.6800410  10.5123810  41.5721780
 144.1066590  11.2767350  36.5794580 143.9388630  10.6438030  37.2776470
 143.2401100  11.4826750  36.2288770 145.7129290   9.9700580  34.0244720
 145.1876910  10.3508610  33.3206680 145.6373870  10.5951350  34.7454430
 148.3122260  11.9182960  32.8993970 149.0441080  11.6342240  32.3517860
 148.5715930  11.6796240  33.7893350 147.4737050   8.0347690  32.9040300
 146.8445930   8.5032790  33.4526130 147.5884880   7.1896910  33.3386490
 147.0770640   4.1752180  21.8126530 146.2455520   3.9200890  22.2123040
 147.6851620   4.2462950  22.5484450 147.0571900   8.2092270  22.0084550
 147.3599940   7.3190010  21.8294770 147.8015490   8.7662490  21.7806800
 149.0370660   4.9665680  23.4069400 148.7040040   5.5934600  24.0490470
 149.2137340   5.4927560  22.6271070 148.2489760   6.9346480  25.2218580
 148.8663760   7.6097560  24.9403030 147.3882880   7.3434460  25.1306080
 143.5422100   6.1246340  14.1025430 143.1650080   6.6133440  13.3710330
 143.7995170   6.7971620  14.7331960 149.1448430   3.1176300  19.0790790
 148.7405430   2.4053550  18.5836690 149.2311550   2.7729540  19.9678830
 149.6130130   6.8043860  21.2430000 149.3158420   6.1989330  20.5637780
 150.5629950   6.8421170  21.1319360 148.7048560   6.5425550  27.8937800
 147.8077090   6.7665520  28.1411200 148.7301430   6.6660490  26.9449200
 147.5319780   3.4138870  26.4695170 147.3927550   4.2861670  26.8382570
 146.6501140   3.0711680  26.3243110 149.3300130   9.3560570  28.6780320
 149.3015560   9.7603520  27.8108750 149.1665100   8.4270930  28.5151920
 143.4838430   5.1836420  22.3866080 143.5618850   5.3185190  21.4421800
 144.0980110   4.4752310  22.5794200 144.7286060   6.8836610  18.7972260
 144.3214140   7.0251200  17.9425860 145.6199070   6.5996770  18.5943470
 149.0007720  11.0982390  16.9094930 148.8250200  10.1817930  16.6962730
 148.1463460  11.4569680  17.1492730 143.5397950   6.2250590  24.9260540
 143.7028990   5.7555950  24.1079910 144.0050400   5.7174150  25.5909380
 145.1136930   5.6002020  27.0856350 144.7291720   4.9595690  27.6839310
 145.4249120   6.3038140  27.6551080 151.2634070   2.4478560  22.5664970
 151.6304200   1.9737130  23.3126310 151.0739130   3.3220130  22.9073310
 147.5815230   5.6948190  15.4816030 146.8077490   5.1545810  15.3214750
 148.3109860   5.1754800  15.1433790 147.6252630   5.3628570  19.1194840
 148.1431300   4.5596830  19.0651730 147.1736650   5.3007710  19.9611670
 152.5122130   6.6294850  14.3922140 152.8537830   7.3737080  13.8965460
 151.6834840   6.9425970  14.7546970 148.3110290   2.7874180  28.9160090
 148.0110430   2.9331360  28.0187910 149.0821530   2.2279470  28.8233480
 151.4812820   6.7108380  17.1638060 152.1683950   7.2577590  17.5445650
 150.6945240   7.2549110  17.1987670 143.6205220   2.3281200  12.6555140
 144.4900070   2.6106000  12.9391060 143.1295540   3.1417070  12.5403950
 150.7840030   3.7154410  16.7763420 151.2402810   4.5259660  17.0023610
 150.4328240   3.3977550  17.6081910 143.9876470  11.5408580  13.2216770
 144.3474110  12.1397920  12.5674040 143.8468810  12.0868470  13.9951800
 143.9718330   9.8063440  27.6959170 144.0809450   8.8658180  27.5554560
 143.3198890  10.0718190  27.0472900 151.9630920   8.0779330  29.0957290
 151.6427790   7.3588570  29.6402980 151.2889280   8.7534400  29.1693350
 150.0045090   8.9239780  14.0390440 149.9955190   9.6569470  13.4234950
 149.0843450   8.6771360  14.1317400 145.6051730   4.1454670  14.7837200
 144.9979680   4.8853570  14.7932500 146.0801080   4.2354030  13.9575400
 152.9904690   8.9868020  12.7015630 153.0916670   8.7832010  11.7717610
 152.0906430   8.7326300  12.9063410 151.6322800  11.5054340  17.3963300
 151.8864300  11.4675730  16.4742670 150.6835280  11.3787670  17.3891550
 147.6157020   4.1065820  12.5325770 148.3820290   3.9947180  13.0951200
 147.6931710   3.4103790  11.8802540 147.1118490  11.6886280  20.3193200
 147.8480970  11.1401740  20.5901770 147.4959410  12.5542290  20.1799190
 143.9963970   7.7559850  16.1934710 143.0703750   7.9980990  16.1840120
 144.4620400   8.5834110  16.0719460 146.1176770  10.8732350  29.5078780
 146.9189500  11.1944400  29.9214180 145.6028590  10.5127930  30.2298690
 150.2220800  10.8616590  12.1418770 151.0149410  11.1505420  11.6900560
 149.7025150  10.4308760  11.4631250 143.8374580   3.3605810  28.4514830
 144.3413600   2.7813090  29.0231060 143.0982000   3.6446040  28.9891200
 150.7398200   6.0820000  12.0061120 150.6348840   5.4672350  12.7322500
 150.5722420   5.5585890  11.2224130 150.8912520   4.7676800  27.9850350
 150.1258190   5.3361800  27.9005020 151.0728480   4.4753010  27.0918580
 149.6476050   4.1030950  14.5068410 150.0692470   3.9370820  15.3499800
 149.7726890   3.2931180  14.0123550 152.1603690   3.1268560  11.7545510
 152.6809350   2.4117580  11.3886660 152.8072090   3.7654430  12.0546020
 151.4696760   4.5017440  25.0476510 151.8884870   5.3450170  24.8752750
 150.5505390   4.6389480  24.8183290 149.3204180  10.8070450  26.1634240
 148.7825270  11.5316510  25.8442940 149.5738140  10.3300790  25.3731580
 152.1766390  12.0421660  26.4220890 152.1025090  12.9456800  26.7293260
 151.2745230  11.7233560  26.3942960 146.3647880   6.5807220  12.2734250
 146.8022750   7.1236890  12.9291830 146.8495610   5.7554170  12.2830590
 143.5793680   9.3696250  19.7254510 143.9096690   8.5017310  19.4933150
 144.0084680   9.5754770  20.5559470 148.1755600   7.7005260  17.3856480
 147.8751140   7.5770230  18.2860390 148.0693090   6.8413850  16.9772210
 144.0683890  10.2366840  22.4636140 143.6314880  10.4167640  23.2960290
 144.6361570  10.9941460  22.3217860 143.9008320   2.7487070  18.8225020
 143.2457160   2.4798710  18.1784720 144.7386270   2.6391550  18.3727000
 144.9384250   3.1339640  23.3628360 145.3057290   3.0467040  24.2424380
 144.3695070   2.3706190  23.2635220 146.3536330   7.6472330  28.5248510
 146.3105960   7.2765240  29.4062970 146.4847340   8.5849900  28.6650330
 150.0542360   9.2031920  24.1258230 149.8133720   9.4706480  23.2388750
 150.9945000   9.3737650  24.1809090 146.1924360  10.5934580  25.6446290
 145.5984680  10.4619280  26.3836330 146.1848200   9.7572720  25.1788390
 145.8236590   7.9592960  24.5954330 145.0970650   7.3398250  24.5280280
 145.8845740   8.3533570  23.7252410 149.4281690  10.1737960  21.3803740
 149.9446710   9.5625320  20.8552000 150.0779070  10.6766740  21.8714750
 152.1677190  11.0646450  22.2072720 152.4555000  10.8100750  21.3305730
 152.6800410  10.5123810  22.7978290 144.1066590  11.2767350  17.8051090
 143.9388630  10.6438030  18.5032980 143.2401100  11.4826750  17.4545280
 145.7129290   9.9700580  15.2501230 145.1876910  10.3508610  14.5463190
 145.6373870  10.5951350  15.9710940 148.3122260  11.9182960  14.1250480
 149.0441080  11.6342240  13.5774370 148.5715930  11.6796240  15.0149860
 147.4737050   8.0347690  14.1296810 146.8445930   8.5032790  14.6782640
 147.5884880   7.1896910  14.5643000 147.0770640   4.1752180   3.0383040
 146.2455520   3.9200890   3.4379550 147.6851620   4.2462950   3.7740960
 147.0571900   8.2092270   3.2341060 147.3599940   7.3190010   3.0551280
 147.8015490   8.7662490   3.0063310 149.0370660   4.9665680   4.6325910
 148.7040040   5.5934600   5.2746980 149.2137340   5.4927560   3.8527580
 148.2489760   6.9346480   6.4475090 148.8663760   7.6097560   6.1659540
 147.3882880   7.3434460   6.3562590 149.6130130   6.8043860   2.4686510
 149.3158420   6.1989330   1.7894290 150.5629950   6.8421170   2.3575870
 148.7048560   6.5425550   9.1194310 147.8077090   6.7665520   9.3667710
 148.7301430   6.6660490   8.1705710 147.5319780   3.4138870   7.6951680
 147.3927550   4.2861670   8.0639080 146.6501140   3.0711680   7.5499620
 149.3300130   9.3560570   9.9036830 149.3015560   9.7603520   9.0365260
 149.1665100   8.4270930   9.7408430 143.4838430   5.1836420   3.6122590
 143.5618850   5.3185190   2.6678310 144.0980110   4.4752310   3.8050710
 143.5397950   6.2250590   6.1517050 143.7028990   5.7555950   5.3336420
 144.0050400   5.7174150   6.8165890 145.1136930   5.6002020   8.3112860
 144.7291720   4.9595690   8.9095820 145.4249120   6.3038140   8.8807590
 151.2634070   2.4478560   3.7921480 151.6304200   1.9737130   4.5382820
 151.0739130   3.3220130   4.1329820 148.3110290   2.7874180  10.1416600
 148.0110430   2.9331360   9.2444420 149.0821530   2.2279470  10.0489990
 143.9718330   9.8063440   8.9215680 144.0809450   8.8658180   8.7811070
 143.3198890  10.0718190   8.2729410 151.9630920   8.0779330  10.3213800
 151.6427790   7.3588570  10.8659490 151.2889280   8.7534400  10.3949860
 146.1176770  10.8732350  10.7335290 146.9189500  11.1944400  11.1470690
 145.6028590  10.5127930  11.4555200 143.8374580   3.3605810   9.6771340
 144.3413600   2.7813090  10.2487570 143.0982000   3.6446040  10.2147710
 150.8912520   4.7676800   9.2106860 150.1258190   5.3361800   9.1261530
 151.0728480   4.4753010   8.3175090 151.4696760   4.5017440   6.2733020
 151.8884870   5.3450170   6.1009260 150.5505390   4.6389480   6.0439800
 149.3204180  10.8070450   7.3890750 148.7825270  11.5316510   7.0699450
 149.5738140  10.3300790   6.5988090 152.1766390  12.0421660   7.6477400
 152.1025090  12.9456800   7.9549770 151.2745230  11.7233560   7.6199470
 144.0683890  10.2366840   3.6892650 143.6314880  10.4167640   4.5216800
 144.6361570  10.9941460   3.5474370 144.9384250   3.1339640   4.5884870
 145.3057290   3.0467040   5.4680890 144.3695070   2.3706190   4.4891730
 146.3536330   7.6472330   9.7505020 146.3105960   7.2765240  10.6319480
 146.4847340   8.5849900   9.8906840 150.0542360   9.2031920   5.3514740
 149.8133720   9.4706480   4.4645260 150.9945000   9.3737650   5.4065600
 146.1924360  10.5934580   6.8702800 145.5984680  10.4619280   7.6092840
 146.1848200   9.7572720   6.4044900 145.8236590   7.9592960   5.8210840
 145.0970650   7.3398250   5.7536790 145.8845740   8.3533570   4.9508920
 149.4281690  10.1737960   2.6060250 149.9446710   9.5625320   2.0808510
 150.0779070  10.6766740   3.0971260 152.1677190  11.0646450   3.4329230
 152.4555000  10.8100750   2.5562240 152.6800410  10.5123810   4.0234800
 136.1543280 152.2801270 150.4745930 136.0737330 151.3655880 150.2037640
 135.7407700 152.7768340 149.7685640 126.7119100 149.3301990 147.0173350
 125.8235800 149.6717960 146.9153230 126.9960290 149.1302310 146.1254180
 128.8880490 147.9133490 148.0511730 128.9947240 148.8137220 148.3580490
 127.9772850 147.8651460 147.7606380 138.5399600 147.0358300 149.5222630
 139.3609220 146.5454870 149.5648110 138.5733680 147.6255960 150.2754470
 132.3767540 144.7210650 150.9815370 132.6842520 144.1657540 150.2650870
 131.4468240 144.8555110 150.7988360 134.7648300 152.7859480 147.7175490
 133.8377580 152.7196860 147.9463960 134.9173120 153.7239610 147.6030730
 134.7517380 149.0576480 144.7142650 133.8121050 149.2190440 144.7995110
 135.0700640 149.7762160 144.1678640 130.3704940 153.3124220 150.4995220
 129.9661940 152.6001470 150.0041120 130.4568060 152.9677460 151.3883260
 136.9710290 153.5866590 145.2283490 137.4103570 152.7489020 145.0821310
 137.6838710 154.2195990 145.3147630 140.5527430 144.8409400 143.5424530
 140.2400090 144.9336230 144.4423600 141.3139900 145.4190430 143.4921960
 127.0709570 152.2069200 148.0001870 126.9507170 152.9331290 147.3883140
 126.7610460 151.4372110 147.5229780 129.5373230 145.5504270 151.3825540
 129.0941380 146.3313810 151.0510060 130.0958220 145.8734160 152.0896480
 132.6532050 145.1714970 146.2631370 132.0286230 145.1674840 146.9884680
 132.5662170 144.3045930 145.8667340 129.3287450 150.6737840 149.1106790
 129.1028370 150.4575010 150.0153410 128.5479980 151.1066300 148.7652760
 136.5585210 150.6801210 147.7097440 135.9594100 151.4037010 147.5261060
 137.1064820 150.6177990 146.9273890 135.1650080 149.3164750 149.7400720
 135.5579650 149.6336950 148.9269410 135.5266930 148.4376630 149.8545240
 124.3884480 149.8485670 143.1733640 124.3059150 150.7916430 143.3148630
 124.0367540 149.7060580 142.2945990 132.1882610 148.5824700 152.2403990
 132.1918670 148.1414650 151.3908530 133.0833730 148.9042030 152.3475810
 128.0384990 148.4651190 151.1998200 127.6985040 148.9426420 151.9565250
 127.2762310 148.0116310 150.8399300 132.2502760 149.5836780 145.2310750
 132.3715580 149.5423260 146.1796570 131.8651270 150.4460930 145.0757480
 131.2624260 151.8937920 144.6294050 130.6941160 151.4456170 144.0029960
 131.9713260 152.2530700 144.0959200 125.3531070 147.3870170 150.1162870
 125.0677990 147.0225840 150.9541490 125.2909930 146.6550630 149.5026010
 135.0269660 146.2799430 146.8376240 134.2134270 145.7812600 146.7621550
 134.8331610 147.1197680 146.4212590 137.7418050 150.6519080 145.1338400
 138.6297670 150.9636310 144.9589740 137.7123140 149.7791330 144.7418980
 140.0132320 151.9630920 144.6018260 139.9296040 152.3945140 143.7514700
 140.7326510 152.4229270 145.0345080 124.8461730 152.5229120 144.0759570
 125.7156580 152.8053920 144.3595490 124.3552050 153.3364990 143.9608380
 127.9108320 144.2539980 148.6690370 127.7822950 144.2457880 149.6175290
 127.0870340 144.5923070 148.3181380 139.7703060 147.4610350 146.6886080
 139.1416220 147.5656020 145.9744310 139.2754980 147.6807130 147.4779960
 131.7387090 149.7396300 148.1043960 131.0303240 150.2082640 148.5457570
 132.0231570 149.0818310 148.7389150 135.7702520 146.4646960 149.5439750
 135.6470300 146.4833090 148.5949260 136.7187080 146.5125900 149.6638150
 129.9422110 148.0481380 145.4794670 130.7912640 148.4851530 145.4134860
 129.5753380 148.3601640 146.3066730 138.8631890 152.6194140 150.3926240
 137.9222030 152.6344370 150.5673930 139.1775960 151.8330100 150.8386540
 128.8413530 154.3013740 143.9530200 129.6076800 154.1895100 144.5155630
 128.9188220 153.6051710 143.3006970 127.5360290 151.7338810 144.6363090
 127.6163880 150.7866320 144.7480490 128.4280040 152.0645690 144.7423750
 130.8732560 154.2978870 145.9272840 131.2948980 154.1318740 146.7704230
 130.9983400 153.4879100 145.4327980 133.3860200 153.3216480 143.1749940
 133.9065860 152.6065500 142.8091090 134.0328600 153.9602350 143.4750450
 129.7691460 150.3712100 142.8731000 129.5680520 149.5079460 143.2344340
 129.5983510 150.2845460 141.9352600 137.2479770 145.1820330 145.4017880
 137.5282060 144.3388230 145.7577300 136.4745500 145.4143440 145.9156630
 128.5674260 147.4712720 142.8608880 128.8700160 147.4780150 141.9528030
 129.3068850 147.1210580 143.3576540 131.7859190 146.4147340 143.8465080
 131.4381190 145.7371330 143.2667530 131.9871960 145.9536850 144.6608470
 125.1264830 152.9434990 150.2429450 124.4713670 152.6746630 149.5989150
 125.9642780 152.8339470 149.7931430 138.0755270 147.7376280 144.4647940
 138.4940150 147.5507260 143.6244600 137.7691330 146.8855330 144.7750870
 141.5745000 152.6500420 148.1623740 141.1988600 151.8828350 147.7305030
 140.8448120 153.0323120 148.6498670 124.3402910 150.1533920 146.1854780
 123.4366990 150.4164120 146.0106440 124.8243530 150.4245090 145.4054740
 140.8495960 150.8757910 151.4630980 141.3733440 150.3820560 150.8321150
 141.4355380 151.0108270 152.2078550 126.8830120 149.2099460 144.0949160
 127.5921820 148.7882680 143.6096440 126.1670060 149.2774690 143.4632510
 126.5304280 145.2638790 143.1351810 127.2532410 145.8047730 143.4533030
 126.8028800 144.9902210 142.2593350 140.3395930 150.1331260 147.4023390
 140.8355050 149.9002130 148.1872270 140.1412000 149.2943100 146.9861030
 141.7683090 148.7692210 149.9361070 141.6582370 148.6148250 150.8743340
 142.5290680 148.2413150 149.6936480 142.6573360 146.6000130 143.1767210
 143.5822670 146.4681310 142.9685500 142.6349150 146.6792950 144.1303660
 142.7311850 147.3710790 145.8023920 141.9363350 147.3055910 146.3316830
 142.9355130 148.3061430 145.7909270 139.1631780 145.7007670 152.2522750
 139.6039870 145.6452770 151.4044350 138.8939370 146.6165680 152.3232930
 141.0270350 145.3322910 150.2631570 140.9658750 144.3884130 150.1162590
 141.8062380 145.4403000 150.8085030 125.9551120 145.3032050 146.7287380
 126.7130480 145.4160930 146.1551410 125.4928290 146.1401250 146.6830810
 132.4964930 147.4171320 149.7189690 131.6839440 147.0428210 149.3785570
 133.0006570 146.6616400 150.0210880 136.9989910 144.0813770 150.9572760
 137.6019280 144.6533980 151.4321280 136.2582900 144.6453210 150.7346660
 140.1424510 144.4835330 146.2313040 140.3375140 145.3818780 146.4980470
 139.3554380 144.2522410 146.7245990 128.3276270 145.8296100 145.2689350
 128.8569030 145.0425900 145.1397300 128.9604590 146.5087290 145.5024880
 130.5214110 145.5671240 148.3234740 129.8916850 144.8658550 148.4904870
 129.9819250 146.3275370 148.1067900 136.1543280 152.2801270 131.7002440
 136.0737330 151.3655880 131.4294150 135.7407700 152.7768340 130.9942150
 134.2861320 154.0580290 133.5811710 133.5103420 153.5780730 133.8710280
 134.9374250 153.3785940 133.4067870 126.7119100 149.3301990 128.2429860
 125.8235800 149.6717960 128.1409740 126.9960290 149.1302310 127.3510690
 124.6752110 151.9307640 134.1269560 125.2468220 151.1629840 134.1273200
 124.6753650 152.2296400 133.2176170 125.9176980 147.3392000 135.9138490
 125.7379820 146.4417750 136.1941250 125.5157060 147.8863870 136.5885440
 134.7575480 149.5407860 133.8150800 135.1340300 148.6679740 133.7024470
 134.6594990 149.8766560 132.9241240 128.8880490 147.9133490 129.2768240
 128.9947240 148.8137220 129.5837000 127.9772850 147.8651460 128.9862890
 138.5399600 147.0358300 130.7479140 139.3609220 146.5454870 130.7904620
 138.5733680 147.6255960 131.5010980 126.5363650 149.8352500 134.5220830
 127.2173760 150.0990870 135.1408230 126.2211700 148.9953370 134.8558840
 130.7288220 150.8819860 133.6093420 131.2366440 151.3800830 134.2498440
 131.2601460 150.1055060 133.4332780 142.8299150 149.0525050 137.3122770
 142.1251320 149.4406760 136.7937880 143.0957070 149.7475340 137.9143700
 129.0124320 145.5218420 137.8756840 129.0142760 146.0390810 137.0702740
 128.1828630 145.0448600 137.8526770 138.7761080 148.9758680 133.5206680
 138.0716650 149.2643570 134.1009790 139.1373240 149.7858790 133.1606240
 128.6939650 147.2328380 135.8827290 129.0356460 148.0770430 135.5881160
 127.7555460 147.3812120 135.9992630 141.8448000 148.4213470 133.9115890
 140.8972910 148.4552450 134.0431320 142.1697990 149.2352420 134.2965250
 132.3767540 144.7210650 132.2071880 132.6842520 144.1657540 131.4907380
 131.4468240 144.8555110 132.0244870 134.7648300 152.7859480 128.9432000
 133.8377580 152.7196860 129.1720470 134.9173120 153.7239610 128.8287240
 134.7517380 149.0576480 125.9399160 133.8121050 149.2190440 126.0251620
 135.0700640 149.7762160 125.3935150 138.2372150 150.5264320 136.8633060
 137.8243330 151.3518030 137.1173050 137.5048100 149.9409360 136.6709420
 130.3704940 153.3124220 131.7251730 129.9661940 152.6001470 131.2297630
 130.4568060 152.9677460 132.6139770 129.0833560 150.0867430 135.5050770
 129.6348150 150.1962770 134.7304020 129.5977070 150.4605030 136.2206000
 136.9710290 153.5866590 126.4540000 137.4103570 152.7489020 126.3077820
 137.6838710 154.2195990 126.5404140 140.5527430 144.8409400 124.7681040
 140.2400090 144.9336230 125.6680110 141.3139900 145.4190430 124.7178470
 127.0709570 152.2069200 129.2258380 126.9507170 152.9331290 128.6139650
 126.7610460 151.4372110 128.7486290 141.7628720 149.5780900 140.7455180
 141.1472990 150.0860570 140.2170640 141.4425140 148.6779230 140.6881120
 129.5373230 145.5504270 132.6082050 129.0941380 146.3313810 132.2766570
 130.0958220 145.8734160 133.3152990 133.8243040 148.4172790 138.2117370
 133.3622410 148.6255810 139.0237310 133.4221150 147.6032140 137.9088040
 138.8247550 149.6381740 139.3414030 137.9741140 149.3387490 139.6623100
 138.6649340 149.8823750 138.4297850 135.9197260 151.1383490 141.4412820
 136.2450670 150.3047240 141.1015050 136.7077590 151.6612010 141.5891150
 132.6532050 145.1714970 127.4887880 132.0286230 145.1674840 128.2141190
 132.5662170 144.3045930 127.0923850 131.5749130 146.0951600 134.4671650
 131.8721460 147.0014430 134.3863670 132.1234690 145.6070380 133.8531220
 129.3287450 150.6737840 130.3363300 129.1028370 150.4575010 131.2409920
 128.5479980 151.1066300 129.9909270 136.5585210 150.6801210 128.9353950
 135.9594100 151.4037010 128.7517570 137.1064820 150.6177990 128.1530400
 131.7686660 151.5723420 141.0023570 131.6730260 150.6318150 140.8523970
 132.6118640 151.7938490 140.6071640 135.1650080 149.3164750 130.9657230
 135.5579650 149.6336950 130.1525920 135.5266930 148.4376630 131.0801750
 126.8997200 147.9837090 139.1557350 126.5060590 148.8312300 139.3630130
 126.2115600 147.3463460 139.3465990 133.4742250 148.0672060 142.2254090
 132.7840570 147.8744260 142.8600180 134.2174550 148.3506700 142.7578390
 124.2014250 145.9065550 133.1887430 123.9127300 146.4768410 133.9012410
 124.9460010 145.4270000 133.5518660 124.3884480 149.8485670 124.3990150
 124.3059150 150.7916430 124.5405140 124.0367540 149.7060580 123.5202500
 135.7505220 151.9070500 135.0608010 135.0186340 152.4157310 135.4098110
 135.3529560 151.0900480 134.7596790 132.1882610 148.5824700 133.4660500
 132.1918670 148.1414650 132.6165040 133.0833730 148.9042030 133.5732320
 128.0384990 148.4651190 132.4254710 127.6985040 148.9426420 133.1821760
 127.2762310 148.0116310 132.0655810 132.2502760 149.5836780 126.4567260
 132.3715580 149.5423260 127.4053080 131.8651270 150.4460930 126.3013990
 136.2131130 147.3604180 134.4730950 136.2303870 147.8112830 135.3172800
 135.9646710 146.4609820 134.6864390 131.2624260 151.8937920 125.8550560
 130.6941160 151.4456170 125.2286470 131.9713260 152.2530700 125.3215710
 139.6401880 144.7736360 140.3117330 139.9647650 144.0426020 140.8375310
 139.6758390 144.4550000 139.4098320 132.4890580 152.6426480 135.2125910
 132.8560710 152.1685050 135.9587250 132.2995640 153.5168050 135.5534250
 125.3531070 147.3870170 131.3419380 125.0677990 147.0225840 132.1798000
 125.2909930 146.6550630 130.7282520 130.2789950 151.6835120 137.5310120
 129.9747020 152.5627100 137.7560480 131.2336410 151.7434910 137.5667560
 135.0269660 146.2799430 128.0632750 134.2134270 145.7812600 127.9878060
 134.8331610 147.1197680 127.6469100 137.7418050 150.6519080 126.3594910
 138.6297670 150.9636310 126.1846250 137.7123140 149.7791330 125.9675490
 126.3353680 152.5237860 138.6781480 125.9768620 153.1891710 139.2654820
 126.0408240 151.6921410 139.0494100 129.5366800 152.9822100 141.5621030
 129.2366940 153.1279280 140.6648850 130.3078040 152.4227390 141.4694420
 140.0132320 151.9630920 125.8274770 139.9296040 152.3945140 124.9771210
 140.7326510 152.4229270 126.2601590 124.8461730 152.5229120 125.3016080
 125.7156580 152.8053920 125.5852000 124.3552050 153.3364990 125.1864890
 127.9108320 144.2539980 129.8946880 127.7822950 144.2457880 130.8431800
 127.0870340 144.5923070 129.5437890 124.9102250 146.0131100 139.3553580
 124.1960770 146.2128020 139.9606190 125.3297290 145.2370670 139.7268380
 136.4041030 148.5053410 137.1055030 136.7721850 147.6848620 137.4334600
 135.5439230 148.5655300 137.5210680 139.7703060 147.4610350 127.9142590
 139.1416220 147.5656020 127.2000820 139.2754980 147.6807130 128.7036470
 131.7387090 149.7396300 129.3300470 131.0303240 150.2082640 129.7714080
 132.0231570 149.0818310 129.9645660 133.3643020 151.1593000 137.3293000
 133.8628270 151.6338820 137.9944850 133.5065970 150.2356520 137.5363030
 135.7702520 146.4646960 130.7696260 135.6470300 146.4833090 129.8205770
 136.7187080 146.5125900 130.8894660 129.9422110 148.0481380 126.7051180
 130.7912640 148.4851530 126.6391370 129.5753380 148.3601640 127.5323240
 140.5709880 147.3760960 138.1721390 140.0683480 148.1166360 138.5115200
 141.3866540 147.7644960 137.8558180 138.8631890 152.6194140 131.6182750
 137.9222030 152.6344370 131.7930440 139.1775960 151.8330100 132.0643050
 128.8413530 154.3013740 125.1786710 129.6076800 154.1895100 125.7412140
 128.9188220 153.6051710 124.5263480 127.5360290 151.7338810 125.8619600
 127.6163880 150.7866320 125.9737000 128.4280040 152.0645690 125.9680260
 125.0631090 153.5553730 141.0975770 125.5670110 152.9761010 141.6692000
 124.3238510 153.8393960 141.6352140 127.0954170 151.6983320 141.9925840
 127.1359510 151.3997190 142.9011070 127.9499670 152.0990930 141.8333360
 130.8732560 154.2978870 127.1529350 131.2948980 154.1318740 127.9960740
 130.9983400 153.4879100 126.6584490 129.0359980 150.2775420 139.9600330
 128.5056440 149.7866370 139.3323670 129.7048050 150.7059620 139.4258260
 133.3860200 153.3216480 124.4006450 133.9065860 152.6065500 124.0347600
 134.0328600 153.9602350 124.7006960 138.4060210 152.0841040 141.7280670
 138.9880980 151.3293360 141.6401150 138.5821980 152.6148480 140.9512150
 129.5232280 147.2437790 140.0397620 129.4289150 146.6258540 139.3148490
 128.9429670 147.9704080 139.8127530 132.2893720 145.8011030 137.0725010
 131.8411020 145.8235290 136.2270560 131.6558920 145.4030050 137.6695310
 135.0317170 152.4281540 139.0775290 135.1513380 151.8322680 139.8170130
 135.8911170 152.4651230 138.6576590 137.3705070 152.9818730 137.6537800
 136.8440290 153.5061350 137.0502940 137.7136410 153.6146120 138.2847530
 129.7691460 150.3712100 124.0987510 129.5680520 149.5079460 124.4600850
 129.5983510 150.2845460 123.1609110 131.7985940 148.9702890 140.3351110
 132.3885630 148.6618740 141.0228930 130.9806180 148.4982640 140.4911010
 136.6179370 148.5868700 140.5684130 135.9294890 147.9250240 140.5034120
 137.3385390 148.1406970 141.0132590 137.2479770 145.1820330 126.6274390
 137.5282060 144.3388230 126.9833810 136.4745500 145.4143440 127.1413140
 128.5674260 147.4712720 124.0865390 128.8700160 147.4780150 123.1784540
 129.3068850 147.1210580 124.5833050 131.7859190 146.4147340 125.0721590
 131.4381190 145.7371330 124.4924040 131.9871960 145.9536850 125.8864980
 125.1264830 152.9434990 131.4685960 124.4713670 152.6746630 130.8245660
 125.9642780 152.8339470 131.0187940 138.0755270 147.7376280 125.6904450
 138.4940150 147.5507260 124.8501110 137.7691330 146.8855330 126.0007380
 141.5745000 152.6500420 129.3880250 141.1988600 151.8828350 128.9561540
 140.8448120 153.0323120 129.8755180 126.1640760 153.3287560 136.0089300
 126.5313800 153.2414960 136.8885320 125.5951580 152.5654110 135.9096160
 140.9644620 151.7971940 139.0219770 140.7330710 151.5684690 138.1217720
 141.2249170 152.7171490 138.9764660 125.7156760 150.2396650 139.9147720
 124.8212810 150.2063410 140.2541430 126.2554310 150.4383440 140.6798970
 139.4032690 147.0228370 141.7999470 140.2802870 147.0311770 142.1833470
 139.4153530 146.2859210 141.1891820 124.3402910 150.1533920 127.4111290
 123.4366990 150.4164120 127.2362950 124.8243530 150.4245090 126.6311250
 140.8495960 150.8757910 132.6887490 141.3733440 150.3820560 132.0577660
 141.4355380 151.0108270 133.4335060 141.0285680 150.9597780 136.2107040
 140.0788390 150.9261320 136.3252030 141.2098690 151.8697890 135.9756810
 126.8830120 149.2099460 125.3205670 127.5921820 148.7882680 124.8352950
 126.1670060 149.2774690 124.6889020 126.5304280 145.2638790 124.3608320
 127.2532410 145.8047730 124.6789540 126.8028800 144.9902210 123.4849860
 140.3395930 150.1331260 128.6279900 140.8355050 149.9002130 129.4128780
 140.1412000 149.2943100 128.2117540 126.2196470 144.5144980 134.2630940
 126.8672660 143.9642360 133.8226100 126.6398310 144.7688130 135.0846750
 141.7683090 148.7692210 131.1617580 141.6582370 148.6148250 132.0999850
 142.5290680 148.2413150 130.9192990 140.1148810 144.7086340 137.6200580
 140.7521030 145.3220480 137.9859770 140.2623700 144.7447000 136.6749810
 142.6573360 146.6000130 124.4023720 143.5822670 146.4681310 124.1942010
 142.6349150 146.6792950 125.3560170 142.7311850 147.3710790 127.0280430
 141.9363350 147.3055910 127.5573340 142.9355130 148.3061430 127.0165780
 125.9728470 144.6700650 137.0056260 125.6243290 145.1264470 137.7714440
 125.6416170 143.7757780 137.0878690 133.4853290 145.8612530 140.5275680
 133.4242180 146.4534360 141.2771090 134.4253670 145.7538490 140.3825940
 136.1227850 145.5182590 140.1667970 136.7368260 145.8361880 139.5049050
 136.6677410 145.0331180 140.7863830 126.6449110 144.1976850 140.2807030
 127.1932100 144.0164900 139.5173140 126.7104420 143.4070960 140.8163340
 136.8635890 144.0814730 136.4937260 135.9895730 144.4149840 136.2910190
 136.7546640 143.6087910 137.3189130 137.7707870 146.2885600 137.8778980
 137.4421230 145.4737360 137.4980710 138.7190170 146.2455410 137.7544670
 134.6110710 144.9984570 135.4330170 133.8282500 145.4730070 135.7126930
 134.3173640 144.0939400 135.3243350 139.1631780 145.7007670 133.4779260
 139.6039870 145.6452770 132.6300860 138.8939370 146.6165680 133.5489440
 141.0270350 145.3322910 131.4888080 140.9658750 144.3884130 131.3419100
 141.8062380 145.4403000 132.0341540 125.9551120 145.3032050 127.9543890
 126.7130480 145.4160930 127.3807920 125.4928290 146.1401250 127.9087320
 132.4964930 147.4171320 130.9446200 131.6839440 147.0428210 130.6042080
 133.0006570 146.6616400 131.2467390 136.9989910 144.0813770 132.1829270
 137.6019280 144.6533980 132.6577790 136.2582900 144.6453210 131.9603170
 140.1424510 144.4835330 127.4569550 140.3375140 145.3818780 127.7236980
 139.3554380 144.2522410 127.9502500 128.3276270 145.8296100 126.4945860
 128.8569030 145.0425900 126.3653810 128.9604590 146.5087290 126.7281390
 130.5214110 145.5671240 129.5491250 129.8916850 144.8658550 129.7161380
 129.9819250 146.3275370 129.3324410 130.6469670 144.8455220 141.9843740
 130.3653940 145.3488820 141.2204560 131.0289370 144.0476970 141.6185870
 137.2485130 144.2608800 142.5624210 137.1350580 144.5803410 143.4575730
 138.0654870 144.6621310 142.2661490 136.1543280 152.2801270 112.9258950
 136.0737330 151.3655880 112.6550660 135.7407700 152.7768340 112.2198660
 134.2861320 154.0580290 114.8068220 133.5103420 153.5780730 115.0966790
 134.9374250 153.3785940 114.6324380 126.7119100 149.3301990 109.4686370
 125.8235800 149.6717960 109.3666250 126.9960290 149.1302310 108.5767200
 124.6752110 151.9307640 115.3526070 125.2468220 151.1629840 115.3529710
 124.6753650 152.2296400 114.4432680 125.9176980 147.3392000 117.1395000
 125.7379820 146.4417750 117.4197760 125.5157060 147.8863870 117.8141950
 134.7575480 149.5407860 115.0407310 135.1340300 148.6679740 114.9280980
 134.6594990 149.8766560 114.1497750 128.8880490 147.9133490 110.5024750
 128.9947240 148.8137220 110.8093510 127.9772850 147.8651460 110.2119400
 138.5399600 147.0358300 111.9735650 139.3609220 146.5454870 112.0161130
 138.5733680 147.6255960 112.7267490 126.5363650 149.8352500 115.7477340
 127.2173760 150.0990870 116.3664740 126.2211700 148.9953370 116.0815350
 130.7288220 150.8819860 114.8349930 131.2366440 151.3800830 115.4754950
 131.2601460 150.1055060 114.6589290 142.8299150 149.0525050 118.5379280
 142.1251320 149.4406760 118.0194390 143.0957070 149.7475340 119.1400210
 129.0124320 145.5218420 119.1013350 129.0142760 146.0390810 118.2959250
 128.1828630 145.0448600 119.0783280 138.7761080 148.9758680 114.7463190
 138.0716650 149.2643570 115.3266300 139.1373240 149.7858790 114.3862750
 128.6939650 147.2328380 117.1083800 129.0356460 148.0770430 116.8137670
 127.7555460 147.3812120 117.2249140 141.8448000 148.4213470 115.1372400
 140.8972910 148.4552450 115.2687830 142.1697990 149.2352420 115.5221760
 132.3767540 144.7210650 113.4328390 132.6842520 144.1657540 112.7163890
 131.4468240 144.8555110 113.2501380 134.7648300 152.7859480 110.1688510
 133.8377580 152.7196860 110.3976980 134.9173120 153.7239610 110.0543750
 134.7517380 149.0576480 107.1655670 133.8121050 149.2190440 107.2508130
 135.0700640 149.7762160 106.6191660 138.2372150 150.5264320 118.0889570
 137.8243330 151.3518030 118.3429560 137.5048100 149.9409360 117.8965930
 130.3704940 153.3124220 112.9508240 129.9661940 152.6001470 112.4554140
 130.4568060 152.9677460 113.8396280 129.0833560 150.0867430 116.7307280
 129.6348150 150.1962770 115.9560530 129.5977070 150.4605030 117.4462510
 136.9710290 153.5866590 107.6796510 137.4103570 152.7489020 107.5334330
 137.6838710 154.2195990 107.7660650 140.5527430 144.8409400 105.9937550
 140.2400090 144.9336230 106.8936620 141.3139900 145.4190430 105.9434980
 127.0709570 152.2069200 110.4514890 126.9507170 152.9331290 109.8396160
 126.7610460 151.4372110 109.9742800 141.7628720 149.5780900 121.9711690
 141.1472990 150.0860570 121.4427150 141.4425140 148.6779230 121.9137630
 129.5373230 145.5504270 113.8338560 129.0941380 146.3313810 113.5023080
 130.0958220 145.8734160 114.5409500 133.8243040 148.4172790 119.4373880
 133.3622410 148.6255810 120.2493820 133.4221150 147.6032140 119.1344550
 138.8247550 149.6381740 120.5670540 137.9741140 149.3387490 120.8879610
 138.6649340 149.8823750 119.6554360 135.9197260 151.1383490 122.6669330
 136.2450670 150.3047240 122.3271560 136.7077590 151.6612010 122.8147660
 132.6532050 145.1714970 108.7144390 132.0286230 145.1674840 109.4397700
 132.5662170 144.3045930 108.3180360 131.5749130 146.0951600 115.6928160
 131.8721460 147.0014430 115.6120180 132.1234690 145.6070380 115.0787730
 129.3287450 150.6737840 111.5619810 129.1028370 150.4575010 112.4666430
 128.5479980 151.1066300 111.2165780 136.5585210 150.6801210 110.1610460
 135.9594100 151.4037010 109.9774080 137.1064820 150.6177990 109.3786910
 131.7686660 151.5723420 122.2280080 131.6730260 150.6318150 122.0780480
 132.6118640 151.7938490 121.8328150 135.1650080 149.3164750 112.1913740
 135.5579650 149.6336950 111.3782430 135.5266930 148.4376630 112.3058260
 126.8997200 147.9837090 120.3813860 126.5060590 148.8312300 120.5886640
 126.2115600 147.3463460 120.5722500 133.4742250 148.0672060 123.4510600
 132.7840570 147.8744260 124.0856690 134.2174550 148.3506700 123.9834900
 124.2014250 145.9065550 114.4143940 123.9127300 146.4768410 115.1268920
 124.9460010 145.4270000 114.7775170 124.3884480 149.8485670 105.6246660
 124.3059150 150.7916430 105.7661650 124.0367540 149.7060580 104.7459010
 135.7505220 151.9070500 116.2864520 135.0186340 152.4157310 116.6354620
 135.3529560 151.0900480 115.9853300 132.1882610 148.5824700 114.6917010
 132.1918670 148.1414650 113.8421550 133.0833730 148.9042030 114.7988830
 128.0384990 148.4651190 113.6511220 127.6985040 148.9426420 114.4078270
 127.2762310 148.0116310 113.2912320 132.2502760 149.5836780 107.6823770
 132.3715580 149.5423260 108.6309590 131.8651270 150.4460930 107.5270500
 136.2131130 147.3604180 115.6987460 136.2303870 147.8112830 116.5429310
 135.9646710 146.4609820 115.9120900 131.2624260 151.8937920 107.0807070
 130.6941160 151.4456170 106.4542980 131.9713260 152.2530700 106.5472220
 139.6401880 144.7736360 121.5373840 139.9647650 144.0426020 122.0631820
 139.6758390 144.4550000 120.6354830 132.4890580 152.6426480 116.4382420
 132.8560710 152.1685050 117.1843760 132.2995640 153.5168050 116.7790760
 125.3531070 147.3870170 112.5675890 125.0677990 147.0225840 113.4054510
 125.2909930 146.6550630 111.9539030 130.2789950 151.6835120 118.7566630
 129.9747020 152.5627100 118.9816990 131.2336410 151.7434910 118.7924070
 135.0269660 146.2799430 109.2889260 134.2134270 145.7812600 109.2134570
 134.8331610 147.1197680 108.8725610 137.7418050 150.6519080 107.5851420
 138.6297670 150.9636310 107.4102760 137.7123140 149.7791330 107.1932000
 126.3353680 152.5237860 119.9037990 125.9768620 153.1891710 120.4911330
 126.0408240 151.6921410 120.2750610 129.5366800 152.9822100 122.7877540
 129.2366940 153.1279280 121.8905360 130.3078040 152.4227390 122.6950930
 140.0132320 151.9630920 107.0531280 139.9296040 152.3945140 106.2027720
 140.7326510 152.4229270 107.4858100 124.8461730 152.5229120 106.5272590
 125.7156580 152.8053920 106.8108510 124.3552050 153.3364990 106.4121400
 127.9108320 144.2539980 111.1203390 127.7822950 144.2457880 112.0688310
 127.0870340 144.5923070 110.7694400 124.9102250 146.0131100 120.5810090
 124.1960770 146.2128020 121.1862700 125.3297290 145.2370670 120.9524890
 136.4041030 148.5053410 118.3311540 136.7721850 147.6848620 118.6591110
 135.5439230 148.5655300 118.7467190 139.7703060 147.4610350 109.1399100
 139.1416220 147.5656020 108.4257330 139.2754980 147.6807130 109.9292980
 131.7387090 149.7396300 110.5556980 131.0303240 150.2082640 110.9970590
 132.0231570 149.0818310 111.1902170 133.3643020 151.1593000 118.5549510
 133.8628270 151.6338820 119.2201360 133.5065970 150.2356520 118.7619540
 135.7702520 146.4646960 111.9952770 135.6470300 146.4833090 111.0462280
 136.7187080 146.5125900 112.1151170 129.9422110 148.0481380 107.9307690
 130.7912640 148.4851530 107.8647880 129.5753380 148.3601640 108.7579750
 140.5709880 147.3760960 119.3977900 140.0683480 148.1166360 119.7371710
 141.3866540 147.7644960 119.0814690 138.8631890 152.6194140 112.8439260
 137.9222030 152.6344370 113.0186950 139.1775960 151.8330100 113.2899560
 128.8413530 154.3013740 106.4043220 129.6076800 154.1895100 106.9668650
 128.9188220 153.6051710 105.7519990 127.5360290 151.7338810 107.0876110
 127.6163880 150.7866320 107.1993510 128.4280040 152.0645690 107.1936770
 125.0631090 153.5553730 122.3232280 125.5670110 152.9761010 122.8948510
 124.3238510 153.8393960 122.8608650 127.0954170 151.6983320 123.2182350
 127.1359510 151.3997190 124.1267580 127.9499670 152.0990930 123.0589870
 130.8732560 154.2978870 108.3785860 131.2948980 154.1318740 109.2217250
 130.9983400 153.4879100 107.8841000 129.0359980 150.2775420 121.1856840
 128.5056440 149.7866370 120.5580180 129.7048050 150.7059620 120.6514770
 133.3860200 153.3216480 105.6262960 133.9065860 152.6065500 105.2604110
 134.0328600 153.9602350 105.9263470 138.4060210 152.0841040 122.9537180
 138.9880980 151.3293360 122.8657660 138.5821980 152.6148480 122.1768660
 129.5232280 147.2437790 121.2654130 129.4289150 146.6258540 120.5405000
 128.9429670 147.9704080 121.0384040 132.2893720 145.8011030 118.2981520
 131.8411020 145.8235290 117.4527070 131.6558920 145.4030050 118.8951820
 135.0317170 152.4281540 120.3031800 135.1513380 151.8322680 121.0426640
 135.8911170 152.4651230 119.8833100 137.3705070 152.9818730 118.8794310
 136.8440290 153.5061350 118.2759450 137.7136410 153.6146120 119.5104040
 129.7691460 150.3712100 105.3244020 129.5680520 149.5079460 105.6857360
 129.5983510 150.2845460 104.3865620 131.7985940 148.9702890 121.5607620
 132.3885630 148.6618740 122.2485440 130.9806180 148.4982640 121.7167520
 136.6179370 148.5868700 121.7940640 135.9294890 147.9250240 121.7290630
 137.3385390 148.1406970 122.2389100 137.2479770 145.1820330 107.8530900
 137.5282060 144.3388230 108.2090320 136.4745500 145.4143440 108.3669650
 128.5674260 147.4712720 105.3121900 128.8700160 147.4780150 104.4041050
 129.3068850 147.1210580 105.8089560 131.7859190 146.4147340 106.2978100
 131.4381190 145.7371330 105.7180550 131.9871960 145.9536850 107.1121490
 125.1264830 152.9434990 112.6942470 124.4713670 152.6746630 112.0502170
 125.9642780 152.8339470 112.2444450 138.0755270 147.7376280 106.9160960
 138.4940150 147.5507260 106.0757620 137.7691330 146.8855330 107.2263890
 141.5745000 152.6500420 110.6136760 141.1988600 151.8828350 110.1818050
 140.8448120 153.0323120 111.1011690 126.1640760 153.3287560 117.2345810
 126.5313800 153.2414960 118.1141830 125.5951580 152.5654110 117.1352670
 140.9644620 151.7971940 120.2476280 140.7330710 151.5684690 119.3474230
 141.2249170 152.7171490 120.2021170 125.7156760 150.2396650 121.1404230
 124.8212810 150.2063410 121.4797940 126.2554310 150.4383440 121.9055480
 139.4032690 147.0228370 123.0255980 140.2802870 147.0311770 123.4089980
 139.4153530 146.2859210 122.4148330 124.3402910 150.1533920 108.6367800
 123.4366990 150.4164120 108.4619460 124.8243530 150.4245090 107.8567760
 140.8495960 150.8757910 113.9144000 141.3733440 150.3820560 113.2834170
 141.4355380 151.0108270 114.6591570 141.0285680 150.9597780 117.4363550
 140.0788390 150.9261320 117.5508540 141.2098690 151.8697890 117.2013320
 126.8830120 149.2099460 106.5462180 127.5921820 148.7882680 106.0609460
 126.1670060 149.2774690 105.9145530 126.5304280 145.2638790 105.5864830
 127.2532410 145.8047730 105.9046050 126.8028800 144.9902210 104.7106370
 140.3395930 150.1331260 109.8536410 140.8355050 149.9002130 110.6385290
 140.1412000 149.2943100 109.4374050 126.2196470 144.5144980 115.4887450
 126.8672660 143.9642360 115.0482610 126.6398310 144.7688130 116.3103260
 141.7683090 148.7692210 112.3874090 141.6582370 148.6148250 113.3256360
 142.5290680 148.2413150 112.1449500 140.1148810 144.7086340 118.8457090
 140.7521030 145.3220480 119.2116280 140.2623700 144.7447000 117.9006320
 142.6573360 146.6000130 105.6280230 143.5822670 146.4681310 105.4198520
 142.6349150 146.6792950 106.5816680 142.7311850 147.3710790 108.2536940
 141.9363350 147.3055910 108.7829850 142.9355130 148.3061430 108.2422290
 125.9728470 144.6700650 118.2312770 125.6243290 145.1264470 118.9970950
 125.6416170 143.7757780 118.3135200 133.4853290 145.8612530 121.7532190
 133.4242180 146.4534360 122.5027600 134.4253670 145.7538490 121.6082450
 136.1227850 145.5182590 121.3924480 136.7368260 145.8361880 120.7305560
 136.6677410 145.0331180 122.0120340 126.6449110 144.1976850 121.5063540
 127.1932100 144.0164900 120.7429650 126.7104420 143.4070960 122.0419850
 136.8635890 144.0814730 117.7193770 135.9895730 144.4149840 117.5166700
 136.7546640 143.6087910 118.5445640 137.7707870 146.2885600 119.1035490
 137.4421230 145.4737360 118.7237220 138.7190170 146.2455410 118.9801180
 134.6110710 144.9984570 116.6586680 133.8282500 145.4730070 116.9383440
 134.3173640 144.0939400 116.5499860 139.1631780 145.7007670 114.7035770
 139.6039870 145.6452770 113.8557370 138.8939370 146.6165680 114.7745950
 141.0270350 145.3322910 112.7144590 140.9658750 144.3884130 112.5675610
 141.8062380 145.4403000 113.2598050 125.9551120 145.3032050 109.1800400
 126.7130480 145.4160930 108.6064430 125.4928290 146.1401250 109.1343830
 132.4964930 147.4171320 112.1702710 131.6839440 147.0428210 111.8298590
 133.0006570 146.6616400 112.4723900 136.9989910 144.0813770 113.4085780
 137.6019280 144.6533980 113.8834300 136.2582900 144.6453210 113.1859680
 140.1424510 144.4835330 108.6826060 140.3375140 145.3818780 108.9493490
 139.3554380 144.2522410 109.1759010 128.3276270 145.8296100 107.7202370
 128.8569030 145.0425900 107.5910320 128.9604590 146.5087290 107.9537900
 130.5214110 145.5671240 110.7747760 129.8916850 144.8658550 110.9417890
 129.9819250 146.3275370 110.5580920 130.6469670 144.8455220 123.2100250
 130.3653940 145.3488820 122.4461070 131.0289370 144.0476970 122.8442380
 137.2485130 144.2608800 123.7880720 137.1350580 144.5803410 124.6832240
 138.0654870 144.6621310 123.4918000 136.1543280 152.2801270  94.1515460
 136.0737330 151.3655880  93.8807170 135.7407700 152.7768340  93.4455170
 134.2861320 154.0580290  96.0324730 133.5103420 153.5780730  96.3223300
 134.9374250 153.3785940  95.8580890 126.7119100 149.3301990  90.6942880
 125.8235800 149.6717960  90.5922760 126.9960290 149.1302310  89.8023710
 124.6752110 151.9307640  96.5782580 125.2468220 151.1629840  96.5786220
 124.6753650 152.2296400  95.6689190 125.9176980 147.3392000  98.3651510
 125.7379820 146.4417750  98.6454270 125.5157060 147.8863870  99.0398460
 134.7575480 149.5407860  96.2663820 135.1340300 148.6679740  96.1537490
 134.6594990 149.8766560  95.3754260 128.8880490 147.9133490  91.7281260
 128.9947240 148.8137220  92.0350020 127.9772850 147.8651460  91.4375910
 138.5399600 147.0358300  93.1992160 139.3609220 146.5454870  93.2417640
 138.5733680 147.6255960  93.9524000 126.5363650 149.8352500  96.9733850
 127.2173760 150.0990870  97.5921250 126.2211700 148.9953370  97.3071860
 130.7288220 150.8819860  96.0606440 131.2366440 151.3800830  96.7011460
 131.2601460 150.1055060  95.8845800 142.8299150 149.0525050  99.7635790
 142.1251320 149.4406760  99.2450900 143.0957070 149.7475340 100.3656720
 129.0124320 145.5218420 100.3269860 129.0142760 146.0390810  99.5215760
 128.1828630 145.0448600 100.3039790 138.7761080 148.9758680  95.9719700
 138.0716650 149.2643570  96.5522810 139.1373240 149.7858790  95.6119260
 128.6939650 147.2328380  98.3340310 129.0356460 148.0770430  98.0394180
 127.7555460 147.3812120  98.4505650 141.8448000 148.4213470  96.3628910
 140.8972910 148.4552450  96.4944340 142.1697990 149.2352420  96.7478270
 132.3767540 144.7210650  94.6584900 132.6842520 144.1657540  93.9420400
 131.4468240 144.8555110  94.4757890 134.7648300 152.7859480  91.3945020
 133.8377580 152.7196860  91.6233490 134.9173120 153.7239610  91.2800260
 134.7517380 149.0576480  88.3912180 133.8121050 149.2190440  88.4764640
 135.0700640 149.7762160  87.8448170 138.2372150 150.5264320  99.3146080
 137.8243330 151.3518030  99.5686070 137.5048100 149.9409360  99.1222440
 130.3704940 153.3124220  94.1764750 129.9661940 152.6001470  93.6810650
 130.4568060 152.9677460  95.0652790 129.0833560 150.0867430  97.9563790
 129.6348150 150.1962770  97.1817040 129.5977070 150.4605030  98.6719020
 136.9710290 153.5866590  88.9053020 137.4103570 152.7489020  88.7590840
 137.6838710 154.2195990  88.9917160 140.5527430 144.8409400  87.2194060
 140.2400090 144.9336230  88.1193130 141.3139900 145.4190430  87.1691490
 127.0709570 152.2069200  91.6771400 126.9507170 152.9331290  91.0652670
 126.7610460 151.4372110  91.1999310 141.7628720 149.5780900 103.1968200
 141.1472990 150.0860570 102.6683660 141.4425140 148.6779230 103.1394140
 129.5373230 145.5504270  95.0595070 129.0941380 146.3313810  94.7279590
 130.0958220 145.8734160  95.7666010 133.8243040 148.4172790 100.6630390
 133.3622410 148.6255810 101.4750330 133.4221150 147.6032140 100.3601060
 138.8247550 149.6381740 101.7927050 137.9741140 149.3387490 102.1136120
 138.6649340 149.8823750 100.8810870 135.9197260 151.1383490 103.8925840
 136.2450670 150.3047240 103.5528070 136.7077590 151.6612010 104.0404170
 132.6532050 145.1714970  89.9400900 132.0286230 145.1674840  90.6654210
 132.5662170 144.3045930  89.5436870 131.5749130 146.0951600  96.9184670
 131.8721460 147.0014430  96.8376690 132.1234690 145.6070380  96.3044240
 129.3287450 150.6737840  92.7876320 129.1028370 150.4575010  93.6922940
 128.5479980 151.1066300  92.4422290 136.5585210 150.6801210  91.3866970
 135.9594100 151.4037010  91.2030590 137.1064820 150.6177990  90.6043420
 131.7686660 151.5723420 103.4536590 131.6730260 150.6318150 103.3036990
 132.6118640 151.7938490 103.0584660 135.1650080 149.3164750  93.4170250
 135.5579650 149.6336950  92.6038940 135.5266930 148.4376630  93.5314770
 126.8997200 147.9837090 101.6070370 126.5060590 148.8312300 101.8143150
 126.2115600 147.3463460 101.7979010 133.4742250 148.0672060 104.6767110
 132.7840570 147.8744260 105.3113200 134.2174550 148.3506700 105.2091410
 124.2014250 145.9065550  95.6400450 123.9127300 146.4768410  96.3525430
 124.9460010 145.4270000  96.0031680 124.3884480 149.8485670  86.8503170
 124.3059150 150.7916430  86.9918160 124.0367540 149.7060580  85.9715520
 135.7505220 151.9070500  97.5121030 135.0186340 152.4157310  97.8611130
 135.3529560 151.0900480  97.2109810 132.1882610 148.5824700  95.9173520
 132.1918670 148.1414650  95.0678060 133.0833730 148.9042030  96.0245340
 128.0384990 148.4651190  94.8767730 127.6985040 148.9426420  95.6334780
 127.2762310 148.0116310  94.5168830 132.2502760 149.5836780  88.9080280
 132.3715580 149.5423260  89.8566100 131.8651270 150.4460930  88.7527010
 136.2131130 147.3604180  96.9243970 136.2303870 147.8112830  97.7685820
 135.9646710 146.4609820  97.1377410 131.2624260 151.8937920  88.3063580
 130.6941160 151.4456170  87.6799490 131.9713260 152.2530700  87.7728730
 139.6401880 144.7736360 102.7630350 139.9647650 144.0426020 103.2888330
 139.6758390 144.4550000 101.8611340 132.4890580 152.6426480  97.6638930
 132.8560710 152.1685050  98.4100270 132.2995640 153.5168050  98.0047270
 125.3531070 147.3870170  93.7932400 125.0677990 147.0225840  94.6311020
 125.2909930 146.6550630  93.1795540 130.2789950 151.6835120  99.9823140
 129.9747020 152.5627100 100.2073500 131.2336410 151.7434910 100.0180580
 135.0269660 146.2799430  90.5145770 134.2134270 145.7812600  90.4391080
 134.8331610 147.1197680  90.0982120 137.7418050 150.6519080  88.8107930
 138.6297670 150.9636310  88.6359270 137.7123140 149.7791330  88.4188510
 126.3353680 152.5237860 101.1294500 125.9768620 153.1891710 101.7167840
 126.0408240 151.6921410 101.5007120 129.5366800 152.9822100 104.0134050
 129.2366940 153.1279280 103.1161870 130.3078040 152.4227390 103.9207440
 140.0132320 151.9630920  88.2787790 139.9296040 152.3945140  87.4284230
 140.7326510 152.4229270  88.7114610 124.8461730 152.5229120  87.7529100
 125.7156580 152.8053920  88.0365020 124.3552050 153.3364990  87.6377910
 127.9108320 144.2539980  92.3459900 127.7822950 144.2457880  93.2944820
 127.0870340 144.5923070  91.9950910 124.9102250 146.0131100 101.8066600
 124.1960770 146.2128020 102.4119210 125.3297290 145.2370670 102.1781400
 136.4041030 148.5053410  99.5568050 136.7721850 147.6848620  99.8847620
 135.5439230 148.5655300  99.9723700 139.7703060 147.4610350  90.3655610
 139.1416220 147.5656020  89.6513840 139.2754980 147.6807130  91.1549490
 131.7387090 149.7396300  91.7813490 131.0303240 150.2082640  92.2227100
 132.0231570 149.0818310  92.4158680 133.3643020 151.1593000  99.7806020
 133.8628270 151.6338820 100.4457870 133.5065970 150.2356520  99.9876050
 135.7702520 146.4646960  93.2209280 135.6470300 146.4833090  92.2718790
 136.7187080 146.5125900  93.3407680 129.9422110 148.0481380  89.1564200
 130.7912640 148.4851530  89.0904390 129.5753380 148.3601640  89.9836260
 140.5709880 147.3760960 100.6234410 140.0683480 148.1166360 100.9628220
 141.3866540 147.7644960 100.3071200 138.8631890 152.6194140  94.0695770
 137.9222030 152.6344370  94.2443460 139.1775960 151.8330100  94.5156070
 128.8413530 154.3013740  87.6299730 129.6076800 154.1895100  88.1925160
 128.9188220 153.6051710  86.9776500 127.5360290 151.7338810  88.3132620
 127.6163880 150.7866320  88.4250020 128.4280040 152.0645690  88.4193280
 125.0631090 153.5553730 103.5488790 125.5670110 152.9761010 104.1205020
 124.3238510 153.8393960 104.0865160 127.0954170 151.6983320 104.4438860
 127.1359510 151.3997190 105.3524090 127.9499670 152.0990930 104.2846380
 130.8732560 154.2978870  89.6042370 131.2948980 154.1318740  90.4473760
 130.9983400 153.4879100  89.1097510 129.0359980 150.2775420 102.4113350
 128.5056440 149.7866370 101.7836690 129.7048050 150.7059620 101.8771280
 133.3860200 153.3216480  86.8519470 133.9065860 152.6065500  86.4860620
 134.0328600 153.9602350  87.1519980 138.4060210 152.0841040 104.1793690
 138.9880980 151.3293360 104.0914170 138.5821980 152.6148480 103.4025170
 129.5232280 147.2437790 102.4910640 129.4289150 146.6258540 101.7661510
 128.9429670 147.9704080 102.2640550 132.2893720 145.8011030  99.5238030
 131.8411020 145.8235290  98.6783580 131.6558920 145.4030050 100.1208330
 135.0317170 152.4281540 101.5288310 135.1513380 151.8322680 102.2683150
 135.8911170 152.4651230 101.1089610 137.3705070 152.9818730 100.1050820
 136.8440290 153.5061350  99.5015960 137.7136410 153.6146120 100.7360550
 129.7691460 150.3712100  86.5500530 129.5680520 149.5079460  86.9113870
 129.5983510 150.2845460  85.6122130 131.7985940 148.9702890 102.7864130
 132.3885630 148.6618740 103.4741950 130.9806180 148.4982640 102.9424030
 136.6179370 148.5868700 103.0197150 135.9294890 147.9250240 102.9547140
 137.3385390 148.1406970 103.4645610 137.2479770 145.1820330  89.0787410
 137.5282060 144.3388230  89.4346830 136.4745500 145.4143440  89.5926160
 128.5674260 147.4712720  86.5378410 128.8700160 147.4780150  85.6297560
 129.3068850 147.1210580  87.0346070 131.7859190 146.4147340  87.5234610
 131.4381190 145.7371330  86.9437060 131.9871960 145.9536850  88.3378000
 125.1264830 152.9434990  93.9198980 124.4713670 152.6746630  93.2758680
 125.9642780 152.8339470  93.4700960 138.0755270 147.7376280  88.1417470
 138.4940150 147.5507260  87.3014130 137.7691330 146.8855330  88.4520400
 141.5745000 152.6500420  91.8393270 141.1988600 151.8828350  91.4074560
 140.8448120 153.0323120  92.3268200 126.1640760 153.3287560  98.4602320
 126.5313800 153.2414960  99.3398340 125.5951580 152.5654110  98.3609180
 140.9644620 151.7971940 101.4732790 140.7330710 151.5684690 100.5730740
 141.2249170 152.7171490 101.4277680 125.7156760 150.2396650 102.3660740
 124.8212810 150.2063410 102.7054450 126.2554310 150.4383440 103.1311990
 139.4032690 147.0228370 104.2512490 140.2802870 147.0311770 104.6346490
 139.4153530 146.2859210 103.6404840 124.3402910 150.1533920  89.8624310
 123.4366990 150.4164120  89.6875970 124.8243530 150.4245090  89.0824270
 140.8495960 150.8757910  95.1400510 141.3733440 150.3820560  94.5090680
 141.4355380 151.0108270  95.8848080 141.0285680 150.9597780  98.6620060
 140.0788390 150.9261320  98.7765050 141.2098690 151.8697890  98.4269830
 126.8830120 149.2099460  87.7718690 127.5921820 148.7882680  87.2865970
 126.1670060 149.2774690  87.1402040 126.5304280 145.2638790  86.8121340
 127.2532410 145.8047730  87.1302560 126.8028800 144.9902210  85.9362880
 140.3395930 150.1331260  91.0792920 140.8355050 149.9002130  91.8641800
 140.1412000 149.2943100  90.6630560 126.2196470 144.5144980  96.7143960
 126.8672660 143.9642360  96.2739120 126.6398310 144.7688130  97.5359770
 141.7683090 148.7692210  93.6130600 141.6582370 148.6148250  94.5512870
 142.5290680 148.2413150  93.3706010 140.1148810 144.7086340 100.0713600
 140.7521030 145.3220480 100.4372790 140.2623700 144.7447000  99.1262830
 142.6573360 146.6000130  86.8536740 143.5822670 146.4681310  86.6455030
 142.6349150 146.6792950  87.8073190 142.7311850 147.3710790  89.4793450
 141.9363350 147.3055910  90.0086360 142.9355130 148.3061430  89.4678800
 125.9728470 144.6700650  99.4569280 125.6243290 145.1264470 100.2227460
 125.6416170 143.7757780  99.5391710 133.4853290 145.8612530 102.9788700
 133.4242180 146.4534360 103.7284110 134.4253670 145.7538490 102.8338960
 136.1227850 145.5182590 102.6180990 136.7368260 145.8361880 101.9562070
 136.6677410 145.0331180 103.2376850 126.6449110 144.1976850 102.7320050
 127.1932100 144.0164900 101.9686160 126.7104420 143.4070960 103.2676360
 136.8635890 144.0814730  98.9450280 135.9895730 144.4149840  98.7423210
 136.7546640 143.6087910  99.7702150 137.7707870 146.2885600 100.3292000
 137.4421230 145.4737360  99.9493730 138.7190170 146.2455410 100.2057690
 134.6110710 144.9984570  97.8843190 133.8282500 145.4730070  98.1639950
 134.3173640 144.0939400  97.7756370 139.1631780 145.7007670  95.9292280
 139.6039870 145.6452770  95.0813880 138.8939370 146.6165680  96.0002460
 141.0270350 145.3322910  93.9401100 140.9658750 144.3884130  93.7932120
 141.8062380 145.4403000  94.4854560 125.9551120 145.3032050  90.4056910
 126.7130480 145.4160930  89.8320940 125.4928290 146.1401250  90.3600340
 132.4964930 147.4171320  93.3959220 131.6839440 147.0428210  93.0555100
 133.0006570 146.6616400  93.6980410 136.9989910 144.0813770  94.6342290
 137.6019280 144.6533980  95.1090810 136.2582900 144.6453210  94.4116190
 140.1424510 144.4835330  89.9082570 140.3375140 145.3818780  90.1750000
 139.3554380 144.2522410  90.4015520 128.3276270 145.8296100  88.9458880
 128.8569030 145.0425900  88.8166830 128.9604590 146.5087290  89.1794410
 130.5214110 145.5671240  92.0004270 129.8916850 144.8658550  92.1674400
 129.9819250 146.3275370  91.7837430 130.6469670 144.8455220 104.4356760
 130.3653940 145.3488820 103.6717580 131.0289370 144.0476970 104.0698890
 137.2485130 144.2608800 105.0137230 137.1350580 144.5803410 105.9088750
 138.0654870 144.6621310 104.7174510 136.1543280 152.2801270  75.3771970
 136.0737330 151.3655880  75.1063680 135.7407700 152.7768340  74.6711680
 134.2861320 154.0580290  77.2581240 133.5103420 153.5780730  77.5479810
 134.9374250 153.3785940  77.0837400 126.7119100 149.3301990  71.9199390
 125.8235800 149.6717960  71.8179270 126.9960290 149.1302310  71.0280220
 124.6752110 151.9307640  77.8039090 125.2468220 151.1629840  77.8042730
 124.6753650 152.2296400  76.8945700 125.9176980 147.3392000  79.5908020
 125.7379820 146.4417750  79.8710780 125.5157060 147.8863870  80.2654970
 134.7575480 149.5407860  77.4920330 135.1340300 148.6679740  77.3794000
 134.6594990 149.8766560  76.6010770 128.8880490 147.9133490  72.9537770
 128.9947240 148.8137220  73.2606530 127.9772850 147.8651460  72.6632420
 138.5399600 147.0358300  74.4248670 139.3609220 146.5454870  74.4674150
 138.5733680 147.6255960  75.1780510 126.5363650 149.8352500  78.1990360
 127.2173760 150.0990870  78.8177760 126.2211700 148.9953370  78.5328370
 130.7288220 150.8819860  77.2862950 131.2366440 151.3800830  77.9267970
 131.2601460 150.1055060  77.1102310 142.8299150 149.0525050  80.9892300
 142.1251320 149.4406760  80.4707410 143.0957070 149.7475340  81.5913230
 129.0124320 145.5218420  81.5526370 129.0142760 146.0390810  80.7472270
 128.1828630 145.0448600  81.5296300 138.7761080 148.9758680  77.1976210
 138.0716650 149.2643570  77.7779320 139.1373240 149.7858790  76.8375770
 128.6939650 147.2328380  79.5596820 129.0356460 148.0770430  79.2650690
 127.7555460 147.3812120  79.6762160 141.8448000 148.4213470  77.5885420
 140.8972910 148.4552450  77.7200850 142.1697990 149.2352420  77.9734780
 132.3767540 144.7210650  75.8841410 132.6842520 144.1657540  75.1676910
 131.4468240 144.8555110  75.7014400 134.7648300 152.7859480  72.6201530
 133.8377580 152.7196860  72.8490000 134.9173120 153.7239610  72.5056770
 134.7517380 149.0576480  69.6168690 133.8121050 149.2190440  69.7021150
 135.0700640 149.7762160  69.0704680 138.2372150 150.5264320  80.5402590
 137.8243330 151.3518030  80.7942580 137.5048100 149.9409360  80.3478950
 130.3704940 153.3124220  75.4021260 129.9661940 152.6001470  74.9067160
 130.4568060 152.9677460  76.2909300 129.0833560 150.0867430  79.1820300
 129.6348150 150.1962770  78.4073550 129.5977070 150.4605030  79.8975530
 136.9710290 153.5866590  70.1309530 137.4103570 152.7489020  69.9847350
 137.6838710 154.2195990  70.2173670 140.5527430 144.8409400  68.4450570
 140.2400090 144.9336230  69.3449640 141.3139900 145.4190430  68.3948000
 127.0709570 152.2069200  72.9027910 126.9507170 152.9331290  72.2909180
 126.7610460 151.4372110  72.4255820 141.7628720 149.5780900  84.4224710
 141.1472990 150.0860570  83.8940170 141.4425140 148.6779230  84.3650650
 129.5373230 145.5504270  76.2851580 129.0941380 146.3313810  75.9536100
 130.0958220 145.8734160  76.9922520 133.8243040 148.4172790  81.8886900
 133.3622410 148.6255810  82.7006840 133.4221150 147.6032140  81.5857570
 138.8247550 149.6381740  83.0183560 137.9741140 149.3387490  83.3392630
 138.6649340 149.8823750  82.1067380 135.9197260 151.1383490  85.1182350
 136.2450670 150.3047240  84.7784580 136.7077590 151.6612010  85.2660680
 132.6532050 145.1714970  71.1657410 132.0286230 145.1674840  71.8910720
 132.5662170 144.3045930  70.7693380 131.5749130 146.0951600  78.1441180
 131.8721460 147.0014430  78.0633200 132.1234690 145.6070380  77.5300750
 129.3287450 150.6737840  74.0132830 129.1028370 150.4575010  74.9179450
 128.5479980 151.1066300  73.6678800 136.5585210 150.6801210  72.6123480
 135.9594100 151.4037010  72.4287100 137.1064820 150.6177990  71.8299930
 131.7686660 151.5723420  84.6793100 131.6730260 150.6318150  84.5293500
 132.6118640 151.7938490  84.2841170 135.1650080 149.3164750  74.6426760
 135.5579650 149.6336950  73.8295450 135.5266930 148.4376630  74.7571280
 126.8997200 147.9837090  82.8326880 126.5060590 148.8312300  83.0399660
 126.2115600 147.3463460  83.0235520 133.4742250 148.0672060  85.9023620
 132.7840570 147.8744260  86.5369710 134.2174550 148.3506700  86.4347920
 124.2014250 145.9065550  76.8656960 123.9127300 146.4768410  77.5781940
 124.9460010 145.4270000  77.2288190 124.3884480 149.8485670  68.0759680
 124.3059150 150.7916430  68.2174670 124.0367540 149.7060580  67.1972030
 135.7505220 151.9070500  78.7377540 135.0186340 152.4157310  79.0867640
 135.3529560 151.0900480  78.4366320 132.1882610 148.5824700  77.1430030
 132.1918670 148.1414650  76.2934570 133.0833730 148.9042030  77.2501850
 128.0384990 148.4651190  76.1024240 127.6985040 148.9426420  76.8591290
 127.2762310 148.0116310  75.7425340 132.2502760 149.5836780  70.1336790
 132.3715580 149.5423260  71.0822610 131.8651270 150.4460930  69.9783520
 136.2131130 147.3604180  78.1500480 136.2303870 147.8112830  78.9942330
 135.9646710 146.4609820  78.3633920 131.2624260 151.8937920  69.5320090
 130.6941160 151.4456170  68.9056000 131.9713260 152.2530700  68.9985240
 139.6401880 144.7736360  83.9886860 139.9647650 144.0426020  84.5144840
 139.6758390 144.4550000  83.0867850 132.4890580 152.6426480  78.8895440
 132.8560710 152.1685050  79.6356780 132.2995640 153.5168050  79.2303780
 125.3531070 147.3870170  75.0188910 125.0677990 147.0225840  75.8567530
 125.2909930 146.6550630  74.4052050 130.2789950 151.6835120  81.2079650
 129.9747020 152.5627100  81.4330010 131.2336410 151.7434910  81.2437090
 135.0269660 146.2799430  71.7402280 134.2134270 145.7812600  71.6647590
 134.8331610 147.1197680  71.3238630 137.7418050 150.6519080  70.0364440
 138.6297670 150.9636310  69.8615780 137.7123140 149.7791330  69.6445020
 126.3353680 152.5237860  82.3551010 125.9768620 153.1891710  82.9424350
 126.0408240 151.6921410  82.7263630 129.5366800 152.9822100  85.2390560
 129.2366940 153.1279280  84.3418380 130.3078040 152.4227390  85.1463950
 140.0132320 151.9630920  69.5044300 139.9296040 152.3945140  68.6540740
 140.7326510 152.4229270  69.9371120 124.8461730 152.5229120  68.9785610
 125.7156580 152.8053920  69.2621530 124.3552050 153.3364990  68.8634420
 127.9108320 144.2539980  73.5716410 127.7822950 144.2457880  74.5201330
 127.0870340 144.5923070  73.2207420 124.9102250 146.0131100  83.0323110
 124.1960770 146.2128020  83.6375720 125.3297290 145.2370670  83.4037910
 136.4041030 148.5053410  80.7824560 136.7721850 147.6848620  81.1104130
 135.5439230 148.5655300  81.1980210 139.7703060 147.4610350  71.5912120
 139.1416220 147.5656020  70.8770350 139.2754980 147.6807130  72.3806000
 131.7387090 149.7396300  73.0070000 131.0303240 150.2082640  73.4483610
 132.0231570 149.0818310  73.6415190 133.3643020 151.1593000  81.0062530
 133.8628270 151.6338820  81.6714380 133.5065970 150.2356520  81.2132560
 135.7702520 146.4646960  74.4465790 135.6470300 146.4833090  73.4975300
 136.7187080 146.5125900  74.5664190 129.9422110 148.0481380  70.3820710
 130.7912640 148.4851530  70.3160900 129.5753380 148.3601640  71.2092770
 140.5709880 147.3760960  81.8490920 140.0683480 148.1166360  82.1884730
 141.3866540 147.7644960  81.5327710 138.8631890 152.6194140  75.2952280
 137.9222030 152.6344370  75.4699970 139.1775960 151.8330100  75.7412580
 128.8413530 154.3013740  68.8556240 129.6076800 154.1895100  69.4181670
 128.9188220 153.6051710  68.2033010 127.5360290 151.7338810  69.5389130
 127.6163880 150.7866320  69.6506530 128.4280040 152.0645690  69.6449790
 125.0631090 153.5553730  84.7745300 125.5670110 152.9761010  85.3461530
 124.3238510 153.8393960  85.3121670 127.0954170 151.6983320  85.6695370
 127.1359510 151.3997190  86.5780600 127.9499670 152.0990930  85.5102890
 130.8732560 154.2978870  70.8298880 131.2948980 154.1318740  71.6730270
 130.9983400 153.4879100  70.3354020 129.0359980 150.2775420  83.6369860
 128.5056440 149.7866370  83.0093200 129.7048050 150.7059620  83.1027790
 133.3860200 153.3216480  68.0775980 133.9065860 152.6065500  67.7117130
 134.0328600 153.9602350  68.3776490 138.4060210 152.0841040  85.4050200
 138.9880980 151.3293360  85.3170680 138.5821980 152.6148480  84.6281680
 129.5232280 147.2437790  83.7167150 129.4289150 146.6258540  82.9918020
 128.9429670 147.9704080  83.4897060 132.2893720 145.8011030  80.7494540
 131.8411020 145.8235290  79.9040090 131.6558920 145.4030050  81.3464840
 135.0317170 152.4281540  82.7544820 135.1513380 151.8322680  83.4939660
 135.8911170 152.4651230  82.3346120 137.3705070 152.9818730  81.3307330
 136.8440290 153.5061350  80.7272470 137.7136410 153.6146120  81.9617060
 129.7691460 150.3712100  67.7757040 129.5680520 149.5079460  68.1370380
 129.5983510 150.2845460  66.8378640 131.7985940 148.9702890  84.0120640
 132.3885630 148.6618740  84.6998460 130.9806180 148.4982640  84.1680540
 136.6179370 148.5868700  84.2453660 135.9294890 147.9250240  84.1803650
 137.3385390 148.1406970  84.6902120 137.2479770 145.1820330  70.3043920
 137.5282060 144.3388230  70.6603340 136.4745500 145.4143440  70.8182670
 128.5674260 147.4712720  67.7634920 128.8700160 147.4780150  66.8554070
 129.3068850 147.1210580  68.2602580 131.7859190 146.4147340  68.7491120
 131.4381190 145.7371330  68.1693570 131.9871960 145.9536850  69.5634510
 125.1264830 152.9434990  75.1455490 124.4713670 152.6746630  74.5015190
 125.9642780 152.8339470  74.6957470 138.0755270 147.7376280  69.3673980
 138.4940150 147.5507260  68.5270640 137.7691330 146.8855330  69.6776910
 141.5745000 152.6500420  73.0649780 141.1988600 151.8828350  72.6331070
 140.8448120 153.0323120  73.5524710 126.1640760 153.3287560  79.6858830
 126.5313800 153.2414960  80.5654850 125.5951580 152.5654110  79.5865690
 140.9644620 151.7971940  82.6989300 140.7330710 151.5684690  81.7987250
 141.2249170 152.7171490  82.6534190 125.7156760 150.2396650  83.5917250
 124.8212810 150.2063410  83.9310960 126.2554310 150.4383440  84.3568500
 139.4032690 147.0228370  85.4769000 140.2802870 147.0311770  85.8603000
 139.4153530 146.2859210  84.8661350 124.3402910 150.1533920  71.0880820
 123.4366990 150.4164120  70.9132480 124.8243530 150.4245090  70.3080780
 140.8495960 150.8757910  76.3657020 141.3733440 150.3820560  75.7347190
 141.4355380 151.0108270  77.1104590 141.0285680 150.9597780  79.8876570
 140.0788390 150.9261320  80.0021560 141.2098690 151.8697890  79.6526340
 126.8830120 149.2099460  68.9975200 127.5921820 148.7882680  68.5122480
 126.1670060 149.2774690  68.3658550 126.5304280 145.2638790  68.0377850
 127.2532410 145.8047730  68.3559070 126.8028800 144.9902210  67.1619390
 140.3395930 150.1331260  72.3049430 140.8355050 149.9002130  73.0898310
 140.1412000 149.2943100  71.8887070 126.2196470 144.5144980  77.9400470
 126.8672660 143.9642360  77.4995630 126.6398310 144.7688130  78.7616280
 141.7683090 148.7692210  74.8387110 141.6582370 148.6148250  75.7769380
 142.5290680 148.2413150  74.5962520 140.1148810 144.7086340  81.2970110
 140.7521030 145.3220480  81.6629300 140.2623700 144.7447000  80.3519340
 142.6573360 146.6000130  68.0793250 143.5822670 146.4681310  67.8711540
 142.6349150 146.6792950  69.0329700 142.7311850 147.3710790  70.7049960
 141.9363350 147.3055910  71.2342870 142.9355130 148.3061430  70.6935310
 125.9728470 144.6700650  80.6825790 125.6243290 145.1264470  81.4483970
 125.6416170 143.7757780  80.7648220 133.4853290 145.8612530  84.2045210
 133.4242180 146.4534360  84.9540620 134.4253670 145.7538490  84.0595470
 136.1227850 145.5182590  83.8437500 136.7368260 145.8361880  83.1818580
 136.6677410 145.0331180  84.4633360 126.6449110 144.1976850  83.9576560
 127.1932100 144.0164900  83.1942670 126.7104420 143.4070960  84.4932870
 136.8635890 144.0814730  80.1706790 135.9895730 144.4149840  79.9679720
 136.7546640 143.6087910  80.9958660 137.7707870 146.2885600  81.5548510
 137.4421230 145.4737360  81.1750240 138.7190170 146.2455410  81.4314200
 134.6110710 144.9984570  79.1099700 133.8282500 145.4730070  79.3896460
 134.3173640 144.0939400  79.0012880 139.1631780 145.7007670  77.1548790
 139.6039870 145.6452770  76.3070390 138.8939370 146.6165680  77.2258970
 141.0270350 145.3322910  75.1657610 140.9658750 144.3884130  75.0188630
 141.8062380 145.4403000  75.7111070 125.9551120 145.3032050  71.6313420
 126.7130480 145.4160930  71.0577450 125.4928290 146.1401250  71.5856850
 132.4964930 147.4171320  74.6215730 131.6839440 147.0428210  74.2811610
 133.0006570 146.6616400  74.9236920 136.9989910 144.0813770  75.8598800
 137.6019280 144.6533980  76.3347320 136.2582900 144.6453210  75.6372700
 140.1424510 144.4835330  71.1339080 140.3375140 145.3818780  71.4006510
 139.3554380 144.2522410  71.6272030 128.3276270 145.8296100  70.1715390
 128.8569030 145.0425900  70.0423340 128.9604590 146.5087290  70.4050920
 130.5214110 145.5671240  73.2260780 129.8916850 144.8658550  73.3930910
 129.9819250 146.3275370  73.0093940 130.6469670 144.8455220  85.6613270
 130.3653940 145.3488820  84.8974090 131.0289370 144.0476970  85.2955400
 137.2485130 144.2608800  86.2393740 137.1350580 144.5803410  87.1345260
 138.0654870 144.6621310  85.9431020 136.1543280 152.2801270  56.6028480
 136.0737330 151.3655880  56.3320190 135.7407700 152.7768340  55.8968190
 134.2861320 154.0580290  58.4837750 133.5103420 153.5780730  58.7736320
 134.9374250 153.3785940  58.3093910 126.7119100 149.3301990  53.1455900
 125.8235800 149.6717960  53.0435780 126.9960290 149.1302310  52.2536730
 124.6752110 151.9307640  59.0295600 125.2468220 151.1629840  59.0299240
 124.6753650 152.2296400  58.1202210 125.9176980 147.3392000  60.8164530
 125.7379820 146.4417750  61.0967290 125.5157060 147.8863870  61.4911480
 134.7575480 149.5407860  58.7176840 135.1340300 148.6679740  58.6050510
 134.6594990 149.8766560  57.8267280 128.8880490 147.9133490  54.1794280
 128.9947240 148.8137220  54.4863040 127.9772850 147.8651460  53.8888930
 138.5399600 147.0358300  55.6505180 139.3609220 146.5454870  55.6930660
 138.5733680 147.6255960  56.4037020 126.5363650 149.8352500  59.4246870
 127.2173760 150.0990870  60.0434270 126.2211700 148.9953370  59.7584880
 130.7288220 150.8819860  58.5119460 131.2366440 151.3800830  59.1524480
 131.2601460 150.1055060  58.3358820 142.8299150 149.0525050  62.2148810
 142.1251320 149.4406760  61.6963920 143.0957070 149.7475340  62.8169740
 129.0124320 145.5218420  62.7782880 129.0142760 146.0390810  61.9728780
 128.1828630 145.0448600  62.7552810 138.7761080 148.9758680  58.4232720
 138.0716650 149.2643570  59.0035830 139.1373240 149.7858790  58.0632280
 128.6939650 147.2328380  60.7853330 129.0356460 148.0770430  60.4907200
 127.7555460 147.3812120  60.9018670 141.8448000 148.4213470  58.8141930
 140.8972910 148.4552450  58.9457360 142.1697990 149.2352420  59.1991290
 132.3767540 144.7210650  57.1097920 132.6842520 144.1657540  56.3933420
 131.4468240 144.8555110  56.9270910 134.7648300 152.7859480  53.8458040
 133.8377580 152.7196860  54.0746510 134.9173120 153.7239610  53.7313280
 134.7517380 149.0576480  50.8425200 133.8121050 149.2190440  50.9277660
 135.0700640 149.7762160  50.2961190 138.2372150 150.5264320  61.7659100
 137.8243330 151.3518030  62.0199090 137.5048100 149.9409360  61.5735460
 130.3704940 153.3124220  56.6277770 129.9661940 152.6001470  56.1323670
 130.4568060 152.9677460  57.5165810 129.0833560 150.0867430  60.4076810
 129.6348150 150.1962770  59.6330060 129.5977070 150.4605030  61.1232040
 136.9710290 153.5866590  51.3566040 137.4103570 152.7489020  51.2103860
 137.6838710 154.2195990  51.4430180 140.5527430 144.8409400  49.6707080
 140.2400090 144.9336230  50.5706150 141.3139900 145.4190430  49.6204510
 127.0709570 152.2069200  54.1284420 126.9507170 152.9331290  53.5165690
 126.7610460 151.4372110  53.6512330 141.7628720 149.5780900  65.6481220
 141.1472990 150.0860570  65.1196680 141.4425140 148.6779230  65.5907160
 129.5373230 145.5504270  57.5108090 129.0941380 146.3313810  57.1792610
 130.0958220 145.8734160  58.2179030 133.8243040 148.4172790  63.1143410
 133.3622410 148.6255810  63.9263350 133.4221150 147.6032140  62.8114080
 138.8247550 149.6381740  64.2440070 137.9741140 149.3387490  64.5649140
 138.6649340 149.8823750  63.3323890 135.9197260 151.1383490  66.3438860
 136.2450670 150.3047240  66.0041090 136.7077590 151.6612010  66.4917190
 132.6532050 145.1714970  52.3913920 132.0286230 145.1674840  53.1167230
 132.5662170 144.3045930  51.9949890 131.5749130 146.0951600  59.3697690
 131.8721460 147.0014430  59.2889710 132.1234690 145.6070380  58.7557260
 129.3287450 150.6737840  55.2389340 129.1028370 150.4575010  56.1435960
 128.5479980 151.1066300  54.8935310 136.5585210 150.6801210  53.8379990
 135.9594100 151.4037010  53.6543610 137.1064820 150.6177990  53.0556440
 131.7686660 151.5723420  65.9049610 131.6730260 150.6318150  65.7550010
 132.6118640 151.7938490  65.5097680 135.1650080 149.3164750  55.8683270
 135.5579650 149.6336950  55.0551960 135.5266930 148.4376630  55.9827790
 126.8997200 147.9837090  64.0583390 126.5060590 148.8312300  64.2656170
 126.2115600 147.3463460  64.2492030 133.4742250 148.0672060  67.1280130
 132.7840570 147.8744260  67.7626220 134.2174550 148.3506700  67.6604430
 124.2014250 145.9065550  58.0913470 123.9127300 146.4768410  58.8038450
 124.9460010 145.4270000  58.4544700 124.3884480 149.8485670  49.3016190
 124.3059150 150.7916430  49.4431180 124.0367540 149.7060580  48.4228540
 135.7505220 151.9070500  59.9634050 135.0186340 152.4157310  60.3124150
 135.3529560 151.0900480  59.6622830 132.1882610 148.5824700  58.3686540
 132.1918670 148.1414650  57.5191080 133.0833730 148.9042030  58.4758360
 128.0384990 148.4651190  57.3280750 127.6985040 148.9426420  58.0847800
 127.2762310 148.0116310  56.9681850 132.2502760 149.5836780  51.3593300
 132.3715580 149.5423260  52.3079120 131.8651270 150.4460930  51.2040030
 136.2131130 147.3604180  59.3756990 136.2303870 147.8112830  60.2198840
 135.9646710 146.4609820  59.5890430 131.2624260 151.8937920  50.7576600
 130.6941160 151.4456170  50.1312510 131.9713260 152.2530700  50.2241750
 139.6401880 144.7736360  65.2143370 139.9647650 144.0426020  65.7401350
 139.6758390 144.4550000  64.3124360 132.4890580 152.6426480  60.1151950
 132.8560710 152.1685050  60.8613290 132.2995640 153.5168050  60.4560290
 125.3531070 147.3870170  56.2445420 125.0677990 147.0225840  57.0824040
 125.2909930 146.6550630  55.6308560 130.2789950 151.6835120  62.4336160
 129.9747020 152.5627100  62.6586520 131.2336410 151.7434910  62.4693600
 135.0269660 146.2799430  52.9658790 134.2134270 145.7812600  52.8904100
 134.8331610 147.1197680  52.5495140 137.7418050 150.6519080  51.2620950
 138.6297670 150.9636310  51.0872290 137.7123140 149.7791330  50.8701530
 126.3353680 152.5237860  63.5807520 125.9768620 153.1891710  64.1680860
 126.0408240 151.6921410  63.9520140 129.5366800 152.9822100  66.4647070
 129.2366940 153.1279280  65.5674890 130.3078040 152.4227390  66.3720460
 140.0132320 151.9630920  50.7300810 139.9296040 152.3945140  49.8797250
 140.7326510 152.4229270  51.1627630 124.8461730 152.5229120  50.2042120
 125.7156580 152.8053920  50.4878040 124.3552050 153.3364990  50.0890930
 127.9108320 144.2539980  54.7972920 127.7822950 144.2457880  55.7457840
 127.0870340 144.5923070  54.4463930 124.9102250 146.0131100  64.2579620
 124.1960770 146.2128020  64.8632230 125.3297290 145.2370670  64.6294420
 136.4041030 148.5053410  62.0081070 136.7721850 147.6848620  62.3360640
 135.5439230 148.5655300  62.4236720 139.7703060 147.4610350  52.8168630
 139.1416220 147.5656020  52.1026860 139.2754980 147.6807130  53.6062510
 131.7387090 149.7396300  54.2326510 131.0303240 150.2082640  54.6740120
 132.0231570 149.0818310  54.8671700 133.3643020 151.1593000  62.2319040
 133.8628270 151.6338820  62.8970890 133.5065970 150.2356520  62.4389070
 135.7702520 146.4646960  55.6722300 135.6470300 146.4833090  54.7231810
 136.7187080 146.5125900  55.7920700 129.9422110 148.0481380  51.6077220
 130.7912640 148.4851530  51.5417410 129.5753380 148.3601640  52.4349280
 140.5709880 147.3760960  63.0747430 140.0683480 148.1166360  63.4141240
 141.3866540 147.7644960  62.7584220 138.8631890 152.6194140  56.5208790
 137.9222030 152.6344370  56.6956480 139.1775960 151.8330100  56.9669090
 128.8413530 154.3013740  50.0812750 129.6076800 154.1895100  50.6438180
 128.9188220 153.6051710  49.4289520 127.5360290 151.7338810  50.7645640
 127.6163880 150.7866320  50.8763040 128.4280040 152.0645690  50.8706300
 125.0631090 153.5553730  66.0001810 125.5670110 152.9761010  66.5718040
 124.3238510 153.8393960  66.5378180 127.0954170 151.6983320  66.8951880
 127.1359510 151.3997190  67.8037110 127.9499670 152.0990930  66.7359400
 130.8732560 154.2978870  52.0555390 131.2948980 154.1318740  52.8986780
 130.9983400 153.4879100  51.5610530 129.0359980 150.2775420  64.8626370
 128.5056440 149.7866370  64.2349710 129.7048050 150.7059620  64.3284300
 133.3860200 153.3216480  49.3032490 133.9065860 152.6065500  48.9373640
 134.0328600 153.9602350  49.6033000 138.4060210 152.0841040  66.6306710
 138.9880980 151.3293360  66.5427190 138.5821980 152.6148480  65.8538190
 129.5232280 147.2437790  64.9423660 129.4289150 146.6258540  64.2174530
 128.9429670 147.9704080  64.7153570 132.2893720 145.8011030  61.9751050
 131.8411020 145.8235290  61.1296600 131.6558920 145.4030050  62.5721350
 135.0317170 152.4281540  63.9801330 135.1513380 151.8322680  64.7196170
 135.8911170 152.4651230  63.5602630 137.3705070 152.9818730  62.5563840
 136.8440290 153.5061350  61.9528980 137.7136410 153.6146120  63.1873570
 129.7691460 150.3712100  49.0013550 129.5680520 149.5079460  49.3626890
 129.5983510 150.2845460  48.0635150 131.7985940 148.9702890  65.2377150
 132.3885630 148.6618740  65.9254970 130.9806180 148.4982640  65.3937050
 136.6179370 148.5868700  65.4710170 135.9294890 147.9250240  65.4060160
 137.3385390 148.1406970  65.9158630 137.2479770 145.1820330  51.5300430
 137.5282060 144.3388230  51.8859850 136.4745500 145.4143440  52.0439180
 128.5674260 147.4712720  48.9891430 128.8700160 147.4780150  48.0810580
 129.3068850 147.1210580  49.4859090 131.7859190 146.4147340  49.9747630
 131.4381190 145.7371330  49.3950080 131.9871960 145.9536850  50.7891020
 125.1264830 152.9434990  56.3712000 124.4713670 152.6746630  55.7271700
 125.9642780 152.8339470  55.9213980 138.0755270 147.7376280  50.5930490
 138.4940150 147.5507260  49.7527150 137.7691330 146.8855330  50.9033420
 141.5745000 152.6500420  54.2906290 141.1988600 151.8828350  53.8587580
 140.8448120 153.0323120  54.7781220 126.1640760 153.3287560  60.9115340
 126.5313800 153.2414960  61.7911360 125.5951580 152.5654110  60.8122200
 140.9644620 151.7971940  63.9245810 140.7330710 151.5684690  63.0243760
 141.2249170 152.7171490  63.8790700 125.7156760 150.2396650  64.8173760
 124.8212810 150.2063410  65.1567470 126.2554310 150.4383440  65.5825010
 139.4032690 147.0228370  66.7025510 140.2802870 147.0311770  67.0859510
 139.4153530 146.2859210  66.0917860 124.3402910 150.1533920  52.3137330
 123.4366990 150.4164120  52.1388990 124.8243530 150.4245090  51.5337290
 140.8495960 150.8757910  57.5913530 141.3733440 150.3820560  56.9603700
 141.4355380 151.0108270  58.3361100 141.0285680 150.9597780  61.1133080
 140.0788390 150.9261320  61.2278070 141.2098690 151.8697890  60.8782850
 126.8830120 149.2099460  50.2231710 127.5921820 148.7882680  49.7378990
 126.1670060 149.2774690  49.5915060 126.5304280 145.2638790  49.2634360
 127.2532410 145.8047730  49.5815580 126.8028800 144.9902210  48.3875900
 140.3395930 150.1331260  53.5305940 140.8355050 149.9002130  54.3154820
 140.1412000 149.2943100  53.1143580 126.2196470 144.5144980  59.1656980
 126.8672660 143.9642360  58.7252140 126.6398310 144.7688130  59.9872790
 141.7683090 148.7692210  56.0643620 141.6582370 148.6148250  57.0025890
 142.5290680 148.2413150  55.8219030 140.1148810 144.7086340  62.5226620
 140.7521030 145.3220480  62.8885810 140.2623700 144.7447000  61.5775850
 142.6573360 146.6000130  49.3049760 143.5822670 146.4681310  49.0968050
 142.6349150 146.6792950  50.2586210 142.7311850 147.3710790  51.9306470
 141.9363350 147.3055910  52.4599380 142.9355130 148.3061430  51.9191820
 125.9728470 144.6700650  61.9082300 125.6243290 145.1264470  62.6740480
 125.6416170 143.7757780  61.9904730 133.4853290 145.8612530  65.4301720
 133.4242180 146.4534360  66.1797130 134.4253670 145.7538490  65.2851980
 136.1227850 145.5182590  65.0694010 136.7368260 145.8361880  64.4075090
 136.6677410 145.0331180  65.6889870 126.6449110 144.1976850  65.1833070
 127.1932100 144.0164900  64.4199180 126.7104420 143.4070960  65.7189380
 136.8635890 144.0814730  61.3963300 135.9895730 144.4149840  61.1936230
 136.7546640 143.6087910  62.2215170 137.7707870 146.2885600  62.7805020
 137.4421230 145.4737360  62.4006750 138.7190170 146.2455410  62.6570710
 134.6110710 144.9984570  60.3356210 133.8282500 145.4730070  60.6152970
 134.3173640 144.0939400  60.2269390 139.1631780 145.7007670  58.3805300
 139.6039870 145.6452770  57.5326900 138.8939370 146.6165680  58.4515480
 141.0270350 145.3322910  56.3914120 140.9658750 144.3884130  56.2445140
 141.8062380 145.4403000  56.9367580 125.9551120 145.3032050  52.8569930
 126.7130480 145.4160930  52.2833960 125.4928290 146.1401250  52.8113360
 132.4964930 147.4171320  55.8472240 131.6839440 147.0428210  55.5068120
 133.0006570 146.6616400  56.1493430 136.9989910 144.0813770  57.0855310
 137.6019280 144.6533980  57.5603830 136.2582900 144.6453210  56.8629210
 140.1424510 144.4835330  52.3595590 140.3375140 145.3818780  52.6263020
 139.3554380 144.2522410  52.8528540 128.3276270 145.8296100  51.3971900
 128.8569030 145.0425900  51.2679850 128.9604590 146.5087290  51.6307430
 130.5214110 145.5671240  54.4517290 129.8916850 144.8658550  54.6187420
 129.9819250 146.3275370  54.2350450 130.6469670 144.8455220  66.8869780
 130.3653940 145.3488820  66.1230600 131.0289370 144.0476970  66.5211910
 137.2485130 144.2608800  67.4650250 137.1350580 144.5803410  68.3601770
 138.0654870 144.6621310  67.1687530 136.1543280 152.2801270  37.8284990
 136.0737330 151.3655880  37.5576700 135.7407700 152.7768340  37.1224700
 134.2861320 154.0580290  39.7094260 133.5103420 153.5780730  39.9992830
 134.9374250 153.3785940  39.5350420 126.7119100 149.3301990  34.3712410
 125.8235800 149.6717960  34.2692290 126.9960290 149.1302310  33.4793240
 124.6752110 151.9307640  40.2552110 125.2468220 151.1629840  40.2555750
 124.6753650 152.2296400  39.3458720 125.9176980 147.3392000  42.0421040
 125.7379820 146.4417750  42.3223800 125.5157060 147.8863870  42.7167990
 134.7575480 149.5407860  39.9433350 135.1340300 148.6679740  39.8307020
 134.6594990 149.8766560  39.0523790 128.8880490 147.9133490  35.4050790
 128.9947240 148.8137220  35.7119550 127.9772850 147.8651460  35.1145440
 138.5399600 147.0358300  36.8761690 139.3609220 146.5454870  36.9187170
 138.5733680 147.6255960  37.6293530 126.5363650 149.8352500  40.6503380
 127.2173760 150.0990870  41.2690780 126.2211700 148.9953370  40.9841390
 130.7288220 150.8819860  39.7375970 131.2366440 151.3800830  40.3780990
 131.2601460 150.1055060  39.5615330 142.8299150 149.0525050  43.4405320
 142.1251320 149.4406760  42.9220430 143.0957070 149.7475340  44.0426250
 129.0124320 145.5218420  44.0039390 129.0142760 146.0390810  43.1985290
 128.1828630 145.0448600  43.9809320 138.7761080 148.9758680  39.6489230
 138.0716650 149.2643570  40.2292340 139.1373240 149.7858790  39.2888790
 128.6939650 147.2328380  42.0109840 129.0356460 148.0770430  41.7163710
 127.7555460 147.3812120  42.1275180 141.8448000 148.4213470  40.0398440
 140.8972910 148.4552450  40.1713870 142.1697990 149.2352420  40.4247800
 132.3767540 144.7210650  38.3354430 132.6842520 144.1657540  37.6189930
 131.4468240 144.8555110  38.1527420 134.7648300 152.7859480  35.0714550
 133.8377580 152.7196860  35.3003020 134.9173120 153.7239610  34.9569790
 134.7517380 149.0576480  32.0681710 133.8121050 149.2190440  32.1534170
 135.0700640 149.7762160  31.5217700 138.2372150 150.5264320  42.9915610
 137.8243330 151.3518030  43.2455600 137.5048100 149.9409360  42.7991970
 130.3704940 153.3124220  37.8534280 129.9661940 152.6001470  37.3580180
 130.4568060 152.9677460  38.7422320 129.0833560 150.0867430  41.6333320
 129.6348150 150.1962770  40.8586570 129.5977070 150.4605030  42.3488550
 136.9710290 153.5866590  32.5822550 137.4103570 152.7489020  32.4360370
 137.6838710 154.2195990  32.6686690 140.5527430 144.8409400  30.8963590
 140.2400090 144.9336230  31.7962660 141.3139900 145.4190430  30.8461020
 127.0709570 152.2069200  35.3540930 126.9507170 152.9331290  34.7422200
 126.7610460 151.4372110  34.8768840 141.7628720 149.5780900  46.8737730
 141.1472990 150.0860570  46.3453190 141.4425140 148.6779230  46.8163670
 129.5373230 145.5504270  38.7364600 129.0941380 146.3313810  38.4049120
 130.0958220 145.8734160  39.4435540 133.8243040 148.4172790  44.3399920
 133.3622410 148.6255810  45.1519860 133.4221150 147.6032140  44.0370590
 138.8247550 149.6381740  45.4696580 137.9741140 149.3387490  45.7905650
 138.6649340 149.8823750  44.5580400 135.9197260 151.1383490  47.5695370
 136.2450670 150.3047240  47.2297600 136.7077590 151.6612010  47.7173700
 132.6532050 145.1714970  33.6170430 132.0286230 145.1674840  34.3423740
 132.5662170 144.3045930  33.2206400 131.5749130 146.0951600  40.5954200
 131.8721460 147.0014430  40.5146220 132.1234690 145.6070380  39.9813770
 129.3287450 150.6737840  36.4645850 129.1028370 150.4575010  37.3692470
 128.5479980 151.1066300  36.1191820 136.5585210 150.6801210  35.0636500
 135.9594100 151.4037010  34.8800120 137.1064820 150.6177990  34.2812950
 131.7686660 151.5723420  47.1306120 131.6730260 150.6318150  46.9806520
 132.6118640 151.7938490  46.7354190 135.1650080 149.3164750  37.0939780
 135.5579650 149.6336950  36.2808470 135.5266930 148.4376630  37.2084300
 126.8997200 147.9837090  45.2839900 126.5060590 148.8312300  45.4912680
 126.2115600 147.3463460  45.4748540 133.4742250 148.0672060  48.3536640
 132.7840570 147.8744260  48.9882730 134.2174550 148.3506700  48.8860940
 124.2014250 145.9065550  39.3169980 123.9127300 146.4768410  40.0294960
 124.9460010 145.4270000  39.6801210 124.3884480 149.8485670  30.5272700
 124.3059150 150.7916430  30.6687690 124.0367540 149.7060580  29.6485050
 135.7505220 151.9070500  41.1890560 135.0186340 152.4157310  41.5380660
 135.3529560 151.0900480  40.8879340 132.1882610 148.5824700  39.5943050
 132.1918670 148.1414650  38.7447590 133.0833730 148.9042030  39.7014870
 128.0384990 148.4651190  38.5537260 127.6985040 148.9426420  39.3104310
 127.2762310 148.0116310  38.1938360 132.2502760 149.5836780  32.5849810
 132.3715580 149.5423260  33.5335630 131.8651270 150.4460930  32.4296540
 136.2131130 147.3604180  40.6013500 136.2303870 147.8112830  41.4455350
 135.9646710 146.4609820  40.8146940 131.2624260 151.8937920  31.9833110
 130.6941160 151.4456170  31.3569020 131.9713260 152.2530700  31.4498260
 139.6401880 144.7736360  46.4399880 139.9647650 144.0426020  46.9657860
 139.6758390 144.4550000  45.5380870 132.4890580 152.6426480  41.3408460
 132.8560710 152.1685050  42.0869800 132.2995640 153.5168050  41.6816800
 125.3531070 147.3870170  37.4701930 125.0677990 147.0225840  38.3080550
 125.2909930 146.6550630  36.8565070 130.2789950 151.6835120  43.6592670
 129.9747020 152.5627100  43.8843030 131.2336410 151.7434910  43.6950110
 135.0269660 146.2799430  34.1915300 134.2134270 145.7812600  34.1160610
 134.8331610 147.1197680  33.7751650 137.7418050 150.6519080  32.4877460
 138.6297670 150.9636310  32.3128800 137.7123140 149.7791330  32.0958040
 126.3353680 152.5237860  44.8064030 125.9768620 153.1891710  45.3937370
 126.0408240 151.6921410  45.1776650 129.5366800 152.9822100  47.6903580
 129.2366940 153.1279280  46.7931400 130.3078040 152.4227390  47.5976970
 140.0132320 151.9630920  31.9557320 139.9296040 152.3945140  31.1053760
 140.7326510 152.4229270  32.3884140 124.8461730 152.5229120  31.4298630
 125.7156580 152.8053920  31.7134550 124.3552050 153.3364990  31.3147440
 127.9108320 144.2539980  36.0229430 127.7822950 144.2457880  36.9714350
 127.0870340 144.5923070  35.6720440 124.9102250 146.0131100  45.4836130
 124.1960770 146.2128020  46.0888740 125.3297290 145.2370670  45.8550930
 136.4041030 148.5053410  43.2337580 136.7721850 147.6848620  43.5617150
 135.5439230 148.5655300  43.6493230 139.7703060 147.4610350  34.0425140
 139.1416220 147.5656020  33.3283370 139.2754980 147.6807130  34.8319020
 131.7387090 149.7396300  35.4583020 131.0303240 150.2082640  35.8996630
 132.0231570 149.0818310  36.0928210 133.3643020 151.1593000  43.4575550
 133.8628270 151.6338820  44.1227400 133.5065970 150.2356520  43.6645580
 135.7702520 146.4646960  36.8978810 135.6470300 146.4833090  35.9488320
 136.7187080 146.5125900  37.0177210 129.9422110 148.0481380  32.8333730
 130.7912640 148.4851530  32.7673920 129.5753380 148.3601640  33.6605790
 140.5709880 147.3760960  44.3003940 140.0683480 148.1166360  44.6397750
 141.3866540 147.7644960  43.9840730 138.8631890 152.6194140  37.7465300
 137.9222030 152.6344370  37.9212990 139.1775960 151.8330100  38.1925600
 128.8413530 154.3013740  31.3069260 129.6076800 154.1895100  31.8694690
 128.9188220 153.6051710  30.6546030 127.5360290 151.7338810  31.9902150
 127.6163880 150.7866320  32.1019550 128.4280040 152.0645690  32.0962810
 125.0631090 153.5553730  47.2258320 125.5670110 152.9761010  47.7974550
 124.3238510 153.8393960  47.7634690 127.0954170 151.6983320  48.1208390
 127.1359510 151.3997190  49.0293620 127.9499670 152.0990930  47.9615910
 130.8732560 154.2978870  33.2811900 131.2948980 154.1318740  34.1243290
 130.9983400 153.4879100  32.7867040 129.0359980 150.2775420  46.0882880
 128.5056440 149.7866370  45.4606220 129.7048050 150.7059620  45.5540810
 133.3860200 153.3216480  30.5289000 133.9065860 152.6065500  30.1630150
 134.0328600 153.9602350  30.8289510 138.4060210 152.0841040  47.8563220
 138.9880980 151.3293360  47.7683700 138.5821980 152.6148480  47.0794700
 129.5232280 147.2437790  46.1680170 129.4289150 146.6258540  45.4431040
 128.9429670 147.9704080  45.9410080 132.2893720 145.8011030  43.2007560
 131.8411020 145.8235290  42.3553110 131.6558920 145.4030050  43.7977860
 135.0317170 152.4281540  45.2057840 135.1513380 151.8322680  45.9452680
 135.8911170 152.4651230  44.7859140 137.3705070 152.9818730  43.7820350
 136.8440290 153.5061350  43.1785490 137.7136410 153.6146120  44.4130080
 129.7691460 150.3712100  30.2270060 129.5680520 149.5079460  30.5883400
 129.5983510 150.2845460  29.2891660 131.7985940 148.9702890  46.4633660
 132.3885630 148.6618740  47.1511480 130.9806180 148.4982640  46.6193560
 136.6179370 148.5868700  46.6966680 135.9294890 147.9250240  46.6316670
 137.3385390 148.1406970  47.1415140 137.2479770 145.1820330  32.7556940
 137.5282060 144.3388230  33.1116360 136.4745500 145.4143440  33.2695690
 128.5674260 147.4712720  30.2147940 128.8700160 147.4780150  29.3067090
 129.3068850 147.1210580  30.7115600 131.7859190 146.4147340  31.2004140
 131.4381190 145.7371330  30.6206590 131.9871960 145.9536850  32.0147530
 125.1264830 152.9434990  37.5968510 124.4713670 152.6746630  36.9528210
 125.9642780 152.8339470  37.1470490 138.0755270 147.7376280  31.8187000
 138.4940150 147.5507260  30.9783660 137.7691330 146.8855330  32.1289930
 141.5745000 152.6500420  35.5162800 141.1988600 151.8828350  35.0844090
 140.8448120 153.0323120  36.0037730 126.1640760 153.3287560  42.1371850
 126.5313800 153.2414960  43.0167870 125.5951580 152.5654110  42.0378710
 140.9644620 151.7971940  45.1502320 140.7330710 151.5684690  44.2500270
 141.2249170 152.7171490  45.1047210 125.7156760 150.2396650  46.0430270
 124.8212810 150.2063410  46.3823980 126.2554310 150.4383440  46.8081520
 139.4032690 147.0228370  47.9282020 140.2802870 147.0311770  48.3116020
 139.4153530 146.2859210  47.3174370 124.3402910 150.1533920  33.5393840
 123.4366990 150.4164120  33.3645500 124.8243530 150.4245090  32.7593800
 140.8495960 150.8757910  38.8170040 141.3733440 150.3820560  38.1860210
 141.4355380 151.0108270  39.5617610 141.0285680 150.9597780  42.3389590
 140.0788390 150.9261320  42.4534580 141.2098690 151.8697890  42.1039360
 126.8830120 149.2099460  31.4488220 127.5921820 148.7882680  30.9635500
 126.1670060 149.2774690  30.8171570 126.5304280 145.2638790  30.4890870
 127.2532410 145.8047730  30.8072090 126.8028800 144.9902210  29.6132410
 140.3395930 150.1331260  34.7562450 140.8355050 149.9002130  35.5411330
 140.1412000 149.2943100  34.3400090 126.2196470 144.5144980  40.3913490
 126.8672660 143.9642360  39.9508650 126.6398310 144.7688130  41.2129300
 141.7683090 148.7692210  37.2900130 141.6582370 148.6148250  38.2282400
 142.5290680 148.2413150  37.0475540 140.1148810 144.7086340  43.7483130
 140.7521030 145.3220480  44.1142320 140.2623700 144.7447000  42.8032360
 142.6573360 146.6000130  30.5306270 143.5822670 146.4681310  30.3224560
 142.6349150 146.6792950  31.4842720 142.7311850 147.3710790  33.1562980
 141.9363350 147.3055910  33.6855890 142.9355130 148.3061430  33.1448330
 125.9728470 144.6700650  43.1338810 125.6243290 145.1264470  43.8996990
 125.6416170 143.7757780  43.2161240 133.4853290 145.8612530  46.6558230
 133.4242180 146.4534360  47.4053640 134.4253670 145.7538490  46.5108490
 136.1227850 145.5182590  46.2950520 136.7368260 145.8361880  45.6331600
 136.6677410 145.0331180  46.9146380 126.6449110 144.1976850  46.4089580
 127.1932100 144.0164900  45.6455690 126.7104420 143.4070960  46.9445890
 136.8635890 144.0814730  42.6219810 135.9895730 144.4149840  42.4192740
 136.7546640 143.6087910  43.4471680 137.7707870 146.2885600  44.0061530
 137.4421230 145.4737360  43.6263260 138.7190170 146.2455410  43.8827220
 134.6110710 144.9984570  41.5612720 133.8282500 145.4730070  41.8409480
 134.3173640 144.0939400  41.4525900 139.1631780 145.7007670  39.6061810
 139.6039870 145.6452770  38.7583410 138.8939370 146.6165680  39.6771990
 141.0270350 145.3322910  37.6170630 140.9658750 144.3884130  37.4701650
 141.8062380 145.4403000  38.1624090 125.9551120 145.3032050  34.0826440
 126.7130480 145.4160930  33.5090470 125.4928290 146.1401250  34.0369870
 132.4964930 147.4171320  37.0728750 131.6839440 147.0428210  36.7324630
 133.0006570 146.6616400  37.3749940 136.9989910 144.0813770  38.3111820
 137.6019280 144.6533980  38.7860340 136.2582900 144.6453210  38.0885720
 140.1424510 144.4835330  33.5852100 140.3375140 145.3818780  33.8519530
 139.3554380 144.2522410  34.0785050 128.3276270 145.8296100  32.6228410
 128.8569030 145.0425900  32.4936360 128.9604590 146.5087290  32.8563940
 130.5214110 145.5671240  35.6773800 129.8916850 144.8658550  35.8443930
 129.9819250 146.3275370  35.4606960 130.6469670 144.8455220  48.1126290
 130.3653940 145.3488820  47.3487110 131.0289370 144.0476970  47.7468420
 137.2485130 144.2608800  48.6906760 137.1350580 144.5803410  49.5858280
 138.0654870 144.6621310  48.3944040 136.1543280 152.2801270  19.0541500
 136.0737330 151.3655880  18.7833210 135.7407700 152.7768340  18.3481210
 134.2861320 154.0580290  20.9350770 133.5103420 153.5780730  21.2249340
 134.9374250 153.3785940  20.7606930 126.7119100 149.3301990  15.5968920
 125.8235800 149.6717960  15.4948800 126.9960290 149.1302310  14.7049750
 124.6752110 151.9307640  21.4808620 125.2468220 151.1629840  21.4812260
 124.6753650 152.2296400  20.5715230 125.9176980 147.3392000  23.2677550
 125.7379820 146.4417750  23.5480310 125.5157060 147.8863870  23.9424500
 134.7575480 149.5407860  21.1689860 135.1340300 148.6679740  21.0563530
 134.6594990 149.8766560  20.2780300 128.8880490 147.9133490  16.6307300
 128.9947240 148.8137220  16.9376060 127.9772850 147.8651460  16.3401950
 138.5399600 147.0358300  18.1018200 139.3609220 146.5454870  18.1443680
 138.5733680 147.6255960  18.8550040 126.5363650 149.8352500  21.8759890
 127.2173760 150.0990870  22.4947290 126.2211700 148.9953370  22.2097900
 130.7288220 150.8819860  20.9632480 131.2366440 151.3800830  21.6037500
 131.2601460 150.1055060  20.7871840 142.8299150 149.0525050  24.6661830
 142.1251320 149.4406760  24.1476940 143.0957070 149.7475340  25.2682760
 129.0124320 145.5218420  25.2295900 129.0142760 146.0390810  24.4241800
 128.1828630 145.0448600  25.2065830 138.7761080 148.9758680  20.8745740
 138.0716650 149.2643570  21.4548850 139.1373240 149.7858790  20.5145300
 128.6939650 147.2328380  23.2366350 129.0356460 148.0770430  22.9420220
 127.7555460 147.3812120  23.3531690 141.8448000 148.4213470  21.2654950
 140.8972910 148.4552450  21.3970380 142.1697990 149.2352420  21.6504310
 132.3767540 144.7210650  19.5610940 132.6842520 144.1657540  18.8446440
 131.4468240 144.8555110  19.3783930 134.7648300 152.7859480  16.2971060
 133.8377580 152.7196860  16.5259530 134.9173120 153.7239610  16.1826300
 134.7517380 149.0576480  13.2938220 133.8121050 149.2190440  13.3790680
 135.0700640 149.7762160  12.7474210 138.2372150 150.5264320  24.2172120
 137.8243330 151.3518030  24.4712110 137.5048100 149.9409360  24.0248480
 130.3704940 153.3124220  19.0790790 129.9661940 152.6001470  18.5836690
 130.4568060 152.9677460  19.9678830 129.0833560 150.0867430  22.8589830
 129.6348150 150.1962770  22.0843080 129.5977070 150.4605030  23.5745060
 136.9710290 153.5866590  13.8079060 137.4103570 152.7489020  13.6616880
 137.6838710 154.2195990  13.8943200 140.5527430 144.8409400  12.1220100
 140.2400090 144.9336230  13.0219170 141.3139900 145.4190430  12.0717530
 127.0709570 152.2069200  16.5797440 126.9507170 152.9331290  15.9678710
 126.7610460 151.4372110  16.1025350 141.7628720 149.5780900  28.0994240
 141.1472990 150.0860570  27.5709700 141.4425140 148.6779230  28.0420180
 129.5373230 145.5504270  19.9621110 129.0941380 146.3313810  19.6305630
 130.0958220 145.8734160  20.6692050 133.8243040 148.4172790  25.5656430
 133.3622410 148.6255810  26.3776370 133.4221150 147.6032140  25.2627100
 138.8247550 149.6381740  26.6953090 137.9741140 149.3387490  27.0162160
 138.6649340 149.8823750  25.7836910 135.9197260 151.1383490  28.7951880
 136.2450670 150.3047240  28.4554110 136.7077590 151.6612010  28.9430210
 132.6532050 145.1714970  14.8426940 132.0286230 145.1674840  15.5680250
 132.5662170 144.3045930  14.4462910 131.5749130 146.0951600  21.8210710
 131.8721460 147.0014430  21.7402730 132.1234690 145.6070380  21.2070280
 129.3287450 150.6737840  17.6902360 129.1028370 150.4575010  18.5948980
 128.5479980 151.1066300  17.3448330 136.5585210 150.6801210  16.2893010
 135.9594100 151.4037010  16.1056630 137.1064820 150.6177990  15.5069460
 131.7686660 151.5723420  28.3562630 131.6730260 150.6318150  28.2063030
 132.6118640 151.7938490  27.9610700 135.1650080 149.3164750  18.3196290
 135.5579650 149.6336950  17.5064980 135.5266930 148.4376630  18.4340810
 126.8997200 147.9837090  26.5096410 126.5060590 148.8312300  26.7169190
 126.2115600 147.3463460  26.7005050 133.4742250 148.0672060  29.5793150
 132.7840570 147.8744260  30.2139240 134.2174550 148.3506700  30.1117450
 124.2014250 145.9065550  20.5426490 123.9127300 146.4768410  21.2551470
 124.9460010 145.4270000  20.9057720 124.3884480 149.8485670  11.7529210
 124.3059150 150.7916430  11.8944200 124.0367540 149.7060580  10.8741560
 135.7505220 151.9070500  22.4147070 135.0186340 152.4157310  22.7637170
 135.3529560 151.0900480  22.1135850 132.1882610 148.5824700  20.8199560
 132.1918670 148.1414650  19.9704100 133.0833730 148.9042030  20.9271380
 128.0384990 148.4651190  19.7793770 127.6985040 148.9426420  20.5360820
 127.2762310 148.0116310  19.4194870 132.2502760 149.5836780  13.8106320
 132.3715580 149.5423260  14.7592140 131.8651270 150.4460930  13.6553050
 136.2131130 147.3604180  21.8270010 136.2303870 147.8112830  22.6711860
 135.9646710 146.4609820  22.0403450 131.2624260 151.8937920  13.2089620
 130.6941160 151.4456170  12.5825530 131.9713260 152.2530700  12.6754770
 139.6401880 144.7736360  27.6656390 139.9647650 144.0426020  28.1914370
 139.6758390 144.4550000  26.7637380 132.4890580 152.6426480  22.5664970
 132.8560710 152.1685050  23.3126310 132.2995640 153.5168050  22.9073310
 125.3531070 147.3870170  18.6958440 125.0677990 147.0225840  19.5337060
 125.2909930 146.6550630  18.0821580 130.2789950 151.6835120  24.8849180
 129.9747020 152.5627100  25.1099540 131.2336410 151.7434910  24.9206620
 135.0269660 146.2799430  15.4171810 134.2134270 145.7812600  15.3417120
 134.8331610 147.1197680  15.0008160 137.7418050 150.6519080  13.7133970
 138.6297670 150.9636310  13.5385310 137.7123140 149.7791330  13.3214550
 126.3353680 152.5237860  26.0320540 125.9768620 153.1891710  26.6193880
 126.0408240 151.6921410  26.4033160 129.5366800 152.9822100  28.9160090
 129.2366940 153.1279280  28.0187910 130.3078040 152.4227390  28.8233480
 140.0132320 151.9630920  13.1813830 139.9296040 152.3945140  12.3310270
 140.7326510 152.4229270  13.6140650 124.8461730 152.5229120  12.6555140
 125.7156580 152.8053920  12.9391060 124.3552050 153.3364990  12.5403950
 127.9108320 144.2539980  17.2485940 127.7822950 144.2457880  18.1970860
 127.0870340 144.5923070  16.8976950 124.9102250 146.0131100  26.7092640
 124.1960770 146.2128020  27.3145250 125.3297290 145.2370670  27.0807440
 136.4041030 148.5053410  24.4594090 136.7721850 147.6848620  24.7873660
 135.5439230 148.5655300  24.8749740 139.7703060 147.4610350  15.2681650
 139.1416220 147.5656020  14.5539880 139.2754980 147.6807130  16.0575530
 131.7387090 149.7396300  16.6839530 131.0303240 150.2082640  17.1253140
 132.0231570 149.0818310  17.3184720 133.3643020 151.1593000  24.6832060
 133.8628270 151.6338820  25.3483910 133.5065970 150.2356520  24.8902090
 135.7702520 146.4646960  18.1235320 135.6470300 146.4833090  17.1744830
 136.7187080 146.5125900  18.2433720 129.9422110 148.0481380  14.0590240
 130.7912640 148.4851530  13.9930430 129.5753380 148.3601640  14.8862300
 140.5709880 147.3760960  25.5260450 140.0683480 148.1166360  25.8654260
 141.3866540 147.7644960  25.2097240 138.8631890 152.6194140  18.9721810
 137.9222030 152.6344370  19.1469500 139.1775960 151.8330100  19.4182110
 128.8413530 154.3013740  12.5325770 129.6076800 154.1895100  13.0951200
 128.9188220 153.6051710  11.8802540 127.5360290 151.7338810  13.2158660
 127.6163880 150.7866320  13.3276060 128.4280040 152.0645690  13.3219320
 125.0631090 153.5553730  28.4514830 125.5670110 152.9761010  29.0231060
 124.3238510 153.8393960  28.9891200 127.0954170 151.6983320  29.3464900
 127.1359510 151.3997190  30.2550130 127.9499670 152.0990930  29.1872420
 130.8732560 154.2978870  14.5068410 131.2948980 154.1318740  15.3499800
 130.9983400 153.4879100  14.0123550 129.0359980 150.2775420  27.3139390
 128.5056440 149.7866370  26.6862730 129.7048050 150.7059620  26.7797320
 133.3860200 153.3216480  11.7545510 133.9065860 152.6065500  11.3886660
 134.0328600 153.9602350  12.0546020 138.4060210 152.0841040  29.0819730
 138.9880980 151.3293360  28.9940210 138.5821980 152.6148480  28.3051210
 129.5232280 147.2437790  27.3936680 129.4289150 146.6258540  26.6687550
 128.9429670 147.9704080  27.1666590 132.2893720 145.8011030  24.4264070
 131.8411020 145.8235290  23.5809620 131.6558920 145.4030050  25.0234370
 135.0317170 152.4281540  26.4314350 135.1513380 151.8322680  27.1709190
 135.8911170 152.4651230  26.0115650 137.3705070 152.9818730  25.0076860
 136.8440290 153.5061350  24.4042000 137.7136410 153.6146120  25.6386590
 129.7691460 150.3712100  11.4526570 129.5680520 149.5079460  11.8139910
 129.5983510 150.2845460  10.5148170 131.7985940 148.9702890  27.6890170
 132.3885630 148.6618740  28.3767990 130.9806180 148.4982640  27.8450070
 136.6179370 148.5868700  27.9223190 135.9294890 147.9250240  27.8573180
 137.3385390 148.1406970  28.3671650 137.2479770 145.1820330  13.9813450
 137.5282060 144.3388230  14.3372870 136.4745500 145.4143440  14.4952200
 128.5674260 147.4712720  11.4404450 128.8700160 147.4780150  10.5323600
 129.3068850 147.1210580  11.9372110 131.7859190 146.4147340  12.4260650
 131.4381190 145.7371330  11.8463100 131.9871960 145.9536850  13.2404040
 125.1264830 152.9434990  18.8225020 124.4713670 152.6746630  18.1784720
 125.9642780 152.8339470  18.3727000 138.0755270 147.7376280  13.0443510
 138.4940150 147.5507260  12.2040170 137.7691330 146.8855330  13.3546440
 141.5745000 152.6500420  16.7419310 141.1988600 151.8828350  16.3100600
 140.8448120 153.0323120  17.2294240 126.1640760 153.3287560  23.3628360
 126.5313800 153.2414960  24.2424380 125.5951580 152.5654110  23.2635220
 140.9644620 151.7971940  26.3758830 140.7330710 151.5684690  25.4756780
 141.2249170 152.7171490  26.3303720 125.7156760 150.2396650  27.2686780
 124.8212810 150.2063410  27.6080490 126.2554310 150.4383440  28.0338030
 139.4032690 147.0228370  29.1538530 140.2802870 147.0311770  29.5372530
 139.4153530 146.2859210  28.5430880 124.3402910 150.1533920  14.7650350
 123.4366990 150.4164120  14.5902010 124.8243530 150.4245090  13.9850310
 140.8495960 150.8757910  20.0426550 141.3733440 150.3820560  19.4116720
 141.4355380 151.0108270  20.7874120 141.0285680 150.9597780  23.5646100
 140.0788390 150.9261320  23.6791090 141.2098690 151.8697890  23.3295870
 126.8830120 149.2099460  12.6744730 127.5921820 148.7882680  12.1892010
 126.1670060 149.2774690  12.0428080 126.5304280 145.2638790  11.7147380
 127.2532410 145.8047730  12.0328600 126.8028800 144.9902210  10.8388920
 140.3395930 150.1331260  15.9818960 140.8355050 149.9002130  16.7667840
 140.1412000 149.2943100  15.5656600 126.2196470 144.5144980  21.6170000
 126.8672660 143.9642360  21.1765160 126.6398310 144.7688130  22.4385810
 141.7683090 148.7692210  18.5156640 141.6582370 148.6148250  19.4538910
 142.5290680 148.2413150  18.2732050 140.1148810 144.7086340  24.9739640
 140.7521030 145.3220480  25.3398830 140.2623700 144.7447000  24.0288870
 142.6573360 146.6000130  11.7562780 143.5822670 146.4681310  11.5481070
 142.6349150 146.6792950  12.7099230 142.7311850 147.3710790  14.3819490
 141.9363350 147.3055910  14.9112400 142.9355130 148.3061430  14.3704840
 125.9728470 144.6700650  24.3595320 125.6243290 145.1264470  25.1253500
 125.6416170 143.7757780  24.4417750 133.4853290 145.8612530  27.8814740
 133.4242180 146.4534360  28.6310150 134.4253670 145.7538490  27.7365000
 136.1227850 145.5182590  27.5207030 136.7368260 145.8361880  26.8588110
 136.6677410 145.0331180  28.1402890 126.6449110 144.1976850  27.6346090
 127.1932100 144.0164900  26.8712200 126.7104420 143.4070960  28.1702400
 136.8635890 144.0814730  23.8476320 135.9895730 144.4149840  23.6449250
 136.7546640 143.6087910  24.6728190 137.7707870 146.2885600  25.2318040
 137.4421230 145.4737360  24.8519770 138.7190170 146.2455410  25.1083730
 134.6110710 144.9984570  22.7869230 133.8282500 145.4730070  23.0665990
 134.3173640 144.0939400  22.6782410 139.1631780 145.7007670  20.8318320
 139.6039870 145.6452770  19.9839920 138.8939370 146.6165680  20.9028500
 141.0270350 145.3322910  18.8427140 140.9658750 144.3884130  18.6958160
 141.8062380 145.4403000  19.3880600 125.9551120 145.3032050  15.3082950
 126.7130480 145.4160930  14.7346980 125.4928290 146.1401250  15.2626380
 132.4964930 147.4171320  18.2985260 131.6839440 147.0428210  17.9581140
 133.0006570 146.6616400  18.6006450 136.9989910 144.0813770  19.5368330
 137.6019280 144.6533980  20.0116850 136.2582900 144.6453210  19.3142230
 140.1424510 144.4835330  14.8108610 140.3375140 145.3818780  15.0776040
 139.3554380 144.2522410  15.3041560 128.3276270 145.8296100  13.8484920
 128.8569030 145.0425900  13.7192870 128.9604590 146.5087290  14.0820450
 130.5214110 145.5671240  16.9030310 129.8916850 144.8658550  17.0700440
 129.9819250 146.3275370  16.6863470 130.6469670 144.8455220  29.3382800
 130.3653940 145.3488820  28.5743620 131.0289370 144.0476970  28.9724930
 137.2485130 144.2608800  29.9163270 137.1350580 144.5803410  30.8114790
 138.0654870 144.6621310  29.6200550 134.2861320 154.0580290   2.1607280
 133.5103420 153.5780730   2.4505850 134.9374250 153.3785940   1.9863440
 124.6752110 151.9307640   2.7065130 125.2468220 151.1629840   2.7068770
 124.6753650 152.2296400   1.7971740 125.9176980 147.3392000   4.4934060
 125.7379820 146.4417750   4.7736820 125.5157060 147.8863870   5.1681010
 126.5363650 149.8352500   3.1016400 127.2173760 150.0990870   3.7203800
 126.2211700 148.9953370   3.4354410 130.7288220 150.8819860   2.1888990
 131.2366440 151.3800830   2.8294010 131.2601460 150.1055060   2.0128350
 142.8299150 149.0525050   5.8918340 142.1251320 149.4406760   5.3733450
 143.0957070 149.7475340   6.4939270 129.0124320 145.5218420   6.4552410
 129.0142760 146.0390810   5.6498310 128.1828630 145.0448600   6.4322340
 138.7761080 148.9758680   2.1002250 138.0716650 149.2643570   2.6805360
 139.1373240 149.7858790   1.7401810 128.6939650 147.2328380   4.4622860
 129.0356460 148.0770430   4.1676730 127.7555460 147.3812120   4.5788200
 141.8448000 148.4213470   2.4911460 140.8972910 148.4552450   2.6226890
 142.1697990 149.2352420   2.8760820 138.2372150 150.5264320   5.4428630
 137.8243330 151.3518030   5.6968620 137.5048100 149.9409360   5.2504990
 129.0833560 150.0867430   4.0846340 129.6348150 150.1962770   3.3099590
 129.5977070 150.4605030   4.8001570 141.7628720 149.5780900   9.3250750
 141.1472990 150.0860570   8.7966210 141.4425140 148.6779230   9.2676690
 133.8243040 148.4172790   6.7912940 133.3622410 148.6255810   7.6032880
 133.4221150 147.6032140   6.4883610 138.8247550 149.6381740   7.9209600
 137.9741140 149.3387490   8.2418670 138.6649340 149.8823750   7.0093420
 135.9197260 151.1383490  10.0208390 136.2450670 150.3047240   9.6810620
 136.7077590 151.6612010  10.1686720 131.5749130 146.0951600   3.0467220
 131.8721460 147.0014430   2.9659240 132.1234690 145.6070380   2.4326790
 131.7686660 151.5723420   9.5819140 131.6730260 150.6318150   9.4319540
 132.6118640 151.7938490   9.1867210 126.8997200 147.9837090   7.7352920
 126.5060590 148.8312300   7.9425700 126.2115600 147.3463460   7.9261560
 133.4742250 148.0672060  10.8049660 132.7840570 147.8744260  11.4395750
 134.2174550 148.3506700  11.3373960 124.2014250 145.9065550   1.7683000
 123.9127300 146.4768410   2.4807980 124.9460010 145.4270000   2.1314230
 135.7505220 151.9070500   3.6403580 135.0186340 152.4157310   3.9893680
 135.3529560 151.0900480   3.3392360 136.2131130 147.3604180   3.0526520
 136.2303870 147.8112830   3.8968370 135.9646710 146.4609820   3.2659960
 139.6401880 144.7736360   8.8912900 139.9647650 144.0426020   9.4170880
 139.6758390 144.4550000   7.9893890 132.4890580 152.6426480   3.7921480
 132.8560710 152.1685050   4.5382820 132.2995640 153.5168050   4.1329820
 130.2789950 151.6835120   6.1105690 129.9747020 152.5627100   6.3356050
 131.2336410 151.7434910   6.1463130 126.3353680 152.5237860   7.2577050
 125.9768620 153.1891710   7.8450390 126.0408240 151.6921410   7.6289670
 129.5366800 152.9822100  10.1416600 129.2366940 153.1279280   9.2444420
 130.3078040 152.4227390  10.0489990 124.9102250 146.0131100   7.9349150
 124.1960770 146.2128020   8.5401760 125.3297290 145.2370670   8.3063950
 136.4041030 148.5053410   5.6850600 136.7721850 147.6848620   6.0130170
 135.5439230 148.5655300   6.1006250 133.3643020 151.1593000   5.9088570
 133.8628270 151.6338820   6.5740420 133.5065970 150.2356520   6.1158600
 140.5709880 147.3760960   6.7516960 140.0683480 148.1166360   7.0910770
 141.3866540 147.7644960   6.4353750 125.0631090 153.5553730   9.6771340
 125.5670110 152.9761010  10.2487570 124.3238510 153.8393960  10.2147710
 127.0954170 151.6983320  10.5721410 127.1359510 151.3997190  11.4806640
 127.9499670 152.0990930  10.4128930 129.0359980 150.2775420   8.5395900
 128.5056440 149.7866370   7.9119240 129.7048050 150.7059620   8.0053830
 138.4060210 152.0841040  10.3076240 138.9880980 151.3293360  10.2196720
 138.5821980 152.6148480   9.5307720 129.5232280 147.2437790   8.6193190
 129.4289150 146.6258540   7.8944060 128.9429670 147.9704080   8.3923100
 132.2893720 145.8011030   5.6520580 131.8411020 145.8235290   4.8066130
 131.6558920 145.4030050   6.2490880 135.0317170 152.4281540   7.6570860
 135.1513380 151.8322680   8.3965700 135.8911170 152.4651230   7.2372160
 137.3705070 152.9818730   6.2333370 136.8440290 153.5061350   5.6298510
 137.7136410 153.6146120   6.8643100 131.7985940 148.9702890   8.9146680
 132.3885630 148.6618740   9.6024500 130.9806180 148.4982640   9.0706580
 136.6179370 148.5868700   9.1479700 135.9294890 147.9250240   9.0829690
 137.3385390 148.1406970   9.5928160 126.1640760 153.3287560   4.5884870
 126.5313800 153.2414960   5.4680890 125.5951580 152.5654110   4.4891730
 140.9644620 151.7971940   7.6015340 140.7330710 151.5684690   6.7013290
 141.2249170 152.7171490   7.5560230 125.7156760 150.2396650   8.4943290
 124.8212810 150.2063410   8.8337000 126.2554310 150.4383440   9.2594540
 139.4032690 147.0228370  10.3795040 140.2802870 147.0311770  10.7629040
 139.4153530 146.2859210   9.7687390 141.0285680 150.9597780   4.7902610
 140.0788390 150.9261320   4.9047600 141.2098690 151.8697890   4.5552380
 126.2196470 144.5144980   2.8426510 126.8672660 143.9642360   2.4021670
 126.6398310 144.7688130   3.6642320 140.1148810 144.7086340   6.1996150
 140.7521030 145.3220480   6.5655340 140.2623700 144.7447000   5.2545380
 125.9728470 144.6700650   5.5851830 125.6243290 145.1264470   6.3510010
 125.6416170 143.7757780   5.6674260 133.4853290 145.8612530   9.1071250
 133.4242180 146.4534360   9.8566660 134.4253670 145.7538490   8.9621510
 136.1227850 145.5182590   8.7463540 136.7368260 145.8361880   8.0844620
 136.6677410 145.0331180   9.3659400 126.6449110 144.1976850   8.8602600
 127.1932100 144.0164900   8.0968710 126.7104420 143.4070960   9.3958910
 136.8635890 144.0814730   5.0732830 135.9895730 144.4149840   4.8705760
 136.7546640 143.6087910   5.8984700 137.7707870 146.2885600   6.4574550
 137.4421230 145.4737360   6.0776280 138.7190170 146.2455410   6.3340240
 134.6110710 144.9984570   4.0125740 133.8282500 145.4730070   4.2922500
 134.3173640 144.0939400   3.9038920 130.6469670 144.8455220  10.5639310
 130.3653940 145.3488820   9.8000130 131.0289370 144.0476970  10.1981440
 137.2485130 144.2608800  11.1419780 137.1350580 144.5803410  12.0371300
 138.0654870 144.6621310  10.8457060 136.1543280 133.5057780 150.4745930
 136.0737330 132.5912390 150.2037640 135.7407700 134.0024850 149.7685640
 138.3068750 139.6896990 151.1354330 137.8450280 138.9184230 151.4641500
 139.1194300 139.7163060 151.6406780 126.7119100 130.5558500 147.0173350
 125.8235800 130.8974470 146.9153230 126.9960290 130.3558820 146.1254180
 134.5332060 141.9755000 150.7558320 133.9143500 142.4312500 150.1852760
 135.3883840 142.1306460 150.3548020 128.8880490 129.1390000 148.0511730
 128.9947240 130.0393730 148.3580490 127.9772850 129.0907970 147.7606380
 138.5399600 128.2614810 149.5222630 139.3609220 127.7711380 149.5648110
 138.5733680 128.8512470 150.2754470 135.3995410 136.8594240 148.1490230
 134.7812680 137.3243690 147.5852950 135.9118660 137.5521720 148.5659740
 124.7678610 137.5450770 145.5229860 124.3906590 138.0337870 144.7914760
 125.0251680 138.2176050 146.1536390 132.3767540 125.9467160 150.9815370
 132.6842520 125.3914050 150.2650870 131.4468240 126.0811620 150.7988360
 139.2228020 138.3850670 148.3613000 139.1124350 137.4425000 148.4862420
 139.2196270 138.7466310 149.2475760 134.7648300 134.0115990 147.7175490
 133.8377580 133.9453370 147.9463960 134.9173120 134.9496120 147.6030730
 134.7517380 130.2832990 144.7142650 133.8121050 130.4446950 144.7995110
 135.0700640 131.0018670 144.1678640 138.7945590 135.5736290 148.2210740
 138.1758010 135.2355840 147.5737040 138.7770040 134.9296050 148.9289930
 130.3704940 134.5380730 150.4995220 129.9661940 133.8257980 150.0041120
 130.4568060 134.1933970 151.3883260 136.9710290 134.8123100 145.2283490
 137.4103570 133.9745530 145.0821310 137.6838710 135.4452500 145.3147630
 135.0805670 139.7519170 149.1964730 135.5201580 140.4943500 148.7820120
 135.0192560 139.9945740 150.1203690 140.5527430 126.0665910 143.5424530
 140.2400090 126.1592740 144.4423600 141.3139900 126.6446940 143.4921960
 127.0709570 133.4325710 148.0001870 126.9507170 134.1587800 147.3883140
 126.7610460 132.6628620 147.5229780 125.9542570 138.3041040 150.2176690
 125.5470650 138.4455630 149.3630290 126.8455580 138.0201200 150.0147900
 137.7475850 142.7388290 146.5527740 137.5876990 142.4491230 147.4509570
 137.5822560 141.9628420 146.0172970 130.2264230 142.5186820 148.3299360
 130.0506710 141.6022360 148.1167160 129.3719970 142.8774110 148.5697160
 137.4501980 140.2475850 145.1125740 136.7567140 140.2453140 144.4528020
 138.1924840 139.8235170 144.6819910 137.0151910 141.8738560 149.1874230
 137.4708860 141.0927940 149.5012850 137.3544430 142.5845380 149.7315410
 129.5373230 126.7760780 151.3825540 129.0941380 127.5570320 151.0510060
 130.0958220 127.0990670 152.0896480 132.6532050 126.3971480 146.2631370
 132.0286230 126.3931350 146.9884680 132.5662170 125.5302440 145.8667340
 129.3287450 131.8994350 149.1106790 129.1028370 131.6831520 150.0153410
 128.5479980 132.3322810 148.7652760 136.5585210 131.9057720 147.7097440
 135.9594100 132.6293520 147.5261060 137.1064820 131.8434500 146.9273890
 135.1650080 130.5421260 149.7400720 135.5579650 130.8593460 148.9269410
 135.5266930 129.6633140 149.8545240 124.3884480 131.0742180 143.1733640
 124.3059150 132.0172940 143.3148630 124.0367540 130.9317090 142.2945990
 132.1882610 129.8081210 152.2403990 132.1918670 129.3671160 151.3908530
 133.0833730 130.1298540 152.3475810 128.0384990 129.6907700 151.1998200
 127.6985040 130.1682930 151.9565250 127.2762310 129.2372820 150.8399300
 132.2502760 130.8093290 145.2310750 132.3715580 130.7679770 146.1796570
 131.8651270 131.6717440 145.0757480 131.2624260 133.1194430 144.6294050
 130.6941160 132.6712680 144.0029960 131.9713260 133.4787210 144.0959200
 125.3531070 128.6126680 150.1162870 125.0677990 128.2482350 150.9541490
 125.2909930 127.8807140 149.5026010 128.8071740 137.1152620 146.9020460
 128.0334000 136.5750240 146.7419180 129.5366370 136.5959230 146.5638220
 135.0269660 127.5055940 146.8376240 134.2134270 127.0069110 146.7621550
 134.8331610 128.3454190 146.4212590 137.7418050 131.8775590 145.1338400
 138.6297670 132.1892820 144.9589740 137.7123140 131.0047840 144.7418980
 128.8509140 136.7833000 150.5399270 129.3687810 135.9801260 150.4856160
 128.3993160 136.7212140 151.3816100 133.7378640 138.0499280 145.8126570
 134.0794340 138.7941510 145.3169890 132.9091350 138.3630400 146.1751400
 140.0132320 133.1887430 144.6018260 139.9296040 133.6201650 143.7514700
 140.7326510 133.6485780 145.0345080 141.0419570 140.0429690 147.3300390
 140.3995730 139.3885310 147.6044110 140.6550230 140.4484780 146.5541060
 136.6206050 137.3715120 151.1772080 136.9729870 136.7743250 150.5173450
 135.7368380 137.0459350 151.3480330 132.7069330 138.1312810 148.5842490
 133.3940460 138.6782020 148.9650080 131.9201750 138.6753540 148.6192100
 124.8461730 133.7485630 144.0759570 125.7156580 134.0310430 144.3595490
 124.3552050 134.5621500 143.9608380 132.0096540 135.1358840 148.1967850
 132.4659320 135.9464090 148.4228040 131.6584750 134.8181980 149.0286340
 127.9108320 125.4796490 148.6690370 127.7822950 125.4714390 149.6175290
 127.0870340 125.8179580 148.3181380 139.4316950 138.9346150 143.8676740
 139.2054530 138.2176590 144.4601380 139.0413150 138.6858590 143.0298490
 125.2132980 142.9613010 144.6421200 125.5730620 143.5602350 143.9878470
 125.0725320 143.5072900 145.4156230 139.0133200 136.8518090 145.5290900
 138.7254900 137.3130780 146.3168780 139.8085370 136.3915860 145.7975120
 131.2301600 140.3444210 145.4594870 131.2211700 141.0773900 144.8439380
 130.3099960 140.0975790 145.5521830 126.8308240 135.5659100 146.2041630
 126.2236190 136.3058000 146.2136930 127.3057590 135.6558460 145.3779830
 139.7703060 128.6866860 146.6886080 139.1416220 128.7912530 145.9744310
 139.2754980 128.9063640 147.4779960 134.2161200 140.4072450 144.1220060
 134.3173180 140.2036440 143.1922040 133.3162940 140.1530730 144.3267840
 131.7387090 130.9652810 148.1043960 131.0303240 131.4339150 148.5457570
 132.0231570 130.3074820 148.7389150 135.7702520 127.6903470 149.5439750
 135.6470300 127.7089600 148.5949260 136.7187080 127.7382410 149.6638150
 132.8579310 142.9258770 148.8167730 133.1120810 142.8880160 147.8947100
 131.9091790 142.7992100 148.8095980 129.9422110 129.2737890 145.4794670
 130.7912640 129.7108040 145.4134860 129.5753380 129.5858150 146.3066730
 138.8631890 133.8450650 150.3926240 137.9222030 133.8600880 150.5673930
 139.1775960 133.0586610 150.8386540 128.8413530 135.5270250 143.9530200
 129.6076800 135.4151610 144.5155630 128.9188220 134.8308220 143.3006970
 127.5360290 132.9595320 144.6363090 127.6163880 132.0122830 144.7480490
 128.4280040 133.2902200 144.7423750 128.3375000 143.1090710 151.7397630
 129.0737480 142.5606170 152.0106200 128.7215920 143.9746720 151.6003620
 125.2220480 139.1764280 147.6139140 124.2960260 139.4185420 147.6044550
 125.6876910 140.0038540 147.4923890 131.4477310 142.2821020 143.5623200
 132.2405920 142.5709850 143.1104990 130.9281660 141.8513190 142.8835680
 140.5007480 141.5091150 144.9859940 140.2148990 141.0956290 144.1714120
 140.3027030 142.4378860 144.8660460 131.9654710 137.5024430 143.4265550
 131.8605350 136.8876780 144.1526930 131.7978930 136.9790320 142.6428560
 135.2057440 136.5644460 144.0307540 134.6567540 137.0113760 144.6750280
 135.8276700 136.0593710 144.5545210 130.8732560 135.5235380 145.9272840
 131.2948980 135.3575250 146.7704230 130.9983400 134.7135610 145.4327980
 133.3860200 134.5472990 143.1749940 133.9065860 133.8322010 142.8091090
 134.0328600 135.1858860 143.4750450 129.7691460 131.5968610 142.8731000
 129.5680520 130.7335970 143.2344340 129.5983510 131.5101970 141.9352600
 137.2479770 126.4076840 145.4017880 137.5282060 125.5644740 145.7577300
 136.4745500 126.6399950 145.9156630 128.5674260 128.6969230 142.8608880
 128.8700160 128.7036660 141.9528030 129.3068850 128.3467090 143.3576540
 131.7859190 127.6403850 143.8465080 131.4381190 126.9627840 143.2667530
 131.9871960 127.1793360 144.6608470 133.9508230 142.6284600 145.4651680
 134.8459020 142.9669570 145.4870440 133.9825860 141.9064010 144.8375960
 127.5904390 138.0011650 143.6938680 128.0279260 138.5441320 144.3496260
 128.0752120 137.1758600 143.7035020 124.8050190 140.7900680 151.1458940
 125.1353200 139.9221740 150.9137580 125.2341190 140.9959200 151.9763900
 129.4012110 139.1209690 148.8060910 129.1007650 138.9974660 149.7064820
 129.2949600 138.2618280 148.3976640 142.1704030 138.9006090 143.5087590
 141.3396990 138.9682740 143.9794820 142.3475860 139.7910210 143.2054450
 141.6260490 135.6453570 146.0121790 142.3879400 136.2150220 146.1181480
 141.6414860 135.0780770 146.7830100 125.1264830 134.1691500 150.2429450
 124.4713670 133.9003140 149.5989150 125.9642780 134.0595980 149.7931430
 142.6320460 136.5003670 150.8563720 143.0029290 135.7170990 150.4499690
 143.2722390 137.1892770 150.6781020 141.6779660 135.9387940 143.1694310
 141.9528500 136.8466820 143.0413530 141.4890400 135.8750470 144.1056300
 138.0755270 128.9632790 144.4647940 138.4940150 128.7763770 143.6244600
 137.7691330 128.1111840 144.7750870 141.5745000 133.8756930 148.1623740
 141.1988600 133.1084860 147.7305030 140.8448120 134.2579630 148.6498670
 124.3402910 131.3790430 146.1854780 123.4366990 131.6420630 146.0106440
 124.8243530 131.6501600 145.4054740 140.8495960 132.1014420 151.4630980
 141.3733440 131.6077070 150.8321150 141.4355380 132.2364780 152.2078550
 126.8830120 130.4355970 144.0949160 127.5921820 130.0139190 143.6096440
 126.1670060 130.5031200 143.4632510 126.5304280 126.4895300 143.1351810
 127.2532410 127.0304240 143.4533030 126.8028800 126.2158720 142.2593350
 140.3395930 131.3587770 147.4023390 140.8355050 131.1258640 148.1872270
 140.1412000 130.5199610 146.9861030 141.7683090 129.9948720 149.9361070
 141.6582370 129.8404760 150.8743340 142.5290680 129.4669660 149.6936480
 142.6573360 127.8256640 143.1767210 143.5822670 127.6937820 142.9685500
 142.6349150 127.9049460 144.1303660 142.7311850 128.5967300 145.8023920
 141.9363350 128.5312420 146.3316830 142.9355130 129.5317940 145.7909270
 139.6730270 142.6358850 149.7962310 140.2689340 142.3143420 149.1196730
 139.9308420 142.1630670 150.5875580 139.1631780 126.9264180 152.2522750
 139.6039870 126.8709280 151.4044350 138.8939370 127.8422190 152.3232930
 141.0270350 126.5579420 150.2631570 140.9658750 125.6140640 150.1162590
 141.8062380 126.6659510 150.8085030 125.3323100 142.6971780 149.2255520
 125.1645140 142.0642460 149.9237410 124.4657610 142.9031180 148.8749710
 125.9551120 126.5288560 146.7287380 126.7130480 126.6417440 146.1551410
 125.4928290 127.3657760 146.6830810 132.4964930 128.6427830 149.7189690
 131.6839440 128.2684720 149.3785570 133.0006570 127.8872910 150.0210880
 136.9989910 125.3070280 150.9572760 137.6019280 125.8790490 151.4321280
 136.2582900 125.8709720 150.7346660 140.1424510 125.7091840 146.2313040
 140.3375140 126.6075290 146.4980470 139.3554380 125.4778920 146.7245990
 126.9385800 141.3905010 146.6705660 126.4133420 141.7713040 145.9667620
 126.8630380 142.0155780 147.3915370 128.3276270 127.0552610 145.2689350
 128.8569030 126.2682410 145.1397300 128.9604590 127.7343800 145.5024880
 130.5214110 126.7927750 148.3234740 129.8916850 126.0915060 148.4904870
 129.9819250 127.5531880 148.1067900 141.6951120 142.9492550 147.9919600
 141.8703310 142.2630290 147.3480520 140.9972690 143.4739600 147.5996270
 129.5378770 143.3387390 145.5454910 130.2697590 143.0546670 144.9978800
 129.7972440 143.1000670 146.4354290 128.6993560 139.4552120 145.5501240
 128.0702440 139.9237220 146.0987070 128.8141390 138.6101340 145.9847430
 136.1543280 133.5057780 131.7002440 136.0737330 132.5912390 131.4294150
 135.7407700 134.0024850 130.9942150 134.2861320 135.2836800 133.5811710
 133.5103420 134.8037240 133.8710280 134.9374250 134.6042450 133.4067870
 128.3027150 135.5956610 134.4587470 127.4712030 135.3405320 134.8583980
 128.9108130 135.6667380 135.1945390 138.3068750 139.6896990 132.3610840
 137.8450280 138.9184230 132.6898010 139.1194300 139.7163060 132.8663290
 128.2828410 139.6296700 134.6545490 128.5856450 138.7394440 134.4755710
 129.0272000 140.1866920 134.4267740 126.7119100 130.5558500 128.2429860
 125.8235800 130.8974470 128.1409740 126.9960290 130.3558820 127.3510690
 124.6752110 133.1564150 134.1269560 125.2468220 132.3886350 134.1273200
 124.6753650 133.4552910 133.2176170 134.5332060 141.9755000 131.9814830
 133.9143500 142.4312500 131.4109270 135.3883840 142.1306460 131.5804530
 133.7270310 137.9593990 133.5881870 133.6578590 137.0183930 133.4271000
 134.4890170 138.0495400 134.1604440 125.9176980 128.5648510 135.9138490
 125.7379820 127.6674260 136.1941250 125.5157060 129.1120380 136.5885440
 134.7575480 130.7664370 133.8150800 135.1340300 129.8936250 133.7024470
 134.6594990 131.1023070 132.9241240 128.8880490 129.1390000 129.2768240
 128.9947240 130.0393730 129.5837000 127.9772850 129.0907970 128.9862890
 138.5399600 128.2614810 130.7479140 139.3609220 127.7711380 130.7904620
 138.5733680 128.8512470 131.5010980 126.5363650 131.0609010 134.5220830
 127.2173760 131.3247380 135.1408230 126.2211700 130.2209880 134.8558840
 130.7288220 132.1076370 133.6093420 131.2366440 132.6057340 134.2498440
 131.2601460 131.3311570 133.4332780 142.8299150 130.2781560 137.3122770
 142.1251320 130.6663270 136.7937880 143.0957070 130.9731850 137.9143700
 129.0124320 126.7474930 137.8756840 129.0142760 127.2647320 137.0702740
 128.1828630 126.2705110 137.8526770 135.3995410 136.8594240 129.3746740
 134.7812680 137.3243690 128.8109460 135.9118660 137.5521720 129.7916250
 130.2627170 136.3870110 136.0530340 129.9296550 137.0139030 136.6951410
 130.4393850 136.9131990 135.2732010 138.7761080 130.2015190 133.5206680
 138.0716650 130.4900080 134.1009790 139.1373240 131.0115300 133.1606240
 128.6939650 128.4584890 135.8827290 129.0356460 129.3026940 135.5881160
 127.7555460 128.6068630 135.9992630 129.4746270 138.3550910 137.8679520
 130.0920270 139.0301990 137.5863970 128.6139390 138.7638890 137.7767020
 124.7678610 137.5450770 126.7486370 124.3906590 138.0337870 126.0171270
 125.0251680 138.2176050 127.3792900 140.3923860 139.8190320 135.7834160
 139.7087380 140.4889430 135.7750830 140.9318150 140.0170970 135.0179020
 141.8448000 129.6469980 133.9115890 140.8972910 129.6808960 134.0431320
 142.1697990 130.4608930 134.2965250 132.3767540 125.9467160 132.2071880
 132.6842520 125.3914050 131.4907380 131.4468240 126.0811620 132.0244870
 137.9282600 141.6634450 134.4979340 137.9409760 141.2596740 133.6301600
 137.3757820 142.4381740 134.3940770 139.2228020 138.3850670 129.5869510
 139.1124350 137.4425000 129.7118930 139.2196270 138.7466310 130.4732270
 137.3268040 136.5664290 135.8261950 137.7436830 136.3524400 134.9915410
 138.0507860 136.8237080 136.3970570 134.7648300 134.0115990 128.9432000
 133.8377580 133.9453370 129.1720470 134.9173120 134.9496120 128.8287240
 134.7517380 130.2832990 125.9399160 133.8121050 130.4446950 126.0251620
 135.0700640 131.0018670 125.3935150 141.2730140 134.9651510 135.9178190
 140.4448770 135.0344600 135.4428320 141.8680620 135.5505820 135.4494020
 138.7945590 135.5736290 129.4467250 138.1758010 135.2355840 128.7993550
 138.7770040 134.9296050 130.1546440 138.2372150 131.7520830 136.8633060
 137.8243330 132.5774540 137.1173050 137.5048100 131.1665870 136.6709420
 130.3704940 134.5380730 131.7251730 129.9661940 133.8257980 131.2297630
 130.4568060 134.1933970 132.6139770 130.8386640 138.2248290 133.8890940
 130.5414930 137.6193760 133.2098720 131.7886460 138.2625600 133.7780300
 129.0833560 131.3123940 135.5050770 129.6348150 131.4219280 134.7304020
 129.5977070 131.6861540 136.2206000 138.9272250 141.7980160 137.5514040
 138.4502810 142.6052350 137.3586650 138.2434040 141.1458490 137.7040250
 129.9305070 137.9629980 140.5398740 129.0333600 138.1869950 140.7872140
 129.9557940 138.0864920 139.5910140 136.9710290 134.8123100 126.4540000
 137.4103570 133.9745530 126.3077820 137.6838710 135.4452500 126.5404140
 128.7576290 134.8343300 139.1156110 128.6184060 135.7066100 139.4843510
 127.8757650 134.4916110 138.9704050 135.0805670 139.7519170 130.4221240
 135.5201580 140.4943500 130.0076630 135.0192560 139.9945740 131.3460200
 130.5556640 140.7765000 141.3241260 130.5272070 141.1807950 140.4569690
 130.3921610 139.8475360 141.1612860 140.5527430 126.0665910 124.7681040
 140.2400090 126.1592740 125.6680110 141.3139900 126.6446940 124.7178470
 127.0709570 133.4325710 129.2258380 126.9507170 134.1587800 128.6139650
 126.7610460 132.6628620 128.7486290 142.5071460 141.5592100 142.6205430
 142.9831180 142.0374990 143.2994510 143.1278620 141.4909590 141.8950930
 124.7094940 136.6040850 135.0327020 124.7875360 136.7389620 134.0882740
 125.3236620 135.8956740 135.2255140 125.9542570 138.3041040 131.4433200
 125.5470650 138.4455630 130.5886800 126.8455580 138.0201200 131.2404410
 141.9104710 138.7504950 139.7805440 142.0367770 138.5116830 138.8622620
 141.9526090 137.9189490 140.2527520 135.7721450 142.4532950 138.3500250
 136.2866120 142.3640960 139.1522680 134.9290530 142.7992650 138.6428160
 137.7475850 142.7388290 127.7784250 137.5876990 142.4491230 128.6766080
 137.5822560 141.9628420 127.2429480 130.2264230 142.5186820 129.5555870
 130.0506710 141.6022360 129.3423670 129.3719970 142.8774110 129.7953670
 137.4501980 140.2475850 126.3382250 136.7567140 140.2453140 125.6784530
 138.1924840 139.8235170 125.9076420 137.0151910 141.8738560 130.4130740
 137.4708860 141.0927940 130.7269360 137.3544430 142.5845380 130.9571920
 141.7628720 130.8037410 140.7455180 141.1472990 131.3117080 140.2170640
 141.4425140 129.9035740 140.6881120 124.7654460 137.6455020 137.5721480
 124.9285500 137.1760380 136.7540850 125.2306910 137.1378580 138.2370320
 129.5373230 126.7760780 132.6082050 129.0941380 127.5570320 132.2766570
 130.0958220 127.0990670 133.3152990 133.8243040 129.6429300 138.2117370
 133.3622410 129.8512320 139.0237310 133.4221150 128.8288650 137.9088040
 138.8247550 130.8638250 139.3414030 137.9741140 130.5644000 139.6623100
 138.6649340 131.1080260 138.4297850 135.9197260 132.3640000 141.4412820
 136.2450670 131.5303750 141.1015050 136.7077590 132.8868520 141.5891150
 132.6532050 126.3971480 127.4887880 132.0286230 126.3931350 128.2141190
 132.5662170 125.5302440 127.0923850 131.5749130 127.3208110 134.4671650
 131.8721460 128.2270940 134.3863670 132.1234690 126.8326890 133.8531220
 129.3287450 131.8994350 130.3363300 129.1028370 131.6831520 131.2409920
 128.5479980 132.3322810 129.9909270 136.5585210 131.9057720 128.9353950
 135.9594100 132.6293520 128.7517570 137.1064820 131.8434500 128.1530400
 131.7686660 132.7979930 141.0023570 131.6730260 131.8574660 140.8523970
 132.6118640 133.0195000 140.6071640 135.1650080 130.5421260 130.9657230
 135.5579650 130.8593460 130.1525920 135.5266930 129.6633140 131.0801750
 126.8997200 129.2093600 139.1557350 126.5060590 130.0568810 139.3630130
 126.2115600 128.5719970 139.3465990 133.4742250 129.2928570 142.2254090
 132.7840570 129.1000770 142.8600180 134.2174550 129.5763210 142.7578390
 124.2014250 127.1322060 133.1887430 123.9127300 127.7024920 133.9012410
 124.9460010 126.6526510 133.5518660 124.3884480 131.0742180 124.3990150
 124.3059150 132.0172940 124.5405140 124.0367540 130.9317090 123.5202500
 135.7505220 133.1327010 135.0608010 135.0186340 133.6413820 135.4098110
 135.3529560 132.3156990 134.7596790 132.1882610 129.8081210 133.4660500
 132.1918670 129.3671160 132.6165040 133.0833730 130.1298540 133.5732320
 128.0384990 129.6907700 132.4254710 127.6985040 130.1682930 133.1821760
 127.2762310 129.2372820 132.0655810 132.2502760 130.8093290 126.4567260
 132.3715580 130.7679770 127.4053080 131.8651270 131.6717440 126.3013990
 136.2131130 128.5860690 134.4730950 136.2303870 129.0369340 135.3172800
 135.9646710 127.6866330 134.6864390 131.2624260 133.1194430 125.8550560
 130.6941160 132.6712680 125.2286470 131.9713260 133.4787210 125.3215710
 139.6401880 125.9992870 140.3117330 139.9647650 125.2682530 140.8375310
 139.6758390 125.6806510 139.4098320 126.3393440 137.0206450 139.7317290
 125.9548230 136.3800120 140.3300250 126.6505630 137.7242570 140.3012020
 132.4890580 133.8682990 135.2125910 132.8560710 133.3941560 135.9587250
 132.2995640 134.7424560 135.5534250 125.3531070 128.6126680 131.3419380
 125.0677990 128.2482350 132.1798000 125.2909930 127.8807140 130.7282520
 130.2789950 132.9091630 137.5310120 129.9747020 133.7883610 137.7560480
 131.2336410 132.9691420 137.5667560 128.8071740 137.1152620 128.1276970
 128.0334000 136.5750240 127.9675690 129.5366370 136.5959230 127.7894730
 139.5659720 136.1117980 133.9203360 140.2858840 136.6073270 133.5299470
 139.3641540 135.4335870 133.2757230 135.0269660 127.5055940 128.0632750
 134.2134270 127.0069110 127.9878060 134.8331610 128.3454190 127.6469100
 134.9478520 136.1827040 139.8072360 134.8815830 135.2622710 139.5529950
 134.3183660 136.2802480 140.5217000 137.7418050 131.8775590 126.3594910
 138.6297670 132.1892820 126.1846250 137.7123140 131.0047840 125.9675490
 128.8509140 136.7833000 131.7655780 129.3687810 135.9801260 131.7112670
 128.3993160 136.7212140 132.6072610 133.7378640 138.0499280 127.0383080
 134.0794340 138.7941510 126.5426400 132.9091350 138.3630400 127.4007910
 126.3353680 133.7494370 138.6781480 125.9768620 134.4148220 139.2654820
 126.0408240 132.9177920 139.0494100 129.5366800 134.2078610 141.5621030
 129.2366940 134.3535790 140.6648850 130.3078040 133.6483900 141.4694420
 134.8795250 139.0047610 139.5576160 134.8939790 138.0728570 139.3395070
 134.1720350 139.0907370 140.1965930 140.0132320 133.1887430 125.8274770
 139.9296040 133.6201650 124.9771210 140.7326510 133.6485780 126.2601590
 141.0906460 135.6454950 138.9044740 140.3654650 136.2383730 138.7074130
 141.6181920 135.6378490 138.1058110 141.0419570 140.0429690 128.5556900
 140.3995730 139.3885310 128.8300620 140.6550230 140.4484780 127.7797570
 136.6206050 137.3715120 132.4028590 136.9729870 136.7743250 131.7429960
 135.7368380 137.0459350 132.5736840 132.7069330 138.1312810 129.8099000
 133.3940460 138.6782020 130.1906590 131.9201750 138.6753540 129.8448610
 124.8461730 133.7485630 125.3016080 125.7156580 134.0310430 125.5852000
 124.3552050 134.5621500 125.1864890 132.0096540 135.1358840 129.4224360
 132.4659320 135.9464090 129.6484550 131.6584750 134.8181980 130.2542850
 134.3129150 140.6465180 136.6516660 134.9571370 140.8524560 137.3290080
 134.6758590 139.8853580 136.1987510 127.9108320 125.4796490 129.8946880
 127.7822950 125.4714390 130.8431800 127.0870340 125.8179580 129.5437890
 135.5861230 138.6497530 135.3694110 136.2283460 137.9490690 135.4826280
 136.1110580 139.4295970 135.1891000 139.4316950 138.9346150 125.0933250
 139.2054530 138.2176590 125.6857890 139.0413150 138.6858590 124.2555000
 137.3598850 139.4492430 138.5730170 137.6955090 140.0359120 139.2508090
 136.4399190 139.3185140 138.8027960 125.2132980 142.9613010 125.8677710
 125.5730620 143.5602350 125.2134980 125.0725320 143.5072900 126.6412740
 124.9102250 127.2387610 139.3553580 124.1960770 127.4384530 139.9606190
 125.3297290 126.4627180 139.7268380 139.0133200 136.8518090 126.7547410
 138.7254900 137.3130780 127.5425290 139.8085370 136.3915860 127.0231630
 125.1974840 141.2267870 140.3420110 125.3065960 140.2862610 140.2015500
 124.5455400 141.4922620 139.6933840 133.1887430 139.4983760 141.7418230
 132.8684300 138.7793000 142.2863920 132.5145790 140.1738830 141.8154290
 131.2301600 140.3444210 126.6851380 131.2211700 141.0773900 126.0695890
 130.3099960 140.0975790 126.7778340 126.8308240 135.5659100 127.4298140
 126.2236190 136.3058000 127.4393440 127.3057590 135.6558460 126.6036340
 136.4041030 129.7309920 137.1055030 136.7721850 128.9105130 137.4334600
 135.5439230 129.7911810 137.5210680 139.7703060 128.6866860 127.9142590
 139.1416220 128.7912530 127.2000820 139.2754980 128.9063640 128.7036470
 134.2161200 140.4072450 125.3476570 134.3173180 140.2036440 124.4178550
 133.3162940 140.1530730 125.5524350 131.7387090 130.9652810 129.3300470
 131.0303240 131.4339150 129.7714080 132.0231570 130.3074820 129.9645660
 133.3643020 132.3849510 137.3293000 133.8628270 132.8595330 137.9944850
 133.5065970 131.4613030 137.5363030 135.7702520 127.6903470 130.7696260
 135.6470300 127.7089600 129.8205770 136.7187080 127.7382410 130.8894660
 132.8579310 142.9258770 130.0424240 133.1120810 142.8880160 129.1203610
 131.9091790 142.7992100 130.0352490 129.9422110 129.2737890 126.7051180
 130.7912640 129.7108040 126.6391370 129.5753380 129.5858150 127.5323240
 140.5709880 128.6017470 138.1721390 140.0683480 129.3422870 138.5115200
 141.3866540 128.9901470 137.8558180 138.8631890 133.8450650 131.6182750
 137.9222030 133.8600880 131.7930440 139.1775960 133.0586610 132.0643050
 128.8413530 135.5270250 125.1786710 129.6076800 135.4151610 125.7412140
 128.9188220 134.8308220 124.5263480 127.5360290 132.9595320 125.8619600
 127.6163880 132.0122830 125.9737000 128.4280040 133.2902200 125.9680260
 140.8657470 141.0159500 133.2937010 140.9904890 141.8390670 133.7660820
 141.7323030 140.8050230 132.9461160 128.3375000 143.1090710 132.9654140
 129.0737480 142.5606170 133.2362710 128.7215920 143.9746720 132.8260130
 125.2220480 139.1764280 128.8395650 124.2960260 139.4185420 128.8301060
 125.6876910 140.0038540 128.7180400 127.3433280 142.2936780 142.1539720
 128.1446010 142.6148830 142.5675120 126.8285100 141.9332360 142.8759630
 131.4477310 142.2821020 124.7879710 132.2405920 142.5709850 124.3361500
 130.9281660 141.8513190 124.1092190 136.1797910 138.4016650 142.1015130
 135.5736070 138.4248250 141.3610880 135.8752020 137.6699690 142.6382380
 137.6098280 142.1296940 140.7124540 138.5620030 142.0454960 140.6624780
 137.4626500 142.7938650 141.3858330 140.5007480 141.5091150 126.2116450
 140.2148990 141.0956290 125.3970630 140.3027030 142.4378860 126.0916970
 125.0631090 134.7810240 141.0975770 125.5670110 134.2017520 141.6692000
 124.3238510 135.0650470 141.6352140 131.9654710 137.5024430 124.6522060
 131.8605350 136.8876780 125.3783440 131.7978930 136.9790320 123.8685070
 132.1169030 136.1881230 140.6311290 131.3514700 136.7566230 140.5465960
 132.2984990 135.8957440 139.7379520 135.2057440 136.5644460 125.2564050
 134.6567540 137.0113760 125.9006790 135.8276700 136.0593710 125.7801720
 139.2592380 137.9186560 141.1886310 140.0001850 138.2562320 140.6853770
 138.4965060 138.0878620 140.6356080 127.0954170 132.9239830 141.9925840
 127.1359510 132.6253700 142.9011070 127.9499670 133.3247440 141.8333360
 130.8732560 135.5235380 127.1529350 131.2948980 135.3575250 127.9960740
 130.9983400 134.7135610 126.6584490 129.0359980 131.5031930 139.9600330
 128.5056440 131.0122880 139.3323670 129.7048050 131.9316130 139.4258260
 133.3860200 134.5472990 124.4006450 133.9065860 133.8322010 124.0347600
 134.0328600 135.1858860 124.7006960 137.9338040 135.9701390 139.7241520
 138.3479060 136.1246470 140.5731940 136.9989040 136.0956610 139.8867300
 138.4060210 133.3097550 141.7280670 138.9880980 132.5549870 141.6401150
 138.5821980 133.8404990 140.9512150 129.5232280 128.4694300 140.0397620
 129.4289150 127.8515050 139.3148490 128.9429670 129.1960590 139.8127530
 132.2893720 127.0267540 137.0725010 131.8411020 127.0491800 136.2270560
 131.6558920 126.6286560 137.6695310 132.6953270 135.9221870 137.6937450
 133.1141380 136.7654600 137.5213690 131.7761900 136.0593910 137.4644230
 135.0317170 133.6538050 139.0775290 135.1513380 133.0579190 139.8170130
 135.8911170 133.6907740 138.6576590 137.3705070 134.2075240 137.6537800
 136.8440290 134.7317860 137.0502940 137.7136410 134.8402630 138.2847530
 129.7691460 131.5968610 124.0987510 129.5680520 130.7335970 124.4600850
 129.5983510 131.5101970 123.1609110 130.5460690 142.2274880 138.8095180
 130.0081780 142.9520940 138.4903880 130.7994650 141.7505220 138.0192520
 131.7985940 130.1959400 140.3351110 132.3885630 129.8875250 141.0228930
 130.9806180 129.7239150 140.4911010 136.6179370 129.8125210 140.5684130
 135.9294890 129.1506750 140.5034120 137.3385390 129.3663480 141.0132590
 137.2479770 126.4076840 126.6274390 137.5282060 125.5644740 126.9833810
 136.4745500 126.6399950 127.1413140 128.5674260 128.6969230 124.0865390
 128.8700160 128.7036660 123.1784540 129.3068850 128.3467090 124.5833050
 133.4022900 143.4626090 139.0681830 133.3281600 144.3661230 139.3754200
 132.5001740 143.1437990 139.0403900 131.7859190 127.6403850 125.0721590
 131.4381190 126.9627840 124.4924040 131.9871960 127.1793360 125.8864980
 133.9508230 142.6284600 126.6908190 134.8459020 142.9669570 126.7126950
 133.9825860 141.9064010 126.0632470 127.5904390 138.0011650 124.9195190
 128.0279260 138.5441320 125.5752770 128.0752120 137.1758600 124.9291530
 124.8050190 140.7900680 132.3715450 125.1353200 139.9221740 132.1394090
 125.2341190 140.9959200 133.2020410 129.4012110 139.1209690 130.0317420
 129.1007650 138.9974660 130.9321330 129.2949600 138.2618280 129.6233150
 125.2940400 141.6571270 135.1097080 124.8571390 141.8372070 135.9421230
 125.8618080 142.4145890 134.9678800 140.9302580 141.1588270 139.3974390
 140.3304570 141.2180830 138.6538310 141.0596480 140.2193250 139.5271240
 142.1704030 138.9006090 124.7344100 141.3396990 138.9682740 125.2051330
 142.3475860 139.7910210 124.4310960 141.6260490 135.6453570 127.2378300
 142.3879400 136.2150220 127.3437990 141.6414860 135.0780770 128.0086610
 125.1264830 134.1691500 131.4685960 124.4713670 133.9003140 130.8245660
 125.9642780 134.0595980 131.0187940 142.6320460 136.5003670 132.0820230
 143.0029290 135.7170990 131.6756200 143.2722390 137.1892770 131.9037530
 139.6154220 137.8840250 137.4950550 138.8014060 138.3137410 137.7576340
 140.0228420 138.4958660 136.8819600 141.6779660 135.9387940 124.3950820
 141.9528500 136.8466820 124.2670040 141.4890400 135.8750470 125.3312810
 138.0755270 128.9632790 125.6904450 138.4940150 128.7763770 124.8501110
 137.7691330 128.1111840 126.0007380 141.5745000 133.8756930 129.3880250
 141.1988600 133.1084860 128.9561540 140.8448120 134.2579630 129.8755180
 126.1640760 134.5544070 136.0089300 126.5313800 134.4671470 136.8885320
 125.5951580 133.7910620 135.9096160 140.9644620 133.0228450 139.0219770
 140.7330710 132.7941200 138.1217720 141.2249170 133.9428000 138.9764660
 125.7156760 131.4653160 139.9147720 124.8212810 131.4319920 140.2541430
 126.2554310 131.6639950 140.6798970 139.4032690 128.2484880 141.7999470
 140.2802870 128.2568280 142.1833470 139.4153530 127.5115720 141.1891820
 124.3402910 131.3790430 127.4111290 123.4366990 131.6420630 127.2362950
 124.8243530 131.6501600 126.6311250 140.8495960 132.1014420 132.6887490
 141.3733440 131.6077070 132.0577660 141.4355380 132.2364780 133.4335060
 141.0285680 132.1854290 136.2107040 140.0788390 132.1517830 136.3252030
 141.2098690 133.0954400 135.9756810 126.8830120 130.4355970 125.3205670
 127.5921820 130.0139190 124.8352950 126.1670060 130.5031200 124.6889020
 126.5304280 126.4895300 124.3608320 127.2532410 127.0304240 124.6789540
 126.8028800 126.2158720 123.4849860 140.3395930 131.3587770 128.6279900
 140.8355050 131.1258640 129.4128780 140.1412000 130.5199610 128.2117540
 126.2196470 125.7401490 134.2630940 126.8672660 125.1898870 133.8226100
 126.6398310 125.9944640 135.0846750 141.7683090 129.9948720 131.1617580
 141.6582370 129.8404760 132.0999850 142.5290680 129.4669660 130.9192990
 140.1148810 125.9342850 137.6200580 140.7521030 126.5476990 137.9859770
 140.2623700 125.9703510 136.6749810 142.6573360 127.8256640 124.4023720
 143.5822670 127.6937820 124.1942010 142.6349150 127.9049460 125.3560170
 142.7311850 128.5967300 127.0280430 141.9363350 128.5312420 127.5573340
 142.9355130 129.5317940 127.0165780 139.6730270 142.6358850 131.0218820
 140.2689340 142.3143420 130.3453240 139.9308420 142.1630670 131.8132090
 125.9728470 125.8957160 137.0056260 125.6243290 126.3520980 137.7714440
 125.6416170 125.0014290 137.0878690 127.5792840 139.0676760 141.1709450
 127.5362470 138.6969670 142.0523910 127.7103850 140.0054330 141.3111270
 131.2798870 140.6236350 136.7719170 131.0390230 140.8910910 135.8849690
 132.2201510 140.7942080 136.8270030 133.4853290 127.0869040 140.5275680
 133.4242180 127.6790870 141.2771090 134.4253670 126.9795000 140.3825940
 136.1227850 126.7439100 140.1667970 136.7368260 127.0618390 139.5049050
 136.6677410 126.2587690 140.7863830 142.5403030 142.6430730 137.5729810
 142.0461310 143.0399600 136.8556940 141.9316320 142.0179940 137.9667090
 126.6449110 125.4233360 140.2807030 127.1932100 125.2421410 139.5173140
 126.7104420 124.6327470 140.8163340 127.4180870 142.0139010 138.2907230
 126.8241190 141.8823710 139.0297270 127.4104710 141.1777150 137.8249330
 136.8635890 125.3071240 136.4937260 135.9895730 125.6406350 136.2910190
 136.7546640 124.8344420 137.3189130 137.7707870 127.5142110 137.8778980
 137.4421230 126.6993870 137.4980710 138.7190170 127.4711920 137.7544670
 140.2242480 143.2854150 134.8516550 139.7645450 144.0369960 134.4774570
 139.5954940 142.5660620 134.7931350 127.0493100 139.3797390 137.2415270
 126.3227160 138.7602680 137.1741220 127.1102250 139.7738000 136.3713350
 130.6538200 141.5942390 134.0264680 131.1703220 140.9829750 133.5012940
 131.3035580 142.0971170 134.5175690 133.3933700 142.4850880 134.8533660
 133.6811510 142.2305180 133.9766670 133.9056920 141.9328240 135.4439230
 134.6110710 126.2241080 135.4330170 133.8282500 126.6986580 135.7126930
 134.3173640 125.3195910 135.3243350 139.1631780 126.9264180 133.4779260
 139.6039870 126.8709280 132.6300860 138.8939370 127.8422190 133.5489440
 141.0270350 126.5579420 131.4888080 140.9658750 125.6140640 131.3419100
 141.8062380 126.6659510 132.0341540 125.3323100 142.6971780 130.4512030
 125.1645140 142.0642460 131.1493920 124.4657610 142.9031180 130.1006220
 125.9551120 126.5288560 127.9543890 126.7130480 126.6417440 127.3807920
 125.4928290 127.3657760 127.9087320 132.4964930 128.6427830 130.9446200
 131.6839440 128.2684720 130.6042080 133.0006570 127.8872910 131.2467390
 136.9989910 125.3070280 132.1829270 137.6019280 125.8790490 132.6577790
 136.2582900 125.8709720 131.9603170 140.1424510 125.7091840 127.4569550
 140.3375140 126.6075290 127.7236980 139.3554380 125.4778920 127.9502500
 126.9385800 141.3905010 127.8962170 126.4133420 141.7713040 127.1924130
 126.8630380 142.0155780 128.6171880 128.3276270 127.0552610 126.4945860
 128.8569030 126.2682410 126.3653810 128.9604590 127.7343800 126.7281390
 130.5214110 126.7927750 129.5491250 129.8916850 126.0915060 129.7161380
 129.9819250 127.5531880 129.3324410 133.4606060 143.4066980 142.2201860
 134.3873370 143.1711250 142.2637820 133.4456490 144.2338980 141.7387890
 141.6951120 142.9492550 129.2176110 141.8703310 142.2630290 128.5737030
 140.9972690 143.4739600 128.8252780 130.6469670 126.0711730 141.9843740
 130.3653940 126.5745330 141.2204560 131.0289370 125.2733480 141.6185870
 129.5378770 143.3387390 126.7711420 130.2697590 143.0546670 126.2235310
 129.7972440 143.1000670 127.6610800 128.6993560 139.4552120 126.7757750
 128.0702440 139.9237220 127.3243580 128.8141390 138.6101340 127.2103940
 137.2485130 125.4865310 142.5624210 137.1350580 125.8059920 143.4575730
 138.0654870 125.8877820 142.2661490 140.0283620 142.6336840 142.0442900
 140.8208940 142.1386070 141.8368860 140.3216770 143.3126980 142.6518510
 136.1543280 133.5057780 112.9258950 136.0737330 132.5912390 112.6550660
 135.7407700 134.0024850 112.2198660 134.2861320 135.2836800 114.8068220
 133.5103420 134.8037240 115.0966790 134.9374250 134.6042450 114.6324380
 128.3027150 135.5956610 115.6843980 127.4712030 135.3405320 116.0840490
 128.9108130 135.6667380 116.4201900 138.3068750 139.6896990 113.5867350
 137.8450280 138.9184230 113.9154520 139.1194300 139.7163060 114.0919800
 128.2828410 139.6296700 115.8802000 128.5856450 138.7394440 115.7012220
 129.0272000 140.1866920 115.6524250 126.7119100 130.5558500 109.4686370
 125.8235800 130.8974470 109.3666250 126.9960290 130.3558820 108.5767200
 124.6752110 133.1564150 115.3526070 125.2468220 132.3886350 115.3529710
 124.6753650 133.4552910 114.4432680 134.5332060 141.9755000 113.2071340
 133.9143500 142.4312500 112.6365780 135.3883840 142.1306460 112.8061040
 133.7270310 137.9593990 114.8138380 133.6578590 137.0183930 114.6527510
 134.4890170 138.0495400 115.3860950 125.9176980 128.5648510 117.1395000
 125.7379820 127.6674260 117.4197760 125.5157060 129.1120380 117.8141950
 134.7575480 130.7664370 115.0407310 135.1340300 129.8936250 114.9280980
 134.6594990 131.1023070 114.1497750 128.8880490 129.1390000 110.5024750
 128.9947240 130.0393730 110.8093510 127.9772850 129.0907970 110.2119400
 138.5399600 128.2614810 111.9735650 139.3609220 127.7711380 112.0161130
 138.5733680 128.8512470 112.7267490 126.5363650 131.0609010 115.7477340
 127.2173760 131.3247380 116.3664740 126.2211700 130.2209880 116.0815350
 130.7288220 132.1076370 114.8349930 131.2366440 132.6057340 115.4754950
 131.2601460 131.3311570 114.6589290 142.8299150 130.2781560 118.5379280
 142.1251320 130.6663270 118.0194390 143.0957070 130.9731850 119.1400210
 129.0124320 126.7474930 119.1013350 129.0142760 127.2647320 118.2959250
 128.1828630 126.2705110 119.0783280 135.3995410 136.8594240 110.6003250
 134.7812680 137.3243690 110.0365970 135.9118660 137.5521720 111.0172760
 130.2627170 136.3870110 117.2786850 129.9296550 137.0139030 117.9207920
 130.4393850 136.9131990 116.4988520 138.7761080 130.2015190 114.7463190
 138.0716650 130.4900080 115.3266300 139.1373240 131.0115300 114.3862750
 128.6939650 128.4584890 117.1083800 129.0356460 129.3026940 116.8137670
 127.7555460 128.6068630 117.2249140 129.4746270 138.3550910 119.0936030
 130.0920270 139.0301990 118.8120480 128.6139390 138.7638890 119.0023530
 124.7678610 137.5450770 107.9742880 124.3906590 138.0337870 107.2427780
 125.0251680 138.2176050 108.6049410 140.3923860 139.8190320 117.0090670
 139.7087380 140.4889430 117.0007340 140.9318150 140.0170970 116.2435530
 141.8448000 129.6469980 115.1372400 140.8972910 129.6808960 115.2687830
 142.1697990 130.4608930 115.5221760 132.3767540 125.9467160 113.4328390
 132.6842520 125.3914050 112.7163890 131.4468240 126.0811620 113.2501380
 137.9282600 141.6634450 115.7235850 137.9409760 141.2596740 114.8558110
 137.3757820 142.4381740 115.6197280 139.2228020 138.3850670 110.8126020
 139.1124350 137.4425000 110.9375440 139.2196270 138.7466310 111.6988780
 137.3268040 136.5664290 117.0518460 137.7436830 136.3524400 116.2171920
 138.0507860 136.8237080 117.6227080 134.7648300 134.0115990 110.1688510
 133.8377580 133.9453370 110.3976980 134.9173120 134.9496120 110.0543750
 134.7517380 130.2832990 107.1655670 133.8121050 130.4446950 107.2508130
 135.0700640 131.0018670 106.6191660 141.2730140 134.9651510 117.1434700
 140.4448770 135.0344600 116.6684830 141.8680620 135.5505820 116.6750530
 138.7945590 135.5736290 110.6723760 138.1758010 135.2355840 110.0250060
 138.7770040 134.9296050 111.3802950 138.2372150 131.7520830 118.0889570
 137.8243330 132.5774540 118.3429560 137.5048100 131.1665870 117.8965930
 130.3704940 134.5380730 112.9508240 129.9661940 133.8257980 112.4554140
 130.4568060 134.1933970 113.8396280 130.8386640 138.2248290 115.1147450
 130.5414930 137.6193760 114.4355230 131.7886460 138.2625600 115.0036810
 129.0833560 131.3123940 116.7307280 129.6348150 131.4219280 115.9560530
 129.5977070 131.6861540 117.4462510 138.9272250 141.7980160 118.7770550
 138.4502810 142.6052350 118.5843160 138.2434040 141.1458490 118.9296760
 129.9305070 137.9629980 121.7655250 129.0333600 138.1869950 122.0128650
 129.9557940 138.0864920 120.8166650 136.9710290 134.8123100 107.6796510
 137.4103570 133.9745530 107.5334330 137.6838710 135.4452500 107.7660650
 128.7576290 134.8343300 120.3412620 128.6184060 135.7066100 120.7100020
 127.8757650 134.4916110 120.1960560 135.0805670 139.7519170 111.6477750
 135.5201580 140.4943500 111.2333140 135.0192560 139.9945740 112.5716710
 130.5556640 140.7765000 122.5497770 130.5272070 141.1807950 121.6826200
 130.3921610 139.8475360 122.3869370 140.5527430 126.0665910 105.9937550
 140.2400090 126.1592740 106.8936620 141.3139900 126.6446940 105.9434980
 127.0709570 133.4325710 110.4514890 126.9507170 134.1587800 109.8396160
 126.7610460 132.6628620 109.9742800 142.5071460 141.5592100 123.8461940
 142.9831180 142.0374990 124.5251020 143.1278620 141.4909590 123.1207440
 124.7094940 136.6040850 116.2583530 124.7875360 136.7389620 115.3139250
 125.3236620 135.8956740 116.4511650 125.9542570 138.3041040 112.6689710
 125.5470650 138.4455630 111.8143310 126.8455580 138.0201200 112.4660920
 141.9104710 138.7504950 121.0061950 142.0367770 138.5116830 120.0879130
 141.9526090 137.9189490 121.4784030 135.7721450 142.4532950 119.5756760
 136.2866120 142.3640960 120.3779190 134.9290530 142.7992650 119.8684670
 137.7475850 142.7388290 109.0040760 137.5876990 142.4491230 109.9022590
 137.5822560 141.9628420 108.4685990 130.2264230 142.5186820 110.7812380
 130.0506710 141.6022360 110.5680180 129.3719970 142.8774110 111.0210180
 137.4501980 140.2475850 107.5638760 136.7567140 140.2453140 106.9041040
 138.1924840 139.8235170 107.1332930 137.0151910 141.8738560 111.6387250
 137.4708860 141.0927940 111.9525870 137.3544430 142.5845380 112.1828430
 141.7628720 130.8037410 121.9711690 141.1472990 131.3117080 121.4427150
 141.4425140 129.9035740 121.9137630 124.7654460 137.6455020 118.7977990
 124.9285500 137.1760380 117.9797360 125.2306910 137.1378580 119.4626830
 129.5373230 126.7760780 113.8338560 129.0941380 127.5570320 113.5023080
 130.0958220 127.0990670 114.5409500 133.8243040 129.6429300 119.4373880
 133.3622410 129.8512320 120.2493820 133.4221150 128.8288650 119.1344550
 138.8247550 130.8638250 120.5670540 137.9741140 130.5644000 120.8879610
 138.6649340 131.1080260 119.6554360 135.9197260 132.3640000 122.6669330
 136.2450670 131.5303750 122.3271560 136.7077590 132.8868520 122.8147660
 132.6532050 126.3971480 108.7144390 132.0286230 126.3931350 109.4397700
 132.5662170 125.5302440 108.3180360 131.5749130 127.3208110 115.6928160
 131.8721460 128.2270940 115.6120180 132.1234690 126.8326890 115.0787730
 129.3287450 131.8994350 111.5619810 129.1028370 131.6831520 112.4666430
 128.5479980 132.3322810 111.2165780 136.5585210 131.9057720 110.1610460
 135.9594100 132.6293520 109.9774080 137.1064820 131.8434500 109.3786910
 131.7686660 132.7979930 122.2280080 131.6730260 131.8574660 122.0780480
 132.6118640 133.0195000 121.8328150 135.1650080 130.5421260 112.1913740
 135.5579650 130.8593460 111.3782430 135.5266930 129.6633140 112.3058260
 126.8997200 129.2093600 120.3813860 126.5060590 130.0568810 120.5886640
 126.2115600 128.5719970 120.5722500 133.4742250 129.2928570 123.4510600
 132.7840570 129.1000770 124.0856690 134.2174550 129.5763210 123.9834900
 124.2014250 127.1322060 114.4143940 123.9127300 127.7024920 115.1268920
 124.9460010 126.6526510 114.7775170 124.3884480 131.0742180 105.6246660
 124.3059150 132.0172940 105.7661650 124.0367540 130.9317090 104.7459010
 135.7505220 133.1327010 116.2864520 135.0186340 133.6413820 116.6354620
 135.3529560 132.3156990 115.9853300 132.1882610 129.8081210 114.6917010
 132.1918670 129.3671160 113.8421550 133.0833730 130.1298540 114.7988830
 128.0384990 129.6907700 113.6511220 127.6985040 130.1682930 114.4078270
 127.2762310 129.2372820 113.2912320 132.2502760 130.8093290 107.6823770
 132.3715580 130.7679770 108.6309590 131.8651270 131.6717440 107.5270500
 136.2131130 128.5860690 115.6987460 136.2303870 129.0369340 116.5429310
 135.9646710 127.6866330 115.9120900 131.2624260 133.1194430 107.0807070
 130.6941160 132.6712680 106.4542980 131.9713260 133.4787210 106.5472220
 139.6401880 125.9992870 121.5373840 139.9647650 125.2682530 122.0631820
 139.6758390 125.6806510 120.6354830 126.3393440 137.0206450 120.9573800
 125.9548230 136.3800120 121.5556760 126.6505630 137.7242570 121.5268530
 132.4890580 133.8682990 116.4382420 132.8560710 133.3941560 117.1843760
 132.2995640 134.7424560 116.7790760 125.3531070 128.6126680 112.5675890
 125.0677990 128.2482350 113.4054510 125.2909930 127.8807140 111.9539030
 130.2789950 132.9091630 118.7566630 129.9747020 133.7883610 118.9816990
 131.2336410 132.9691420 118.7924070 128.8071740 137.1152620 109.3533480
 128.0334000 136.5750240 109.1932200 129.5366370 136.5959230 109.0151240
 139.5659720 136.1117980 115.1459870 140.2858840 136.6073270 114.7555980
 139.3641540 135.4335870 114.5013740 135.0269660 127.5055940 109.2889260
 134.2134270 127.0069110 109.2134570 134.8331610 128.3454190 108.8725610
 134.9478520 136.1827040 121.0328870 134.8815830 135.2622710 120.7786460
 134.3183660 136.2802480 121.7473510 137.7418050 131.8775590 107.5851420
 138.6297670 132.1892820 107.4102760 137.7123140 131.0047840 107.1932000
 128.8509140 136.7833000 112.9912290 129.3687810 135.9801260 112.9369180
 128.3993160 136.7212140 113.8329120 133.7378640 138.0499280 108.2639590
 134.0794340 138.7941510 107.7682910 132.9091350 138.3630400 108.6264420
 126.3353680 133.7494370 119.9037990 125.9768620 134.4148220 120.4911330
 126.0408240 132.9177920 120.2750610 129.5366800 134.2078610 122.7877540
 129.2366940 134.3535790 121.8905360 130.3078040 133.6483900 122.6950930
 134.8795250 139.0047610 120.7832670 134.8939790 138.0728570 120.5651580
 134.1720350 139.0907370 121.4222440 140.0132320 133.1887430 107.0531280
 139.9296040 133.6201650 106.2027720 140.7326510 133.6485780 107.4858100
 141.0906460 135.6454950 120.1301250 140.3654650 136.2383730 119.9330640
 141.6181920 135.6378490 119.3314620 141.0419570 140.0429690 109.7813410
 140.3995730 139.3885310 110.0557130 140.6550230 140.4484780 109.0054080
 136.6206050 137.3715120 113.6285100 136.9729870 136.7743250 112.9686470
 135.7368380 137.0459350 113.7993350 132.7069330 138.1312810 111.0355510
 133.3940460 138.6782020 111.4163100 131.9201750 138.6753540 111.0705120
 124.8461730 133.7485630 106.5272590 125.7156580 134.0310430 106.8108510
 124.3552050 134.5621500 106.4121400 132.0096540 135.1358840 110.6480870
 132.4659320 135.9464090 110.8741060 131.6584750 134.8181980 111.4799360
 134.3129150 140.6465180 117.8773170 134.9571370 140.8524560 118.5546590
 134.6758590 139.8853580 117.4244020 127.9108320 125.4796490 111.1203390
 127.7822950 125.4714390 112.0688310 127.0870340 125.8179580 110.7694400
 135.5861230 138.6497530 116.5950620 136.2283460 137.9490690 116.7082790
 136.1110580 139.4295970 116.4147510 139.4316950 138.9346150 106.3189760
 139.2054530 138.2176590 106.9114400 139.0413150 138.6858590 105.4811510
 137.3598850 139.4492430 119.7986680 137.6955090 140.0359120 120.4764600
 136.4399190 139.3185140 120.0284470 125.2132980 142.9613010 107.0934220
 125.5730620 143.5602350 106.4391490 125.0725320 143.5072900 107.8669250
 124.9102250 127.2387610 120.5810090 124.1960770 127.4384530 121.1862700
 125.3297290 126.4627180 120.9524890 139.0133200 136.8518090 107.9803920
 138.7254900 137.3130780 108.7681800 139.8085370 136.3915860 108.2488140
 125.1974840 141.2267870 121.5676620 125.3065960 140.2862610 121.4272010
 124.5455400 141.4922620 120.9190350 133.1887430 139.4983760 122.9674740
 132.8684300 138.7793000 123.5120430 132.5145790 140.1738830 123.0410800
 131.2301600 140.3444210 107.9107890 131.2211700 141.0773900 107.2952400
 130.3099960 140.0975790 108.0034850 126.8308240 135.5659100 108.6554650
 126.2236190 136.3058000 108.6649950 127.3057590 135.6558460 107.8292850
 136.4041030 129.7309920 118.3311540 136.7721850 128.9105130 118.6591110
 135.5439230 129.7911810 118.7467190 139.7703060 128.6866860 109.1399100
 139.1416220 128.7912530 108.4257330 139.2754980 128.9063640 109.9292980
 134.2161200 140.4072450 106.5733080 134.3173180 140.2036440 105.6435060
 133.3162940 140.1530730 106.7780860 131.7387090 130.9652810 110.5556980
 131.0303240 131.4339150 110.9970590 132.0231570 130.3074820 111.1902170
 133.3643020 132.3849510 118.5549510 133.8628270 132.8595330 119.2201360
 133.5065970 131.4613030 118.7619540 135.7702520 127.6903470 111.9952770
 135.6470300 127.7089600 111.0462280 136.7187080 127.7382410 112.1151170
 132.8579310 142.9258770 111.2680750 133.1120810 142.8880160 110.3460120
 131.9091790 142.7992100 111.2609000 129.9422110 129.2737890 107.9307690
 130.7912640 129.7108040 107.8647880 129.5753380 129.5858150 108.7579750
 140.5709880 128.6017470 119.3977900 140.0683480 129.3422870 119.7371710
 141.3866540 128.9901470 119.0814690 138.8631890 133.8450650 112.8439260
 137.9222030 133.8600880 113.0186950 139.1775960 133.0586610 113.2899560
 128.8413530 135.5270250 106.4043220 129.6076800 135.4151610 106.9668650
 128.9188220 134.8308220 105.7519990 127.5360290 132.9595320 107.0876110
 127.6163880 132.0122830 107.1993510 128.4280040 133.2902200 107.1936770
 140.8657470 141.0159500 114.5193520 140.9904890 141.8390670 114.9917330
 141.7323030 140.8050230 114.1717670 128.3375000 143.1090710 114.1910650
 129.0737480 142.5606170 114.4619220 128.7215920 143.9746720 114.0516640
 125.2220480 139.1764280 110.0652160 124.2960260 139.4185420 110.0557570
 125.6876910 140.0038540 109.9436910 127.3433280 142.2936780 123.3796230
 128.1446010 142.6148830 123.7931630 126.8285100 141.9332360 124.1016140
 131.4477310 142.2821020 106.0136220 132.2405920 142.5709850 105.5618010
 130.9281660 141.8513190 105.3348700 136.1797910 138.4016650 123.3271640
 135.5736070 138.4248250 122.5867390 135.8752020 137.6699690 123.8638890
 137.6098280 142.1296940 121.9381050 138.5620030 142.0454960 121.8881290
 137.4626500 142.7938650 122.6114840 140.5007480 141.5091150 107.4372960
 140.2148990 141.0956290 106.6227140 140.3027030 142.4378860 107.3173480
 125.0631090 134.7810240 122.3232280 125.5670110 134.2017520 122.8948510
 124.3238510 135.0650470 122.8608650 131.9654710 137.5024430 105.8778570
 131.8605350 136.8876780 106.6039950 131.7978930 136.9790320 105.0941580
 132.1169030 136.1881230 121.8567800 131.3514700 136.7566230 121.7722470
 132.2984990 135.8957440 120.9636030 135.2057440 136.5644460 106.4820560
 134.6567540 137.0113760 107.1263300 135.8276700 136.0593710 107.0058230
 139.2592380 137.9186560 122.4142820 140.0001850 138.2562320 121.9110280
 138.4965060 138.0878620 121.8612590 127.0954170 132.9239830 123.2182350
 127.1359510 132.6253700 124.1267580 127.9499670 133.3247440 123.0589870
 130.8732560 135.5235380 108.3785860 131.2948980 135.3575250 109.2217250
 130.9983400 134.7135610 107.8841000 129.0359980 131.5031930 121.1856840
 128.5056440 131.0122880 120.5580180 129.7048050 131.9316130 120.6514770
 133.3860200 134.5472990 105.6262960 133.9065860 133.8322010 105.2604110
 134.0328600 135.1858860 105.9263470 137.9338040 135.9701390 120.9498030
 138.3479060 136.1246470 121.7988450 136.9989040 136.0956610 121.1123810
 138.4060210 133.3097550 122.9537180 138.9880980 132.5549870 122.8657660
 138.5821980 133.8404990 122.1768660 129.5232280 128.4694300 121.2654130
 129.4289150 127.8515050 120.5405000 128.9429670 129.1960590 121.0384040
 132.2893720 127.0267540 118.2981520 131.8411020 127.0491800 117.4527070
 131.6558920 126.6286560 118.8951820 132.6953270 135.9221870 118.9193960
 133.1141380 136.7654600 118.7470200 131.7761900 136.0593910 118.6900740
 135.0317170 133.6538050 120.3031800 135.1513380 133.0579190 121.0426640
 135.8911170 133.6907740 119.8833100 137.3705070 134.2075240 118.8794310
 136.8440290 134.7317860 118.2759450 137.7136410 134.8402630 119.5104040
 129.7691460 131.5968610 105.3244020 129.5680520 130.7335970 105.6857360
 129.5983510 131.5101970 104.3865620 130.5460690 142.2274880 120.0351690
 130.0081780 142.9520940 119.7160390 130.7994650 141.7505220 119.2449030
 131.7985940 130.1959400 121.5607620 132.3885630 129.8875250 122.2485440
 130.9806180 129.7239150 121.7167520 136.6179370 129.8125210 121.7940640
 135.9294890 129.1506750 121.7290630 137.3385390 129.3663480 122.2389100
 137.2479770 126.4076840 107.8530900 137.5282060 125.5644740 108.2090320
 136.4745500 126.6399950 108.3669650 128.5674260 128.6969230 105.3121900
 128.8700160 128.7036660 104.4041050 129.3068850 128.3467090 105.8089560
 133.4022900 143.4626090 120.2938340 133.3281600 144.3661230 120.6010710
 132.5001740 143.1437990 120.2660410 131.7859190 127.6403850 106.2978100
 131.4381190 126.9627840 105.7180550 131.9871960 127.1793360 107.1121490
 133.9508230 142.6284600 107.9164700 134.8459020 142.9669570 107.9383460
 133.9825860 141.9064010 107.2888980 127.5904390 138.0011650 106.1451700
 128.0279260 138.5441320 106.8009280 128.0752120 137.1758600 106.1548040
 124.8050190 140.7900680 113.5971960 125.1353200 139.9221740 113.3650600
 125.2341190 140.9959200 114.4276920 129.4012110 139.1209690 111.2573930
 129.1007650 138.9974660 112.1577840 129.2949600 138.2618280 110.8489660
 125.2940400 141.6571270 116.3353590 124.8571390 141.8372070 117.1677740
 125.8618080 142.4145890 116.1935310 140.9302580 141.1588270 120.6230900
 140.3304570 141.2180830 119.8794820 141.0596480 140.2193250 120.7527750
 142.1704030 138.9006090 105.9600610 141.3396990 138.9682740 106.4307840
 142.3475860 139.7910210 105.6567470 141.6260490 135.6453570 108.4634810
 142.3879400 136.2150220 108.5694500 141.6414860 135.0780770 109.2343120
 125.1264830 134.1691500 112.6942470 124.4713670 133.9003140 112.0502170
 125.9642780 134.0595980 112.2444450 142.6320460 136.5003670 113.3076740
 143.0029290 135.7170990 112.9012710 143.2722390 137.1892770 113.1294040
 139.6154220 137.8840250 118.7207060 138.8014060 138.3137410 118.9832850
 140.0228420 138.4958660 118.1076110 141.6779660 135.9387940 105.6207330
 141.9528500 136.8466820 105.4926550 141.4890400 135.8750470 106.5569320
 138.0755270 128.9632790 106.9160960 138.4940150 128.7763770 106.0757620
 137.7691330 128.1111840 107.2263890 141.5745000 133.8756930 110.6136760
 141.1988600 133.1084860 110.1818050 140.8448120 134.2579630 111.1011690
 126.1640760 134.5544070 117.2345810 126.5313800 134.4671470 118.1141830
 125.5951580 133.7910620 117.1352670 140.9644620 133.0228450 120.2476280
 140.7330710 132.7941200 119.3474230 141.2249170 133.9428000 120.2021170
 125.7156760 131.4653160 121.1404230 124.8212810 131.4319920 121.4797940
 126.2554310 131.6639950 121.9055480 139.4032690 128.2484880 123.0255980
 140.2802870 128.2568280 123.4089980 139.4153530 127.5115720 122.4148330
 124.3402910 131.3790430 108.6367800 123.4366990 131.6420630 108.4619460
 124.8243530 131.6501600 107.8567760 140.8495960 132.1014420 113.9144000
 141.3733440 131.6077070 113.2834170 141.4355380 132.2364780 114.6591570
 141.0285680 132.1854290 117.4363550 140.0788390 132.1517830 117.5508540
 141.2098690 133.0954400 117.2013320 126.8830120 130.4355970 106.5462180
 127.5921820 130.0139190 106.0609460 126.1670060 130.5031200 105.9145530
 126.5304280 126.4895300 105.5864830 127.2532410 127.0304240 105.9046050
 126.8028800 126.2158720 104.7106370 140.3395930 131.3587770 109.8536410
 140.8355050 131.1258640 110.6385290 140.1412000 130.5199610 109.4374050
 126.2196470 125.7401490 115.4887450 126.8672660 125.1898870 115.0482610
 126.6398310 125.9944640 116.3103260 141.7683090 129.9948720 112.3874090
 141.6582370 129.8404760 113.3256360 142.5290680 129.4669660 112.1449500
 140.1148810 125.9342850 118.8457090 140.7521030 126.5476990 119.2116280
 140.2623700 125.9703510 117.9006320 142.6573360 127.8256640 105.6280230
 143.5822670 127.6937820 105.4198520 142.6349150 127.9049460 106.5816680
 142.7311850 128.5967300 108.2536940 141.9363350 128.5312420 108.7829850
 142.9355130 129.5317940 108.2422290 139.6730270 142.6358850 112.2475330
 140.2689340 142.3143420 111.5709750 139.9308420 142.1630670 113.0388600
 125.9728470 125.8957160 118.2312770 125.6243290 126.3520980 118.9970950
 125.6416170 125.0014290 118.3135200 127.5792840 139.0676760 122.3965960
 127.5362470 138.6969670 123.2780420 127.7103850 140.0054330 122.5367780
 131.2798870 140.6236350 117.9975680 131.0390230 140.8910910 117.1106200
 132.2201510 140.7942080 118.0526540 133.4853290 127.0869040 121.7532190
 133.4242180 127.6790870 122.5027600 134.4253670 126.9795000 121.6082450
 136.1227850 126.7439100 121.3924480 136.7368260 127.0618390 120.7305560
 136.6677410 126.2587690 122.0120340 142.5403030 142.6430730 118.7986320
 142.0461310 143.0399600 118.0813450 141.9316320 142.0179940 119.1923600
 126.6449110 125.4233360 121.5063540 127.1932100 125.2421410 120.7429650
 126.7104420 124.6327470 122.0419850 127.4180870 142.0139010 119.5163740
 126.8241190 141.8823710 120.2553780 127.4104710 141.1777150 119.0505840
 136.8635890 125.3071240 117.7193770 135.9895730 125.6406350 117.5166700
 136.7546640 124.8344420 118.5445640 137.7707870 127.5142110 119.1035490
 137.4421230 126.6993870 118.7237220 138.7190170 127.4711920 118.9801180
 140.2242480 143.2854150 116.0773060 139.7645450 144.0369960 115.7031080
 139.5954940 142.5660620 116.0187860 127.0493100 139.3797390 118.4671780
 126.3227160 138.7602680 118.3997730 127.1102250 139.7738000 117.5969860
 130.6538200 141.5942390 115.2521190 131.1703220 140.9829750 114.7269450
 131.3035580 142.0971170 115.7432200 133.3933700 142.4850880 116.0790170
 133.6811510 142.2305180 115.2023180 133.9056920 141.9328240 116.6695740
 134.6110710 126.2241080 116.6586680 133.8282500 126.6986580 116.9383440
 134.3173640 125.3195910 116.5499860 139.1631780 126.9264180 114.7035770
 139.6039870 126.8709280 113.8557370 138.8939370 127.8422190 114.7745950
 141.0270350 126.5579420 112.7144590 140.9658750 125.6140640 112.5675610
 141.8062380 126.6659510 113.2598050 125.3323100 142.6971780 111.6768540
 125.1645140 142.0642460 112.3750430 124.4657610 142.9031180 111.3262730
 125.9551120 126.5288560 109.1800400 126.7130480 126.6417440 108.6064430
 125.4928290 127.3657760 109.1343830 132.4964930 128.6427830 112.1702710
 131.6839440 128.2684720 111.8298590 133.0006570 127.8872910 112.4723900
 136.9989910 125.3070280 113.4085780 137.6019280 125.8790490 113.8834300
 136.2582900 125.8709720 113.1859680 140.1424510 125.7091840 108.6826060
 140.3375140 126.6075290 108.9493490 139.3554380 125.4778920 109.1759010
 126.9385800 141.3905010 109.1218680 126.4133420 141.7713040 108.4180640
 126.8630380 142.0155780 109.8428390 128.3276270 127.0552610 107.7202370
 128.8569030 126.2682410 107.5910320 128.9604590 127.7343800 107.9537900
 130.5214110 126.7927750 110.7747760 129.8916850 126.0915060 110.9417890
 129.9819250 127.5531880 110.5580920 133.4606060 143.4066980 123.4458370
 134.3873370 143.1711250 123.4894330 133.4456490 144.2338980 122.9644400
 141.6951120 142.9492550 110.4432620 141.8703310 142.2630290 109.7993540
 140.9972690 143.4739600 110.0509290 130.6469670 126.0711730 123.2100250
 130.3653940 126.5745330 122.4461070 131.0289370 125.2733480 122.8442380
 129.5378770 143.3387390 107.9967930 130.2697590 143.0546670 107.4491820
 129.7972440 143.1000670 108.8867310 128.6993560 139.4552120 108.0014260
 128.0702440 139.9237220 108.5500090 128.8141390 138.6101340 108.4360450
 137.2485130 125.4865310 123.7880720 137.1350580 125.8059920 124.6832240
 138.0654870 125.8877820 123.4918000 140.0283620 142.6336840 123.2699410
 140.8208940 142.1386070 123.0625370 140.3216770 143.3126980 123.8775020
 136.1543280 133.5057780  94.1515460 136.0737330 132.5912390  93.8807170
 135.7407700 134.0024850  93.4455170 134.2861320 135.2836800  96.0324730
 133.5103420 134.8037240  96.3223300 134.9374250 134.6042450  95.8580890
 128.3027150 135.5956610  96.9100490 127.4712030 135.3405320  97.3097000
 128.9108130 135.6667380  97.6458410 138.3068750 139.6896990  94.8123860
 137.8450280 138.9184230  95.1411030 139.1194300 139.7163060  95.3176310
 128.2828410 139.6296700  97.1058510 128.5856450 138.7394440  96.9268730
 129.0272000 140.1866920  96.8780760 126.7119100 130.5558500  90.6942880
 125.8235800 130.8974470  90.5922760 126.9960290 130.3558820  89.8023710
 124.6752110 133.1564150  96.5782580 125.2468220 132.3886350  96.5786220
 124.6753650 133.4552910  95.6689190 134.5332060 141.9755000  94.4327850
 133.9143500 142.4312500  93.8622290 135.3883840 142.1306460  94.0317550
 133.7270310 137.9593990  96.0394890 133.6578590 137.0183930  95.8784020
 134.4890170 138.0495400  96.6117460 125.9176980 128.5648510  98.3651510
 125.7379820 127.6674260  98.6454270 125.5157060 129.1120380  99.0398460
 134.7575480 130.7664370  96.2663820 135.1340300 129.8936250  96.1537490
 134.6594990 131.1023070  95.3754260 128.8880490 129.1390000  91.7281260
 128.9947240 130.0393730  92.0350020 127.9772850 129.0907970  91.4375910
 138.5399600 128.2614810  93.1992160 139.3609220 127.7711380  93.2417640
 138.5733680 128.8512470  93.9524000 126.5363650 131.0609010  96.9733850
 127.2173760 131.3247380  97.5921250 126.2211700 130.2209880  97.3071860
 130.7288220 132.1076370  96.0606440 131.2366440 132.6057340  96.7011460
 131.2601460 131.3311570  95.8845800 142.8299150 130.2781560  99.7635790
 142.1251320 130.6663270  99.2450900 143.0957070 130.9731850 100.3656720
 129.0124320 126.7474930 100.3269860 129.0142760 127.2647320  99.5215760
 128.1828630 126.2705110 100.3039790 135.3995410 136.8594240  91.8259760
 134.7812680 137.3243690  91.2622480 135.9118660 137.5521720  92.2429270
 130.2627170 136.3870110  98.5043360 129.9296550 137.0139030  99.1464430
 130.4393850 136.9131990  97.7245030 138.7761080 130.2015190  95.9719700
 138.0716650 130.4900080  96.5522810 139.1373240 131.0115300  95.6119260
 128.6939650 128.4584890  98.3340310 129.0356460 129.3026940  98.0394180
 127.7555460 128.6068630  98.4505650 129.4746270 138.3550910 100.3192540
 130.0920270 139.0301990 100.0376990 128.6139390 138.7638890 100.2280040
 124.7678610 137.5450770  89.1999390 124.3906590 138.0337870  88.4684290
 125.0251680 138.2176050  89.8305920 140.3923860 139.8190320  98.2347180
 139.7087380 140.4889430  98.2263850 140.9318150 140.0170970  97.4692040
 141.8448000 129.6469980  96.3628910 140.8972910 129.6808960  96.4944340
 142.1697990 130.4608930  96.7478270 132.3767540 125.9467160  94.6584900
 132.6842520 125.3914050  93.9420400 131.4468240 126.0811620  94.4757890
 137.9282600 141.6634450  96.9492360 137.9409760 141.2596740  96.0814620
 137.3757820 142.4381740  96.8453790 139.2228020 138.3850670  92.0382530
 139.1124350 137.4425000  92.1631950 139.2196270 138.7466310  92.9245290
 137.3268040 136.5664290  98.2774970 137.7436830 136.3524400  97.4428430
 138.0507860 136.8237080  98.8483590 134.7648300 134.0115990  91.3945020
 133.8377580 133.9453370  91.6233490 134.9173120 134.9496120  91.2800260
 134.7517380 130.2832990  88.3912180 133.8121050 130.4446950  88.4764640
 135.0700640 131.0018670  87.8448170 141.2730140 134.9651510  98.3691210
 140.4448770 135.0344600  97.8941340 141.8680620 135.5505820  97.9007040
 138.7945590 135.5736290  91.8980270 138.1758010 135.2355840  91.2506570
 138.7770040 134.9296050  92.6059460 138.2372150 131.7520830  99.3146080
 137.8243330 132.5774540  99.5686070 137.5048100 131.1665870  99.1222440
 130.3704940 134.5380730  94.1764750 129.9661940 133.8257980  93.6810650
 130.4568060 134.1933970  95.0652790 130.8386640 138.2248290  96.3403960
 130.5414930 137.6193760  95.6611740 131.7886460 138.2625600  96.2293320
 129.0833560 131.3123940  97.9563790 129.6348150 131.4219280  97.1817040
 129.5977070 131.6861540  98.6719020 138.9272250 141.7980160 100.0027060
 138.4502810 142.6052350  99.8099670 138.2434040 141.1458490 100.1553270
 129.9305070 137.9629980 102.9911760 129.0333600 138.1869950 103.2385160
 129.9557940 138.0864920 102.0423160 136.9710290 134.8123100  88.9053020
 137.4103570 133.9745530  88.7590840 137.6838710 135.4452500  88.9917160
 128.7576290 134.8343300 101.5669130 128.6184060 135.7066100 101.9356530
 127.8757650 134.4916110 101.4217070 135.0805670 139.7519170  92.8734260
 135.5201580 140.4943500  92.4589650 135.0192560 139.9945740  93.7973220
 130.5556640 140.7765000 103.7754280 130.5272070 141.1807950 102.9082710
 130.3921610 139.8475360 103.6125880 140.5527430 126.0665910  87.2194060
 140.2400090 126.1592740  88.1193130 141.3139900 126.6446940  87.1691490
 127.0709570 133.4325710  91.6771400 126.9507170 134.1587800  91.0652670
 126.7610460 132.6628620  91.1999310 142.5071460 141.5592100 105.0718450
 142.9831180 142.0374990 105.7507530 143.1278620 141.4909590 104.3463950
 124.7094940 136.6040850  97.4840040 124.7875360 136.7389620  96.5395760
 125.3236620 135.8956740  97.6768160 125.9542570 138.3041040  93.8946220
 125.5470650 138.4455630  93.0399820 126.8455580 138.0201200  93.6917430
 141.9104710 138.7504950 102.2318460 142.0367770 138.5116830 101.3135640
 141.9526090 137.9189490 102.7040540 135.7721450 142.4532950 100.8013270
 136.2866120 142.3640960 101.6035700 134.9290530 142.7992650 101.0941180
 137.7475850 142.7388290  90.2297270 137.5876990 142.4491230  91.1279100
 137.5822560 141.9628420  89.6942500 130.2264230 142.5186820  92.0068890
 130.0506710 141.6022360  91.7936690 129.3719970 142.8774110  92.2466690
 137.4501980 140.2475850  88.7895270 136.7567140 140.2453140  88.1297550
 138.1924840 139.8235170  88.3589440 137.0151910 141.8738560  92.8643760
 137.4708860 141.0927940  93.1782380 137.3544430 142.5845380  93.4084940
 141.7628720 130.8037410 103.1968200 141.1472990 131.3117080 102.6683660
 141.4425140 129.9035740 103.1394140 124.7654460 137.6455020 100.0234500
 124.9285500 137.1760380  99.2053870 125.2306910 137.1378580 100.6883340
 129.5373230 126.7760780  95.0595070 129.0941380 127.5570320  94.7279590
 130.0958220 127.0990670  95.7666010 133.8243040 129.6429300 100.6630390
 133.3622410 129.8512320 101.4750330 133.4221150 128.8288650 100.3601060
 138.8247550 130.8638250 101.7927050 137.9741140 130.5644000 102.1136120
 138.6649340 131.1080260 100.8810870 135.9197260 132.3640000 103.8925840
 136.2450670 131.5303750 103.5528070 136.7077590 132.8868520 104.0404170
 132.6532050 126.3971480  89.9400900 132.0286230 126.3931350  90.6654210
 132.5662170 125.5302440  89.5436870 131.5749130 127.3208110  96.9184670
 131.8721460 128.2270940  96.8376690 132.1234690 126.8326890  96.3044240
 129.3287450 131.8994350  92.7876320 129.1028370 131.6831520  93.6922940
 128.5479980 132.3322810  92.4422290 136.5585210 131.9057720  91.3866970
 135.9594100 132.6293520  91.2030590 137.1064820 131.8434500  90.6043420
 131.7686660 132.7979930 103.4536590 131.6730260 131.8574660 103.3036990
 132.6118640 133.0195000 103.0584660 135.1650080 130.5421260  93.4170250
 135.5579650 130.8593460  92.6038940 135.5266930 129.6633140  93.5314770
 126.8997200 129.2093600 101.6070370 126.5060590 130.0568810 101.8143150
 126.2115600 128.5719970 101.7979010 133.4742250 129.2928570 104.6767110
 132.7840570 129.1000770 105.3113200 134.2174550 129.5763210 105.2091410
 124.2014250 127.1322060  95.6400450 123.9127300 127.7024920  96.3525430
 124.9460010 126.6526510  96.0031680 124.3884480 131.0742180  86.8503170
 124.3059150 132.0172940  86.9918160 124.0367540 130.9317090  85.9715520
 135.7505220 133.1327010  97.5121030 135.0186340 133.6413820  97.8611130
 135.3529560 132.3156990  97.2109810 132.1882610 129.8081210  95.9173520
 132.1918670 129.3671160  95.0678060 133.0833730 130.1298540  96.0245340
 128.0384990 129.6907700  94.8767730 127.6985040 130.1682930  95.6334780
 127.2762310 129.2372820  94.5168830 132.2502760 130.8093290  88.9080280
 132.3715580 130.7679770  89.8566100 131.8651270 131.6717440  88.7527010
 136.2131130 128.5860690  96.9243970 136.2303870 129.0369340  97.7685820
 135.9646710 127.6866330  97.1377410 131.2624260 133.1194430  88.3063580
 130.6941160 132.6712680  87.6799490 131.9713260 133.4787210  87.7728730
 139.6401880 125.9992870 102.7630350 139.9647650 125.2682530 103.2888330
 139.6758390 125.6806510 101.8611340 126.3393440 137.0206450 102.1830310
 125.9548230 136.3800120 102.7813270 126.6505630 137.7242570 102.7525040
 132.4890580 133.8682990  97.6638930 132.8560710 133.3941560  98.4100270
 132.2995640 134.7424560  98.0047270 125.3531070 128.6126680  93.7932400
 125.0677990 128.2482350  94.6311020 125.2909930 127.8807140  93.1795540
 130.2789950 132.9091630  99.9823140 129.9747020 133.7883610 100.2073500
 131.2336410 132.9691420 100.0180580 128.8071740 137.1152620  90.5789990
 128.0334000 136.5750240  90.4188710 129.5366370 136.5959230  90.2407750
 139.5659720 136.1117980  96.3716380 140.2858840 136.6073270  95.9812490
 139.3641540 135.4335870  95.7270250 135.0269660 127.5055940  90.5145770
 134.2134270 127.0069110  90.4391080 134.8331610 128.3454190  90.0982120
 134.9478520 136.1827040 102.2585380 134.8815830 135.2622710 102.0042970
 134.3183660 136.2802480 102.9730020 137.7418050 131.8775590  88.8107930
 138.6297670 132.1892820  88.6359270 137.7123140 131.0047840  88.4188510
 128.8509140 136.7833000  94.2168800 129.3687810 135.9801260  94.1625690
 128.3993160 136.7212140  95.0585630 133.7378640 138.0499280  89.4896100
 134.0794340 138.7941510  88.9939420 132.9091350 138.3630400  89.8520930
 126.3353680 133.7494370 101.1294500 125.9768620 134.4148220 101.7167840
 126.0408240 132.9177920 101.5007120 129.5366800 134.2078610 104.0134050
 129.2366940 134.3535790 103.1161870 130.3078040 133.6483900 103.9207440
 134.8795250 139.0047610 102.0089180 134.8939790 138.0728570 101.7908090
 134.1720350 139.0907370 102.6478950 140.0132320 133.1887430  88.2787790
 139.9296040 133.6201650  87.4284230 140.7326510 133.6485780  88.7114610
 141.0906460 135.6454950 101.3557760 140.3654650 136.2383730 101.1587150
 141.6181920 135.6378490 100.5571130 141.0419570 140.0429690  91.0069920
 140.3995730 139.3885310  91.2813640 140.6550230 140.4484780  90.2310590
 136.6206050 137.3715120  94.8541610 136.9729870 136.7743250  94.1942980
 135.7368380 137.0459350  95.0249860 132.7069330 138.1312810  92.2612020
 133.3940460 138.6782020  92.6419610 131.9201750 138.6753540  92.2961630
 124.8461730 133.7485630  87.7529100 125.7156580 134.0310430  88.0365020
 124.3552050 134.5621500  87.6377910 132.0096540 135.1358840  91.8737380
 132.4659320 135.9464090  92.0997570 131.6584750 134.8181980  92.7055870
 134.3129150 140.6465180  99.1029680 134.9571370 140.8524560  99.7803100
 134.6758590 139.8853580  98.6500530 127.9108320 125.4796490  92.3459900
 127.7822950 125.4714390  93.2944820 127.0870340 125.8179580  91.9950910
 135.5861230 138.6497530  97.8207130 136.2283460 137.9490690  97.9339300
 136.1110580 139.4295970  97.6404020 139.4316950 138.9346150  87.5446270
 139.2054530 138.2176590  88.1370910 139.0413150 138.6858590  86.7068020
 137.3598850 139.4492430 101.0243190 137.6955090 140.0359120 101.7021110
 136.4399190 139.3185140 101.2540980 125.2132980 142.9613010  88.3190730
 125.5730620 143.5602350  87.6648000 125.0725320 143.5072900  89.0925760
 124.9102250 127.2387610 101.8066600 124.1960770 127.4384530 102.4119210
 125.3297290 126.4627180 102.1781400 139.0133200 136.8518090  89.2060430
 138.7254900 137.3130780  89.9938310 139.8085370 136.3915860  89.4744650
 125.1974840 141.2267870 102.7933130 125.3065960 140.2862610 102.6528520
 124.5455400 141.4922620 102.1446860 133.1887430 139.4983760 104.1931250
 132.8684300 138.7793000 104.7376940 132.5145790 140.1738830 104.2667310
 131.2301600 140.3444210  89.1364400 131.2211700 141.0773900  88.5208910
 130.3099960 140.0975790  89.2291360 126.8308240 135.5659100  89.8811160
 126.2236190 136.3058000  89.8906460 127.3057590 135.6558460  89.0549360
 136.4041030 129.7309920  99.5568050 136.7721850 128.9105130  99.8847620
 135.5439230 129.7911810  99.9723700 139.7703060 128.6866860  90.3655610
 139.1416220 128.7912530  89.6513840 139.2754980 128.9063640  91.1549490
 134.2161200 140.4072450  87.7989590 134.3173180 140.2036440  86.8691570
 133.3162940 140.1530730  88.0037370 131.7387090 130.9652810  91.7813490
 131.0303240 131.4339150  92.2227100 132.0231570 130.3074820  92.4158680
 133.3643020 132.3849510  99.7806020 133.8628270 132.8595330 100.4457870
 133.5065970 131.4613030  99.9876050 135.7702520 127.6903470  93.2209280
 135.6470300 127.7089600  92.2718790 136.7187080 127.7382410  93.3407680
 132.8579310 142.9258770  92.4937260 133.1120810 142.8880160  91.5716630
 131.9091790 142.7992100  92.4865510 129.9422110 129.2737890  89.1564200
 130.7912640 129.7108040  89.0904390 129.5753380 129.5858150  89.9836260
 140.5709880 128.6017470 100.6234410 140.0683480 129.3422870 100.9628220
 141.3866540 128.9901470 100.3071200 138.8631890 133.8450650  94.0695770
 137.9222030 133.8600880  94.2443460 139.1775960 133.0586610  94.5156070
 128.8413530 135.5270250  87.6299730 129.6076800 135.4151610  88.1925160
 128.9188220 134.8308220  86.9776500 127.5360290 132.9595320  88.3132620
 127.6163880 132.0122830  88.4250020 128.4280040 133.2902200  88.4193280
 140.8657470 141.0159500  95.7450030 140.9904890 141.8390670  96.2173840
 141.7323030 140.8050230  95.3974180 128.3375000 143.1090710  95.4167160
 129.0737480 142.5606170  95.6875730 128.7215920 143.9746720  95.2773150
 125.2220480 139.1764280  91.2908670 124.2960260 139.4185420  91.2814080
 125.6876910 140.0038540  91.1693420 127.3433280 142.2936780 104.6052740
 128.1446010 142.6148830 105.0188140 126.8285100 141.9332360 105.3272650
 131.4477310 142.2821020  87.2392730 132.2405920 142.5709850  86.7874520
 130.9281660 141.8513190  86.5605210 136.1797910 138.4016650 104.5528150
 135.5736070 138.4248250 103.8123900 135.8752020 137.6699690 105.0895400
 137.6098280 142.1296940 103.1637560 138.5620030 142.0454960 103.1137800
 137.4626500 142.7938650 103.8371350 140.5007480 141.5091150  88.6629470
 140.2148990 141.0956290  87.8483650 140.3027030 142.4378860  88.5429990
 125.0631090 134.7810240 103.5488790 125.5670110 134.2017520 104.1205020
 124.3238510 135.0650470 104.0865160 131.9654710 137.5024430  87.1035080
 131.8605350 136.8876780  87.8296460 131.7978930 136.9790320  86.3198090
 132.1169030 136.1881230 103.0824310 131.3514700 136.7566230 102.9978980
 132.2984990 135.8957440 102.1892540 135.2057440 136.5644460  87.7077070
 134.6567540 137.0113760  88.3519810 135.8276700 136.0593710  88.2314740
 139.2592380 137.9186560 103.6399330 140.0001850 138.2562320 103.1366790
 138.4965060 138.0878620 103.0869100 127.0954170 132.9239830 104.4438860
 127.1359510 132.6253700 105.3524090 127.9499670 133.3247440 104.2846380
 130.8732560 135.5235380  89.6042370 131.2948980 135.3575250  90.4473760
 130.9983400 134.7135610  89.1097510 129.0359980 131.5031930 102.4113350
 128.5056440 131.0122880 101.7836690 129.7048050 131.9316130 101.8771280
 133.3860200 134.5472990  86.8519470 133.9065860 133.8322010  86.4860620
 134.0328600 135.1858860  87.1519980 137.9338040 135.9701390 102.1754540
 138.3479060 136.1246470 103.0244960 136.9989040 136.0956610 102.3380320
 138.4060210 133.3097550 104.1793690 138.9880980 132.5549870 104.0914170
 138.5821980 133.8404990 103.4025170 129.5232280 128.4694300 102.4910640
 129.4289150 127.8515050 101.7661510 128.9429670 129.1960590 102.2640550
 132.2893720 127.0267540  99.5238030 131.8411020 127.0491800  98.6783580
 131.6558920 126.6286560 100.1208330 132.6953270 135.9221870 100.1450470
 133.1141380 136.7654600  99.9726710 131.7761900 136.0593910  99.9157250
 135.0317170 133.6538050 101.5288310 135.1513380 133.0579190 102.2683150
 135.8911170 133.6907740 101.1089610 137.3705070 134.2075240 100.1050820
 136.8440290 134.7317860  99.5015960 137.7136410 134.8402630 100.7360550
 129.7691460 131.5968610  86.5500530 129.5680520 130.7335970  86.9113870
 129.5983510 131.5101970  85.6122130 130.5460690 142.2274880 101.2608200
 130.0081780 142.9520940 100.9416900 130.7994650 141.7505220 100.4705540
 131.7985940 130.1959400 102.7864130 132.3885630 129.8875250 103.4741950
 130.9806180 129.7239150 102.9424030 136.6179370 129.8125210 103.0197150
 135.9294890 129.1506750 102.9547140 137.3385390 129.3663480 103.4645610
 137.2479770 126.4076840  89.0787410 137.5282060 125.5644740  89.4346830
 136.4745500 126.6399950  89.5926160 128.5674260 128.6969230  86.5378410
 128.8700160 128.7036660  85.6297560 129.3068850 128.3467090  87.0346070
 133.4022900 143.4626090 101.5194850 133.3281600 144.3661230 101.8267220
 132.5001740 143.1437990 101.4916920 131.7859190 127.6403850  87.5234610
 131.4381190 126.9627840  86.9437060 131.9871960 127.1793360  88.3378000
 133.9508230 142.6284600  89.1421210 134.8459020 142.9669570  89.1639970
 133.9825860 141.9064010  88.5145490 127.5904390 138.0011650  87.3708210
 128.0279260 138.5441320  88.0265790 128.0752120 137.1758600  87.3804550
 124.8050190 140.7900680  94.8228470 125.1353200 139.9221740  94.5907110
 125.2341190 140.9959200  95.6533430 129.4012110 139.1209690  92.4830440
 129.1007650 138.9974660  93.3834350 129.2949600 138.2618280  92.0746170
 125.2940400 141.6571270  97.5610100 124.8571390 141.8372070  98.3934250
 125.8618080 142.4145890  97.4191820 140.9302580 141.1588270 101.8487410
 140.3304570 141.2180830 101.1051330 141.0596480 140.2193250 101.9784260
 142.1704030 138.9006090  87.1857120 141.3396990 138.9682740  87.6564350
 142.3475860 139.7910210  86.8823980 141.6260490 135.6453570  89.6891320
 142.3879400 136.2150220  89.7951010 141.6414860 135.0780770  90.4599630
 125.1264830 134.1691500  93.9198980 124.4713670 133.9003140  93.2758680
 125.9642780 134.0595980  93.4700960 142.6320460 136.5003670  94.5333250
 143.0029290 135.7170990  94.1269220 143.2722390 137.1892770  94.3550550
 139.6154220 137.8840250  99.9463570 138.8014060 138.3137410 100.2089360
 140.0228420 138.4958660  99.3332620 141.6779660 135.9387940  86.8463840
 141.9528500 136.8466820  86.7183060 141.4890400 135.8750470  87.7825830
 138.0755270 128.9632790  88.1417470 138.4940150 128.7763770  87.3014130
 137.7691330 128.1111840  88.4520400 141.5745000 133.8756930  91.8393270
 141.1988600 133.1084860  91.4074560 140.8448120 134.2579630  92.3268200
 126.1640760 134.5544070  98.4602320 126.5313800 134.4671470  99.3398340
 125.5951580 133.7910620  98.3609180 140.9644620 133.0228450 101.4732790
 140.7330710 132.7941200 100.5730740 141.2249170 133.9428000 101.4277680
 125.7156760 131.4653160 102.3660740 124.8212810 131.4319920 102.7054450
 126.2554310 131.6639950 103.1311990 139.4032690 128.2484880 104.2512490
 140.2802870 128.2568280 104.6346490 139.4153530 127.5115720 103.6404840
 124.3402910 131.3790430  89.8624310 123.4366990 131.6420630  89.6875970
 124.8243530 131.6501600  89.0824270 140.8495960 132.1014420  95.1400510
 141.3733440 131.6077070  94.5090680 141.4355380 132.2364780  95.8848080
 141.0285680 132.1854290  98.6620060 140.0788390 132.1517830  98.7765050
 141.2098690 133.0954400  98.4269830 126.8830120 130.4355970  87.7718690
 127.5921820 130.0139190  87.2865970 126.1670060 130.5031200  87.1402040
 126.5304280 126.4895300  86.8121340 127.2532410 127.0304240  87.1302560
 126.8028800 126.2158720  85.9362880 140.3395930 131.3587770  91.0792920
 140.8355050 131.1258640  91.8641800 140.1412000 130.5199610  90.6630560
 126.2196470 125.7401490  96.7143960 126.8672660 125.1898870  96.2739120
 126.6398310 125.9944640  97.5359770 141.7683090 129.9948720  93.6130600
 141.6582370 129.8404760  94.5512870 142.5290680 129.4669660  93.3706010
 140.1148810 125.9342850 100.0713600 140.7521030 126.5476990 100.4372790
 140.2623700 125.9703510  99.1262830 142.6573360 127.8256640  86.8536740
 143.5822670 127.6937820  86.6455030 142.6349150 127.9049460  87.8073190
 142.7311850 128.5967300  89.4793450 141.9363350 128.5312420  90.0086360
 142.9355130 129.5317940  89.4678800 139.6730270 142.6358850  93.4731840
 140.2689340 142.3143420  92.7966260 139.9308420 142.1630670  94.2645110
 125.9728470 125.8957160  99.4569280 125.6243290 126.3520980 100.2227460
 125.6416170 125.0014290  99.5391710 127.5792840 139.0676760 103.6222470
 127.5362470 138.6969670 104.5036930 127.7103850 140.0054330 103.7624290
 131.2798870 140.6236350  99.2232190 131.0390230 140.8910910  98.3362710
 132.2201510 140.7942080  99.2783050 133.4853290 127.0869040 102.9788700
 133.4242180 127.6790870 103.7284110 134.4253670 126.9795000 102.8338960
 136.1227850 126.7439100 102.6180990 136.7368260 127.0618390 101.9562070
 136.6677410 126.2587690 103.2376850 142.5403030 142.6430730 100.0242830
 142.0461310 143.0399600  99.3069960 141.9316320 142.0179940 100.4180110
 126.6449110 125.4233360 102.7320050 127.1932100 125.2421410 101.9686160
 126.7104420 124.6327470 103.2676360 127.4180870 142.0139010 100.7420250
 126.8241190 141.8823710 101.4810290 127.4104710 141.1777150 100.2762350
 136.8635890 125.3071240  98.9450280 135.9895730 125.6406350  98.7423210
 136.7546640 124.8344420  99.7702150 137.7707870 127.5142110 100.3292000
 137.4421230 126.6993870  99.9493730 138.7190170 127.4711920 100.2057690
 140.2242480 143.2854150  97.3029570 139.7645450 144.0369960  96.9287590
 139.5954940 142.5660620  97.2444370 127.0493100 139.3797390  99.6928290
 126.3227160 138.7602680  99.6254240 127.1102250 139.7738000  98.8226370
 130.6538200 141.5942390  96.4777700 131.1703220 140.9829750  95.9525960
 131.3035580 142.0971170  96.9688710 133.3933700 142.4850880  97.3046680
 133.6811510 142.2305180  96.4279690 133.9056920 141.9328240  97.8952250
 134.6110710 126.2241080  97.8843190 133.8282500 126.6986580  98.1639950
 134.3173640 125.3195910  97.7756370 139.1631780 126.9264180  95.9292280
 139.6039870 126.8709280  95.0813880 138.8939370 127.8422190  96.0002460
 141.0270350 126.5579420  93.9401100 140.9658750 125.6140640  93.7932120
 141.8062380 126.6659510  94.4854560 125.3323100 142.6971780  92.9025050
 125.1645140 142.0642460  93.6006940 124.4657610 142.9031180  92.5519240
 125.9551120 126.5288560  90.4056910 126.7130480 126.6417440  89.8320940
 125.4928290 127.3657760  90.3600340 132.4964930 128.6427830  93.3959220
 131.6839440 128.2684720  93.0555100 133.0006570 127.8872910  93.6980410
 136.9989910 125.3070280  94.6342290 137.6019280 125.8790490  95.1090810
 136.2582900 125.8709720  94.4116190 140.1424510 125.7091840  89.9082570
 140.3375140 126.6075290  90.1750000 139.3554380 125.4778920  90.4015520
 126.9385800 141.3905010  90.3475190 126.4133420 141.7713040  89.6437150
 126.8630380 142.0155780  91.0684900 128.3276270 127.0552610  88.9458880
 128.8569030 126.2682410  88.8166830 128.9604590 127.7343800  89.1794410
 130.5214110 126.7927750  92.0004270 129.8916850 126.0915060  92.1674400
 129.9819250 127.5531880  91.7837430 133.4606060 143.4066980 104.6714880
 134.3873370 143.1711250 104.7150840 133.4456490 144.2338980 104.1900910
 141.6951120 142.9492550  91.6689130 141.8703310 142.2630290  91.0250050
 140.9972690 143.4739600  91.2765800 130.6469670 126.0711730 104.4356760
 130.3653940 126.5745330 103.6717580 131.0289370 125.2733480 104.0698890
 129.5378770 143.3387390  89.2224440 130.2697590 143.0546670  88.6748330
 129.7972440 143.1000670  90.1123820 128.6993560 139.4552120  89.2270770
 128.0702440 139.9237220  89.7756600 128.8141390 138.6101340  89.6616960
 137.2485130 125.4865310 105.0137230 137.1350580 125.8059920 105.9088750
 138.0654870 125.8877820 104.7174510 140.0283620 142.6336840 104.4955920
 140.8208940 142.1386070 104.2881880 140.3216770 143.3126980 105.1031530
 136.1543280 133.5057780  75.3771970 136.0737330 132.5912390  75.1063680
 135.7407700 134.0024850  74.6711680 134.2861320 135.2836800  77.2581240
 133.5103420 134.8037240  77.5479810 134.9374250 134.6042450  77.0837400
 128.3027150 135.5956610  78.1357000 127.4712030 135.3405320  78.5353510
 128.9108130 135.6667380  78.8714920 138.3068750 139.6896990  76.0380370
 137.8450280 138.9184230  76.3667540 139.1194300 139.7163060  76.5432820
 128.2828410 139.6296700  78.3315020 128.5856450 138.7394440  78.1525240
 129.0272000 140.1866920  78.1037270 126.7119100 130.5558500  71.9199390
 125.8235800 130.8974470  71.8179270 126.9960290 130.3558820  71.0280220
 124.6752110 133.1564150  77.8039090 125.2468220 132.3886350  77.8042730
 124.6753650 133.4552910  76.8945700 134.5332060 141.9755000  75.6584360
 133.9143500 142.4312500  75.0878800 135.3883840 142.1306460  75.2574060
 133.7270310 137.9593990  77.2651400 133.6578590 137.0183930  77.1040530
 134.4890170 138.0495400  77.8373970 125.9176980 128.5648510  79.5908020
 125.7379820 127.6674260  79.8710780 125.5157060 129.1120380  80.2654970
 134.7575480 130.7664370  77.4920330 135.1340300 129.8936250  77.3794000
 134.6594990 131.1023070  76.6010770 128.8880490 129.1390000  72.9537770
 128.9947240 130.0393730  73.2606530 127.9772850 129.0907970  72.6632420
 138.5399600 128.2614810  74.4248670 139.3609220 127.7711380  74.4674150
 138.5733680 128.8512470  75.1780510 126.5363650 131.0609010  78.1990360
 127.2173760 131.3247380  78.8177760 126.2211700 130.2209880  78.5328370
 130.7288220 132.1076370  77.2862950 131.2366440 132.6057340  77.9267970
 131.2601460 131.3311570  77.1102310 142.8299150 130.2781560  80.9892300
 142.1251320 130.6663270  80.4707410 143.0957070 130.9731850  81.5913230
 129.0124320 126.7474930  81.5526370 129.0142760 127.2647320  80.7472270
 128.1828630 126.2705110  81.5296300 135.3995410 136.8594240  73.0516270
 134.7812680 137.3243690  72.4878990 135.9118660 137.5521720  73.4685780
 130.2627170 136.3870110  79.7299870 129.9296550 137.0139030  80.3720940
 130.4393850 136.9131990  78.9501540 138.7761080 130.2015190  77.1976210
 138.0716650 130.4900080  77.7779320 139.1373240 131.0115300  76.8375770
 128.6939650 128.4584890  79.5596820 129.0356460 129.3026940  79.2650690
 127.7555460 128.6068630  79.6762160 129.4746270 138.3550910  81.5449050
 130.0920270 139.0301990  81.2633500 128.6139390 138.7638890  81.4536550
 124.7678610 137.5450770  70.4255900 124.3906590 138.0337870  69.6940800
 125.0251680 138.2176050  71.0562430 140.3923860 139.8190320  79.4603690
 139.7087380 140.4889430  79.4520360 140.9318150 140.0170970  78.6948550
 141.8448000 129.6469980  77.5885420 140.8972910 129.6808960  77.7200850
 142.1697990 130.4608930  77.9734780 132.3767540 125.9467160  75.8841410
 132.6842520 125.3914050  75.1676910 131.4468240 126.0811620  75.7014400
 137.9282600 141.6634450  78.1748870 137.9409760 141.2596740  77.3071130
 137.3757820 142.4381740  78.0710300 139.2228020 138.3850670  73.2639040
 139.1124350 137.4425000  73.3888460 139.2196270 138.7466310  74.1501800
 137.3268040 136.5664290  79.5031480 137.7436830 136.3524400  78.6684940
 138.0507860 136.8237080  80.0740100 134.7648300 134.0115990  72.6201530
 133.8377580 133.9453370  72.8490000 134.9173120 134.9496120  72.5056770
 134.7517380 130.2832990  69.6168690 133.8121050 130.4446950  69.7021150
 135.0700640 131.0018670  69.0704680 141.2730140 134.9651510  79.5947720
 140.4448770 135.0344600  79.1197850 141.8680620 135.5505820  79.1263550
 138.7945590 135.5736290  73.1236780 138.1758010 135.2355840  72.4763080
 138.7770040 134.9296050  73.8315970 138.2372150 131.7520830  80.5402590
 137.8243330 132.5774540  80.7942580 137.5048100 131.1665870  80.3478950
 130.3704940 134.5380730  75.4021260 129.9661940 133.8257980  74.9067160
 130.4568060 134.1933970  76.2909300 130.8386640 138.2248290  77.5660470
 130.5414930 137.6193760  76.8868250 131.7886460 138.2625600  77.4549830
 129.0833560 131.3123940  79.1820300 129.6348150 131.4219280  78.4073550
 129.5977070 131.6861540  79.8975530 138.9272250 141.7980160  81.2283570
 138.4502810 142.6052350  81.0356180 138.2434040 141.1458490  81.3809780
 129.9305070 137.9629980  84.2168270 129.0333600 138.1869950  84.4641670
 129.9557940 138.0864920  83.2679670 136.9710290 134.8123100  70.1309530
 137.4103570 133.9745530  69.9847350 137.6838710 135.4452500  70.2173670
 128.7576290 134.8343300  82.7925640 128.6184060 135.7066100  83.1613040
 127.8757650 134.4916110  82.6473580 135.0805670 139.7519170  74.0990770
 135.5201580 140.4943500  73.6846160 135.0192560 139.9945740  75.0229730
 130.5556640 140.7765000  85.0010790 130.5272070 141.1807950  84.1339220
 130.3921610 139.8475360  84.8382390 140.5527430 126.0665910  68.4450570
 140.2400090 126.1592740  69.3449640 141.3139900 126.6446940  68.3948000
 127.0709570 133.4325710  72.9027910 126.9507170 134.1587800  72.2909180
 126.7610460 132.6628620  72.4255820 142.5071460 141.5592100  86.2974960
 142.9831180 142.0374990  86.9764040 143.1278620 141.4909590  85.5720460
 124.7094940 136.6040850  78.7096550 124.7875360 136.7389620  77.7652270
 125.3236620 135.8956740  78.9024670 125.9542570 138.3041040  75.1202730
 125.5470650 138.4455630  74.2656330 126.8455580 138.0201200  74.9173940
 141.9104710 138.7504950  83.4574970 142.0367770 138.5116830  82.5392150
 141.9526090 137.9189490  83.9297050 135.7721450 142.4532950  82.0269780
 136.2866120 142.3640960  82.8292210 134.9290530 142.7992650  82.3197690
 137.7475850 142.7388290  71.4553780 137.5876990 142.4491230  72.3535610
 137.5822560 141.9628420  70.9199010 130.2264230 142.5186820  73.2325400
 130.0506710 141.6022360  73.0193200 129.3719970 142.8774110  73.4723200
 137.4501980 140.2475850  70.0151780 136.7567140 140.2453140  69.3554060
 138.1924840 139.8235170  69.5845950 137.0151910 141.8738560  74.0900270
 137.4708860 141.0927940  74.4038890 137.3544430 142.5845380  74.6341450
 141.7628720 130.8037410  84.4224710 141.1472990 131.3117080  83.8940170
 141.4425140 129.9035740  84.3650650 124.7654460 137.6455020  81.2491010
 124.9285500 137.1760380  80.4310380 125.2306910 137.1378580  81.9139850
 129.5373230 126.7760780  76.2851580 129.0941380 127.5570320  75.9536100
 130.0958220 127.0990670  76.9922520 133.8243040 129.6429300  81.8886900
 133.3622410 129.8512320  82.7006840 133.4221150 128.8288650  81.5857570
 138.8247550 130.8638250  83.0183560 137.9741140 130.5644000  83.3392630
 138.6649340 131.1080260  82.1067380 135.9197260 132.3640000  85.1182350
 136.2450670 131.5303750  84.7784580 136.7077590 132.8868520  85.2660680
 132.6532050 126.3971480  71.1657410 132.0286230 126.3931350  71.8910720
 132.5662170 125.5302440  70.7693380 131.5749130 127.3208110  78.1441180
 131.8721460 128.2270940  78.0633200 132.1234690 126.8326890  77.5300750
 129.3287450 131.8994350  74.0132830 129.1028370 131.6831520  74.9179450
 128.5479980 132.3322810  73.6678800 136.5585210 131.9057720  72.6123480
 135.9594100 132.6293520  72.4287100 137.1064820 131.8434500  71.8299930
 131.7686660 132.7979930  84.6793100 131.6730260 131.8574660  84.5293500
 132.6118640 133.0195000  84.2841170 135.1650080 130.5421260  74.6426760
 135.5579650 130.8593460  73.8295450 135.5266930 129.6633140  74.7571280
 126.8997200 129.2093600  82.8326880 126.5060590 130.0568810  83.0399660
 126.2115600 128.5719970  83.0235520 133.4742250 129.2928570  85.9023620
 132.7840570 129.1000770  86.5369710 134.2174550 129.5763210  86.4347920
 124.2014250 127.1322060  76.8656960 123.9127300 127.7024920  77.5781940
 124.9460010 126.6526510  77.2288190 124.3884480 131.0742180  68.0759680
 124.3059150 132.0172940  68.2174670 124.0367540 130.9317090  67.1972030
 135.7505220 133.1327010  78.7377540 135.0186340 133.6413820  79.0867640
 135.3529560 132.3156990  78.4366320 132.1882610 129.8081210  77.1430030
 132.1918670 129.3671160  76.2934570 133.0833730 130.1298540  77.2501850
 128.0384990 129.6907700  76.1024240 127.6985040 130.1682930  76.8591290
 127.2762310 129.2372820  75.7425340 132.2502760 130.8093290  70.1336790
 132.3715580 130.7679770  71.0822610 131.8651270 131.6717440  69.9783520
 136.2131130 128.5860690  78.1500480 136.2303870 129.0369340  78.9942330
 135.9646710 127.6866330  78.3633920 131.2624260 133.1194430  69.5320090
 130.6941160 132.6712680  68.9056000 131.9713260 133.4787210  68.9985240
 139.6401880 125.9992870  83.9886860 139.9647650 125.2682530  84.5144840
 139.6758390 125.6806510  83.0867850 126.3393440 137.0206450  83.4086820
 125.9548230 136.3800120  84.0069780 126.6505630 137.7242570  83.9781550
 132.4890580 133.8682990  78.8895440 132.8560710 133.3941560  79.6356780
 132.2995640 134.7424560  79.2303780 125.3531070 128.6126680  75.0188910
 125.0677990 128.2482350  75.8567530 125.2909930 127.8807140  74.4052050
 130.2789950 132.9091630  81.2079650 129.9747020 133.7883610  81.4330010
 131.2336410 132.9691420  81.2437090 128.8071740 137.1152620  71.8046500
 128.0334000 136.5750240  71.6445220 129.5366370 136.5959230  71.4664260
 139.5659720 136.1117980  77.5972890 140.2858840 136.6073270  77.2069000
 139.3641540 135.4335870  76.9526760 135.0269660 127.5055940  71.7402280
 134.2134270 127.0069110  71.6647590 134.8331610 128.3454190  71.3238630
 134.9478520 136.1827040  83.4841890 134.8815830 135.2622710  83.2299480
 134.3183660 136.2802480  84.1986530 137.7418050 131.8775590  70.0364440
 138.6297670 132.1892820  69.8615780 137.7123140 131.0047840  69.6445020
 128.8509140 136.7833000  75.4425310 129.3687810 135.9801260  75.3882200
 128.3993160 136.7212140  76.2842140 133.7378640 138.0499280  70.7152610
 134.0794340 138.7941510  70.2195930 132.9091350 138.3630400  71.0777440
 126.3353680 133.7494370  82.3551010 125.9768620 134.4148220  82.9424350
 126.0408240 132.9177920  82.7263630 129.5366800 134.2078610  85.2390560
 129.2366940 134.3535790  84.3418380 130.3078040 133.6483900  85.1463950
 134.8795250 139.0047610  83.2345690 134.8939790 138.0728570  83.0164600
 134.1720350 139.0907370  83.8735460 140.0132320 133.1887430  69.5044300
 139.9296040 133.6201650  68.6540740 140.7326510 133.6485780  69.9371120
 141.0906460 135.6454950  82.5814270 140.3654650 136.2383730  82.3843660
 141.6181920 135.6378490  81.7827640 141.0419570 140.0429690  72.2326430
 140.3995730 139.3885310  72.5070150 140.6550230 140.4484780  71.4567100
 136.6206050 137.3715120  76.0798120 136.9729870 136.7743250  75.4199490
 135.7368380 137.0459350  76.2506370 132.7069330 138.1312810  73.4868530
 133.3940460 138.6782020  73.8676120 131.9201750 138.6753540  73.5218140
 124.8461730 133.7485630  68.9785610 125.7156580 134.0310430  69.2621530
 124.3552050 134.5621500  68.8634420 132.0096540 135.1358840  73.0993890
 132.4659320 135.9464090  73.3254080 131.6584750 134.8181980  73.9312380
 134.3129150 140.6465180  80.3286190 134.9571370 140.8524560  81.0059610
 134.6758590 139.8853580  79.8757040 127.9108320 125.4796490  73.5716410
 127.7822950 125.4714390  74.5201330 127.0870340 125.8179580  73.2207420
 135.5861230 138.6497530  79.0463640 136.2283460 137.9490690  79.1595810
 136.1110580 139.4295970  78.8660530 139.4316950 138.9346150  68.7702780
 139.2054530 138.2176590  69.3627420 139.0413150 138.6858590  67.9324530
 137.3598850 139.4492430  82.2499700 137.6955090 140.0359120  82.9277620
 136.4399190 139.3185140  82.4797490 125.2132980 142.9613010  69.5447240
 125.5730620 143.5602350  68.8904510 125.0725320 143.5072900  70.3182270
 124.9102250 127.2387610  83.0323110 124.1960770 127.4384530  83.6375720
 125.3297290 126.4627180  83.4037910 139.0133200 136.8518090  70.4316940
 138.7254900 137.3130780  71.2194820 139.8085370 136.3915860  70.7001160
 125.1974840 141.2267870  84.0189640 125.3065960 140.2862610  83.8785030
 124.5455400 141.4922620  83.3703370 133.1887430 139.4983760  85.4187760
 132.8684300 138.7793000  85.9633450 132.5145790 140.1738830  85.4923820
 131.2301600 140.3444210  70.3620910 131.2211700 141.0773900  69.7465420
 130.3099960 140.0975790  70.4547870 126.8308240 135.5659100  71.1067670
 126.2236190 136.3058000  71.1162970 127.3057590 135.6558460  70.2805870
 136.4041030 129.7309920  80.7824560 136.7721850 128.9105130  81.1104130
 135.5439230 129.7911810  81.1980210 139.7703060 128.6866860  71.5912120
 139.1416220 128.7912530  70.8770350 139.2754980 128.9063640  72.3806000
 134.2161200 140.4072450  69.0246100 134.3173180 140.2036440  68.0948080
 133.3162940 140.1530730  69.2293880 131.7387090 130.9652810  73.0070000
 131.0303240 131.4339150  73.4483610 132.0231570 130.3074820  73.6415190
 133.3643020 132.3849510  81.0062530 133.8628270 132.8595330  81.6714380
 133.5065970 131.4613030  81.2132560 135.7702520 127.6903470  74.4465790
 135.6470300 127.7089600  73.4975300 136.7187080 127.7382410  74.5664190
 132.8579310 142.9258770  73.7193770 133.1120810 142.8880160  72.7973140
 131.9091790 142.7992100  73.7122020 129.9422110 129.2737890  70.3820710
 130.7912640 129.7108040  70.3160900 129.5753380 129.5858150  71.2092770
 140.5709880 128.6017470  81.8490920 140.0683480 129.3422870  82.1884730
 141.3866540 128.9901470  81.5327710 138.8631890 133.8450650  75.2952280
 137.9222030 133.8600880  75.4699970 139.1775960 133.0586610  75.7412580
 128.8413530 135.5270250  68.8556240 129.6076800 135.4151610  69.4181670
 128.9188220 134.8308220  68.2033010 127.5360290 132.9595320  69.5389130
 127.6163880 132.0122830  69.6506530 128.4280040 133.2902200  69.6449790
 140.8657470 141.0159500  76.9706540 140.9904890 141.8390670  77.4430350
 141.7323030 140.8050230  76.6230690 128.3375000 143.1090710  76.6423670
 129.0737480 142.5606170  76.9132240 128.7215920 143.9746720  76.5029660
 125.2220480 139.1764280  72.5165180 124.2960260 139.4185420  72.5070590
 125.6876910 140.0038540  72.3949930 127.3433280 142.2936780  85.8309250
 128.1446010 142.6148830  86.2444650 126.8285100 141.9332360  86.5529160
 131.4477310 142.2821020  68.4649240 132.2405920 142.5709850  68.0131030
 130.9281660 141.8513190  67.7861720 136.1797910 138.4016650  85.7784660
 135.5736070 138.4248250  85.0380410 135.8752020 137.6699690  86.3151910
 137.6098280 142.1296940  84.3894070 138.5620030 142.0454960  84.3394310
 137.4626500 142.7938650  85.0627860 140.5007480 141.5091150  69.8885980
 140.2148990 141.0956290  69.0740160 140.3027030 142.4378860  69.7686500
 125.0631090 134.7810240  84.7745300 125.5670110 134.2017520  85.3461530
 124.3238510 135.0650470  85.3121670 131.9654710 137.5024430  68.3291590
 131.8605350 136.8876780  69.0552970 131.7978930 136.9790320  67.5454600
 132.1169030 136.1881230  84.3080820 131.3514700 136.7566230  84.2235490
 132.2984990 135.8957440  83.4149050 135.2057440 136.5644460  68.9333580
 134.6567540 137.0113760  69.5776320 135.8276700 136.0593710  69.4571250
 139.2592380 137.9186560  84.8655840 140.0001850 138.2562320  84.3623300
 138.4965060 138.0878620  84.3125610 127.0954170 132.9239830  85.6695370
 127.1359510 132.6253700  86.5780600 127.9499670 133.3247440  85.5102890
 130.8732560 135.5235380  70.8298880 131.2948980 135.3575250  71.6730270
 130.9983400 134.7135610  70.3354020 129.0359980 131.5031930  83.6369860
 128.5056440 131.0122880  83.0093200 129.7048050 131.9316130  83.1027790
 133.3860200 134.5472990  68.0775980 133.9065860 133.8322010  67.7117130
 134.0328600 135.1858860  68.3776490 137.9338040 135.9701390  83.4011050
 138.3479060 136.1246470  84.2501470 136.9989040 136.0956610  83.5636830
 138.4060210 133.3097550  85.4050200 138.9880980 132.5549870  85.3170680
 138.5821980 133.8404990  84.6281680 129.5232280 128.4694300  83.7167150
 129.4289150 127.8515050  82.9918020 128.9429670 129.1960590  83.4897060
 132.2893720 127.0267540  80.7494540 131.8411020 127.0491800  79.9040090
 131.6558920 126.6286560  81.3464840 132.6953270 135.9221870  81.3706980
 133.1141380 136.7654600  81.1983220 131.7761900 136.0593910  81.1413760
 135.0317170 133.6538050  82.7544820 135.1513380 133.0579190  83.4939660
 135.8911170 133.6907740  82.3346120 137.3705070 134.2075240  81.3307330
 136.8440290 134.7317860  80.7272470 137.7136410 134.8402630  81.9617060
 129.7691460 131.5968610  67.7757040 129.5680520 130.7335970  68.1370380
 129.5983510 131.5101970  66.8378640 130.5460690 142.2274880  82.4864710
 130.0081780 142.9520940  82.1673410 130.7994650 141.7505220  81.6962050
 131.7985940 130.1959400  84.0120640 132.3885630 129.8875250  84.6998460
 130.9806180 129.7239150  84.1680540 136.6179370 129.8125210  84.2453660
 135.9294890 129.1506750  84.1803650 137.3385390 129.3663480  84.6902120
 137.2479770 126.4076840  70.3043920 137.5282060 125.5644740  70.6603340
 136.4745500 126.6399950  70.8182670 128.5674260 128.6969230  67.7634920
 128.8700160 128.7036660  66.8554070 129.3068850 128.3467090  68.2602580
 133.4022900 143.4626090  82.7451360 133.3281600 144.3661230  83.0523730
 132.5001740 143.1437990  82.7173430 131.7859190 127.6403850  68.7491120
 131.4381190 126.9627840  68.1693570 131.9871960 127.1793360  69.5634510
 133.9508230 142.6284600  70.3677720 134.8459020 142.9669570  70.3896480
 133.9825860 141.9064010  69.7402000 127.5904390 138.0011650  68.5964720
 128.0279260 138.5441320  69.2522300 128.0752120 137.1758600  68.6061060
 124.8050190 140.7900680  76.0484980 125.1353200 139.9221740  75.8163620
 125.2341190 140.9959200  76.8789940 129.4012110 139.1209690  73.7086950
 129.1007650 138.9974660  74.6090860 129.2949600 138.2618280  73.3002680
 125.2940400 141.6571270  78.7866610 124.8571390 141.8372070  79.6190760
 125.8618080 142.4145890  78.6448330 140.9302580 141.1588270  83.0743920
 140.3304570 141.2180830  82.3307840 141.0596480 140.2193250  83.2040770
 142.1704030 138.9006090  68.4113630 141.3396990 138.9682740  68.8820860
 142.3475860 139.7910210  68.1080490 141.6260490 135.6453570  70.9147830
 142.3879400 136.2150220  71.0207520 141.6414860 135.0780770  71.6856140
 125.1264830 134.1691500  75.1455490 124.4713670 133.9003140  74.5015190
 125.9642780 134.0595980  74.6957470 142.6320460 136.5003670  75.7589760
 143.0029290 135.7170990  75.3525730 143.2722390 137.1892770  75.5807060
 139.6154220 137.8840250  81.1720080 138.8014060 138.3137410  81.4345870
 140.0228420 138.4958660  80.5589130 141.6779660 135.9387940  68.0720350
 141.9528500 136.8466820  67.9439570 141.4890400 135.8750470  69.0082340
 138.0755270 128.9632790  69.3673980 138.4940150 128.7763770  68.5270640
 137.7691330 128.1111840  69.6776910 141.5745000 133.8756930  73.0649780
 141.1988600 133.1084860  72.6331070 140.8448120 134.2579630  73.5524710
 126.1640760 134.5544070  79.6858830 126.5313800 134.4671470  80.5654850
 125.5951580 133.7910620  79.5865690 140.9644620 133.0228450  82.6989300
 140.7330710 132.7941200  81.7987250 141.2249170 133.9428000  82.6534190
 125.7156760 131.4653160  83.5917250 124.8212810 131.4319920  83.9310960
 126.2554310 131.6639950  84.3568500 139.4032690 128.2484880  85.4769000
 140.2802870 128.2568280  85.8603000 139.4153530 127.5115720  84.8661350
 124.3402910 131.3790430  71.0880820 123.4366990 131.6420630  70.9132480
 124.8243530 131.6501600  70.3080780 140.8495960 132.1014420  76.3657020
 141.3733440 131.6077070  75.7347190 141.4355380 132.2364780  77.1104590
 141.0285680 132.1854290  79.8876570 140.0788390 132.1517830  80.0021560
 141.2098690 133.0954400  79.6526340 126.8830120 130.4355970  68.9975200
 127.5921820 130.0139190  68.5122480 126.1670060 130.5031200  68.3658550
 126.5304280 126.4895300  68.0377850 127.2532410 127.0304240  68.3559070
 126.8028800 126.2158720  67.1619390 140.3395930 131.3587770  72.3049430
 140.8355050 131.1258640  73.0898310 140.1412000 130.5199610  71.8887070
 126.2196470 125.7401490  77.9400470 126.8672660 125.1898870  77.4995630
 126.6398310 125.9944640  78.7616280 141.7683090 129.9948720  74.8387110
 141.6582370 129.8404760  75.7769380 142.5290680 129.4669660  74.5962520
 140.1148810 125.9342850  81.2970110 140.7521030 126.5476990  81.6629300
 140.2623700 125.9703510  80.3519340 142.6573360 127.8256640  68.0793250
 143.5822670 127.6937820  67.8711540 142.6349150 127.9049460  69.0329700
 142.7311850 128.5967300  70.7049960 141.9363350 128.5312420  71.2342870
 142.9355130 129.5317940  70.6935310 139.6730270 142.6358850  74.6988350
 140.2689340 142.3143420  74.0222770 139.9308420 142.1630670  75.4901620
 125.9728470 125.8957160  80.6825790 125.6243290 126.3520980  81.4483970
 125.6416170 125.0014290  80.7648220 127.5792840 139.0676760  84.8478980
 127.5362470 138.6969670  85.7293440 127.7103850 140.0054330  84.9880800
 131.2798870 140.6236350  80.4488700 131.0390230 140.8910910  79.5619220
 132.2201510 140.7942080  80.5039560 133.4853290 127.0869040  84.2045210
 133.4242180 127.6790870  84.9540620 134.4253670 126.9795000  84.0595470
 136.1227850 126.7439100  83.8437500 136.7368260 127.0618390  83.1818580
 136.6677410 126.2587690  84.4633360 142.5403030 142.6430730  81.2499340
 142.0461310 143.0399600  80.5326470 141.9316320 142.0179940  81.6436620
 126.6449110 125.4233360  83.9576560 127.1932100 125.2421410  83.1942670
 126.7104420 124.6327470  84.4932870 127.4180870 142.0139010  81.9676760
 126.8241190 141.8823710  82.7066800 127.4104710 141.1777150  81.5018860
 136.8635890 125.3071240  80.1706790 135.9895730 125.6406350  79.9679720
 136.7546640 124.8344420  80.9958660 137.7707870 127.5142110  81.5548510
 137.4421230 126.6993870  81.1750240 138.7190170 127.4711920  81.4314200
 140.2242480 143.2854150  78.5286080 139.7645450 144.0369960  78.1544100
 139.5954940 142.5660620  78.4700880 127.0493100 139.3797390  80.9184800
 126.3227160 138.7602680  80.8510750 127.1102250 139.7738000  80.0482880
 130.6538200 141.5942390  77.7034210 131.1703220 140.9829750  77.1782470
 131.3035580 142.0971170  78.1945220 133.3933700 142.4850880  78.5303190
 133.6811510 142.2305180  77.6536200 133.9056920 141.9328240  79.1208760
 134.6110710 126.2241080  79.1099700 133.8282500 126.6986580  79.3896460
 134.3173640 125.3195910  79.0012880 139.1631780 126.9264180  77.1548790
 139.6039870 126.8709280  76.3070390 138.8939370 127.8422190  77.2258970
 141.0270350 126.5579420  75.1657610 140.9658750 125.6140640  75.0188630
 141.8062380 126.6659510  75.7111070 125.3323100 142.6971780  74.1281560
 125.1645140 142.0642460  74.8263450 124.4657610 142.9031180  73.7775750
 125.9551120 126.5288560  71.6313420 126.7130480 126.6417440  71.0577450
 125.4928290 127.3657760  71.5856850 132.4964930 128.6427830  74.6215730
 131.6839440 128.2684720  74.2811610 133.0006570 127.8872910  74.9236920
 136.9989910 125.3070280  75.8598800 137.6019280 125.8790490  76.3347320
 136.2582900 125.8709720  75.6372700 140.1424510 125.7091840  71.1339080
 140.3375140 126.6075290  71.4006510 139.3554380 125.4778920  71.6272030
 126.9385800 141.3905010  71.5731700 126.4133420 141.7713040  70.8693660
 126.8630380 142.0155780  72.2941410 128.3276270 127.0552610  70.1715390
 128.8569030 126.2682410  70.0423340 128.9604590 127.7343800  70.4050920
 130.5214110 126.7927750  73.2260780 129.8916850 126.0915060  73.3930910
 129.9819250 127.5531880  73.0093940 133.4606060 143.4066980  85.8971390
 134.3873370 143.1711250  85.9407350 133.4456490 144.2338980  85.4157420
 141.6951120 142.9492550  72.8945640 141.8703310 142.2630290  72.2506560
 140.9972690 143.4739600  72.5022310 130.6469670 126.0711730  85.6613270
 130.3653940 126.5745330  84.8974090 131.0289370 125.2733480  85.2955400
 129.5378770 143.3387390  70.4480950 130.2697590 143.0546670  69.9004840
 129.7972440 143.1000670  71.3380330 128.6993560 139.4552120  70.4527280
 128.0702440 139.9237220  71.0013110 128.8141390 138.6101340  70.8873470
 137.2485130 125.4865310  86.2393740 137.1350580 125.8059920  87.1345260
 138.0654870 125.8877820  85.9431020 140.0283620 142.6336840  85.7212430
 140.8208940 142.1386070  85.5138390 140.3216770 143.3126980  86.3288040
 136.1543280 133.5057780  56.6028480 136.0737330 132.5912390  56.3320190
 135.7407700 134.0024850  55.8968190 134.2861320 135.2836800  58.4837750
 133.5103420 134.8037240  58.7736320 134.9374250 134.6042450  58.3093910
 128.3027150 135.5956610  59.3613510 127.4712030 135.3405320  59.7610020
 128.9108130 135.6667380  60.0971430 138.3068750 139.6896990  57.2636880
 137.8450280 138.9184230  57.5924050 139.1194300 139.7163060  57.7689330
 128.2828410 139.6296700  59.5571530 128.5856450 138.7394440  59.3781750
 129.0272000 140.1866920  59.3293780 126.7119100 130.5558500  53.1455900
 125.8235800 130.8974470  53.0435780 126.9960290 130.3558820  52.2536730
 124.6752110 133.1564150  59.0295600 125.2468220 132.3886350  59.0299240
 124.6753650 133.4552910  58.1202210 134.5332060 141.9755000  56.8840870
 133.9143500 142.4312500  56.3135310 135.3883840 142.1306460  56.4830570
 133.7270310 137.9593990  58.4907910 133.6578590 137.0183930  58.3297040
 134.4890170 138.0495400  59.0630480 125.9176980 128.5648510  60.8164530
 125.7379820 127.6674260  61.0967290 125.5157060 129.1120380  61.4911480
 134.7575480 130.7664370  58.7176840 135.1340300 129.8936250  58.6050510
 134.6594990 131.1023070  57.8267280 128.8880490 129.1390000  54.1794280
 128.9947240 130.0393730  54.4863040 127.9772850 129.0907970  53.8888930
 138.5399600 128.2614810  55.6505180 139.3609220 127.7711380  55.6930660
 138.5733680 128.8512470  56.4037020 126.5363650 131.0609010  59.4246870
 127.2173760 131.3247380  60.0434270 126.2211700 130.2209880  59.7584880
 130.7288220 132.1076370  58.5119460 131.2366440 132.6057340  59.1524480
 131.2601460 131.3311570  58.3358820 142.8299150 130.2781560  62.2148810
 142.1251320 130.6663270  61.6963920 143.0957070 130.9731850  62.8169740
 129.0124320 126.7474930  62.7782880 129.0142760 127.2647320  61.9728780
 128.1828630 126.2705110  62.7552810 135.3995410 136.8594240  54.2772780
 134.7812680 137.3243690  53.7135500 135.9118660 137.5521720  54.6942290
 130.2627170 136.3870110  60.9556380 129.9296550 137.0139030  61.5977450
 130.4393850 136.9131990  60.1758050 138.7761080 130.2015190  58.4232720
 138.0716650 130.4900080  59.0035830 139.1373240 131.0115300  58.0632280
 128.6939650 128.4584890  60.7853330 129.0356460 129.3026940  60.4907200
 127.7555460 128.6068630  60.9018670 129.4746270 138.3550910  62.7705560
 130.0920270 139.0301990  62.4890010 128.6139390 138.7638890  62.6793060
 124.7678610 137.5450770  51.6512410 124.3906590 138.0337870  50.9197310
 125.0251680 138.2176050  52.2818940 140.3923860 139.8190320  60.6860200
 139.7087380 140.4889430  60.6776870 140.9318150 140.0170970  59.9205060
 141.8448000 129.6469980  58.8141930 140.8972910 129.6808960  58.9457360
 142.1697990 130.4608930  59.1991290 132.3767540 125.9467160  57.1097920
 132.6842520 125.3914050  56.3933420 131.4468240 126.0811620  56.9270910
 137.9282600 141.6634450  59.4005380 137.9409760 141.2596740  58.5327640
 137.3757820 142.4381740  59.2966810 139.2228020 138.3850670  54.4895550
 139.1124350 137.4425000  54.6144970 139.2196270 138.7466310  55.3758310
 137.3268040 136.5664290  60.7287990 137.7436830 136.3524400  59.8941450
 138.0507860 136.8237080  61.2996610 134.7648300 134.0115990  53.8458040
 133.8377580 133.9453370  54.0746510 134.9173120 134.9496120  53.7313280
 134.7517380 130.2832990  50.8425200 133.8121050 130.4446950  50.9277660
 135.0700640 131.0018670  50.2961190 141.2730140 134.9651510  60.8204230
 140.4448770 135.0344600  60.3454360 141.8680620 135.5505820  60.3520060
 138.7945590 135.5736290  54.3493290 138.1758010 135.2355840  53.7019590
 138.7770040 134.9296050  55.0572480 138.2372150 131.7520830  61.7659100
 137.8243330 132.5774540  62.0199090 137.5048100 131.1665870  61.5735460
 130.3704940 134.5380730  56.6277770 129.9661940 133.8257980  56.1323670
 130.4568060 134.1933970  57.5165810 130.8386640 138.2248290  58.7916980
 130.5414930 137.6193760  58.1124760 131.7886460 138.2625600  58.6806340
 129.0833560 131.3123940  60.4076810 129.6348150 131.4219280  59.6330060
 129.5977070 131.6861540  61.1232040 138.9272250 141.7980160  62.4540080
 138.4502810 142.6052350  62.2612690 138.2434040 141.1458490  62.6066290
 129.9305070 137.9629980  65.4424780 129.0333600 138.1869950  65.6898180
 129.9557940 138.0864920  64.4936180 136.9710290 134.8123100  51.3566040
 137.4103570 133.9745530  51.2103860 137.6838710 135.4452500  51.4430180
 128.7576290 134.8343300  64.0182150 128.6184060 135.7066100  64.3869550
 127.8757650 134.4916110  63.8730090 135.0805670 139.7519170  55.3247280
 135.5201580 140.4943500  54.9102670 135.0192560 139.9945740  56.2486240
 130.5556640 140.7765000  66.2267300 130.5272070 141.1807950  65.3595730
 130.3921610 139.8475360  66.0638900 140.5527430 126.0665910  49.6707080
 140.2400090 126.1592740  50.5706150 141.3139900 126.6446940  49.6204510
 127.0709570 133.4325710  54.1284420 126.9507170 134.1587800  53.5165690
 126.7610460 132.6628620  53.6512330 142.5071460 141.5592100  67.5231470
 142.9831180 142.0374990  68.2020550 143.1278620 141.4909590  66.7976970
 124.7094940 136.6040850  59.9353060 124.7875360 136.7389620  58.9908780
 125.3236620 135.8956740  60.1281180 125.9542570 138.3041040  56.3459240
 125.5470650 138.4455630  55.4912840 126.8455580 138.0201200  56.1430450
 141.9104710 138.7504950  64.6831480 142.0367770 138.5116830  63.7648660
 141.9526090 137.9189490  65.1553560 135.7721450 142.4532950  63.2526290
 136.2866120 142.3640960  64.0548720 134.9290530 142.7992650  63.5454200
 137.7475850 142.7388290  52.6810290 137.5876990 142.4491230  53.5792120
 137.5822560 141.9628420  52.1455520 130.2264230 142.5186820  54.4581910
 130.0506710 141.6022360  54.2449710 129.3719970 142.8774110  54.6979710
 137.4501980 140.2475850  51.2408290 136.7567140 140.2453140  50.5810570
 138.1924840 139.8235170  50.8102460 137.0151910 141.8738560  55.3156780
 137.4708860 141.0927940  55.6295400 137.3544430 142.5845380  55.8597960
 141.7628720 130.8037410  65.6481220 141.1472990 131.3117080  65.1196680
 141.4425140 129.9035740  65.5907160 124.7654460 137.6455020  62.4747520
 124.9285500 137.1760380  61.6566890 125.2306910 137.1378580  63.1396360
 129.5373230 126.7760780  57.5108090 129.0941380 127.5570320  57.1792610
 130.0958220 127.0990670  58.2179030 133.8243040 129.6429300  63.1143410
 133.3622410 129.8512320  63.9263350 133.4221150 128.8288650  62.8114080
 138.8247550 130.8638250  64.2440070 137.9741140 130.5644000  64.5649140
 138.6649340 131.1080260  63.3323890 135.9197260 132.3640000  66.3438860
 136.2450670 131.5303750  66.0041090 136.7077590 132.8868520  66.4917190
 132.6532050 126.3971480  52.3913920 132.0286230 126.3931350  53.1167230
 132.5662170 125.5302440  51.9949890 131.5749130 127.3208110  59.3697690
 131.8721460 128.2270940  59.2889710 132.1234690 126.8326890  58.7557260
 129.3287450 131.8994350  55.2389340 129.1028370 131.6831520  56.1435960
 128.5479980 132.3322810  54.8935310 136.5585210 131.9057720  53.8379990
 135.9594100 132.6293520  53.6543610 137.1064820 131.8434500  53.0556440
 131.7686660 132.7979930  65.9049610 131.6730260 131.8574660  65.7550010
 132.6118640 133.0195000  65.5097680 135.1650080 130.5421260  55.8683270
 135.5579650 130.8593460  55.0551960 135.5266930 129.6633140  55.9827790
 126.8997200 129.2093600  64.0583390 126.5060590 130.0568810  64.2656170
 126.2115600 128.5719970  64.2492030 133.4742250 129.2928570  67.1280130
 132.7840570 129.1000770  67.7626220 134.2174550 129.5763210  67.6604430
 124.2014250 127.1322060  58.0913470 123.9127300 127.7024920  58.8038450
 124.9460010 126.6526510  58.4544700 124.3884480 131.0742180  49.3016190
 124.3059150 132.0172940  49.4431180 124.0367540 130.9317090  48.4228540
 135.7505220 133.1327010  59.9634050 135.0186340 133.6413820  60.3124150
 135.3529560 132.3156990  59.6622830 132.1882610 129.8081210  58.3686540
 132.1918670 129.3671160  57.5191080 133.0833730 130.1298540  58.4758360
 128.0384990 129.6907700  57.3280750 127.6985040 130.1682930  58.0847800
 127.2762310 129.2372820  56.9681850 132.2502760 130.8093290  51.3593300
 132.3715580 130.7679770  52.3079120 131.8651270 131.6717440  51.2040030
 136.2131130 128.5860690  59.3756990 136.2303870 129.0369340  60.2198840
 135.9646710 127.6866330  59.5890430 131.2624260 133.1194430  50.7576600
 130.6941160 132.6712680  50.1312510 131.9713260 133.4787210  50.2241750
 139.6401880 125.9992870  65.2143370 139.9647650 125.2682530  65.7401350
 139.6758390 125.6806510  64.3124360 126.3393440 137.0206450  64.6343330
 125.9548230 136.3800120  65.2326290 126.6505630 137.7242570  65.2038060
 132.4890580 133.8682990  60.1151950 132.8560710 133.3941560  60.8613290
 132.2995640 134.7424560  60.4560290 125.3531070 128.6126680  56.2445420
 125.0677990 128.2482350  57.0824040 125.2909930 127.8807140  55.6308560
 130.2789950 132.9091630  62.4336160 129.9747020 133.7883610  62.6586520
 131.2336410 132.9691420  62.4693600 128.8071740 137.1152620  53.0303010
 128.0334000 136.5750240  52.8701730 129.5366370 136.5959230  52.6920770
 139.5659720 136.1117980  58.8229400 140.2858840 136.6073270  58.4325510
 139.3641540 135.4335870  58.1783270 135.0269660 127.5055940  52.9658790
 134.2134270 127.0069110  52.8904100 134.8331610 128.3454190  52.5495140
 134.9478520 136.1827040  64.7098400 134.8815830 135.2622710  64.4555990
 134.3183660 136.2802480  65.4243040 137.7418050 131.8775590  51.2620950
 138.6297670 132.1892820  51.0872290 137.7123140 131.0047840  50.8701530
 128.8509140 136.7833000  56.6681820 129.3687810 135.9801260  56.6138710
 128.3993160 136.7212140  57.5098650 133.7378640 138.0499280  51.9409120
 134.0794340 138.7941510  51.4452440 132.9091350 138.3630400  52.3033950
 126.3353680 133.7494370  63.5807520 125.9768620 134.4148220  64.1680860
 126.0408240 132.9177920  63.9520140 129.5366800 134.2078610  66.4647070
 129.2366940 134.3535790  65.5674890 130.3078040 133.6483900  66.3720460
 134.8795250 139.0047610  64.4602200 134.8939790 138.0728570  64.2421110
 134.1720350 139.0907370  65.0991970 140.0132320 133.1887430  50.7300810
 139.9296040 133.6201650  49.8797250 140.7326510 133.6485780  51.1627630
 141.0906460 135.6454950  63.8070780 140.3654650 136.2383730  63.6100170
 141.6181920 135.6378490  63.0084150 141.0419570 140.0429690  53.4582940
 140.3995730 139.3885310  53.7326660 140.6550230 140.4484780  52.6823610
 136.6206050 137.3715120  57.3054630 136.9729870 136.7743250  56.6456000
 135.7368380 137.0459350  57.4762880 132.7069330 138.1312810  54.7125040
 133.3940460 138.6782020  55.0932630 131.9201750 138.6753540  54.7474650
 124.8461730 133.7485630  50.2042120 125.7156580 134.0310430  50.4878040
 124.3552050 134.5621500  50.0890930 132.0096540 135.1358840  54.3250400
 132.4659320 135.9464090  54.5510590 131.6584750 134.8181980  55.1568890
 134.3129150 140.6465180  61.5542700 134.9571370 140.8524560  62.2316120
 134.6758590 139.8853580  61.1013550 127.9108320 125.4796490  54.7972920
 127.7822950 125.4714390  55.7457840 127.0870340 125.8179580  54.4463930
 135.5861230 138.6497530  60.2720150 136.2283460 137.9490690  60.3852320
 136.1110580 139.4295970  60.0917040 139.4316950 138.9346150  49.9959290
 139.2054530 138.2176590  50.5883930 139.0413150 138.6858590  49.1581040
 137.3598850 139.4492430  63.4756210 137.6955090 140.0359120  64.1534130
 136.4399190 139.3185140  63.7054000 125.2132980 142.9613010  50.7703750
 125.5730620 143.5602350  50.1161020 125.0725320 143.5072900  51.5438780
 124.9102250 127.2387610  64.2579620 124.1960770 127.4384530  64.8632230
 125.3297290 126.4627180  64.6294420 139.0133200 136.8518090  51.6573450
 138.7254900 137.3130780  52.4451330 139.8085370 136.3915860  51.9257670
 125.1974840 141.2267870  65.2446150 125.3065960 140.2862610  65.1041540
 124.5455400 141.4922620  64.5959880 133.1887430 139.4983760  66.6444270
 132.8684300 138.7793000  67.1889960 132.5145790 140.1738830  66.7180330
 131.2301600 140.3444210  51.5877420 131.2211700 141.0773900  50.9721930
 130.3099960 140.0975790  51.6804380 126.8308240 135.5659100  52.3324180
 126.2236190 136.3058000  52.3419480 127.3057590 135.6558460  51.5062380
 136.4041030 129.7309920  62.0081070 136.7721850 128.9105130  62.3360640
 135.5439230 129.7911810  62.4236720 139.7703060 128.6866860  52.8168630
 139.1416220 128.7912530  52.1026860 139.2754980 128.9063640  53.6062510
 134.2161200 140.4072450  50.2502610 134.3173180 140.2036440  49.3204590
 133.3162940 140.1530730  50.4550390 131.7387090 130.9652810  54.2326510
 131.0303240 131.4339150  54.6740120 132.0231570 130.3074820  54.8671700
 133.3643020 132.3849510  62.2319040 133.8628270 132.8595330  62.8970890
 133.5065970 131.4613030  62.4389070 135.7702520 127.6903470  55.6722300
 135.6470300 127.7089600  54.7231810 136.7187080 127.7382410  55.7920700
 132.8579310 142.9258770  54.9450280 133.1120810 142.8880160  54.0229650
 131.9091790 142.7992100  54.9378530 129.9422110 129.2737890  51.6077220
 130.7912640 129.7108040  51.5417410 129.5753380 129.5858150  52.4349280
 140.5709880 128.6017470  63.0747430 140.0683480 129.3422870  63.4141240
 141.3866540 128.9901470  62.7584220 138.8631890 133.8450650  56.5208790
 137.9222030 133.8600880  56.6956480 139.1775960 133.0586610  56.9669090
 128.8413530 135.5270250  50.0812750 129.6076800 135.4151610  50.6438180
 128.9188220 134.8308220  49.4289520 127.5360290 132.9595320  50.7645640
 127.6163880 132.0122830  50.8763040 128.4280040 133.2902200  50.8706300
 140.8657470 141.0159500  58.1963050 140.9904890 141.8390670  58.6686860
 141.7323030 140.8050230  57.8487200 128.3375000 143.1090710  57.8680180
 129.0737480 142.5606170  58.1388750 128.7215920 143.9746720  57.7286170
 125.2220480 139.1764280  53.7421690 124.2960260 139.4185420  53.7327100
 125.6876910 140.0038540  53.6206440 127.3433280 142.2936780  67.0565760
 128.1446010 142.6148830  67.4701160 126.8285100 141.9332360  67.7785670
 131.4477310 142.2821020  49.6905750 132.2405920 142.5709850  49.2387540
 130.9281660 141.8513190  49.0118230 136.1797910 138.4016650  67.0041170
 135.5736070 138.4248250  66.2636920 135.8752020 137.6699690  67.5408420
 137.6098280 142.1296940  65.6150580 138.5620030 142.0454960  65.5650820
 137.4626500 142.7938650  66.2884370 140.5007480 141.5091150  51.1142490
 140.2148990 141.0956290  50.2996670 140.3027030 142.4378860  50.9943010
 125.0631090 134.7810240  66.0001810 125.5670110 134.2017520  66.5718040
 124.3238510 135.0650470  66.5378180 131.9654710 137.5024430  49.5548100
 131.8605350 136.8876780  50.2809480 131.7978930 136.9790320  48.7711110
 132.1169030 136.1881230  65.5337330 131.3514700 136.7566230  65.4492000
 132.2984990 135.8957440  64.6405560 135.2057440 136.5644460  50.1590090
 134.6567540 137.0113760  50.8032830 135.8276700 136.0593710  50.6827760
 139.2592380 137.9186560  66.0912350 140.0001850 138.2562320  65.5879810
 138.4965060 138.0878620  65.5382120 127.0954170 132.9239830  66.8951880
 127.1359510 132.6253700  67.8037110 127.9499670 133.3247440  66.7359400
 130.8732560 135.5235380  52.0555390 131.2948980 135.3575250  52.8986780
 130.9983400 134.7135610  51.5610530 129.0359980 131.5031930  64.8626370
 128.5056440 131.0122880  64.2349710 129.7048050 131.9316130  64.3284300
 133.3860200 134.5472990  49.3032490 133.9065860 133.8322010  48.9373640
 134.0328600 135.1858860  49.6033000 137.9338040 135.9701390  64.6267560
 138.3479060 136.1246470  65.4757980 136.9989040 136.0956610  64.7893340
 138.4060210 133.3097550  66.6306710 138.9880980 132.5549870  66.5427190
 138.5821980 133.8404990  65.8538190 129.5232280 128.4694300  64.9423660
 129.4289150 127.8515050  64.2174530 128.9429670 129.1960590  64.7153570
 132.2893720 127.0267540  61.9751050 131.8411020 127.0491800  61.1296600
 131.6558920 126.6286560  62.5721350 132.6953270 135.9221870  62.5963490
 133.1141380 136.7654600  62.4239730 131.7761900 136.0593910  62.3670270
 135.0317170 133.6538050  63.9801330 135.1513380 133.0579190  64.7196170
 135.8911170 133.6907740  63.5602630 137.3705070 134.2075240  62.5563840
 136.8440290 134.7317860  61.9528980 137.7136410 134.8402630  63.1873570
 129.7691460 131.5968610  49.0013550 129.5680520 130.7335970  49.3626890
 129.5983510 131.5101970  48.0635150 130.5460690 142.2274880  63.7121220
 130.0081780 142.9520940  63.3929920 130.7994650 141.7505220  62.9218560
 131.7985940 130.1959400  65.2377150 132.3885630 129.8875250  65.9254970
 130.9806180 129.7239150  65.3937050 136.6179370 129.8125210  65.4710170
 135.9294890 129.1506750  65.4060160 137.3385390 129.3663480  65.9158630
 137.2479770 126.4076840  51.5300430 137.5282060 125.5644740  51.8859850
 136.4745500 126.6399950  52.0439180 128.5674260 128.6969230  48.9891430
 128.8700160 128.7036660  48.0810580 129.3068850 128.3467090  49.4859090
 133.4022900 143.4626090  63.9707870 133.3281600 144.3661230  64.2780240
 132.5001740 143.1437990  63.9429940 131.7859190 127.6403850  49.9747630
 131.4381190 126.9627840  49.3950080 131.9871960 127.1793360  50.7891020
 133.9508230 142.6284600  51.5934230 134.8459020 142.9669570  51.6152990
 133.9825860 141.9064010  50.9658510 127.5904390 138.0011650  49.8221230
 128.0279260 138.5441320  50.4778810 128.0752120 137.1758600  49.8317570
 124.8050190 140.7900680  57.2741490 125.1353200 139.9221740  57.0420130
 125.2341190 140.9959200  58.1046450 129.4012110 139.1209690  54.9343460
 129.1007650 138.9974660  55.8347370 129.2949600 138.2618280  54.5259190
 125.2940400 141.6571270  60.0123120 124.8571390 141.8372070  60.8447270
 125.8618080 142.4145890  59.8704840 140.9302580 141.1588270  64.3000430
 140.3304570 141.2180830  63.5564350 141.0596480 140.2193250  64.4297280
 142.1704030 138.9006090  49.6370140 141.3396990 138.9682740  50.1077370
 142.3475860 139.7910210  49.3337000 141.6260490 135.6453570  52.1404340
 142.3879400 136.2150220  52.2464030 141.6414860 135.0780770  52.9112650
 125.1264830 134.1691500  56.3712000 124.4713670 133.9003140  55.7271700
 125.9642780 134.0595980  55.9213980 142.6320460 136.5003670  56.9846270
 143.0029290 135.7170990  56.5782240 143.2722390 137.1892770  56.8063570
 139.6154220 137.8840250  62.3976590 138.8014060 138.3137410  62.6602380
 140.0228420 138.4958660  61.7845640 141.6779660 135.9387940  49.2976860
 141.9528500 136.8466820  49.1696080 141.4890400 135.8750470  50.2338850
 138.0755270 128.9632790  50.5930490 138.4940150 128.7763770  49.7527150
 137.7691330 128.1111840  50.9033420 141.5745000 133.8756930  54.2906290
 141.1988600 133.1084860  53.8587580 140.8448120 134.2579630  54.7781220
 126.1640760 134.5544070  60.9115340 126.5313800 134.4671470  61.7911360
 125.5951580 133.7910620  60.8122200 140.9644620 133.0228450  63.9245810
 140.7330710 132.7941200  63.0243760 141.2249170 133.9428000  63.8790700
 125.7156760 131.4653160  64.8173760 124.8212810 131.4319920  65.1567470
 126.2554310 131.6639950  65.5825010 139.4032690 128.2484880  66.7025510
 140.2802870 128.2568280  67.0859510 139.4153530 127.5115720  66.0917860
 124.3402910 131.3790430  52.3137330 123.4366990 131.6420630  52.1388990
 124.8243530 131.6501600  51.5337290 140.8495960 132.1014420  57.5913530
 141.3733440 131.6077070  56.9603700 141.4355380 132.2364780  58.3361100
 141.0285680 132.1854290  61.1133080 140.0788390 132.1517830  61.2278070
 141.2098690 133.0954400  60.8782850 126.8830120 130.4355970  50.2231710
 127.5921820 130.0139190  49.7378990 126.1670060 130.5031200  49.5915060
 126.5304280 126.4895300  49.2634360 127.2532410 127.0304240  49.5815580
 126.8028800 126.2158720  48.3875900 140.3395930 131.3587770  53.5305940
 140.8355050 131.1258640  54.3154820 140.1412000 130.5199610  53.1143580
 126.2196470 125.7401490  59.1656980 126.8672660 125.1898870  58.7252140
 126.6398310 125.9944640  59.9872790 141.7683090 129.9948720  56.0643620
 141.6582370 129.8404760  57.0025890 142.5290680 129.4669660  55.8219030
 140.1148810 125.9342850  62.5226620 140.7521030 126.5476990  62.8885810
 140.2623700 125.9703510  61.5775850 142.6573360 127.8256640  49.3049760
 143.5822670 127.6937820  49.0968050 142.6349150 127.9049460  50.2586210
 142.7311850 128.5967300  51.9306470 141.9363350 128.5312420  52.4599380
 142.9355130 129.5317940  51.9191820 139.6730270 142.6358850  55.9244860
 140.2689340 142.3143420  55.2479280 139.9308420 142.1630670  56.7158130
 125.9728470 125.8957160  61.9082300 125.6243290 126.3520980  62.6740480
 125.6416170 125.0014290  61.9904730 127.5792840 139.0676760  66.0735490
 127.5362470 138.6969670  66.9549950 127.7103850 140.0054330  66.2137310
 131.2798870 140.6236350  61.6745210 131.0390230 140.8910910  60.7875730
 132.2201510 140.7942080  61.7296070 133.4853290 127.0869040  65.4301720
 133.4242180 127.6790870  66.1797130 134.4253670 126.9795000  65.2851980
 136.1227850 126.7439100  65.0694010 136.7368260 127.0618390  64.4075090
 136.6677410 126.2587690  65.6889870 142.5403030 142.6430730  62.4755850
 142.0461310 143.0399600  61.7582980 141.9316320 142.0179940  62.8693130
 126.6449110 125.4233360  65.1833070 127.1932100 125.2421410  64.4199180
 126.7104420 124.6327470  65.7189380 127.4180870 142.0139010  63.1933270
 126.8241190 141.8823710  63.9323310 127.4104710 141.1777150  62.7275370
 136.8635890 125.3071240  61.3963300 135.9895730 125.6406350  61.1936230
 136.7546640 124.8344420  62.2215170 137.7707870 127.5142110  62.7805020
 137.4421230 126.6993870  62.4006750 138.7190170 127.4711920  62.6570710
 140.2242480 143.2854150  59.7542590 139.7645450 144.0369960  59.3800610
 139.5954940 142.5660620  59.6957390 127.0493100 139.3797390  62.1441310
 126.3227160 138.7602680  62.0767260 127.1102250 139.7738000  61.2739390
 130.6538200 141.5942390  58.9290720 131.1703220 140.9829750  58.4038980
 131.3035580 142.0971170  59.4201730 133.3933700 142.4850880  59.7559700
 133.6811510 142.2305180  58.8792710 133.9056920 141.9328240  60.3465270
 134.6110710 126.2241080  60.3356210 133.8282500 126.6986580  60.6152970
 134.3173640 125.3195910  60.2269390 139.1631780 126.9264180  58.3805300
 139.6039870 126.8709280  57.5326900 138.8939370 127.8422190  58.4515480
 141.0270350 126.5579420  56.3914120 140.9658750 125.6140640  56.2445140
 141.8062380 126.6659510  56.9367580 125.3323100 142.6971780  55.3538070
 125.1645140 142.0642460  56.0519960 124.4657610 142.9031180  55.0032260
 125.9551120 126.5288560  52.8569930 126.7130480 126.6417440  52.2833960
 125.4928290 127.3657760  52.8113360 132.4964930 128.6427830  55.8472240
 131.6839440 128.2684720  55.5068120 133.0006570 127.8872910  56.1493430
 136.9989910 125.3070280  57.0855310 137.6019280 125.8790490  57.5603830
 136.2582900 125.8709720  56.8629210 140.1424510 125.7091840  52.3595590
 140.3375140 126.6075290  52.6263020 139.3554380 125.4778920  52.8528540
 126.9385800 141.3905010  52.7988210 126.4133420 141.7713040  52.0950170
 126.8630380 142.0155780  53.5197920 128.3276270 127.0552610  51.3971900
 128.8569030 126.2682410  51.2679850 128.9604590 127.7343800  51.6307430
 130.5214110 126.7927750  54.4517290 129.8916850 126.0915060  54.6187420
 129.9819250 127.5531880  54.2350450 133.4606060 143.4066980  67.1227900
 134.3873370 143.1711250  67.1663860 133.4456490 144.2338980  66.6413930
 141.6951120 142.9492550  54.1202150 141.8703310 142.2630290  53.4763070
 140.9972690 143.4739600  53.7278820 130.6469670 126.0711730  66.8869780
 130.3653940 126.5745330  66.1230600 131.0289370 125.2733480  66.5211910
 129.5378770 143.3387390  51.6737460 130.2697590 143.0546670  51.1261350
 129.7972440 143.1000670  52.5636840 128.6993560 139.4552120  51.6783790
 128.0702440 139.9237220  52.2269620 128.8141390 138.6101340  52.1129980
 137.2485130 125.4865310  67.4650250 137.1350580 125.8059920  68.3601770
 138.0654870 125.8877820  67.1687530 140.0283620 142.6336840  66.9468940
 140.8208940 142.1386070  66.7394900 140.3216770 143.3126980  67.5544550
 136.1543280 133.5057780  37.8284990 136.0737330 132.5912390  37.5576700
 135.7407700 134.0024850  37.1224700 134.2861320 135.2836800  39.7094260
 133.5103420 134.8037240  39.9992830 134.9374250 134.6042450  39.5350420
 128.3027150 135.5956610  40.5870020 127.4712030 135.3405320  40.9866530
 128.9108130 135.6667380  41.3227940 138.3068750 139.6896990  38.4893390
 137.8450280 138.9184230  38.8180560 139.1194300 139.7163060  38.9945840
 128.2828410 139.6296700  40.7828040 128.5856450 138.7394440  40.6038260
 129.0272000 140.1866920  40.5550290 126.7119100 130.5558500  34.3712410
 125.8235800 130.8974470  34.2692290 126.9960290 130.3558820  33.4793240
 124.6752110 133.1564150  40.2552110 125.2468220 132.3886350  40.2555750
 124.6753650 133.4552910  39.3458720 134.5332060 141.9755000  38.1097380
 133.9143500 142.4312500  37.5391820 135.3883840 142.1306460  37.7087080
 133.7270310 137.9593990  39.7164420 133.6578590 137.0183930  39.5553550
 134.4890170 138.0495400  40.2886990 125.9176980 128.5648510  42.0421040
 125.7379820 127.6674260  42.3223800 125.5157060 129.1120380  42.7167990
 134.7575480 130.7664370  39.9433350 135.1340300 129.8936250  39.8307020
 134.6594990 131.1023070  39.0523790 128.8880490 129.1390000  35.4050790
 128.9947240 130.0393730  35.7119550 127.9772850 129.0907970  35.1145440
 138.5399600 128.2614810  36.8761690 139.3609220 127.7711380  36.9187170
 138.5733680 128.8512470  37.6293530 126.5363650 131.0609010  40.6503380
 127.2173760 131.3247380  41.2690780 126.2211700 130.2209880  40.9841390
 130.7288220 132.1076370  39.7375970 131.2366440 132.6057340  40.3780990
 131.2601460 131.3311570  39.5615330 142.8299150 130.2781560  43.4405320
 142.1251320 130.6663270  42.9220430 143.0957070 130.9731850  44.0426250
 129.0124320 126.7474930  44.0039390 129.0142760 127.2647320  43.1985290
 128.1828630 126.2705110  43.9809320 135.3995410 136.8594240  35.5029290
 134.7812680 137.3243690  34.9392010 135.9118660 137.5521720  35.9198800
 130.2627170 136.3870110  42.1812890 129.9296550 137.0139030  42.8233960
 130.4393850 136.9131990  41.4014560 138.7761080 130.2015190  39.6489230
 138.0716650 130.4900080  40.2292340 139.1373240 131.0115300  39.2888790
 128.6939650 128.4584890  42.0109840 129.0356460 129.3026940  41.7163710
 127.7555460 128.6068630  42.1275180 129.4746270 138.3550910  43.9962070
 130.0920270 139.0301990  43.7146520 128.6139390 138.7638890  43.9049570
 124.7678610 137.5450770  32.8768920 124.3906590 138.0337870  32.1453820
 125.0251680 138.2176050  33.5075450 140.3923860 139.8190320  41.9116710
 139.7087380 140.4889430  41.9033380 140.9318150 140.0170970  41.1461570
 141.8448000 129.6469980  40.0398440 140.8972910 129.6808960  40.1713870
 142.1697990 130.4608930  40.4247800 132.3767540 125.9467160  38.3354430
 132.6842520 125.3914050  37.6189930 131.4468240 126.0811620  38.1527420
 137.9282600 141.6634450  40.6261890 137.9409760 141.2596740  39.7584150
 137.3757820 142.4381740  40.5223320 139.2228020 138.3850670  35.7152060
 139.1124350 137.4425000  35.8401480 139.2196270 138.7466310  36.6014820
 137.3268040 136.5664290  41.9544500 137.7436830 136.3524400  41.1197960
 138.0507860 136.8237080  42.5253120 134.7648300 134.0115990  35.0714550
 133.8377580 133.9453370  35.3003020 134.9173120 134.9496120  34.9569790
 134.7517380 130.2832990  32.0681710 133.8121050 130.4446950  32.1534170
 135.0700640 131.0018670  31.5217700 141.2730140 134.9651510  42.0460740
 140.4448770 135.0344600  41.5710870 141.8680620 135.5505820  41.5776570
 138.7945590 135.5736290  35.5749800 138.1758010 135.2355840  34.9276100
 138.7770040 134.9296050  36.2828990 138.2372150 131.7520830  42.9915610
 137.8243330 132.5774540  43.2455600 137.5048100 131.1665870  42.7991970
 130.3704940 134.5380730  37.8534280 129.9661940 133.8257980  37.3580180
 130.4568060 134.1933970  38.7422320 130.8386640 138.2248290  40.0173490
 130.5414930 137.6193760  39.3381270 131.7886460 138.2625600  39.9062850
 129.0833560 131.3123940  41.6333320 129.6348150 131.4219280  40.8586570
 129.5977070 131.6861540  42.3488550 138.9272250 141.7980160  43.6796590
 138.4502810 142.6052350  43.4869200 138.2434040 141.1458490  43.8322800
 129.9305070 137.9629980  46.6681290 129.0333600 138.1869950  46.9154690
 129.9557940 138.0864920  45.7192690 136.9710290 134.8123100  32.5822550
 137.4103570 133.9745530  32.4360370 137.6838710 135.4452500  32.6686690
 128.7576290 134.8343300  45.2438660 128.6184060 135.7066100  45.6126060
 127.8757650 134.4916110  45.0986600 135.0805670 139.7519170  36.5503790
 135.5201580 140.4943500  36.1359180 135.0192560 139.9945740  37.4742750
 130.5556640 140.7765000  47.4523810 130.5272070 141.1807950  46.5852240
 130.3921610 139.8475360  47.2895410 140.5527430 126.0665910  30.8963590
 140.2400090 126.1592740  31.7962660 141.3139900 126.6446940  30.8461020
 127.0709570 133.4325710  35.3540930 126.9507170 134.1587800  34.7422200
 126.7610460 132.6628620  34.8768840 142.5071460 141.5592100  48.7487980
 142.9831180 142.0374990  49.4277060 143.1278620 141.4909590  48.0233480
 124.7094940 136.6040850  41.1609570 124.7875360 136.7389620  40.2165290
 125.3236620 135.8956740  41.3537690 125.9542570 138.3041040  37.5715750
 125.5470650 138.4455630  36.7169350 126.8455580 138.0201200  37.3686960
 141.9104710 138.7504950  45.9087990 142.0367770 138.5116830  44.9905170
 141.9526090 137.9189490  46.3810070 135.7721450 142.4532950  44.4782800
 136.2866120 142.3640960  45.2805230 134.9290530 142.7992650  44.7710710
 137.7475850 142.7388290  33.9066800 137.5876990 142.4491230  34.8048630
 137.5822560 141.9628420  33.3712030 130.2264230 142.5186820  35.6838420
 130.0506710 141.6022360  35.4706220 129.3719970 142.8774110  35.9236220
 137.4501980 140.2475850  32.4664800 136.7567140 140.2453140  31.8067080
 138.1924840 139.8235170  32.0358970 137.0151910 141.8738560  36.5413290
 137.4708860 141.0927940  36.8551910 137.3544430 142.5845380  37.0854470
 141.7628720 130.8037410  46.8737730 141.1472990 131.3117080  46.3453190
 141.4425140 129.9035740  46.8163670 124.7654460 137.6455020  43.7004030
 124.9285500 137.1760380  42.8823400 125.2306910 137.1378580  44.3652870
 129.5373230 126.7760780  38.7364600 129.0941380 127.5570320  38.4049120
 130.0958220 127.0990670  39.4435540 133.8243040 129.6429300  44.3399920
 133.3622410 129.8512320  45.1519860 133.4221150 128.8288650  44.0370590
 138.8247550 130.8638250  45.4696580 137.9741140 130.5644000  45.7905650
 138.6649340 131.1080260  44.5580400 135.9197260 132.3640000  47.5695370
 136.2450670 131.5303750  47.2297600 136.7077590 132.8868520  47.7173700
 132.6532050 126.3971480  33.6170430 132.0286230 126.3931350  34.3423740
 132.5662170 125.5302440  33.2206400 131.5749130 127.3208110  40.5954200
 131.8721460 128.2270940  40.5146220 132.1234690 126.8326890  39.9813770
 129.3287450 131.8994350  36.4645850 129.1028370 131.6831520  37.3692470
 128.5479980 132.3322810  36.1191820 136.5585210 131.9057720  35.0636500
 135.9594100 132.6293520  34.8800120 137.1064820 131.8434500  34.2812950
 131.7686660 132.7979930  47.1306120 131.6730260 131.8574660  46.9806520
 132.6118640 133.0195000  46.7354190 135.1650080 130.5421260  37.0939780
 135.5579650 130.8593460  36.2808470 135.5266930 129.6633140  37.2084300
 126.8997200 129.2093600  45.2839900 126.5060590 130.0568810  45.4912680
 126.2115600 128.5719970  45.4748540 133.4742250 129.2928570  48.3536640
 132.7840570 129.1000770  48.9882730 134.2174550 129.5763210  48.8860940
 124.2014250 127.1322060  39.3169980 123.9127300 127.7024920  40.0294960
 124.9460010 126.6526510  39.6801210 124.3884480 131.0742180  30.5272700
 124.3059150 132.0172940  30.6687690 124.0367540 130.9317090  29.6485050
 135.7505220 133.1327010  41.1890560 135.0186340 133.6413820  41.5380660
 135.3529560 132.3156990  40.8879340 132.1882610 129.8081210  39.5943050
 132.1918670 129.3671160  38.7447590 133.0833730 130.1298540  39.7014870
 128.0384990 129.6907700  38.5537260 127.6985040 130.1682930  39.3104310
 127.2762310 129.2372820  38.1938360 132.2502760 130.8093290  32.5849810
 132.3715580 130.7679770  33.5335630 131.8651270 131.6717440  32.4296540
 136.2131130 128.5860690  40.6013500 136.2303870 129.0369340  41.4455350
 135.9646710 127.6866330  40.8146940 131.2624260 133.1194430  31.9833110
 130.6941160 132.6712680  31.3569020 131.9713260 133.4787210  31.4498260
 139.6401880 125.9992870  46.4399880 139.9647650 125.2682530  46.9657860
 139.6758390 125.6806510  45.5380870 126.3393440 137.0206450  45.8599840
 125.9548230 136.3800120  46.4582800 126.6505630 137.7242570  46.4294570
 132.4890580 133.8682990  41.3408460 132.8560710 133.3941560  42.0869800
 132.2995640 134.7424560  41.6816800 125.3531070 128.6126680  37.4701930
 125.0677990 128.2482350  38.3080550 125.2909930 127.8807140  36.8565070
 130.2789950 132.9091630  43.6592670 129.9747020 133.7883610  43.8843030
 131.2336410 132.9691420  43.6950110 128.8071740 137.1152620  34.2559520
 128.0334000 136.5750240  34.0958240 129.5366370 136.5959230  33.9177280
 139.5659720 136.1117980  40.0485910 140.2858840 136.6073270  39.6582020
 139.3641540 135.4335870  39.4039780 135.0269660 127.5055940  34.1915300
 134.2134270 127.0069110  34.1160610 134.8331610 128.3454190  33.7751650
 134.9478520 136.1827040  45.9354910 134.8815830 135.2622710  45.6812500
 134.3183660 136.2802480  46.6499550 137.7418050 131.8775590  32.4877460
 138.6297670 132.1892820  32.3128800 137.7123140 131.0047840  32.0958040
 128.8509140 136.7833000  37.8938330 129.3687810 135.9801260  37.8395220
 128.3993160 136.7212140  38.7355160 133.7378640 138.0499280  33.1665630
 134.0794340 138.7941510  32.6708950 132.9091350 138.3630400  33.5290460
 126.3353680 133.7494370  44.8064030 125.9768620 134.4148220  45.3937370
 126.0408240 132.9177920  45.1776650 129.5366800 134.2078610  47.6903580
 129.2366940 134.3535790  46.7931400 130.3078040 133.6483900  47.5976970
 134.8795250 139.0047610  45.6858710 134.8939790 138.0728570  45.4677620
 134.1720350 139.0907370  46.3248480 140.0132320 133.1887430  31.9557320
 139.9296040 133.6201650  31.1053760 140.7326510 133.6485780  32.3884140
 141.0906460 135.6454950  45.0327290 140.3654650 136.2383730  44.8356680
 141.6181920 135.6378490  44.2340660 141.0419570 140.0429690  34.6839450
 140.3995730 139.3885310  34.9583170 140.6550230 140.4484780  33.9080120
 136.6206050 137.3715120  38.5311140 136.9729870 136.7743250  37.8712510
 135.7368380 137.0459350  38.7019390 132.7069330 138.1312810  35.9381550
 133.3940460 138.6782020  36.3189140 131.9201750 138.6753540  35.9731160
 124.8461730 133.7485630  31.4298630 125.7156580 134.0310430  31.7134550
 124.3552050 134.5621500  31.3147440 132.0096540 135.1358840  35.5506910
 132.4659320 135.9464090  35.7767100 131.6584750 134.8181980  36.3825400
 134.3129150 140.6465180  42.7799210 134.9571370 140.8524560  43.4572630
 134.6758590 139.8853580  42.3270060 127.9108320 125.4796490  36.0229430
 127.7822950 125.4714390  36.9714350 127.0870340 125.8179580  35.6720440
 135.5861230 138.6497530  41.4976660 136.2283460 137.9490690  41.6108830
 136.1110580 139.4295970  41.3173550 139.4316950 138.9346150  31.2215800
 139.2054530 138.2176590  31.8140440 139.0413150 138.6858590  30.3837550
 137.3598850 139.4492430  44.7012720 137.6955090 140.0359120  45.3790640
 136.4399190 139.3185140  44.9310510 125.2132980 142.9613010  31.9960260
 125.5730620 143.5602350  31.3417530 125.0725320 143.5072900  32.7695290
 124.9102250 127.2387610  45.4836130 124.1960770 127.4384530  46.0888740
 125.3297290 126.4627180  45.8550930 139.0133200 136.8518090  32.8829960
 138.7254900 137.3130780  33.6707840 139.8085370 136.3915860  33.1514180
 125.1974840 141.2267870  46.4702660 125.3065960 140.2862610  46.3298050
 124.5455400 141.4922620  45.8216390 133.1887430 139.4983760  47.8700780
 132.8684300 138.7793000  48.4146470 132.5145790 140.1738830  47.9436840
 131.2301600 140.3444210  32.8133930 131.2211700 141.0773900  32.1978440
 130.3099960 140.0975790  32.9060890 126.8308240 135.5659100  33.5580690
 126.2236190 136.3058000  33.5675990 127.3057590 135.6558460  32.7318890
 136.4041030 129.7309920  43.2337580 136.7721850 128.9105130  43.5617150
 135.5439230 129.7911810  43.6493230 139.7703060 128.6866860  34.0425140
 139.1416220 128.7912530  33.3283370 139.2754980 128.9063640  34.8319020
 134.2161200 140.4072450  31.4759120 134.3173180 140.2036440  30.5461100
 133.3162940 140.1530730  31.6806900 131.7387090 130.9652810  35.4583020
 131.0303240 131.4339150  35.8996630 132.0231570 130.3074820  36.0928210
 133.3643020 132.3849510  43.4575550 133.8628270 132.8595330  44.1227400
 133.5065970 131.4613030  43.6645580 135.7702520 127.6903470  36.8978810
 135.6470300 127.7089600  35.9488320 136.7187080 127.7382410  37.0177210
 132.8579310 142.9258770  36.1706790 133.1120810 142.8880160  35.2486160
 131.9091790 142.7992100  36.1635040 129.9422110 129.2737890  32.8333730
 130.7912640 129.7108040  32.7673920 129.5753380 129.5858150  33.6605790
 140.5709880 128.6017470  44.3003940 140.0683480 129.3422870  44.6397750
 141.3866540 128.9901470  43.9840730 138.8631890 133.8450650  37.7465300
 137.9222030 133.8600880  37.9212990 139.1775960 133.0586610  38.1925600
 128.8413530 135.5270250  31.3069260 129.6076800 135.4151610  31.8694690
 128.9188220 134.8308220  30.6546030 127.5360290 132.9595320  31.9902150
 127.6163880 132.0122830  32.1019550 128.4280040 133.2902200  32.0962810
 140.8657470 141.0159500  39.4219560 140.9904890 141.8390670  39.8943370
 141.7323030 140.8050230  39.0743710 128.3375000 143.1090710  39.0936690
 129.0737480 142.5606170  39.3645260 128.7215920 143.9746720  38.9542680
 125.2220480 139.1764280  34.9678200 124.2960260 139.4185420  34.9583610
 125.6876910 140.0038540  34.8462950 127.3433280 142.2936780  48.2822270
 128.1446010 142.6148830  48.6957670 126.8285100 141.9332360  49.0042180
 131.4477310 142.2821020  30.9162260 132.2405920 142.5709850  30.4644050
 130.9281660 141.8513190  30.2374740 136.1797910 138.4016650  48.2297680
 135.5736070 138.4248250  47.4893430 135.8752020 137.6699690  48.7664930
 137.6098280 142.1296940  46.8407090 138.5620030 142.0454960  46.7907330
 137.4626500 142.7938650  47.5140880 140.5007480 141.5091150  32.3399000
 140.2148990 141.0956290  31.5253180 140.3027030 142.4378860  32.2199520
 125.0631090 134.7810240  47.2258320 125.5670110 134.2017520  47.7974550
 124.3238510 135.0650470  47.7634690 131.9654710 137.5024430  30.7804610
 131.8605350 136.8876780  31.5065990 131.7978930 136.9790320  29.9967620
 132.1169030 136.1881230  46.7593840 131.3514700 136.7566230  46.6748510
 132.2984990 135.8957440  45.8662070 135.2057440 136.5644460  31.3846600
 134.6567540 137.0113760  32.0289340 135.8276700 136.0593710  31.9084270
 139.2592380 137.9186560  47.3168860 140.0001850 138.2562320  46.8136320
 138.4965060 138.0878620  46.7638630 127.0954170 132.9239830  48.1208390
 127.1359510 132.6253700  49.0293620 127.9499670 133.3247440  47.9615910
 130.8732560 135.5235380  33.2811900 131.2948980 135.3575250  34.1243290
 130.9983400 134.7135610  32.7867040 129.0359980 131.5031930  46.0882880
 128.5056440 131.0122880  45.4606220 129.7048050 131.9316130  45.5540810
 133.3860200 134.5472990  30.5289000 133.9065860 133.8322010  30.1630150
 134.0328600 135.1858860  30.8289510 137.9338040 135.9701390  45.8524070
 138.3479060 136.1246470  46.7014490 136.9989040 136.0956610  46.0149850
 138.4060210 133.3097550  47.8563220 138.9880980 132.5549870  47.7683700
 138.5821980 133.8404990  47.0794700 129.5232280 128.4694300  46.1680170
 129.4289150 127.8515050  45.4431040 128.9429670 129.1960590  45.9410080
 132.2893720 127.0267540  43.2007560 131.8411020 127.0491800  42.3553110
 131.6558920 126.6286560  43.7977860 132.6953270 135.9221870  43.8220000
 133.1141380 136.7654600  43.6496240 131.7761900 136.0593910  43.5926780
 135.0317170 133.6538050  45.2057840 135.1513380 133.0579190  45.9452680
 135.8911170 133.6907740  44.7859140 137.3705070 134.2075240  43.7820350
 136.8440290 134.7317860  43.1785490 137.7136410 134.8402630  44.4130080
 129.7691460 131.5968610  30.2270060 129.5680520 130.7335970  30.5883400
 129.5983510 131.5101970  29.2891660 130.5460690 142.2274880  44.9377730
 130.0081780 142.9520940  44.6186430 130.7994650 141.7505220  44.1475070
 131.7985940 130.1959400  46.4633660 132.3885630 129.8875250  47.1511480
 130.9806180 129.7239150  46.6193560 136.6179370 129.8125210  46.6966680
 135.9294890 129.1506750  46.6316670 137.3385390 129.3663480  47.1415140
 137.2479770 126.4076840  32.7556940 137.5282060 125.5644740  33.1116360
 136.4745500 126.6399950  33.2695690 128.5674260 128.6969230  30.2147940
 128.8700160 128.7036660  29.3067090 129.3068850 128.3467090  30.7115600
 133.4022900 143.4626090  45.1964380 133.3281600 144.3661230  45.5036750
 132.5001740 143.1437990  45.1686450 131.7859190 127.6403850  31.2004140
 131.4381190 126.9627840  30.6206590 131.9871960 127.1793360  32.0147530
 133.9508230 142.6284600  32.8190740 134.8459020 142.9669570  32.8409500
 133.9825860 141.9064010  32.1915020 127.5904390 138.0011650  31.0477740
 128.0279260 138.5441320  31.7035320 128.0752120 137.1758600  31.0574080
 124.8050190 140.7900680  38.4998000 125.1353200 139.9221740  38.2676640
 125.2341190 140.9959200  39.3302960 129.4012110 139.1209690  36.1599970
 129.1007650 138.9974660  37.0603880 129.2949600 138.2618280  35.7515700
 125.2940400 141.6571270  41.2379630 124.8571390 141.8372070  42.0703780
 125.8618080 142.4145890  41.0961350 140.9302580 141.1588270  45.5256940
 140.3304570 141.2180830  44.7820860 141.0596480 140.2193250  45.6553790
 142.1704030 138.9006090  30.8626650 141.3396990 138.9682740  31.3333880
 142.3475860 139.7910210  30.5593510 141.6260490 135.6453570  33.3660850
 142.3879400 136.2150220  33.4720540 141.6414860 135.0780770  34.1369160
 125.1264830 134.1691500  37.5968510 124.4713670 133.9003140  36.9528210
 125.9642780 134.0595980  37.1470490 142.6320460 136.5003670  38.2102780
 143.0029290 135.7170990  37.8038750 143.2722390 137.1892770  38.0320080
 139.6154220 137.8840250  43.6233100 138.8014060 138.3137410  43.8858890
 140.0228420 138.4958660  43.0102150 141.6779660 135.9387940  30.5233370
 141.9528500 136.8466820  30.3952590 141.4890400 135.8750470  31.4595360
 138.0755270 128.9632790  31.8187000 138.4940150 128.7763770  30.9783660
 137.7691330 128.1111840  32.1289930 141.5745000 133.8756930  35.5162800
 141.1988600 133.1084860  35.0844090 140.8448120 134.2579630  36.0037730
 126.1640760 134.5544070  42.1371850 126.5313800 134.4671470  43.0167870
 125.5951580 133.7910620  42.0378710 140.9644620 133.0228450  45.1502320
 140.7330710 132.7941200  44.2500270 141.2249170 133.9428000  45.1047210
 125.7156760 131.4653160  46.0430270 124.8212810 131.4319920  46.3823980
 126.2554310 131.6639950  46.8081520 139.4032690 128.2484880  47.9282020
 140.2802870 128.2568280  48.3116020 139.4153530 127.5115720  47.3174370
 124.3402910 131.3790430  33.5393840 123.4366990 131.6420630  33.3645500
 124.8243530 131.6501600  32.7593800 140.8495960 132.1014420  38.8170040
 141.3733440 131.6077070  38.1860210 141.4355380 132.2364780  39.5617610
 141.0285680 132.1854290  42.3389590 140.0788390 132.1517830  42.4534580
 141.2098690 133.0954400  42.1039360 126.8830120 130.4355970  31.4488220
 127.5921820 130.0139190  30.9635500 126.1670060 130.5031200  30.8171570
 126.5304280 126.4895300  30.4890870 127.2532410 127.0304240  30.8072090
 126.8028800 126.2158720  29.6132410 140.3395930 131.3587770  34.7562450
 140.8355050 131.1258640  35.5411330 140.1412000 130.5199610  34.3400090
 126.2196470 125.7401490  40.3913490 126.8672660 125.1898870  39.9508650
 126.6398310 125.9944640  41.2129300 141.7683090 129.9948720  37.2900130
 141.6582370 129.8404760  38.2282400 142.5290680 129.4669660  37.0475540
 140.1148810 125.9342850  43.7483130 140.7521030 126.5476990  44.1142320
 140.2623700 125.9703510  42.8032360 142.6573360 127.8256640  30.5306270
 143.5822670 127.6937820  30.3224560 142.6349150 127.9049460  31.4842720
 142.7311850 128.5967300  33.1562980 141.9363350 128.5312420  33.6855890
 142.9355130 129.5317940  33.1448330 139.6730270 142.6358850  37.1501370
 140.2689340 142.3143420  36.4735790 139.9308420 142.1630670  37.9414640
 125.9728470 125.8957160  43.1338810 125.6243290 126.3520980  43.8996990
 125.6416170 125.0014290  43.2161240 127.5792840 139.0676760  47.2992000
 127.5362470 138.6969670  48.1806460 127.7103850 140.0054330  47.4393820
 131.2798870 140.6236350  42.9001720 131.0390230 140.8910910  42.0132240
 132.2201510 140.7942080  42.9552580 133.4853290 127.0869040  46.6558230
 133.4242180 127.6790870  47.4053640 134.4253670 126.9795000  46.5108490
 136.1227850 126.7439100  46.2950520 136.7368260 127.0618390  45.6331600
 136.6677410 126.2587690  46.9146380 142.5403030 142.6430730  43.7012360
 142.0461310 143.0399600  42.9839490 141.9316320 142.0179940  44.0949640
 126.6449110 125.4233360  46.4089580 127.1932100 125.2421410  45.6455690
 126.7104420 124.6327470  46.9445890 127.4180870 142.0139010  44.4189780
 126.8241190 141.8823710  45.1579820 127.4104710 141.1777150  43.9531880
 136.8635890 125.3071240  42.6219810 135.9895730 125.6406350  42.4192740
 136.7546640 124.8344420  43.4471680 137.7707870 127.5142110  44.0061530
 137.4421230 126.6993870  43.6263260 138.7190170 127.4711920  43.8827220
 140.2242480 143.2854150  40.9799100 139.7645450 144.0369960  40.6057120
 139.5954940 142.5660620  40.9213900 127.0493100 139.3797390  43.3697820
 126.3227160 138.7602680  43.3023770 127.1102250 139.7738000  42.4995900
 130.6538200 141.5942390  40.1547230 131.1703220 140.9829750  39.6295490
 131.3035580 142.0971170  40.6458240 133.3933700 142.4850880  40.9816210
 133.6811510 142.2305180  40.1049220 133.9056920 141.9328240  41.5721780
 134.6110710 126.2241080  41.5612720 133.8282500 126.6986580  41.8409480
 134.3173640 125.3195910  41.4525900 139.1631780 126.9264180  39.6061810
 139.6039870 126.8709280  38.7583410 138.8939370 127.8422190  39.6771990
 141.0270350 126.5579420  37.6170630 140.9658750 125.6140640  37.4701650
 141.8062380 126.6659510  38.1624090 125.3323100 142.6971780  36.5794580
 125.1645140 142.0642460  37.2776470 124.4657610 142.9031180  36.2288770
 125.9551120 126.5288560  34.0826440 126.7130480 126.6417440  33.5090470
 125.4928290 127.3657760  34.0369870 132.4964930 128.6427830  37.0728750
 131.6839440 128.2684720  36.7324630 133.0006570 127.8872910  37.3749940
 136.9989910 125.3070280  38.3111820 137.6019280 125.8790490  38.7860340
 136.2582900 125.8709720  38.0885720 140.1424510 125.7091840  33.5852100
 140.3375140 126.6075290  33.8519530 139.3554380 125.4778920  34.0785050
 126.9385800 141.3905010  34.0244720 126.4133420 141.7713040  33.3206680
 126.8630380 142.0155780  34.7454430 128.3276270 127.0552610  32.6228410
 128.8569030 126.2682410  32.4936360 128.9604590 127.7343800  32.8563940
 130.5214110 126.7927750  35.6773800 129.8916850 126.0915060  35.8443930
 129.9819250 127.5531880  35.4606960 133.4606060 143.4066980  48.3484410
 134.3873370 143.1711250  48.3920370 133.4456490 144.2338980  47.8670440
 141.6951120 142.9492550  35.3458660 141.8703310 142.2630290  34.7019580
 140.9972690 143.4739600  34.9535330 130.6469670 126.0711730  48.1126290
 130.3653940 126.5745330  47.3487110 131.0289370 125.2733480  47.7468420
 129.5378770 143.3387390  32.8993970 130.2697590 143.0546670  32.3517860
 129.7972440 143.1000670  33.7893350 128.6993560 139.4552120  32.9040300
 128.0702440 139.9237220  33.4526130 128.8141390 138.6101340  33.3386490
 137.2485130 125.4865310  48.6906760 137.1350580 125.8059920  49.5858280
 138.0654870 125.8877820  48.3944040 140.0283620 142.6336840  48.1725450
 140.8208940 142.1386070  47.9651410 140.3216770 143.3126980  48.7801060
 136.1543280 133.5057780  19.0541500 136.0737330 132.5912390  18.7833210
 135.7407700 134.0024850  18.3481210 134.2861320 135.2836800  20.9350770
 133.5103420 134.8037240  21.2249340 134.9374250 134.6042450  20.7606930
 128.3027150 135.5956610  21.8126530 127.4712030 135.3405320  22.2123040
 128.9108130 135.6667380  22.5484450 138.3068750 139.6896990  19.7149900
 137.8450280 138.9184230  20.0437070 139.1194300 139.7163060  20.2202350
 128.2828410 139.6296700  22.0084550 128.5856450 138.7394440  21.8294770
 129.0272000 140.1866920  21.7806800 126.7119100 130.5558500  15.5968920
 125.8235800 130.8974470  15.4948800 126.9960290 130.3558820  14.7049750
 124.6752110 133.1564150  21.4808620 125.2468220 132.3886350  21.4812260
 124.6753650 133.4552910  20.5715230 134.5332060 141.9755000  19.3353890
 133.9143500 142.4312500  18.7648330 135.3883840 142.1306460  18.9343590
 133.7270310 137.9593990  20.9420930 133.6578590 137.0183930  20.7810060
 134.4890170 138.0495400  21.5143500 125.9176980 128.5648510  23.2677550
 125.7379820 127.6674260  23.5480310 125.5157060 129.1120380  23.9424500
 134.7575480 130.7664370  21.1689860 135.1340300 129.8936250  21.0563530
 134.6594990 131.1023070  20.2780300 128.8880490 129.1390000  16.6307300
 128.9947240 130.0393730  16.9376060 127.9772850 129.0907970  16.3401950
 138.5399600 128.2614810  18.1018200 139.3609220 127.7711380  18.1443680
 138.5733680 128.8512470  18.8550040 126.5363650 131.0609010  21.8759890
 127.2173760 131.3247380  22.4947290 126.2211700 130.2209880  22.2097900
 130.7288220 132.1076370  20.9632480 131.2366440 132.6057340  21.6037500
 131.2601460 131.3311570  20.7871840 142.8299150 130.2781560  24.6661830
 142.1251320 130.6663270  24.1476940 143.0957070 130.9731850  25.2682760
 129.0124320 126.7474930  25.2295900 129.0142760 127.2647320  24.4241800
 128.1828630 126.2705110  25.2065830 135.3995410 136.8594240  16.7285800
 134.7812680 137.3243690  16.1648520 135.9118660 137.5521720  17.1455310
 130.2627170 136.3870110  23.4069400 129.9296550 137.0139030  24.0490470
 130.4393850 136.9131990  22.6271070 138.7761080 130.2015190  20.8745740
 138.0716650 130.4900080  21.4548850 139.1373240 131.0115300  20.5145300
 128.6939650 128.4584890  23.2366350 129.0356460 129.3026940  22.9420220
 127.7555460 128.6068630  23.3531690 129.4746270 138.3550910  25.2218580
 130.0920270 139.0301990  24.9403030 128.6139390 138.7638890  25.1306080
 124.7678610 137.5450770  14.1025430 124.3906590 138.0337870  13.3710330
 125.0251680 138.2176050  14.7331960 140.3923860 139.8190320  23.1373220
 139.7087380 140.4889430  23.1289890 140.9318150 140.0170970  22.3718080
 141.8448000 129.6469980  21.2654950 140.8972910 129.6808960  21.3970380
 142.1697990 130.4608930  21.6504310 132.3767540 125.9467160  19.5610940
 132.6842520 125.3914050  18.8446440 131.4468240 126.0811620  19.3783930
 137.9282600 141.6634450  21.8518400 137.9409760 141.2596740  20.9840660
 137.3757820 142.4381740  21.7479830 139.2228020 138.3850670  16.9408570
 139.1124350 137.4425000  17.0657990 139.2196270 138.7466310  17.8271330
 137.3268040 136.5664290  23.1801010 137.7436830 136.3524400  22.3454470
 138.0507860 136.8237080  23.7509630 134.7648300 134.0115990  16.2971060
 133.8377580 133.9453370  16.5259530 134.9173120 134.9496120  16.1826300
 134.7517380 130.2832990  13.2938220 133.8121050 130.4446950  13.3790680
 135.0700640 131.0018670  12.7474210 141.2730140 134.9651510  23.2717250
 140.4448770 135.0344600  22.7967380 141.8680620 135.5505820  22.8033080
 138.7945590 135.5736290  16.8006310 138.1758010 135.2355840  16.1532610
 138.7770040 134.9296050  17.5085500 138.2372150 131.7520830  24.2172120
 137.8243330 132.5774540  24.4712110 137.5048100 131.1665870  24.0248480
 130.3704940 134.5380730  19.0790790 129.9661940 133.8257980  18.5836690
 130.4568060 134.1933970  19.9678830 130.8386640 138.2248290  21.2430000
 130.5414930 137.6193760  20.5637780 131.7886460 138.2625600  21.1319360
 129.0833560 131.3123940  22.8589830 129.6348150 131.4219280  22.0843080
 129.5977070 131.6861540  23.5745060 138.9272250 141.7980160  24.9053100
 138.4502810 142.6052350  24.7125710 138.2434040 141.1458490  25.0579310
 129.9305070 137.9629980  27.8937800 129.0333600 138.1869950  28.1411200
 129.9557940 138.0864920  26.9449200 136.9710290 134.8123100  13.8079060
 137.4103570 133.9745530  13.6616880 137.6838710 135.4452500  13.8943200
 128.7576290 134.8343300  26.4695170 128.6184060 135.7066100  26.8382570
 127.8757650 134.4916110  26.3243110 135.0805670 139.7519170  17.7760300
 135.5201580 140.4943500  17.3615690 135.0192560 139.9945740  18.6999260
 130.5556640 140.7765000  28.6780320 130.5272070 141.1807950  27.8108750
 130.3921610 139.8475360  28.5151920 140.5527430 126.0665910  12.1220100
 140.2400090 126.1592740  13.0219170 141.3139900 126.6446940  12.0717530
 127.0709570 133.4325710  16.5797440 126.9507170 134.1587800  15.9678710
 126.7610460 132.6628620  16.1025350 142.5071460 141.5592100  29.9744490
 142.9831180 142.0374990  30.6533570 143.1278620 141.4909590  29.2489990
 124.7094940 136.6040850  22.3866080 124.7875360 136.7389620  21.4421800
 125.3236620 135.8956740  22.5794200 125.9542570 138.3041040  18.7972260
 125.5470650 138.4455630  17.9425860 126.8455580 138.0201200  18.5943470
 141.9104710 138.7504950  27.1344500 142.0367770 138.5116830  26.2161680
 141.9526090 137.9189490  27.6066580 135.7721450 142.4532950  25.7039310
 136.2866120 142.3640960  26.5061740 134.9290530 142.7992650  25.9967220
 137.7475850 142.7388290  15.1323310 137.5876990 142.4491230  16.0305140
 137.5822560 141.9628420  14.5968540 130.2264230 142.5186820  16.9094930
 130.0506710 141.6022360  16.6962730 129.3719970 142.8774110  17.1492730
 137.4501980 140.2475850  13.6921310 136.7567140 140.2453140  13.0323590
 138.1924840 139.8235170  13.2615480 137.0151910 141.8738560  17.7669800
 137.4708860 141.0927940  18.0808420 137.3544430 142.5845380  18.3110980
 141.7628720 130.8037410  28.0994240 141.1472990 131.3117080  27.5709700
 141.4425140 129.9035740  28.0420180 124.7654460 137.6455020  24.9260540
 124.9285500 137.1760380  24.1079910 125.2306910 137.1378580  25.5909380
 129.5373230 126.7760780  19.9621110 129.0941380 127.5570320  19.6305630
 130.0958220 127.0990670  20.6692050 133.8243040 129.6429300  25.5656430
 133.3622410 129.8512320  26.3776370 133.4221150 128.8288650  25.2627100
 138.8247550 130.8638250  26.6953090 137.9741140 130.5644000  27.0162160
 138.6649340 131.1080260  25.7836910 135.9197260 132.3640000  28.7951880
 136.2450670 131.5303750  28.4554110 136.7077590 132.8868520  28.9430210
 132.6532050 126.3971480  14.8426940 132.0286230 126.3931350  15.5680250
 132.5662170 125.5302440  14.4462910 131.5749130 127.3208110  21.8210710
 131.8721460 128.2270940  21.7402730 132.1234690 126.8326890  21.2070280
 129.3287450 131.8994350  17.6902360 129.1028370 131.6831520  18.5948980
 128.5479980 132.3322810  17.3448330 136.5585210 131.9057720  16.2893010
 135.9594100 132.6293520  16.1056630 137.1064820 131.8434500  15.5069460
 131.7686660 132.7979930  28.3562630 131.6730260 131.8574660  28.2063030
 132.6118640 133.0195000  27.9610700 135.1650080 130.5421260  18.3196290
 135.5579650 130.8593460  17.5064980 135.5266930 129.6633140  18.4340810
 126.8997200 129.2093600  26.5096410 126.5060590 130.0568810  26.7169190
 126.2115600 128.5719970  26.7005050 133.4742250 129.2928570  29.5793150
 132.7840570 129.1000770  30.2139240 134.2174550 129.5763210  30.1117450
 124.2014250 127.1322060  20.5426490 123.9127300 127.7024920  21.2551470
 124.9460010 126.6526510  20.9057720 124.3884480 131.0742180  11.7529210
 124.3059150 132.0172940  11.8944200 124.0367540 130.9317090  10.8741560
 135.7505220 133.1327010  22.4147070 135.0186340 133.6413820  22.7637170
 135.3529560 132.3156990  22.1135850 132.1882610 129.8081210  20.8199560
 132.1918670 129.3671160  19.9704100 133.0833730 130.1298540  20.9271380
 128.0384990 129.6907700  19.7793770 127.6985040 130.1682930  20.5360820
 127.2762310 129.2372820  19.4194870 132.2502760 130.8093290  13.8106320
 132.3715580 130.7679770  14.7592140 131.8651270 131.6717440  13.6553050
 136.2131130 128.5860690  21.8270010 136.2303870 129.0369340  22.6711860
 135.9646710 127.6866330  22.0403450 131.2624260 133.1194430  13.2089620
 130.6941160 132.6712680  12.5825530 131.9713260 133.4787210  12.6754770
 139.6401880 125.9992870  27.6656390 139.9647650 125.2682530  28.1914370
 139.6758390 125.6806510  26.7637380 126.3393440 137.0206450  27.0856350
 125.9548230 136.3800120  27.6839310 126.6505630 137.7242570  27.6551080
 132.4890580 133.8682990  22.5664970 132.8560710 133.3941560  23.3126310
 132.2995640 134.7424560  22.9073310 125.3531070 128.6126680  18.6958440
 125.0677990 128.2482350  19.5337060 125.2909930 127.8807140  18.0821580
 130.2789950 132.9091630  24.8849180 129.9747020 133.7883610  25.1099540
 131.2336410 132.9691420  24.9206620 128.8071740 137.1152620  15.4816030
 128.0334000 136.5750240  15.3214750 129.5366370 136.5959230  15.1433790
 139.5659720 136.1117980  21.2742420 140.2858840 136.6073270  20.8838530
 139.3641540 135.4335870  20.6296290 135.0269660 127.5055940  15.4171810
 134.2134270 127.0069110  15.3417120 134.8331610 128.3454190  15.0008160
 134.9478520 136.1827040  27.1611420 134.8815830 135.2622710  26.9069010
 134.3183660 136.2802480  27.8756060 137.7418050 131.8775590  13.7133970
 138.6297670 132.1892820  13.5385310 137.7123140 131.0047840  13.3214550
 128.8509140 136.7833000  19.1194840 129.3687810 135.9801260  19.0651730
 128.3993160 136.7212140  19.9611670 133.7378640 138.0499280  14.3922140
 134.0794340 138.7941510  13.8965460 132.9091350 138.3630400  14.7546970
 126.3353680 133.7494370  26.0320540 125.9768620 134.4148220  26.6193880
 126.0408240 132.9177920  26.4033160 129.5366800 134.2078610  28.9160090
 129.2366940 134.3535790  28.0187910 130.3078040 133.6483900  28.8233480
 134.8795250 139.0047610  26.9115220 134.8939790 138.0728570  26.6934130
 134.1720350 139.0907370  27.5504990 140.0132320 133.1887430  13.1813830
 139.9296040 133.6201650  12.3310270 140.7326510 133.6485780  13.6140650
 141.0906460 135.6454950  26.2583800 140.3654650 136.2383730  26.0613190
 141.6181920 135.6378490  25.4597170 141.0419570 140.0429690  15.9095960
 140.3995730 139.3885310  16.1839680 140.6550230 140.4484780  15.1336630
 136.6206050 137.3715120  19.7567650 136.9729870 136.7743250  19.0969020
 135.7368380 137.0459350  19.9275900 132.7069330 138.1312810  17.1638060
 133.3940460 138.6782020  17.5445650 131.9201750 138.6753540  17.1987670
 124.8461730 133.7485630  12.6555140 125.7156580 134.0310430  12.9391060
 124.3552050 134.5621500  12.5403950 132.0096540 135.1358840  16.7763420
 132.4659320 135.9464090  17.0023610 131.6584750 134.8181980  17.6081910
 134.3129150 140.6465180  24.0055720 134.9571370 140.8524560  24.6829140
 134.6758590 139.8853580  23.5526570 127.9108320 125.4796490  17.2485940
 127.7822950 125.4714390  18.1970860 127.0870340 125.8179580  16.8976950
 135.5861230 138.6497530  22.7233170 136.2283460 137.9490690  22.8365340
 136.1110580 139.4295970  22.5430060 139.4316950 138.9346150  12.4472310
 139.2054530 138.2176590  13.0396950 139.0413150 138.6858590  11.6094060
 137.3598850 139.4492430  25.9269230 137.6955090 140.0359120  26.6047150
 136.4399190 139.3185140  26.1567020 125.2132980 142.9613010  13.2216770
 125.5730620 143.5602350  12.5674040 125.0725320 143.5072900  13.9951800
 124.9102250 127.2387610  26.7092640 124.1960770 127.4384530  27.3145250
 125.3297290 126.4627180  27.0807440 139.0133200 136.8518090  14.1086470
 138.7254900 137.3130780  14.8964350 139.8085370 136.3915860  14.3770690
 125.1974840 141.2267870  27.6959170 125.3065960 140.2862610  27.5554560
 124.5455400 141.4922620  27.0472900 133.1887430 139.4983760  29.0957290
 132.8684300 138.7793000  29.6402980 132.5145790 140.1738830  29.1693350
 131.2301600 140.3444210  14.0390440 131.2211700 141.0773900  13.4234950
 130.3099960 140.0975790  14.1317400 126.8308240 135.5659100  14.7837200
 126.2236190 136.3058000  14.7932500 127.3057590 135.6558460  13.9575400
 136.4041030 129.7309920  24.4594090 136.7721850 128.9105130  24.7873660
 135.5439230 129.7911810  24.8749740 139.7703060 128.6866860  15.2681650
 139.1416220 128.7912530  14.5539880 139.2754980 128.9063640  16.0575530
 134.2161200 140.4072450  12.7015630 134.3173180 140.2036440  11.7717610
 133.3162940 140.1530730  12.9063410 131.7387090 130.9652810  16.6839530
 131.0303240 131.4339150  17.1253140 132.0231570 130.3074820  17.3184720
 133.3643020 132.3849510  24.6832060 133.8628270 132.8595330  25.3483910
 133.5065970 131.4613030  24.8902090 135.7702520 127.6903470  18.1235320
 135.6470300 127.7089600  17.1744830 136.7187080 127.7382410  18.2433720
 132.8579310 142.9258770  17.3963300 133.1120810 142.8880160  16.4742670
 131.9091790 142.7992100  17.3891550 129.9422110 129.2737890  14.0590240
 130.7912640 129.7108040  13.9930430 129.5753380 129.5858150  14.8862300
 140.5709880 128.6017470  25.5260450 140.0683480 129.3422870  25.8654260
 141.3866540 128.9901470  25.2097240 138.8631890 133.8450650  18.9721810
 137.9222030 133.8600880  19.1469500 139.1775960 133.0586610  19.4182110
 128.8413530 135.5270250  12.5325770 129.6076800 135.4151610  13.0951200
 128.9188220 134.8308220  11.8802540 127.5360290 132.9595320  13.2158660
 127.6163880 132.0122830  13.3276060 128.4280040 133.2902200  13.3219320
 140.8657470 141.0159500  20.6476070 140.9904890 141.8390670  21.1199880
 141.7323030 140.8050230  20.3000220 128.3375000 143.1090710  20.3193200
 129.0737480 142.5606170  20.5901770 128.7215920 143.9746720  20.1799190
 125.2220480 139.1764280  16.1934710 124.2960260 139.4185420  16.1840120
 125.6876910 140.0038540  16.0719460 127.3433280 142.2936780  29.5078780
 128.1446010 142.6148830  29.9214180 126.8285100 141.9332360  30.2298690
 131.4477310 142.2821020  12.1418770 132.2405920 142.5709850  11.6900560
 130.9281660 141.8513190  11.4631250 136.1797910 138.4016650  29.4554190
 135.5736070 138.4248250  28.7149940 135.8752020 137.6699690  29.9921440
 137.6098280 142.1296940  28.0663600 138.5620030 142.0454960  28.0163840
 137.4626500 142.7938650  28.7397390 140.5007480 141.5091150  13.5655510
 140.2148990 141.0956290  12.7509690 140.3027030 142.4378860  13.4456030
 125.0631090 134.7810240  28.4514830 125.5670110 134.2017520  29.0231060
 124.3238510 135.0650470  28.9891200 131.9654710 137.5024430  12.0061120
 131.8605350 136.8876780  12.7322500 131.7978930 136.9790320  11.2224130
 132.1169030 136.1881230  27.9850350 131.3514700 136.7566230  27.9005020
 132.2984990 135.8957440  27.0918580 135.2057440 136.5644460  12.6103110
 134.6567540 137.0113760  13.2545850 135.8276700 136.0593710  13.1340780
 139.2592380 137.9186560  28.5425370 140.0001850 138.2562320  28.0392830
 138.4965060 138.0878620  27.9895140 127.0954170 132.9239830  29.3464900
 127.1359510 132.6253700  30.2550130 127.9499670 133.3247440  29.1872420
 130.8732560 135.5235380  14.5068410 131.2948980 135.3575250  15.3499800
 130.9983400 134.7135610  14.0123550 129.0359980 131.5031930  27.3139390
 128.5056440 131.0122880  26.6862730 129.7048050 131.9316130  26.7797320
 133.3860200 134.5472990  11.7545510 133.9065860 133.8322010  11.3886660
 134.0328600 135.1858860  12.0546020 137.9338040 135.9701390  27.0780580
 138.3479060 136.1246470  27.9271000 136.9989040 136.0956610  27.2406360
 138.4060210 133.3097550  29.0819730 138.9880980 132.5549870  28.9940210
 138.5821980 133.8404990  28.3051210 129.5232280 128.4694300  27.3936680
 129.4289150 127.8515050  26.6687550 128.9429670 129.1960590  27.1666590
 132.2893720 127.0267540  24.4264070 131.8411020 127.0491800  23.5809620
 131.6558920 126.6286560  25.0234370 132.6953270 135.9221870  25.0476510
 133.1141380 136.7654600  24.8752750 131.7761900 136.0593910  24.8183290
 135.0317170 133.6538050  26.4314350 135.1513380 133.0579190  27.1709190
 135.8911170 133.6907740  26.0115650 137.3705070 134.2075240  25.0076860
 136.8440290 134.7317860  24.4042000 137.7136410 134.8402630  25.6386590
 129.7691460 131.5968610  11.4526570 129.5680520 130.7335970  11.8139910
 129.5983510 131.5101970  10.5148170 130.5460690 142.2274880  26.1634240
 130.0081780 142.9520940  25.8442940 130.7994650 141.7505220  25.3731580
 131.7985940 130.1959400  27.6890170 132.3885630 129.8875250  28.3767990
 130.9806180 129.7239150  27.8450070 136.6179370 129.8125210  27.9223190
 135.9294890 129.1506750  27.8573180 137.3385390 129.3663480  28.3671650
 137.2479770 126.4076840  13.9813450 137.5282060 125.5644740  14.3372870
 136.4745500 126.6399950  14.4952200 128.5674260 128.6969230  11.4404450
 128.8700160 128.7036660  10.5323600 129.3068850 128.3467090  11.9372110
 133.4022900 143.4626090  26.4220890 133.3281600 144.3661230  26.7293260
 132.5001740 143.1437990  26.3942960 131.7859190 127.6403850  12.4260650
 131.4381190 126.9627840  11.8463100 131.9871960 127.1793360  13.2404040
 133.9508230 142.6284600  14.0447250 134.8459020 142.9669570  14.0666010
 133.9825860 141.9064010  13.4171530 127.5904390 138.0011650  12.2734250
 128.0279260 138.5441320  12.9291830 128.0752120 137.1758600  12.2830590
 124.8050190 140.7900680  19.7254510 125.1353200 139.9221740  19.4933150
 125.2341190 140.9959200  20.5559470 129.4012110 139.1209690  17.3856480
 129.1007650 138.9974660  18.2860390 129.2949600 138.2618280  16.9772210
 125.2940400 141.6571270  22.4636140 124.8571390 141.8372070  23.2960290
 125.8618080 142.4145890  22.3217860 140.9302580 141.1588270  26.7513450
 140.3304570 141.2180830  26.0077370 141.0596480 140.2193250  26.8810300
 142.1704030 138.9006090  12.0883160 141.3396990 138.9682740  12.5590390
 142.3475860 139.7910210  11.7850020 141.6260490 135.6453570  14.5917360
 142.3879400 136.2150220  14.6977050 141.6414860 135.0780770  15.3625670
 125.1264830 134.1691500  18.8225020 124.4713670 133.9003140  18.1784720
 125.9642780 134.0595980  18.3727000 142.6320460 136.5003670  19.4359290
 143.0029290 135.7170990  19.0295260 143.2722390 137.1892770  19.2576590
 139.6154220 137.8840250  24.8489610 138.8014060 138.3137410  25.1115400
 140.0228420 138.4958660  24.2358660 141.6779660 135.9387940  11.7489880
 141.9528500 136.8466820  11.6209100 141.4890400 135.8750470  12.6851870
 138.0755270 128.9632790  13.0443510 138.4940150 128.7763770  12.2040170
 137.7691330 128.1111840  13.3546440 141.5745000 133.8756930  16.7419310
 141.1988600 133.1084860  16.3100600 140.8448120 134.2579630  17.2294240
 126.1640760 134.5544070  23.3628360 126.5313800 134.4671470  24.2424380
 125.5951580 133.7910620  23.2635220 140.9644620 133.0228450  26.3758830
 140.7330710 132.7941200  25.4756780 141.2249170 133.9428000  26.3303720
 125.7156760 131.4653160  27.2686780 124.8212810 131.4319920  27.6080490
 126.2554310 131.6639950  28.0338030 139.4032690 128.2484880  29.1538530
 140.2802870 128.2568280  29.5372530 139.4153530 127.5115720  28.5430880
 124.3402910 131.3790430  14.7650350 123.4366990 131.6420630  14.5902010
 124.8243530 131.6501600  13.9850310 140.8495960 132.1014420  20.0426550
 141.3733440 131.6077070  19.4116720 141.4355380 132.2364780  20.7874120
 141.0285680 132.1854290  23.5646100 140.0788390 132.1517830  23.6791090
 141.2098690 133.0954400  23.3295870 126.8830120 130.4355970  12.6744730
 127.5921820 130.0139190  12.1892010 126.1670060 130.5031200  12.0428080
 126.5304280 126.4895300  11.7147380 127.2532410 127.0304240  12.0328600
 126.8028800 126.2158720  10.8388920 140.3395930 131.3587770  15.9818960
 140.8355050 131.1258640  16.7667840 140.1412000 130.5199610  15.5656600
 126.2196470 125.7401490  21.6170000 126.8672660 125.1898870  21.1765160
 126.6398310 125.9944640  22.4385810 141.7683090 129.9948720  18.5156640
 141.6582370 129.8404760  19.4538910 142.5290680 129.4669660  18.2732050
 140.1148810 125.9342850  24.9739640 140.7521030 126.5476990  25.3398830
 140.2623700 125.9703510  24.0288870 142.6573360 127.8256640  11.7562780
 143.5822670 127.6937820  11.5481070 142.6349150 127.9049460  12.7099230
 142.7311850 128.5967300  14.3819490 141.9363350 128.5312420  14.9112400
 142.9355130 129.5317940  14.3704840 139.6730270 142.6358850  18.3757880
 140.2689340 142.3143420  17.6992300 139.9308420 142.1630670  19.1671150
 125.9728470 125.8957160  24.3595320 125.6243290 126.3520980  25.1253500
 125.6416170 125.0014290  24.4417750 127.5792840 139.0676760  28.5248510
 127.5362470 138.6969670  29.4062970 127.7103850 140.0054330  28.6650330
 131.2798870 140.6236350  24.1258230 131.0390230 140.8910910  23.2388750
 132.2201510 140.7942080  24.1809090 133.4853290 127.0869040  27.8814740
 133.4242180 127.6790870  28.6310150 134.4253670 126.9795000  27.7365000
 136.1227850 126.7439100  27.5207030 136.7368260 127.0618390  26.8588110
 136.6677410 126.2587690  28.1402890 142.5403030 142.6430730  24.9268870
 142.0461310 143.0399600  24.2096000 141.9316320 142.0179940  25.3206150
 126.6449110 125.4233360  27.6346090 127.1932100 125.2421410  26.8712200
 126.7104420 124.6327470  28.1702400 127.4180870 142.0139010  25.6446290
 126.8241190 141.8823710  26.3836330 127.4104710 141.1777150  25.1788390
 136.8635890 125.3071240  23.8476320 135.9895730 125.6406350  23.6449250
 136.7546640 124.8344420  24.6728190 137.7707870 127.5142110  25.2318040
 137.4421230 126.6993870  24.8519770 138.7190170 127.4711920  25.1083730
 140.2242480 143.2854150  22.2055610 139.7645450 144.0369960  21.8313630
 139.5954940 142.5660620  22.1470410 127.0493100 139.3797390  24.5954330
 126.3227160 138.7602680  24.5280280 127.1102250 139.7738000  23.7252410
 130.6538200 141.5942390  21.3803740 131.1703220 140.9829750  20.8552000
 131.3035580 142.0971170  21.8714750 133.3933700 142.4850880  22.2072720
 133.6811510 142.2305180  21.3305730 133.9056920 141.9328240  22.7978290
 134.6110710 126.2241080  22.7869230 133.8282500 126.6986580  23.0665990
 134.3173640 125.3195910  22.6782410 139.1631780 126.9264180  20.8318320
 139.6039870 126.8709280  19.9839920 138.8939370 127.8422190  20.9028500
 141.0270350 126.5579420  18.8427140 140.9658750 125.6140640  18.6958160
 141.8062380 126.6659510  19.3880600 125.3323100 142.6971780  17.8051090
 125.1645140 142.0642460  18.5032980 124.4657610 142.9031180  17.4545280
 125.9551120 126.5288560  15.3082950 126.7130480 126.6417440  14.7346980
 125.4928290 127.3657760  15.2626380 132.4964930 128.6427830  18.2985260
 131.6839440 128.2684720  17.9581140 133.0006570 127.8872910  18.6006450
 136.9989910 125.3070280  19.5368330 137.6019280 125.8790490  20.0116850
 136.2582900 125.8709720  19.3142230 140.1424510 125.7091840  14.8108610
 140.3375140 126.6075290  15.0776040 139.3554380 125.4778920  15.3041560
 126.9385800 141.3905010  15.2501230 126.4133420 141.7713040  14.5463190
 126.8630380 142.0155780  15.9710940 128.3276270 127.0552610  13.8484920
 128.8569030 126.2682410  13.7192870 128.9604590 127.7343800  14.0820450
 130.5214110 126.7927750  16.9030310 129.8916850 126.0915060  17.0700440
 129.9819250 127.5531880  16.6863470 133.4606060 143.4066980  29.5740920
 134.3873370 143.1711250  29.6176880 133.4456490 144.2338980  29.0926950
 141.6951120 142.9492550  16.5715170 141.8703310 142.2630290  15.9276090
 140.9972690 143.4739600  16.1791840 130.6469670 126.0711730  29.3382800
 130.3653940 126.5745330  28.5743620 131.0289370 125.2733480  28.9724930
 129.5378770 143.3387390  14.1250480 130.2697590 143.0546670  13.5774370
 129.7972440 143.1000670  15.0149860 128.6993560 139.4552120  14.1296810
 128.0702440 139.9237220  14.6782640 128.8141390 138.6101340  14.5643000
 137.2485130 125.4865310  29.9163270 137.1350580 125.8059920  30.8114790
 138.0654870 125.8877820  29.6200550 140.0283620 142.6336840  29.3981960
 140.8208940 142.1386070  29.1907920 140.3216770 143.3126980  30.0057570
 134.2861320 135.2836800   2.1607280 133.5103420 134.8037240   2.4505850
 134.9374250 134.6042450   1.9863440 128.3027150 135.5956610   3.0383040
 127.4712030 135.3405320   3.4379550 128.9108130 135.6667380   3.7740960
 128.2828410 139.6296700   3.2341060 128.5856450 138.7394440   3.0551280
 129.0272000 140.1866920   3.0063310 124.6752110 133.1564150   2.7065130
 125.2468220 132.3886350   2.7068770 124.6753650 133.4552910   1.7971740
 133.7270310 137.9593990   2.1677440 133.6578590 137.0183930   2.0066570
 134.4890170 138.0495400   2.7400010 125.9176980 128.5648510   4.4934060
 125.7379820 127.6674260   4.7736820 125.5157060 129.1120380   5.1681010
 126.5363650 131.0609010   3.1016400 127.2173760 131.3247380   3.7203800
 126.2211700 130.2209880   3.4354410 130.7288220 132.1076370   2.1888990
 131.2366440 132.6057340   2.8294010 131.2601460 131.3311570   2.0128350
 142.8299150 130.2781560   5.8918340 142.1251320 130.6663270   5.3733450
 143.0957070 130.9731850   6.4939270 129.0124320 126.7474930   6.4552410
 129.0142760 127.2647320   5.6498310 128.1828630 126.2705110   6.4322340
 130.2627170 136.3870110   4.6325910 129.9296550 137.0139030   5.2746980
 130.4393850 136.9131990   3.8527580 138.7761080 130.2015190   2.1002250
 138.0716650 130.4900080   2.6805360 139.1373240 131.0115300   1.7401810
 128.6939650 128.4584890   4.4622860 129.0356460 129.3026940   4.1676730
 127.7555460 128.6068630   4.5788200 129.4746270 138.3550910   6.4475090
 130.0920270 139.0301990   6.1659540 128.6139390 138.7638890   6.3562590
 140.3923860 139.8190320   4.3629730 139.7087380 140.4889430   4.3546400
 140.9318150 140.0170970   3.5974590 141.8448000 129.6469980   2.4911460
 140.8972910 129.6808960   2.6226890 142.1697990 130.4608930   2.8760820
 137.9282600 141.6634450   3.0774910 137.9409760 141.2596740   2.2097170
 137.3757820 142.4381740   2.9736340 137.3268040 136.5664290   4.4057520
 137.7436830 136.3524400   3.5710980 138.0507860 136.8237080   4.9766140
 141.2730140 134.9651510   4.4973760 140.4448770 135.0344600   4.0223890
 141.8680620 135.5505820   4.0289590 138.2372150 131.7520830   5.4428630
 137.8243330 132.5774540   5.6968620 137.5048100 131.1665870   5.2504990
 130.8386640 138.2248290   2.4686510 130.5414930 137.6193760   1.7894290
 131.7886460 138.2625600   2.3575870 129.0833560 131.3123940   4.0846340
 129.6348150 131.4219280   3.3099590 129.5977070 131.6861540   4.8001570
 138.9272250 141.7980160   6.1309610 138.4502810 142.6052350   5.9382220
 138.2434040 141.1458490   6.2835820 129.9305070 137.9629980   9.1194310
 129.0333600 138.1869950   9.3667710 129.9557940 138.0864920   8.1705710
 128.7576290 134.8343300   7.6951680 128.6184060 135.7066100   8.0639080
 127.8757650 134.4916110   7.5499620 130.5556640 140.7765000   9.9036830
 130.5272070 141.1807950   9.0365260 130.3921610 139.8475360   9.7408430
 142.5071460 141.5592100  11.2001000 142.9831180 142.0374990  11.8790080
 143.1278620 141.4909590  10.4746500 124.7094940 136.6040850   3.6122590
 124.7875360 136.7389620   2.6678310 125.3236620 135.8956740   3.8050710
 141.9104710 138.7504950   8.3601010 142.0367770 138.5116830   7.4418190
 141.9526090 137.9189490   8.8323090 135.7721450 142.4532950   6.9295820
 136.2866120 142.3640960   7.7318250 134.9290530 142.7992650   7.2223730
 141.7628720 130.8037410   9.3250750 141.1472990 131.3117080   8.7966210
 141.4425140 129.9035740   9.2676690 124.7654460 137.6455020   6.1517050
 124.9285500 137.1760380   5.3336420 125.2306910 137.1378580   6.8165890
 133.8243040 129.6429300   6.7912940 133.3622410 129.8512320   7.6032880
 133.4221150 128.8288650   6.4883610 138.8247550 130.8638250   7.9209600
 137.9741140 130.5644000   8.2418670 138.6649340 131.1080260   7.0093420
 135.9197260 132.3640000  10.0208390 136.2450670 131.5303750   9.6810620
 136.7077590 132.8868520  10.1686720 131.5749130 127.3208110   3.0467220
 131.8721460 128.2270940   2.9659240 132.1234690 126.8326890   2.4326790
 131.7686660 132.7979930   9.5819140 131.6730260 131.8574660   9.4319540
 132.6118640 133.0195000   9.1867210 126.8997200 129.2093600   7.7352920
 126.5060590 130.0568810   7.9425700 126.2115600 128.5719970   7.9261560
 133.4742250 129.2928570  10.8049660 132.7840570 129.1000770  11.4395750
 134.2174550 129.5763210  11.3373960 124.2014250 127.1322060   1.7683000
 123.9127300 127.7024920   2.4807980 124.9460010 126.6526510   2.1314230
 135.7505220 133.1327010   3.6403580 135.0186340 133.6413820   3.9893680
 135.3529560 132.3156990   3.3392360 136.2131130 128.5860690   3.0526520
 136.2303870 129.0369340   3.8968370 135.9646710 127.6866330   3.2659960
 139.6401880 125.9992870   8.8912900 139.9647650 125.2682530   9.4170880
 139.6758390 125.6806510   7.9893890 126.3393440 137.0206450   8.3112860
 125.9548230 136.3800120   8.9095820 126.6505630 137.7242570   8.8807590
 132.4890580 133.8682990   3.7921480 132.8560710 133.3941560   4.5382820
 132.2995640 134.7424560   4.1329820 130.2789950 132.9091630   6.1105690
 129.9747020 133.7883610   6.3356050 131.2336410 132.9691420   6.1463130
 139.5659720 136.1117980   2.4998930 140.2858840 136.6073270   2.1095040
 139.3641540 135.4335870   1.8552800 134.9478520 136.1827040   8.3867930
 134.8815830 135.2622710   8.1325520 134.3183660 136.2802480   9.1012570
 126.3353680 133.7494370   7.2577050 125.9768620 134.4148220   7.8450390
 126.0408240 132.9177920   7.6289670 129.5366800 134.2078610  10.1416600
 129.2366940 134.3535790   9.2444420 130.3078040 133.6483900  10.0489990
 134.8795250 139.0047610   8.1371730 134.8939790 138.0728570   7.9190640
 134.1720350 139.0907370   8.7761500 141.0906460 135.6454950   7.4840310
 140.3654650 136.2383730   7.2869700 141.6181920 135.6378490   6.6853680
 134.3129150 140.6465180   5.2312230 134.9571370 140.8524560   5.9085650
 134.6758590 139.8853580   4.7783080 135.5861230 138.6497530   3.9489680
 136.2283460 137.9490690   4.0621850 136.1110580 139.4295970   3.7686570
 137.3598850 139.4492430   7.1525740 137.6955090 140.0359120   7.8303660
 136.4399190 139.3185140   7.3823530 124.9102250 127.2387610   7.9349150
 124.1960770 127.4384530   8.5401760 125.3297290 126.4627180   8.3063950
 125.1974840 141.2267870   8.9215680 125.3065960 140.2862610   8.7811070
 124.5455400 141.4922620   8.2729410 133.1887430 139.4983760  10.3213800
 132.8684300 138.7793000  10.8659490 132.5145790 140.1738830  10.3949860
 136.4041030 129.7309920   5.6850600 136.7721850 128.9105130   6.0130170
 135.5439230 129.7911810   6.1006250 133.3643020 132.3849510   5.9088570
 133.8628270 132.8595330   6.5740420 133.5065970 131.4613030   6.1158600
 140.5709880 128.6017470   6.7516960 140.0683480 129.3422870   7.0910770
 141.3866540 128.9901470   6.4353750 127.3433280 142.2936780  10.7335290
 128.1446010 142.6148830  11.1470690 126.8285100 141.9332360  11.4555200
 136.1797910 138.4016650  10.6810700 135.5736070 138.4248250   9.9406450
 135.8752020 137.6699690  11.2177950 137.6098280 142.1296940   9.2920110
 138.5620030 142.0454960   9.2420350 137.4626500 142.7938650   9.9653900
 125.0631090 134.7810240   9.6771340 125.5670110 134.2017520  10.2487570
 124.3238510 135.0650470  10.2147710 132.1169030 136.1881230   9.2106860
 131.3514700 136.7566230   9.1261530 132.2984990 135.8957440   8.3175090
 139.2592380 137.9186560   9.7681880 140.0001850 138.2562320   9.2649340
 138.4965060 138.0878620   9.2151650 127.0954170 132.9239830  10.5721410
 127.1359510 132.6253700  11.4806640 127.9499670 133.3247440  10.4128930
 129.0359980 131.5031930   8.5395900 128.5056440 131.0122880   7.9119240
 129.7048050 131.9316130   8.0053830 137.9338040 135.9701390   8.3037090
 138.3479060 136.1246470   9.1527510 136.9989040 136.0956610   8.4662870
 138.4060210 133.3097550  10.3076240 138.9880980 132.5549870  10.2196720
 138.5821980 133.8404990   9.5307720 129.5232280 128.4694300   8.6193190
 129.4289150 127.8515050   7.8944060 128.9429670 129.1960590   8.3923100
 132.2893720 127.0267540   5.6520580 131.8411020 127.0491800   4.8066130
 131.6558920 126.6286560   6.2490880 132.6953270 135.9221870   6.2733020
 133.1141380 136.7654600   6.1009260 131.7761900 136.0593910   6.0439800
 135.0317170 133.6538050   7.6570860 135.1513380 133.0579190   8.3965700
 135.8911170 133.6907740   7.2372160 137.3705070 134.2075240   6.2333370
 136.8440290 134.7317860   5.6298510 137.7136410 134.8402630   6.8643100
 130.5460690 142.2274880   7.3890750 130.0081780 142.9520940   7.0699450
 130.7994650 141.7505220   6.5988090 131.7985940 130.1959400   8.9146680
 132.3885630 129.8875250   9.6024500 130.9806180 129.7239150   9.0706580
 136.6179370 129.8125210   9.1479700 135.9294890 129.1506750   9.0829690
 137.3385390 129.3663480   9.5928160 133.4022900 143.4626090   7.6477400
 133.3281600 144.3661230   7.9549770 132.5001740 143.1437990   7.6199470
 125.2940400 141.6571270   3.6892650 124.8571390 141.8372070   4.5216800
 125.8618080 142.4145890   3.5474370 140.9302580 141.1588270   7.9769960
 140.3304570 141.2180830   7.2333880 141.0596480 140.2193250   8.1066810
 139.6154220 137.8840250   6.0746120 138.8014060 138.3137410   6.3371910
 140.0228420 138.4958660   5.4615170 126.1640760 134.5544070   4.5884870
 126.5313800 134.4671470   5.4680890 125.5951580 133.7910620   4.4891730
 140.9644620 133.0228450   7.6015340 140.7330710 132.7941200   6.7013290
 141.2249170 133.9428000   7.5560230 125.7156760 131.4653160   8.4943290
 124.8212810 131.4319920   8.8337000 126.2554310 131.6639950   9.2594540
 139.4032690 128.2484880  10.3795040 140.2802870 128.2568280  10.7629040
 139.4153530 127.5115720   9.7687390 141.0285680 132.1854290   4.7902610
 140.0788390 132.1517830   4.9047600 141.2098690 133.0954400   4.5552380
 126.2196470 125.7401490   2.8426510 126.8672660 125.1898870   2.4021670
 126.6398310 125.9944640   3.6642320 140.1148810 125.9342850   6.1996150
 140.7521030 126.5476990   6.5655340 140.2623700 125.9703510   5.2545380
 125.9728470 125.8957160   5.5851830 125.6243290 126.3520980   6.3510010
 125.6416170 125.0014290   5.6674260 127.5792840 139.0676760   9.7505020
 127.5362470 138.6969670  10.6319480 127.7103850 140.0054330   9.8906840
 131.2798870 140.6236350   5.3514740 131.0390230 140.8910910   4.4645260
 132.2201510 140.7942080   5.4065600 133.4853290 127.0869040   9.1071250
 133.4242180 127.6790870   9.8566660 134.4253670 126.9795000   8.9621510
 136.1227850 126.7439100   8.7463540 136.7368260 127.0618390   8.0844620
 136.6677410 126.2587690   9.3659400 142.5403030 142.6430730   6.1525380
 142.0461310 143.0399600   5.4352510 141.9316320 142.0179940   6.5462660
 126.6449110 125.4233360   8.8602600 127.1932100 125.2421410   8.0968710
 126.7104420 124.6327470   9.3958910 127.4180870 142.0139010   6.8702800
 126.8241190 141.8823710   7.6092840 127.4104710 141.1777150   6.4044900
 136.8635890 125.3071240   5.0732830 135.9895730 125.6406350   4.8705760
 136.7546640 124.8344420   5.8984700 137.7707870 127.5142110   6.4574550
 137.4421230 126.6993870   6.0776280 138.7190170 127.4711920   6.3340240
 140.2242480 143.2854150   3.4312120 139.7645450 144.0369960   3.0570140
 139.5954940 142.5660620   3.3726920 127.0493100 139.3797390   5.8210840
 126.3227160 138.7602680   5.7536790 127.1102250 139.7738000   4.9508920
 130.6538200 141.5942390   2.6060250 131.1703220 140.9829750   2.0808510
 131.3035580 142.0971170   3.0971260 133.3933700 142.4850880   3.4329230
 133.6811510 142.2305180   2.5562240 133.9056920 141.9328240   4.0234800
 134.6110710 126.2241080   4.0125740 133.8282500 126.6986580   4.2922500
 134.3173640 125.3195910   3.9038920 133.4606060 143.4066980  10.7997430
 134.3873370 143.1711250  10.8433390 133.4456490 144.2338980  10.3183460
 130.6469670 126.0711730  10.5639310 130.3653940 126.5745330   9.8000130
 131.0289370 125.2733480  10.1981440 137.2485130 125.4865310  11.1419780
 137.1350580 125.8059920  12.0371300 138.0654870 125.8877820  10.8457060
 140.0283620 142.6336840  10.6238470 140.8208940 142.1386070  10.4164430
 140.3216770 143.3126980  11.2314080 136.1543280 114.7314290 150.4745930
 136.0737330 113.8168900 150.2037640 135.7407700 115.2281360 149.7685640
 138.3068750 120.9153500 151.1354330 137.8450280 120.1440740 151.4641500
 139.1194300 120.9419570 151.6406780 126.7119100 111.7815010 147.0173350
 125.8235800 112.1230980 146.9153230 126.9960290 111.5815330 146.1254180
 134.5332060 123.2011510 150.7558320 133.9143500 123.6569010 150.1852760
 135.3883840 123.3562970 150.3548020 128.8880490 110.3646510 148.0511730
 128.9947240 111.2650240 148.3580490 127.9772850 110.3164480 147.7606380
 138.5399600 109.4871320 149.5222630 139.3609220 108.9967890 149.5648110
 138.5733680 110.0768980 150.2754470 135.3995410 118.0850750 148.1490230
 134.7812680 118.5500200 147.5852950 135.9118660 118.7778230 148.5659740
 124.7678610 118.7707280 145.5229860 124.3906590 119.2594380 144.7914760
 125.0251680 119.4432560 146.1536390 132.3767540 107.1723670 150.9815370
 132.6842520 106.6170560 150.2650870 131.4468240 107.3068130 150.7988360
 139.2228020 119.6107180 148.3613000 139.1124350 118.6681510 148.4862420
 139.2196270 119.9722820 149.2475760 134.7648300 115.2372500 147.7175490
 133.8377580 115.1709880 147.9463960 134.9173120 116.1752630 147.6030730
 134.7517380 111.5089500 144.7142650 133.8121050 111.6703460 144.7995110
 135.0700640 112.2275180 144.1678640 138.7945590 116.7992800 148.2210740
 138.1758010 116.4612350 147.5737040 138.7770040 116.1552560 148.9289930
 130.3704940 115.7637240 150.4995220 129.9661940 115.0514490 150.0041120
 130.4568060 115.4190480 151.3883260 136.9710290 116.0379610 145.2283490
 137.4103570 115.2002040 145.0821310 137.6838710 116.6709010 145.3147630
 135.0805670 120.9775680 149.1964730 135.5201580 121.7200010 148.7820120
 135.0192560 121.2202250 150.1203690 140.5527430 107.2922420 143.5424530
 140.2400090 107.3849250 144.4423600 141.3139900 107.8703450 143.4921960
 127.0709570 114.6582220 148.0001870 126.9507170 115.3844310 147.3883140
 126.7610460 113.8885130 147.5229780 125.9542570 119.5297550 150.2176690
 125.5470650 119.6712140 149.3630290 126.8455580 119.2457710 150.0147900
 137.7475850 123.9644800 146.5527740 137.5876990 123.6747740 147.4509570
 137.5822560 123.1884930 146.0172970 130.2264230 123.7443330 148.3299360
 130.0506710 122.8278870 148.1167160 129.3719970 124.1030620 148.5697160
 137.4501980 121.4732360 145.1125740 136.7567140 121.4709650 144.4528020
 138.1924840 121.0491680 144.6819910 137.0151910 123.0995070 149.1874230
 137.4708860 122.3184450 149.5012850 137.3544430 123.8101890 149.7315410
 129.5373230 108.0017290 151.3825540 129.0941380 108.7826830 151.0510060
 130.0958220 108.3247180 152.0896480 132.6532050 107.6227990 146.2631370
 132.0286230 107.6187860 146.9884680 132.5662170 106.7558950 145.8667340
 129.3287450 113.1250860 149.1106790 129.1028370 112.9088030 150.0153410
 128.5479980 113.5579320 148.7652760 136.5585210 113.1314230 147.7097440
 135.9594100 113.8550030 147.5261060 137.1064820 113.0691010 146.9273890
 135.1650080 111.7677770 149.7400720 135.5579650 112.0849970 148.9269410
 135.5266930 110.8889650 149.8545240 124.3884480 112.2998690 143.1733640
 124.3059150 113.2429450 143.3148630 124.0367540 112.1573600 142.2945990
 132.1882610 111.0337720 152.2403990 132.1918670 110.5927670 151.3908530
 133.0833730 111.3555050 152.3475810 128.0384990 110.9164210 151.1998200
 127.6985040 111.3939440 151.9565250 127.2762310 110.4629330 150.8399300
 132.2502760 112.0349800 145.2310750 132.3715580 111.9936280 146.1796570
 131.8651270 112.8973950 145.0757480 131.2624260 114.3450940 144.6294050
 130.6941160 113.8969190 144.0029960 131.9713260 114.7043720 144.0959200
 125.3531070 109.8383190 150.1162870 125.0677990 109.4738860 150.9541490
 125.2909930 109.1063650 149.5026010 128.8071740 118.3409130 146.9020460
 128.0334000 117.8006750 146.7419180 129.5366370 117.8215740 146.5638220
 135.0269660 108.7312450 146.8376240 134.2134270 108.2325620 146.7621550
 134.8331610 109.5710700 146.4212590 137.7418050 113.1032100 145.1338400
 138.6297670 113.4149330 144.9589740 137.7123140 112.2304350 144.7418980
 128.8509140 118.0089510 150.5399270 129.3687810 117.2057770 150.4856160
 128.3993160 117.9468650 151.3816100 133.7378640 119.2755790 145.8126570
 134.0794340 120.0198020 145.3169890 132.9091350 119.5886910 146.1751400
 140.0132320 114.4143940 144.6018260 139.9296040 114.8458160 143.7514700
 140.7326510 114.8742290 145.0345080 141.0419570 121.2686200 147.3300390
 140.3995730 120.6141820 147.6044110 140.6550230 121.6741290 146.5541060
 136.6206050 118.5971630 151.1772080 136.9729870 117.9999760 150.5173450
 135.7368380 118.2715860 151.3480330 132.7069330 119.3569320 148.5842490
 133.3940460 119.9038530 148.9650080 131.9201750 119.9010050 148.6192100
 124.8461730 114.9742140 144.0759570 125.7156580 115.2566940 144.3595490
 124.3552050 115.7878010 143.9608380 132.0096540 116.3615350 148.1967850
 132.4659320 117.1720600 148.4228040 131.6584750 116.0438490 149.0286340
 127.9108320 106.7053000 148.6690370 127.7822950 106.6970900 149.6175290
 127.0870340 107.0436090 148.3181380 139.4316950 120.1602660 143.8676740
 139.2054530 119.4433100 144.4601380 139.0413150 119.9115100 143.0298490
 125.2132980 124.1869520 144.6421200 125.5730620 124.7858860 143.9878470
 125.0725320 124.7329410 145.4156230 139.0133200 118.0774600 145.5290900
 138.7254900 118.5387290 146.3168780 139.8085370 117.6172370 145.7975120
 131.2301600 121.5700720 145.4594870 131.2211700 122.3030410 144.8439380
 130.3099960 121.3232300 145.5521830 126.8308240 116.7915610 146.2041630
 126.2236190 117.5314510 146.2136930 127.3057590 116.8814970 145.3779830
 139.7703060 109.9123370 146.6886080 139.1416220 110.0169040 145.9744310
 139.2754980 110.1320150 147.4779960 134.2161200 121.6328960 144.1220060
 134.3173180 121.4292950 143.1922040 133.3162940 121.3787240 144.3267840
 131.7387090 112.1909320 148.1043960 131.0303240 112.6595660 148.5457570
 132.0231570 111.5331330 148.7389150 135.7702520 108.9159980 149.5439750
 135.6470300 108.9346110 148.5949260 136.7187080 108.9638920 149.6638150
 132.8579310 124.1515280 148.8167730 133.1120810 124.1136670 147.8947100
 131.9091790 124.0248610 148.8095980 129.9422110 110.4994400 145.4794670
 130.7912640 110.9364550 145.4134860 129.5753380 110.8114660 146.3066730
 138.8631890 115.0707160 150.3926240 137.9222030 115.0857390 150.5673930
 139.1775960 114.2843120 150.8386540 128.8413530 116.7526760 143.9530200
 129.6076800 116.6408120 144.5155630 128.9188220 116.0564730 143.3006970
 127.5360290 114.1851830 144.6363090 127.6163880 113.2379340 144.7480490
 128.4280040 114.5158710 144.7423750 128.3375000 124.3347220 151.7397630
 129.0737480 123.7862680 152.0106200 128.7215920 125.2003230 151.6003620
 125.2220480 120.4020790 147.6139140 124.2960260 120.6441930 147.6044550
 125.6876910 121.2295050 147.4923890 131.4477310 123.5077530 143.5623200
 132.2405920 123.7966360 143.1104990 130.9281660 123.0769700 142.8835680
 140.5007480 122.7347660 144.9859940 140.2148990 122.3212800 144.1714120
 140.3027030 123.6635370 144.8660460 131.9654710 118.7280940 143.4265550
 131.8605350 118.1133290 144.1526930 131.7978930 118.2046830 142.6428560
 135.2057440 117.7900970 144.0307540 134.6567540 118.2370270 144.6750280
 135.8276700 117.2850220 144.5545210 130.8732560 116.7491890 145.9272840
 131.2948980 116.5831760 146.7704230 130.9983400 115.9392120 145.4327980
 133.3860200 115.7729500 143.1749940 133.9065860 115.0578520 142.8091090
 134.0328600 116.4115370 143.4750450 129.7691460 112.8225120 142.8731000
 129.5680520 111.9592480 143.2344340 129.5983510 112.7358480 141.9352600
 137.2479770 107.6333350 145.4017880 137.5282060 106.7901250 145.7577300
 136.4745500 107.8656460 145.9156630 128.5674260 109.9225740 142.8608880
 128.8700160 109.9293170 141.9528030 129.3068850 109.5723600 143.3576540
 131.7859190 108.8660360 143.8465080 131.4381190 108.1884350 143.2667530
 131.9871960 108.4049870 144.6608470 133.9508230 123.8541110 145.4651680
 134.8459020 124.1926080 145.4870440 133.9825860 123.1320520 144.8375960
 127.5904390 119.2268160 143.6938680 128.0279260 119.7697830 144.3496260
 128.0752120 118.4015110 143.7035020 124.8050190 122.0157190 151.1458940
 125.1353200 121.1478250 150.9137580 125.2341190 122.2215710 151.9763900
 129.4012110 120.3466200 148.8060910 129.1007650 120.2231170 149.7064820
 129.2949600 119.4874790 148.3976640 142.1704030 120.1262600 143.5087590
 141.3396990 120.1939250 143.9794820 142.3475860 121.0166720 143.2054450
 141.6260490 116.8710080 146.0121790 142.3879400 117.4406730 146.1181480
 141.6414860 116.3037280 146.7830100 125.1264830 115.3948010 150.2429450
 124.4713670 115.1259650 149.5989150 125.9642780 115.2852490 149.7931430
 142.6320460 117.7260180 150.8563720 143.0029290 116.9427500 150.4499690
 143.2722390 118.4149280 150.6781020 141.6779660 117.1644450 143.1694310
 141.9528500 118.0723330 143.0413530 141.4890400 117.1006980 144.1056300
 138.0755270 110.1889300 144.4647940 138.4940150 110.0020280 143.6244600
 137.7691330 109.3368350 144.7750870 141.5745000 115.1013440 148.1623740
 141.1988600 114.3341370 147.7305030 140.8448120 115.4836140 148.6498670
 124.3402910 112.6046940 146.1854780 123.4366990 112.8677140 146.0106440
 124.8243530 112.8758110 145.4054740 140.8495960 113.3270930 151.4630980
 141.3733440 112.8333580 150.8321150 141.4355380 113.4621290 152.2078550
 126.8830120 111.6612480 144.0949160 127.5921820 111.2395700 143.6096440
 126.1670060 111.7287710 143.4632510 126.5304280 107.7151810 143.1351810
 127.2532410 108.2560750 143.4533030 126.8028800 107.4415230 142.2593350
 140.3395930 112.5844280 147.4023390 140.8355050 112.3515150 148.1872270
 140.1412000 111.7456120 146.9861030 141.7683090 111.2205230 149.9361070
 141.6582370 111.0661270 150.8743340 142.5290680 110.6926170 149.6936480
 142.6573360 109.0513150 143.1767210 143.5822670 108.9194330 142.9685500
 142.6349150 109.1305970 144.1303660 142.7311850 109.8223810 145.8023920
 141.9363350 109.7568930 146.3316830 142.9355130 110.7574450 145.7909270
 139.6730270 123.8615360 149.7962310 140.2689340 123.5399930 149.1196730
 139.9308420 123.3887180 150.5875580 139.1631780 108.1520690 152.2522750
 139.6039870 108.0965790 151.4044350 138.8939370 109.0678700 152.3232930
 141.0270350 107.7835930 150.2631570 140.9658750 106.8397150 150.1162590
 141.8062380 107.8916020 150.8085030 125.3323100 123.9228290 149.2255520
 125.1645140 123.2898970 149.9237410 124.4657610 124.1287690 148.8749710
 125.9551120 107.7545070 146.7287380 126.7130480 107.8673950 146.1551410
 125.4928290 108.5914270 146.6830810 132.4964930 109.8684340 149.7189690
 131.6839440 109.4941230 149.3785570 133.0006570 109.1129420 150.0210880
 136.9989910 106.5326790 150.9572760 137.6019280 107.1047000 151.4321280
 136.2582900 107.0966230 150.7346660 140.1424510 106.9348350 146.2313040
 140.3375140 107.8331800 146.4980470 139.3554380 106.7035430 146.7245990
 126.9385800 122.6161520 146.6705660 126.4133420 122.9969550 145.9667620
 126.8630380 123.2412290 147.3915370 128.3276270 108.2809120 145.2689350
 128.8569030 107.4938920 145.1397300 128.9604590 108.9600310 145.5024880
 130.5214110 108.0184260 148.3234740 129.8916850 107.3171570 148.4904870
 129.9819250 108.7788390 148.1067900 141.6951120 124.1749060 147.9919600
 141.8703310 123.4886800 147.3480520 140.9972690 124.6996110 147.5996270
 129.5378770 124.5643900 145.5454910 130.2697590 124.2803180 144.9978800
 129.7972440 124.3257180 146.4354290 128.6993560 120.6808630 145.5501240
 128.0702440 121.1493730 146.0987070 128.8141390 119.8357850 145.9847430
 136.1543280 114.7314290 131.7002440 136.0737330 113.8168900 131.4294150
 135.7407700 115.2281360 130.9942150 134.2861320 116.5093310 133.5811710
 133.5103420 116.0293750 133.8710280 134.9374250 115.8298960 133.4067870
 128.3027150 116.8213120 134.4587470 127.4712030 116.5661830 134.8583980
 128.9108130 116.8923890 135.1945390 138.3068750 120.9153500 132.3610840
 137.8450280 120.1440740 132.6898010 139.1194300 120.9419570 132.8663290
 128.2828410 120.8553210 134.6545490 128.5856450 119.9650950 134.4755710
 129.0272000 121.4123430 134.4267740 126.7119100 111.7815010 128.2429860
 125.8235800 112.1230980 128.1409740 126.9960290 111.5815330 127.3510690
 124.6752110 114.3820660 134.1269560 125.2468220 113.6142860 134.1273200
 124.6753650 114.6809420 133.2176170 134.5332060 123.2011510 131.9814830
 133.9143500 123.6569010 131.4109270 135.3883840 123.3562970 131.5804530
 133.7270310 119.1850500 133.5881870 133.6578590 118.2440440 133.4271000
 134.4890170 119.2751910 134.1604440 125.9176980 109.7905020 135.9138490
 125.7379820 108.8930770 136.1941250 125.5157060 110.3376890 136.5885440
 134.7575480 111.9920880 133.8150800 135.1340300 111.1192760 133.7024470
 134.6594990 112.3279580 132.9241240 128.8880490 110.3646510 129.2768240
 128.9947240 111.2650240 129.5837000 127.9772850 110.3164480 128.9862890
 138.5399600 109.4871320 130.7479140 139.3609220 108.9967890 130.7904620
 138.5733680 110.0768980 131.5010980 126.5363650 112.2865520 134.5220830
 127.2173760 112.5503890 135.1408230 126.2211700 111.4466390 134.8558840
 130.7288220 113.3332880 133.6093420 131.2366440 113.8313850 134.2498440
 131.2601460 112.5568080 133.4332780 142.8299150 111.5038070 137.3122770
 142.1251320 111.8919780 136.7937880 143.0957070 112.1988360 137.9143700
 129.0124320 107.9731440 137.8756840 129.0142760 108.4903830 137.0702740
 128.1828630 107.4961620 137.8526770 135.3995410 118.0850750 129.3746740
 134.7812680 118.5500200 128.8109460 135.9118660 118.7778230 129.7916250
 130.2627170 117.6126620 136.0530340 129.9296550 118.2395540 136.6951410
 130.4393850 118.1388500 135.2732010 138.7761080 111.4271700 133.5206680
 138.0716650 111.7156590 134.1009790 139.1373240 112.2371810 133.1606240
 128.6939650 109.6841400 135.8827290 129.0356460 110.5283450 135.5881160
 127.7555460 109.8325140 135.9992630 129.4746270 119.5807420 137.8679520
 130.0920270 120.2558500 137.5863970 128.6139390 119.9895400 137.7767020
 124.7678610 118.7707280 126.7486370 124.3906590 119.2594380 126.0171270
 125.0251680 119.4432560 127.3792900 140.3923860 121.0446830 135.7834160
 139.7087380 121.7145940 135.7750830 140.9318150 121.2427480 135.0179020
 141.8448000 110.8726490 133.9115890 140.8972910 110.9065470 134.0431320
 142.1697990 111.6865440 134.2965250 132.3767540 107.1723670 132.2071880
 132.6842520 106.6170560 131.4907380 131.4468240 107.3068130 132.0244870
 137.9282600 122.8890960 134.4979340 137.9409760 122.4853250 133.6301600
 137.3757820 123.6638250 134.3940770 139.2228020 119.6107180 129.5869510
 139.1124350 118.6681510 129.7118930 139.2196270 119.9722820 130.4732270
 137.3268040 117.7920800 135.8261950 137.7436830 117.5780910 134.9915410
 138.0507860 118.0493590 136.3970570 134.7648300 115.2372500 128.9432000
 133.8377580 115.1709880 129.1720470 134.9173120 116.1752630 128.8287240
 134.7517380 111.5089500 125.9399160 133.8121050 111.6703460 126.0251620
 135.0700640 112.2275180 125.3935150 141.2730140 116.1908020 135.9178190
 140.4448770 116.2601110 135.4428320 141.8680620 116.7762330 135.4494020
 138.7945590 116.7992800 129.4467250 138.1758010 116.4612350 128.7993550
 138.7770040 116.1552560 130.1546440 138.2372150 112.9777340 136.8633060
 137.8243330 113.8031050 137.1173050 137.5048100 112.3922380 136.6709420
 130.3704940 115.7637240 131.7251730 129.9661940 115.0514490 131.2297630
 130.4568060 115.4190480 132.6139770 130.8386640 119.4504800 133.8890940
 130.5414930 118.8450270 133.2098720 131.7886460 119.4882110 133.7780300
 129.0833560 112.5380450 135.5050770 129.6348150 112.6475790 134.7304020
 129.5977070 112.9118050 136.2206000 138.9272250 123.0236670 137.5514040
 138.4502810 123.8308860 137.3586650 138.2434040 122.3715000 137.7040250
 129.9305070 119.1886490 140.5398740 129.0333600 119.4126460 140.7872140
 129.9557940 119.3121430 139.5910140 136.9710290 116.0379610 126.4540000
 137.4103570 115.2002040 126.3077820 137.6838710 116.6709010 126.5404140
 128.7576290 116.0599810 139.1156110 128.6184060 116.9322610 139.4843510
 127.8757650 115.7172620 138.9704050 135.0805670 120.9775680 130.4221240
 135.5201580 121.7200010 130.0076630 135.0192560 121.2202250 131.3460200
 130.5556640 122.0021510 141.3241260 130.5272070 122.4064460 140.4569690
 130.3921610 121.0731870 141.1612860 140.5527430 107.2922420 124.7681040
 140.2400090 107.3849250 125.6680110 141.3139900 107.8703450 124.7178470
 127.0709570 114.6582220 129.2258380 126.9507170 115.3844310 128.6139650
 126.7610460 113.8885130 128.7486290 142.5071460 122.7848610 142.6205430
 142.9831180 123.2631500 143.2994510 143.1278620 122.7166100 141.8950930
 124.7094940 117.8297360 135.0327020 124.7875360 117.9646130 134.0882740
 125.3236620 117.1213250 135.2255140 125.9542570 119.5297550 131.4433200
 125.5470650 119.6712140 130.5886800 126.8455580 119.2457710 131.2404410
 141.9104710 119.9761460 139.7805440 142.0367770 119.7373340 138.8622620
 141.9526090 119.1446000 140.2527520 135.7721450 123.6789460 138.3500250
 136.2866120 123.5897470 139.1522680 134.9290530 124.0249160 138.6428160
 137.7475850 123.9644800 127.7784250 137.5876990 123.6747740 128.6766080
 137.5822560 123.1884930 127.2429480 130.2264230 123.7443330 129.5555870
 130.0506710 122.8278870 129.3423670 129.3719970 124.1030620 129.7953670
 137.4501980 121.4732360 126.3382250 136.7567140 121.4709650 125.6784530
 138.1924840 121.0491680 125.9076420 137.0151910 123.0995070 130.4130740
 137.4708860 122.3184450 130.7269360 137.3544430 123.8101890 130.9571920
 141.7628720 112.0293920 140.7455180 141.1472990 112.5373590 140.2170640
 141.4425140 111.1292250 140.6881120 124.7654460 118.8711530 137.5721480
 124.9285500 118.4016890 136.7540850 125.2306910 118.3635090 138.2370320
 129.5373230 108.0017290 132.6082050 129.0941380 108.7826830 132.2766570
 130.0958220 108.3247180 133.3152990 133.8243040 110.8685810 138.2117370
 133.3622410 111.0768830 139.0237310 133.4221150 110.0545160 137.9088040
 138.8247550 112.0894760 139.3414030 137.9741140 111.7900510 139.6623100
 138.6649340 112.3336770 138.4297850 135.9197260 113.5896510 141.4412820
 136.2450670 112.7560260 141.1015050 136.7077590 114.1125030 141.5891150
 132.6532050 107.6227990 127.4887880 132.0286230 107.6187860 128.2141190
 132.5662170 106.7558950 127.0923850 131.5749130 108.5464620 134.4671650
 131.8721460 109.4527450 134.3863670 132.1234690 108.0583400 133.8531220
 129.3287450 113.1250860 130.3363300 129.1028370 112.9088030 131.2409920
 128.5479980 113.5579320 129.9909270 136.5585210 113.1314230 128.9353950
 135.9594100 113.8550030 128.7517570 137.1064820 113.0691010 128.1530400
 131.7686660 114.0236440 141.0023570 131.6730260 113.0831170 140.8523970
 132.6118640 114.2451510 140.6071640 135.1650080 111.7677770 130.9657230
 135.5579650 112.0849970 130.1525920 135.5266930 110.8889650 131.0801750
 126.8997200 110.4350110 139.1557350 126.5060590 111.2825320 139.3630130
 126.2115600 109.7976480 139.3465990 133.4742250 110.5185080 142.2254090
 132.7840570 110.3257280 142.8600180 134.2174550 110.8019720 142.7578390
 124.2014250 108.3578570 133.1887430 123.9127300 108.9281430 133.9012410
 124.9460010 107.8783020 133.5518660 124.3884480 112.2998690 124.3990150
 124.3059150 113.2429450 124.5405140 124.0367540 112.1573600 123.5202500
 135.7505220 114.3583520 135.0608010 135.0186340 114.8670330 135.4098110
 135.3529560 113.5413500 134.7596790 132.1882610 111.0337720 133.4660500
 132.1918670 110.5927670 132.6165040 133.0833730 111.3555050 133.5732320
 128.0384990 110.9164210 132.4254710 127.6985040 111.3939440 133.1821760
 127.2762310 110.4629330 132.0655810 132.2502760 112.0349800 126.4567260
 132.3715580 111.9936280 127.4053080 131.8651270 112.8973950 126.3013990
 136.2131130 109.8117200 134.4730950 136.2303870 110.2625850 135.3172800
 135.9646710 108.9122840 134.6864390 131.2624260 114.3450940 125.8550560
 130.6941160 113.8969190 125.2286470 131.9713260 114.7043720 125.3215710
 139.6401880 107.2249380 140.3117330 139.9647650 106.4939040 140.8375310
 139.6758390 106.9063020 139.4098320 126.3393440 118.2462960 139.7317290
 125.9548230 117.6056630 140.3300250 126.6505630 118.9499080 140.3012020
 132.4890580 115.0939500 135.2125910 132.8560710 114.6198070 135.9587250
 132.2995640 115.9681070 135.5534250 125.3531070 109.8383190 131.3419380
 125.0677990 109.4738860 132.1798000 125.2909930 109.1063650 130.7282520
 130.2789950 114.1348140 137.5310120 129.9747020 115.0140120 137.7560480
 131.2336410 114.1947930 137.5667560 128.8071740 118.3409130 128.1276970
 128.0334000 117.8006750 127.9675690 129.5366370 117.8215740 127.7894730
 139.5659720 117.3374490 133.9203360 140.2858840 117.8329780 133.5299470
 139.3641540 116.6592380 133.2757230 135.0269660 108.7312450 128.0632750
 134.2134270 108.2325620 127.9878060 134.8331610 109.5710700 127.6469100
 134.9478520 117.4083550 139.8072360 134.8815830 116.4879220 139.5529950
 134.3183660 117.5058990 140.5217000 137.7418050 113.1032100 126.3594910
 138.6297670 113.4149330 126.1846250 137.7123140 112.2304350 125.9675490
 128.8509140 118.0089510 131.7655780 129.3687810 117.2057770 131.7112670
 128.3993160 117.9468650 132.6072610 133.7378640 119.2755790 127.0383080
 134.0794340 120.0198020 126.5426400 132.9091350 119.5886910 127.4007910
 126.3353680 114.9750880 138.6781480 125.9768620 115.6404730 139.2654820
 126.0408240 114.1434430 139.0494100 129.5366800 115.4335120 141.5621030
 129.2366940 115.5792300 140.6648850 130.3078040 114.8740410 141.4694420
 134.8795250 120.2304120 139.5576160 134.8939790 119.2985080 139.3395070
 134.1720350 120.3163880 140.1965930 140.0132320 114.4143940 125.8274770
 139.9296040 114.8458160 124.9771210 140.7326510 114.8742290 126.2601590
 141.0906460 116.8711460 138.9044740 140.3654650 117.4640240 138.7074130
 141.6181920 116.8635000 138.1058110 141.0419570 121.2686200 128.5556900
 140.3995730 120.6141820 128.8300620 140.6550230 121.6741290 127.7797570
 136.6206050 118.5971630 132.4028590 136.9729870 117.9999760 131.7429960
 135.7368380 118.2715860 132.5736840 132.7069330 119.3569320 129.8099000
 133.3940460 119.9038530 130.1906590 131.9201750 119.9010050 129.8448610
 124.8461730 114.9742140 125.3016080 125.7156580 115.2566940 125.5852000
 124.3552050 115.7878010 125.1864890 132.0096540 116.3615350 129.4224360
 132.4659320 117.1720600 129.6484550 131.6584750 116.0438490 130.2542850
 134.3129150 121.8721690 136.6516660 134.9571370 122.0781070 137.3290080
 134.6758590 121.1110090 136.1987510 127.9108320 106.7053000 129.8946880
 127.7822950 106.6970900 130.8431800 127.0870340 107.0436090 129.5437890
 135.5861230 119.8754040 135.3694110 136.2283460 119.1747200 135.4826280
 136.1110580 120.6552480 135.1891000 139.4316950 120.1602660 125.0933250
 139.2054530 119.4433100 125.6857890 139.0413150 119.9115100 124.2555000
 137.3598850 120.6748940 138.5730170 137.6955090 121.2615630 139.2508090
 136.4399190 120.5441650 138.8027960 125.2132980 124.1869520 125.8677710
 125.5730620 124.7858860 125.2134980 125.0725320 124.7329410 126.6412740
 124.9102250 108.4644120 139.3553580 124.1960770 108.6641040 139.9606190
 125.3297290 107.6883690 139.7268380 139.0133200 118.0774600 126.7547410
 138.7254900 118.5387290 127.5425290 139.8085370 117.6172370 127.0231630
 125.1974840 122.4524380 140.3420110 125.3065960 121.5119120 140.2015500
 124.5455400 122.7179130 139.6933840 133.1887430 120.7240270 141.7418230
 132.8684300 120.0049510 142.2863920 132.5145790 121.3995340 141.8154290
 131.2301600 121.5700720 126.6851380 131.2211700 122.3030410 126.0695890
 130.3099960 121.3232300 126.7778340 126.8308240 116.7915610 127.4298140
 126.2236190 117.5314510 127.4393440 127.3057590 116.8814970 126.6036340
 136.4041030 110.9566430 137.1055030 136.7721850 110.1361640 137.4334600
 135.5439230 111.0168320 137.5210680 139.7703060 109.9123370 127.9142590
 139.1416220 110.0169040 127.2000820 139.2754980 110.1320150 128.7036470
 134.2161200 121.6328960 125.3476570 134.3173180 121.4292950 124.4178550
 133.3162940 121.3787240 125.5524350 131.7387090 112.1909320 129.3300470
 131.0303240 112.6595660 129.7714080 132.0231570 111.5331330 129.9645660
 133.3643020 113.6106020 137.3293000 133.8628270 114.0851840 137.9944850
 133.5065970 112.6869540 137.5363030 135.7702520 108.9159980 130.7696260
 135.6470300 108.9346110 129.8205770 136.7187080 108.9638920 130.8894660
 132.8579310 124.1515280 130.0424240 133.1120810 124.1136670 129.1203610
 131.9091790 124.0248610 130.0352490 129.9422110 110.4994400 126.7051180
 130.7912640 110.9364550 126.6391370 129.5753380 110.8114660 127.5323240
 140.5709880 109.8273980 138.1721390 140.0683480 110.5679380 138.5115200
 141.3866540 110.2157980 137.8558180 138.8631890 115.0707160 131.6182750
 137.9222030 115.0857390 131.7930440 139.1775960 114.2843120 132.0643050
 128.8413530 116.7526760 125.1786710 129.6076800 116.6408120 125.7412140
 128.9188220 116.0564730 124.5263480 127.5360290 114.1851830 125.8619600
 127.6163880 113.2379340 125.9737000 128.4280040 114.5158710 125.9680260
 140.8657470 122.2416010 133.2937010 140.9904890 123.0647180 133.7660820
 141.7323030 122.0306740 132.9461160 128.3375000 124.3347220 132.9654140
 129.0737480 123.7862680 133.2362710 128.7215920 125.2003230 132.8260130
 125.2220480 120.4020790 128.8395650 124.2960260 120.6441930 128.8301060
 125.6876910 121.2295050 128.7180400 127.3433280 123.5193290 142.1539720
 128.1446010 123.8405340 142.5675120 126.8285100 123.1588870 142.8759630
 131.4477310 123.5077530 124.7879710 132.2405920 123.7966360 124.3361500
 130.9281660 123.0769700 124.1092190 136.1797910 119.6273160 142.1015130
 135.5736070 119.6504760 141.3610880 135.8752020 118.8956200 142.6382380
 137.6098280 123.3553450 140.7124540 138.5620030 123.2711470 140.6624780
 137.4626500 124.0195160 141.3858330 140.5007480 122.7347660 126.2116450
 140.2148990 122.3212800 125.3970630 140.3027030 123.6635370 126.0916970
 125.0631090 116.0066750 141.0975770 125.5670110 115.4274030 141.6692000
 124.3238510 116.2906980 141.6352140 131.9654710 118.7280940 124.6522060
 131.8605350 118.1133290 125.3783440 131.7978930 118.2046830 123.8685070
 132.1169030 117.4137740 140.6311290 131.3514700 117.9822740 140.5465960
 132.2984990 117.1213950 139.7379520 135.2057440 117.7900970 125.2564050
 134.6567540 118.2370270 125.9006790 135.8276700 117.2850220 125.7801720
 139.2592380 119.1443070 141.1886310 140.0001850 119.4818830 140.6853770
 138.4965060 119.3135130 140.6356080 127.0954170 114.1496340 141.9925840
 127.1359510 113.8510210 142.9011070 127.9499670 114.5503950 141.8333360
 130.8732560 116.7491890 127.1529350 131.2948980 116.5831760 127.9960740
 130.9983400 115.9392120 126.6584490 129.0359980 112.7288440 139.9600330
 128.5056440 112.2379390 139.3323670 129.7048050 113.1572640 139.4258260
 133.3860200 115.7729500 124.4006450 133.9065860 115.0578520 124.0347600
 134.0328600 116.4115370 124.7006960 137.9338040 117.1957900 139.7241520
 138.3479060 117.3502980 140.5731940 136.9989040 117.3213120 139.8867300
 138.4060210 114.5354060 141.7280670 138.9880980 113.7806380 141.6401150
 138.5821980 115.0661500 140.9512150 129.5232280 109.6950810 140.0397620
 129.4289150 109.0771560 139.3148490 128.9429670 110.4217100 139.8127530
 132.2893720 108.2524050 137.0725010 131.8411020 108.2748310 136.2270560
 131.6558920 107.8543070 137.6695310 132.6953270 117.1478380 137.6937450
 133.1141380 117.9911110 137.5213690 131.7761900 117.2850420 137.4644230
 135.0317170 114.8794560 139.0775290 135.1513380 114.2835700 139.8170130
 135.8911170 114.9164250 138.6576590 137.3705070 115.4331750 137.6537800
 136.8440290 115.9574370 137.0502940 137.7136410 116.0659140 138.2847530
 129.7691460 112.8225120 124.0987510 129.5680520 111.9592480 124.4600850
 129.5983510 112.7358480 123.1609110 130.5460690 123.4531390 138.8095180
 130.0081780 124.1777450 138.4903880 130.7994650 122.9761730 138.0192520
 131.7985940 111.4215910 140.3351110 132.3885630 111.1131760 141.0228930
 130.9806180 110.9495660 140.4911010 136.6179370 111.0381720 140.5684130
 135.9294890 110.3763260 140.5034120 137.3385390 110.5919990 141.0132590
 137.2479770 107.6333350 126.6274390 137.5282060 106.7901250 126.9833810
 136.4745500 107.8656460 127.1413140 128.5674260 109.9225740 124.0865390
 128.8700160 109.9293170 123.1784540 129.3068850 109.5723600 124.5833050
 133.4022900 124.6882600 139.0681830 133.3281600 125.5917740 139.3754200
 132.5001740 124.3694500 139.0403900 131.7859190 108.8660360 125.0721590
 131.4381190 108.1884350 124.4924040 131.9871960 108.4049870 125.8864980
 133.9508230 123.8541110 126.6908190 134.8459020 124.1926080 126.7126950
 133.9825860 123.1320520 126.0632470 127.5904390 119.2268160 124.9195190
 128.0279260 119.7697830 125.5752770 128.0752120 118.4015110 124.9291530
 124.8050190 122.0157190 132.3715450 125.1353200 121.1478250 132.1394090
 125.2341190 122.2215710 133.2020410 129.4012110 120.3466200 130.0317420
 129.1007650 120.2231170 130.9321330 129.2949600 119.4874790 129.6233150
 125.2940400 122.8827780 135.1097080 124.8571390 123.0628580 135.9421230
 125.8618080 123.6402400 134.9678800 140.9302580 122.3844780 139.3974390
 140.3304570 122.4437340 138.6538310 141.0596480 121.4449760 139.5271240
 142.1704030 120.1262600 124.7344100 141.3396990 120.1939250 125.2051330
 142.3475860 121.0166720 124.4310960 141.6260490 116.8710080 127.2378300
 142.3879400 117.4406730 127.3437990 141.6414860 116.3037280 128.0086610
 125.1264830 115.3948010 131.4685960 124.4713670 115.1259650 130.8245660
 125.9642780 115.2852490 131.0187940 142.6320460 117.7260180 132.0820230
 143.0029290 116.9427500 131.6756200 143.2722390 118.4149280 131.9037530
 139.6154220 119.1096760 137.4950550 138.8014060 119.5393920 137.7576340
 140.0228420 119.7215170 136.8819600 141.6779660 117.1644450 124.3950820
 141.9528500 118.0723330 124.2670040 141.4890400 117.1006980 125.3312810
 138.0755270 110.1889300 125.6904450 138.4940150 110.0020280 124.8501110
 137.7691330 109.3368350 126.0007380 141.5745000 115.1013440 129.3880250
 141.1988600 114.3341370 128.9561540 140.8448120 115.4836140 129.8755180
 126.1640760 115.7800580 136.0089300 126.5313800 115.6927980 136.8885320
 125.5951580 115.0167130 135.9096160 140.9644620 114.2484960 139.0219770
 140.7330710 114.0197710 138.1217720 141.2249170 115.1684510 138.9764660
 125.7156760 112.6909670 139.9147720 124.8212810 112.6576430 140.2541430
 126.2554310 112.8896460 140.6798970 139.4032690 109.4741390 141.7999470
 140.2802870 109.4824790 142.1833470 139.4153530 108.7372230 141.1891820
 124.3402910 112.6046940 127.4111290 123.4366990 112.8677140 127.2362950
 124.8243530 112.8758110 126.6311250 140.8495960 113.3270930 132.6887490
 141.3733440 112.8333580 132.0577660 141.4355380 113.4621290 133.4335060
 141.0285680 113.4110800 136.2107040 140.0788390 113.3774340 136.3252030
 141.2098690 114.3210910 135.9756810 126.8830120 111.6612480 125.3205670
 127.5921820 111.2395700 124.8352950 126.1670060 111.7287710 124.6889020
 126.5304280 107.7151810 124.3608320 127.2532410 108.2560750 124.6789540
 126.8028800 107.4415230 123.4849860 140.3395930 112.5844280 128.6279900
 140.8355050 112.3515150 129.4128780 140.1412000 111.7456120 128.2117540
 126.2196470 106.9658000 134.2630940 126.8672660 106.4155380 133.8226100
 126.6398310 107.2201150 135.0846750 141.7683090 111.2205230 131.1617580
 141.6582370 111.0661270 132.0999850 142.5290680 110.6926170 130.9192990
 140.1148810 107.1599360 137.6200580 140.7521030 107.7733500 137.9859770
 140.2623700 107.1960020 136.6749810 142.6573360 109.0513150 124.4023720
 143.5822670 108.9194330 124.1942010 142.6349150 109.1305970 125.3560170
 142.7311850 109.8223810 127.0280430 141.9363350 109.7568930 127.5573340
 142.9355130 110.7574450 127.0165780 139.6730270 123.8615360 131.0218820
 140.2689340 123.5399930 130.3453240 139.9308420 123.3887180 131.8132090
 125.9728470 107.1213670 137.0056260 125.6243290 107.5777490 137.7714440
 125.6416170 106.2270800 137.0878690 127.5792840 120.2933270 141.1709450
 127.5362470 119.9226180 142.0523910 127.7103850 121.2310840 141.3111270
 131.2798870 121.8492860 136.7719170 131.0390230 122.1167420 135.8849690
 132.2201510 122.0198590 136.8270030 133.4853290 108.3125550 140.5275680
 133.4242180 108.9047380 141.2771090 134.4253670 108.2051510 140.3825940
 136.1227850 107.9695610 140.1667970 136.7368260 108.2874900 139.5049050
 136.6677410 107.4844200 140.7863830 142.5403030 123.8687240 137.5729810
 142.0461310 124.2656110 136.8556940 141.9316320 123.2436450 137.9667090
 126.6449110 106.6489870 140.2807030 127.1932100 106.4677920 139.5173140
 126.7104420 105.8583980 140.8163340 127.4180870 123.2395520 138.2907230
 126.8241190 123.1080220 139.0297270 127.4104710 122.4033660 137.8249330
 136.8635890 106.5327750 136.4937260 135.9895730 106.8662860 136.2910190
 136.7546640 106.0600930 137.3189130 137.7707870 108.7398620 137.8778980
 137.4421230 107.9250380 137.4980710 138.7190170 108.6968430 137.7544670
 140.2242480 124.5110660 134.8516550 139.7645450 125.2626470 134.4774570
 139.5954940 123.7917130 134.7931350 127.0493100 120.6053900 137.2415270
 126.3227160 119.9859190 137.1741220 127.1102250 120.9994510 136.3713350
 130.6538200 122.8198900 134.0264680 131.1703220 122.2086260 133.5012940
 131.3035580 123.3227680 134.5175690 133.3933700 123.7107390 134.8533660
 133.6811510 123.4561690 133.9766670 133.9056920 123.1584750 135.4439230
 134.6110710 107.4497590 135.4330170 133.8282500 107.9243090 135.7126930
 134.3173640 106.5452420 135.3243350 139.1631780 108.1520690 133.4779260
 139.6039870 108.0965790 132.6300860 138.8939370 109.0678700 133.5489440
 141.0270350 107.7835930 131.4888080 140.9658750 106.8397150 131.3419100
 141.8062380 107.8916020 132.0341540 125.3323100 123.9228290 130.4512030
 125.1645140 123.2898970 131.1493920 124.4657610 124.1287690 130.1006220
 125.9551120 107.7545070 127.9543890 126.7130480 107.8673950 127.3807920
 125.4928290 108.5914270 127.9087320 132.4964930 109.8684340 130.9446200
 131.6839440 109.4941230 130.6042080 133.0006570 109.1129420 131.2467390
 136.9989910 106.5326790 132.1829270 137.6019280 107.1047000 132.6577790
 136.2582900 107.0966230 131.9603170 140.1424510 106.9348350 127.4569550
 140.3375140 107.8331800 127.7236980 139.3554380 106.7035430 127.9502500
 126.9385800 122.6161520 127.8962170 126.4133420 122.9969550 127.1924130
 126.8630380 123.2412290 128.6171880 128.3276270 108.2809120 126.4945860
 128.8569030 107.4938920 126.3653810 128.9604590 108.9600310 126.7281390
 130.5214110 108.0184260 129.5491250 129.8916850 107.3171570 129.7161380
 129.9819250 108.7788390 129.3324410 133.4606060 124.6323490 142.2201860
 134.3873370 124.3967760 142.2637820 133.4456490 125.4595490 141.7387890
 141.6951120 124.1749060 129.2176110 141.8703310 123.4886800 128.5737030
 140.9972690 124.6996110 128.8252780 130.6469670 107.2968240 141.9843740
 130.3653940 107.8001840 141.2204560 131.0289370 106.4989990 141.6185870
 129.5378770 124.5643900 126.7711420 130.2697590 124.2803180 126.2235310
 129.7972440 124.3257180 127.6610800 128.6993560 120.6808630 126.7757750
 128.0702440 121.1493730 127.3243580 128.8141390 119.8357850 127.2103940
 137.2485130 106.7121820 142.5624210 137.1350580 107.0316430 143.4575730
 138.0654870 107.1134330 142.2661490 140.0283620 123.8593350 142.0442900
 140.8208940 123.3642580 141.8368860 140.3216770 124.5383490 142.6518510
 136.1543280 114.7314290 112.9258950 136.0737330 113.8168900 112.6550660
 135.7407700 115.2281360 112.2198660 134.2861320 116.5093310 114.8068220
 133.5103420 116.0293750 115.0966790 134.9374250 115.8298960 114.6324380
 128.3027150 116.8213120 115.6843980 127.4712030 116.5661830 116.0840490
 128.9108130 116.8923890 116.4201900 138.3068750 120.9153500 113.5867350
 137.8450280 120.1440740 113.9154520 139.1194300 120.9419570 114.0919800
 128.2828410 120.8553210 115.8802000 128.5856450 119.9650950 115.7012220
 129.0272000 121.4123430 115.6524250 126.7119100 111.7815010 109.4686370
 125.8235800 112.1230980 109.3666250 126.9960290 111.5815330 108.5767200
 124.6752110 114.3820660 115.3526070 125.2468220 113.6142860 115.3529710
 124.6753650 114.6809420 114.4432680 134.5332060 123.2011510 113.2071340
 133.9143500 123.6569010 112.6365780 135.3883840 123.3562970 112.8061040
 133.7270310 119.1850500 114.8138380 133.6578590 118.2440440 114.6527510
 134.4890170 119.2751910 115.3860950 125.9176980 109.7905020 117.1395000
 125.7379820 108.8930770 117.4197760 125.5157060 110.3376890 117.8141950
 134.7575480 111.9920880 115.0407310 135.1340300 111.1192760 114.9280980
 134.6594990 112.3279580 114.1497750 128.8880490 110.3646510 110.5024750
 128.9947240 111.2650240 110.8093510 127.9772850 110.3164480 110.2119400
 138.5399600 109.4871320 111.9735650 139.3609220 108.9967890 112.0161130
 138.5733680 110.0768980 112.7267490 126.5363650 112.2865520 115.7477340
 127.2173760 112.5503890 116.3664740 126.2211700 111.4466390 116.0815350
 130.7288220 113.3332880 114.8349930 131.2366440 113.8313850 115.4754950
 131.2601460 112.5568080 114.6589290 142.8299150 111.5038070 118.5379280
 142.1251320 111.8919780 118.0194390 143.0957070 112.1988360 119.1400210
 129.0124320 107.9731440 119.1013350 129.0142760 108.4903830 118.2959250
 128.1828630 107.4961620 119.0783280 135.3995410 118.0850750 110.6003250
 134.7812680 118.5500200 110.0365970 135.9118660 118.7778230 111.0172760
 130.2627170 117.6126620 117.2786850 129.9296550 118.2395540 117.9207920
 130.4393850 118.1388500 116.4988520 138.7761080 111.4271700 114.7463190
 138.0716650 111.7156590 115.3266300 139.1373240 112.2371810 114.3862750
 128.6939650 109.6841400 117.1083800 129.0356460 110.5283450 116.8137670
 127.7555460 109.8325140 117.2249140 129.4746270 119.5807420 119.0936030
 130.0920270 120.2558500 118.8120480 128.6139390 119.9895400 119.0023530
 124.7678610 118.7707280 107.9742880 124.3906590 119.2594380 107.2427780
 125.0251680 119.4432560 108.6049410 140.3923860 121.0446830 117.0090670
 139.7087380 121.7145940 117.0007340 140.9318150 121.2427480 116.2435530
 141.8448000 110.8726490 115.1372400 140.8972910 110.9065470 115.2687830
 142.1697990 111.6865440 115.5221760 132.3767540 107.1723670 113.4328390
 132.6842520 106.6170560 112.7163890 131.4468240 107.3068130 113.2501380
 137.9282600 122.8890960 115.7235850 137.9409760 122.4853250 114.8558110
 137.3757820 123.6638250 115.6197280 139.2228020 119.6107180 110.8126020
 139.1124350 118.6681510 110.9375440 139.2196270 119.9722820 111.6988780
 137.3268040 117.7920800 117.0518460 137.7436830 117.5780910 116.2171920
 138.0507860 118.0493590 117.6227080 134.7648300 115.2372500 110.1688510
 133.8377580 115.1709880 110.3976980 134.9173120 116.1752630 110.0543750
 134.7517380 111.5089500 107.1655670 133.8121050 111.6703460 107.2508130
 135.0700640 112.2275180 106.6191660 141.2730140 116.1908020 117.1434700
 140.4448770 116.2601110 116.6684830 141.8680620 116.7762330 116.6750530
 138.7945590 116.7992800 110.6723760 138.1758010 116.4612350 110.0250060
 138.7770040 116.1552560 111.3802950 138.2372150 112.9777340 118.0889570
 137.8243330 113.8031050 118.3429560 137.5048100 112.3922380 117.8965930
 130.3704940 115.7637240 112.9508240 129.9661940 115.0514490 112.4554140
 130.4568060 115.4190480 113.8396280 130.8386640 119.4504800 115.1147450
 130.5414930 118.8450270 114.4355230 131.7886460 119.4882110 115.0036810
 129.0833560 112.5380450 116.7307280 129.6348150 112.6475790 115.9560530
 129.5977070 112.9118050 117.4462510 138.9272250 123.0236670 118.7770550
 138.4502810 123.8308860 118.5843160 138.2434040 122.3715000 118.9296760
 129.9305070 119.1886490 121.7655250 129.0333600 119.4126460 122.0128650
 129.9557940 119.3121430 120.8166650 136.9710290 116.0379610 107.6796510
 137.4103570 115.2002040 107.5334330 137.6838710 116.6709010 107.7660650
 128.7576290 116.0599810 120.3412620 128.6184060 116.9322610 120.7100020
 127.8757650 115.7172620 120.1960560 135.0805670 120.9775680 111.6477750
 135.5201580 121.7200010 111.2333140 135.0192560 121.2202250 112.5716710
 130.5556640 122.0021510 122.5497770 130.5272070 122.4064460 121.6826200
 130.3921610 121.0731870 122.3869370 140.5527430 107.2922420 105.9937550
 140.2400090 107.3849250 106.8936620 141.3139900 107.8703450 105.9434980
 127.0709570 114.6582220 110.4514890 126.9507170 115.3844310 109.8396160
 126.7610460 113.8885130 109.9742800 142.5071460 122.7848610 123.8461940
 142.9831180 123.2631500 124.5251020 143.1278620 122.7166100 123.1207440
 124.7094940 117.8297360 116.2583530 124.7875360 117.9646130 115.3139250
 125.3236620 117.1213250 116.4511650 125.9542570 119.5297550 112.6689710
 125.5470650 119.6712140 111.8143310 126.8455580 119.2457710 112.4660920
 141.9104710 119.9761460 121.0061950 142.0367770 119.7373340 120.0879130
 141.9526090 119.1446000 121.4784030 135.7721450 123.6789460 119.5756760
 136.2866120 123.5897470 120.3779190 134.9290530 124.0249160 119.8684670
 137.7475850 123.9644800 109.0040760 137.5876990 123.6747740 109.9022590
 137.5822560 123.1884930 108.4685990 130.2264230 123.7443330 110.7812380
 130.0506710 122.8278870 110.5680180 129.3719970 124.1030620 111.0210180
 137.4501980 121.4732360 107.5638760 136.7567140 121.4709650 106.9041040
 138.1924840 121.0491680 107.1332930 137.0151910 123.0995070 111.6387250
 137.4708860 122.3184450 111.9525870 137.3544430 123.8101890 112.1828430
 141.7628720 112.0293920 121.9711690 141.1472990 112.5373590 121.4427150
 141.4425140 111.1292250 121.9137630 124.7654460 118.8711530 118.7977990
 124.9285500 118.4016890 117.9797360 125.2306910 118.3635090 119.4626830
 129.5373230 108.0017290 113.8338560 129.0941380 108.7826830 113.5023080
 130.0958220 108.3247180 114.5409500 133.8243040 110.8685810 119.4373880
 133.3622410 111.0768830 120.2493820 133.4221150 110.0545160 119.1344550
 138.8247550 112.0894760 120.5670540 137.9741140 111.7900510 120.8879610
 138.6649340 112.3336770 119.6554360 135.9197260 113.5896510 122.6669330
 136.2450670 112.7560260 122.3271560 136.7077590 114.1125030 122.8147660
 132.6532050 107.6227990 108.7144390 132.0286230 107.6187860 109.4397700
 132.5662170 106.7558950 108.3180360 131.5749130 108.5464620 115.6928160
 131.8721460 109.4527450 115.6120180 132.1234690 108.0583400 115.0787730
 129.3287450 113.1250860 111.5619810 129.1028370 112.9088030 112.4666430
 128.5479980 113.5579320 111.2165780 136.5585210 113.1314230 110.1610460
 135.9594100 113.8550030 109.9774080 137.1064820 113.0691010 109.3786910
 131.7686660 114.0236440 122.2280080 131.6730260 113.0831170 122.0780480
 132.6118640 114.2451510 121.8328150 135.1650080 111.7677770 112.1913740
 135.5579650 112.0849970 111.3782430 135.5266930 110.8889650 112.3058260
 126.8997200 110.4350110 120.3813860 126.5060590 111.2825320 120.5886640
 126.2115600 109.7976480 120.5722500 133.4742250 110.5185080 123.4510600
 132.7840570 110.3257280 124.0856690 134.2174550 110.8019720 123.9834900
 124.2014250 108.3578570 114.4143940 123.9127300 108.9281430 115.1268920
 124.9460010 107.8783020 114.7775170 135.7505220 114.3583520 116.2864520
 135.0186340 114.8670330 116.6354620 135.3529560 113.5413500 115.9853300
 132.1882610 111.0337720 114.6917010 132.1918670 110.5927670 113.8421550
 133.0833730 111.3555050 114.7988830 128.0384990 110.9164210 113.6511220
 127.6985040 111.3939440 114.4078270 127.2762310 110.4629330 113.2912320
 132.2502760 112.0349800 107.6823770 132.3715580 111.9936280 108.6309590
 131.8651270 112.8973950 107.5270500 136.2131130 109.8117200 115.6987460
 136.2303870 110.2625850 116.5429310 135.9646710 108.9122840 115.9120900
 131.2624260 114.3450940 107.0807070 130.6941160 113.8969190 106.4542980
 131.9713260 114.7043720 106.5472220 139.6401880 107.2249380 121.5373840
 139.9647650 106.4939040 122.0631820 139.6758390 106.9063020 120.6354830
 126.3393440 118.2462960 120.9573800 125.9548230 117.6056630 121.5556760
 126.6505630 118.9499080 121.5268530 132.4890580 115.0939500 116.4382420
 132.8560710 114.6198070 117.1843760 132.2995640 115.9681070 116.7790760
 125.3531070 109.8383190 112.5675890 125.0677990 109.4738860 113.4054510
 125.2909930 109.1063650 111.9539030 130.2789950 114.1348140 118.7566630
 129.9747020 115.0140120 118.9816990 131.2336410 114.1947930 118.7924070
 128.8071740 118.3409130 109.3533480 128.0334000 117.8006750 109.1932200
 129.5366370 117.8215740 109.0151240 139.5659720 117.3374490 115.1459870
 140.2858840 117.8329780 114.7555980 139.3641540 116.6592380 114.5013740
 135.0269660 108.7312450 109.2889260 134.2134270 108.2325620 109.2134570
 134.8331610 109.5710700 108.8725610 134.9478520 117.4083550 121.0328870
 134.8815830 116.4879220 120.7786460 134.3183660 117.5058990 121.7473510
 137.7418050 113.1032100 107.5851420 138.6297670 113.4149330 107.4102760
 137.7123140 112.2304350 107.1932000 128.8509140 118.0089510 112.9912290
 129.3687810 117.2057770 112.9369180 128.3993160 117.9468650 113.8329120
 133.7378640 119.2755790 108.2639590 134.0794340 120.0198020 107.7682910
 132.9091350 119.5886910 108.6264420 126.3353680 114.9750880 119.9037990
 125.9768620 115.6404730 120.4911330 126.0408240 114.1434430 120.2750610
 129.5366800 115.4335120 122.7877540 129.2366940 115.5792300 121.8905360
 130.3078040 114.8740410 122.6950930 134.8795250 120.2304120 120.7832670
 134.8939790 119.2985080 120.5651580 134.1720350 120.3163880 121.4222440
 140.0132320 114.4143940 107.0531280 139.9296040 114.8458160 106.2027720
 140.7326510 114.8742290 107.4858100 141.0906460 116.8711460 120.1301250
 140.3654650 117.4640240 119.9330640 141.6181920 116.8635000 119.3314620
 141.0419570 121.2686200 109.7813410 140.3995730 120.6141820 110.0557130
 140.6550230 121.6741290 109.0054080 136.6206050 118.5971630 113.6285100
 136.9729870 117.9999760 112.9686470 135.7368380 118.2715860 113.7993350
 132.7069330 119.3569320 111.0355510 133.3940460 119.9038530 111.4163100
 131.9201750 119.9010050 111.0705120 124.8461730 114.9742140 106.5272590
 125.7156580 115.2566940 106.8108510 124.3552050 115.7878010 106.4121400
 132.0096540 116.3615350 110.6480870 132.4659320 117.1720600 110.8741060
 131.6584750 116.0438490 111.4799360 134.3129150 121.8721690 117.8773170
 134.9571370 122.0781070 118.5546590 134.6758590 121.1110090 117.4244020
 127.9108320 106.7053000 111.1203390 127.7822950 106.6970900 112.0688310
 127.0870340 107.0436090 110.7694400 135.5861230 119.8754040 116.5950620
 136.2283460 119.1747200 116.7082790 136.1110580 120.6552480 116.4147510
 139.4316950 120.1602660 106.3189760 139.2054530 119.4433100 106.9114400
 139.0413150 119.9115100 105.4811510 137.3598850 120.6748940 119.7986680
 137.6955090 121.2615630 120.4764600 136.4399190 120.5441650 120.0284470
 125.2132980 124.1869520 107.0934220 125.5730620 124.7858860 106.4391490
 125.0725320 124.7329410 107.8669250 124.9102250 108.4644120 120.5810090
 124.1960770 108.6641040 121.1862700 125.3297290 107.6883690 120.9524890
 139.0133200 118.0774600 107.9803920 138.7254900 118.5387290 108.7681800
 139.8085370 117.6172370 108.2488140 125.1974840 122.4524380 121.5676620
 125.3065960 121.5119120 121.4272010 124.5455400 122.7179130 120.9190350
 133.1887430 120.7240270 122.9674740 132.8684300 120.0049510 123.5120430
 132.5145790 121.3995340 123.0410800 131.2301600 121.5700720 107.9107890
 131.2211700 122.3030410 107.2952400 130.3099960 121.3232300 108.0034850
 126.8308240 116.7915610 108.6554650 126.2236190 117.5314510 108.6649950
 127.3057590 116.8814970 107.8292850 136.4041030 110.9566430 118.3311540
 136.7721850 110.1361640 118.6591110 135.5439230 111.0168320 118.7467190
 139.7703060 109.9123370 109.1399100 139.1416220 110.0169040 108.4257330
 139.2754980 110.1320150 109.9292980 134.2161200 121.6328960 106.5733080
 134.3173180 121.4292950 105.6435060 133.3162940 121.3787240 106.7780860
 131.7387090 112.1909320 110.5556980 131.0303240 112.6595660 110.9970590
 132.0231570 111.5331330 111.1902170 133.3643020 113.6106020 118.5549510
 133.8628270 114.0851840 119.2201360 133.5065970 112.6869540 118.7619540
 135.7702520 108.9159980 111.9952770 135.6470300 108.9346110 111.0462280
 136.7187080 108.9638920 112.1151170 132.8579310 124.1515280 111.2680750
 133.1120810 124.1136670 110.3460120 131.9091790 124.0248610 111.2609000
 129.9422110 110.4994400 107.9307690 130.7912640 110.9364550 107.8647880
 129.5753380 110.8114660 108.7579750 140.5709880 109.8273980 119.3977900
 140.0683480 110.5679380 119.7371710 141.3866540 110.2157980 119.0814690
 138.8631890 115.0707160 112.8439260 137.9222030 115.0857390 113.0186950
 139.1775960 114.2843120 113.2899560 128.8413530 116.7526760 106.4043220
 129.6076800 116.6408120 106.9668650 128.9188220 116.0564730 105.7519990
 127.5360290 114.1851830 107.0876110 127.6163880 113.2379340 107.1993510
 128.4280040 114.5158710 107.1936770 140.8657470 122.2416010 114.5193520
 140.9904890 123.0647180 114.9917330 141.7323030 122.0306740 114.1717670
 128.3375000 124.3347220 114.1910650 129.0737480 123.7862680 114.4619220
 128.7215920 125.2003230 114.0516640 125.2220480 120.4020790 110.0652160
 124.2960260 120.6441930 110.0557570 125.6876910 121.2295050 109.9436910
 127.3433280 123.5193290 123.3796230 128.1446010 123.8405340 123.7931630
 126.8285100 123.1588870 124.1016140 131.4477310 123.5077530 106.0136220
 132.2405920 123.7966360 105.5618010 130.9281660 123.0769700 105.3348700
 136.1797910 119.6273160 123.3271640 135.5736070 119.6504760 122.5867390
 135.8752020 118.8956200 123.8638890 137.6098280 123.3553450 121.9381050
 138.5620030 123.2711470 121.8881290 137.4626500 124.0195160 122.6114840
 140.5007480 122.7347660 107.4372960 140.2148990 122.3212800 106.6227140
 140.3027030 123.6635370 107.3173480 125.0631090 116.0066750 122.3232280
 125.5670110 115.4274030 122.8948510 124.3238510 116.2906980 122.8608650
 131.9654710 118.7280940 105.8778570 131.8605350 118.1133290 106.6039950
 131.7978930 118.2046830 105.0941580 132.1169030 117.4137740 121.8567800
 131.3514700 117.9822740 121.7722470 132.2984990 117.1213950 120.9636030
 135.2057440 117.7900970 106.4820560 134.6567540 118.2370270 107.1263300
 135.8276700 117.2850220 107.0058230 139.2592380 119.1443070 122.4142820
 140.0001850 119.4818830 121.9110280 138.4965060 119.3135130 121.8612590
 127.0954170 114.1496340 123.2182350 127.1359510 113.8510210 124.1267580
 127.9499670 114.5503950 123.0589870 130.8732560 116.7491890 108.3785860
 131.2948980 116.5831760 109.2217250 130.9983400 115.9392120 107.8841000
 129.0359980 112.7288440 121.1856840 128.5056440 112.2379390 120.5580180
 129.7048050 113.1572640 120.6514770 133.3860200 115.7729500 105.6262960
 133.9065860 115.0578520 105.2604110 134.0328600 116.4115370 105.9263470
 137.9338040 117.1957900 120.9498030 138.3479060 117.3502980 121.7988450
 136.9989040 117.3213120 121.1123810 138.4060210 114.5354060 122.9537180
 138.9880980 113.7806380 122.8657660 138.5821980 115.0661500 122.1768660
 129.5232280 109.6950810 121.2654130 129.4289150 109.0771560 120.5405000
 128.9429670 110.4217100 121.0384040 132.2893720 108.2524050 118.2981520
 131.8411020 108.2748310 117.4527070 131.6558920 107.8543070 118.8951820
 132.6953270 117.1478380 118.9193960 133.1141380 117.9911110 118.7470200
 131.7761900 117.2850420 118.6900740 135.0317170 114.8794560 120.3031800
 135.1513380 114.2835700 121.0426640 135.8911170 114.9164250 119.8833100
 137.3705070 115.4331750 118.8794310 136.8440290 115.9574370 118.2759450
 137.7136410 116.0659140 119.5104040 129.7691460 112.8225120 105.3244020
 129.5680520 111.9592480 105.6857360 129.5983510 112.7358480 104.3865620
 130.5460690 123.4531390 120.0351690 130.0081780 124.1777450 119.7160390
 130.7994650 122.9761730 119.2449030 131.7985940 111.4215910 121.5607620
 132.3885630 111.1131760 122.2485440 130.9806180 110.9495660 121.7167520
 136.6179370 111.0381720 121.7940640 135.9294890 110.3763260 121.7290630
 137.3385390 110.5919990 122.2389100 137.2479770 107.6333350 107.8530900
 137.5282060 106.7901250 108.2090320 136.4745500 107.8656460 108.3669650
 128.5674260 109.9225740 105.3121900 128.8700160 109.9293170 104.4041050
 129.3068850 109.5723600 105.8089560 133.4022900 124.6882600 120.2938340
 133.3281600 125.5917740 120.6010710 132.5001740 124.3694500 120.2660410
 131.7859190 108.8660360 106.2978100 131.4381190 108.1884350 105.7180550
 131.9871960 108.4049870 107.1121490 133.9508230 123.8541110 107.9164700
 134.8459020 124.1926080 107.9383460 133.9825860 123.1320520 107.2888980
 127.5904390 119.2268160 106.1451700 128.0279260 119.7697830 106.8009280
 128.0752120 118.4015110 106.1548040 124.8050190 122.0157190 113.5971960
 125.1353200 121.1478250 113.3650600 125.2341190 122.2215710 114.4276920
 129.4012110 120.3466200 111.2573930 129.1007650 120.2231170 112.1577840
 129.2949600 119.4874790 110.8489660 125.2940400 122.8827780 116.3353590
 124.8571390 123.0628580 117.1677740 125.8618080 123.6402400 116.1935310
 140.9302580 122.3844780 120.6230900 140.3304570 122.4437340 119.8794820
 141.0596480 121.4449760 120.7527750 142.1704030 120.1262600 105.9600610
 141.3396990 120.1939250 106.4307840 142.3475860 121.0166720 105.6567470
 141.6260490 116.8710080 108.4634810 142.3879400 117.4406730 108.5694500
 141.6414860 116.3037280 109.2343120 125.1264830 115.3948010 112.6942470
 124.4713670 115.1259650 112.0502170 125.9642780 115.2852490 112.2444450
 142.6320460 117.7260180 113.3076740 143.0029290 116.9427500 112.9012710
 143.2722390 118.4149280 113.1294040 139.6154220 119.1096760 118.7207060
 138.8014060 119.5393920 118.9832850 140.0228420 119.7215170 118.1076110
 141.6779660 117.1644450 105.6207330 141.9528500 118.0723330 105.4926550
 141.4890400 117.1006980 106.5569320 138.0755270 110.1889300 106.9160960
 138.4940150 110.0020280 106.0757620 137.7691330 109.3368350 107.2263890
 141.5745000 115.1013440 110.6136760 141.1988600 114.3341370 110.1818050
 140.8448120 115.4836140 111.1011690 126.1640760 115.7800580 117.2345810
 126.5313800 115.6927980 118.1141830 125.5951580 115.0167130 117.1352670
 140.9644620 114.2484960 120.2476280 140.7330710 114.0197710 119.3474230
 141.2249170 115.1684510 120.2021170 125.7156760 112.6909670 121.1404230
 124.8212810 112.6576430 121.4797940 126.2554310 112.8896460 121.9055480
 139.4032690 109.4741390 123.0255980 140.2802870 109.4824790 123.4089980
 139.4153530 108.7372230 122.4148330 124.3402910 112.6046940 108.6367800
 123.4366990 112.8677140 108.4619460 124.8243530 112.8758110 107.8567760
 140.8495960 113.3270930 113.9144000 141.3733440 112.8333580 113.2834170
 141.4355380 113.4621290 114.6591570 141.0285680 113.4110800 117.4363550
 140.0788390 113.3774340 117.5508540 141.2098690 114.3210910 117.2013320
 126.8830120 111.6612480 106.5462180 127.5921820 111.2395700 106.0609460
 126.1670060 111.7287710 105.9145530 126.5304280 107.7151810 105.5864830
 127.2532410 108.2560750 105.9046050 126.8028800 107.4415230 104.7106370
 140.3395930 112.5844280 109.8536410 140.8355050 112.3515150 110.6385290
 140.1412000 111.7456120 109.4374050 126.2196470 106.9658000 115.4887450
 126.8672660 106.4155380 115.0482610 126.6398310 107.2201150 116.3103260
 141.7683090 111.2205230 112.3874090 141.6582370 111.0661270 113.3256360
 142.5290680 110.6926170 112.1449500 140.1148810 107.1599360 118.8457090
 140.7521030 107.7733500 119.2116280 140.2623700 107.1960020 117.9006320
 142.6573360 109.0513150 105.6280230 143.5822670 108.9194330 105.4198520
 142.6349150 109.1305970 106.5816680 142.7311850 109.8223810 108.2536940
 141.9363350 109.7568930 108.7829850 142.9355130 110.7574450 108.2422290
 139.6730270 123.8615360 112.2475330 140.2689340 123.5399930 111.5709750
 139.9308420 123.3887180 113.0388600 125.9728470 107.1213670 118.2312770
 125.6243290 107.5777490 118.9970950 125.6416170 106.2270800 118.3135200
 127.5792840 120.2933270 122.3965960 127.5362470 119.9226180 123.2780420
 127.7103850 121.2310840 122.5367780 131.2798870 121.8492860 117.9975680
 131.0390230 122.1167420 117.1106200 132.2201510 122.0198590 118.0526540
 133.4853290 108.3125550 121.7532190 133.4242180 108.9047380 122.5027600
 134.4253670 108.2051510 121.6082450 136.1227850 107.9695610 121.3924480
 136.7368260 108.2874900 120.7305560 136.6677410 107.4844200 122.0120340
 142.5403030 123.8687240 118.7986320 142.0461310 124.2656110 118.0813450
 141.9316320 123.2436450 119.1923600 126.6449110 106.6489870 121.5063540
 127.1932100 106.4677920 120.7429650 126.7104420 105.8583980 122.0419850
 127.4180870 123.2395520 119.5163740 126.8241190 123.1080220 120.2553780
 127.4104710 122.4033660 119.0505840 136.8635890 106.5327750 117.7193770
 135.9895730 106.8662860 117.5166700 136.7546640 106.0600930 118.5445640
 137.7707870 108.7398620 119.1035490 137.4421230 107.9250380 118.7237220
 138.7190170 108.6968430 118.9801180 140.2242480 124.5110660 116.0773060
 139.7645450 125.2626470 115.7031080 139.5954940 123.7917130 116.0187860
 127.0493100 120.6053900 118.4671780 126.3227160 119.9859190 118.3997730
 127.1102250 120.9994510 117.5969860 130.6538200 122.8198900 115.2521190
 131.1703220 122.2086260 114.7269450 131.3035580 123.3227680 115.7432200
 133.3933700 123.7107390 116.0790170 133.6811510 123.4561690 115.2023180
 133.9056920 123.1584750 116.6695740 134.6110710 107.4497590 116.6586680
 133.8282500 107.9243090 116.9383440 134.3173640 106.5452420 116.5499860
 139.1631780 108.1520690 114.7035770 139.6039870 108.0965790 113.8557370
 138.8939370 109.0678700 114.7745950 141.0270350 107.7835930 112.7144590
 140.9658750 106.8397150 112.5675610 141.8062380 107.8916020 113.2598050
 125.3323100 123.9228290 111.6768540 125.1645140 123.2898970 112.3750430
 124.4657610 124.1287690 111.3262730 125.9551120 107.7545070 109.1800400
 126.7130480 107.8673950 108.6064430 125.4928290 108.5914270 109.1343830
 132.4964930 109.8684340 112.1702710 131.6839440 109.4941230 111.8298590
 133.0006570 109.1129420 112.4723900 136.9989910 106.5326790 113.4085780
 137.6019280 107.1047000 113.8834300 136.2582900 107.0966230 113.1859680
 140.1424510 106.9348350 108.6826060 140.3375140 107.8331800 108.9493490
 139.3554380 106.7035430 109.1759010 126.9385800 122.6161520 109.1218680
 126.4133420 122.9969550 108.4180640 126.8630380 123.2412290 109.8428390
 128.3276270 108.2809120 107.7202370 128.8569030 107.4938920 107.5910320
 128.9604590 108.9600310 107.9537900 130.5214110 108.0184260 110.7747760
 129.8916850 107.3171570 110.9417890 129.9819250 108.7788390 110.5580920
 133.4606060 124.6323490 123.4458370 134.3873370 124.3967760 123.4894330
 133.4456490 125.4595490 122.9644400 141.6951120 124.1749060 110.4432620
 141.8703310 123.4886800 109.7993540 140.9972690 124.6996110 110.0509290
 130.6469670 107.2968240 123.2100250 130.3653940 107.8001840 122.4461070
 131.0289370 106.4989990 122.8442380 129.5378770 124.5643900 107.9967930
 130.2697590 124.2803180 107.4491820 129.7972440 124.3257180 108.8867310
 128.6993560 120.6808630 108.0014260 128.0702440 121.1493730 108.5500090
 128.8141390 119.8357850 108.4360450 137.2485130 106.7121820 123.7880720
 137.1350580 107.0316430 124.6832240 138.0654870 107.1134330 123.4918000
 140.0283620 123.8593350 123.2699410 140.8208940 123.3642580 123.0625370
 140.3216770 124.5383490 123.8775020 136.1543280 114.7314290  94.1515460
 136.0737330 113.8168900  93.8807170 135.7407700 115.2281360  93.4455170
 134.2861320 116.5093310  96.0324730 133.5103420 116.0293750  96.3223300
 134.9374250 115.8298960  95.8580890 128.3027150 116.8213120  96.9100490
 127.4712030 116.5661830  97.3097000 128.9108130 116.8923890  97.6458410
 138.3068750 120.9153500  94.8123860 137.8450280 120.1440740  95.1411030
 139.1194300 120.9419570  95.3176310 128.2828410 120.8553210  97.1058510
 128.5856450 119.9650950  96.9268730 129.0272000 121.4123430  96.8780760
 134.5332060 123.2011510  94.4327850 133.9143500 123.6569010  93.8622290
 135.3883840 123.3562970  94.0317550 133.7270310 119.1850500  96.0394890
 133.6578590 118.2440440  95.8784020 134.4890170 119.2751910  96.6117460
 134.7575480 111.9920880  96.2663820 135.1340300 111.1192760  96.1537490
 134.6594990 112.3279580  95.3754260 138.5399600 109.4871320  93.1992160
 139.3609220 108.9967890  93.2417640 138.5733680 110.0768980  93.9524000
 142.8299150 111.5038070  99.7635790 142.1251320 111.8919780  99.2450900
 143.0957070 112.1988360 100.3656720 129.0124320 107.9731440 100.3269860
 129.0142760 108.4903830  99.5215760 128.1828630 107.4961620 100.3039790
 135.3995410 118.0850750  91.8259760 134.7812680 118.5500200  91.2622480
 135.9118660 118.7778230  92.2429270 130.2627170 117.6126620  98.5043360
 129.9296550 118.2395540  99.1464430 130.4393850 118.1388500  97.7245030
 138.7761080 111.4271700  95.9719700 138.0716650 111.7156590  96.5522810
 139.1373240 112.2371810  95.6119260 129.4746270 119.5807420 100.3192540
 130.0920270 120.2558500 100.0376990 128.6139390 119.9895400 100.2280040
 124.7678610 118.7707280  89.1999390 124.3906590 119.2594380  88.4684290
 125.0251680 119.4432560  89.8305920 140.3923860 121.0446830  98.2347180
 139.7087380 121.7145940  98.2263850 140.9318150 121.2427480  97.4692040
 141.8448000 110.8726490  96.3628910 140.8972910 110.9065470  96.4944340
 142.1697990 111.6865440  96.7478270 132.3767540 107.1723670  94.6584900
 132.6842520 106.6170560  93.9420400 131.4468240 107.3068130  94.4757890
 137.9282600 122.8890960  96.9492360 137.9409760 122.4853250  96.0814620
 137.3757820 123.6638250  96.8453790 139.2228020 119.6107180  92.0382530
 139.1124350 118.6681510  92.1631950 139.2196270 119.9722820  92.9245290
 137.3268040 117.7920800  98.2774970 137.7436830 117.5780910  97.4428430
 138.0507860 118.0493590  98.8483590 134.7648300 115.2372500  91.3945020
 133.8377580 115.1709880  91.6233490 134.9173120 116.1752630  91.2800260
 134.7517380 111.5089500  88.3912180 133.8121050 111.6703460  88.4764640
 135.0700640 112.2275180  87.8448170 141.2730140 116.1908020  98.3691210
 140.4448770 116.2601110  97.8941340 141.8680620 116.7762330  97.9007040
 138.7945590 116.7992800  91.8980270 138.1758010 116.4612350  91.2506570
 138.7770040 116.1552560  92.6059460 138.2372150 112.9777340  99.3146080
 137.8243330 113.8031050  99.5686070 137.5048100 112.3922380  99.1222440
 130.3704940 115.7637240  94.1764750 129.9661940 115.0514490  93.6810650
 130.4568060 115.4190480  95.0652790 130.8386640 119.4504800  96.3403960
 130.5414930 118.8450270  95.6611740 131.7886460 119.4882110  96.2293320
 138.9272250 123.0236670 100.0027060 138.4502810 123.8308860  99.8099670
 138.2434040 122.3715000 100.1553270 129.9305070 119.1886490 102.9911760
 129.0333600 119.4126460 103.2385160 129.9557940 119.3121430 102.0423160
 136.9710290 116.0379610  88.9053020 137.4103570 115.2002040  88.7590840
 137.6838710 116.6709010  88.9917160 128.7576290 116.0599810 101.5669130
 128.6184060 116.9322610 101.9356530 127.8757650 115.7172620 101.4217070
 135.0805670 120.9775680  92.8734260 135.5201580 121.7200010  92.4589650
 135.0192560 121.2202250  93.7973220 130.5556640 122.0021510 103.7754280
 130.5272070 122.4064460 102.9082710 130.3921610 121.0731870 103.6125880
 140.5527430 107.2922420  87.2194060 140.2400090 107.3849250  88.1193130
 141.3139900 107.8703450  87.1691490 142.5071460 122.7848610 105.0718450
 142.9831180 123.2631500 105.7507530 143.1278620 122.7166100 104.3463950
 124.7094940 117.8297360  97.4840040 124.7875360 117.9646130  96.5395760
 125.3236620 117.1213250  97.6768160 125.9542570 119.5297550  93.8946220
 125.5470650 119.6712140  93.0399820 126.8455580 119.2457710  93.6917430
 141.9104710 119.9761460 102.2318460 142.0367770 119.7373340 101.3135640
 141.9526090 119.1446000 102.7040540 135.7721450 123.6789460 100.8013270
 136.2866120 123.5897470 101.6035700 134.9290530 124.0249160 101.0941180
 137.7475850 123.9644800  90.2297270 137.5876990 123.6747740  91.1279100
 137.5822560 123.1884930  89.6942500 130.2264230 123.7443330  92.0068890
 130.0506710 122.8278870  91.7936690 129.3719970 124.1030620  92.2466690
 137.4501980 121.4732360  88.7895270 136.7567140 121.4709650  88.1297550
 138.1924840 121.0491680  88.3589440 137.0151910 123.0995070  92.8643760
 137.4708860 122.3184450  93.1782380 137.3544430 123.8101890  93.4084940
 141.7628720 112.0293920 103.1968200 141.1472990 112.5373590 102.6683660
 141.4425140 111.1292250 103.1394140 124.7654460 118.8711530 100.0234500
 124.9285500 118.4016890  99.2053870 125.2306910 118.3635090 100.6883340
 133.8243040 110.8685810 100.6630390 133.3622410 111.0768830 101.4750330
 133.4221150 110.0545160 100.3601060 138.8247550 112.0894760 101.7927050
 137.9741140 111.7900510 102.1136120 138.6649340 112.3336770 100.8810870
 135.9197260 113.5896510 103.8925840 136.2450670 112.7560260 103.5528070
 136.7077590 114.1125030 104.0404170 131.5749130 108.5464620  96.9184670
 131.8721460 109.4527450  96.8376690 132.1234690 108.0583400  96.3044240
 136.5585210 113.1314230  91.3866970 135.9594100 113.8550030  91.2030590
 137.1064820 113.0691010  90.6043420 131.7686660 114.0236440 103.4536590
 131.6730260 113.0831170 103.3036990 132.6118640 114.2451510 103.0584660
 135.1650080 111.7677770  93.4170250 135.5579650 112.0849970  92.6038940
 135.5266930 110.8889650  93.5314770 133.4742250 110.5185080 104.6767110
 132.7840570 110.3257280 105.3113200 134.2174550 110.8019720 105.2091410
 135.7505220 114.3583520  97.5121030 135.0186340 114.8670330  97.8611130
 135.3529560 113.5413500  97.2109810 132.2502760 112.0349800  88.9080280
 132.3715580 111.9936280  89.8566100 131.8651270 112.8973950  88.7527010
 136.2131130 109.8117200  96.9243970 136.2303870 110.2625850  97.7685820
 135.9646710 108.9122840  97.1377410 131.2624260 114.3450940  88.3063580
 130.6941160 113.8969190  87.6799490 131.9713260 114.7043720  87.7728730
 139.6401880 107.2249380 102.7630350 139.9647650 106.4939040 103.2888330
 139.6758390 106.9063020 101.8611340 126.3393440 118.2462960 102.1830310
 125.9548230 117.6056630 102.7813270 126.6505630 118.9499080 102.7525040
 132.4890580 115.0939500  97.6638930 132.8560710 114.6198070  98.4100270
 132.2995640 115.9681070  98.0047270 130.2789950 114.1348140  99.9823140
 129.9747020 115.0140120 100.2073500 131.2336410 114.1947930 100.0180580
 128.8071740 118.3409130  90.5789990 128.0334000 117.8006750  90.4188710
 129.5366370 117.8215740  90.2407750 139.5659720 117.3374490  96.3716380
 140.2858840 117.8329780  95.9812490 139.3641540 116.6592380  95.7270250
 135.0269660 108.7312450  90.5145770 134.2134270 108.2325620  90.4391080
 134.8331610 109.5710700  90.0982120 134.9478520 117.4083550 102.2585380
 134.8815830 116.4879220 102.0042970 134.3183660 117.5058990 102.9730020
 137.7418050 113.1032100  88.8107930 138.6297670 113.4149330  88.6359270
 137.7123140 112.2304350  88.4188510 128.8509140 118.0089510  94.2168800
 129.3687810 117.2057770  94.1625690 128.3993160 117.9468650  95.0585630
 133.7378640 119.2755790  89.4896100 134.0794340 120.0198020  88.9939420
 132.9091350 119.5886910  89.8520930 129.5366800 115.4335120 104.0134050
 129.2366940 115.5792300 103.1161870 130.3078040 114.8740410 103.9207440
 134.8795250 120.2304120 102.0089180 134.8939790 119.2985080 101.7908090
 134.1720350 120.3163880 102.6478950 140.0132320 114.4143940  88.2787790
 139.9296040 114.8458160  87.4284230 140.7326510 114.8742290  88.7114610
 141.0906460 116.8711460 101.3557760 140.3654650 117.4640240 101.1587150
 141.6181920 116.8635000 100.5571130 141.0419570 121.2686200  91.0069920
 140.3995730 120.6141820  91.2813640 140.6550230 121.6741290  90.2310590
 136.6206050 118.5971630  94.8541610 136.9729870 117.9999760  94.1942980
 135.7368380 118.2715860  95.0249860 132.7069330 119.3569320  92.2612020
 133.3940460 119.9038530  92.6419610 131.9201750 119.9010050  92.2961630
 132.0096540 116.3615350  91.8737380 132.4659320 117.1720600  92.0997570
 131.6584750 116.0438490  92.7055870 134.3129150 121.8721690  99.1029680
 134.9571370 122.0781070  99.7803100 134.6758590 121.1110090  98.6500530
 127.9108320 106.7053000  92.3459900 127.7822950 106.6970900  93.2944820
 127.0870340 107.0436090  91.9950910 135.5861230 119.8754040  97.8207130
 136.2283460 119.1747200  97.9339300 136.1110580 120.6552480  97.6404020
 139.4316950 120.1602660  87.5446270 139.2054530 119.4433100  88.1370910
 139.0413150 119.9115100  86.7068020 137.3598850 120.6748940 101.0243190
 137.6955090 121.2615630 101.7021110 136.4399190 120.5441650 101.2540980
 125.2132980 124.1869520  88.3190730 125.5730620 124.7858860  87.6648000
 125.0725320 124.7329410  89.0925760 139.0133200 118.0774600  89.2060430
 138.7254900 118.5387290  89.9938310 139.8085370 117.6172370  89.4744650
 125.1974840 122.4524380 102.7933130 125.3065960 121.5119120 102.6528520
 124.5455400 122.7179130 102.1446860 133.1887430 120.7240270 104.1931250
 132.8684300 120.0049510 104.7376940 132.5145790 121.3995340 104.2667310
 131.2301600 121.5700720  89.1364400 131.2211700 122.3030410  88.5208910
 130.3099960 121.3232300  89.2291360 136.4041030 110.9566430  99.5568050
 136.7721850 110.1361640  99.8847620 135.5439230 111.0168320  99.9723700
 139.7703060 109.9123370  90.3655610 139.1416220 110.0169040  89.6513840
 139.2754980 110.1320150  91.1549490 134.2161200 121.6328960  87.7989590
 134.3173180 121.4292950  86.8691570 133.3162940 121.3787240  88.0037370
 131.7387090 112.1909320  91.7813490 131.0303240 112.6595660  92.2227100
 132.0231570 111.5331330  92.4158680 133.3643020 113.6106020  99.7806020
 133.8628270 114.0851840 100.4457870 133.5065970 112.6869540  99.9876050
 135.7702520 108.9159980  93.2209280 135.6470300 108.9346110  92.2718790
 136.7187080 108.9638920  93.3407680 132.8579310 124.1515280  92.4937260
 133.1120810 124.1136670  91.5716630 131.9091790 124.0248610  92.4865510
 140.5709880 109.8273980 100.6234410 140.0683480 110.5679380 100.9628220
 141.3866540 110.2157980 100.3071200 138.8631890 115.0707160  94.0695770
 137.9222030 115.0857390  94.2443460 139.1775960 114.2843120  94.5156070
 128.8413530 116.7526760  87.6299730 129.6076800 116.6408120  88.1925160
 128.9188220 116.0564730  86.9776500 140.8657470 122.2416010  95.7450030
 140.9904890 123.0647180  96.2173840 141.7323030 122.0306740  95.3974180
 128.3375000 124.3347220  95.4167160 129.0737480 123.7862680  95.6875730
 128.7215920 125.2003230  95.2773150 125.2220480 120.4020790  91.2908670
 124.2960260 120.6441930  91.2814080 125.6876910 121.2295050  91.1693420
 127.3433280 123.5193290 104.6052740 128.1446010 123.8405340 105.0188140
 126.8285100 123.1588870 105.3272650 131.4477310 123.5077530  87.2392730
 132.2405920 123.7966360  86.7874520 130.9281660 123.0769700  86.5605210
 136.1797910 119.6273160 104.5528150 135.5736070 119.6504760 103.8123900
 135.8752020 118.8956200 105.0895400 137.6098280 123.3553450 103.1637560
 138.5620030 123.2711470 103.1137800 137.4626500 124.0195160 103.8371350
 140.5007480 122.7347660  88.6629470 140.2148990 122.3212800  87.8483650
 140.3027030 123.6635370  88.5429990 131.9654710 118.7280940  87.1035080
 131.8605350 118.1133290  87.8296460 131.7978930 118.2046830  86.3198090
 132.1169030 117.4137740 103.0824310 131.3514700 117.9822740 102.9978980
 132.2984990 117.1213950 102.1892540 135.2057440 117.7900970  87.7077070
 134.6567540 118.2370270  88.3519810 135.8276700 117.2850220  88.2314740
 139.2592380 119.1443070 103.6399330 140.0001850 119.4818830 103.1366790
 138.4965060 119.3135130 103.0869100 127.0954170 114.1496340 104.4438860
 127.1359510 113.8510210 105.3524090 127.9499670 114.5503950 104.2846380
 130.8732560 116.7491890  89.6042370 131.2948980 116.5831760  90.4473760
 130.9983400 115.9392120  89.1097510 129.0359980 112.7288440 102.4113350
 128.5056440 112.2379390 101.7836690 129.7048050 113.1572640 101.8771280
 133.3860200 115.7729500  86.8519470 133.9065860 115.0578520  86.4860620
 134.0328600 116.4115370  87.1519980 137.9338040 117.1957900 102.1754540
 138.3479060 117.3502980 103.0244960 136.9989040 117.3213120 102.3380320
 138.4060210 114.5354060 104.1793690 138.9880980 113.7806380 104.0914170
 138.5821980 115.0661500 103.4025170 129.5232280 109.6950810 102.4910640
 129.4289150 109.0771560 101.7661510 128.9429670 110.4217100 102.2640550
 132.2893720 108.2524050  99.5238030 131.8411020 108.2748310  98.6783580
 131.6558920 107.8543070 100.1208330 132.6953270 117.1478380 100.1450470
 133.1141380 117.9911110  99.9726710 131.7761900 117.2850420  99.9157250
 135.0317170 114.8794560 101.5288310 135.1513380 114.2835700 102.2683150
 135.8911170 114.9164250 101.1089610 137.3705070 115.4331750 100.1050820
 136.8440290 115.9574370  99.5015960 137.7136410 116.0659140 100.7360550
 129.7691460 112.8225120  86.5500530 129.5680520 111.9592480  86.9113870
 129.5983510 112.7358480  85.6122130 130.5460690 123.4531390 101.2608200
 130.0081780 124.1777450 100.9416900 130.7994650 122.9761730 100.4705540
 131.7985940 111.4215910 102.7864130 132.3885630 111.1131760 103.4741950
 130.9806180 110.9495660 102.9424030 136.6179370 111.0381720 103.0197150
 135.9294890 110.3763260 102.9547140 137.3385390 110.5919990 103.4645610
 133.4022900 124.6882600 101.5194850 133.3281600 125.5917740 101.8267220
 132.5001740 124.3694500 101.4916920 133.9508230 123.8541110  89.1421210
 134.8459020 124.1926080  89.1639970 133.9825860 123.1320520  88.5145490
 127.5904390 119.2268160  87.3708210 128.0279260 119.7697830  88.0265790
 128.0752120 118.4015110  87.3804550 124.8050190 122.0157190  94.8228470
 125.1353200 121.1478250  94.5907110 125.2341190 122.2215710  95.6533430
 129.4012110 120.3466200  92.4830440 129.1007650 120.2231170  93.3834350
 129.2949600 119.4874790  92.0746170 125.2940400 122.8827780  97.5610100
 124.8571390 123.0628580  98.3934250 125.8618080 123.6402400  97.4191820
 140.9302580 122.3844780 101.8487410 140.3304570 122.4437340 101.1051330
 141.0596480 121.4449760 101.9784260 142.1704030 120.1262600  87.1857120
 141.3396990 120.1939250  87.6564350 142.3475860 121.0166720  86.8823980
 141.6260490 116.8710080  89.6891320 142.3879400 117.4406730  89.7951010
 141.6414860 116.3037280  90.4599630 142.6320460 117.7260180  94.5333250
 143.0029290 116.9427500  94.1269220 143.2722390 118.4149280  94.3550550
 139.6154220 119.1096760  99.9463570 138.8014060 119.5393920 100.2089360
 140.0228420 119.7215170  99.3332620 141.6779660 117.1644450  86.8463840
 141.9528500 118.0723330  86.7183060 141.4890400 117.1006980  87.7825830
 138.0755270 110.1889300  88.1417470 138.4940150 110.0020280  87.3014130
 137.7691330 109.3368350  88.4520400 141.5745000 115.1013440  91.8393270
 141.1988600 114.3341370  91.4074560 140.8448120 115.4836140  92.3268200
 140.9644620 114.2484960 101.4732790 140.7330710 114.0197710 100.5730740
 141.2249170 115.1684510 101.4277680 139.4032690 109.4741390 104.2512490
 140.2802870 109.4824790 104.6346490 139.4153530 108.7372230 103.6404840
 140.8495960 113.3270930  95.1400510 141.3733440 112.8333580  94.5090680
 141.4355380 113.4621290  95.8848080 141.0285680 113.4110800  98.6620060
 140.0788390 113.3774340  98.7765050 141.2098690 114.3210910  98.4269830
 140.3395930 112.5844280  91.0792920 140.8355050 112.3515150  91.8641800
 140.1412000 111.7456120  90.6630560 141.7683090 111.2205230  93.6130600
 141.6582370 111.0661270  94.5512870 142.5290680 110.6926170  93.3706010
 140.1148810 107.1599360 100.0713600 140.7521030 107.7733500 100.4372790
 140.2623700 107.1960020  99.1262830 142.6573360 109.0513150  86.8536740
 143.5822670 108.9194330  86.6455030 142.6349150 109.1305970  87.8073190
 142.7311850 109.8223810  89.4793450 141.9363350 109.7568930  90.0086360
 142.9355130 110.7574450  89.4678800 139.6730270 123.8615360  93.4731840
 140.2689340 123.5399930  92.7966260 139.9308420 123.3887180  94.2645110
 125.9728470 107.1213670  99.4569280 125.6243290 107.5777490 100.2227460
 125.6416170 106.2270800  99.5391710 127.5792840 120.2933270 103.6222470
 127.5362470 119.9226180 104.5036930 127.7103850 121.2310840 103.7624290
 131.2798870 121.8492860  99.2232190 131.0390230 122.1167420  98.3362710
 132.2201510 122.0198590  99.2783050 133.4853290 108.3125550 102.9788700
 133.4242180 108.9047380 103.7284110 134.4253670 108.2051510 102.8338960
 136.1227850 107.9695610 102.6180990 136.7368260 108.2874900 101.9562070
 136.6677410 107.4844200 103.2376850 142.5403030 123.8687240 100.0242830
 142.0461310 124.2656110  99.3069960 141.9316320 123.2436450 100.4180110
 126.6449110 106.6489870 102.7320050 127.1932100 106.4677920 101.9686160
 126.7104420 105.8583980 103.2676360 127.4180870 123.2395520 100.7420250
 126.8241190 123.1080220 101.4810290 127.4104710 122.4033660 100.2762350
 136.8635890 106.5327750  98.9450280 135.9895730 106.8662860  98.7423210
 136.7546640 106.0600930  99.7702150 137.7707870 108.7398620 100.3292000
 137.4421230 107.9250380  99.9493730 138.7190170 108.6968430 100.2057690
 140.2242480 124.5110660  97.3029570 139.7645450 125.2626470  96.9287590
 139.5954940 123.7917130  97.2444370 127.0493100 120.6053900  99.6928290
 126.3227160 119.9859190  99.6254240 127.1102250 120.9994510  98.8226370
 130.6538200 122.8198900  96.4777700 131.1703220 122.2086260  95.9525960
 131.3035580 123.3227680  96.9688710 133.3933700 123.7107390  97.3046680
 133.6811510 123.4561690  96.4279690 133.9056920 123.1584750  97.8952250
 134.6110710 107.4497590  97.8843190 133.8282500 107.9243090  98.1639950
 134.3173640 106.5452420  97.7756370 139.1631780 108.1520690  95.9292280
 139.6039870 108.0965790  95.0813880 138.8939370 109.0678700  96.0002460
 141.0270350 107.7835930  93.9401100 140.9658750 106.8397150  93.7932120
 141.8062380 107.8916020  94.4854560 125.3323100 123.9228290  92.9025050
 125.1645140 123.2898970  93.6006940 124.4657610 124.1287690  92.5519240
 132.4964930 109.8684340  93.3959220 131.6839440 109.4941230  93.0555100
 133.0006570 109.1129420  93.6980410 136.9989910 106.5326790  94.6342290
 137.6019280 107.1047000  95.1090810 136.2582900 107.0966230  94.4116190
 140.1424510 106.9348350  89.9082570 140.3375140 107.8331800  90.1750000
 139.3554380 106.7035430  90.4015520 126.9385800 122.6161520  90.3475190
 126.4133420 122.9969550  89.6437150 126.8630380 123.2412290  91.0684900
 130.5214110 108.0184260  92.0004270 129.8916850 107.3171570  92.1674400
 129.9819250 108.7788390  91.7837430 133.4606060 124.6323490 104.6714880
 134.3873370 124.3967760 104.7150840 133.4456490 125.4595490 104.1900910
 141.6951120 124.1749060  91.6689130 141.8703310 123.4886800  91.0250050
 140.9972690 124.6996110  91.2765800 130.6469670 107.2968240 104.4356760
 130.3653940 107.8001840 103.6717580 131.0289370 106.4989990 104.0698890
 129.5378770 124.5643900  89.2224440 130.2697590 124.2803180  88.6748330
 129.7972440 124.3257180  90.1123820 128.6993560 120.6808630  89.2270770
 128.0702440 121.1493730  89.7756600 128.8141390 119.8357850  89.6616960
 137.2485130 106.7121820 105.0137230 137.1350580 107.0316430 105.9088750
 138.0654870 107.1134330 104.7174510 140.0283620 123.8593350 104.4955920
 140.8208940 123.3642580 104.2881880 140.3216770 124.5383490 105.1031530
 136.1543280 114.7314290  75.3771970 136.0737330 113.8168900  75.1063680
 135.7407700 115.2281360  74.6711680 134.2861320 116.5093310  77.2581240
 133.5103420 116.0293750  77.5479810 134.9374250 115.8298960  77.0837400
 128.3027150 116.8213120  78.1357000 127.4712030 116.5661830  78.5353510
 128.9108130 116.8923890  78.8714920 138.3068750 120.9153500  76.0380370
 137.8450280 120.1440740  76.3667540 139.1194300 120.9419570  76.5432820
 128.2828410 120.8553210  78.3315020 128.5856450 119.9650950  78.1525240
 129.0272000 121.4123430  78.1037270 124.6752110 114.3820660  77.8039090
 125.2468220 113.6142860  77.8042730 124.6753650 114.6809420  76.8945700
 134.5332060 123.2011510  75.6584360 133.9143500 123.6569010  75.0878800
 135.3883840 123.3562970  75.2574060 133.7270310 119.1850500  77.2651400
 133.6578590 118.2440440  77.1040530 134.4890170 119.2751910  77.8373970
 125.9176980 109.7905020  79.5908020 125.7379820 108.8930770  79.8710780
 125.5157060 110.3376890  80.2654970 134.7575480 111.9920880  77.4920330
 135.1340300 111.1192760  77.3794000 134.6594990 112.3279580  76.6010770
 138.5399600 109.4871320  74.4248670 139.3609220 108.9967890  74.4674150
 138.5733680 110.0768980  75.1780510 126.5363650 112.2865520  78.1990360
 127.2173760 112.5503890  78.8177760 126.2211700 111.4466390  78.5328370
 130.7288220 113.3332880  77.2862950 131.2366440 113.8313850  77.9267970
 131.2601460 112.5568080  77.1102310 142.8299150 111.5038070  80.9892300
 142.1251320 111.8919780  80.4707410 143.0957070 112.1988360  81.5913230
 129.0124320 107.9731440  81.5526370 129.0142760 108.4903830  80.7472270
 128.1828630 107.4961620  81.5296300 135.3995410 118.0850750  73.0516270
 134.7812680 118.5500200  72.4878990 135.9118660 118.7778230  73.4685780
 130.2627170 117.6126620  79.7299870 129.9296550 118.2395540  80.3720940
 130.4393850 118.1388500  78.9501540 138.7761080 111.4271700  77.1976210
 138.0716650 111.7156590  77.7779320 139.1373240 112.2371810  76.8375770
 128.6939650 109.6841400  79.5596820 129.0356460 110.5283450  79.2650690
 127.7555460 109.8325140  79.6762160 129.4746270 119.5807420  81.5449050
 130.0920270 120.2558500  81.2633500 128.6139390 119.9895400  81.4536550
 124.7678610 118.7707280  70.4255900 124.3906590 119.2594380  69.6940800
 125.0251680 119.4432560  71.0562430 140.3923860 121.0446830  79.4603690
 139.7087380 121.7145940  79.4520360 140.9318150 121.2427480  78.6948550
 141.8448000 110.8726490  77.5885420 140.8972910 110.9065470  77.7200850
 142.1697990 111.6865440  77.9734780 132.3767540 107.1723670  75.8841410
 132.6842520 106.6170560  75.1676910 131.4468240 107.3068130  75.7014400
 137.9282600 122.8890960  78.1748870 137.9409760 122.4853250  77.3071130
 137.3757820 123.6638250  78.0710300 139.2228020 119.6107180  73.2639040
 139.1124350 118.6681510  73.3888460 139.2196270 119.9722820  74.1501800
 137.3268040 117.7920800  79.5031480 137.7436830 117.5780910  78.6684940
 138.0507860 118.0493590  80.0740100 134.7648300 115.2372500  72.6201530
 133.8377580 115.1709880  72.8490000 134.9173120 116.1752630  72.5056770
 141.2730140 116.1908020  79.5947720 140.4448770 116.2601110  79.1197850
 141.8680620 116.7762330  79.1263550 138.7945590 116.7992800  73.1236780
 138.1758010 116.4612350  72.4763080 138.7770040 116.1552560  73.8315970
 138.2372150 112.9777340  80.5402590 137.8243330 113.8031050  80.7942580
 137.5048100 112.3922380  80.3478950 130.3704940 115.7637240  75.4021260
 129.9661940 115.0514490  74.9067160 130.4568060 115.4190480  76.2909300
 130.8386640 119.4504800  77.5660470 130.5414930 118.8450270  76.8868250
 131.7886460 119.4882110  77.4549830 129.0833560 112.5380450  79.1820300
 129.6348150 112.6475790  78.4073550 129.5977070 112.9118050  79.8975530
 138.9272250 123.0236670  81.2283570 138.4502810 123.8308860  81.0356180
 138.2434040 122.3715000  81.3809780 129.9305070 119.1886490  84.2168270
 129.0333600 119.4126460  84.4641670 129.9557940 119.3121430  83.2679670
 136.9710290 116.0379610  70.1309530 137.4103570 115.2002040  69.9847350
 137.6838710 116.6709010  70.2173670 128.7576290 116.0599810  82.7925640
 128.6184060 116.9322610  83.1613040 127.8757650 115.7172620  82.6473580
 135.0805670 120.9775680  74.0990770 135.5201580 121.7200010  73.6846160
 135.0192560 121.2202250  75.0229730 130.5556640 122.0021510  85.0010790
 130.5272070 122.4064460  84.1339220 130.3921610 121.0731870  84.8382390
 140.5527430 107.2922420  68.4450570 140.2400090 107.3849250  69.3449640
 141.3139900 107.8703450  68.3948000 142.5071460 122.7848610  86.2974960
 142.9831180 123.2631500  86.9764040 143.1278620 122.7166100  85.5720460
 124.7094940 117.8297360  78.7096550 124.7875360 117.9646130  77.7652270
 125.3236620 117.1213250  78.9024670 125.9542570 119.5297550  75.1202730
 125.5470650 119.6712140  74.2656330 126.8455580 119.2457710  74.9173940
 141.9104710 119.9761460  83.4574970 142.0367770 119.7373340  82.5392150
 141.9526090 119.1446000  83.9297050 135.7721450 123.6789460  82.0269780
 136.2866120 123.5897470  82.8292210 134.9290530 124.0249160  82.3197690
 137.7475850 123.9644800  71.4553780 137.5876990 123.6747740  72.3535610
 137.5822560 123.1884930  70.9199010 130.2264230 123.7443330  73.2325400
 130.0506710 122.8278870  73.0193200 129.3719970 124.1030620  73.4723200
 137.4501980 121.4732360  70.0151780 136.7567140 121.4709650  69.3554060
 138.1924840 121.0491680  69.5845950 137.0151910 123.0995070  74.0900270
 137.4708860 122.3184450  74.4038890 137.3544430 123.8101890  74.6341450
 141.7628720 112.0293920  84.4224710 141.1472990 112.5373590  83.8940170
 141.4425140 111.1292250  84.3650650 124.7654460 118.8711530  81.2491010
 124.9285500 118.4016890  80.4310380 125.2306910 118.3635090  81.9139850
 129.5373230 108.0017290  76.2851580 129.0941380 108.7826830  75.9536100
 130.0958220 108.3247180  76.9922520 133.8243040 110.8685810  81.8886900
 133.3622410 111.0768830  82.7006840 133.4221150 110.0545160  81.5857570
 138.8247550 112.0894760  83.0183560 137.9741140 111.7900510  83.3392630
 138.6649340 112.3336770  82.1067380 135.9197260 113.5896510  85.1182350
 136.2450670 112.7560260  84.7784580 136.7077590 114.1125030  85.2660680
 131.5749130 108.5464620  78.1441180 131.8721460 109.4527450  78.0633200
 132.1234690 108.0583400  77.5300750 136.5585210 113.1314230  72.6123480
 135.9594100 113.8550030  72.4287100 137.1064820 113.0691010  71.8299930
 131.7686660 114.0236440  84.6793100 131.6730260 113.0831170  84.5293500
 132.6118640 114.2451510  84.2841170 135.1650080 111.7677770  74.6426760
 135.5579650 112.0849970  73.8295450 135.5266930 110.8889650  74.7571280
 124.2014250 108.3578570  76.8656960 123.9127300 108.9281430  77.5781940
 124.9460010 107.8783020  77.2288190 124.3884480 112.2998690  68.0759680
 124.3059150 113.2429450  68.2174670 124.0367540 112.1573600  67.1972030
 135.7505220 114.3583520  78.7377540 135.0186340 114.8670330  79.0867640
 135.3529560 113.5413500  78.4366320 132.1882610 111.0337720  77.1430030
 132.1918670 110.5927670  76.2934570 133.0833730 111.3555050  77.2501850
 136.2131130 109.8117200  78.1500480 136.2303870 110.2625850  78.9942330
 135.9646710 108.9122840  78.3633920 131.2624260 114.3450940  69.5320090
 130.6941160 113.8969190  68.9056000 131.9713260 114.7043720  68.9985240
 139.6401880 107.2249380  83.9886860 139.9647650 106.4939040  84.5144840
 139.6758390 106.9063020  83.0867850 126.3393440 118.2462960  83.4086820
 125.9548230 117.6056630  84.0069780 126.6505630 118.9499080  83.9781550
 132.4890580 115.0939500  78.8895440 132.8560710 114.6198070  79.6356780
 132.2995640 115.9681070  79.2303780 130.2789950 114.1348140  81.2079650
 129.9747020 115.0140120  81.4330010 131.2336410 114.1947930  81.2437090
 128.8071740 118.3409130  71.8046500 128.0334000 117.8006750  71.6445220
 129.5366370 117.8215740  71.4664260 139.5659720 117.3374490  77.5972890
 140.2858840 117.8329780  77.2069000 139.3641540 116.6592380  76.9526760
 134.9478520 117.4083550  83.4841890 134.8815830 116.4879220  83.2299480
 134.3183660 117.5058990  84.1986530 137.7418050 113.1032100  70.0364440
 138.6297670 113.4149330  69.8615780 137.7123140 112.2304350  69.6445020
 128.8509140 118.0089510  75.4425310 129.3687810 117.2057770  75.3882200
 128.3993160 117.9468650  76.2842140 133.7378640 119.2755790  70.7152610
 134.0794340 120.0198020  70.2195930 132.9091350 119.5886910  71.0777440
 126.3353680 114.9750880  82.3551010 125.9768620 115.6404730  82.9424350
 126.0408240 114.1434430  82.7263630 129.5366800 115.4335120  85.2390560
 129.2366940 115.5792300  84.3418380 130.3078040 114.8740410  85.1463950
 134.8795250 120.2304120  83.2345690 134.8939790 119.2985080  83.0164600
 134.1720350 120.3163880  83.8735460 140.0132320 114.4143940  69.5044300
 139.9296040 114.8458160  68.6540740 140.7326510 114.8742290  69.9371120
 141.0906460 116.8711460  82.5814270 140.3654650 117.4640240  82.3843660
 141.6181920 116.8635000  81.7827640 141.0419570 121.2686200  72.2326430
 140.3995730 120.6141820  72.5070150 140.6550230 121.6741290  71.4567100
 136.6206050 118.5971630  76.0798120 136.9729870 117.9999760  75.4199490
 135.7368380 118.2715860  76.2506370 132.7069330 119.3569320  73.4868530
 133.3940460 119.9038530  73.8676120 131.9201750 119.9010050  73.5218140
 124.8461730 114.9742140  68.9785610 125.7156580 115.2566940  69.2621530
 124.3552050 115.7878010  68.8634420 132.0096540 116.3615350  73.0993890
 132.4659320 117.1720600  73.3254080 131.6584750 116.0438490  73.9312380
 134.3129150 121.8721690  80.3286190 134.9571370 122.0781070  81.0059610
 134.6758590 121.1110090  79.8757040 135.5861230 119.8754040  79.0463640
 136.2283460 119.1747200  79.1595810 136.1110580 120.6552480  78.8660530
 139.4316950 120.1602660  68.7702780 139.2054530 119.4433100  69.3627420
 139.0413150 119.9115100  67.9324530 137.3598850 120.6748940  82.2499700
 137.6955090 121.2615630  82.9277620 136.4399190 120.5441650  82.4797490
 125.2132980 124.1869520  69.5447240 125.5730620 124.7858860  68.8904510
 125.0725320 124.7329410  70.3182270 139.0133200 118.0774600  70.4316940
 138.7254900 118.5387290  71.2194820 139.8085370 117.6172370  70.7001160
 125.1974840 122.4524380  84.0189640 125.3065960 121.5119120  83.8785030
 124.5455400 122.7179130  83.3703370 133.1887430 120.7240270  85.4187760
 132.8684300 120.0049510  85.9633450 132.5145790 121.3995340  85.4923820
 131.2301600 121.5700720  70.3620910 131.2211700 122.3030410  69.7465420
 130.3099960 121.3232300  70.4547870 126.8308240 116.7915610  71.1067670
 126.2236190 117.5314510  71.1162970 127.3057590 116.8814970  70.2805870
 136.4041030 110.9566430  80.7824560 136.7721850 110.1361640  81.1104130
 135.5439230 111.0168320  81.1980210 139.7703060 109.9123370  71.5912120
 139.1416220 110.0169040  70.8770350 139.2754980 110.1320150  72.3806000
 134.2161200 121.6328960  69.0246100 134.3173180 121.4292950  68.0948080
 133.3162940 121.3787240  69.2293880 133.3643020 113.6106020  81.0062530
 133.8628270 114.0851840  81.6714380 133.5065970 112.6869540  81.2132560
 135.7702520 108.9159980  74.4465790 135.6470300 108.9346110  73.4975300
 136.7187080 108.9638920  74.5664190 132.8579310 124.1515280  73.7193770
 133.1120810 124.1136670  72.7973140 131.9091790 124.0248610  73.7122020
 140.5709880 109.8273980  81.8490920 140.0683480 110.5679380  82.1884730
 141.3866540 110.2157980  81.5327710 138.8631890 115.0707160  75.2952280
 137.9222030 115.0857390  75.4699970 139.1775960 114.2843120  75.7412580
 128.8413530 116.7526760  68.8556240 129.6076800 116.6408120  69.4181670
 128.9188220 116.0564730  68.2033010 140.8657470 122.2416010  76.9706540
 140.9904890 123.0647180  77.4430350 141.7323030 122.0306740  76.6230690
 128.3375000 124.3347220  76.6423670 129.0737480 123.7862680  76.9132240
 128.7215920 125.2003230  76.5029660 125.2220480 120.4020790  72.5165180
 124.2960260 120.6441930  72.5070590 125.6876910 121.2295050  72.3949930
 127.3433280 123.5193290  85.8309250 128.1446010 123.8405340  86.2444650
 126.8285100 123.1588870  86.5529160 131.4477310 123.5077530  68.4649240
 132.2405920 123.7966360  68.0131030 130.9281660 123.0769700  67.7861720
 136.1797910 119.6273160  85.7784660 135.5736070 119.6504760  85.0380410
 135.8752020 118.8956200  86.3151910 137.6098280 123.3553450  84.3894070
 138.5620030 123.2711470  84.3394310 137.4626500 124.0195160  85.0627860
 140.5007480 122.7347660  69.8885980 140.2148990 122.3212800  69.0740160
 140.3027030 123.6635370  69.7686500 125.0631090 116.0066750  84.7745300
 125.5670110 115.4274030  85.3461530 124.3238510 116.2906980  85.3121670
 131.9654710 118.7280940  68.3291590 131.8605350 118.1133290  69.0552970
 131.7978930 118.2046830  67.5454600 132.1169030 117.4137740  84.3080820
 131.3514700 117.9822740  84.2235490 132.2984990 117.1213950  83.4149050
 135.2057440 117.7900970  68.9333580 134.6567540 118.2370270  69.5776320
 135.8276700 117.2850220  69.4571250 139.2592380 119.1443070  84.8655840
 140.0001850 119.4818830  84.3623300 138.4965060 119.3135130  84.3125610
 127.0954170 114.1496340  85.6695370 127.1359510 113.8510210  86.5780600
 127.9499670 114.5503950  85.5102890 130.8732560 116.7491890  70.8298880
 131.2948980 116.5831760  71.6730270 130.9983400 115.9392120  70.3354020
 129.0359980 112.7288440  83.6369860 128.5056440 112.2379390  83.0093200
 129.7048050 113.1572640  83.1027790 133.3860200 115.7729500  68.0775980
 133.9065860 115.0578520  67.7117130 134.0328600 116.4115370  68.3776490
 137.9338040 117.1957900  83.4011050 138.3479060 117.3502980  84.2501470
 136.9989040 117.3213120  83.5636830 138.4060210 114.5354060  85.4050200
 138.9880980 113.7806380  85.3170680 138.5821980 115.0661500  84.6281680
 132.2893720 108.2524050  80.7494540 131.8411020 108.2748310  79.9040090
 131.6558920 107.8543070  81.3464840 132.6953270 117.1478380  81.3706980
 133.1141380 117.9911110  81.1983220 131.7761900 117.2850420  81.1413760
 135.0317170 114.8794560  82.7544820 135.1513380 114.2835700  83.4939660
 135.8911170 114.9164250  82.3346120 137.3705070 115.4331750  81.3307330
 136.8440290 115.9574370  80.7272470 137.7136410 116.0659140  81.9617060
 129.7691460 112.8225120  67.7757040 129.5680520 111.9592480  68.1370380
 129.5983510 112.7358480  66.8378640 130.5460690 123.4531390  82.4864710
 130.0081780 124.1777450  82.1673410 130.7994650 122.9761730  81.6962050
 131.7985940 111.4215910  84.0120640 132.3885630 111.1131760  84.6998460
 130.9806180 110.9495660  84.1680540 136.6179370 111.0381720  84.2453660
 135.9294890 110.3763260  84.1803650 137.3385390 110.5919990  84.6902120
 133.4022900 124.6882600  82.7451360 133.3281600 125.5917740  83.0523730
 132.5001740 124.3694500  82.7173430 133.9508230 123.8541110  70.3677720
 134.8459020 124.1926080  70.3896480 133.9825860 123.1320520  69.7402000
 127.5904390 119.2268160  68.5964720 128.0279260 119.7697830  69.2522300
 128.0752120 118.4015110  68.6061060 124.8050190 122.0157190  76.0484980
 125.1353200 121.1478250  75.8163620 125.2341190 122.2215710  76.8789940
 129.4012110 120.3466200  73.7086950 129.1007650 120.2231170  74.6090860
 129.2949600 119.4874790  73.3002680 125.2940400 122.8827780  78.7866610
 124.8571390 123.0628580  79.6190760 125.8618080 123.6402400  78.6448330
 140.9302580 122.3844780  83.0743920 140.3304570 122.4437340  82.3307840
 141.0596480 121.4449760  83.2040770 142.1704030 120.1262600  68.4113630
 141.3396990 120.1939250  68.8820860 142.3475860 121.0166720  68.1080490
 141.6260490 116.8710080  70.9147830 142.3879400 117.4406730  71.0207520
 141.6414860 116.3037280  71.6856140 125.1264830 115.3948010  75.1455490
 124.4713670 115.1259650  74.5015190 125.9642780 115.2852490  74.6957470
 142.6320460 117.7260180  75.7589760 143.0029290 116.9427500  75.3525730
 143.2722390 118.4149280  75.5807060 139.6154220 119.1096760  81.1720080
 138.8014060 119.5393920  81.4345870 140.0228420 119.7215170  80.5589130
 141.6779660 117.1644450  68.0720350 141.9528500 118.0723330  67.9439570
 141.4890400 117.1006980  69.0082340 138.0755270 110.1889300  69.3673980
 138.4940150 110.0020280  68.5270640 137.7691330 109.3368350  69.6776910
 141.5745000 115.1013440  73.0649780 141.1988600 114.3341370  72.6331070
 140.8448120 115.4836140  73.5524710 126.1640760 115.7800580  79.6858830
 126.5313800 115.6927980  80.5654850 125.5951580 115.0167130  79.5865690
 140.9644620 114.2484960  82.6989300 140.7330710 114.0197710  81.7987250
 141.2249170 115.1684510  82.6534190 139.4032690 109.4741390  85.4769000
 140.2802870 109.4824790  85.8603000 139.4153530 108.7372230  84.8661350
 140.8495960 113.3270930  76.3657020 141.3733440 112.8333580  75.7347190
 141.4355380 113.4621290  77.1104590 141.0285680 113.4110800  79.8876570
 140.0788390 113.3774340  80.0021560 141.2098690 114.3210910  79.6526340
 140.3395930 112.5844280  72.3049430 140.8355050 112.3515150  73.0898310
 140.1412000 111.7456120  71.8887070 126.2196470 106.9658000  77.9400470
 126.8672660 106.4155380  77.4995630 126.6398310 107.2201150  78.7616280
 141.7683090 111.2205230  74.8387110 141.6582370 111.0661270  75.7769380
 142.5290680 110.6926170  74.5962520 140.1148810 107.1599360  81.2970110
 140.7521030 107.7733500  81.6629300 140.2623700 107.1960020  80.3519340
 142.6573360 109.0513150  68.0793250 143.5822670 108.9194330  67.8711540
 142.6349150 109.1305970  69.0329700 142.7311850 109.8223810  70.7049960
 141.9363350 109.7568930  71.2342870 142.9355130 110.7574450  70.6935310
 139.6730270 123.8615360  74.6988350 140.2689340 123.5399930  74.0222770
 139.9308420 123.3887180  75.4901620 125.9728470 107.1213670  80.6825790
 125.6243290 107.5777490  81.4483970 125.6416170 106.2270800  80.7648220
 127.5792840 120.2933270  84.8478980 127.5362470 119.9226180  85.7293440
 127.7103850 121.2310840  84.9880800 131.2798870 121.8492860  80.4488700
 131.0390230 122.1167420  79.5619220 132.2201510 122.0198590  80.5039560
 142.5403030 123.8687240  81.2499340 142.0461310 124.2656110  80.5326470
 141.9316320 123.2436450  81.6436620 127.4180870 123.2395520  81.9676760
 126.8241190 123.1080220  82.7066800 127.4104710 122.4033660  81.5018860
 136.8635890 106.5327750  80.1706790 135.9895730 106.8662860  79.9679720
 136.7546640 106.0600930  80.9958660 137.7707870 108.7398620  81.5548510
 137.4421230 107.9250380  81.1750240 138.7190170 108.6968430  81.4314200
 140.2242480 124.5110660  78.5286080 139.7645450 125.2626470  78.1544100
 139.5954940 123.7917130  78.4700880 127.0493100 120.6053900  80.9184800
 126.3227160 119.9859190  80.8510750 127.1102250 120.9994510  80.0482880
 130.6538200 122.8198900  77.7034210 131.1703220 122.2086260  77.1782470
 131.3035580 123.3227680  78.1945220 133.3933700 123.7107390  78.5303190
 133.6811510 123.4561690  77.6536200 133.9056920 123.1584750  79.1208760
 134.6110710 107.4497590  79.1099700 133.8282500 107.9243090  79.3896460
 134.3173640 106.5452420  79.0012880 139.1631780 108.1520690  77.1548790
 139.6039870 108.0965790  76.3070390 138.8939370 109.0678700  77.2258970
 141.0270350 107.7835930  75.1657610 140.9658750 106.8397150  75.0188630
 141.8062380 107.8916020  75.7111070 125.3323100 123.9228290  74.1281560
 125.1645140 123.2898970  74.8263450 124.4657610 124.1287690  73.7775750
 132.4964930 109.8684340  74.6215730 131.6839440 109.4941230  74.2811610
 133.0006570 109.1129420  74.9236920 136.9989910 106.5326790  75.8598800
 137.6019280 107.1047000  76.3347320 136.2582900 107.0966230  75.6372700
 140.1424510 106.9348350  71.1339080 140.3375140 107.8331800  71.4006510
 139.3554380 106.7035430  71.6272030 126.9385800 122.6161520  71.5731700
 126.4133420 122.9969550  70.8693660 126.8630380 123.2412290  72.2941410
 133.4606060 124.6323490  85.8971390 134.3873370 124.3967760  85.9407350
 133.4456490 125.4595490  85.4157420 141.6951120 124.1749060  72.8945640
 141.8703310 123.4886800  72.2506560 140.9972690 124.6996110  72.5022310
 129.5378770 124.5643900  70.4480950 130.2697590 124.2803180  69.9004840
 129.7972440 124.3257180  71.3380330 128.6993560 120.6808630  70.4527280
 128.0702440 121.1493730  71.0013110 128.8141390 119.8357850  70.8873470
 140.0283620 123.8593350  85.7212430 140.8208940 123.3642580  85.5138390
 140.3216770 124.5383490  86.3288040 136.1543280 114.7314290  56.6028480
 136.0737330 113.8168900  56.3320190 135.7407700 115.2281360  55.8968190
 134.2861320 116.5093310  58.4837750 133.5103420 116.0293750  58.7736320
 134.9374250 115.8298960  58.3093910 128.3027150 116.8213120  59.3613510
 127.4712030 116.5661830  59.7610020 128.9108130 116.8923890  60.0971430
 138.3068750 120.9153500  57.2636880 137.8450280 120.1440740  57.5924050
 139.1194300 120.9419570  57.7689330 128.2828410 120.8553210  59.5571530
 128.5856450 119.9650950  59.3781750 129.0272000 121.4123430  59.3293780
 126.7119100 111.7815010  53.1455900 125.8235800 112.1230980  53.0435780
 126.9960290 111.5815330  52.2536730 134.5332060 123.2011510  56.8840870
 133.9143500 123.6569010  56.3135310 135.3883840 123.3562970  56.4830570
 133.7270310 119.1850500  58.4907910 133.6578590 118.2440440  58.3297040
 134.4890170 119.2751910  59.0630480 134.7575480 111.9920880  58.7176840
 135.1340300 111.1192760  58.6050510 134.6594990 112.3279580  57.8267280
 128.8880490 110.3646510  54.1794280 128.9947240 111.2650240  54.4863040
 127.9772850 110.3164480  53.8888930 138.5399600 109.4871320  55.6505180
 139.3609220 108.9967890  55.6930660 138.5733680 110.0768980  56.4037020
 130.7288220 113.3332880  58.5119460 131.2366440 113.8313850  59.1524480
 131.2601460 112.5568080  58.3358820 142.8299150 111.5038070  62.2148810
 142.1251320 111.8919780  61.6963920 143.0957070 112.1988360  62.8169740
 129.0124320 107.9731440  62.7782880 129.0142760 108.4903830  61.9728780
 128.1828630 107.4961620  62.7552810 135.3995410 118.0850750  54.2772780
 134.7812680 118.5500200  53.7135500 135.9118660 118.7778230  54.6942290
 130.2627170 117.6126620  60.9556380 129.9296550 118.2395540  61.5977450
 130.4393850 118.1388500  60.1758050 138.7761080 111.4271700  58.4232720
 138.0716650 111.7156590  59.0035830 139.1373240 112.2371810  58.0632280
 128.6939650 109.6841400  60.7853330 129.0356460 110.5283450  60.4907200
 127.7555460 109.8325140  60.9018670 129.4746270 119.5807420  62.7705560
 130.0920270 120.2558500  62.4890010 128.6139390 119.9895400  62.6793060
 124.7678610 118.7707280  51.6512410 124.3906590 119.2594380  50.9197310
 125.0251680 119.4432560  52.2818940 140.3923860 121.0446830  60.6860200
 139.7087380 121.7145940  60.6776870 140.9318150 121.2427480  59.9205060
 141.8448000 110.8726490  58.8141930 140.8972910 110.9065470  58.9457360
 142.1697990 111.6865440  59.1991290 132.3767540 107.1723670  57.1097920
 132.6842520 106.6170560  56.3933420 131.4468240 107.3068130  56.9270910
 137.9282600 122.8890960  59.4005380 137.9409760 122.4853250  58.5327640
 137.3757820 123.6638250  59.2966810 139.2228020 119.6107180  54.4895550
 139.1124350 118.6681510  54.6144970 139.2196270 119.9722820  55.3758310
 137.3268040 117.7920800  60.7287990 137.7436830 117.5780910  59.8941450
 138.0507860 118.0493590  61.2996610 134.7648300 115.2372500  53.8458040
 133.8377580 115.1709880  54.0746510 134.9173120 116.1752630  53.7313280
 134.7517380 111.5089500  50.8425200 133.8121050 111.6703460  50.9277660
 135.0700640 112.2275180  50.2961190 141.2730140 116.1908020  60.8204230
 140.4448770 116.2601110  60.3454360 141.8680620 116.7762330  60.3520060
 138.7945590 116.7992800  54.3493290 138.1758010 116.4612350  53.7019590
 138.7770040 116.1552560  55.0572480 138.2372150 112.9777340  61.7659100
 137.8243330 113.8031050  62.0199090 137.5048100 112.3922380  61.5735460
 130.3704940 115.7637240  56.6277770 129.9661940 115.0514490  56.1323670
 130.4568060 115.4190480  57.5165810 130.8386640 119.4504800  58.7916980
 130.5414930 118.8450270  58.1124760 131.7886460 119.4882110  58.6806340
 129.0833560 112.5380450  60.4076810 129.6348150 112.6475790  59.6330060
 129.5977070 112.9118050  61.1232040 138.9272250 123.0236670  62.4540080
 138.4502810 123.8308860  62.2612690 138.2434040 122.3715000  62.6066290
 129.9305070 119.1886490  65.4424780 129.0333600 119.4126460  65.6898180
 129.9557940 119.3121430  64.4936180 136.9710290 116.0379610  51.3566040
 137.4103570 115.2002040  51.2103860 137.6838710 116.6709010  51.4430180
 128.7576290 116.0599810  64.0182150 128.6184060 116.9322610  64.3869550
 127.8757650 115.7172620  63.8730090 135.0805670 120.9775680  55.3247280
 135.5201580 121.7200010  54.9102670 135.0192560 121.2202250  56.2486240
 130.5556640 122.0021510  66.2267300 130.5272070 122.4064460  65.3595730
 130.3921610 121.0731870  66.0638900 140.5527430 107.2922420  49.6707080
 140.2400090 107.3849250  50.5706150 141.3139900 107.8703450  49.6204510
 142.5071460 122.7848610  67.5231470 142.9831180 123.2631500  68.2020550
 143.1278620 122.7166100  66.7976970 125.9542570 119.5297550  56.3459240
 125.5470650 119.6712140  55.4912840 126.8455580 119.2457710  56.1430450
 141.9104710 119.9761460  64.6831480 142.0367770 119.7373340  63.7648660
 141.9526090 119.1446000  65.1553560 135.7721450 123.6789460  63.2526290
 136.2866120 123.5897470  64.0548720 134.9290530 124.0249160  63.5454200
 137.7475850 123.9644800  52.6810290 137.5876990 123.6747740  53.5792120
 137.5822560 123.1884930  52.1455520 130.2264230 123.7443330  54.4581910
 130.0506710 122.8278870  54.2449710 129.3719970 124.1030620  54.6979710
 137.4501980 121.4732360  51.2408290 136.7567140 121.4709650  50.5810570
 138.1924840 121.0491680  50.8102460 137.0151910 123.0995070  55.3156780
 137.4708860 122.3184450  55.6295400 137.3544430 123.8101890  55.8597960
 141.7628720 112.0293920  65.6481220 141.1472990 112.5373590  65.1196680
 141.4425140 111.1292250  65.5907160 124.7654460 118.8711530  62.4747520
 124.9285500 118.4016890  61.6566890 125.2306910 118.3635090  63.1396360
 129.5373230 108.0017290  57.5108090 129.0941380 108.7826830  57.1792610
 130.0958220 108.3247180  58.2179030 133.8243040 110.8685810  63.1143410
 133.3622410 111.0768830  63.9263350 133.4221150 110.0545160  62.8114080
 138.8247550 112.0894760  64.2440070 137.9741140 111.7900510  64.5649140
 138.6649340 112.3336770  63.3323890 135.9197260 113.5896510  66.3438860
 136.2450670 112.7560260  66.0041090 136.7077590 114.1125030  66.4917190
 132.6532050 107.6227990  52.3913920 132.0286230 107.6187860  53.1167230
 132.5662170 106.7558950  51.9949890 131.5749130 108.5464620  59.3697690
 131.8721460 109.4527450  59.2889710 132.1234690 108.0583400  58.7557260
 129.3287450 113.1250860  55.2389340 129.1028370 112.9088030  56.1435960
 128.5479980 113.5579320  54.8935310 136.5585210 113.1314230  53.8379990
 135.9594100 113.8550030  53.6543610 137.1064820 113.0691010  53.0556440
 131.7686660 114.0236440  65.9049610 131.6730260 113.0831170  65.7550010
 132.6118640 114.2451510  65.5097680 135.1650080 111.7677770  55.8683270
 135.5579650 112.0849970  55.0551960 135.5266930 110.8889650  55.9827790
 126.8997200 110.4350110  64.0583390 126.5060590 111.2825320  64.2656170
 126.2115600 109.7976480  64.2492030 124.3884480 112.2998690  49.3016190
 124.3059150 113.2429450  49.4431180 124.0367540 112.1573600  48.4228540
 135.7505220 114.3583520  59.9634050 135.0186340 114.8670330  60.3124150
 135.3529560 113.5413500  59.6622830 132.1882610 111.0337720  58.3686540
 132.1918670 110.5927670  57.5191080 133.0833730 111.3555050  58.4758360
 132.2502760 112.0349800  51.3593300 132.3715580 111.9936280  52.3079120
 131.8651270 112.8973950  51.2040030 136.2131130 109.8117200  59.3756990
 136.2303870 110.2625850  60.2198840 135.9646710 108.9122840  59.5890430
 131.2624260 114.3450940  50.7576600 130.6941160 113.8969190  50.1312510
 131.9713260 114.7043720  50.2241750 139.6401880 107.2249380  65.2143370
 139.9647650 106.4939040  65.7401350 139.6758390 106.9063020  64.3124360
 126.3393440 118.2462960  64.6343330 125.9548230 117.6056630  65.2326290
 126.6505630 118.9499080  65.2038060 132.4890580 115.0939500  60.1151950
 132.8560710 114.6198070  60.8613290 132.2995640 115.9681070  60.4560290
 130.2789950 114.1348140  62.4336160 129.9747020 115.0140120  62.6586520
 131.2336410 114.1947930  62.4693600 128.8071740 118.3409130  53.0303010
 128.0334000 117.8006750  52.8701730 129.5366370 117.8215740  52.6920770
 139.5659720 117.3374490  58.8229400 140.2858840 117.8329780  58.4325510
 139.3641540 116.6592380  58.1783270 135.0269660 108.7312450  52.9658790
 134.2134270 108.2325620  52.8904100 134.8331610 109.5710700  52.5495140
 134.9478520 117.4083550  64.7098400 134.8815830 116.4879220  64.4555990
 134.3183660 117.5058990  65.4243040 137.7418050 113.1032100  51.2620950
 138.6297670 113.4149330  51.0872290 137.7123140 112.2304350  50.8701530
 128.8509140 118.0089510  56.6681820 129.3687810 117.2057770  56.6138710
 128.3993160 117.9468650  57.5098650 133.7378640 119.2755790  51.9409120
 134.0794340 120.0198020  51.4452440 132.9091350 119.5886910  52.3033950
 126.3353680 114.9750880  63.5807520 125.9768620 115.6404730  64.1680860
 126.0408240 114.1434430  63.9520140 129.5366800 115.4335120  66.4647070
 129.2366940 115.5792300  65.5674890 130.3078040 114.8740410  66.3720460
 134.8795250 120.2304120  64.4602200 134.8939790 119.2985080  64.2421110
 134.1720350 120.3163880  65.0991970 140.0132320 114.4143940  50.7300810
 139.9296040 114.8458160  49.8797250 140.7326510 114.8742290  51.1627630
 141.0906460 116.8711460  63.8070780 140.3654650 117.4640240  63.6100170
 141.6181920 116.8635000  63.0084150 141.0419570 121.2686200  53.4582940
 140.3995730 120.6141820  53.7326660 140.6550230 121.6741290  52.6823610
 136.6206050 118.5971630  57.3054630 136.9729870 117.9999760  56.6456000
 135.7368380 118.2715860  57.4762880 132.7069330 119.3569320  54.7125040
 133.3940460 119.9038530  55.0932630 131.9201750 119.9010050  54.7474650
 124.8461730 114.9742140  50.2042120 125.7156580 115.2566940  50.4878040
 124.3552050 115.7878010  50.0890930 132.0096540 116.3615350  54.3250400
 132.4659320 117.1720600  54.5510590 131.6584750 116.0438490  55.1568890
 134.3129150 121.8721690  61.5542700 134.9571370 122.0781070  62.2316120
 134.6758590 121.1110090  61.1013550 127.9108320 106.7053000  54.7972920
 127.7822950 106.6970900  55.7457840 127.0870340 107.0436090  54.4463930
 135.5861230 119.8754040  60.2720150 136.2283460 119.1747200  60.3852320
 136.1110580 120.6552480  60.0917040 139.4316950 120.1602660  49.9959290
 139.2054530 119.4433100  50.5883930 139.0413150 119.9115100  49.1581040
 137.3598850 120.6748940  63.4756210 137.6955090 121.2615630  64.1534130
 136.4399190 120.5441650  63.7054000 125.2132980 124.1869520  50.7703750
 125.5730620 124.7858860  50.1161020 125.0725320 124.7329410  51.5438780
 124.9102250 108.4644120  64.2579620 124.1960770 108.6641040  64.8632230
 125.3297290 107.6883690  64.6294420 139.0133200 118.0774600  51.6573450
 138.7254900 118.5387290  52.4451330 139.8085370 117.6172370  51.9257670
 125.1974840 122.4524380  65.2446150 125.3065960 121.5119120  65.1041540
 124.5455400 122.7179130  64.5959880 133.1887430 120.7240270  66.6444270
 132.8684300 120.0049510  67.1889960 132.5145790 121.3995340  66.7180330
 131.2301600 121.5700720  51.5877420 131.2211700 122.3030410  50.9721930
 130.3099960 121.3232300  51.6804380 126.8308240 116.7915610  52.3324180
 126.2236190 117.5314510  52.3419480 127.3057590 116.8814970  51.5062380
 136.4041030 110.9566430  62.0081070 136.7721850 110.1361640  62.3360640
 135.5439230 111.0168320  62.4236720 139.7703060 109.9123370  52.8168630
 139.1416220 110.0169040  52.1026860 139.2754980 110.1320150  53.6062510
 134.2161200 121.6328960  50.2502610 134.3173180 121.4292950  49.3204590
 133.3162940 121.3787240  50.4550390 131.7387090 112.1909320  54.2326510
 131.0303240 112.6595660  54.6740120 132.0231570 111.5331330  54.8671700
 133.3643020 113.6106020  62.2319040 133.8628270 114.0851840  62.8970890
 133.5065970 112.6869540  62.4389070 135.7702520 108.9159980  55.6722300
 135.6470300 108.9346110  54.7231810 136.7187080 108.9638920  55.7920700
 132.8579310 124.1515280  54.9450280 133.1120810 124.1136670  54.0229650
 131.9091790 124.0248610  54.9378530 129.9422110 110.4994400  51.6077220
 130.7912640 110.9364550  51.5417410 129.5753380 110.8114660  52.4349280
 140.5709880 109.8273980  63.0747430 140.0683480 110.5679380  63.4141240
 141.3866540 110.2157980  62.7584220 138.8631890 115.0707160  56.5208790
 137.9222030 115.0857390  56.6956480 139.1775960 114.2843120  56.9669090
 128.8413530 116.7526760  50.0812750 129.6076800 116.6408120  50.6438180
 128.9188220 116.0564730  49.4289520 127.5360290 114.1851830  50.7645640
 127.6163880 113.2379340  50.8763040 128.4280040 114.5158710  50.8706300
 140.8657470 122.2416010  58.1963050 140.9904890 123.0647180  58.6686860
 141.7323030 122.0306740  57.8487200 128.3375000 124.3347220  57.8680180
 129.0737480 123.7862680  58.1388750 128.7215920 125.2003230  57.7286170
 125.2220480 120.4020790  53.7421690 124.2960260 120.6441930  53.7327100
 125.6876910 121.2295050  53.6206440 127.3433280 123.5193290  67.0565760
 128.1446010 123.8405340  67.4701160 126.8285100 123.1588870  67.7785670
 131.4477310 123.5077530  49.6905750 132.2405920 123.7966360  49.2387540
 130.9281660 123.0769700  49.0118230 136.1797910 119.6273160  67.0041170
 135.5736070 119.6504760  66.2636920 135.8752020 118.8956200  67.5408420
 137.6098280 123.3553450  65.6150580 138.5620030 123.2711470  65.5650820
 137.4626500 124.0195160  66.2884370 140.5007480 122.7347660  51.1142490
 140.2148990 122.3212800  50.2996670 140.3027030 123.6635370  50.9943010
 125.0631090 116.0066750  66.0001810 125.5670110 115.4274030  66.5718040
 124.3238510 116.2906980  66.5378180 131.9654710 118.7280940  49.5548100
 131.8605350 118.1133290  50.2809480 131.7978930 118.2046830  48.7711110
 132.1169030 117.4137740  65.5337330 131.3514700 117.9822740  65.4492000
 132.2984990 117.1213950  64.6405560 135.2057440 117.7900970  50.1590090
 134.6567540 118.2370270  50.8032830 135.8276700 117.2850220  50.6827760
 139.2592380 119.1443070  66.0912350 140.0001850 119.4818830  65.5879810
 138.4965060 119.3135130  65.5382120 127.0954170 114.1496340  66.8951880
 127.1359510 113.8510210  67.8037110 127.9499670 114.5503950  66.7359400
 130.8732560 116.7491890  52.0555390 131.2948980 116.5831760  52.8986780
 130.9983400 115.9392120  51.5610530 129.0359980 112.7288440  64.8626370
 128.5056440 112.2379390  64.2349710 129.7048050 113.1572640  64.3284300
 133.3860200 115.7729500  49.3032490 133.9065860 115.0578520  48.9373640
 134.0328600 116.4115370  49.6033000 137.9338040 117.1957900  64.6267560
 138.3479060 117.3502980  65.4757980 136.9989040 117.3213120  64.7893340
 138.4060210 114.5354060  66.6306710 138.9880980 113.7806380  66.5427190
 138.5821980 115.0661500  65.8538190 129.5232280 109.6950810  64.9423660
 129.4289150 109.0771560  64.2174530 128.9429670 110.4217100  64.7153570
 132.2893720 108.2524050  61.9751050 131.8411020 108.2748310  61.1296600
 131.6558920 107.8543070  62.5721350 132.6953270 117.1478380  62.5963490
 133.1141380 117.9911110  62.4239730 131.7761900 117.2850420  62.3670270
 135.0317170 114.8794560  63.9801330 135.1513380 114.2835700  64.7196170
 135.8911170 114.9164250  63.5602630 137.3705070 115.4331750  62.5563840
 136.8440290 115.9574370  61.9528980 137.7136410 116.0659140  63.1873570
 129.7691460 112.8225120  49.0013550 129.5680520 111.9592480  49.3626890
 129.5983510 112.7358480  48.0635150 130.5460690 123.4531390  63.7121220
 130.0081780 124.1777450  63.3929920 130.7994650 122.9761730  62.9218560
 136.6179370 111.0381720  65.4710170 135.9294890 110.3763260  65.4060160
 137.3385390 110.5919990  65.9158630 137.2479770 107.6333350  51.5300430
 137.5282060 106.7901250  51.8859850 136.4745500 107.8656460  52.0439180
 128.5674260 109.9225740  48.9891430 128.8700160 109.9293170  48.0810580
 129.3068850 109.5723600  49.4859090 133.4022900 124.6882600  63.9707870
 133.3281600 125.5917740  64.2780240 132.5001740 124.3694500  63.9429940
 131.7859190 108.8660360  49.9747630 131.4381190 108.1884350  49.3950080
 131.9871960 108.4049870  50.7891020 133.9508230 123.8541110  51.5934230
 134.8459020 124.1926080  51.6152990 133.9825860 123.1320520  50.9658510
 127.5904390 119.2268160  49.8221230 128.0279260 119.7697830  50.4778810
 128.0752120 118.4015110  49.8317570 124.8050190 122.0157190  57.2741490
 125.1353200 121.1478250  57.0420130 125.2341190 122.2215710  58.1046450
 129.4012110 120.3466200  54.9343460 129.1007650 120.2231170  55.8347370
 129.2949600 119.4874790  54.5259190 125.2940400 122.8827780  60.0123120
 124.8571390 123.0628580  60.8447270 125.8618080 123.6402400  59.8704840
 140.9302580 122.3844780  64.3000430 140.3304570 122.4437340  63.5564350
 141.0596480 121.4449760  64.4297280 142.1704030 120.1262600  49.6370140
 141.3396990 120.1939250  50.1077370 142.3475860 121.0166720  49.3337000
 141.6260490 116.8710080  52.1404340 142.3879400 117.4406730  52.2464030
 141.6414860 116.3037280  52.9112650 142.6320460 117.7260180  56.9846270
 143.0029290 116.9427500  56.5782240 143.2722390 118.4149280  56.8063570
 139.6154220 119.1096760  62.3976590 138.8014060 119.5393920  62.6602380
 140.0228420 119.7215170  61.7845640 141.6779660 117.1644450  49.2976860
 141.9528500 118.0723330  49.1696080 141.4890400 117.1006980  50.2338850
 138.0755270 110.1889300  50.5930490 138.4940150 110.0020280  49.7527150
 137.7691330 109.3368350  50.9033420 141.5745000 115.1013440  54.2906290
 141.1988600 114.3341370  53.8587580 140.8448120 115.4836140  54.7781220
 140.9644620 114.2484960  63.9245810 140.7330710 114.0197710  63.0243760
 141.2249170 115.1684510  63.8790700 125.7156760 112.6909670  64.8173760
 124.8212810 112.6576430  65.1567470 126.2554310 112.8896460  65.5825010
 139.4032690 109.4741390  66.7025510 140.2802870 109.4824790  67.0859510
 139.4153530 108.7372230  66.0917860 140.8495960 113.3270930  57.5913530
 141.3733440 112.8333580  56.9603700 141.4355380 113.4621290  58.3361100
 141.0285680 113.4110800  61.1133080 140.0788390 113.3774340  61.2278070
 141.2098690 114.3210910  60.8782850 126.8830120 111.6612480  50.2231710
 127.5921820 111.2395700  49.7378990 126.1670060 111.7287710  49.5915060
 126.5304280 107.7151810  49.2634360 127.2532410 108.2560750  49.5815580
 126.8028800 107.4415230  48.3875900 140.3395930 112.5844280  53.5305940
 140.8355050 112.3515150  54.3154820 140.1412000 111.7456120  53.1143580
 126.2196470 106.9658000  59.1656980 126.8672660 106.4155380  58.7252140
 126.6398310 107.2201150  59.9872790 141.7683090 111.2205230  56.0643620
 141.6582370 111.0661270  57.0025890 142.5290680 110.6926170  55.8219030
 140.1148810 107.1599360  62.5226620 140.7521030 107.7733500  62.8885810
 140.2623700 107.1960020  61.5775850 142.6573360 109.0513150  49.3049760
 143.5822670 108.9194330  49.0968050 142.6349150 109.1305970  50.2586210
 142.7311850 109.8223810  51.9306470 141.9363350 109.7568930  52.4599380
 142.9355130 110.7574450  51.9191820 139.6730270 123.8615360  55.9244860
 140.2689340 123.5399930  55.2479280 139.9308420 123.3887180  56.7158130
 125.9728470 107.1213670  61.9082300 125.6243290 107.5777490  62.6740480
 125.6416170 106.2270800  61.9904730 127.5792840 120.2933270  66.0735490
 127.5362470 119.9226180  66.9549950 127.7103850 121.2310840  66.2137310
 131.2798870 121.8492860  61.6745210 131.0390230 122.1167420  60.7875730
 132.2201510 122.0198590  61.7296070 142.5403030 123.8687240  62.4755850
 142.0461310 124.2656110  61.7582980 141.9316320 123.2436450  62.8693130
 126.6449110 106.6489870  65.1833070 127.1932100 106.4677920  64.4199180
 126.7104420 105.8583980  65.7189380 127.4180870 123.2395520  63.1933270
 126.8241190 123.1080220  63.9323310 127.4104710 122.4033660  62.7275370
 136.8635890 106.5327750  61.3963300 135.9895730 106.8662860  61.1936230
 136.7546640 106.0600930  62.2215170 137.7707870 108.7398620  62.7805020
 137.4421230 107.9250380  62.4006750 138.7190170 108.6968430  62.6570710
 140.2242480 124.5110660  59.7542590 139.7645450 125.2626470  59.3800610
 139.5954940 123.7917130  59.6957390 127.0493100 120.6053900  62.1441310
 126.3227160 119.9859190  62.0767260 127.1102250 120.9994510  61.2739390
 130.6538200 122.8198900  58.9290720 131.1703220 122.2086260  58.4038980
 131.3035580 123.3227680  59.4201730 133.3933700 123.7107390  59.7559700
 133.6811510 123.4561690  58.8792710 133.9056920 123.1584750  60.3465270
 134.6110710 107.4497590  60.3356210 133.8282500 107.9243090  60.6152970
 134.3173640 106.5452420  60.2269390 139.1631780 108.1520690  58.3805300
 139.6039870 108.0965790  57.5326900 138.8939370 109.0678700  58.4515480
 141.0270350 107.7835930  56.3914120 140.9658750 106.8397150  56.2445140
 141.8062380 107.8916020  56.9367580 125.3323100 123.9228290  55.3538070
 125.1645140 123.2898970  56.0519960 124.4657610 124.1287690  55.0032260
 125.9551120 107.7545070  52.8569930 126.7130480 107.8673950  52.2833960
 125.4928290 108.5914270  52.8113360 132.4964930 109.8684340  55.8472240
 131.6839440 109.4941230  55.5068120 133.0006570 109.1129420  56.1493430
 136.9989910 106.5326790  57.0855310 137.6019280 107.1047000  57.5603830
 136.2582900 107.0966230  56.8629210 140.1424510 106.9348350  52.3595590
 140.3375140 107.8331800  52.6263020 139.3554380 106.7035430  52.8528540
 126.9385800 122.6161520  52.7988210 126.4133420 122.9969550  52.0950170
 126.8630380 123.2412290  53.5197920 128.3276270 108.2809120  51.3971900
 128.8569030 107.4938920  51.2679850 128.9604590 108.9600310  51.6307430
 130.5214110 108.0184260  54.4517290 129.8916850 107.3171570  54.6187420
 129.9819250 108.7788390  54.2350450 133.4606060 124.6323490  67.1227900
 134.3873370 124.3967760  67.1663860 133.4456490 125.4595490  66.6413930
 141.6951120 124.1749060  54.1202150 141.8703310 123.4886800  53.4763070
 140.9972690 124.6996110  53.7278820 129.5378770 124.5643900  51.6737460
 130.2697590 124.2803180  51.1261350 129.7972440 124.3257180  52.5636840
 128.6993560 120.6808630  51.6783790 128.0702440 121.1493730  52.2269620
 128.8141390 119.8357850  52.1129980 140.0283620 123.8593350  66.9468940
 140.8208940 123.3642580  66.7394900 140.3216770 124.5383490  67.5544550
 136.1543280 114.7314290  37.8284990 136.0737330 113.8168900  37.5576700
 135.7407700 115.2281360  37.1224700 134.2861320 116.5093310  39.7094260
 133.5103420 116.0293750  39.9992830 134.9374250 115.8298960  39.5350420
 128.3027150 116.8213120  40.5870020 127.4712030 116.5661830  40.9866530
 128.9108130 116.8923890  41.3227940 138.3068750 120.9153500  38.4893390
 137.8450280 120.1440740  38.8180560 139.1194300 120.9419570  38.9945840
 128.2828410 120.8553210  40.7828040 128.5856450 119.9650950  40.6038260
 129.0272000 121.4123430  40.5550290 126.7119100 111.7815010  34.3712410
 125.8235800 112.1230980  34.2692290 126.9960290 111.5815330  33.4793240
 124.6752110 114.3820660  40.2552110 125.2468220 113.6142860  40.2555750
 124.6753650 114.6809420  39.3458720 134.5332060 123.2011510  38.1097380
 133.9143500 123.6569010  37.5391820 135.3883840 123.3562970  37.7087080
 133.7270310 119.1850500  39.7164420 133.6578590 118.2440440  39.5553550
 134.4890170 119.2751910  40.2886990 125.9176980 109.7905020  42.0421040
 125.7379820 108.8930770  42.3223800 125.5157060 110.3376890  42.7167990
 134.7575480 111.9920880  39.9433350 135.1340300 111.1192760  39.8307020
 134.6594990 112.3279580  39.0523790 128.8880490 110.3646510  35.4050790
 128.9947240 111.2650240  35.7119550 127.9772850 110.3164480  35.1145440
 138.5399600 109.4871320  36.8761690 139.3609220 108.9967890  36.9187170
 138.5733680 110.0768980  37.6293530 126.5363650 112.2865520  40.6503380
 127.2173760 112.5503890  41.2690780 126.2211700 111.4466390  40.9841390
 130.7288220 113.3332880  39.7375970 131.2366440 113.8313850  40.3780990
 131.2601460 112.5568080  39.5615330 142.8299150 111.5038070  43.4405320
 142.1251320 111.8919780  42.9220430 143.0957070 112.1988360  44.0426250
 129.0124320 107.9731440  44.0039390 129.0142760 108.4903830  43.1985290
 128.1828630 107.4961620  43.9809320 135.3995410 118.0850750  35.5029290
 134.7812680 118.5500200  34.9392010 135.9118660 118.7778230  35.9198800
 130.2627170 117.6126620  42.1812890 129.9296550 118.2395540  42.8233960
 130.4393850 118.1388500  41.4014560 138.7761080 111.4271700  39.6489230
 138.0716650 111.7156590  40.2292340 139.1373240 112.2371810  39.2888790
 128.6939650 109.6841400  42.0109840 129.0356460 110.5283450  41.7163710
 127.7555460 109.8325140  42.1275180 129.4746270 119.5807420  43.9962070
 130.0920270 120.2558500  43.7146520 128.6139390 119.9895400  43.9049570
 124.7678610 118.7707280  32.8768920 124.3906590 119.2594380  32.1453820
 125.0251680 119.4432560  33.5075450 140.3923860 121.0446830  41.9116710
 139.7087380 121.7145940  41.9033380 140.9318150 121.2427480  41.1461570
 141.8448000 110.8726490  40.0398440 140.8972910 110.9065470  40.1713870
 142.1697990 111.6865440  40.4247800 132.3767540 107.1723670  38.3354430
 132.6842520 106.6170560  37.6189930 131.4468240 107.3068130  38.1527420
 137.9282600 122.8890960  40.6261890 137.9409760 122.4853250  39.7584150
 137.3757820 123.6638250  40.5223320 139.2228020 119.6107180  35.7152060
 139.1124350 118.6681510  35.8401480 139.2196270 119.9722820  36.6014820
 137.3268040 117.7920800  41.9544500 137.7436830 117.5780910  41.1197960
 138.0507860 118.0493590  42.5253120 134.7648300 115.2372500  35.0714550
 133.8377580 115.1709880  35.3003020 134.9173120 116.1752630  34.9569790
 134.7517380 111.5089500  32.0681710 133.8121050 111.6703460  32.1534170
 135.0700640 112.2275180  31.5217700 141.2730140 116.1908020  42.0460740
 140.4448770 116.2601110  41.5710870 141.8680620 116.7762330  41.5776570
 138.7945590 116.7992800  35.5749800 138.1758010 116.4612350  34.9276100
 138.7770040 116.1552560  36.2828990 138.2372150 112.9777340  42.9915610
 137.8243330 113.8031050  43.2455600 137.5048100 112.3922380  42.7991970
 130.3704940 115.7637240  37.8534280 129.9661940 115.0514490  37.3580180
 130.4568060 115.4190480  38.7422320 130.8386640 119.4504800  40.0173490
 130.5414930 118.8450270  39.3381270 131.7886460 119.4882110  39.9062850
 129.0833560 112.5380450  41.6333320 129.6348150 112.6475790  40.8586570
 129.5977070 112.9118050  42.3488550 138.9272250 123.0236670  43.6796590
 138.4502810 123.8308860  43.4869200 138.2434040 122.3715000  43.8322800
 129.9305070 119.1886490  46.6681290 129.0333600 119.4126460  46.9154690
 129.9557940 119.3121430  45.7192690 136.9710290 116.0379610  32.5822550
 137.4103570 115.2002040  32.4360370 137.6838710 116.6709010  32.6686690
 128.7576290 116.0599810  45.2438660 128.6184060 116.9322610  45.6126060
 127.8757650 115.7172620  45.0986600 135.0805670 120.9775680  36.5503790
 135.5201580 121.7200010  36.1359180 135.0192560 121.2202250  37.4742750
 130.5556640 122.0021510  47.4523810 130.5272070 122.4064460  46.5852240
 130.3921610 121.0731870  47.2895410 140.5527430 107.2922420  30.8963590
 140.2400090 107.3849250  31.7962660 141.3139900 107.8703450  30.8461020
 127.0709570 114.6582220  35.3540930 126.9507170 115.3844310  34.7422200
 126.7610460 113.8885130  34.8768840 142.5071460 122.7848610  48.7487980
 142.9831180 123.2631500  49.4277060 143.1278620 122.7166100  48.0233480
 124.7094940 117.8297360  41.1609570 124.7875360 117.9646130  40.2165290
 125.3236620 117.1213250  41.3537690 125.9542570 119.5297550  37.5715750
 125.5470650 119.6712140  36.7169350 126.8455580 119.2457710  37.3686960
 141.9104710 119.9761460  45.9087990 142.0367770 119.7373340  44.9905170
 141.9526090 119.1446000  46.3810070 135.7721450 123.6789460  44.4782800
 136.2866120 123.5897470  45.2805230 134.9290530 124.0249160  44.7710710
 137.7475850 123.9644800  33.9066800 137.5876990 123.6747740  34.8048630
 137.5822560 123.1884930  33.3712030 130.2264230 123.7443330  35.6838420
 130.0506710 122.8278870  35.4706220 129.3719970 124.1030620  35.9236220
 137.4501980 121.4732360  32.4664800 136.7567140 121.4709650  31.8067080
 138.1924840 121.0491680  32.0358970 137.0151910 123.0995070  36.5413290
 137.4708860 122.3184450  36.8551910 137.3544430 123.8101890  37.0854470
 141.7628720 112.0293920  46.8737730 141.1472990 112.5373590  46.3453190
 141.4425140 111.1292250  46.8163670 124.7654460 118.8711530  43.7004030
 124.9285500 118.4016890  42.8823400 125.2306910 118.3635090  44.3652870
 129.5373230 108.0017290  38.7364600 129.0941380 108.7826830  38.4049120
 130.0958220 108.3247180  39.4435540 133.8243040 110.8685810  44.3399920
 133.3622410 111.0768830  45.1519860 133.4221150 110.0545160  44.0370590
 138.8247550 112.0894760  45.4696580 137.9741140 111.7900510  45.7905650
 138.6649340 112.3336770  44.5580400 135.9197260 113.5896510  47.5695370
 136.2450670 112.7560260  47.2297600 136.7077590 114.1125030  47.7173700
 132.6532050 107.6227990  33.6170430 132.0286230 107.6187860  34.3423740
 132.5662170 106.7558950  33.2206400 131.5749130 108.5464620  40.5954200
 131.8721460 109.4527450  40.5146220 132.1234690 108.0583400  39.9813770
 129.3287450 113.1250860  36.4645850 129.1028370 112.9088030  37.3692470
 128.5479980 113.5579320  36.1191820 136.5585210 113.1314230  35.0636500
 135.9594100 113.8550030  34.8800120 137.1064820 113.0691010  34.2812950
 131.7686660 114.0236440  47.1306120 131.6730260 113.0831170  46.9806520
 132.6118640 114.2451510  46.7354190 135.1650080 111.7677770  37.0939780
 135.5579650 112.0849970  36.2808470 135.5266930 110.8889650  37.2084300
 126.8997200 110.4350110  45.2839900 126.5060590 111.2825320  45.4912680
 126.2115600 109.7976480  45.4748540 133.4742250 110.5185080  48.3536640
 132.7840570 110.3257280  48.9882730 134.2174550 110.8019720  48.8860940
 124.2014250 108.3578570  39.3169980 123.9127300 108.9281430  40.0294960
 124.9460010 107.8783020  39.6801210 124.3884480 112.2998690  30.5272700
 124.3059150 113.2429450  30.6687690 124.0367540 112.1573600  29.6485050
 135.7505220 114.3583520  41.1890560 135.0186340 114.8670330  41.5380660
 135.3529560 113.5413500  40.8879340 132.1882610 111.0337720  39.5943050
 132.1918670 110.5927670  38.7447590 133.0833730 111.3555050  39.7014870
 128.0384990 110.9164210  38.5537260 127.6985040 111.3939440  39.3104310
 127.2762310 110.4629330  38.1938360 132.2502760 112.0349800  32.5849810
 132.3715580 111.9936280  33.5335630 131.8651270 112.8973950  32.4296540
 136.2131130 109.8117200  40.6013500 136.2303870 110.2625850  41.4455350
 135.9646710 108.9122840  40.8146940 131.2624260 114.3450940  31.9833110
 130.6941160 113.8969190  31.3569020 131.9713260 114.7043720  31.4498260
 139.6401880 107.2249380  46.4399880 139.9647650 106.4939040  46.9657860
 139.6758390 106.9063020  45.5380870 126.3393440 118.2462960  45.8599840
 125.9548230 117.6056630  46.4582800 126.6505630 118.9499080  46.4294570
 132.4890580 115.0939500  41.3408460 132.8560710 114.6198070  42.0869800
 132.2995640 115.9681070  41.6816800 125.3531070 109.8383190  37.4701930
 125.0677990 109.4738860  38.3080550 125.2909930 109.1063650  36.8565070
 130.2789950 114.1348140  43.6592670 129.9747020 115.0140120  43.8843030
 131.2336410 114.1947930  43.6950110 128.8071740 118.3409130  34.2559520
 128.0334000 117.8006750  34.0958240 129.5366370 117.8215740  33.9177280
 139.5659720 117.3374490  40.0485910 140.2858840 117.8329780  39.6582020
 139.3641540 116.6592380  39.4039780 135.0269660 108.7312450  34.1915300
 134.2134270 108.2325620  34.1160610 134.8331610 109.5710700  33.7751650
 134.9478520 117.4083550  45.9354910 134.8815830 116.4879220  45.6812500
 134.3183660 117.5058990  46.6499550 137.7418050 113.1032100  32.4877460
 138.6297670 113.4149330  32.3128800 137.7123140 112.2304350  32.0958040
 128.8509140 118.0089510  37.8938330 129.3687810 117.2057770  37.8395220
 128.3993160 117.9468650  38.7355160 133.7378640 119.2755790  33.1665630
 134.0794340 120.0198020  32.6708950 132.9091350 119.5886910  33.5290460
 126.3353680 114.9750880  44.8064030 125.9768620 115.6404730  45.3937370
 126.0408240 114.1434430  45.1776650 129.5366800 115.4335120  47.6903580
 129.2366940 115.5792300  46.7931400 130.3078040 114.8740410  47.5976970
 134.8795250 120.2304120  45.6858710 134.8939790 119.2985080  45.4677620
 134.1720350 120.3163880  46.3248480 140.0132320 114.4143940  31.9557320
 139.9296040 114.8458160  31.1053760 140.7326510 114.8742290  32.3884140
 141.0906460 116.8711460  45.0327290 140.3654650 117.4640240  44.8356680
 141.6181920 116.8635000  44.2340660 141.0419570 121.2686200  34.6839450
 140.3995730 120.6141820  34.9583170 140.6550230 121.6741290  33.9080120
 136.6206050 118.5971630  38.5311140 136.9729870 117.9999760  37.8712510
 135.7368380 118.2715860  38.7019390 132.7069330 119.3569320  35.9381550
 133.3940460 119.9038530  36.3189140 131.9201750 119.9010050  35.9731160
 124.8461730 114.9742140  31.4298630 125.7156580 115.2566940  31.7134550
 124.3552050 115.7878010  31.3147440 132.0096540 116.3615350  35.5506910
 132.4659320 117.1720600  35.7767100 131.6584750 116.0438490  36.3825400
 134.3129150 121.8721690  42.7799210 134.9571370 122.0781070  43.4572630
 134.6758590 121.1110090  42.3270060 127.9108320 106.7053000  36.0229430
 127.7822950 106.6970900  36.9714350 127.0870340 107.0436090  35.6720440
 135.5861230 119.8754040  41.4976660 136.2283460 119.1747200  41.6108830
 136.1110580 120.6552480  41.3173550 139.4316950 120.1602660  31.2215800
 139.2054530 119.4433100  31.8140440 139.0413150 119.9115100  30.3837550
 137.3598850 120.6748940  44.7012720 137.6955090 121.2615630  45.3790640
 136.4399190 120.5441650  44.9310510 125.2132980 124.1869520  31.9960260
 125.5730620 124.7858860  31.3417530 125.0725320 124.7329410  32.7695290
 139.0133200 118.0774600  32.8829960 138.7254900 118.5387290  33.6707840
 139.8085370 117.6172370  33.1514180 125.1974840 122.4524380  46.4702660
 125.3065960 121.5119120  46.3298050 124.5455400 122.7179130  45.8216390
 133.1887430 120.7240270  47.8700780 132.8684300 120.0049510  48.4146470
 132.5145790 121.3995340  47.9436840 131.2301600 121.5700720  32.8133930
 131.2211700 122.3030410  32.1978440 130.3099960 121.3232300  32.9060890
 126.8308240 116.7915610  33.5580690 126.2236190 117.5314510  33.5675990
 127.3057590 116.8814970  32.7318890 136.4041030 110.9566430  43.2337580
 136.7721850 110.1361640  43.5617150 135.5439230 111.0168320  43.6493230
 139.7703060 109.9123370  34.0425140 139.1416220 110.0169040  33.3283370
 139.2754980 110.1320150  34.8319020 134.2161200 121.6328960  31.4759120
 134.3173180 121.4292950  30.5461100 133.3162940 121.3787240  31.6806900
 131.7387090 112.1909320  35.4583020 131.0303240 112.6595660  35.8996630
 132.0231570 111.5331330  36.0928210 133.3643020 113.6106020  43.4575550
 133.8628270 114.0851840  44.1227400 133.5065970 112.6869540  43.6645580
 135.7702520 108.9159980  36.8978810 135.6470300 108.9346110  35.9488320
 136.7187080 108.9638920  37.0177210 132.8579310 124.1515280  36.1706790
 133.1120810 124.1136670  35.2486160 131.9091790 124.0248610  36.1635040
 129.9422110 110.4994400  32.8333730 130.7912640 110.9364550  32.7673920
 129.5753380 110.8114660  33.6605790 140.5709880 109.8273980  44.3003940
 140.0683480 110.5679380  44.6397750 141.3866540 110.2157980  43.9840730
 138.8631890 115.0707160  37.7465300 137.9222030 115.0857390  37.9212990
 139.1775960 114.2843120  38.1925600 128.8413530 116.7526760  31.3069260
 129.6076800 116.6408120  31.8694690 128.9188220 116.0564730  30.6546030
 127.5360290 114.1851830  31.9902150 127.6163880 113.2379340  32.1019550
 128.4280040 114.5158710  32.0962810 140.8657470 122.2416010  39.4219560
 140.9904890 123.0647180  39.8943370 141.7323030 122.0306740  39.0743710
 128.3375000 124.3347220  39.0936690 129.0737480 123.7862680  39.3645260
 128.7215920 125.2003230  38.9542680 125.2220480 120.4020790  34.9678200
 124.2960260 120.6441930  34.9583610 125.6876910 121.2295050  34.8462950
 127.3433280 123.5193290  48.2822270 128.1446010 123.8405340  48.6957670
 126.8285100 123.1588870  49.0042180 131.4477310 123.5077530  30.9162260
 132.2405920 123.7966360  30.4644050 130.9281660 123.0769700  30.2374740
 136.1797910 119.6273160  48.2297680 135.5736070 119.6504760  47.4893430
 135.8752020 118.8956200  48.7664930 137.6098280 123.3553450  46.8407090
 138.5620030 123.2711470  46.7907330 137.4626500 124.0195160  47.5140880
 140.5007480 122.7347660  32.3399000 140.2148990 122.3212800  31.5253180
 140.3027030 123.6635370  32.2199520 125.0631090 116.0066750  47.2258320
 125.5670110 115.4274030  47.7974550 124.3238510 116.2906980  47.7634690
 131.9654710 118.7280940  30.7804610 131.8605350 118.1133290  31.5065990
 131.7978930 118.2046830  29.9967620 132.1169030 117.4137740  46.7593840
 131.3514700 117.9822740  46.6748510 132.2984990 117.1213950  45.8662070
 135.2057440 117.7900970  31.3846600 134.6567540 118.2370270  32.0289340
 135.8276700 117.2850220  31.9084270 139.2592380 119.1443070  47.3168860
 140.0001850 119.4818830  46.8136320 138.4965060 119.3135130  46.7638630
 127.0954170 114.1496340  48.1208390 127.1359510 113.8510210  49.0293620
 127.9499670 114.5503950  47.9615910 130.8732560 116.7491890  33.2811900
 131.2948980 116.5831760  34.1243290 130.9983400 115.9392120  32.7867040
 129.0359980 112.7288440  46.0882880 128.5056440 112.2379390  45.4606220
 129.7048050 113.1572640  45.5540810 133.3860200 115.7729500  30.5289000
 133.9065860 115.0578520  30.1630150 134.0328600 116.4115370  30.8289510
 137.9338040 117.1957900  45.8524070 138.3479060 117.3502980  46.7014490
 136.9989040 117.3213120  46.0149850 138.4060210 114.5354060  47.8563220
 138.9880980 113.7806380  47.7683700 138.5821980 115.0661500  47.0794700
 129.5232280 109.6950810  46.1680170 129.4289150 109.0771560  45.4431040
 128.9429670 110.4217100  45.9410080 132.2893720 108.2524050  43.2007560
 131.8411020 108.2748310  42.3553110 131.6558920 107.8543070  43.7977860
 132.6953270 117.1478380  43.8220000 133.1141380 117.9911110  43.6496240
 131.7761900 117.2850420  43.5926780 135.0317170 114.8794560  45.2057840
 135.1513380 114.2835700  45.9452680 135.8911170 114.9164250  44.7859140
 137.3705070 115.4331750  43.7820350 136.8440290 115.9574370  43.1785490
 137.7136410 116.0659140  44.4130080 129.7691460 112.8225120  30.2270060
 129.5680520 111.9592480  30.5883400 129.5983510 112.7358480  29.2891660
 130.5460690 123.4531390  44.9377730 130.0081780 124.1777450  44.6186430
 130.7994650 122.9761730  44.1475070 131.7985940 111.4215910  46.4633660
 132.3885630 111.1131760  47.1511480 130.9806180 110.9495660  46.6193560
 136.6179370 111.0381720  46.6966680 135.9294890 110.3763260  46.6316670
 137.3385390 110.5919990  47.1415140 137.2479770 107.6333350  32.7556940
 137.5282060 106.7901250  33.1116360 136.4745500 107.8656460  33.2695690
 128.5674260 109.9225740  30.2147940 128.8700160 109.9293170  29.3067090
 129.3068850 109.5723600  30.7115600 133.4022900 124.6882600  45.1964380
 133.3281600 125.5917740  45.5036750 132.5001740 124.3694500  45.1686450
 131.7859190 108.8660360  31.2004140 131.4381190 108.1884350  30.6206590
 131.9871960 108.4049870  32.0147530 133.9508230 123.8541110  32.8190740
 134.8459020 124.1926080  32.8409500 133.9825860 123.1320520  32.1915020
 127.5904390 119.2268160  31.0477740 128.0279260 119.7697830  31.7035320
 128.0752120 118.4015110  31.0574080 124.8050190 122.0157190  38.4998000
 125.1353200 121.1478250  38.2676640 125.2341190 122.2215710  39.3302960
 129.4012110 120.3466200  36.1599970 129.1007650 120.2231170  37.0603880
 129.2949600 119.4874790  35.7515700 125.2940400 122.8827780  41.2379630
 124.8571390 123.0628580  42.0703780 125.8618080 123.6402400  41.0961350
 140.9302580 122.3844780  45.5256940 140.3304570 122.4437340  44.7820860
 141.0596480 121.4449760  45.6553790 142.1704030 120.1262600  30.8626650
 141.3396990 120.1939250  31.3333880 142.3475860 121.0166720  30.5593510
 141.6260490 116.8710080  33.3660850 142.3879400 117.4406730  33.4720540
 141.6414860 116.3037280  34.1369160 125.1264830 115.3948010  37.5968510
 124.4713670 115.1259650  36.9528210 125.9642780 115.2852490  37.1470490
 142.6320460 117.7260180  38.2102780 143.0029290 116.9427500  37.8038750
 143.2722390 118.4149280  38.0320080 139.6154220 119.1096760  43.6233100
 138.8014060 119.5393920  43.8858890 140.0228420 119.7215170  43.0102150
 141.6779660 117.1644450  30.5233370 141.9528500 118.0723330  30.3952590
 141.4890400 117.1006980  31.4595360 138.0755270 110.1889300  31.8187000
 138.4940150 110.0020280  30.9783660 137.7691330 109.3368350  32.1289930
 141.5745000 115.1013440  35.5162800 141.1988600 114.3341370  35.0844090
 140.8448120 115.4836140  36.0037730 126.1640760 115.7800580  42.1371850
 126.5313800 115.6927980  43.0167870 125.5951580 115.0167130  42.0378710
 140.9644620 114.2484960  45.1502320 140.7330710 114.0197710  44.2500270
 141.2249170 115.1684510  45.1047210 125.7156760 112.6909670  46.0430270
 124.8212810 112.6576430  46.3823980 126.2554310 112.8896460  46.8081520
 139.4032690 109.4741390  47.9282020 140.2802870 109.4824790  48.3116020
 139.4153530 108.7372230  47.3174370 124.3402910 112.6046940  33.5393840
 123.4366990 112.8677140  33.3645500 124.8243530 112.8758110  32.7593800
 140.8495960 113.3270930  38.8170040 141.3733440 112.8333580  38.1860210
 141.4355380 113.4621290  39.5617610 141.0285680 113.4110800  42.3389590
 140.0788390 113.3774340  42.4534580 141.2098690 114.3210910  42.1039360
 126.8830120 111.6612480  31.4488220 127.5921820 111.2395700  30.9635500
 126.1670060 111.7287710  30.8171570 126.5304280 107.7151810  30.4890870
 127.2532410 108.2560750  30.8072090 126.8028800 107.4415230  29.6132410
 140.3395930 112.5844280  34.7562450 140.8355050 112.3515150  35.5411330
 140.1412000 111.7456120  34.3400090 141.7683090 111.2205230  37.2900130
 141.6582370 111.0661270  38.2282400 142.5290680 110.6926170  37.0475540
 140.1148810 107.1599360  43.7483130 140.7521030 107.7733500  44.1142320
 140.2623700 107.1960020  42.8032360 142.6573360 109.0513150  30.5306270
 143.5822670 108.9194330  30.3224560 142.6349150 109.1305970  31.4842720
 142.7311850 109.8223810  33.1562980 141.9363350 109.7568930  33.6855890
 142.9355130 110.7574450  33.1448330 139.6730270 123.8615360  37.1501370
 140.2689340 123.5399930  36.4735790 139.9308420 123.3887180  37.9414640
 127.5792840 120.2933270  47.2992000 127.5362470 119.9226180  48.1806460
 127.7103850 121.2310840  47.4393820 131.2798870 121.8492860  42.9001720
 131.0390230 122.1167420  42.0132240 132.2201510 122.0198590  42.9552580
 133.4853290 108.3125550  46.6558230 133.4242180 108.9047380  47.4053640
 134.4253670 108.2051510  46.5108490 136.1227850 107.9695610  46.2950520
 136.7368260 108.2874900  45.6331600 136.6677410 107.4844200  46.9146380
 142.5403030 123.8687240  43.7012360 142.0461310 124.2656110  42.9839490
 141.9316320 123.2436450  44.0949640 127.4180870 123.2395520  44.4189780
 126.8241190 123.1080220  45.1579820 127.4104710 122.4033660  43.9531880
 136.8635890 106.5327750  42.6219810 135.9895730 106.8662860  42.4192740
 136.7546640 106.0600930  43.4471680 137.7707870 108.7398620  44.0061530
 137.4421230 107.9250380  43.6263260 138.7190170 108.6968430  43.8827220
 140.2242480 124.5110660  40.9799100 139.7645450 125.2626470  40.6057120
 139.5954940 123.7917130  40.9213900 127.0493100 120.6053900  43.3697820
 126.3227160 119.9859190  43.3023770 127.1102250 120.9994510  42.4995900
 130.6538200 122.8198900  40.1547230 131.1703220 122.2086260  39.6295490
 131.3035580 123.3227680  40.6458240 133.3933700 123.7107390  40.9816210
 133.6811510 123.4561690  40.1049220 133.9056920 123.1584750  41.5721780
 134.6110710 107.4497590  41.5612720 133.8282500 107.9243090  41.8409480
 134.3173640 106.5452420  41.4525900 139.1631780 108.1520690  39.6061810
 139.6039870 108.0965790  38.7583410 138.8939370 109.0678700  39.6771990
 141.0270350 107.7835930  37.6170630 140.9658750 106.8397150  37.4701650
 141.8062380 107.8916020  38.1624090 125.3323100 123.9228290  36.5794580
 125.1645140 123.2898970  37.2776470 124.4657610 124.1287690  36.2288770
 125.9551120 107.7545070  34.0826440 126.7130480 107.8673950  33.5090470
 125.4928290 108.5914270  34.0369870 132.4964930 109.8684340  37.0728750
 131.6839440 109.4941230  36.7324630 133.0006570 109.1129420  37.3749940
 136.9989910 106.5326790  38.3111820 137.6019280 107.1047000  38.7860340
 136.2582900 107.0966230  38.0885720 140.1424510 106.9348350  33.5852100
 140.3375140 107.8331800  33.8519530 139.3554380 106.7035430  34.0785050
 126.9385800 122.6161520  34.0244720 126.4133420 122.9969550  33.3206680
 126.8630380 123.2412290  34.7454430 128.3276270 108.2809120  32.6228410
 128.8569030 107.4938920  32.4936360 128.9604590 108.9600310  32.8563940
 130.5214110 108.0184260  35.6773800 129.8916850 107.3171570  35.8443930
 129.9819250 108.7788390  35.4606960 133.4606060 124.6323490  48.3484410
 134.3873370 124.3967760  48.3920370 133.4456490 125.4595490  47.8670440
 141.6951120 124.1749060  35.3458660 141.8703310 123.4886800  34.7019580
 140.9972690 124.6996110  34.9535330 130.6469670 107.2968240  48.1126290
 130.3653940 107.8001840  47.3487110 131.0289370 106.4989990  47.7468420
 129.5378770 124.5643900  32.8993970 130.2697590 124.2803180  32.3517860
 129.7972440 124.3257180  33.7893350 128.6993560 120.6808630  32.9040300
 128.0702440 121.1493730  33.4526130 128.8141390 119.8357850  33.3386490
 137.2485130 106.7121820  48.6906760 137.1350580 107.0316430  49.5858280
 138.0654870 107.1134330  48.3944040 140.0283620 123.8593350  48.1725450
 140.8208940 123.3642580  47.9651410 140.3216770 124.5383490  48.7801060
 136.1543280 114.7314290  19.0541500 136.0737330 113.8168900  18.7833210
 135.7407700 115.2281360  18.3481210 134.2861320 116.5093310  20.9350770
 133.5103420 116.0293750  21.2249340 134.9374250 115.8298960  20.7606930
 128.3027150 116.8213120  21.8126530 127.4712030 116.5661830  22.2123040
 128.9108130 116.8923890  22.5484450 138.3068750 120.9153500  19.7149900
 137.8450280 120.1440740  20.0437070 139.1194300 120.9419570  20.2202350
 128.2828410 120.8553210  22.0084550 128.5856450 119.9650950  21.8294770
 129.0272000 121.4123430  21.7806800 126.7119100 111.7815010  15.5968920
 125.8235800 112.1230980  15.4948800 126.9960290 111.5815330  14.7049750
 124.6752110 114.3820660  21.4808620 125.2468220 113.6142860  21.4812260
 124.6753650 114.6809420  20.5715230 134.5332060 123.2011510  19.3353890
 133.9143500 123.6569010  18.7648330 135.3883840 123.3562970  18.9343590
 133.7270310 119.1850500  20.9420930 133.6578590 118.2440440  20.7810060
 134.4890170 119.2751910  21.5143500 125.9176980 109.7905020  23.2677550
 125.7379820 108.8930770  23.5480310 125.5157060 110.3376890  23.9424500
 134.7575480 111.9920880  21.1689860 135.1340300 111.1192760  21.0563530
 134.6594990 112.3279580  20.2780300 128.8880490 110.3646510  16.6307300
 128.9947240 111.2650240  16.9376060 127.9772850 110.3164480  16.3401950
 138.5399600 109.4871320  18.1018200 139.3609220 108.9967890  18.1443680
 138.5733680 110.0768980  18.8550040 126.5363650 112.2865520  21.8759890
 127.2173760 112.5503890  22.4947290 126.2211700 111.4466390  22.2097900
 130.7288220 113.3332880  20.9632480 131.2366440 113.8313850  21.6037500
 131.2601460 112.5568080  20.7871840 142.8299150 111.5038070  24.6661830
 142.1251320 111.8919780  24.1476940 143.0957070 112.1988360  25.2682760
 129.0124320 107.9731440  25.2295900 129.0142760 108.4903830  24.4241800
 128.1828630 107.4961620  25.2065830 135.3995410 118.0850750  16.7285800
 134.7812680 118.5500200  16.1648520 135.9118660 118.7778230  17.1455310
 130.2627170 117.6126620  23.4069400 129.9296550 118.2395540  24.0490470
 130.4393850 118.1388500  22.6271070 138.7761080 111.4271700  20.8745740
 138.0716650 111.7156590  21.4548850 139.1373240 112.2371810  20.5145300
 128.6939650 109.6841400  23.2366350 129.0356460 110.5283450  22.9420220
 127.7555460 109.8325140  23.3531690 129.4746270 119.5807420  25.2218580
 130.0920270 120.2558500  24.9403030 128.6139390 119.9895400  25.1306080
 124.7678610 118.7707280  14.1025430 124.3906590 119.2594380  13.3710330
 125.0251680 119.4432560  14.7331960 140.3923860 121.0446830  23.1373220
 139.7087380 121.7145940  23.1289890 140.9318150 121.2427480  22.3718080
 141.8448000 110.8726490  21.2654950 140.8972910 110.9065470  21.3970380
 142.1697990 111.6865440  21.6504310 132.3767540 107.1723670  19.5610940
 132.6842520 106.6170560  18.8446440 131.4468240 107.3068130  19.3783930
 137.9282600 122.8890960  21.8518400 137.9409760 122.4853250  20.9840660
 137.3757820 123.6638250  21.7479830 139.2228020 119.6107180  16.9408570
 139.1124350 118.6681510  17.0657990 139.2196270 119.9722820  17.8271330
 137.3268040 117.7920800  23.1801010 137.7436830 117.5780910  22.3454470
 138.0507860 118.0493590  23.7509630 134.7648300 115.2372500  16.2971060
 133.8377580 115.1709880  16.5259530 134.9173120 116.1752630  16.1826300
 134.7517380 111.5089500  13.2938220 133.8121050 111.6703460  13.3790680
 135.0700640 112.2275180  12.7474210 141.2730140 116.1908020  23.2717250
 140.4448770 116.2601110  22.7967380 141.8680620 116.7762330  22.8033080
 138.7945590 116.7992800  16.8006310 138.1758010 116.4612350  16.1532610
 138.7770040 116.1552560  17.5085500 138.2372150 112.9777340  24.2172120
 137.8243330 113.8031050  24.4712110 137.5048100 112.3922380  24.0248480
 130.3704940 115.7637240  19.0790790 129.9661940 115.0514490  18.5836690
 130.4568060 115.4190480  19.9678830 130.8386640 119.4504800  21.2430000
 130.5414930 118.8450270  20.5637780 131.7886460 119.4882110  21.1319360
 129.0833560 112.5380450  22.8589830 129.6348150 112.6475790  22.0843080
 129.5977070 112.9118050  23.5745060 138.9272250 123.0236670  24.9053100
 138.4502810 123.8308860  24.7125710 138.2434040 122.3715000  25.0579310
 129.9305070 119.1886490  27.8937800 129.0333600 119.4126460  28.1411200
 129.9557940 119.3121430  26.9449200 136.9710290 116.0379610  13.8079060
 137.4103570 115.2002040  13.6616880 137.6838710 116.6709010  13.8943200
 128.7576290 116.0599810  26.4695170 128.6184060 116.9322610  26.8382570
 127.8757650 115.7172620  26.3243110 135.0805670 120.9775680  17.7760300
 135.5201580 121.7200010  17.3615690 135.0192560 121.2202250  18.6999260
 130.5556640 122.0021510  28.6780320 130.5272070 122.4064460  27.8108750
 130.3921610 121.0731870  28.5151920 140.5527430 107.2922420  12.1220100
 140.2400090 107.3849250  13.0219170 141.3139900 107.8703450  12.0717530
 127.0709570 114.6582220  16.5797440 126.9507170 115.3844310  15.9678710
 126.7610460 113.8885130  16.1025350 142.5071460 122.7848610  29.9744490
 142.9831180 123.2631500  30.6533570 143.1278620 122.7166100  29.2489990
 124.7094940 117.8297360  22.3866080 124.7875360 117.9646130  21.4421800
 125.3236620 117.1213250  22.5794200 125.9542570 119.5297550  18.7972260
 125.5470650 119.6712140  17.9425860 126.8455580 119.2457710  18.5943470
 141.9104710 119.9761460  27.1344500 142.0367770 119.7373340  26.2161680
 141.9526090 119.1446000  27.6066580 135.7721450 123.6789460  25.7039310
 136.2866120 123.5897470  26.5061740 134.9290530 124.0249160  25.9967220
 137.7475850 123.9644800  15.1323310 137.5876990 123.6747740  16.0305140
 137.5822560 123.1884930  14.5968540 130.2264230 123.7443330  16.9094930
 130.0506710 122.8278870  16.6962730 129.3719970 124.1030620  17.1492730
 137.4501980 121.4732360  13.6921310 136.7567140 121.4709650  13.0323590
 138.1924840 121.0491680  13.2615480 137.0151910 123.0995070  17.7669800
 137.4708860 122.3184450  18.0808420 137.3544430 123.8101890  18.3110980
 141.7628720 112.0293920  28.0994240 141.1472990 112.5373590  27.5709700
 141.4425140 111.1292250  28.0420180 124.7654460 118.8711530  24.9260540
 124.9285500 118.4016890  24.1079910 125.2306910 118.3635090  25.5909380
 129.5373230 108.0017290  19.9621110 129.0941380 108.7826830  19.6305630
 130.0958220 108.3247180  20.6692050 133.8243040 110.8685810  25.5656430
 133.3622410 111.0768830  26.3776370 133.4221150 110.0545160  25.2627100
 138.8247550 112.0894760  26.6953090 137.9741140 111.7900510  27.0162160
 138.6649340 112.3336770  25.7836910 135.9197260 113.5896510  28.7951880
 136.2450670 112.7560260  28.4554110 136.7077590 114.1125030  28.9430210
 132.6532050 107.6227990  14.8426940 132.0286230 107.6187860  15.5680250
 132.5662170 106.7558950  14.4462910 131.5749130 108.5464620  21.8210710
 131.8721460 109.4527450  21.7402730 132.1234690 108.0583400  21.2070280
 129.3287450 113.1250860  17.6902360 129.1028370 112.9088030  18.5948980
 128.5479980 113.5579320  17.3448330 136.5585210 113.1314230  16.2893010
 135.9594100 113.8550030  16.1056630 137.1064820 113.0691010  15.5069460
 131.7686660 114.0236440  28.3562630 131.6730260 113.0831170  28.2063030
 132.6118640 114.2451510  27.9610700 135.1650080 111.7677770  18.3196290
 135.5579650 112.0849970  17.5064980 135.5266930 110.8889650  18.4340810
 126.8997200 110.4350110  26.5096410 126.5060590 111.2825320  26.7169190
 126.2115600 109.7976480  26.7005050 133.4742250 110.5185080  29.5793150
 132.7840570 110.3257280  30.2139240 134.2174550 110.8019720  30.1117450
 124.2014250 108.3578570  20.5426490 123.9127300 108.9281430  21.2551470
 124.9460010 107.8783020  20.9057720 124.3884480 112.2998690  11.7529210
 124.3059150 113.2429450  11.8944200 124.0367540 112.1573600  10.8741560
 135.7505220 114.3583520  22.4147070 135.0186340 114.8670330  22.7637170
 135.3529560 113.5413500  22.1135850 132.1882610 111.0337720  20.8199560
 132.1918670 110.5927670  19.9704100 133.0833730 111.3555050  20.9271380
 128.0384990 110.9164210  19.7793770 127.6985040 111.3939440  20.5360820
 127.2762310 110.4629330  19.4194870 132.2502760 112.0349800  13.8106320
 132.3715580 111.9936280  14.7592140 131.8651270 112.8973950  13.6553050
 136.2131130 109.8117200  21.8270010 136.2303870 110.2625850  22.6711860
 135.9646710 108.9122840  22.0403450 131.2624260 114.3450940  13.2089620
 130.6941160 113.8969190  12.5825530 131.9713260 114.7043720  12.6754770
 139.6401880 107.2249380  27.6656390 139.9647650 106.4939040  28.1914370
 139.6758390 106.9063020  26.7637380 126.3393440 118.2462960  27.0856350
 125.9548230 117.6056630  27.6839310 126.6505630 118.9499080  27.6551080
 132.4890580 115.0939500  22.5664970 132.8560710 114.6198070  23.3126310
 132.2995640 115.9681070  22.9073310 125.3531070 109.8383190  18.6958440
 125.0677990 109.4738860  19.5337060 125.2909930 109.1063650  18.0821580
 130.2789950 114.1348140  24.8849180 129.9747020 115.0140120  25.1099540
 131.2336410 114.1947930  24.9206620 128.8071740 118.3409130  15.4816030
 128.0334000 117.8006750  15.3214750 129.5366370 117.8215740  15.1433790
 139.5659720 117.3374490  21.2742420 140.2858840 117.8329780  20.8838530
 139.3641540 116.6592380  20.6296290 135.0269660 108.7312450  15.4171810
 134.2134270 108.2325620  15.3417120 134.8331610 109.5710700  15.0008160
 134.9478520 117.4083550  27.1611420 134.8815830 116.4879220  26.9069010
 134.3183660 117.5058990  27.8756060 137.7418050 113.1032100  13.7133970
 138.6297670 113.4149330  13.5385310 137.7123140 112.2304350  13.3214550
 128.8509140 118.0089510  19.1194840 129.3687810 117.2057770  19.0651730
 128.3993160 117.9468650  19.9611670 133.7378640 119.2755790  14.3922140
 134.0794340 120.0198020  13.8965460 132.9091350 119.5886910  14.7546970
 126.3353680 114.9750880  26.0320540 125.9768620 115.6404730  26.6193880
 126.0408240 114.1434430  26.4033160 129.5366800 115.4335120  28.9160090
 129.2366940 115.5792300  28.0187910 130.3078040 114.8740410  28.8233480
 134.8795250 120.2304120  26.9115220 134.8939790 119.2985080  26.6934130
 134.1720350 120.3163880  27.5504990 140.0132320 114.4143940  13.1813830
 139.9296040 114.8458160  12.3310270 140.7326510 114.8742290  13.6140650
 141.0906460 116.8711460  26.2583800 140.3654650 117.4640240  26.0613190
 141.6181920 116.8635000  25.4597170 141.0419570 121.2686200  15.9095960
 140.3995730 120.6141820  16.1839680 140.6550230 121.6741290  15.1336630
 136.6206050 118.5971630  19.7567650 136.9729870 117.9999760  19.0969020
 135.7368380 118.2715860  19.9275900 132.7069330 119.3569320  17.1638060
 133.3940460 119.9038530  17.5445650 131.9201750 119.9010050  17.1987670
 124.8461730 114.9742140  12.6555140 125.7156580 115.2566940  12.9391060
 124.3552050 115.7878010  12.5403950 132.0096540 116.3615350  16.7763420
 132.4659320 117.1720600  17.0023610 131.6584750 116.0438490  17.6081910
 134.3129150 121.8721690  24.0055720 134.9571370 122.0781070  24.6829140
 134.6758590 121.1110090  23.5526570 127.9108320 106.7053000  17.2485940
 127.7822950 106.6970900  18.1970860 127.0870340 107.0436090  16.8976950
 135.5861230 119.8754040  22.7233170 136.2283460 119.1747200  22.8365340
 136.1110580 120.6552480  22.5430060 139.4316950 120.1602660  12.4472310
 139.2054530 119.4433100  13.0396950 139.0413150 119.9115100  11.6094060
 137.3598850 120.6748940  25.9269230 137.6955090 121.2615630  26.6047150
 136.4399190 120.5441650  26.1567020 125.2132980 124.1869520  13.2216770
 125.5730620 124.7858860  12.5674040 125.0725320 124.7329410  13.9951800
 124.9102250 108.4644120  26.7092640 124.1960770 108.6641040  27.3145250
 125.3297290 107.6883690  27.0807440 139.0133200 118.0774600  14.1086470
 138.7254900 118.5387290  14.8964350 139.8085370 117.6172370  14.3770690
 125.1974840 122.4524380  27.6959170 125.3065960 121.5119120  27.5554560
 124.5455400 122.7179130  27.0472900 133.1887430 120.7240270  29.0957290
 132.8684300 120.0049510  29.6402980 132.5145790 121.3995340  29.1693350
 131.2301600 121.5700720  14.0390440 131.2211700 122.3030410  13.4234950
 130.3099960 121.3232300  14.1317400 126.8308240 116.7915610  14.7837200
 126.2236190 117.5314510  14.7932500 127.3057590 116.8814970  13.9575400
 136.4041030 110.9566430  24.4594090 136.7721850 110.1361640  24.7873660
 135.5439230 111.0168320  24.8749740 139.7703060 109.9123370  15.2681650
 139.1416220 110.0169040  14.5539880 139.2754980 110.1320150  16.0575530
 134.2161200 121.6328960  12.7015630 134.3173180 121.4292950  11.7717610
 133.3162940 121.3787240  12.9063410 131.7387090 112.1909320  16.6839530
 131.0303240 112.6595660  17.1253140 132.0231570 111.5331330  17.3184720
 133.3643020 113.6106020  24.6832060 133.8628270 114.0851840  25.3483910
 133.5065970 112.6869540  24.8902090 135.7702520 108.9159980  18.1235320
 135.6470300 108.9346110  17.1744830 136.7187080 108.9638920  18.2433720
 132.8579310 124.1515280  17.3963300 133.1120810 124.1136670  16.4742670
 131.9091790 124.0248610  17.3891550 129.9422110 110.4994400  14.0590240
 130.7912640 110.9364550  13.9930430 129.5753380 110.8114660  14.8862300
 140.5709880 109.8273980  25.5260450 140.0683480 110.5679380  25.8654260
 141.3866540 110.2157980  25.2097240 138.8631890 115.0707160  18.9721810
 137.9222030 115.0857390  19.1469500 139.1775960 114.2843120  19.4182110
 128.8413530 116.7526760  12.5325770 129.6076800 116.6408120  13.0951200
 128.9188220 116.0564730  11.8802540 127.5360290 114.1851830  13.2158660
 127.6163880 113.2379340  13.3276060 128.4280040 114.5158710  13.3219320
 140.8657470 122.2416010  20.6476070 140.9904890 123.0647180  21.1199880
 141.7323030 122.0306740  20.3000220 128.3375000 124.3347220  20.3193200
 129.0737480 123.7862680  20.5901770 128.7215920 125.2003230  20.1799190
 125.2220480 120.4020790  16.1934710 124.2960260 120.6441930  16.1840120
 125.6876910 121.2295050  16.0719460 127.3433280 123.5193290  29.5078780
 128.1446010 123.8405340  29.9214180 126.8285100 123.1588870  30.2298690
 131.4477310 123.5077530  12.1418770 132.2405920 123.7966360  11.6900560
 130.9281660 123.0769700  11.4631250 136.1797910 119.6273160  29.4554190
 135.5736070 119.6504760  28.7149940 135.8752020 118.8956200  29.9921440
 137.6098280 123.3553450  28.0663600 138.5620030 123.2711470  28.0163840
 137.4626500 124.0195160  28.7397390 140.5007480 122.7347660  13.5655510
 140.2148990 122.3212800  12.7509690 140.3027030 123.6635370  13.4456030
 125.0631090 116.0066750  28.4514830 125.5670110 115.4274030  29.0231060
 124.3238510 116.2906980  28.9891200 131.9654710 118.7280940  12.0061120
 131.8605350 118.1133290  12.7322500 131.7978930 118.2046830  11.2224130
 132.1169030 117.4137740  27.9850350 131.3514700 117.9822740  27.9005020
 132.2984990 117.1213950  27.0918580 135.2057440 117.7900970  12.6103110
 134.6567540 118.2370270  13.2545850 135.8276700 117.2850220  13.1340780
 139.2592380 119.1443070  28.5425370 140.0001850 119.4818830  28.0392830
 138.4965060 119.3135130  27.9895140 127.0954170 114.1496340  29.3464900
 127.1359510 113.8510210  30.2550130 127.9499670 114.5503950  29.1872420
 130.8732560 116.7491890  14.5068410 131.2948980 116.5831760  15.3499800
 130.9983400 115.9392120  14.0123550 129.0359980 112.7288440  27.3139390
 128.5056440 112.2379390  26.6862730 129.7048050 113.1572640  26.7797320
 133.3860200 115.7729500  11.7545510 133.9065860 115.0578520  11.3886660
 134.0328600 116.4115370  12.0546020 137.9338040 117.1957900  27.0780580
 138.3479060 117.3502980  27.9271000 136.9989040 117.3213120  27.2406360
 138.4060210 114.5354060  29.0819730 138.9880980 113.7806380  28.9940210
 138.5821980 115.0661500  28.3051210 129.5232280 109.6950810  27.3936680
 129.4289150 109.0771560  26.6687550 128.9429670 110.4217100  27.1666590
 132.2893720 108.2524050  24.4264070 131.8411020 108.2748310  23.5809620
 131.6558920 107.8543070  25.0234370 132.6953270 117.1478380  25.0476510
 133.1141380 117.9911110  24.8752750 131.7761900 117.2850420  24.8183290
 135.0317170 114.8794560  26.4314350 135.1513380 114.2835700  27.1709190
 135.8911170 114.9164250  26.0115650 137.3705070 115.4331750  25.0076860
 136.8440290 115.9574370  24.4042000 137.7136410 116.0659140  25.6386590
 129.7691460 112.8225120  11.4526570 129.5680520 111.9592480  11.8139910
 129.5983510 112.7358480  10.5148170 130.5460690 123.4531390  26.1634240
 130.0081780 124.1777450  25.8442940 130.7994650 122.9761730  25.3731580
 131.7985940 111.4215910  27.6890170 132.3885630 111.1131760  28.3767990
 130.9806180 110.9495660  27.8450070 136.6179370 111.0381720  27.9223190
 135.9294890 110.3763260  27.8573180 137.3385390 110.5919990  28.3671650
 137.2479770 107.6333350  13.9813450 137.5282060 106.7901250  14.3372870
 136.4745500 107.8656460  14.4952200 128.5674260 109.9225740  11.4404450
 128.8700160 109.9293170  10.5323600 129.3068850 109.5723600  11.9372110
 133.4022900 124.6882600  26.4220890 133.3281600 125.5917740  26.7293260
 132.5001740 124.3694500  26.3942960 131.7859190 108.8660360  12.4260650
 131.4381190 108.1884350  11.8463100 131.9871960 108.4049870  13.2404040
 133.9508230 123.8541110  14.0447250 134.8459020 124.1926080  14.0666010
 133.9825860 123.1320520  13.4171530 127.5904390 119.2268160  12.2734250
 128.0279260 119.7697830  12.9291830 128.0752120 118.4015110  12.2830590
 124.8050190 122.0157190  19.7254510 125.1353200 121.1478250  19.4933150
 125.2341190 122.2215710  20.5559470 129.4012110 120.3466200  17.3856480
 129.1007650 120.2231170  18.2860390 129.2949600 119.4874790  16.9772210
 125.2940400 122.8827780  22.4636140 124.8571390 123.0628580  23.2960290
 125.8618080 123.6402400  22.3217860 140.9302580 122.3844780  26.7513450
 140.3304570 122.4437340  26.0077370 141.0596480 121.4449760  26.8810300
 142.1704030 120.1262600  12.0883160 141.3396990 120.1939250  12.5590390
 142.3475860 121.0166720  11.7850020 141.6260490 116.8710080  14.5917360
 142.3879400 117.4406730  14.6977050 141.6414860 116.3037280  15.3625670
 125.1264830 115.3948010  18.8225020 124.4713670 115.1259650  18.1784720
 125.9642780 115.2852490  18.3727000 142.6320460 117.7260180  19.4359290
 143.0029290 116.9427500  19.0295260 143.2722390 118.4149280  19.2576590
 139.6154220 119.1096760  24.8489610 138.8014060 119.5393920  25.1115400
 140.0228420 119.7215170  24.2358660 141.6779660 117.1644450  11.7489880
 141.9528500 118.0723330  11.6209100 141.4890400 117.1006980  12.6851870
 138.0755270 110.1889300  13.0443510 138.4940150 110.0020280  12.2040170
 137.7691330 109.3368350  13.3546440 141.5745000 115.1013440  16.7419310
 141.1988600 114.3341370  16.3100600 140.8448120 115.4836140  17.2294240
 126.1640760 115.7800580  23.3628360 126.5313800 115.6927980  24.2424380
 125.5951580 115.0167130  23.2635220 140.9644620 114.2484960  26.3758830
 140.7330710 114.0197710  25.4756780 141.2249170 115.1684510  26.3303720
 125.7156760 112.6909670  27.2686780 124.8212810 112.6576430  27.6080490
 126.2554310 112.8896460  28.0338030 139.4032690 109.4741390  29.1538530
 140.2802870 109.4824790  29.5372530 139.4153530 108.7372230  28.5430880
 124.3402910 112.6046940  14.7650350 123.4366990 112.8677140  14.5902010
 124.8243530 112.8758110  13.9850310 140.8495960 113.3270930  20.0426550
 141.3733440 112.8333580  19.4116720 141.4355380 113.4621290  20.7874120
 141.0285680 113.4110800  23.5646100 140.0788390 113.3774340  23.6791090
 141.2098690 114.3210910  23.3295870 126.8830120 111.6612480  12.6744730
 127.5921820 111.2395700  12.1892010 126.1670060 111.7287710  12.0428080
 126.5304280 107.7151810  11.7147380 127.2532410 108.2560750  12.0328600
 126.8028800 107.4415230  10.8388920 140.3395930 112.5844280  15.9818960
 140.8355050 112.3515150  16.7667840 140.1412000 111.7456120  15.5656600
 126.2196470 106.9658000  21.6170000 126.8672660 106.4155380  21.1765160
 126.6398310 107.2201150  22.4385810 141.7683090 111.2205230  18.5156640
 141.6582370 111.0661270  19.4538910 142.5290680 110.6926170  18.2732050
 140.1148810 107.1599360  24.9739640 140.7521030 107.7733500  25.3398830
 140.2623700 107.1960020  24.0288870 142.6573360 109.0513150  11.7562780
 143.5822670 108.9194330  11.5481070 142.6349150 109.1305970  12.7099230
 142.7311850 109.8223810  14.3819490 141.9363350 109.7568930  14.9112400
 142.9355130 110.7574450  14.3704840 139.6730270 123.8615360  18.3757880
 140.2689340 123.5399930  17.6992300 139.9308420 123.3887180  19.1671150
 125.9728470 107.1213670  24.3595320 125.6243290 107.5777490  25.1253500
 125.6416170 106.2270800  24.4417750 127.5792840 120.2933270  28.5248510
 127.5362470 119.9226180  29.4062970 127.7103850 121.2310840  28.6650330
 131.2798870 121.8492860  24.1258230 131.0390230 122.1167420  23.2388750
 132.2201510 122.0198590  24.1809090 133.4853290 108.3125550  27.8814740
 133.4242180 108.9047380  28.6310150 134.4253670 108.2051510  27.7365000
 136.1227850 107.9695610  27.5207030 136.7368260 108.2874900  26.8588110
 136.6677410 107.4844200  28.1402890 142.5403030 123.8687240  24.9268870
 142.0461310 124.2656110  24.2096000 141.9316320 123.2436450  25.3206150
 126.6449110 106.6489870  27.6346090 127.1932100 106.4677920  26.8712200
 126.7104420 105.8583980  28.1702400 127.4180870 123.2395520  25.6446290
 126.8241190 123.1080220  26.3836330 127.4104710 122.4033660  25.1788390
 136.8635890 106.5327750  23.8476320 135.9895730 106.8662860  23.6449250
 136.7546640 106.0600930  24.6728190 137.7707870 108.7398620  25.2318040
 137.4421230 107.9250380  24.8519770 138.7190170 108.6968430  25.1083730
 140.2242480 124.5110660  22.2055610 139.7645450 125.2626470  21.8313630
 139.5954940 123.7917130  22.1470410 127.0493100 120.6053900  24.5954330
 126.3227160 119.9859190  24.5280280 127.1102250 120.9994510  23.7252410
 130.6538200 122.8198900  21.3803740 131.1703220 122.2086260  20.8552000
 131.3035580 123.3227680  21.8714750 133.3933700 123.7107390  22.2072720
 133.6811510 123.4561690  21.3305730 133.9056920 123.1584750  22.7978290
 134.6110710 107.4497590  22.7869230 133.8282500 107.9243090  23.0665990
 134.3173640 106.5452420  22.6782410 139.1631780 108.1520690  20.8318320
 139.6039870 108.0965790  19.9839920 138.8939370 109.0678700  20.9028500
 141.0270350 107.7835930  18.8427140 140.9658750 106.8397150  18.6958160
 141.8062380 107.8916020  19.3880600 125.3323100 123.9228290  17.8051090
 125.1645140 123.2898970  18.5032980 124.4657610 124.1287690  17.4545280
 125.9551120 107.7545070  15.3082950 126.7130480 107.8673950  14.7346980
 125.4928290 108.5914270  15.2626380 132.4964930 109.8684340  18.2985260
 131.6839440 109.4941230  17.9581140 133.0006570 109.1129420  18.6006450
 136.9989910 106.5326790  19.5368330 137.6019280 107.1047000  20.0116850
 136.2582900 107.0966230  19.3142230 140.1424510 106.9348350  14.8108610
 140.3375140 107.8331800  15.0776040 139.3554380 106.7035430  15.3041560
 126.9385800 122.6161520  15.2501230 126.4133420 122.9969550  14.5463190
 126.8630380 123.2412290  15.9710940 128.3276270 108.2809120  13.8484920
 128.8569030 107.4938920  13.7192870 128.9604590 108.9600310  14.0820450
 130.5214110 108.0184260  16.9030310 129.8916850 107.3171570  17.0700440
 129.9819250 108.7788390  16.6863470 133.4606060 124.6323490  29.5740920
 134.3873370 124.3967760  29.6176880 133.4456490 125.4595490  29.0926950
 141.6951120 124.1749060  16.5715170 141.8703310 123.4886800  15.9276090
 140.9972690 124.6996110  16.1791840 130.6469670 107.2968240  29.3382800
 130.3653940 107.8001840  28.5743620 131.0289370 106.4989990  28.9724930
 129.5378770 124.5643900  14.1250480 130.2697590 124.2803180  13.5774370
 129.7972440 124.3257180  15.0149860 128.6993560 120.6808630  14.1296810
 128.0702440 121.1493730  14.6782640 128.8141390 119.8357850  14.5643000
 137.2485130 106.7121820  29.9163270 137.1350580 107.0316430  30.8114790
 138.0654870 107.1134330  29.6200550 140.0283620 123.8593350  29.3981960
 140.8208940 123.3642580  29.1907920 140.3216770 124.5383490  30.0057570
 134.2861320 116.5093310   2.1607280 133.5103420 116.0293750   2.4505850
 134.9374250 115.8298960   1.9863440 128.3027150 116.8213120   3.0383040
 127.4712030 116.5661830   3.4379550 128.9108130 116.8923890   3.7740960
 128.2828410 120.8553210   3.2341060 128.5856450 119.9650950   3.0551280
 129.0272000 121.4123430   3.0063310 124.6752110 114.3820660   2.7065130
 125.2468220 113.6142860   2.7068770 124.6753650 114.6809420   1.7971740
 133.7270310 119.1850500   2.1677440 133.6578590 118.2440440   2.0066570
 134.4890170 119.2751910   2.7400010 125.9176980 109.7905020   4.4934060
 125.7379820 108.8930770   4.7736820 125.5157060 110.3376890   5.1681010
 126.5363650 112.2865520   3.1016400 127.2173760 112.5503890   3.7203800
 126.2211700 111.4466390   3.4354410 130.7288220 113.3332880   2.1888990
 131.2366440 113.8313850   2.8294010 131.2601460 112.5568080   2.0128350
 142.8299150 111.5038070   5.8918340 142.1251320 111.8919780   5.3733450
 143.0957070 112.1988360   6.4939270 129.0124320 107.9731440   6.4552410
 129.0142760 108.4903830   5.6498310 128.1828630 107.4961620   6.4322340
 130.2627170 117.6126620   4.6325910 129.9296550 118.2395540   5.2746980
 130.4393850 118.1388500   3.8527580 138.7761080 111.4271700   2.1002250
 138.0716650 111.7156590   2.6805360 139.1373240 112.2371810   1.7401810
 128.6939650 109.6841400   4.4622860 129.0356460 110.5283450   4.1676730
 127.7555460 109.8325140   4.5788200 129.4746270 119.5807420   6.4475090
 130.0920270 120.2558500   6.1659540 128.6139390 119.9895400   6.3562590
 140.3923860 121.0446830   4.3629730 139.7087380 121.7145940   4.3546400
 140.9318150 121.2427480   3.5974590 141.8448000 110.8726490   2.4911460
 140.8972910 110.9065470   2.6226890 142.1697990 111.6865440   2.8760820
 137.9282600 122.8890960   3.0774910 137.9409760 122.4853250   2.2097170
 137.3757820 123.6638250   2.9736340 137.3268040 117.7920800   4.4057520
 137.7436830 117.5780910   3.5710980 138.0507860 118.0493590   4.9766140
 141.2730140 116.1908020   4.4973760 140.4448770 116.2601110   4.0223890
 141.8680620 116.7762330   4.0289590 138.2372150 112.9777340   5.4428630
 137.8243330 113.8031050   5.6968620 137.5048100 112.3922380   5.2504990
 130.8386640 119.4504800   2.4686510 130.5414930 118.8450270   1.7894290
 131.7886460 119.4882110   2.3575870 129.0833560 112.5380450   4.0846340
 129.6348150 112.6475790   3.3099590 129.5977070 112.9118050   4.8001570
 138.9272250 123.0236670   6.1309610 138.4502810 123.8308860   5.9382220
 138.2434040 122.3715000   6.2835820 129.9305070 119.1886490   9.1194310
 129.0333600 119.4126460   9.3667710 129.9557940 119.3121430   8.1705710
 128.7576290 116.0599810   7.6951680 128.6184060 116.9322610   8.0639080
 127.8757650 115.7172620   7.5499620 130.5556640 122.0021510   9.9036830
 130.5272070 122.4064460   9.0365260 130.3921610 121.0731870   9.7408430
 142.5071460 122.7848610  11.2001000 142.9831180 123.2631500  11.8790080
 143.1278620 122.7166100  10.4746500 124.7094940 117.8297360   3.6122590
 124.7875360 117.9646130   2.6678310 125.3236620 117.1213250   3.8050710
 141.9104710 119.9761460   8.3601010 142.0367770 119.7373340   7.4418190
 141.9526090 119.1446000   8.8323090 135.7721450 123.6789460   6.9295820
 136.2866120 123.5897470   7.7318250 134.9290530 124.0249160   7.2223730
 141.7628720 112.0293920   9.3250750 141.1472990 112.5373590   8.7966210
 141.4425140 111.1292250   9.2676690 124.7654460 118.8711530   6.1517050
 124.9285500 118.4016890   5.3336420 125.2306910 118.3635090   6.8165890
 133.8243040 110.8685810   6.7912940 133.3622410 111.0768830   7.6032880
 133.4221150 110.0545160   6.4883610 138.8247550 112.0894760   7.9209600
 137.9741140 111.7900510   8.2418670 138.6649340 112.3336770   7.0093420
 135.9197260 113.5896510  10.0208390 136.2450670 112.7560260   9.6810620
 136.7077590 114.1125030  10.1686720 131.5749130 108.5464620   3.0467220
 131.8721460 109.4527450   2.9659240 132.1234690 108.0583400   2.4326790
 131.7686660 114.0236440   9.5819140 131.6730260 113.0831170   9.4319540
 132.6118640 114.2451510   9.1867210 126.8997200 110.4350110   7.7352920
 126.5060590 111.2825320   7.9425700 126.2115600 109.7976480   7.9261560
 133.4742250 110.5185080  10.8049660 132.7840570 110.3257280  11.4395750
 134.2174550 110.8019720  11.3373960 124.2014250 108.3578570   1.7683000
 123.9127300 108.9281430   2.4807980 124.9460010 107.8783020   2.1314230
 135.7505220 114.3583520   3.6403580 135.0186340 114.8670330   3.9893680
 135.3529560 113.5413500   3.3392360 136.2131130 109.8117200   3.0526520
 136.2303870 110.2625850   3.8968370 135.9646710 108.9122840   3.2659960
 139.6401880 107.2249380   8.8912900 139.9647650 106.4939040   9.4170880
 139.6758390 106.9063020   7.9893890 126.3393440 118.2462960   8.3112860
 125.9548230 117.6056630   8.9095820 126.6505630 118.9499080   8.8807590
 132.4890580 115.0939500   3.7921480 132.8560710 114.6198070   4.5382820
 132.2995640 115.9681070   4.1329820 130.2789950 114.1348140   6.1105690
 129.9747020 115.0140120   6.3356050 131.2336410 114.1947930   6.1463130
 139.5659720 117.3374490   2.4998930 140.2858840 117.8329780   2.1095040
 139.3641540 116.6592380   1.8552800 134.9478520 117.4083550   8.3867930
 134.8815830 116.4879220   8.1325520 134.3183660 117.5058990   9.1012570
 126.3353680 114.9750880   7.2577050 125.9768620 115.6404730   7.8450390
 126.0408240 114.1434430   7.6289670 129.5366800 115.4335120  10.1416600
 129.2366940 115.5792300   9.2444420 130.3078040 114.8740410  10.0489990
 134.8795250 120.2304120   8.1371730 134.8939790 119.2985080   7.9190640
 134.1720350 120.3163880   8.7761500 141.0906460 116.8711460   7.4840310
 140.3654650 117.4640240   7.2869700 141.6181920 116.8635000   6.6853680
 134.3129150 121.8721690   5.2312230 134.9571370 122.0781070   5.9085650
 134.6758590 121.1110090   4.7783080 135.5861230 119.8754040   3.9489680
 136.2283460 119.1747200   4.0621850 136.1110580 120.6552480   3.7686570
 137.3598850 120.6748940   7.1525740 137.6955090 121.2615630   7.8303660
 136.4399190 120.5441650   7.3823530 124.9102250 108.4644120   7.9349150
 124.1960770 108.6641040   8.5401760 125.3297290 107.6883690   8.3063950
 125.1974840 122.4524380   8.9215680 125.3065960 121.5119120   8.7811070
 124.5455400 122.7179130   8.2729410 133.1887430 120.7240270  10.3213800
 132.8684300 120.0049510  10.8659490 132.5145790 121.3995340  10.3949860
 136.4041030 110.9566430   5.6850600 136.7721850 110.1361640   6.0130170
 135.5439230 111.0168320   6.1006250 133.3643020 113.6106020   5.9088570
 133.8628270 114.0851840   6.5740420 133.5065970 112.6869540   6.1158600
 140.5709880 109.8273980   6.7516960 140.0683480 110.5679380   7.0910770
 141.3866540 110.2157980   6.4353750 127.3433280 123.5193290  10.7335290
 128.1446010 123.8405340  11.1470690 126.8285100 123.1588870  11.4555200
 136.1797910 119.6273160  10.6810700 135.5736070 119.6504760   9.9406450
 135.8752020 118.8956200  11.2177950 137.6098280 123.3553450   9.2920110
 138.5620030 123.2711470   9.2420350 137.4626500 124.0195160   9.9653900
 125.0631090 116.0066750   9.6771340 125.5670110 115.4274030  10.2487570
 124.3238510 116.2906980  10.2147710 132.1169030 117.4137740   9.2106860
 131.3514700 117.9822740   9.1261530 132.2984990 117.1213950   8.3175090
 139.2592380 119.1443070   9.7681880 140.0001850 119.4818830   9.2649340
 138.4965060 119.3135130   9.2151650 127.0954170 114.1496340  10.5721410
 127.1359510 113.8510210  11.4806640 127.9499670 114.5503950  10.4128930
 129.0359980 112.7288440   8.5395900 128.5056440 112.2379390   7.9119240
 129.7048050 113.1572640   8.0053830 137.9338040 117.1957900   8.3037090
 138.3479060 117.3502980   9.1527510 136.9989040 117.3213120   8.4662870
 138.4060210 114.5354060  10.3076240 138.9880980 113.7806380  10.2196720
 138.5821980 115.0661500   9.5307720 129.5232280 109.6950810   8.6193190
 129.4289150 109.0771560   7.8944060 128.9429670 110.4217100   8.3923100
 132.2893720 108.2524050   5.6520580 131.8411020 108.2748310   4.8066130
 131.6558920 107.8543070   6.2490880 132.6953270 117.1478380   6.2733020
 133.1141380 117.9911110   6.1009260 131.7761900 117.2850420   6.0439800
 135.0317170 114.8794560   7.6570860 135.1513380 114.2835700   8.3965700
 135.8911170 114.9164250   7.2372160 137.3705070 115.4331750   6.2333370
 136.8440290 115.9574370   5.6298510 137.7136410 116.0659140   6.8643100
 130.5460690 123.4531390   7.3890750 130.0081780 124.1777450   7.0699450
 130.7994650 122.9761730   6.5988090 131.7985940 111.4215910   8.9146680
 132.3885630 111.1131760   9.6024500 130.9806180 110.9495660   9.0706580
 136.6179370 111.0381720   9.1479700 135.9294890 110.3763260   9.0829690
 137.3385390 110.5919990   9.5928160 133.4022900 124.6882600   7.6477400
 133.3281600 125.5917740   7.9549770 132.5001740 124.3694500   7.6199470
 125.2940400 122.8827780   3.6892650 124.8571390 123.0628580   4.5216800
 125.8618080 123.6402400   3.5474370 140.9302580 122.3844780   7.9769960
 140.3304570 122.4437340   7.2333880 141.0596480 121.4449760   8.1066810
 139.6154220 119.1096760   6.0746120 138.8014060 119.5393920   6.3371910
 140.0228420 119.7215170   5.4615170 126.1640760 115.7800580   4.5884870
 126.5313800 115.6927980   5.4680890 125.5951580 115.0167130   4.4891730
 140.9644620 114.2484960   7.6015340 140.7330710 114.0197710   6.7013290
 141.2249170 115.1684510   7.5560230 125.7156760 112.6909670   8.4943290
 124.8212810 112.6576430   8.8337000 126.2554310 112.8896460   9.2594540
 139.4032690 109.4741390  10.3795040 140.2802870 109.4824790  10.7629040
 139.4153530 108.7372230   9.7687390 141.0285680 113.4110800   4.7902610
 140.0788390 113.3774340   4.9047600 141.2098690 114.3210910   4.5552380
 126.2196470 106.9658000   2.8426510 126.8672660 106.4155380   2.4021670
 126.6398310 107.2201150   3.6642320 140.1148810 107.1599360   6.1996150
 140.7521030 107.7733500   6.5655340 140.2623700 107.1960020   5.2545380
 125.9728470 107.1213670   5.5851830 125.6243290 107.5777490   6.3510010
 125.6416170 106.2270800   5.6674260 127.5792840 120.2933270   9.7505020
 127.5362470 119.9226180  10.6319480 127.7103850 121.2310840   9.8906840
 131.2798870 121.8492860   5.3514740 131.0390230 122.1167420   4.4645260
 132.2201510 122.0198590   5.4065600 133.4853290 108.3125550   9.1071250
 133.4242180 108.9047380   9.8566660 134.4253670 108.2051510   8.9621510
 136.1227850 107.9695610   8.7463540 136.7368260 108.2874900   8.0844620
 136.6677410 107.4844200   9.3659400 142.5403030 123.8687240   6.1525380
 142.0461310 124.2656110   5.4352510 141.9316320 123.2436450   6.5462660
 126.6449110 106.6489870   8.8602600 127.1932100 106.4677920   8.0968710
 126.7104420 105.8583980   9.3958910 127.4180870 123.2395520   6.8702800
 126.8241190 123.1080220   7.6092840 127.4104710 122.4033660   6.4044900
 136.8635890 106.5327750   5.0732830 135.9895730 106.8662860   4.8705760
 136.7546640 106.0600930   5.8984700 137.7707870 108.7398620   6.4574550
 137.4421230 107.9250380   6.0776280 138.7190170 108.6968430   6.3340240
 140.2242480 124.5110660   3.4312120 139.7645450 125.2626470   3.0570140
 139.5954940 123.7917130   3.3726920 127.0493100 120.6053900   5.8210840
 126.3227160 119.9859190   5.7536790 127.1102250 120.9994510   4.9508920
 130.6538200 122.8198900   2.6060250 131.1703220 122.2086260   2.0808510
 131.3035580 123.3227680   3.0971260 133.3933700 123.7107390   3.4329230
 133.6811510 123.4561690   2.5562240 133.9056920 123.1584750   4.0234800
 134.6110710 107.4497590   4.0125740 133.8282500 107.9243090   4.2922500
 134.3173640 106.5452420   3.9038920 133.4606060 124.6323490  10.7997430
 134.3873370 124.3967760  10.8433390 133.4456490 125.4595490  10.3183460
 130.6469670 107.2968240  10.5639310 130.3653940 107.8001840   9.8000130
 131.0289370 106.4989990  10.1981440 137.2485130 106.7121820  11.1419780
 137.1350580 107.0316430  12.0371300 138.0654870 107.1134330  10.8457060
 140.0283620 123.8593350  10.6238470 140.8208940 123.3642580  10.4164430
 140.3216770 124.5383490  11.2314080 136.1543280  95.9570800 150.4745930
 136.0737330  95.0425410 150.2037640 135.7407700  96.4537870 149.7685640
 138.3068750 102.1410010 151.1354330 137.8450280 101.3697250 151.4641500
 139.1194300 102.1676080 151.6406780 126.7119100  93.0071520 147.0173350
 125.8235800  93.3487490 146.9153230 126.9960290  92.8071840 146.1254180
 134.5332060 104.4268020 150.7558320 133.9143500 104.8825520 150.1852760
 135.3883840 104.5819480 150.3548020 128.8880490  91.5903020 148.0511730
 128.9947240  92.4906750 148.3580490 127.9772850  91.5420990 147.7606380
 138.5399600  90.7127830 149.5222630 139.3609220  90.2224400 149.5648110
 138.5733680  91.3025490 150.2754470 135.3995410  99.3107260 148.1490230
 134.7812680  99.7756710 147.5852950 135.9118660 100.0034740 148.5659740
 124.7678610  99.9963790 145.5229860 124.3906590 100.4850890 144.7914760
 125.0251680 100.6689070 146.1536390 132.3767540  88.3980180 150.9815370
 132.6842520  87.8427070 150.2650870 131.4468240  88.5324640 150.7988360
 139.2228020 100.8363690 148.3613000 139.1124350  99.8938020 148.4862420
 139.2196270 101.1979330 149.2475760 134.7648300  96.4629010 147.7175490
 133.8377580  96.3966390 147.9463960 134.9173120  97.4009140 147.6030730
 134.7517380  92.7346010 144.7142650 133.8121050  92.8959970 144.7995110
 135.0700640  93.4531690 144.1678640 138.7945590  98.0249310 148.2210740
 138.1758010  97.6868860 147.5737040 138.7770040  97.3809070 148.9289930
 130.3704940  96.9893750 150.4995220 129.9661940  96.2771000 150.0041120
 130.4568060  96.6446990 151.3883260 136.9710290  97.2636120 145.2283490
 137.4103570  96.4258550 145.0821310 137.6838710  97.8965520 145.3147630
 135.0805670 102.2032190 149.1964730 135.5201580 102.9456520 148.7820120
 135.0192560 102.4458760 150.1203690 140.5527430  88.5178930 143.5424530
 140.2400090  88.6105760 144.4423600 141.3139900  89.0959960 143.4921960
 127.0709570  95.8838730 148.0001870 126.9507170  96.6100820 147.3883140
 126.7610460  95.1141640 147.5229780 125.9542570 100.7554060 150.2176690
 125.5470650 100.8968650 149.3630290 126.8455580 100.4714220 150.0147900
 137.7475850 105.1901310 146.5527740 137.5876990 104.9004250 147.4509570
 137.5822560 104.4141440 146.0172970 130.2264230 104.9699840 148.3299360
 130.0506710 104.0535380 148.1167160 129.3719970 105.3287130 148.5697160
 137.4501980 102.6988870 145.1125740 136.7567140 102.6966160 144.4528020
 138.1924840 102.2748190 144.6819910 137.0151910 104.3251580 149.1874230
 137.4708860 103.5440960 149.5012850 137.3544430 105.0358400 149.7315410
 129.5373230  89.2273800 151.3825540 129.0941380  90.0083340 151.0510060
 130.0958220  89.5503690 152.0896480 132.6532050  88.8484500 146.2631370
 132.0286230  88.8444370 146.9884680 132.5662170  87.9815460 145.8667340
 129.3287450  94.3507370 149.1106790 129.1028370  94.1344540 150.0153410
 128.5479980  94.7835830 148.7652760 136.5585210  94.3570740 147.7097440
 135.9594100  95.0806540 147.5261060 137.1064820  94.2947520 146.9273890
 135.1650080  92.9934280 149.7400720 135.5579650  93.3106480 148.9269410
 135.5266930  92.1146160 149.8545240 124.3884480  93.5255200 143.1733640
 124.3059150  94.4685960 143.3148630 124.0367540  93.3830110 142.2945990
 132.1882610  92.2594230 152.2403990 132.1918670  91.8184180 151.3908530
 133.0833730  92.5811560 152.3475810 128.0384990  92.1420720 151.1998200
 127.6985040  92.6195950 151.9565250 127.2762310  91.6885840 150.8399300
 132.2502760  93.2606310 145.2310750 132.3715580  93.2192790 146.1796570
 131.8651270  94.1230460 145.0757480 131.2624260  95.5707450 144.6294050
 130.6941160  95.1225700 144.0029960 131.9713260  95.9300230 144.0959200
 125.3531070  91.0639700 150.1162870 125.0677990  90.6995370 150.9541490
 125.2909930  90.3320160 149.5026010 128.8071740  99.5665640 146.9020460
 128.0334000  99.0263260 146.7419180 129.5366370  99.0472250 146.5638220
 135.0269660  89.9568960 146.8376240 134.2134270  89.4582130 146.7621550
 134.8331610  90.7967210 146.4212590 137.7418050  94.3288610 145.1338400
 138.6297670  94.6405840 144.9589740 137.7123140  93.4560860 144.7418980
 128.8509140  99.2346020 150.5399270 129.3687810  98.4314280 150.4856160
 128.3993160  99.1725160 151.3816100 133.7378640 100.5012300 145.8126570
 134.0794340 101.2454530 145.3169890 132.9091350 100.8143420 146.1751400
 140.0132320  95.6400450 144.6018260 139.9296040  96.0714670 143.7514700
 140.7326510  96.0998800 145.0345080 141.0419570 102.4942710 147.3300390
 140.3995730 101.8398330 147.6044110 140.6550230 102.8997800 146.5541060
 136.6206050  99.8228140 151.1772080 136.9729870  99.2256270 150.5173450
 135.7368380  99.4972370 151.3480330 132.7069330 100.5825830 148.5842490
 133.3940460 101.1295040 148.9650080 131.9201750 101.1266560 148.6192100
 124.8461730  96.1998650 144.0759570 125.7156580  96.4823450 144.3595490
 124.3552050  97.0134520 143.9608380 132.0096540  97.5871860 148.1967850
 132.4659320  98.3977110 148.4228040 131.6584750  97.2695000 149.0286340
 127.9108320  87.9309510 148.6690370 127.7822950  87.9227410 149.6175290
 127.0870340  88.2692600 148.3181380 139.4316950 101.3859170 143.8676740
 139.2054530 100.6689610 144.4601380 139.0413150 101.1371610 143.0298490
 125.2132980 105.4126030 144.6421200 125.5730620 106.0115370 143.9878470
 125.0725320 105.9585920 145.4156230 139.0133200  99.3031110 145.5290900
 138.7254900  99.7643800 146.3168780 139.8085370  98.8428880 145.7975120
 131.2301600 102.7957230 145.4594870 131.2211700 103.5286920 144.8439380
 130.3099960 102.5488810 145.5521830 126.8308240  98.0172120 146.2041630
 126.2236190  98.7571020 146.2136930 127.3057590  98.1071480 145.3779830
 139.7703060  91.1379880 146.6886080 139.1416220  91.2425550 145.9744310
 139.2754980  91.3576660 147.4779960 134.2161200 102.8585470 144.1220060
 134.3173180 102.6549460 143.1922040 133.3162940 102.6043750 144.3267840
 131.7387090  93.4165830 148.1043960 131.0303240  93.8852170 148.5457570
 132.0231570  92.7587840 148.7389150 135.7702520  90.1416490 149.5439750
 135.6470300  90.1602620 148.5949260 136.7187080  90.1895430 149.6638150
 132.8579310 105.3771790 148.8167730 133.1120810 105.3393180 147.8947100
 131.9091790 105.2505120 148.8095980 129.9422110  91.7250910 145.4794670
 130.7912640  92.1621060 145.4134860 129.5753380  92.0371170 146.3066730
 138.8631890  96.2963670 150.3926240 137.9222030  96.3113900 150.5673930
 139.1775960  95.5099630 150.8386540 128.8413530  97.9783270 143.9530200
 129.6076800  97.8664630 144.5155630 128.9188220  97.2821240 143.3006970
 127.5360290  95.4108340 144.6363090 127.6163880  94.4635850 144.7480490
 128.4280040  95.7415220 144.7423750 128.3375000 105.5603730 151.7397630
 129.0737480 105.0119190 152.0106200 128.7215920 106.4259740 151.6003620
 125.2220480 101.6277300 147.6139140 124.2960260 101.8698440 147.6044550
 125.6876910 102.4551560 147.4923890 131.4477310 104.7334040 143.5623200
 132.2405920 105.0222870 143.1104990 130.9281660 104.3026210 142.8835680
 140.5007480 103.9604170 144.9859940 140.2148990 103.5469310 144.1714120
 140.3027030 104.8891880 144.8660460 131.9654710  99.9537450 143.4265550
 131.8605350  99.3389800 144.1526930 131.7978930  99.4303340 142.6428560
 135.2057440  99.0157480 144.0307540 134.6567540  99.4626780 144.6750280
 135.8276700  98.5106730 144.5545210 130.8732560  97.9748400 145.9272840
 131.2948980  97.8088270 146.7704230 130.9983400  97.1648630 145.4327980
 133.3860200  96.9986010 143.1749940 133.9065860  96.2835030 142.8091090
 134.0328600  97.6371880 143.4750450 129.7691460  94.0481630 142.8731000
 129.5680520  93.1848990 143.2344340 129.5983510  93.9614990 141.9352600
 137.2479770  88.8589860 145.4017880 137.5282060  88.0157760 145.7577300
 136.4745500  89.0912970 145.9156630 128.5674260  91.1482250 142.8608880
 128.8700160  91.1549680 141.9528030 129.3068850  90.7980110 143.3576540
 131.7859190  90.0916870 143.8465080 131.4381190  89.4140860 143.2667530
 131.9871960  89.6306380 144.6608470 133.9508230 105.0797620 145.4651680
 134.8459020 105.4182590 145.4870440 133.9825860 104.3577030 144.8375960
 127.5904390 100.4524670 143.6938680 128.0279260 100.9954340 144.3496260
 128.0752120  99.6271620 143.7035020 124.8050190 103.2413700 151.1458940
 125.1353200 102.3734760 150.9137580 125.2341190 103.4472220 151.9763900
 129.4012110 101.5722710 148.8060910 129.1007650 101.4487680 149.7064820
 129.2949600 100.7131300 148.3976640 142.1704030 101.3519110 143.5087590
 141.3396990 101.4195760 143.9794820 142.3475860 102.2423230 143.2054450
 141.6260490  98.0966590 146.0121790 142.3879400  98.6663240 146.1181480
 141.6414860  97.5293790 146.7830100 125.1264830  96.6204520 150.2429450
 124.4713670  96.3516160 149.5989150 125.9642780  96.5109000 149.7931430
 142.6320460  98.9516690 150.8563720 143.0029290  98.1684010 150.4499690
 143.2722390  99.6405790 150.6781020 141.6779660  98.3900960 143.1694310
 141.9528500  99.2979840 143.0413530 141.4890400  98.3263490 144.1056300
 138.0755270  91.4145810 144.4647940 138.4940150  91.2276790 143.6244600
 137.7691330  90.5624860 144.7750870 141.5745000  96.3269950 148.1623740
 141.1988600  95.5597880 147.7305030 140.8448120  96.7092650 148.6498670
 124.3402910  93.8303450 146.1854780 123.4366990  94.0933650 146.0106440
 124.8243530  94.1014620 145.4054740 140.8495960  94.5527440 151.4630980
 141.3733440  94.0590090 150.8321150 141.4355380  94.6877800 152.2078550
 126.8830120  92.8868990 144.0949160 127.5921820  92.4652210 143.6096440
 126.1670060  92.9544220 143.4632510 126.5304280  88.9408320 143.1351810
 127.2532410  89.4817260 143.4533030 126.8028800  88.6671740 142.2593350
 140.3395930  93.8100790 147.4023390 140.8355050  93.5771660 148.1872270
 140.1412000  92.9712630 146.9861030 141.7683090  92.4461740 149.9361070
 141.6582370  92.2917780 150.8743340 142.5290680  91.9182680 149.6936480
 142.6573360  90.2769660 143.1767210 143.5822670  90.1450840 142.9685500
 142.6349150  90.3562480 144.1303660 142.7311850  91.0480320 145.8023920
 141.9363350  90.9825440 146.3316830 142.9355130  91.9830960 145.7909270
 139.6730270 105.0871870 149.7962310 140.2689340 104.7656440 149.1196730
 139.9308420 104.6143690 150.5875580 139.1631780  89.3777200 152.2522750
 139.6039870  89.3222300 151.4044350 138.8939370  90.2935210 152.3232930
 141.0270350  89.0092440 150.2631570 140.9658750  88.0653660 150.1162590
 141.8062380  89.1172530 150.8085030 125.3323100 105.1484800 149.2255520
 125.1645140 104.5155480 149.9237410 124.4657610 105.3544200 148.8749710
 125.9551120  88.9801580 146.7287380 126.7130480  89.0930460 146.1551410
 125.4928290  89.8170780 146.6830810 132.4964930  91.0940850 149.7189690
 131.6839440  90.7197740 149.3785570 133.0006570  90.3385930 150.0210880
 136.9989910  87.7583300 150.9572760 137.6019280  88.3303510 151.4321280
 136.2582900  88.3222740 150.7346660 140.1424510  88.1604860 146.2313040
 140.3375140  89.0588310 146.4980470 139.3554380  87.9291940 146.7245990
 126.9385800 103.8418030 146.6705660 126.4133420 104.2226060 145.9667620
 126.8630380 104.4668800 147.3915370 128.3276270  89.5065630 145.2689350
 128.8569030  88.7195430 145.1397300 128.9604590  90.1856820 145.5024880
 130.5214110  89.2440770 148.3234740 129.8916850  88.5428080 148.4904870
 129.9819250  90.0044900 148.1067900 141.6951120 105.4005570 147.9919600
 141.8703310 104.7143310 147.3480520 140.9972690 105.9252620 147.5996270
 129.5378770 105.7900410 145.5454910 130.2697590 105.5059690 144.9978800
 129.7972440 105.5513690 146.4354290 128.6993560 101.9065140 145.5501240
 128.0702440 102.3750240 146.0987070 128.8141390 101.0614360 145.9847430
 136.1543280  95.9570800 131.7002440 136.0737330  95.0425410 131.4294150
 135.7407700  96.4537870 130.9942150 134.2861320  97.7349820 133.5811710
 133.5103420  97.2550260 133.8710280 134.9374250  97.0555470 133.4067870
 128.3027150  98.0469630 134.4587470 127.4712030  97.7918340 134.8583980
 128.9108130  98.1180400 135.1945390 138.3068750 102.1410010 132.3610840
 137.8450280 101.3697250 132.6898010 139.1194300 102.1676080 132.8663290
 128.2828410 102.0809720 134.6545490 128.5856450 101.1907460 134.4755710
 129.0272000 102.6379940 134.4267740 126.7119100  93.0071520 128.2429860
 125.8235800  93.3487490 128.1409740 126.9960290  92.8071840 127.3510690
 124.6752110  95.6077170 134.1269560 125.2468220  94.8399370 134.1273200
 124.6753650  95.9065930 133.2176170 134.5332060 104.4268020 131.9814830
 133.9143500 104.8825520 131.4109270 135.3883840 104.5819480 131.5804530
 133.7270310 100.4107010 133.5881870 133.6578590  99.4696950 133.4271000
 134.4890170 100.5008420 134.1604440 125.9176980  91.0161530 135.9138490
 125.7379820  90.1187280 136.1941250 125.5157060  91.5633400 136.5885440
 134.7575480  93.2177390 133.8150800 135.1340300  92.3449270 133.7024470
 134.6594990  93.5536090 132.9241240 128.8880490  91.5903020 129.2768240
 128.9947240  92.4906750 129.5837000 127.9772850  91.5420990 128.9862890
 138.5399600  90.7127830 130.7479140 139.3609220  90.2224400 130.7904620
 138.5733680  91.3025490 131.5010980 126.5363650  93.5122030 134.5220830
 127.2173760  93.7760400 135.1408230 126.2211700  92.6722900 134.8558840
 130.7288220  94.5589390 133.6093420 131.2366440  95.0570360 134.2498440
 131.2601460  93.7824590 133.4332780 142.8299150  92.7294580 137.3122770
 142.1251320  93.1176290 136.7937880 143.0957070  93.4244870 137.9143700
 129.0124320  89.1987950 137.8756840 129.0142760  89.7160340 137.0702740
 128.1828630  88.7218130 137.8526770 135.3995410  99.3107260 129.3746740
 134.7812680  99.7756710 128.8109460 135.9118660 100.0034740 129.7916250
 130.2627170  98.8383130 136.0530340 129.9296550  99.4652050 136.6951410
 130.4393850  99.3645010 135.2732010 138.7761080  92.6528210 133.5206680
 138.0716650  92.9413100 134.1009790 139.1373240  93.4628320 133.1606240
 128.6939650  90.9097910 135.8827290 129.0356460  91.7539960 135.5881160
 127.7555460  91.0581650 135.9992630 129.4746270 100.8063930 137.8679520
 130.0920270 101.4815010 137.5863970 128.6139390 101.2151910 137.7767020
 124.7678610  99.9963790 126.7486370 124.3906590 100.4850890 126.0171270
 125.0251680 100.6689070 127.3792900 140.3923860 102.2703340 135.7834160
 139.7087380 102.9402450 135.7750830 140.9318150 102.4683990 135.0179020
 141.8448000  92.0983000 133.9115890 140.8972910  92.1321980 134.0431320
 142.1697990  92.9121950 134.2965250 132.3767540  88.3980180 132.2071880
 132.6842520  87.8427070 131.4907380 131.4468240  88.5324640 132.0244870
 137.9282600 104.1147470 134.4979340 137.9409760 103.7109760 133.6301600
 137.3757820 104.8894760 134.3940770 139.2228020 100.8363690 129.5869510
 139.1124350  99.8938020 129.7118930 139.2196270 101.1979330 130.4732270
 137.3268040  99.0177310 135.8261950 137.7436830  98.8037420 134.9915410
 138.0507860  99.2750100 136.3970570 134.7648300  96.4629010 128.9432000
 133.8377580  96.3966390 129.1720470 134.9173120  97.4009140 128.8287240
 134.7517380  92.7346010 125.9399160 133.8121050  92.8959970 126.0251620
 135.0700640  93.4531690 125.3935150 141.2730140  97.4164530 135.9178190
 140.4448770  97.4857620 135.4428320 141.8680620  98.0018840 135.4494020
 138.7945590  98.0249310 129.4467250 138.1758010  97.6868860 128.7993550
 138.7770040  97.3809070 130.1546440 138.2372150  94.2033850 136.8633060
 137.8243330  95.0287560 137.1173050 137.5048100  93.6178890 136.6709420
 130.3704940  96.9893750 131.7251730 129.9661940  96.2771000 131.2297630
 130.4568060  96.6446990 132.6139770 130.8386640 100.6761310 133.8890940
 130.5414930 100.0706780 133.2098720 131.7886460 100.7138620 133.7780300
 129.0833560  93.7636960 135.5050770 129.6348150  93.8732300 134.7304020
 129.5977070  94.1374560 136.2206000 138.9272250 104.2493180 137.5514040
 138.4502810 105.0565370 137.3586650 138.2434040 103.5971510 137.7040250
 129.9305070 100.4143000 140.5398740 129.0333600 100.6382970 140.7872140
 129.9557940 100.5377940 139.5910140 136.9710290  97.2636120 126.4540000
 137.4103570  96.4258550 126.3077820 137.6838710  97.8965520 126.5404140
 128.7576290  97.2856320 139.1156110 128.6184060  98.1579120 139.4843510
 127.8757650  96.9429130 138.9704050 135.0805670 102.2032190 130.4221240
 135.5201580 102.9456520 130.0076630 135.0192560 102.4458760 131.3460200
 130.5556640 103.2278020 141.3241260 130.5272070 103.6320970 140.4569690
 130.3921610 102.2988380 141.1612860 140.5527430  88.5178930 124.7681040
 140.2400090  88.6105760 125.6680110 141.3139900  89.0959960 124.7178470
 127.0709570  95.8838730 129.2258380 126.9507170  96.6100820 128.6139650
 126.7610460  95.1141640 128.7486290 142.5071460 104.0105120 142.6205430
 142.9831180 104.4888010 143.2994510 143.1278620 103.9422610 141.8950930
 124.7094940  99.0553870 135.0327020 124.7875360  99.1902640 134.0882740
 125.3236620  98.3469760 135.2255140 125.9542570 100.7554060 131.4433200
 125.5470650 100.8968650 130.5886800 126.8455580 100.4714220 131.2404410
 141.9104710 101.2017970 139.7805440 142.0367770 100.9629850 138.8622620
 141.9526090 100.3702510 140.2527520 135.7721450 104.9045970 138.3500250
 136.2866120 104.8153980 139.1522680 134.9290530 105.2505670 138.6428160
 137.7475850 105.1901310 127.7784250 137.5876990 104.9004250 128.6766080
 137.5822560 104.4141440 127.2429480 130.2264230 104.9699840 129.5555870
 130.0506710 104.0535380 129.3423670 129.3719970 105.3287130 129.7953670
 137.4501980 102.6988870 126.3382250 136.7567140 102.6966160 125.6784530
 138.1924840 102.2748190 125.9076420 137.0151910 104.3251580 130.4130740
 137.4708860 103.5440960 130.7269360 137.3544430 105.0358400 130.9571920
 141.7628720  93.2550430 140.7455180 141.1472990  93.7630100 140.2170640
 141.4425140  92.3548760 140.6881120 124.7654460 100.0968040 137.5721480
 124.9285500  99.6273400 136.7540850 125.2306910  99.5891600 138.2370320
 129.5373230  89.2273800 132.6082050 129.0941380  90.0083340 132.2766570
 130.0958220  89.5503690 133.3152990 133.8243040  92.0942320 138.2117370
 133.3622410  92.3025340 139.0237310 133.4221150  91.2801670 137.9088040
 138.8247550  93.3151270 139.3414030 137.9741140  93.0157020 139.6623100
 138.6649340  93.5593280 138.4297850 135.9197260  94.8153020 141.4412820
 136.2450670  93.9816770 141.1015050 136.7077590  95.3381540 141.5891150
 132.6532050  88.8484500 127.4887880 132.0286230  88.8444370 128.2141190
 132.5662170  87.9815460 127.0923850 131.5749130  89.7721130 134.4671650
 131.8721460  90.6783960 134.3863670 132.1234690  89.2839910 133.8531220
 129.3287450  94.3507370 130.3363300 129.1028370  94.1344540 131.2409920
 128.5479980  94.7835830 129.9909270 136.5585210  94.3570740 128.9353950
 135.9594100  95.0806540 128.7517570 137.1064820  94.2947520 128.1530400
 131.7686660  95.2492950 141.0023570 131.6730260  94.3087680 140.8523970
 132.6118640  95.4708020 140.6071640 135.1650080  92.9934280 130.9657230
 135.5579650  93.3106480 130.1525920 135.5266930  92.1146160 131.0801750
 126.8997200  91.6606620 139.1557350 126.5060590  92.5081830 139.3630130
 126.2115600  91.0232990 139.3465990 133.4742250  91.7441590 142.2254090
 132.7840570  91.5513790 142.8600180 134.2174550  92.0276230 142.7578390
 124.2014250  89.5835080 133.1887430 123.9127300  90.1537940 133.9012410
 124.9460010  89.1039530 133.5518660 124.3884480  93.5255200 124.3990150
 124.3059150  94.4685960 124.5405140 124.0367540  93.3830110 123.5202500
 135.7505220  95.5840030 135.0608010 135.0186340  96.0926840 135.4098110
 135.3529560  94.7670010 134.7596790 132.1882610  92.2594230 133.4660500
 132.1918670  91.8184180 132.6165040 133.0833730  92.5811560 133.5732320
 128.0384990  92.1420720 132.4254710 127.6985040  92.6195950 133.1821760
 127.2762310  91.6885840 132.0655810 132.2502760  93.2606310 126.4567260
 132.3715580  93.2192790 127.4053080 131.8651270  94.1230460 126.3013990
 136.2131130  91.0373710 134.4730950 136.2303870  91.4882360 135.3172800
 135.9646710  90.1379350 134.6864390 131.2624260  95.5707450 125.8550560
 130.6941160  95.1225700 125.2286470 131.9713260  95.9300230 125.3215710
 139.6401880  88.4505890 140.3117330 139.9647650  87.7195550 140.8375310
 139.6758390  88.1319530 139.4098320 126.3393440  99.4719470 139.7317290
 125.9548230  98.8313140 140.3300250 126.6505630 100.1755590 140.3012020
 132.4890580  96.3196010 135.2125910 132.8560710  95.8454580 135.9587250
 132.2995640  97.1937580 135.5534250 125.3531070  91.0639700 131.3419380
 125.0677990  90.6995370 132.1798000 125.2909930  90.3320160 130.7282520
 130.2789950  95.3604650 137.5310120 129.9747020  96.2396630 137.7560480
 131.2336410  95.4204440 137.5667560 128.8071740  99.5665640 128.1276970
 128.0334000  99.0263260 127.9675690 129.5366370  99.0472250 127.7894730
 139.5659720  98.5631000 133.9203360 140.2858840  99.0586290 133.5299470
 139.3641540  97.8848890 133.2757230 135.0269660  89.9568960 128.0632750
 134.2134270  89.4582130 127.9878060 134.8331610  90.7967210 127.6469100
 134.9478520  98.6340060 139.8072360 134.8815830  97.7135730 139.5529950
 134.3183660  98.7315500 140.5217000 137.7418050  94.3288610 126.3594910
 138.6297670  94.6405840 126.1846250 137.7123140  93.4560860 125.9675490
 128.8509140  99.2346020 131.7655780 129.3687810  98.4314280 131.7112670
 128.3993160  99.1725160 132.6072610 133.7378640 100.5012300 127.0383080
 134.0794340 101.2454530 126.5426400 132.9091350 100.8143420 127.4007910
 126.3353680  96.2007390 138.6781480 125.9768620  96.8661240 139.2654820
 126.0408240  95.3690940 139.0494100 129.5366800  96.6591630 141.5621030
 129.2366940  96.8048810 140.6648850 130.3078040  96.0996920 141.4694420
 134.8795250 101.4560630 139.5576160 134.8939790 100.5241590 139.3395070
 134.1720350 101.5420390 140.1965930 140.0132320  95.6400450 125.8274770
 139.9296040  96.0714670 124.9771210 140.7326510  96.0998800 126.2601590
 141.0906460  98.0967970 138.9044740 140.3654650  98.6896750 138.7074130
 141.6181920  98.0891510 138.1058110 141.0419570 102.4942710 128.5556900
 140.3995730 101.8398330 128.8300620 140.6550230 102.8997800 127.7797570
 136.6206050  99.8228140 132.4028590 136.9729870  99.2256270 131.7429960
 135.7368380  99.4972370 132.5736840 132.7069330 100.5825830 129.8099000
 133.3940460 101.1295040 130.1906590 131.9201750 101.1266560 129.8448610
 124.8461730  96.1998650 125.3016080 125.7156580  96.4823450 125.5852000
 124.3552050  97.0134520 125.1864890 132.0096540  97.5871860 129.4224360
 132.4659320  98.3977110 129.6484550 131.6584750  97.2695000 130.2542850
 134.3129150 103.0978200 136.6516660 134.9571370 103.3037580 137.3290080
 134.6758590 102.3366600 136.1987510 127.9108320  87.9309510 129.8946880
 127.7822950  87.9227410 130.8431800 127.0870340  88.2692600 129.5437890
 135.5861230 101.1010550 135.3694110 136.2283460 100.4003710 135.4826280
 136.1110580 101.8808990 135.1891000 139.4316950 101.3859170 125.0933250
 139.2054530 100.6689610 125.6857890 139.0413150 101.1371610 124.2555000
 137.3598850 101.9005450 138.5730170 137.6955090 102.4872140 139.2508090
 136.4399190 101.7698160 138.8027960 125.2132980 105.4126030 125.8677710
 125.5730620 106.0115370 125.2134980 125.0725320 105.9585920 126.6412740
 124.9102250  89.6900630 139.3553580 124.1960770  89.8897550 139.9606190
 125.3297290  88.9140200 139.7268380 139.0133200  99.3031110 126.7547410
 138.7254900  99.7643800 127.5425290 139.8085370  98.8428880 127.0231630
 125.1974840 103.6780890 140.3420110 125.3065960 102.7375630 140.2015500
 124.5455400 103.9435640 139.6933840 133.1887430 101.9496780 141.7418230
 132.8684300 101.2306020 142.2863920 132.5145790 102.6251850 141.8154290
 131.2301600 102.7957230 126.6851380 131.2211700 103.5286920 126.0695890
 130.3099960 102.5488810 126.7778340 126.8308240  98.0172120 127.4298140
 126.2236190  98.7571020 127.4393440 127.3057590  98.1071480 126.6036340
 136.4041030  92.1822940 137.1055030 136.7721850  91.3618150 137.4334600
 135.5439230  92.2424830 137.5210680 139.7703060  91.1379880 127.9142590
 139.1416220  91.2425550 127.2000820 139.2754980  91.3576660 128.7036470
 134.2161200 102.8585470 125.3476570 134.3173180 102.6549460 124.4178550
 133.3162940 102.6043750 125.5524350 131.7387090  93.4165830 129.3300470
 131.0303240  93.8852170 129.7714080 132.0231570  92.7587840 129.9645660
 133.3643020  94.8362530 137.3293000 133.8628270  95.3108350 137.9944850
 133.5065970  93.9126050 137.5363030 135.7702520  90.1416490 130.7696260
 135.6470300  90.1602620 129.8205770 136.7187080  90.1895430 130.8894660
 132.8579310 105.3771790 130.0424240 133.1120810 105.3393180 129.1203610
 131.9091790 105.2505120 130.0352490 129.9422110  91.7250910 126.7051180
 130.7912640  92.1621060 126.6391370 129.5753380  92.0371170 127.5323240
 140.5709880  91.0530490 138.1721390 140.0683480  91.7935890 138.5115200
 141.3866540  91.4414490 137.8558180 138.8631890  96.2963670 131.6182750
 137.9222030  96.3113900 131.7930440 139.1775960  95.5099630 132.0643050
 128.8413530  97.9783270 125.1786710 129.6076800  97.8664630 125.7412140
 128.9188220  97.2821240 124.5263480 127.5360290  95.4108340 125.8619600
 127.6163880  94.4635850 125.9737000 128.4280040  95.7415220 125.9680260
 140.8657470 103.4672520 133.2937010 140.9904890 104.2903690 133.7660820
 141.7323030 103.2563250 132.9461160 128.3375000 105.5603730 132.9654140
 129.0737480 105.0119190 133.2362710 128.7215920 106.4259740 132.8260130
 125.2220480 101.6277300 128.8395650 124.2960260 101.8698440 128.8301060
 125.6876910 102.4551560 128.7180400 127.3433280 104.7449800 142.1539720
 128.1446010 105.0661850 142.5675120 126.8285100 104.3845380 142.8759630
 131.4477310 104.7334040 124.7879710 132.2405920 105.0222870 124.3361500
 130.9281660 104.3026210 124.1092190 136.1797910 100.8529670 142.1015130
 135.5736070 100.8761270 141.3610880 135.8752020 100.1212710 142.6382380
 137.6098280 104.5809960 140.7124540 138.5620030 104.4967980 140.6624780
 137.4626500 105.2451670 141.3858330 140.5007480 103.9604170 126.2116450
 140.2148990 103.5469310 125.3970630 140.3027030 104.8891880 126.0916970
 125.0631090  97.2323260 141.0975770 125.5670110  96.6530540 141.6692000
 124.3238510  97.5163490 141.6352140 131.9654710  99.9537450 124.6522060
 131.8605350  99.3389800 125.3783440 131.7978930  99.4303340 123.8685070
 132.1169030  98.6394250 140.6311290 131.3514700  99.2079250 140.5465960
 132.2984990  98.3470460 139.7379520 135.2057440  99.0157480 125.2564050
 134.6567540  99.4626780 125.9006790 135.8276700  98.5106730 125.7801720
 139.2592380 100.3699580 141.1886310 140.0001850 100.7075340 140.6853770
 138.4965060 100.5391640 140.6356080 127.0954170  95.3752850 141.9925840
 127.1359510  95.0766720 142.9011070 127.9499670  95.7760460 141.8333360
 130.8732560  97.9748400 127.1529350 131.2948980  97.8088270 127.9960740
 130.9983400  97.1648630 126.6584490 129.0359980  93.9544950 139.9600330
 128.5056440  93.4635900 139.3323670 129.7048050  94.3829150 139.4258260
 133.3860200  96.9986010 124.4006450 133.9065860  96.2835030 124.0347600
 134.0328600  97.6371880 124.7006960 137.9338040  98.4214410 139.7241520
 138.3479060  98.5759490 140.5731940 136.9989040  98.5469630 139.8867300
 138.4060210  95.7610570 141.7280670 138.9880980  95.0062890 141.6401150
 138.5821980  96.2918010 140.9512150 129.5232280  90.9207320 140.0397620
 129.4289150  90.3028070 139.3148490 128.9429670  91.6473610 139.8127530
 132.2893720  89.4780560 137.0725010 131.8411020  89.5004820 136.2270560
 131.6558920  89.0799580 137.6695310 132.6953270  98.3734890 137.6937450
 133.1141380  99.2167620 137.5213690 131.7761900  98.5106930 137.4644230
 135.0317170  96.1051070 139.0775290 135.1513380  95.5092210 139.8170130
 135.8911170  96.1420760 138.6576590 137.3705070  96.6588260 137.6537800
 136.8440290  97.1830880 137.0502940 137.7136410  97.2915650 138.2847530
 129.7691460  94.0481630 124.0987510 129.5680520  93.1848990 124.4600850
 129.5983510  93.9614990 123.1609110 130.5460690 104.6787900 138.8095180
 130.0081780 105.4033960 138.4903880 130.7994650 104.2018240 138.0192520
 131.7985940  92.6472420 140.3351110 132.3885630  92.3388270 141.0228930
 130.9806180  92.1752170 140.4911010 136.6179370  92.2638230 140.5684130
 135.9294890  91.6019770 140.5034120 137.3385390  91.8176500 141.0132590
 137.2479770  88.8589860 126.6274390 137.5282060  88.0157760 126.9833810
 136.4745500  89.0912970 127.1413140 128.5674260  91.1482250 124.0865390
 128.8700160  91.1549680 123.1784540 129.3068850  90.7980110 124.5833050
 133.4022900 105.9139110 139.0681830 133.3281600 106.8174250 139.3754200
 132.5001740 105.5951010 139.0403900 131.7859190  90.0916870 125.0721590
 131.4381190  89.4140860 124.4924040 131.9871960  89.6306380 125.8864980
 133.9508230 105.0797620 126.6908190 134.8459020 105.4182590 126.7126950
 133.9825860 104.3577030 126.0632470 127.5904390 100.4524670 124.9195190
 128.0279260 100.9954340 125.5752770 128.0752120  99.6271620 124.9291530
 124.8050190 103.2413700 132.3715450 125.1353200 102.3734760 132.1394090
 125.2341190 103.4472220 133.2020410 129.4012110 101.5722710 130.0317420
 129.1007650 101.4487680 130.9321330 129.2949600 100.7131300 129.6233150
 125.2940400 104.1084290 135.1097080 124.8571390 104.2885090 135.9421230
 125.8618080 104.8658910 134.9678800 140.9302580 103.6101290 139.3974390
 140.3304570 103.6693850 138.6538310 141.0596480 102.6706270 139.5271240
 142.1704030 101.3519110 124.7344100 141.3396990 101.4195760 125.2051330
 142.3475860 102.2423230 124.4310960 141.6260490  98.0966590 127.2378300
 142.3879400  98.6663240 127.3437990 141.6414860  97.5293790 128.0086610
 125.1264830  96.6204520 131.4685960 124.4713670  96.3516160 130.8245660
 125.9642780  96.5109000 131.0187940 142.6320460  98.9516690 132.0820230
 143.0029290  98.1684010 131.6756200 143.2722390  99.6405790 131.9037530
 139.6154220 100.3353270 137.4950550 138.8014060 100.7650430 137.7576340
 140.0228420 100.9471680 136.8819600 141.6779660  98.3900960 124.3950820
 141.9528500  99.2979840 124.2670040 141.4890400  98.3263490 125.3312810
 138.0755270  91.4145810 125.6904450 138.4940150  91.2276790 124.8501110
 137.7691330  90.5624860 126.0007380 141.5745000  96.3269950 129.3880250
 141.1988600  95.5597880 128.9561540 140.8448120  96.7092650 129.8755180
 126.1640760  97.0057090 136.0089300 126.5313800  96.9184490 136.8885320
 125.5951580  96.2423640 135.9096160 140.9644620  95.4741470 139.0219770
 140.7330710  95.2454220 138.1217720 141.2249170  96.3941020 138.9764660
 125.7156760  93.9166180 139.9147720 124.8212810  93.8832940 140.2541430
 126.2554310  94.1152970 140.6798970 139.4032690  90.6997900 141.7999470
 140.2802870  90.7081300 142.1833470 139.4153530  89.9628740 141.1891820
 124.3402910  93.8303450 127.4111290 123.4366990  94.0933650 127.2362950
 124.8243530  94.1014620 126.6311250 140.8495960  94.5527440 132.6887490
 141.3733440  94.0590090 132.0577660 141.4355380  94.6877800 133.4335060
 141.0285680  94.6367310 136.2107040 140.0788390  94.6030850 136.3252030
 141.2098690  95.5467420 135.9756810 126.8830120  92.8868990 125.3205670
 127.5921820  92.4652210 124.8352950 126.1670060  92.9544220 124.6889020
 126.5304280  88.9408320 124.3608320 127.2532410  89.4817260 124.6789540
 126.8028800  88.6671740 123.4849860 140.3395930  93.8100790 128.6279900
 140.8355050  93.5771660 129.4128780 140.1412000  92.9712630 128.2117540
 126.2196470  88.1914510 134.2630940 126.8672660  87.6411890 133.8226100
 126.6398310  88.4457660 135.0846750 141.7683090  92.4461740 131.1617580
 141.6582370  92.2917780 132.0999850 142.5290680  91.9182680 130.9192990
 140.1148810  88.3855870 137.6200580 140.7521030  88.9990010 137.9859770
 140.2623700  88.4216530 136.6749810 142.6573360  90.2769660 124.4023720
 143.5822670  90.1450840 124.1942010 142.6349150  90.3562480 125.3560170
 142.7311850  91.0480320 127.0280430 141.9363350  90.9825440 127.5573340
 142.9355130  91.9830960 127.0165780 139.6730270 105.0871870 131.0218820
 140.2689340 104.7656440 130.3453240 139.9308420 104.6143690 131.8132090
 125.9728470  88.3470180 137.0056260 125.6243290  88.8034000 137.7714440
 125.6416170  87.4527310 137.0878690 127.5792840 101.5189780 141.1709450
 127.5362470 101.1482690 142.0523910 127.7103850 102.4567350 141.3111270
 131.2798870 103.0749370 136.7719170 131.0390230 103.3423930 135.8849690
 132.2201510 103.2455100 136.8270030 133.4853290  89.5382060 140.5275680
 133.4242180  90.1303890 141.2771090 134.4253670  89.4308020 140.3825940
 136.1227850  89.1952120 140.1667970 136.7368260  89.5131410 139.5049050
 136.6677410  88.7100710 140.7863830 142.5403030 105.0943750 137.5729810
 142.0461310 105.4912620 136.8556940 141.9316320 104.4692960 137.9667090
 126.6449110  87.8746380 140.2807030 127.1932100  87.6934430 139.5173140
 126.7104420  87.0840490 140.8163340 127.4180870 104.4652030 138.2907230
 126.8241190 104.3336730 139.0297270 127.4104710 103.6290170 137.8249330
 136.8635890  87.7584260 136.4937260 135.9895730  88.0919370 136.2910190
 136.7546640  87.2857440 137.3189130 137.7707870  89.9655130 137.8778980
 137.4421230  89.1506890 137.4980710 138.7190170  89.9224940 137.7544670
 140.2242480 105.7367170 134.8516550 139.7645450 106.4882980 134.4774570
 139.5954940 105.0173640 134.7931350 127.0493100 101.8310410 137.2415270
 126.3227160 101.2115700 137.1741220 127.1102250 102.2251020 136.3713350
 130.6538200 104.0455410 134.0264680 131.1703220 103.4342770 133.5012940
 131.3035580 104.5484190 134.5175690 133.3933700 104.9363900 134.8533660
 133.6811510 104.6818200 133.9766670 133.9056920 104.3841260 135.4439230
 134.6110710  88.6754100 135.4330170 133.8282500  89.1499600 135.7126930
 134.3173640  87.7708930 135.3243350 139.1631780  89.3777200 133.4779260
 139.6039870  89.3222300 132.6300860 138.8939370  90.2935210 133.5489440
 141.0270350  89.0092440 131.4888080 140.9658750  88.0653660 131.3419100
 141.8062380  89.1172530 132.0341540 125.3323100 105.1484800 130.4512030
 125.1645140 104.5155480 131.1493920 124.4657610 105.3544200 130.1006220
 125.9551120  88.9801580 127.9543890 126.7130480  89.0930460 127.3807920
 125.4928290  89.8170780 127.9087320 132.4964930  91.0940850 130.9446200
 131.6839440  90.7197740 130.6042080 133.0006570  90.3385930 131.2467390
 136.9989910  87.7583300 132.1829270 137.6019280  88.3303510 132.6577790
 136.2582900  88.3222740 131.9603170 140.1424510  88.1604860 127.4569550
 140.3375140  89.0588310 127.7236980 139.3554380  87.9291940 127.9502500
 126.9385800 103.8418030 127.8962170 126.4133420 104.2226060 127.1924130
 126.8630380 104.4668800 128.6171880 128.3276270  89.5065630 126.4945860
 128.8569030  88.7195430 126.3653810 128.9604590  90.1856820 126.7281390
 130.5214110  89.2440770 129.5491250 129.8916850  88.5428080 129.7161380
 129.9819250  90.0044900 129.3324410 133.4606060 105.8580000 142.2201860
 134.3873370 105.6224270 142.2637820 133.4456490 106.6852000 141.7387890
 141.6951120 105.4005570 129.2176110 141.8703310 104.7143310 128.5737030
 140.9972690 105.9252620 128.8252780 130.6469670  88.5224750 141.9843740
 130.3653940  89.0258350 141.2204560 131.0289370  87.7246500 141.6185870
 129.5378770 105.7900410 126.7711420 130.2697590 105.5059690 126.2235310
 129.7972440 105.5513690 127.6610800 128.6993560 101.9065140 126.7757750
 128.0702440 102.3750240 127.3243580 128.8141390 101.0614360 127.2103940
 137.2485130  87.9378330 142.5624210 137.1350580  88.2572940 143.4575730
 138.0654870  88.3390840 142.2661490 140.0283620 105.0849860 142.0442900
 140.8208940 104.5899090 141.8368860 140.3216770 105.7640000 142.6518510
 136.1543280  95.9570800 112.9258950 136.0737330  95.0425410 112.6550660
 135.7407700  96.4537870 112.2198660 134.2861320  97.7349820 114.8068220
 133.5103420  97.2550260 115.0966790 134.9374250  97.0555470 114.6324380
 128.3027150  98.0469630 115.6843980 127.4712030  97.7918340 116.0840490
 128.9108130  98.1180400 116.4201900 138.3068750 102.1410010 113.5867350
 137.8450280 101.3697250 113.9154520 139.1194300 102.1676080 114.0919800
 126.7119100  93.0071520 109.4686370 125.8235800  93.3487490 109.3666250
 126.9960290  92.8071840 108.5767200 124.6752110  95.6077170 115.3526070
 125.2468220  94.8399370 115.3529710 124.6753650  95.9065930 114.4432680
 134.5332060 104.4268020 113.2071340 133.9143500 104.8825520 112.6365780
 135.3883840 104.5819480 112.8061040 133.7270310 100.4107010 114.8138380
 133.6578590  99.4696950 114.6527510 134.4890170 100.5008420 115.3860950
 125.9176980  91.0161530 117.1395000 125.7379820  90.1187280 117.4197760
 125.5157060  91.5633400 117.8141950 134.7575480  93.2177390 115.0407310
 135.1340300  92.3449270 114.9280980 134.6594990  93.5536090 114.1497750
 128.8880490  91.5903020 110.5024750 128.9947240  92.4906750 110.8093510
 127.9772850  91.5420990 110.2119400 138.5399600  90.7127830 111.9735650
 139.3609220  90.2224400 112.0161130 138.5733680  91.3025490 112.7267490
 126.5363650  93.5122030 115.7477340 127.2173760  93.7760400 116.3664740
 126.2211700  92.6722900 116.0815350 130.7288220  94.5589390 114.8349930
 131.2366440  95.0570360 115.4754950 131.2601460  93.7824590 114.6589290
 142.8299150  92.7294580 118.5379280 142.1251320  93.1176290 118.0194390
 143.0957070  93.4244870 119.1400210 129.0124320  89.1987950 119.1013350
 129.0142760  89.7160340 118.2959250 128.1828630  88.7218130 119.0783280
 135.3995410  99.3107260 110.6003250 134.7812680  99.7756710 110.0365970
 135.9118660 100.0034740 111.0172760 130.2627170  98.8383130 117.2786850
 129.9296550  99.4652050 117.9207920 130.4393850  99.3645010 116.4988520
 138.7761080  92.6528210 114.7463190 138.0716650  92.9413100 115.3266300
 139.1373240  93.4628320 114.3862750 128.6939650  90.9097910 117.1083800
 129.0356460  91.7539960 116.8137670 127.7555460  91.0581650 117.2249140
 129.4746270 100.8063930 119.0936030 130.0920270 101.4815010 118.8120480
 128.6139390 101.2151910 119.0023530 140.3923860 102.2703340 117.0090670
 139.7087380 102.9402450 117.0007340 140.9318150 102.4683990 116.2435530
 141.8448000  92.0983000 115.1372400 140.8972910  92.1321980 115.2687830
 142.1697990  92.9121950 115.5221760 132.3767540  88.3980180 113.4328390
 132.6842520  87.8427070 112.7163890 131.4468240  88.5324640 113.2501380
 137.9282600 104.1147470 115.7235850 137.9409760 103.7109760 114.8558110
 137.3757820 104.8894760 115.6197280 139.2228020 100.8363690 110.8126020
 139.1124350  99.8938020 110.9375440 139.2196270 101.1979330 111.6988780
 137.3268040  99.0177310 117.0518460 137.7436830  98.8037420 116.2171920
 138.0507860  99.2750100 117.6227080 134.7648300  96.4629010 110.1688510
 133.8377580  96.3966390 110.3976980 134.9173120  97.4009140 110.0543750
 141.2730140  97.4164530 117.1434700 140.4448770  97.4857620 116.6684830
 141.8680620  98.0018840 116.6750530 138.7945590  98.0249310 110.6723760
 138.1758010  97.6868860 110.0250060 138.7770040  97.3809070 111.3802950
 138.2372150  94.2033850 118.0889570 137.8243330  95.0287560 118.3429560
 137.5048100  93.6178890 117.8965930 130.3704940  96.9893750 112.9508240
 129.9661940  96.2771000 112.4554140 130.4568060  96.6446990 113.8396280
 130.8386640 100.6761310 115.1147450 130.5414930 100.0706780 114.4355230
 131.7886460 100.7138620 115.0036810 129.0833560  93.7636960 116.7307280
 129.6348150  93.8732300 115.9560530 129.5977070  94.1374560 117.4462510
 138.9272250 104.2493180 118.7770550 138.4502810 105.0565370 118.5843160
 138.2434040 103.5971510 118.9296760 129.9305070 100.4143000 121.7655250
 129.0333600 100.6382970 122.0128650 129.9557940 100.5377940 120.8166650
 136.9710290  97.2636120 107.6796510 137.4103570  96.4258550 107.5334330
 137.6838710  97.8965520 107.7660650 128.7576290  97.2856320 120.3412620
 128.6184060  98.1579120 120.7100020 127.8757650  96.9429130 120.1960560
 135.0805670 102.2032190 111.6477750 135.5201580 102.9456520 111.2333140
 135.0192560 102.4458760 112.5716710 130.5556640 103.2278020 122.5497770
 130.5272070 103.6320970 121.6826200 130.3921610 102.2988380 122.3869370
 140.5527430  88.5178930 105.9937550 140.2400090  88.6105760 106.8936620
 141.3139900  89.0959960 105.9434980 127.0709570  95.8838730 110.4514890
 126.9507170  96.6100820 109.8396160 126.7610460  95.1141640 109.9742800
 142.5071460 104.0105120 123.8461940 142.9831180 104.4888010 124.5251020
 143.1278620 103.9422610 123.1207440 141.9104710 101.2017970 121.0061950
 142.0367770 100.9629850 120.0879130 141.9526090 100.3702510 121.4784030
 135.7721450 104.9045970 119.5756760 136.2866120 104.8153980 120.3779190
 134.9290530 105.2505670 119.8684670 137.7475850 105.1901310 109.0040760
 137.5876990 104.9004250 109.9022590 137.5822560 104.4141440 108.4685990
 130.2264230 104.9699840 110.7812380 130.0506710 104.0535380 110.5680180
 129.3719970 105.3287130 111.0210180 137.4501980 102.6988870 107.5638760
 136.7567140 102.6966160 106.9041040 138.1924840 102.2748190 107.1332930
 137.0151910 104.3251580 111.6387250 137.4708860 103.5440960 111.9525870
 137.3544430 105.0358400 112.1828430 141.7628720  93.2550430 121.9711690
 141.1472990  93.7630100 121.4427150 141.4425140  92.3548760 121.9137630
 124.7654460 100.0968040 118.7977990 124.9285500  99.6273400 117.9797360
 125.2306910  99.5891600 119.4626830 129.5373230  89.2273800 113.8338560
 129.0941380  90.0083340 113.5023080 130.0958220  89.5503690 114.5409500
 133.8243040  92.0942320 119.4373880 133.3622410  92.3025340 120.2493820
 133.4221150  91.2801670 119.1344550 138.8247550  93.3151270 120.5670540
 137.9741140  93.0157020 120.8879610 138.6649340  93.5593280 119.6554360
 135.9197260  94.8153020 122.6669330 136.2450670  93.9816770 122.3271560
 136.7077590  95.3381540 122.8147660 131.5749130  89.7721130 115.6928160
 131.8721460  90.6783960 115.6120180 132.1234690  89.2839910 115.0787730
 129.3287450  94.3507370 111.5619810 129.1028370  94.1344540 112.4666430
 128.5479980  94.7835830 111.2165780 136.5585210  94.3570740 110.1610460
 135.9594100  95.0806540 109.9774080 137.1064820  94.2947520 109.3786910
 131.7686660  95.2492950 122.2280080 131.6730260  94.3087680 122.0780480
 132.6118640  95.4708020 121.8328150 135.1650080  92.9934280 112.1913740
 135.5579650  93.3106480 111.3782430 135.5266930  92.1146160 112.3058260
 126.8997200  91.6606620 120.3813860 126.5060590  92.5081830 120.5886640
 126.2115600  91.0232990 120.5722500 133.4742250  91.7441590 123.4510600
 132.7840570  91.5513790 124.0856690 134.2174550  92.0276230 123.9834900
 124.2014250  89.5835080 114.4143940 123.9127300  90.1537940 115.1268920
 124.9460010  89.1039530 114.7775170 124.3884480  93.5255200 105.6246660
 124.3059150  94.4685960 105.7661650 124.0367540  93.3830110 104.7459010
 135.7505220  95.5840030 116.2864520 135.0186340  96.0926840 116.6354620
 135.3529560  94.7670010 115.9853300 132.1882610  92.2594230 114.6917010
 132.1918670  91.8184180 113.8421550 133.0833730  92.5811560 114.7988830
 128.0384990  92.1420720 113.6511220 127.6985040  92.6195950 114.4078270
 127.2762310  91.6885840 113.2912320 132.2502760  93.2606310 107.6823770
 132.3715580  93.2192790 108.6309590 131.8651270  94.1230460 107.5270500
 136.2131130  91.0373710 115.6987460 136.2303870  91.4882360 116.5429310
 135.9646710  90.1379350 115.9120900 131.2624260  95.5707450 107.0807070
 130.6941160  95.1225700 106.4542980 131.9713260  95.9300230 106.5472220
 139.6401880  88.4505890 121.5373840 139.9647650  87.7195550 122.0631820
 139.6758390  88.1319530 120.6354830 126.3393440  99.4719470 120.9573800
 125.9548230  98.8313140 121.5556760 126.6505630 100.1755590 121.5268530
 132.4890580  96.3196010 116.4382420 132.8560710  95.8454580 117.1843760
 132.2995640  97.1937580 116.7790760 125.3531070  91.0639700 112.5675890
 125.0677990  90.6995370 113.4054510 125.2909930  90.3320160 111.9539030
 130.2789950  95.3604650 118.7566630 129.9747020  96.2396630 118.9816990
 131.2336410  95.4204440 118.7924070 128.8071740  99.5665640 109.3533480
 128.0334000  99.0263260 109.1932200 129.5366370  99.0472250 109.0151240
 139.5659720  98.5631000 115.1459870 140.2858840  99.0586290 114.7555980
 139.3641540  97.8848890 114.5013740 135.0269660  89.9568960 109.2889260
 134.2134270  89.4582130 109.2134570 134.8331610  90.7967210 108.8725610
 134.9478520  98.6340060 121.0328870 134.8815830  97.7135730 120.7786460
 134.3183660  98.7315500 121.7473510 137.7418050  94.3288610 107.5851420
 138.6297670  94.6405840 107.4102760 137.7123140  93.4560860 107.1932000
 128.8509140  99.2346020 112.9912290 129.3687810  98.4314280 112.9369180
 128.3993160  99.1725160 113.8329120 133.7378640 100.5012300 108.2639590
 134.0794340 101.2454530 107.7682910 132.9091350 100.8143420 108.6264420
 126.3353680  96.2007390 119.9037990 125.9768620  96.8661240 120.4911330
 126.0408240  95.3690940 120.2750610 129.5366800  96.6591630 122.7877540
 129.2366940  96.8048810 121.8905360 130.3078040  96.0996920 122.6950930
 134.8795250 101.4560630 120.7832670 134.8939790 100.5241590 120.5651580
 134.1720350 101.5420390 121.4222440 140.0132320  95.6400450 107.0531280
 139.9296040  96.0714670 106.2027720 140.7326510  96.0998800 107.4858100
 141.0906460  98.0967970 120.1301250 140.3654650  98.6896750 119.9330640
 141.6181920  98.0891510 119.3314620 141.0419570 102.4942710 109.7813410
 140.3995730 101.8398330 110.0557130 140.6550230 102.8997800 109.0054080
 136.6206050  99.8228140 113.6285100 136.9729870  99.2256270 112.9686470
 135.7368380  99.4972370 113.7993350 132.7069330 100.5825830 111.0355510
 133.3940460 101.1295040 111.4163100 131.9201750 101.1266560 111.0705120
 124.8461730  96.1998650 106.5272590 125.7156580  96.4823450 106.8108510
 124.3552050  97.0134520 106.4121400 132.0096540  97.5871860 110.6480870
 132.4659320  98.3977110 110.8741060 131.6584750  97.2695000 111.4799360
 134.3129150 103.0978200 117.8773170 134.9571370 103.3037580 118.5546590
 134.6758590 102.3366600 117.4244020 127.9108320  87.9309510 111.1203390
 127.7822950  87.9227410 112.0688310 127.0870340  88.2692600 110.7694400
 135.5861230 101.1010550 116.5950620 136.2283460 100.4003710 116.7082790
 136.1110580 101.8808990 116.4147510 139.4316950 101.3859170 106.3189760
 139.2054530 100.6689610 106.9114400 139.0413150 101.1371610 105.4811510
 137.3598850 101.9005450 119.7986680 137.6955090 102.4872140 120.4764600
 136.4399190 101.7698160 120.0284470 125.2132980 105.4126030 107.0934220
 125.5730620 106.0115370 106.4391490 125.0725320 105.9585920 107.8669250
 124.9102250  89.6900630 120.5810090 124.1960770  89.8897550 121.1862700
 125.3297290  88.9140200 120.9524890 139.0133200  99.3031110 107.9803920
 138.7254900  99.7643800 108.7681800 139.8085370  98.8428880 108.2488140
 125.1974840 103.6780890 121.5676620 125.3065960 102.7375630 121.4272010
 124.5455400 103.9435640 120.9190350 133.1887430 101.9496780 122.9674740
 132.8684300 101.2306020 123.5120430 132.5145790 102.6251850 123.0410800
 131.2301600 102.7957230 107.9107890 131.2211700 103.5286920 107.2952400
 130.3099960 102.5488810 108.0034850 126.8308240  98.0172120 108.6554650
 126.2236190  98.7571020 108.6649950 127.3057590  98.1071480 107.8292850
 136.4041030  92.1822940 118.3311540 136.7721850  91.3618150 118.6591110
 135.5439230  92.2424830 118.7467190 139.7703060  91.1379880 109.1399100
 139.1416220  91.2425550 108.4257330 139.2754980  91.3576660 109.9292980
 134.2161200 102.8585470 106.5733080 134.3173180 102.6549460 105.6435060
 133.3162940 102.6043750 106.7780860 131.7387090  93.4165830 110.5556980
 131.0303240  93.8852170 110.9970590 132.0231570  92.7587840 111.1902170
 133.3643020  94.8362530 118.5549510 133.8628270  95.3108350 119.2201360
 133.5065970  93.9126050 118.7619540 135.7702520  90.1416490 111.9952770
 135.6470300  90.1602620 111.0462280 136.7187080  90.1895430 112.1151170
 132.8579310 105.3771790 111.2680750 133.1120810 105.3393180 110.3460120
 131.9091790 105.2505120 111.2609000 140.5709880  91.0530490 119.3977900
 140.0683480  91.7935890 119.7371710 141.3866540  91.4414490 119.0814690
 138.8631890  96.2963670 112.8439260 137.9222030  96.3113900 113.0186950
 139.1775960  95.5099630 113.2899560 128.8413530  97.9783270 106.4043220
 129.6076800  97.8664630 106.9668650 128.9188220  97.2821240 105.7519990
 127.5360290  95.4108340 107.0876110 127.6163880  94.4635850 107.1993510
 128.4280040  95.7415220 107.1936770 140.8657470 103.4672520 114.5193520
 140.9904890 104.2903690 114.9917330 141.7323030 103.2563250 114.1717670
 128.3375000 105.5603730 114.1910650 129.0737480 105.0119190 114.4619220
 128.7215920 106.4259740 114.0516640 127.3433280 104.7449800 123.3796230
 128.1446010 105.0661850 123.7931630 126.8285100 104.3845380 124.1016140
 131.4477310 104.7334040 106.0136220 132.2405920 105.0222870 105.5618010
 130.9281660 104.3026210 105.3348700 136.1797910 100.8529670 123.3271640
 135.5736070 100.8761270 122.5867390 135.8752020 100.1212710 123.8638890
 137.6098280 104.5809960 121.9381050 138.5620030 104.4967980 121.8881290
 137.4626500 105.2451670 122.6114840 140.5007480 103.9604170 107.4372960
 140.2148990 103.5469310 106.6227140 140.3027030 104.8891880 107.3173480
 125.0631090  97.2323260 122.3232280 125.5670110  96.6530540 122.8948510
 124.3238510  97.5163490 122.8608650 131.9654710  99.9537450 105.8778570
 131.8605350  99.3389800 106.6039950 131.7978930  99.4303340 105.0941580
 132.1169030  98.6394250 121.8567800 131.3514700  99.2079250 121.7722470
 132.2984990  98.3470460 120.9636030 135.2057440  99.0157480 106.4820560
 134.6567540  99.4626780 107.1263300 135.8276700  98.5106730 107.0058230
 139.2592380 100.3699580 122.4142820 140.0001850 100.7075340 121.9110280
 138.4965060 100.5391640 121.8612590 127.0954170  95.3752850 123.2182350
 127.1359510  95.0766720 124.1267580 127.9499670  95.7760460 123.0589870
 130.8732560  97.9748400 108.3785860 131.2948980  97.8088270 109.2217250
 130.9983400  97.1648630 107.8841000 129.0359980  93.9544950 121.1856840
 128.5056440  93.4635900 120.5580180 129.7048050  94.3829150 120.6514770
 133.3860200  96.9986010 105.6262960 133.9065860  96.2835030 105.2604110
 134.0328600  97.6371880 105.9263470 137.9338040  98.4214410 120.9498030
 138.3479060  98.5759490 121.7988450 136.9989040  98.5469630 121.1123810
 138.4060210  95.7610570 122.9537180 138.9880980  95.0062890 122.8657660
 138.5821980  96.2918010 122.1768660 129.5232280  90.9207320 121.2654130
 129.4289150  90.3028070 120.5405000 128.9429670  91.6473610 121.0384040
 132.2893720  89.4780560 118.2981520 131.8411020  89.5004820 117.4527070
 131.6558920  89.0799580 118.8951820 132.6953270  98.3734890 118.9193960
 133.1141380  99.2167620 118.7470200 131.7761900  98.5106930 118.6900740
 135.0317170  96.1051070 120.3031800 135.1513380  95.5092210 121.0426640
 135.8911170  96.1420760 119.8833100 137.3705070  96.6588260 118.8794310
 136.8440290  97.1830880 118.2759450 137.7136410  97.2915650 119.5104040
 130.5460690 104.6787900 120.0351690 130.0081780 105.4033960 119.7160390
 130.7994650 104.2018240 119.2449030 131.7985940  92.6472420 121.5607620
 132.3885630  92.3388270 122.2485440 130.9806180  92.1752170 121.7167520
 136.6179370  92.2638230 121.7940640 135.9294890  91.6019770 121.7290630
 137.3385390  91.8176500 122.2389100 137.2479770  88.8589860 107.8530900
 137.5282060  88.0157760 108.2090320 136.4745500  89.0912970 108.3669650
 133.4022900 105.9139110 120.2938340 133.3281600 106.8174250 120.6010710
 132.5001740 105.5951010 120.2660410 133.9508230 105.0797620 107.9164700
 134.8459020 105.4182590 107.9383460 133.9825860 104.3577030 107.2888980
 127.5904390 100.4524670 106.1451700 128.0279260 100.9954340 106.8009280
 128.0752120  99.6271620 106.1548040 129.4012110 101.5722710 111.2573930
 129.1007650 101.4487680 112.1577840 129.2949600 100.7131300 110.8489660
 140.9302580 103.6101290 120.6230900 140.3304570 103.6693850 119.8794820
 141.0596480 102.6706270 120.7527750 142.1704030 101.3519110 105.9600610
 141.3396990 101.4195760 106.4307840 142.3475860 102.2423230 105.6567470
 141.6260490  98.0966590 108.4634810 142.3879400  98.6663240 108.5694500
 141.6414860  97.5293790 109.2343120 125.1264830  96.6204520 112.6942470
 124.4713670  96.3516160 112.0502170 125.9642780  96.5109000 112.2444450
 142.6320460  98.9516690 113.3076740 143.0029290  98.1684010 112.9012710
 143.2722390  99.6405790 113.1294040 139.6154220 100.3353270 118.7207060
 138.8014060 100.7650430 118.9832850 140.0228420 100.9471680 118.1076110
 141.6779660  98.3900960 105.6207330 141.9528500  99.2979840 105.4926550
 141.4890400  98.3263490 106.5569320 138.0755270  91.4145810 106.9160960
 138.4940150  91.2276790 106.0757620 137.7691330  90.5624860 107.2263890
 141.5745000  96.3269950 110.6136760 141.1988600  95.5597880 110.1818050
 140.8448120  96.7092650 111.1011690 126.1640760  97.0057090 117.2345810
 126.5313800  96.9184490 118.1141830 125.5951580  96.2423640 117.1352670
 140.9644620  95.4741470 120.2476280 140.7330710  95.2454220 119.3474230
 141.2249170  96.3941020 120.2021170 125.7156760  93.9166180 121.1404230
 124.8212810  93.8832940 121.4797940 126.2554310  94.1152970 121.9055480
 139.4032690  90.6997900 123.0255980 140.2802870  90.7081300 123.4089980
 139.4153530  89.9628740 122.4148330 124.3402910  93.8303450 108.6367800
 123.4366990  94.0933650 108.4619460 124.8243530  94.1014620 107.8567760
 140.8495960  94.5527440 113.9144000 141.3733440  94.0590090 113.2834170
 141.4355380  94.6877800 114.6591570 141.0285680  94.6367310 117.4363550
 140.0788390  94.6030850 117.5508540 141.2098690  95.5467420 117.2013320
 140.3395930  93.8100790 109.8536410 140.8355050  93.5771660 110.6385290
 140.1412000  92.9712630 109.4374050 126.2196470  88.1914510 115.4887450
 126.8672660  87.6411890 115.0482610 126.6398310  88.4457660 116.3103260
 141.7683090  92.4461740 112.3874090 141.6582370  92.2917780 113.3256360
 142.5290680  91.9182680 112.1449500 140.1148810  88.3855870 118.8457090
 140.7521030  88.9990010 119.2116280 140.2623700  88.4216530 117.9006320
 142.6573360  90.2769660 105.6280230 143.5822670  90.1450840 105.4198520
 142.6349150  90.3562480 106.5816680 142.7311850  91.0480320 108.2536940
 141.9363350  90.9825440 108.7829850 142.9355130  91.9830960 108.2422290
 139.6730270 105.0871870 112.2475330 140.2689340 104.7656440 111.5709750
 139.9308420 104.6143690 113.0388600 125.9728470  88.3470180 118.2312770
 125.6243290  88.8034000 118.9970950 125.6416170  87.4527310 118.3135200
 127.5792840 101.5189780 122.3965960 127.5362470 101.1482690 123.2780420
 127.7103850 102.4567350 122.5367780 131.2798870 103.0749370 117.9975680
 131.0390230 103.3423930 117.1106200 132.2201510 103.2455100 118.0526540
 133.4853290  89.5382060 121.7532190 133.4242180  90.1303890 122.5027600
 134.4253670  89.4308020 121.6082450 136.1227850  89.1952120 121.3924480
 136.7368260  89.5131410 120.7305560 136.6677410  88.7100710 122.0120340
 142.5403030 105.0943750 118.7986320 142.0461310 105.4912620 118.0813450
 141.9316320 104.4692960 119.1923600 126.6449110  87.8746380 121.5063540
 127.1932100  87.6934430 120.7429650 126.7104420  87.0840490 122.0419850
 127.4180870 104.4652030 119.5163740 126.8241190 104.3336730 120.2553780
 127.4104710 103.6290170 119.0505840 136.8635890  87.7584260 117.7193770
 135.9895730  88.0919370 117.5166700 136.7546640  87.2857440 118.5445640
 137.7707870  89.9655130 119.1035490 137.4421230  89.1506890 118.7237220
 138.7190170  89.9224940 118.9801180 140.2242480 105.7367170 116.0773060
 139.7645450 106.4882980 115.7031080 139.5954940 105.0173640 116.0187860
 127.0493100 101.8310410 118.4671780 126.3227160 101.2115700 118.3997730
 127.1102250 102.2251020 117.5969860 130.6538200 104.0455410 115.2521190
 131.1703220 103.4342770 114.7269450 131.3035580 104.5484190 115.7432200
 133.3933700 104.9363900 116.0790170 133.6811510 104.6818200 115.2023180
 133.9056920 104.3841260 116.6695740 134.6110710  88.6754100 116.6586680
 133.8282500  89.1499600 116.9383440 134.3173640  87.7708930 116.5499860
 139.1631780  89.3777200 114.7035770 139.6039870  89.3222300 113.8557370
 138.8939370  90.2935210 114.7745950 141.0270350  89.0092440 112.7144590
 140.9658750  88.0653660 112.5675610 141.8062380  89.1172530 113.2598050
 132.4964930  91.0940850 112.1702710 131.6839440  90.7197740 111.8298590
 133.0006570  90.3385930 112.4723900 136.9989910  87.7583300 113.4085780
 137.6019280  88.3303510 113.8834300 136.2582900  88.3222740 113.1859680
 140.1424510  88.1604860 108.6826060 140.3375140  89.0588310 108.9493490
 139.3554380  87.9291940 109.1759010 126.9385800 103.8418030 109.1218680
 126.4133420 104.2226060 108.4180640 126.8630380 104.4668800 109.8428390
 130.5214110  89.2440770 110.7747760 129.8916850  88.5428080 110.9417890
 129.9819250  90.0044900 110.5580920 133.4606060 105.8580000 123.4458370
 134.3873370 105.6224270 123.4894330 133.4456490 106.6852000 122.9644400
 141.6951120 105.4005570 110.4432620 141.8703310 104.7143310 109.7993540
 140.9972690 105.9252620 110.0509290 130.6469670  88.5224750 123.2100250
 130.3653940  89.0258350 122.4461070 131.0289370  87.7246500 122.8442380
 129.5378770 105.7900410 107.9967930 130.2697590 105.5059690 107.4491820
 129.7972440 105.5513690 108.8867310 128.6993560 101.9065140 108.0014260
 128.0702440 102.3750240 108.5500090 128.8141390 101.0614360 108.4360450
 137.2485130  87.9378330 123.7880720 137.1350580  88.2572940 124.6832240
 138.0654870  88.3390840 123.4918000 140.0283620 105.0849860 123.2699410
 140.8208940 104.5899090 123.0625370 140.3216770 105.7640000 123.8775020
 136.1543280  95.9570800  94.1515460 136.0737330  95.0425410  93.8807170
 135.7407700  96.4537870  93.4455170 134.2861320  97.7349820  96.0324730
 133.5103420  97.2550260  96.3223300 134.9374250  97.0555470  95.8580890
 128.3027150  98.0469630  96.9100490 127.4712030  97.7918340  97.3097000
 128.9108130  98.1180400  97.6458410 138.3068750 102.1410010  94.8123860
 137.8450280 101.3697250  95.1411030 139.1194300 102.1676080  95.3176310
 128.2828410 102.0809720  97.1058510 128.5856450 101.1907460  96.9268730
 129.0272000 102.6379940  96.8780760 134.5332060 104.4268020  94.4327850
 133.9143500 104.8825520  93.8622290 135.3883840 104.5819480  94.0317550
 133.7270310 100.4107010  96.0394890 133.6578590  99.4696950  95.8784020
 134.4890170 100.5008420  96.6117460 134.7575480  93.2177390  96.2663820
 135.1340300  92.3449270  96.1537490 134.6594990  93.5536090  95.3754260
 138.5399600  90.7127830  93.1992160 139.3609220  90.2224400  93.2417640
 138.5733680  91.3025490  93.9524000 130.7288220  94.5589390  96.0606440
 131.2366440  95.0570360  96.7011460 131.2601460  93.7824590  95.8845800
 142.8299150  92.7294580  99.7635790 142.1251320  93.1176290  99.2450900
 143.0957070  93.4244870 100.3656720 135.3995410  99.3107260  91.8259760
 134.7812680  99.7756710  91.2622480 135.9118660 100.0034740  92.2429270
 130.2627170  98.8383130  98.5043360 129.9296550  99.4652050  99.1464430
 130.4393850  99.3645010  97.7245030 138.7761080  92.6528210  95.9719700
 138.0716650  92.9413100  96.5522810 139.1373240  93.4628320  95.6119260
 129.4746270 100.8063930 100.3192540 130.0920270 101.4815010 100.0376990
 128.6139390 101.2151910 100.2280040 124.7678610  99.9963790  89.1999390
 124.3906590 100.4850890  88.4684290 125.0251680 100.6689070  89.8305920
 140.3923860 102.2703340  98.2347180 139.7087380 102.9402450  98.2263850
 140.9318150 102.4683990  97.4692040 141.8448000  92.0983000  96.3628910
 140.8972910  92.1321980  96.4944340 142.1697990  92.9121950  96.7478270
 132.3767540  88.3980180  94.6584900 132.6842520  87.8427070  93.9420400
 131.4468240  88.5324640  94.4757890 137.9282600 104.1147470  96.9492360
 137.9409760 103.7109760  96.0814620 137.3757820 104.8894760  96.8453790
 139.2228020 100.8363690  92.0382530 139.1124350  99.8938020  92.1631950
 139.2196270 101.1979330  92.9245290 137.3268040  99.0177310  98.2774970
 137.7436830  98.8037420  97.4428430 138.0507860  99.2750100  98.8483590
 134.7648300  96.4629010  91.3945020 133.8377580  96.3966390  91.6233490
 134.9173120  97.4009140  91.2800260 141.2730140  97.4164530  98.3691210
 140.4448770  97.4857620  97.8941340 141.8680620  98.0018840  97.9007040
 138.7945590  98.0249310  91.8980270 138.1758010  97.6868860  91.2506570
 138.7770040  97.3809070  92.6059460 138.2372150  94.2033850  99.3146080
 137.8243330  95.0287560  99.5686070 137.5048100  93.6178890  99.1222440
 130.3704940  96.9893750  94.1764750 129.9661940  96.2771000  93.6810650
 130.4568060  96.6446990  95.0652790 130.8386640 100.6761310  96.3403960
 130.5414930 100.0706780  95.6611740 131.7886460 100.7138620  96.2293320
 138.9272250 104.2493180 100.0027060 138.4502810 105.0565370  99.8099670
 138.2434040 103.5971510 100.1553270 129.9305070 100.4143000 102.9911760
 129.0333600 100.6382970 103.2385160 129.9557940 100.5377940 102.0423160
 136.9710290  97.2636120  88.9053020 137.4103570  96.4258550  88.7590840
 137.6838710  97.8965520  88.9917160 128.7576290  97.2856320 101.5669130
 128.6184060  98.1579120 101.9356530 127.8757650  96.9429130 101.4217070
 135.0805670 102.2032190  92.8734260 135.5201580 102.9456520  92.4589650
 135.0192560 102.4458760  93.7973220 130.5556640 103.2278020 103.7754280
 130.5272070 103.6320970 102.9082710 130.3921610 102.2988380 103.6125880
 140.5527430  88.5178930  87.2194060 140.2400090  88.6105760  88.1193130
 141.3139900  89.0959960  87.1691490 127.0709570  95.8838730  91.6771400
 126.9507170  96.6100820  91.0652670 126.7610460  95.1141640  91.1999310
 142.5071460 104.0105120 105.0718450 142.9831180 104.4888010 105.7507530
 143.1278620 103.9422610 104.3463950 125.9542570 100.7554060  93.8946220
 125.5470650 100.8968650  93.0399820 126.8455580 100.4714220  93.6917430
 141.9104710 101.2017970 102.2318460 142.0367770 100.9629850 101.3135640
 141.9526090 100.3702510 102.7040540 135.7721450 104.9045970 100.8013270
 136.2866120 104.8153980 101.6035700 134.9290530 105.2505670 101.0941180
 137.7475850 105.1901310  90.2297270 137.5876990 104.9004250  91.1279100
 137.5822560 104.4141440  89.6942500 130.2264230 104.9699840  92.0068890
 130.0506710 104.0535380  91.7936690 129.3719970 105.3287130  92.2466690
 137.0151910 104.3251580  92.8643760 137.4708860 103.5440960  93.1782380
 137.3544430 105.0358400  93.4084940 141.7628720  93.2550430 103.1968200
 141.1472990  93.7630100 102.6683660 141.4425140  92.3548760 103.1394140
 124.7654460 100.0968040 100.0234500 124.9285500  99.6273400  99.2053870
 125.2306910  99.5891600 100.6883340 138.8247550  93.3151270 101.7927050
 137.9741140  93.0157020 102.1136120 138.6649340  93.5593280 100.8810870
 135.9197260  94.8153020 103.8925840 136.2450670  93.9816770 103.5528070
 136.7077590  95.3381540 104.0404170 136.5585210  94.3570740  91.3866970
 135.9594100  95.0806540  91.2030590 137.1064820  94.2947520  90.6043420
 131.7686660  95.2492950 103.4536590 131.6730260  94.3087680 103.3036990
 132.6118640  95.4708020 103.0584660 135.7505220  95.5840030  97.5121030
 135.0186340  96.0926840  97.8611130 135.3529560  94.7670010  97.2109810
 132.1882610  92.2594230  95.9173520 132.1918670  91.8184180  95.0678060
 133.0833730  92.5811560  96.0245340 136.2131130  91.0373710  96.9243970
 136.2303870  91.4882360  97.7685820 135.9646710  90.1379350  97.1377410
 139.6401880  88.4505890 102.7630350 139.9647650  87.7195550 103.2888330
 139.6758390  88.1319530 101.8611340 126.3393440  99.4719470 102.1830310
 125.9548230  98.8313140 102.7813270 126.6505630 100.1755590 102.7525040
 132.4890580  96.3196010  97.6638930 132.8560710  95.8454580  98.4100270
 132.2995640  97.1937580  98.0047270 130.2789950  95.3604650  99.9823140
 129.9747020  96.2396630 100.2073500 131.2336410  95.4204440 100.0180580
 128.8071740  99.5665640  90.5789990 128.0334000  99.0263260  90.4188710
 129.5366370  99.0472250  90.2407750 139.5659720  98.5631000  96.3716380
 140.2858840  99.0586290  95.9812490 139.3641540  97.8848890  95.7270250
 134.9478520  98.6340060 102.2585380 134.8815830  97.7135730 102.0042970
 134.3183660  98.7315500 102.9730020 137.7418050  94.3288610  88.8107930
 138.6297670  94.6405840  88.6359270 137.7123140  93.4560860  88.4188510
 128.8509140  99.2346020  94.2168800 129.3687810  98.4314280  94.1625690
 128.3993160  99.1725160  95.0585630 133.7378640 100.5012300  89.4896100
 134.0794340 101.2454530  88.9939420 132.9091350 100.8143420  89.8520930
 126.3353680  96.2007390 101.1294500 125.9768620  96.8661240 101.7167840
 126.0408240  95.3690940 101.5007120 129.5366800  96.6591630 104.0134050
 129.2366940  96.8048810 103.1161870 130.3078040  96.0996920 103.9207440
 134.8795250 101.4560630 102.0089180 134.8939790 100.5241590 101.7908090
 134.1720350 101.5420390 102.6478950 140.0132320  95.6400450  88.2787790
 139.9296040  96.0714670  87.4284230 140.7326510  96.0998800  88.7114610
 141.0906460  98.0967970 101.3557760 140.3654650  98.6896750 101.1587150
 141.6181920  98.0891510 100.5571130 141.0419570 102.4942710  91.0069920
 140.3995730 101.8398330  91.2813640 140.6550230 102.8997800  90.2310590
 136.6206050  99.8228140  94.8541610 136.9729870  99.2256270  94.1942980
 135.7368380  99.4972370  95.0249860 132.7069330 100.5825830  92.2612020
 133.3940460 101.1295040  92.6419610 131.9201750 101.1266560  92.2961630
 132.0096540  97.5871860  91.8737380 132.4659320  98.3977110  92.0997570
 131.6584750  97.2695000  92.7055870 134.3129150 103.0978200  99.1029680
 134.9571370 103.3037580  99.7803100 134.6758590 102.3366600  98.6500530
 135.5861230 101.1010550  97.8207130 136.2283460 100.4003710  97.9339300
 136.1110580 101.8808990  97.6404020 139.4316950 101.3859170  87.5446270
 139.2054530 100.6689610  88.1370910 139.0413150 101.1371610  86.7068020
 137.3598850 101.9005450 101.0243190 137.6955090 102.4872140 101.7021110
 136.4399190 101.7698160 101.2540980 139.0133200  99.3031110  89.2060430
 138.7254900  99.7643800  89.9938310 139.8085370  98.8428880  89.4744650
 125.1974840 103.6780890 102.7933130 125.3065960 102.7375630 102.6528520
 124.5455400 103.9435640 102.1446860 133.1887430 101.9496780 104.1931250
 132.8684300 101.2306020 104.7376940 132.5145790 102.6251850 104.2667310
 126.8308240  98.0172120  89.8811160 126.2236190  98.7571020  89.8906460
 127.3057590  98.1071480  89.0549360 136.4041030  92.1822940  99.5568050
 136.7721850  91.3618150  99.8847620 135.5439230  92.2424830  99.9723700
 139.7703060  91.1379880  90.3655610 139.1416220  91.2425550  89.6513840
 139.2754980  91.3576660  91.1549490 133.3643020  94.8362530  99.7806020
 133.8628270  95.3108350 100.4457870 133.5065970  93.9126050  99.9876050
 135.7702520  90.1416490  93.2209280 135.6470300  90.1602620  92.2718790
 136.7187080  90.1895430  93.3407680 132.8579310 105.3771790  92.4937260
 133.1120810 105.3393180  91.5716630 131.9091790 105.2505120  92.4865510
 140.5709880  91.0530490 100.6234410 140.0683480  91.7935890 100.9628220
 141.3866540  91.4414490 100.3071200 138.8631890  96.2963670  94.0695770
 137.9222030  96.3113900  94.2443460 139.1775960  95.5099630  94.5156070
 128.8413530  97.9783270  87.6299730 129.6076800  97.8664630  88.1925160
 128.9188220  97.2821240  86.9776500 127.5360290  95.4108340  88.3132620
 127.6163880  94.4635850  88.4250020 128.4280040  95.7415220  88.4193280
 140.8657470 103.4672520  95.7450030 140.9904890 104.2903690  96.2173840
 141.7323030 103.2563250  95.3974180 128.3375000 105.5603730  95.4167160
 129.0737480 105.0119190  95.6875730 128.7215920 106.4259740  95.2773150
 125.2220480 101.6277300  91.2908670 124.2960260 101.8698440  91.2814080
 125.6876910 102.4551560  91.1693420 127.3433280 104.7449800 104.6052740
 128.1446010 105.0661850 105.0188140 126.8285100 104.3845380 105.3272650
 136.1797910 100.8529670 104.5528150 135.5736070 100.8761270 103.8123900
 135.8752020 100.1212710 105.0895400 137.6098280 104.5809960 103.1637560
 138.5620030 104.4967980 103.1137800 137.4626500 105.2451670 103.8371350
 140.5007480 103.9604170  88.6629470 140.2148990 103.5469310  87.8483650
 140.3027030 104.8891880  88.5429990 125.0631090  97.2323260 103.5488790
 125.5670110  96.6530540 104.1205020 124.3238510  97.5163490 104.0865160
 131.9654710  99.9537450  87.1035080 131.8605350  99.3389800  87.8296460
 131.7978930  99.4303340  86.3198090 132.1169030  98.6394250 103.0824310
 131.3514700  99.2079250 102.9978980 132.2984990  98.3470460 102.1892540
 139.2592380 100.3699580 103.6399330 140.0001850 100.7075340 103.1366790
 138.4965060 100.5391640 103.0869100 127.0954170  95.3752850 104.4438860
 127.1359510  95.0766720 105.3524090 127.9499670  95.7760460 104.2846380
 137.9338040  98.4214410 102.1754540 138.3479060  98.5759490 103.0244960
 136.9989040  98.5469630 102.3380320 138.4060210  95.7610570 104.1793690
 138.9880980  95.0062890 104.0914170 138.5821980  96.2918010 103.4025170
 132.6953270  98.3734890 100.1450470 133.1141380  99.2167620  99.9726710
 131.7761900  98.5106930  99.9157250 135.0317170  96.1051070 101.5288310
 135.1513380  95.5092210 102.2683150 135.8911170  96.1420760 101.1089610
 137.3705070  96.6588260 100.1050820 136.8440290  97.1830880  99.5015960
 137.7136410  97.2915650 100.7360550 130.5460690 104.6787900 101.2608200
 130.0081780 105.4033960 100.9416900 130.7994650 104.2018240 100.4705540
 137.2479770  88.8589860  89.0787410 137.5282060  88.0157760  89.4346830
 136.4745500  89.0912970  89.5926160 133.4022900 105.9139110 101.5194850
 133.3281600 106.8174250 101.8267220 132.5001740 105.5951010 101.4916920
 127.5904390 100.4524670  87.3708210 128.0279260 100.9954340  88.0265790
 128.0752120  99.6271620  87.3804550 124.8050190 103.2413700  94.8228470
 125.1353200 102.3734760  94.5907110 125.2341190 103.4472220  95.6533430
 129.4012110 101.5722710  92.4830440 129.1007650 101.4487680  93.3834350
 129.2949600 100.7131300  92.0746170 125.2940400 104.1084290  97.5610100
 124.8571390 104.2885090  98.3934250 125.8618080 104.8658910  97.4191820
 140.9302580 103.6101290 101.8487410 140.3304570 103.6693850 101.1051330
 141.0596480 102.6706270 101.9784260 142.1704030 101.3519110  87.1857120
 141.3396990 101.4195760  87.6564350 142.3475860 102.2423230  86.8823980
 141.6260490  98.0966590  89.6891320 142.3879400  98.6663240  89.7951010
 141.6414860  97.5293790  90.4599630 142.6320460  98.9516690  94.5333250
 143.0029290  98.1684010  94.1269220 143.2722390  99.6405790  94.3550550
 139.6154220 100.3353270  99.9463570 138.8014060 100.7650430 100.2089360
 140.0228420 100.9471680  99.3332620 141.6779660  98.3900960  86.8463840
 141.9528500  99.2979840  86.7183060 141.4890400  98.3263490  87.7825830
 138.0755270  91.4145810  88.1417470 138.4940150  91.2276790  87.3014130
 137.7691330  90.5624860  88.4520400 141.5745000  96.3269950  91.8393270
 141.1988600  95.5597880  91.4074560 140.8448120  96.7092650  92.3268200
 140.9644620  95.4741470 101.4732790 140.7330710  95.2454220 100.5730740
 141.2249170  96.3941020 101.4277680 125.7156760  93.9166180 102.3660740
 124.8212810  93.8832940 102.7054450 126.2554310  94.1152970 103.1311990
 139.4032690  90.6997900 104.2512490 140.2802870  90.7081300 104.6346490
 139.4153530  89.9628740 103.6404840 140.8495960  94.5527440  95.1400510
 141.3733440  94.0590090  94.5090680 141.4355380  94.6877800  95.8848080
 141.0285680  94.6367310  98.6620060 140.0788390  94.6030850  98.7765050
 141.2098690  95.5467420  98.4269830 140.3395930  93.8100790  91.0792920
 140.8355050  93.5771660  91.8641800 140.1412000  92.9712630  90.6630560
 141.7683090  92.4461740  93.6130600 141.6582370  92.2917780  94.5512870
 142.5290680  91.9182680  93.3706010 140.1148810  88.3855870 100.0713600
 140.7521030  88.9990010 100.4372790 140.2623700  88.4216530  99.1262830
 142.6573360  90.2769660  86.8536740 143.5822670  90.1450840  86.6455030
 142.6349150  90.3562480  87.8073190 142.7311850  91.0480320  89.4793450
 141.9363350  90.9825440  90.0086360 142.9355130  91.9830960  89.4678800
 139.6730270 105.0871870  93.4731840 140.2689340 104.7656440  92.7966260
 139.9308420 104.6143690  94.2645110 127.5792840 101.5189780 103.6222470
 127.5362470 101.1482690 104.5036930 127.7103850 102.4567350 103.7624290
 131.2798870 103.0749370  99.2232190 131.0390230 103.3423930  98.3362710
 132.2201510 103.2455100  99.2783050 142.5403030 105.0943750 100.0242830
 142.0461310 105.4912620  99.3069960 141.9316320 104.4692960 100.4180110
 127.4180870 104.4652030 100.7420250 126.8241190 104.3336730 101.4810290
 127.4104710 103.6290170 100.2762350 136.8635890  87.7584260  98.9450280
 135.9895730  88.0919370  98.7423210 136.7546640  87.2857440  99.7702150
 137.7707870  89.9655130 100.3292000 137.4421230  89.1506890  99.9493730
 138.7190170  89.9224940 100.2057690 140.2242480 105.7367170  97.3029570
 139.7645450 106.4882980  96.9287590 139.5954940 105.0173640  97.2444370
 127.0493100 101.8310410  99.6928290 126.3227160 101.2115700  99.6254240
 127.1102250 102.2251020  98.8226370 130.6538200 104.0455410  96.4777700
 131.1703220 103.4342770  95.9525960 131.3035580 104.5484190  96.9688710
 133.3933700 104.9363900  97.3046680 133.6811510 104.6818200  96.4279690
 133.9056920 104.3841260  97.8952250 134.6110710  88.6754100  97.8843190
 133.8282500  89.1499600  98.1639950 134.3173640  87.7708930  97.7756370
 139.1631780  89.3777200  95.9292280 139.6039870  89.3222300  95.0813880
 138.8939370  90.2935210  96.0002460 141.0270350  89.0092440  93.9401100
 140.9658750  88.0653660  93.7932120 141.8062380  89.1172530  94.4854560
 125.3323100 105.1484800  92.9025050 125.1645140 104.5155480  93.6006940
 124.4657610 105.3544200  92.5519240 136.9989910  87.7583300  94.6342290
 137.6019280  88.3303510  95.1090810 136.2582900  88.3222740  94.4116190
 140.1424510  88.1604860  89.9082570 140.3375140  89.0588310  90.1750000
 139.3554380  87.9291940  90.4015520 126.9385800 103.8418030  90.3475190
 126.4133420 104.2226060  89.6437150 126.8630380 104.4668800  91.0684900
 133.4606060 105.8580000 104.6714880 134.3873370 105.6224270 104.7150840
 133.4456490 106.6852000 104.1900910 141.6951120 105.4005570  91.6689130
 141.8703310 104.7143310  91.0250050 140.9972690 105.9252620  91.2765800
 128.6993560 101.9065140  89.2270770 128.0702440 102.3750240  89.7756600
 128.8141390 101.0614360  89.6616960 140.0283620 105.0849860 104.4955920
 140.8208940 104.5899090 104.2881880 140.3216770 105.7640000 105.1031530
 128.3027150  98.0469630  78.1357000 127.4712030  97.7918340  78.5353510
 128.9108130  98.1180400  78.8714920 138.3068750 102.1410010  76.0380370
 137.8450280 101.3697250  76.3667540 139.1194300 102.1676080  76.5432820
 128.2828410 102.0809720  78.3315020 128.5856450 101.1907460  78.1525240
 129.0272000 102.6379940  78.1037270 126.7119100  93.0071520  71.9199390
 125.8235800  93.3487490  71.8179270 126.9960290  92.8071840  71.0280220
 124.6752110  95.6077170  77.8039090 125.2468220  94.8399370  77.8042730
 124.6753650  95.9065930  76.8945700 134.5332060 104.4268020  75.6584360
 133.9143500 104.8825520  75.0878800 135.3883840 104.5819480  75.2574060
 125.9176980  91.0161530  79.5908020 125.7379820  90.1187280  79.8710780
 125.5157060  91.5633400  80.2654970 128.8880490  91.5903020  72.9537770
 128.9947240  92.4906750  73.2606530 127.9772850  91.5420990  72.6632420
 138.5399600  90.7127830  74.4248670 139.3609220  90.2224400  74.4674150
 138.5733680  91.3025490  75.1780510 126.5363650  93.5122030  78.1990360
 127.2173760  93.7760400  78.8177760 126.2211700  92.6722900  78.5328370
 130.7288220  94.5589390  77.2862950 131.2366440  95.0570360  77.9267970
 131.2601460  93.7824590  77.1102310 142.8299150  92.7294580  80.9892300
 142.1251320  93.1176290  80.4707410 143.0957070  93.4244870  81.5913230
 129.0124320  89.1987950  81.5526370 129.0142760  89.7160340  80.7472270
 128.1828630  88.7218130  81.5296300 135.3995410  99.3107260  73.0516270
 134.7812680  99.7756710  72.4878990 135.9118660 100.0034740  73.4685780
 130.2627170  98.8383130  79.7299870 129.9296550  99.4652050  80.3720940
 130.4393850  99.3645010  78.9501540 128.6939650  90.9097910  79.5596820
 129.0356460  91.7539960  79.2650690 127.7555460  91.0581650  79.6762160
 129.4746270 100.8063930  81.5449050 130.0920270 101.4815010  81.2633500
 128.6139390 101.2151910  81.4536550 124.7678610  99.9963790  70.4255900
 124.3906590 100.4850890  69.6940800 125.0251680 100.6689070  71.0562430
 140.3923860 102.2703340  79.4603690 139.7087380 102.9402450  79.4520360
 140.9318150 102.4683990  78.6948550 141.8448000  92.0983000  77.5885420
 140.8972910  92.1321980  77.7200850 142.1697990  92.9121950  77.9734780
 132.3767540  88.3980180  75.8841410 132.6842520  87.8427070  75.1676910
 131.4468240  88.5324640  75.7014400 137.9282600 104.1147470  78.1748870
 137.9409760 103.7109760  77.3071130 137.3757820 104.8894760  78.0710300
 139.2228020 100.8363690  73.2639040 139.1124350  99.8938020  73.3888460
 139.2196270 101.1979330  74.1501800 134.7648300  96.4629010  72.6201530
 133.8377580  96.3966390  72.8490000 134.9173120  97.4009140  72.5056770
 134.7517380  92.7346010  69.6168690 133.8121050  92.8959970  69.7021150
 135.0700640  93.4531690  69.0704680 141.2730140  97.4164530  79.5947720
 140.4448770  97.4857620  79.1197850 141.8680620  98.0018840  79.1263550
 138.7945590  98.0249310  73.1236780 138.1758010  97.6868860  72.4763080
 138.7770040  97.3809070  73.8315970 130.3704940  96.9893750  75.4021260
 129.9661940  96.2771000  74.9067160 130.4568060  96.6446990  76.2909300
 130.8386640 100.6761310  77.5660470 130.5414930 100.0706780  76.8868250
 131.7886460 100.7138620  77.4549830 129.0833560  93.7636960  79.1820300
 129.6348150  93.8732300  78.4073550 129.5977070  94.1374560  79.8975530
 138.9272250 104.2493180  81.2283570 138.4502810 105.0565370  81.0356180
 138.2434040 103.5971510  81.3809780 129.9305070 100.4143000  84.2168270
 129.0333600 100.6382970  84.4641670 129.9557940 100.5377940  83.2679670
 136.9710290  97.2636120  70.1309530 137.4103570  96.4258550  69.9847350
 137.6838710  97.8965520  70.2173670 128.7576290  97.2856320  82.7925640
 128.6184060  98.1579120  83.1613040 127.8757650  96.9429130  82.6473580
 135.0805670 102.2032190  74.0990770 135.5201580 102.9456520  73.6846160
 135.0192560 102.4458760  75.0229730 127.0709570  95.8838730  72.9027910
 126.9507170  96.6100820  72.2909180 126.7610460  95.1141640  72.4255820
 142.5071460 104.0105120  86.2974960 142.9831180 104.4888010  86.9764040
 143.1278620 103.9422610  85.5720460 124.7094940  99.0553870  78.7096550
 124.7875360  99.1902640  77.7652270 125.3236620  98.3469760  78.9024670
 125.9542570 100.7554060  75.1202730 125.5470650 100.8968650  74.2656330
 126.8455580 100.4714220  74.9173940 141.9104710 101.2017970  83.4574970
 142.0367770 100.9629850  82.5392150 141.9526090 100.3702510  83.9297050
 135.7721450 104.9045970  82.0269780 136.2866120 104.8153980  82.8292210
 134.9290530 105.2505670  82.3197690 137.7475850 105.1901310  71.4553780
 137.5876990 104.9004250  72.3535610 137.5822560 104.4141440  70.9199010
 130.2264230 104.9699840  73.2325400 130.0506710 104.0535380  73.0193200
 129.3719970 105.3287130  73.4723200 137.4501980 102.6988870  70.0151780
 136.7567140 102.6966160  69.3554060 138.1924840 102.2748190  69.5845950
 137.0151910 104.3251580  74.0900270 137.4708860 103.5440960  74.4038890
 137.3544430 105.0358400  74.6341450 141.7628720  93.2550430  84.4224710
 141.1472990  93.7630100  83.8940170 141.4425140  92.3548760  84.3650650
 124.7654460 100.0968040  81.2491010 124.9285500  99.6273400  80.4310380
 125.2306910  99.5891600  81.9139850 129.5373230  89.2273800  76.2851580
 129.0941380  90.0083340  75.9536100 130.0958220  89.5503690  76.9922520
 131.5749130  89.7721130  78.1441180 131.8721460  90.6783960  78.0633200
 132.1234690  89.2839910  77.5300750 129.3287450  94.3507370  74.0132830
 129.1028370  94.1344540  74.9179450 128.5479980  94.7835830  73.6678800
 136.5585210  94.3570740  72.6123480 135.9594100  95.0806540  72.4287100
 137.1064820  94.2947520  71.8299930 135.1650080  92.9934280  74.6426760
 135.5579650  93.3106480  73.8295450 135.5266930  92.1146160  74.7571280
 124.3884480  93.5255200  68.0759680 124.3059150  94.4685960  68.2174670
 124.0367540  93.3830110  67.1972030 132.1882610  92.2594230  77.1430030
 132.1918670  91.8184180  76.2934570 133.0833730  92.5811560  77.2501850
 128.0384990  92.1420720  76.1024240 127.6985040  92.6195950  76.8591290
 127.2762310  91.6885840  75.7425340 132.2502760  93.2606310  70.1336790
 132.3715580  93.2192790  71.0822610 131.8651270  94.1230460  69.9783520
 136.2131130  91.0373710  78.1500480 136.2303870  91.4882360  78.9942330
 135.9646710  90.1379350  78.3633920 131.2624260  95.5707450  69.5320090
 130.6941160  95.1225700  68.9056000 131.9713260  95.9300230  68.9985240
 139.6401880  88.4505890  83.9886860 139.9647650  87.7195550  84.5144840
 139.6758390  88.1319530  83.0867850 126.3393440  99.4719470  83.4086820
 125.9548230  98.8313140  84.0069780 126.6505630 100.1755590  83.9781550
 125.3531070  91.0639700  75.0188910 125.0677990  90.6995370  75.8567530
 125.2909930  90.3320160  74.4052050 128.8071740  99.5665640  71.8046500
 128.0334000  99.0263260  71.6445220 129.5366370  99.0472250  71.4664260
 135.0269660  89.9568960  71.7402280 134.2134270  89.4582130  71.6647590
 134.8331610  90.7967210  71.3238630 137.7418050  94.3288610  70.0364440
 138.6297670  94.6405840  69.8615780 137.7123140  93.4560860  69.6445020
 128.8509140  99.2346020  75.4425310 129.3687810  98.4314280  75.3882200
 128.3993160  99.1725160  76.2842140 133.7378640 100.5012300  70.7152610
 134.0794340 101.2454530  70.2195930 132.9091350 100.8143420  71.0777440
 126.3353680  96.2007390  82.3551010 125.9768620  96.8661240  82.9424350
 126.0408240  95.3690940  82.7263630 134.8795250 101.4560630  83.2345690
 134.8939790 100.5241590  83.0164600 134.1720350 101.5420390  83.8735460
 140.0132320  95.6400450  69.5044300 139.9296040  96.0714670  68.6540740
 140.7326510  96.0998800  69.9371120 141.0906460  98.0967970  82.5814270
 140.3654650  98.6896750  82.3843660 141.6181920  98.0891510  81.7827640
 141.0419570 102.4942710  72.2326430 140.3995730 101.8398330  72.5070150
 140.6550230 102.8997800  71.4567100 132.7069330 100.5825830  73.4868530
 133.3940460 101.1295040  73.8676120 131.9201750 101.1266560  73.5218140
 124.8461730  96.1998650  68.9785610 125.7156580  96.4823450  69.2621530
 124.3552050  97.0134520  68.8634420 132.0096540  97.5871860  73.0993890
 132.4659320  98.3977110  73.3254080 131.6584750  97.2695000  73.9312380
 134.3129150 103.0978200  80.3286190 134.9571370 103.3037580  81.0059610
 134.6758590 102.3366600  79.8757040 127.9108320  87.9309510  73.5716410
 127.7822950  87.9227410  74.5201330 127.0870340  88.2692600  73.2207420
 139.4316950 101.3859170  68.7702780 139.2054530 100.6689610  69.3627420
 139.0413150 101.1371610  67.9324530 137.3598850 101.9005450  82.2499700
 137.6955090 102.4872140  82.9277620 136.4399190 101.7698160  82.4797490
 125.2132980 105.4126030  69.5447240 125.5730620 106.0115370  68.8904510
 125.0725320 105.9585920  70.3182270 139.0133200  99.3031110  70.4316940
 138.7254900  99.7643800  71.2194820 139.8085370  98.8428880  70.7001160
 125.1974840 103.6780890  84.0189640 125.3065960 102.7375630  83.8785030
 124.5455400 103.9435640  83.3703370 131.2301600 102.7957230  70.3620910
 131.2211700 103.5286920  69.7465420 130.3099960 102.5488810  70.4547870
 126.8308240  98.0172120  71.1067670 126.2236190  98.7571020  71.1162970
 127.3057590  98.1071480  70.2805870 131.7387090  93.4165830  73.0070000
 131.0303240  93.8852170  73.4483610 132.0231570  92.7587840  73.6415190
 135.7702520  90.1416490  74.4465790 135.6470300  90.1602620  73.4975300
 136.7187080  90.1895430  74.5664190 132.8579310 105.3771790  73.7193770
 133.1120810 105.3393180  72.7973140 131.9091790 105.2505120  73.7122020
 129.9422110  91.7250910  70.3820710 130.7912640  92.1621060  70.3160900
 129.5753380  92.0371170  71.2092770 140.5709880  91.0530490  81.8490920
 140.0683480  91.7935890  82.1884730 141.3866540  91.4414490  81.5327710
 128.8413530  97.9783270  68.8556240 129.6076800  97.8664630  69.4181670
 128.9188220  97.2821240  68.2033010 127.5360290  95.4108340  69.5389130
 127.6163880  94.4635850  69.6506530 128.4280040  95.7415220  69.6449790
 140.8657470 103.4672520  76.9706540 140.9904890 104.2903690  77.4430350
 141.7323030 103.2563250  76.6230690 128.3375000 105.5603730  76.6423670
 129.0737480 105.0119190  76.9132240 128.7215920 106.4259740  76.5029660
 125.2220480 101.6277300  72.5165180 124.2960260 101.8698440  72.5070590
 125.6876910 102.4551560  72.3949930 127.3433280 104.7449800  85.8309250
 128.1446010 105.0661850  86.2444650 126.8285100 104.3845380  86.5529160
 136.1797910 100.8529670  85.7784660 135.5736070 100.8761270  85.0380410
 135.8752020 100.1212710  86.3151910 140.5007480 103.9604170  69.8885980
 140.2148990 103.5469310  69.0740160 140.3027030 104.8891880  69.7686500
 131.9654710  99.9537450  68.3291590 131.8605350  99.3389800  69.0552970
 131.7978930  99.4303340  67.5454600 135.2057440  99.0157480  68.9333580
 134.6567540  99.4626780  69.5776320 135.8276700  98.5106730  69.4571250
 139.2592380 100.3699580  84.8655840 140.0001850 100.7075340  84.3623300
 138.4965060 100.5391640  84.3125610 130.8732560  97.9748400  70.8298880
 131.2948980  97.8088270  71.6730270 130.9983400  97.1648630  70.3354020
 133.3860200  96.9986010  68.0775980 133.9065860  96.2835030  67.7117130
 134.0328600  97.6371880  68.3776490 132.2893720  89.4780560  80.7494540
 131.8411020  89.5004820  79.9040090 131.6558920  89.0799580  81.3464840
 129.7691460  94.0481630  67.7757040 129.5680520  93.1848990  68.1370380
 129.5983510  93.9614990  66.8378640 128.5674260  91.1482250  67.7634920
 128.8700160  91.1549680  66.8554070 129.3068850  90.7980110  68.2602580
 127.5904390 100.4524670  68.5964720 128.0279260 100.9954340  69.2522300
 128.0752120  99.6271620  68.6061060 124.8050190 103.2413700  76.0484980
 125.1353200 102.3734760  75.8163620 125.2341190 103.4472220  76.8789940
 129.4012110 101.5722710  73.7086950 129.1007650 101.4487680  74.6090860
 129.2949600 100.7131300  73.3002680 125.2940400 104.1084290  78.7866610
 124.8571390 104.2885090  79.6190760 125.8618080 104.8658910  78.6448330
 140.9302580 103.6101290  83.0743920 140.3304570 103.6693850  82.3307840
 141.0596480 102.6706270  83.2040770 142.1704030 101.3519110  68.4113630
 141.3396990 101.4195760  68.8820860 142.3475860 102.2423230  68.1080490
 141.6260490  98.0966590  70.9147830 142.3879400  98.6663240  71.0207520
 141.6414860  97.5293790  71.6856140 125.1264830  96.6204520  75.1455490
 124.4713670  96.3516160  74.5015190 125.9642780  96.5109000  74.6957470
 142.6320460  98.9516690  75.7589760 143.0029290  98.1684010  75.3525730
 143.2722390  99.6405790  75.5807060 139.6154220 100.3353270  81.1720080
 138.8014060 100.7650430  81.4345870 140.0228420 100.9471680  80.5589130
 141.6779660  98.3900960  68.0720350 141.9528500  99.2979840  67.9439570
 141.4890400  98.3263490  69.0082340 141.5745000  96.3269950  73.0649780
 141.1988600  95.5597880  72.6331070 140.8448120  96.7092650  73.5524710
 126.1640760  97.0057090  79.6858830 126.5313800  96.9184490  80.5654850
 125.5951580  96.2423640  79.5865690 140.9644620  95.4741470  82.6989300
 140.7330710  95.2454220  81.7987250 141.2249170  96.3941020  82.6534190
 139.4032690  90.6997900  85.4769000 140.2802870  90.7081300  85.8603000
 139.4153530  89.9628740  84.8661350 124.3402910  93.8303450  71.0880820
 123.4366990  94.0933650  70.9132480 124.8243530  94.1014620  70.3080780
 140.8495960  94.5527440  76.3657020 141.3733440  94.0590090  75.7347190
 141.4355380  94.6877800  77.1104590 141.0285680  94.6367310  79.8876570
 140.0788390  94.6030850  80.0021560 141.2098690  95.5467420  79.6526340
 126.8830120  92.8868990  68.9975200 127.5921820  92.4652210  68.5122480
 126.1670060  92.9544220  68.3658550 126.5304280  88.9408320  68.0377850
 127.2532410  89.4817260  68.3559070 126.8028800  88.6671740  67.1619390
 140.3395930  93.8100790  72.3049430 140.8355050  93.5771660  73.0898310
 140.1412000  92.9712630  71.8887070 126.2196470  88.1914510  77.9400470
 126.8672660  87.6411890  77.4995630 126.6398310  88.4457660  78.7616280
 141.7683090  92.4461740  74.8387110 141.6582370  92.2917780  75.7769380
 142.5290680  91.9182680  74.5962520 142.6573360  90.2769660  68.0793250
 143.5822670  90.1450840  67.8711540 142.6349150  90.3562480  69.0329700
 142.7311850  91.0480320  70.7049960 141.9363350  90.9825440  71.2342870
 142.9355130  91.9830960  70.6935310 139.6730270 105.0871870  74.6988350
 140.2689340 104.7656440  74.0222770 139.9308420 104.6143690  75.4901620
 125.9728470  88.3470180  80.6825790 125.6243290  88.8034000  81.4483970
 125.6416170  87.4527310  80.7648220 127.5792840 101.5189780  84.8478980
 127.5362470 101.1482690  85.7293440 127.7103850 102.4567350  84.9880800
 131.2798870 103.0749370  80.4488700 131.0390230 103.3423930  79.5619220
 132.2201510 103.2455100  80.5039560 133.4853290  89.5382060  84.2045210
 133.4242180  90.1303890  84.9540620 134.4253670  89.4308020  84.0595470
 136.1227850  89.1952120  83.8437500 136.7368260  89.5131410  83.1818580
 136.6677410  88.7100710  84.4633360 142.5403030 105.0943750  81.2499340
 142.0461310 105.4912620  80.5326470 141.9316320 104.4692960  81.6436620
 126.6449110  87.8746380  83.9576560 127.1932100  87.6934430  83.1942670
 126.7104420  87.0840490  84.4932870 127.4180870 104.4652030  81.9676760
 126.8241190 104.3336730  82.7066800 127.4104710 103.6290170  81.5018860
 140.2242480 105.7367170  78.5286080 139.7645450 106.4882980  78.1544100
 139.5954940 105.0173640  78.4700880 127.0493100 101.8310410  80.9184800
 126.3227160 101.2115700  80.8510750 127.1102250 102.2251020  80.0482880
 130.6538200 104.0455410  77.7034210 131.1703220 103.4342770  77.1782470
 131.3035580 104.5484190  78.1945220 133.3933700 104.9363900  78.5303190
 133.6811510 104.6818200  77.6536200 133.9056920 104.3841260  79.1208760
 125.3323100 105.1484800  74.1281560 125.1645140 104.5155480  74.8263450
 124.4657610 105.3544200  73.7775750 125.9551120  88.9801580  71.6313420
 126.7130480  89.0930460  71.0577450 125.4928290  89.8170780  71.5856850
 132.4964930  91.0940850  74.6215730 131.6839440  90.7197740  74.2811610
 133.0006570  90.3385930  74.9236920 126.9385800 103.8418030  71.5731700
 126.4133420 104.2226060  70.8693660 126.8630380 104.4668800  72.2941410
 128.3276270  89.5065630  70.1715390 128.8569030  88.7195430  70.0423340
 128.9604590  90.1856820  70.4050920 130.5214110  89.2440770  73.2260780
 129.8916850  88.5428080  73.3930910 129.9819250  90.0044900  73.0093940
 141.6951120 105.4005570  72.8945640 141.8703310 104.7143310  72.2506560
 140.9972690 105.9252620  72.5022310 128.6993560 101.9065140  70.4527280
 128.0702440 102.3750240  71.0013110 128.8141390 101.0614360  70.8873470
 137.2485130  87.9378330  86.2393740 137.1350580  88.2572940  87.1345260
 138.0654870  88.3390840  85.9431020 140.0283620 105.0849860  85.7212430
 140.8208940 104.5899090  85.5138390 140.3216770 105.7640000  86.3288040
 128.3027150  98.0469630  59.3613510 127.4712030  97.7918340  59.7610020
 128.9108130  98.1180400  60.0971430 138.3068750 102.1410010  57.2636880
 137.8450280 101.3697250  57.5924050 139.1194300 102.1676080  57.7689330
 128.2828410 102.0809720  59.5571530 128.5856450 101.1907460  59.3781750
 129.0272000 102.6379940  59.3293780 126.7119100  93.0071520  53.1455900
 125.8235800  93.3487490  53.0435780 126.9960290  92.8071840  52.2536730
 124.6752110  95.6077170  59.0295600 125.2468220  94.8399370  59.0299240
 124.6753650  95.9065930  58.1202210 134.5332060 104.4268020  56.8840870
 133.9143500 104.8825520  56.3135310 135.3883840 104.5819480  56.4830570
 125.9176980  91.0161530  60.8164530 125.7379820  90.1187280  61.0967290
 125.5157060  91.5633400  61.4911480 128.8880490  91.5903020  54.1794280
 128.9947240  92.4906750  54.4863040 127.9772850  91.5420990  53.8888930
 138.5399600  90.7127830  55.6505180 139.3609220  90.2224400  55.6930660
 138.5733680  91.3025490  56.4037020 126.5363650  93.5122030  59.4246870
 127.2173760  93.7760400  60.0434270 126.2211700  92.6722900  59.7584880
 142.8299150  92.7294580  62.2148810 142.1251320  93.1176290  61.6963920
 143.0957070  93.4244870  62.8169740 129.0124320  89.1987950  62.7782880
 129.0142760  89.7160340  61.9728780 128.1828630  88.7218130  62.7552810
 130.2627170  98.8383130  60.9556380 129.9296550  99.4652050  61.5977450
 130.4393850  99.3645010  60.1758050 138.7761080  92.6528210  58.4232720
 138.0716650  92.9413100  59.0035830 139.1373240  93.4628320  58.0632280
 128.6939650  90.9097910  60.7853330 129.0356460  91.7539960  60.4907200
 127.7555460  91.0581650  60.9018670 129.4746270 100.8063930  62.7705560
 130.0920270 101.4815010  62.4890010 128.6139390 101.2151910  62.6793060
 140.3923860 102.2703340  60.6860200 139.7087380 102.9402450  60.6776870
 140.9318150 102.4683990  59.9205060 141.8448000  92.0983000  58.8141930
 140.8972910  92.1321980  58.9457360 142.1697990  92.9121950  59.1991290
 137.9282600 104.1147470  59.4005380 137.9409760 103.7109760  58.5327640
 137.3757820 104.8894760  59.2966810 139.2228020 100.8363690  54.4895550
 139.1124350  99.8938020  54.6144970 139.2196270 101.1979330  55.3758310
 137.3268040  99.0177310  60.7287990 137.7436830  98.8037420  59.8941450
 138.0507860  99.2750100  61.2996610 141.2730140  97.4164530  60.8204230
 140.4448770  97.4857620  60.3454360 141.8680620  98.0018840  60.3520060
 138.7945590  98.0249310  54.3493290 138.1758010  97.6868860  53.7019590
 138.7770040  97.3809070  55.0572480 138.2372150  94.2033850  61.7659100
 137.8243330  95.0287560  62.0199090 137.5048100  93.6178890  61.5735460
 130.8386640 100.6761310  58.7916980 130.5414930 100.0706780  58.1124760
 131.7886460 100.7138620  58.6806340 129.0833560  93.7636960  60.4076810
 129.6348150  93.8732300  59.6330060 129.5977070  94.1374560  61.1232040
 138.9272250 104.2493180  62.4540080 138.4502810 105.0565370  62.2612690
 138.2434040 103.5971510  62.6066290 129.9305070 100.4143000  65.4424780
 129.0333600 100.6382970  65.6898180 129.9557940 100.5377940  64.4936180
 128.7576290  97.2856320  64.0182150 128.6184060  98.1579120  64.3869550
 127.8757650  96.9429130  63.8730090 135.0805670 102.2032190  55.3247280
 135.5201580 102.9456520  54.9102670 135.0192560 102.4458760  56.2486240
 140.5527430  88.5178930  49.6707080 140.2400090  88.6105760  50.5706150
 141.3139900  89.0959960  49.6204510 127.0709570  95.8838730  54.1284420
 126.9507170  96.6100820  53.5165690 126.7610460  95.1141640  53.6512330
 142.5071460 104.0105120  67.5231470 142.9831180 104.4888010  68.2020550
 143.1278620 103.9422610  66.7976970 124.7094940  99.0553870  59.9353060
 124.7875360  99.1902640  58.9908780 125.3236620  98.3469760  60.1281180
 125.9542570 100.7554060  56.3459240 125.5470650 100.8968650  55.4912840
 126.8455580 100.4714220  56.1430450 141.9104710 101.2017970  64.6831480
 142.0367770 100.9629850  63.7648660 141.9526090 100.3702510  65.1553560
 135.7721450 104.9045970  63.2526290 136.2866120 104.8153980  64.0548720
 134.9290530 105.2505670  63.5454200 137.7475850 105.1901310  52.6810290
 137.5876990 104.9004250  53.5792120 137.5822560 104.4141440  52.1455520
 130.2264230 104.9699840  54.4581910 130.0506710 104.0535380  54.2449710
 129.3719970 105.3287130  54.6979710 137.4501980 102.6988870  51.2408290
 136.7567140 102.6966160  50.5810570 138.1924840 102.2748190  50.8102460
 137.0151910 104.3251580  55.3156780 137.4708860 103.5440960  55.6295400
 137.3544430 105.0358400  55.8597960 141.7628720  93.2550430  65.6481220
 141.1472990  93.7630100  65.1196680 141.4425140  92.3548760  65.5907160
 124.7654460 100.0968040  62.4747520 124.9285500  99.6273400  61.6566890
 125.2306910  99.5891600  63.1396360 133.8243040  92.0942320  63.1143410
 133.3622410  92.3025340  63.9263350 133.4221150  91.2801670  62.8114080
 138.8247550  93.3151270  64.2440070 137.9741140  93.0157020  64.5649140
 138.6649340  93.5593280  63.3323890 135.9197260  94.8153020  66.3438860
 136.2450670  93.9816770  66.0041090 136.7077590  95.3381540  66.4917190
 132.6532050  88.8484500  52.3913920 132.0286230  88.8444370  53.1167230
 132.5662170  87.9815460  51.9949890 131.7686660  95.2492950  65.9049610
 131.6730260  94.3087680  65.7550010 132.6118640  95.4708020  65.5097680
 126.8997200  91.6606620  64.0583390 126.5060590  92.5081830  64.2656170
 126.2115600  91.0232990  64.2492030 133.4742250  91.7441590  67.1280130
 132.7840570  91.5513790  67.7626220 134.2174550  92.0276230  67.6604430
 124.2014250  89.5835080  58.0913470 123.9127300  90.1537940  58.8038450
 124.9460010  89.1039530  58.4544700 128.0384990  92.1420720  57.3280750
 127.6985040  92.6195950  58.0847800 127.2762310  91.6885840  56.9681850
 136.2131130  91.0373710  59.3756990 136.2303870  91.4882360  60.2198840
 135.9646710  90.1379350  59.5890430 139.6401880  88.4505890  65.2143370
 139.9647650  87.7195550  65.7401350 139.6758390  88.1319530  64.3124360
 126.3393440  99.4719470  64.6343330 125.9548230  98.8313140  65.2326290
 126.6505630 100.1755590  65.2038060 125.3531070  91.0639700  56.2445420
 125.0677990  90.6995370  57.0824040 125.2909930  90.3320160  55.6308560
 130.2789950  95.3604650  62.4336160 129.9747020  96.2396630  62.6586520
 131.2336410  95.4204440  62.4693600 128.8071740  99.5665640  53.0303010
 128.0334000  99.0263260  52.8701730 129.5366370  99.0472250  52.6920770
 139.5659720  98.5631000  58.8229400 140.2858840  99.0586290  58.4325510
 139.3641540  97.8848890  58.1783270 135.0269660  89.9568960  52.9658790
 134.2134270  89.4582130  52.8904100 134.8331610  90.7967210  52.5495140
 134.9478520  98.6340060  64.7098400 134.8815830  97.7135730  64.4555990
 134.3183660  98.7315500  65.4243040 137.7418050  94.3288610  51.2620950
 138.6297670  94.6405840  51.0872290 137.7123140  93.4560860  50.8701530
 128.8509140  99.2346020  56.6681820 129.3687810  98.4314280  56.6138710
 128.3993160  99.1725160  57.5098650 126.3353680  96.2007390  63.5807520
 125.9768620  96.8661240  64.1680860 126.0408240  95.3690940  63.9520140
 129.5366800  96.6591630  66.4647070 129.2366940  96.8048810  65.5674890
 130.3078040  96.0996920  66.3720460 134.8795250 101.4560630  64.4602200
 134.8939790 100.5241590  64.2421110 134.1720350 101.5420390  65.0991970
 140.0132320  95.6400450  50.7300810 139.9296040  96.0714670  49.8797250
 140.7326510  96.0998800  51.1627630 141.0906460  98.0967970  63.8070780
 140.3654650  98.6896750  63.6100170 141.6181920  98.0891510  63.0084150
 141.0419570 102.4942710  53.4582940 140.3995730 101.8398330  53.7326660
 140.6550230 102.8997800  52.6823610 134.3129150 103.0978200  61.5542700
 134.9571370 103.3037580  62.2316120 134.6758590 102.3366600  61.1013550
 127.9108320  87.9309510  54.7972920 127.7822950  87.9227410  55.7457840
 127.0870340  88.2692600  54.4463930 135.5861230 101.1010550  60.2720150
 136.2283460 100.4003710  60.3852320 136.1110580 101.8808990  60.0917040
 139.4316950 101.3859170  49.9959290 139.2054530 100.6689610  50.5883930
 139.0413150 101.1371610  49.1581040 137.3598850 101.9005450  63.4756210
 137.6955090 102.4872140  64.1534130 136.4399190 101.7698160  63.7054000
 124.9102250  89.6900630  64.2579620 124.1960770  89.8897550  64.8632230
 125.3297290  88.9140200  64.6294420 139.0133200  99.3031110  51.6573450
 138.7254900  99.7643800  52.4451330 139.8085370  98.8428880  51.9257670
 125.1974840 103.6780890  65.2446150 125.3065960 102.7375630  65.1041540
 124.5455400 103.9435640  64.5959880 133.1887430 101.9496780  66.6444270
 132.8684300 101.2306020  67.1889960 132.5145790 102.6251850  66.7180330
 131.2301600 102.7957230  51.5877420 131.2211700 103.5286920  50.9721930
 130.3099960 102.5488810  51.6804380 126.8308240  98.0172120  52.3324180
 126.2236190  98.7571020  52.3419480 127.3057590  98.1071480  51.5062380
 136.4041030  92.1822940  62.0081070 136.7721850  91.3618150  62.3360640
 135.5439230  92.2424830  62.4236720 139.7703060  91.1379880  52.8168630
 139.1416220  91.2425550  52.1026860 139.2754980  91.3576660  53.6062510
 134.2161200 102.8585470  50.2502610 134.3173180 102.6549460  49.3204590
 133.3162940 102.6043750  50.4550390 133.3643020  94.8362530  62.2319040
 133.8628270  95.3108350  62.8970890 133.5065970  93.9126050  62.4389070
 132.8579310 105.3771790  54.9450280 133.1120810 105.3393180  54.0229650
 131.9091790 105.2505120  54.9378530 129.9422110  91.7250910  51.6077220
 130.7912640  92.1621060  51.5417410 129.5753380  92.0371170  52.4349280
 140.5709880  91.0530490  63.0747430 140.0683480  91.7935890  63.4141240
 141.3866540  91.4414490  62.7584220 138.8631890  96.2963670  56.5208790
 137.9222030  96.3113900  56.6956480 139.1775960  95.5099630  56.9669090
 127.5360290  95.4108340  50.7645640 127.6163880  94.4635850  50.8763040
 128.4280040  95.7415220  50.8706300 140.8657470 103.4672520  58.1963050
 140.9904890 104.2903690  58.6686860 141.7323030 103.2563250  57.8487200
 128.3375000 105.5603730  57.8680180 129.0737480 105.0119190  58.1388750
 128.7215920 106.4259740  57.7286170 125.2220480 101.6277300  53.7421690
 124.2960260 101.8698440  53.7327100 125.6876910 102.4551560  53.6206440
 127.3433280 104.7449800  67.0565760 128.1446010 105.0661850  67.4701160
 126.8285100 104.3845380  67.7785670 131.4477310 104.7334040  49.6905750
 132.2405920 105.0222870  49.2387540 130.9281660 104.3026210  49.0118230
 136.1797910 100.8529670  67.0041170 135.5736070 100.8761270  66.2636920
 135.8752020 100.1212710  67.5408420 137.6098280 104.5809960  65.6150580
 138.5620030 104.4967980  65.5650820 137.4626500 105.2451670  66.2884370
 140.5007480 103.9604170  51.1142490 140.2148990 103.5469310  50.2996670
 140.3027030 104.8891880  50.9943010 132.1169030  98.6394250  65.5337330
 131.3514700  99.2079250  65.4492000 132.2984990  98.3470460  64.6405560
 139.2592380 100.3699580  66.0912350 140.0001850 100.7075340  65.5879810
 138.4965060 100.5391640  65.5382120 127.0954170  95.3752850  66.8951880
 127.1359510  95.0766720  67.8037110 127.9499670  95.7760460  66.7359400
 129.0359980  93.9544950  64.8626370 128.5056440  93.4635900  64.2349710
 129.7048050  94.3829150  64.3284300 137.9338040  98.4214410  64.6267560
 138.3479060  98.5759490  65.4757980 136.9989040  98.5469630  64.7893340
 138.4060210  95.7610570  66.6306710 138.9880980  95.0062890  66.5427190
 138.5821980  96.2918010  65.8538190 129.5232280  90.9207320  64.9423660
 129.4289150  90.3028070  64.2174530 128.9429670  91.6473610  64.7153570
 132.2893720  89.4780560  61.9751050 131.8411020  89.5004820  61.1296600
 131.6558920  89.0799580  62.5721350 132.6953270  98.3734890  62.5963490
 133.1141380  99.2167620  62.4239730 131.7761900  98.5106930  62.3670270
 135.0317170  96.1051070  63.9801330 135.1513380  95.5092210  64.7196170
 135.8911170  96.1420760  63.5602630 137.3705070  96.6588260  62.5563840
 136.8440290  97.1830880  61.9528980 137.7136410  97.2915650  63.1873570
 130.5460690 104.6787900  63.7121220 130.0081780 105.4033960  63.3929920
 130.7994650 104.2018240  62.9218560 131.7985940  92.6472420  65.2377150
 132.3885630  92.3388270  65.9254970 130.9806180  92.1752170  65.3937050
 136.6179370  92.2638230  65.4710170 135.9294890  91.6019770  65.4060160
 137.3385390  91.8176500  65.9158630 137.2479770  88.8589860  51.5300430
 137.5282060  88.0157760  51.8859850 136.4745500  89.0912970  52.0439180
 128.5674260  91.1482250  48.9891430 128.8700160  91.1549680  48.0810580
 129.3068850  90.7980110  49.4859090 131.7859190  90.0916870  49.9747630
 131.4381190  89.4140860  49.3950080 131.9871960  89.6306380  50.7891020
 133.9508230 105.0797620  51.5934230 134.8459020 105.4182590  51.6152990
 133.9825860 104.3577030  50.9658510 127.5904390 100.4524670  49.8221230
 128.0279260 100.9954340  50.4778810 128.0752120  99.6271620  49.8317570
 124.8050190 103.2413700  57.2741490 125.1353200 102.3734760  57.0420130
 125.2341190 103.4472220  58.1046450 129.4012110 101.5722710  54.9343460
 129.1007650 101.4487680  55.8347370 129.2949600 100.7131300  54.5259190
 125.2940400 104.1084290  60.0123120 124.8571390 104.2885090  60.8447270
 125.8618080 104.8658910  59.8704840 140.9302580 103.6101290  64.3000430
 140.3304570 103.6693850  63.5564350 141.0596480 102.6706270  64.4297280
 142.1704030 101.3519110  49.6370140 141.3396990 101.4195760  50.1077370
 142.3475860 102.2423230  49.3337000 141.6260490  98.0966590  52.1404340
 142.3879400  98.6663240  52.2464030 141.6414860  97.5293790  52.9112650
 125.1264830  96.6204520  56.3712000 124.4713670  96.3516160  55.7271700
 125.9642780  96.5109000  55.9213980 142.6320460  98.9516690  56.9846270
 143.0029290  98.1684010  56.5782240 143.2722390  99.6405790  56.8063570
 139.6154220 100.3353270  62.3976590 138.8014060 100.7650430  62.6602380
 140.0228420 100.9471680  61.7845640 141.6779660  98.3900960  49.2976860
 141.9528500  99.2979840  49.1696080 141.4890400  98.3263490  50.2338850
 138.0755270  91.4145810  50.5930490 138.4940150  91.2276790  49.7527150
 137.7691330  90.5624860  50.9033420 141.5745000  96.3269950  54.2906290
 141.1988600  95.5597880  53.8587580 140.8448120  96.7092650  54.7781220
 126.1640760  97.0057090  60.9115340 126.5313800  96.9184490  61.7911360
 125.5951580  96.2423640  60.8122200 140.9644620  95.4741470  63.9245810
 140.7330710  95.2454220  63.0243760 141.2249170  96.3941020  63.8790700
 125.7156760  93.9166180  64.8173760 124.8212810  93.8832940  65.1567470
 126.2554310  94.1152970  65.5825010 139.4032690  90.6997900  66.7025510
 140.2802870  90.7081300  67.0859510 139.4153530  89.9628740  66.0917860
 124.3402910  93.8303450  52.3137330 123.4366990  94.0933650  52.1388990
 124.8243530  94.1014620  51.5337290 140.8495960  94.5527440  57.5913530
 141.3733440  94.0590090  56.9603700 141.4355380  94.6877800  58.3361100
 141.0285680  94.6367310  61.1133080 140.0788390  94.6030850  61.2278070
 141.2098690  95.5467420  60.8782850 126.8830120  92.8868990  50.2231710
 127.5921820  92.4652210  49.7378990 126.1670060  92.9544220  49.5915060
 126.5304280  88.9408320  49.2634360 127.2532410  89.4817260  49.5815580
 126.8028800  88.6671740  48.3875900 140.3395930  93.8100790  53.5305940
 140.8355050  93.5771660  54.3154820 140.1412000  92.9712630  53.1143580
 126.2196470  88.1914510  59.1656980 126.8672660  87.6411890  58.7252140
 126.6398310  88.4457660  59.9872790 141.7683090  92.4461740  56.0643620
 141.6582370  92.2917780  57.0025890 142.5290680  91.9182680  55.8219030
 140.1148810  88.3855870  62.5226620 140.7521030  88.9990010  62.8885810
 140.2623700  88.4216530  61.5775850 142.6573360  90.2769660  49.3049760
 143.5822670  90.1450840  49.0968050 142.6349150  90.3562480  50.2586210
 142.7311850  91.0480320  51.9306470 141.9363350  90.9825440  52.4599380
 142.9355130  91.9830960  51.9191820 139.6730270 105.0871870  55.9244860
 140.2689340 104.7656440  55.2479280 139.9308420 104.6143690  56.7158130
 125.9728470  88.3470180  61.9082300 125.6243290  88.8034000  62.6740480
 125.6416170  87.4527310  61.9904730 127.5792840 101.5189780  66.0735490
 127.5362470 101.1482690  66.9549950 127.7103850 102.4567350  66.2137310
 131.2798870 103.0749370  61.6745210 131.0390230 103.3423930  60.7875730
 132.2201510 103.2455100  61.7296070 136.1227850  89.1952120  65.0694010
 136.7368260  89.5131410  64.4075090 136.6677410  88.7100710  65.6889870
 142.5403030 105.0943750  62.4755850 142.0461310 105.4912620  61.7582980
 141.9316320 104.4692960  62.8693130 126.6449110  87.8746380  65.1833070
 127.1932100  87.6934430  64.4199180 126.7104420  87.0840490  65.7189380
 127.4180870 104.4652030  63.1933270 126.8241190 104.3336730  63.9323310
 127.4104710 103.6290170  62.7275370 136.8635890  87.7584260  61.3963300
 135.9895730  88.0919370  61.1936230 136.7546640  87.2857440  62.2215170
 137.7707870  89.9655130  62.7805020 137.4421230  89.1506890  62.4006750
 138.7190170  89.9224940  62.6570710 140.2242480 105.7367170  59.7542590
 139.7645450 106.4882980  59.3800610 139.5954940 105.0173640  59.6957390
 127.0493100 101.8310410  62.1441310 126.3227160 101.2115700  62.0767260
 127.1102250 102.2251020  61.2739390 130.6538200 104.0455410  58.9290720
 131.1703220 103.4342770  58.4038980 131.3035580 104.5484190  59.4201730
 133.3933700 104.9363900  59.7559700 133.6811510 104.6818200  58.8792710
 133.9056920 104.3841260  60.3465270 141.0270350  89.0092440  56.3914120
 140.9658750  88.0653660  56.2445140 141.8062380  89.1172530  56.9367580
 125.3323100 105.1484800  55.3538070 125.1645140 104.5155480  56.0519960
 124.4657610 105.3544200  55.0032260 125.9551120  88.9801580  52.8569930
 126.7130480  89.0930460  52.2833960 125.4928290  89.8170780  52.8113360
 140.1424510  88.1604860  52.3595590 140.3375140  89.0588310  52.6263020
 139.3554380  87.9291940  52.8528540 126.9385800 103.8418030  52.7988210
 126.4133420 104.2226060  52.0950170 126.8630380 104.4668800  53.5197920
 128.3276270  89.5065630  51.3971900 128.8569030  88.7195430  51.2679850
 128.9604590  90.1856820  51.6307430 130.5214110  89.2440770  54.4517290
 129.8916850  88.5428080  54.6187420 129.9819250  90.0044900  54.2350450
 141.6951120 105.4005570  54.1202150 141.8703310 104.7143310  53.4763070
 140.9972690 105.9252620  53.7278820 129.5378770 105.7900410  51.6737460
 130.2697590 105.5059690  51.1261350 129.7972440 105.5513690  52.5636840
 128.6993560 101.9065140  51.6783790 128.0702440 102.3750240  52.2269620
 128.8141390 101.0614360  52.1129980 140.0283620 105.0849860  66.9468940
 140.8208940 104.5899090  66.7394900 140.3216770 105.7640000  67.5544550
 136.1543280  95.9570800  37.8284990 136.0737330  95.0425410  37.5576700
 135.7407700  96.4537870  37.1224700 134.2861320  97.7349820  39.7094260
 133.5103420  97.2550260  39.9992830 134.9374250  97.0555470  39.5350420
 138.3068750 102.1410010  38.4893390 137.8450280 101.3697250  38.8180560
 139.1194300 102.1676080  38.9945840 126.7119100  93.0071520  34.3712410
 125.8235800  93.3487490  34.2692290 126.9960290  92.8071840  33.4793240
 134.5332060 104.4268020  38.1097380 133.9143500 104.8825520  37.5391820
 135.3883840 104.5819480  37.7087080 133.7270310 100.4107010  39.7164420
 133.6578590  99.4696950  39.5553550 134.4890170 100.5008420  40.2886990
 134.7575480  93.2177390  39.9433350 135.1340300  92.3449270  39.8307020
 134.6594990  93.5536090  39.0523790 128.8880490  91.5903020  35.4050790
 128.9947240  92.4906750  35.7119550 127.9772850  91.5420990  35.1145440
 138.5399600  90.7127830  36.8761690 139.3609220  90.2224400  36.9187170
 138.5733680  91.3025490  37.6293530 142.8299150  92.7294580  43.4405320
 142.1251320  93.1176290  42.9220430 143.0957070  93.4244870  44.0426250
 129.0124320  89.1987950  44.0039390 129.0142760  89.7160340  43.1985290
 128.1828630  88.7218130  43.9809320 135.3995410  99.3107260  35.5029290
 134.7812680  99.7756710  34.9392010 135.9118660 100.0034740  35.9198800
 130.2627170  98.8383130  42.1812890 129.9296550  99.4652050  42.8233960
 130.4393850  99.3645010  41.4014560 138.7761080  92.6528210  39.6489230
 138.0716650  92.9413100  40.2292340 139.1373240  93.4628320  39.2888790
 129.4746270 100.8063930  43.9962070 130.0920270 101.4815010  43.7146520
 128.6139390 101.2151910  43.9049570 124.7678610  99.9963790  32.8768920
 124.3906590 100.4850890  32.1453820 125.0251680 100.6689070  33.5075450
 140.3923860 102.2703340  41.9116710 139.7087380 102.9402450  41.9033380
 140.9318150 102.4683990  41.1461570 141.8448000  92.0983000  40.0398440
 140.8972910  92.1321980  40.1713870 142.1697990  92.9121950  40.4247800
 132.3767540  88.3980180  38.3354430 132.6842520  87.8427070  37.6189930
 131.4468240  88.5324640  38.1527420 137.9282600 104.1147470  40.6261890
 137.9409760 103.7109760  39.7584150 137.3757820 104.8894760  40.5223320
 139.2228020 100.8363690  35.7152060 139.1124350  99.8938020  35.8401480
 139.2196270 101.1979330  36.6014820 137.3268040  99.0177310  41.9544500
 137.7436830  98.8037420  41.1197960 138.0507860  99.2750100  42.5253120
 134.7648300  96.4629010  35.0714550 133.8377580  96.3966390  35.3003020
 134.9173120  97.4009140  34.9569790 134.7517380  92.7346010  32.0681710
 133.8121050  92.8959970  32.1534170 135.0700640  93.4531690  31.5217700
 141.2730140  97.4164530  42.0460740 140.4448770  97.4857620  41.5710870
 141.8680620  98.0018840  41.5776570 138.7945590  98.0249310  35.5749800
 138.1758010  97.6868860  34.9276100 138.7770040  97.3809070  36.2828990
 138.2372150  94.2033850  42.9915610 137.8243330  95.0287560  43.2455600
 137.5048100  93.6178890  42.7991970 130.8386640 100.6761310  40.0173490
 130.5414930 100.0706780  39.3381270 131.7886460 100.7138620  39.9062850
 138.9272250 104.2493180  43.6796590 138.4502810 105.0565370  43.4869200
 138.2434040 103.5971510  43.8322800 129.9305070 100.4143000  46.6681290
 129.0333600 100.6382970  46.9154690 129.9557940 100.5377940  45.7192690
 136.9710290  97.2636120  32.5822550 137.4103570  96.4258550  32.4360370
 137.6838710  97.8965520  32.6686690 128.7576290  97.2856320  45.2438660
 128.6184060  98.1579120  45.6126060 127.8757650  96.9429130  45.0986600
 135.0805670 102.2032190  36.5503790 135.5201580 102.9456520  36.1359180
 135.0192560 102.4458760  37.4742750 130.5556640 103.2278020  47.4523810
 130.5272070 103.6320970  46.5852240 130.3921610 102.2988380  47.2895410
 140.5527430  88.5178930  30.8963590 140.2400090  88.6105760  31.7962660
 141.3139900  89.0959960  30.8461020 142.5071460 104.0105120  48.7487980
 142.9831180 104.4888010  49.4277060 143.1278620 103.9422610  48.0233480
 124.7094940  99.0553870  41.1609570 124.7875360  99.1902640  40.2165290
 125.3236620  98.3469760  41.3537690 125.9542570 100.7554060  37.5715750
 125.5470650 100.8968650  36.7169350 126.8455580 100.4714220  37.3686960
 141.9104710 101.2017970  45.9087990 142.0367770 100.9629850  44.9905170
 141.9526090 100.3702510  46.3810070 135.7721450 104.9045970  44.4782800
 136.2866120 104.8153980  45.2805230 134.9290530 105.2505670  44.7710710
 137.7475850 105.1901310  33.9066800 137.5876990 104.9004250  34.8048630
 137.5822560 104.4141440  33.3712030 130.2264230 104.9699840  35.6838420
 130.0506710 104.0535380  35.4706220 129.3719970 105.3287130  35.9236220
 137.4501980 102.6988870  32.4664800 136.7567140 102.6966160  31.8067080
 138.1924840 102.2748190  32.0358970 137.0151910 104.3251580  36.5413290
 137.4708860 103.5440960  36.8551910 137.3544430 105.0358400  37.0854470
 141.7628720  93.2550430  46.8737730 141.1472990  93.7630100  46.3453190
 141.4425140  92.3548760  46.8163670 129.5373230  89.2273800  38.7364600
 129.0941380  90.0083340  38.4049120 130.0958220  89.5503690  39.4435540
 133.8243040  92.0942320  44.3399920 133.3622410  92.3025340  45.1519860
 133.4221150  91.2801670  44.0370590 138.8247550  93.3151270  45.4696580
 137.9741140  93.0157020  45.7905650 138.6649340  93.5593280  44.5580400
 132.6532050  88.8484500  33.6170430 132.0286230  88.8444370  34.3423740
 132.5662170  87.9815460  33.2206400 131.5749130  89.7721130  40.5954200
 131.8721460  90.6783960  40.5146220 132.1234690  89.2839910  39.9813770
 136.5585210  94.3570740  35.0636500 135.9594100  95.0806540  34.8800120
 137.1064820  94.2947520  34.2812950 135.1650080  92.9934280  37.0939780
 135.5579650  93.3106480  36.2808470 135.5266930  92.1146160  37.2084300
 126.8997200  91.6606620  45.2839900 126.5060590  92.5081830  45.4912680
 126.2115600  91.0232990  45.4748540 124.3884480  93.5255200  30.5272700
 124.3059150  94.4685960  30.6687690 124.0367540  93.3830110  29.6485050
 135.7505220  95.5840030  41.1890560 135.0186340  96.0926840  41.5380660
 135.3529560  94.7670010  40.8879340 132.1882610  92.2594230  39.5943050
 132.1918670  91.8184180  38.7447590 133.0833730  92.5811560  39.7014870
 132.2502760  93.2606310  32.5849810 132.3715580  93.2192790  33.5335630
 131.8651270  94.1230460  32.4296540 136.2131130  91.0373710  40.6013500
 136.2303870  91.4882360  41.4455350 135.9646710  90.1379350  40.8146940
 131.2624260  95.5707450  31.9833110 130.6941160  95.1225700  31.3569020
 131.9713260  95.9300230  31.4498260 139.6401880  88.4505890  46.4399880
 139.9647650  87.7195550  46.9657860 139.6758390  88.1319530  45.5380870
 126.3393440  99.4719470  45.8599840 125.9548230  98.8313140  46.4582800
 126.6505630 100.1755590  46.4294570 132.4890580  96.3196010  41.3408460
 132.8560710  95.8454580  42.0869800 132.2995640  97.1937580  41.6816800
 128.8071740  99.5665640  34.2559520 128.0334000  99.0263260  34.0958240
 129.5366370  99.0472250  33.9177280 139.5659720  98.5631000  40.0485910
 140.2858840  99.0586290  39.6582020 139.3641540  97.8848890  39.4039780
 135.0269660  89.9568960  34.1915300 134.2134270  89.4582130  34.1160610
 134.8331610  90.7967210  33.7751650 137.7418050  94.3288610  32.4877460
 138.6297670  94.6405840  32.3128800 137.7123140  93.4560860  32.0958040
 128.8509140  99.2346020  37.8938330 129.3687810  98.4314280  37.8395220
 128.3993160  99.1725160  38.7355160 133.7378640 100.5012300  33.1665630
 134.0794340 101.2454530  32.6708950 132.9091350 100.8143420  33.5290460
 126.3353680  96.2007390  44.8064030 125.9768620  96.8661240  45.3937370
 126.0408240  95.3690940  45.1776650 134.8795250 101.4560630  45.6858710
 134.8939790 100.5241590  45.4677620 134.1720350 101.5420390  46.3248480
 140.0132320  95.6400450  31.9557320 139.9296040  96.0714670  31.1053760
 140.7326510  96.0998800  32.3884140 141.0906460  98.0967970  45.0327290
 140.3654650  98.6896750  44.8356680 141.6181920  98.0891510  44.2340660
 141.0419570 102.4942710  34.6839450 140.3995730 101.8398330  34.9583170
 140.6550230 102.8997800  33.9080120 136.6206050  99.8228140  38.5311140
 136.9729870  99.2256270  37.8712510 135.7368380  99.4972370  38.7019390
 132.7069330 100.5825830  35.9381550 133.3940460 101.1295040  36.3189140
 131.9201750 101.1266560  35.9731160 124.8461730  96.1998650  31.4298630
 125.7156580  96.4823450  31.7134550 124.3552050  97.0134520  31.3147440
 132.0096540  97.5871860  35.5506910 132.4659320  98.3977110  35.7767100
 131.6584750  97.2695000  36.3825400 134.3129150 103.0978200  42.7799210
 134.9571370 103.3037580  43.4572630 134.6758590 102.3366600  42.3270060
 135.5861230 101.1010550  41.4976660 136.2283460 100.4003710  41.6108830
 136.1110580 101.8808990  41.3173550 139.4316950 101.3859170  31.2215800
 139.2054530 100.6689610  31.8140440 139.0413150 101.1371610  30.3837550
 137.3598850 101.9005450  44.7012720 137.6955090 102.4872140  45.3790640
 136.4399190 101.7698160  44.9310510 125.2132980 105.4126030  31.9960260
 125.5730620 106.0115370  31.3417530 125.0725320 105.9585920  32.7695290
 124.9102250  89.6900630  45.4836130 124.1960770  89.8897550  46.0888740
 125.3297290  88.9140200  45.8550930 139.0133200  99.3031110  32.8829960
 138.7254900  99.7643800  33.6707840 139.8085370  98.8428880  33.1514180
 133.1887430 101.9496780  47.8700780 132.8684300 101.2306020  48.4146470
 132.5145790 102.6251850  47.9436840 131.2301600 102.7957230  32.8133930
 131.2211700 103.5286920  32.1978440 130.3099960 102.5488810  32.9060890
 126.8308240  98.0172120  33.5580690 126.2236190  98.7571020  33.5675990
 127.3057590  98.1071480  32.7318890 136.4041030  92.1822940  43.2337580
 136.7721850  91.3618150  43.5617150 135.5439230  92.2424830  43.6493230
 139.7703060  91.1379880  34.0425140 139.1416220  91.2425550  33.3283370
 139.2754980  91.3576660  34.8319020 134.2161200 102.8585470  31.4759120
 134.3173180 102.6549460  30.5461100 133.3162940 102.6043750  31.6806900
 131.7387090  93.4165830  35.4583020 131.0303240  93.8852170  35.8996630
 132.0231570  92.7587840  36.0928210 133.3643020  94.8362530  43.4575550
 133.8628270  95.3108350  44.1227400 133.5065970  93.9126050  43.6645580
 135.7702520  90.1416490  36.8978810 135.6470300  90.1602620  35.9488320
 136.7187080  90.1895430  37.0177210 132.8579310 105.3771790  36.1706790
 133.1120810 105.3393180  35.2486160 131.9091790 105.2505120  36.1635040
 129.9422110  91.7250910  32.8333730 130.7912640  92.1621060  32.7673920
 129.5753380  92.0371170  33.6605790 140.5709880  91.0530490  44.3003940
 140.0683480  91.7935890  44.6397750 141.3866540  91.4414490  43.9840730
 138.8631890  96.2963670  37.7465300 137.9222030  96.3113900  37.9212990
 139.1775960  95.5099630  38.1925600 128.8413530  97.9783270  31.3069260
 129.6076800  97.8664630  31.8694690 128.9188220  97.2821240  30.6546030
 127.5360290  95.4108340  31.9902150 127.6163880  94.4635850  32.1019550
 128.4280040  95.7415220  32.0962810 140.8657470 103.4672520  39.4219560
 140.9904890 104.2903690  39.8943370 141.7323030 103.2563250  39.0743710
 128.3375000 105.5603730  39.0936690 129.0737480 105.0119190  39.3645260
 128.7215920 106.4259740  38.9542680 125.2220480 101.6277300  34.9678200
 124.2960260 101.8698440  34.9583610 125.6876910 102.4551560  34.8462950
 127.3433280 104.7449800  48.2822270 128.1446010 105.0661850  48.6957670
 126.8285100 104.3845380  49.0042180 131.4477310 104.7334040  30.9162260
 132.2405920 105.0222870  30.4644050 130.9281660 104.3026210  30.2374740
 136.1797910 100.8529670  48.2297680 135.5736070 100.8761270  47.4893430
 135.8752020 100.1212710  48.7664930 137.6098280 104.5809960  46.8407090
 138.5620030 104.4967980  46.7907330 137.4626500 105.2451670  47.5140880
 140.5007480 103.9604170  32.3399000 140.2148990 103.5469310  31.5253180
 140.3027030 104.8891880  32.2199520 131.9654710  99.9537450  30.7804610
 131.8605350  99.3389800  31.5065990 131.7978930  99.4303340  29.9967620
 135.2057440  99.0157480  31.3846600 134.6567540  99.4626780  32.0289340
 135.8276700  98.5106730  31.9084270 139.2592380 100.3699580  47.3168860
 140.0001850 100.7075340  46.8136320 138.4965060 100.5391640  46.7638630
 127.0954170  95.3752850  48.1208390 127.1359510  95.0766720  49.0293620
 127.9499670  95.7760460  47.9615910 130.8732560  97.9748400  33.2811900
 131.2948980  97.8088270  34.1243290 130.9983400  97.1648630  32.7867040
 129.0359980  93.9544950  46.0882880 128.5056440  93.4635900  45.4606220
 129.7048050  94.3829150  45.5540810 133.3860200  96.9986010  30.5289000
 133.9065860  96.2835030  30.1630150 134.0328600  97.6371880  30.8289510
 137.9338040  98.4214410  45.8524070 138.3479060  98.5759490  46.7014490
 136.9989040  98.5469630  46.0149850 138.4060210  95.7610570  47.8563220
 138.9880980  95.0062890  47.7683700 138.5821980  96.2918010  47.0794700
 129.5232280  90.9207320  46.1680170 129.4289150  90.3028070  45.4431040
 128.9429670  91.6473610  45.9410080 132.2893720  89.4780560  43.2007560
 131.8411020  89.5004820  42.3553110 131.6558920  89.0799580  43.7977860
 132.6953270  98.3734890  43.8220000 133.1141380  99.2167620  43.6496240
 131.7761900  98.5106930  43.5926780 137.3705070  96.6588260  43.7820350
 136.8440290  97.1830880  43.1785490 137.7136410  97.2915650  44.4130080
 129.7691460  94.0481630  30.2270060 129.5680520  93.1848990  30.5883400
 129.5983510  93.9614990  29.2891660 130.5460690 104.6787900  44.9377730
 130.0081780 105.4033960  44.6186430 130.7994650 104.2018240  44.1475070
 136.6179370  92.2638230  46.6966680 135.9294890  91.6019770  46.6316670
 137.3385390  91.8176500  47.1415140 137.2479770  88.8589860  32.7556940
 137.5282060  88.0157760  33.1116360 136.4745500  89.0912970  33.2695690
 128.5674260  91.1482250  30.2147940 128.8700160  91.1549680  29.3067090
 129.3068850  90.7980110  30.7115600 133.4022900 105.9139110  45.1964380
 133.3281600 106.8174250  45.5036750 132.5001740 105.5951010  45.1686450
 131.7859190  90.0916870  31.2004140 131.4381190  89.4140860  30.6206590
 131.9871960  89.6306380  32.0147530 133.9508230 105.0797620  32.8190740
 134.8459020 105.4182590  32.8409500 133.9825860 104.3577030  32.1915020
 127.5904390 100.4524670  31.0477740 128.0279260 100.9954340  31.7035320
 128.0752120  99.6271620  31.0574080 129.4012110 101.5722710  36.1599970
 129.1007650 101.4487680  37.0603880 129.2949600 100.7131300  35.7515700
 140.9302580 103.6101290  45.5256940 140.3304570 103.6693850  44.7820860
 141.0596480 102.6706270  45.6553790 142.1704030 101.3519110  30.8626650
 141.3396990 101.4195760  31.3333880 142.3475860 102.2423230  30.5593510
 141.6260490  98.0966590  33.3660850 142.3879400  98.6663240  33.4720540
 141.6414860  97.5293790  34.1369160 142.6320460  98.9516690  38.2102780
 143.0029290  98.1684010  37.8038750 143.2722390  99.6405790  38.0320080
 139.6154220 100.3353270  43.6233100 138.8014060 100.7650430  43.8858890
 140.0228420 100.9471680  43.0102150 141.6779660  98.3900960  30.5233370
 141.9528500  99.2979840  30.3952590 141.4890400  98.3263490  31.4595360
 138.0755270  91.4145810  31.8187000 138.4940150  91.2276790  30.9783660
 137.7691330  90.5624860  32.1289930 141.5745000  96.3269950  35.5162800
 141.1988600  95.5597880  35.0844090 140.8448120  96.7092650  36.0037730
 140.9644620  95.4741470  45.1502320 140.7330710  95.2454220  44.2500270
 141.2249170  96.3941020  45.1047210 125.7156760  93.9166180  46.0430270
 124.8212810  93.8832940  46.3823980 126.2554310  94.1152970  46.8081520
 139.4032690  90.6997900  47.9282020 140.2802870  90.7081300  48.3116020
 139.4153530  89.9628740  47.3174370 124.3402910  93.8303450  33.5393840
 123.4366990  94.0933650  33.3645500 124.8243530  94.1014620  32.7593800
 140.8495960  94.5527440  38.8170040 141.3733440  94.0590090  38.1860210
 141.4355380  94.6877800  39.5617610 141.0285680  94.6367310  42.3389590
 140.0788390  94.6030850  42.4534580 141.2098690  95.5467420  42.1039360
 126.8830120  92.8868990  31.4488220 127.5921820  92.4652210  30.9635500
 126.1670060  92.9544220  30.8171570 126.5304280  88.9408320  30.4890870
 127.2532410  89.4817260  30.8072090 126.8028800  88.6671740  29.6132410
 140.3395930  93.8100790  34.7562450 140.8355050  93.5771660  35.5411330
 140.1412000  92.9712630  34.3400090 126.2196470  88.1914510  40.3913490
 126.8672660  87.6411890  39.9508650 126.6398310  88.4457660  41.2129300
 141.7683090  92.4461740  37.2900130 141.6582370  92.2917780  38.2282400
 142.5290680  91.9182680  37.0475540 140.1148810  88.3855870  43.7483130
 140.7521030  88.9990010  44.1142320 140.2623700  88.4216530  42.8032360
 142.6573360  90.2769660  30.5306270 143.5822670  90.1450840  30.3224560
 142.6349150  90.3562480  31.4842720 142.7311850  91.0480320  33.1562980
 141.9363350  90.9825440  33.6855890 142.9355130  91.9830960  33.1448330
 139.6730270 105.0871870  37.1501370 140.2689340 104.7656440  36.4735790
 139.9308420 104.6143690  37.9414640 125.9728470  88.3470180  43.1338810
 125.6243290  88.8034000  43.8996990 125.6416170  87.4527310  43.2161240
 127.5792840 101.5189780  47.2992000 127.5362470 101.1482690  48.1806460
 127.7103850 102.4567350  47.4393820 131.2798870 103.0749370  42.9001720
 131.0390230 103.3423930  42.0132240 132.2201510 103.2455100  42.9552580
 133.4853290  89.5382060  46.6558230 133.4242180  90.1303890  47.4053640
 134.4253670  89.4308020  46.5108490 136.1227850  89.1952120  46.2950520
 136.7368260  89.5131410  45.6331600 136.6677410  88.7100710  46.9146380
 142.5403030 105.0943750  43.7012360 142.0461310 105.4912620  42.9839490
 141.9316320 104.4692960  44.0949640 126.6449110  87.8746380  46.4089580
 127.1932100  87.6934430  45.6455690 126.7104420  87.0840490  46.9445890
 136.8635890  87.7584260  42.6219810 135.9895730  88.0919370  42.4192740
 136.7546640  87.2857440  43.4471680 137.7707870  89.9655130  44.0061530
 137.4421230  89.1506890  43.6263260 138.7190170  89.9224940  43.8827220
 140.2242480 105.7367170  40.9799100 139.7645450 106.4882980  40.6057120
 139.5954940 105.0173640  40.9213900 130.6538200 104.0455410  40.1547230
 131.1703220 103.4342770  39.6295490 131.3035580 104.5484190  40.6458240
 133.3933700 104.9363900  40.9816210 133.6811510 104.6818200  40.1049220
 133.9056920 104.3841260  41.5721780 134.6110710  88.6754100  41.5612720
 133.8282500  89.1499600  41.8409480 134.3173640  87.7708930  41.4525900
 139.1631780  89.3777200  39.6061810 139.6039870  89.3222300  38.7583410
 138.8939370  90.2935210  39.6771990 141.0270350  89.0092440  37.6170630
 140.9658750  88.0653660  37.4701650 141.8062380  89.1172530  38.1624090
 125.9551120  88.9801580  34.0826440 126.7130480  89.0930460  33.5090470
 125.4928290  89.8170780  34.0369870 132.4964930  91.0940850  37.0728750
 131.6839440  90.7197740  36.7324630 133.0006570  90.3385930  37.3749940
 136.9989910  87.7583300  38.3111820 137.6019280  88.3303510  38.7860340
 136.2582900  88.3222740  38.0885720 140.1424510  88.1604860  33.5852100
 140.3375140  89.0588310  33.8519530 139.3554380  87.9291940  34.0785050
 126.9385800 103.8418030  34.0244720 126.4133420 104.2226060  33.3206680
 126.8630380 104.4668800  34.7454430 128.3276270  89.5065630  32.6228410
 128.8569030  88.7195430  32.4936360 128.9604590  90.1856820  32.8563940
 130.5214110  89.2440770  35.6773800 129.8916850  88.5428080  35.8443930
 129.9819250  90.0044900  35.4606960 133.4606060 105.8580000  48.3484410
 134.3873370 105.6224270  48.3920370 133.4456490 106.6852000  47.8670440
 141.6951120 105.4005570  35.3458660 141.8703310 104.7143310  34.7019580
 140.9972690 105.9252620  34.9535330 130.6469670  88.5224750  48.1126290
 130.3653940  89.0258350  47.3487110 131.0289370  87.7246500  47.7468420
 129.5378770 105.7900410  32.8993970 130.2697590 105.5059690  32.3517860
 129.7972440 105.5513690  33.7893350 128.6993560 101.9065140  32.9040300
 128.0702440 102.3750240  33.4526130 128.8141390 101.0614360  33.3386490
 137.2485130  87.9378330  48.6906760 137.1350580  88.2572940  49.5858280
 138.0654870  88.3390840  48.3944040 140.0283620 105.0849860  48.1725450
 140.8208940 104.5899090  47.9651410 140.3216770 105.7640000  48.7801060
 136.1543280  95.9570800  19.0541500 136.0737330  95.0425410  18.7833210
 135.7407700  96.4537870  18.3481210 134.2861320  97.7349820  20.9350770
 133.5103420  97.2550260  21.2249340 134.9374250  97.0555470  20.7606930
 128.3027150  98.0469630  21.8126530 127.4712030  97.7918340  22.2123040
 128.9108130  98.1180400  22.5484450 138.3068750 102.1410010  19.7149900
 137.8450280 101.3697250  20.0437070 139.1194300 102.1676080  20.2202350
 128.2828410 102.0809720  22.0084550 128.5856450 101.1907460  21.8294770
 129.0272000 102.6379940  21.7806800 126.7119100  93.0071520  15.5968920
 125.8235800  93.3487490  15.4948800 126.9960290  92.8071840  14.7049750
 124.6752110  95.6077170  21.4808620 125.2468220  94.8399370  21.4812260
 124.6753650  95.9065930  20.5715230 134.5332060 104.4268020  19.3353890
 133.9143500 104.8825520  18.7648330 135.3883840 104.5819480  18.9343590
 133.7270310 100.4107010  20.9420930 133.6578590  99.4696950  20.7810060
 134.4890170 100.5008420  21.5143500 125.9176980  91.0161530  23.2677550
 125.7379820  90.1187280  23.5480310 125.5157060  91.5633400  23.9424500
 134.7575480  93.2177390  21.1689860 135.1340300  92.3449270  21.0563530
 134.6594990  93.5536090  20.2780300 128.8880490  91.5903020  16.6307300
 128.9947240  92.4906750  16.9376060 127.9772850  91.5420990  16.3401950
 138.5399600  90.7127830  18.1018200 139.3609220  90.2224400  18.1443680
 138.5733680  91.3025490  18.8550040 126.5363650  93.5122030  21.8759890
 127.2173760  93.7760400  22.4947290 126.2211700  92.6722900  22.2097900
 130.7288220  94.5589390  20.9632480 131.2366440  95.0570360  21.6037500
 131.2601460  93.7824590  20.7871840 142.8299150  92.7294580  24.6661830
 142.1251320  93.1176290  24.1476940 143.0957070  93.4244870  25.2682760
 129.0124320  89.1987950  25.2295900 129.0142760  89.7160340  24.4241800
 128.1828630  88.7218130  25.2065830 135.3995410  99.3107260  16.7285800
 134.7812680  99.7756710  16.1648520 135.9118660 100.0034740  17.1455310
 130.2627170  98.8383130  23.4069400 129.9296550  99.4652050  24.0490470
 130.4393850  99.3645010  22.6271070 138.7761080  92.6528210  20.8745740
 138.0716650  92.9413100  21.4548850 139.1373240  93.4628320  20.5145300
 128.6939650  90.9097910  23.2366350 129.0356460  91.7539960  22.9420220
 127.7555460  91.0581650  23.3531690 129.4746270 100.8063930  25.2218580
 130.0920270 101.4815010  24.9403030 128.6139390 101.2151910  25.1306080
 124.7678610  99.9963790  14.1025430 124.3906590 100.4850890  13.3710330
 125.0251680 100.6689070  14.7331960 140.3923860 102.2703340  23.1373220
 139.7087380 102.9402450  23.1289890 140.9318150 102.4683990  22.3718080
 141.8448000  92.0983000  21.2654950 140.8972910  92.1321980  21.3970380
 142.1697990  92.9121950  21.6504310 132.3767540  88.3980180  19.5610940
 132.6842520  87.8427070  18.8446440 131.4468240  88.5324640  19.3783930
 137.9282600 104.1147470  21.8518400 137.9409760 103.7109760  20.9840660
 137.3757820 104.8894760  21.7479830 139.2228020 100.8363690  16.9408570
 139.1124350  99.8938020  17.0657990 139.2196270 101.1979330  17.8271330
 137.3268040  99.0177310  23.1801010 137.7436830  98.8037420  22.3454470
 138.0507860  99.2750100  23.7509630 134.7648300  96.4629010  16.2971060
 133.8377580  96.3966390  16.5259530 134.9173120  97.4009140  16.1826300
 134.7517380  92.7346010  13.2938220 133.8121050  92.8959970  13.3790680
 135.0700640  93.4531690  12.7474210 141.2730140  97.4164530  23.2717250
 140.4448770  97.4857620  22.7967380 141.8680620  98.0018840  22.8033080
 138.7945590  98.0249310  16.8006310 138.1758010  97.6868860  16.1532610
 138.7770040  97.3809070  17.5085500 138.2372150  94.2033850  24.2172120
 137.8243330  95.0287560  24.4712110 137.5048100  93.6178890  24.0248480
 130.3704940  96.9893750  19.0790790 129.9661940  96.2771000  18.5836690
 130.4568060  96.6446990  19.9678830 130.8386640 100.6761310  21.2430000
 130.5414930 100.0706780  20.5637780 131.7886460 100.7138620  21.1319360
 129.0833560  93.7636960  22.8589830 129.6348150  93.8732300  22.0843080
 129.5977070  94.1374560  23.5745060 138.9272250 104.2493180  24.9053100
 138.4502810 105.0565370  24.7125710 138.2434040 103.5971510  25.0579310
 129.9305070 100.4143000  27.8937800 129.0333600 100.6382970  28.1411200
 129.9557940 100.5377940  26.9449200 136.9710290  97.2636120  13.8079060
 137.4103570  96.4258550  13.6616880 137.6838710  97.8965520  13.8943200
 128.7576290  97.2856320  26.4695170 128.6184060  98.1579120  26.8382570
 127.8757650  96.9429130  26.3243110 135.0805670 102.2032190  17.7760300
 135.5201580 102.9456520  17.3615690 135.0192560 102.4458760  18.6999260
 130.5556640 103.2278020  28.6780320 130.5272070 103.6320970  27.8108750
 130.3921610 102.2988380  28.5151920 140.5527430  88.5178930  12.1220100
 140.2400090  88.6105760  13.0219170 141.3139900  89.0959960  12.0717530
 127.0709570  95.8838730  16.5797440 126.9507170  96.6100820  15.9678710
 126.7610460  95.1141640  16.1025350 142.5071460 104.0105120  29.9744490
 142.9831180 104.4888010  30.6533570 143.1278620 103.9422610  29.2489990
 124.7094940  99.0553870  22.3866080 124.7875360  99.1902640  21.4421800
 125.3236620  98.3469760  22.5794200 125.9542570 100.7554060  18.7972260
 125.5470650 100.8968650  17.9425860 126.8455580 100.4714220  18.5943470
 141.9104710 101.2017970  27.1344500 142.0367770 100.9629850  26.2161680
 141.9526090 100.3702510  27.6066580 135.7721450 104.9045970  25.7039310
 136.2866120 104.8153980  26.5061740 134.9290530 105.2505670  25.9967220
 137.7475850 105.1901310  15.1323310 137.5876990 104.9004250  16.0305140
 137.5822560 104.4141440  14.5968540 130.2264230 104.9699840  16.9094930
 130.0506710 104.0535380  16.6962730 129.3719970 105.3287130  17.1492730
 137.4501980 102.6988870  13.6921310 136.7567140 102.6966160  13.0323590
 138.1924840 102.2748190  13.2615480 137.0151910 104.3251580  17.7669800
 137.4708860 103.5440960  18.0808420 137.3544430 105.0358400  18.3110980
 141.7628720  93.2550430  28.0994240 141.1472990  93.7630100  27.5709700
 141.4425140  92.3548760  28.0420180 124.7654460 100.0968040  24.9260540
 124.9285500  99.6273400  24.1079910 125.2306910  99.5891600  25.5909380
 129.5373230  89.2273800  19.9621110 129.0941380  90.0083340  19.6305630
 130.0958220  89.5503690  20.6692050 133.8243040  92.0942320  25.5656430
 133.3622410  92.3025340  26.3776370 133.4221150  91.2801670  25.2627100
 138.8247550  93.3151270  26.6953090 137.9741140  93.0157020  27.0162160
 138.6649340  93.5593280  25.7836910 135.9197260  94.8153020  28.7951880
 136.2450670  93.9816770  28.4554110 136.7077590  95.3381540  28.9430210
 132.6532050  88.8484500  14.8426940 132.0286230  88.8444370  15.5680250
 132.5662170  87.9815460  14.4462910 131.5749130  89.7721130  21.8210710
 131.8721460  90.6783960  21.7402730 132.1234690  89.2839910  21.2070280
 129.3287450  94.3507370  17.6902360 129.1028370  94.1344540  18.5948980
 128.5479980  94.7835830  17.3448330 136.5585210  94.3570740  16.2893010
 135.9594100  95.0806540  16.1056630 137.1064820  94.2947520  15.5069460
 131.7686660  95.2492950  28.3562630 131.6730260  94.3087680  28.2063030
 132.6118640  95.4708020  27.9610700 135.1650080  92.9934280  18.3196290
 135.5579650  93.3106480  17.5064980 135.5266930  92.1146160  18.4340810
 126.8997200  91.6606620  26.5096410 126.5060590  92.5081830  26.7169190
 126.2115600  91.0232990  26.7005050 133.4742250  91.7441590  29.5793150
 132.7840570  91.5513790  30.2139240 134.2174550  92.0276230  30.1117450
 124.2014250  89.5835080  20.5426490 123.9127300  90.1537940  21.2551470
 124.9460010  89.1039530  20.9057720 124.3884480  93.5255200  11.7529210
 124.3059150  94.4685960  11.8944200 124.0367540  93.3830110  10.8741560
 135.7505220  95.5840030  22.4147070 135.0186340  96.0926840  22.7637170
 135.3529560  94.7670010  22.1135850 132.1882610  92.2594230  20.8199560
 132.1918670  91.8184180  19.9704100 133.0833730  92.5811560  20.9271380
 128.0384990  92.1420720  19.7793770 127.6985040  92.6195950  20.5360820
 127.2762310  91.6885840  19.4194870 132.2502760  93.2606310  13.8106320
 132.3715580  93.2192790  14.7592140 131.8651270  94.1230460  13.6553050
 136.2131130  91.0373710  21.8270010 136.2303870  91.4882360  22.6711860
 135.9646710  90.1379350  22.0403450 131.2624260  95.5707450  13.2089620
 130.6941160  95.1225700  12.5825530 131.9713260  95.9300230  12.6754770
 139.6401880  88.4505890  27.6656390 139.9647650  87.7195550  28.1914370
 139.6758390  88.1319530  26.7637380 126.3393440  99.4719470  27.0856350
 125.9548230  98.8313140  27.6839310 126.6505630 100.1755590  27.6551080
 132.4890580  96.3196010  22.5664970 132.8560710  95.8454580  23.3126310
 132.2995640  97.1937580  22.9073310 125.3531070  91.0639700  18.6958440
 125.0677990  90.6995370  19.5337060 125.2909930  90.3320160  18.0821580
 130.2789950  95.3604650  24.8849180 129.9747020  96.2396630  25.1099540
 131.2336410  95.4204440  24.9206620 128.8071740  99.5665640  15.4816030
 128.0334000  99.0263260  15.3214750 129.5366370  99.0472250  15.1433790
 139.5659720  98.5631000  21.2742420 140.2858840  99.0586290  20.8838530
 139.3641540  97.8848890  20.6296290 135.0269660  89.9568960  15.4171810
 134.2134270  89.4582130  15.3417120 134.8331610  90.7967210  15.0008160
 134.9478520  98.6340060  27.1611420 134.8815830  97.7135730  26.9069010
 134.3183660  98.7315500  27.8756060 137.7418050  94.3288610  13.7133970
 138.6297670  94.6405840  13.5385310 137.7123140  93.4560860  13.3214550
 128.8509140  99.2346020  19.1194840 129.3687810  98.4314280  19.0651730
 128.3993160  99.1725160  19.9611670 133.7378640 100.5012300  14.3922140
 134.0794340 101.2454530  13.8965460 132.9091350 100.8143420  14.7546970
 126.3353680  96.2007390  26.0320540 125.9768620  96.8661240  26.6193880
 126.0408240  95.3690940  26.4033160 129.5366800  96.6591630  28.9160090
 129.2366940  96.8048810  28.0187910 130.3078040  96.0996920  28.8233480
 134.8795250 101.4560630  26.9115220 134.8939790 100.5241590  26.6934130
 134.1720350 101.5420390  27.5504990 140.0132320  95.6400450  13.1813830
 139.9296040  96.0714670  12.3310270 140.7326510  96.0998800  13.6140650
 141.0906460  98.0967970  26.2583800 140.3654650  98.6896750  26.0613190
 141.6181920  98.0891510  25.4597170 141.0419570 102.4942710  15.9095960
 140.3995730 101.8398330  16.1839680 140.6550230 102.8997800  15.1336630
 136.6206050  99.8228140  19.7567650 136.9729870  99.2256270  19.0969020
 135.7368380  99.4972370  19.9275900 132.7069330 100.5825830  17.1638060
 133.3940460 101.1295040  17.5445650 131.9201750 101.1266560  17.1987670
 124.8461730  96.1998650  12.6555140 125.7156580  96.4823450  12.9391060
 124.3552050  97.0134520  12.5403950 132.0096540  97.5871860  16.7763420
 132.4659320  98.3977110  17.0023610 131.6584750  97.2695000  17.6081910
 134.3129150 103.0978200  24.0055720 134.9571370 103.3037580  24.6829140
 134.6758590 102.3366600  23.5526570 127.9108320  87.9309510  17.2485940
 127.7822950  87.9227410  18.1970860 127.0870340  88.2692600  16.8976950
 135.5861230 101.1010550  22.7233170 136.2283460 100.4003710  22.8365340
 136.1110580 101.8808990  22.5430060 139.4316950 101.3859170  12.4472310
 139.2054530 100.6689610  13.0396950 139.0413150 101.1371610  11.6094060
 137.3598850 101.9005450  25.9269230 137.6955090 102.4872140  26.6047150
 136.4399190 101.7698160  26.1567020 125.2132980 105.4126030  13.2216770
 125.5730620 106.0115370  12.5674040 125.0725320 105.9585920  13.9951800
 124.9102250  89.6900630  26.7092640 124.1960770  89.8897550  27.3145250
 125.3297290  88.9140200  27.0807440 139.0133200  99.3031110  14.1086470
 138.7254900  99.7643800  14.8964350 139.8085370  98.8428880  14.3770690
 125.1974840 103.6780890  27.6959170 125.3065960 102.7375630  27.5554560
 124.5455400 103.9435640  27.0472900 133.1887430 101.9496780  29.0957290
 132.8684300 101.2306020  29.6402980 132.5145790 102.6251850  29.1693350
 131.2301600 102.7957230  14.0390440 131.2211700 103.5286920  13.4234950
 130.3099960 102.5488810  14.1317400 126.8308240  98.0172120  14.7837200
 126.2236190  98.7571020  14.7932500 127.3057590  98.1071480  13.9575400
 136.4041030  92.1822940  24.4594090 136.7721850  91.3618150  24.7873660
 135.5439230  92.2424830  24.8749740 139.7703060  91.1379880  15.2681650
 139.1416220  91.2425550  14.5539880 139.2754980  91.3576660  16.0575530
 134.2161200 102.8585470  12.7015630 134.3173180 102.6549460  11.7717610
 133.3162940 102.6043750  12.9063410 131.7387090  93.4165830  16.6839530
 131.0303240  93.8852170  17.1253140 132.0231570  92.7587840  17.3184720
 133.3643020  94.8362530  24.6832060 133.8628270  95.3108350  25.3483910
 133.5065970  93.9126050  24.8902090 135.7702520  90.1416490  18.1235320
 135.6470300  90.1602620  17.1744830 136.7187080  90.1895430  18.2433720
 132.8579310 105.3771790  17.3963300 133.1120810 105.3393180  16.4742670
 131.9091790 105.2505120  17.3891550 129.9422110  91.7250910  14.0590240
 130.7912640  92.1621060  13.9930430 129.5753380  92.0371170  14.8862300
 140.5709880  91.0530490  25.5260450 140.0683480  91.7935890  25.8654260
 141.3866540  91.4414490  25.2097240 138.8631890  96.2963670  18.9721810
 137.9222030  96.3113900  19.1469500 139.1775960  95.5099630  19.4182110
 128.8413530  97.9783270  12.5325770 129.6076800  97.8664630  13.0951200
 128.9188220  97.2821240  11.8802540 127.5360290  95.4108340  13.2158660
 127.6163880  94.4635850  13.3276060 128.4280040  95.7415220  13.3219320
 140.8657470 103.4672520  20.6476070 140.9904890 104.2903690  21.1199880
 141.7323030 103.2563250  20.3000220 128.3375000 105.5603730  20.3193200
 129.0737480 105.0119190  20.5901770 128.7215920 106.4259740  20.1799190
 125.2220480 101.6277300  16.1934710 124.2960260 101.8698440  16.1840120
 125.6876910 102.4551560  16.0719460 127.3433280 104.7449800  29.5078780
 128.1446010 105.0661850  29.9214180 126.8285100 104.3845380  30.2298690
 131.4477310 104.7334040  12.1418770 132.2405920 105.0222870  11.6900560
 130.9281660 104.3026210  11.4631250 136.1797910 100.8529670  29.4554190
 135.5736070 100.8761270  28.7149940 135.8752020 100.1212710  29.9921440
 137.6098280 104.5809960  28.0663600 138.5620030 104.4967980  28.0163840
 137.4626500 105.2451670  28.7397390 140.5007480 103.9604170  13.5655510
 140.2148990 103.5469310  12.7509690 140.3027030 104.8891880  13.4456030
 125.0631090  97.2323260  28.4514830 125.5670110  96.6530540  29.0231060
 124.3238510  97.5163490  28.9891200 131.9654710  99.9537450  12.0061120
 131.8605350  99.3389800  12.7322500 131.7978930  99.4303340  11.2224130
 132.1169030  98.6394250  27.9850350 131.3514700  99.2079250  27.9005020
 132.2984990  98.3470460  27.0918580 135.2057440  99.0157480  12.6103110
 134.6567540  99.4626780  13.2545850 135.8276700  98.5106730  13.1340780
 139.2592380 100.3699580  28.5425370 140.0001850 100.7075340  28.0392830
 138.4965060 100.5391640  27.9895140 127.0954170  95.3752850  29.3464900
 127.1359510  95.0766720  30.2550130 127.9499670  95.7760460  29.1872420
 130.8732560  97.9748400  14.5068410 131.2948980  97.8088270  15.3499800
 130.9983400  97.1648630  14.0123550 129.0359980  93.9544950  27.3139390
 128.5056440  93.4635900  26.6862730 129.7048050  94.3829150  26.7797320
 133.3860200  96.9986010  11.7545510 133.9065860  96.2835030  11.3886660
 134.0328600  97.6371880  12.0546020 137.9338040  98.4214410  27.0780580
 138.3479060  98.5759490  27.9271000 136.9989040  98.5469630  27.2406360
 138.4060210  95.7610570  29.0819730 138.9880980  95.0062890  28.9940210
 138.5821980  96.2918010  28.3051210 129.5232280  90.9207320  27.3936680
 129.4289150  90.3028070  26.6687550 128.9429670  91.6473610  27.1666590
 132.2893720  89.4780560  24.4264070 131.8411020  89.5004820  23.5809620
 131.6558920  89.0799580  25.0234370 132.6953270  98.3734890  25.0476510
 133.1141380  99.2167620  24.8752750 131.7761900  98.5106930  24.8183290
 135.0317170  96.1051070  26.4314350 135.1513380  95.5092210  27.1709190
 135.8911170  96.1420760  26.0115650 137.3705070  96.6588260  25.0076860
 136.8440290  97.1830880  24.4042000 137.7136410  97.2915650  25.6386590
 129.7691460  94.0481630  11.4526570 129.5680520  93.1848990  11.8139910
 129.5983510  93.9614990  10.5148170 130.5460690 104.6787900  26.1634240
 130.0081780 105.4033960  25.8442940 130.7994650 104.2018240  25.3731580
 131.7985940  92.6472420  27.6890170 132.3885630  92.3388270  28.3767990
 130.9806180  92.1752170  27.8450070 136.6179370  92.2638230  27.9223190
 135.9294890  91.6019770  27.8573180 137.3385390  91.8176500  28.3671650
 137.2479770  88.8589860  13.9813450 137.5282060  88.0157760  14.3372870
 136.4745500  89.0912970  14.4952200 128.5674260  91.1482250  11.4404450
 128.8700160  91.1549680  10.5323600 129.3068850  90.7980110  11.9372110
 133.4022900 105.9139110  26.4220890 133.3281600 106.8174250  26.7293260
 132.5001740 105.5951010  26.3942960 131.7859190  90.0916870  12.4260650
 131.4381190  89.4140860  11.8463100 131.9871960  89.6306380  13.2404040
 133.9508230 105.0797620  14.0447250 134.8459020 105.4182590  14.0666010
 133.9825860 104.3577030  13.4171530 127.5904390 100.4524670  12.2734250
 128.0279260 100.9954340  12.9291830 128.0752120  99.6271620  12.2830590
 124.8050190 103.2413700  19.7254510 125.1353200 102.3734760  19.4933150
 125.2341190 103.4472220  20.5559470 129.4012110 101.5722710  17.3856480
 129.1007650 101.4487680  18.2860390 129.2949600 100.7131300  16.9772210
 125.2940400 104.1084290  22.4636140 124.8571390 104.2885090  23.2960290
 125.8618080 104.8658910  22.3217860 140.9302580 103.6101290  26.7513450
 140.3304570 103.6693850  26.0077370 141.0596480 102.6706270  26.8810300
 142.1704030 101.3519110  12.0883160 141.3396990 101.4195760  12.5590390
 142.3475860 102.2423230  11.7850020 141.6260490  98.0966590  14.5917360
 142.3879400  98.6663240  14.6977050 141.6414860  97.5293790  15.3625670
 125.1264830  96.6204520  18.8225020 124.4713670  96.3516160  18.1784720
 125.9642780  96.5109000  18.3727000 142.6320460  98.9516690  19.4359290
 143.0029290  98.1684010  19.0295260 143.2722390  99.6405790  19.2576590
 139.6154220 100.3353270  24.8489610 138.8014060 100.7650430  25.1115400
 140.0228420 100.9471680  24.2358660 141.6779660  98.3900960  11.7489880
 141.9528500  99.2979840  11.6209100 141.4890400  98.3263490  12.6851870
 138.0755270  91.4145810  13.0443510 138.4940150  91.2276790  12.2040170
 137.7691330  90.5624860  13.3546440 141.5745000  96.3269950  16.7419310
 141.1988600  95.5597880  16.3100600 140.8448120  96.7092650  17.2294240
 126.1640760  97.0057090  23.3628360 126.5313800  96.9184490  24.2424380
 125.5951580  96.2423640  23.2635220 140.9644620  95.4741470  26.3758830
 140.7330710  95.2454220  25.4756780 141.2249170  96.3941020  26.3303720
 125.7156760  93.9166180  27.2686780 124.8212810  93.8832940  27.6080490
 126.2554310  94.1152970  28.0338030 139.4032690  90.6997900  29.1538530
 140.2802870  90.7081300  29.5372530 139.4153530  89.9628740  28.5430880
 124.3402910  93.8303450  14.7650350 123.4366990  94.0933650  14.5902010
 124.8243530  94.1014620  13.9850310 140.8495960  94.5527440  20.0426550
 141.3733440  94.0590090  19.4116720 141.4355380  94.6877800  20.7874120
 141.0285680  94.6367310  23.5646100 140.0788390  94.6030850  23.6791090
 141.2098690  95.5467420  23.3295870 126.8830120  92.8868990  12.6744730
 127.5921820  92.4652210  12.1892010 126.1670060  92.9544220  12.0428080
 126.5304280  88.9408320  11.7147380 127.2532410  89.4817260  12.0328600
 126.8028800  88.6671740  10.8388920 140.3395930  93.8100790  15.9818960
 140.8355050  93.5771660  16.7667840 140.1412000  92.9712630  15.5656600
 126.2196470  88.1914510  21.6170000 126.8672660  87.6411890  21.1765160
 126.6398310  88.4457660  22.4385810 141.7683090  92.4461740  18.5156640
 141.6582370  92.2917780  19.4538910 142.5290680  91.9182680  18.2732050
 140.1148810  88.3855870  24.9739640 140.7521030  88.9990010  25.3398830
 140.2623700  88.4216530  24.0288870 142.6573360  90.2769660  11.7562780
 143.5822670  90.1450840  11.5481070 142.6349150  90.3562480  12.7099230
 142.7311850  91.0480320  14.3819490 141.9363350  90.9825440  14.9112400
 142.9355130  91.9830960  14.3704840 139.6730270 105.0871870  18.3757880
 140.2689340 104.7656440  17.6992300 139.9308420 104.6143690  19.1671150
 125.9728470  88.3470180  24.3595320 125.6243290  88.8034000  25.1253500
 125.6416170  87.4527310  24.4417750 127.5792840 101.5189780  28.5248510
 127.5362470 101.1482690  29.4062970 127.7103850 102.4567350  28.6650330
 131.2798870 103.0749370  24.1258230 131.0390230 103.3423930  23.2388750
 132.2201510 103.2455100  24.1809090 133.4853290  89.5382060  27.8814740
 133.4242180  90.1303890  28.6310150 134.4253670  89.4308020  27.7365000
 136.1227850  89.1952120  27.5207030 136.7368260  89.5131410  26.8588110
 136.6677410  88.7100710  28.1402890 142.5403030 105.0943750  24.9268870
 142.0461310 105.4912620  24.2096000 141.9316320 104.4692960  25.3206150
 126.6449110  87.8746380  27.6346090 127.1932100  87.6934430  26.8712200
 126.7104420  87.0840490  28.1702400 127.4180870 104.4652030  25.6446290
 126.8241190 104.3336730  26.3836330 127.4104710 103.6290170  25.1788390
 136.8635890  87.7584260  23.8476320 135.9895730  88.0919370  23.6449250
 136.7546640  87.2857440  24.6728190 137.7707870  89.9655130  25.2318040
 137.4421230  89.1506890  24.8519770 138.7190170  89.9224940  25.1083730
 140.2242480 105.7367170  22.2055610 139.7645450 106.4882980  21.8313630
 139.5954940 105.0173640  22.1470410 127.0493100 101.8310410  24.5954330
 126.3227160 101.2115700  24.5280280 127.1102250 102.2251020  23.7252410
 130.6538200 104.0455410  21.3803740 131.1703220 103.4342770  20.8552000
 131.3035580 104.5484190  21.8714750 133.3933700 104.9363900  22.2072720
 133.6811510 104.6818200  21.3305730 133.9056920 104.3841260  22.7978290
 134.6110710  88.6754100  22.7869230 133.8282500  89.1499600  23.0665990
 134.3173640  87.7708930  22.6782410 139.1631780  89.3777200  20.8318320
 139.6039870  89.3222300  19.9839920 138.8939370  90.2935210  20.9028500
 141.0270350  89.0092440  18.8427140 140.9658750  88.0653660  18.6958160
 141.8062380  89.1172530  19.3880600 125.3323100 105.1484800  17.8051090
 125.1645140 104.5155480  18.5032980 124.4657610 105.3544200  17.4545280
 125.9551120  88.9801580  15.3082950 126.7130480  89.0930460  14.7346980
 125.4928290  89.8170780  15.2626380 132.4964930  91.0940850  18.2985260
 131.6839440  90.7197740  17.9581140 133.0006570  90.3385930  18.6006450
 136.9989910  87.7583300  19.5368330 137.6019280  88.3303510  20.0116850
 136.2582900  88.3222740  19.3142230 140.1424510  88.1604860  14.8108610
 140.3375140  89.0588310  15.0776040 139.3554380  87.9291940  15.3041560
 126.9385800 103.8418030  15.2501230 126.4133420 104.2226060  14.5463190
 126.8630380 104.4668800  15.9710940 128.3276270  89.5065630  13.8484920
 128.8569030  88.7195430  13.7192870 128.9604590  90.1856820  14.0820450
 130.5214110  89.2440770  16.9030310 129.8916850  88.5428080  17.0700440
 129.9819250  90.0044900  16.6863470 133.4606060 105.8580000  29.5740920
 134.3873370 105.6224270  29.6176880 133.4456490 106.6852000  29.0926950
 141.6951120 105.4005570  16.5715170 141.8703310 104.7143310  15.9276090
 140.9972690 105.9252620  16.1791840 130.6469670  88.5224750  29.3382800
 130.3653940  89.0258350  28.5743620 131.0289370  87.7246500  28.9724930
 129.5378770 105.7900410  14.1250480 130.2697590 105.5059690  13.5774370
 129.7972440 105.5513690  15.0149860 128.6993560 101.9065140  14.1296810
 128.0702440 102.3750240  14.6782640 128.8141390 101.0614360  14.5643000
 137.2485130  87.9378330  29.9163270 137.1350580  88.2572940  30.8114790
 138.0654870  88.3390840  29.6200550 140.0283620 105.0849860  29.3981960
 140.8208940 104.5899090  29.1907920 140.3216770 105.7640000  30.0057570
 134.2861320  97.7349820   2.1607280 133.5103420  97.2550260   2.4505850
 134.9374250  97.0555470   1.9863440 128.3027150  98.0469630   3.0383040
 127.4712030  97.7918340   3.4379550 128.9108130  98.1180400   3.7740960
 128.2828410 102.0809720   3.2341060 128.5856450 101.1907460   3.0551280
 129.0272000 102.6379940   3.0063310 124.6752110  95.6077170   2.7065130
 125.2468220  94.8399370   2.7068770 124.6753650  95.9065930   1.7971740
 133.7270310 100.4107010   2.1677440 133.6578590  99.4696950   2.0066570
 134.4890170 100.5008420   2.7400010 125.9176980  91.0161530   4.4934060
 125.7379820  90.1187280   4.7736820 125.5157060  91.5633400   5.1681010
 126.5363650  93.5122030   3.1016400 127.2173760  93.7760400   3.7203800
 126.2211700  92.6722900   3.4354410 130.7288220  94.5589390   2.1888990
 131.2366440  95.0570360   2.8294010 131.2601460  93.7824590   2.0128350
 142.8299150  92.7294580   5.8918340 142.1251320  93.1176290   5.3733450
 143.0957070  93.4244870   6.4939270 129.0124320  89.1987950   6.4552410
 129.0142760  89.7160340   5.6498310 128.1828630  88.7218130   6.4322340
 130.2627170  98.8383130   4.6325910 129.9296550  99.4652050   5.2746980
 130.4393850  99.3645010   3.8527580 138.7761080  92.6528210   2.1002250
 138.0716650  92.9413100   2.6805360 139.1373240  93.4628320   1.7401810
 128.6939650  90.9097910   4.4622860 129.0356460  91.7539960   4.1676730
 127.7555460  91.0581650   4.5788200 129.4746270 100.8063930   6.4475090
 130.0920270 101.4815010   6.1659540 128.6139390 101.2151910   6.3562590
 140.3923860 102.2703340   4.3629730 139.7087380 102.9402450   4.3546400
 140.9318150 102.4683990   3.5974590 141.8448000  92.0983000   2.4911460
 140.8972910  92.1321980   2.6226890 142.1697990  92.9121950   2.8760820
 137.9282600 104.1147470   3.0774910 137.9409760 103.7109760   2.2097170
 137.3757820 104.8894760   2.9736340 137.3268040  99.0177310   4.4057520
 137.7436830  98.8037420   3.5710980 138.0507860  99.2750100   4.9766140
 141.2730140  97.4164530   4.4973760 140.4448770  97.4857620   4.0223890
 141.8680620  98.0018840   4.0289590 138.2372150  94.2033850   5.4428630
 137.8243330  95.0287560   5.6968620 137.5048100  93.6178890   5.2504990
 130.8386640 100.6761310   2.4686510 130.5414930 100.0706780   1.7894290
 131.7886460 100.7138620   2.3575870 129.0833560  93.7636960   4.0846340
 129.6348150  93.8732300   3.3099590 129.5977070  94.1374560   4.8001570
 138.9272250 104.2493180   6.1309610 138.4502810 105.0565370   5.9382220
 138.2434040 103.5971510   6.2835820 129.9305070 100.4143000   9.1194310
 129.0333600 100.6382970   9.3667710 129.9557940 100.5377940   8.1705710
 128.7576290  97.2856320   7.6951680 128.6184060  98.1579120   8.0639080
 127.8757650  96.9429130   7.5499620 130.5556640 103.2278020   9.9036830
 130.5272070 103.6320970   9.0365260 130.3921610 102.2988380   9.7408430
 142.5071460 104.0105120  11.2001000 142.9831180 104.4888010  11.8790080
 143.1278620 103.9422610  10.4746500 124.7094940  99.0553870   3.6122590
 124.7875360  99.1902640   2.6678310 125.3236620  98.3469760   3.8050710
 141.9104710 101.2017970   8.3601010 142.0367770 100.9629850   7.4418190
 141.9526090 100.3702510   8.8323090 135.7721450 104.9045970   6.9295820
 136.2866120 104.8153980   7.7318250 134.9290530 105.2505670   7.2223730
 141.7628720  93.2550430   9.3250750 141.1472990  93.7630100   8.7966210
 141.4425140  92.3548760   9.2676690 124.7654460 100.0968040   6.1517050
 124.9285500  99.6273400   5.3336420 125.2306910  99.5891600   6.8165890
 133.8243040  92.0942320   6.7912940 133.3622410  92.3025340   7.6032880
 133.4221150  91.2801670   6.4883610 138.8247550  93.3151270   7.9209600
 137.9741140  93.0157020   8.2418670 138.6649340  93.5593280   7.0093420
 135.9197260  94.8153020  10.0208390 136.2450670  93.9816770   9.6810620
 136.7077590  95.3381540  10.1686720 131.5749130  89.7721130   3.0467220
 131.8721460  90.6783960   2.9659240 132.1234690  89.2839910   2.4326790
 131.7686660  95.2492950   9.5819140 131.6730260  94.3087680   9.4319540
 132.6118640  95.4708020   9.1867210 126.8997200  91.6606620   7.7352920
 126.5060590  92.5081830   7.9425700 126.2115600  91.0232990   7.9261560
 133.4742250  91.7441590  10.8049660 132.7840570  91.5513790  11.4395750
 134.2174550  92.0276230  11.3373960 124.2014250  89.5835080   1.7683000
 123.9127300  90.1537940   2.4807980 124.9460010  89.1039530   2.1314230
 135.7505220  95.5840030   3.6403580 135.0186340  96.0926840   3.9893680
 135.3529560  94.7670010   3.3392360 136.2131130  91.0373710   3.0526520
 136.2303870  91.4882360   3.8968370 135.9646710  90.1379350   3.2659960
 139.6401880  88.4505890   8.8912900 139.9647650  87.7195550   9.4170880
 139.6758390  88.1319530   7.9893890 126.3393440  99.4719470   8.3112860
 125.9548230  98.8313140   8.9095820 126.6505630 100.1755590   8.8807590
 132.4890580  96.3196010   3.7921480 132.8560710  95.8454580   4.5382820
 132.2995640  97.1937580   4.1329820 130.2789950  95.3604650   6.1105690
 129.9747020  96.2396630   6.3356050 131.2336410  95.4204440   6.1463130
 139.5659720  98.5631000   2.4998930 140.2858840  99.0586290   2.1095040
 139.3641540  97.8848890   1.8552800 134.9478520  98.6340060   8.3867930
 134.8815830  97.7135730   8.1325520 134.3183660  98.7315500   9.1012570
 126.3353680  96.2007390   7.2577050 125.9768620  96.8661240   7.8450390
 126.0408240  95.3690940   7.6289670 129.5366800  96.6591630  10.1416600
 129.2366940  96.8048810   9.2444420 130.3078040  96.0996920  10.0489990
 134.8795250 101.4560630   8.1371730 134.8939790 100.5241590   7.9190640
 134.1720350 101.5420390   8.7761500 141.0906460  98.0967970   7.4840310
 140.3654650  98.6896750   7.2869700 141.6181920  98.0891510   6.6853680
 134.3129150 103.0978200   5.2312230 134.9571370 103.3037580   5.9085650
 134.6758590 102.3366600   4.7783080 135.5861230 101.1010550   3.9489680
 136.2283460 100.4003710   4.0621850 136.1110580 101.8808990   3.7686570
 137.3598850 101.9005450   7.1525740 137.6955090 102.4872140   7.8303660
 136.4399190 101.7698160   7.3823530 124.9102250  89.6900630   7.9349150
 124.1960770  89.8897550   8.5401760 125.3297290  88.9140200   8.3063950
 125.1974840 103.6780890   8.9215680 125.3065960 102.7375630   8.7811070
 124.5455400 103.9435640   8.2729410 133.1887430 101.9496780  10.3213800
 132.8684300 101.2306020  10.8659490 132.5145790 102.6251850  10.3949860
 136.4041030  92.1822940   5.6850600 136.7721850  91.3618150   6.0130170
 135.5439230  92.2424830   6.1006250 133.3643020  94.8362530   5.9088570
 133.8628270  95.3108350   6.5740420 133.5065970  93.9126050   6.1158600
 140.5709880  91.0530490   6.7516960 140.0683480  91.7935890   7.0910770
 141.3866540  91.4414490   6.4353750 127.3433280 104.7449800  10.7335290
 128.1446010 105.0661850  11.1470690 126.8285100 104.3845380  11.4555200
 136.1797910 100.8529670  10.6810700 135.5736070 100.8761270   9.9406450
 135.8752020 100.1212710  11.2177950 137.6098280 104.5809960   9.2920110
 138.5620030 104.4967980   9.2420350 137.4626500 105.2451670   9.9653900
 125.0631090  97.2323260   9.6771340 125.5670110  96.6530540  10.2487570
 124.3238510  97.5163490  10.2147710 132.1169030  98.6394250   9.2106860
 131.3514700  99.2079250   9.1261530 132.2984990  98.3470460   8.3175090
 139.2592380 100.3699580   9.7681880 140.0001850 100.7075340   9.2649340
 138.4965060 100.5391640   9.2151650 127.0954170  95.3752850  10.5721410
 127.1359510  95.0766720  11.4806640 127.9499670  95.7760460  10.4128930
 129.0359980  93.9544950   8.5395900 128.5056440  93.4635900   7.9119240
 129.7048050  94.3829150   8.0053830 137.9338040  98.4214410   8.3037090
 138.3479060  98.5759490   9.1527510 136.9989040  98.5469630   8.4662870
 138.4060210  95.7610570  10.3076240 138.9880980  95.0062890  10.2196720
 138.5821980  96.2918010   9.5307720 129.5232280  90.9207320   8.6193190
 129.4289150  90.3028070   7.8944060 128.9429670  91.6473610   8.3923100
 132.2893720  89.4780560   5.6520580 131.8411020  89.5004820   4.8066130
 131.6558920  89.0799580   6.2490880 132.6953270  98.3734890   6.2733020
 133.1141380  99.2167620   6.1009260 131.7761900  98.5106930   6.0439800
 135.0317170  96.1051070   7.6570860 135.1513380  95.5092210   8.3965700
 135.8911170  96.1420760   7.2372160 137.3705070  96.6588260   6.2333370
 136.8440290  97.1830880   5.6298510 137.7136410  97.2915650   6.8643100
 130.5460690 104.6787900   7.3890750 130.0081780 105.4033960   7.0699450
 130.7994650 104.2018240   6.5988090 131.7985940  92.6472420   8.9146680
 132.3885630  92.3388270   9.6024500 130.9806180  92.1752170   9.0706580
 136.6179370  92.2638230   9.1479700 135.9294890  91.6019770   9.0829690
 137.3385390  91.8176500   9.5928160 133.4022900 105.9139110   7.6477400
 133.3281600 106.8174250   7.9549770 132.5001740 105.5951010   7.6199470
 125.2940400 104.1084290   3.6892650 124.8571390 104.2885090   4.5216800
 125.8618080 104.8658910   3.5474370 140.9302580 103.6101290   7.9769960
 140.3304570 103.6693850   7.2333880 141.0596480 102.6706270   8.1066810
 139.6154220 100.3353270   6.0746120 138.8014060 100.7650430   6.3371910
 140.0228420 100.9471680   5.4615170 126.1640760  97.0057090   4.5884870
 126.5313800  96.9184490   5.4680890 125.5951580  96.2423640   4.4891730
 140.9644620  95.4741470   7.6015340 140.7330710  95.2454220   6.7013290
 141.2249170  96.3941020   7.5560230 125.7156760  93.9166180   8.4943290
 124.8212810  93.8832940   8.8337000 126.2554310  94.1152970   9.2594540
 139.4032690  90.6997900  10.3795040 140.2802870  90.7081300  10.7629040
 139.4153530  89.9628740   9.7687390 141.0285680  94.6367310   4.7902610
 140.0788390  94.6030850   4.9047600 141.2098690  95.5467420   4.5552380
 126.2196470  88.1914510   2.8426510 126.8672660  87.6411890   2.4021670
 126.6398310  88.4457660   3.6642320 140.1148810  88.3855870   6.1996150
 140.7521030  88.9990010   6.5655340 140.2623700  88.4216530   5.2545380
 125.9728470  88.3470180   5.5851830 125.6243290  88.8034000   6.3510010
 125.6416170  87.4527310   5.6674260 127.5792840 101.5189780   9.7505020
 127.5362470 101.1482690  10.6319480 127.7103850 102.4567350   9.8906840
 131.2798870 103.0749370   5.3514740 131.0390230 103.3423930   4.4645260
 132.2201510 103.2455100   5.4065600 133.4853290  89.5382060   9.1071250
 133.4242180  90.1303890   9.8566660 134.4253670  89.4308020   8.9621510
 136.1227850  89.1952120   8.7463540 136.7368260  89.5131410   8.0844620
 136.6677410  88.7100710   9.3659400 142.5403030 105.0943750   6.1525380
 142.0461310 105.4912620   5.4352510 141.9316320 104.4692960   6.5462660
 126.6449110  87.8746380   8.8602600 127.1932100  87.6934430   8.0968710
 126.7104420  87.0840490   9.3958910 127.4180870 104.4652030   6.8702800
 126.8241190 104.3336730   7.6092840 127.4104710 103.6290170   6.4044900
 136.8635890  87.7584260   5.0732830 135.9895730  88.0919370   4.8705760
 136.7546640  87.2857440   5.8984700 137.7707870  89.9655130   6.4574550
 137.4421230  89.1506890   6.0776280 138.7190170  89.9224940   6.3340240
 140.2242480 105.7367170   3.4312120 139.7645450 106.4882980   3.0570140
 139.5954940 105.0173640   3.3726920 127.0493100 101.8310410   5.8210840
 126.3227160 101.2115700   5.7536790 127.1102250 102.2251020   4.9508920
 130.6538200 104.0455410   2.6060250 131.1703220 103.4342770   2.0808510
 131.3035580 104.5484190   3.0971260 133.3933700 104.9363900   3.4329230
 133.6811510 104.6818200   2.5562240 133.9056920 104.3841260   4.0234800
 134.6110710  88.6754100   4.0125740 133.8282500  89.1499600   4.2922500
 134.3173640  87.7708930   3.9038920 133.4606060 105.8580000  10.7997430
 134.3873370 105.6224270  10.8433390 133.4456490 106.6852000  10.3183460
 130.6469670  88.5224750  10.5639310 130.3653940  89.0258350   9.8000130
 131.0289370  87.7246500  10.1981440 137.2485130  87.9378330  11.1419780
 137.1350580  88.2572940  12.0371300 138.0654870  88.3390840  10.8457060
 140.0283620 105.0849860  10.6238470 140.8208940 104.5899090  10.4164430
 140.3216770 105.7640000  11.2314080 136.1543280  77.1827310 150.4745930
 136.0737330  76.2681920 150.2037640 135.7407700  77.6794380 149.7685640
 138.3068750  83.3666520 151.1354330 137.8450280  82.5953760 151.4641500
 139.1194300  83.3932590 151.6406780 126.7119100  74.2328030 147.0173350
 125.8235800  74.5744000 146.9153230 126.9960290  74.0328350 146.1254180
 134.5332060  85.6524530 150.7558320 133.9143500  86.1082030 150.1852760
 135.3883840  85.8075990 150.3548020 128.8880490  72.8159530 148.0511730
 128.9947240  73.7163260 148.3580490 127.9772850  72.7677500 147.7606380
 138.5399600  71.9384340 149.5222630 139.3609220  71.4480910 149.5648110
 138.5733680  72.5282000 150.2754470 135.3995410  80.5363770 148.1490230
 134.7812680  81.0013220 147.5852950 135.9118660  81.2291250 148.5659740
 124.7678610  81.2220300 145.5229860 124.3906590  81.7107400 144.7914760
 125.0251680  81.8945580 146.1536390 132.3767540  69.6236690 150.9815370
 132.6842520  69.0683580 150.2650870 131.4468240  69.7581150 150.7988360
 139.2228020  82.0620200 148.3613000 139.1124350  81.1194530 148.4862420
 139.2196270  82.4235840 149.2475760 134.7648300  77.6885520 147.7175490
 133.8377580  77.6222900 147.9463960 134.9173120  78.6265650 147.6030730
 134.7517380  73.9602520 144.7142650 133.8121050  74.1216480 144.7995110
 135.0700640  74.6788200 144.1678640 138.7945590  79.2505820 148.2210740
 138.1758010  78.9125370 147.5737040 138.7770040  78.6065580 148.9289930
 130.3704940  78.2150260 150.4995220 129.9661940  77.5027510 150.0041120
 130.4568060  77.8703500 151.3883260 136.9710290  78.4892630 145.2283490
 137.4103570  77.6515060 145.0821310 137.6838710  79.1222030 145.3147630
 135.0805670  83.4288700 149.1964730 135.5201580  84.1713030 148.7820120
 135.0192560  83.6715270 150.1203690 140.5527430  69.7435440 143.5424530
 140.2400090  69.8362270 144.4423600 141.3139900  70.3216470 143.4921960
 127.0709570  77.1095240 148.0001870 126.9507170  77.8357330 147.3883140
 126.7610460  76.3398150 147.5229780 125.9542570  81.9810570 150.2176690
 125.5470650  82.1225160 149.3630290 126.8455580  81.6970730 150.0147900
 137.7475850  86.4157820 146.5527740 137.5876990  86.1260760 147.4509570
 137.5822560  85.6397950 146.0172970 130.2264230  86.1956350 148.3299360
 130.0506710  85.2791890 148.1167160 129.3719970  86.5543640 148.5697160
 137.4501980  83.9245380 145.1125740 136.7567140  83.9222670 144.4528020
 138.1924840  83.5004700 144.6819910 137.0151910  85.5508090 149.1874230
 137.4708860  84.7697470 149.5012850 137.3544430  86.2614910 149.7315410
 129.5373230  70.4530310 151.3825540 129.0941380  71.2339850 151.0510060
 130.0958220  70.7760200 152.0896480 132.6532050  70.0741010 146.2631370
 132.0286230  70.0700880 146.9884680 132.5662170  69.2071970 145.8667340
 129.3287450  75.5763880 149.1106790 129.1028370  75.3601050 150.0153410
 128.5479980  76.0092340 148.7652760 136.5585210  75.5827250 147.7097440
 135.9594100  76.3063050 147.5261060 137.1064820  75.5204030 146.9273890
 135.1650080  74.2190790 149.7400720 135.5579650  74.5362990 148.9269410
 135.5266930  73.3402670 149.8545240 124.3884480  74.7511710 143.1733640
 124.3059150  75.6942470 143.3148630 124.0367540  74.6086620 142.2945990
 132.1882610  73.4850740 152.2403990 132.1918670  73.0440690 151.3908530
 133.0833730  73.8068070 152.3475810 128.0384990  73.3677230 151.1998200
 127.6985040  73.8452460 151.9565250 127.2762310  72.9142350 150.8399300
 132.2502760  74.4862820 145.2310750 132.3715580  74.4449300 146.1796570
 131.8651270  75.3486970 145.0757480 131.2624260  76.7963960 144.6294050
 130.6941160  76.3482210 144.0029960 131.9713260  77.1556740 144.0959200
 125.3531070  72.2896210 150.1162870 125.0677990  71.9251880 150.9541490
 125.2909930  71.5576670 149.5026010 128.8071740  80.7922150 146.9020460
 128.0334000  80.2519770 146.7419180 129.5366370  80.2728760 146.5638220
 135.0269660  71.1825470 146.8376240 134.2134270  70.6838640 146.7621550
 134.8331610  72.0223720 146.4212590 137.7418050  75.5545120 145.1338400
 138.6297670  75.8662350 144.9589740 137.7123140  74.6817370 144.7418980
 128.8509140  80.4602530 150.5399270 129.3687810  79.6570790 150.4856160
 128.3993160  80.3981670 151.3816100 133.7378640  81.7268810 145.8126570
 134.0794340  82.4711040 145.3169890 132.9091350  82.0399930 146.1751400
 140.0132320  76.8656960 144.6018260 139.9296040  77.2971180 143.7514700
 140.7326510  77.3255310 145.0345080 141.0419570  83.7199220 147.3300390
 140.3995730  83.0654840 147.6044110 140.6550230  84.1254310 146.5541060
 136.6206050  81.0484650 151.1772080 136.9729870  80.4512780 150.5173450
 135.7368380  80.7228880 151.3480330 132.7069330  81.8082340 148.5842490
 133.3940460  82.3551550 148.9650080 131.9201750  82.3523070 148.6192100
 124.8461730  77.4255160 144.0759570 125.7156580  77.7079960 144.3595490
 124.3552050  78.2391030 143.9608380 132.0096540  78.8128370 148.1967850
 132.4659320  79.6233620 148.4228040 131.6584750  78.4951510 149.0286340
 127.9108320  69.1566020 148.6690370 127.7822950  69.1483920 149.6175290
 127.0870340  69.4949110 148.3181380 139.4316950  82.6115680 143.8676740
 139.2054530  81.8946120 144.4601380 139.0413150  82.3628120 143.0298490
 125.2132980  86.6382540 144.6421200 125.5730620  87.2371880 143.9878470
 125.0725320  87.1842430 145.4156230 139.0133200  80.5287620 145.5290900
 138.7254900  80.9900310 146.3168780 139.8085370  80.0685390 145.7975120
 131.2301600  84.0213740 145.4594870 131.2211700  84.7543430 144.8439380
 130.3099960  83.7745320 145.5521830 126.8308240  79.2428630 146.2041630
 126.2236190  79.9827530 146.2136930 127.3057590  79.3327990 145.3779830
 139.7703060  72.3636390 146.6886080 139.1416220  72.4682060 145.9744310
 139.2754980  72.5833170 147.4779960 134.2161200  84.0841980 144.1220060
 134.3173180  83.8805970 143.1922040 133.3162940  83.8300260 144.3267840
 131.7387090  74.6422340 148.1043960 131.0303240  75.1108680 148.5457570
 132.0231570  73.9844350 148.7389150 135.7702520  71.3673000 149.5439750
 135.6470300  71.3859130 148.5949260 136.7187080  71.4151940 149.6638150
 132.8579310  86.6028300 148.8167730 133.1120810  86.5649690 147.8947100
 131.9091790  86.4761630 148.8095980 129.9422110  72.9507420 145.4794670
 130.7912640  73.3877570 145.4134860 129.5753380  73.2627680 146.3066730
 138.8631890  77.5220180 150.3926240 137.9222030  77.5370410 150.5673930
 139.1775960  76.7356140 150.8386540 128.8413530  79.2039780 143.9530200
 129.6076800  79.0921140 144.5155630 128.9188220  78.5077750 143.3006970
 127.5360290  76.6364850 144.6363090 127.6163880  75.6892360 144.7480490
 128.4280040  76.9671730 144.7423750 128.3375000  86.7860240 151.7397630
 129.0737480  86.2375700 152.0106200 128.7215920  87.6516250 151.6003620
 125.2220480  82.8533810 147.6139140 124.2960260  83.0954950 147.6044550
 125.6876910  83.6808070 147.4923890 131.4477310  85.9590550 143.5623200
 132.2405920  86.2479380 143.1104990 130.9281660  85.5282720 142.8835680
 140.5007480  85.1860680 144.9859940 140.2148990  84.7725820 144.1714120
 140.3027030  86.1148390 144.8660460 131.9654710  81.1793960 143.4265550
 131.8605350  80.5646310 144.1526930 131.7978930  80.6559850 142.6428560
 135.2057440  80.2413990 144.0307540 134.6567540  80.6883290 144.6750280
 135.8276700  79.7363240 144.5545210 130.8732560  79.2004910 145.9272840
 131.2948980  79.0344780 146.7704230 130.9983400  78.3905140 145.4327980
 133.3860200  78.2242520 143.1749940 133.9065860  77.5091540 142.8091090
 134.0328600  78.8628390 143.4750450 129.7691460  75.2738140 142.8731000
 129.5680520  74.4105500 143.2344340 129.5983510  75.1871500 141.9352600
 137.2479770  70.0846370 145.4017880 137.5282060  69.2414270 145.7577300
 136.4745500  70.3169480 145.9156630 128.5674260  72.3738760 142.8608880
 128.8700160  72.3806190 141.9528030 129.3068850  72.0236620 143.3576540
 131.7859190  71.3173380 143.8465080 131.4381190  70.6397370 143.2667530
 131.9871960  70.8562890 144.6608470 133.9508230  86.3054130 145.4651680
 134.8459020  86.6439100 145.4870440 133.9825860  85.5833540 144.8375960
 127.5904390  81.6781180 143.6938680 128.0279260  82.2210850 144.3496260
 128.0752120  80.8528130 143.7035020 124.8050190  84.4670210 151.1458940
 125.1353200  83.5991270 150.9137580 125.2341190  84.6728730 151.9763900
 129.4012110  82.7979220 148.8060910 129.1007650  82.6744190 149.7064820
 129.2949600  81.9387810 148.3976640 142.1704030  82.5775620 143.5087590
 141.3396990  82.6452270 143.9794820 142.3475860  83.4679740 143.2054450
 141.6260490  79.3223100 146.0121790 142.3879400  79.8919750 146.1181480
 141.6414860  78.7550300 146.7830100 125.1264830  77.8461030 150.2429450
 124.4713670  77.5772670 149.5989150 125.9642780  77.7365510 149.7931430
 142.6320460  80.1773200 150.8563720 143.0029290  79.3940520 150.4499690
 143.2722390  80.8662300 150.6781020 141.6779660  79.6157470 143.1694310
 141.9528500  80.5236350 143.0413530 141.4890400  79.5520000 144.1056300
 138.0755270  72.6402320 144.4647940 138.4940150  72.4533300 143.6244600
 137.7691330  71.7881370 144.7750870 141.5745000  77.5526460 148.1623740
 141.1988600  76.7854390 147.7305030 140.8448120  77.9349160 148.6498670
 124.3402910  75.0559960 146.1854780 123.4366990  75.3190160 146.0106440
 124.8243530  75.3271130 145.4054740 140.8495960  75.7783950 151.4630980
 141.3733440  75.2846600 150.8321150 141.4355380  75.9134310 152.2078550
 126.8830120  74.1125500 144.0949160 127.5921820  73.6908720 143.6096440
 126.1670060  74.1800730 143.4632510 126.5304280  70.1664830 143.1351810
 127.2532410  70.7073770 143.4533030 126.8028800  69.8928250 142.2593350
 140.3395930  75.0357300 147.4023390 140.8355050  74.8028170 148.1872270
 140.1412000  74.1969140 146.9861030 141.7683090  73.6718250 149.9361070
 141.6582370  73.5174290 150.8743340 142.5290680  73.1439190 149.6936480
 142.6573360  71.5026170 143.1767210 143.5822670  71.3707350 142.9685500
 142.6349150  71.5818990 144.1303660 142.7311850  72.2736830 145.8023920
 141.9363350  72.2081950 146.3316830 142.9355130  73.2087470 145.7909270
 139.6730270  86.3128380 149.7962310 140.2689340  85.9912950 149.1196730
 139.9308420  85.8400200 150.5875580 139.1631780  70.6033710 152.2522750
 139.6039870  70.5478810 151.4044350 138.8939370  71.5191720 152.3232930
 141.0270350  70.2348950 150.2631570 140.9658750  69.2910170 150.1162590
 141.8062380  70.3429040 150.8085030 125.3323100  86.3741310 149.2255520
 125.1645140  85.7411990 149.9237410 124.4657610  86.5800710 148.8749710
 125.9551120  70.2058090 146.7287380 126.7130480  70.3186970 146.1551410
 125.4928290  71.0427290 146.6830810 132.4964930  72.3197360 149.7189690
 131.6839440  71.9454250 149.3785570 133.0006570  71.5642440 150.0210880
 136.9989910  68.9839810 150.9572760 137.6019280  69.5560020 151.4321280
 136.2582900  69.5479250 150.7346660 140.1424510  69.3861370 146.2313040
 140.3375140  70.2844820 146.4980470 139.3554380  69.1548450 146.7245990
 126.9385800  85.0674540 146.6705660 126.4133420  85.4482570 145.9667620
 126.8630380  85.6925310 147.3915370 128.3276270  70.7322140 145.2689350
 128.8569030  69.9451940 145.1397300 128.9604590  71.4113330 145.5024880
 130.5214110  70.4697280 148.3234740 129.8916850  69.7684590 148.4904870
 129.9819250  71.2301410 148.1067900 141.6951120  86.6262080 147.9919600
 141.8703310  85.9399820 147.3480520 140.9972690  87.1509130 147.5996270
 129.5378770  87.0156920 145.5454910 130.2697590  86.7316200 144.9978800
 129.7972440  86.7770200 146.4354290 128.6993560  83.1321650 145.5501240
 128.0702440  83.6006750 146.0987070 128.8141390  82.2870870 145.9847430
 136.1543280  77.1827310 131.7002440 136.0737330  76.2681920 131.4294150
 135.7407700  77.6794380 130.9942150 134.2861320  78.9606330 133.5811710
 133.5103420  78.4806770 133.8710280 134.9374250  78.2811980 133.4067870
 128.3027150  79.2726140 134.4587470 127.4712030  79.0174850 134.8583980
 128.9108130  79.3436910 135.1945390 138.3068750  83.3666520 132.3610840
 137.8450280  82.5953760 132.6898010 139.1194300  83.3932590 132.8663290
 128.2828410  83.3066230 134.6545490 128.5856450  82.4163970 134.4755710
 129.0272000  83.8636450 134.4267740 126.7119100  74.2328030 128.2429860
 125.8235800  74.5744000 128.1409740 126.9960290  74.0328350 127.3510690
 124.6752110  76.8333680 134.1269560 125.2468220  76.0655880 134.1273200
 124.6753650  77.1322440 133.2176170 134.5332060  85.6524530 131.9814830
 133.9143500  86.1082030 131.4109270 135.3883840  85.8075990 131.5804530
 133.7270310  81.6363520 133.5881870 133.6578590  80.6953460 133.4271000
 134.4890170  81.7264930 134.1604440 125.9176980  72.2418040 135.9138490
 125.7379820  71.3443790 136.1941250 125.5157060  72.7889910 136.5885440
 134.7575480  74.4433900 133.8150800 135.1340300  73.5705780 133.7024470
 134.6594990  74.7792600 132.9241240 128.8880490  72.8159530 129.2768240
 128.9947240  73.7163260 129.5837000 127.9772850  72.7677500 128.9862890
 138.5399600  71.9384340 130.7479140 139.3609220  71.4480910 130.7904620
 138.5733680  72.5282000 131.5010980 126.5363650  74.7378540 134.5220830
 127.2173760  75.0016910 135.1408230 126.2211700  73.8979410 134.8558840
 130.7288220  75.7845900 133.6093420 131.2366440  76.2826870 134.2498440
 131.2601460  75.0081100 133.4332780 142.8299150  73.9551090 137.3122770
 142.1251320  74.3432800 136.7937880 143.0957070  74.6501380 137.9143700
 129.0124320  70.4244460 137.8756840 129.0142760  70.9416850 137.0702740
 128.1828630  69.9474640 137.8526770 135.3995410  80.5363770 129.3746740
 134.7812680  81.0013220 128.8109460 135.9118660  81.2291250 129.7916250
 130.2627170  80.0639640 136.0530340 129.9296550  80.6908560 136.6951410
 130.4393850  80.5901520 135.2732010 138.7761080  73.8784720 133.5206680
 138.0716650  74.1669610 134.1009790 139.1373240  74.6884830 133.1606240
 128.6939650  72.1354420 135.8827290 129.0356460  72.9796470 135.5881160
 127.7555460  72.2838160 135.9992630 129.4746270  82.0320440 137.8679520
 130.0920270  82.7071520 137.5863970 128.6139390  82.4408420 137.7767020
 124.7678610  81.2220300 126.7486370 124.3906590  81.7107400 126.0171270
 125.0251680  81.8945580 127.3792900 140.3923860  83.4959850 135.7834160
 139.7087380  84.1658960 135.7750830 140.9318150  83.6940500 135.0179020
 141.8448000  73.3239510 133.9115890 140.8972910  73.3578490 134.0431320
 142.1697990  74.1378460 134.2965250 132.3767540  69.6236690 132.2071880
 132.6842520  69.0683580 131.4907380 131.4468240  69.7581150 132.0244870
 137.9282600  85.3403980 134.4979340 137.9409760  84.9366270 133.6301600
 137.3757820  86.1151270 134.3940770 139.2228020  82.0620200 129.5869510
 139.1124350  81.1194530 129.7118930 139.2196270  82.4235840 130.4732270
 137.3268040  80.2433820 135.8261950 137.7436830  80.0293930 134.9915410
 138.0507860  80.5006610 136.3970570 134.7648300  77.6885520 128.9432000
 133.8377580  77.6222900 129.1720470 134.9173120  78.6265650 128.8287240
 134.7517380  73.9602520 125.9399160 133.8121050  74.1216480 126.0251620
 135.0700640  74.6788200 125.3935150 141.2730140  78.6421040 135.9178190
 140.4448770  78.7114130 135.4428320 141.8680620  79.2275350 135.4494020
 138.7945590  79.2505820 129.4467250 138.1758010  78.9125370 128.7993550
 138.7770040  78.6065580 130.1546440 138.2372150  75.4290360 136.8633060
 137.8243330  76.2544070 137.1173050 137.5048100  74.8435400 136.6709420
 130.3704940  78.2150260 131.7251730 129.9661940  77.5027510 131.2297630
 130.4568060  77.8703500 132.6139770 130.8386640  81.9017820 133.8890940
 130.5414930  81.2963290 133.2098720 131.7886460  81.9395130 133.7780300
 129.0833560  74.9893470 135.5050770 129.6348150  75.0988810 134.7304020
 129.5977070  75.3631070 136.2206000 138.9272250  85.4749690 137.5514040
 138.4502810  86.2821880 137.3586650 138.2434040  84.8228020 137.7040250
 129.9305070  81.6399510 140.5398740 129.0333600  81.8639480 140.7872140
 129.9557940  81.7634450 139.5910140 136.9710290  78.4892630 126.4540000
 137.4103570  77.6515060 126.3077820 137.6838710  79.1222030 126.5404140
 128.7576290  78.5112830 139.1156110 128.6184060  79.3835630 139.4843510
 127.8757650  78.1685640 138.9704050 135.0805670  83.4288700 130.4221240
 135.5201580  84.1713030 130.0076630 135.0192560  83.6715270 131.3460200
 130.5556640  84.4534530 141.3241260 130.5272070  84.8577480 140.4569690
 130.3921610  83.5244890 141.1612860 140.5527430  69.7435440 124.7681040
 140.2400090  69.8362270 125.6680110 141.3139900  70.3216470 124.7178470
 127.0709570  77.1095240 129.2258380 126.9507170  77.8357330 128.6139650
 126.7610460  76.3398150 128.7486290 142.5071460  85.2361630 142.6205430
 142.9831180  85.7144520 143.2994510 143.1278620  85.1679120 141.8950930
 124.7094940  80.2810380 135.0327020 124.7875360  80.4159150 134.0882740
 125.3236620  79.5726270 135.2255140 125.9542570  81.9810570 131.4433200
 125.5470650  82.1225160 130.5886800 126.8455580  81.6970730 131.2404410
 141.9104710  82.4274480 139.7805440 142.0367770  82.1886360 138.8622620
 141.9526090  81.5959020 140.2527520 135.7721450  86.1302480 138.3500250
 136.2866120  86.0410490 139.1522680 134.9290530  86.4762180 138.6428160
 137.7475850  86.4157820 127.7784250 137.5876990  86.1260760 128.6766080
 137.5822560  85.6397950 127.2429480 130.2264230  86.1956350 129.5555870
 130.0506710  85.2791890 129.3423670 129.3719970  86.5543640 129.7953670
 137.4501980  83.9245380 126.3382250 136.7567140  83.9222670 125.6784530
 138.1924840  83.5004700 125.9076420 137.0151910  85.5508090 130.4130740
 137.4708860  84.7697470 130.7269360 137.3544430  86.2614910 130.9571920
 141.7628720  74.4806940 140.7455180 141.1472990  74.9886610 140.2170640
 141.4425140  73.5805270 140.6881120 124.7654460  81.3224550 137.5721480
 124.9285500  80.8529910 136.7540850 125.2306910  80.8148110 138.2370320
 129.5373230  70.4530310 132.6082050 129.0941380  71.2339850 132.2766570
 130.0958220  70.7760200 133.3152990 133.8243040  73.3198830 138.2117370
 133.3622410  73.5281850 139.0237310 133.4221150  72.5058180 137.9088040
 138.8247550  74.5407780 139.3414030 137.9741140  74.2413530 139.6623100
 138.6649340  74.7849790 138.4297850 135.9197260  76.0409530 141.4412820
 136.2450670  75.2073280 141.1015050 136.7077590  76.5638050 141.5891150
 132.6532050  70.0741010 127.4887880 132.0286230  70.0700880 128.2141190
 132.5662170  69.2071970 127.0923850 131.5749130  70.9977640 134.4671650
 131.8721460  71.9040470 134.3863670 132.1234690  70.5096420 133.8531220
 129.3287450  75.5763880 130.3363300 129.1028370  75.3601050 131.2409920
 128.5479980  76.0092340 129.9909270 136.5585210  75.5827250 128.9353950
 135.9594100  76.3063050 128.7517570 137.1064820  75.5204030 128.1530400
 131.7686660  76.4749460 141.0023570 131.6730260  75.5344190 140.8523970
 132.6118640  76.6964530 140.6071640 135.1650080  74.2190790 130.9657230
 135.5579650  74.5362990 130.1525920 135.5266930  73.3402670 131.0801750
 126.8997200  72.8863130 139.1557350 126.5060590  73.7338340 139.3630130
 126.2115600  72.2489500 139.3465990 133.4742250  72.9698100 142.2254090
 132.7840570  72.7770300 142.8600180 134.2174550  73.2532740 142.7578390
 124.2014250  70.8091590 133.1887430 123.9127300  71.3794450 133.9012410
 124.9460010  70.3296040 133.5518660 124.3884480  74.7511710 124.3990150
 124.3059150  75.6942470 124.5405140 124.0367540  74.6086620 123.5202500
 135.7505220  76.8096540 135.0608010 135.0186340  77.3183350 135.4098110
 135.3529560  75.9926520 134.7596790 132.1882610  73.4850740 133.4660500
 132.1918670  73.0440690 132.6165040 133.0833730  73.8068070 133.5732320
 128.0384990  73.3677230 132.4254710 127.6985040  73.8452460 133.1821760
 127.2762310  72.9142350 132.0655810 132.2502760  74.4862820 126.4567260
 132.3715580  74.4449300 127.4053080 131.8651270  75.3486970 126.3013990
 136.2131130  72.2630220 134.4730950 136.2303870  72.7138870 135.3172800
 135.9646710  71.3635860 134.6864390 131.2624260  76.7963960 125.8550560
 130.6941160  76.3482210 125.2286470 131.9713260  77.1556740 125.3215710
 139.6401880  69.6762400 140.3117330 139.9647650  68.9452060 140.8375310
 139.6758390  69.3576040 139.4098320 126.3393440  80.6975980 139.7317290
 125.9548230  80.0569650 140.3300250 126.6505630  81.4012100 140.3012020
 132.4890580  77.5452520 135.2125910 132.8560710  77.0711090 135.9587250
 132.2995640  78.4194090 135.5534250 125.3531070  72.2896210 131.3419380
 125.0677990  71.9251880 132.1798000 125.2909930  71.5576670 130.7282520
 130.2789950  76.5861160 137.5310120 129.9747020  77.4653140 137.7560480
 131.2336410  76.6460950 137.5667560 128.8071740  80.7922150 128.1276970
 128.0334000  80.2519770 127.9675690 129.5366370  80.2728760 127.7894730
 139.5659720  79.7887510 133.9203360 140.2858840  80.2842800 133.5299470
 139.3641540  79.1105400 133.2757230 135.0269660  71.1825470 128.0632750
 134.2134270  70.6838640 127.9878060 134.8331610  72.0223720 127.6469100
 134.9478520  79.8596570 139.8072360 134.8815830  78.9392240 139.5529950
 134.3183660  79.9572010 140.5217000 137.7418050  75.5545120 126.3594910
 138.6297670  75.8662350 126.1846250 137.7123140  74.6817370 125.9675490
 128.8509140  80.4602530 131.7655780 129.3687810  79.6570790 131.7112670
 128.3993160  80.3981670 132.6072610 133.7378640  81.7268810 127.0383080
 134.0794340  82.4711040 126.5426400 132.9091350  82.0399930 127.4007910
 126.3353680  77.4263900 138.6781480 125.9768620  78.0917750 139.2654820
 126.0408240  76.5947450 139.0494100 129.5366800  77.8848140 141.5621030
 129.2366940  78.0305320 140.6648850 130.3078040  77.3253430 141.4694420
 134.8795250  82.6817140 139.5576160 134.8939790  81.7498100 139.3395070
 134.1720350  82.7676900 140.1965930 140.0132320  76.8656960 125.8274770
 139.9296040  77.2971180 124.9771210 140.7326510  77.3255310 126.2601590
 141.0906460  79.3224480 138.9044740 140.3654650  79.9153260 138.7074130
 141.6181920  79.3148020 138.1058110 141.0419570  83.7199220 128.5556900
 140.3995730  83.0654840 128.8300620 140.6550230  84.1254310 127.7797570
 136.6206050  81.0484650 132.4028590 136.9729870  80.4512780 131.7429960
 135.7368380  80.7228880 132.5736840 132.7069330  81.8082340 129.8099000
 133.3940460  82.3551550 130.1906590 131.9201750  82.3523070 129.8448610
 124.8461730  77.4255160 125.3016080 125.7156580  77.7079960 125.5852000
 124.3552050  78.2391030 125.1864890 132.0096540  78.8128370 129.4224360
 132.4659320  79.6233620 129.6484550 131.6584750  78.4951510 130.2542850
 134.3129150  84.3234710 136.6516660 134.9571370  84.5294090 137.3290080
 134.6758590  83.5623110 136.1987510 127.9108320  69.1566020 129.8946880
 127.7822950  69.1483920 130.8431800 127.0870340  69.4949110 129.5437890
 135.5861230  82.3267060 135.3694110 136.2283460  81.6260220 135.4826280
 136.1110580  83.1065500 135.1891000 139.4316950  82.6115680 125.0933250
 139.2054530  81.8946120 125.6857890 139.0413150  82.3628120 124.2555000
 137.3598850  83.1261960 138.5730170 137.6955090  83.7128650 139.2508090
 136.4399190  82.9954670 138.8027960 125.2132980  86.6382540 125.8677710
 125.5730620  87.2371880 125.2134980 125.0725320  87.1842430 126.6412740
 124.9102250  70.9157140 139.3553580 124.1960770  71.1154060 139.9606190
 125.3297290  70.1396710 139.7268380 139.0133200  80.5287620 126.7547410
 138.7254900  80.9900310 127.5425290 139.8085370  80.0685390 127.0231630
 125.1974840  84.9037400 140.3420110 125.3065960  83.9632140 140.2015500
 124.5455400  85.1692150 139.6933840 133.1887430  83.1753290 141.7418230
 132.8684300  82.4562530 142.2863920 132.5145790  83.8508360 141.8154290
 131.2301600  84.0213740 126.6851380 131.2211700  84.7543430 126.0695890
 130.3099960  83.7745320 126.7778340 126.8308240  79.2428630 127.4298140
 126.2236190  79.9827530 127.4393440 127.3057590  79.3327990 126.6036340
 136.4041030  73.4079450 137.1055030 136.7721850  72.5874660 137.4334600
 135.5439230  73.4681340 137.5210680 139.7703060  72.3636390 127.9142590
 139.1416220  72.4682060 127.2000820 139.2754980  72.5833170 128.7036470
 134.2161200  84.0841980 125.3476570 134.3173180  83.8805970 124.4178550
 133.3162940  83.8300260 125.5524350 131.7387090  74.6422340 129.3300470
 131.0303240  75.1108680 129.7714080 132.0231570  73.9844350 129.9645660
 133.3643020  76.0619040 137.3293000 133.8628270  76.5364860 137.9944850
 133.5065970  75.1382560 137.5363030 135.7702520  71.3673000 130.7696260
 135.6470300  71.3859130 129.8205770 136.7187080  71.4151940 130.8894660
 132.8579310  86.6028300 130.0424240 133.1120810  86.5649690 129.1203610
 131.9091790  86.4761630 130.0352490 129.9422110  72.9507420 126.7051180
 130.7912640  73.3877570 126.6391370 129.5753380  73.2627680 127.5323240
 140.5709880  72.2787000 138.1721390 140.0683480  73.0192400 138.5115200
 141.3866540  72.6671000 137.8558180 138.8631890  77.5220180 131.6182750
 137.9222030  77.5370410 131.7930440 139.1775960  76.7356140 132.0643050
 128.8413530  79.2039780 125.1786710 129.6076800  79.0921140 125.7412140
 128.9188220  78.5077750 124.5263480 127.5360290  76.6364850 125.8619600
 127.6163880  75.6892360 125.9737000 128.4280040  76.9671730 125.9680260
 140.8657470  84.6929030 133.2937010 140.9904890  85.5160200 133.7660820
 141.7323030  84.4819760 132.9461160 128.3375000  86.7860240 132.9654140
 129.0737480  86.2375700 133.2362710 128.7215920  87.6516250 132.8260130
 125.2220480  82.8533810 128.8395650 124.2960260  83.0954950 128.8301060
 125.6876910  83.6808070 128.7180400 127.3433280  85.9706310 142.1539720
 128.1446010  86.2918360 142.5675120 126.8285100  85.6101890 142.8759630
 131.4477310  85.9590550 124.7879710 132.2405920  86.2479380 124.3361500
 130.9281660  85.5282720 124.1092190 136.1797910  82.0786180 142.1015130
 135.5736070  82.1017780 141.3610880 135.8752020  81.3469220 142.6382380
 137.6098280  85.8066470 140.7124540 138.5620030  85.7224490 140.6624780
 137.4626500  86.4708180 141.3858330 140.5007480  85.1860680 126.2116450
 140.2148990  84.7725820 125.3970630 140.3027030  86.1148390 126.0916970
 125.0631090  78.4579770 141.0975770 125.5670110  77.8787050 141.6692000
 124.3238510  78.7420000 141.6352140 131.9654710  81.1793960 124.6522060
 131.8605350  80.5646310 125.3783440 131.7978930  80.6559850 123.8685070
 132.1169030  79.8650760 140.6311290 131.3514700  80.4335760 140.5465960
 132.2984990  79.5726970 139.7379520 135.2057440  80.2413990 125.2564050
 134.6567540  80.6883290 125.9006790 135.8276700  79.7363240 125.7801720
 139.2592380  81.5956090 141.1886310 140.0001850  81.9331850 140.6853770
 138.4965060  81.7648150 140.6356080 127.0954170  76.6009360 141.9925840
 127.1359510  76.3023230 142.9011070 127.9499670  77.0016970 141.8333360
 130.8732560  79.2004910 127.1529350 131.2948980  79.0344780 127.9960740
 130.9983400  78.3905140 126.6584490 129.0359980  75.1801460 139.9600330
 128.5056440  74.6892410 139.3323670 129.7048050  75.6085660 139.4258260
 133.3860200  78.2242520 124.4006450 133.9065860  77.5091540 124.0347600
 134.0328600  78.8628390 124.7006960 137.9338040  79.6470920 139.7241520
 138.3479060  79.8016000 140.5731940 136.9989040  79.7726140 139.8867300
 138.4060210  76.9867080 141.7280670 138.9880980  76.2319400 141.6401150
 138.5821980  77.5174520 140.9512150 129.5232280  72.1463830 140.0397620
 129.4289150  71.5284580 139.3148490 128.9429670  72.8730120 139.8127530
 132.2893720  70.7037070 137.0725010 131.8411020  70.7261330 136.2270560
 131.6558920  70.3056090 137.6695310 132.6953270  79.5991400 137.6937450
 133.1141380  80.4424130 137.5213690 131.7761900  79.7363440 137.4644230
 135.0317170  77.3307580 139.0775290 135.1513380  76.7348720 139.8170130
 135.8911170  77.3677270 138.6576590 137.3705070  77.8844770 137.6537800
 136.8440290  78.4087390 137.0502940 137.7136410  78.5172160 138.2847530
 129.7691460  75.2738140 124.0987510 129.5680520  74.4105500 124.4600850
 129.5983510  75.1871500 123.1609110 130.5460690  85.9044410 138.8095180
 130.0081780  86.6290470 138.4903880 130.7994650  85.4274750 138.0192520
 131.7985940  73.8728930 140.3351110 132.3885630  73.5644780 141.0228930
 130.9806180  73.4008680 140.4911010 136.6179370  73.4894740 140.5684130
 135.9294890  72.8276280 140.5034120 137.3385390  73.0433010 141.0132590
 137.2479770  70.0846370 126.6274390 137.5282060  69.2414270 126.9833810
 136.4745500  70.3169480 127.1413140 128.5674260  72.3738760 124.0865390
 128.8700160  72.3806190 123.1784540 129.3068850  72.0236620 124.5833050
 133.4022900  87.1395620 139.0681830 133.3281600  88.0430760 139.3754200
 132.5001740  86.8207520 139.0403900 131.7859190  71.3173380 125.0721590
 131.4381190  70.6397370 124.4924040 131.9871960  70.8562890 125.8864980
 133.9508230  86.3054130 126.6908190 134.8459020  86.6439100 126.7126950
 133.9825860  85.5833540 126.0632470 127.5904390  81.6781180 124.9195190
 128.0279260  82.2210850 125.5752770 128.0752120  80.8528130 124.9291530
 124.8050190  84.4670210 132.3715450 125.1353200  83.5991270 132.1394090
 125.2341190  84.6728730 133.2020410 129.4012110  82.7979220 130.0317420
 129.1007650  82.6744190 130.9321330 129.2949600  81.9387810 129.6233150
 125.2940400  85.3340800 135.1097080 124.8571390  85.5141600 135.9421230
 125.8618080  86.0915420 134.9678800 140.9302580  84.8357800 139.3974390
 140.3304570  84.8950360 138.6538310 141.0596480  83.8962780 139.5271240
 142.1704030  82.5775620 124.7344100 141.3396990  82.6452270 125.2051330
 142.3475860  83.4679740 124.4310960 141.6260490  79.3223100 127.2378300
 142.3879400  79.8919750 127.3437990 141.6414860  78.7550300 128.0086610
 125.1264830  77.8461030 131.4685960 124.4713670  77.5772670 130.8245660
 125.9642780  77.7365510 131.0187940 142.6320460  80.1773200 132.0820230
 143.0029290  79.3940520 131.6756200 143.2722390  80.8662300 131.9037530
 139.6154220  81.5609780 137.4950550 138.8014060  81.9906940 137.7576340
 140.0228420  82.1728190 136.8819600 141.6779660  79.6157470 124.3950820
 141.9528500  80.5236350 124.2670040 141.4890400  79.5520000 125.3312810
 138.0755270  72.6402320 125.6904450 138.4940150  72.4533300 124.8501110
 137.7691330  71.7881370 126.0007380 141.5745000  77.5526460 129.3880250
 141.1988600  76.7854390 128.9561540 140.8448120  77.9349160 129.8755180
 126.1640760  78.2313600 136.0089300 126.5313800  78.1441000 136.8885320
 125.5951580  77.4680150 135.9096160 140.9644620  76.6997980 139.0219770
 140.7330710  76.4710730 138.1217720 141.2249170  77.6197530 138.9764660
 125.7156760  75.1422690 139.9147720 124.8212810  75.1089450 140.2541430
 126.2554310  75.3409480 140.6798970 139.4032690  71.9254410 141.7999470
 140.2802870  71.9337810 142.1833470 139.4153530  71.1885250 141.1891820
 124.3402910  75.0559960 127.4111290 123.4366990  75.3190160 127.2362950
 124.8243530  75.3271130 126.6311250 140.8495960  75.7783950 132.6887490
 141.3733440  75.2846600 132.0577660 141.4355380  75.9134310 133.4335060
 141.0285680  75.8623820 136.2107040 140.0788390  75.8287360 136.3252030
 141.2098690  76.7723930 135.9756810 126.8830120  74.1125500 125.3205670
 127.5921820  73.6908720 124.8352950 126.1670060  74.1800730 124.6889020
 126.5304280  70.1664830 124.3608320 127.2532410  70.7073770 124.6789540
 126.8028800  69.8928250 123.4849860 140.3395930  75.0357300 128.6279900
 140.8355050  74.8028170 129.4128780 140.1412000  74.1969140 128.2117540
 126.2196470  69.4171020 134.2630940 126.8672660  68.8668400 133.8226100
 126.6398310  69.6714170 135.0846750 141.7683090  73.6718250 131.1617580
 141.6582370  73.5174290 132.0999850 142.5290680  73.1439190 130.9192990
 140.1148810  69.6112380 137.6200580 140.7521030  70.2246520 137.9859770
 140.2623700  69.6473040 136.6749810 142.6573360  71.5026170 124.4023720
 143.5822670  71.3707350 124.1942010 142.6349150  71.5818990 125.3560170
 142.7311850  72.2736830 127.0280430 141.9363350  72.2081950 127.5573340
 142.9355130  73.2087470 127.0165780 139.6730270  86.3128380 131.0218820
 140.2689340  85.9912950 130.3453240 139.9308420  85.8400200 131.8132090
 125.9728470  69.5726690 137.0056260 125.6243290  70.0290510 137.7714440
 125.6416170  68.6783820 137.0878690 127.5792840  82.7446290 141.1709450
 127.5362470  82.3739200 142.0523910 127.7103850  83.6823860 141.3111270
 131.2798870  84.3005880 136.7719170 131.0390230  84.5680440 135.8849690
 132.2201510  84.4711610 136.8270030 133.4853290  70.7638570 140.5275680
 133.4242180  71.3560400 141.2771090 134.4253670  70.6564530 140.3825940
 136.1227850  70.4208630 140.1667970 136.7368260  70.7387920 139.5049050
 136.6677410  69.9357220 140.7863830 142.5403030  86.3200260 137.5729810
 142.0461310  86.7169130 136.8556940 141.9316320  85.6949470 137.9667090
 126.6449110  69.1002890 140.2807030 127.1932100  68.9190940 139.5173140
 126.7104420  68.3097000 140.8163340 127.4180870  85.6908540 138.2907230
 126.8241190  85.5593240 139.0297270 127.4104710  84.8546680 137.8249330
 136.8635890  68.9840770 136.4937260 135.9895730  69.3175880 136.2910190
 136.7546640  68.5113950 137.3189130 137.7707870  71.1911640 137.8778980
 137.4421230  70.3763400 137.4980710 138.7190170  71.1481450 137.7544670
 140.2242480  86.9623680 134.8516550 139.7645450  87.7139490 134.4774570
 139.5954940  86.2430150 134.7931350 127.0493100  83.0566920 137.2415270
 126.3227160  82.4372210 137.1741220 127.1102250  83.4507530 136.3713350
 130.6538200  85.2711920 134.0264680 131.1703220  84.6599280 133.5012940
 131.3035580  85.7740700 134.5175690 133.3933700  86.1620410 134.8533660
 133.6811510  85.9074710 133.9766670 133.9056920  85.6097770 135.4439230
 134.6110710  69.9010610 135.4330170 133.8282500  70.3756110 135.7126930
 134.3173640  68.9965440 135.3243350 139.1631780  70.6033710 133.4779260
 139.6039870  70.5478810 132.6300860 138.8939370  71.5191720 133.5489440
 141.0270350  70.2348950 131.4888080 140.9658750  69.2910170 131.3419100
 141.8062380  70.3429040 132.0341540 125.3323100  86.3741310 130.4512030
 125.1645140  85.7411990 131.1493920 124.4657610  86.5800710 130.1006220
 125.9551120  70.2058090 127.9543890 126.7130480  70.3186970 127.3807920
 125.4928290  71.0427290 127.9087320 132.4964930  72.3197360 130.9446200
 131.6839440  71.9454250 130.6042080 133.0006570  71.5642440 131.2467390
 136.9989910  68.9839810 132.1829270 137.6019280  69.5560020 132.6577790
 136.2582900  69.5479250 131.9603170 140.1424510  69.3861370 127.4569550
 140.3375140  70.2844820 127.7236980 139.3554380  69.1548450 127.9502500
 126.9385800  85.0674540 127.8962170 126.4133420  85.4482570 127.1924130
 126.8630380  85.6925310 128.6171880 128.3276270  70.7322140 126.4945860
 128.8569030  69.9451940 126.3653810 128.9604590  71.4113330 126.7281390
 130.5214110  70.4697280 129.5491250 129.8916850  69.7684590 129.7161380
 129.9819250  71.2301410 129.3324410 133.4606060  87.0836510 142.2201860
 134.3873370  86.8480780 142.2637820 133.4456490  87.9108510 141.7387890
 141.6951120  86.6262080 129.2176110 141.8703310  85.9399820 128.5737030
 140.9972690  87.1509130 128.8252780 130.6469670  69.7481260 141.9843740
 130.3653940  70.2514860 141.2204560 131.0289370  68.9503010 141.6185870
 129.5378770  87.0156920 126.7711420 130.2697590  86.7316200 126.2235310
 129.7972440  86.7770200 127.6610800 128.6993560  83.1321650 126.7757750
 128.0702440  83.6006750 127.3243580 128.8141390  82.2870870 127.2103940
 137.2485130  69.1634840 142.5624210 137.1350580  69.4829450 143.4575730
 138.0654870  69.5647350 142.2661490 140.0283620  86.3106370 142.0442900
 140.8208940  85.8155600 141.8368860 140.3216770  86.9896510 142.6518510
 136.1543280  77.1827310 112.9258950 136.0737330  76.2681920 112.6550660
 135.7407700  77.6794380 112.2198660 134.2861320  78.9606330 114.8068220
 133.5103420  78.4806770 115.0966790 134.9374250  78.2811980 114.6324380
 128.3027150  79.2726140 115.6843980 127.4712030  79.0174850 116.0840490
 128.9108130  79.3436910 116.4201900 138.3068750  83.3666520 113.5867350
 137.8450280  82.5953760 113.9154520 139.1194300  83.3932590 114.0919800
 124.6752110  76.8333680 115.3526070 125.2468220  76.0655880 115.3529710
 124.6753650  77.1322440 114.4432680 134.5332060  85.6524530 113.2071340
 133.9143500  86.1082030 112.6365780 135.3883840  85.8075990 112.8061040
 133.7270310  81.6363520 114.8138380 133.6578590  80.6953460 114.6527510
 134.4890170  81.7264930 115.3860950 125.9176980  72.2418040 117.1395000
 125.7379820  71.3443790 117.4197760 125.5157060  72.7889910 117.8141950
 134.7575480  74.4433900 115.0407310 135.1340300  73.5705780 114.9280980
 134.6594990  74.7792600 114.1497750 138.5399600  71.9384340 111.9735650
 139.3609220  71.4480910 112.0161130 138.5733680  72.5282000 112.7267490
 126.5363650  74.7378540 115.7477340 127.2173760  75.0016910 116.3664740
 126.2211700  73.8979410 116.0815350 130.7288220  75.7845900 114.8349930
 131.2366440  76.2826870 115.4754950 131.2601460  75.0081100 114.6589290
 142.8299150  73.9551090 118.5379280 142.1251320  74.3432800 118.0194390
 143.0957070  74.6501380 119.1400210 129.0124320  70.4244460 119.1013350
 129.0142760  70.9416850 118.2959250 128.1828630  69.9474640 119.0783280
 135.3995410  80.5363770 110.6003250 134.7812680  81.0013220 110.0365970
 135.9118660  81.2291250 111.0172760 130.2627170  80.0639640 117.2786850
 129.9296550  80.6908560 117.9207920 130.4393850  80.5901520 116.4988520
 138.7761080  73.8784720 114.7463190 138.0716650  74.1669610 115.3266300
 139.1373240  74.6884830 114.3862750 128.6939650  72.1354420 117.1083800
 129.0356460  72.9796470 116.8137670 127.7555460  72.2838160 117.2249140
 124.7678610  81.2220300 107.9742880 124.3906590  81.7107400 107.2427780
 125.0251680  81.8945580 108.6049410 140.3923860  83.4959850 117.0090670
 139.7087380  84.1658960 117.0007340 140.9318150  83.6940500 116.2435530
 141.8448000  73.3239510 115.1372400 140.8972910  73.3578490 115.2687830
 142.1697990  74.1378460 115.5221760 132.3767540  69.6236690 113.4328390
 132.6842520  69.0683580 112.7163890 131.4468240  69.7581150 113.2501380
 137.9282600  85.3403980 115.7235850 137.9409760  84.9366270 114.8558110
 137.3757820  86.1151270 115.6197280 139.2228020  82.0620200 110.8126020
 139.1124350  81.1194530 110.9375440 139.2196270  82.4235840 111.6988780
 137.3268040  80.2433820 117.0518460 137.7436830  80.0293930 116.2171920
 138.0507860  80.5006610 117.6227080 134.7648300  77.6885520 110.1688510
 133.8377580  77.6222900 110.3976980 134.9173120  78.6265650 110.0543750
 134.7517380  73.9602520 107.1655670 133.8121050  74.1216480 107.2508130
 135.0700640  74.6788200 106.6191660 141.2730140  78.6421040 117.1434700
 140.4448770  78.7114130 116.6684830 141.8680620  79.2275350 116.6750530
 138.7945590  79.2505820 110.6723760 138.1758010  78.9125370 110.0250060
 138.7770040  78.6065580 111.3802950 138.2372150  75.4290360 118.0889570
 137.8243330  76.2544070 118.3429560 137.5048100  74.8435400 117.8965930
 130.3704940  78.2150260 112.9508240 129.9661940  77.5027510 112.4554140
 130.4568060  77.8703500 113.8396280 130.8386640  81.9017820 115.1147450
 130.5414930  81.2963290 114.4355230 131.7886460  81.9395130 115.0036810
 129.0833560  74.9893470 116.7307280 129.6348150  75.0988810 115.9560530
 129.5977070  75.3631070 117.4462510 138.9272250  85.4749690 118.7770550
 138.4502810  86.2821880 118.5843160 138.2434040  84.8228020 118.9296760
 129.9305070  81.6399510 121.7655250 129.0333600  81.8639480 122.0128650
 129.9557940  81.7634450 120.8166650 136.9710290  78.4892630 107.6796510
 137.4103570  77.6515060 107.5334330 137.6838710  79.1222030 107.7660650
 128.7576290  78.5112830 120.3412620 128.6184060  79.3835630 120.7100020
 127.8757650  78.1685640 120.1960560 135.0805670  83.4288700 111.6477750
 135.5201580  84.1713030 111.2333140 135.0192560  83.6715270 112.5716710
 130.5556640  84.4534530 122.5497770 130.5272070  84.8577480 121.6826200
 130.3921610  83.5244890 122.3869370 140.5527430  69.7435440 105.9937550
 140.2400090  69.8362270 106.8936620 141.3139900  70.3216470 105.9434980
 127.0709570  77.1095240 110.4514890 126.9507170  77.8357330 109.8396160
 126.7610460  76.3398150 109.9742800 142.5071460  85.2361630 123.8461940
 142.9831180  85.7144520 124.5251020 143.1278620  85.1679120 123.1207440
 125.9542570  81.9810570 112.6689710 125.5470650  82.1225160 111.8143310
 126.8455580  81.6970730 112.4660920 141.9104710  82.4274480 121.0061950
 142.0367770  82.1886360 120.0879130 141.9526090  81.5959020 121.4784030
 135.7721450  86.1302480 119.5756760 136.2866120  86.0410490 120.3779190
 134.9290530  86.4762180 119.8684670 137.7475850  86.4157820 109.0040760
 137.5876990  86.1260760 109.9022590 137.5822560  85.6397950 108.4685990
 130.2264230  86.1956350 110.7812380 130.0506710  85.2791890 110.5680180
 129.3719970  86.5543640 111.0210180 137.4501980  83.9245380 107.5638760
 136.7567140  83.9222670 106.9041040 138.1924840  83.5004700 107.1332930
 137.0151910  85.5508090 111.6387250 137.4708860  84.7697470 111.9525870
 137.3544430  86.2614910 112.1828430 141.7628720  74.4806940 121.9711690
 141.1472990  74.9886610 121.4427150 141.4425140  73.5805270 121.9137630
 133.8243040  73.3198830 119.4373880 133.3622410  73.5281850 120.2493820
 133.4221150  72.5058180 119.1344550 138.8247550  74.5407780 120.5670540
 137.9741140  74.2413530 120.8879610 138.6649340  74.7849790 119.6554360
 135.9197260  76.0409530 122.6669330 136.2450670  75.2073280 122.3271560
 136.7077590  76.5638050 122.8147660 132.6532050  70.0741010 108.7144390
 132.0286230  70.0700880 109.4397700 132.5662170  69.2071970 108.3180360
 131.5749130  70.9977640 115.6928160 131.8721460  71.9040470 115.6120180
 132.1234690  70.5096420 115.0787730 129.3287450  75.5763880 111.5619810
 129.1028370  75.3601050 112.4666430 128.5479980  76.0092340 111.2165780
 136.5585210  75.5827250 110.1610460 135.9594100  76.3063050 109.9774080
 137.1064820  75.5204030 109.3786910 131.7686660  76.4749460 122.2280080
 131.6730260  75.5344190 122.0780480 132.6118640  76.6964530 121.8328150
 135.1650080  74.2190790 112.1913740 135.5579650  74.5362990 111.3782430
 135.5266930  73.3402670 112.3058260 126.8997200  72.8863130 120.3813860
 126.5060590  73.7338340 120.5886640 126.2115600  72.2489500 120.5722500
 133.4742250  72.9698100 123.4510600 132.7840570  72.7770300 124.0856690
 134.2174550  73.2532740 123.9834900 124.3884480  74.7511710 105.6246660
 124.3059150  75.6942470 105.7661650 124.0367540  74.6086620 104.7459010
 135.7505220  76.8096540 116.2864520 135.0186340  77.3183350 116.6354620
 135.3529560  75.9926520 115.9853300 132.1882610  73.4850740 114.6917010
 132.1918670  73.0440690 113.8421550 133.0833730  73.8068070 114.7988830
 128.0384990  73.3677230 113.6511220 127.6985040  73.8452460 114.4078270
 127.2762310  72.9142350 113.2912320 132.2502760  74.4862820 107.6823770
 132.3715580  74.4449300 108.6309590 131.8651270  75.3486970 107.5270500
 136.2131130  72.2630220 115.6987460 136.2303870  72.7138870 116.5429310
 135.9646710  71.3635860 115.9120900 131.2624260  76.7963960 107.0807070
 130.6941160  76.3482210 106.4542980 131.9713260  77.1556740 106.5472220
 139.6401880  69.6762400 121.5373840 139.9647650  68.9452060 122.0631820
 139.6758390  69.3576040 120.6354830 132.4890580  77.5452520 116.4382420
 132.8560710  77.0711090 117.1843760 132.2995640  78.4194090 116.7790760
 130.2789950  76.5861160 118.7566630 129.9747020  77.4653140 118.9816990
 131.2336410  76.6460950 118.7924070 128.8071740  80.7922150 109.3533480
 128.0334000  80.2519770 109.1932200 129.5366370  80.2728760 109.0151240
 139.5659720  79.7887510 115.1459870 140.2858840  80.2842800 114.7555980
 139.3641540  79.1105400 114.5013740 135.0269660  71.1825470 109.2889260
 134.2134270  70.6838640 109.2134570 134.8331610  72.0223720 108.8725610
 134.9478520  79.8596570 121.0328870 134.8815830  78.9392240 120.7786460
 134.3183660  79.9572010 121.7473510 137.7418050  75.5545120 107.5851420
 138.6297670  75.8662350 107.4102760 137.7123140  74.6817370 107.1932000
 128.8509140  80.4602530 112.9912290 129.3687810  79.6570790 112.9369180
 128.3993160  80.3981670 113.8329120 133.7378640  81.7268810 108.2639590
 134.0794340  82.4711040 107.7682910 132.9091350  82.0399930 108.6264420
 129.5366800  77.8848140 122.7877540 129.2366940  78.0305320 121.8905360
 130.3078040  77.3253430 122.6950930 134.8795250  82.6817140 120.7832670
 134.8939790  81.7498100 120.5651580 134.1720350  82.7676900 121.4222440
 140.0132320  76.8656960 107.0531280 139.9296040  77.2971180 106.2027720
 140.7326510  77.3255310 107.4858100 141.0906460  79.3224480 120.1301250
 140.3654650  79.9153260 119.9330640 141.6181920  79.3148020 119.3314620
 141.0419570  83.7199220 109.7813410 140.3995730  83.0654840 110.0557130
 140.6550230  84.1254310 109.0054080 136.6206050  81.0484650 113.6285100
 136.9729870  80.4512780 112.9686470 135.7368380  80.7228880 113.7993350
 132.7069330  81.8082340 111.0355510 133.3940460  82.3551550 111.4163100
 131.9201750  82.3523070 111.0705120 124.8461730  77.4255160 106.5272590
 125.7156580  77.7079960 106.8108510 124.3552050  78.2391030 106.4121400
 132.0096540  78.8128370 110.6480870 132.4659320  79.6233620 110.8741060
 131.6584750  78.4951510 111.4799360 134.3129150  84.3234710 117.8773170
 134.9571370  84.5294090 118.5546590 134.6758590  83.5623110 117.4244020
 135.5861230  82.3267060 116.5950620 136.2283460  81.6260220 116.7082790
 136.1110580  83.1065500 116.4147510 139.4316950  82.6115680 106.3189760
 139.2054530  81.8946120 106.9114400 139.0413150  82.3628120 105.4811510
 137.3598850  83.1261960 119.7986680 137.6955090  83.7128650 120.4764600
 136.4399190  82.9954670 120.0284470 124.9102250  70.9157140 120.5810090
 124.1960770  71.1154060 121.1862700 125.3297290  70.1396710 120.9524890
 139.0133200  80.5287620 107.9803920 138.7254900  80.9900310 108.7681800
 139.8085370  80.0685390 108.2488140 133.1887430  83.1753290 122.9674740
 132.8684300  82.4562530 123.5120430 132.5145790  83.8508360 123.0410800
 131.2301600  84.0213740 107.9107890 131.2211700  84.7543430 107.2952400
 130.3099960  83.7745320 108.0034850 126.8308240  79.2428630 108.6554650
 126.2236190  79.9827530 108.6649950 127.3057590  79.3327990 107.8292850
 136.4041030  73.4079450 118.3311540 136.7721850  72.5874660 118.6591110
 135.5439230  73.4681340 118.7467190 139.7703060  72.3636390 109.1399100
 139.1416220  72.4682060 108.4257330 139.2754980  72.5833170 109.9292980
 131.7387090  74.6422340 110.5556980 131.0303240  75.1108680 110.9970590
 132.0231570  73.9844350 111.1902170 133.3643020  76.0619040 118.5549510
 133.8628270  76.5364860 119.2201360 133.5065970  75.1382560 118.7619540
 135.7702520  71.3673000 111.9952770 135.6470300  71.3859130 111.0462280
 136.7187080  71.4151940 112.1151170 132.8579310  86.6028300 111.2680750
 133.1120810  86.5649690 110.3460120 131.9091790  86.4761630 111.2609000
 129.9422110  72.9507420 107.9307690 130.7912640  73.3877570 107.8647880
 129.5753380  73.2627680 108.7579750 140.5709880  72.2787000 119.3977900
 140.0683480  73.0192400 119.7371710 141.3866540  72.6671000 119.0814690
 138.8631890  77.5220180 112.8439260 137.9222030  77.5370410 113.0186950
 139.1775960  76.7356140 113.2899560 128.8413530  79.2039780 106.4043220
 129.6076800  79.0921140 106.9668650 128.9188220  78.5077750 105.7519990
 127.5360290  76.6364850 107.0876110 127.6163880  75.6892360 107.1993510
 128.4280040  76.9671730 107.1936770 140.8657470  84.6929030 114.5193520
 140.9904890  85.5160200 114.9917330 141.7323030  84.4819760 114.1717670
 128.3375000  86.7860240 114.1910650 129.0737480  86.2375700 114.4619220
 128.7215920  87.6516250 114.0516640 125.2220480  82.8533810 110.0652160
 124.2960260  83.0954950 110.0557570 125.6876910  83.6808070 109.9436910
 127.3433280  85.9706310 123.3796230 128.1446010  86.2918360 123.7931630
 126.8285100  85.6101890 124.1016140 136.1797910  82.0786180 123.3271640
 135.5736070  82.1017780 122.5867390 135.8752020  81.3469220 123.8638890
 137.6098280  85.8066470 121.9381050 138.5620030  85.7224490 121.8881290
 137.4626500  86.4708180 122.6114840 140.5007480  85.1860680 107.4372960
 140.2148990  84.7725820 106.6227140 140.3027030  86.1148390 107.3173480
 131.9654710  81.1793960 105.8778570 131.8605350  80.5646310 106.6039950
 131.7978930  80.6559850 105.0941580 132.1169030  79.8650760 121.8567800
 131.3514700  80.4335760 121.7722470 132.2984990  79.5726970 120.9636030
 135.2057440  80.2413990 106.4820560 134.6567540  80.6883290 107.1263300
 135.8276700  79.7363240 107.0058230 139.2592380  81.5956090 122.4142820
 140.0001850  81.9331850 121.9110280 138.4965060  81.7648150 121.8612590
 127.0954170  76.6009360 123.2182350 127.1359510  76.3023230 124.1267580
 127.9499670  77.0016970 123.0589870 130.8732560  79.2004910 108.3785860
 131.2948980  79.0344780 109.2217250 130.9983400  78.3905140 107.8841000
 129.0359980  75.1801460 121.1856840 128.5056440  74.6892410 120.5580180
 129.7048050  75.6085660 120.6514770 133.3860200  78.2242520 105.6262960
 133.9065860  77.5091540 105.2604110 134.0328600  78.8628390 105.9263470
 137.9338040  79.6470920 120.9498030 138.3479060  79.8016000 121.7988450
 136.9989040  79.7726140 121.1123810 138.4060210  76.9867080 122.9537180
 138.9880980  76.2319400 122.8657660 138.5821980  77.5174520 122.1768660
 129.5232280  72.1463830 121.2654130 129.4289150  71.5284580 120.5405000
 128.9429670  72.8730120 121.0384040 132.2893720  70.7037070 118.2981520
 131.8411020  70.7261330 117.4527070 131.6558920  70.3056090 118.8951820
 132.6953270  79.5991400 118.9193960 133.1141380  80.4424130 118.7470200
 131.7761900  79.7363440 118.6900740 135.0317170  77.3307580 120.3031800
 135.1513380  76.7348720 121.0426640 135.8911170  77.3677270 119.8833100
 137.3705070  77.8844770 118.8794310 136.8440290  78.4087390 118.2759450
 137.7136410  78.5172160 119.5104040 129.7691460  75.2738140 105.3244020
 129.5680520  74.4105500 105.6857360 129.5983510  75.1871500 104.3865620
 130.5460690  85.9044410 120.0351690 130.0081780  86.6290470 119.7160390
 130.7994650  85.4274750 119.2449030 131.7985940  73.8728930 121.5607620
 132.3885630  73.5644780 122.2485440 130.9806180  73.4008680 121.7167520
 136.6179370  73.4894740 121.7940640 135.9294890  72.8276280 121.7290630
 137.3385390  73.0433010 122.2389100 137.2479770  70.0846370 107.8530900
 137.5282060  69.2414270 108.2090320 136.4745500  70.3169480 108.3669650
 128.5674260  72.3738760 105.3121900 128.8700160  72.3806190 104.4041050
 129.3068850  72.0236620 105.8089560 133.4022900  87.1395620 120.2938340
 133.3281600  88.0430760 120.6010710 132.5001740  86.8207520 120.2660410
 131.7859190  71.3173380 106.2978100 131.4381190  70.6397370 105.7180550
 131.9871960  70.8562890 107.1121490 127.5904390  81.6781180 106.1451700
 128.0279260  82.2210850 106.8009280 128.0752120  80.8528130 106.1548040
 124.8050190  84.4670210 113.5971960 125.1353200  83.5991270 113.3650600
 125.2341190  84.6728730 114.4276920 129.4012110  82.7979220 111.2573930
 129.1007650  82.6744190 112.1577840 129.2949600  81.9387810 110.8489660
 140.9302580  84.8357800 120.6230900 140.3304570  84.8950360 119.8794820
 141.0596480  83.8962780 120.7527750 142.1704030  82.5775620 105.9600610
 141.3396990  82.6452270 106.4307840 142.3475860  83.4679740 105.6567470
 141.6260490  79.3223100 108.4634810 142.3879400  79.8919750 108.5694500
 141.6414860  78.7550300 109.2343120 125.1264830  77.8461030 112.6942470
 124.4713670  77.5772670 112.0502170 125.9642780  77.7365510 112.2444450
 142.6320460  80.1773200 113.3076740 143.0029290  79.3940520 112.9012710
 143.2722390  80.8662300 113.1294040 139.6154220  81.5609780 118.7207060
 138.8014060  81.9906940 118.9832850 140.0228420  82.1728190 118.1076110
 141.6779660  79.6157470 105.6207330 141.9528500  80.5236350 105.4926550
 141.4890400  79.5520000 106.5569320 138.0755270  72.6402320 106.9160960
 138.4940150  72.4533300 106.0757620 137.7691330  71.7881370 107.2263890
 141.5745000  77.5526460 110.6136760 141.1988600  76.7854390 110.1818050
 140.8448120  77.9349160 111.1011690 140.9644620  76.6997980 120.2476280
 140.7330710  76.4710730 119.3474230 141.2249170  77.6197530 120.2021170
 125.7156760  75.1422690 121.1404230 124.8212810  75.1089450 121.4797940
 126.2554310  75.3409480 121.9055480 139.4032690  71.9254410 123.0255980
 140.2802870  71.9337810 123.4089980 139.4153530  71.1885250 122.4148330
 124.3402910  75.0559960 108.6367800 123.4366990  75.3190160 108.4619460
 124.8243530  75.3271130 107.8567760 140.8495960  75.7783950 113.9144000
 141.3733440  75.2846600 113.2834170 141.4355380  75.9134310 114.6591570
 141.0285680  75.8623820 117.4363550 140.0788390  75.8287360 117.5508540
 141.2098690  76.7723930 117.2013320 126.8830120  74.1125500 106.5462180
 127.5921820  73.6908720 106.0609460 126.1670060  74.1800730 105.9145530
 140.3395930  75.0357300 109.8536410 140.8355050  74.8028170 110.6385290
 140.1412000  74.1969140 109.4374050 141.7683090  73.6718250 112.3874090
 141.6582370  73.5174290 113.3256360 142.5290680  73.1439190 112.1449500
 140.1148810  69.6112380 118.8457090 140.7521030  70.2246520 119.2116280
 140.2623700  69.6473040 117.9006320 142.6573360  71.5026170 105.6280230
 143.5822670  71.3707350 105.4198520 142.6349150  71.5818990 106.5816680
 142.7311850  72.2736830 108.2536940 141.9363350  72.2081950 108.7829850
 142.9355130  73.2087470 108.2422290 139.6730270  86.3128380 112.2475330
 140.2689340  85.9912950 111.5709750 139.9308420  85.8400200 113.0388600
 125.9728470  69.5726690 118.2312770 125.6243290  70.0290510 118.9970950
 125.6416170  68.6783820 118.3135200 131.2798870  84.3005880 117.9975680
 131.0390230  84.5680440 117.1106200 132.2201510  84.4711610 118.0526540
 133.4853290  70.7638570 121.7532190 133.4242180  71.3560400 122.5027600
 134.4253670  70.6564530 121.6082450 136.1227850  70.4208630 121.3924480
 136.7368260  70.7387920 120.7305560 136.6677410  69.9357220 122.0120340
 142.5403030  86.3200260 118.7986320 142.0461310  86.7169130 118.0813450
 141.9316320  85.6949470 119.1923600 126.6449110  69.1002890 121.5063540
 127.1932100  68.9190940 120.7429650 126.7104420  68.3097000 122.0419850
 136.8635890  68.9840770 117.7193770 135.9895730  69.3175880 117.5166700
 136.7546640  68.5113950 118.5445640 137.7707870  71.1911640 119.1035490
 137.4421230  70.3763400 118.7237220 138.7190170  71.1481450 118.9801180
 140.2242480  86.9623680 116.0773060 139.7645450  87.7139490 115.7031080
 139.5954940  86.2430150 116.0187860 130.6538200  85.2711920 115.2521190
 131.1703220  84.6599280 114.7269450 131.3035580  85.7740700 115.7432200
 133.3933700  86.1620410 116.0790170 133.6811510  85.9074710 115.2023180
 133.9056920  85.6097770 116.6695740 134.6110710  69.9010610 116.6586680
 133.8282500  70.3756110 116.9383440 134.3173640  68.9965440 116.5499860
 139.1631780  70.6033710 114.7035770 139.6039870  70.5478810 113.8557370
 138.8939370  71.5191720 114.7745950 141.0270350  70.2348950 112.7144590
 140.9658750  69.2910170 112.5675610 141.8062380  70.3429040 113.2598050
 125.3323100  86.3741310 111.6768540 125.1645140  85.7411990 112.3750430
 124.4657610  86.5800710 111.3262730 132.4964930  72.3197360 112.1702710
 131.6839440  71.9454250 111.8298590 133.0006570  71.5642440 112.4723900
 136.9989910  68.9839810 113.4085780 137.6019280  69.5560020 113.8834300
 136.2582900  69.5479250 113.1859680 140.1424510  69.3861370 108.6826060
 140.3375140  70.2844820 108.9493490 139.3554380  69.1548450 109.1759010
 126.9385800  85.0674540 109.1218680 126.4133420  85.4482570 108.4180640
 126.8630380  85.6925310 109.8428390 133.4606060  87.0836510 123.4458370
 134.3873370  86.8480780 123.4894330 133.4456490  87.9108510 122.9644400
 141.6951120  86.6262080 110.4432620 141.8703310  85.9399820 109.7993540
 140.9972690  87.1509130 110.0509290 130.6469670  69.7481260 123.2100250
 130.3653940  70.2514860 122.4461070 131.0289370  68.9503010 122.8442380
 128.6993560  83.1321650 108.0014260 128.0702440  83.6006750 108.5500090
 128.8141390  82.2870870 108.4360450 137.2485130  69.1634840 123.7880720
 137.1350580  69.4829450 124.6832240 138.0654870  69.5647350 123.4918000
 140.0283620  86.3106370 123.2699410 140.8208940  85.8155600 123.0625370
 140.3216770  86.9896510 123.8775020 136.1543280  77.1827310  94.1515460
 136.0737330  76.2681920  93.8807170 135.7407700  77.6794380  93.4455170
 134.2861320  78.9606330  96.0324730 133.5103420  78.4806770  96.3223300
 134.9374250  78.2811980  95.8580890 128.3027150  79.2726140  96.9100490
 127.4712030  79.0174850  97.3097000 128.9108130  79.3436910  97.6458410
 138.3068750  83.3666520  94.8123860 137.8450280  82.5953760  95.1411030
 139.1194300  83.3932590  95.3176310 128.2828410  83.3066230  97.1058510
 128.5856450  82.4163970  96.9268730 129.0272000  83.8636450  96.8780760
 134.5332060  85.6524530  94.4327850 133.9143500  86.1082030  93.8622290
 135.3883840  85.8075990  94.0317550 133.7270310  81.6363520  96.0394890
 133.6578590  80.6953460  95.8784020 134.4890170  81.7264930  96.6117460
 134.7575480  74.4433900  96.2663820 135.1340300  73.5705780  96.1537490
 134.6594990  74.7792600  95.3754260 138.5399600  71.9384340  93.1992160
 139.3609220  71.4480910  93.2417640 138.5733680  72.5282000  93.9524000
 142.8299150  73.9551090  99.7635790 142.1251320  74.3432800  99.2450900
 143.0957070  74.6501380 100.3656720 129.0124320  70.4244460 100.3269860
 129.0142760  70.9416850  99.5215760 128.1828630  69.9474640 100.3039790
 135.3995410  80.5363770  91.8259760 134.7812680  81.0013220  91.2622480
 135.9118660  81.2291250  92.2429270 130.2627170  80.0639640  98.5043360
 129.9296550  80.6908560  99.1464430 130.4393850  80.5901520  97.7245030
 138.7761080  73.8784720  95.9719700 138.0716650  74.1669610  96.5522810
 139.1373240  74.6884830  95.6119260 129.4746270  82.0320440 100.3192540
 130.0920270  82.7071520 100.0376990 128.6139390  82.4408420 100.2280040
 124.7678610  81.2220300  89.1999390 124.3906590  81.7107400  88.4684290
 125.0251680  81.8945580  89.8305920 140.3923860  83.4959850  98.2347180
 139.7087380  84.1658960  98.2263850 140.9318150  83.6940500  97.4692040
 141.8448000  73.3239510  96.3628910 140.8972910  73.3578490  96.4944340
 142.1697990  74.1378460  96.7478270 132.3767540  69.6236690  94.6584900
 132.6842520  69.0683580  93.9420400 131.4468240  69.7581150  94.4757890
 137.9282600  85.3403980  96.9492360 137.9409760  84.9366270  96.0814620
 137.3757820  86.1151270  96.8453790 139.2228020  82.0620200  92.0382530
 139.1124350  81.1194530  92.1631950 139.2196270  82.4235840  92.9245290
 137.3268040  80.2433820  98.2774970 137.7436830  80.0293930  97.4428430
 138.0507860  80.5006610  98.8483590 134.7648300  77.6885520  91.3945020
 133.8377580  77.6222900  91.6233490 134.9173120  78.6265650  91.2800260
 134.7517380  73.9602520  88.3912180 133.8121050  74.1216480  88.4764640
 135.0700640  74.6788200  87.8448170 141.2730140  78.6421040  98.3691210
 140.4448770  78.7114130  97.8941340 141.8680620  79.2275350  97.9007040
 138.7945590  79.2505820  91.8980270 138.1758010  78.9125370  91.2506570
 138.7770040  78.6065580  92.6059460 138.2372150  75.4290360  99.3146080
 137.8243330  76.2544070  99.5686070 137.5048100  74.8435400  99.1222440
 130.8386640  81.9017820  96.3403960 130.5414930  81.2963290  95.6611740
 131.7886460  81.9395130  96.2293320 138.9272250  85.4749690 100.0027060
 138.4502810  86.2821880  99.8099670 138.2434040  84.8228020 100.1553270
 129.9305070  81.6399510 102.9911760 129.0333600  81.8639480 103.2385160
 129.9557940  81.7634450 102.0423160 136.9710290  78.4892630  88.9053020
 137.4103570  77.6515060  88.7590840 137.6838710  79.1222030  88.9917160
 128.7576290  78.5112830 101.5669130 128.6184060  79.3835630 101.9356530
 127.8757650  78.1685640 101.4217070 135.0805670  83.4288700  92.8734260
 135.5201580  84.1713030  92.4589650 135.0192560  83.6715270  93.7973220
 142.5071460  85.2361630 105.0718450 142.9831180  85.7144520 105.7507530
 143.1278620  85.1679120 104.3463950 124.7094940  80.2810380  97.4840040
 124.7875360  80.4159150  96.5395760 125.3236620  79.5726270  97.6768160
 125.9542570  81.9810570  93.8946220 125.5470650  82.1225160  93.0399820
 126.8455580  81.6970730  93.6917430 141.9104710  82.4274480 102.2318460
 142.0367770  82.1886360 101.3135640 141.9526090  81.5959020 102.7040540
 137.7475850  86.4157820  90.2297270 137.5876990  86.1260760  91.1279100
 137.5822560  85.6397950  89.6942500 130.2264230  86.1956350  92.0068890
 130.0506710  85.2791890  91.7936690 129.3719970  86.5543640  92.2466690
 137.4501980  83.9245380  88.7895270 136.7567140  83.9222670  88.1297550
 138.1924840  83.5004700  88.3589440 137.0151910  85.5508090  92.8643760
 137.4708860  84.7697470  93.1782380 137.3544430  86.2614910  93.4084940
 141.7628720  74.4806940 103.1968200 141.1472990  74.9886610 102.6683660
 141.4425140  73.5805270 103.1394140 124.7654460  81.3224550 100.0234500
 124.9285500  80.8529910  99.2053870 125.2306910  80.8148110 100.6883340
 133.8243040  73.3198830 100.6630390 133.3622410  73.5281850 101.4750330
 133.4221150  72.5058180 100.3601060 138.8247550  74.5407780 101.7927050
 137.9741140  74.2413530 102.1136120 138.6649340  74.7849790 100.8810870
 135.9197260  76.0409530 103.8925840 136.2450670  75.2073280 103.5528070
 136.7077590  76.5638050 104.0404170 131.5749130  70.9977640  96.9184670
 131.8721460  71.9040470  96.8376690 132.1234690  70.5096420  96.3044240
 136.5585210  75.5827250  91.3866970 135.9594100  76.3063050  91.2030590
 137.1064820  75.5204030  90.6043420 131.7686660  76.4749460 103.4536590
 131.6730260  75.5344190 103.3036990 132.6118640  76.6964530 103.0584660
 135.1650080  74.2190790  93.4170250 135.5579650  74.5362990  92.6038940
 135.5266930  73.3402670  93.5314770 126.8997200  72.8863130 101.6070370
 126.5060590  73.7338340 101.8143150 126.2115600  72.2489500 101.7979010
 133.4742250  72.9698100 104.6767110 132.7840570  72.7770300 105.3113200
 134.2174550  73.2532740 105.2091410 135.7505220  76.8096540  97.5121030
 135.0186340  77.3183350  97.8611130 135.3529560  75.9926520  97.2109810
 132.2502760  74.4862820  88.9080280 132.3715580  74.4449300  89.8566100
 131.8651270  75.3486970  88.7527010 136.2131130  72.2630220  96.9243970
 136.2303870  72.7138870  97.7685820 135.9646710  71.3635860  97.1377410
 131.2624260  76.7963960  88.3063580 130.6941160  76.3482210  87.6799490
 131.9713260  77.1556740  87.7728730 139.6401880  69.6762400 102.7630350
 139.9647650  68.9452060 103.2888330 139.6758390  69.3576040 101.8611340
 126.3393440  80.6975980 102.1830310 125.9548230  80.0569650 102.7813270
 126.6505630  81.4012100 102.7525040 132.4890580  77.5452520  97.6638930
 132.8560710  77.0711090  98.4100270 132.2995640  78.4194090  98.0047270
 130.2789950  76.5861160  99.9823140 129.9747020  77.4653140 100.2073500
 131.2336410  76.6460950 100.0180580 128.8071740  80.7922150  90.5789990
 128.0334000  80.2519770  90.4188710 129.5366370  80.2728760  90.2407750
 139.5659720  79.7887510  96.3716380 140.2858840  80.2842800  95.9812490
 139.3641540  79.1105400  95.7270250 135.0269660  71.1825470  90.5145770
 134.2134270  70.6838640  90.4391080 134.8331610  72.0223720  90.0982120
 134.9478520  79.8596570 102.2585380 134.8815830  78.9392240 102.0042970
 134.3183660  79.9572010 102.9730020 137.7418050  75.5545120  88.8107930
 138.6297670  75.8662350  88.6359270 137.7123140  74.6817370  88.4188510
 128.8509140  80.4602530  94.2168800 129.3687810  79.6570790  94.1625690
 128.3993160  80.3981670  95.0585630 133.7378640  81.7268810  89.4896100
 134.0794340  82.4711040  88.9939420 132.9091350  82.0399930  89.8520930
 126.3353680  77.4263900 101.1294500 125.9768620  78.0917750 101.7167840
 126.0408240  76.5947450 101.5007120 129.5366800  77.8848140 104.0134050
 129.2366940  78.0305320 103.1161870 130.3078040  77.3253430 103.9207440
 134.8795250  82.6817140 102.0089180 134.8939790  81.7498100 101.7908090
 134.1720350  82.7676900 102.6478950 140.0132320  76.8656960  88.2787790
 139.9296040  77.2971180  87.4284230 140.7326510  77.3255310  88.7114610
 141.0906460  79.3224480 101.3557760 140.3654650  79.9153260 101.1587150
 141.6181920  79.3148020 100.5571130 141.0419570  83.7199220  91.0069920
 140.3995730  83.0654840  91.2813640 140.6550230  84.1254310  90.2310590
 136.6206050  81.0484650  94.8541610 136.9729870  80.4512780  94.1942980
 135.7368380  80.7228880  95.0249860 132.7069330  81.8082340  92.2612020
 133.3940460  82.3551550  92.6419610 131.9201750  82.3523070  92.2961630
 132.0096540  78.8128370  91.8737380 132.4659320  79.6233620  92.0997570
 131.6584750  78.4951510  92.7055870 134.3129150  84.3234710  99.1029680
 134.9571370  84.5294090  99.7803100 134.6758590  83.5623110  98.6500530
 135.5861230  82.3267060  97.8207130 136.2283460  81.6260220  97.9339300
 136.1110580  83.1065500  97.6404020 139.4316950  82.6115680  87.5446270
 139.2054530  81.8946120  88.1370910 139.0413150  82.3628120  86.7068020
 137.3598850  83.1261960 101.0243190 137.6955090  83.7128650 101.7021110
 136.4399190  82.9954670 101.2540980 139.0133200  80.5287620  89.2060430
 138.7254900  80.9900310  89.9938310 139.8085370  80.0685390  89.4744650
 131.2301600  84.0213740  89.1364400 131.2211700  84.7543430  88.5208910
 130.3099960  83.7745320  89.2291360 126.8308240  79.2428630  89.8811160
 126.2236190  79.9827530  89.8906460 127.3057590  79.3327990  89.0549360
 136.4041030  73.4079450  99.5568050 136.7721850  72.5874660  99.8847620
 135.5439230  73.4681340  99.9723700 139.7703060  72.3636390  90.3655610
 139.1416220  72.4682060  89.6513840 139.2754980  72.5833170  91.1549490
 134.2161200  84.0841980  87.7989590 134.3173180  83.8805970  86.8691570
 133.3162940  83.8300260  88.0037370 133.3643020  76.0619040  99.7806020
 133.8628270  76.5364860 100.4457870 133.5065970  75.1382560  99.9876050
 135.7702520  71.3673000  93.2209280 135.6470300  71.3859130  92.2718790
 136.7187080  71.4151940  93.3407680 132.8579310  86.6028300  92.4937260
 133.1120810  86.5649690  91.5716630 131.9091790  86.4761630  92.4865510
 140.5709880  72.2787000 100.6234410 140.0683480  73.0192400 100.9628220
 141.3866540  72.6671000 100.3071200 138.8631890  77.5220180  94.0695770
 137.9222030  77.5370410  94.2443460 139.1775960  76.7356140  94.5156070
 128.8413530  79.2039780  87.6299730 129.6076800  79.0921140  88.1925160
 128.9188220  78.5077750  86.9776500 127.5360290  76.6364850  88.3132620
 127.6163880  75.6892360  88.4250020 128.4280040  76.9671730  88.4193280
 140.8657470  84.6929030  95.7450030 140.9904890  85.5160200  96.2173840
 141.7323030  84.4819760  95.3974180 131.4477310  85.9590550  87.2392730
 132.2405920  86.2479380  86.7874520 130.9281660  85.5282720  86.5605210
 136.1797910  82.0786180 104.5528150 135.5736070  82.1017780 103.8123900
 135.8752020  81.3469220 105.0895400 137.6098280  85.8066470 103.1637560
 138.5620030  85.7224490 103.1137800 137.4626500  86.4708180 103.8371350
 140.5007480  85.1860680  88.6629470 140.2148990  84.7725820  87.8483650
 140.3027030  86.1148390  88.5429990 125.0631090  78.4579770 103.5488790
 125.5670110  77.8787050 104.1205020 124.3238510  78.7420000 104.0865160
 131.9654710  81.1793960  87.1035080 131.8605350  80.5646310  87.8296460
 131.7978930  80.6559850  86.3198090 132.1169030  79.8650760 103.0824310
 131.3514700  80.4335760 102.9978980 132.2984990  79.5726970 102.1892540
 135.2057440  80.2413990  87.7077070 134.6567540  80.6883290  88.3519810
 135.8276700  79.7363240  88.2314740 139.2592380  81.5956090 103.6399330
 140.0001850  81.9331850 103.1366790 138.4965060  81.7648150 103.0869100
 127.0954170  76.6009360 104.4438860 127.1359510  76.3023230 105.3524090
 127.9499670  77.0016970 104.2846380 130.8732560  79.2004910  89.6042370
 131.2948980  79.0344780  90.4473760 130.9983400  78.3905140  89.1097510
 129.0359980  75.1801460 102.4113350 128.5056440  74.6892410 101.7836690
 129.7048050  75.6085660 101.8771280 133.3860200  78.2242520  86.8519470
 133.9065860  77.5091540  86.4860620 134.0328600  78.8628390  87.1519980
 137.9338040  79.6470920 102.1754540 138.3479060  79.8016000 103.0244960
 136.9989040  79.7726140 102.3380320 138.4060210  76.9867080 104.1793690
 138.9880980  76.2319400 104.0914170 138.5821980  77.5174520 103.4025170
 129.5232280  72.1463830 102.4910640 129.4289150  71.5284580 101.7661510
 128.9429670  72.8730120 102.2640550 132.2893720  70.7037070  99.5238030
 131.8411020  70.7261330  98.6783580 131.6558920  70.3056090 100.1208330
 132.6953270  79.5991400 100.1450470 133.1141380  80.4424130  99.9726710
 131.7761900  79.7363440  99.9157250 135.0317170  77.3307580 101.5288310
 135.1513380  76.7348720 102.2683150 135.8911170  77.3677270 101.1089610
 137.3705070  77.8844770 100.1050820 136.8440290  78.4087390  99.5015960
 137.7136410  78.5172160 100.7360550 129.7691460  75.2738140  86.5500530
 129.5680520  74.4105500  86.9113870 129.5983510  75.1871500  85.6122130
 131.7985940  73.8728930 102.7864130 132.3885630  73.5644780 103.4741950
 130.9806180  73.4008680 102.9424030 136.6179370  73.4894740 103.0197150
 135.9294890  72.8276280 102.9547140 137.3385390  73.0433010 103.4645610
 137.2479770  70.0846370  89.0787410 137.5282060  69.2414270  89.4346830
 136.4745500  70.3169480  89.5926160 133.9508230  86.3054130  89.1421210
 134.8459020  86.6439100  89.1639970 133.9825860  85.5833540  88.5145490
 124.8050190  84.4670210  94.8228470 125.1353200  83.5991270  94.5907110
 125.2341190  84.6728730  95.6533430 129.4012110  82.7979220  92.4830440
 129.1007650  82.6744190  93.3834350 129.2949600  81.9387810  92.0746170
 140.9302580  84.8357800 101.8487410 140.3304570  84.8950360 101.1051330
 141.0596480  83.8962780 101.9784260 142.1704030  82.5775620  87.1857120
 141.3396990  82.6452270  87.6564350 142.3475860  83.4679740  86.8823980
 141.6260490  79.3223100  89.6891320 142.3879400  79.8919750  89.7951010
 141.6414860  78.7550300  90.4599630 142.6320460  80.1773200  94.5333250
 143.0029290  79.3940520  94.1269220 143.2722390  80.8662300  94.3550550
 139.6154220  81.5609780  99.9463570 138.8014060  81.9906940 100.2089360
 140.0228420  82.1728190  99.3332620 141.6779660  79.6157470  86.8463840
 141.9528500  80.5236350  86.7183060 141.4890400  79.5520000  87.7825830
 138.0755270  72.6402320  88.1417470 138.4940150  72.4533300  87.3014130
 137.7691330  71.7881370  88.4520400 141.5745000  77.5526460  91.8393270
 141.1988600  76.7854390  91.4074560 140.8448120  77.9349160  92.3268200
 126.1640760  78.2313600  98.4602320 126.5313800  78.1441000  99.3398340
 125.5951580  77.4680150  98.3609180 140.9644620  76.6997980 101.4732790
 140.7330710  76.4710730 100.5730740 141.2249170  77.6197530 101.4277680
 125.7156760  75.1422690 102.3660740 124.8212810  75.1089450 102.7054450
 126.2554310  75.3409480 103.1311990 139.4032690  71.9254410 104.2512490
 140.2802870  71.9337810 104.6346490 139.4153530  71.1885250 103.6404840
 140.8495960  75.7783950  95.1400510 141.3733440  75.2846600  94.5090680
 141.4355380  75.9134310  95.8848080 141.0285680  75.8623820  98.6620060
 140.0788390  75.8287360  98.7765050 141.2098690  76.7723930  98.4269830
 140.3395930  75.0357300  91.0792920 140.8355050  74.8028170  91.8641800
 140.1412000  74.1969140  90.6630560 141.7683090  73.6718250  93.6130600
 141.6582370  73.5174290  94.5512870 142.5290680  73.1439190  93.3706010
 140.1148810  69.6112380 100.0713600 140.7521030  70.2246520 100.4372790
 140.2623700  69.6473040  99.1262830 142.6573360  71.5026170  86.8536740
 143.5822670  71.3707350  86.6455030 142.6349150  71.5818990  87.8073190
 142.7311850  72.2736830  89.4793450 141.9363350  72.2081950  90.0086360
 142.9355130  73.2087470  89.4678800 139.6730270  86.3128380  93.4731840
 140.2689340  85.9912950  92.7966260 139.9308420  85.8400200  94.2645110
 125.9728470  69.5726690  99.4569280 125.6243290  70.0290510 100.2227460
 125.6416170  68.6783820  99.5391710 131.2798870  84.3005880  99.2232190
 131.0390230  84.5680440  98.3362710 132.2201510  84.4711610  99.2783050
 133.4853290  70.7638570 102.9788700 133.4242180  71.3560400 103.7284110
 134.4253670  70.6564530 102.8338960 136.1227850  70.4208630 102.6180990
 136.7368260  70.7387920 101.9562070 136.6677410  69.9357220 103.2376850
 142.5403030  86.3200260 100.0242830 142.0461310  86.7169130  99.3069960
 141.9316320  85.6949470 100.4180110 136.8635890  68.9840770  98.9450280
 135.9895730  69.3175880  98.7423210 136.7546640  68.5113950  99.7702150
 137.7707870  71.1911640 100.3292000 137.4421230  70.3763400  99.9493730
 138.7190170  71.1481450 100.2057690 140.2242480  86.9623680  97.3029570
 139.7645450  87.7139490  96.9287590 139.5954940  86.2430150  97.2444370
 127.0493100  83.0566920  99.6928290 126.3227160  82.4372210  99.6254240
 127.1102250  83.4507530  98.8226370 130.6538200  85.2711920  96.4777700
 131.1703220  84.6599280  95.9525960 131.3035580  85.7740700  96.9688710
 133.3933700  86.1620410  97.3046680 133.6811510  85.9074710  96.4279690
 133.9056920  85.6097770  97.8952250 134.6110710  69.9010610  97.8843190
 133.8282500  70.3756110  98.1639950 134.3173640  68.9965440  97.7756370
 139.1631780  70.6033710  95.9292280 139.6039870  70.5478810  95.0813880
 138.8939370  71.5191720  96.0002460 141.0270350  70.2348950  93.9401100
 140.9658750  69.2910170  93.7932120 141.8062380  70.3429040  94.4854560
 136.9989910  68.9839810  94.6342290 137.6019280  69.5560020  95.1090810
 136.2582900  69.5479250  94.4116190 140.1424510  69.3861370  89.9082570
 140.3375140  70.2844820  90.1750000 139.3554380  69.1548450  90.4015520
 141.6951120  86.6262080  91.6689130 141.8703310  85.9399820  91.0250050
 140.9972690  87.1509130  91.2765800 130.6469670  69.7481260 104.4356760
 130.3653940  70.2514860 103.6717580 131.0289370  68.9503010 104.0698890
 128.6993560  83.1321650  89.2270770 128.0702440  83.6006750  89.7756600
 128.8141390  82.2870870  89.6616960 137.2485130  69.1634840 105.0137230
 137.1350580  69.4829450 105.9088750 138.0654870  69.5647350 104.7174510
 140.0283620  86.3106370 104.4955920 140.8208940  85.8155600 104.2881880
 140.3216770  86.9896510 105.1031530 136.1543280  77.1827310  75.3771970
 136.0737330  76.2681920  75.1063680 135.7407700  77.6794380  74.6711680
 126.7119100  74.2328030  71.9199390 125.8235800  74.5744000  71.8179270
 126.9960290  74.0328350  71.0280220 124.6752110  76.8333680  77.8039090
 125.2468220  76.0655880  77.8042730 124.6753650  77.1322440  76.8945700
 125.9176980  72.2418040  79.5908020 125.7379820  71.3443790  79.8710780
 125.5157060  72.7889910  80.2654970 126.5363650  74.7378540  78.1990360
 127.2173760  75.0016910  78.8177760 126.2211700  73.8979410  78.5328370
 130.7288220  75.7845900  77.2862950 131.2366440  76.2826870  77.9267970
 131.2601460  75.0081100  77.1102310 142.8299150  73.9551090  80.9892300
 142.1251320  74.3432800  80.4707410 143.0957070  74.6501380  81.5913230
 129.0124320  70.4244460  81.5526370 129.0142760  70.9416850  80.7472270
 128.1828630  69.9474640  81.5296300 128.6939650  72.1354420  79.5596820
 129.0356460  72.9796470  79.2650690 127.7555460  72.2838160  79.6762160
 124.7678610  81.2220300  70.4255900 124.3906590  81.7107400  69.6940800
 125.0251680  81.8945580  71.0562430 137.3268040  80.2433820  79.5031480
 137.7436830  80.0293930  78.6684940 138.0507860  80.5006610  80.0740100
 141.2730140  78.6421040  79.5947720 140.4448770  78.7114130  79.1197850
 141.8680620  79.2275350  79.1263550 130.3704940  78.2150260  75.4021260
 129.9661940  77.5027510  74.9067160 130.4568060  77.8703500  76.2909300
 130.8386640  81.9017820  77.5660470 130.5414930  81.2963290  76.8868250
 131.7886460  81.9395130  77.4549830 129.0833560  74.9893470  79.1820300
 129.6348150  75.0988810  78.4073550 129.5977070  75.3631070  79.8975530
 136.9710290  78.4892630  70.1309530 137.4103570  77.6515060  69.9847350
 137.6838710  79.1222030  70.2173670 130.5556640  84.4534530  85.0010790
 130.5272070  84.8577480  84.1339220 130.3921610  83.5244890  84.8382390
 140.5527430  69.7435440  68.4450570 140.2400090  69.8362270  69.3449640
 141.3139900  70.3216470  68.3948000 127.0709570  77.1095240  72.9027910
 126.9507170  77.8357330  72.2909180 126.7610460  76.3398150  72.4255820
 142.5071460  85.2361630  86.2974960 142.9831180  85.7144520  86.9764040
 143.1278620  85.1679120  85.5720460 125.9542570  81.9810570  75.1202730
 125.5470650  82.1225160  74.2656330 126.8455580  81.6970730  74.9173940
 141.9104710  82.4274480  83.4574970 142.0367770  82.1886360  82.5392150
 141.9526090  81.5959020  83.9297050 130.2264230  86.1956350  73.2325400
 130.0506710  85.2791890  73.0193200 129.3719970  86.5543640  73.4723200
 141.7628720  74.4806940  84.4224710 141.1472990  74.9886610  83.8940170
 141.4425140  73.5805270  84.3650650 129.5373230  70.4530310  76.2851580
 129.0941380  71.2339850  75.9536100 130.0958220  70.7760200  76.9922520
 133.8243040  73.3198830  81.8886900 133.3622410  73.5281850  82.7006840
 133.4221150  72.5058180  81.5857570 135.9197260  76.0409530  85.1182350
 136.2450670  75.2073280  84.7784580 136.7077590  76.5638050  85.2660680
 131.5749130  70.9977640  78.1441180 131.8721460  71.9040470  78.0633200
 132.1234690  70.5096420  77.5300750 129.3287450  75.5763880  74.0132830
 129.1028370  75.3601050  74.9179450 128.5479980  76.0092340  73.6678800
 136.5585210  75.5827250  72.6123480 135.9594100  76.3063050  72.4287100
 137.1064820  75.5204030  71.8299930 131.7686660  76.4749460  84.6793100
 131.6730260  75.5344190  84.5293500 132.6118640  76.6964530  84.2841170
 133.4742250  72.9698100  85.9023620 132.7840570  72.7770300  86.5369710
 134.2174550  73.2532740  86.4347920 132.1882610  73.4850740  77.1430030
 132.1918670  73.0440690  76.2934570 133.0833730  73.8068070  77.2501850
 128.0384990  73.3677230  76.1024240 127.6985040  73.8452460  76.8591290
 127.2762310  72.9142350  75.7425340 131.2624260  76.7963960  69.5320090
 130.6941160  76.3482210  68.9056000 131.9713260  77.1556740  68.9985240
 132.4890580  77.5452520  78.8895440 132.8560710  77.0711090  79.6356780
 132.2995640  78.4194090  79.2303780 125.3531070  72.2896210  75.0188910
 125.0677990  71.9251880  75.8567530 125.2909930  71.5576670  74.4052050
 130.2789950  76.5861160  81.2079650 129.9747020  77.4653140  81.4330010
 131.2336410  76.6460950  81.2437090 128.8071740  80.7922150  71.8046500
 128.0334000  80.2519770  71.6445220 129.5366370  80.2728760  71.4664260
 139.5659720  79.7887510  77.5972890 140.2858840  80.2842800  77.2069000
 139.3641540  79.1105400  76.9526760 134.9478520  79.8596570  83.4841890
 134.8815830  78.9392240  83.2299480 134.3183660  79.9572010  84.1986530
 137.7418050  75.5545120  70.0364440 138.6297670  75.8662350  69.8615780
 137.7123140  74.6817370  69.6445020 128.8509140  80.4602530  75.4425310
 129.3687810  79.6570790  75.3882200 128.3993160  80.3981670  76.2842140
 134.8795250  82.6817140  83.2345690 134.8939790  81.7498100  83.0164600
 134.1720350  82.7676900  83.8735460 140.0132320  76.8656960  69.5044300
 139.9296040  77.2971180  68.6540740 140.7326510  77.3255310  69.9371120
 141.0906460  79.3224480  82.5814270 140.3654650  79.9153260  82.3843660
 141.6181920  79.3148020  81.7827640 132.0096540  78.8128370  73.0993890
 132.4659320  79.6233620  73.3254080 131.6584750  78.4951510  73.9312380
 134.3129150  84.3234710  80.3286190 134.9571370  84.5294090  81.0059610
 134.6758590  83.5623110  79.8757040 137.3598850  83.1261960  82.2499700
 137.6955090  83.7128650  82.9277620 136.4399190  82.9954670  82.4797490
 125.2132980  86.6382540  69.5447240 125.5730620  87.2371880  68.8904510
 125.0725320  87.1842430  70.3182270 125.1974840  84.9037400  84.0189640
 125.3065960  83.9632140  83.8785030 124.5455400  85.1692150  83.3703370
 133.1887430  83.1753290  85.4187760 132.8684300  82.4562530  85.9633450
 132.5145790  83.8508360  85.4923820 126.8308240  79.2428630  71.1067670
 126.2236190  79.9827530  71.1162970 127.3057590  79.3327990  70.2805870
 139.7703060  72.3636390  71.5912120 139.1416220  72.4682060  70.8770350
 139.2754980  72.5833170  72.3806000 131.7387090  74.6422340  73.0070000
 131.0303240  75.1108680  73.4483610 132.0231570  73.9844350  73.6415190
 133.3643020  76.0619040  81.0062530 133.8628270  76.5364860  81.6714380
 133.5065970  75.1382560  81.2132560 132.8579310  86.6028300  73.7193770
 133.1120810  86.5649690  72.7973140 131.9091790  86.4761630  73.7122020
 128.8413530  79.2039780  68.8556240 129.6076800  79.0921140  69.4181670
 128.9188220  78.5077750  68.2033010 127.5360290  76.6364850  69.5389130
 127.6163880  75.6892360  69.6506530 128.4280040  76.9671730  69.6449790
 128.3375000  86.7860240  76.6423670 129.0737480  86.2375700  76.9132240
 128.7215920  87.6516250  76.5029660 125.2220480  82.8533810  72.5165180
 124.2960260  83.0954950  72.5070590 125.6876910  83.6808070  72.3949930
 136.1797910  82.0786180  85.7784660 135.5736070  82.1017780  85.0380410
 135.8752020  81.3469220  86.3151910 137.6098280  85.8066470  84.3894070
 138.5620030  85.7224490  84.3394310 137.4626500  86.4708180  85.0627860
 135.2057440  80.2413990  68.9333580 134.6567540  80.6883290  69.5776320
 135.8276700  79.7363240  69.4571250 139.2592380  81.5956090  84.8655840
 140.0001850  81.9331850  84.3623300 138.4965060  81.7648150  84.3125610
 127.0954170  76.6009360  85.6695370 127.1359510  76.3023230  86.5780600
 127.9499670  77.0016970  85.5102890 130.8732560  79.2004910  70.8298880
 131.2948980  79.0344780  71.6730270 130.9983400  78.3905140  70.3354020
 129.0359980  75.1801460  83.6369860 128.5056440  74.6892410  83.0093200
 129.7048050  75.6085660  83.1027790 133.3860200  78.2242520  68.0775980
 133.9065860  77.5091540  67.7117130 134.0328600  78.8628390  68.3776490
 137.9338040  79.6470920  83.4011050 138.3479060  79.8016000  84.2501470
 136.9989040  79.7726140  83.5636830 138.4060210  76.9867080  85.4050200
 138.9880980  76.2319400  85.3170680 138.5821980  77.5174520  84.6281680
 129.5232280  72.1463830  83.7167150 129.4289150  71.5284580  82.9918020
 128.9429670  72.8730120  83.4897060 132.2893720  70.7037070  80.7494540
 131.8411020  70.7261330  79.9040090 131.6558920  70.3056090  81.3464840
 132.6953270  79.5991400  81.3706980 133.1141380  80.4424130  81.1983220
 131.7761900  79.7363440  81.1413760 135.0317170  77.3307580  82.7544820
 135.1513380  76.7348720  83.4939660 135.8911170  77.3677270  82.3346120
 137.3705070  77.8844770  81.3307330 136.8440290  78.4087390  80.7272470
 137.7136410  78.5172160  81.9617060 129.7691460  75.2738140  67.7757040
 129.5680520  74.4105500  68.1370380 129.5983510  75.1871500  66.8378640
 130.5460690  85.9044410  82.4864710 130.0081780  86.6290470  82.1673410
 130.7994650  85.4274750  81.6962050 131.7985940  73.8728930  84.0120640
 132.3885630  73.5644780  84.6998460 130.9806180  73.4008680  84.1680540
 128.5674260  72.3738760  67.7634920 128.8700160  72.3806190  66.8554070
 129.3068850  72.0236620  68.2602580 133.4022900  87.1395620  82.7451360
 133.3281600  88.0430760  83.0523730 132.5001740  86.8207520  82.7173430
 127.5904390  81.6781180  68.5964720 128.0279260  82.2210850  69.2522300
 128.0752120  80.8528130  68.6061060 129.4012110  82.7979220  73.7086950
 129.1007650  82.6744190  74.6090860 129.2949600  81.9387810  73.3002680
 125.2940400  85.3340800  78.7866610 124.8571390  85.5141600  79.6190760
 125.8618080  86.0915420  78.6448330 140.9302580  84.8357800  83.0743920
 140.3304570  84.8950360  82.3307840 141.0596480  83.8962780  83.2040770
 142.1704030  82.5775620  68.4113630 141.3396990  82.6452270  68.8820860
 142.3475860  83.4679740  68.1080490 141.6260490  79.3223100  70.9147830
 142.3879400  79.8919750  71.0207520 141.6414860  78.7550300  71.6856140
 125.1264830  77.8461030  75.1455490 124.4713670  77.5772670  74.5015190
 125.9642780  77.7365510  74.6957470 142.6320460  80.1773200  75.7589760
 143.0029290  79.3940520  75.3525730 143.2722390  80.8662300  75.5807060
 139.6154220  81.5609780  81.1720080 138.8014060  81.9906940  81.4345870
 140.0228420  82.1728190  80.5589130 141.6779660  79.6157470  68.0720350
 141.9528500  80.5236350  67.9439570 141.4890400  79.5520000  69.0082340
 138.0755270  72.6402320  69.3673980 138.4940150  72.4533300  68.5270640
 137.7691330  71.7881370  69.6776910 141.5745000  77.5526460  73.0649780
 141.1988600  76.7854390  72.6331070 140.8448120  77.9349160  73.5524710
 140.9644620  76.6997980  82.6989300 140.7330710  76.4710730  81.7987250
 141.2249170  77.6197530  82.6534190 125.7156760  75.1422690  83.5917250
 124.8212810  75.1089450  83.9310960 126.2554310  75.3409480  84.3568500
 126.8830120  74.1125500  68.9975200 127.5921820  73.6908720  68.5122480
 126.1670060  74.1800730  68.3658550 140.3395930  75.0357300  72.3049430
 140.8355050  74.8028170  73.0898310 140.1412000  74.1969140  71.8887070
 126.2196470  69.4171020  77.9400470 126.8672660  68.8668400  77.4995630
 126.6398310  69.6714170  78.7616280 142.6573360  71.5026170  68.0793250
 143.5822670  71.3707350  67.8711540 142.6349150  71.5818990  69.0329700
 142.7311850  72.2736830  70.7049960 141.9363350  72.2081950  71.2342870
 142.9355130  73.2087470  70.6935310 125.9728470  69.5726690  80.6825790
 125.6243290  70.0290510  81.4483970 125.6416170  68.6783820  80.7648220
 131.2798870  84.3005880  80.4488700 131.0390230  84.5680440  79.5619220
 132.2201510  84.4711610  80.5039560 142.5403030  86.3200260  81.2499340
 142.0461310  86.7169130  80.5326470 141.9316320  85.6949470  81.6436620
 127.4180870  85.6908540  81.9676760 126.8241190  85.5593240  82.7066800
 127.4104710  84.8546680  81.5018860 130.6538200  85.2711920  77.7034210
 131.1703220  84.6599280  77.1782470 131.3035580  85.7740700  78.1945220
 133.3933700  86.1620410  78.5303190 133.6811510  85.9074710  77.6536200
 133.9056920  85.6097770  79.1208760 140.1424510  69.3861370  71.1339080
 140.3375140  70.2844820  71.4006510 139.3554380  69.1548450  71.6272030
 126.9385800  85.0674540  71.5731700 126.4133420  85.4482570  70.8693660
 126.8630380  85.6925310  72.2941410 133.4606060  87.0836510  85.8971390
 134.3873370  86.8480780  85.9407350 133.4456490  87.9108510  85.4157420
 128.6993560  83.1321650  70.4527280 128.0702440  83.6006750  71.0013110
 128.8141390  82.2870870  70.8873470 140.0283620  86.3106370  85.7212430
 140.8208940  85.8155600  85.5138390 140.3216770  86.9896510  86.3288040
 126.7119100  74.2328030  53.1455900 125.8235800  74.5744000  53.0435780
 126.9960290  74.0328350  52.2536730 125.9176980  72.2418040  60.8164530
 125.7379820  71.3443790  61.0967290 125.5157060  72.7889910  61.4911480
 134.7575480  74.4433900  58.7176840 135.1340300  73.5705780  58.6050510
 134.6594990  74.7792600  57.8267280 128.8880490  72.8159530  54.1794280
 128.9947240  73.7163260  54.4863040 127.9772850  72.7677500  53.8888930
 138.5399600  71.9384340  55.6505180 139.3609220  71.4480910  55.6930660
 138.5733680  72.5282000  56.4037020 142.8299150  73.9551090  62.2148810
 142.1251320  74.3432800  61.6963920 143.0957070  74.6501380  62.8169740
 129.0124320  70.4244460  62.7782880 129.0142760  70.9416850  61.9728780
 128.1828630  69.9474640  62.7552810 138.7761080  73.8784720  58.4232720
 138.0716650  74.1669610  59.0035830 139.1373240  74.6884830  58.0632280
 128.6939650  72.1354420  60.7853330 129.0356460  72.9796470  60.4907200
 127.7555460  72.2838160  60.9018670 124.7678610  81.2220300  51.6512410
 124.3906590  81.7107400  50.9197310 125.0251680  81.8945580  52.2818940
 140.3923860  83.4959850  60.6860200 139.7087380  84.1658960  60.6776870
 140.9318150  83.6940500  59.9205060 141.8448000  73.3239510  58.8141930
 140.8972910  73.3578490  58.9457360 142.1697990  74.1378460  59.1991290
 139.2228020  82.0620200  54.4895550 139.1124350  81.1194530  54.6144970
 139.2196270  82.4235840  55.3758310 137.3268040  80.2433820  60.7287990
 137.7436830  80.0293930  59.8941450 138.0507860  80.5006610  61.2996610
 134.7517380  73.9602520  50.8425200 133.8121050  74.1216480  50.9277660
 135.0700640  74.6788200  50.2961190 141.2730140  78.6421040  60.8204230
 140.4448770  78.7114130  60.3454360 141.8680620  79.2275350  60.3520060
 138.2372150  75.4290360  61.7659100 137.8243330  76.2544070  62.0199090
 137.5048100  74.8435400  61.5735460 138.9272250  85.4749690  62.4540080
 138.4502810  86.2821880  62.2612690 138.2434040  84.8228020  62.6066290
 128.7576290  78.5112830  64.0182150 128.6184060  79.3835630  64.3869550
 127.8757650  78.1685640  63.8730090 140.5527430  69.7435440  49.6707080
 140.2400090  69.8362270  50.5706150 141.3139900  70.3216470  49.6204510
 141.9104710  82.4274480  64.6831480 142.0367770  82.1886360  63.7648660
 141.9526090  81.5959020  65.1553560 137.7475850  86.4157820  52.6810290
 137.5876990  86.1260760  53.5792120 137.5822560  85.6397950  52.1455520
 130.2264230  86.1956350  54.4581910 130.0506710  85.2791890  54.2449710
 129.3719970  86.5543640  54.6979710 137.4501980  83.9245380  51.2408290
 136.7567140  83.9222670  50.5810570 138.1924840  83.5004700  50.8102460
 141.7628720  74.4806940  65.6481220 141.1472990  74.9886610  65.1196680
 141.4425140  73.5805270  65.5907160 124.7654460  81.3224550  62.4747520
 124.9285500  80.8529910  61.6566890 125.2306910  80.8148110  63.1396360
 133.8243040  73.3198830  63.1143410 133.3622410  73.5281850  63.9263350
 133.4221150  72.5058180  62.8114080 138.8247550  74.5407780  64.2440070
 137.9741140  74.2413530  64.5649140 138.6649340  74.7849790  63.3323890
 135.9197260  76.0409530  66.3438860 136.2450670  75.2073280  66.0041090
 136.7077590  76.5638050  66.4917190 131.7686660  76.4749460  65.9049610
 131.6730260  75.5344190  65.7550010 132.6118640  76.6964530  65.5097680
 126.8997200  72.8863130  64.0583390 126.5060590  73.7338340  64.2656170
 126.2115600  72.2489500  64.2492030 124.2014250  70.8091590  58.0913470
 123.9127300  71.3794450  58.8038450 124.9460010  70.3296040  58.4544700
 132.1882610  73.4850740  58.3686540 132.1918670  73.0440690  57.5191080
 133.0833730  73.8068070  58.4758360 132.2502760  74.4862820  51.3593300
 132.3715580  74.4449300  52.3079120 131.8651270  75.3486970  51.2040030
 136.2131130  72.2630220  59.3756990 136.2303870  72.7138870  60.2198840
 135.9646710  71.3635860  59.5890430 131.2624260  76.7963960  50.7576600
 130.6941160  76.3482210  50.1312510 131.9713260  77.1556740  50.2241750
 139.6401880  69.6762400  65.2143370 139.9647650  68.9452060  65.7401350
 139.6758390  69.3576040  64.3124360 126.3393440  80.6975980  64.6343330
 125.9548230  80.0569650  65.2326290 126.6505630  81.4012100  65.2038060
 125.3531070  72.2896210  56.2445420 125.0677990  71.9251880  57.0824040
 125.2909930  71.5576670  55.6308560 139.5659720  79.7887510  58.8229400
 140.2858840  80.2842800  58.4325510 139.3641540  79.1105400  58.1783270
 134.9478520  79.8596570  64.7098400 134.8815830  78.9392240  64.4555990
 134.3183660  79.9572010  65.4243040 137.7418050  75.5545120  51.2620950
 138.6297670  75.8662350  51.0872290 137.7123140  74.6817370  50.8701530
 133.7378640  81.7268810  51.9409120 134.0794340  82.4711040  51.4452440
 132.9091350  82.0399930  52.3033950 126.3353680  77.4263900  63.5807520
 125.9768620  78.0917750  64.1680860 126.0408240  76.5947450  63.9520140
 129.5366800  77.8848140  66.4647070 129.2366940  78.0305320  65.5674890
 130.3078040  77.3253430  66.3720460 140.0132320  76.8656960  50.7300810
 139.9296040  77.2971180  49.8797250 140.7326510  77.3255310  51.1627630
 141.0906460  79.3224480  63.8070780 140.3654650  79.9153260  63.6100170
 141.6181920  79.3148020  63.0084150 141.0419570  83.7199220  53.4582940
 140.3995730  83.0654840  53.7326660 140.6550230  84.1254310  52.6823610
 124.8461730  77.4255160  50.2042120 125.7156580  77.7079960  50.4878040
 124.3552050  78.2391030  50.0890930 134.3129150  84.3234710  61.5542700
 134.9571370  84.5294090  62.2316120 134.6758590  83.5623110  61.1013550
 135.5861230  82.3267060  60.2720150 136.2283460  81.6260220  60.3852320
 136.1110580  83.1065500  60.0917040 139.4316950  82.6115680  49.9959290
 139.2054530  81.8946120  50.5883930 139.0413150  82.3628120  49.1581040
 137.3598850  83.1261960  63.4756210 137.6955090  83.7128650  64.1534130
 136.4399190  82.9954670  63.7054000 125.2132980  86.6382540  50.7703750
 125.5730620  87.2371880  50.1161020 125.0725320  87.1842430  51.5438780
 124.9102250  70.9157140  64.2579620 124.1960770  71.1154060  64.8632230
 125.3297290  70.1396710  64.6294420 139.0133200  80.5287620  51.6573450
 138.7254900  80.9900310  52.4451330 139.8085370  80.0685390  51.9257670
 125.1974840  84.9037400  65.2446150 125.3065960  83.9632140  65.1041540
 124.5455400  85.1692150  64.5959880 131.2301600  84.0213740  51.5877420
 131.2211700  84.7543430  50.9721930 130.3099960  83.7745320  51.6804380
 136.4041030  73.4079450  62.0081070 136.7721850  72.5874660  62.3360640
 135.5439230  73.4681340  62.4236720 139.7703060  72.3636390  52.8168630
 139.1416220  72.4682060  52.1026860 139.2754980  72.5833170  53.6062510
 134.2161200  84.0841980  50.2502610 134.3173180  83.8805970  49.3204590
 133.3162940  83.8300260  50.4550390 133.3643020  76.0619040  62.2319040
 133.8628270  76.5364860  62.8970890 133.5065970  75.1382560  62.4389070
 129.9422110  72.9507420  51.6077220 130.7912640  73.3877570  51.5417410
 129.5753380  73.2627680  52.4349280 140.5709880  72.2787000  63.0747430
 140.0683480  73.0192400  63.4141240 141.3866540  72.6671000  62.7584220
 128.8413530  79.2039780  50.0812750 129.6076800  79.0921140  50.6438180
 128.9188220  78.5077750  49.4289520 127.5360290  76.6364850  50.7645640
 127.6163880  75.6892360  50.8763040 128.4280040  76.9671730  50.8706300
 140.8657470  84.6929030  58.1963050 140.9904890  85.5160200  58.6686860
 141.7323030  84.4819760  57.8487200 125.2220480  82.8533810  53.7421690
 124.2960260  83.0954950  53.7327100 125.6876910  83.6808070  53.6206440
 131.4477310  85.9590550  49.6905750 132.2405920  86.2479380  49.2387540
 130.9281660  85.5282720  49.0118230 136.1797910  82.0786180  67.0041170
 135.5736070  82.1017780  66.2636920 135.8752020  81.3469220  67.5408420
 140.5007480  85.1860680  51.1142490 140.2148990  84.7725820  50.2996670
 140.3027030  86.1148390  50.9943010 131.9654710  81.1793960  49.5548100
 131.8605350  80.5646310  50.2809480 131.7978930  80.6559850  48.7711110
 132.1169030  79.8650760  65.5337330 131.3514700  80.4335760  65.4492000
 132.2984990  79.5726970  64.6405560 135.2057440  80.2413990  50.1590090
 134.6567540  80.6883290  50.8032830 135.8276700  79.7363240  50.6827760
 139.2592380  81.5956090  66.0912350 140.0001850  81.9331850  65.5879810
 138.4965060  81.7648150  65.5382120 129.0359980  75.1801460  64.8626370
 128.5056440  74.6892410  64.2349710 129.7048050  75.6085660  64.3284300
 133.3860200  78.2242520  49.3032490 133.9065860  77.5091540  48.9373640
 134.0328600  78.8628390  49.6033000 137.9338040  79.6470920  64.6267560
 138.3479060  79.8016000  65.4757980 136.9989040  79.7726140  64.7893340
 138.4060210  76.9867080  66.6306710 138.9880980  76.2319400  66.5427190
 138.5821980  77.5174520  65.8538190 129.5232280  72.1463830  64.9423660
 129.4289150  71.5284580  64.2174530 128.9429670  72.8730120  64.7153570
 132.2893720  70.7037070  61.9751050 131.8411020  70.7261330  61.1296600
 131.6558920  70.3056090  62.5721350 132.6953270  79.5991400  62.5963490
 133.1141380  80.4424130  62.4239730 131.7761900  79.7363440  62.3670270
 135.0317170  77.3307580  63.9801330 135.1513380  76.7348720  64.7196170
 135.8911170  77.3677270  63.5602630 137.3705070  77.8844770  62.5563840
 136.8440290  78.4087390  61.9528980 137.7136410  78.5172160  63.1873570
 129.7691460  75.2738140  49.0013550 129.5680520  74.4105500  49.3626890
 129.5983510  75.1871500  48.0635150 131.7985940  73.8728930  65.2377150
 132.3885630  73.5644780  65.9254970 130.9806180  73.4008680  65.3937050
 136.6179370  73.4894740  65.4710170 135.9294890  72.8276280  65.4060160
 137.3385390  73.0433010  65.9158630 137.2479770  70.0846370  51.5300430
 137.5282060  69.2414270  51.8859850 136.4745500  70.3169480  52.0439180
 131.7859190  71.3173380  49.9747630 131.4381190  70.6397370  49.3950080
 131.9871960  70.8562890  50.7891020 133.9508230  86.3054130  51.5934230
 134.8459020  86.6439100  51.6152990 133.9825860  85.5833540  50.9658510
 127.5904390  81.6781180  49.8221230 128.0279260  82.2210850  50.4778810
 128.0752120  80.8528130  49.8317570 140.9302580  84.8357800  64.3000430
 140.3304570  84.8950360  63.5564350 141.0596480  83.8962780  64.4297280
 142.1704030  82.5775620  49.6370140 141.3396990  82.6452270  50.1077370
 142.3475860  83.4679740  49.3337000 141.6260490  79.3223100  52.1404340
 142.3879400  79.8919750  52.2464030 141.6414860  78.7550300  52.9112650
 142.6320460  80.1773200  56.9846270 143.0029290  79.3940520  56.5782240
 143.2722390  80.8662300  56.8063570 139.6154220  81.5609780  62.3976590
 138.8014060  81.9906940  62.6602380 140.0228420  82.1728190  61.7845640
 141.6779660  79.6157470  49.2976860 141.9528500  80.5236350  49.1696080
 141.4890400  79.5520000  50.2338850 138.0755270  72.6402320  50.5930490
 138.4940150  72.4533300  49.7527150 137.7691330  71.7881370  50.9033420
 141.5745000  77.5526460  54.2906290 141.1988600  76.7854390  53.8587580
 140.8448120  77.9349160  54.7781220 140.9644620  76.6997980  63.9245810
 140.7330710  76.4710730  63.0243760 141.2249170  77.6197530  63.8790700
 139.4032690  71.9254410  66.7025510 140.2802870  71.9337810  67.0859510
 139.4153530  71.1885250  66.0917860 124.3402910  75.0559960  52.3137330
 123.4366990  75.3190160  52.1388990 124.8243530  75.3271130  51.5337290
 140.8495960  75.7783950  57.5913530 141.3733440  75.2846600  56.9603700
 141.4355380  75.9134310  58.3361100 141.0285680  75.8623820  61.1133080
 140.0788390  75.8287360  61.2278070 141.2098690  76.7723930  60.8782850
 126.8830120  74.1125500  50.2231710 127.5921820  73.6908720  49.7378990
 126.1670060  74.1800730  49.5915060 126.5304280  70.1664830  49.2634360
 127.2532410  70.7073770  49.5815580 126.8028800  69.8928250  48.3875900
 140.3395930  75.0357300  53.5305940 140.8355050  74.8028170  54.3154820
 140.1412000  74.1969140  53.1143580 126.2196470  69.4171020  59.1656980
 126.8672660  68.8668400  58.7252140 126.6398310  69.6714170  59.9872790
 141.7683090  73.6718250  56.0643620 141.6582370  73.5174290  57.0025890
 142.5290680  73.1439190  55.8219030 140.1148810  69.6112380  62.5226620
 140.7521030  70.2246520  62.8885810 140.2623700  69.6473040  61.5775850
 142.6573360  71.5026170  49.3049760 143.5822670  71.3707350  49.0968050
 142.6349150  71.5818990  50.2586210 142.7311850  72.2736830  51.9306470
 141.9363350  72.2081950  52.4599380 142.9355130  73.2087470  51.9191820
 125.9728470  69.5726690  61.9082300 125.6243290  70.0290510  62.6740480
 125.6416170  68.6783820  61.9904730 133.4853290  70.7638570  65.4301720
 133.4242180  71.3560400  66.1797130 134.4253670  70.6564530  65.2851980
 136.1227850  70.4208630  65.0694010 136.7368260  70.7387920  64.4075090
 136.6677410  69.9357220  65.6889870 142.5403030  86.3200260  62.4755850
 142.0461310  86.7169130  61.7582980 141.9316320  85.6949470  62.8693130
 126.6449110  69.1002890  65.1833070 127.1932100  68.9190940  64.4199180
 126.7104420  68.3097000  65.7189380 137.7707870  71.1911640  62.7805020
 137.4421230  70.3763400  62.4006750 138.7190170  71.1481450  62.6570710
 140.2242480  86.9623680  59.7542590 139.7645450  87.7139490  59.3800610
 139.5954940  86.2430150  59.6957390 139.1631780  70.6033710  58.3805300
 139.6039870  70.5478810  57.5326900 138.8939370  71.5191720  58.4515480
 141.0270350  70.2348950  56.3914120 140.9658750  69.2910170  56.2445140
 141.8062380  70.3429040  56.9367580 125.3323100  86.3741310  55.3538070
 125.1645140  85.7411990  56.0519960 124.4657610  86.5800710  55.0032260
 125.9551120  70.2058090  52.8569930 126.7130480  70.3186970  52.2833960
 125.4928290  71.0427290  52.8113360 140.1424510  69.3861370  52.3595590
 140.3375140  70.2844820  52.6263020 139.3554380  69.1548450  52.8528540
 126.9385800  85.0674540  52.7988210 126.4133420  85.4482570  52.0950170
 126.8630380  85.6925310  53.5197920 128.3276270  70.7322140  51.3971900
 128.8569030  69.9451940  51.2679850 128.9604590  71.4113330  51.6307430
 141.6951120  86.6262080  54.1202150 141.8703310  85.9399820  53.4763070
 140.9972690  87.1509130  53.7278820 129.5378770  87.0156920  51.6737460
 130.2697590  86.7316200  51.1261350 129.7972440  86.7770200  52.5636840
 128.6993560  83.1321650  51.6783790 128.0702440  83.6006750  52.2269620
 128.8141390  82.2870870  52.1129980 136.1543280  77.1827310  37.8284990
 136.0737330  76.2681920  37.5576700 135.7407700  77.6794380  37.1224700
 134.2861320  78.9606330  39.7094260 133.5103420  78.4806770  39.9992830
 134.9374250  78.2811980  39.5350420 128.3027150  79.2726140  40.5870020
 127.4712030  79.0174850  40.9866530 128.9108130  79.3436910  41.3227940
 138.3068750  83.3666520  38.4893390 137.8450280  82.5953760  38.8180560
 139.1194300  83.3932590  38.9945840 126.7119100  74.2328030  34.3712410
 125.8235800  74.5744000  34.2692290 126.9960290  74.0328350  33.4793240
 124.6752110  76.8333680  40.2552110 125.2468220  76.0655880  40.2555750
 124.6753650  77.1322440  39.3458720 134.5332060  85.6524530  38.1097380
 133.9143500  86.1082030  37.5391820 135.3883840  85.8075990  37.7087080
 133.7270310  81.6363520  39.7164420 133.6578590  80.6953460  39.5553550
 134.4890170  81.7264930  40.2886990 134.7575480  74.4433900  39.9433350
 135.1340300  73.5705780  39.8307020 134.6594990  74.7792600  39.0523790
 128.8880490  72.8159530  35.4050790 128.9947240  73.7163260  35.7119550
 127.9772850  72.7677500  35.1145440 138.5399600  71.9384340  36.8761690
 139.3609220  71.4480910  36.9187170 138.5733680  72.5282000  37.6293530
 130.7288220  75.7845900  39.7375970 131.2366440  76.2826870  40.3780990
 131.2601460  75.0081100  39.5615330 142.8299150  73.9551090  43.4405320
 142.1251320  74.3432800  42.9220430 143.0957070  74.6501380  44.0426250
 135.3995410  80.5363770  35.5029290 134.7812680  81.0013220  34.9392010
 135.9118660  81.2291250  35.9198800 130.2627170  80.0639640  42.1812890
 129.9296550  80.6908560  42.8233960 130.4393850  80.5901520  41.4014560
 138.7761080  73.8784720  39.6489230 138.0716650  74.1669610  40.2292340
 139.1373240  74.6884830  39.2888790 129.4746270  82.0320440  43.9962070
 130.0920270  82.7071520  43.7146520 128.6139390  82.4408420  43.9049570
 124.7678610  81.2220300  32.8768920 124.3906590  81.7107400  32.1453820
 125.0251680  81.8945580  33.5075450 140.3923860  83.4959850  41.9116710
 139.7087380  84.1658960  41.9033380 140.9318150  83.6940500  41.1461570
 141.8448000  73.3239510  40.0398440 140.8972910  73.3578490  40.1713870
 142.1697990  74.1378460  40.4247800 132.3767540  69.6236690  38.3354430
 132.6842520  69.0683580  37.6189930 131.4468240  69.7581150  38.1527420
 137.9282600  85.3403980  40.6261890 137.9409760  84.9366270  39.7584150
 137.3757820  86.1151270  40.5223320 139.2228020  82.0620200  35.7152060
 139.1124350  81.1194530  35.8401480 139.2196270  82.4235840  36.6014820
 137.3268040  80.2433820  41.9544500 137.7436830  80.0293930  41.1197960
 138.0507860  80.5006610  42.5253120 134.7648300  77.6885520  35.0714550
 133.8377580  77.6222900  35.3003020 134.9173120  78.6265650  34.9569790
 134.7517380  73.9602520  32.0681710 133.8121050  74.1216480  32.1534170
 135.0700640  74.6788200  31.5217700 141.2730140  78.6421040  42.0460740
 140.4448770  78.7114130  41.5710870 141.8680620  79.2275350  41.5776570
 138.7945590  79.2505820  35.5749800 138.1758010  78.9125370  34.9276100
 138.7770040  78.6065580  36.2828990 138.2372150  75.4290360  42.9915610
 137.8243330  76.2544070  43.2455600 137.5048100  74.8435400  42.7991970
 130.3704940  78.2150260  37.8534280 129.9661940  77.5027510  37.3580180
 130.4568060  77.8703500  38.7422320 129.0833560  74.9893470  41.6333320
 129.6348150  75.0988810  40.8586570 129.5977070  75.3631070  42.3488550
 138.9272250  85.4749690  43.6796590 138.4502810  86.2821880  43.4869200
 138.2434040  84.8228020  43.8322800 129.9305070  81.6399510  46.6681290
 129.0333600  81.8639480  46.9154690 129.9557940  81.7634450  45.7192690
 136.9710290  78.4892630  32.5822550 137.4103570  77.6515060  32.4360370
 137.6838710  79.1222030  32.6686690 128.7576290  78.5112830  45.2438660
 128.6184060  79.3835630  45.6126060 127.8757650  78.1685640  45.0986600
 135.0805670  83.4288700  36.5503790 135.5201580  84.1713030  36.1359180
 135.0192560  83.6715270  37.4742750 130.5556640  84.4534530  47.4523810
 130.5272070  84.8577480  46.5852240 130.3921610  83.5244890  47.2895410
 140.5527430  69.7435440  30.8963590 140.2400090  69.8362270  31.7962660
 141.3139900  70.3216470  30.8461020 127.0709570  77.1095240  35.3540930
 126.9507170  77.8357330  34.7422200 126.7610460  76.3398150  34.8768840
 142.5071460  85.2361630  48.7487980 142.9831180  85.7144520  49.4277060
 143.1278620  85.1679120  48.0233480 141.9104710  82.4274480  45.9087990
 142.0367770  82.1886360  44.9905170 141.9526090  81.5959020  46.3810070
 135.7721450  86.1302480  44.4782800 136.2866120  86.0410490  45.2805230
 134.9290530  86.4762180  44.7710710 137.7475850  86.4157820  33.9066800
 137.5876990  86.1260760  34.8048630 137.5822560  85.6397950  33.3712030
 137.4501980  83.9245380  32.4664800 136.7567140  83.9222670  31.8067080
 138.1924840  83.5004700  32.0358970 137.0151910  85.5508090  36.5413290
 137.4708860  84.7697470  36.8551910 137.3544430  86.2614910  37.0854470
 141.7628720  74.4806940  46.8737730 141.1472990  74.9886610  46.3453190
 141.4425140  73.5805270  46.8163670 124.7654460  81.3224550  43.7004030
 124.9285500  80.8529910  42.8823400 125.2306910  80.8148110  44.3652870
 129.5373230  70.4530310  38.7364600 129.0941380  71.2339850  38.4049120
 130.0958220  70.7760200  39.4435540 133.8243040  73.3198830  44.3399920
 133.3622410  73.5281850  45.1519860 133.4221150  72.5058180  44.0370590
 138.8247550  74.5407780  45.4696580 137.9741140  74.2413530  45.7905650
 138.6649340  74.7849790  44.5580400 135.9197260  76.0409530  47.5695370
 136.2450670  75.2073280  47.2297600 136.7077590  76.5638050  47.7173700
 132.6532050  70.0741010  33.6170430 132.0286230  70.0700880  34.3423740
 132.5662170  69.2071970  33.2206400 131.5749130  70.9977640  40.5954200
 131.8721460  71.9040470  40.5146220 132.1234690  70.5096420  39.9813770
 129.3287450  75.5763880  36.4645850 129.1028370  75.3601050  37.3692470
 128.5479980  76.0092340  36.1191820 136.5585210  75.5827250  35.0636500
 135.9594100  76.3063050  34.8800120 137.1064820  75.5204030  34.2812950
 131.7686660  76.4749460  47.1306120 131.6730260  75.5344190  46.9806520
 132.6118640  76.6964530  46.7354190 135.1650080  74.2190790  37.0939780
 135.5579650  74.5362990  36.2808470 135.5266930  73.3402670  37.2084300
 133.4742250  72.9698100  48.3536640 132.7840570  72.7770300  48.9882730
 134.2174550  73.2532740  48.8860940 124.3884480  74.7511710  30.5272700
 124.3059150  75.6942470  30.6687690 124.0367540  74.6086620  29.6485050
 135.7505220  76.8096540  41.1890560 135.0186340  77.3183350  41.5380660
 135.3529560  75.9926520  40.8879340 132.1882610  73.4850740  39.5943050
 132.1918670  73.0440690  38.7447590 133.0833730  73.8068070  39.7014870
 128.0384990  73.3677230  38.5537260 127.6985040  73.8452460  39.3104310
 127.2762310  72.9142350  38.1938360 132.2502760  74.4862820  32.5849810
 132.3715580  74.4449300  33.5335630 131.8651270  75.3486970  32.4296540
 136.2131130  72.2630220  40.6013500 136.2303870  72.7138870  41.4455350
 135.9646710  71.3635860  40.8146940 131.2624260  76.7963960  31.9833110
 130.6941160  76.3482210  31.3569020 131.9713260  77.1556740  31.4498260
 139.6401880  69.6762400  46.4399880 139.9647650  68.9452060  46.9657860
 139.6758390  69.3576040  45.5380870 126.3393440  80.6975980  45.8599840
 125.9548230  80.0569650  46.4582800 126.6505630  81.4012100  46.4294570
 132.4890580  77.5452520  41.3408460 132.8560710  77.0711090  42.0869800
 132.2995640  78.4194090  41.6816800 125.3531070  72.2896210  37.4701930
 125.0677990  71.9251880  38.3080550 125.2909930  71.5576670  36.8565070
 130.2789950  76.5861160  43.6592670 129.9747020  77.4653140  43.8843030
 131.2336410  76.6460950  43.6950110 128.8071740  80.7922150  34.2559520
 128.0334000  80.2519770  34.0958240 129.5366370  80.2728760  33.9177280
 139.5659720  79.7887510  40.0485910 140.2858840  80.2842800  39.6582020
 139.3641540  79.1105400  39.4039780 135.0269660  71.1825470  34.1915300
 134.2134270  70.6838640  34.1160610 134.8331610  72.0223720  33.7751650
 134.9478520  79.8596570  45.9354910 134.8815830  78.9392240  45.6812500
 134.3183660  79.9572010  46.6499550 137.7418050  75.5545120  32.4877460
 138.6297670  75.8662350  32.3128800 137.7123140  74.6817370  32.0958040
 133.7378640  81.7268810  33.1665630 134.0794340  82.4711040  32.6708950
 132.9091350  82.0399930  33.5290460 129.5366800  77.8848140  47.6903580
 129.2366940  78.0305320  46.7931400 130.3078040  77.3253430  47.5976970
 134.8795250  82.6817140  45.6858710 134.8939790  81.7498100  45.4677620
 134.1720350  82.7676900  46.3248480 140.0132320  76.8656960  31.9557320
 139.9296040  77.2971180  31.1053760 140.7326510  77.3255310  32.3884140
 141.0906460  79.3224480  45.0327290 140.3654650  79.9153260  44.8356680
 141.6181920  79.3148020  44.2340660 141.0419570  83.7199220  34.6839450
 140.3995730  83.0654840  34.9583170 140.6550230  84.1254310  33.9080120
 136.6206050  81.0484650  38.5311140 136.9729870  80.4512780  37.8712510
 135.7368380  80.7228880  38.7019390 132.7069330  81.8082340  35.9381550
 133.3940460  82.3551550  36.3189140 131.9201750  82.3523070  35.9731160
 124.8461730  77.4255160  31.4298630 125.7156580  77.7079960  31.7134550
 124.3552050  78.2391030  31.3147440 132.0096540  78.8128370  35.5506910
 132.4659320  79.6233620  35.7767100 131.6584750  78.4951510  36.3825400
 134.3129150  84.3234710  42.7799210 134.9571370  84.5294090  43.4572630
 134.6758590  83.5623110  42.3270060 127.9108320  69.1566020  36.0229430
 127.7822950  69.1483920  36.9714350 127.0870340  69.4949110  35.6720440
 135.5861230  82.3267060  41.4976660 136.2283460  81.6260220  41.6108830
 136.1110580  83.1065500  41.3173550 139.4316950  82.6115680  31.2215800
 139.2054530  81.8946120  31.8140440 139.0413150  82.3628120  30.3837550
 137.3598850  83.1261960  44.7012720 137.6955090  83.7128650  45.3790640
 136.4399190  82.9954670  44.9310510 125.2132980  86.6382540  31.9960260
 125.5730620  87.2371880  31.3417530 125.0725320  87.1842430  32.7695290
 139.0133200  80.5287620  32.8829960 138.7254900  80.9900310  33.6707840
 139.8085370  80.0685390  33.1514180 125.1974840  84.9037400  46.4702660
 125.3065960  83.9632140  46.3298050 124.5455400  85.1692150  45.8216390
 133.1887430  83.1753290  47.8700780 132.8684300  82.4562530  48.4146470
 132.5145790  83.8508360  47.9436840 131.2301600  84.0213740  32.8133930
 131.2211700  84.7543430  32.1978440 130.3099960  83.7745320  32.9060890
 126.8308240  79.2428630  33.5580690 126.2236190  79.9827530  33.5675990
 127.3057590  79.3327990  32.7318890 136.4041030  73.4079450  43.2337580
 136.7721850  72.5874660  43.5617150 135.5439230  73.4681340  43.6493230
 139.7703060  72.3636390  34.0425140 139.1416220  72.4682060  33.3283370
 139.2754980  72.5833170  34.8319020 134.2161200  84.0841980  31.4759120
 134.3173180  83.8805970  30.5461100 133.3162940  83.8300260  31.6806900
 131.7387090  74.6422340  35.4583020 131.0303240  75.1108680  35.8996630
 132.0231570  73.9844350  36.0928210 133.3643020  76.0619040  43.4575550
 133.8628270  76.5364860  44.1227400 133.5065970  75.1382560  43.6645580
 135.7702520  71.3673000  36.8978810 135.6470300  71.3859130  35.9488320
 136.7187080  71.4151940  37.0177210 132.8579310  86.6028300  36.1706790
 133.1120810  86.5649690  35.2486160 131.9091790  86.4761630  36.1635040
 129.9422110  72.9507420  32.8333730 130.7912640  73.3877570  32.7673920
 129.5753380  73.2627680  33.6605790 140.5709880  72.2787000  44.3003940
 140.0683480  73.0192400  44.6397750 141.3866540  72.6671000  43.9840730
 138.8631890  77.5220180  37.7465300 137.9222030  77.5370410  37.9212990
 139.1775960  76.7356140  38.1925600 128.8413530  79.2039780  31.3069260
 129.6076800  79.0921140  31.8694690 128.9188220  78.5077750  30.6546030
 127.5360290  76.6364850  31.9902150 127.6163880  75.6892360  32.1019550
 128.4280040  76.9671730  32.0962810 140.8657470  84.6929030  39.4219560
 140.9904890  85.5160200  39.8943370 141.7323030  84.4819760  39.0743710
 127.3433280  85.9706310  48.2822270 128.1446010  86.2918360  48.6957670
 126.8285100  85.6101890  49.0042180 131.4477310  85.9590550  30.9162260
 132.2405920  86.2479380  30.4644050 130.9281660  85.5282720  30.2374740
 136.1797910  82.0786180  48.2297680 135.5736070  82.1017780  47.4893430
 135.8752020  81.3469220  48.7664930 137.6098280  85.8066470  46.8407090
 138.5620030  85.7224490  46.7907330 137.4626500  86.4708180  47.5140880
 140.5007480  85.1860680  32.3399000 140.2148990  84.7725820  31.5253180
 140.3027030  86.1148390  32.2199520 125.0631090  78.4579770  47.2258320
 125.5670110  77.8787050  47.7974550 124.3238510  78.7420000  47.7634690
 131.9654710  81.1793960  30.7804610 131.8605350  80.5646310  31.5065990
 131.7978930  80.6559850  29.9967620 132.1169030  79.8650760  46.7593840
 131.3514700  80.4335760  46.6748510 132.2984990  79.5726970  45.8662070
 135.2057440  80.2413990  31.3846600 134.6567540  80.6883290  32.0289340
 135.8276700  79.7363240  31.9084270 139.2592380  81.5956090  47.3168860
 140.0001850  81.9331850  46.8136320 138.4965060  81.7648150  46.7638630
 127.0954170  76.6009360  48.1208390 127.1359510  76.3023230  49.0293620
 127.9499670  77.0016970  47.9615910 130.8732560  79.2004910  33.2811900
 131.2948980  79.0344780  34.1243290 130.9983400  78.3905140  32.7867040
 133.3860200  78.2242520  30.5289000 133.9065860  77.5091540  30.1630150
 134.0328600  78.8628390  30.8289510 137.9338040  79.6470920  45.8524070
 138.3479060  79.8016000  46.7014490 136.9989040  79.7726140  46.0149850
 138.4060210  76.9867080  47.8563220 138.9880980  76.2319400  47.7683700
 138.5821980  77.5174520  47.0794700 132.2893720  70.7037070  43.2007560
 131.8411020  70.7261330  42.3553110 131.6558920  70.3056090  43.7977860
 132.6953270  79.5991400  43.8220000 133.1141380  80.4424130  43.6496240
 131.7761900  79.7363440  43.5926780 135.0317170  77.3307580  45.2057840
 135.1513380  76.7348720  45.9452680 135.8911170  77.3677270  44.7859140
 137.3705070  77.8844770  43.7820350 136.8440290  78.4087390  43.1785490
 137.7136410  78.5172160  44.4130080 129.7691460  75.2738140  30.2270060
 129.5680520  74.4105500  30.5883400 129.5983510  75.1871500  29.2891660
 130.5460690  85.9044410  44.9377730 130.0081780  86.6290470  44.6186430
 130.7994650  85.4274750  44.1475070 131.7985940  73.8728930  46.4633660
 132.3885630  73.5644780  47.1511480 130.9806180  73.4008680  46.6193560
 136.6179370  73.4894740  46.6966680 135.9294890  72.8276280  46.6316670
 137.3385390  73.0433010  47.1415140 137.2479770  70.0846370  32.7556940
 137.5282060  69.2414270  33.1116360 136.4745500  70.3169480  33.2695690
 128.5674260  72.3738760  30.2147940 128.8700160  72.3806190  29.3067090
 129.3068850  72.0236620  30.7115600 133.4022900  87.1395620  45.1964380
 133.3281600  88.0430760  45.5036750 132.5001740  86.8207520  45.1686450
 131.7859190  71.3173380  31.2004140 131.4381190  70.6397370  30.6206590
 131.9871960  70.8562890  32.0147530 133.9508230  86.3054130  32.8190740
 134.8459020  86.6439100  32.8409500 133.9825860  85.5833540  32.1915020
 127.5904390  81.6781180  31.0477740 128.0279260  82.2210850  31.7035320
 128.0752120  80.8528130  31.0574080 140.9302580  84.8357800  45.5256940
 140.3304570  84.8950360  44.7820860 141.0596480  83.8962780  45.6553790
 142.1704030  82.5775620  30.8626650 141.3396990  82.6452270  31.3333880
 142.3475860  83.4679740  30.5593510 141.6260490  79.3223100  33.3660850
 142.3879400  79.8919750  33.4720540 141.6414860  78.7550300  34.1369160
 125.1264830  77.8461030  37.5968510 124.4713670  77.5772670  36.9528210
 125.9642780  77.7365510  37.1470490 142.6320460  80.1773200  38.2102780
 143.0029290  79.3940520  37.8038750 143.2722390  80.8662300  38.0320080
 139.6154220  81.5609780  43.6233100 138.8014060  81.9906940  43.8858890
 140.0228420  82.1728190  43.0102150 141.6779660  79.6157470  30.5233370
 141.9528500  80.5236350  30.3952590 141.4890400  79.5520000  31.4595360
 138.0755270  72.6402320  31.8187000 138.4940150  72.4533300  30.9783660
 137.7691330  71.7881370  32.1289930 141.5745000  77.5526460  35.5162800
 141.1988600  76.7854390  35.0844090 140.8448120  77.9349160  36.0037730
 126.1640760  78.2313600  42.1371850 126.5313800  78.1441000  43.0167870
 125.5951580  77.4680150  42.0378710 140.9644620  76.6997980  45.1502320
 140.7330710  76.4710730  44.2500270 141.2249170  77.6197530  45.1047210
 139.4032690  71.9254410  47.9282020 140.2802870  71.9337810  48.3116020
 139.4153530  71.1885250  47.3174370 124.3402910  75.0559960  33.5393840
 123.4366990  75.3190160  33.3645500 124.8243530  75.3271130  32.7593800
 140.8495960  75.7783950  38.8170040 141.3733440  75.2846600  38.1860210
 141.4355380  75.9134310  39.5617610 141.0285680  75.8623820  42.3389590
 140.0788390  75.8287360  42.4534580 141.2098690  76.7723930  42.1039360
 126.8830120  74.1125500  31.4488220 127.5921820  73.6908720  30.9635500
 126.1670060  74.1800730  30.8171570 126.5304280  70.1664830  30.4890870
 127.2532410  70.7073770  30.8072090 126.8028800  69.8928250  29.6132410
 140.3395930  75.0357300  34.7562450 140.8355050  74.8028170  35.5411330
 140.1412000  74.1969140  34.3400090 141.7683090  73.6718250  37.2900130
 141.6582370  73.5174290  38.2282400 142.5290680  73.1439190  37.0475540
 140.1148810  69.6112380  43.7483130 140.7521030  70.2246520  44.1142320
 140.2623700  69.6473040  42.8032360 142.6573360  71.5026170  30.5306270
 143.5822670  71.3707350  30.3224560 142.6349150  71.5818990  31.4842720
 142.7311850  72.2736830  33.1562980 141.9363350  72.2081950  33.6855890
 142.9355130  73.2087470  33.1448330 139.6730270  86.3128380  37.1501370
 140.2689340  85.9912950  36.4735790 139.9308420  85.8400200  37.9414640
 127.5792840  82.7446290  47.2992000 127.5362470  82.3739200  48.1806460
 127.7103850  83.6823860  47.4393820 131.2798870  84.3005880  42.9001720
 131.0390230  84.5680440  42.0132240 132.2201510  84.4711610  42.9552580
 133.4853290  70.7638570  46.6558230 133.4242180  71.3560400  47.4053640
 134.4253670  70.6564530  46.5108490 136.1227850  70.4208630  46.2950520
 136.7368260  70.7387920  45.6331600 136.6677410  69.9357220  46.9146380
 142.5403030  86.3200260  43.7012360 142.0461310  86.7169130  42.9839490
 141.9316320  85.6949470  44.0949640 127.4180870  85.6908540  44.4189780
 126.8241190  85.5593240  45.1579820 127.4104710  84.8546680  43.9531880
 136.8635890  68.9840770  42.6219810 135.9895730  69.3175880  42.4192740
 136.7546640  68.5113950  43.4471680 137.7707870  71.1911640  44.0061530
 137.4421230  70.3763400  43.6263260 138.7190170  71.1481450  43.8827220
 140.2242480  86.9623680  40.9799100 139.7645450  87.7139490  40.6057120
 139.5954940  86.2430150  40.9213900 133.3933700  86.1620410  40.9816210
 133.6811510  85.9074710  40.1049220 133.9056920  85.6097770  41.5721780
 134.6110710  69.9010610  41.5612720 133.8282500  70.3756110  41.8409480
 134.3173640  68.9965440  41.4525900 139.1631780  70.6033710  39.6061810
 139.6039870  70.5478810  38.7583410 138.8939370  71.5191720  39.6771990
 141.0270350  70.2348950  37.6170630 140.9658750  69.2910170  37.4701650
 141.8062380  70.3429040  38.1624090 125.9551120  70.2058090  34.0826440
 126.7130480  70.3186970  33.5090470 125.4928290  71.0427290  34.0369870
 132.4964930  72.3197360  37.0728750 131.6839440  71.9454250  36.7324630
 133.0006570  71.5642440  37.3749940 136.9989910  68.9839810  38.3111820
 137.6019280  69.5560020  38.7860340 136.2582900  69.5479250  38.0885720
 140.1424510  69.3861370  33.5852100 140.3375140  70.2844820  33.8519530
 139.3554380  69.1548450  34.0785050 128.3276270  70.7322140  32.6228410
 128.8569030  69.9451940  32.4936360 128.9604590  71.4113330  32.8563940
 130.5214110  70.4697280  35.6773800 129.8916850  69.7684590  35.8443930
 129.9819250  71.2301410  35.4606960 133.4606060  87.0836510  48.3484410
 134.3873370  86.8480780  48.3920370 133.4456490  87.9108510  47.8670440
 141.6951120  86.6262080  35.3458660 141.8703310  85.9399820  34.7019580
 140.9972690  87.1509130  34.9535330 130.6469670  69.7481260  48.1126290
 130.3653940  70.2514860  47.3487110 131.0289370  68.9503010  47.7468420
 129.5378770  87.0156920  32.8993970 130.2697590  86.7316200  32.3517860
 129.7972440  86.7770200  33.7893350 128.6993560  83.1321650  32.9040300
 128.0702440  83.6006750  33.4526130 128.8141390  82.2870870  33.3386490
 137.2485130  69.1634840  48.6906760 137.1350580  69.4829450  49.5858280
 138.0654870  69.5647350  48.3944040 140.0283620  86.3106370  48.1725450
 140.8208940  85.8155600  47.9651410 140.3216770  86.9896510  48.7801060
 136.1543280  77.1827310  19.0541500 136.0737330  76.2681920  18.7833210
 135.7407700  77.6794380  18.3481210 134.2861320  78.9606330  20.9350770
 133.5103420  78.4806770  21.2249340 134.9374250  78.2811980  20.7606930
 128.3027150  79.2726140  21.8126530 127.4712030  79.0174850  22.2123040
 128.9108130  79.3436910  22.5484450 138.3068750  83.3666520  19.7149900
 137.8450280  82.5953760  20.0437070 139.1194300  83.3932590  20.2202350
 128.2828410  83.3066230  22.0084550 128.5856450  82.4163970  21.8294770
 129.0272000  83.8636450  21.7806800 126.7119100  74.2328030  15.5968920
 125.8235800  74.5744000  15.4948800 126.9960290  74.0328350  14.7049750
 124.6752110  76.8333680  21.4808620 125.2468220  76.0655880  21.4812260
 124.6753650  77.1322440  20.5715230 134.5332060  85.6524530  19.3353890
 133.9143500  86.1082030  18.7648330 135.3883840  85.8075990  18.9343590
 133.7270310  81.6363520  20.9420930 133.6578590  80.6953460  20.7810060
 134.4890170  81.7264930  21.5143500 125.9176980  72.2418040  23.2677550
 125.7379820  71.3443790  23.5480310 125.5157060  72.7889910  23.9424500
 134.7575480  74.4433900  21.1689860 135.1340300  73.5705780  21.0563530
 134.6594990  74.7792600  20.2780300 128.8880490  72.8159530  16.6307300
 128.9947240  73.7163260  16.9376060 127.9772850  72.7677500  16.3401950
 138.5399600  71.9384340  18.1018200 139.3609220  71.4480910  18.1443680
 138.5733680  72.5282000  18.8550040 126.5363650  74.7378540  21.8759890
 127.2173760  75.0016910  22.4947290 126.2211700  73.8979410  22.2097900
 130.7288220  75.7845900  20.9632480 131.2366440  76.2826870  21.6037500
 131.2601460  75.0081100  20.7871840 142.8299150  73.9551090  24.6661830
 142.1251320  74.3432800  24.1476940 143.0957070  74.6501380  25.2682760
 129.0124320  70.4244460  25.2295900 129.0142760  70.9416850  24.4241800
 128.1828630  69.9474640  25.2065830 135.3995410  80.5363770  16.7285800
 134.7812680  81.0013220  16.1648520 135.9118660  81.2291250  17.1455310
 130.2627170  80.0639640  23.4069400 129.9296550  80.6908560  24.0490470
 130.4393850  80.5901520  22.6271070 138.7761080  73.8784720  20.8745740
 138.0716650  74.1669610  21.4548850 139.1373240  74.6884830  20.5145300
 128.6939650  72.1354420  23.2366350 129.0356460  72.9796470  22.9420220
 127.7555460  72.2838160  23.3531690 129.4746270  82.0320440  25.2218580
 130.0920270  82.7071520  24.9403030 128.6139390  82.4408420  25.1306080
 124.7678610  81.2220300  14.1025430 124.3906590  81.7107400  13.3710330
 125.0251680  81.8945580  14.7331960 140.3923860  83.4959850  23.1373220
 139.7087380  84.1658960  23.1289890 140.9318150  83.6940500  22.3718080
 141.8448000  73.3239510  21.2654950 140.8972910  73.3578490  21.3970380
 142.1697990  74.1378460  21.6504310 132.3767540  69.6236690  19.5610940
 132.6842520  69.0683580  18.8446440 131.4468240  69.7581150  19.3783930
 137.9282600  85.3403980  21.8518400 137.9409760  84.9366270  20.9840660
 137.3757820  86.1151270  21.7479830 139.2228020  82.0620200  16.9408570
 139.1124350  81.1194530  17.0657990 139.2196270  82.4235840  17.8271330
 137.3268040  80.2433820  23.1801010 137.7436830  80.0293930  22.3454470
 138.0507860  80.5006610  23.7509630 134.7648300  77.6885520  16.2971060
 133.8377580  77.6222900  16.5259530 134.9173120  78.6265650  16.1826300
 134.7517380  73.9602520  13.2938220 133.8121050  74.1216480  13.3790680
 135.0700640  74.6788200  12.7474210 141.2730140  78.6421040  23.2717250
 140.4448770  78.7114130  22.7967380 141.8680620  79.2275350  22.8033080
 138.7945590  79.2505820  16.8006310 138.1758010  78.9125370  16.1532610
 138.7770040  78.6065580  17.5085500 138.2372150  75.4290360  24.2172120
 137.8243330  76.2544070  24.4712110 137.5048100  74.8435400  24.0248480
 130.3704940  78.2150260  19.0790790 129.9661940  77.5027510  18.5836690
 130.4568060  77.8703500  19.9678830 130.8386640  81.9017820  21.2430000
 130.5414930  81.2963290  20.5637780 131.7886460  81.9395130  21.1319360
 129.0833560  74.9893470  22.8589830 129.6348150  75.0988810  22.0843080
 129.5977070  75.3631070  23.5745060 138.9272250  85.4749690  24.9053100
 138.4502810  86.2821880  24.7125710 138.2434040  84.8228020  25.0579310
 129.9305070  81.6399510  27.8937800 129.0333600  81.8639480  28.1411200
 129.9557940  81.7634450  26.9449200 136.9710290  78.4892630  13.8079060
 137.4103570  77.6515060  13.6616880 137.6838710  79.1222030  13.8943200
 128.7576290  78.5112830  26.4695170 128.6184060  79.3835630  26.8382570
 127.8757650  78.1685640  26.3243110 135.0805670  83.4288700  17.7760300
 135.5201580  84.1713030  17.3615690 135.0192560  83.6715270  18.6999260
 130.5556640  84.4534530  28.6780320 130.5272070  84.8577480  27.8108750
 130.3921610  83.5244890  28.5151920 140.5527430  69.7435440  12.1220100
 140.2400090  69.8362270  13.0219170 141.3139900  70.3216470  12.0717530
 127.0709570  77.1095240  16.5797440 126.9507170  77.8357330  15.9678710
 126.7610460  76.3398150  16.1025350 142.5071460  85.2361630  29.9744490
 142.9831180  85.7144520  30.6533570 143.1278620  85.1679120  29.2489990
 124.7094940  80.2810380  22.3866080 124.7875360  80.4159150  21.4421800
 125.3236620  79.5726270  22.5794200 125.9542570  81.9810570  18.7972260
 125.5470650  82.1225160  17.9425860 126.8455580  81.6970730  18.5943470
 141.9104710  82.4274480  27.1344500 142.0367770  82.1886360  26.2161680
 141.9526090  81.5959020  27.6066580 135.7721450  86.1302480  25.7039310
 136.2866120  86.0410490  26.5061740 134.9290530  86.4762180  25.9967220
 137.7475850  86.4157820  15.1323310 137.5876990  86.1260760  16.0305140
 137.5822560  85.6397950  14.5968540 130.2264230  86.1956350  16.9094930
 130.0506710  85.2791890  16.6962730 129.3719970  86.5543640  17.1492730
 137.4501980  83.9245380  13.6921310 136.7567140  83.9222670  13.0323590
 138.1924840  83.5004700  13.2615480 137.0151910  85.5508090  17.7669800
 137.4708860  84.7697470  18.0808420 137.3544430  86.2614910  18.3110980
 141.7628720  74.4806940  28.0994240 141.1472990  74.9886610  27.5709700
 141.4425140  73.5805270  28.0420180 124.7654460  81.3224550  24.9260540
 124.9285500  80.8529910  24.1079910 125.2306910  80.8148110  25.5909380
 129.5373230  70.4530310  19.9621110 129.0941380  71.2339850  19.6305630
 130.0958220  70.7760200  20.6692050 133.8243040  73.3198830  25.5656430
 133.3622410  73.5281850  26.3776370 133.4221150  72.5058180  25.2627100
 138.8247550  74.5407780  26.6953090 137.9741140  74.2413530  27.0162160
 138.6649340  74.7849790  25.7836910 135.9197260  76.0409530  28.7951880
 136.2450670  75.2073280  28.4554110 136.7077590  76.5638050  28.9430210
 132.6532050  70.0741010  14.8426940 132.0286230  70.0700880  15.5680250
 132.5662170  69.2071970  14.4462910 131.5749130  70.9977640  21.8210710
 131.8721460  71.9040470  21.7402730 132.1234690  70.5096420  21.2070280
 129.3287450  75.5763880  17.6902360 129.1028370  75.3601050  18.5948980
 128.5479980  76.0092340  17.3448330 136.5585210  75.5827250  16.2893010
 135.9594100  76.3063050  16.1056630 137.1064820  75.5204030  15.5069460
 131.7686660  76.4749460  28.3562630 131.6730260  75.5344190  28.2063030
 132.6118640  76.6964530  27.9610700 135.1650080  74.2190790  18.3196290
 135.5579650  74.5362990  17.5064980 135.5266930  73.3402670  18.4340810
 126.8997200  72.8863130  26.5096410 126.5060590  73.7338340  26.7169190
 126.2115600  72.2489500  26.7005050 133.4742250  72.9698100  29.5793150
 132.7840570  72.7770300  30.2139240 134.2174550  73.2532740  30.1117450
 124.2014250  70.8091590  20.5426490 123.9127300  71.3794450  21.2551470
 124.9460010  70.3296040  20.9057720 124.3884480  74.7511710  11.7529210
 124.3059150  75.6942470  11.8944200 124.0367540  74.6086620  10.8741560
 135.7505220  76.8096540  22.4147070 135.0186340  77.3183350  22.7637170
 135.3529560  75.9926520  22.1135850 132.1882610  73.4850740  20.8199560
 132.1918670  73.0440690  19.9704100 133.0833730  73.8068070  20.9271380
 128.0384990  73.3677230  19.7793770 127.6985040  73.8452460  20.5360820
 127.2762310  72.9142350  19.4194870 132.2502760  74.4862820  13.8106320
 132.3715580  74.4449300  14.7592140 131.8651270  75.3486970  13.6553050
 136.2131130  72.2630220  21.8270010 136.2303870  72.7138870  22.6711860
 135.9646710  71.3635860  22.0403450 131.2624260  76.7963960  13.2089620
 130.6941160  76.3482210  12.5825530 131.9713260  77.1556740  12.6754770
 139.6401880  69.6762400  27.6656390 139.9647650  68.9452060  28.1914370
 139.6758390  69.3576040  26.7637380 126.3393440  80.6975980  27.0856350
 125.9548230  80.0569650  27.6839310 126.6505630  81.4012100  27.6551080
 132.4890580  77.5452520  22.5664970 132.8560710  77.0711090  23.3126310
 132.2995640  78.4194090  22.9073310 125.3531070  72.2896210  18.6958440
 125.0677990  71.9251880  19.5337060 125.2909930  71.5576670  18.0821580
 130.2789950  76.5861160  24.8849180 129.9747020  77.4653140  25.1099540
 131.2336410  76.6460950  24.9206620 128.8071740  80.7922150  15.4816030
 128.0334000  80.2519770  15.3214750 129.5366370  80.2728760  15.1433790
 139.5659720  79.7887510  21.2742420 140.2858840  80.2842800  20.8838530
 139.3641540  79.1105400  20.6296290 135.0269660  71.1825470  15.4171810
 134.2134270  70.6838640  15.3417120 134.8331610  72.0223720  15.0008160
 134.9478520  79.8596570  27.1611420 134.8815830  78.9392240  26.9069010
 134.3183660  79.9572010  27.8756060 137.7418050  75.5545120  13.7133970
 138.6297670  75.8662350  13.5385310 137.7123140  74.6817370  13.3214550
 128.8509140  80.4602530  19.1194840 129.3687810  79.6570790  19.0651730
 128.3993160  80.3981670  19.9611670 133.7378640  81.7268810  14.3922140
 134.0794340  82.4711040  13.8965460 132.9091350  82.0399930  14.7546970
 126.3353680  77.4263900  26.0320540 125.9768620  78.0917750  26.6193880
 126.0408240  76.5947450  26.4033160 129.5366800  77.8848140  28.9160090
 129.2366940  78.0305320  28.0187910 130.3078040  77.3253430  28.8233480
 134.8795250  82.6817140  26.9115220 134.8939790  81.7498100  26.6934130
 134.1720350  82.7676900  27.5504990 140.0132320  76.8656960  13.1813830
 139.9296040  77.2971180  12.3310270 140.7326510  77.3255310  13.6140650
 141.0906460  79.3224480  26.2583800 140.3654650  79.9153260  26.0613190
 141.6181920  79.3148020  25.4597170 141.0419570  83.7199220  15.9095960
 140.3995730  83.0654840  16.1839680 140.6550230  84.1254310  15.1336630
 136.6206050  81.0484650  19.7567650 136.9729870  80.4512780  19.0969020
 135.7368380  80.7228880  19.9275900 132.7069330  81.8082340  17.1638060
 133.3940460  82.3551550  17.5445650 131.9201750  82.3523070  17.1987670
 124.8461730  77.4255160  12.6555140 125.7156580  77.7079960  12.9391060
 124.3552050  78.2391030  12.5403950 132.0096540  78.8128370  16.7763420
 132.4659320  79.6233620  17.0023610 131.6584750  78.4951510  17.6081910
 134.3129150  84.3234710  24.0055720 134.9571370  84.5294090  24.6829140
 134.6758590  83.5623110  23.5526570 127.9108320  69.1566020  17.2485940
 127.7822950  69.1483920  18.1970860 127.0870340  69.4949110  16.8976950
 135.5861230  82.3267060  22.7233170 136.2283460  81.6260220  22.8365340
 136.1110580  83.1065500  22.5430060 139.4316950  82.6115680  12.4472310
 139.2054530  81.8946120  13.0396950 139.0413150  82.3628120  11.6094060
 137.3598850  83.1261960  25.9269230 137.6955090  83.7128650  26.6047150
 136.4399190  82.9954670  26.1567020 125.2132980  86.6382540  13.2216770
 125.5730620  87.2371880  12.5674040 125.0725320  87.1842430  13.9951800
 124.9102250  70.9157140  26.7092640 124.1960770  71.1154060  27.3145250
 125.3297290  70.1396710  27.0807440 139.0133200  80.5287620  14.1086470
 138.7254900  80.9900310  14.8964350 139.8085370  80.0685390  14.3770690
 125.1974840  84.9037400  27.6959170 125.3065960  83.9632140  27.5554560
 124.5455400  85.1692150  27.0472900 133.1887430  83.1753290  29.0957290
 132.8684300  82.4562530  29.6402980 132.5145790  83.8508360  29.1693350
 131.2301600  84.0213740  14.0390440 131.2211700  84.7543430  13.4234950
 130.3099960  83.7745320  14.1317400 126.8308240  79.2428630  14.7837200
 126.2236190  79.9827530  14.7932500 127.3057590  79.3327990  13.9575400
 136.4041030  73.4079450  24.4594090 136.7721850  72.5874660  24.7873660
 135.5439230  73.4681340  24.8749740 139.7703060  72.3636390  15.2681650
 139.1416220  72.4682060  14.5539880 139.2754980  72.5833170  16.0575530
 134.2161200  84.0841980  12.7015630 134.3173180  83.8805970  11.7717610
 133.3162940  83.8300260  12.9063410 131.7387090  74.6422340  16.6839530
 131.0303240  75.1108680  17.1253140 132.0231570  73.9844350  17.3184720
 133.3643020  76.0619040  24.6832060 133.8628270  76.5364860  25.3483910
 133.5065970  75.1382560  24.8902090 135.7702520  71.3673000  18.1235320
 135.6470300  71.3859130  17.1744830 136.7187080  71.4151940  18.2433720
 132.8579310  86.6028300  17.3963300 133.1120810  86.5649690  16.4742670
 131.9091790  86.4761630  17.3891550 129.9422110  72.9507420  14.0590240
 130.7912640  73.3877570  13.9930430 129.5753380  73.2627680  14.8862300
 140.5709880  72.2787000  25.5260450 140.0683480  73.0192400  25.8654260
 141.3866540  72.6671000  25.2097240 138.8631890  77.5220180  18.9721810
 137.9222030  77.5370410  19.1469500 139.1775960  76.7356140  19.4182110
 128.8413530  79.2039780  12.5325770 129.6076800  79.0921140  13.0951200
 128.9188220  78.5077750  11.8802540 127.5360290  76.6364850  13.2158660
 127.6163880  75.6892360  13.3276060 128.4280040  76.9671730  13.3219320
 140.8657470  84.6929030  20.6476070 140.9904890  85.5160200  21.1199880
 141.7323030  84.4819760  20.3000220 128.3375000  86.7860240  20.3193200
 129.0737480  86.2375700  20.5901770 128.7215920  87.6516250  20.1799190
 125.2220480  82.8533810  16.1934710 124.2960260  83.0954950  16.1840120
 125.6876910  83.6808070  16.0719460 127.3433280  85.9706310  29.5078780
 128.1446010  86.2918360  29.9214180 126.8285100  85.6101890  30.2298690
 131.4477310  85.9590550  12.1418770 132.2405920  86.2479380  11.6900560
 130.9281660  85.5282720  11.4631250 136.1797910  82.0786180  29.4554190
 135.5736070  82.1017780  28.7149940 135.8752020  81.3469220  29.9921440
 137.6098280  85.8066470  28.0663600 138.5620030  85.7224490  28.0163840
 137.4626500  86.4708180  28.7397390 140.5007480  85.1860680  13.5655510
 140.2148990  84.7725820  12.7509690 140.3027030  86.1148390  13.4456030
 125.0631090  78.4579770  28.4514830 125.5670110  77.8787050  29.0231060
 124.3238510  78.7420000  28.9891200 131.9654710  81.1793960  12.0061120
 131.8605350  80.5646310  12.7322500 131.7978930  80.6559850  11.2224130
 132.1169030  79.8650760  27.9850350 131.3514700  80.4335760  27.9005020
 132.2984990  79.5726970  27.0918580 135.2057440  80.2413990  12.6103110
 134.6567540  80.6883290  13.2545850 135.8276700  79.7363240  13.1340780
 139.2592380  81.5956090  28.5425370 140.0001850  81.9331850  28.0392830
 138.4965060  81.7648150  27.9895140 127.0954170  76.6009360  29.3464900
 127.1359510  76.3023230  30.2550130 127.9499670  77.0016970  29.1872420
 130.8732560  79.2004910  14.5068410 131.2948980  79.0344780  15.3499800
 130.9983400  78.3905140  14.0123550 129.0359980  75.1801460  27.3139390
 128.5056440  74.6892410  26.6862730 129.7048050  75.6085660  26.7797320
 133.3860200  78.2242520  11.7545510 133.9065860  77.5091540  11.3886660
 134.0328600  78.8628390  12.0546020 137.9338040  79.6470920  27.0780580
 138.3479060  79.8016000  27.9271000 136.9989040  79.7726140  27.2406360
 138.4060210  76.9867080  29.0819730 138.9880980  76.2319400  28.9940210
 138.5821980  77.5174520  28.3051210 129.5232280  72.1463830  27.3936680
 129.4289150  71.5284580  26.6687550 128.9429670  72.8730120  27.1666590
 132.2893720  70.7037070  24.4264070 131.8411020  70.7261330  23.5809620
 131.6558920  70.3056090  25.0234370 132.6953270  79.5991400  25.0476510
 133.1141380  80.4424130  24.8752750 131.7761900  79.7363440  24.8183290
 135.0317170  77.3307580  26.4314350 135.1513380  76.7348720  27.1709190
 135.8911170  77.3677270  26.0115650 137.3705070  77.8844770  25.0076860
 136.8440290  78.4087390  24.4042000 137.7136410  78.5172160  25.6386590
 129.7691460  75.2738140  11.4526570 129.5680520  74.4105500  11.8139910
 129.5983510  75.1871500  10.5148170 130.5460690  85.9044410  26.1634240
 130.0081780  86.6290470  25.8442940 130.7994650  85.4274750  25.3731580
 131.7985940  73.8728930  27.6890170 132.3885630  73.5644780  28.3767990
 130.9806180  73.4008680  27.8450070 136.6179370  73.4894740  27.9223190
 135.9294890  72.8276280  27.8573180 137.3385390  73.0433010  28.3671650
 137.2479770  70.0846370  13.9813450 137.5282060  69.2414270  14.3372870
 136.4745500  70.3169480  14.4952200 128.5674260  72.3738760  11.4404450
 128.8700160  72.3806190  10.5323600 129.3068850  72.0236620  11.9372110
 133.4022900  87.1395620  26.4220890 133.3281600  88.0430760  26.7293260
 132.5001740  86.8207520  26.3942960 131.7859190  71.3173380  12.4260650
 131.4381190  70.6397370  11.8463100 131.9871960  70.8562890  13.2404040
 133.9508230  86.3054130  14.0447250 134.8459020  86.6439100  14.0666010
 133.9825860  85.5833540  13.4171530 127.5904390  81.6781180  12.2734250
 128.0279260  82.2210850  12.9291830 128.0752120  80.8528130  12.2830590
 124.8050190  84.4670210  19.7254510 125.1353200  83.5991270  19.4933150
 125.2341190  84.6728730  20.5559470 129.4012110  82.7979220  17.3856480
 129.1007650  82.6744190  18.2860390 129.2949600  81.9387810  16.9772210
 125.2940400  85.3340800  22.4636140 124.8571390  85.5141600  23.2960290
 125.8618080  86.0915420  22.3217860 140.9302580  84.8357800  26.7513450
 140.3304570  84.8950360  26.0077370 141.0596480  83.8962780  26.8810300
 142.1704030  82.5775620  12.0883160 141.3396990  82.6452270  12.5590390
 142.3475860  83.4679740  11.7850020 141.6260490  79.3223100  14.5917360
 142.3879400  79.8919750  14.6977050 141.6414860  78.7550300  15.3625670
 125.1264830  77.8461030  18.8225020 124.4713670  77.5772670  18.1784720
 125.9642780  77.7365510  18.3727000 142.6320460  80.1773200  19.4359290
 143.0029290  79.3940520  19.0295260 143.2722390  80.8662300  19.2576590
 139.6154220  81.5609780  24.8489610 138.8014060  81.9906940  25.1115400
 140.0228420  82.1728190  24.2358660 141.6779660  79.6157470  11.7489880
 141.9528500  80.5236350  11.6209100 141.4890400  79.5520000  12.6851870
 138.0755270  72.6402320  13.0443510 138.4940150  72.4533300  12.2040170
 137.7691330  71.7881370  13.3546440 141.5745000  77.5526460  16.7419310
 141.1988600  76.7854390  16.3100600 140.8448120  77.9349160  17.2294240
 126.1640760  78.2313600  23.3628360 126.5313800  78.1441000  24.2424380
 125.5951580  77.4680150  23.2635220 140.9644620  76.6997980  26.3758830
 140.7330710  76.4710730  25.4756780 141.2249170  77.6197530  26.3303720
 125.7156760  75.1422690  27.2686780 124.8212810  75.1089450  27.6080490
 126.2554310  75.3409480  28.0338030 139.4032690  71.9254410  29.1538530
 140.2802870  71.9337810  29.5372530 139.4153530  71.1885250  28.5430880
 124.3402910  75.0559960  14.7650350 123.4366990  75.3190160  14.5902010
 124.8243530  75.3271130  13.9850310 140.8495960  75.7783950  20.0426550
 141.3733440  75.2846600  19.4116720 141.4355380  75.9134310  20.7874120
 141.0285680  75.8623820  23.5646100 140.0788390  75.8287360  23.6791090
 141.2098690  76.7723930  23.3295870 126.8830120  74.1125500  12.6744730
 127.5921820  73.6908720  12.1892010 126.1670060  74.1800730  12.0428080
 126.5304280  70.1664830  11.7147380 127.2532410  70.7073770  12.0328600
 126.8028800  69.8928250  10.8388920 140.3395930  75.0357300  15.9818960
 140.8355050  74.8028170  16.7667840 140.1412000  74.1969140  15.5656600
 126.2196470  69.4171020  21.6170000 126.8672660  68.8668400  21.1765160
 126.6398310  69.6714170  22.4385810 141.7683090  73.6718250  18.5156640
 141.6582370  73.5174290  19.4538910 142.5290680  73.1439190  18.2732050
 140.1148810  69.6112380  24.9739640 140.7521030  70.2246520  25.3398830
 140.2623700  69.6473040  24.0288870 142.6573360  71.5026170  11.7562780
 143.5822670  71.3707350  11.5481070 142.6349150  71.5818990  12.7099230
 142.7311850  72.2736830  14.3819490 141.9363350  72.2081950  14.9112400
 142.9355130  73.2087470  14.3704840 139.6730270  86.3128380  18.3757880
 140.2689340  85.9912950  17.6992300 139.9308420  85.8400200  19.1671150
 125.9728470  69.5726690  24.3595320 125.6243290  70.0290510  25.1253500
 125.6416170  68.6783820  24.4417750 127.5792840  82.7446290  28.5248510
 127.5362470  82.3739200  29.4062970 127.7103850  83.6823860  28.6650330
 131.2798870  84.3005880  24.1258230 131.0390230  84.5680440  23.2388750
 132.2201510  84.4711610  24.1809090 133.4853290  70.7638570  27.8814740
 133.4242180  71.3560400  28.6310150 134.4253670  70.6564530  27.7365000
 136.1227850  70.4208630  27.5207030 136.7368260  70.7387920  26.8588110
 136.6677410  69.9357220  28.1402890 142.5403030  86.3200260  24.9268870
 142.0461310  86.7169130  24.2096000 141.9316320  85.6949470  25.3206150
 126.6449110  69.1002890  27.6346090 127.1932100  68.9190940  26.8712200
 126.7104420  68.3097000  28.1702400 127.4180870  85.6908540  25.6446290
 126.8241190  85.5593240  26.3836330 127.4104710  84.8546680  25.1788390
 136.8635890  68.9840770  23.8476320 135.9895730  69.3175880  23.6449250
 136.7546640  68.5113950  24.6728190 137.7707870  71.1911640  25.2318040
 137.4421230  70.3763400  24.8519770 138.7190170  71.1481450  25.1083730
 140.2242480  86.9623680  22.2055610 139.7645450  87.7139490  21.8313630
 139.5954940  86.2430150  22.1470410 127.0493100  83.0566920  24.5954330
 126.3227160  82.4372210  24.5280280 127.1102250  83.4507530  23.7252410
 130.6538200  85.2711920  21.3803740 131.1703220  84.6599280  20.8552000
 131.3035580  85.7740700  21.8714750 133.3933700  86.1620410  22.2072720
 133.6811510  85.9074710  21.3305730 133.9056920  85.6097770  22.7978290
 134.6110710  69.9010610  22.7869230 133.8282500  70.3756110  23.0665990
 134.3173640  68.9965440  22.6782410 139.1631780  70.6033710  20.8318320
 139.6039870  70.5478810  19.9839920 138.8939370  71.5191720  20.9028500
 141.0270350  70.2348950  18.8427140 140.9658750  69.2910170  18.6958160
 141.8062380  70.3429040  19.3880600 125.3323100  86.3741310  17.8051090
 125.1645140  85.7411990  18.5032980 124.4657610  86.5800710  17.4545280
 125.9551120  70.2058090  15.3082950 126.7130480  70.3186970  14.7346980
 125.4928290  71.0427290  15.2626380 132.4964930  72.3197360  18.2985260
 131.6839440  71.9454250  17.9581140 133.0006570  71.5642440  18.6006450
 136.9989910  68.9839810  19.5368330 137.6019280  69.5560020  20.0116850
 136.2582900  69.5479250  19.3142230 140.1424510  69.3861370  14.8108610
 140.3375140  70.2844820  15.0776040 139.3554380  69.1548450  15.3041560
 126.9385800  85.0674540  15.2501230 126.4133420  85.4482570  14.5463190
 126.8630380  85.6925310  15.9710940 128.3276270  70.7322140  13.8484920
 128.8569030  69.9451940  13.7192870 128.9604590  71.4113330  14.0820450
 130.5214110  70.4697280  16.9030310 129.8916850  69.7684590  17.0700440
 129.9819250  71.2301410  16.6863470 133.4606060  87.0836510  29.5740920
 134.3873370  86.8480780  29.6176880 133.4456490  87.9108510  29.0926950
 141.6951120  86.6262080  16.5715170 141.8703310  85.9399820  15.9276090
 140.9972690  87.1509130  16.1791840 130.6469670  69.7481260  29.3382800
 130.3653940  70.2514860  28.5743620 131.0289370  68.9503010  28.9724930
 129.5378770  87.0156920  14.1250480 130.2697590  86.7316200  13.5774370
 129.7972440  86.7770200  15.0149860 128.6993560  83.1321650  14.1296810
 128.0702440  83.6006750  14.6782640 128.8141390  82.2870870  14.5643000
 137.2485130  69.1634840  29.9163270 137.1350580  69.4829450  30.8114790
 138.0654870  69.5647350  29.6200550 140.0283620  86.3106370  29.3981960
 140.8208940  85.8155600  29.1907920 140.3216770  86.9896510  30.0057570
 134.2861320  78.9606330   2.1607280 133.5103420  78.4806770   2.4505850
 134.9374250  78.2811980   1.9863440 128.3027150  79.2726140   3.0383040
 127.4712030  79.0174850   3.4379550 128.9108130  79.3436910   3.7740960
 128.2828410  83.3066230   3.2341060 128.5856450  82.4163970   3.0551280
 129.0272000  83.8636450   3.0063310 124.6752110  76.8333680   2.7065130
 125.2468220  76.0655880   2.7068770 124.6753650  77.1322440   1.7971740
 133.7270310  81.6363520   2.1677440 133.6578590  80.6953460   2.0066570
 134.4890170  81.7264930   2.7400010 125.9176980  72.2418040   4.4934060
 125.7379820  71.3443790   4.7736820 125.5157060  72.7889910   5.1681010
 126.5363650  74.7378540   3.1016400 127.2173760  75.0016910   3.7203800
 126.2211700  73.8979410   3.4354410 130.7288220  75.7845900   2.1888990
 131.2366440  76.2826870   2.8294010 131.2601460  75.0081100   2.0128350
 142.8299150  73.9551090   5.8918340 142.1251320  74.3432800   5.3733450
 143.0957070  74.6501380   6.4939270 129.0124320  70.4244460   6.4552410
 129.0142760  70.9416850   5.6498310 128.1828630  69.9474640   6.4322340
 130.2627170  80.0639640   4.6325910 129.9296550  80.6908560   5.2746980
 130.4393850  80.5901520   3.8527580 138.7761080  73.8784720   2.1002250
 138.0716650  74.1669610   2.6805360 139.1373240  74.6884830   1.7401810
 128.6939650  72.1354420   4.4622860 129.0356460  72.9796470   4.1676730
 127.7555460  72.2838160   4.5788200 129.4746270  82.0320440   6.4475090
 130.0920270  82.7071520   6.1659540 128.6139390  82.4408420   6.3562590
 140.3923860  83.4959850   4.3629730 139.7087380  84.1658960   4.3546400
 140.9318150  83.6940500   3.5974590 141.8448000  73.3239510   2.4911460
 140.8972910  73.3578490   2.6226890 142.1697990  74.1378460   2.8760820
 137.9282600  85.3403980   3.0774910 137.9409760  84.9366270   2.2097170
 137.3757820  86.1151270   2.9736340 137.3268040  80.2433820   4.4057520
 137.7436830  80.0293930   3.5710980 138.0507860  80.5006610   4.9766140
 141.2730140  78.6421040   4.4973760 140.4448770  78.7114130   4.0223890
 141.8680620  79.2275350   4.0289590 138.2372150  75.4290360   5.4428630
 137.8243330  76.2544070   5.6968620 137.5048100  74.8435400   5.2504990
 130.8386640  81.9017820   2.4686510 130.5414930  81.2963290   1.7894290
 131.7886460  81.9395130   2.3575870 129.0833560  74.9893470   4.0846340
 129.6348150  75.0988810   3.3099590 129.5977070  75.3631070   4.8001570
 138.9272250  85.4749690   6.1309610 138.4502810  86.2821880   5.9382220
 138.2434040  84.8228020   6.2835820 129.9305070  81.6399510   9.1194310
 129.0333600  81.8639480   9.3667710 129.9557940  81.7634450   8.1705710
 128.7576290  78.5112830   7.6951680 128.6184060  79.3835630   8.0639080
 127.8757650  78.1685640   7.5499620 130.5556640  84.4534530   9.9036830
 130.5272070  84.8577480   9.0365260 130.3921610  83.5244890   9.7408430
 142.5071460  85.2361630  11.2001000 142.9831180  85.7144520  11.8790080
 143.1278620  85.1679120  10.4746500 124.7094940  80.2810380   3.6122590
 124.7875360  80.4159150   2.6678310 125.3236620  79.5726270   3.8050710
 141.9104710  82.4274480   8.3601010 142.0367770  82.1886360   7.4418190
 141.9526090  81.5959020   8.8323090 135.7721450  86.1302480   6.9295820
 136.2866120  86.0410490   7.7318250 134.9290530  86.4762180   7.2223730
 141.7628720  74.4806940   9.3250750 141.1472990  74.9886610   8.7966210
 141.4425140  73.5805270   9.2676690 124.7654460  81.3224550   6.1517050
 124.9285500  80.8529910   5.3336420 125.2306910  80.8148110   6.8165890
 133.8243040  73.3198830   6.7912940 133.3622410  73.5281850   7.6032880
 133.4221150  72.5058180   6.4883610 138.8247550  74.5407780   7.9209600
 137.9741140  74.2413530   8.2418670 138.6649340  74.7849790   7.0093420
 135.9197260  76.0409530  10.0208390 136.2450670  75.2073280   9.6810620
 136.7077590  76.5638050  10.1686720 131.5749130  70.9977640   3.0467220
 131.8721460  71.9040470   2.9659240 132.1234690  70.5096420   2.4326790
 131.7686660  76.4749460   9.5819140 131.6730260  75.5344190   9.4319540
 132.6118640  76.6964530   9.1867210 126.8997200  72.8863130   7.7352920
 126.5060590  73.7338340   7.9425700 126.2115600  72.2489500   7.9261560
 133.4742250  72.9698100  10.8049660 132.7840570  72.7770300  11.4395750
 134.2174550  73.2532740  11.3373960 124.2014250  70.8091590   1.7683000
 123.9127300  71.3794450   2.4807980 124.9460010  70.3296040   2.1314230
 135.7505220  76.8096540   3.6403580 135.0186340  77.3183350   3.9893680
 135.3529560  75.9926520   3.3392360 136.2131130  72.2630220   3.0526520
 136.2303870  72.7138870   3.8968370 135.9646710  71.3635860   3.2659960
 139.6401880  69.6762400   8.8912900 139.9647650  68.9452060   9.4170880
 139.6758390  69.3576040   7.9893890 126.3393440  80.6975980   8.3112860
 125.9548230  80.0569650   8.9095820 126.6505630  81.4012100   8.8807590
 132.4890580  77.5452520   3.7921480 132.8560710  77.0711090   4.5382820
 132.2995640  78.4194090   4.1329820 130.2789950  76.5861160   6.1105690
 129.9747020  77.4653140   6.3356050 131.2336410  76.6460950   6.1463130
 139.5659720  79.7887510   2.4998930 140.2858840  80.2842800   2.1095040
 139.3641540  79.1105400   1.8552800 134.9478520  79.8596570   8.3867930
 134.8815830  78.9392240   8.1325520 134.3183660  79.9572010   9.1012570
 126.3353680  77.4263900   7.2577050 125.9768620  78.0917750   7.8450390
 126.0408240  76.5947450   7.6289670 129.5366800  77.8848140  10.1416600
 129.2366940  78.0305320   9.2444420 130.3078040  77.3253430  10.0489990
 134.8795250  82.6817140   8.1371730 134.8939790  81.7498100   7.9190640
 134.1720350  82.7676900   8.7761500 141.0906460  79.3224480   7.4840310
 140.3654650  79.9153260   7.2869700 141.6181920  79.3148020   6.6853680
 134.3129150  84.3234710   5.2312230 134.9571370  84.5294090   5.9085650
 134.6758590  83.5623110   4.7783080 135.5861230  82.3267060   3.9489680
 136.2283460  81.6260220   4.0621850 136.1110580  83.1065500   3.7686570
 137.3598850  83.1261960   7.1525740 137.6955090  83.7128650   7.8303660
 136.4399190  82.9954670   7.3823530 124.9102250  70.9157140   7.9349150
 124.1960770  71.1154060   8.5401760 125.3297290  70.1396710   8.3063950
 125.1974840  84.9037400   8.9215680 125.3065960  83.9632140   8.7811070
 124.5455400  85.1692150   8.2729410 133.1887430  83.1753290  10.3213800
 132.8684300  82.4562530  10.8659490 132.5145790  83.8508360  10.3949860
 136.4041030  73.4079450   5.6850600 136.7721850  72.5874660   6.0130170
 135.5439230  73.4681340   6.1006250 133.3643020  76.0619040   5.9088570
 133.8628270  76.5364860   6.5740420 133.5065970  75.1382560   6.1158600
 140.5709880  72.2787000   6.7516960 140.0683480  73.0192400   7.0910770
 141.3866540  72.6671000   6.4353750 127.3433280  85.9706310  10.7335290
 128.1446010  86.2918360  11.1470690 126.8285100  85.6101890  11.4555200
 136.1797910  82.0786180  10.6810700 135.5736070  82.1017780   9.9406450
 135.8752020  81.3469220  11.2177950 137.6098280  85.8066470   9.2920110
 138.5620030  85.7224490   9.2420350 137.4626500  86.4708180   9.9653900
 125.0631090  78.4579770   9.6771340 125.5670110  77.8787050  10.2487570
 124.3238510  78.7420000  10.2147710 132.1169030  79.8650760   9.2106860
 131.3514700  80.4335760   9.1261530 132.2984990  79.5726970   8.3175090
 139.2592380  81.5956090   9.7681880 140.0001850  81.9331850   9.2649340
 138.4965060  81.7648150   9.2151650 127.0954170  76.6009360  10.5721410
 127.1359510  76.3023230  11.4806640 127.9499670  77.0016970  10.4128930
 129.0359980  75.1801460   8.5395900 128.5056440  74.6892410   7.9119240
 129.7048050  75.6085660   8.0053830 137.9338040  79.6470920   8.3037090
 138.3479060  79.8016000   9.1527510 136.9989040  79.7726140   8.4662870
 138.4060210  76.9867080  10.3076240 138.9880980  76.2319400  10.2196720
 138.5821980  77.5174520   9.5307720 129.5232280  72.1463830   8.6193190
 129.4289150  71.5284580   7.8944060 128.9429670  72.8730120   8.3923100
 132.2893720  70.7037070   5.6520580 131.8411020  70.7261330   4.8066130
 131.6558920  70.3056090   6.2490880 132.6953270  79.5991400   6.2733020
 133.1141380  80.4424130   6.1009260 131.7761900  79.7363440   6.0439800
 135.0317170  77.3307580   7.6570860 135.1513380  76.7348720   8.3965700
 135.8911170  77.3677270   7.2372160 137.3705070  77.8844770   6.2333370
 136.8440290  78.4087390   5.6298510 137.7136410  78.5172160   6.8643100
 130.5460690  85.9044410   7.3890750 130.0081780  86.6290470   7.0699450
 130.7994650  85.4274750   6.5988090 131.7985940  73.8728930   8.9146680
 132.3885630  73.5644780   9.6024500 130.9806180  73.4008680   9.0706580
 136.6179370  73.4894740   9.1479700 135.9294890  72.8276280   9.0829690
 137.3385390  73.0433010   9.5928160 133.4022900  87.1395620   7.6477400
 133.3281600  88.0430760   7.9549770 132.5001740  86.8207520   7.6199470
 125.2940400  85.3340800   3.6892650 124.8571390  85.5141600   4.5216800
 125.8618080  86.0915420   3.5474370 140.9302580  84.8357800   7.9769960
 140.3304570  84.8950360   7.2333880 141.0596480  83.8962780   8.1066810
 139.6154220  81.5609780   6.0746120 138.8014060  81.9906940   6.3371910
 140.0228420  82.1728190   5.4615170 126.1640760  78.2313600   4.5884870
 126.5313800  78.1441000   5.4680890 125.5951580  77.4680150   4.4891730
 140.9644620  76.6997980   7.6015340 140.7330710  76.4710730   6.7013290
 141.2249170  77.6197530   7.5560230 125.7156760  75.1422690   8.4943290
 124.8212810  75.1089450   8.8337000 126.2554310  75.3409480   9.2594540
 139.4032690  71.9254410  10.3795040 140.2802870  71.9337810  10.7629040
 139.4153530  71.1885250   9.7687390 141.0285680  75.8623820   4.7902610
 140.0788390  75.8287360   4.9047600 141.2098690  76.7723930   4.5552380
 126.2196470  69.4171020   2.8426510 126.8672660  68.8668400   2.4021670
 126.6398310  69.6714170   3.6642320 140.1148810  69.6112380   6.1996150
 140.7521030  70.2246520   6.5655340 140.2623700  69.6473040   5.2545380
 125.9728470  69.5726690   5.5851830 125.6243290  70.0290510   6.3510010
 125.6416170  68.6783820   5.6674260 127.5792840  82.7446290   9.7505020
 127.5362470  82.3739200  10.6319480 127.7103850  83.6823860   9.8906840
 131.2798870  84.3005880   5.3514740 131.0390230  84.5680440   4.4645260
 132.2201510  84.4711610   5.4065600 133.4853290  70.7638570   9.1071250
 133.4242180  71.3560400   9.8566660 134.4253670  70.6564530   8.9621510
 136.1227850  70.4208630   8.7463540 136.7368260  70.7387920   8.0844620
 136.6677410  69.9357220   9.3659400 142.5403030  86.3200260   6.1525380
 142.0461310  86.7169130   5.4352510 141.9316320  85.6949470   6.5462660
 126.6449110  69.1002890   8.8602600 127.1932100  68.9190940   8.0968710
 126.7104420  68.3097000   9.3958910 127.4180870  85.6908540   6.8702800
 126.8241190  85.5593240   7.6092840 127.4104710  84.8546680   6.4044900
 136.8635890  68.9840770   5.0732830 135.9895730  69.3175880   4.8705760
 136.7546640  68.5113950   5.8984700 137.7707870  71.1911640   6.4574550
 137.4421230  70.3763400   6.0776280 138.7190170  71.1481450   6.3340240
 140.2242480  86.9623680   3.4312120 139.7645450  87.7139490   3.0570140
 139.5954940  86.2430150   3.3726920 127.0493100  83.0566920   5.8210840
 126.3227160  82.4372210   5.7536790 127.1102250  83.4507530   4.9508920
 130.6538200  85.2711920   2.6060250 131.1703220  84.6599280   2.0808510
 131.3035580  85.7740700   3.0971260 133.3933700  86.1620410   3.4329230
 133.6811510  85.9074710   2.5562240 133.9056920  85.6097770   4.0234800
 134.6110710  69.9010610   4.0125740 133.8282500  70.3756110   4.2922500
 134.3173640  68.9965440   3.9038920 133.4606060  87.0836510  10.7997430
 134.3873370  86.8480780  10.8433390 133.4456490  87.9108510  10.3183460
 130.6469670  69.7481260  10.5639310 130.3653940  70.2514860   9.8000130
 131.0289370  68.9503010  10.1981440 137.2485130  69.1634840  11.1419780
 137.1350580  69.4829450  12.0371300 138.0654870  69.5647350  10.8457060
 140.0283620  86.3106370  10.6238470 140.8208940  85.8155600  10.4164430
 140.3216770  86.9896510  11.2314080 136.1543280  58.4083820 150.4745930
 136.0737330  57.4938430 150.2037640 135.7407700  58.9050890 149.7685640
 138.3068750  64.5923030 151.1354330 137.8450280  63.8210270 151.4641500
 139.1194300  64.6189100 151.6406780 126.7119100  55.4584540 147.0173350
 125.8235800  55.8000510 146.9153230 126.9960290  55.2584860 146.1254180
 134.5332060  66.8781040 150.7558320 133.9143500  67.3338540 150.1852760
 135.3883840  67.0332500 150.3548020 128.8880490  54.0416040 148.0511730
 128.9947240  54.9419770 148.3580490 127.9772850  53.9934010 147.7606380
 138.5399600  53.1640850 149.5222630 139.3609220  52.6737420 149.5648110
 138.5733680  53.7538510 150.2754470 135.3995410  61.7620280 148.1490230
 134.7812680  62.2269730 147.5852950 135.9118660  62.4547760 148.5659740
 124.7678610  62.4476810 145.5229860 124.3906590  62.9363910 144.7914760
 125.0251680  63.1202090 146.1536390 132.3767540  50.8493200 150.9815370
 132.6842520  50.2940090 150.2650870 131.4468240  50.9837660 150.7988360
 139.2228020  63.2876710 148.3613000 139.1124350  62.3451040 148.4862420
 139.2196270  63.6492350 149.2475760 134.7648300  58.9142030 147.7175490
 133.8377580  58.8479410 147.9463960 134.9173120  59.8522160 147.6030730
 134.7517380  55.1859030 144.7142650 133.8121050  55.3472990 144.7995110
 135.0700640  55.9044710 144.1678640 138.7945590  60.4762330 148.2210740
 138.1758010  60.1381880 147.5737040 138.7770040  59.8322090 148.9289930
 130.3704940  59.4406770 150.4995220 129.9661940  58.7284020 150.0041120
 130.4568060  59.0960010 151.3883260 136.9710290  59.7149140 145.2283490
 137.4103570  58.8771570 145.0821310 137.6838710  60.3478540 145.3147630
 135.0805670  64.6545210 149.1964730 135.5201580  65.3969540 148.7820120
 135.0192560  64.8971780 150.1203690 140.5527430  50.9691950 143.5424530
 140.2400090  51.0618780 144.4423600 141.3139900  51.5472980 143.4921960
 127.0709570  58.3351750 148.0001870 126.9507170  59.0613840 147.3883140
 126.7610460  57.5654660 147.5229780 125.9542570  63.2067080 150.2176690
 125.5470650  63.3481670 149.3630290 126.8455580  62.9227240 150.0147900
 137.7475850  67.6414330 146.5527740 137.5876990  67.3517270 147.4509570
 137.5822560  66.8654460 146.0172970 130.2264230  67.4212860 148.3299360
 130.0506710  66.5048400 148.1167160 129.3719970  67.7800150 148.5697160
 137.4501980  65.1501890 145.1125740 136.7567140  65.1479180 144.4528020
 138.1924840  64.7261210 144.6819910 137.0151910  66.7764600 149.1874230
 137.4708860  65.9953980 149.5012850 137.3544430  67.4871420 149.7315410
 129.5373230  51.6786820 151.3825540 129.0941380  52.4596360 151.0510060
 130.0958220  52.0016710 152.0896480 132.6532050  51.2997520 146.2631370
 132.0286230  51.2957390 146.9884680 132.5662170  50.4328480 145.8667340
 129.3287450  56.8020390 149.1106790 129.1028370  56.5857560 150.0153410
 128.5479980  57.2348850 148.7652760 136.5585210  56.8083760 147.7097440
 135.9594100  57.5319560 147.5261060 137.1064820  56.7460540 146.9273890
 135.1650080  55.4447300 149.7400720 135.5579650  55.7619500 148.9269410
 135.5266930  54.5659180 149.8545240 124.3884480  55.9768220 143.1733640
 124.3059150  56.9198980 143.3148630 124.0367540  55.8343130 142.2945990
 132.1882610  54.7107250 152.2403990 132.1918670  54.2697200 151.3908530
 133.0833730  55.0324580 152.3475810 128.0384990  54.5933740 151.1998200
 127.6985040  55.0708970 151.9565250 127.2762310  54.1398860 150.8399300
 132.2502760  55.7119330 145.2310750 132.3715580  55.6705810 146.1796570
 131.8651270  56.5743480 145.0757480 131.2624260  58.0220470 144.6294050
 130.6941160  57.5738720 144.0029960 131.9713260  58.3813250 144.0959200
 125.3531070  53.5152720 150.1162870 125.0677990  53.1508390 150.9541490
 125.2909930  52.7833180 149.5026010 128.8071740  62.0178660 146.9020460
 128.0334000  61.4776280 146.7419180 129.5366370  61.4985270 146.5638220
 135.0269660  52.4081980 146.8376240 134.2134270  51.9095150 146.7621550
 134.8331610  53.2480230 146.4212590 137.7418050  56.7801630 145.1338400
 138.6297670  57.0918860 144.9589740 137.7123140  55.9073880 144.7418980
 128.8509140  61.6859040 150.5399270 129.3687810  60.8827300 150.4856160
 128.3993160  61.6238180 151.3816100 133.7378640  62.9525320 145.8126570
 134.0794340  63.6967550 145.3169890 132.9091350  63.2656440 146.1751400
 140.0132320  58.0913470 144.6018260 139.9296040  58.5227690 143.7514700
 140.7326510  58.5511820 145.0345080 141.0419570  64.9455730 147.3300390
 140.3995730  64.2911350 147.6044110 140.6550230  65.3510820 146.5541060
 136.6206050  62.2741160 151.1772080 136.9729870  61.6769290 150.5173450
 135.7368380  61.9485390 151.3480330 132.7069330  63.0338850 148.5842490
 133.3940460  63.5808060 148.9650080 131.9201750  63.5779580 148.6192100
 124.8461730  58.6511670 144.0759570 125.7156580  58.9336470 144.3595490
 124.3552050  59.4647540 143.9608380 132.0096540  60.0384880 148.1967850
 132.4659320  60.8490130 148.4228040 131.6584750  59.7208020 149.0286340
 127.9108320  50.3822530 148.6690370 127.7822950  50.3740430 149.6175290
 127.0870340  50.7205620 148.3181380 139.4316950  63.8372190 143.8676740
 139.2054530  63.1202630 144.4601380 139.0413150  63.5884630 143.0298490
 125.2132980  67.8639050 144.6421200 125.5730620  68.4628390 143.9878470
 125.0725320  68.4098940 145.4156230 139.0133200  61.7544130 145.5290900
 138.7254900  62.2156820 146.3168780 139.8085370  61.2941900 145.7975120
 131.2301600  65.2470250 145.4594870 131.2211700  65.9799940 144.8439380
 130.3099960  65.0001830 145.5521830 126.8308240  60.4685140 146.2041630
 126.2236190  61.2084040 146.2136930 127.3057590  60.5584500 145.3779830
 139.7703060  53.5892900 146.6886080 139.1416220  53.6938570 145.9744310
 139.2754980  53.8089680 147.4779960 134.2161200  65.3098490 144.1220060
 134.3173180  65.1062480 143.1922040 133.3162940  65.0556770 144.3267840
 131.7387090  55.8678850 148.1043960 131.0303240  56.3365190 148.5457570
 132.0231570  55.2100860 148.7389150 135.7702520  52.5929510 149.5439750
 135.6470300  52.6115640 148.5949260 136.7187080  52.6408450 149.6638150
 132.8579310  67.8284810 148.8167730 133.1120810  67.7906200 147.8947100
 131.9091790  67.7018140 148.8095980 129.9422110  54.1763930 145.4794670
 130.7912640  54.6134080 145.4134860 129.5753380  54.4884190 146.3066730
 138.8631890  58.7476690 150.3926240 137.9222030  58.7626920 150.5673930
 139.1775960  57.9612650 150.8386540 128.8413530  60.4296290 143.9530200
 129.6076800  60.3177650 144.5155630 128.9188220  59.7334260 143.3006970
 127.5360290  57.8621360 144.6363090 127.6163880  56.9148870 144.7480490
 128.4280040  58.1928240 144.7423750 128.3375000  68.0116750 151.7397630
 129.0737480  67.4632210 152.0106200 128.7215920  68.8772760 151.6003620
 125.2220480  64.0790320 147.6139140 124.2960260  64.3211460 147.6044550
 125.6876910  64.9064580 147.4923890 131.4477310  67.1847060 143.5623200
 132.2405920  67.4735890 143.1104990 130.9281660  66.7539230 142.8835680
 140.5007480  66.4117190 144.9859940 140.2148990  65.9982330 144.1714120
 140.3027030  67.3404900 144.8660460 131.9654710  62.4050470 143.4265550
 131.8605350  61.7902820 144.1526930 131.7978930  61.8816360 142.6428560
 135.2057440  61.4670500 144.0307540 134.6567540  61.9139800 144.6750280
 135.8276700  60.9619750 144.5545210 130.8732560  60.4261420 145.9272840
 131.2948980  60.2601290 146.7704230 130.9983400  59.6161650 145.4327980
 133.3860200  59.4499030 143.1749940 133.9065860  58.7348050 142.8091090
 134.0328600  60.0884900 143.4750450 129.7691460  56.4994650 142.8731000
 129.5680520  55.6362010 143.2344340 129.5983510  56.4128010 141.9352600
 137.2479770  51.3102880 145.4017880 137.5282060  50.4670780 145.7577300
 136.4745500  51.5425990 145.9156630 128.5674260  53.5995270 142.8608880
 128.8700160  53.6062700 141.9528030 129.3068850  53.2493130 143.3576540
 131.7859190  52.5429890 143.8465080 131.4381190  51.8653880 143.2667530
 131.9871960  52.0819400 144.6608470 133.9508230  67.5310640 145.4651680
 134.8459020  67.8695610 145.4870440 133.9825860  66.8090050 144.8375960
 127.5904390  62.9037690 143.6938680 128.0279260  63.4467360 144.3496260
 128.0752120  62.0784640 143.7035020 124.8050190  65.6926720 151.1458940
 125.1353200  64.8247780 150.9137580 125.2341190  65.8985240 151.9763900
 129.4012110  64.0235730 148.8060910 129.1007650  63.9000700 149.7064820
 129.2949600  63.1644320 148.3976640 142.1704030  63.8032130 143.5087590
 141.3396990  63.8708780 143.9794820 142.3475860  64.6936250 143.2054450
 141.6260490  60.5479610 146.0121790 142.3879400  61.1176260 146.1181480
 141.6414860  59.9806810 146.7830100 125.1264830  59.0717540 150.2429450
 124.4713670  58.8029180 149.5989150 125.9642780  58.9622020 149.7931430
 142.6320460  61.4029710 150.8563720 143.0029290  60.6197030 150.4499690
 143.2722390  62.0918810 150.6781020 141.6779660  60.8413980 143.1694310
 141.9528500  61.7492860 143.0413530 141.4890400  60.7776510 144.1056300
 138.0755270  53.8658830 144.4647940 138.4940150  53.6789810 143.6244600
 137.7691330  53.0137880 144.7750870 141.5745000  58.7782970 148.1623740
 141.1988600  58.0110900 147.7305030 140.8448120  59.1605670 148.6498670
 124.3402910  56.2816470 146.1854780 123.4366990  56.5446670 146.0106440
 124.8243530  56.5527640 145.4054740 140.8495960  57.0040460 151.4630980
 141.3733440  56.5103110 150.8321150 141.4355380  57.1390820 152.2078550
 126.8830120  55.3382010 144.0949160 127.5921820  54.9165230 143.6096440
 126.1670060  55.4057240 143.4632510 126.5304280  51.3921340 143.1351810
 127.2532410  51.9330280 143.4533030 126.8028800  51.1184760 142.2593350
 140.3395930  56.2613810 147.4023390 140.8355050  56.0284680 148.1872270
 140.1412000  55.4225650 146.9861030 141.7683090  54.8974760 149.9361070
 141.6582370  54.7430800 150.8743340 142.5290680  54.3695700 149.6936480
 142.6573360  52.7282680 143.1767210 143.5822670  52.5963860 142.9685500
 142.6349150  52.8075500 144.1303660 142.7311850  53.4993340 145.8023920
 141.9363350  53.4338460 146.3316830 142.9355130  54.4343980 145.7909270
 139.6730270  67.5384890 149.7962310 140.2689340  67.2169460 149.1196730
 139.9308420  67.0656710 150.5875580 139.1631780  51.8290220 152.2522750
 139.6039870  51.7735320 151.4044350 138.8939370  52.7448230 152.3232930
 141.0270350  51.4605460 150.2631570 140.9658750  50.5166680 150.1162590
 141.8062380  51.5685550 150.8085030 125.3323100  67.5997820 149.2255520
 125.1645140  66.9668500 149.9237410 124.4657610  67.8057220 148.8749710
 125.9551120  51.4314600 146.7287380 126.7130480  51.5443480 146.1551410
 125.4928290  52.2683800 146.6830810 132.4964930  53.5453870 149.7189690
 131.6839440  53.1710760 149.3785570 133.0006570  52.7898950 150.0210880
 136.9989910  50.2096320 150.9572760 137.6019280  50.7816530 151.4321280
 136.2582900  50.7735760 150.7346660 140.1424510  50.6117880 146.2313040
 140.3375140  51.5101330 146.4980470 139.3554380  50.3804960 146.7245990
 126.9385800  66.2931050 146.6705660 126.4133420  66.6739080 145.9667620
 126.8630380  66.9181820 147.3915370 128.3276270  51.9578650 145.2689350
 128.8569030  51.1708450 145.1397300 128.9604590  52.6369840 145.5024880
 130.5214110  51.6953790 148.3234740 129.8916850  50.9941100 148.4904870
 129.9819250  52.4557920 148.1067900 141.6951120  67.8518590 147.9919600
 141.8703310  67.1656330 147.3480520 140.9972690  68.3765640 147.5996270
 129.5378770  68.2413430 145.5454910 130.2697590  67.9572710 144.9978800
 129.7972440  68.0026710 146.4354290 128.6993560  64.3578160 145.5501240
 128.0702440  64.8263260 146.0987070 128.8141390  63.5127380 145.9847430
 136.1543280  58.4083820 131.7002440 136.0737330  57.4938430 131.4294150
 135.7407700  58.9050890 130.9942150 134.2861320  60.1862840 133.5811710
 133.5103420  59.7063280 133.8710280 134.9374250  59.5068490 133.4067870
 128.3027150  60.4982650 134.4587470 127.4712030  60.2431360 134.8583980
 128.9108130  60.5693420 135.1945390 138.3068750  64.5923030 132.3610840
 137.8450280  63.8210270 132.6898010 139.1194300  64.6189100 132.8663290
 128.2828410  64.5322740 134.6545490 128.5856450  63.6420480 134.4755710
 129.0272000  65.0892960 134.4267740 126.7119100  55.4584540 128.2429860
 125.8235800  55.8000510 128.1409740 126.9960290  55.2584860 127.3510690
 124.6752110  58.0590190 134.1269560 125.2468220  57.2912390 134.1273200
 124.6753650  58.3578950 133.2176170 134.5332060  66.8781040 131.9814830
 133.9143500  67.3338540 131.4109270 135.3883840  67.0332500 131.5804530
 133.7270310  62.8620030 133.5881870 133.6578590  61.9209970 133.4271000
 134.4890170  62.9521440 134.1604440 125.9176980  53.4674550 135.9138490
 125.7379820  52.5700300 136.1941250 125.5157060  54.0146420 136.5885440
 134.7575480  55.6690410 133.8150800 135.1340300  54.7962290 133.7024470
 134.6594990  56.0049110 132.9241240 128.8880490  54.0416040 129.2768240
 128.9947240  54.9419770 129.5837000 127.9772850  53.9934010 128.9862890
 138.5399600  53.1640850 130.7479140 139.3609220  52.6737420 130.7904620
 138.5733680  53.7538510 131.5010980 126.5363650  55.9635050 134.5220830
 127.2173760  56.2273420 135.1408230 126.2211700  55.1235920 134.8558840
 130.7288220  57.0102410 133.6093420 131.2366440  57.5083380 134.2498440
 131.2601460  56.2337610 133.4332780 142.8299150  55.1807600 137.3122770
 142.1251320  55.5689310 136.7937880 143.0957070  55.8757890 137.9143700
 129.0124320  51.6500970 137.8756840 129.0142760  52.1673360 137.0702740
 128.1828630  51.1731150 137.8526770 135.3995410  61.7620280 129.3746740
 134.7812680  62.2269730 128.8109460 135.9118660  62.4547760 129.7916250
 130.2627170  61.2896150 136.0530340 129.9296550  61.9165070 136.6951410
 130.4393850  61.8158030 135.2732010 138.7761080  55.1041230 133.5206680
 138.0716650  55.3926120 134.1009790 139.1373240  55.9141340 133.1606240
 128.6939650  53.3610930 135.8827290 129.0356460  54.2052980 135.5881160
 127.7555460  53.5094670 135.9992630 129.4746270  63.2576950 137.8679520
 130.0920270  63.9328030 137.5863970 128.6139390  63.6664930 137.7767020
 124.7678610  62.4476810 126.7486370 124.3906590  62.9363910 126.0171270
 125.0251680  63.1202090 127.3792900 140.3923860  64.7216360 135.7834160
 139.7087380  65.3915470 135.7750830 140.9318150  64.9197010 135.0179020
 141.8448000  54.5496020 133.9115890 140.8972910  54.5835000 134.0431320
 142.1697990  55.3634970 134.2965250 132.3767540  50.8493200 132.2071880
 132.6842520  50.2940090 131.4907380 131.4468240  50.9837660 132.0244870
 137.9282600  66.5660490 134.4979340 137.9409760  66.1622780 133.6301600
 137.3757820  67.3407780 134.3940770 139.2228020  63.2876710 129.5869510
 139.1124350  62.3451040 129.7118930 139.2196270  63.6492350 130.4732270
 137.3268040  61.4690330 135.8261950 137.7436830  61.2550440 134.9915410
 138.0507860  61.7263120 136.3970570 134.7648300  58.9142030 128.9432000
 133.8377580  58.8479410 129.1720470 134.9173120  59.8522160 128.8287240
 134.7517380  55.1859030 125.9399160 133.8121050  55.3472990 126.0251620
 135.0700640  55.9044710 125.3935150 141.2730140  59.8677550 135.9178190
 140.4448770  59.9370640 135.4428320 141.8680620  60.4531860 135.4494020
 138.7945590  60.4762330 129.4467250 138.1758010  60.1381880 128.7993550
 138.7770040  59.8322090 130.1546440 138.2372150  56.6546870 136.8633060
 137.8243330  57.4800580 137.1173050 137.5048100  56.0691910 136.6709420
 130.3704940  59.4406770 131.7251730 129.9661940  58.7284020 131.2297630
 130.4568060  59.0960010 132.6139770 130.8386640  63.1274330 133.8890940
 130.5414930  62.5219800 133.2098720 131.7886460  63.1651640 133.7780300
 129.0833560  56.2149980 135.5050770 129.6348150  56.3245320 134.7304020
 129.5977070  56.5887580 136.2206000 138.9272250  66.7006200 137.5514040
 138.4502810  67.5078390 137.3586650 138.2434040  66.0484530 137.7040250
 129.9305070  62.8656020 140.5398740 129.0333600  63.0895990 140.7872140
 129.9557940  62.9890960 139.5910140 136.9710290  59.7149140 126.4540000
 137.4103570  58.8771570 126.3077820 137.6838710  60.3478540 126.5404140
 128.7576290  59.7369340 139.1156110 128.6184060  60.6092140 139.4843510
 127.8757650  59.3942150 138.9704050 135.0805670  64.6545210 130.4221240
 135.5201580  65.3969540 130.0076630 135.0192560  64.8971780 131.3460200
 130.5556640  65.6791040 141.3241260 130.5272070  66.0833990 140.4569690
 130.3921610  64.7501400 141.1612860 140.5527430  50.9691950 124.7681040
 140.2400090  51.0618780 125.6680110 141.3139900  51.5472980 124.7178470
 127.0709570  58.3351750 129.2258380 126.9507170  59.0613840 128.6139650
 126.7610460  57.5654660 128.7486290 142.5071460  66.4618140 142.6205430
 142.9831180  66.9401030 143.2994510 143.1278620  66.3935630 141.8950930
 124.7094940  61.5066890 135.0327020 124.7875360  61.6415660 134.0882740
 125.3236620  60.7982780 135.2255140 125.9542570  63.2067080 131.4433200
 125.5470650  63.3481670 130.5886800 126.8455580  62.9227240 131.2404410
 141.9104710  63.6530990 139.7805440 142.0367770  63.4142870 138.8622620
 141.9526090  62.8215530 140.2527520 135.7721450  67.3558990 138.3500250
 136.2866120  67.2667000 139.1522680 134.9290530  67.7018690 138.6428160
 137.7475850  67.6414330 127.7784250 137.5876990  67.3517270 128.6766080
 137.5822560  66.8654460 127.2429480 130.2264230  67.4212860 129.5555870
 130.0506710  66.5048400 129.3423670 129.3719970  67.7800150 129.7953670
 137.4501980  65.1501890 126.3382250 136.7567140  65.1479180 125.6784530
 138.1924840  64.7261210 125.9076420 137.0151910  66.7764600 130.4130740
 137.4708860  65.9953980 130.7269360 137.3544430  67.4871420 130.9571920
 141.7628720  55.7063450 140.7455180 141.1472990  56.2143120 140.2170640
 141.4425140  54.8061780 140.6881120 124.7654460  62.5481060 137.5721480
 124.9285500  62.0786420 136.7540850 125.2306910  62.0404620 138.2370320
 129.5373230  51.6786820 132.6082050 129.0941380  52.4596360 132.2766570
 130.0958220  52.0016710 133.3152990 133.8243040  54.5455340 138.2117370
 133.3622410  54.7538360 139.0237310 133.4221150  53.7314690 137.9088040
 138.8247550  55.7664290 139.3414030 137.9741140  55.4670040 139.6623100
 138.6649340  56.0106300 138.4297850 135.9197260  57.2666040 141.4412820
 136.2450670  56.4329790 141.1015050 136.7077590  57.7894560 141.5891150
 132.6532050  51.2997520 127.4887880 132.0286230  51.2957390 128.2141190
 132.5662170  50.4328480 127.0923850 131.5749130  52.2234150 134.4671650
 131.8721460  53.1296980 134.3863670 132.1234690  51.7352930 133.8531220
 129.3287450  56.8020390 130.3363300 129.1028370  56.5857560 131.2409920
 128.5479980  57.2348850 129.9909270 136.5585210  56.8083760 128.9353950
 135.9594100  57.5319560 128.7517570 137.1064820  56.7460540 128.1530400
 131.7686660  57.7005970 141.0023570 131.6730260  56.7600700 140.8523970
 132.6118640  57.9221040 140.6071640 135.1650080  55.4447300 130.9657230
 135.5579650  55.7619500 130.1525920 135.5266930  54.5659180 131.0801750
 126.8997200  54.1119640 139.1557350 126.5060590  54.9594850 139.3630130
 126.2115600  53.4746010 139.3465990 133.4742250  54.1954610 142.2254090
 132.7840570  54.0026810 142.8600180 134.2174550  54.4789250 142.7578390
 124.2014250  52.0348100 133.1887430 123.9127300  52.6050960 133.9012410
 124.9460010  51.5552550 133.5518660 124.3884480  55.9768220 124.3990150
 124.3059150  56.9198980 124.5405140 124.0367540  55.8343130 123.5202500
 135.7505220  58.0353050 135.0608010 135.0186340  58.5439860 135.4098110
 135.3529560  57.2183030 134.7596790 132.1882610  54.7107250 133.4660500
 132.1918670  54.2697200 132.6165040 133.0833730  55.0324580 133.5732320
 128.0384990  54.5933740 132.4254710 127.6985040  55.0708970 133.1821760
 127.2762310  54.1398860 132.0655810 132.2502760  55.7119330 126.4567260
 132.3715580  55.6705810 127.4053080 131.8651270  56.5743480 126.3013990
 136.2131130  53.4886730 134.4730950 136.2303870  53.9395380 135.3172800
 135.9646710  52.5892370 134.6864390 131.2624260  58.0220470 125.8550560
 130.6941160  57.5738720 125.2286470 131.9713260  58.3813250 125.3215710
 139.6401880  50.9018910 140.3117330 139.9647650  50.1708570 140.8375310
 139.6758390  50.5832550 139.4098320 126.3393440  61.9232490 139.7317290
 125.9548230  61.2826160 140.3300250 126.6505630  62.6268610 140.3012020
 132.4890580  58.7709030 135.2125910 132.8560710  58.2967600 135.9587250
 132.2995640  59.6450600 135.5534250 125.3531070  53.5152720 131.3419380
 125.0677990  53.1508390 132.1798000 125.2909930  52.7833180 130.7282520
 130.2789950  57.8117670 137.5310120 129.9747020  58.6909650 137.7560480
 131.2336410  57.8717460 137.5667560 128.8071740  62.0178660 128.1276970
 128.0334000  61.4776280 127.9675690 129.5366370  61.4985270 127.7894730
 139.5659720  61.0144020 133.9203360 140.2858840  61.5099310 133.5299470
 139.3641540  60.3361910 133.2757230 135.0269660  52.4081980 128.0632750
 134.2134270  51.9095150 127.9878060 134.8331610  53.2480230 127.6469100
 134.9478520  61.0853080 139.8072360 134.8815830  60.1648750 139.5529950
 134.3183660  61.1828520 140.5217000 137.7418050  56.7801630 126.3594910
 138.6297670  57.0918860 126.1846250 137.7123140  55.9073880 125.9675490
 128.8509140  61.6859040 131.7655780 129.3687810  60.8827300 131.7112670
 128.3993160  61.6238180 132.6072610 133.7378640  62.9525320 127.0383080
 134.0794340  63.6967550 126.5426400 132.9091350  63.2656440 127.4007910
 126.3353680  58.6520410 138.6781480 125.9768620  59.3174260 139.2654820
 126.0408240  57.8203960 139.0494100 129.5366800  59.1104650 141.5621030
 129.2366940  59.2561830 140.6648850 130.3078040  58.5509940 141.4694420
 134.8795250  63.9073650 139.5576160 134.8939790  62.9754610 139.3395070
 134.1720350  63.9933410 140.1965930 140.0132320  58.0913470 125.8274770
 139.9296040  58.5227690 124.9771210 140.7326510  58.5511820 126.2601590
 141.0906460  60.5480990 138.9044740 140.3654650  61.1409770 138.7074130
 141.6181920  60.5404530 138.1058110 141.0419570  64.9455730 128.5556900
 140.3995730  64.2911350 128.8300620 140.6550230  65.3510820 127.7797570
 136.6206050  62.2741160 132.4028590 136.9729870  61.6769290 131.7429960
 135.7368380  61.9485390 132.5736840 132.7069330  63.0338850 129.8099000
 133.3940460  63.5808060 130.1906590 131.9201750  63.5779580 129.8448610
 124.8461730  58.6511670 125.3016080 125.7156580  58.9336470 125.5852000
 124.3552050  59.4647540 125.1864890 132.0096540  60.0384880 129.4224360
 132.4659320  60.8490130 129.6484550 131.6584750  59.7208020 130.2542850
 134.3129150  65.5491220 136.6516660 134.9571370  65.7550600 137.3290080
 134.6758590  64.7879620 136.1987510 127.9108320  50.3822530 129.8946880
 127.7822950  50.3740430 130.8431800 127.0870340  50.7205620 129.5437890
 135.5861230  63.5523570 135.3694110 136.2283460  62.8516730 135.4826280
 136.1110580  64.3322010 135.1891000 139.4316950  63.8372190 125.0933250
 139.2054530  63.1202630 125.6857890 139.0413150  63.5884630 124.2555000
 137.3598850  64.3518470 138.5730170 137.6955090  64.9385160 139.2508090
 136.4399190  64.2211180 138.8027960 125.2132980  67.8639050 125.8677710
 125.5730620  68.4628390 125.2134980 125.0725320  68.4098940 126.6412740
 124.9102250  52.1413650 139.3553580 124.1960770  52.3410570 139.9606190
 125.3297290  51.3653220 139.7268380 139.0133200  61.7544130 126.7547410
 138.7254900  62.2156820 127.5425290 139.8085370  61.2941900 127.0231630
 125.1974840  66.1293910 140.3420110 125.3065960  65.1888650 140.2015500
 124.5455400  66.3948660 139.6933840 133.1887430  64.4009800 141.7418230
 132.8684300  63.6819040 142.2863920 132.5145790  65.0764870 141.8154290
 131.2301600  65.2470250 126.6851380 131.2211700  65.9799940 126.0695890
 130.3099960  65.0001830 126.7778340 126.8308240  60.4685140 127.4298140
 126.2236190  61.2084040 127.4393440 127.3057590  60.5584500 126.6036340
 136.4041030  54.6335960 137.1055030 136.7721850  53.8131170 137.4334600
 135.5439230  54.6937850 137.5210680 139.7703060  53.5892900 127.9142590
 139.1416220  53.6938570 127.2000820 139.2754980  53.8089680 128.7036470
 134.2161200  65.3098490 125.3476570 134.3173180  65.1062480 124.4178550
 133.3162940  65.0556770 125.5524350 131.7387090  55.8678850 129.3300470
 131.0303240  56.3365190 129.7714080 132.0231570  55.2100860 129.9645660
 133.3643020  57.2875550 137.3293000 133.8628270  57.7621370 137.9944850
 133.5065970  56.3639070 137.5363030 135.7702520  52.5929510 130.7696260
 135.6470300  52.6115640 129.8205770 136.7187080  52.6408450 130.8894660
 132.8579310  67.8284810 130.0424240 133.1120810  67.7906200 129.1203610
 131.9091790  67.7018140 130.0352490 129.9422110  54.1763930 126.7051180
 130.7912640  54.6134080 126.6391370 129.5753380  54.4884190 127.5323240
 140.5709880  53.5043510 138.1721390 140.0683480  54.2448910 138.5115200
 141.3866540  53.8927510 137.8558180 138.8631890  58.7476690 131.6182750
 137.9222030  58.7626920 131.7930440 139.1775960  57.9612650 132.0643050
 128.8413530  60.4296290 125.1786710 129.6076800  60.3177650 125.7412140
 128.9188220  59.7334260 124.5263480 127.5360290  57.8621360 125.8619600
 127.6163880  56.9148870 125.9737000 128.4280040  58.1928240 125.9680260
 140.8657470  65.9185540 133.2937010 140.9904890  66.7416710 133.7660820
 141.7323030  65.7076270 132.9461160 128.3375000  68.0116750 132.9654140
 129.0737480  67.4632210 133.2362710 128.7215920  68.8772760 132.8260130
 125.2220480  64.0790320 128.8395650 124.2960260  64.3211460 128.8301060
 125.6876910  64.9064580 128.7180400 127.3433280  67.1962820 142.1539720
 128.1446010  67.5174870 142.5675120 126.8285100  66.8358400 142.8759630
 131.4477310  67.1847060 124.7879710 132.2405920  67.4735890 124.3361500
 130.9281660  66.7539230 124.1092190 136.1797910  63.3042690 142.1015130
 135.5736070  63.3274290 141.3610880 135.8752020  62.5725730 142.6382380
 137.6098280  67.0322980 140.7124540 138.5620030  66.9481000 140.6624780
 137.4626500  67.6964690 141.3858330 140.5007480  66.4117190 126.2116450
 140.2148990  65.9982330 125.3970630 140.3027030  67.3404900 126.0916970
 125.0631090  59.6836280 141.0975770 125.5670110  59.1043560 141.6692000
 124.3238510  59.9676510 141.6352140 131.9654710  62.4050470 124.6522060
 131.8605350  61.7902820 125.3783440 131.7978930  61.8816360 123.8685070
 132.1169030  61.0907270 140.6311290 131.3514700  61.6592270 140.5465960
 132.2984990  60.7983480 139.7379520 135.2057440  61.4670500 125.2564050
 134.6567540  61.9139800 125.9006790 135.8276700  60.9619750 125.7801720
 139.2592380  62.8212600 141.1886310 140.0001850  63.1588360 140.6853770
 138.4965060  62.9904660 140.6356080 127.0954170  57.8265870 141.9925840
 127.1359510  57.5279740 142.9011070 127.9499670  58.2273480 141.8333360
 130.8732560  60.4261420 127.1529350 131.2948980  60.2601290 127.9960740
 130.9983400  59.6161650 126.6584490 129.0359980  56.4057970 139.9600330
 128.5056440  55.9148920 139.3323670 129.7048050  56.8342170 139.4258260
 133.3860200  59.4499030 124.4006450 133.9065860  58.7348050 124.0347600
 134.0328600  60.0884900 124.7006960 137.9338040  60.8727430 139.7241520
 138.3479060  61.0272510 140.5731940 136.9989040  60.9982650 139.8867300
 138.4060210  58.2123590 141.7280670 138.9880980  57.4575910 141.6401150
 138.5821980  58.7431030 140.9512150 129.5232280  53.3720340 140.0397620
 129.4289150  52.7541090 139.3148490 128.9429670  54.0986630 139.8127530
 132.2893720  51.9293580 137.0725010 131.8411020  51.9517840 136.2270560
 131.6558920  51.5312600 137.6695310 132.6953270  60.8247910 137.6937450
 133.1141380  61.6680640 137.5213690 131.7761900  60.9619950 137.4644230
 135.0317170  58.5564090 139.0775290 135.1513380  57.9605230 139.8170130
 135.8911170  58.5933780 138.6576590 137.3705070  59.1101280 137.6537800
 136.8440290  59.6343900 137.0502940 137.7136410  59.7428670 138.2847530
 129.7691460  56.4994650 124.0987510 129.5680520  55.6362010 124.4600850
 129.5983510  56.4128010 123.1609110 130.5460690  67.1300920 138.8095180
 130.0081780  67.8546980 138.4903880 130.7994650  66.6531260 138.0192520
 131.7985940  55.0985440 140.3351110 132.3885630  54.7901290 141.0228930
 130.9806180  54.6265190 140.4911010 136.6179370  54.7151250 140.5684130
 135.9294890  54.0532790 140.5034120 137.3385390  54.2689520 141.0132590
 137.2479770  51.3102880 126.6274390 137.5282060  50.4670780 126.9833810
 136.4745500  51.5425990 127.1413140 128.5674260  53.5995270 124.0865390
 128.8700160  53.6062700 123.1784540 129.3068850  53.2493130 124.5833050
 133.4022900  68.3652130 139.0681830 133.3281600  69.2687270 139.3754200
 132.5001740  68.0464030 139.0403900 131.7859190  52.5429890 125.0721590
 131.4381190  51.8653880 124.4924040 131.9871960  52.0819400 125.8864980
 133.9508230  67.5310640 126.6908190 134.8459020  67.8695610 126.7126950
 133.9825860  66.8090050 126.0632470 127.5904390  62.9037690 124.9195190
 128.0279260  63.4467360 125.5752770 128.0752120  62.0784640 124.9291530
 124.8050190  65.6926720 132.3715450 125.1353200  64.8247780 132.1394090
 125.2341190  65.8985240 133.2020410 129.4012110  64.0235730 130.0317420
 129.1007650  63.9000700 130.9321330 129.2949600  63.1644320 129.6233150
 125.2940400  66.5597310 135.1097080 124.8571390  66.7398110 135.9421230
 125.8618080  67.3171930 134.9678800 140.9302580  66.0614310 139.3974390
 140.3304570  66.1206870 138.6538310 141.0596480  65.1219290 139.5271240
 142.1704030  63.8032130 124.7344100 141.3396990  63.8708780 125.2051330
 142.3475860  64.6936250 124.4310960 141.6260490  60.5479610 127.2378300
 142.3879400  61.1176260 127.3437990 141.6414860  59.9806810 128.0086610
 125.1264830  59.0717540 131.4685960 124.4713670  58.8029180 130.8245660
 125.9642780  58.9622020 131.0187940 142.6320460  61.4029710 132.0820230
 143.0029290  60.6197030 131.6756200 143.2722390  62.0918810 131.9037530
 139.6154220  62.7866290 137.4950550 138.8014060  63.2163450 137.7576340
 140.0228420  63.3984700 136.8819600 141.6779660  60.8413980 124.3950820
 141.9528500  61.7492860 124.2670040 141.4890400  60.7776510 125.3312810
 138.0755270  53.8658830 125.6904450 138.4940150  53.6789810 124.8501110
 137.7691330  53.0137880 126.0007380 141.5745000  58.7782970 129.3880250
 141.1988600  58.0110900 128.9561540 140.8448120  59.1605670 129.8755180
 126.1640760  59.4570110 136.0089300 126.5313800  59.3697510 136.8885320
 125.5951580  58.6936660 135.9096160 140.9644620  57.9254490 139.0219770
 140.7330710  57.6967240 138.1217720 141.2249170  58.8454040 138.9764660
 125.7156760  56.3679200 139.9147720 124.8212810  56.3345960 140.2541430
 126.2554310  56.5665990 140.6798970 139.4032690  53.1510920 141.7999470
 140.2802870  53.1594320 142.1833470 139.4153530  52.4141760 141.1891820
 124.3402910  56.2816470 127.4111290 123.4366990  56.5446670 127.2362950
 124.8243530  56.5527640 126.6311250 140.8495960  57.0040460 132.6887490
 141.3733440  56.5103110 132.0577660 141.4355380  57.1390820 133.4335060
 141.0285680  57.0880330 136.2107040 140.0788390  57.0543870 136.3252030
 141.2098690  57.9980440 135.9756810 126.8830120  55.3382010 125.3205670
 127.5921820  54.9165230 124.8352950 126.1670060  55.4057240 124.6889020
 126.5304280  51.3921340 124.3608320 127.2532410  51.9330280 124.6789540
 126.8028800  51.1184760 123.4849860 140.3395930  56.2613810 128.6279900
 140.8355050  56.0284680 129.4128780 140.1412000  55.4225650 128.2117540
 126.2196470  50.6427530 134.2630940 126.8672660  50.0924910 133.8226100
 126.6398310  50.8970680 135.0846750 141.7683090  54.8974760 131.1617580
 141.6582370  54.7430800 132.0999850 142.5290680  54.3695700 130.9192990
 140.1148810  50.8368890 137.6200580 140.7521030  51.4503030 137.9859770
 140.2623700  50.8729550 136.6749810 142.6573360  52.7282680 124.4023720
 143.5822670  52.5963860 124.1942010 142.6349150  52.8075500 125.3560170
 142.7311850  53.4993340 127.0280430 141.9363350  53.4338460 127.5573340
 142.9355130  54.4343980 127.0165780 139.6730270  67.5384890 131.0218820
 140.2689340  67.2169460 130.3453240 139.9308420  67.0656710 131.8132090
 125.9728470  50.7983200 137.0056260 125.6243290  51.2547020 137.7714440
 125.6416170  49.9040330 137.0878690 127.5792840  63.9702800 141.1709450
 127.5362470  63.5995710 142.0523910 127.7103850  64.9080370 141.3111270
 131.2798870  65.5262390 136.7719170 131.0390230  65.7936950 135.8849690
 132.2201510  65.6968120 136.8270030 133.4853290  51.9895080 140.5275680
 133.4242180  52.5816910 141.2771090 134.4253670  51.8821040 140.3825940
 136.1227850  51.6465140 140.1667970 136.7368260  51.9644430 139.5049050
 136.6677410  51.1613730 140.7863830 142.5403030  67.5456770 137.5729810
 142.0461310  67.9425640 136.8556940 141.9316320  66.9205980 137.9667090
 126.6449110  50.3259400 140.2807030 127.1932100  50.1447450 139.5173140
 126.7104420  49.5353510 140.8163340 127.4180870  66.9165050 138.2907230
 126.8241190  66.7849750 139.0297270 127.4104710  66.0803190 137.8249330
 136.8635890  50.2097280 136.4937260 135.9895730  50.5432390 136.2910190
 136.7546640  49.7370460 137.3189130 137.7707870  52.4168150 137.8778980
 137.4421230  51.6019910 137.4980710 138.7190170  52.3737960 137.7544670
 140.2242480  68.1880190 134.8516550 139.7645450  68.9396000 134.4774570
 139.5954940  67.4686660 134.7931350 127.0493100  64.2823430 137.2415270
 126.3227160  63.6628720 137.1741220 127.1102250  64.6764040 136.3713350
 130.6538200  66.4968430 134.0264680 131.1703220  65.8855790 133.5012940
 131.3035580  66.9997210 134.5175690 133.3933700  67.3876920 134.8533660
 133.6811510  67.1331220 133.9766670 133.9056920  66.8354280 135.4439230
 134.6110710  51.1267120 135.4330170 133.8282500  51.6012620 135.7126930
 134.3173640  50.2221950 135.3243350 139.1631780  51.8290220 133.4779260
 139.6039870  51.7735320 132.6300860 138.8939370  52.7448230 133.5489440
 141.0270350  51.4605460 131.4888080 140.9658750  50.5166680 131.3419100
 141.8062380  51.5685550 132.0341540 125.3323100  67.5997820 130.4512030
 125.1645140  66.9668500 131.1493920 124.4657610  67.8057220 130.1006220
 125.9551120  51.4314600 127.9543890 126.7130480  51.5443480 127.3807920
 125.4928290  52.2683800 127.9087320 132.4964930  53.5453870 130.9446200
 131.6839440  53.1710760 130.6042080 133.0006570  52.7898950 131.2467390
 136.9989910  50.2096320 132.1829270 137.6019280  50.7816530 132.6577790
 136.2582900  50.7735760 131.9603170 140.1424510  50.6117880 127.4569550
 140.3375140  51.5101330 127.7236980 139.3554380  50.3804960 127.9502500
 126.9385800  66.2931050 127.8962170 126.4133420  66.6739080 127.1924130
 126.8630380  66.9181820 128.6171880 128.3276270  51.9578650 126.4945860
 128.8569030  51.1708450 126.3653810 128.9604590  52.6369840 126.7281390
 130.5214110  51.6953790 129.5491250 129.8916850  50.9941100 129.7161380
 129.9819250  52.4557920 129.3324410 133.4606060  68.3093020 142.2201860
 134.3873370  68.0737290 142.2637820 133.4456490  69.1365020 141.7387890
 141.6951120  67.8518590 129.2176110 141.8703310  67.1656330 128.5737030
 140.9972690  68.3765640 128.8252780 130.6469670  50.9737770 141.9843740
 130.3653940  51.4771370 141.2204560 131.0289370  50.1759520 141.6185870
 129.5378770  68.2413430 126.7711420 130.2697590  67.9572710 126.2235310
 129.7972440  68.0026710 127.6610800 128.6993560  64.3578160 126.7757750
 128.0702440  64.8263260 127.3243580 128.8141390  63.5127380 127.2103940
 137.2485130  50.3891350 142.5624210 137.1350580  50.7085960 143.4575730
 138.0654870  50.7903860 142.2661490 140.0283620  67.5362880 142.0442900
 140.8208940  67.0412110 141.8368860 140.3216770  68.2153020 142.6518510
 136.1543280  58.4083820 112.9258950 136.0737330  57.4938430 112.6550660
 135.7407700  58.9050890 112.2198660 134.2861320  60.1862840 114.8068220
 133.5103420  59.7063280 115.0966790 134.9374250  59.5068490 114.6324380
 128.3027150  60.4982650 115.6843980 127.4712030  60.2431360 116.0840490
 128.9108130  60.5693420 116.4201900 138.3068750  64.5923030 113.5867350
 137.8450280  63.8210270 113.9154520 139.1194300  64.6189100 114.0919800
 128.2828410  64.5322740 115.8802000 128.5856450  63.6420480 115.7012220
 129.0272000  65.0892960 115.6524250 126.7119100  55.4584540 109.4686370
 125.8235800  55.8000510 109.3666250 126.9960290  55.2584860 108.5767200
 124.6752110  58.0590190 115.3526070 125.2468220  57.2912390 115.3529710
 124.6753650  58.3578950 114.4432680 134.5332060  66.8781040 113.2071340
 133.9143500  67.3338540 112.6365780 135.3883840  67.0332500 112.8061040
 133.7270310  62.8620030 114.8138380 133.6578590  61.9209970 114.6527510
 134.4890170  62.9521440 115.3860950 125.9176980  53.4674550 117.1395000
 125.7379820  52.5700300 117.4197760 125.5157060  54.0146420 117.8141950
 134.7575480  55.6690410 115.0407310 135.1340300  54.7962290 114.9280980
 134.6594990  56.0049110 114.1497750 128.8880490  54.0416040 110.5024750
 128.9947240  54.9419770 110.8093510 127.9772850  53.9934010 110.2119400
 138.5399600  53.1640850 111.9735650 139.3609220  52.6737420 112.0161130
 138.5733680  53.7538510 112.7267490 126.5363650  55.9635050 115.7477340
 127.2173760  56.2273420 116.3664740 126.2211700  55.1235920 116.0815350
 130.7288220  57.0102410 114.8349930 131.2366440  57.5083380 115.4754950
 131.2601460  56.2337610 114.6589290 142.8299150  55.1807600 118.5379280
 142.1251320  55.5689310 118.0194390 143.0957070  55.8757890 119.1400210
 129.0124320  51.6500970 119.1013350 129.0142760  52.1673360 118.2959250
 128.1828630  51.1731150 119.0783280 135.3995410  61.7620280 110.6003250
 134.7812680  62.2269730 110.0365970 135.9118660  62.4547760 111.0172760
 130.2627170  61.2896150 117.2786850 129.9296550  61.9165070 117.9207920
 130.4393850  61.8158030 116.4988520 138.7761080  55.1041230 114.7463190
 138.0716650  55.3926120 115.3266300 139.1373240  55.9141340 114.3862750
 128.6939650  53.3610930 117.1083800 129.0356460  54.2052980 116.8137670
 127.7555460  53.5094670 117.2249140 129.4746270  63.2576950 119.0936030
 130.0920270  63.9328030 118.8120480 128.6139390  63.6664930 119.0023530
 124.7678610  62.4476810 107.9742880 124.3906590  62.9363910 107.2427780
 125.0251680  63.1202090 108.6049410 140.3923860  64.7216360 117.0090670
 139.7087380  65.3915470 117.0007340 140.9318150  64.9197010 116.2435530
 141.8448000  54.5496020 115.1372400 140.8972910  54.5835000 115.2687830
 142.1697990  55.3634970 115.5221760 132.3767540  50.8493200 113.4328390
 132.6842520  50.2940090 112.7163890 131.4468240  50.9837660 113.2501380
 137.9282600  66.5660490 115.7235850 137.9409760  66.1622780 114.8558110
 137.3757820  67.3407780 115.6197280 139.2228020  63.2876710 110.8126020
 139.1124350  62.3451040 110.9375440 139.2196270  63.6492350 111.6988780
 137.3268040  61.4690330 117.0518460 137.7436830  61.2550440 116.2171920
 138.0507860  61.7263120 117.6227080 134.7648300  58.9142030 110.1688510
 133.8377580  58.8479410 110.3976980 134.9173120  59.8522160 110.0543750
 134.7517380  55.1859030 107.1655670 133.8121050  55.3472990 107.2508130
 135.0700640  55.9044710 106.6191660 141.2730140  59.8677550 117.1434700
 140.4448770  59.9370640 116.6684830 141.8680620  60.4531860 116.6750530
 138.7945590  60.4762330 110.6723760 138.1758010  60.1381880 110.0250060
 138.7770040  59.8322090 111.3802950 138.2372150  56.6546870 118.0889570
 137.8243330  57.4800580 118.3429560 137.5048100  56.0691910 117.8965930
 130.3704940  59.4406770 112.9508240 129.9661940  58.7284020 112.4554140
 130.4568060  59.0960010 113.8396280 130.8386640  63.1274330 115.1147450
 130.5414930  62.5219800 114.4355230 131.7886460  63.1651640 115.0036810
 129.0833560  56.2149980 116.7307280 129.6348150  56.3245320 115.9560530
 129.5977070  56.5887580 117.4462510 138.9272250  66.7006200 118.7770550
 138.4502810  67.5078390 118.5843160 138.2434040  66.0484530 118.9296760
 129.9305070  62.8656020 121.7655250 129.0333600  63.0895990 122.0128650
 129.9557940  62.9890960 120.8166650 136.9710290  59.7149140 107.6796510
 137.4103570  58.8771570 107.5334330 137.6838710  60.3478540 107.7660650
 128.7576290  59.7369340 120.3412620 128.6184060  60.6092140 120.7100020
 127.8757650  59.3942150 120.1960560 135.0805670  64.6545210 111.6477750
 135.5201580  65.3969540 111.2333140 135.0192560  64.8971780 112.5716710
 130.5556640  65.6791040 122.5497770 130.5272070  66.0833990 121.6826200
 130.3921610  64.7501400 122.3869370 140.5527430  50.9691950 105.9937550
 140.2400090  51.0618780 106.8936620 141.3139900  51.5472980 105.9434980
 127.0709570  58.3351750 110.4514890 126.9507170  59.0613840 109.8396160
 126.7610460  57.5654660 109.9742800 142.5071460  66.4618140 123.8461940
 142.9831180  66.9401030 124.5251020 143.1278620  66.3935630 123.1207440
 124.7094940  61.5066890 116.2583530 124.7875360  61.6415660 115.3139250
 125.3236620  60.7982780 116.4511650 125.9542570  63.2067080 112.6689710
 125.5470650  63.3481670 111.8143310 126.8455580  62.9227240 112.4660920
 141.9104710  63.6530990 121.0061950 142.0367770  63.4142870 120.0879130
 141.9526090  62.8215530 121.4784030 135.7721450  67.3558990 119.5756760
 136.2866120  67.2667000 120.3779190 134.9290530  67.7018690 119.8684670
 137.7475850  67.6414330 109.0040760 137.5876990  67.3517270 109.9022590
 137.5822560  66.8654460 108.4685990 137.4501980  65.1501890 107.5638760
 136.7567140  65.1479180 106.9041040 138.1924840  64.7261210 107.1332930
 137.0151910  66.7764600 111.6387250 137.4708860  65.9953980 111.9525870
 137.3544430  67.4871420 112.1828430 141.7628720  55.7063450 121.9711690
 141.1472990  56.2143120 121.4427150 141.4425140  54.8061780 121.9137630
 124.7654460  62.5481060 118.7977990 124.9285500  62.0786420 117.9797360
 125.2306910  62.0404620 119.4626830 129.5373230  51.6786820 113.8338560
 129.0941380  52.4596360 113.5023080 130.0958220  52.0016710 114.5409500
 133.8243040  54.5455340 119.4373880 133.3622410  54.7538360 120.2493820
 133.4221150  53.7314690 119.1344550 138.8247550  55.7664290 120.5670540
 137.9741140  55.4670040 120.8879610 138.6649340  56.0106300 119.6554360
 135.9197260  57.2666040 122.6669330 136.2450670  56.4329790 122.3271560
 136.7077590  57.7894560 122.8147660 132.6532050  51.2997520 108.7144390
 132.0286230  51.2957390 109.4397700 132.5662170  50.4328480 108.3180360
 131.5749130  52.2234150 115.6928160 131.8721460  53.1296980 115.6120180
 132.1234690  51.7352930 115.0787730 129.3287450  56.8020390 111.5619810
 129.1028370  56.5857560 112.4666430 128.5479980  57.2348850 111.2165780
 136.5585210  56.8083760 110.1610460 135.9594100  57.5319560 109.9774080
 137.1064820  56.7460540 109.3786910 131.7686660  57.7005970 122.2280080
 131.6730260  56.7600700 122.0780480 132.6118640  57.9221040 121.8328150
 135.1650080  55.4447300 112.1913740 135.5579650  55.7619500 111.3782430
 135.5266930  54.5659180 112.3058260 126.8997200  54.1119640 120.3813860
 126.5060590  54.9594850 120.5886640 126.2115600  53.4746010 120.5722500
 133.4742250  54.1954610 123.4510600 132.7840570  54.0026810 124.0856690
 134.2174550  54.4789250 123.9834900 124.2014250  52.0348100 114.4143940
 123.9127300  52.6050960 115.1268920 124.9460010  51.5552550 114.7775170
 124.3884480  55.9768220 105.6246660 124.3059150  56.9198980 105.7661650
 124.0367540  55.8343130 104.7459010 135.7505220  58.0353050 116.2864520
 135.0186340  58.5439860 116.6354620 135.3529560  57.2183030 115.9853300
 132.1882610  54.7107250 114.6917010 132.1918670  54.2697200 113.8421550
 133.0833730  55.0324580 114.7988830 128.0384990  54.5933740 113.6511220
 127.6985040  55.0708970 114.4078270 127.2762310  54.1398860 113.2912320
 132.2502760  55.7119330 107.6823770 132.3715580  55.6705810 108.6309590
 131.8651270  56.5743480 107.5270500 136.2131130  53.4886730 115.6987460
 136.2303870  53.9395380 116.5429310 135.9646710  52.5892370 115.9120900
 131.2624260  58.0220470 107.0807070 130.6941160  57.5738720 106.4542980
 131.9713260  58.3813250 106.5472220 139.6401880  50.9018910 121.5373840
 139.9647650  50.1708570 122.0631820 139.6758390  50.5832550 120.6354830
 126.3393440  61.9232490 120.9573800 125.9548230  61.2826160 121.5556760
 126.6505630  62.6268610 121.5268530 132.4890580  58.7709030 116.4382420
 132.8560710  58.2967600 117.1843760 132.2995640  59.6450600 116.7790760
 125.3531070  53.5152720 112.5675890 125.0677990  53.1508390 113.4054510
 125.2909930  52.7833180 111.9539030 130.2789950  57.8117670 118.7566630
 129.9747020  58.6909650 118.9816990 131.2336410  57.8717460 118.7924070
 128.8071740  62.0178660 109.3533480 128.0334000  61.4776280 109.1932200
 129.5366370  61.4985270 109.0151240 139.5659720  61.0144020 115.1459870
 140.2858840  61.5099310 114.7555980 139.3641540  60.3361910 114.5013740
 135.0269660  52.4081980 109.2889260 134.2134270  51.9095150 109.2134570
 134.8331610  53.2480230 108.8725610 134.9478520  61.0853080 121.0328870
 134.8815830  60.1648750 120.7786460 134.3183660  61.1828520 121.7473510
 137.7418050  56.7801630 107.5851420 138.6297670  57.0918860 107.4102760
 137.7123140  55.9073880 107.1932000 128.8509140  61.6859040 112.9912290
 129.3687810  60.8827300 112.9369180 128.3993160  61.6238180 113.8329120
 133.7378640  62.9525320 108.2639590 134.0794340  63.6967550 107.7682910
 132.9091350  63.2656440 108.6264420 126.3353680  58.6520410 119.9037990
 125.9768620  59.3174260 120.4911330 126.0408240  57.8203960 120.2750610
 129.5366800  59.1104650 122.7877540 129.2366940  59.2561830 121.8905360
 130.3078040  58.5509940 122.6950930 134.8795250  63.9073650 120.7832670
 134.8939790  62.9754610 120.5651580 134.1720350  63.9933410 121.4222440
 140.0132320  58.0913470 107.0531280 139.9296040  58.5227690 106.2027720
 140.7326510  58.5511820 107.4858100 141.0906460  60.5480990 120.1301250
 140.3654650  61.1409770 119.9330640 141.6181920  60.5404530 119.3314620
 141.0419570  64.9455730 109.7813410 140.3995730  64.2911350 110.0557130
 140.6550230  65.3510820 109.0054080 136.6206050  62.2741160 113.6285100
 136.9729870  61.6769290 112.9686470 135.7368380  61.9485390 113.7993350
 132.7069330  63.0338850 111.0355510 133.3940460  63.5808060 111.4163100
 131.9201750  63.5779580 111.0705120 124.8461730  58.6511670 106.5272590
 125.7156580  58.9336470 106.8108510 124.3552050  59.4647540 106.4121400
 132.0096540  60.0384880 110.6480870 132.4659320  60.8490130 110.8741060
 131.6584750  59.7208020 111.4799360 134.3129150  65.5491220 117.8773170
 134.9571370  65.7550600 118.5546590 134.6758590  64.7879620 117.4244020
 127.9108320  50.3822530 111.1203390 127.7822950  50.3740430 112.0688310
 127.0870340  50.7205620 110.7694400 135.5861230  63.5523570 116.5950620
 136.2283460  62.8516730 116.7082790 136.1110580  64.3322010 116.4147510
 139.4316950  63.8372190 106.3189760 139.2054530  63.1202630 106.9114400
 139.0413150  63.5884630 105.4811510 137.3598850  64.3518470 119.7986680
 137.6955090  64.9385160 120.4764600 136.4399190  64.2211180 120.0284470
 124.9102250  52.1413650 120.5810090 124.1960770  52.3410570 121.1862700
 125.3297290  51.3653220 120.9524890 139.0133200  61.7544130 107.9803920
 138.7254900  62.2156820 108.7681800 139.8085370  61.2941900 108.2488140
 125.1974840  66.1293910 121.5676620 125.3065960  65.1888650 121.4272010
 124.5455400  66.3948660 120.9190350 133.1887430  64.4009800 122.9674740
 132.8684300  63.6819040 123.5120430 132.5145790  65.0764870 123.0410800
 131.2301600  65.2470250 107.9107890 131.2211700  65.9799940 107.2952400
 130.3099960  65.0001830 108.0034850 126.8308240  60.4685140 108.6554650
 126.2236190  61.2084040 108.6649950 127.3057590  60.5584500 107.8292850
 136.4041030  54.6335960 118.3311540 136.7721850  53.8131170 118.6591110
 135.5439230  54.6937850 118.7467190 139.7703060  53.5892900 109.1399100
 139.1416220  53.6938570 108.4257330 139.2754980  53.8089680 109.9292980
 134.2161200  65.3098490 106.5733080 134.3173180  65.1062480 105.6435060
 133.3162940  65.0556770 106.7780860 131.7387090  55.8678850 110.5556980
 131.0303240  56.3365190 110.9970590 132.0231570  55.2100860 111.1902170
 133.3643020  57.2875550 118.5549510 133.8628270  57.7621370 119.2201360
 133.5065970  56.3639070 118.7619540 135.7702520  52.5929510 111.9952770
 135.6470300  52.6115640 111.0462280 136.7187080  52.6408450 112.1151170
 132.8579310  67.8284810 111.2680750 133.1120810  67.7906200 110.3460120
 131.9091790  67.7018140 111.2609000 129.9422110  54.1763930 107.9307690
 130.7912640  54.6134080 107.8647880 129.5753380  54.4884190 108.7579750
 140.5709880  53.5043510 119.3977900 140.0683480  54.2448910 119.7371710
 141.3866540  53.8927510 119.0814690 138.8631890  58.7476690 112.8439260
 137.9222030  58.7626920 113.0186950 139.1775960  57.9612650 113.2899560
 128.8413530  60.4296290 106.4043220 129.6076800  60.3177650 106.9668650
 128.9188220  59.7334260 105.7519990 127.5360290  57.8621360 107.0876110
 127.6163880  56.9148870 107.1993510 128.4280040  58.1928240 107.1936770
 140.8657470  65.9185540 114.5193520 140.9904890  66.7416710 114.9917330
 141.7323030  65.7076270 114.1717670 127.3433280  67.1962820 123.3796230
 128.1446010  67.5174870 123.7931630 126.8285100  66.8358400 124.1016140
 131.4477310  67.1847060 106.0136220 132.2405920  67.4735890 105.5618010
 130.9281660  66.7539230 105.3348700 136.1797910  63.3042690 123.3271640
 135.5736070  63.3274290 122.5867390 135.8752020  62.5725730 123.8638890
 137.6098280  67.0322980 121.9381050 138.5620030  66.9481000 121.8881290
 137.4626500  67.6964690 122.6114840 140.5007480  66.4117190 107.4372960
 140.2148990  65.9982330 106.6227140 140.3027030  67.3404900 107.3173480
 125.0631090  59.6836280 122.3232280 125.5670110  59.1043560 122.8948510
 124.3238510  59.9676510 122.8608650 131.9654710  62.4050470 105.8778570
 131.8605350  61.7902820 106.6039950 131.7978930  61.8816360 105.0941580
 132.1169030  61.0907270 121.8567800 131.3514700  61.6592270 121.7722470
 132.2984990  60.7983480 120.9636030 135.2057440  61.4670500 106.4820560
 134.6567540  61.9139800 107.1263300 135.8276700  60.9619750 107.0058230
 139.2592380  62.8212600 122.4142820 140.0001850  63.1588360 121.9110280
 138.4965060  62.9904660 121.8612590 127.0954170  57.8265870 123.2182350
 127.1359510  57.5279740 124.1267580 127.9499670  58.2273480 123.0589870
 130.8732560  60.4261420 108.3785860 131.2948980  60.2601290 109.2217250
 130.9983400  59.6161650 107.8841000 129.0359980  56.4057970 121.1856840
 128.5056440  55.9148920 120.5580180 129.7048050  56.8342170 120.6514770
 133.3860200  59.4499030 105.6262960 133.9065860  58.7348050 105.2604110
 134.0328600  60.0884900 105.9263470 137.9338040  60.8727430 120.9498030
 138.3479060  61.0272510 121.7988450 136.9989040  60.9982650 121.1123810
 138.4060210  58.2123590 122.9537180 138.9880980  57.4575910 122.8657660
 138.5821980  58.7431030 122.1768660 129.5232280  53.3720340 121.2654130
 129.4289150  52.7541090 120.5405000 128.9429670  54.0986630 121.0384040
 132.2893720  51.9293580 118.2981520 131.8411020  51.9517840 117.4527070
 131.6558920  51.5312600 118.8951820 132.6953270  60.8247910 118.9193960
 133.1141380  61.6680640 118.7470200 131.7761900  60.9619950 118.6900740
 135.0317170  58.5564090 120.3031800 135.1513380  57.9605230 121.0426640
 135.8911170  58.5933780 119.8833100 137.3705070  59.1101280 118.8794310
 136.8440290  59.6343900 118.2759450 137.7136410  59.7428670 119.5104040
 129.7691460  56.4994650 105.3244020 129.5680520  55.6362010 105.6857360
 129.5983510  56.4128010 104.3865620 130.5460690  67.1300920 120.0351690
 130.0081780  67.8546980 119.7160390 130.7994650  66.6531260 119.2449030
 131.7985940  55.0985440 121.5607620 132.3885630  54.7901290 122.2485440
 130.9806180  54.6265190 121.7167520 136.6179370  54.7151250 121.7940640
 135.9294890  54.0532790 121.7290630 137.3385390  54.2689520 122.2389100
 137.2479770  51.3102880 107.8530900 137.5282060  50.4670780 108.2090320
 136.4745500  51.5425990 108.3669650 128.5674260  53.5995270 105.3121900
 128.8700160  53.6062700 104.4041050 129.3068850  53.2493130 105.8089560
 133.4022900  68.3652130 120.2938340 133.3281600  69.2687270 120.6010710
 132.5001740  68.0464030 120.2660410 131.7859190  52.5429890 106.2978100
 131.4381190  51.8653880 105.7180550 131.9871960  52.0819400 107.1121490
 133.9508230  67.5310640 107.9164700 134.8459020  67.8695610 107.9383460
 133.9825860  66.8090050 107.2888980 129.4012110  64.0235730 111.2573930
 129.1007650  63.9000700 112.1577840 129.2949600  63.1644320 110.8489660
 125.2940400  66.5597310 116.3353590 124.8571390  66.7398110 117.1677740
 125.8618080  67.3171930 116.1935310 140.9302580  66.0614310 120.6230900
 140.3304570  66.1206870 119.8794820 141.0596480  65.1219290 120.7527750
 142.1704030  63.8032130 105.9600610 141.3396990  63.8708780 106.4307840
 142.3475860  64.6936250 105.6567470 141.6260490  60.5479610 108.4634810
 142.3879400  61.1176260 108.5694500 141.6414860  59.9806810 109.2343120
 142.6320460  61.4029710 113.3076740 143.0029290  60.6197030 112.9012710
 143.2722390  62.0918810 113.1294040 139.6154220  62.7866290 118.7207060
 138.8014060  63.2163450 118.9832850 140.0228420  63.3984700 118.1076110
 141.6779660  60.8413980 105.6207330 141.9528500  61.7492860 105.4926550
 141.4890400  60.7776510 106.5569320 138.0755270  53.8658830 106.9160960
 138.4940150  53.6789810 106.0757620 137.7691330  53.0137880 107.2263890
 141.5745000  58.7782970 110.6136760 141.1988600  58.0110900 110.1818050
 140.8448120  59.1605670 111.1011690 126.1640760  59.4570110 117.2345810
 126.5313800  59.3697510 118.1141830 125.5951580  58.6936660 117.1352670
 140.9644620  57.9254490 120.2476280 140.7330710  57.6967240 119.3474230
 141.2249170  58.8454040 120.2021170 125.7156760  56.3679200 121.1404230
 124.8212810  56.3345960 121.4797940 126.2554310  56.5665990 121.9055480
 139.4032690  53.1510920 123.0255980 140.2802870  53.1594320 123.4089980
 139.4153530  52.4141760 122.4148330 140.8495960  57.0040460 113.9144000
 141.3733440  56.5103110 113.2834170 141.4355380  57.1390820 114.6591570
 141.0285680  57.0880330 117.4363550 140.0788390  57.0543870 117.5508540
 141.2098690  57.9980440 117.2013320 126.8830120  55.3382010 106.5462180
 127.5921820  54.9165230 106.0609460 126.1670060  55.4057240 105.9145530
 140.3395930  56.2613810 109.8536410 140.8355050  56.0284680 110.6385290
 140.1412000  55.4225650 109.4374050 126.2196470  50.6427530 115.4887450
 126.8672660  50.0924910 115.0482610 126.6398310  50.8970680 116.3103260
 141.7683090  54.8974760 112.3874090 141.6582370  54.7430800 113.3256360
 142.5290680  54.3695700 112.1449500 140.1148810  50.8368890 118.8457090
 140.7521030  51.4503030 119.2116280 140.2623700  50.8729550 117.9006320
 142.6573360  52.7282680 105.6280230 143.5822670  52.5963860 105.4198520
 142.6349150  52.8075500 106.5816680 142.7311850  53.4993340 108.2536940
 141.9363350  53.4338460 108.7829850 142.9355130  54.4343980 108.2422290
 139.6730270  67.5384890 112.2475330 140.2689340  67.2169460 111.5709750
 139.9308420  67.0656710 113.0388600 125.9728470  50.7983200 118.2312770
 125.6243290  51.2547020 118.9970950 125.6416170  49.9040330 118.3135200
 127.5792840  63.9702800 122.3965960 127.5362470  63.5995710 123.2780420
 127.7103850  64.9080370 122.5367780 131.2798870  65.5262390 117.9975680
 131.0390230  65.7936950 117.1106200 132.2201510  65.6968120 118.0526540
 133.4853290  51.9895080 121.7532190 133.4242180  52.5816910 122.5027600
 134.4253670  51.8821040 121.6082450 136.1227850  51.6465140 121.3924480
 136.7368260  51.9644430 120.7305560 136.6677410  51.1613730 122.0120340
 142.5403030  67.5456770 118.7986320 142.0461310  67.9425640 118.0813450
 141.9316320  66.9205980 119.1923600 126.6449110  50.3259400 121.5063540
 127.1932100  50.1447450 120.7429650 126.7104420  49.5353510 122.0419850
 127.4180870  66.9165050 119.5163740 126.8241190  66.7849750 120.2553780
 127.4104710  66.0803190 119.0505840 136.8635890  50.2097280 117.7193770
 135.9895730  50.5432390 117.5166700 136.7546640  49.7370460 118.5445640
 137.7707870  52.4168150 119.1035490 137.4421230  51.6019910 118.7237220
 138.7190170  52.3737960 118.9801180 140.2242480  68.1880190 116.0773060
 139.7645450  68.9396000 115.7031080 139.5954940  67.4686660 116.0187860
 127.0493100  64.2823430 118.4671780 126.3227160  63.6628720 118.3997730
 127.1102250  64.6764040 117.5969860 130.6538200  66.4968430 115.2521190
 131.1703220  65.8855790 114.7269450 131.3035580  66.9997210 115.7432200
 133.3933700  67.3876920 116.0790170 133.6811510  67.1331220 115.2023180
 133.9056920  66.8354280 116.6695740 134.6110710  51.1267120 116.6586680
 133.8282500  51.6012620 116.9383440 134.3173640  50.2221950 116.5499860
 139.1631780  51.8290220 114.7035770 139.6039870  51.7735320 113.8557370
 138.8939370  52.7448230 114.7745950 141.0270350  51.4605460 112.7144590
 140.9658750  50.5166680 112.5675610 141.8062380  51.5685550 113.2598050
 125.9551120  51.4314600 109.1800400 126.7130480  51.5443480 108.6064430
 125.4928290  52.2683800 109.1343830 132.4964930  53.5453870 112.1702710
 131.6839440  53.1710760 111.8298590 133.0006570  52.7898950 112.4723900
 136.9989910  50.2096320 113.4085780 137.6019280  50.7816530 113.8834300
 136.2582900  50.7735760 113.1859680 140.1424510  50.6117880 108.6826060
 140.3375140  51.5101330 108.9493490 139.3554380  50.3804960 109.1759010
 128.3276270  51.9578650 107.7202370 128.8569030  51.1708450 107.5910320
 128.9604590  52.6369840 107.9537900 130.5214110  51.6953790 110.7747760
 129.8916850  50.9941100 110.9417890 129.9819250  52.4557920 110.5580920
 133.4606060  68.3093020 123.4458370 134.3873370  68.0737290 123.4894330
 133.4456490  69.1365020 122.9644400 141.6951120  67.8518590 110.4432620
 141.8703310  67.1656330 109.7993540 140.9972690  68.3765640 110.0509290
 130.6469670  50.9737770 123.2100250 130.3653940  51.4771370 122.4461070
 131.0289370  50.1759520 122.8442380 128.6993560  64.3578160 108.0014260
 128.0702440  64.8263260 108.5500090 128.8141390  63.5127380 108.4360450
 137.2485130  50.3891350 123.7880720 137.1350580  50.7085960 124.6832240
 138.0654870  50.7903860 123.4918000 140.0283620  67.5362880 123.2699410
 140.8208940  67.0412110 123.0625370 140.3216770  68.2153020 123.8775020
 128.3027150  60.4982650  96.9100490 127.4712030  60.2431360  97.3097000
 128.9108130  60.5693420  97.6458410 138.3068750  64.5923030  94.8123860
 137.8450280  63.8210270  95.1411030 139.1194300  64.6189100  95.3176310
 128.2828410  64.5322740  97.1058510 128.5856450  63.6420480  96.9268730
 129.0272000  65.0892960  96.8780760 126.7119100  55.4584540  90.6942880
 125.8235800  55.8000510  90.5922760 126.9960290  55.2584860  89.8023710
 134.5332060  66.8781040  94.4327850 133.9143500  67.3338540  93.8622290
 135.3883840  67.0332500  94.0317550 133.7270310  62.8620030  96.0394890
 133.6578590  61.9209970  95.8784020 134.4890170  62.9521440  96.6117460
 128.8880490  54.0416040  91.7281260 128.9947240  54.9419770  92.0350020
 127.9772850  53.9934010  91.4375910 142.8299150  55.1807600  99.7635790
 142.1251320  55.5689310  99.2450900 143.0957070  55.8757890 100.3656720
 130.2627170  61.2896150  98.5043360 129.9296550  61.9165070  99.1464430
 130.4393850  61.8158030  97.7245030 138.7761080  55.1041230  95.9719700
 138.0716650  55.3926120  96.5522810 139.1373240  55.9141340  95.6119260
 129.4746270  63.2576950 100.3192540 130.0920270  63.9328030 100.0376990
 128.6139390  63.6664930 100.2280040 140.3923860  64.7216360  98.2347180
 139.7087380  65.3915470  98.2263850 140.9318150  64.9197010  97.4692040
 141.8448000  54.5496020  96.3628910 140.8972910  54.5835000  96.4944340
 142.1697990  55.3634970  96.7478270 137.9282600  66.5660490  96.9492360
 137.9409760  66.1622780  96.0814620 137.3757820  67.3407780  96.8453790
 137.3268040  61.4690330  98.2774970 137.7436830  61.2550440  97.4428430
 138.0507860  61.7263120  98.8483590 134.7517380  55.1859030  88.3912180
 133.8121050  55.3472990  88.4764640 135.0700640  55.9044710  87.8448170
 141.2730140  59.8677550  98.3691210 140.4448770  59.9370640  97.8941340
 141.8680620  60.4531860  97.9007040 138.2372150  56.6546870  99.3146080
 137.8243330  57.4800580  99.5686070 137.5048100  56.0691910  99.1222440
 130.8386640  63.1274330  96.3403960 130.5414930  62.5219800  95.6611740
 131.7886460  63.1651640  96.2293320 138.9272250  66.7006200 100.0027060
 138.4502810  67.5078390  99.8099670 138.2434040  66.0484530 100.1553270
 129.9305070  62.8656020 102.9911760 129.0333600  63.0895990 103.2385160
 129.9557940  62.9890960 102.0423160 128.7576290  59.7369340 101.5669130
 128.6184060  60.6092140 101.9356530 127.8757650  59.3942150 101.4217070
 135.0805670  64.6545210  92.8734260 135.5201580  65.3969540  92.4589650
 135.0192560  64.8971780  93.7973220 130.5556640  65.6791040 103.7754280
 130.5272070  66.0833990 102.9082710 130.3921610  64.7501400 103.6125880
 140.5527430  50.9691950  87.2194060 140.2400090  51.0618780  88.1193130
 141.3139900  51.5472980  87.1691490 142.5071460  66.4618140 105.0718450
 142.9831180  66.9401030 105.7507530 143.1278620  66.3935630 104.3463950
 124.7094940  61.5066890  97.4840040 124.7875360  61.6415660  96.5395760
 125.3236620  60.7982780  97.6768160 125.9542570  63.2067080  93.8946220
 125.5470650  63.3481670  93.0399820 126.8455580  62.9227240  93.6917430
 141.9104710  63.6530990 102.2318460 142.0367770  63.4142870 101.3135640
 141.9526090  62.8215530 102.7040540 135.7721450  67.3558990 100.8013270
 136.2866120  67.2667000 101.6035700 134.9290530  67.7018690 101.0941180
 137.7475850  67.6414330  90.2297270 137.5876990  67.3517270  91.1279100
 137.5822560  66.8654460  89.6942500 137.0151910  66.7764600  92.8643760
 137.4708860  65.9953980  93.1782380 137.3544430  67.4871420  93.4084940
 141.7628720  55.7063450 103.1968200 141.1472990  56.2143120 102.6683660
 141.4425140  54.8061780 103.1394140 138.8247550  55.7664290 101.7927050
 137.9741140  55.4670040 102.1136120 138.6649340  56.0106300 100.8810870
 135.9197260  57.2666040 103.8925840 136.2450670  56.4329790 103.5528070
 136.7077590  57.7894560 104.0404170 131.7686660  57.7005970 103.4536590
 131.6730260  56.7600700 103.3036990 132.6118640  57.9221040 103.0584660
 126.8997200  54.1119640 101.6070370 126.5060590  54.9594850 101.8143150
 126.2115600  53.4746010 101.7979010 133.4742250  54.1954610 104.6767110
 132.7840570  54.0026810 105.3113200 134.2174550  54.4789250 105.2091410
 124.3884480  55.9768220  86.8503170 124.3059150  56.9198980  86.9918160
 124.0367540  55.8343130  85.9715520 132.2502760  55.7119330  88.9080280
 132.3715580  55.6705810  89.8566100 131.8651270  56.5743480  88.7527010
 131.2624260  58.0220470  88.3063580 130.6941160  57.5738720  87.6799490
 131.9713260  58.3813250  87.7728730 139.6401880  50.9018910 102.7630350
 139.9647650  50.1708570 103.2888330 139.6758390  50.5832550 101.8611340
 128.8071740  62.0178660  90.5789990 128.0334000  61.4776280  90.4188710
 129.5366370  61.4985270  90.2407750 139.5659720  61.0144020  96.3716380
 140.2858840  61.5099310  95.9812490 139.3641540  60.3361910  95.7270250
 134.9478520  61.0853080 102.2585380 134.8815830  60.1648750 102.0042970
 134.3183660  61.1828520 102.9730020 128.8509140  61.6859040  94.2168800
 129.3687810  60.8827300  94.1625690 128.3993160  61.6238180  95.0585630
 126.3353680  58.6520410 101.1294500 125.9768620  59.3174260 101.7167840
 126.0408240  57.8203960 101.5007120 129.5366800  59.1104650 104.0134050
 129.2366940  59.2561830 103.1161870 130.3078040  58.5509940 103.9207440
 134.8795250  63.9073650 102.0089180 134.8939790  62.9754610 101.7908090
 134.1720350  63.9933410 102.6478950 141.0906460  60.5480990 101.3557760
 140.3654650  61.1409770 101.1587150 141.6181920  60.5404530 100.5571130
 136.6206050  62.2741160  94.8541610 136.9729870  61.6769290  94.1942980
 135.7368380  61.9485390  95.0249860 132.7069330  63.0338850  92.2612020
 133.3940460  63.5808060  92.6419610 131.9201750  63.5779580  92.2961630
 134.3129150  65.5491220  99.1029680 134.9571370  65.7550600  99.7803100
 134.6758590  64.7879620  98.6500530 135.5861230  63.5523570  97.8207130
 136.2283460  62.8516730  97.9339300 136.1110580  64.3322010  97.6404020
 137.3598850  64.3518470 101.0243190 137.6955090  64.9385160 101.7021110
 136.4399190  64.2211180 101.2540980 133.1887430  64.4009800 104.1931250
 132.8684300  63.6819040 104.7376940 132.5145790  65.0764870 104.2667310
 139.7703060  53.5892900  90.3655610 139.1416220  53.6938570  89.6513840
 139.2754980  53.8089680  91.1549490 129.9422110  54.1763930  89.1564200
 130.7912640  54.6134080  89.0904390 129.5753380  54.4884190  89.9836260
 140.5709880  53.5043510 100.6234410 140.0683480  54.2448910 100.9628220
 141.3866540  53.8927510 100.3071200 138.8631890  58.7476690  94.0695770
 137.9222030  58.7626920  94.2443460 139.1775960  57.9612650  94.5156070
 128.8413530  60.4296290  87.6299730 129.6076800  60.3177650  88.1925160
 128.9188220  59.7334260  86.9776500 140.8657470  65.9185540  95.7450030
 140.9904890  66.7416710  96.2173840 141.7323030  65.7076270  95.3974180
 136.1797910  63.3042690 104.5528150 135.5736070  63.3274290 103.8123900
 135.8752020  62.5725730 105.0895400 137.6098280  67.0322980 103.1637560
 138.5620030  66.9481000 103.1137800 137.4626500  67.6964690 103.8371350
 125.0631090  59.6836280 103.5488790 125.5670110  59.1043560 104.1205020
 124.3238510  59.9676510 104.0865160 131.9654710  62.4050470  87.1035080
 131.8605350  61.7902820  87.8296460 131.7978930  61.8816360  86.3198090
 132.1169030  61.0907270 103.0824310 131.3514700  61.6592270 102.9978980
 132.2984990  60.7983480 102.1892540 139.2592380  62.8212600 103.6399330
 140.0001850  63.1588360 103.1366790 138.4965060  62.9904660 103.0869100
 127.0954170  57.8265870 104.4438860 127.1359510  57.5279740 105.3524090
 127.9499670  58.2273480 104.2846380 130.8732560  60.4261420  89.6042370
 131.2948980  60.2601290  90.4473760 130.9983400  59.6161650  89.1097510
 129.0359980  56.4057970 102.4113350 128.5056440  55.9148920 101.7836690
 129.7048050  56.8342170 101.8771280 137.9338040  60.8727430 102.1754540
 138.3479060  61.0272510 103.0244960 136.9989040  60.9982650 102.3380320
 138.4060210  58.2123590 104.1793690 138.9880980  57.4575910 104.0914170
 138.5821980  58.7431030 103.4025170 132.6953270  60.8247910 100.1450470
 133.1141380  61.6680640  99.9726710 131.7761900  60.9619950  99.9157250
 135.0317170  58.5564090 101.5288310 135.1513380  57.9605230 102.2683150
 135.8911170  58.5933780 101.1089610 137.3705070  59.1101280 100.1050820
 136.8440290  59.6343900  99.5015960 137.7136410  59.7428670 100.7360550
 129.7691460  56.4994650  86.5500530 129.5680520  55.6362010  86.9113870
 129.5983510  56.4128010  85.6122130 130.5460690  67.1300920 101.2608200
 130.0081780  67.8546980 100.9416900 130.7994650  66.6531260 100.4705540
 136.6179370  54.7151250 103.0197150 135.9294890  54.0532790 102.9547140
 137.3385390  54.2689520 103.4645610 128.5674260  53.5995270  86.5378410
 128.8700160  53.6062700  85.6297560 129.3068850  53.2493130  87.0346070
 133.4022900  68.3652130 101.5194850 133.3281600  69.2687270 101.8267220
 132.5001740  68.0464030 101.4916920 131.7859190  52.5429890  87.5234610
 131.4381190  51.8653880  86.9437060 131.9871960  52.0819400  88.3378000
 127.5904390  62.9037690  87.3708210 128.0279260  63.4467360  88.0265790
 128.0752120  62.0784640  87.3804550 124.8050190  65.6926720  94.8228470
 125.1353200  64.8247780  94.5907110 125.2341190  65.8985240  95.6533430
 129.4012110  64.0235730  92.4830440 129.1007650  63.9000700  93.3834350
 129.2949600  63.1644320  92.0746170 125.2940400  66.5597310  97.5610100
 124.8571390  66.7398110  98.3934250 125.8618080  67.3171930  97.4191820
 140.9302580  66.0614310 101.8487410 140.3304570  66.1206870 101.1051330
 141.0596480  65.1219290 101.9784260 142.6320460  61.4029710  94.5333250
 143.0029290  60.6197030  94.1269220 143.2722390  62.0918810  94.3550550
 139.6154220  62.7866290  99.9463570 138.8014060  63.2163450 100.2089360
 140.0228420  63.3984700  99.3332620 138.0755270  53.8658830  88.1417470
 138.4940150  53.6789810  87.3014130 137.7691330  53.0137880  88.4520400
 141.5745000  58.7782970  91.8393270 141.1988600  58.0110900  91.4074560
 140.8448120  59.1605670  92.3268200 140.9644620  57.9254490 101.4732790
 140.7330710  57.6967240 100.5730740 141.2249170  58.8454040 101.4277680
 125.7156760  56.3679200 102.3660740 124.8212810  56.3345960 102.7054450
 126.2554310  56.5665990 103.1311990 139.4032690  53.1510920 104.2512490
 140.2802870  53.1594320 104.6346490 139.4153530  52.4141760 103.6404840
 140.8495960  57.0040460  95.1400510 141.3733440  56.5103110  94.5090680
 141.4355380  57.1390820  95.8848080 141.0285680  57.0880330  98.6620060
 140.0788390  57.0543870  98.7765050 141.2098690  57.9980440  98.4269830
 126.8830120  55.3382010  87.7718690 127.5921820  54.9165230  87.2865970
 126.1670060  55.4057240  87.1402040 126.5304280  51.3921340  86.8121340
 127.2532410  51.9330280  87.1302560 126.8028800  51.1184760  85.9362880
 140.3395930  56.2613810  91.0792920 140.8355050  56.0284680  91.8641800
 140.1412000  55.4225650  90.6630560 126.2196470  50.6427530  96.7143960
 126.8672660  50.0924910  96.2739120 126.6398310  50.8970680  97.5359770
 141.7683090  54.8974760  93.6130600 141.6582370  54.7430800  94.5512870
 142.5290680  54.3695700  93.3706010 140.1148810  50.8368890 100.0713600
 140.7521030  51.4503030 100.4372790 140.2623700  50.8729550  99.1262830
 142.6573360  52.7282680  86.8536740 143.5822670  52.5963860  86.6455030
 142.6349150  52.8075500  87.8073190 142.7311850  53.4993340  89.4793450
 141.9363350  53.4338460  90.0086360 142.9355130  54.4343980  89.4678800
 139.6730270  67.5384890  93.4731840 140.2689340  67.2169460  92.7966260
 139.9308420  67.0656710  94.2645110 125.9728470  50.7983200  99.4569280
 125.6243290  51.2547020 100.2227460 125.6416170  49.9040330  99.5391710
 131.2798870  65.5262390  99.2232190 131.0390230  65.7936950  98.3362710
 132.2201510  65.6968120  99.2783050 136.1227850  51.6465140 102.6180990
 136.7368260  51.9644430 101.9562070 136.6677410  51.1613730 103.2376850
 142.5403030  67.5456770 100.0242830 142.0461310  67.9425640  99.3069960
 141.9316320  66.9205980 100.4180110 126.6449110  50.3259400 102.7320050
 127.1932100  50.1447450 101.9686160 126.7104420  49.5353510 103.2676360
 136.8635890  50.2097280  98.9450280 135.9895730  50.5432390  98.7423210
 136.7546640  49.7370460  99.7702150 137.7707870  52.4168150 100.3292000
 137.4421230  51.6019910  99.9493730 138.7190170  52.3737960 100.2057690
 140.2242480  68.1880190  97.3029570 139.7645450  68.9396000  96.9287590
 139.5954940  67.4686660  97.2444370 130.6538200  66.4968430  96.4777700
 131.1703220  65.8855790  95.9525960 131.3035580  66.9997210  96.9688710
 133.3933700  67.3876920  97.3046680 133.6811510  67.1331220  96.4279690
 133.9056920  66.8354280  97.8952250 139.1631780  51.8290220  95.9292280
 139.6039870  51.7735320  95.0813880 138.8939370  52.7448230  96.0002460
 141.0270350  51.4605460  93.9401100 140.9658750  50.5166680  93.7932120
 141.8062380  51.5685550  94.4854560 140.1424510  50.6117880  89.9082570
 140.3375140  51.5101330  90.1750000 139.3554380  50.3804960  90.4015520
 128.3276270  51.9578650  88.9458880 128.8569030  51.1708450  88.8166830
 128.9604590  52.6369840  89.1794410 133.4606060  68.3093020 104.6714880
 134.3873370  68.0737290 104.7150840 133.4456490  69.1365020 104.1900910
 141.6951120  67.8518590  91.6689130 141.8703310  67.1656330  91.0250050
 140.9972690  68.3765640  91.2765800 130.6469670  50.9737770 104.4356760
 130.3653940  51.4771370 103.6717580 131.0289370  50.1759520 104.0698890
 128.6993560  64.3578160  89.2270770 128.0702440  64.8263260  89.7756600
 128.8141390  63.5127380  89.6616960 137.2485130  50.3891350 105.0137230
 137.1350580  50.7085960 105.9088750 138.0654870  50.7903860 104.7174510
 140.0283620  67.5362880 104.4955920 140.8208940  67.0412110 104.2881880
 140.3216770  68.2153020 105.1031530 124.6752110  58.0590190  77.8039090
 125.2468220  57.2912390  77.8042730 124.6753650  58.3578950  76.8945700
 134.5332060  66.8781040  75.6584360 133.9143500  67.3338540  75.0878800
 135.3883840  67.0332500  75.2574060 125.9176980  53.4674550  79.5908020
 125.7379820  52.5700300  79.8710780 125.5157060  54.0146420  80.2654970
 126.5363650  55.9635050  78.1990360 127.2173760  56.2273420  78.8177760
 126.2211700  55.1235920  78.5328370 142.8299150  55.1807600  80.9892300
 142.1251320  55.5689310  80.4707410 143.0957070  55.8757890  81.5913230
 135.3995410  61.7620280  73.0516270 134.7812680  62.2269730  72.4878990
 135.9118660  62.4547760  73.4685780 130.2627170  61.2896150  79.7299870
 129.9296550  61.9165070  80.3720940 130.4393850  61.8158030  78.9501540
 128.6939650  53.3610930  79.5596820 129.0356460  54.2052980  79.2650690
 127.7555460  53.5094670  79.6762160 124.7678610  62.4476810  70.4255900
 124.3906590  62.9363910  69.6940800 125.0251680  63.1202090  71.0562430
 141.8448000  54.5496020  77.5885420 140.8972910  54.5835000  77.7200850
 142.1697990  55.3634970  77.9734780 130.8386640  63.1274330  77.5660470
 130.5414930  62.5219800  76.8868250 131.7886460  63.1651640  77.4549830
 129.0833560  56.2149980  79.1820300 129.6348150  56.3245320  78.4073550
 129.5977070  56.5887580  79.8975530 129.9305070  62.8656020  84.2168270
 129.0333600  63.0895990  84.4641670 129.9557940  62.9890960  83.2679670
 135.0805670  64.6545210  74.0990770 135.5201580  65.3969540  73.6846160
 135.0192560  64.8971780  75.0229730 140.5527430  50.9691950  68.4450570
 140.2400090  51.0618780  69.3449640 141.3139900  51.5472980  68.3948000
 142.5071460  66.4618140  86.2974960 142.9831180  66.9401030  86.9764040
 143.1278620  66.3935630  85.5720460 125.9542570  63.2067080  75.1202730
 125.5470650  63.3481670  74.2656330 126.8455580  62.9227240  74.9173940
 137.7475850  67.6414330  71.4553780 137.5876990  67.3517270  72.3535610
 137.5822560  66.8654460  70.9199010 137.4501980  65.1501890  70.0151780
 136.7567140  65.1479180  69.3554060 138.1924840  64.7261210  69.5845950
 137.0151910  66.7764600  74.0900270 137.4708860  65.9953980  74.4038890
 137.3544430  67.4871420  74.6341450 141.7628720  55.7063450  84.4224710
 141.1472990  56.2143120  83.8940170 141.4425140  54.8061780  84.3650650
 129.5373230  51.6786820  76.2851580 129.0941380  52.4596360  75.9536100
 130.0958220  52.0016710  76.9922520 133.8243040  54.5455340  81.8886900
 133.3622410  54.7538360  82.7006840 133.4221150  53.7314690  81.5857570
 138.8247550  55.7664290  83.0183560 137.9741140  55.4670040  83.3392630
 138.6649340  56.0106300  82.1067380 135.9197260  57.2666040  85.1182350
 136.2450670  56.4329790  84.7784580 136.7077590  57.7894560  85.2660680
 131.7686660  57.7005970  84.6793100 131.6730260  56.7600700  84.5293500
 132.6118640  57.9221040  84.2841170 126.8997200  54.1119640  82.8326880
 126.5060590  54.9594850  83.0399660 126.2115600  53.4746010  83.0235520
 133.4742250  54.1954610  85.9023620 132.7840570  54.0026810  86.5369710
 134.2174550  54.4789250  86.4347920 124.2014250  52.0348100  76.8656960
 123.9127300  52.6050960  77.5781940 124.9460010  51.5552550  77.2288190
 124.3884480  55.9768220  68.0759680 124.3059150  56.9198980  68.2174670
 124.0367540  55.8343130  67.1972030 128.0384990  54.5933740  76.1024240
 127.6985040  55.0708970  76.8591290 127.2762310  54.1398860  75.7425340
 139.6401880  50.9018910  83.9886860 139.9647650  50.1708570  84.5144840
 139.6758390  50.5832550  83.0867850 125.3531070  53.5152720  75.0188910
 125.0677990  53.1508390  75.8567530 125.2909930  52.7833180  74.4052050
 130.2789950  57.8117670  81.2079650 129.9747020  58.6909650  81.4330010
 131.2336410  57.8717460  81.2437090 128.8509140  61.6859040  75.4425310
 129.3687810  60.8827300  75.3882200 128.3993160  61.6238180  76.2842140
 133.7378640  62.9525320  70.7152610 134.0794340  63.6967550  70.2195930
 132.9091350  63.2656440  71.0777440 129.5366800  59.1104650  85.2390560
 129.2366940  59.2561830  84.3418380 130.3078040  58.5509940  85.1463950
 140.0132320  58.0913470  69.5044300 139.9296040  58.5227690  68.6540740
 140.7326510  58.5511820  69.9371120 141.0419570  64.9455730  72.2326430
 140.3995730  64.2911350  72.5070150 140.6550230  65.3510820  71.4567100
 132.7069330  63.0338850  73.4868530 133.3940460  63.5808060  73.8676120
 131.9201750  63.5779580  73.5218140 127.9108320  50.3822530  73.5716410
 127.7822950  50.3740430  74.5201330 127.0870340  50.7205620  73.2207420
 139.4316950  63.8372190  68.7702780 139.2054530  63.1202630  69.3627420
 139.0413150  63.5884630  67.9324530 124.9102250  52.1413650  83.0323110
 124.1960770  52.3410570  83.6375720 125.3297290  51.3653220  83.4037910
 139.0133200  61.7544130  70.4316940 138.7254900  62.2156820  71.2194820
 139.8085370  61.2941900  70.7001160 125.1974840  66.1293910  84.0189640
 125.3065960  65.1888650  83.8785030 124.5455400  66.3948660  83.3703370
 139.7703060  53.5892900  71.5912120 139.1416220  53.6938570  70.8770350
 139.2754980  53.8089680  72.3806000 140.5709880  53.5043510  81.8490920
 140.0683480  54.2448910  82.1884730 141.3866540  53.8927510  81.5327710
 140.5007480  66.4117190  69.8885980 140.2148990  65.9982330  69.0740160
 140.3027030  67.3404900  69.7686500 131.9654710  62.4050470  68.3291590
 131.8605350  61.7902820  69.0552970 131.7978930  61.8816360  67.5454600
 132.1169030  61.0907270  84.3080820 131.3514700  61.6592270  84.2235490
 132.2984990  60.7983480  83.4149050 127.0954170  57.8265870  85.6695370
 127.1359510  57.5279740  86.5780600 127.9499670  58.2273480  85.5102890
 129.0359980  56.4057970  83.6369860 128.5056440  55.9148920  83.0093200
 129.7048050  56.8342170  83.1027790 130.5460690  67.1300920  82.4864710
 130.0081780  67.8546980  82.1673410 130.7994650  66.6531260  81.6962050
 131.7985940  55.0985440  84.0120640 132.3885630  54.7901290  84.6998460
 130.9806180  54.6265190  84.1680540 136.6179370  54.7151250  84.2453660
 135.9294890  54.0532790  84.1803650 137.3385390  54.2689520  84.6902120
 128.5674260  53.5995270  67.7634920 128.8700160  53.6062700  66.8554070
 129.3068850  53.2493130  68.2602580 127.5904390  62.9037690  68.5964720
 128.0279260  63.4467360  69.2522300 128.0752120  62.0784640  68.6061060
 124.8050190  65.6926720  76.0484980 125.1353200  64.8247780  75.8163620
 125.2341190  65.8985240  76.8789940 140.9302580  66.0614310  83.0743920
 140.3304570  66.1206870  82.3307840 141.0596480  65.1219290  83.2040770
 142.1704030  63.8032130  68.4113630 141.3396990  63.8708780  68.8820860
 142.3475860  64.6936250  68.1080490 141.6260490  60.5479610  70.9147830
 142.3879400  61.1176260  71.0207520 141.6414860  59.9806810  71.6856140
 141.6779660  60.8413980  68.0720350 141.9528500  61.7492860  67.9439570
 141.4890400  60.7776510  69.0082340 141.5745000  58.7782970  73.0649780
 141.1988600  58.0110900  72.6331070 140.8448120  59.1605670  73.5524710
 125.7156760  56.3679200  83.5917250 124.8212810  56.3345960  83.9310960
 126.2554310  56.5665990  84.3568500 139.4032690  53.1510920  85.4769000
 140.2802870  53.1594320  85.8603000 139.4153530  52.4141760  84.8661350
 140.8495960  57.0040460  76.3657020 141.3733440  56.5103110  75.7347190
 141.4355380  57.1390820  77.1104590 141.0285680  57.0880330  79.8876570
 140.0788390  57.0543870  80.0021560 141.2098690  57.9980440  79.6526340
 126.5304280  51.3921340  68.0377850 127.2532410  51.9330280  68.3559070
 126.8028800  51.1184760  67.1619390 140.3395930  56.2613810  72.3049430
 140.8355050  56.0284680  73.0898310 140.1412000  55.4225650  71.8887070
 126.2196470  50.6427530  77.9400470 126.8672660  50.0924910  77.4995630
 126.6398310  50.8970680  78.7616280 141.7683090  54.8974760  74.8387110
 141.6582370  54.7430800  75.7769380 142.5290680  54.3695700  74.5962520
 140.1148810  50.8368890  81.2970110 140.7521030  51.4503030  81.6629300
 140.2623700  50.8729550  80.3519340 142.6573360  52.7282680  68.0793250
 143.5822670  52.5963860  67.8711540 142.6349150  52.8075500  69.0329700
 142.7311850  53.4993340  70.7049960 141.9363350  53.4338460  71.2342870
 142.9355130  54.4343980  70.6935310 139.6730270  67.5384890  74.6988350
 140.2689340  67.2169460  74.0222770 139.9308420  67.0656710  75.4901620
 133.4853290  51.9895080  84.2045210 133.4242180  52.5816910  84.9540620
 134.4253670  51.8821040  84.0595470 136.1227850  51.6465140  83.8437500
 136.7368260  51.9644430  83.1818580 136.6677410  51.1613730  84.4633360
 142.5403030  67.5456770  81.2499340 142.0461310  67.9425640  80.5326470
 141.9316320  66.9205980  81.6436620 136.8635890  50.2097280  80.1706790
 135.9895730  50.5432390  79.9679720 136.7546640  49.7370460  80.9958660
 137.7707870  52.4168150  81.5548510 137.4421230  51.6019910  81.1750240
 138.7190170  52.3737960  81.4314200 140.2242480  68.1880190  78.5286080
 139.7645450  68.9396000  78.1544100 139.5954940  67.4686660  78.4700880
 130.6538200  66.4968430  77.7034210 131.1703220  65.8855790  77.1782470
 131.3035580  66.9997210  78.1945220 134.6110710  51.1267120  79.1099700
 133.8282500  51.6012620  79.3896460 134.3173640  50.2221950  79.0012880
 139.1631780  51.8290220  77.1548790 139.6039870  51.7735320  76.3070390
 138.8939370  52.7448230  77.2258970 141.0270350  51.4605460  75.1657610
 140.9658750  50.5166680  75.0188630 141.8062380  51.5685550  75.7111070
 125.9551120  51.4314600  71.6313420 126.7130480  51.5443480  71.0577450
 125.4928290  52.2683800  71.5856850 140.1424510  50.6117880  71.1339080
 140.3375140  51.5101330  71.4006510 139.3554380  50.3804960  71.6272030
 128.3276270  51.9578650  70.1715390 128.8569030  51.1708450  70.0423340
 128.9604590  52.6369840  70.4050920 141.6951120  67.8518590  72.8945640
 141.8703310  67.1656330  72.2506560 140.9972690  68.3765640  72.5022310
 137.2485130  50.3891350  86.2393740 137.1350580  50.7085960  87.1345260
 138.0654870  50.7903860  85.9431020 128.2828410  64.5322740  59.5571530
 128.5856450  63.6420480  59.3781750 129.0272000  65.0892960  59.3293780
 138.5399600  53.1640850  55.6505180 139.3609220  52.6737420  55.6930660
 138.5733680  53.7538510  56.4037020 142.8299150  55.1807600  62.2148810
 142.1251320  55.5689310  61.6963920 143.0957070  55.8757890  62.8169740
 138.7761080  55.1041230  58.4232720 138.0716650  55.3926120  59.0035830
 139.1373240  55.9141340  58.0632280 124.7678610  62.4476810  51.6512410
 124.3906590  62.9363910  50.9197310 125.0251680  63.1202090  52.2818940
 141.8448000  54.5496020  58.8141930 140.8972910  54.5835000  58.9457360
 142.1697990  55.3634970  59.1991290 132.3767540  50.8493200  57.1097920
 132.6842520  50.2940090  56.3933420 131.4468240  50.9837660  56.9270910
 134.7517380  55.1859030  50.8425200 133.8121050  55.3472990  50.9277660
 135.0700640  55.9044710  50.2961190 141.2730140  59.8677550  60.8204230
 140.4448770  59.9370640  60.3454360 141.8680620  60.4531860  60.3520060
 138.7945590  60.4762330  54.3493290 138.1758010  60.1381880  53.7019590
 138.7770040  59.8322090  55.0572480 138.2372150  56.6546870  61.7659100
 137.8243330  57.4800580  62.0199090 137.5048100  56.0691910  61.5735460
 138.9272250  66.7006200  62.4540080 138.4502810  67.5078390  62.2612690
 138.2434040  66.0484530  62.6066290 136.9710290  59.7149140  51.3566040
 137.4103570  58.8771570  51.2103860 137.6838710  60.3478540  51.4430180
 130.5556640  65.6791040  66.2267300 130.5272070  66.0833990  65.3595730
 130.3921610  64.7501400  66.0638900 140.5527430  50.9691950  49.6707080
 140.2400090  51.0618780  50.5706150 141.3139900  51.5472980  49.6204510
 142.5071460  66.4618140  67.5231470 142.9831180  66.9401030  68.2020550
 143.1278620  66.3935630  66.7976970 124.7094940  61.5066890  59.9353060
 124.7875360  61.6415660  58.9908780 125.3236620  60.7982780  60.1281180
 125.9542570  63.2067080  56.3459240 125.5470650  63.3481670  55.4912840
 126.8455580  62.9227240  56.1430450 141.9104710  63.6530990  64.6831480
 142.0367770  63.4142870  63.7648660 141.9526090  62.8215530  65.1553560
 135.7721450  67.3558990  63.2526290 136.2866120  67.2667000  64.0548720
 134.9290530  67.7018690  63.5454200 137.7475850  67.6414330  52.6810290
 137.5876990  67.3517270  53.5792120 137.5822560  66.8654460  52.1455520
 141.7628720  55.7063450  65.6481220 141.1472990  56.2143120  65.1196680
 141.4425140  54.8061780  65.5907160 129.5373230  51.6786820  57.5108090
 129.0941380  52.4596360  57.1792610 130.0958220  52.0016710  58.2179030
 138.8247550  55.7664290  64.2440070 137.9741140  55.4670040  64.5649140
 138.6649340  56.0106300  63.3323890 136.5585210  56.8083760  53.8379990
 135.9594100  57.5319560  53.6543610 137.1064820  56.7460540  53.0556440
 124.2014250  52.0348100  58.0913470 123.9127300  52.6050960  58.8038450
 124.9460010  51.5552550  58.4544700 136.2131130  53.4886730  59.3756990
 136.2303870  53.9395380  60.2198840 135.9646710  52.5892370  59.5890430
 139.6401880  50.9018910  65.2143370 139.9647650  50.1708570  65.7401350
 139.6758390  50.5832550  64.3124360 135.0269660  52.4081980  52.9658790
 134.2134270  51.9095150  52.8904100 134.8331610  53.2480230  52.5495140
 134.9478520  61.0853080  64.7098400 134.8815830  60.1648750  64.4555990
 134.3183660  61.1828520  65.4243040 137.7418050  56.7801630  51.2620950
 138.6297670  57.0918860  51.0872290 137.7123140  55.9073880  50.8701530
 134.8795250  63.9073650  64.4602200 134.8939790  62.9754610  64.2421110
 134.1720350  63.9933410  65.0991970 140.0132320  58.0913470  50.7300810
 139.9296040  58.5227690  49.8797250 140.7326510  58.5511820  51.1627630
 141.0906460  60.5480990  63.8070780 140.3654650  61.1409770  63.6100170
 141.6181920  60.5404530  63.0084150 141.0419570  64.9455730  53.4582940
 140.3995730  64.2911350  53.7326660 140.6550230  65.3510820  52.6823610
 139.4316950  63.8372190  49.9959290 139.2054530  63.1202630  50.5883930
 139.0413150  63.5884630  49.1581040 125.2132980  67.8639050  50.7703750
 125.5730620  68.4628390  50.1161020 125.0725320  68.4098940  51.5438780
 139.0133200  61.7544130  51.6573450 138.7254900  62.2156820  52.4451330
 139.8085370  61.2941900  51.9257670 125.1974840  66.1293910  65.2446150
 125.3065960  65.1888650  65.1041540 124.5455400  66.3948660  64.5959880
 133.1887430  64.4009800  66.6444270 132.8684300  63.6819040  67.1889960
 132.5145790  65.0764870  66.7180330 136.4041030  54.6335960  62.0081070
 136.7721850  53.8131170  62.3360640 135.5439230  54.6937850  62.4236720
 139.7703060  53.5892900  52.8168630 139.1416220  53.6938570  52.1026860
 139.2754980  53.8089680  53.6062510 135.7702520  52.5929510  55.6722300
 135.6470300  52.6115640  54.7231810 136.7187080  52.6408450  55.7920700
 140.5709880  53.5043510  63.0747430 140.0683480  54.2448910  63.4141240
 141.3866540  53.8927510  62.7584220 138.8631890  58.7476690  56.5208790
 137.9222030  58.7626920  56.6956480 139.1775960  57.9612650  56.9669090
 125.2220480  64.0790320  53.7421690 124.2960260  64.3211460  53.7327100
 125.6876910  64.9064580  53.6206440 131.4477310  67.1847060  49.6905750
 132.2405920  67.4735890  49.2387540 130.9281660  66.7539230  49.0118230
 136.1797910  63.3042690  67.0041170 135.5736070  63.3274290  66.2636920
 135.8752020  62.5725730  67.5408420 137.6098280  67.0322980  65.6150580
 138.5620030  66.9481000  65.5650820 137.4626500  67.6964690  66.2884370
 140.5007480  66.4117190  51.1142490 140.2148990  65.9982330  50.2996670
 140.3027030  67.3404900  50.9943010 131.9654710  62.4050470  49.5548100
 131.8605350  61.7902820  50.2809480 131.7978930  61.8816360  48.7711110
 132.1169030  61.0907270  65.5337330 131.3514700  61.6592270  65.4492000
 132.2984990  60.7983480  64.6405560 135.2057440  61.4670500  50.1590090
 134.6567540  61.9139800  50.8032830 135.8276700  60.9619750  50.6827760
 139.2592380  62.8212600  66.0912350 140.0001850  63.1588360  65.5879810
 138.4965060  62.9904660  65.5382120 137.9338040  60.8727430  64.6267560
 138.3479060  61.0272510  65.4757980 136.9989040  60.9982650  64.7893340
 137.3705070  59.1101280  62.5563840 136.8440290  59.6343900  61.9528980
 137.7136410  59.7428670  63.1873570 130.5460690  67.1300920  63.7121220
 130.0081780  67.8546980  63.3929920 130.7994650  66.6531260  62.9218560
 137.2479770  51.3102880  51.5300430 137.5282060  50.4670780  51.8859850
 136.4745500  51.5425990  52.0439180 133.4022900  68.3652130  63.9707870
 133.3281600  69.2687270  64.2780240 132.5001740  68.0464030  63.9429940
 127.5904390  62.9037690  49.8221230 128.0279260  63.4467360  50.4778810
 128.0752120  62.0784640  49.8317570 124.8050190  65.6926720  57.2741490
 125.1353200  64.8247780  57.0420130 125.2341190  65.8985240  58.1046450
 125.2940400  66.5597310  60.0123120 124.8571390  66.7398110  60.8447270
 125.8618080  67.3171930  59.8704840 140.9302580  66.0614310  64.3000430
 140.3304570  66.1206870  63.5564350 141.0596480  65.1219290  64.4297280
 142.1704030  63.8032130  49.6370140 141.3396990  63.8708780  50.1077370
 142.3475860  64.6936250  49.3337000 141.6260490  60.5479610  52.1404340
 142.3879400  61.1176260  52.2464030 141.6414860  59.9806810  52.9112650
 142.6320460  61.4029710  56.9846270 143.0029290  60.6197030  56.5782240
 143.2722390  62.0918810  56.8063570 139.6154220  62.7866290  62.3976590
 138.8014060  63.2163450  62.6602380 140.0228420  63.3984700  61.7845640
 141.6779660  60.8413980  49.2976860 141.9528500  61.7492860  49.1696080
 141.4890400  60.7776510  50.2338850 138.0755270  53.8658830  50.5930490
 138.4940150  53.6789810  49.7527150 137.7691330  53.0137880  50.9033420
 141.5745000  58.7782970  54.2906290 141.1988600  58.0110900  53.8587580
 140.8448120  59.1605670  54.7781220 140.9644620  57.9254490  63.9245810
 140.7330710  57.6967240  63.0243760 141.2249170  58.8454040  63.8790700
 139.4032690  53.1510920  66.7025510 140.2802870  53.1594320  67.0859510
 139.4153530  52.4141760  66.0917860 124.3402910  56.2816470  52.3137330
 123.4366990  56.5446670  52.1388990 124.8243530  56.5527640  51.5337290
 140.8495960  57.0040460  57.5913530 141.3733440  56.5103110  56.9603700
 141.4355380  57.1390820  58.3361100 141.0285680  57.0880330  61.1133080
 140.0788390  57.0543870  61.2278070 141.2098690  57.9980440  60.8782850
 140.3395930  56.2613810  53.5305940 140.8355050  56.0284680  54.3154820
 140.1412000  55.4225650  53.1143580 141.7683090  54.8974760  56.0643620
 141.6582370  54.7430800  57.0025890 142.5290680  54.3695700  55.8219030
 140.1148810  50.8368890  62.5226620 140.7521030  51.4503030  62.8885810
 140.2623700  50.8729550  61.5775850 142.6573360  52.7282680  49.3049760
 143.5822670  52.5963860  49.0968050 142.6349150  52.8075500  50.2586210
 142.7311850  53.4993340  51.9306470 141.9363350  53.4338460  52.4599380
 142.9355130  54.4343980  51.9191820 127.5792840  63.9702800  66.0735490
 127.5362470  63.5995710  66.9549950 127.7103850  64.9080370  66.2137310
 131.2798870  65.5262390  61.6745210 131.0390230  65.7936950  60.7875730
 132.2201510  65.6968120  61.7296070 133.4853290  51.9895080  65.4301720
 133.4242180  52.5816910  66.1797130 134.4253670  51.8821040  65.2851980
 136.1227850  51.6465140  65.0694010 136.7368260  51.9644430  64.4075090
 136.6677410  51.1613730  65.6889870 142.5403030  67.5456770  62.4755850
 142.0461310  67.9425640  61.7582980 141.9316320  66.9205980  62.8693130
 127.4180870  66.9165050  63.1933270 126.8241190  66.7849750  63.9323310
 127.4104710  66.0803190  62.7275370 136.8635890  50.2097280  61.3963300
 135.9895730  50.5432390  61.1936230 136.7546640  49.7370460  62.2215170
 137.7707870  52.4168150  62.7805020 137.4421230  51.6019910  62.4006750
 138.7190170  52.3737960  62.6570710 140.2242480  68.1880190  59.7542590
 139.7645450  68.9396000  59.3800610 139.5954940  67.4686660  59.6957390
 127.0493100  64.2823430  62.1441310 126.3227160  63.6628720  62.0767260
 127.1102250  64.6764040  61.2739390 139.1631780  51.8290220  58.3805300
 139.6039870  51.7735320  57.5326900 138.8939370  52.7448230  58.4515480
 141.0270350  51.4605460  56.3914120 140.9658750  50.5166680  56.2445140
 141.8062380  51.5685550  56.9367580 125.3323100  67.5997820  55.3538070
 125.1645140  66.9668500  56.0519960 124.4657610  67.8057220  55.0032260
 132.4964930  53.5453870  55.8472240 131.6839440  53.1710760  55.5068120
 133.0006570  52.7898950  56.1493430 136.9989910  50.2096320  57.0855310
 137.6019280  50.7816530  57.5603830 136.2582900  50.7735760  56.8629210
 140.1424510  50.6117880  52.3595590 140.3375140  51.5101330  52.6263020
 139.3554380  50.3804960  52.8528540 126.9385800  66.2931050  52.7988210
 126.4133420  66.6739080  52.0950170 126.8630380  66.9181820  53.5197920
 141.6951120  67.8518590  54.1202150 141.8703310  67.1656330  53.4763070
 140.9972690  68.3765640  53.7278820 128.6993560  64.3578160  51.6783790
 128.0702440  64.8263260  52.2269620 128.8141390  63.5127380  52.1129980
 137.2485130  50.3891350  67.4650250 137.1350580  50.7085960  68.3601770
 138.0654870  50.7903860  67.1687530 140.0283620  67.5362880  66.9468940
 140.8208940  67.0412110  66.7394900 140.3216770  68.2153020  67.5544550
 136.1543280  58.4083820  37.8284990 136.0737330  57.4938430  37.5576700
 135.7407700  58.9050890  37.1224700 134.2861320  60.1862840  39.7094260
 133.5103420  59.7063280  39.9992830 134.9374250  59.5068490  39.5350420
 138.3068750  64.5923030  38.4893390 137.8450280  63.8210270  38.8180560
 139.1194300  64.6189100  38.9945840 126.7119100  55.4584540  34.3712410
 125.8235800  55.8000510  34.2692290 126.9960290  55.2584860  33.4793240
 134.5332060  66.8781040  38.1097380 133.9143500  67.3338540  37.5391820
 135.3883840  67.0332500  37.7087080 133.7270310  62.8620030  39.7164420
 133.6578590  61.9209970  39.5553550 134.4890170  62.9521440  40.2886990
 125.9176980  53.4674550  42.0421040 125.7379820  52.5700300  42.3223800
 125.5157060  54.0146420  42.7167990 134.7575480  55.6690410  39.9433350
 135.1340300  54.7962290  39.8307020 134.6594990  56.0049110  39.0523790
 128.8880490  54.0416040  35.4050790 128.9947240  54.9419770  35.7119550
 127.9772850  53.9934010  35.1145440 138.5399600  53.1640850  36.8761690
 139.3609220  52.6737420  36.9187170 138.5733680  53.7538510  37.6293530
 126.5363650  55.9635050  40.6503380 127.2173760  56.2273420  41.2690780
 126.2211700  55.1235920  40.9841390 130.7288220  57.0102410  39.7375970
 131.2366440  57.5083380  40.3780990 131.2601460  56.2337610  39.5615330
 142.8299150  55.1807600  43.4405320 142.1251320  55.5689310  42.9220430
 143.0957070  55.8757890  44.0426250 129.0124320  51.6500970  44.0039390
 129.0142760  52.1673360  43.1985290 128.1828630  51.1731150  43.9809320
 135.3995410  61.7620280  35.5029290 134.7812680  62.2269730  34.9392010
 135.9118660  62.4547760  35.9198800 138.7761080  55.1041230  39.6489230
 138.0716650  55.3926120  40.2292340 139.1373240  55.9141340  39.2888790
 128.6939650  53.3610930  42.0109840 129.0356460  54.2052980  41.7163710
 127.7555460  53.5094670  42.1275180 124.7678610  62.4476810  32.8768920
 124.3906590  62.9363910  32.1453820 125.0251680  63.1202090  33.5075450
 140.3923860  64.7216360  41.9116710 139.7087380  65.3915470  41.9033380
 140.9318150  64.9197010  41.1461570 141.8448000  54.5496020  40.0398440
 140.8972910  54.5835000  40.1713870 142.1697990  55.3634970  40.4247800
 132.3767540  50.8493200  38.3354430 132.6842520  50.2940090  37.6189930
 131.4468240  50.9837660  38.1527420 137.9282600  66.5660490  40.6261890
 137.9409760  66.1622780  39.7584150 137.3757820  67.3407780  40.5223320
 139.2228020  63.2876710  35.7152060 139.1124350  62.3451040  35.8401480
 139.2196270  63.6492350  36.6014820 137.3268040  61.4690330  41.9544500
 137.7436830  61.2550440  41.1197960 138.0507860  61.7263120  42.5253120
 134.7648300  58.9142030  35.0714550 133.8377580  58.8479410  35.3003020
 134.9173120  59.8522160  34.9569790 134.7517380  55.1859030  32.0681710
 133.8121050  55.3472990  32.1534170 135.0700640  55.9044710  31.5217700
 141.2730140  59.8677550  42.0460740 140.4448770  59.9370640  41.5710870
 141.8680620  60.4531860  41.5776570 138.7945590  60.4762330  35.5749800
 138.1758010  60.1381880  34.9276100 138.7770040  59.8322090  36.2828990
 138.2372150  56.6546870  42.9915610 137.8243330  57.4800580  43.2455600
 137.5048100  56.0691910  42.7991970 130.3704940  59.4406770  37.8534280
 129.9661940  58.7284020  37.3580180 130.4568060  59.0960010  38.7422320
 130.8386640  63.1274330  40.0173490 130.5414930  62.5219800  39.3381270
 131.7886460  63.1651640  39.9062850 129.0833560  56.2149980  41.6333320
 129.6348150  56.3245320  40.8586570 129.5977070  56.5887580  42.3488550
 138.9272250  66.7006200  43.6796590 138.4502810  67.5078390  43.4869200
 138.2434040  66.0484530  43.8322800 129.9305070  62.8656020  46.6681290
 129.0333600  63.0895990  46.9154690 129.9557940  62.9890960  45.7192690
 136.9710290  59.7149140  32.5822550 137.4103570  58.8771570  32.4360370
 137.6838710  60.3478540  32.6686690 135.0805670  64.6545210  36.5503790
 135.5201580  65.3969540  36.1359180 135.0192560  64.8971780  37.4742750
 130.5556640  65.6791040  47.4523810 130.5272070  66.0833990  46.5852240
 130.3921610  64.7501400  47.2895410 140.5527430  50.9691950  30.8963590
 140.2400090  51.0618780  31.7962660 141.3139900  51.5472980  30.8461020
 127.0709570  58.3351750  35.3540930 126.9507170  59.0613840  34.7422200
 126.7610460  57.5654660  34.8768840 142.5071460  66.4618140  48.7487980
 142.9831180  66.9401030  49.4277060 143.1278620  66.3935630  48.0233480
 141.9104710  63.6530990  45.9087990 142.0367770  63.4142870  44.9905170
 141.9526090  62.8215530  46.3810070 135.7721450  67.3558990  44.4782800
 136.2866120  67.2667000  45.2805230 134.9290530  67.7018690  44.7710710
 137.7475850  67.6414330  33.9066800 137.5876990  67.3517270  34.8048630
 137.5822560  66.8654460  33.3712030 130.2264230  67.4212860  35.6838420
 130.0506710  66.5048400  35.4706220 129.3719970  67.7800150  35.9236220
 137.4501980  65.1501890  32.4664800 136.7567140  65.1479180  31.8067080
 138.1924840  64.7261210  32.0358970 137.0151910  66.7764600  36.5413290
 137.4708860  65.9953980  36.8551910 137.3544430  67.4871420  37.0854470
 141.7628720  55.7063450  46.8737730 141.1472990  56.2143120  46.3453190
 141.4425140  54.8061780  46.8163670 129.5373230  51.6786820  38.7364600
 129.0941380  52.4596360  38.4049120 130.0958220  52.0016710  39.4435540
 133.8243040  54.5455340  44.3399920 133.3622410  54.7538360  45.1519860
 133.4221150  53.7314690  44.0370590 138.8247550  55.7664290  45.4696580
 137.9741140  55.4670040  45.7905650 138.6649340  56.0106300  44.5580400
 135.9197260  57.2666040  47.5695370 136.2450670  56.4329790  47.2297600
 136.7077590  57.7894560  47.7173700 132.6532050  51.2997520  33.6170430
 132.0286230  51.2957390  34.3423740 132.5662170  50.4328480  33.2206400
 131.5749130  52.2234150  40.5954200 131.8721460  53.1296980  40.5146220
 132.1234690  51.7352930  39.9813770 129.3287450  56.8020390  36.4645850
 129.1028370  56.5857560  37.3692470 128.5479980  57.2348850  36.1191820
 136.5585210  56.8083760  35.0636500 135.9594100  57.5319560  34.8800120
 137.1064820  56.7460540  34.2812950 135.1650080  55.4447300  37.0939780
 135.5579650  55.7619500  36.2808470 135.5266930  54.5659180  37.2084300
 126.8997200  54.1119640  45.2839900 126.5060590  54.9594850  45.4912680
 126.2115600  53.4746010  45.4748540 133.4742250  54.1954610  48.3536640
 132.7840570  54.0026810  48.9882730 134.2174550  54.4789250  48.8860940
 124.2014250  52.0348100  39.3169980 123.9127300  52.6050960  40.0294960
 124.9460010  51.5552550  39.6801210 124.3884480  55.9768220  30.5272700
 124.3059150  56.9198980  30.6687690 124.0367540  55.8343130  29.6485050
 135.7505220  58.0353050  41.1890560 135.0186340  58.5439860  41.5380660
 135.3529560  57.2183030  40.8879340 132.1882610  54.7107250  39.5943050
 132.1918670  54.2697200  38.7447590 133.0833730  55.0324580  39.7014870
 128.0384990  54.5933740  38.5537260 127.6985040  55.0708970  39.3104310
 127.2762310  54.1398860  38.1938360 132.2502760  55.7119330  32.5849810
 132.3715580  55.6705810  33.5335630 131.8651270  56.5743480  32.4296540
 136.2131130  53.4886730  40.6013500 136.2303870  53.9395380  41.4455350
 135.9646710  52.5892370  40.8146940 131.2624260  58.0220470  31.9833110
 130.6941160  57.5738720  31.3569020 131.9713260  58.3813250  31.4498260
 139.6401880  50.9018910  46.4399880 139.9647650  50.1708570  46.9657860
 139.6758390  50.5832550  45.5380870 132.4890580  58.7709030  41.3408460
 132.8560710  58.2967600  42.0869800 132.2995640  59.6450600  41.6816800
 125.3531070  53.5152720  37.4701930 125.0677990  53.1508390  38.3080550
 125.2909930  52.7833180  36.8565070 130.2789950  57.8117670  43.6592670
 129.9747020  58.6909650  43.8843030 131.2336410  57.8717460  43.6950110
 128.8071740  62.0178660  34.2559520 128.0334000  61.4776280  34.0958240
 129.5366370  61.4985270  33.9177280 139.5659720  61.0144020  40.0485910
 140.2858840  61.5099310  39.6582020 139.3641540  60.3361910  39.4039780
 135.0269660  52.4081980  34.1915300 134.2134270  51.9095150  34.1160610
 134.8331610  53.2480230  33.7751650 134.9478520  61.0853080  45.9354910
 134.8815830  60.1648750  45.6812500 134.3183660  61.1828520  46.6499550
 137.7418050  56.7801630  32.4877460 138.6297670  57.0918860  32.3128800
 137.7123140  55.9073880  32.0958040 128.8509140  61.6859040  37.8938330
 129.3687810  60.8827300  37.8395220 128.3993160  61.6238180  38.7355160
 133.7378640  62.9525320  33.1665630 134.0794340  63.6967550  32.6708950
 132.9091350  63.2656440  33.5290460 134.8795250  63.9073650  45.6858710
 134.8939790  62.9754610  45.4677620 134.1720350  63.9933410  46.3248480
 140.0132320  58.0913470  31.9557320 139.9296040  58.5227690  31.1053760
 140.7326510  58.5511820  32.3884140 141.0906460  60.5480990  45.0327290
 140.3654650  61.1409770  44.8356680 141.6181920  60.5404530  44.2340660
 141.0419570  64.9455730  34.6839450 140.3995730  64.2911350  34.9583170
 140.6550230  65.3510820  33.9080120 136.6206050  62.2741160  38.5311140
 136.9729870  61.6769290  37.8712510 135.7368380  61.9485390  38.7019390
 132.7069330  63.0338850  35.9381550 133.3940460  63.5808060  36.3189140
 131.9201750  63.5779580  35.9731160 124.8461730  58.6511670  31.4298630
 125.7156580  58.9336470  31.7134550 124.3552050  59.4647540  31.3147440
 132.0096540  60.0384880  35.5506910 132.4659320  60.8490130  35.7767100
 131.6584750  59.7208020  36.3825400 134.3129150  65.5491220  42.7799210
 134.9571370  65.7550600  43.4572630 134.6758590  64.7879620  42.3270060
 127.9108320  50.3822530  36.0229430 127.7822950  50.3740430  36.9714350
 127.0870340  50.7205620  35.6720440 135.5861230  63.5523570  41.4976660
 136.2283460  62.8516730  41.6108830 136.1110580  64.3322010  41.3173550
 139.4316950  63.8372190  31.2215800 139.2054530  63.1202630  31.8140440
 139.0413150  63.5884630  30.3837550 137.3598850  64.3518470  44.7012720
 137.6955090  64.9385160  45.3790640 136.4399190  64.2211180  44.9310510
 125.2132980  67.8639050  31.9960260 125.5730620  68.4628390  31.3417530
 125.0725320  68.4098940  32.7695290 124.9102250  52.1413650  45.4836130
 124.1960770  52.3410570  46.0888740 125.3297290  51.3653220  45.8550930
 139.0133200  61.7544130  32.8829960 138.7254900  62.2156820  33.6707840
 139.8085370  61.2941900  33.1514180 125.1974840  66.1293910  46.4702660
 125.3065960  65.1888650  46.3298050 124.5455400  66.3948660  45.8216390
 133.1887430  64.4009800  47.8700780 132.8684300  63.6819040  48.4146470
 132.5145790  65.0764870  47.9436840 131.2301600  65.2470250  32.8133930
 131.2211700  65.9799940  32.1978440 130.3099960  65.0001830  32.9060890
 126.8308240  60.4685140  33.5580690 126.2236190  61.2084040  33.5675990
 127.3057590  60.5584500  32.7318890 136.4041030  54.6335960  43.2337580
 136.7721850  53.8131170  43.5617150 135.5439230  54.6937850  43.6493230
 139.7703060  53.5892900  34.0425140 139.1416220  53.6938570  33.3283370
 139.2754980  53.8089680  34.8319020 134.2161200  65.3098490  31.4759120
 134.3173180  65.1062480  30.5461100 133.3162940  65.0556770  31.6806900
 131.7387090  55.8678850  35.4583020 131.0303240  56.3365190  35.8996630
 132.0231570  55.2100860  36.0928210 133.3643020  57.2875550  43.4575550
 133.8628270  57.7621370  44.1227400 133.5065970  56.3639070  43.6645580
 135.7702520  52.5929510  36.8978810 135.6470300  52.6115640  35.9488320
 136.7187080  52.6408450  37.0177210 132.8579310  67.8284810  36.1706790
 133.1120810  67.7906200  35.2486160 131.9091790  67.7018140  36.1635040
 129.9422110  54.1763930  32.8333730 130.7912640  54.6134080  32.7673920
 129.5753380  54.4884190  33.6605790 140.5709880  53.5043510  44.3003940
 140.0683480  54.2448910  44.6397750 141.3866540  53.8927510  43.9840730
 138.8631890  58.7476690  37.7465300 137.9222030  58.7626920  37.9212990
 139.1775960  57.9612650  38.1925600 128.8413530  60.4296290  31.3069260
 129.6076800  60.3177650  31.8694690 128.9188220  59.7334260  30.6546030
 127.5360290  57.8621360  31.9902150 127.6163880  56.9148870  32.1019550
 128.4280040  58.1928240  32.0962810 140.8657470  65.9185540  39.4219560
 140.9904890  66.7416710  39.8943370 141.7323030  65.7076270  39.0743710
 128.3375000  68.0116750  39.0936690 129.0737480  67.4632210  39.3645260
 128.7215920  68.8772760  38.9542680 125.2220480  64.0790320  34.9678200
 124.2960260  64.3211460  34.9583610 125.6876910  64.9064580  34.8462950
 127.3433280  67.1962820  48.2822270 128.1446010  67.5174870  48.6957670
 126.8285100  66.8358400  49.0042180 131.4477310  67.1847060  30.9162260
 132.2405920  67.4735890  30.4644050 130.9281660  66.7539230  30.2374740
 136.1797910  63.3042690  48.2297680 135.5736070  63.3274290  47.4893430
 135.8752020  62.5725730  48.7664930 137.6098280  67.0322980  46.8407090
 138.5620030  66.9481000  46.7907330 137.4626500  67.6964690  47.5140880
 140.5007480  66.4117190  32.3399000 140.2148990  65.9982330  31.5253180
 140.3027030  67.3404900  32.2199520 125.0631090  59.6836280  47.2258320
 125.5670110  59.1043560  47.7974550 124.3238510  59.9676510  47.7634690
 131.9654710  62.4050470  30.7804610 131.8605350  61.7902820  31.5065990
 131.7978930  61.8816360  29.9967620 132.1169030  61.0907270  46.7593840
 131.3514700  61.6592270  46.6748510 132.2984990  60.7983480  45.8662070
 135.2057440  61.4670500  31.3846600 134.6567540  61.9139800  32.0289340
 135.8276700  60.9619750  31.9084270 139.2592380  62.8212600  47.3168860
 140.0001850  63.1588360  46.8136320 138.4965060  62.9904660  46.7638630
 130.8732560  60.4261420  33.2811900 131.2948980  60.2601290  34.1243290
 130.9983400  59.6161650  32.7867040 133.3860200  59.4499030  30.5289000
 133.9065860  58.7348050  30.1630150 134.0328600  60.0884900  30.8289510
 137.9338040  60.8727430  45.8524070 138.3479060  61.0272510  46.7014490
 136.9989040  60.9982650  46.0149850 138.4060210  58.2123590  47.8563220
 138.9880980  57.4575910  47.7683700 138.5821980  58.7431030  47.0794700
 132.2893720  51.9293580  43.2007560 131.8411020  51.9517840  42.3553110
 131.6558920  51.5312600  43.7977860 132.6953270  60.8247910  43.8220000
 133.1141380  61.6680640  43.6496240 131.7761900  60.9619950  43.5926780
 135.0317170  58.5564090  45.2057840 135.1513380  57.9605230  45.9452680
 135.8911170  58.5933780  44.7859140 137.3705070  59.1101280  43.7820350
 136.8440290  59.6343900  43.1785490 137.7136410  59.7428670  44.4130080
 129.7691460  56.4994650  30.2270060 129.5680520  55.6362010  30.5883400
 129.5983510  56.4128010  29.2891660 130.5460690  67.1300920  44.9377730
 130.0081780  67.8546980  44.6186430 130.7994650  66.6531260  44.1475070
 136.6179370  54.7151250  46.6966680 135.9294890  54.0532790  46.6316670
 137.3385390  54.2689520  47.1415140 137.2479770  51.3102880  32.7556940
 137.5282060  50.4670780  33.1116360 136.4745500  51.5425990  33.2695690
 128.5674260  53.5995270  30.2147940 128.8700160  53.6062700  29.3067090
 129.3068850  53.2493130  30.7115600 133.4022900  68.3652130  45.1964380
 133.3281600  69.2687270  45.5036750 132.5001740  68.0464030  45.1686450
 131.7859190  52.5429890  31.2004140 131.4381190  51.8653880  30.6206590
 131.9871960  52.0819400  32.0147530 133.9508230  67.5310640  32.8190740
 134.8459020  67.8695610  32.8409500 133.9825860  66.8090050  32.1915020
 127.5904390  62.9037690  31.0477740 128.0279260  63.4467360  31.7035320
 128.0752120  62.0784640  31.0574080 129.4012110  64.0235730  36.1599970
 129.1007650  63.9000700  37.0603880 129.2949600  63.1644320  35.7515700
 125.2940400  66.5597310  41.2379630 124.8571390  66.7398110  42.0703780
 125.8618080  67.3171930  41.0961350 140.9302580  66.0614310  45.5256940
 140.3304570  66.1206870  44.7820860 141.0596480  65.1219290  45.6553790
 142.1704030  63.8032130  30.8626650 141.3396990  63.8708780  31.3333880
 142.3475860  64.6936250  30.5593510 141.6260490  60.5479610  33.3660850
 142.3879400  61.1176260  33.4720540 141.6414860  59.9806810  34.1369160
 125.1264830  59.0717540  37.5968510 124.4713670  58.8029180  36.9528210
 125.9642780  58.9622020  37.1470490 142.6320460  61.4029710  38.2102780
 143.0029290  60.6197030  37.8038750 143.2722390  62.0918810  38.0320080
 139.6154220  62.7866290  43.6233100 138.8014060  63.2163450  43.8858890
 140.0228420  63.3984700  43.0102150 141.6779660  60.8413980  30.5233370
 141.9528500  61.7492860  30.3952590 141.4890400  60.7776510  31.4595360
 138.0755270  53.8658830  31.8187000 138.4940150  53.6789810  30.9783660
 137.7691330  53.0137880  32.1289930 141.5745000  58.7782970  35.5162800
 141.1988600  58.0110900  35.0844090 140.8448120  59.1605670  36.0037730
 140.9644620  57.9254490  45.1502320 140.7330710  57.6967240  44.2500270
 141.2249170  58.8454040  45.1047210 125.7156760  56.3679200  46.0430270
 124.8212810  56.3345960  46.3823980 126.2554310  56.5665990  46.8081520
 139.4032690  53.1510920  47.9282020 140.2802870  53.1594320  48.3116020
 139.4153530  52.4141760  47.3174370 124.3402910  56.2816470  33.5393840
 123.4366990  56.5446670  33.3645500 124.8243530  56.5527640  32.7593800
 140.8495960  57.0040460  38.8170040 141.3733440  56.5103110  38.1860210
 141.4355380  57.1390820  39.5617610 141.0285680  57.0880330  42.3389590
 140.0788390  57.0543870  42.4534580 141.2098690  57.9980440  42.1039360
 126.8830120  55.3382010  31.4488220 127.5921820  54.9165230  30.9635500
 126.1670060  55.4057240  30.8171570 126.5304280  51.3921340  30.4890870
 127.2532410  51.9330280  30.8072090 126.8028800  51.1184760  29.6132410
 140.3395930  56.2613810  34.7562450 140.8355050  56.0284680  35.5411330
 140.1412000  55.4225650  34.3400090 126.2196470  50.6427530  40.3913490
 126.8672660  50.0924910  39.9508650 126.6398310  50.8970680  41.2129300
 141.7683090  54.8974760  37.2900130 141.6582370  54.7430800  38.2282400
 142.5290680  54.3695700  37.0475540 140.1148810  50.8368890  43.7483130
 140.7521030  51.4503030  44.1142320 140.2623700  50.8729550  42.8032360
 142.6573360  52.7282680  30.5306270 143.5822670  52.5963860  30.3224560
 142.6349150  52.8075500  31.4842720 142.7311850  53.4993340  33.1562980
 141.9363350  53.4338460  33.6855890 142.9355130  54.4343980  33.1448330
 139.6730270  67.5384890  37.1501370 140.2689340  67.2169460  36.4735790
 139.9308420  67.0656710  37.9414640 125.9728470  50.7983200  43.1338810
 125.6243290  51.2547020  43.8996990 125.6416170  49.9040330  43.2161240
 127.5792840  63.9702800  47.2992000 127.5362470  63.5995710  48.1806460
 127.7103850  64.9080370  47.4393820 131.2798870  65.5262390  42.9001720
 131.0390230  65.7936950  42.0132240 132.2201510  65.6968120  42.9552580
 133.4853290  51.9895080  46.6558230 133.4242180  52.5816910  47.4053640
 134.4253670  51.8821040  46.5108490 136.1227850  51.6465140  46.2950520
 136.7368260  51.9644430  45.6331600 136.6677410  51.1613730  46.9146380
 142.5403030  67.5456770  43.7012360 142.0461310  67.9425640  42.9839490
 141.9316320  66.9205980  44.0949640 126.6449110  50.3259400  46.4089580
 127.1932100  50.1447450  45.6455690 126.7104420  49.5353510  46.9445890
 127.4180870  66.9165050  44.4189780 126.8241190  66.7849750  45.1579820
 127.4104710  66.0803190  43.9531880 136.8635890  50.2097280  42.6219810
 135.9895730  50.5432390  42.4192740 136.7546640  49.7370460  43.4471680
 137.7707870  52.4168150  44.0061530 137.4421230  51.6019910  43.6263260
 138.7190170  52.3737960  43.8827220 140.2242480  68.1880190  40.9799100
 139.7645450  68.9396000  40.6057120 139.5954940  67.4686660  40.9213900
 130.6538200  66.4968430  40.1547230 131.1703220  65.8855790  39.6295490
 131.3035580  66.9997210  40.6458240 133.3933700  67.3876920  40.9816210
 133.6811510  67.1331220  40.1049220 133.9056920  66.8354280  41.5721780
 134.6110710  51.1267120  41.5612720 133.8282500  51.6012620  41.8409480
 134.3173640  50.2221950  41.4525900 139.1631780  51.8290220  39.6061810
 139.6039870  51.7735320  38.7583410 138.8939370  52.7448230  39.6771990
 141.0270350  51.4605460  37.6170630 140.9658750  50.5166680  37.4701650
 141.8062380  51.5685550  38.1624090 125.9551120  51.4314600  34.0826440
 126.7130480  51.5443480  33.5090470 125.4928290  52.2683800  34.0369870
 132.4964930  53.5453870  37.0728750 131.6839440  53.1710760  36.7324630
 133.0006570  52.7898950  37.3749940 136.9989910  50.2096320  38.3111820
 137.6019280  50.7816530  38.7860340 136.2582900  50.7735760  38.0885720
 140.1424510  50.6117880  33.5852100 140.3375140  51.5101330  33.8519530
 139.3554380  50.3804960  34.0785050 126.9385800  66.2931050  34.0244720
 126.4133420  66.6739080  33.3206680 126.8630380  66.9181820  34.7454430
 128.3276270  51.9578650  32.6228410 128.8569030  51.1708450  32.4936360
 128.9604590  52.6369840  32.8563940 130.5214110  51.6953790  35.6773800
 129.8916850  50.9941100  35.8443930 129.9819250  52.4557920  35.4606960
 133.4606060  68.3093020  48.3484410 134.3873370  68.0737290  48.3920370
 133.4456490  69.1365020  47.8670440 141.6951120  67.8518590  35.3458660
 141.8703310  67.1656330  34.7019580 140.9972690  68.3765640  34.9535330
 129.5378770  68.2413430  32.8993970 130.2697590  67.9572710  32.3517860
 129.7972440  68.0026710  33.7893350 128.6993560  64.3578160  32.9040300
 128.0702440  64.8263260  33.4526130 128.8141390  63.5127380  33.3386490
 137.2485130  50.3891350  48.6906760 137.1350580  50.7085960  49.5858280
 138.0654870  50.7903860  48.3944040 140.0283620  67.5362880  48.1725450
 140.8208940  67.0412110  47.9651410 140.3216770  68.2153020  48.7801060
 136.1543280  58.4083820  19.0541500 136.0737330  57.4938430  18.7833210
 135.7407700  58.9050890  18.3481210 134.2861320  60.1862840  20.9350770
 133.5103420  59.7063280  21.2249340 134.9374250  59.5068490  20.7606930
 128.3027150  60.4982650  21.8126530 127.4712030  60.2431360  22.2123040
 128.9108130  60.5693420  22.5484450 138.3068750  64.5923030  19.7149900
 137.8450280  63.8210270  20.0437070 139.1194300  64.6189100  20.2202350
 128.2828410  64.5322740  22.0084550 128.5856450  63.6420480  21.8294770
 129.0272000  65.0892960  21.7806800 126.7119100  55.4584540  15.5968920
 125.8235800  55.8000510  15.4948800 126.9960290  55.2584860  14.7049750
 124.6752110  58.0590190  21.4808620 125.2468220  57.2912390  21.4812260
 124.6753650  58.3578950  20.5715230 134.5332060  66.8781040  19.3353890
 133.9143500  67.3338540  18.7648330 135.3883840  67.0332500  18.9343590
 133.7270310  62.8620030  20.9420930 133.6578590  61.9209970  20.7810060
 134.4890170  62.9521440  21.5143500 125.9176980  53.4674550  23.2677550
 125.7379820  52.5700300  23.5480310 125.5157060  54.0146420  23.9424500
 134.7575480  55.6690410  21.1689860 135.1340300  54.7962290  21.0563530
 134.6594990  56.0049110  20.2780300 128.8880490  54.0416040  16.6307300
 128.9947240  54.9419770  16.9376060 127.9772850  53.9934010  16.3401950
 138.5399600  53.1640850  18.1018200 139.3609220  52.6737420  18.1443680
 138.5733680  53.7538510  18.8550040 126.5363650  55.9635050  21.8759890
 127.2173760  56.2273420  22.4947290 126.2211700  55.1235920  22.2097900
 130.7288220  57.0102410  20.9632480 131.2366440  57.5083380  21.6037500
 131.2601460  56.2337610  20.7871840 142.8299150  55.1807600  24.6661830
 142.1251320  55.5689310  24.1476940 143.0957070  55.8757890  25.2682760
 129.0124320  51.6500970  25.2295900 129.0142760  52.1673360  24.4241800
 128.1828630  51.1731150  25.2065830 135.3995410  61.7620280  16.7285800
 134.7812680  62.2269730  16.1648520 135.9118660  62.4547760  17.1455310
 130.2627170  61.2896150  23.4069400 129.9296550  61.9165070  24.0490470
 130.4393850  61.8158030  22.6271070 138.7761080  55.1041230  20.8745740
 138.0716650  55.3926120  21.4548850 139.1373240  55.9141340  20.5145300
 128.6939650  53.3610930  23.2366350 129.0356460  54.2052980  22.9420220
 127.7555460  53.5094670  23.3531690 129.4746270  63.2576950  25.2218580
 130.0920270  63.9328030  24.9403030 128.6139390  63.6664930  25.1306080
 124.7678610  62.4476810  14.1025430 124.3906590  62.9363910  13.3710330
 125.0251680  63.1202090  14.7331960 140.3923860  64.7216360  23.1373220
 139.7087380  65.3915470  23.1289890 140.9318150  64.9197010  22.3718080
 141.8448000  54.5496020  21.2654950 140.8972910  54.5835000  21.3970380
 142.1697990  55.3634970  21.6504310 132.3767540  50.8493200  19.5610940
 132.6842520  50.2940090  18.8446440 131.4468240  50.9837660  19.3783930
 137.9282600  66.5660490  21.8518400 137.9409760  66.1622780  20.9840660
 137.3757820  67.3407780  21.7479830 139.2228020  63.2876710  16.9408570
 139.1124350  62.3451040  17.0657990 139.2196270  63.6492350  17.8271330
 137.3268040  61.4690330  23.1801010 137.7436830  61.2550440  22.3454470
 138.0507860  61.7263120  23.7509630 134.7648300  58.9142030  16.2971060
 133.8377580  58.8479410  16.5259530 134.9173120  59.8522160  16.1826300
 134.7517380  55.1859030  13.2938220 133.8121050  55.3472990  13.3790680
 135.0700640  55.9044710  12.7474210 141.2730140  59.8677550  23.2717250
 140.4448770  59.9370640  22.7967380 141.8680620  60.4531860  22.8033080
 138.7945590  60.4762330  16.8006310 138.1758010  60.1381880  16.1532610
 138.7770040  59.8322090  17.5085500 138.2372150  56.6546870  24.2172120
 137.8243330  57.4800580  24.4712110 137.5048100  56.0691910  24.0248480
 130.3704940  59.4406770  19.0790790 129.9661940  58.7284020  18.5836690
 130.4568060  59.0960010  19.9678830 130.8386640  63.1274330  21.2430000
 130.5414930  62.5219800  20.5637780 131.7886460  63.1651640  21.1319360
 129.0833560  56.2149980  22.8589830 129.6348150  56.3245320  22.0843080
 129.5977070  56.5887580  23.5745060 138.9272250  66.7006200  24.9053100
 138.4502810  67.5078390  24.7125710 138.2434040  66.0484530  25.0579310
 129.9305070  62.8656020  27.8937800 129.0333600  63.0895990  28.1411200
 129.9557940  62.9890960  26.9449200 136.9710290  59.7149140  13.8079060
 137.4103570  58.8771570  13.6616880 137.6838710  60.3478540  13.8943200
 128.7576290  59.7369340  26.4695170 128.6184060  60.6092140  26.8382570
 127.8757650  59.3942150  26.3243110 135.0805670  64.6545210  17.7760300
 135.5201580  65.3969540  17.3615690 135.0192560  64.8971780  18.6999260
 130.5556640  65.6791040  28.6780320 130.5272070  66.0833990  27.8108750
 130.3921610  64.7501400  28.5151920 140.5527430  50.9691950  12.1220100
 140.2400090  51.0618780  13.0219170 141.3139900  51.5472980  12.0717530
 127.0709570  58.3351750  16.5797440 126.9507170  59.0613840  15.9678710
 126.7610460  57.5654660  16.1025350 142.5071460  66.4618140  29.9744490
 142.9831180  66.9401030  30.6533570 143.1278620  66.3935630  29.2489990
 124.7094940  61.5066890  22.3866080 124.7875360  61.6415660  21.4421800
 125.3236620  60.7982780  22.5794200 125.9542570  63.2067080  18.7972260
 125.5470650  63.3481670  17.9425860 126.8455580  62.9227240  18.5943470
 141.9104710  63.6530990  27.1344500 142.0367770  63.4142870  26.2161680
 141.9526090  62.8215530  27.6066580 135.7721450  67.3558990  25.7039310
 136.2866120  67.2667000  26.5061740 134.9290530  67.7018690  25.9967220
 137.7475850  67.6414330  15.1323310 137.5876990  67.3517270  16.0305140
 137.5822560  66.8654460  14.5968540 130.2264230  67.4212860  16.9094930
 130.0506710  66.5048400  16.6962730 129.3719970  67.7800150  17.1492730
 137.4501980  65.1501890  13.6921310 136.7567140  65.1479180  13.0323590
 138.1924840  64.7261210  13.2615480 137.0151910  66.7764600  17.7669800
 137.4708860  65.9953980  18.0808420 137.3544430  67.4871420  18.3110980
 141.7628720  55.7063450  28.0994240 141.1472990  56.2143120  27.5709700
 141.4425140  54.8061780  28.0420180 124.7654460  62.5481060  24.9260540
 124.9285500  62.0786420  24.1079910 125.2306910  62.0404620  25.5909380
 129.5373230  51.6786820  19.9621110 129.0941380  52.4596360  19.6305630
 130.0958220  52.0016710  20.6692050 133.8243040  54.5455340  25.5656430
 133.3622410  54.7538360  26.3776370 133.4221150  53.7314690  25.2627100
 138.8247550  55.7664290  26.6953090 137.9741140  55.4670040  27.0162160
 138.6649340  56.0106300  25.7836910 135.9197260  57.2666040  28.7951880
 136.2450670  56.4329790  28.4554110 136.7077590  57.7894560  28.9430210
 132.6532050  51.2997520  14.8426940 132.0286230  51.2957390  15.5680250
 132.5662170  50.4328480  14.4462910 131.5749130  52.2234150  21.8210710
 131.8721460  53.1296980  21.7402730 132.1234690  51.7352930  21.2070280
 129.3287450  56.8020390  17.6902360 129.1028370  56.5857560  18.5948980
 128.5479980  57.2348850  17.3448330 136.5585210  56.8083760  16.2893010
 135.9594100  57.5319560  16.1056630 137.1064820  56.7460540  15.5069460
 131.7686660  57.7005970  28.3562630 131.6730260  56.7600700  28.2063030
 132.6118640  57.9221040  27.9610700 135.1650080  55.4447300  18.3196290
 135.5579650  55.7619500  17.5064980 135.5266930  54.5659180  18.4340810
 126.8997200  54.1119640  26.5096410 126.5060590  54.9594850  26.7169190
 126.2115600  53.4746010  26.7005050 133.4742250  54.1954610  29.5793150
 132.7840570  54.0026810  30.2139240 134.2174550  54.4789250  30.1117450
 124.2014250  52.0348100  20.5426490 123.9127300  52.6050960  21.2551470
 124.9460010  51.5552550  20.9057720 124.3884480  55.9768220  11.7529210
 124.3059150  56.9198980  11.8944200 124.0367540  55.8343130  10.8741560
 135.7505220  58.0353050  22.4147070 135.0186340  58.5439860  22.7637170
 135.3529560  57.2183030  22.1135850 132.1882610  54.7107250  20.8199560
 132.1918670  54.2697200  19.9704100 133.0833730  55.0324580  20.9271380
 128.0384990  54.5933740  19.7793770 127.6985040  55.0708970  20.5360820
 127.2762310  54.1398860  19.4194870 132.2502760  55.7119330  13.8106320
 132.3715580  55.6705810  14.7592140 131.8651270  56.5743480  13.6553050
 136.2131130  53.4886730  21.8270010 136.2303870  53.9395380  22.6711860
 135.9646710  52.5892370  22.0403450 131.2624260  58.0220470  13.2089620
 130.6941160  57.5738720  12.5825530 131.9713260  58.3813250  12.6754770
 139.6401880  50.9018910  27.6656390 139.9647650  50.1708570  28.1914370
 139.6758390  50.5832550  26.7637380 126.3393440  61.9232490  27.0856350
 125.9548230  61.2826160  27.6839310 126.6505630  62.6268610  27.6551080
 132.4890580  58.7709030  22.5664970 132.8560710  58.2967600  23.3126310
 132.2995640  59.6450600  22.9073310 125.3531070  53.5152720  18.6958440
 125.0677990  53.1508390  19.5337060 125.2909930  52.7833180  18.0821580
 130.2789950  57.8117670  24.8849180 129.9747020  58.6909650  25.1099540
 131.2336410  57.8717460  24.9206620 128.8071740  62.0178660  15.4816030
 128.0334000  61.4776280  15.3214750 129.5366370  61.4985270  15.1433790
 139.5659720  61.0144020  21.2742420 140.2858840  61.5099310  20.8838530
 139.3641540  60.3361910  20.6296290 135.0269660  52.4081980  15.4171810
 134.2134270  51.9095150  15.3417120 134.8331610  53.2480230  15.0008160
 134.9478520  61.0853080  27.1611420 134.8815830  60.1648750  26.9069010
 134.3183660  61.1828520  27.8756060 137.7418050  56.7801630  13.7133970
 138.6297670  57.0918860  13.5385310 137.7123140  55.9073880  13.3214550
 128.8509140  61.6859040  19.1194840 129.3687810  60.8827300  19.0651730
 128.3993160  61.6238180  19.9611670 133.7378640  62.9525320  14.3922140
 134.0794340  63.6967550  13.8965460 132.9091350  63.2656440  14.7546970
 126.3353680  58.6520410  26.0320540 125.9768620  59.3174260  26.6193880
 126.0408240  57.8203960  26.4033160 129.5366800  59.1104650  28.9160090
 129.2366940  59.2561830  28.0187910 130.3078040  58.5509940  28.8233480
 134.8795250  63.9073650  26.9115220 134.8939790  62.9754610  26.6934130
 134.1720350  63.9933410  27.5504990 140.0132320  58.0913470  13.1813830
 139.9296040  58.5227690  12.3310270 140.7326510  58.5511820  13.6140650
 141.0906460  60.5480990  26.2583800 140.3654650  61.1409770  26.0613190
 141.6181920  60.5404530  25.4597170 141.0419570  64.9455730  15.9095960
 140.3995730  64.2911350  16.1839680 140.6550230  65.3510820  15.1336630
 136.6206050  62.2741160  19.7567650 136.9729870  61.6769290  19.0969020
 135.7368380  61.9485390  19.9275900 132.7069330  63.0338850  17.1638060
 133.3940460  63.5808060  17.5445650 131.9201750  63.5779580  17.1987670
 124.8461730  58.6511670  12.6555140 125.7156580  58.9336470  12.9391060
 124.3552050  59.4647540  12.5403950 132.0096540  60.0384880  16.7763420
 132.4659320  60.8490130  17.0023610 131.6584750  59.7208020  17.6081910
 134.3129150  65.5491220  24.0055720 134.9571370  65.7550600  24.6829140
 134.6758590  64.7879620  23.5526570 127.9108320  50.3822530  17.2485940
 127.7822950  50.3740430  18.1970860 127.0870340  50.7205620  16.8976950
 135.5861230  63.5523570  22.7233170 136.2283460  62.8516730  22.8365340
 136.1110580  64.3322010  22.5430060 139.4316950  63.8372190  12.4472310
 139.2054530  63.1202630  13.0396950 139.0413150  63.5884630  11.6094060
 137.3598850  64.3518470  25.9269230 137.6955090  64.9385160  26.6047150
 136.4399190  64.2211180  26.1567020 125.2132980  67.8639050  13.2216770
 125.5730620  68.4628390  12.5674040 125.0725320  68.4098940  13.9951800
 124.9102250  52.1413650  26.7092640 124.1960770  52.3410570  27.3145250
 125.3297290  51.3653220  27.0807440 139.0133200  61.7544130  14.1086470
 138.7254900  62.2156820  14.8964350 139.8085370  61.2941900  14.3770690
 125.1974840  66.1293910  27.6959170 125.3065960  65.1888650  27.5554560
 124.5455400  66.3948660  27.0472900 133.1887430  64.4009800  29.0957290
 132.8684300  63.6819040  29.6402980 132.5145790  65.0764870  29.1693350
 131.2301600  65.2470250  14.0390440 131.2211700  65.9799940  13.4234950
 130.3099960  65.0001830  14.1317400 126.8308240  60.4685140  14.7837200
 126.2236190  61.2084040  14.7932500 127.3057590  60.5584500  13.9575400
 136.4041030  54.6335960  24.4594090 136.7721850  53.8131170  24.7873660
 135.5439230  54.6937850  24.8749740 139.7703060  53.5892900  15.2681650
 139.1416220  53.6938570  14.5539880 139.2754980  53.8089680  16.0575530
 134.2161200  65.3098490  12.7015630 134.3173180  65.1062480  11.7717610
 133.3162940  65.0556770  12.9063410 131.7387090  55.8678850  16.6839530
 131.0303240  56.3365190  17.1253140 132.0231570  55.2100860  17.3184720
 133.3643020  57.2875550  24.6832060 133.8628270  57.7621370  25.3483910
 133.5065970  56.3639070  24.8902090 135.7702520  52.5929510  18.1235320
 135.6470300  52.6115640  17.1744830 136.7187080  52.6408450  18.2433720
 132.8579310  67.8284810  17.3963300 133.1120810  67.7906200  16.4742670
 131.9091790  67.7018140  17.3891550 129.9422110  54.1763930  14.0590240
 130.7912640  54.6134080  13.9930430 129.5753380  54.4884190  14.8862300
 140.5709880  53.5043510  25.5260450 140.0683480  54.2448910  25.8654260
 141.3866540  53.8927510  25.2097240 138.8631890  58.7476690  18.9721810
 137.9222030  58.7626920  19.1469500 139.1775960  57.9612650  19.4182110
 128.8413530  60.4296290  12.5325770 129.6076800  60.3177650  13.0951200
 128.9188220  59.7334260  11.8802540 127.5360290  57.8621360  13.2158660
 127.6163880  56.9148870  13.3276060 128.4280040  58.1928240  13.3219320
 140.8657470  65.9185540  20.6476070 140.9904890  66.7416710  21.1199880
 141.7323030  65.7076270  20.3000220 128.3375000  68.0116750  20.3193200
 129.0737480  67.4632210  20.5901770 128.7215920  68.8772760  20.1799190
 125.2220480  64.0790320  16.1934710 124.2960260  64.3211460  16.1840120
 125.6876910  64.9064580  16.0719460 127.3433280  67.1962820  29.5078780
 128.1446010  67.5174870  29.9214180 126.8285100  66.8358400  30.2298690
 131.4477310  67.1847060  12.1418770 132.2405920  67.4735890  11.6900560
 130.9281660  66.7539230  11.4631250 136.1797910  63.3042690  29.4554190
 135.5736070  63.3274290  28.7149940 135.8752020  62.5725730  29.9921440
 137.6098280  67.0322980  28.0663600 138.5620030  66.9481000  28.0163840
 137.4626500  67.6964690  28.7397390 140.5007480  66.4117190  13.5655510
 140.2148990  65.9982330  12.7509690 140.3027030  67.3404900  13.4456030
 125.0631090  59.6836280  28.4514830 125.5670110  59.1043560  29.0231060
 124.3238510  59.9676510  28.9891200 131.9654710  62.4050470  12.0061120
 131.8605350  61.7902820  12.7322500 131.7978930  61.8816360  11.2224130
 132.1169030  61.0907270  27.9850350 131.3514700  61.6592270  27.9005020
 132.2984990  60.7983480  27.0918580 135.2057440  61.4670500  12.6103110
 134.6567540  61.9139800  13.2545850 135.8276700  60.9619750  13.1340780
 139.2592380  62.8212600  28.5425370 140.0001850  63.1588360  28.0392830
 138.4965060  62.9904660  27.9895140 127.0954170  57.8265870  29.3464900
 127.1359510  57.5279740  30.2550130 127.9499670  58.2273480  29.1872420
 130.8732560  60.4261420  14.5068410 131.2948980  60.2601290  15.3499800
 130.9983400  59.6161650  14.0123550 129.0359980  56.4057970  27.3139390
 128.5056440  55.9148920  26.6862730 129.7048050  56.8342170  26.7797320
 133.3860200  59.4499030  11.7545510 133.9065860  58.7348050  11.3886660
 134.0328600  60.0884900  12.0546020 137.9338040  60.8727430  27.0780580
 138.3479060  61.0272510  27.9271000 136.9989040  60.9982650  27.2406360
 138.4060210  58.2123590  29.0819730 138.9880980  57.4575910  28.9940210
 138.5821980  58.7431030  28.3051210 129.5232280  53.3720340  27.3936680
 129.4289150  52.7541090  26.6687550 128.9429670  54.0986630  27.1666590
 132.2893720  51.9293580  24.4264070 131.8411020  51.9517840  23.5809620
 131.6558920  51.5312600  25.0234370 132.6953270  60.8247910  25.0476510
 133.1141380  61.6680640  24.8752750 131.7761900  60.9619950  24.8183290
 135.0317170  58.5564090  26.4314350 135.1513380  57.9605230  27.1709190
 135.8911170  58.5933780  26.0115650 137.3705070  59.1101280  25.0076860
 136.8440290  59.6343900  24.4042000 137.7136410  59.7428670  25.6386590
 129.7691460  56.4994650  11.4526570 129.5680520  55.6362010  11.8139910
 129.5983510  56.4128010  10.5148170 130.5460690  67.1300920  26.1634240
 130.0081780  67.8546980  25.8442940 130.7994650  66.6531260  25.3731580
 131.7985940  55.0985440  27.6890170 132.3885630  54.7901290  28.3767990
 130.9806180  54.6265190  27.8450070 136.6179370  54.7151250  27.9223190
 135.9294890  54.0532790  27.8573180 137.3385390  54.2689520  28.3671650
 137.2479770  51.3102880  13.9813450 137.5282060  50.4670780  14.3372870
 136.4745500  51.5425990  14.4952200 128.5674260  53.5995270  11.4404450
 128.8700160  53.6062700  10.5323600 129.3068850  53.2493130  11.9372110
 133.4022900  68.3652130  26.4220890 133.3281600  69.2687270  26.7293260
 132.5001740  68.0464030  26.3942960 131.7859190  52.5429890  12.4260650
 131.4381190  51.8653880  11.8463100 131.9871960  52.0819400  13.2404040
 133.9508230  67.5310640  14.0447250 134.8459020  67.8695610  14.0666010
 133.9825860  66.8090050  13.4171530 127.5904390  62.9037690  12.2734250
 128.0279260  63.4467360  12.9291830 128.0752120  62.0784640  12.2830590
 124.8050190  65.6926720  19.7254510 125.1353200  64.8247780  19.4933150
 125.2341190  65.8985240  20.5559470 129.4012110  64.0235730  17.3856480
 129.1007650  63.9000700  18.2860390 129.2949600  63.1644320  16.9772210
 125.2940400  66.5597310  22.4636140 124.8571390  66.7398110  23.2960290
 125.8618080  67.3171930  22.3217860 140.9302580  66.0614310  26.7513450
 140.3304570  66.1206870  26.0077370 141.0596480  65.1219290  26.8810300
 142.1704030  63.8032130  12.0883160 141.3396990  63.8708780  12.5590390
 142.3475860  64.6936250  11.7850020 141.6260490  60.5479610  14.5917360
 142.3879400  61.1176260  14.6977050 141.6414860  59.9806810  15.3625670
 125.1264830  59.0717540  18.8225020 124.4713670  58.8029180  18.1784720
 125.9642780  58.9622020  18.3727000 142.6320460  61.4029710  19.4359290
 143.0029290  60.6197030  19.0295260 143.2722390  62.0918810  19.2576590
 139.6154220  62.7866290  24.8489610 138.8014060  63.2163450  25.1115400
 140.0228420  63.3984700  24.2358660 141.6779660  60.8413980  11.7489880
 141.9528500  61.7492860  11.6209100 141.4890400  60.7776510  12.6851870
 138.0755270  53.8658830  13.0443510 138.4940150  53.6789810  12.2040170
 137.7691330  53.0137880  13.3546440 141.5745000  58.7782970  16.7419310
 141.1988600  58.0110900  16.3100600 140.8448120  59.1605670  17.2294240
 126.1640760  59.4570110  23.3628360 126.5313800  59.3697510  24.2424380
 125.5951580  58.6936660  23.2635220 140.9644620  57.9254490  26.3758830
 140.7330710  57.6967240  25.4756780 141.2249170  58.8454040  26.3303720
 125.7156760  56.3679200  27.2686780 124.8212810  56.3345960  27.6080490
 126.2554310  56.5665990  28.0338030 139.4032690  53.1510920  29.1538530
 140.2802870  53.1594320  29.5372530 139.4153530  52.4141760  28.5430880
 124.3402910  56.2816470  14.7650350 123.4366990  56.5446670  14.5902010
 124.8243530  56.5527640  13.9850310 140.8495960  57.0040460  20.0426550
 141.3733440  56.5103110  19.4116720 141.4355380  57.1390820  20.7874120
 141.0285680  57.0880330  23.5646100 140.0788390  57.0543870  23.6791090
 141.2098690  57.9980440  23.3295870 126.8830120  55.3382010  12.6744730
 127.5921820  54.9165230  12.1892010 126.1670060  55.4057240  12.0428080
 126.5304280  51.3921340  11.7147380 127.2532410  51.9330280  12.0328600
 126.8028800  51.1184760  10.8388920 140.3395930  56.2613810  15.9818960
 140.8355050  56.0284680  16.7667840 140.1412000  55.4225650  15.5656600
 126.2196470  50.6427530  21.6170000 126.8672660  50.0924910  21.1765160
 126.6398310  50.8970680  22.4385810 141.7683090  54.8974760  18.5156640
 141.6582370  54.7430800  19.4538910 142.5290680  54.3695700  18.2732050
 140.1148810  50.8368890  24.9739640 140.7521030  51.4503030  25.3398830
 140.2623700  50.8729550  24.0288870 142.6573360  52.7282680  11.7562780
 143.5822670  52.5963860  11.5481070 142.6349150  52.8075500  12.7099230
 142.7311850  53.4993340  14.3819490 141.9363350  53.4338460  14.9112400
 142.9355130  54.4343980  14.3704840 139.6730270  67.5384890  18.3757880
 140.2689340  67.2169460  17.6992300 139.9308420  67.0656710  19.1671150
 125.9728470  50.7983200  24.3595320 125.6243290  51.2547020  25.1253500
 125.6416170  49.9040330  24.4417750 127.5792840  63.9702800  28.5248510
 127.5362470  63.5995710  29.4062970 127.7103850  64.9080370  28.6650330
 131.2798870  65.5262390  24.1258230 131.0390230  65.7936950  23.2388750
 132.2201510  65.6968120  24.1809090 133.4853290  51.9895080  27.8814740
 133.4242180  52.5816910  28.6310150 134.4253670  51.8821040  27.7365000
 136.1227850  51.6465140  27.5207030 136.7368260  51.9644430  26.8588110
 136.6677410  51.1613730  28.1402890 142.5403030  67.5456770  24.9268870
 142.0461310  67.9425640  24.2096000 141.9316320  66.9205980  25.3206150
 126.6449110  50.3259400  27.6346090 127.1932100  50.1447450  26.8712200
 126.7104420  49.5353510  28.1702400 127.4180870  66.9165050  25.6446290
 126.8241190  66.7849750  26.3836330 127.4104710  66.0803190  25.1788390
 136.8635890  50.2097280  23.8476320 135.9895730  50.5432390  23.6449250
 136.7546640  49.7370460  24.6728190 137.7707870  52.4168150  25.2318040
 137.4421230  51.6019910  24.8519770 138.7190170  52.3737960  25.1083730
 140.2242480  68.1880190  22.2055610 139.7645450  68.9396000  21.8313630
 139.5954940  67.4686660  22.1470410 127.0493100  64.2823430  24.5954330
 126.3227160  63.6628720  24.5280280 127.1102250  64.6764040  23.7252410
 130.6538200  66.4968430  21.3803740 131.1703220  65.8855790  20.8552000
 131.3035580  66.9997210  21.8714750 133.3933700  67.3876920  22.2072720
 133.6811510  67.1331220  21.3305730 133.9056920  66.8354280  22.7978290
 134.6110710  51.1267120  22.7869230 133.8282500  51.6012620  23.0665990
 134.3173640  50.2221950  22.6782410 139.1631780  51.8290220  20.8318320
 139.6039870  51.7735320  19.9839920 138.8939370  52.7448230  20.9028500
 141.0270350  51.4605460  18.8427140 140.9658750  50.5166680  18.6958160
 141.8062380  51.5685550  19.3880600 125.3323100  67.5997820  17.8051090
 125.1645140  66.9668500  18.5032980 124.4657610  67.8057220  17.4545280
 125.9551120  51.4314600  15.3082950 126.7130480  51.5443480  14.7346980
 125.4928290  52.2683800  15.2626380 132.4964930  53.5453870  18.2985260
 131.6839440  53.1710760  17.9581140 133.0006570  52.7898950  18.6006450
 136.9989910  50.2096320  19.5368330 137.6019280  50.7816530  20.0116850
 136.2582900  50.7735760  19.3142230 140.1424510  50.6117880  14.8108610
 140.3375140  51.5101330  15.0776040 139.3554380  50.3804960  15.3041560
 126.9385800  66.2931050  15.2501230 126.4133420  66.6739080  14.5463190
 126.8630380  66.9181820  15.9710940 128.3276270  51.9578650  13.8484920
 128.8569030  51.1708450  13.7192870 128.9604590  52.6369840  14.0820450
 130.5214110  51.6953790  16.9030310 129.8916850  50.9941100  17.0700440
 129.9819250  52.4557920  16.6863470 133.4606060  68.3093020  29.5740920
 134.3873370  68.0737290  29.6176880 133.4456490  69.1365020  29.0926950
 141.6951120  67.8518590  16.5715170 141.8703310  67.1656330  15.9276090
 140.9972690  68.3765640  16.1791840 130.6469670  50.9737770  29.3382800
 130.3653940  51.4771370  28.5743620 131.0289370  50.1759520  28.9724930
 129.5378770  68.2413430  14.1250480 130.2697590  67.9572710  13.5774370
 129.7972440  68.0026710  15.0149860 128.6993560  64.3578160  14.1296810
 128.0702440  64.8263260  14.6782640 128.8141390  63.5127380  14.5643000
 137.2485130  50.3891350  29.9163270 137.1350580  50.7085960  30.8114790
 138.0654870  50.7903860  29.6200550 140.0283620  67.5362880  29.3981960
 140.8208940  67.0412110  29.1907920 140.3216770  68.2153020  30.0057570
 134.2861320  60.1862840   2.1607280 133.5103420  59.7063280   2.4505850
 134.9374250  59.5068490   1.9863440 128.3027150  60.4982650   3.0383040
 127.4712030  60.2431360   3.4379550 128.9108130  60.5693420   3.7740960
 128.2828410  64.5322740   3.2341060 128.5856450  63.6420480   3.0551280
 129.0272000  65.0892960   3.0063310 124.6752110  58.0590190   2.7065130
 125.2468220  57.2912390   2.7068770 124.6753650  58.3578950   1.7971740
 133.7270310  62.8620030   2.1677440 133.6578590  61.9209970   2.0066570
 134.4890170  62.9521440   2.7400010 125.9176980  53.4674550   4.4934060
 125.7379820  52.5700300   4.7736820 125.5157060  54.0146420   5.1681010
 126.5363650  55.9635050   3.1016400 127.2173760  56.2273420   3.7203800
 126.2211700  55.1235920   3.4354410 130.7288220  57.0102410   2.1888990
 131.2366440  57.5083380   2.8294010 131.2601460  56.2337610   2.0128350
 142.8299150  55.1807600   5.8918340 142.1251320  55.5689310   5.3733450
 143.0957070  55.8757890   6.4939270 129.0124320  51.6500970   6.4552410
 129.0142760  52.1673360   5.6498310 128.1828630  51.1731150   6.4322340
 130.2627170  61.2896150   4.6325910 129.9296550  61.9165070   5.2746980
 130.4393850  61.8158030   3.8527580 138.7761080  55.1041230   2.1002250
 138.0716650  55.3926120   2.6805360 139.1373240  55.9141340   1.7401810
 128.6939650  53.3610930   4.4622860 129.0356460  54.2052980   4.1676730
 127.7555460  53.5094670   4.5788200 129.4746270  63.2576950   6.4475090
 130.0920270  63.9328030   6.1659540 128.6139390  63.6664930   6.3562590
 140.3923860  64.7216360   4.3629730 139.7087380  65.3915470   4.3546400
 140.9318150  64.9197010   3.5974590 141.8448000  54.5496020   2.4911460
 140.8972910  54.5835000   2.6226890 142.1697990  55.3634970   2.8760820
 137.9282600  66.5660490   3.0774910 137.9409760  66.1622780   2.2097170
 137.3757820  67.3407780   2.9736340 137.3268040  61.4690330   4.4057520
 137.7436830  61.2550440   3.5710980 138.0507860  61.7263120   4.9766140
 141.2730140  59.8677550   4.4973760 140.4448770  59.9370640   4.0223890
 141.8680620  60.4531860   4.0289590 138.2372150  56.6546870   5.4428630
 137.8243330  57.4800580   5.6968620 137.5048100  56.0691910   5.2504990
 130.8386640  63.1274330   2.4686510 130.5414930  62.5219800   1.7894290
 131.7886460  63.1651640   2.3575870 129.0833560  56.2149980   4.0846340
 129.6348150  56.3245320   3.3099590 129.5977070  56.5887580   4.8001570
 138.9272250  66.7006200   6.1309610 138.4502810  67.5078390   5.9382220
 138.2434040  66.0484530   6.2835820 129.9305070  62.8656020   9.1194310
 129.0333600  63.0895990   9.3667710 129.9557940  62.9890960   8.1705710
 128.7576290  59.7369340   7.6951680 128.6184060  60.6092140   8.0639080
 127.8757650  59.3942150   7.5499620 130.5556640  65.6791040   9.9036830
 130.5272070  66.0833990   9.0365260 130.3921610  64.7501400   9.7408430
 142.5071460  66.4618140  11.2001000 142.9831180  66.9401030  11.8790080
 143.1278620  66.3935630  10.4746500 124.7094940  61.5066890   3.6122590
 124.7875360  61.6415660   2.6678310 125.3236620  60.7982780   3.8050710
 141.9104710  63.6530990   8.3601010 142.0367770  63.4142870   7.4418190
 141.9526090  62.8215530   8.8323090 135.7721450  67.3558990   6.9295820
 136.2866120  67.2667000   7.7318250 134.9290530  67.7018690   7.2223730
 141.7628720  55.7063450   9.3250750 141.1472990  56.2143120   8.7966210
 141.4425140  54.8061780   9.2676690 124.7654460  62.5481060   6.1517050
 124.9285500  62.0786420   5.3336420 125.2306910  62.0404620   6.8165890
 133.8243040  54.5455340   6.7912940 133.3622410  54.7538360   7.6032880
 133.4221150  53.7314690   6.4883610 138.8247550  55.7664290   7.9209600
 137.9741140  55.4670040   8.2418670 138.6649340  56.0106300   7.0093420
 135.9197260  57.2666040  10.0208390 136.2450670  56.4329790   9.6810620
 136.7077590  57.7894560  10.1686720 131.5749130  52.2234150   3.0467220
 131.8721460  53.1296980   2.9659240 132.1234690  51.7352930   2.4326790
 131.7686660  57.7005970   9.5819140 131.6730260  56.7600700   9.4319540
 132.6118640  57.9221040   9.1867210 126.8997200  54.1119640   7.7352920
 126.5060590  54.9594850   7.9425700 126.2115600  53.4746010   7.9261560
 133.4742250  54.1954610  10.8049660 132.7840570  54.0026810  11.4395750
 134.2174550  54.4789250  11.3373960 124.2014250  52.0348100   1.7683000
 123.9127300  52.6050960   2.4807980 124.9460010  51.5552550   2.1314230
 135.7505220  58.0353050   3.6403580 135.0186340  58.5439860   3.9893680
 135.3529560  57.2183030   3.3392360 136.2131130  53.4886730   3.0526520
 136.2303870  53.9395380   3.8968370 135.9646710  52.5892370   3.2659960
 139.6401880  50.9018910   8.8912900 139.9647650  50.1708570   9.4170880
 139.6758390  50.5832550   7.9893890 126.3393440  61.9232490   8.3112860
 125.9548230  61.2826160   8.9095820 126.6505630  62.6268610   8.8807590
 132.4890580  58.7709030   3.7921480 132.8560710  58.2967600   4.5382820
 132.2995640  59.6450600   4.1329820 130.2789950  57.8117670   6.1105690
 129.9747020  58.6909650   6.3356050 131.2336410  57.8717460   6.1463130
 139.5659720  61.0144020   2.4998930 140.2858840  61.5099310   2.1095040
 139.3641540  60.3361910   1.8552800 134.9478520  61.0853080   8.3867930
 134.8815830  60.1648750   8.1325520 134.3183660  61.1828520   9.1012570
 126.3353680  58.6520410   7.2577050 125.9768620  59.3174260   7.8450390
 126.0408240  57.8203960   7.6289670 129.5366800  59.1104650  10.1416600
 129.2366940  59.2561830   9.2444420 130.3078040  58.5509940  10.0489990
 134.8795250  63.9073650   8.1371730 134.8939790  62.9754610   7.9190640
 134.1720350  63.9933410   8.7761500 141.0906460  60.5480990   7.4840310
 140.3654650  61.1409770   7.2869700 141.6181920  60.5404530   6.6853680
 134.3129150  65.5491220   5.2312230 134.9571370  65.7550600   5.9085650
 134.6758590  64.7879620   4.7783080 135.5861230  63.5523570   3.9489680
 136.2283460  62.8516730   4.0621850 136.1110580  64.3322010   3.7686570
 137.3598850  64.3518470   7.1525740 137.6955090  64.9385160   7.8303660
 136.4399190  64.2211180   7.3823530 124.9102250  52.1413650   7.9349150
 124.1960770  52.3410570   8.5401760 125.3297290  51.3653220   8.3063950
 125.1974840  66.1293910   8.9215680 125.3065960  65.1888650   8.7811070
 124.5455400  66.3948660   8.2729410 133.1887430  64.4009800  10.3213800
 132.8684300  63.6819040  10.8659490 132.5145790  65.0764870  10.3949860
 136.4041030  54.6335960   5.6850600 136.7721850  53.8131170   6.0130170
 135.5439230  54.6937850   6.1006250 133.3643020  57.2875550   5.9088570
 133.8628270  57.7621370   6.5740420 133.5065970  56.3639070   6.1158600
 140.5709880  53.5043510   6.7516960 140.0683480  54.2448910   7.0910770
 141.3866540  53.8927510   6.4353750 127.3433280  67.1962820  10.7335290
 128.1446010  67.5174870  11.1470690 126.8285100  66.8358400  11.4555200
 136.1797910  63.3042690  10.6810700 135.5736070  63.3274290   9.9406450
 135.8752020  62.5725730  11.2177950 137.6098280  67.0322980   9.2920110
 138.5620030  66.9481000   9.2420350 137.4626500  67.6964690   9.9653900
 125.0631090  59.6836280   9.6771340 125.5670110  59.1043560  10.2487570
 124.3238510  59.9676510  10.2147710 132.1169030  61.0907270   9.2106860
 131.3514700  61.6592270   9.1261530 132.2984990  60.7983480   8.3175090
 139.2592380  62.8212600   9.7681880 140.0001850  63.1588360   9.2649340
 138.4965060  62.9904660   9.2151650 127.0954170  57.8265870  10.5721410
 127.1359510  57.5279740  11.4806640 127.9499670  58.2273480  10.4128930
 129.0359980  56.4057970   8.5395900 128.5056440  55.9148920   7.9119240
 129.7048050  56.8342170   8.0053830 137.9338040  60.8727430   8.3037090
 138.3479060  61.0272510   9.1527510 136.9989040  60.9982650   8.4662870
 138.4060210  58.2123590  10.3076240 138.9880980  57.4575910  10.2196720
 138.5821980  58.7431030   9.5307720 129.5232280  53.3720340   8.6193190
 129.4289150  52.7541090   7.8944060 128.9429670  54.0986630   8.3923100
 132.2893720  51.9293580   5.6520580 131.8411020  51.9517840   4.8066130
 131.6558920  51.5312600   6.2490880 132.6953270  60.8247910   6.2733020
 133.1141380  61.6680640   6.1009260 131.7761900  60.9619950   6.0439800
 135.0317170  58.5564090   7.6570860 135.1513380  57.9605230   8.3965700
 135.8911170  58.5933780   7.2372160 137.3705070  59.1101280   6.2333370
 136.8440290  59.6343900   5.6298510 137.7136410  59.7428670   6.8643100
 130.5460690  67.1300920   7.3890750 130.0081780  67.8546980   7.0699450
 130.7994650  66.6531260   6.5988090 131.7985940  55.0985440   8.9146680
 132.3885630  54.7901290   9.6024500 130.9806180  54.6265190   9.0706580
 136.6179370  54.7151250   9.1479700 135.9294890  54.0532790   9.0829690
 137.3385390  54.2689520   9.5928160 133.4022900  68.3652130   7.6477400
 133.3281600  69.2687270   7.9549770 132.5001740  68.0464030   7.6199470
 125.2940400  66.5597310   3.6892650 124.8571390  66.7398110   4.5216800
 125.8618080  67.3171930   3.5474370 140.9302580  66.0614310   7.9769960
 140.3304570  66.1206870   7.2333880 141.0596480  65.1219290   8.1066810
 139.6154220  62.7866290   6.0746120 138.8014060  63.2163450   6.3371910
 140.0228420  63.3984700   5.4615170 126.1640760  59.4570110   4.5884870
 126.5313800  59.3697510   5.4680890 125.5951580  58.6936660   4.4891730
 140.9644620  57.9254490   7.6015340 140.7330710  57.6967240   6.7013290
 141.2249170  58.8454040   7.5560230 125.7156760  56.3679200   8.4943290
 124.8212810  56.3345960   8.8337000 126.2554310  56.5665990   9.2594540
 139.4032690  53.1510920  10.3795040 140.2802870  53.1594320  10.7629040
 139.4153530  52.4141760   9.7687390 141.0285680  57.0880330   4.7902610
 140.0788390  57.0543870   4.9047600 141.2098690  57.9980440   4.5552380
 126.2196470  50.6427530   2.8426510 126.8672660  50.0924910   2.4021670
 126.6398310  50.8970680   3.6642320 140.1148810  50.8368890   6.1996150
 140.7521030  51.4503030   6.5655340 140.2623700  50.8729550   5.2545380
 125.9728470  50.7983200   5.5851830 125.6243290  51.2547020   6.3510010
 125.6416170  49.9040330   5.6674260 127.5792840  63.9702800   9.7505020
 127.5362470  63.5995710  10.6319480 127.7103850  64.9080370   9.8906840
 131.2798870  65.5262390   5.3514740 131.0390230  65.7936950   4.4645260
 132.2201510  65.6968120   5.4065600 133.4853290  51.9895080   9.1071250
 133.4242180  52.5816910   9.8566660 134.4253670  51.8821040   8.9621510
 136.1227850  51.6465140   8.7463540 136.7368260  51.9644430   8.0844620
 136.6677410  51.1613730   9.3659400 142.5403030  67.5456770   6.1525380
 142.0461310  67.9425640   5.4352510 141.9316320  66.9205980   6.5462660
 126.6449110  50.3259400   8.8602600 127.1932100  50.1447450   8.0968710
 126.7104420  49.5353510   9.3958910 127.4180870  66.9165050   6.8702800
 126.8241190  66.7849750   7.6092840 127.4104710  66.0803190   6.4044900
 136.8635890  50.2097280   5.0732830 135.9895730  50.5432390   4.8705760
 136.7546640  49.7370460   5.8984700 137.7707870  52.4168150   6.4574550
 137.4421230  51.6019910   6.0776280 138.7190170  52.3737960   6.3340240
 140.2242480  68.1880190   3.4312120 139.7645450  68.9396000   3.0570140
 139.5954940  67.4686660   3.3726920 127.0493100  64.2823430   5.8210840
 126.3227160  63.6628720   5.7536790 127.1102250  64.6764040   4.9508920
 130.6538200  66.4968430   2.6060250 131.1703220  65.8855790   2.0808510
 131.3035580  66.9997210   3.0971260 133.3933700  67.3876920   3.4329230
 133.6811510  67.1331220   2.5562240 133.9056920  66.8354280   4.0234800
 134.6110710  51.1267120   4.0125740 133.8282500  51.6012620   4.2922500
 134.3173640  50.2221950   3.9038920 133.4606060  68.3093020  10.7997430
 134.3873370  68.0737290  10.8433390 133.4456490  69.1365020  10.3183460
 130.6469670  50.9737770  10.5639310 130.3653940  51.4771370   9.8000130
 131.0289370  50.1759520  10.1981440 137.2485130  50.3891350  11.1419780
 137.1350580  50.7085960  12.0371300 138.0654870  50.7903860  10.8457060
 140.0283620  67.5362880  10.6238470 140.8208940  67.0412110  10.4164430
 140.3216770  68.2153020  11.2314080 136.1543280  39.6340330 150.4745930
 136.0737330  38.7194940 150.2037640 135.7407700  40.1307400 149.7685640
 138.3068750  45.8179540 151.1354330 137.8450280  45.0466780 151.4641500
 139.1194300  45.8445610 151.6406780 126.7119100  36.6841050 147.0173350
 125.8235800  37.0257020 146.9153230 126.9960290  36.4841370 146.1254180
 134.5332060  48.1037550 150.7558320 133.9143500  48.5595050 150.1852760
 135.3883840  48.2589010 150.3548020 128.8880490  35.2672550 148.0511730
 128.9947240  36.1676280 148.3580490 127.9772850  35.2190520 147.7606380
 138.5399600  34.3897360 149.5222630 139.3609220  33.8993930 149.5648110
 138.5733680  34.9795020 150.2754470 135.3995410  42.9876790 148.1490230
 134.7812680  43.4526240 147.5852950 135.9118660  43.6804270 148.5659740
 124.7678610  43.6733320 145.5229860 124.3906590  44.1620420 144.7914760
 125.0251680  44.3458600 146.1536390 132.3767540  32.0749710 150.9815370
 132.6842520  31.5196600 150.2650870 131.4468240  32.2094170 150.7988360
 139.2228020  44.5133220 148.3613000 139.1124350  43.5707550 148.4862420
 139.2196270  44.8748860 149.2475760 134.7648300  40.1398540 147.7175490
 133.8377580  40.0735920 147.9463960 134.9173120  41.0778670 147.6030730
 134.7517380  36.4115540 144.7142650 133.8121050  36.5729500 144.7995110
 135.0700640  37.1301220 144.1678640 138.7945590  41.7018840 148.2210740
 138.1758010  41.3638390 147.5737040 138.7770040  41.0578600 148.9289930
 130.3704940  40.6663280 150.4995220 129.9661940  39.9540530 150.0041120
 130.4568060  40.3216520 151.3883260 136.9710290  40.9405650 145.2283490
 137.4103570  40.1028080 145.0821310 137.6838710  41.5735050 145.3147630
 135.0805670  45.8801720 149.1964730 135.5201580  46.6226050 148.7820120
 135.0192560  46.1228290 150.1203690 140.5527430  32.1948460 143.5424530
 140.2400090  32.2875290 144.4423600 141.3139900  32.7729490 143.4921960
 127.0709570  39.5608260 148.0001870 126.9507170  40.2870350 147.3883140
 126.7610460  38.7911170 147.5229780 125.9542570  44.4323590 150.2176690
 125.5470650  44.5738180 149.3630290 126.8455580  44.1483750 150.0147900
 137.7475850  48.8670840 146.5527740 137.5876990  48.5773780 147.4509570
 137.5822560  48.0910970 146.0172970 130.2264230  48.6469370 148.3299360
 130.0506710  47.7304910 148.1167160 129.3719970  49.0056660 148.5697160
 137.4501980  46.3758400 145.1125740 136.7567140  46.3735690 144.4528020
 138.1924840  45.9517720 144.6819910 137.0151910  48.0021110 149.1874230
 137.4708860  47.2210490 149.5012850 137.3544430  48.7127930 149.7315410
 129.5373230  32.9043330 151.3825540 129.0941380  33.6852870 151.0510060
 130.0958220  33.2273220 152.0896480 132.6532050  32.5254030 146.2631370
 132.0286230  32.5213900 146.9884680 132.5662170  31.6584990 145.8667340
 129.3287450  38.0276900 149.1106790 129.1028370  37.8114070 150.0153410
 128.5479980  38.4605360 148.7652760 136.5585210  38.0340270 147.7097440
 135.9594100  38.7576070 147.5261060 137.1064820  37.9717050 146.9273890
 135.1650080  36.6703810 149.7400720 135.5579650  36.9876010 148.9269410
 135.5266930  35.7915690 149.8545240 124.3884480  37.2024730 143.1733640
 124.3059150  38.1455490 143.3148630 124.0367540  37.0599640 142.2945990
 132.1882610  35.9363760 152.2403990 132.1918670  35.4953710 151.3908530
 133.0833730  36.2581090 152.3475810 128.0384990  35.8190250 151.1998200
 127.6985040  36.2965480 151.9565250 127.2762310  35.3655370 150.8399300
 132.2502760  36.9375840 145.2310750 132.3715580  36.8962320 146.1796570
 131.8651270  37.7999990 145.0757480 131.2624260  39.2476980 144.6294050
 130.6941160  38.7995230 144.0029960 131.9713260  39.6069760 144.0959200
 125.3531070  34.7409230 150.1162870 125.0677990  34.3764900 150.9541490
 125.2909930  34.0089690 149.5026010 128.8071740  43.2435170 146.9020460
 128.0334000  42.7032790 146.7419180 129.5366370  42.7241780 146.5638220
 135.0269660  33.6338490 146.8376240 134.2134270  33.1351660 146.7621550
 134.8331610  34.4736740 146.4212590 137.7418050  38.0058140 145.1338400
 138.6297670  38.3175370 144.9589740 137.7123140  37.1330390 144.7418980
 128.8509140  42.9115550 150.5399270 129.3687810  42.1083810 150.4856160
 128.3993160  42.8494690 151.3816100 133.7378640  44.1781830 145.8126570
 134.0794340  44.9224060 145.3169890 132.9091350  44.4912950 146.1751400
 140.0132320  39.3169980 144.6018260 139.9296040  39.7484200 143.7514700
 140.7326510  39.7768330 145.0345080 141.0419570  46.1712240 147.3300390
 140.3995730  45.5167860 147.6044110 140.6550230  46.5767330 146.5541060
 136.6206050  43.4997670 151.1772080 136.9729870  42.9025800 150.5173450
 135.7368380  43.1741900 151.3480330 132.7069330  44.2595360 148.5842490
 133.3940460  44.8064570 148.9650080 131.9201750  44.8036090 148.6192100
 124.8461730  39.8768180 144.0759570 125.7156580  40.1592980 144.3595490
 124.3552050  40.6904050 143.9608380 132.0096540  41.2641390 148.1967850
 132.4659320  42.0746640 148.4228040 131.6584750  40.9464530 149.0286340
 127.9108320  31.6079040 148.6690370 127.7822950  31.5996940 149.6175290
 127.0870340  31.9462130 148.3181380 139.4316950  45.0628700 143.8676740
 139.2054530  44.3459140 144.4601380 139.0413150  44.8141140 143.0298490
 125.2132980  49.0895560 144.6421200 125.5730620  49.6884900 143.9878470
 125.0725320  49.6355450 145.4156230 139.0133200  42.9800640 145.5290900
 138.7254900  43.4413330 146.3168780 139.8085370  42.5198410 145.7975120
 131.2301600  46.4726760 145.4594870 131.2211700  47.2056450 144.8439380
 130.3099960  46.2258340 145.5521830 126.8308240  41.6941650 146.2041630
 126.2236190  42.4340550 146.2136930 127.3057590  41.7841010 145.3779830
 139.7703060  34.8149410 146.6886080 139.1416220  34.9195080 145.9744310
 139.2754980  35.0346190 147.4779960 134.2161200  46.5355000 144.1220060
 134.3173180  46.3318990 143.1922040 133.3162940  46.2813280 144.3267840
 131.7387090  37.0935360 148.1043960 131.0303240  37.5621700 148.5457570
 132.0231570  36.4357370 148.7389150 135.7702520  33.8186020 149.5439750
 135.6470300  33.8372150 148.5949260 136.7187080  33.8664960 149.6638150
 132.8579310  49.0541320 148.8167730 133.1120810  49.0162710 147.8947100
 131.9091790  48.9274650 148.8095980 129.9422110  35.4020440 145.4794670
 130.7912640  35.8390590 145.4134860 129.5753380  35.7140700 146.3066730
 138.8631890  39.9733200 150.3926240 137.9222030  39.9883430 150.5673930
 139.1775960  39.1869160 150.8386540 128.8413530  41.6552800 143.9530200
 129.6076800  41.5434160 144.5155630 128.9188220  40.9590770 143.3006970
 127.5360290  39.0877870 144.6363090 127.6163880  38.1405380 144.7480490
 128.4280040  39.4184750 144.7423750 128.3375000  49.2373260 151.7397630
 129.0737480  48.6888720 152.0106200 128.7215920  50.1029270 151.6003620
 125.2220480  45.3046830 147.6139140 124.2960260  45.5467970 147.6044550
 125.6876910  46.1321090 147.4923890 131.4477310  48.4103570 143.5623200
 132.2405920  48.6992400 143.1104990 130.9281660  47.9795740 142.8835680
 140.5007480  47.6373700 144.9859940 140.2148990  47.2238840 144.1714120
 140.3027030  48.5661410 144.8660460 131.9654710  43.6306980 143.4265550
 131.8605350  43.0159330 144.1526930 131.7978930  43.1072870 142.6428560
 135.2057440  42.6927010 144.0307540 134.6567540  43.1396310 144.6750280
 135.8276700  42.1876260 144.5545210 130.8732560  41.6517930 145.9272840
 131.2948980  41.4857800 146.7704230 130.9983400  40.8418160 145.4327980
 133.3860200  40.6755540 143.1749940 133.9065860  39.9604560 142.8091090
 134.0328600  41.3141410 143.4750450 129.7691460  37.7251160 142.8731000
 129.5680520  36.8618520 143.2344340 129.5983510  37.6384520 141.9352600
 137.2479770  32.5359390 145.4017880 137.5282060  31.6927290 145.7577300
 136.4745500  32.7682500 145.9156630 128.5674260  34.8251780 142.8608880
 128.8700160  34.8319210 141.9528030 129.3068850  34.4749640 143.3576540
 131.7859190  33.7686400 143.8465080 131.4381190  33.0910390 143.2667530
 131.9871960  33.3075910 144.6608470 133.9508230  48.7567150 145.4651680
 134.8459020  49.0952120 145.4870440 133.9825860  48.0346560 144.8375960
 127.5904390  44.1294200 143.6938680 128.0279260  44.6723870 144.3496260
 128.0752120  43.3041150 143.7035020 124.8050190  46.9183230 151.1458940
 125.1353200  46.0504290 150.9137580 125.2341190  47.1241750 151.9763900
 129.4012110  45.2492240 148.8060910 129.1007650  45.1257210 149.7064820
 129.2949600  44.3900830 148.3976640 142.1704030  45.0288640 143.5087590
 141.3396990  45.0965290 143.9794820 142.3475860  45.9192760 143.2054450
 141.6260490  41.7736120 146.0121790 142.3879400  42.3432770 146.1181480
 141.6414860  41.2063320 146.7830100 125.1264830  40.2974050 150.2429450
 124.4713670  40.0285690 149.5989150 125.9642780  40.1878530 149.7931430
 142.6320460  42.6286220 150.8563720 143.0029290  41.8453540 150.4499690
 143.2722390  43.3175320 150.6781020 141.6779660  42.0670490 143.1694310
 141.9528500  42.9749370 143.0413530 141.4890400  42.0033020 144.1056300
 138.0755270  35.0915340 144.4647940 138.4940150  34.9046320 143.6244600
 137.7691330  34.2394390 144.7750870 141.5745000  40.0039480 148.1623740
 141.1988600  39.2367410 147.7305030 140.8448120  40.3862180 148.6498670
 124.3402910  37.5072980 146.1854780 123.4366990  37.7703180 146.0106440
 124.8243530  37.7784150 145.4054740 140.8495960  38.2296970 151.4630980
 141.3733440  37.7359620 150.8321150 141.4355380  38.3647330 152.2078550
 126.8830120  36.5638520 144.0949160 127.5921820  36.1421740 143.6096440
 126.1670060  36.6313750 143.4632510 126.5304280  32.6177850 143.1351810
 127.2532410  33.1586790 143.4533030 126.8028800  32.3441270 142.2593350
 140.3395930  37.4870320 147.4023390 140.8355050  37.2541190 148.1872270
 140.1412000  36.6482160 146.9861030 141.7683090  36.1231270 149.9361070
 141.6582370  35.9687310 150.8743340 142.5290680  35.5952210 149.6936480
 142.6573360  33.9539190 143.1767210 143.5822670  33.8220370 142.9685500
 142.6349150  34.0332010 144.1303660 142.7311850  34.7249850 145.8023920
 141.9363350  34.6594970 146.3316830 142.9355130  35.6600490 145.7909270
 139.6730270  48.7641400 149.7962310 140.2689340  48.4425970 149.1196730
 139.9308420  48.2913220 150.5875580 139.1631780  33.0546730 152.2522750
 139.6039870  32.9991830 151.4044350 138.8939370  33.9704740 152.3232930
 141.0270350  32.6861970 150.2631570 140.9658750  31.7423190 150.1162590
 141.8062380  32.7942060 150.8085030 125.3323100  48.8254330 149.2255520
 125.1645140  48.1925010 149.9237410 124.4657610  49.0313730 148.8749710
 125.9551120  32.6571110 146.7287380 126.7130480  32.7699990 146.1551410
 125.4928290  33.4940310 146.6830810 132.4964930  34.7710380 149.7189690
 131.6839440  34.3967270 149.3785570 133.0006570  34.0155460 150.0210880
 136.9989910  31.4352830 150.9572760 137.6019280  32.0073040 151.4321280
 136.2582900  31.9992270 150.7346660 140.1424510  31.8374390 146.2313040
 140.3375140  32.7357840 146.4980470 139.3554380  31.6061470 146.7245990
 126.9385800  47.5187560 146.6705660 126.4133420  47.8995590 145.9667620
 126.8630380  48.1438330 147.3915370 128.3276270  33.1835160 145.2689350
 128.8569030  32.3964960 145.1397300 128.9604590  33.8626350 145.5024880
 130.5214110  32.9210300 148.3234740 129.8916850  32.2197610 148.4904870
 129.9819250  33.6814430 148.1067900 141.6951120  49.0775100 147.9919600
 141.8703310  48.3912840 147.3480520 140.9972690  49.6022150 147.5996270
 129.5378770  49.4669940 145.5454910 130.2697590  49.1829220 144.9978800
 129.7972440  49.2283220 146.4354290 128.6993560  45.5834670 145.5501240
 128.0702440  46.0519770 146.0987070 128.8141390  44.7383890 145.9847430
 136.1543280  39.6340330 131.7002440 136.0737330  38.7194940 131.4294150
 135.7407700  40.1307400 130.9942150 134.2861320  41.4119350 133.5811710
 133.5103420  40.9319790 133.8710280 134.9374250  40.7325000 133.4067870
 128.3027150  41.7239160 134.4587470 127.4712030  41.4687870 134.8583980
 128.9108130  41.7949930 135.1945390 138.3068750  45.8179540 132.3610840
 137.8450280  45.0466780 132.6898010 139.1194300  45.8445610 132.8663290
 128.2828410  45.7579250 134.6545490 128.5856450  44.8676990 134.4755710
 129.0272000  46.3149470 134.4267740 126.7119100  36.6841050 128.2429860
 125.8235800  37.0257020 128.1409740 126.9960290  36.4841370 127.3510690
 124.6752110  39.2846700 134.1269560 125.2468220  38.5168900 134.1273200
 124.6753650  39.5835460 133.2176170 134.5332060  48.1037550 131.9814830
 133.9143500  48.5595050 131.4109270 135.3883840  48.2589010 131.5804530
 133.7270310  44.0876540 133.5881870 133.6578590  43.1466480 133.4271000
 134.4890170  44.1777950 134.1604440 125.9176980  34.6931060 135.9138490
 125.7379820  33.7956810 136.1941250 125.5157060  35.2402930 136.5885440
 134.7575480  36.8946920 133.8150800 135.1340300  36.0218800 133.7024470
 134.6594990  37.2305620 132.9241240 128.8880490  35.2672550 129.2768240
 128.9947240  36.1676280 129.5837000 127.9772850  35.2190520 128.9862890
 138.5399600  34.3897360 130.7479140 139.3609220  33.8993930 130.7904620
 138.5733680  34.9795020 131.5010980 126.5363650  37.1891560 134.5220830
 127.2173760  37.4529930 135.1408230 126.2211700  36.3492430 134.8558840
 130.7288220  38.2358920 133.6093420 131.2366440  38.7339890 134.2498440
 131.2601460  37.4594120 133.4332780 142.8299150  36.4064110 137.3122770
 142.1251320  36.7945820 136.7937880 143.0957070  37.1014400 137.9143700
 129.0124320  32.8757480 137.8756840 129.0142760  33.3929870 137.0702740
 128.1828630  32.3987660 137.8526770 135.3995410  42.9876790 129.3746740
 134.7812680  43.4526240 128.8109460 135.9118660  43.6804270 129.7916250
 130.2627170  42.5152660 136.0530340 129.9296550  43.1421580 136.6951410
 130.4393850  43.0414540 135.2732010 138.7761080  36.3297740 133.5206680
 138.0716650  36.6182630 134.1009790 139.1373240  37.1397850 133.1606240
 128.6939650  34.5867440 135.8827290 129.0356460  35.4309490 135.5881160
 127.7555460  34.7351180 135.9992630 129.4746270  44.4833460 137.8679520
 130.0920270  45.1584540 137.5863970 128.6139390  44.8921440 137.7767020
 124.7678610  43.6733320 126.7486370 124.3906590  44.1620420 126.0171270
 125.0251680  44.3458600 127.3792900 140.3923860  45.9472870 135.7834160
 139.7087380  46.6171980 135.7750830 140.9318150  46.1453520 135.0179020
 141.8448000  35.7752530 133.9115890 140.8972910  35.8091510 134.0431320
 142.1697990  36.5891480 134.2965250 132.3767540  32.0749710 132.2071880
 132.6842520  31.5196600 131.4907380 131.4468240  32.2094170 132.0244870
 137.9282600  47.7917000 134.4979340 137.9409760  47.3879290 133.6301600
 137.3757820  48.5664290 134.3940770 139.2228020  44.5133220 129.5869510
 139.1124350  43.5707550 129.7118930 139.2196270  44.8748860 130.4732270
 137.3268040  42.6946840 135.8261950 137.7436830  42.4806950 134.9915410
 138.0507860  42.9519630 136.3970570 134.7648300  40.1398540 128.9432000
 133.8377580  40.0735920 129.1720470 134.9173120  41.0778670 128.8287240
 134.7517380  36.4115540 125.9399160 133.8121050  36.5729500 126.0251620
 135.0700640  37.1301220 125.3935150 141.2730140  41.0934060 135.9178190
 140.4448770  41.1627150 135.4428320 141.8680620  41.6788370 135.4494020
 138.7945590  41.7018840 129.4467250 138.1758010  41.3638390 128.7993550
 138.7770040  41.0578600 130.1546440 138.2372150  37.8803380 136.8633060
 137.8243330  38.7057090 137.1173050 137.5048100  37.2948420 136.6709420
 130.3704940  40.6663280 131.7251730 129.9661940  39.9540530 131.2297630
 130.4568060  40.3216520 132.6139770 130.8386640  44.3530840 133.8890940
 130.5414930  43.7476310 133.2098720 131.7886460  44.3908150 133.7780300
 129.0833560  37.4406490 135.5050770 129.6348150  37.5501830 134.7304020
 129.5977070  37.8144090 136.2206000 138.9272250  47.9262710 137.5514040
 138.4502810  48.7334900 137.3586650 138.2434040  47.2741040 137.7040250
 129.9305070  44.0912530 140.5398740 129.0333600  44.3152500 140.7872140
 129.9557940  44.2147470 139.5910140 136.9710290  40.9405650 126.4540000
 137.4103570  40.1028080 126.3077820 137.6838710  41.5735050 126.5404140
 128.7576290  40.9625850 139.1156110 128.6184060  41.8348650 139.4843510
 127.8757650  40.6198660 138.9704050 135.0805670  45.8801720 130.4221240
 135.5201580  46.6226050 130.0076630 135.0192560  46.1228290 131.3460200
 130.5556640  46.9047550 141.3241260 130.5272070  47.3090500 140.4569690
 130.3921610  45.9757910 141.1612860 140.5527430  32.1948460 124.7681040
 140.2400090  32.2875290 125.6680110 141.3139900  32.7729490 124.7178470
 127.0709570  39.5608260 129.2258380 126.9507170  40.2870350 128.6139650
 126.7610460  38.7911170 128.7486290 142.5071460  47.6874650 142.6205430
 142.9831180  48.1657540 143.2994510 143.1278620  47.6192140 141.8950930
 124.7094940  42.7323400 135.0327020 124.7875360  42.8672170 134.0882740
 125.3236620  42.0239290 135.2255140 125.9542570  44.4323590 131.4433200
 125.5470650  44.5738180 130.5886800 126.8455580  44.1483750 131.2404410
 141.9104710  44.8787500 139.7805440 142.0367770  44.6399380 138.8622620
 141.9526090  44.0472040 140.2527520 135.7721450  48.5815500 138.3500250
 136.2866120  48.4923510 139.1522680 134.9290530  48.9275200 138.6428160
 137.7475850  48.8670840 127.7784250 137.5876990  48.5773780 128.6766080
 137.5822560  48.0910970 127.2429480 130.2264230  48.6469370 129.5555870
 130.0506710  47.7304910 129.3423670 129.3719970  49.0056660 129.7953670
 137.4501980  46.3758400 126.3382250 136.7567140  46.3735690 125.6784530
 138.1924840  45.9517720 125.9076420 137.0151910  48.0021110 130.4130740
 137.4708860  47.2210490 130.7269360 137.3544430  48.7127930 130.9571920
 141.7628720  36.9319960 140.7455180 141.1472990  37.4399630 140.2170640
 141.4425140  36.0318290 140.6881120 124.7654460  43.7737570 137.5721480
 124.9285500  43.3042930 136.7540850 125.2306910  43.2661130 138.2370320
 129.5373230  32.9043330 132.6082050 129.0941380  33.6852870 132.2766570
 130.0958220  33.2273220 133.3152990 133.8243040  35.7711850 138.2117370
 133.3622410  35.9794870 139.0237310 133.4221150  34.9571200 137.9088040
 138.8247550  36.9920800 139.3414030 137.9741140  36.6926550 139.6623100
 138.6649340  37.2362810 138.4297850 135.9197260  38.4922550 141.4412820
 136.2450670  37.6586300 141.1015050 136.7077590  39.0151070 141.5891150
 132.6532050  32.5254030 127.4887880 132.0286230  32.5213900 128.2141190
 132.5662170  31.6584990 127.0923850 131.5749130  33.4490660 134.4671650
 131.8721460  34.3553490 134.3863670 132.1234690  32.9609440 133.8531220
 129.3287450  38.0276900 130.3363300 129.1028370  37.8114070 131.2409920
 128.5479980  38.4605360 129.9909270 136.5585210  38.0340270 128.9353950
 135.9594100  38.7576070 128.7517570 137.1064820  37.9717050 128.1530400
 131.7686660  38.9262480 141.0023570 131.6730260  37.9857210 140.8523970
 132.6118640  39.1477550 140.6071640 135.1650080  36.6703810 130.9657230
 135.5579650  36.9876010 130.1525920 135.5266930  35.7915690 131.0801750
 126.8997200  35.3376150 139.1557350 126.5060590  36.1851360 139.3630130
 126.2115600  34.7002520 139.3465990 133.4742250  35.4211120 142.2254090
 132.7840570  35.2283320 142.8600180 134.2174550  35.7045760 142.7578390
 124.2014250  33.2604610 133.1887430 123.9127300  33.8307470 133.9012410
 124.9460010  32.7809060 133.5518660 124.3884480  37.2024730 124.3990150
 124.3059150  38.1455490 124.5405140 124.0367540  37.0599640 123.5202500
 135.7505220  39.2609560 135.0608010 135.0186340  39.7696370 135.4098110
 135.3529560  38.4439540 134.7596790 132.1882610  35.9363760 133.4660500
 132.1918670  35.4953710 132.6165040 133.0833730  36.2581090 133.5732320
 128.0384990  35.8190250 132.4254710 127.6985040  36.2965480 133.1821760
 127.2762310  35.3655370 132.0655810 132.2502760  36.9375840 126.4567260
 132.3715580  36.8962320 127.4053080 131.8651270  37.7999990 126.3013990
 136.2131130  34.7143240 134.4730950 136.2303870  35.1651890 135.3172800
 135.9646710  33.8148880 134.6864390 131.2624260  39.2476980 125.8550560
 130.6941160  38.7995230 125.2286470 131.9713260  39.6069760 125.3215710
 139.6401880  32.1275420 140.3117330 139.9647650  31.3965080 140.8375310
 139.6758390  31.8089060 139.4098320 126.3393440  43.1489000 139.7317290
 125.9548230  42.5082670 140.3300250 126.6505630  43.8525120 140.3012020
 132.4890580  39.9965540 135.2125910 132.8560710  39.5224110 135.9587250
 132.2995640  40.8707110 135.5534250 125.3531070  34.7409230 131.3419380
 125.0677990  34.3764900 132.1798000 125.2909930  34.0089690 130.7282520
 130.2789950  39.0374180 137.5310120 129.9747020  39.9166160 137.7560480
 131.2336410  39.0973970 137.5667560 128.8071740  43.2435170 128.1276970
 128.0334000  42.7032790 127.9675690 129.5366370  42.7241780 127.7894730
 139.5659720  42.2400530 133.9203360 140.2858840  42.7355820 133.5299470
 139.3641540  41.5618420 133.2757230 135.0269660  33.6338490 128.0632750
 134.2134270  33.1351660 127.9878060 134.8331610  34.4736740 127.6469100
 134.9478520  42.3109590 139.8072360 134.8815830  41.3905260 139.5529950
 134.3183660  42.4085030 140.5217000 137.7418050  38.0058140 126.3594910
 138.6297670  38.3175370 126.1846250 137.7123140  37.1330390 125.9675490
 128.8509140  42.9115550 131.7655780 129.3687810  42.1083810 131.7112670
 128.3993160  42.8494690 132.6072610 133.7378640  44.1781830 127.0383080
 134.0794340  44.9224060 126.5426400 132.9091350  44.4912950 127.4007910
 126.3353680  39.8776920 138.6781480 125.9768620  40.5430770 139.2654820
 126.0408240  39.0460470 139.0494100 129.5366800  40.3361160 141.5621030
 129.2366940  40.4818340 140.6648850 130.3078040  39.7766450 141.4694420
 134.8795250  45.1330160 139.5576160 134.8939790  44.2011120 139.3395070
 134.1720350  45.2189920 140.1965930 140.0132320  39.3169980 125.8274770
 139.9296040  39.7484200 124.9771210 140.7326510  39.7768330 126.2601590
 141.0906460  41.7737500 138.9044740 140.3654650  42.3666280 138.7074130
 141.6181920  41.7661040 138.1058110 141.0419570  46.1712240 128.5556900
 140.3995730  45.5167860 128.8300620 140.6550230  46.5767330 127.7797570
 136.6206050  43.4997670 132.4028590 136.9729870  42.9025800 131.7429960
 135.7368380  43.1741900 132.5736840 132.7069330  44.2595360 129.8099000
 133.3940460  44.8064570 130.1906590 131.9201750  44.8036090 129.8448610
 124.8461730  39.8768180 125.3016080 125.7156580  40.1592980 125.5852000
 124.3552050  40.6904050 125.1864890 132.0096540  41.2641390 129.4224360
 132.4659320  42.0746640 129.6484550 131.6584750  40.9464530 130.2542850
 134.3129150  46.7747730 136.6516660 134.9571370  46.9807110 137.3290080
 134.6758590  46.0136130 136.1987510 127.9108320  31.6079040 129.8946880
 127.7822950  31.5996940 130.8431800 127.0870340  31.9462130 129.5437890
 135.5861230  44.7780080 135.3694110 136.2283460  44.0773240 135.4826280
 136.1110580  45.5578520 135.1891000 139.4316950  45.0628700 125.0933250
 139.2054530  44.3459140 125.6857890 139.0413150  44.8141140 124.2555000
 137.3598850  45.5774980 138.5730170 137.6955090  46.1641670 139.2508090
 136.4399190  45.4467690 138.8027960 125.2132980  49.0895560 125.8677710
 125.5730620  49.6884900 125.2134980 125.0725320  49.6355450 126.6412740
 124.9102250  33.3670160 139.3553580 124.1960770  33.5667080 139.9606190
 125.3297290  32.5909730 139.7268380 139.0133200  42.9800640 126.7547410
 138.7254900  43.4413330 127.5425290 139.8085370  42.5198410 127.0231630
 125.1974840  47.3550420 140.3420110 125.3065960  46.4145160 140.2015500
 124.5455400  47.6205170 139.6933840 133.1887430  45.6266310 141.7418230
 132.8684300  44.9075550 142.2863920 132.5145790  46.3021380 141.8154290
 131.2301600  46.4726760 126.6851380 131.2211700  47.2056450 126.0695890
 130.3099960  46.2258340 126.7778340 126.8308240  41.6941650 127.4298140
 126.2236190  42.4340550 127.4393440 127.3057590  41.7841010 126.6036340
 136.4041030  35.8592470 137.1055030 136.7721850  35.0387680 137.4334600
 135.5439230  35.9194360 137.5210680 139.7703060  34.8149410 127.9142590
 139.1416220  34.9195080 127.2000820 139.2754980  35.0346190 128.7036470
 134.2161200  46.5355000 125.3476570 134.3173180  46.3318990 124.4178550
 133.3162940  46.2813280 125.5524350 131.7387090  37.0935360 129.3300470
 131.0303240  37.5621700 129.7714080 132.0231570  36.4357370 129.9645660
 133.3643020  38.5132060 137.3293000 133.8628270  38.9877880 137.9944850
 133.5065970  37.5895580 137.5363030 135.7702520  33.8186020 130.7696260
 135.6470300  33.8372150 129.8205770 136.7187080  33.8664960 130.8894660
 132.8579310  49.0541320 130.0424240 133.1120810  49.0162710 129.1203610
 131.9091790  48.9274650 130.0352490 129.9422110  35.4020440 126.7051180
 130.7912640  35.8390590 126.6391370 129.5753380  35.7140700 127.5323240
 140.5709880  34.7300020 138.1721390 140.0683480  35.4705420 138.5115200
 141.3866540  35.1184020 137.8558180 138.8631890  39.9733200 131.6182750
 137.9222030  39.9883430 131.7930440 139.1775960  39.1869160 132.0643050
 128.8413530  41.6552800 125.1786710 129.6076800  41.5434160 125.7412140
 128.9188220  40.9590770 124.5263480 127.5360290  39.0877870 125.8619600
 127.6163880  38.1405380 125.9737000 128.4280040  39.4184750 125.9680260
 140.8657470  47.1442050 133.2937010 140.9904890  47.9673220 133.7660820
 141.7323030  46.9332780 132.9461160 128.3375000  49.2373260 132.9654140
 129.0737480  48.6888720 133.2362710 128.7215920  50.1029270 132.8260130
 125.2220480  45.3046830 128.8395650 124.2960260  45.5467970 128.8301060
 125.6876910  46.1321090 128.7180400 127.3433280  48.4219330 142.1539720
 128.1446010  48.7431380 142.5675120 126.8285100  48.0614910 142.8759630
 131.4477310  48.4103570 124.7879710 132.2405920  48.6992400 124.3361500
 130.9281660  47.9795740 124.1092190 136.1797910  44.5299200 142.1015130
 135.5736070  44.5530800 141.3610880 135.8752020  43.7982240 142.6382380
 137.6098280  48.2579490 140.7124540 138.5620030  48.1737510 140.6624780
 137.4626500  48.9221200 141.3858330 140.5007480  47.6373700 126.2116450
 140.2148990  47.2238840 125.3970630 140.3027030  48.5661410 126.0916970
 125.0631090  40.9092790 141.0975770 125.5670110  40.3300070 141.6692000
 124.3238510  41.1933020 141.6352140 131.9654710  43.6306980 124.6522060
 131.8605350  43.0159330 125.3783440 131.7978930  43.1072870 123.8685070
 132.1169030  42.3163780 140.6311290 131.3514700  42.8848780 140.5465960
 132.2984990  42.0239990 139.7379520 135.2057440  42.6927010 125.2564050
 134.6567540  43.1396310 125.9006790 135.8276700  42.1876260 125.7801720
 139.2592380  44.0469110 141.1886310 140.0001850  44.3844870 140.6853770
 138.4965060  44.2161170 140.6356080 127.0954170  39.0522380 141.9925840
 127.1359510  38.7536250 142.9011070 127.9499670  39.4529990 141.8333360
 130.8732560  41.6517930 127.1529350 131.2948980  41.4857800 127.9960740
 130.9983400  40.8418160 126.6584490 129.0359980  37.6314480 139.9600330
 128.5056440  37.1405430 139.3323670 129.7048050  38.0598680 139.4258260
 133.3860200  40.6755540 124.4006450 133.9065860  39.9604560 124.0347600
 134.0328600  41.3141410 124.7006960 137.9338040  42.0983940 139.7241520
 138.3479060  42.2529020 140.5731940 136.9989040  42.2239160 139.8867300
 138.4060210  39.4380100 141.7280670 138.9880980  38.6832420 141.6401150
 138.5821980  39.9687540 140.9512150 129.5232280  34.5976850 140.0397620
 129.4289150  33.9797600 139.3148490 128.9429670  35.3243140 139.8127530
 132.2893720  33.1550090 137.0725010 131.8411020  33.1774350 136.2270560
 131.6558920  32.7569110 137.6695310 132.6953270  42.0504420 137.6937450
 133.1141380  42.8937150 137.5213690 131.7761900  42.1876460 137.4644230
 135.0317170  39.7820600 139.0775290 135.1513380  39.1861740 139.8170130
 135.8911170  39.8190290 138.6576590 137.3705070  40.3357790 137.6537800
 136.8440290  40.8600410 137.0502940 137.7136410  40.9685180 138.2847530
 129.7691460  37.7251160 124.0987510 129.5680520  36.8618520 124.4600850
 129.5983510  37.6384520 123.1609110 130.5460690  48.3557430 138.8095180
 130.0081780  49.0803490 138.4903880 130.7994650  47.8787770 138.0192520
 131.7985940  36.3241950 140.3351110 132.3885630  36.0157800 141.0228930
 130.9806180  35.8521700 140.4911010 136.6179370  35.9407760 140.5684130
 135.9294890  35.2789300 140.5034120 137.3385390  35.4946030 141.0132590
 137.2479770  32.5359390 126.6274390 137.5282060  31.6927290 126.9833810
 136.4745500  32.7682500 127.1413140 128.5674260  34.8251780 124.0865390
 128.8700160  34.8319210 123.1784540 129.3068850  34.4749640 124.5833050
 133.4022900  49.5908640 139.0681830 133.3281600  50.4943780 139.3754200
 132.5001740  49.2720540 139.0403900 131.7859190  33.7686400 125.0721590
 131.4381190  33.0910390 124.4924040 131.9871960  33.3075910 125.8864980
 133.9508230  48.7567150 126.6908190 134.8459020  49.0952120 126.7126950
 133.9825860  48.0346560 126.0632470 127.5904390  44.1294200 124.9195190
 128.0279260  44.6723870 125.5752770 128.0752120  43.3041150 124.9291530
 124.8050190  46.9183230 132.3715450 125.1353200  46.0504290 132.1394090
 125.2341190  47.1241750 133.2020410 129.4012110  45.2492240 130.0317420
 129.1007650  45.1257210 130.9321330 129.2949600  44.3900830 129.6233150
 125.2940400  47.7853820 135.1097080 124.8571390  47.9654620 135.9421230
 125.8618080  48.5428440 134.9678800 140.9302580  47.2870820 139.3974390
 140.3304570  47.3463380 138.6538310 141.0596480  46.3475800 139.5271240
 142.1704030  45.0288640 124.7344100 141.3396990  45.0965290 125.2051330
 142.3475860  45.9192760 124.4310960 141.6260490  41.7736120 127.2378300
 142.3879400  42.3432770 127.3437990 141.6414860  41.2063320 128.0086610
 125.1264830  40.2974050 131.4685960 124.4713670  40.0285690 130.8245660
 125.9642780  40.1878530 131.0187940 142.6320460  42.6286220 132.0820230
 143.0029290  41.8453540 131.6756200 143.2722390  43.3175320 131.9037530
 139.6154220  44.0122800 137.4950550 138.8014060  44.4419960 137.7576340
 140.0228420  44.6241210 136.8819600 141.6779660  42.0670490 124.3950820
 141.9528500  42.9749370 124.2670040 141.4890400  42.0033020 125.3312810
 138.0755270  35.0915340 125.6904450 138.4940150  34.9046320 124.8501110
 137.7691330  34.2394390 126.0007380 141.5745000  40.0039480 129.3880250
 141.1988600  39.2367410 128.9561540 140.8448120  40.3862180 129.8755180
 126.1640760  40.6826620 136.0089300 126.5313800  40.5954020 136.8885320
 125.5951580  39.9193170 135.9096160 140.9644620  39.1511000 139.0219770
 140.7330710  38.9223750 138.1217720 141.2249170  40.0710550 138.9764660
 125.7156760  37.5935710 139.9147720 124.8212810  37.5602470 140.2541430
 126.2554310  37.7922500 140.6798970 139.4032690  34.3767430 141.7999470
 140.2802870  34.3850830 142.1833470 139.4153530  33.6398270 141.1891820
 124.3402910  37.5072980 127.4111290 123.4366990  37.7703180 127.2362950
 124.8243530  37.7784150 126.6311250 140.8495960  38.2296970 132.6887490
 141.3733440  37.7359620 132.0577660 141.4355380  38.3647330 133.4335060
 141.0285680  38.3136840 136.2107040 140.0788390  38.2800380 136.3252030
 141.2098690  39.2236950 135.9756810 126.8830120  36.5638520 125.3205670
 127.5921820  36.1421740 124.8352950 126.1670060  36.6313750 124.6889020
 126.5304280  32.6177850 124.3608320 127.2532410  33.1586790 124.6789540
 126.8028800  32.3441270 123.4849860 140.3395930  37.4870320 128.6279900
 140.8355050  37.2541190 129.4128780 140.1412000  36.6482160 128.2117540
 126.2196470  31.8684040 134.2630940 126.8672660  31.3181420 133.8226100
 126.6398310  32.1227190 135.0846750 141.7683090  36.1231270 131.1617580
 141.6582370  35.9687310 132.0999850 142.5290680  35.5952210 130.9192990
 140.1148810  32.0625400 137.6200580 140.7521030  32.6759540 137.9859770
 140.2623700  32.0986060 136.6749810 142.6573360  33.9539190 124.4023720
 143.5822670  33.8220370 124.1942010 142.6349150  34.0332010 125.3560170
 142.7311850  34.7249850 127.0280430 141.9363350  34.6594970 127.5573340
 142.9355130  35.6600490 127.0165780 139.6730270  48.7641400 131.0218820
 140.2689340  48.4425970 130.3453240 139.9308420  48.2913220 131.8132090
 125.9728470  32.0239710 137.0056260 125.6243290  32.4803530 137.7714440
 125.6416170  31.1296840 137.0878690 127.5792840  45.1959310 141.1709450
 127.5362470  44.8252220 142.0523910 127.7103850  46.1336880 141.3111270
 131.2798870  46.7518900 136.7719170 131.0390230  47.0193460 135.8849690
 132.2201510  46.9224630 136.8270030 133.4853290  33.2151590 140.5275680
 133.4242180  33.8073420 141.2771090 134.4253670  33.1077550 140.3825940
 136.1227850  32.8721650 140.1667970 136.7368260  33.1900940 139.5049050
 136.6677410  32.3870240 140.7863830 142.5403030  48.7713280 137.5729810
 142.0461310  49.1682150 136.8556940 141.9316320  48.1462490 137.9667090
 126.6449110  31.5515910 140.2807030 127.1932100  31.3703960 139.5173140
 126.7104420  30.7610020 140.8163340 127.4180870  48.1421560 138.2907230
 126.8241190  48.0106260 139.0297270 127.4104710  47.3059700 137.8249330
 136.8635890  31.4353790 136.4937260 135.9895730  31.7688900 136.2910190
 136.7546640  30.9626970 137.3189130 137.7707870  33.6424660 137.8778980
 137.4421230  32.8276420 137.4980710 138.7190170  33.5994470 137.7544670
 140.2242480  49.4136700 134.8516550 139.7645450  50.1652510 134.4774570
 139.5954940  48.6943170 134.7931350 127.0493100  45.5079940 137.2415270
 126.3227160  44.8885230 137.1741220 127.1102250  45.9020550 136.3713350
 130.6538200  47.7224940 134.0264680 131.1703220  47.1112300 133.5012940
 131.3035580  48.2253720 134.5175690 133.3933700  48.6133430 134.8533660
 133.6811510  48.3587730 133.9766670 133.9056920  48.0610790 135.4439230
 134.6110710  32.3523630 135.4330170 133.8282500  32.8269130 135.7126930
 134.3173640  31.4478460 135.3243350 139.1631780  33.0546730 133.4779260
 139.6039870  32.9991830 132.6300860 138.8939370  33.9704740 133.5489440
 141.0270350  32.6861970 131.4888080 140.9658750  31.7423190 131.3419100
 141.8062380  32.7942060 132.0341540 125.3323100  48.8254330 130.4512030
 125.1645140  48.1925010 131.1493920 124.4657610  49.0313730 130.1006220
 125.9551120  32.6571110 127.9543890 126.7130480  32.7699990 127.3807920
 125.4928290  33.4940310 127.9087320 132.4964930  34.7710380 130.9446200
 131.6839440  34.3967270 130.6042080 133.0006570  34.0155460 131.2467390
 136.9989910  31.4352830 132.1829270 137.6019280  32.0073040 132.6577790
 136.2582900  31.9992270 131.9603170 140.1424510  31.8374390 127.4569550
 140.3375140  32.7357840 127.7236980 139.3554380  31.6061470 127.9502500
 126.9385800  47.5187560 127.8962170 126.4133420  47.8995590 127.1924130
 126.8630380  48.1438330 128.6171880 128.3276270  33.1835160 126.4945860
 128.8569030  32.3964960 126.3653810 128.9604590  33.8626350 126.7281390
 130.5214110  32.9210300 129.5491250 129.8916850  32.2197610 129.7161380
 129.9819250  33.6814430 129.3324410 133.4606060  49.5349530 142.2201860
 134.3873370  49.2993800 142.2637820 133.4456490  50.3621530 141.7387890
 141.6951120  49.0775100 129.2176110 141.8703310  48.3912840 128.5737030
 140.9972690  49.6022150 128.8252780 130.6469670  32.1994280 141.9843740
 130.3653940  32.7027880 141.2204560 131.0289370  31.4016030 141.6185870
 129.5378770  49.4669940 126.7711420 130.2697590  49.1829220 126.2235310
 129.7972440  49.2283220 127.6610800 128.6993560  45.5834670 126.7757750
 128.0702440  46.0519770 127.3243580 128.8141390  44.7383890 127.2103940
 137.2485130  31.6147860 142.5624210 137.1350580  31.9342470 143.4575730
 138.0654870  32.0160370 142.2661490 140.0283620  48.7619390 142.0442900
 140.8208940  48.2668620 141.8368860 140.3216770  49.4409530 142.6518510
 136.1543280  39.6340330 112.9258950 136.0737330  38.7194940 112.6550660
 135.7407700  40.1307400 112.2198660 134.2861320  41.4119350 114.8068220
 133.5103420  40.9319790 115.0966790 134.9374250  40.7325000 114.6324380
 128.3027150  41.7239160 115.6843980 127.4712030  41.4687870 116.0840490
 128.9108130  41.7949930 116.4201900 138.3068750  45.8179540 113.5867350
 137.8450280  45.0466780 113.9154520 139.1194300  45.8445610 114.0919800
 128.2828410  45.7579250 115.8802000 128.5856450  44.8676990 115.7012220
 129.0272000  46.3149470 115.6524250 126.7119100  36.6841050 109.4686370
 125.8235800  37.0257020 109.3666250 126.9960290  36.4841370 108.5767200
 124.6752110  39.2846700 115.3526070 125.2468220  38.5168900 115.3529710
 124.6753650  39.5835460 114.4432680 134.5332060  48.1037550 113.2071340
 133.9143500  48.5595050 112.6365780 135.3883840  48.2589010 112.8061040
 133.7270310  44.0876540 114.8138380 133.6578590  43.1466480 114.6527510
 134.4890170  44.1777950 115.3860950 125.9176980  34.6931060 117.1395000
 125.7379820  33.7956810 117.4197760 125.5157060  35.2402930 117.8141950
 134.7575480  36.8946920 115.0407310 135.1340300  36.0218800 114.9280980
 134.6594990  37.2305620 114.1497750 128.8880490  35.2672550 110.5024750
 128.9947240  36.1676280 110.8093510 127.9772850  35.2190520 110.2119400
 138.5399600  34.3897360 111.9735650 139.3609220  33.8993930 112.0161130
 138.5733680  34.9795020 112.7267490 126.5363650  37.1891560 115.7477340
 127.2173760  37.4529930 116.3664740 126.2211700  36.3492430 116.0815350
 130.7288220  38.2358920 114.8349930 131.2366440  38.7339890 115.4754950
 131.2601460  37.4594120 114.6589290 142.8299150  36.4064110 118.5379280
 142.1251320  36.7945820 118.0194390 143.0957070  37.1014400 119.1400210
 129.0124320  32.8757480 119.1013350 129.0142760  33.3929870 118.2959250
 128.1828630  32.3987660 119.0783280 135.3995410  42.9876790 110.6003250
 134.7812680  43.4526240 110.0365970 135.9118660  43.6804270 111.0172760
 130.2627170  42.5152660 117.2786850 129.9296550  43.1421580 117.9207920
 130.4393850  43.0414540 116.4988520 138.7761080  36.3297740 114.7463190
 138.0716650  36.6182630 115.3266300 139.1373240  37.1397850 114.3862750
 128.6939650  34.5867440 117.1083800 129.0356460  35.4309490 116.8137670
 127.7555460  34.7351180 117.2249140 129.4746270  44.4833460 119.0936030
 130.0920270  45.1584540 118.8120480 128.6139390  44.8921440 119.0023530
 124.7678610  43.6733320 107.9742880 124.3906590  44.1620420 107.2427780
 125.0251680  44.3458600 108.6049410 140.3923860  45.9472870 117.0090670
 139.7087380  46.6171980 117.0007340 140.9318150  46.1453520 116.2435530
 141.8448000  35.7752530 115.1372400 140.8972910  35.8091510 115.2687830
 142.1697990  36.5891480 115.5221760 132.3767540  32.0749710 113.4328390
 132.6842520  31.5196600 112.7163890 131.4468240  32.2094170 113.2501380
 137.9282600  47.7917000 115.7235850 137.9409760  47.3879290 114.8558110
 137.3757820  48.5664290 115.6197280 139.2228020  44.5133220 110.8126020
 139.1124350  43.5707550 110.9375440 139.2196270  44.8748860 111.6988780
 137.3268040  42.6946840 117.0518460 137.7436830  42.4806950 116.2171920
 138.0507860  42.9519630 117.6227080 134.7648300  40.1398540 110.1688510
 133.8377580  40.0735920 110.3976980 134.9173120  41.0778670 110.0543750
 134.7517380  36.4115540 107.1655670 133.8121050  36.5729500 107.2508130
 135.0700640  37.1301220 106.6191660 141.2730140  41.0934060 117.1434700
 140.4448770  41.1627150 116.6684830 141.8680620  41.6788370 116.6750530
 138.7945590  41.7018840 110.6723760 138.1758010  41.3638390 110.0250060
 138.7770040  41.0578600 111.3802950 138.2372150  37.8803380 118.0889570
 137.8243330  38.7057090 118.3429560 137.5048100  37.2948420 117.8965930
 130.3704940  40.6663280 112.9508240 129.9661940  39.9540530 112.4554140
 130.4568060  40.3216520 113.8396280 130.8386640  44.3530840 115.1147450
 130.5414930  43.7476310 114.4355230 131.7886460  44.3908150 115.0036810
 129.0833560  37.4406490 116.7307280 129.6348150  37.5501830 115.9560530
 129.5977070  37.8144090 117.4462510 138.9272250  47.9262710 118.7770550
 138.4502810  48.7334900 118.5843160 138.2434040  47.2741040 118.9296760
 129.9305070  44.0912530 121.7655250 129.0333600  44.3152500 122.0128650
 129.9557940  44.2147470 120.8166650 136.9710290  40.9405650 107.6796510
 137.4103570  40.1028080 107.5334330 137.6838710  41.5735050 107.7660650
 128.7576290  40.9625850 120.3412620 128.6184060  41.8348650 120.7100020
 127.8757650  40.6198660 120.1960560 135.0805670  45.8801720 111.6477750
 135.5201580  46.6226050 111.2333140 135.0192560  46.1228290 112.5716710
 130.5556640  46.9047550 122.5497770 130.5272070  47.3090500 121.6826200
 130.3921610  45.9757910 122.3869370 140.5527430  32.1948460 105.9937550
 140.2400090  32.2875290 106.8936620 141.3139900  32.7729490 105.9434980
 127.0709570  39.5608260 110.4514890 126.9507170  40.2870350 109.8396160
 126.7610460  38.7911170 109.9742800 142.5071460  47.6874650 123.8461940
 142.9831180  48.1657540 124.5251020 143.1278620  47.6192140 123.1207440
 124.7094940  42.7323400 116.2583530 124.7875360  42.8672170 115.3139250
 125.3236620  42.0239290 116.4511650 125.9542570  44.4323590 112.6689710
 125.5470650  44.5738180 111.8143310 126.8455580  44.1483750 112.4660920
 141.9104710  44.8787500 121.0061950 142.0367770  44.6399380 120.0879130
 141.9526090  44.0472040 121.4784030 135.7721450  48.5815500 119.5756760
 136.2866120  48.4923510 120.3779190 134.9290530  48.9275200 119.8684670
 137.7475850  48.8670840 109.0040760 137.5876990  48.5773780 109.9022590
 137.5822560  48.0910970 108.4685990 130.2264230  48.6469370 110.7812380
 130.0506710  47.7304910 110.5680180 129.3719970  49.0056660 111.0210180
 137.4501980  46.3758400 107.5638760 136.7567140  46.3735690 106.9041040
 138.1924840  45.9517720 107.1332930 137.0151910  48.0021110 111.6387250
 137.4708860  47.2210490 111.9525870 137.3544430  48.7127930 112.1828430
 141.7628720  36.9319960 121.9711690 141.1472990  37.4399630 121.4427150
 141.4425140  36.0318290 121.9137630 124.7654460  43.7737570 118.7977990
 124.9285500  43.3042930 117.9797360 125.2306910  43.2661130 119.4626830
 129.5373230  32.9043330 113.8338560 129.0941380  33.6852870 113.5023080
 130.0958220  33.2273220 114.5409500 133.8243040  35.7711850 119.4373880
 133.3622410  35.9794870 120.2493820 133.4221150  34.9571200 119.1344550
 138.8247550  36.9920800 120.5670540 137.9741140  36.6926550 120.8879610
 138.6649340  37.2362810 119.6554360 135.9197260  38.4922550 122.6669330
 136.2450670  37.6586300 122.3271560 136.7077590  39.0151070 122.8147660
 132.6532050  32.5254030 108.7144390 132.0286230  32.5213900 109.4397700
 132.5662170  31.6584990 108.3180360 131.5749130  33.4490660 115.6928160
 131.8721460  34.3553490 115.6120180 132.1234690  32.9609440 115.0787730
 129.3287450  38.0276900 111.5619810 129.1028370  37.8114070 112.4666430
 128.5479980  38.4605360 111.2165780 136.5585210  38.0340270 110.1610460
 135.9594100  38.7576070 109.9774080 137.1064820  37.9717050 109.3786910
 131.7686660  38.9262480 122.2280080 131.6730260  37.9857210 122.0780480
 132.6118640  39.1477550 121.8328150 135.1650080  36.6703810 112.1913740
 135.5579650  36.9876010 111.3782430 135.5266930  35.7915690 112.3058260
 126.8997200  35.3376150 120.3813860 126.5060590  36.1851360 120.5886640
 126.2115600  34.7002520 120.5722500 133.4742250  35.4211120 123.4510600
 132.7840570  35.2283320 124.0856690 134.2174550  35.7045760 123.9834900
 124.2014250  33.2604610 114.4143940 123.9127300  33.8307470 115.1268920
 124.9460010  32.7809060 114.7775170 124.3884480  37.2024730 105.6246660
 124.3059150  38.1455490 105.7661650 124.0367540  37.0599640 104.7459010
 135.7505220  39.2609560 116.2864520 135.0186340  39.7696370 116.6354620
 135.3529560  38.4439540 115.9853300 132.1882610  35.9363760 114.6917010
 132.1918670  35.4953710 113.8421550 133.0833730  36.2581090 114.7988830
 128.0384990  35.8190250 113.6511220 127.6985040  36.2965480 114.4078270
 127.2762310  35.3655370 113.2912320 132.2502760  36.9375840 107.6823770
 132.3715580  36.8962320 108.6309590 131.8651270  37.7999990 107.5270500
 136.2131130  34.7143240 115.6987460 136.2303870  35.1651890 116.5429310
 135.9646710  33.8148880 115.9120900 131.2624260  39.2476980 107.0807070
 130.6941160  38.7995230 106.4542980 131.9713260  39.6069760 106.5472220
 139.6401880  32.1275420 121.5373840 139.9647650  31.3965080 122.0631820
 139.6758390  31.8089060 120.6354830 126.3393440  43.1489000 120.9573800
 125.9548230  42.5082670 121.5556760 126.6505630  43.8525120 121.5268530
 132.4890580  39.9965540 116.4382420 132.8560710  39.5224110 117.1843760
 132.2995640  40.8707110 116.7790760 125.3531070  34.7409230 112.5675890
 125.0677990  34.3764900 113.4054510 125.2909930  34.0089690 111.9539030
 130.2789950  39.0374180 118.7566630 129.9747020  39.9166160 118.9816990
 131.2336410  39.0973970 118.7924070 128.8071740  43.2435170 109.3533480
 128.0334000  42.7032790 109.1932200 129.5366370  42.7241780 109.0151240
 139.5659720  42.2400530 115.1459870 140.2858840  42.7355820 114.7555980
 139.3641540  41.5618420 114.5013740 135.0269660  33.6338490 109.2889260
 134.2134270  33.1351660 109.2134570 134.8331610  34.4736740 108.8725610
 134.9478520  42.3109590 121.0328870 134.8815830  41.3905260 120.7786460
 134.3183660  42.4085030 121.7473510 137.7418050  38.0058140 107.5851420
 138.6297670  38.3175370 107.4102760 137.7123140  37.1330390 107.1932000
 128.8509140  42.9115550 112.9912290 129.3687810  42.1083810 112.9369180
 128.3993160  42.8494690 113.8329120 133.7378640  44.1781830 108.2639590
 134.0794340  44.9224060 107.7682910 132.9091350  44.4912950 108.6264420
 126.3353680  39.8776920 119.9037990 125.9768620  40.5430770 120.4911330
 126.0408240  39.0460470 120.2750610 129.5366800  40.3361160 122.7877540
 129.2366940  40.4818340 121.8905360 130.3078040  39.7766450 122.6950930
 134.8795250  45.1330160 120.7832670 134.8939790  44.2011120 120.5651580
 134.1720350  45.2189920 121.4222440 140.0132320  39.3169980 107.0531280
 139.9296040  39.7484200 106.2027720 140.7326510  39.7768330 107.4858100
 141.0906460  41.7737500 120.1301250 140.3654650  42.3666280 119.9330640
 141.6181920  41.7661040 119.3314620 141.0419570  46.1712240 109.7813410
 140.3995730  45.5167860 110.0557130 140.6550230  46.5767330 109.0054080
 136.6206050  43.4997670 113.6285100 136.9729870  42.9025800 112.9686470
 135.7368380  43.1741900 113.7993350 132.7069330  44.2595360 111.0355510
 133.3940460  44.8064570 111.4163100 131.9201750  44.8036090 111.0705120
 124.8461730  39.8768180 106.5272590 125.7156580  40.1592980 106.8108510
 124.3552050  40.6904050 106.4121400 132.0096540  41.2641390 110.6480870
 132.4659320  42.0746640 110.8741060 131.6584750  40.9464530 111.4799360
 134.3129150  46.7747730 117.8773170 134.9571370  46.9807110 118.5546590
 134.6758590  46.0136130 117.4244020 127.9108320  31.6079040 111.1203390
 127.7822950  31.5996940 112.0688310 127.0870340  31.9462130 110.7694400
 135.5861230  44.7780080 116.5950620 136.2283460  44.0773240 116.7082790
 136.1110580  45.5578520 116.4147510 139.4316950  45.0628700 106.3189760
 139.2054530  44.3459140 106.9114400 139.0413150  44.8141140 105.4811510
 137.3598850  45.5774980 119.7986680 137.6955090  46.1641670 120.4764600
 136.4399190  45.4467690 120.0284470 124.9102250  33.3670160 120.5810090
 124.1960770  33.5667080 121.1862700 125.3297290  32.5909730 120.9524890
 139.0133200  42.9800640 107.9803920 138.7254900  43.4413330 108.7681800
 139.8085370  42.5198410 108.2488140 125.1974840  47.3550420 121.5676620
 125.3065960  46.4145160 121.4272010 124.5455400  47.6205170 120.9190350
 133.1887430  45.6266310 122.9674740 132.8684300  44.9075550 123.5120430
 132.5145790  46.3021380 123.0410800 131.2301600  46.4726760 107.9107890
 131.2211700  47.2056450 107.2952400 130.3099960  46.2258340 108.0034850
 126.8308240  41.6941650 108.6554650 126.2236190  42.4340550 108.6649950
 127.3057590  41.7841010 107.8292850 136.4041030  35.8592470 118.3311540
 136.7721850  35.0387680 118.6591110 135.5439230  35.9194360 118.7467190
 139.7703060  34.8149410 109.1399100 139.1416220  34.9195080 108.4257330
 139.2754980  35.0346190 109.9292980 134.2161200  46.5355000 106.5733080
 134.3173180  46.3318990 105.6435060 133.3162940  46.2813280 106.7780860
 131.7387090  37.0935360 110.5556980 131.0303240  37.5621700 110.9970590
 132.0231570  36.4357370 111.1902170 133.3643020  38.5132060 118.5549510
 133.8628270  38.9877880 119.2201360 133.5065970  37.5895580 118.7619540
 135.7702520  33.8186020 111.9952770 135.6470300  33.8372150 111.0462280
 136.7187080  33.8664960 112.1151170 132.8579310  49.0541320 111.2680750
 133.1120810  49.0162710 110.3460120 131.9091790  48.9274650 111.2609000
 129.9422110  35.4020440 107.9307690 130.7912640  35.8390590 107.8647880
 129.5753380  35.7140700 108.7579750 140.5709880  34.7300020 119.3977900
 140.0683480  35.4705420 119.7371710 141.3866540  35.1184020 119.0814690
 138.8631890  39.9733200 112.8439260 137.9222030  39.9883430 113.0186950
 139.1775960  39.1869160 113.2899560 128.8413530  41.6552800 106.4043220
 129.6076800  41.5434160 106.9668650 128.9188220  40.9590770 105.7519990
 127.5360290  39.0877870 107.0876110 127.6163880  38.1405380 107.1993510
 128.4280040  39.4184750 107.1936770 140.8657470  47.1442050 114.5193520
 140.9904890  47.9673220 114.9917330 141.7323030  46.9332780 114.1717670
 128.3375000  49.2373260 114.1910650 129.0737480  48.6888720 114.4619220
 128.7215920  50.1029270 114.0516640 125.2220480  45.3046830 110.0652160
 124.2960260  45.5467970 110.0557570 125.6876910  46.1321090 109.9436910
 127.3433280  48.4219330 123.3796230 128.1446010  48.7431380 123.7931630
 126.8285100  48.0614910 124.1016140 131.4477310  48.4103570 106.0136220
 132.2405920  48.6992400 105.5618010 130.9281660  47.9795740 105.3348700
 136.1797910  44.5299200 123.3271640 135.5736070  44.5530800 122.5867390
 135.8752020  43.7982240 123.8638890 137.6098280  48.2579490 121.9381050
 138.5620030  48.1737510 121.8881290 137.4626500  48.9221200 122.6114840
 140.5007480  47.6373700 107.4372960 140.2148990  47.2238840 106.6227140
 140.3027030  48.5661410 107.3173480 125.0631090  40.9092790 122.3232280
 125.5670110  40.3300070 122.8948510 124.3238510  41.1933020 122.8608650
 131.9654710  43.6306980 105.8778570 131.8605350  43.0159330 106.6039950
 131.7978930  43.1072870 105.0941580 132.1169030  42.3163780 121.8567800
 131.3514700  42.8848780 121.7722470 132.2984990  42.0239990 120.9636030
 135.2057440  42.6927010 106.4820560 134.6567540  43.1396310 107.1263300
 135.8276700  42.1876260 107.0058230 139.2592380  44.0469110 122.4142820
 140.0001850  44.3844870 121.9110280 138.4965060  44.2161170 121.8612590
 127.0954170  39.0522380 123.2182350 127.1359510  38.7536250 124.1267580
 127.9499670  39.4529990 123.0589870 130.8732560  41.6517930 108.3785860
 131.2948980  41.4857800 109.2217250 130.9983400  40.8418160 107.8841000
 129.0359980  37.6314480 121.1856840 128.5056440  37.1405430 120.5580180
 129.7048050  38.0598680 120.6514770 133.3860200  40.6755540 105.6262960
 133.9065860  39.9604560 105.2604110 134.0328600  41.3141410 105.9263470
 137.9338040  42.0983940 120.9498030 138.3479060  42.2529020 121.7988450
 136.9989040  42.2239160 121.1123810 138.4060210  39.4380100 122.9537180
 138.9880980  38.6832420 122.8657660 138.5821980  39.9687540 122.1768660
 129.5232280  34.5976850 121.2654130 129.4289150  33.9797600 120.5405000
 128.9429670  35.3243140 121.0384040 132.2893720  33.1550090 118.2981520
 131.8411020  33.1774350 117.4527070 131.6558920  32.7569110 118.8951820
 132.6953270  42.0504420 118.9193960 133.1141380  42.8937150 118.7470200
 131.7761900  42.1876460 118.6900740 135.0317170  39.7820600 120.3031800
 135.1513380  39.1861740 121.0426640 135.8911170  39.8190290 119.8833100
 137.3705070  40.3357790 118.8794310 136.8440290  40.8600410 118.2759450
 137.7136410  40.9685180 119.5104040 129.7691460  37.7251160 105.3244020
 129.5680520  36.8618520 105.6857360 129.5983510  37.6384520 104.3865620
 130.5460690  48.3557430 120.0351690 130.0081780  49.0803490 119.7160390
 130.7994650  47.8787770 119.2449030 131.7985940  36.3241950 121.5607620
 132.3885630  36.0157800 122.2485440 130.9806180  35.8521700 121.7167520
 136.6179370  35.9407760 121.7940640 135.9294890  35.2789300 121.7290630
 137.3385390  35.4946030 122.2389100 137.2479770  32.5359390 107.8530900
 137.5282060  31.6927290 108.2090320 136.4745500  32.7682500 108.3669650
 128.5674260  34.8251780 105.3121900 128.8700160  34.8319210 104.4041050
 129.3068850  34.4749640 105.8089560 133.4022900  49.5908640 120.2938340
 133.3281600  50.4943780 120.6010710 132.5001740  49.2720540 120.2660410
 131.7859190  33.7686400 106.2978100 131.4381190  33.0910390 105.7180550
 131.9871960  33.3075910 107.1121490 133.9508230  48.7567150 107.9164700
 134.8459020  49.0952120 107.9383460 133.9825860  48.0346560 107.2888980
 127.5904390  44.1294200 106.1451700 128.0279260  44.6723870 106.8009280
 128.0752120  43.3041150 106.1548040 124.8050190  46.9183230 113.5971960
 125.1353200  46.0504290 113.3650600 125.2341190  47.1241750 114.4276920
 129.4012110  45.2492240 111.2573930 129.1007650  45.1257210 112.1577840
 129.2949600  44.3900830 110.8489660 125.2940400  47.7853820 116.3353590
 124.8571390  47.9654620 117.1677740 125.8618080  48.5428440 116.1935310
 140.9302580  47.2870820 120.6230900 140.3304570  47.3463380 119.8794820
 141.0596480  46.3475800 120.7527750 142.1704030  45.0288640 105.9600610
 141.3396990  45.0965290 106.4307840 142.3475860  45.9192760 105.6567470
 141.6260490  41.7736120 108.4634810 142.3879400  42.3432770 108.5694500
 141.6414860  41.2063320 109.2343120 125.1264830  40.2974050 112.6942470
 124.4713670  40.0285690 112.0502170 125.9642780  40.1878530 112.2444450
 142.6320460  42.6286220 113.3076740 143.0029290  41.8453540 112.9012710
 143.2722390  43.3175320 113.1294040 139.6154220  44.0122800 118.7207060
 138.8014060  44.4419960 118.9832850 140.0228420  44.6241210 118.1076110
 141.6779660  42.0670490 105.6207330 141.9528500  42.9749370 105.4926550
 141.4890400  42.0033020 106.5569320 138.0755270  35.0915340 106.9160960
 138.4940150  34.9046320 106.0757620 137.7691330  34.2394390 107.2263890
 141.5745000  40.0039480 110.6136760 141.1988600  39.2367410 110.1818050
 140.8448120  40.3862180 111.1011690 126.1640760  40.6826620 117.2345810
 126.5313800  40.5954020 118.1141830 125.5951580  39.9193170 117.1352670
 140.9644620  39.1511000 120.2476280 140.7330710  38.9223750 119.3474230
 141.2249170  40.0710550 120.2021170 125.7156760  37.5935710 121.1404230
 124.8212810  37.5602470 121.4797940 126.2554310  37.7922500 121.9055480
 139.4032690  34.3767430 123.0255980 140.2802870  34.3850830 123.4089980
 139.4153530  33.6398270 122.4148330 124.3402910  37.5072980 108.6367800
 123.4366990  37.7703180 108.4619460 124.8243530  37.7784150 107.8567760
 140.8495960  38.2296970 113.9144000 141.3733440  37.7359620 113.2834170
 141.4355380  38.3647330 114.6591570 141.0285680  38.3136840 117.4363550
 140.0788390  38.2800380 117.5508540 141.2098690  39.2236950 117.2013320
 126.8830120  36.5638520 106.5462180 127.5921820  36.1421740 106.0609460
 126.1670060  36.6313750 105.9145530 126.5304280  32.6177850 105.5864830
 127.2532410  33.1586790 105.9046050 126.8028800  32.3441270 104.7106370
 140.3395930  37.4870320 109.8536410 140.8355050  37.2541190 110.6385290
 140.1412000  36.6482160 109.4374050 126.2196470  31.8684040 115.4887450
 126.8672660  31.3181420 115.0482610 126.6398310  32.1227190 116.3103260
 141.7683090  36.1231270 112.3874090 141.6582370  35.9687310 113.3256360
 142.5290680  35.5952210 112.1449500 140.1148810  32.0625400 118.8457090
 140.7521030  32.6759540 119.2116280 140.2623700  32.0986060 117.9006320
 142.6573360  33.9539190 105.6280230 143.5822670  33.8220370 105.4198520
 142.6349150  34.0332010 106.5816680 142.7311850  34.7249850 108.2536940
 141.9363350  34.6594970 108.7829850 142.9355130  35.6600490 108.2422290
 139.6730270  48.7641400 112.2475330 140.2689340  48.4425970 111.5709750
 139.9308420  48.2913220 113.0388600 125.9728470  32.0239710 118.2312770
 125.6243290  32.4803530 118.9970950 125.6416170  31.1296840 118.3135200
 127.5792840  45.1959310 122.3965960 127.5362470  44.8252220 123.2780420
 127.7103850  46.1336880 122.5367780 131.2798870  46.7518900 117.9975680
 131.0390230  47.0193460 117.1106200 132.2201510  46.9224630 118.0526540
 133.4853290  33.2151590 121.7532190 133.4242180  33.8073420 122.5027600
 134.4253670  33.1077550 121.6082450 136.1227850  32.8721650 121.3924480
 136.7368260  33.1900940 120.7305560 136.6677410  32.3870240 122.0120340
 142.5403030  48.7713280 118.7986320 142.0461310  49.1682150 118.0813450
 141.9316320  48.1462490 119.1923600 126.6449110  31.5515910 121.5063540
 127.1932100  31.3703960 120.7429650 126.7104420  30.7610020 122.0419850
 127.4180870  48.1421560 119.5163740 126.8241190  48.0106260 120.2553780
 127.4104710  47.3059700 119.0505840 136.8635890  31.4353790 117.7193770
 135.9895730  31.7688900 117.5166700 136.7546640  30.9626970 118.5445640
 137.7707870  33.6424660 119.1035490 137.4421230  32.8276420 118.7237220
 138.7190170  33.5994470 118.9801180 140.2242480  49.4136700 116.0773060
 139.7645450  50.1652510 115.7031080 139.5954940  48.6943170 116.0187860
 127.0493100  45.5079940 118.4671780 126.3227160  44.8885230 118.3997730
 127.1102250  45.9020550 117.5969860 130.6538200  47.7224940 115.2521190
 131.1703220  47.1112300 114.7269450 131.3035580  48.2253720 115.7432200
 133.3933700  48.6133430 116.0790170 133.6811510  48.3587730 115.2023180
 133.9056920  48.0610790 116.6695740 134.6110710  32.3523630 116.6586680
 133.8282500  32.8269130 116.9383440 134.3173640  31.4478460 116.5499860
 139.1631780  33.0546730 114.7035770 139.6039870  32.9991830 113.8557370
 138.8939370  33.9704740 114.7745950 141.0270350  32.6861970 112.7144590
 140.9658750  31.7423190 112.5675610 141.8062380  32.7942060 113.2598050
 125.3323100  48.8254330 111.6768540 125.1645140  48.1925010 112.3750430
 124.4657610  49.0313730 111.3262730 125.9551120  32.6571110 109.1800400
 126.7130480  32.7699990 108.6064430 125.4928290  33.4940310 109.1343830
 132.4964930  34.7710380 112.1702710 131.6839440  34.3967270 111.8298590
 133.0006570  34.0155460 112.4723900 136.9989910  31.4352830 113.4085780
 137.6019280  32.0073040 113.8834300 136.2582900  31.9992270 113.1859680
 140.1424510  31.8374390 108.6826060 140.3375140  32.7357840 108.9493490
 139.3554380  31.6061470 109.1759010 126.9385800  47.5187560 109.1218680
 126.4133420  47.8995590 108.4180640 126.8630380  48.1438330 109.8428390
 128.3276270  33.1835160 107.7202370 128.8569030  32.3964960 107.5910320
 128.9604590  33.8626350 107.9537900 130.5214110  32.9210300 110.7747760
 129.8916850  32.2197610 110.9417890 129.9819250  33.6814430 110.5580920
 133.4606060  49.5349530 123.4458370 134.3873370  49.2993800 123.4894330
 133.4456490  50.3621530 122.9644400 141.6951120  49.0775100 110.4432620
 141.8703310  48.3912840 109.7993540 140.9972690  49.6022150 110.0509290
 130.6469670  32.1994280 123.2100250 130.3653940  32.7027880 122.4461070
 131.0289370  31.4016030 122.8442380 129.5378770  49.4669940 107.9967930
 130.2697590  49.1829220 107.4491820 129.7972440  49.2283220 108.8867310
 128.6993560  45.5834670 108.0014260 128.0702440  46.0519770 108.5500090
 128.8141390  44.7383890 108.4360450 137.2485130  31.6147860 123.7880720
 137.1350580  31.9342470 124.6832240 138.0654870  32.0160370 123.4918000
 140.0283620  48.7619390 123.2699410 140.8208940  48.2668620 123.0625370
 140.3216770  49.4409530 123.8775020 136.1543280  39.6340330  94.1515460
 136.0737330  38.7194940  93.8807170 135.7407700  40.1307400  93.4455170
 134.2861320  41.4119350  96.0324730 133.5103420  40.9319790  96.3223300
 134.9374250  40.7325000  95.8580890 138.3068750  45.8179540  94.8123860
 137.8450280  45.0466780  95.1411030 139.1194300  45.8445610  95.3176310
 124.6752110  39.2846700  96.5782580 125.2468220  38.5168900  96.5786220
 124.6753650  39.5835460  95.6689190 133.7270310  44.0876540  96.0394890
 133.6578590  43.1466480  95.8784020 134.4890170  44.1777950  96.6117460
 125.9176980  34.6931060  98.3651510 125.7379820  33.7956810  98.6454270
 125.5157060  35.2402930  99.0398460 134.7575480  36.8946920  96.2663820
 135.1340300  36.0218800  96.1537490 134.6594990  37.2305620  95.3754260
 128.8880490  35.2672550  91.7281260 128.9947240  36.1676280  92.0350020
 127.9772850  35.2190520  91.4375910 138.5399600  34.3897360  93.1992160
 139.3609220  33.8993930  93.2417640 138.5733680  34.9795020  93.9524000
 126.5363650  37.1891560  96.9733850 127.2173760  37.4529930  97.5921250
 126.2211700  36.3492430  97.3071860 130.7288220  38.2358920  96.0606440
 131.2366440  38.7339890  96.7011460 131.2601460  37.4594120  95.8845800
 142.8299150  36.4064110  99.7635790 142.1251320  36.7945820  99.2450900
 143.0957070  37.1014400 100.3656720 129.0124320  32.8757480 100.3269860
 129.0142760  33.3929870  99.5215760 128.1828630  32.3987660 100.3039790
 135.3995410  42.9876790  91.8259760 134.7812680  43.4526240  91.2622480
 135.9118660  43.6804270  92.2429270 138.7761080  36.3297740  95.9719700
 138.0716650  36.6182630  96.5522810 139.1373240  37.1397850  95.6119260
 128.6939650  34.5867440  98.3340310 129.0356460  35.4309490  98.0394180
 127.7555460  34.7351180  98.4505650 140.3923860  45.9472870  98.2347180
 139.7087380  46.6171980  98.2263850 140.9318150  46.1453520  97.4692040
 141.8448000  35.7752530  96.3628910 140.8972910  35.8091510  96.4944340
 142.1697990  36.5891480  96.7478270 132.3767540  32.0749710  94.6584900
 132.6842520  31.5196600  93.9420400 131.4468240  32.2094170  94.4757890
 137.9282600  47.7917000  96.9492360 137.9409760  47.3879290  96.0814620
 137.3757820  48.5664290  96.8453790 139.2228020  44.5133220  92.0382530
 139.1124350  43.5707550  92.1631950 139.2196270  44.8748860  92.9245290
 137.3268040  42.6946840  98.2774970 137.7436830  42.4806950  97.4428430
 138.0507860  42.9519630  98.8483590 134.7648300  40.1398540  91.3945020
 133.8377580  40.0735920  91.6233490 134.9173120  41.0778670  91.2800260
 134.7517380  36.4115540  88.3912180 133.8121050  36.5729500  88.4764640
 135.0700640  37.1301220  87.8448170 141.2730140  41.0934060  98.3691210
 140.4448770  41.1627150  97.8941340 141.8680620  41.6788370  97.9007040
 138.7945590  41.7018840  91.8980270 138.1758010  41.3638390  91.2506570
 138.7770040  41.0578600  92.6059460 138.2372150  37.8803380  99.3146080
 137.8243330  38.7057090  99.5686070 137.5048100  37.2948420  99.1222440
 130.3704940  40.6663280  94.1764750 129.9661940  39.9540530  93.6810650
 130.4568060  40.3216520  95.0652790 129.0833560  37.4406490  97.9563790
 129.6348150  37.5501830  97.1817040 129.5977070  37.8144090  98.6719020
 138.9272250  47.9262710 100.0027060 138.4502810  48.7334900  99.8099670
 138.2434040  47.2741040 100.1553270 129.9305070  44.0912530 102.9911760
 129.0333600  44.3152500 103.2385160 129.9557940  44.2147470 102.0423160
 136.9710290  40.9405650  88.9053020 137.4103570  40.1028080  88.7590840
 137.6838710  41.5735050  88.9917160 128.7576290  40.9625850 101.5669130
 128.6184060  41.8348650 101.9356530 127.8757650  40.6198660 101.4217070
 135.0805670  45.8801720  92.8734260 135.5201580  46.6226050  92.4589650
 135.0192560  46.1228290  93.7973220 130.5556640  46.9047550 103.7754280
 130.5272070  47.3090500 102.9082710 130.3921610  45.9757910 103.6125880
 140.5527430  32.1948460  87.2194060 140.2400090  32.2875290  88.1193130
 141.3139900  32.7729490  87.1691490 127.0709570  39.5608260  91.6771400
 126.9507170  40.2870350  91.0652670 126.7610460  38.7911170  91.1999310
 142.5071460  47.6874650 105.0718450 142.9831180  48.1657540 105.7507530
 143.1278620  47.6192140 104.3463950 141.9104710  44.8787500 102.2318460
 142.0367770  44.6399380 101.3135640 141.9526090  44.0472040 102.7040540
 135.7721450  48.5815500 100.8013270 136.2866120  48.4923510 101.6035700
 134.9290530  48.9275200 101.0941180 137.4501980  46.3758400  88.7895270
 136.7567140  46.3735690  88.1297550 138.1924840  45.9517720  88.3589440
 141.7628720  36.9319960 103.1968200 141.1472990  37.4399630 102.6683660
 141.4425140  36.0318290 103.1394140 129.5373230  32.9043330  95.0595070
 129.0941380  33.6852870  94.7279590 130.0958220  33.2273220  95.7666010
 133.8243040  35.7711850 100.6630390 133.3622410  35.9794870 101.4750330
 133.4221150  34.9571200 100.3601060 138.8247550  36.9920800 101.7927050
 137.9741140  36.6926550 102.1136120 138.6649340  37.2362810 100.8810870
 135.9197260  38.4922550 103.8925840 136.2450670  37.6586300 103.5528070
 136.7077590  39.0151070 104.0404170 132.6532050  32.5254030  89.9400900
 132.0286230  32.5213900  90.6654210 132.5662170  31.6584990  89.5436870
 131.5749130  33.4490660  96.9184670 131.8721460  34.3553490  96.8376690
 132.1234690  32.9609440  96.3044240 129.3287450  38.0276900  92.7876320
 129.1028370  37.8114070  93.6922940 128.5479980  38.4605360  92.4422290
 136.5585210  38.0340270  91.3866970 135.9594100  38.7576070  91.2030590
 137.1064820  37.9717050  90.6043420 131.7686660  38.9262480 103.4536590
 131.6730260  37.9857210 103.3036990 132.6118640  39.1477550 103.0584660
 135.1650080  36.6703810  93.4170250 135.5579650  36.9876010  92.6038940
 135.5266930  35.7915690  93.5314770 126.8997200  35.3376150 101.6070370
 126.5060590  36.1851360 101.8143150 126.2115600  34.7002520 101.7979010
 133.4742250  35.4211120 104.6767110 132.7840570  35.2283320 105.3113200
 134.2174550  35.7045760 105.2091410 124.2014250  33.2604610  95.6400450
 123.9127300  33.8307470  96.3525430 124.9460010  32.7809060  96.0031680
 135.7505220  39.2609560  97.5121030 135.0186340  39.7696370  97.8611130
 135.3529560  38.4439540  97.2109810 132.1882610  35.9363760  95.9173520
 132.1918670  35.4953710  95.0678060 133.0833730  36.2581090  96.0245340
 128.0384990  35.8190250  94.8767730 127.6985040  36.2965480  95.6334780
 127.2762310  35.3655370  94.5168830 132.2502760  36.9375840  88.9080280
 132.3715580  36.8962320  89.8566100 131.8651270  37.7999990  88.7527010
 136.2131130  34.7143240  96.9243970 136.2303870  35.1651890  97.7685820
 135.9646710  33.8148880  97.1377410 131.2624260  39.2476980  88.3063580
 130.6941160  38.7995230  87.6799490 131.9713260  39.6069760  87.7728730
 139.6401880  32.1275420 102.7630350 139.9647650  31.3965080 103.2888330
 139.6758390  31.8089060 101.8611340 132.4890580  39.9965540  97.6638930
 132.8560710  39.5224110  98.4100270 132.2995640  40.8707110  98.0047270
 130.2789950  39.0374180  99.9823140 129.9747020  39.9166160 100.2073500
 131.2336410  39.0973970 100.0180580 139.5659720  42.2400530  96.3716380
 140.2858840  42.7355820  95.9812490 139.3641540  41.5618420  95.7270250
 135.0269660  33.6338490  90.5145770 134.2134270  33.1351660  90.4391080
 134.8331610  34.4736740  90.0982120 134.9478520  42.3109590 102.2585380
 134.8815830  41.3905260 102.0042970 134.3183660  42.4085030 102.9730020
 137.7418050  38.0058140  88.8107930 138.6297670  38.3175370  88.6359270
 137.7123140  37.1330390  88.4188510 133.7378640  44.1781830  89.4896100
 134.0794340  44.9224060  88.9939420 132.9091350  44.4912950  89.8520930
 126.3353680  39.8776920 101.1294500 125.9768620  40.5430770 101.7167840
 126.0408240  39.0460470 101.5007120 129.5366800  40.3361160 104.0134050
 129.2366940  40.4818340 103.1161870 130.3078040  39.7766450 103.9207440
 134.8795250  45.1330160 102.0089180 134.8939790  44.2011120 101.7908090
 134.1720350  45.2189920 102.6478950 140.0132320  39.3169980  88.2787790
 139.9296040  39.7484200  87.4284230 140.7326510  39.7768330  88.7114610
 141.0906460  41.7737500 101.3557760 140.3654650  42.3666280 101.1587150
 141.6181920  41.7661040 100.5571130 141.0419570  46.1712240  91.0069920
 140.3995730  45.5167860  91.2813640 140.6550230  46.5767330  90.2310590
 136.6206050  43.4997670  94.8541610 136.9729870  42.9025800  94.1942980
 135.7368380  43.1741900  95.0249860 132.0096540  41.2641390  91.8737380
 132.4659320  42.0746640  92.0997570 131.6584750  40.9464530  92.7055870
 134.3129150  46.7747730  99.1029680 134.9571370  46.9807110  99.7803100
 134.6758590  46.0136130  98.6500530 127.9108320  31.6079040  92.3459900
 127.7822950  31.5996940  93.2944820 127.0870340  31.9462130  91.9950910
 135.5861230  44.7780080  97.8207130 136.2283460  44.0773240  97.9339300
 136.1110580  45.5578520  97.6404020 139.4316950  45.0628700  87.5446270
 139.2054530  44.3459140  88.1370910 139.0413150  44.8141140  86.7068020
 137.3598850  45.5774980 101.0243190 137.6955090  46.1641670 101.7021110
 136.4399190  45.4467690 101.2540980 124.9102250  33.3670160 101.8066600
 124.1960770  33.5667080 102.4119210 125.3297290  32.5909730 102.1781400
 139.0133200  42.9800640  89.2060430 138.7254900  43.4413330  89.9938310
 139.8085370  42.5198410  89.4744650 133.1887430  45.6266310 104.1931250
 132.8684300  44.9075550 104.7376940 132.5145790  46.3021380 104.2667310
 136.4041030  35.8592470  99.5568050 136.7721850  35.0387680  99.8847620
 135.5439230  35.9194360  99.9723700 139.7703060  34.8149410  90.3655610
 139.1416220  34.9195080  89.6513840 139.2754980  35.0346190  91.1549490
 134.2161200  46.5355000  87.7989590 134.3173180  46.3318990  86.8691570
 133.3162940  46.2813280  88.0037370 131.7387090  37.0935360  91.7813490
 131.0303240  37.5621700  92.2227100 132.0231570  36.4357370  92.4158680
 133.3643020  38.5132060  99.7806020 133.8628270  38.9877880 100.4457870
 133.5065970  37.5895580  99.9876050 135.7702520  33.8186020  93.2209280
 135.6470300  33.8372150  92.2718790 136.7187080  33.8664960  93.3407680
 129.9422110  35.4020440  89.1564200 130.7912640  35.8390590  89.0904390
 129.5753380  35.7140700  89.9836260 140.5709880  34.7300020 100.6234410
 140.0683480  35.4705420 100.9628220 141.3866540  35.1184020 100.3071200
 138.8631890  39.9733200  94.0695770 137.9222030  39.9883430  94.2443460
 139.1775960  39.1869160  94.5156070 127.5360290  39.0877870  88.3132620
 127.6163880  38.1405380  88.4250020 128.4280040  39.4184750  88.4193280
 140.8657470  47.1442050  95.7450030 140.9904890  47.9673220  96.2173840
 141.7323030  46.9332780  95.3974180 128.3375000  49.2373260  95.4167160
 129.0737480  48.6888720  95.6875730 128.7215920  50.1029270  95.2773150
 127.3433280  48.4219330 104.6052740 128.1446010  48.7431380 105.0188140
 126.8285100  48.0614910 105.3272650 136.1797910  44.5299200 104.5528150
 135.5736070  44.5530800 103.8123900 135.8752020  43.7982240 105.0895400
 137.6098280  48.2579490 103.1637560 138.5620030  48.1737510 103.1137800
 137.4626500  48.9221200 103.8371350 140.5007480  47.6373700  88.6629470
 140.2148990  47.2238840  87.8483650 140.3027030  48.5661410  88.5429990
 125.0631090  40.9092790 103.5488790 125.5670110  40.3300070 104.1205020
 124.3238510  41.1933020 104.0865160 132.1169030  42.3163780 103.0824310
 131.3514700  42.8848780 102.9978980 132.2984990  42.0239990 102.1892540
 135.2057440  42.6927010  87.7077070 134.6567540  43.1396310  88.3519810
 135.8276700  42.1876260  88.2314740 139.2592380  44.0469110 103.6399330
 140.0001850  44.3844870 103.1366790 138.4965060  44.2161170 103.0869100
 127.0954170  39.0522380 104.4438860 127.1359510  38.7536250 105.3524090
 127.9499670  39.4529990 104.2846380 129.0359980  37.6314480 102.4113350
 128.5056440  37.1405430 101.7836690 129.7048050  38.0598680 101.8771280
 133.3860200  40.6755540  86.8519470 133.9065860  39.9604560  86.4860620
 134.0328600  41.3141410  87.1519980 137.9338040  42.0983940 102.1754540
 138.3479060  42.2529020 103.0244960 136.9989040  42.2239160 102.3380320
 138.4060210  39.4380100 104.1793690 138.9880980  38.6832420 104.0914170
 138.5821980  39.9687540 103.4025170 129.5232280  34.5976850 102.4910640
 129.4289150  33.9797600 101.7661510 128.9429670  35.3243140 102.2640550
 132.2893720  33.1550090  99.5238030 131.8411020  33.1774350  98.6783580
 131.6558920  32.7569110 100.1208330 132.6953270  42.0504420 100.1450470
 133.1141380  42.8937150  99.9726710 131.7761900  42.1876460  99.9157250
 135.0317170  39.7820600 101.5288310 135.1513380  39.1861740 102.2683150
 135.8911170  39.8190290 101.1089610 137.3705070  40.3357790 100.1050820
 136.8440290  40.8600410  99.5015960 137.7136410  40.9685180 100.7360550
 129.7691460  37.7251160  86.5500530 129.5680520  36.8618520  86.9113870
 129.5983510  37.6384520  85.6122130 130.5460690  48.3557430 101.2608200
 130.0081780  49.0803490 100.9416900 130.7994650  47.8787770 100.4705540
 131.7985940  36.3241950 102.7864130 132.3885630  36.0157800 103.4741950
 130.9806180  35.8521700 102.9424030 136.6179370  35.9407760 103.0197150
 135.9294890  35.2789300 102.9547140 137.3385390  35.4946030 103.4645610
 137.2479770  32.5359390  89.0787410 137.5282060  31.6927290  89.4346830
 136.4745500  32.7682500  89.5926160 128.5674260  34.8251780  86.5378410
 128.8700160  34.8319210  85.6297560 129.3068850  34.4749640  87.0346070
 131.7859190  33.7686400  87.5234610 131.4381190  33.0910390  86.9437060
 131.9871960  33.3075910  88.3378000 140.9302580  47.2870820 101.8487410
 140.3304570  47.3463380 101.1051330 141.0596480  46.3475800 101.9784260
 142.1704030  45.0288640  87.1857120 141.3396990  45.0965290  87.6564350
 142.3475860  45.9192760  86.8823980 141.6260490  41.7736120  89.6891320
 142.3879400  42.3432770  89.7951010 141.6414860  41.2063320  90.4599630
 125.1264830  40.2974050  93.9198980 124.4713670  40.0285690  93.2758680
 125.9642780  40.1878530  93.4700960 142.6320460  42.6286220  94.5333250
 143.0029290  41.8453540  94.1269220 143.2722390  43.3175320  94.3550550
 139.6154220  44.0122800  99.9463570 138.8014060  44.4419960 100.2089360
 140.0228420  44.6241210  99.3332620 141.6779660  42.0670490  86.8463840
 141.9528500  42.9749370  86.7183060 141.4890400  42.0033020  87.7825830
 138.0755270  35.0915340  88.1417470 138.4940150  34.9046320  87.3014130
 137.7691330  34.2394390  88.4520400 141.5745000  40.0039480  91.8393270
 141.1988600  39.2367410  91.4074560 140.8448120  40.3862180  92.3268200
 140.9644620  39.1511000 101.4732790 140.7330710  38.9223750 100.5730740
 141.2249170  40.0710550 101.4277680 125.7156760  37.5935710 102.3660740
 124.8212810  37.5602470 102.7054450 126.2554310  37.7922500 103.1311990
 139.4032690  34.3767430 104.2512490 140.2802870  34.3850830 104.6346490
 139.4153530  33.6398270 103.6404840 140.8495960  38.2296970  95.1400510
 141.3733440  37.7359620  94.5090680 141.4355380  38.3647330  95.8848080
 141.0285680  38.3136840  98.6620060 140.0788390  38.2800380  98.7765050
 141.2098690  39.2236950  98.4269830 140.3395930  37.4870320  91.0792920
 140.8355050  37.2541190  91.8641800 140.1412000  36.6482160  90.6630560
 126.2196470  31.8684040  96.7143960 126.8672660  31.3181420  96.2739120
 126.6398310  32.1227190  97.5359770 141.7683090  36.1231270  93.6130600
 141.6582370  35.9687310  94.5512870 142.5290680  35.5952210  93.3706010
 140.1148810  32.0625400 100.0713600 140.7521030  32.6759540 100.4372790
 140.2623700  32.0986060  99.1262830 142.6573360  33.9539190  86.8536740
 143.5822670  33.8220370  86.6455030 142.6349150  34.0332010  87.8073190
 142.7311850  34.7249850  89.4793450 141.9363350  34.6594970  90.0086360
 142.9355130  35.6600490  89.4678800 139.6730270  48.7641400  93.4731840
 140.2689340  48.4425970  92.7966260 139.9308420  48.2913220  94.2645110
 125.9728470  32.0239710  99.4569280 125.6243290  32.4803530 100.2227460
 125.6416170  31.1296840  99.5391710 127.5792840  45.1959310 103.6222470
 127.5362470  44.8252220 104.5036930 127.7103850  46.1336880 103.7624290
 131.2798870  46.7518900  99.2232190 131.0390230  47.0193460  98.3362710
 132.2201510  46.9224630  99.2783050 133.4853290  33.2151590 102.9788700
 133.4242180  33.8073420 103.7284110 134.4253670  33.1077550 102.8338960
 136.1227850  32.8721650 102.6180990 136.7368260  33.1900940 101.9562070
 136.6677410  32.3870240 103.2376850 142.5403030  48.7713280 100.0242830
 142.0461310  49.1682150  99.3069960 141.9316320  48.1462490 100.4180110
 126.6449110  31.5515910 102.7320050 127.1932100  31.3703960 101.9686160
 126.7104420  30.7610020 103.2676360 136.8635890  31.4353790  98.9450280
 135.9895730  31.7688900  98.7423210 136.7546640  30.9626970  99.7702150
 137.7707870  33.6424660 100.3292000 137.4421230  32.8276420  99.9493730
 138.7190170  33.5994470 100.2057690 140.2242480  49.4136700  97.3029570
 139.7645450  50.1652510  96.9287590 139.5954940  48.6943170  97.2444370
 130.6538200  47.7224940  96.4777700 131.1703220  47.1112300  95.9525960
 131.3035580  48.2253720  96.9688710 134.6110710  32.3523630  97.8843190
 133.8282500  32.8269130  98.1639950 134.3173640  31.4478460  97.7756370
 139.1631780  33.0546730  95.9292280 139.6039870  32.9991830  95.0813880
 138.8939370  33.9704740  96.0002460 141.0270350  32.6861970  93.9401100
 140.9658750  31.7423190  93.7932120 141.8062380  32.7942060  94.4854560
 132.4964930  34.7710380  93.3959220 131.6839440  34.3967270  93.0555100
 133.0006570  34.0155460  93.6980410 136.9989910  31.4352830  94.6342290
 137.6019280  32.0073040  95.1090810 136.2582900  31.9992270  94.4116190
 140.1424510  31.8374390  89.9082570 140.3375140  32.7357840  90.1750000
 139.3554380  31.6061470  90.4015520 128.3276270  33.1835160  88.9458880
 128.8569030  32.3964960  88.8166830 128.9604590  33.8626350  89.1794410
 130.5214110  32.9210300  92.0004270 129.8916850  32.2197610  92.1674400
 129.9819250  33.6814430  91.7837430 133.4606060  49.5349530 104.6714880
 134.3873370  49.2993800 104.7150840 133.4456490  50.3621530 104.1900910
 141.6951120  49.0775100  91.6689130 141.8703310  48.3912840  91.0250050
 140.9972690  49.6022150  91.2765800 130.6469670  32.1994280 104.4356760
 130.3653940  32.7027880 103.6717580 131.0289370  31.4016030 104.0698890
 137.2485130  31.6147860 105.0137230 137.1350580  31.9342470 105.9088750
 138.0654870  32.0160370 104.7174510 140.0283620  48.7619390 104.4955920
 140.8208940  48.2668620 104.2881880 140.3216770  49.4409530 105.1031530
 136.1543280  39.6340330  75.3771970 136.0737330  38.7194940  75.1063680
 135.7407700  40.1307400  74.6711680 134.2861320  41.4119350  77.2581240
 133.5103420  40.9319790  77.5479810 134.9374250  40.7325000  77.0837400
 128.3027150  41.7239160  78.1357000 127.4712030  41.4687870  78.5353510
 128.9108130  41.7949930  78.8714920 138.3068750  45.8179540  76.0380370
 137.8450280  45.0466780  76.3667540 139.1194300  45.8445610  76.5432820
 128.2828410  45.7579250  78.3315020 128.5856450  44.8676990  78.1525240
 129.0272000  46.3149470  78.1037270 126.7119100  36.6841050  71.9199390
 125.8235800  37.0257020  71.8179270 126.9960290  36.4841370  71.0280220
 124.6752110  39.2846700  77.8039090 125.2468220  38.5168900  77.8042730
 124.6753650  39.5835460  76.8945700 134.5332060  48.1037550  75.6584360
 133.9143500  48.5595050  75.0878800 135.3883840  48.2589010  75.2574060
 133.7270310  44.0876540  77.2651400 133.6578590  43.1466480  77.1040530
 134.4890170  44.1777950  77.8373970 125.9176980  34.6931060  79.5908020
 125.7379820  33.7956810  79.8710780 125.5157060  35.2402930  80.2654970
 134.7575480  36.8946920  77.4920330 135.1340300  36.0218800  77.3794000
 134.6594990  37.2305620  76.6010770 128.8880490  35.2672550  72.9537770
 128.9947240  36.1676280  73.2606530 127.9772850  35.2190520  72.6632420
 138.5399600  34.3897360  74.4248670 139.3609220  33.8993930  74.4674150
 138.5733680  34.9795020  75.1780510 126.5363650  37.1891560  78.1990360
 127.2173760  37.4529930  78.8177760 126.2211700  36.3492430  78.5328370
 130.7288220  38.2358920  77.2862950 131.2366440  38.7339890  77.9267970
 131.2601460  37.4594120  77.1102310 142.8299150  36.4064110  80.9892300
 142.1251320  36.7945820  80.4707410 143.0957070  37.1014400  81.5913230
 129.0124320  32.8757480  81.5526370 129.0142760  33.3929870  80.7472270
 128.1828630  32.3987660  81.5296300 135.3995410  42.9876790  73.0516270
 134.7812680  43.4526240  72.4878990 135.9118660  43.6804270  73.4685780
 130.2627170  42.5152660  79.7299870 129.9296550  43.1421580  80.3720940
 130.4393850  43.0414540  78.9501540 138.7761080  36.3297740  77.1976210
 138.0716650  36.6182630  77.7779320 139.1373240  37.1397850  76.8375770
 128.6939650  34.5867440  79.5596820 129.0356460  35.4309490  79.2650690
 127.7555460  34.7351180  79.6762160 140.3923860  45.9472870  79.4603690
 139.7087380  46.6171980  79.4520360 140.9318150  46.1453520  78.6948550
 141.8448000  35.7752530  77.5885420 140.8972910  35.8091510  77.7200850
 142.1697990  36.5891480  77.9734780 132.3767540  32.0749710  75.8841410
 132.6842520  31.5196600  75.1676910 131.4468240  32.2094170  75.7014400
 137.9282600  47.7917000  78.1748870 137.9409760  47.3879290  77.3071130
 137.3757820  48.5664290  78.0710300 139.2228020  44.5133220  73.2639040
 139.1124350  43.5707550  73.3888460 139.2196270  44.8748860  74.1501800
 137.3268040  42.6946840  79.5031480 137.7436830  42.4806950  78.6684940
 138.0507860  42.9519630  80.0740100 134.7648300  40.1398540  72.6201530
 133.8377580  40.0735920  72.8490000 134.9173120  41.0778670  72.5056770
 134.7517380  36.4115540  69.6168690 133.8121050  36.5729500  69.7021150
 135.0700640  37.1301220  69.0704680 141.2730140  41.0934060  79.5947720
 140.4448770  41.1627150  79.1197850 141.8680620  41.6788370  79.1263550
 138.7945590  41.7018840  73.1236780 138.1758010  41.3638390  72.4763080
 138.7770040  41.0578600  73.8315970 138.2372150  37.8803380  80.5402590
 137.8243330  38.7057090  80.7942580 137.5048100  37.2948420  80.3478950
 130.3704940  40.6663280  75.4021260 129.9661940  39.9540530  74.9067160
 130.4568060  40.3216520  76.2909300 130.8386640  44.3530840  77.5660470
 130.5414930  43.7476310  76.8868250 131.7886460  44.3908150  77.4549830
 129.0833560  37.4406490  79.1820300 129.6348150  37.5501830  78.4073550
 129.5977070  37.8144090  79.8975530 138.9272250  47.9262710  81.2283570
 138.4502810  48.7334900  81.0356180 138.2434040  47.2741040  81.3809780
 136.9710290  40.9405650  70.1309530 137.4103570  40.1028080  69.9847350
 137.6838710  41.5735050  70.2173670 128.7576290  40.9625850  82.7925640
 128.6184060  41.8348650  83.1613040 127.8757650  40.6198660  82.6473580
 135.0805670  45.8801720  74.0990770 135.5201580  46.6226050  73.6846160
 135.0192560  46.1228290  75.0229730 140.5527430  32.1948460  68.4450570
 140.2400090  32.2875290  69.3449640 141.3139900  32.7729490  68.3948000
 127.0709570  39.5608260  72.9027910 126.9507170  40.2870350  72.2909180
 126.7610460  38.7911170  72.4255820 142.5071460  47.6874650  86.2974960
 142.9831180  48.1657540  86.9764040 143.1278620  47.6192140  85.5720460
 124.7094940  42.7323400  78.7096550 124.7875360  42.8672170  77.7652270
 125.3236620  42.0239290  78.9024670 125.9542570  44.4323590  75.1202730
 125.5470650  44.5738180  74.2656330 126.8455580  44.1483750  74.9173940
 141.9104710  44.8787500  83.4574970 142.0367770  44.6399380  82.5392150
 141.9526090  44.0472040  83.9297050 135.7721450  48.5815500  82.0269780
 136.2866120  48.4923510  82.8292210 134.9290530  48.9275200  82.3197690
 137.7475850  48.8670840  71.4553780 137.5876990  48.5773780  72.3535610
 137.5822560  48.0910970  70.9199010 130.2264230  48.6469370  73.2325400
 130.0506710  47.7304910  73.0193200 129.3719970  49.0056660  73.4723200
 137.4501980  46.3758400  70.0151780 136.7567140  46.3735690  69.3554060
 138.1924840  45.9517720  69.5845950 137.0151910  48.0021110  74.0900270
 137.4708860  47.2210490  74.4038890 137.3544430  48.7127930  74.6341450
 141.7628720  36.9319960  84.4224710 141.1472990  37.4399630  83.8940170
 141.4425140  36.0318290  84.3650650 124.7654460  43.7737570  81.2491010
 124.9285500  43.3042930  80.4310380 125.2306910  43.2661130  81.9139850
 129.5373230  32.9043330  76.2851580 129.0941380  33.6852870  75.9536100
 130.0958220  33.2273220  76.9922520 133.8243040  35.7711850  81.8886900
 133.3622410  35.9794870  82.7006840 133.4221150  34.9571200  81.5857570
 138.8247550  36.9920800  83.0183560 137.9741140  36.6926550  83.3392630
 138.6649340  37.2362810  82.1067380 135.9197260  38.4922550  85.1182350
 136.2450670  37.6586300  84.7784580 136.7077590  39.0151070  85.2660680
 132.6532050  32.5254030  71.1657410 132.0286230  32.5213900  71.8910720
 132.5662170  31.6584990  70.7693380 131.5749130  33.4490660  78.1441180
 131.8721460  34.3553490  78.0633200 132.1234690  32.9609440  77.5300750
 129.3287450  38.0276900  74.0132830 129.1028370  37.8114070  74.9179450
 128.5479980  38.4605360  73.6678800 136.5585210  38.0340270  72.6123480
 135.9594100  38.7576070  72.4287100 137.1064820  37.9717050  71.8299930
 131.7686660  38.9262480  84.6793100 131.6730260  37.9857210  84.5293500
 132.6118640  39.1477550  84.2841170 135.1650080  36.6703810  74.6426760
 135.5579650  36.9876010  73.8295450 135.5266930  35.7915690  74.7571280
 126.8997200  35.3376150  82.8326880 126.5060590  36.1851360  83.0399660
 126.2115600  34.7002520  83.0235520 133.4742250  35.4211120  85.9023620
 132.7840570  35.2283320  86.5369710 134.2174550  35.7045760  86.4347920
 124.2014250  33.2604610  76.8656960 123.9127300  33.8307470  77.5781940
 124.9460010  32.7809060  77.2288190 124.3884480  37.2024730  68.0759680
 124.3059150  38.1455490  68.2174670 124.0367540  37.0599640  67.1972030
 135.7505220  39.2609560  78.7377540 135.0186340  39.7696370  79.0867640
 135.3529560  38.4439540  78.4366320 132.1882610  35.9363760  77.1430030
 132.1918670  35.4953710  76.2934570 133.0833730  36.2581090  77.2501850
 128.0384990  35.8190250  76.1024240 127.6985040  36.2965480  76.8591290
 127.2762310  35.3655370  75.7425340 132.2502760  36.9375840  70.1336790
 132.3715580  36.8962320  71.0822610 131.8651270  37.7999990  69.9783520
 136.2131130  34.7143240  78.1500480 136.2303870  35.1651890  78.9942330
 135.9646710  33.8148880  78.3633920 131.2624260  39.2476980  69.5320090
 130.6941160  38.7995230  68.9056000 131.9713260  39.6069760  68.9985240
 139.6401880  32.1275420  83.9886860 139.9647650  31.3965080  84.5144840
 139.6758390  31.8089060  83.0867850 126.3393440  43.1489000  83.4086820
 125.9548230  42.5082670  84.0069780 126.6505630  43.8525120  83.9781550
 132.4890580  39.9965540  78.8895440 132.8560710  39.5224110  79.6356780
 132.2995640  40.8707110  79.2303780 125.3531070  34.7409230  75.0188910
 125.0677990  34.3764900  75.8567530 125.2909930  34.0089690  74.4052050
 130.2789950  39.0374180  81.2079650 129.9747020  39.9166160  81.4330010
 131.2336410  39.0973970  81.2437090 128.8071740  43.2435170  71.8046500
 128.0334000  42.7032790  71.6445220 129.5366370  42.7241780  71.4664260
 139.5659720  42.2400530  77.5972890 140.2858840  42.7355820  77.2069000
 139.3641540  41.5618420  76.9526760 135.0269660  33.6338490  71.7402280
 134.2134270  33.1351660  71.6647590 134.8331610  34.4736740  71.3238630
 134.9478520  42.3109590  83.4841890 134.8815830  41.3905260  83.2299480
 134.3183660  42.4085030  84.1986530 137.7418050  38.0058140  70.0364440
 138.6297670  38.3175370  69.8615780 137.7123140  37.1330390  69.6445020
 128.8509140  42.9115550  75.4425310 129.3687810  42.1083810  75.3882200
 128.3993160  42.8494690  76.2842140 133.7378640  44.1781830  70.7152610
 134.0794340  44.9224060  70.2195930 132.9091350  44.4912950  71.0777440
 126.3353680  39.8776920  82.3551010 125.9768620  40.5430770  82.9424350
 126.0408240  39.0460470  82.7263630 129.5366800  40.3361160  85.2390560
 129.2366940  40.4818340  84.3418380 130.3078040  39.7766450  85.1463950
 134.8795250  45.1330160  83.2345690 134.8939790  44.2011120  83.0164600
 134.1720350  45.2189920  83.8735460 140.0132320  39.3169980  69.5044300
 139.9296040  39.7484200  68.6540740 140.7326510  39.7768330  69.9371120
 141.0906460  41.7737500  82.5814270 140.3654650  42.3666280  82.3843660
 141.6181920  41.7661040  81.7827640 141.0419570  46.1712240  72.2326430
 140.3995730  45.5167860  72.5070150 140.6550230  46.5767330  71.4567100
 136.6206050  43.4997670  76.0798120 136.9729870  42.9025800  75.4199490
 135.7368380  43.1741900  76.2506370 132.7069330  44.2595360  73.4868530
 133.3940460  44.8064570  73.8676120 131.9201750  44.8036090  73.5218140
 132.0096540  41.2641390  73.0993890 132.4659320  42.0746640  73.3254080
 131.6584750  40.9464530  73.9312380 134.3129150  46.7747730  80.3286190
 134.9571370  46.9807110  81.0059610 134.6758590  46.0136130  79.8757040
 127.9108320  31.6079040  73.5716410 127.7822950  31.5996940  74.5201330
 127.0870340  31.9462130  73.2207420 135.5861230  44.7780080  79.0463640
 136.2283460  44.0773240  79.1595810 136.1110580  45.5578520  78.8660530
 139.4316950  45.0628700  68.7702780 139.2054530  44.3459140  69.3627420
 139.0413150  44.8141140  67.9324530 137.3598850  45.5774980  82.2499700
 137.6955090  46.1641670  82.9277620 136.4399190  45.4467690  82.4797490
 124.9102250  33.3670160  83.0323110 124.1960770  33.5667080  83.6375720
 125.3297290  32.5909730  83.4037910 139.0133200  42.9800640  70.4316940
 138.7254900  43.4413330  71.2194820 139.8085370  42.5198410  70.7001160
 131.2301600  46.4726760  70.3620910 131.2211700  47.2056450  69.7465420
 130.3099960  46.2258340  70.4547870 126.8308240  41.6941650  71.1067670
 126.2236190  42.4340550  71.1162970 127.3057590  41.7841010  70.2805870
 136.4041030  35.8592470  80.7824560 136.7721850  35.0387680  81.1104130
 135.5439230  35.9194360  81.1980210 139.7703060  34.8149410  71.5912120
 139.1416220  34.9195080  70.8770350 139.2754980  35.0346190  72.3806000
 134.2161200  46.5355000  69.0246100 134.3173180  46.3318990  68.0948080
 133.3162940  46.2813280  69.2293880 131.7387090  37.0935360  73.0070000
 131.0303240  37.5621700  73.4483610 132.0231570  36.4357370  73.6415190
 133.3643020  38.5132060  81.0062530 133.8628270  38.9877880  81.6714380
 133.5065970  37.5895580  81.2132560 135.7702520  33.8186020  74.4465790
 135.6470300  33.8372150  73.4975300 136.7187080  33.8664960  74.5664190
 129.9422110  35.4020440  70.3820710 130.7912640  35.8390590  70.3160900
 129.5753380  35.7140700  71.2092770 140.5709880  34.7300020  81.8490920
 140.0683480  35.4705420  82.1884730 141.3866540  35.1184020  81.5327710
 138.8631890  39.9733200  75.2952280 137.9222030  39.9883430  75.4699970
 139.1775960  39.1869160  75.7412580 128.8413530  41.6552800  68.8556240
 129.6076800  41.5434160  69.4181670 128.9188220  40.9590770  68.2033010
 127.5360290  39.0877870  69.5389130 127.6163880  38.1405380  69.6506530
 128.4280040  39.4184750  69.6449790 140.8657470  47.1442050  76.9706540
 140.9904890  47.9673220  77.4430350 141.7323030  46.9332780  76.6230690
 128.3375000  49.2373260  76.6423670 129.0737480  48.6888720  76.9132240
 128.7215920  50.1029270  76.5029660 125.2220480  45.3046830  72.5165180
 124.2960260  45.5467970  72.5070590 125.6876910  46.1321090  72.3949930
 131.4477310  48.4103570  68.4649240 132.2405920  48.6992400  68.0131030
 130.9281660  47.9795740  67.7861720 136.1797910  44.5299200  85.7784660
 135.5736070  44.5530800  85.0380410 135.8752020  43.7982240  86.3151910
 137.6098280  48.2579490  84.3894070 138.5620030  48.1737510  84.3394310
 137.4626500  48.9221200  85.0627860 140.5007480  47.6373700  69.8885980
 140.2148990  47.2238840  69.0740160 140.3027030  48.5661410  69.7686500
 125.0631090  40.9092790  84.7745300 125.5670110  40.3300070  85.3461530
 124.3238510  41.1933020  85.3121670 131.9654710  43.6306980  68.3291590
 131.8605350  43.0159330  69.0552970 131.7978930  43.1072870  67.5454600
 132.1169030  42.3163780  84.3080820 131.3514700  42.8848780  84.2235490
 132.2984990  42.0239990  83.4149050 135.2057440  42.6927010  68.9333580
 134.6567540  43.1396310  69.5776320 135.8276700  42.1876260  69.4571250
 139.2592380  44.0469110  84.8655840 140.0001850  44.3844870  84.3623300
 138.4965060  44.2161170  84.3125610 127.0954170  39.0522380  85.6695370
 127.1359510  38.7536250  86.5780600 127.9499670  39.4529990  85.5102890
 130.8732560  41.6517930  70.8298880 131.2948980  41.4857800  71.6730270
 130.9983400  40.8418160  70.3354020 129.0359980  37.6314480  83.6369860
 128.5056440  37.1405430  83.0093200 129.7048050  38.0598680  83.1027790
 133.3860200  40.6755540  68.0775980 133.9065860  39.9604560  67.7117130
 134.0328600  41.3141410  68.3776490 137.9338040  42.0983940  83.4011050
 138.3479060  42.2529020  84.2501470 136.9989040  42.2239160  83.5636830
 138.4060210  39.4380100  85.4050200 138.9880980  38.6832420  85.3170680
 138.5821980  39.9687540  84.6281680 129.5232280  34.5976850  83.7167150
 129.4289150  33.9797600  82.9918020 128.9429670  35.3243140  83.4897060
 132.2893720  33.1550090  80.7494540 131.8411020  33.1774350  79.9040090
 131.6558920  32.7569110  81.3464840 132.6953270  42.0504420  81.3706980
 133.1141380  42.8937150  81.1983220 131.7761900  42.1876460  81.1413760
 135.0317170  39.7820600  82.7544820 135.1513380  39.1861740  83.4939660
 135.8911170  39.8190290  82.3346120 137.3705070  40.3357790  81.3307330
 136.8440290  40.8600410  80.7272470 137.7136410  40.9685180  81.9617060
 129.7691460  37.7251160  67.7757040 129.5680520  36.8618520  68.1370380
 129.5983510  37.6384520  66.8378640 131.7985940  36.3241950  84.0120640
 132.3885630  36.0157800  84.6998460 130.9806180  35.8521700  84.1680540
 136.6179370  35.9407760  84.2453660 135.9294890  35.2789300  84.1803650
 137.3385390  35.4946030  84.6902120 137.2479770  32.5359390  70.3043920
 137.5282060  31.6927290  70.6603340 136.4745500  32.7682500  70.8182670
 128.5674260  34.8251780  67.7634920 128.8700160  34.8319210  66.8554070
 129.3068850  34.4749640  68.2602580 131.7859190  33.7686400  68.7491120
 131.4381190  33.0910390  68.1693570 131.9871960  33.3075910  69.5634510
 127.5904390  44.1294200  68.5964720 128.0279260  44.6723870  69.2522300
 128.0752120  43.3041150  68.6061060 124.8050190  46.9183230  76.0484980
 125.1353200  46.0504290  75.8163620 125.2341190  47.1241750  76.8789940
 129.4012110  45.2492240  73.7086950 129.1007650  45.1257210  74.6090860
 129.2949600  44.3900830  73.3002680 125.2940400  47.7853820  78.7866610
 124.8571390  47.9654620  79.6190760 125.8618080  48.5428440  78.6448330
 140.9302580  47.2870820  83.0743920 140.3304570  47.3463380  82.3307840
 141.0596480  46.3475800  83.2040770 142.1704030  45.0288640  68.4113630
 141.3396990  45.0965290  68.8820860 142.3475860  45.9192760  68.1080490
 141.6260490  41.7736120  70.9147830 142.3879400  42.3432770  71.0207520
 141.6414860  41.2063320  71.6856140 125.1264830  40.2974050  75.1455490
 124.4713670  40.0285690  74.5015190 125.9642780  40.1878530  74.6957470
 142.6320460  42.6286220  75.7589760 143.0029290  41.8453540  75.3525730
 143.2722390  43.3175320  75.5807060 139.6154220  44.0122800  81.1720080
 138.8014060  44.4419960  81.4345870 140.0228420  44.6241210  80.5589130
 141.6779660  42.0670490  68.0720350 141.9528500  42.9749370  67.9439570
 141.4890400  42.0033020  69.0082340 138.0755270  35.0915340  69.3673980
 138.4940150  34.9046320  68.5270640 137.7691330  34.2394390  69.6776910
 141.5745000  40.0039480  73.0649780 141.1988600  39.2367410  72.6331070
 140.8448120  40.3862180  73.5524710 126.1640760  40.6826620  79.6858830
 126.5313800  40.5954020  80.5654850 125.5951580  39.9193170  79.5865690
 140.9644620  39.1511000  82.6989300 140.7330710  38.9223750  81.7987250
 141.2249170  40.0710550  82.6534190 125.7156760  37.5935710  83.5917250
 124.8212810  37.5602470  83.9310960 126.2554310  37.7922500  84.3568500
 139.4032690  34.3767430  85.4769000 140.2802870  34.3850830  85.8603000
 139.4153530  33.6398270  84.8661350 124.3402910  37.5072980  71.0880820
 123.4366990  37.7703180  70.9132480 124.8243530  37.7784150  70.3080780
 140.8495960  38.2296970  76.3657020 141.3733440  37.7359620  75.7347190
 141.4355380  38.3647330  77.1104590 141.0285680  38.3136840  79.8876570
 140.0788390  38.2800380  80.0021560 141.2098690  39.2236950  79.6526340
 126.8830120  36.5638520  68.9975200 127.5921820  36.1421740  68.5122480
 126.1670060  36.6313750  68.3658550 126.5304280  32.6177850  68.0377850
 127.2532410  33.1586790  68.3559070 126.8028800  32.3441270  67.1619390
 140.3395930  37.4870320  72.3049430 140.8355050  37.2541190  73.0898310
 140.1412000  36.6482160  71.8887070 126.2196470  31.8684040  77.9400470
 126.8672660  31.3181420  77.4995630 126.6398310  32.1227190  78.7616280
 141.7683090  36.1231270  74.8387110 141.6582370  35.9687310  75.7769380
 142.5290680  35.5952210  74.5962520 140.1148810  32.0625400  81.2970110
 140.7521030  32.6759540  81.6629300 140.2623700  32.0986060  80.3519340
 142.6573360  33.9539190  68.0793250 143.5822670  33.8220370  67.8711540
 142.6349150  34.0332010  69.0329700 142.7311850  34.7249850  70.7049960
 141.9363350  34.6594970  71.2342870 142.9355130  35.6600490  70.6935310
 139.6730270  48.7641400  74.6988350 140.2689340  48.4425970  74.0222770
 139.9308420  48.2913220  75.4901620 125.9728470  32.0239710  80.6825790
 125.6243290  32.4803530  81.4483970 125.6416170  31.1296840  80.7648220
 133.4853290  33.2151590  84.2045210 133.4242180  33.8073420  84.9540620
 134.4253670  33.1077550  84.0595470 136.1227850  32.8721650  83.8437500
 136.7368260  33.1900940  83.1818580 136.6677410  32.3870240  84.4633360
 142.5403030  48.7713280  81.2499340 142.0461310  49.1682150  80.5326470
 141.9316320  48.1462490  81.6436620 126.6449110  31.5515910  83.9576560
 127.1932100  31.3703960  83.1942670 126.7104420  30.7610020  84.4932870
 136.8635890  31.4353790  80.1706790 135.9895730  31.7688900  79.9679720
 136.7546640  30.9626970  80.9958660 137.7707870  33.6424660  81.5548510
 137.4421230  32.8276420  81.1750240 138.7190170  33.5994470  81.4314200
 140.2242480  49.4136700  78.5286080 139.7645450  50.1652510  78.1544100
 139.5954940  48.6943170  78.4700880 130.6538200  47.7224940  77.7034210
 131.1703220  47.1112300  77.1782470 131.3035580  48.2253720  78.1945220
 133.3933700  48.6133430  78.5303190 133.6811510  48.3587730  77.6536200
 133.9056920  48.0610790  79.1208760 134.6110710  32.3523630  79.1099700
 133.8282500  32.8269130  79.3896460 134.3173640  31.4478460  79.0012880
 139.1631780  33.0546730  77.1548790 139.6039870  32.9991830  76.3070390
 138.8939370  33.9704740  77.2258970 141.0270350  32.6861970  75.1657610
 140.9658750  31.7423190  75.0188630 141.8062380  32.7942060  75.7111070
 125.3323100  48.8254330  74.1281560 125.1645140  48.1925010  74.8263450
 124.4657610  49.0313730  73.7775750 125.9551120  32.6571110  71.6313420
 126.7130480  32.7699990  71.0577450 125.4928290  33.4940310  71.5856850
 132.4964930  34.7710380  74.6215730 131.6839440  34.3967270  74.2811610
 133.0006570  34.0155460  74.9236920 136.9989910  31.4352830  75.8598800
 137.6019280  32.0073040  76.3347320 136.2582900  31.9992270  75.6372700
 140.1424510  31.8374390  71.1339080 140.3375140  32.7357840  71.4006510
 139.3554380  31.6061470  71.6272030 126.9385800  47.5187560  71.5731700
 126.4133420  47.8995590  70.8693660 126.8630380  48.1438330  72.2941410
 128.3276270  33.1835160  70.1715390 128.8569030  32.3964960  70.0423340
 128.9604590  33.8626350  70.4050920 130.5214110  32.9210300  73.2260780
 129.8916850  32.2197610  73.3930910 129.9819250  33.6814430  73.0093940
 133.4606060  49.5349530  85.8971390 134.3873370  49.2993800  85.9407350
 133.4456490  50.3621530  85.4157420 141.6951120  49.0775100  72.8945640
 141.8703310  48.3912840  72.2506560 140.9972690  49.6022150  72.5022310
 130.6469670  32.1994280  85.6613270 130.3653940  32.7027880  84.8974090
 131.0289370  31.4016030  85.2955400 129.5378770  49.4669940  70.4480950
 130.2697590  49.1829220  69.9004840 129.7972440  49.2283220  71.3380330
 128.6993560  45.5834670  70.4527280 128.0702440  46.0519770  71.0013110
 128.8141390  44.7383890  70.8873470 137.2485130  31.6147860  86.2393740
 137.1350580  31.9342470  87.1345260 138.0654870  32.0160370  85.9431020
 140.0283620  48.7619390  85.7212430 140.8208940  48.2668620  85.5138390
 140.3216770  49.4409530  86.3288040 136.1543280  39.6340330  56.6028480
 136.0737330  38.7194940  56.3320190 135.7407700  40.1307400  55.8968190
 134.2861320  41.4119350  58.4837750 133.5103420  40.9319790  58.7736320
 134.9374250  40.7325000  58.3093910 128.3027150  41.7239160  59.3613510
 127.4712030  41.4687870  59.7610020 128.9108130  41.7949930  60.0971430
 138.3068750  45.8179540  57.2636880 137.8450280  45.0466780  57.5924050
 139.1194300  45.8445610  57.7689330 126.7119100  36.6841050  53.1455900
 125.8235800  37.0257020  53.0435780 126.9960290  36.4841370  52.2536730
 124.6752110  39.2846700  59.0295600 125.2468220  38.5168900  59.0299240
 124.6753650  39.5835460  58.1202210 134.5332060  48.1037550  56.8840870
 133.9143500  48.5595050  56.3135310 135.3883840  48.2589010  56.4830570
 133.7270310  44.0876540  58.4907910 133.6578590  43.1466480  58.3297040
 134.4890170  44.1777950  59.0630480 125.9176980  34.6931060  60.8164530
 125.7379820  33.7956810  61.0967290 125.5157060  35.2402930  61.4911480
 134.7575480  36.8946920  58.7176840 135.1340300  36.0218800  58.6050510
 134.6594990  37.2305620  57.8267280 128.8880490  35.2672550  54.1794280
 128.9947240  36.1676280  54.4863040 127.9772850  35.2190520  53.8888930
 138.5399600  34.3897360  55.6505180 139.3609220  33.8993930  55.6930660
 138.5733680  34.9795020  56.4037020 126.5363650  37.1891560  59.4246870
 127.2173760  37.4529930  60.0434270 126.2211700  36.3492430  59.7584880
 130.7288220  38.2358920  58.5119460 131.2366440  38.7339890  59.1524480
 131.2601460  37.4594120  58.3358820 142.8299150  36.4064110  62.2148810
 142.1251320  36.7945820  61.6963920 143.0957070  37.1014400  62.8169740
 129.0124320  32.8757480  62.7782880 129.0142760  33.3929870  61.9728780
 128.1828630  32.3987660  62.7552810 135.3995410  42.9876790  54.2772780
 134.7812680  43.4526240  53.7135500 135.9118660  43.6804270  54.6942290
 130.2627170  42.5152660  60.9556380 129.9296550  43.1421580  61.5977450
 130.4393850  43.0414540  60.1758050 138.7761080  36.3297740  58.4232720
 138.0716650  36.6182630  59.0035830 139.1373240  37.1397850  58.0632280
 128.6939650  34.5867440  60.7853330 129.0356460  35.4309490  60.4907200
 127.7555460  34.7351180  60.9018670 140.3923860  45.9472870  60.6860200
 139.7087380  46.6171980  60.6776870 140.9318150  46.1453520  59.9205060
 141.8448000  35.7752530  58.8141930 140.8972910  35.8091510  58.9457360
 142.1697990  36.5891480  59.1991290 132.3767540  32.0749710  57.1097920
 132.6842520  31.5196600  56.3933420 131.4468240  32.2094170  56.9270910
 137.9282600  47.7917000  59.4005380 137.9409760  47.3879290  58.5327640
 137.3757820  48.5664290  59.2966810 139.2228020  44.5133220  54.4895550
 139.1124350  43.5707550  54.6144970 139.2196270  44.8748860  55.3758310
 137.3268040  42.6946840  60.7287990 137.7436830  42.4806950  59.8941450
 138.0507860  42.9519630  61.2996610 134.7648300  40.1398540  53.8458040
 133.8377580  40.0735920  54.0746510 134.9173120  41.0778670  53.7313280
 134.7517380  36.4115540  50.8425200 133.8121050  36.5729500  50.9277660
 135.0700640  37.1301220  50.2961190 141.2730140  41.0934060  60.8204230
 140.4448770  41.1627150  60.3454360 141.8680620  41.6788370  60.3520060
 138.7945590  41.7018840  54.3493290 138.1758010  41.3638390  53.7019590
 138.7770040  41.0578600  55.0572480 138.2372150  37.8803380  61.7659100
 137.8243330  38.7057090  62.0199090 137.5048100  37.2948420  61.5735460
 130.3704940  40.6663280  56.6277770 129.9661940  39.9540530  56.1323670
 130.4568060  40.3216520  57.5165810 129.0833560  37.4406490  60.4076810
 129.6348150  37.5501830  59.6330060 129.5977070  37.8144090  61.1232040
 138.9272250  47.9262710  62.4540080 138.4502810  48.7334900  62.2612690
 138.2434040  47.2741040  62.6066290 136.9710290  40.9405650  51.3566040
 137.4103570  40.1028080  51.2103860 137.6838710  41.5735050  51.4430180
 128.7576290  40.9625850  64.0182150 128.6184060  41.8348650  64.3869550
 127.8757650  40.6198660  63.8730090 135.0805670  45.8801720  55.3247280
 135.5201580  46.6226050  54.9102670 135.0192560  46.1228290  56.2486240
 140.5527430  32.1948460  49.6707080 140.2400090  32.2875290  50.5706150
 141.3139900  32.7729490  49.6204510 127.0709570  39.5608260  54.1284420
 126.9507170  40.2870350  53.5165690 126.7610460  38.7911170  53.6512330
 142.5071460  47.6874650  67.5231470 142.9831180  48.1657540  68.2020550
 143.1278620  47.6192140  66.7976970 124.7094940  42.7323400  59.9353060
 124.7875360  42.8672170  58.9908780 125.3236620  42.0239290  60.1281180
 141.9104710  44.8787500  64.6831480 142.0367770  44.6399380  63.7648660
 141.9526090  44.0472040  65.1553560 135.7721450  48.5815500  63.2526290
 136.2866120  48.4923510  64.0548720 134.9290530  48.9275200  63.5454200
 137.7475850  48.8670840  52.6810290 137.5876990  48.5773780  53.5792120
 137.5822560  48.0910970  52.1455520 137.4501980  46.3758400  51.2408290
 136.7567140  46.3735690  50.5810570 138.1924840  45.9517720  50.8102460
 137.0151910  48.0021110  55.3156780 137.4708860  47.2210490  55.6295400
 137.3544430  48.7127930  55.8597960 141.7628720  36.9319960  65.6481220
 141.1472990  37.4399630  65.1196680 141.4425140  36.0318290  65.5907160
 129.5373230  32.9043330  57.5108090 129.0941380  33.6852870  57.1792610
 130.0958220  33.2273220  58.2179030 133.8243040  35.7711850  63.1143410
 133.3622410  35.9794870  63.9263350 133.4221150  34.9571200  62.8114080
 138.8247550  36.9920800  64.2440070 137.9741140  36.6926550  64.5649140
 138.6649340  37.2362810  63.3323890 135.9197260  38.4922550  66.3438860
 136.2450670  37.6586300  66.0041090 136.7077590  39.0151070  66.4917190
 132.6532050  32.5254030  52.3913920 132.0286230  32.5213900  53.1167230
 132.5662170  31.6584990  51.9949890 131.5749130  33.4490660  59.3697690
 131.8721460  34.3553490  59.2889710 132.1234690  32.9609440  58.7557260
 129.3287450  38.0276900  55.2389340 129.1028370  37.8114070  56.1435960
 128.5479980  38.4605360  54.8935310 136.5585210  38.0340270  53.8379990
 135.9594100  38.7576070  53.6543610 137.1064820  37.9717050  53.0556440
 131.7686660  38.9262480  65.9049610 131.6730260  37.9857210  65.7550010
 132.6118640  39.1477550  65.5097680 135.1650080  36.6703810  55.8683270
 135.5579650  36.9876010  55.0551960 135.5266930  35.7915690  55.9827790
 126.8997200  35.3376150  64.0583390 126.5060590  36.1851360  64.2656170
 126.2115600  34.7002520  64.2492030 133.4742250  35.4211120  67.1280130
 132.7840570  35.2283320  67.7626220 134.2174550  35.7045760  67.6604430
 124.2014250  33.2604610  58.0913470 123.9127300  33.8307470  58.8038450
 124.9460010  32.7809060  58.4544700 124.3884480  37.2024730  49.3016190
 124.3059150  38.1455490  49.4431180 124.0367540  37.0599640  48.4228540
 135.7505220  39.2609560  59.9634050 135.0186340  39.7696370  60.3124150
 135.3529560  38.4439540  59.6622830 132.1882610  35.9363760  58.3686540
 132.1918670  35.4953710  57.5191080 133.0833730  36.2581090  58.4758360
 128.0384990  35.8190250  57.3280750 127.6985040  36.2965480  58.0847800
 127.2762310  35.3655370  56.9681850 132.2502760  36.9375840  51.3593300
 132.3715580  36.8962320  52.3079120 131.8651270  37.7999990  51.2040030
 136.2131130  34.7143240  59.3756990 136.2303870  35.1651890  60.2198840
 135.9646710  33.8148880  59.5890430 131.2624260  39.2476980  50.7576600
 130.6941160  38.7995230  50.1312510 131.9713260  39.6069760  50.2241750
 139.6401880  32.1275420  65.2143370 139.9647650  31.3965080  65.7401350
 139.6758390  31.8089060  64.3124360 126.3393440  43.1489000  64.6343330
 125.9548230  42.5082670  65.2326290 126.6505630  43.8525120  65.2038060
 132.4890580  39.9965540  60.1151950 132.8560710  39.5224110  60.8613290
 132.2995640  40.8707110  60.4560290 125.3531070  34.7409230  56.2445420
 125.0677990  34.3764900  57.0824040 125.2909930  34.0089690  55.6308560
 130.2789950  39.0374180  62.4336160 129.9747020  39.9166160  62.6586520
 131.2336410  39.0973970  62.4693600 128.8071740  43.2435170  53.0303010
 128.0334000  42.7032790  52.8701730 129.5366370  42.7241780  52.6920770
 139.5659720  42.2400530  58.8229400 140.2858840  42.7355820  58.4325510
 139.3641540  41.5618420  58.1783270 135.0269660  33.6338490  52.9658790
 134.2134270  33.1351660  52.8904100 134.8331610  34.4736740  52.5495140
 134.9478520  42.3109590  64.7098400 134.8815830  41.3905260  64.4555990
 134.3183660  42.4085030  65.4243040 137.7418050  38.0058140  51.2620950
 138.6297670  38.3175370  51.0872290 137.7123140  37.1330390  50.8701530
 128.8509140  42.9115550  56.6681820 129.3687810  42.1083810  56.6138710
 128.3993160  42.8494690  57.5098650 133.7378640  44.1781830  51.9409120
 134.0794340  44.9224060  51.4452440 132.9091350  44.4912950  52.3033950
 126.3353680  39.8776920  63.5807520 125.9768620  40.5430770  64.1680860
 126.0408240  39.0460470  63.9520140 129.5366800  40.3361160  66.4647070
 129.2366940  40.4818340  65.5674890 130.3078040  39.7766450  66.3720460
 134.8795250  45.1330160  64.4602200 134.8939790  44.2011120  64.2421110
 134.1720350  45.2189920  65.0991970 140.0132320  39.3169980  50.7300810
 139.9296040  39.7484200  49.8797250 140.7326510  39.7768330  51.1627630
 141.0906460  41.7737500  63.8070780 140.3654650  42.3666280  63.6100170
 141.6181920  41.7661040  63.0084150 141.0419570  46.1712240  53.4582940
 140.3995730  45.5167860  53.7326660 140.6550230  46.5767330  52.6823610
 136.6206050  43.4997670  57.3054630 136.9729870  42.9025800  56.6456000
 135.7368380  43.1741900  57.4762880 132.7069330  44.2595360  54.7125040
 133.3940460  44.8064570  55.0932630 131.9201750  44.8036090  54.7474650
 124.8461730  39.8768180  50.2042120 125.7156580  40.1592980  50.4878040
 124.3552050  40.6904050  50.0890930 132.0096540  41.2641390  54.3250400
 132.4659320  42.0746640  54.5510590 131.6584750  40.9464530  55.1568890
 134.3129150  46.7747730  61.5542700 134.9571370  46.9807110  62.2316120
 134.6758590  46.0136130  61.1013550 127.9108320  31.6079040  54.7972920
 127.7822950  31.5996940  55.7457840 127.0870340  31.9462130  54.4463930
 135.5861230  44.7780080  60.2720150 136.2283460  44.0773240  60.3852320
 136.1110580  45.5578520  60.0917040 139.4316950  45.0628700  49.9959290
 139.2054530  44.3459140  50.5883930 139.0413150  44.8141140  49.1581040
 137.3598850  45.5774980  63.4756210 137.6955090  46.1641670  64.1534130
 136.4399190  45.4467690  63.7054000 124.9102250  33.3670160  64.2579620
 124.1960770  33.5667080  64.8632230 125.3297290  32.5909730  64.6294420
 139.0133200  42.9800640  51.6573450 138.7254900  43.4413330  52.4451330
 139.8085370  42.5198410  51.9257670 133.1887430  45.6266310  66.6444270
 132.8684300  44.9075550  67.1889960 132.5145790  46.3021380  66.7180330
 131.2301600  46.4726760  51.5877420 131.2211700  47.2056450  50.9721930
 130.3099960  46.2258340  51.6804380 126.8308240  41.6941650  52.3324180
 126.2236190  42.4340550  52.3419480 127.3057590  41.7841010  51.5062380
 136.4041030  35.8592470  62.0081070 136.7721850  35.0387680  62.3360640
 135.5439230  35.9194360  62.4236720 139.7703060  34.8149410  52.8168630
 139.1416220  34.9195080  52.1026860 139.2754980  35.0346190  53.6062510
 134.2161200  46.5355000  50.2502610 134.3173180  46.3318990  49.3204590
 133.3162940  46.2813280  50.4550390 131.7387090  37.0935360  54.2326510
 131.0303240  37.5621700  54.6740120 132.0231570  36.4357370  54.8671700
 133.3643020  38.5132060  62.2319040 133.8628270  38.9877880  62.8970890
 133.5065970  37.5895580  62.4389070 135.7702520  33.8186020  55.6722300
 135.6470300  33.8372150  54.7231810 136.7187080  33.8664960  55.7920700
 129.9422110  35.4020440  51.6077220 130.7912640  35.8390590  51.5417410
 129.5753380  35.7140700  52.4349280 140.5709880  34.7300020  63.0747430
 140.0683480  35.4705420  63.4141240 141.3866540  35.1184020  62.7584220
 138.8631890  39.9733200  56.5208790 137.9222030  39.9883430  56.6956480
 139.1775960  39.1869160  56.9669090 128.8413530  41.6552800  50.0812750
 129.6076800  41.5434160  50.6438180 128.9188220  40.9590770  49.4289520
 127.5360290  39.0877870  50.7645640 127.6163880  38.1405380  50.8763040
 128.4280040  39.4184750  50.8706300 140.8657470  47.1442050  58.1963050
 140.9904890  47.9673220  58.6686860 141.7323030  46.9332780  57.8487200
 127.3433280  48.4219330  67.0565760 128.1446010  48.7431380  67.4701160
 126.8285100  48.0614910  67.7785670 136.1797910  44.5299200  67.0041170
 135.5736070  44.5530800  66.2636920 135.8752020  43.7982240  67.5408420
 137.6098280  48.2579490  65.6150580 138.5620030  48.1737510  65.5650820
 137.4626500  48.9221200  66.2884370 140.5007480  47.6373700  51.1142490
 140.2148990  47.2238840  50.2996670 140.3027030  48.5661410  50.9943010
 131.9654710  43.6306980  49.5548100 131.8605350  43.0159330  50.2809480
 131.7978930  43.1072870  48.7711110 132.1169030  42.3163780  65.5337330
 131.3514700  42.8848780  65.4492000 132.2984990  42.0239990  64.6405560
 135.2057440  42.6927010  50.1590090 134.6567540  43.1396310  50.8032830
 135.8276700  42.1876260  50.6827760 139.2592380  44.0469110  66.0912350
 140.0001850  44.3844870  65.5879810 138.4965060  44.2161170  65.5382120
 127.0954170  39.0522380  66.8951880 127.1359510  38.7536250  67.8037110
 127.9499670  39.4529990  66.7359400 130.8732560  41.6517930  52.0555390
 131.2948980  41.4857800  52.8986780 130.9983400  40.8418160  51.5610530
 129.0359980  37.6314480  64.8626370 128.5056440  37.1405430  64.2349710
 129.7048050  38.0598680  64.3284300 133.3860200  40.6755540  49.3032490
 133.9065860  39.9604560  48.9373640 134.0328600  41.3141410  49.6033000
 137.9338040  42.0983940  64.6267560 138.3479060  42.2529020  65.4757980
 136.9989040  42.2239160  64.7893340 138.4060210  39.4380100  66.6306710
 138.9880980  38.6832420  66.5427190 138.5821980  39.9687540  65.8538190
 129.5232280  34.5976850  64.9423660 129.4289150  33.9797600  64.2174530
 128.9429670  35.3243140  64.7153570 132.2893720  33.1550090  61.9751050
 131.8411020  33.1774350  61.1296600 131.6558920  32.7569110  62.5721350
 132.6953270  42.0504420  62.5963490 133.1141380  42.8937150  62.4239730
 131.7761900  42.1876460  62.3670270 135.0317170  39.7820600  63.9801330
 135.1513380  39.1861740  64.7196170 135.8911170  39.8190290  63.5602630
 137.3705070  40.3357790  62.5563840 136.8440290  40.8600410  61.9528980
 137.7136410  40.9685180  63.1873570 129.7691460  37.7251160  49.0013550
 129.5680520  36.8618520  49.3626890 129.5983510  37.6384520  48.0635150
 131.7985940  36.3241950  65.2377150 132.3885630  36.0157800  65.9254970
 130.9806180  35.8521700  65.3937050 136.6179370  35.9407760  65.4710170
 135.9294890  35.2789300  65.4060160 137.3385390  35.4946030  65.9158630
 137.2479770  32.5359390  51.5300430 137.5282060  31.6927290  51.8859850
 136.4745500  32.7682500  52.0439180 128.5674260  34.8251780  48.9891430
 128.8700160  34.8319210  48.0810580 129.3068850  34.4749640  49.4859090
 133.4022900  49.5908640  63.9707870 133.3281600  50.4943780  64.2780240
 132.5001740  49.2720540  63.9429940 131.7859190  33.7686400  49.9747630
 131.4381190  33.0910390  49.3950080 131.9871960  33.3075910  50.7891020
 133.9508230  48.7567150  51.5934230 134.8459020  49.0952120  51.6152990
 133.9825860  48.0346560  50.9658510 127.5904390  44.1294200  49.8221230
 128.0279260  44.6723870  50.4778810 128.0752120  43.3041150  49.8317570
 129.4012110  45.2492240  54.9343460 129.1007650  45.1257210  55.8347370
 129.2949600  44.3900830  54.5259190 140.9302580  47.2870820  64.3000430
 140.3304570  47.3463380  63.5564350 141.0596480  46.3475800  64.4297280
 142.1704030  45.0288640  49.6370140 141.3396990  45.0965290  50.1077370
 142.3475860  45.9192760  49.3337000 141.6260490  41.7736120  52.1404340
 142.3879400  42.3432770  52.2464030 141.6414860  41.2063320  52.9112650
 125.1264830  40.2974050  56.3712000 124.4713670  40.0285690  55.7271700
 125.9642780  40.1878530  55.9213980 142.6320460  42.6286220  56.9846270
 143.0029290  41.8453540  56.5782240 143.2722390  43.3175320  56.8063570
 139.6154220  44.0122800  62.3976590 138.8014060  44.4419960  62.6602380
 140.0228420  44.6241210  61.7845640 141.6779660  42.0670490  49.2976860
 141.9528500  42.9749370  49.1696080 141.4890400  42.0033020  50.2338850
 138.0755270  35.0915340  50.5930490 138.4940150  34.9046320  49.7527150
 137.7691330  34.2394390  50.9033420 141.5745000  40.0039480  54.2906290
 141.1988600  39.2367410  53.8587580 140.8448120  40.3862180  54.7781220
 126.1640760  40.6826620  60.9115340 126.5313800  40.5954020  61.7911360
 125.5951580  39.9193170  60.8122200 140.9644620  39.1511000  63.9245810
 140.7330710  38.9223750  63.0243760 141.2249170  40.0710550  63.8790700
 125.7156760  37.5935710  64.8173760 124.8212810  37.5602470  65.1567470
 126.2554310  37.7922500  65.5825010 139.4032690  34.3767430  66.7025510
 140.2802870  34.3850830  67.0859510 139.4153530  33.6398270  66.0917860
 124.3402910  37.5072980  52.3137330 123.4366990  37.7703180  52.1388990
 124.8243530  37.7784150  51.5337290 140.8495960  38.2296970  57.5913530
 141.3733440  37.7359620  56.9603700 141.4355380  38.3647330  58.3361100
 141.0285680  38.3136840  61.1133080 140.0788390  38.2800380  61.2278070
 141.2098690  39.2236950  60.8782850 126.8830120  36.5638520  50.2231710
 127.5921820  36.1421740  49.7378990 126.1670060  36.6313750  49.5915060
 126.5304280  32.6177850  49.2634360 127.2532410  33.1586790  49.5815580
 126.8028800  32.3441270  48.3875900 140.3395930  37.4870320  53.5305940
 140.8355050  37.2541190  54.3154820 140.1412000  36.6482160  53.1143580
 126.2196470  31.8684040  59.1656980 126.8672660  31.3181420  58.7252140
 126.6398310  32.1227190  59.9872790 141.7683090  36.1231270  56.0643620
 141.6582370  35.9687310  57.0025890 142.5290680  35.5952210  55.8219030
 140.1148810  32.0625400  62.5226620 140.7521030  32.6759540  62.8885810
 140.2623700  32.0986060  61.5775850 142.6573360  33.9539190  49.3049760
 143.5822670  33.8220370  49.0968050 142.6349150  34.0332010  50.2586210
 142.7311850  34.7249850  51.9306470 141.9363350  34.6594970  52.4599380
 142.9355130  35.6600490  51.9191820 139.6730270  48.7641400  55.9244860
 140.2689340  48.4425970  55.2479280 139.9308420  48.2913220  56.7158130
 125.9728470  32.0239710  61.9082300 125.6243290  32.4803530  62.6740480
 125.6416170  31.1296840  61.9904730 133.4853290  33.2151590  65.4301720
 133.4242180  33.8073420  66.1797130 134.4253670  33.1077550  65.2851980
 136.1227850  32.8721650  65.0694010 136.7368260  33.1900940  64.4075090
 136.6677410  32.3870240  65.6889870 142.5403030  48.7713280  62.4755850
 142.0461310  49.1682150  61.7582980 141.9316320  48.1462490  62.8693130
 126.6449110  31.5515910  65.1833070 127.1932100  31.3703960  64.4199180
 126.7104420  30.7610020  65.7189380 136.8635890  31.4353790  61.3963300
 135.9895730  31.7688900  61.1936230 136.7546640  30.9626970  62.2215170
 137.7707870  33.6424660  62.7805020 137.4421230  32.8276420  62.4006750
 138.7190170  33.5994470  62.6570710 140.2242480  49.4136700  59.7542590
 139.7645450  50.1652510  59.3800610 139.5954940  48.6943170  59.6957390
 134.6110710  32.3523630  60.3356210 133.8282500  32.8269130  60.6152970
 134.3173640  31.4478460  60.2269390 139.1631780  33.0546730  58.3805300
 139.6039870  32.9991830  57.5326900 138.8939370  33.9704740  58.4515480
 141.0270350  32.6861970  56.3914120 140.9658750  31.7423190  56.2445140
 141.8062380  32.7942060  56.9367580 125.9551120  32.6571110  52.8569930
 126.7130480  32.7699990  52.2833960 125.4928290  33.4940310  52.8113360
 132.4964930  34.7710380  55.8472240 131.6839440  34.3967270  55.5068120
 133.0006570  34.0155460  56.1493430 136.9989910  31.4352830  57.0855310
 137.6019280  32.0073040  57.5603830 136.2582900  31.9992270  56.8629210
 140.1424510  31.8374390  52.3595590 140.3375140  32.7357840  52.6263020
 139.3554380  31.6061470  52.8528540 128.3276270  33.1835160  51.3971900
 128.8569030  32.3964960  51.2679850 128.9604590  33.8626350  51.6307430
 130.5214110  32.9210300  54.4517290 129.8916850  32.2197610  54.6187420
 129.9819250  33.6814430  54.2350450 133.4606060  49.5349530  67.1227900
 134.3873370  49.2993800  67.1663860 133.4456490  50.3621530  66.6413930
 141.6951120  49.0775100  54.1202150 141.8703310  48.3912840  53.4763070
 140.9972690  49.6022150  53.7278820 130.6469670  32.1994280  66.8869780
 130.3653940  32.7027880  66.1230600 131.0289370  31.4016030  66.5211910
 128.6993560  45.5834670  51.6783790 128.0702440  46.0519770  52.2269620
 128.8141390  44.7383890  52.1129980 137.2485130  31.6147860  67.4650250
 137.1350580  31.9342470  68.3601770 138.0654870  32.0160370  67.1687530
 140.0283620  48.7619390  66.9468940 140.8208940  48.2668620  66.7394900
 140.3216770  49.4409530  67.5544550 136.1543280  39.6340330  37.8284990
 136.0737330  38.7194940  37.5576700 135.7407700  40.1307400  37.1224700
 134.2861320  41.4119350  39.7094260 133.5103420  40.9319790  39.9992830
 134.9374250  40.7325000  39.5350420 128.3027150  41.7239160  40.5870020
 127.4712030  41.4687870  40.9866530 128.9108130  41.7949930  41.3227940
 138.3068750  45.8179540  38.4893390 137.8450280  45.0466780  38.8180560
 139.1194300  45.8445610  38.9945840 128.2828410  45.7579250  40.7828040
 128.5856450  44.8676990  40.6038260 129.0272000  46.3149470  40.5550290
 126.7119100  36.6841050  34.3712410 125.8235800  37.0257020  34.2692290
 126.9960290  36.4841370  33.4793240 124.6752110  39.2846700  40.2552110
 125.2468220  38.5168900  40.2555750 124.6753650  39.5835460  39.3458720
 134.5332060  48.1037550  38.1097380 133.9143500  48.5595050  37.5391820
 135.3883840  48.2589010  37.7087080 133.7270310  44.0876540  39.7164420
 133.6578590  43.1466480  39.5553550 134.4890170  44.1777950  40.2886990
 125.9176980  34.6931060  42.0421040 125.7379820  33.7956810  42.3223800
 125.5157060  35.2402930  42.7167990 134.7575480  36.8946920  39.9433350
 135.1340300  36.0218800  39.8307020 134.6594990  37.2305620  39.0523790
 128.8880490  35.2672550  35.4050790 128.9947240  36.1676280  35.7119550
 127.9772850  35.2190520  35.1145440 138.5399600  34.3897360  36.8761690
 139.3609220  33.8993930  36.9187170 138.5733680  34.9795020  37.6293530
 126.5363650  37.1891560  40.6503380 127.2173760  37.4529930  41.2690780
 126.2211700  36.3492430  40.9841390 130.7288220  38.2358920  39.7375970
 131.2366440  38.7339890  40.3780990 131.2601460  37.4594120  39.5615330
 142.8299150  36.4064110  43.4405320 142.1251320  36.7945820  42.9220430
 143.0957070  37.1014400  44.0426250 129.0124320  32.8757480  44.0039390
 129.0142760  33.3929870  43.1985290 128.1828630  32.3987660  43.9809320
 135.3995410  42.9876790  35.5029290 134.7812680  43.4526240  34.9392010
 135.9118660  43.6804270  35.9198800 130.2627170  42.5152660  42.1812890
 129.9296550  43.1421580  42.8233960 130.4393850  43.0414540  41.4014560
 138.7761080  36.3297740  39.6489230 138.0716650  36.6182630  40.2292340
 139.1373240  37.1397850  39.2888790 128.6939650  34.5867440  42.0109840
 129.0356460  35.4309490  41.7163710 127.7555460  34.7351180  42.1275180
 129.4746270  44.4833460  43.9962070 130.0920270  45.1584540  43.7146520
 128.6139390  44.8921440  43.9049570 124.7678610  43.6733320  32.8768920
 124.3906590  44.1620420  32.1453820 125.0251680  44.3458600  33.5075450
 140.3923860  45.9472870  41.9116710 139.7087380  46.6171980  41.9033380
 140.9318150  46.1453520  41.1461570 141.8448000  35.7752530  40.0398440
 140.8972910  35.8091510  40.1713870 142.1697990  36.5891480  40.4247800
 132.3767540  32.0749710  38.3354430 132.6842520  31.5196600  37.6189930
 131.4468240  32.2094170  38.1527420 137.9282600  47.7917000  40.6261890
 137.9409760  47.3879290  39.7584150 137.3757820  48.5664290  40.5223320
 139.2228020  44.5133220  35.7152060 139.1124350  43.5707550  35.8401480
 139.2196270  44.8748860  36.6014820 137.3268040  42.6946840  41.9544500
 137.7436830  42.4806950  41.1197960 138.0507860  42.9519630  42.5253120
 134.7648300  40.1398540  35.0714550 133.8377580  40.0735920  35.3003020
 134.9173120  41.0778670  34.9569790 134.7517380  36.4115540  32.0681710
 133.8121050  36.5729500  32.1534170 135.0700640  37.1301220  31.5217700
 141.2730140  41.0934060  42.0460740 140.4448770  41.1627150  41.5710870
 141.8680620  41.6788370  41.5776570 138.7945590  41.7018840  35.5749800
 138.1758010  41.3638390  34.9276100 138.7770040  41.0578600  36.2828990
 138.2372150  37.8803380  42.9915610 137.8243330  38.7057090  43.2455600
 137.5048100  37.2948420  42.7991970 130.3704940  40.6663280  37.8534280
 129.9661940  39.9540530  37.3580180 130.4568060  40.3216520  38.7422320
 130.8386640  44.3530840  40.0173490 130.5414930  43.7476310  39.3381270
 131.7886460  44.3908150  39.9062850 129.0833560  37.4406490  41.6333320
 129.6348150  37.5501830  40.8586570 129.5977070  37.8144090  42.3488550
 138.9272250  47.9262710  43.6796590 138.4502810  48.7334900  43.4869200
 138.2434040  47.2741040  43.8322800 129.9305070  44.0912530  46.6681290
 129.0333600  44.3152500  46.9154690 129.9557940  44.2147470  45.7192690
 136.9710290  40.9405650  32.5822550 137.4103570  40.1028080  32.4360370
 137.6838710  41.5735050  32.6686690 128.7576290  40.9625850  45.2438660
 128.6184060  41.8348650  45.6126060 127.8757650  40.6198660  45.0986600
 135.0805670  45.8801720  36.5503790 135.5201580  46.6226050  36.1359180
 135.0192560  46.1228290  37.4742750 130.5556640  46.9047550  47.4523810
 130.5272070  47.3090500  46.5852240 130.3921610  45.9757910  47.2895410
 140.5527430  32.1948460  30.8963590 140.2400090  32.2875290  31.7962660
 141.3139900  32.7729490  30.8461020 127.0709570  39.5608260  35.3540930
 126.9507170  40.2870350  34.7422200 126.7610460  38.7911170  34.8768840
 142.5071460  47.6874650  48.7487980 142.9831180  48.1657540  49.4277060
 143.1278620  47.6192140  48.0233480 124.7094940  42.7323400  41.1609570
 124.7875360  42.8672170  40.2165290 125.3236620  42.0239290  41.3537690
 125.9542570  44.4323590  37.5715750 125.5470650  44.5738180  36.7169350
 126.8455580  44.1483750  37.3686960 141.9104710  44.8787500  45.9087990
 142.0367770  44.6399380  44.9905170 141.9526090  44.0472040  46.3810070
 135.7721450  48.5815500  44.4782800 136.2866120  48.4923510  45.2805230
 134.9290530  48.9275200  44.7710710 137.7475850  48.8670840  33.9066800
 137.5876990  48.5773780  34.8048630 137.5822560  48.0910970  33.3712030
 130.2264230  48.6469370  35.6838420 130.0506710  47.7304910  35.4706220
 129.3719970  49.0056660  35.9236220 137.4501980  46.3758400  32.4664800
 136.7567140  46.3735690  31.8067080 138.1924840  45.9517720  32.0358970
 137.0151910  48.0021110  36.5413290 137.4708860  47.2210490  36.8551910
 137.3544430  48.7127930  37.0854470 141.7628720  36.9319960  46.8737730
 141.1472990  37.4399630  46.3453190 141.4425140  36.0318290  46.8163670
 124.7654460  43.7737570  43.7004030 124.9285500  43.3042930  42.8823400
 125.2306910  43.2661130  44.3652870 129.5373230  32.9043330  38.7364600
 129.0941380  33.6852870  38.4049120 130.0958220  33.2273220  39.4435540
 133.8243040  35.7711850  44.3399920 133.3622410  35.9794870  45.1519860
 133.4221150  34.9571200  44.0370590 138.8247550  36.9920800  45.4696580
 137.9741140  36.6926550  45.7905650 138.6649340  37.2362810  44.5580400
 135.9197260  38.4922550  47.5695370 136.2450670  37.6586300  47.2297600
 136.7077590  39.0151070  47.7173700 132.6532050  32.5254030  33.6170430
 132.0286230  32.5213900  34.3423740 132.5662170  31.6584990  33.2206400
 131.5749130  33.4490660  40.5954200 131.8721460  34.3553490  40.5146220
 132.1234690  32.9609440  39.9813770 129.3287450  38.0276900  36.4645850
 129.1028370  37.8114070  37.3692470 128.5479980  38.4605360  36.1191820
 136.5585210  38.0340270  35.0636500 135.9594100  38.7576070  34.8800120
 137.1064820  37.9717050  34.2812950 131.7686660  38.9262480  47.1306120
 131.6730260  37.9857210  46.9806520 132.6118640  39.1477550  46.7354190
 135.1650080  36.6703810  37.0939780 135.5579650  36.9876010  36.2808470
 135.5266930  35.7915690  37.2084300 126.8997200  35.3376150  45.2839900
 126.5060590  36.1851360  45.4912680 126.2115600  34.7002520  45.4748540
 133.4742250  35.4211120  48.3536640 132.7840570  35.2283320  48.9882730
 134.2174550  35.7045760  48.8860940 124.2014250  33.2604610  39.3169980
 123.9127300  33.8307470  40.0294960 124.9460010  32.7809060  39.6801210
 124.3884480  37.2024730  30.5272700 124.3059150  38.1455490  30.6687690
 124.0367540  37.0599640  29.6485050 135.7505220  39.2609560  41.1890560
 135.0186340  39.7696370  41.5380660 135.3529560  38.4439540  40.8879340
 132.1882610  35.9363760  39.5943050 132.1918670  35.4953710  38.7447590
 133.0833730  36.2581090  39.7014870 128.0384990  35.8190250  38.5537260
 127.6985040  36.2965480  39.3104310 127.2762310  35.3655370  38.1938360
 132.2502760  36.9375840  32.5849810 132.3715580  36.8962320  33.5335630
 131.8651270  37.7999990  32.4296540 136.2131130  34.7143240  40.6013500
 136.2303870  35.1651890  41.4455350 135.9646710  33.8148880  40.8146940
 131.2624260  39.2476980  31.9833110 130.6941160  38.7995230  31.3569020
 131.9713260  39.6069760  31.4498260 139.6401880  32.1275420  46.4399880
 139.9647650  31.3965080  46.9657860 139.6758390  31.8089060  45.5380870
 126.3393440  43.1489000  45.8599840 125.9548230  42.5082670  46.4582800
 126.6505630  43.8525120  46.4294570 132.4890580  39.9965540  41.3408460
 132.8560710  39.5224110  42.0869800 132.2995640  40.8707110  41.6816800
 125.3531070  34.7409230  37.4701930 125.0677990  34.3764900  38.3080550
 125.2909930  34.0089690  36.8565070 130.2789950  39.0374180  43.6592670
 129.9747020  39.9166160  43.8843030 131.2336410  39.0973970  43.6950110
 128.8071740  43.2435170  34.2559520 128.0334000  42.7032790  34.0958240
 129.5366370  42.7241780  33.9177280 139.5659720  42.2400530  40.0485910
 140.2858840  42.7355820  39.6582020 139.3641540  41.5618420  39.4039780
 135.0269660  33.6338490  34.1915300 134.2134270  33.1351660  34.1160610
 134.8331610  34.4736740  33.7751650 134.9478520  42.3109590  45.9354910
 134.8815830  41.3905260  45.6812500 134.3183660  42.4085030  46.6499550
 137.7418050  38.0058140  32.4877460 138.6297670  38.3175370  32.3128800
 137.7123140  37.1330390  32.0958040 128.8509140  42.9115550  37.8938330
 129.3687810  42.1083810  37.8395220 128.3993160  42.8494690  38.7355160
 133.7378640  44.1781830  33.1665630 134.0794340  44.9224060  32.6708950
 132.9091350  44.4912950  33.5290460 126.3353680  39.8776920  44.8064030
 125.9768620  40.5430770  45.3937370 126.0408240  39.0460470  45.1776650
 129.5366800  40.3361160  47.6903580 129.2366940  40.4818340  46.7931400
 130.3078040  39.7766450  47.5976970 134.8795250  45.1330160  45.6858710
 134.8939790  44.2011120  45.4677620 134.1720350  45.2189920  46.3248480
 140.0132320  39.3169980  31.9557320 139.9296040  39.7484200  31.1053760
 140.7326510  39.7768330  32.3884140 141.0906460  41.7737500  45.0327290
 140.3654650  42.3666280  44.8356680 141.6181920  41.7661040  44.2340660
 141.0419570  46.1712240  34.6839450 140.3995730  45.5167860  34.9583170
 140.6550230  46.5767330  33.9080120 136.6206050  43.4997670  38.5311140
 136.9729870  42.9025800  37.8712510 135.7368380  43.1741900  38.7019390
 132.7069330  44.2595360  35.9381550 133.3940460  44.8064570  36.3189140
 131.9201750  44.8036090  35.9731160 124.8461730  39.8768180  31.4298630
 125.7156580  40.1592980  31.7134550 124.3552050  40.6904050  31.3147440
 132.0096540  41.2641390  35.5506910 132.4659320  42.0746640  35.7767100
 131.6584750  40.9464530  36.3825400 134.3129150  46.7747730  42.7799210
 134.9571370  46.9807110  43.4572630 134.6758590  46.0136130  42.3270060
 127.9108320  31.6079040  36.0229430 127.7822950  31.5996940  36.9714350
 127.0870340  31.9462130  35.6720440 135.5861230  44.7780080  41.4976660
 136.2283460  44.0773240  41.6108830 136.1110580  45.5578520  41.3173550
 139.4316950  45.0628700  31.2215800 139.2054530  44.3459140  31.8140440
 139.0413150  44.8141140  30.3837550 137.3598850  45.5774980  44.7012720
 137.6955090  46.1641670  45.3790640 136.4399190  45.4467690  44.9310510
 125.2132980  49.0895560  31.9960260 125.5730620  49.6884900  31.3417530
 125.0725320  49.6355450  32.7695290 124.9102250  33.3670160  45.4836130
 124.1960770  33.5667080  46.0888740 125.3297290  32.5909730  45.8550930
 139.0133200  42.9800640  32.8829960 138.7254900  43.4413330  33.6707840
 139.8085370  42.5198410  33.1514180 125.1974840  47.3550420  46.4702660
 125.3065960  46.4145160  46.3298050 124.5455400  47.6205170  45.8216390
 133.1887430  45.6266310  47.8700780 132.8684300  44.9075550  48.4146470
 132.5145790  46.3021380  47.9436840 131.2301600  46.4726760  32.8133930
 131.2211700  47.2056450  32.1978440 130.3099960  46.2258340  32.9060890
 126.8308240  41.6941650  33.5580690 126.2236190  42.4340550  33.5675990
 127.3057590  41.7841010  32.7318890 136.4041030  35.8592470  43.2337580
 136.7721850  35.0387680  43.5617150 135.5439230  35.9194360  43.6493230
 139.7703060  34.8149410  34.0425140 139.1416220  34.9195080  33.3283370
 139.2754980  35.0346190  34.8319020 134.2161200  46.5355000  31.4759120
 134.3173180  46.3318990  30.5461100 133.3162940  46.2813280  31.6806900
 131.7387090  37.0935360  35.4583020 131.0303240  37.5621700  35.8996630
 132.0231570  36.4357370  36.0928210 133.3643020  38.5132060  43.4575550
 133.8628270  38.9877880  44.1227400 133.5065970  37.5895580  43.6645580
 135.7702520  33.8186020  36.8978810 135.6470300  33.8372150  35.9488320
 136.7187080  33.8664960  37.0177210 132.8579310  49.0541320  36.1706790
 133.1120810  49.0162710  35.2486160 131.9091790  48.9274650  36.1635040
 129.9422110  35.4020440  32.8333730 130.7912640  35.8390590  32.7673920
 129.5753380  35.7140700  33.6605790 140.5709880  34.7300020  44.3003940
 140.0683480  35.4705420  44.6397750 141.3866540  35.1184020  43.9840730
 138.8631890  39.9733200  37.7465300 137.9222030  39.9883430  37.9212990
 139.1775960  39.1869160  38.1925600 128.8413530  41.6552800  31.3069260
 129.6076800  41.5434160  31.8694690 128.9188220  40.9590770  30.6546030
 127.5360290  39.0877870  31.9902150 127.6163880  38.1405380  32.1019550
 128.4280040  39.4184750  32.0962810 140.8657470  47.1442050  39.4219560
 140.9904890  47.9673220  39.8943370 141.7323030  46.9332780  39.0743710
 128.3375000  49.2373260  39.0936690 129.0737480  48.6888720  39.3645260
 128.7215920  50.1029270  38.9542680 125.2220480  45.3046830  34.9678200
 124.2960260  45.5467970  34.9583610 125.6876910  46.1321090  34.8462950
 127.3433280  48.4219330  48.2822270 128.1446010  48.7431380  48.6957670
 126.8285100  48.0614910  49.0042180 131.4477310  48.4103570  30.9162260
 132.2405920  48.6992400  30.4644050 130.9281660  47.9795740  30.2374740
 136.1797910  44.5299200  48.2297680 135.5736070  44.5530800  47.4893430
 135.8752020  43.7982240  48.7664930 137.6098280  48.2579490  46.8407090
 138.5620030  48.1737510  46.7907330 137.4626500  48.9221200  47.5140880
 140.5007480  47.6373700  32.3399000 140.2148990  47.2238840  31.5253180
 140.3027030  48.5661410  32.2199520 125.0631090  40.9092790  47.2258320
 125.5670110  40.3300070  47.7974550 124.3238510  41.1933020  47.7634690
 131.9654710  43.6306980  30.7804610 131.8605350  43.0159330  31.5065990
 131.7978930  43.1072870  29.9967620 132.1169030  42.3163780  46.7593840
 131.3514700  42.8848780  46.6748510 132.2984990  42.0239990  45.8662070
 135.2057440  42.6927010  31.3846600 134.6567540  43.1396310  32.0289340
 135.8276700  42.1876260  31.9084270 139.2592380  44.0469110  47.3168860
 140.0001850  44.3844870  46.8136320 138.4965060  44.2161170  46.7638630
 127.0954170  39.0522380  48.1208390 127.1359510  38.7536250  49.0293620
 127.9499670  39.4529990  47.9615910 130.8732560  41.6517930  33.2811900
 131.2948980  41.4857800  34.1243290 130.9983400  40.8418160  32.7867040
 129.0359980  37.6314480  46.0882880 128.5056440  37.1405430  45.4606220
 129.7048050  38.0598680  45.5540810 133.3860200  40.6755540  30.5289000
 133.9065860  39.9604560  30.1630150 134.0328600  41.3141410  30.8289510
 137.9338040  42.0983940  45.8524070 138.3479060  42.2529020  46.7014490
 136.9989040  42.2239160  46.0149850 138.4060210  39.4380100  47.8563220
 138.9880980  38.6832420  47.7683700 138.5821980  39.9687540  47.0794700
 129.5232280  34.5976850  46.1680170 129.4289150  33.9797600  45.4431040
 128.9429670  35.3243140  45.9410080 132.2893720  33.1550090  43.2007560
 131.8411020  33.1774350  42.3553110 131.6558920  32.7569110  43.7977860
 132.6953270  42.0504420  43.8220000 133.1141380  42.8937150  43.6496240
 131.7761900  42.1876460  43.5926780 135.0317170  39.7820600  45.2057840
 135.1513380  39.1861740  45.9452680 135.8911170  39.8190290  44.7859140
 137.3705070  40.3357790  43.7820350 136.8440290  40.8600410  43.1785490
 137.7136410  40.9685180  44.4130080 129.7691460  37.7251160  30.2270060
 129.5680520  36.8618520  30.5883400 129.5983510  37.6384520  29.2891660
 130.5460690  48.3557430  44.9377730 130.0081780  49.0803490  44.6186430
 130.7994650  47.8787770  44.1475070 131.7985940  36.3241950  46.4633660
 132.3885630  36.0157800  47.1511480 130.9806180  35.8521700  46.6193560
 136.6179370  35.9407760  46.6966680 135.9294890  35.2789300  46.6316670
 137.3385390  35.4946030  47.1415140 137.2479770  32.5359390  32.7556940
 137.5282060  31.6927290  33.1116360 136.4745500  32.7682500  33.2695690
 128.5674260  34.8251780  30.2147940 128.8700160  34.8319210  29.3067090
 129.3068850  34.4749640  30.7115600 133.4022900  49.5908640  45.1964380
 133.3281600  50.4943780  45.5036750 132.5001740  49.2720540  45.1686450
 131.7859190  33.7686400  31.2004140 131.4381190  33.0910390  30.6206590
 131.9871960  33.3075910  32.0147530 133.9508230  48.7567150  32.8190740
 134.8459020  49.0952120  32.8409500 133.9825860  48.0346560  32.1915020
 127.5904390  44.1294200  31.0477740 128.0279260  44.6723870  31.7035320
 128.0752120  43.3041150  31.0574080 124.8050190  46.9183230  38.4998000
 125.1353200  46.0504290  38.2676640 125.2341190  47.1241750  39.3302960
 129.4012110  45.2492240  36.1599970 129.1007650  45.1257210  37.0603880
 129.2949600  44.3900830  35.7515700 125.2940400  47.7853820  41.2379630
 124.8571390  47.9654620  42.0703780 125.8618080  48.5428440  41.0961350
 140.9302580  47.2870820  45.5256940 140.3304570  47.3463380  44.7820860
 141.0596480  46.3475800  45.6553790 142.1704030  45.0288640  30.8626650
 141.3396990  45.0965290  31.3333880 142.3475860  45.9192760  30.5593510
 141.6260490  41.7736120  33.3660850 142.3879400  42.3432770  33.4720540
 141.6414860  41.2063320  34.1369160 125.1264830  40.2974050  37.5968510
 124.4713670  40.0285690  36.9528210 125.9642780  40.1878530  37.1470490
 142.6320460  42.6286220  38.2102780 143.0029290  41.8453540  37.8038750
 143.2722390  43.3175320  38.0320080 139.6154220  44.0122800  43.6233100
 138.8014060  44.4419960  43.8858890 140.0228420  44.6241210  43.0102150
 141.6779660  42.0670490  30.5233370 141.9528500  42.9749370  30.3952590
 141.4890400  42.0033020  31.4595360 138.0755270  35.0915340  31.8187000
 138.4940150  34.9046320  30.9783660 137.7691330  34.2394390  32.1289930
 141.5745000  40.0039480  35.5162800 141.1988600  39.2367410  35.0844090
 140.8448120  40.3862180  36.0037730 126.1640760  40.6826620  42.1371850
 126.5313800  40.5954020  43.0167870 125.5951580  39.9193170  42.0378710
 140.9644620  39.1511000  45.1502320 140.7330710  38.9223750  44.2500270
 141.2249170  40.0710550  45.1047210 125.7156760  37.5935710  46.0430270
 124.8212810  37.5602470  46.3823980 126.2554310  37.7922500  46.8081520
 139.4032690  34.3767430  47.9282020 140.2802870  34.3850830  48.3116020
 139.4153530  33.6398270  47.3174370 124.3402910  37.5072980  33.5393840
 123.4366990  37.7703180  33.3645500 124.8243530  37.7784150  32.7593800
 140.8495960  38.2296970  38.8170040 141.3733440  37.7359620  38.1860210
 141.4355380  38.3647330  39.5617610 141.0285680  38.3136840  42.3389590
 140.0788390  38.2800380  42.4534580 141.2098690  39.2236950  42.1039360
 126.8830120  36.5638520  31.4488220 127.5921820  36.1421740  30.9635500
 126.1670060  36.6313750  30.8171570 126.5304280  32.6177850  30.4890870
 127.2532410  33.1586790  30.8072090 126.8028800  32.3441270  29.6132410
 140.3395930  37.4870320  34.7562450 140.8355050  37.2541190  35.5411330
 140.1412000  36.6482160  34.3400090 126.2196470  31.8684040  40.3913490
 126.8672660  31.3181420  39.9508650 126.6398310  32.1227190  41.2129300
 141.7683090  36.1231270  37.2900130 141.6582370  35.9687310  38.2282400
 142.5290680  35.5952210  37.0475540 140.1148810  32.0625400  43.7483130
 140.7521030  32.6759540  44.1142320 140.2623700  32.0986060  42.8032360
 142.6573360  33.9539190  30.5306270 143.5822670  33.8220370  30.3224560
 142.6349150  34.0332010  31.4842720 142.7311850  34.7249850  33.1562980
 141.9363350  34.6594970  33.6855890 142.9355130  35.6600490  33.1448330
 139.6730270  48.7641400  37.1501370 140.2689340  48.4425970  36.4735790
 139.9308420  48.2913220  37.9414640 125.9728470  32.0239710  43.1338810
 125.6243290  32.4803530  43.8996990 125.6416170  31.1296840  43.2161240
 127.5792840  45.1959310  47.2992000 127.5362470  44.8252220  48.1806460
 127.7103850  46.1336880  47.4393820 131.2798870  46.7518900  42.9001720
 131.0390230  47.0193460  42.0132240 132.2201510  46.9224630  42.9552580
 133.4853290  33.2151590  46.6558230 133.4242180  33.8073420  47.4053640
 134.4253670  33.1077550  46.5108490 136.1227850  32.8721650  46.2950520
 136.7368260  33.1900940  45.6331600 136.6677410  32.3870240  46.9146380
 142.5403030  48.7713280  43.7012360 142.0461310  49.1682150  42.9839490
 141.9316320  48.1462490  44.0949640 126.6449110  31.5515910  46.4089580
 127.1932100  31.3703960  45.6455690 126.7104420  30.7610020  46.9445890
 127.4180870  48.1421560  44.4189780 126.8241190  48.0106260  45.1579820
 127.4104710  47.3059700  43.9531880 136.8635890  31.4353790  42.6219810
 135.9895730  31.7688900  42.4192740 136.7546640  30.9626970  43.4471680
 137.7707870  33.6424660  44.0061530 137.4421230  32.8276420  43.6263260
 138.7190170  33.5994470  43.8827220 140.2242480  49.4136700  40.9799100
 139.7645450  50.1652510  40.6057120 139.5954940  48.6943170  40.9213900
 127.0493100  45.5079940  43.3697820 126.3227160  44.8885230  43.3023770
 127.1102250  45.9020550  42.4995900 130.6538200  47.7224940  40.1547230
 131.1703220  47.1112300  39.6295490 131.3035580  48.2253720  40.6458240
 133.3933700  48.6133430  40.9816210 133.6811510  48.3587730  40.1049220
 133.9056920  48.0610790  41.5721780 134.6110710  32.3523630  41.5612720
 133.8282500  32.8269130  41.8409480 134.3173640  31.4478460  41.4525900
 139.1631780  33.0546730  39.6061810 139.6039870  32.9991830  38.7583410
 138.8939370  33.9704740  39.6771990 141.0270350  32.6861970  37.6170630
 140.9658750  31.7423190  37.4701650 141.8062380  32.7942060  38.1624090
 125.3323100  48.8254330  36.5794580 125.1645140  48.1925010  37.2776470
 124.4657610  49.0313730  36.2288770 125.9551120  32.6571110  34.0826440
 126.7130480  32.7699990  33.5090470 125.4928290  33.4940310  34.0369870
 132.4964930  34.7710380  37.0728750 131.6839440  34.3967270  36.7324630
 133.0006570  34.0155460  37.3749940 136.9989910  31.4352830  38.3111820
 137.6019280  32.0073040  38.7860340 136.2582900  31.9992270  38.0885720
 140.1424510  31.8374390  33.5852100 140.3375140  32.7357840  33.8519530
 139.3554380  31.6061470  34.0785050 126.9385800  47.5187560  34.0244720
 126.4133420  47.8995590  33.3206680 126.8630380  48.1438330  34.7454430
 128.3276270  33.1835160  32.6228410 128.8569030  32.3964960  32.4936360
 128.9604590  33.8626350  32.8563940 130.5214110  32.9210300  35.6773800
 129.8916850  32.2197610  35.8443930 129.9819250  33.6814430  35.4606960
 133.4606060  49.5349530  48.3484410 134.3873370  49.2993800  48.3920370
 133.4456490  50.3621530  47.8670440 141.6951120  49.0775100  35.3458660
 141.8703310  48.3912840  34.7019580 140.9972690  49.6022150  34.9535330
 130.6469670  32.1994280  48.1126290 130.3653940  32.7027880  47.3487110
 131.0289370  31.4016030  47.7468420 129.5378770  49.4669940  32.8993970
 130.2697590  49.1829220  32.3517860 129.7972440  49.2283220  33.7893350
 128.6993560  45.5834670  32.9040300 128.0702440  46.0519770  33.4526130
 128.8141390  44.7383890  33.3386490 137.2485130  31.6147860  48.6906760
 137.1350580  31.9342470  49.5858280 138.0654870  32.0160370  48.3944040
 140.0283620  48.7619390  48.1725450 140.8208940  48.2668620  47.9651410
 140.3216770  49.4409530  48.7801060 136.1543280  39.6340330  19.0541500
 136.0737330  38.7194940  18.7833210 135.7407700  40.1307400  18.3481210
 134.2861320  41.4119350  20.9350770 133.5103420  40.9319790  21.2249340
 134.9374250  40.7325000  20.7606930 128.3027150  41.7239160  21.8126530
 127.4712030  41.4687870  22.2123040 128.9108130  41.7949930  22.5484450
 138.3068750  45.8179540  19.7149900 137.8450280  45.0466780  20.0437070
 139.1194300  45.8445610  20.2202350 128.2828410  45.7579250  22.0084550
 128.5856450  44.8676990  21.8294770 129.0272000  46.3149470  21.7806800
 126.7119100  36.6841050  15.5968920 125.8235800  37.0257020  15.4948800
 126.9960290  36.4841370  14.7049750 124.6752110  39.2846700  21.4808620
 125.2468220  38.5168900  21.4812260 124.6753650  39.5835460  20.5715230
 134.5332060  48.1037550  19.3353890 133.9143500  48.5595050  18.7648330
 135.3883840  48.2589010  18.9343590 133.7270310  44.0876540  20.9420930
 133.6578590  43.1466480  20.7810060 134.4890170  44.1777950  21.5143500
 125.9176980  34.6931060  23.2677550 125.7379820  33.7956810  23.5480310
 125.5157060  35.2402930  23.9424500 134.7575480  36.8946920  21.1689860
 135.1340300  36.0218800  21.0563530 134.6594990  37.2305620  20.2780300
 128.8880490  35.2672550  16.6307300 128.9947240  36.1676280  16.9376060
 127.9772850  35.2190520  16.3401950 138.5399600  34.3897360  18.1018200
 139.3609220  33.8993930  18.1443680 138.5733680  34.9795020  18.8550040
 126.5363650  37.1891560  21.8759890 127.2173760  37.4529930  22.4947290
 126.2211700  36.3492430  22.2097900 130.7288220  38.2358920  20.9632480
 131.2366440  38.7339890  21.6037500 131.2601460  37.4594120  20.7871840
 142.8299150  36.4064110  24.6661830 142.1251320  36.7945820  24.1476940
 143.0957070  37.1014400  25.2682760 129.0124320  32.8757480  25.2295900
 129.0142760  33.3929870  24.4241800 128.1828630  32.3987660  25.2065830
 135.3995410  42.9876790  16.7285800 134.7812680  43.4526240  16.1648520
 135.9118660  43.6804270  17.1455310 130.2627170  42.5152660  23.4069400
 129.9296550  43.1421580  24.0490470 130.4393850  43.0414540  22.6271070
 138.7761080  36.3297740  20.8745740 138.0716650  36.6182630  21.4548850
 139.1373240  37.1397850  20.5145300 128.6939650  34.5867440  23.2366350
 129.0356460  35.4309490  22.9420220 127.7555460  34.7351180  23.3531690
 129.4746270  44.4833460  25.2218580 130.0920270  45.1584540  24.9403030
 128.6139390  44.8921440  25.1306080 124.7678610  43.6733320  14.1025430
 124.3906590  44.1620420  13.3710330 125.0251680  44.3458600  14.7331960
 140.3923860  45.9472870  23.1373220 139.7087380  46.6171980  23.1289890
 140.9318150  46.1453520  22.3718080 141.8448000  35.7752530  21.2654950
 140.8972910  35.8091510  21.3970380 142.1697990  36.5891480  21.6504310
 132.3767540  32.0749710  19.5610940 132.6842520  31.5196600  18.8446440
 131.4468240  32.2094170  19.3783930 137.9282600  47.7917000  21.8518400
 137.9409760  47.3879290  20.9840660 137.3757820  48.5664290  21.7479830
 139.2228020  44.5133220  16.9408570 139.1124350  43.5707550  17.0657990
 139.2196270  44.8748860  17.8271330 137.3268040  42.6946840  23.1801010
 137.7436830  42.4806950  22.3454470 138.0507860  42.9519630  23.7509630
 134.7648300  40.1398540  16.2971060 133.8377580  40.0735920  16.5259530
 134.9173120  41.0778670  16.1826300 134.7517380  36.4115540  13.2938220
 133.8121050  36.5729500  13.3790680 135.0700640  37.1301220  12.7474210
 141.2730140  41.0934060  23.2717250 140.4448770  41.1627150  22.7967380
 141.8680620  41.6788370  22.8033080 138.7945590  41.7018840  16.8006310
 138.1758010  41.3638390  16.1532610 138.7770040  41.0578600  17.5085500
 138.2372150  37.8803380  24.2172120 137.8243330  38.7057090  24.4712110
 137.5048100  37.2948420  24.0248480 130.3704940  40.6663280  19.0790790
 129.9661940  39.9540530  18.5836690 130.4568060  40.3216520  19.9678830
 130.8386640  44.3530840  21.2430000 130.5414930  43.7476310  20.5637780
 131.7886460  44.3908150  21.1319360 129.0833560  37.4406490  22.8589830
 129.6348150  37.5501830  22.0843080 129.5977070  37.8144090  23.5745060
 138.9272250  47.9262710  24.9053100 138.4502810  48.7334900  24.7125710
 138.2434040  47.2741040  25.0579310 129.9305070  44.0912530  27.8937800
 129.0333600  44.3152500  28.1411200 129.9557940  44.2147470  26.9449200
 136.9710290  40.9405650  13.8079060 137.4103570  40.1028080  13.6616880
 137.6838710  41.5735050  13.8943200 128.7576290  40.9625850  26.4695170
 128.6184060  41.8348650  26.8382570 127.8757650  40.6198660  26.3243110
 135.0805670  45.8801720  17.7760300 135.5201580  46.6226050  17.3615690
 135.0192560  46.1228290  18.6999260 130.5556640  46.9047550  28.6780320
 130.5272070  47.3090500  27.8108750 130.3921610  45.9757910  28.5151920
 140.5527430  32.1948460  12.1220100 140.2400090  32.2875290  13.0219170
 141.3139900  32.7729490  12.0717530 127.0709570  39.5608260  16.5797440
 126.9507170  40.2870350  15.9678710 126.7610460  38.7911170  16.1025350
 142.5071460  47.6874650  29.9744490 142.9831180  48.1657540  30.6533570
 143.1278620  47.6192140  29.2489990 124.7094940  42.7323400  22.3866080
 124.7875360  42.8672170  21.4421800 125.3236620  42.0239290  22.5794200
 125.9542570  44.4323590  18.7972260 125.5470650  44.5738180  17.9425860
 126.8455580  44.1483750  18.5943470 141.9104710  44.8787500  27.1344500
 142.0367770  44.6399380  26.2161680 141.9526090  44.0472040  27.6066580
 135.7721450  48.5815500  25.7039310 136.2866120  48.4923510  26.5061740
 134.9290530  48.9275200  25.9967220 137.7475850  48.8670840  15.1323310
 137.5876990  48.5773780  16.0305140 137.5822560  48.0910970  14.5968540
 130.2264230  48.6469370  16.9094930 130.0506710  47.7304910  16.6962730
 129.3719970  49.0056660  17.1492730 137.4501980  46.3758400  13.6921310
 136.7567140  46.3735690  13.0323590 138.1924840  45.9517720  13.2615480
 137.0151910  48.0021110  17.7669800 137.4708860  47.2210490  18.0808420
 137.3544430  48.7127930  18.3110980 141.7628720  36.9319960  28.0994240
 141.1472990  37.4399630  27.5709700 141.4425140  36.0318290  28.0420180
 124.7654460  43.7737570  24.9260540 124.9285500  43.3042930  24.1079910
 125.2306910  43.2661130  25.5909380 129.5373230  32.9043330  19.9621110
 129.0941380  33.6852870  19.6305630 130.0958220  33.2273220  20.6692050
 133.8243040  35.7711850  25.5656430 133.3622410  35.9794870  26.3776370
 133.4221150  34.9571200  25.2627100 138.8247550  36.9920800  26.6953090
 137.9741140  36.6926550  27.0162160 138.6649340  37.2362810  25.7836910
 135.9197260  38.4922550  28.7951880 136.2450670  37.6586300  28.4554110
 136.7077590  39.0151070  28.9430210 132.6532050  32.5254030  14.8426940
 132.0286230  32.5213900  15.5680250 132.5662170  31.6584990  14.4462910
 131.5749130  33.4490660  21.8210710 131.8721460  34.3553490  21.7402730
 132.1234690  32.9609440  21.2070280 129.3287450  38.0276900  17.6902360
 129.1028370  37.8114070  18.5948980 128.5479980  38.4605360  17.3448330
 136.5585210  38.0340270  16.2893010 135.9594100  38.7576070  16.1056630
 137.1064820  37.9717050  15.5069460 131.7686660  38.9262480  28.3562630
 131.6730260  37.9857210  28.2063030 132.6118640  39.1477550  27.9610700
 135.1650080  36.6703810  18.3196290 135.5579650  36.9876010  17.5064980
 135.5266930  35.7915690  18.4340810 126.8997200  35.3376150  26.5096410
 126.5060590  36.1851360  26.7169190 126.2115600  34.7002520  26.7005050
 133.4742250  35.4211120  29.5793150 132.7840570  35.2283320  30.2139240
 134.2174550  35.7045760  30.1117450 124.2014250  33.2604610  20.5426490
 123.9127300  33.8307470  21.2551470 124.9460010  32.7809060  20.9057720
 124.3884480  37.2024730  11.7529210 124.3059150  38.1455490  11.8944200
 124.0367540  37.0599640  10.8741560 135.7505220  39.2609560  22.4147070
 135.0186340  39.7696370  22.7637170 135.3529560  38.4439540  22.1135850
 132.1882610  35.9363760  20.8199560 132.1918670  35.4953710  19.9704100
 133.0833730  36.2581090  20.9271380 128.0384990  35.8190250  19.7793770
 127.6985040  36.2965480  20.5360820 127.2762310  35.3655370  19.4194870
 132.2502760  36.9375840  13.8106320 132.3715580  36.8962320  14.7592140
 131.8651270  37.7999990  13.6553050 136.2131130  34.7143240  21.8270010
 136.2303870  35.1651890  22.6711860 135.9646710  33.8148880  22.0403450
 131.2624260  39.2476980  13.2089620 130.6941160  38.7995230  12.5825530
 131.9713260  39.6069760  12.6754770 139.6401880  32.1275420  27.6656390
 139.9647650  31.3965080  28.1914370 139.6758390  31.8089060  26.7637380
 126.3393440  43.1489000  27.0856350 125.9548230  42.5082670  27.6839310
 126.6505630  43.8525120  27.6551080 132.4890580  39.9965540  22.5664970
 132.8560710  39.5224110  23.3126310 132.2995640  40.8707110  22.9073310
 125.3531070  34.7409230  18.6958440 125.0677990  34.3764900  19.5337060
 125.2909930  34.0089690  18.0821580 130.2789950  39.0374180  24.8849180
 129.9747020  39.9166160  25.1099540 131.2336410  39.0973970  24.9206620
 128.8071740  43.2435170  15.4816030 128.0334000  42.7032790  15.3214750
 129.5366370  42.7241780  15.1433790 139.5659720  42.2400530  21.2742420
 140.2858840  42.7355820  20.8838530 139.3641540  41.5618420  20.6296290
 135.0269660  33.6338490  15.4171810 134.2134270  33.1351660  15.3417120
 134.8331610  34.4736740  15.0008160 134.9478520  42.3109590  27.1611420
 134.8815830  41.3905260  26.9069010 134.3183660  42.4085030  27.8756060
 137.7418050  38.0058140  13.7133970 138.6297670  38.3175370  13.5385310
 137.7123140  37.1330390  13.3214550 128.8509140  42.9115550  19.1194840
 129.3687810  42.1083810  19.0651730 128.3993160  42.8494690  19.9611670
 133.7378640  44.1781830  14.3922140 134.0794340  44.9224060  13.8965460
 132.9091350  44.4912950  14.7546970 126.3353680  39.8776920  26.0320540
 125.9768620  40.5430770  26.6193880 126.0408240  39.0460470  26.4033160
 129.5366800  40.3361160  28.9160090 129.2366940  40.4818340  28.0187910
 130.3078040  39.7766450  28.8233480 134.8795250  45.1330160  26.9115220
 134.8939790  44.2011120  26.6934130 134.1720350  45.2189920  27.5504990
 140.0132320  39.3169980  13.1813830 139.9296040  39.7484200  12.3310270
 140.7326510  39.7768330  13.6140650 141.0906460  41.7737500  26.2583800
 140.3654650  42.3666280  26.0613190 141.6181920  41.7661040  25.4597170
 141.0419570  46.1712240  15.9095960 140.3995730  45.5167860  16.1839680
 140.6550230  46.5767330  15.1336630 136.6206050  43.4997670  19.7567650
 136.9729870  42.9025800  19.0969020 135.7368380  43.1741900  19.9275900
 132.7069330  44.2595360  17.1638060 133.3940460  44.8064570  17.5445650
 131.9201750  44.8036090  17.1987670 124.8461730  39.8768180  12.6555140
 125.7156580  40.1592980  12.9391060 124.3552050  40.6904050  12.5403950
 132.0096540  41.2641390  16.7763420 132.4659320  42.0746640  17.0023610
 131.6584750  40.9464530  17.6081910 134.3129150  46.7747730  24.0055720
 134.9571370  46.9807110  24.6829140 134.6758590  46.0136130  23.5526570
 127.9108320  31.6079040  17.2485940 127.7822950  31.5996940  18.1970860
 127.0870340  31.9462130  16.8976950 135.5861230  44.7780080  22.7233170
 136.2283460  44.0773240  22.8365340 136.1110580  45.5578520  22.5430060
 139.4316950  45.0628700  12.4472310 139.2054530  44.3459140  13.0396950
 139.0413150  44.8141140  11.6094060 137.3598850  45.5774980  25.9269230
 137.6955090  46.1641670  26.6047150 136.4399190  45.4467690  26.1567020
 125.2132980  49.0895560  13.2216770 125.5730620  49.6884900  12.5674040
 125.0725320  49.6355450  13.9951800 124.9102250  33.3670160  26.7092640
 124.1960770  33.5667080  27.3145250 125.3297290  32.5909730  27.0807440
 139.0133200  42.9800640  14.1086470 138.7254900  43.4413330  14.8964350
 139.8085370  42.5198410  14.3770690 125.1974840  47.3550420  27.6959170
 125.3065960  46.4145160  27.5554560 124.5455400  47.6205170  27.0472900
 133.1887430  45.6266310  29.0957290 132.8684300  44.9075550  29.6402980
 132.5145790  46.3021380  29.1693350 131.2301600  46.4726760  14.0390440
 131.2211700  47.2056450  13.4234950 130.3099960  46.2258340  14.1317400
 126.8308240  41.6941650  14.7837200 126.2236190  42.4340550  14.7932500
 127.3057590  41.7841010  13.9575400 136.4041030  35.8592470  24.4594090
 136.7721850  35.0387680  24.7873660 135.5439230  35.9194360  24.8749740
 139.7703060  34.8149410  15.2681650 139.1416220  34.9195080  14.5539880
 139.2754980  35.0346190  16.0575530 134.2161200  46.5355000  12.7015630
 134.3173180  46.3318990  11.7717610 133.3162940  46.2813280  12.9063410
 131.7387090  37.0935360  16.6839530 131.0303240  37.5621700  17.1253140
 132.0231570  36.4357370  17.3184720 133.3643020  38.5132060  24.6832060
 133.8628270  38.9877880  25.3483910 133.5065970  37.5895580  24.8902090
 135.7702520  33.8186020  18.1235320 135.6470300  33.8372150  17.1744830
 136.7187080  33.8664960  18.2433720 132.8579310  49.0541320  17.3963300
 133.1120810  49.0162710  16.4742670 131.9091790  48.9274650  17.3891550
 129.9422110  35.4020440  14.0590240 130.7912640  35.8390590  13.9930430
 129.5753380  35.7140700  14.8862300 140.5709880  34.7300020  25.5260450
 140.0683480  35.4705420  25.8654260 141.3866540  35.1184020  25.2097240
 138.8631890  39.9733200  18.9721810 137.9222030  39.9883430  19.1469500
 139.1775960  39.1869160  19.4182110 128.8413530  41.6552800  12.5325770
 129.6076800  41.5434160  13.0951200 128.9188220  40.9590770  11.8802540
 127.5360290  39.0877870  13.2158660 127.6163880  38.1405380  13.3276060
 128.4280040  39.4184750  13.3219320 140.8657470  47.1442050  20.6476070
 140.9904890  47.9673220  21.1199880 141.7323030  46.9332780  20.3000220
 128.3375000  49.2373260  20.3193200 129.0737480  48.6888720  20.5901770
 128.7215920  50.1029270  20.1799190 125.2220480  45.3046830  16.1934710
 124.2960260  45.5467970  16.1840120 125.6876910  46.1321090  16.0719460
 127.3433280  48.4219330  29.5078780 128.1446010  48.7431380  29.9214180
 126.8285100  48.0614910  30.2298690 131.4477310  48.4103570  12.1418770
 132.2405920  48.6992400  11.6900560 130.9281660  47.9795740  11.4631250
 136.1797910  44.5299200  29.4554190 135.5736070  44.5530800  28.7149940
 135.8752020  43.7982240  29.9921440 137.6098280  48.2579490  28.0663600
 138.5620030  48.1737510  28.0163840 137.4626500  48.9221200  28.7397390
 140.5007480  47.6373700  13.5655510 140.2148990  47.2238840  12.7509690
 140.3027030  48.5661410  13.4456030 125.0631090  40.9092790  28.4514830
 125.5670110  40.3300070  29.0231060 124.3238510  41.1933020  28.9891200
 131.9654710  43.6306980  12.0061120 131.8605350  43.0159330  12.7322500
 131.7978930  43.1072870  11.2224130 132.1169030  42.3163780  27.9850350
 131.3514700  42.8848780  27.9005020 132.2984990  42.0239990  27.0918580
 135.2057440  42.6927010  12.6103110 134.6567540  43.1396310  13.2545850
 135.8276700  42.1876260  13.1340780 139.2592380  44.0469110  28.5425370
 140.0001850  44.3844870  28.0392830 138.4965060  44.2161170  27.9895140
 127.0954170  39.0522380  29.3464900 127.1359510  38.7536250  30.2550130
 127.9499670  39.4529990  29.1872420 130.8732560  41.6517930  14.5068410
 131.2948980  41.4857800  15.3499800 130.9983400  40.8418160  14.0123550
 129.0359980  37.6314480  27.3139390 128.5056440  37.1405430  26.6862730
 129.7048050  38.0598680  26.7797320 133.3860200  40.6755540  11.7545510
 133.9065860  39.9604560  11.3886660 134.0328600  41.3141410  12.0546020
 137.9338040  42.0983940  27.0780580 138.3479060  42.2529020  27.9271000
 136.9989040  42.2239160  27.2406360 138.4060210  39.4380100  29.0819730
 138.9880980  38.6832420  28.9940210 138.5821980  39.9687540  28.3051210
 129.5232280  34.5976850  27.3936680 129.4289150  33.9797600  26.6687550
 128.9429670  35.3243140  27.1666590 132.2893720  33.1550090  24.4264070
 131.8411020  33.1774350  23.5809620 131.6558920  32.7569110  25.0234370
 132.6953270  42.0504420  25.0476510 133.1141380  42.8937150  24.8752750
 131.7761900  42.1876460  24.8183290 135.0317170  39.7820600  26.4314350
 135.1513380  39.1861740  27.1709190 135.8911170  39.8190290  26.0115650
 137.3705070  40.3357790  25.0076860 136.8440290  40.8600410  24.4042000
 137.7136410  40.9685180  25.6386590 129.7691460  37.7251160  11.4526570
 129.5680520  36.8618520  11.8139910 129.5983510  37.6384520  10.5148170
 130.5460690  48.3557430  26.1634240 130.0081780  49.0803490  25.8442940
 130.7994650  47.8787770  25.3731580 131.7985940  36.3241950  27.6890170
 132.3885630  36.0157800  28.3767990 130.9806180  35.8521700  27.8450070
 136.6179370  35.9407760  27.9223190 135.9294890  35.2789300  27.8573180
 137.3385390  35.4946030  28.3671650 137.2479770  32.5359390  13.9813450
 137.5282060  31.6927290  14.3372870 136.4745500  32.7682500  14.4952200
 128.5674260  34.8251780  11.4404450 128.8700160  34.8319210  10.5323600
 129.3068850  34.4749640  11.9372110 133.4022900  49.5908640  26.4220890
 133.3281600  50.4943780  26.7293260 132.5001740  49.2720540  26.3942960
 131.7859190  33.7686400  12.4260650 131.4381190  33.0910390  11.8463100
 131.9871960  33.3075910  13.2404040 133.9508230  48.7567150  14.0447250
 134.8459020  49.0952120  14.0666010 133.9825860  48.0346560  13.4171530
 127.5904390  44.1294200  12.2734250 128.0279260  44.6723870  12.9291830
 128.0752120  43.3041150  12.2830590 124.8050190  46.9183230  19.7254510
 125.1353200  46.0504290  19.4933150 125.2341190  47.1241750  20.5559470
 129.4012110  45.2492240  17.3856480 129.1007650  45.1257210  18.2860390
 129.2949600  44.3900830  16.9772210 125.2940400  47.7853820  22.4636140
 124.8571390  47.9654620  23.2960290 125.8618080  48.5428440  22.3217860
 140.9302580  47.2870820  26.7513450 140.3304570  47.3463380  26.0077370
 141.0596480  46.3475800  26.8810300 142.1704030  45.0288640  12.0883160
 141.3396990  45.0965290  12.5590390 142.3475860  45.9192760  11.7850020
 141.6260490  41.7736120  14.5917360 142.3879400  42.3432770  14.6977050
 141.6414860  41.2063320  15.3625670 125.1264830  40.2974050  18.8225020
 124.4713670  40.0285690  18.1784720 125.9642780  40.1878530  18.3727000
 142.6320460  42.6286220  19.4359290 143.0029290  41.8453540  19.0295260
 143.2722390  43.3175320  19.2576590 139.6154220  44.0122800  24.8489610
 138.8014060  44.4419960  25.1115400 140.0228420  44.6241210  24.2358660
 141.6779660  42.0670490  11.7489880 141.9528500  42.9749370  11.6209100
 141.4890400  42.0033020  12.6851870 138.0755270  35.0915340  13.0443510
 138.4940150  34.9046320  12.2040170 137.7691330  34.2394390  13.3546440
 141.5745000  40.0039480  16.7419310 141.1988600  39.2367410  16.3100600
 140.8448120  40.3862180  17.2294240 126.1640760  40.6826620  23.3628360
 126.5313800  40.5954020  24.2424380 125.5951580  39.9193170  23.2635220
 140.9644620  39.1511000  26.3758830 140.7330710  38.9223750  25.4756780
 141.2249170  40.0710550  26.3303720 125.7156760  37.5935710  27.2686780
 124.8212810  37.5602470  27.6080490 126.2554310  37.7922500  28.0338030
 139.4032690  34.3767430  29.1538530 140.2802870  34.3850830  29.5372530
 139.4153530  33.6398270  28.5430880 124.3402910  37.5072980  14.7650350
 123.4366990  37.7703180  14.5902010 124.8243530  37.7784150  13.9850310
 140.8495960  38.2296970  20.0426550 141.3733440  37.7359620  19.4116720
 141.4355380  38.3647330  20.7874120 141.0285680  38.3136840  23.5646100
 140.0788390  38.2800380  23.6791090 141.2098690  39.2236950  23.3295870
 126.8830120  36.5638520  12.6744730 127.5921820  36.1421740  12.1892010
 126.1670060  36.6313750  12.0428080 126.5304280  32.6177850  11.7147380
 127.2532410  33.1586790  12.0328600 126.8028800  32.3441270  10.8388920
 140.3395930  37.4870320  15.9818960 140.8355050  37.2541190  16.7667840
 140.1412000  36.6482160  15.5656600 126.2196470  31.8684040  21.6170000
 126.8672660  31.3181420  21.1765160 126.6398310  32.1227190  22.4385810
 141.7683090  36.1231270  18.5156640 141.6582370  35.9687310  19.4538910
 142.5290680  35.5952210  18.2732050 140.1148810  32.0625400  24.9739640
 140.7521030  32.6759540  25.3398830 140.2623700  32.0986060  24.0288870
 142.6573360  33.9539190  11.7562780 143.5822670  33.8220370  11.5481070
 142.6349150  34.0332010  12.7099230 142.7311850  34.7249850  14.3819490
 141.9363350  34.6594970  14.9112400 142.9355130  35.6600490  14.3704840
 139.6730270  48.7641400  18.3757880 140.2689340  48.4425970  17.6992300
 139.9308420  48.2913220  19.1671150 125.9728470  32.0239710  24.3595320
 125.6243290  32.4803530  25.1253500 125.6416170  31.1296840  24.4417750
 127.5792840  45.1959310  28.5248510 127.5362470  44.8252220  29.4062970
 127.7103850  46.1336880  28.6650330 131.2798870  46.7518900  24.1258230
 131.0390230  47.0193460  23.2388750 132.2201510  46.9224630  24.1809090
 133.4853290  33.2151590  27.8814740 133.4242180  33.8073420  28.6310150
 134.4253670  33.1077550  27.7365000 136.1227850  32.8721650  27.5207030
 136.7368260  33.1900940  26.8588110 136.6677410  32.3870240  28.1402890
 142.5403030  48.7713280  24.9268870 142.0461310  49.1682150  24.2096000
 141.9316320  48.1462490  25.3206150 126.6449110  31.5515910  27.6346090
 127.1932100  31.3703960  26.8712200 126.7104420  30.7610020  28.1702400
 127.4180870  48.1421560  25.6446290 126.8241190  48.0106260  26.3836330
 127.4104710  47.3059700  25.1788390 136.8635890  31.4353790  23.8476320
 135.9895730  31.7688900  23.6449250 136.7546640  30.9626970  24.6728190
 137.7707870  33.6424660  25.2318040 137.4421230  32.8276420  24.8519770
 138.7190170  33.5994470  25.1083730 140.2242480  49.4136700  22.2055610
 139.7645450  50.1652510  21.8313630 139.5954940  48.6943170  22.1470410
 127.0493100  45.5079940  24.5954330 126.3227160  44.8885230  24.5280280
 127.1102250  45.9020550  23.7252410 130.6538200  47.7224940  21.3803740
 131.1703220  47.1112300  20.8552000 131.3035580  48.2253720  21.8714750
 133.3933700  48.6133430  22.2072720 133.6811510  48.3587730  21.3305730
 133.9056920  48.0610790  22.7978290 134.6110710  32.3523630  22.7869230
 133.8282500  32.8269130  23.0665990 134.3173640  31.4478460  22.6782410
 139.1631780  33.0546730  20.8318320 139.6039870  32.9991830  19.9839920
 138.8939370  33.9704740  20.9028500 141.0270350  32.6861970  18.8427140
 140.9658750  31.7423190  18.6958160 141.8062380  32.7942060  19.3880600
 125.3323100  48.8254330  17.8051090 125.1645140  48.1925010  18.5032980
 124.4657610  49.0313730  17.4545280 125.9551120  32.6571110  15.3082950
 126.7130480  32.7699990  14.7346980 125.4928290  33.4940310  15.2626380
 132.4964930  34.7710380  18.2985260 131.6839440  34.3967270  17.9581140
 133.0006570  34.0155460  18.6006450 136.9989910  31.4352830  19.5368330
 137.6019280  32.0073040  20.0116850 136.2582900  31.9992270  19.3142230
 140.1424510  31.8374390  14.8108610 140.3375140  32.7357840  15.0776040
 139.3554380  31.6061470  15.3041560 126.9385800  47.5187560  15.2501230
 126.4133420  47.8995590  14.5463190 126.8630380  48.1438330  15.9710940
 128.3276270  33.1835160  13.8484920 128.8569030  32.3964960  13.7192870
 128.9604590  33.8626350  14.0820450 130.5214110  32.9210300  16.9030310
 129.8916850  32.2197610  17.0700440 129.9819250  33.6814430  16.6863470
 133.4606060  49.5349530  29.5740920 134.3873370  49.2993800  29.6176880
 133.4456490  50.3621530  29.0926950 141.6951120  49.0775100  16.5715170
 141.8703310  48.3912840  15.9276090 140.9972690  49.6022150  16.1791840
 130.6469670  32.1994280  29.3382800 130.3653940  32.7027880  28.5743620
 131.0289370  31.4016030  28.9724930 129.5378770  49.4669940  14.1250480
 130.2697590  49.1829220  13.5774370 129.7972440  49.2283220  15.0149860
 128.6993560  45.5834670  14.1296810 128.0702440  46.0519770  14.6782640
 128.8141390  44.7383890  14.5643000 137.2485130  31.6147860  29.9163270
 137.1350580  31.9342470  30.8114790 138.0654870  32.0160370  29.6200550
 140.0283620  48.7619390  29.3981960 140.8208940  48.2668620  29.1907920
 140.3216770  49.4409530  30.0057570 134.2861320  41.4119350   2.1607280
 133.5103420  40.9319790   2.4505850 134.9374250  40.7325000   1.9863440
 128.3027150  41.7239160   3.0383040 127.4712030  41.4687870   3.4379550
 128.9108130  41.7949930   3.7740960 128.2828410  45.7579250   3.2341060
 128.5856450  44.8676990   3.0551280 129.0272000  46.3149470   3.0063310
 124.6752110  39.2846700   2.7065130 125.2468220  38.5168900   2.7068770
 124.6753650  39.5835460   1.7971740 133.7270310  44.0876540   2.1677440
 133.6578590  43.1466480   2.0066570 134.4890170  44.1777950   2.7400010
 125.9176980  34.6931060   4.4934060 125.7379820  33.7956810   4.7736820
 125.5157060  35.2402930   5.1681010 126.5363650  37.1891560   3.1016400
 127.2173760  37.4529930   3.7203800 126.2211700  36.3492430   3.4354410
 130.7288220  38.2358920   2.1888990 131.2366440  38.7339890   2.8294010
 131.2601460  37.4594120   2.0128350 142.8299150  36.4064110   5.8918340
 142.1251320  36.7945820   5.3733450 143.0957070  37.1014400   6.4939270
 129.0124320  32.8757480   6.4552410 129.0142760  33.3929870   5.6498310
 128.1828630  32.3987660   6.4322340 130.2627170  42.5152660   4.6325910
 129.9296550  43.1421580   5.2746980 130.4393850  43.0414540   3.8527580
 138.7761080  36.3297740   2.1002250 138.0716650  36.6182630   2.6805360
 139.1373240  37.1397850   1.7401810 128.6939650  34.5867440   4.4622860
 129.0356460  35.4309490   4.1676730 127.7555460  34.7351180   4.5788200
 129.4746270  44.4833460   6.4475090 130.0920270  45.1584540   6.1659540
 128.6139390  44.8921440   6.3562590 140.3923860  45.9472870   4.3629730
 139.7087380  46.6171980   4.3546400 140.9318150  46.1453520   3.5974590
 141.8448000  35.7752530   2.4911460 140.8972910  35.8091510   2.6226890
 142.1697990  36.5891480   2.8760820 137.9282600  47.7917000   3.0774910
 137.9409760  47.3879290   2.2097170 137.3757820  48.5664290   2.9736340
 137.3268040  42.6946840   4.4057520 137.7436830  42.4806950   3.5710980
 138.0507860  42.9519630   4.9766140 141.2730140  41.0934060   4.4973760
 140.4448770  41.1627150   4.0223890 141.8680620  41.6788370   4.0289590
 138.2372150  37.8803380   5.4428630 137.8243330  38.7057090   5.6968620
 137.5048100  37.2948420   5.2504990 130.8386640  44.3530840   2.4686510
 130.5414930  43.7476310   1.7894290 131.7886460  44.3908150   2.3575870
 129.0833560  37.4406490   4.0846340 129.6348150  37.5501830   3.3099590
 129.5977070  37.8144090   4.8001570 138.9272250  47.9262710   6.1309610
 138.4502810  48.7334900   5.9382220 138.2434040  47.2741040   6.2835820
 129.9305070  44.0912530   9.1194310 129.0333600  44.3152500   9.3667710
 129.9557940  44.2147470   8.1705710 128.7576290  40.9625850   7.6951680
 128.6184060  41.8348650   8.0639080 127.8757650  40.6198660   7.5499620
 130.5556640  46.9047550   9.9036830 130.5272070  47.3090500   9.0365260
 130.3921610  45.9757910   9.7408430 142.5071460  47.6874650  11.2001000
 142.9831180  48.1657540  11.8790080 143.1278620  47.6192140  10.4746500
 124.7094940  42.7323400   3.6122590 124.7875360  42.8672170   2.6678310
 125.3236620  42.0239290   3.8050710 141.9104710  44.8787500   8.3601010
 142.0367770  44.6399380   7.4418190 141.9526090  44.0472040   8.8323090
 135.7721450  48.5815500   6.9295820 136.2866120  48.4923510   7.7318250
 134.9290530  48.9275200   7.2223730 141.7628720  36.9319960   9.3250750
 141.1472990  37.4399630   8.7966210 141.4425140  36.0318290   9.2676690
 124.7654460  43.7737570   6.1517050 124.9285500  43.3042930   5.3336420
 125.2306910  43.2661130   6.8165890 133.8243040  35.7711850   6.7912940
 133.3622410  35.9794870   7.6032880 133.4221150  34.9571200   6.4883610
 138.8247550  36.9920800   7.9209600 137.9741140  36.6926550   8.2418670
 138.6649340  37.2362810   7.0093420 135.9197260  38.4922550  10.0208390
 136.2450670  37.6586300   9.6810620 136.7077590  39.0151070  10.1686720
 131.5749130  33.4490660   3.0467220 131.8721460  34.3553490   2.9659240
 132.1234690  32.9609440   2.4326790 131.7686660  38.9262480   9.5819140
 131.6730260  37.9857210   9.4319540 132.6118640  39.1477550   9.1867210
 126.8997200  35.3376150   7.7352920 126.5060590  36.1851360   7.9425700
 126.2115600  34.7002520   7.9261560 133.4742250  35.4211120  10.8049660
 132.7840570  35.2283320  11.4395750 134.2174550  35.7045760  11.3373960
 124.2014250  33.2604610   1.7683000 123.9127300  33.8307470   2.4807980
 124.9460010  32.7809060   2.1314230 135.7505220  39.2609560   3.6403580
 135.0186340  39.7696370   3.9893680 135.3529560  38.4439540   3.3392360
 136.2131130  34.7143240   3.0526520 136.2303870  35.1651890   3.8968370
 135.9646710  33.8148880   3.2659960 139.6401880  32.1275420   8.8912900
 139.9647650  31.3965080   9.4170880 139.6758390  31.8089060   7.9893890
 126.3393440  43.1489000   8.3112860 125.9548230  42.5082670   8.9095820
 126.6505630  43.8525120   8.8807590 132.4890580  39.9965540   3.7921480
 132.8560710  39.5224110   4.5382820 132.2995640  40.8707110   4.1329820
 130.2789950  39.0374180   6.1105690 129.9747020  39.9166160   6.3356050
 131.2336410  39.0973970   6.1463130 139.5659720  42.2400530   2.4998930
 140.2858840  42.7355820   2.1095040 139.3641540  41.5618420   1.8552800
 134.9478520  42.3109590   8.3867930 134.8815830  41.3905260   8.1325520
 134.3183660  42.4085030   9.1012570 126.3353680  39.8776920   7.2577050
 125.9768620  40.5430770   7.8450390 126.0408240  39.0460470   7.6289670
 129.5366800  40.3361160  10.1416600 129.2366940  40.4818340   9.2444420
 130.3078040  39.7766450  10.0489990 134.8795250  45.1330160   8.1371730
 134.8939790  44.2011120   7.9190640 134.1720350  45.2189920   8.7761500
 141.0906460  41.7737500   7.4840310 140.3654650  42.3666280   7.2869700
 141.6181920  41.7661040   6.6853680 134.3129150  46.7747730   5.2312230
 134.9571370  46.9807110   5.9085650 134.6758590  46.0136130   4.7783080
 135.5861230  44.7780080   3.9489680 136.2283460  44.0773240   4.0621850
 136.1110580  45.5578520   3.7686570 137.3598850  45.5774980   7.1525740
 137.6955090  46.1641670   7.8303660 136.4399190  45.4467690   7.3823530
 124.9102250  33.3670160   7.9349150 124.1960770  33.5667080   8.5401760
 125.3297290  32.5909730   8.3063950 125.1974840  47.3550420   8.9215680
 125.3065960  46.4145160   8.7811070 124.5455400  47.6205170   8.2729410
 133.1887430  45.6266310  10.3213800 132.8684300  44.9075550  10.8659490
 132.5145790  46.3021380  10.3949860 136.4041030  35.8592470   5.6850600
 136.7721850  35.0387680   6.0130170 135.5439230  35.9194360   6.1006250
 133.3643020  38.5132060   5.9088570 133.8628270  38.9877880   6.5740420
 133.5065970  37.5895580   6.1158600 140.5709880  34.7300020   6.7516960
 140.0683480  35.4705420   7.0910770 141.3866540  35.1184020   6.4353750
 127.3433280  48.4219330  10.7335290 128.1446010  48.7431380  11.1470690
 126.8285100  48.0614910  11.4555200 136.1797910  44.5299200  10.6810700
 135.5736070  44.5530800   9.9406450 135.8752020  43.7982240  11.2177950
 137.6098280  48.2579490   9.2920110 138.5620030  48.1737510   9.2420350
 137.4626500  48.9221200   9.9653900 125.0631090  40.9092790   9.6771340
 125.5670110  40.3300070  10.2487570 124.3238510  41.1933020  10.2147710
 132.1169030  42.3163780   9.2106860 131.3514700  42.8848780   9.1261530
 132.2984990  42.0239990   8.3175090 139.2592380  44.0469110   9.7681880
 140.0001850  44.3844870   9.2649340 138.4965060  44.2161170   9.2151650
 127.0954170  39.0522380  10.5721410 127.1359510  38.7536250  11.4806640
 127.9499670  39.4529990  10.4128930 129.0359980  37.6314480   8.5395900
 128.5056440  37.1405430   7.9119240 129.7048050  38.0598680   8.0053830
 137.9338040  42.0983940   8.3037090 138.3479060  42.2529020   9.1527510
 136.9989040  42.2239160   8.4662870 138.4060210  39.4380100  10.3076240
 138.9880980  38.6832420  10.2196720 138.5821980  39.9687540   9.5307720
 129.5232280  34.5976850   8.6193190 129.4289150  33.9797600   7.8944060
 128.9429670  35.3243140   8.3923100 132.2893720  33.1550090   5.6520580
 131.8411020  33.1774350   4.8066130 131.6558920  32.7569110   6.2490880
 132.6953270  42.0504420   6.2733020 133.1141380  42.8937150   6.1009260
 131.7761900  42.1876460   6.0439800 135.0317170  39.7820600   7.6570860
 135.1513380  39.1861740   8.3965700 135.8911170  39.8190290   7.2372160
 137.3705070  40.3357790   6.2333370 136.8440290  40.8600410   5.6298510
 137.7136410  40.9685180   6.8643100 130.5460690  48.3557430   7.3890750
 130.0081780  49.0803490   7.0699450 130.7994650  47.8787770   6.5988090
 131.7985940  36.3241950   8.9146680 132.3885630  36.0157800   9.6024500
 130.9806180  35.8521700   9.0706580 136.6179370  35.9407760   9.1479700
 135.9294890  35.2789300   9.0829690 137.3385390  35.4946030   9.5928160
 133.4022900  49.5908640   7.6477400 133.3281600  50.4943780   7.9549770
 132.5001740  49.2720540   7.6199470 125.2940400  47.7853820   3.6892650
 124.8571390  47.9654620   4.5216800 125.8618080  48.5428440   3.5474370
 140.9302580  47.2870820   7.9769960 140.3304570  47.3463380   7.2333880
 141.0596480  46.3475800   8.1066810 139.6154220  44.0122800   6.0746120
 138.8014060  44.4419960   6.3371910 140.0228420  44.6241210   5.4615170
 126.1640760  40.6826620   4.5884870 126.5313800  40.5954020   5.4680890
 125.5951580  39.9193170   4.4891730 140.9644620  39.1511000   7.6015340
 140.7330710  38.9223750   6.7013290 141.2249170  40.0710550   7.5560230
 125.7156760  37.5935710   8.4943290 124.8212810  37.5602470   8.8337000
 126.2554310  37.7922500   9.2594540 139.4032690  34.3767430  10.3795040
 140.2802870  34.3850830  10.7629040 139.4153530  33.6398270   9.7687390
 141.0285680  38.3136840   4.7902610 140.0788390  38.2800380   4.9047600
 141.2098690  39.2236950   4.5552380 126.2196470  31.8684040   2.8426510
 126.8672660  31.3181420   2.4021670 126.6398310  32.1227190   3.6642320
 140.1148810  32.0625400   6.1996150 140.7521030  32.6759540   6.5655340
 140.2623700  32.0986060   5.2545380 125.9728470  32.0239710   5.5851830
 125.6243290  32.4803530   6.3510010 125.6416170  31.1296840   5.6674260
 127.5792840  45.1959310   9.7505020 127.5362470  44.8252220  10.6319480
 127.7103850  46.1336880   9.8906840 131.2798870  46.7518900   5.3514740
 131.0390230  47.0193460   4.4645260 132.2201510  46.9224630   5.4065600
 133.4853290  33.2151590   9.1071250 133.4242180  33.8073420   9.8566660
 134.4253670  33.1077550   8.9621510 136.1227850  32.8721650   8.7463540
 136.7368260  33.1900940   8.0844620 136.6677410  32.3870240   9.3659400
 142.5403030  48.7713280   6.1525380 142.0461310  49.1682150   5.4352510
 141.9316320  48.1462490   6.5462660 126.6449110  31.5515910   8.8602600
 127.1932100  31.3703960   8.0968710 126.7104420  30.7610020   9.3958910
 127.4180870  48.1421560   6.8702800 126.8241190  48.0106260   7.6092840
 127.4104710  47.3059700   6.4044900 136.8635890  31.4353790   5.0732830
 135.9895730  31.7688900   4.8705760 136.7546640  30.9626970   5.8984700
 137.7707870  33.6424660   6.4574550 137.4421230  32.8276420   6.0776280
 138.7190170  33.5994470   6.3340240 140.2242480  49.4136700   3.4312120
 139.7645450  50.1652510   3.0570140 139.5954940  48.6943170   3.3726920
 127.0493100  45.5079940   5.8210840 126.3227160  44.8885230   5.7536790
 127.1102250  45.9020550   4.9508920 130.6538200  47.7224940   2.6060250
 131.1703220  47.1112300   2.0808510 131.3035580  48.2253720   3.0971260
 133.3933700  48.6133430   3.4329230 133.6811510  48.3587730   2.5562240
 133.9056920  48.0610790   4.0234800 134.6110710  32.3523630   4.0125740
 133.8282500  32.8269130   4.2922500 134.3173640  31.4478460   3.9038920
 133.4606060  49.5349530  10.7997430 134.3873370  49.2993800  10.8433390
 133.4456490  50.3621530  10.3183460 130.6469670  32.1994280  10.5639310
 130.3653940  32.7027880   9.8000130 131.0289370  31.4016030  10.1981440
 137.2485130  31.6147860  11.1419780 137.1350580  31.9342470  12.0371300
 138.0654870  32.0160370  10.8457060 140.0283620  48.7619390  10.6238470
 140.8208940  48.2668620  10.4164430 140.3216770  49.4409530  11.2314080
 136.1543280  20.8596840 150.4745930 136.0737330  19.9451450 150.2037640
 135.7407700  21.3563910 149.7685640 138.3068750  27.0436050 151.1354330
 137.8450280  26.2723290 151.4641500 139.1194300  27.0702120 151.6406780
 126.7119100  17.9097560 147.0173350 125.8235800  18.2513530 146.9153230
 126.9960290  17.7097880 146.1254180 134.5332060  29.3294060 150.7558320
 133.9143500  29.7851560 150.1852760 135.3883840  29.4845520 150.3548020
 128.8880490  16.4929060 148.0511730 128.9947240  17.3932790 148.3580490
 127.9772850  16.4447030 147.7606380 138.5399600  15.6153870 149.5222630
 139.3609220  15.1250440 149.5648110 138.5733680  16.2051530 150.2754470
 135.3995410  24.2133300 148.1490230 134.7812680  24.6782750 147.5852950
 135.9118660  24.9060780 148.5659740 124.7678610  24.8989830 145.5229860
 124.3906590  25.3876930 144.7914760 125.0251680  25.5715110 146.1536390
 132.3767540  13.3006220 150.9815370 132.6842520  12.7453110 150.2650870
 131.4468240  13.4350680 150.7988360 139.2228020  25.7389730 148.3613000
 139.1124350  24.7964060 148.4862420 139.2196270  26.1005370 149.2475760
 134.7648300  21.3655050 147.7175490 133.8377580  21.2992430 147.9463960
 134.9173120  22.3035180 147.6030730 134.7517380  17.6372050 144.7142650
 133.8121050  17.7986010 144.7995110 135.0700640  18.3557730 144.1678640
 138.7945590  22.9275350 148.2210740 138.1758010  22.5894900 147.5737040
 138.7770040  22.2835110 148.9289930 130.3704940  21.8919790 150.4995220
 129.9661940  21.1797040 150.0041120 130.4568060  21.5473030 151.3883260
 136.9710290  22.1662160 145.2283490 137.4103570  21.3284590 145.0821310
 137.6838710  22.7991560 145.3147630 135.0805670  27.1058230 149.1964730
 135.5201580  27.8482560 148.7820120 135.0192560  27.3484800 150.1203690
 140.5527430  13.4204970 143.5424530 140.2400090  13.5131800 144.4423600
 141.3139900  13.9986000 143.4921960 127.0709570  20.7864770 148.0001870
 126.9507170  21.5126860 147.3883140 126.7610460  20.0167680 147.5229780
 125.9542570  25.6580100 150.2176690 125.5470650  25.7994690 149.3630290
 126.8455580  25.3740260 150.0147900 137.7475850  30.0927350 146.5527740
 137.5876990  29.8030290 147.4509570 137.5822560  29.3167480 146.0172970
 130.2264230  29.8725880 148.3299360 130.0506710  28.9561420 148.1167160
 129.3719970  30.2313170 148.5697160 137.4501980  27.6014910 145.1125740
 136.7567140  27.5992200 144.4528020 138.1924840  27.1774230 144.6819910
 137.0151910  29.2277620 149.1874230 137.4708860  28.4467000 149.5012850
 137.3544430  29.9384440 149.7315410 129.5373230  14.1299840 151.3825540
 129.0941380  14.9109380 151.0510060 130.0958220  14.4529730 152.0896480
 132.6532050  13.7510540 146.2631370 132.0286230  13.7470410 146.9884680
 132.5662170  12.8841500 145.8667340 129.3287450  19.2533410 149.1106790
 129.1028370  19.0370580 150.0153410 128.5479980  19.6861870 148.7652760
 136.5585210  19.2596780 147.7097440 135.9594100  19.9832580 147.5261060
 137.1064820  19.1973560 146.9273890 135.1650080  17.8960320 149.7400720
 135.5579650  18.2132520 148.9269410 135.5266930  17.0172200 149.8545240
 124.3884480  18.4281240 143.1733640 124.3059150  19.3712000 143.3148630
 124.0367540  18.2856150 142.2945990 132.1882610  17.1620270 152.2403990
 132.1918670  16.7210220 151.3908530 133.0833730  17.4837600 152.3475810
 128.0384990  17.0446760 151.1998200 127.6985040  17.5221990 151.9565250
 127.2762310  16.5911880 150.8399300 132.2502760  18.1632350 145.2310750
 132.3715580  18.1218830 146.1796570 131.8651270  19.0256500 145.0757480
 131.2624260  20.4733490 144.6294050 130.6941160  20.0251740 144.0029960
 131.9713260  20.8326270 144.0959200 125.3531070  15.9665740 150.1162870
 125.0677990  15.6021410 150.9541490 125.2909930  15.2346200 149.5026010
 128.8071740  24.4691680 146.9020460 128.0334000  23.9289300 146.7419180
 129.5366370  23.9498290 146.5638220 135.0269660  14.8595000 146.8376240
 134.2134270  14.3608170 146.7621550 134.8331610  15.6993250 146.4212590
 137.7418050  19.2314650 145.1338400 138.6297670  19.5431880 144.9589740
 137.7123140  18.3586900 144.7418980 128.8509140  24.1372060 150.5399270
 129.3687810  23.3340320 150.4856160 128.3993160  24.0751200 151.3816100
 133.7378640  25.4038340 145.8126570 134.0794340  26.1480570 145.3169890
 132.9091350  25.7169460 146.1751400 140.0132320  20.5426490 144.6018260
 139.9296040  20.9740710 143.7514700 140.7326510  21.0024840 145.0345080
 141.0419570  27.3968750 147.3300390 140.3995730  26.7424370 147.6044110
 140.6550230  27.8023840 146.5541060 136.6206050  24.7254180 151.1772080
 136.9729870  24.1282310 150.5173450 135.7368380  24.3998410 151.3480330
 132.7069330  25.4851870 148.5842490 133.3940460  26.0321080 148.9650080
 131.9201750  26.0292600 148.6192100 124.8461730  21.1024690 144.0759570
 125.7156580  21.3849490 144.3595490 124.3552050  21.9160560 143.9608380
 132.0096540  22.4897900 148.1967850 132.4659320  23.3003150 148.4228040
 131.6584750  22.1721040 149.0286340 127.9108320  12.8335550 148.6690370
 127.7822950  12.8253450 149.6175290 127.0870340  13.1718640 148.3181380
 139.4316950  26.2885210 143.8676740 139.2054530  25.5715650 144.4601380
 139.0413150  26.0397650 143.0298490 125.2132980  30.3152070 144.6421200
 125.5730620  30.9141410 143.9878470 125.0725320  30.8611960 145.4156230
 139.0133200  24.2057150 145.5290900 138.7254900  24.6669840 146.3168780
 139.8085370  23.7454920 145.7975120 131.2301600  27.6983270 145.4594870
 131.2211700  28.4312960 144.8439380 130.3099960  27.4514850 145.5521830
 126.8308240  22.9198160 146.2041630 126.2236190  23.6597060 146.2136930
 127.3057590  23.0097520 145.3779830 139.7703060  16.0405920 146.6886080
 139.1416220  16.1451590 145.9744310 139.2754980  16.2602700 147.4779960
 134.2161200  27.7611510 144.1220060 134.3173180  27.5575500 143.1922040
 133.3162940  27.5069790 144.3267840 131.7387090  18.3191870 148.1043960
 131.0303240  18.7878210 148.5457570 132.0231570  17.6613880 148.7389150
 135.7702520  15.0442530 149.5439750 135.6470300  15.0628660 148.5949260
 136.7187080  15.0921470 149.6638150 132.8579310  30.2797830 148.8167730
 133.1120810  30.2419220 147.8947100 131.9091790  30.1531160 148.8095980
 129.9422110  16.6276950 145.4794670 130.7912640  17.0647100 145.4134860
 129.5753380  16.9397210 146.3066730 138.8631890  21.1989710 150.3926240
 137.9222030  21.2139940 150.5673930 139.1775960  20.4125670 150.8386540
 128.8413530  22.8809310 143.9530200 129.6076800  22.7690670 144.5155630
 128.9188220  22.1847280 143.3006970 127.5360290  20.3134380 144.6363090
 127.6163880  19.3661890 144.7480490 128.4280040  20.6441260 144.7423750
 128.3375000  30.4629770 151.7397630 129.0737480  29.9145230 152.0106200
 128.7215920  31.3285780 151.6003620 125.2220480  26.5303340 147.6139140
 124.2960260  26.7724480 147.6044550 125.6876910  27.3577600 147.4923890
 131.4477310  29.6360080 143.5623200 132.2405920  29.9248910 143.1104990
 130.9281660  29.2052250 142.8835680 140.5007480  28.8630210 144.9859940
 140.2148990  28.4495350 144.1714120 140.3027030  29.7917920 144.8660460
 131.9654710  24.8563490 143.4265550 131.8605350  24.2415840 144.1526930
 131.7978930  24.3329380 142.6428560 135.2057440  23.9183520 144.0307540
 134.6567540  24.3652820 144.6750280 135.8276700  23.4132770 144.5545210
 130.8732560  22.8774440 145.9272840 131.2948980  22.7114310 146.7704230
 130.9983400  22.0674670 145.4327980 133.3860200  21.9012050 143.1749940
 133.9065860  21.1861070 142.8091090 134.0328600  22.5397920 143.4750450
 129.7691460  18.9507670 142.8731000 129.5680520  18.0875030 143.2344340
 129.5983510  18.8641030 141.9352600 137.2479770  13.7615900 145.4017880
 137.5282060  12.9183800 145.7577300 136.4745500  13.9939010 145.9156630
 128.5674260  16.0508290 142.8608880 128.8700160  16.0575720 141.9528030
 129.3068850  15.7006150 143.3576540 131.7859190  14.9942910 143.8465080
 131.4381190  14.3166900 143.2667530 131.9871960  14.5332420 144.6608470
 133.9508230  29.9823660 145.4651680 134.8459020  30.3208630 145.4870440
 133.9825860  29.2603070 144.8375960 127.5904390  25.3550710 143.6938680
 128.0279260  25.8980380 144.3496260 128.0752120  24.5297660 143.7035020
 124.8050190  28.1439740 151.1458940 125.1353200  27.2760800 150.9137580
 125.2341190  28.3498260 151.9763900 129.4012110  26.4748750 148.8060910
 129.1007650  26.3513720 149.7064820 129.2949600  25.6157340 148.3976640
 142.1704030  26.2545150 143.5087590 141.3396990  26.3221800 143.9794820
 142.3475860  27.1449270 143.2054450 141.6260490  22.9992630 146.0121790
 142.3879400  23.5689280 146.1181480 141.6414860  22.4319830 146.7830100
 125.1264830  21.5230560 150.2429450 124.4713670  21.2542200 149.5989150
 125.9642780  21.4135040 149.7931430 142.6320460  23.8542730 150.8563720
 143.0029290  23.0710050 150.4499690 143.2722390  24.5431830 150.6781020
 141.6779660  23.2927000 143.1694310 141.9528500  24.2005880 143.0413530
 141.4890400  23.2289530 144.1056300 138.0755270  16.3171850 144.4647940
 138.4940150  16.1302830 143.6244600 137.7691330  15.4650900 144.7750870
 141.5745000  21.2295990 148.1623740 141.1988600  20.4623920 147.7305030
 140.8448120  21.6118690 148.6498670 124.3402910  18.7329490 146.1854780
 123.4366990  18.9959690 146.0106440 124.8243530  19.0040660 145.4054740
 140.8495960  19.4553480 151.4630980 141.3733440  18.9616130 150.8321150
 141.4355380  19.5903840 152.2078550 126.8830120  17.7895030 144.0949160
 127.5921820  17.3678250 143.6096440 126.1670060  17.8570260 143.4632510
 126.5304280  13.8434360 143.1351810 127.2532410  14.3843300 143.4533030
 126.8028800  13.5697780 142.2593350 140.3395930  18.7126830 147.4023390
 140.8355050  18.4797700 148.1872270 140.1412000  17.8738670 146.9861030
 141.7683090  17.3487780 149.9361070 141.6582370  17.1943820 150.8743340
 142.5290680  16.8208720 149.6936480 142.6573360  15.1795700 143.1767210
 143.5822670  15.0476880 142.9685500 142.6349150  15.2588520 144.1303660
 142.7311850  15.9506360 145.8023920 141.9363350  15.8851480 146.3316830
 142.9355130  16.8857000 145.7909270 139.6730270  29.9897910 149.7962310
 140.2689340  29.6682480 149.1196730 139.9308420  29.5169730 150.5875580
 139.1631780  14.2803240 152.2522750 139.6039870  14.2248340 151.4044350
 138.8939370  15.1961250 152.3232930 141.0270350  13.9118480 150.2631570
 140.9658750  12.9679700 150.1162590 141.8062380  14.0198570 150.8085030
 125.3323100  30.0510840 149.2255520 125.1645140  29.4181520 149.9237410
 124.4657610  30.2570240 148.8749710 125.9551120  13.8827620 146.7287380
 126.7130480  13.9956500 146.1551410 125.4928290  14.7196820 146.6830810
 132.4964930  15.9966890 149.7189690 131.6839440  15.6223780 149.3785570
 133.0006570  15.2411970 150.0210880 136.9989910  12.6609340 150.9572760
 137.6019280  13.2329550 151.4321280 136.2582900  13.2248780 150.7346660
 140.1424510  13.0630900 146.2313040 140.3375140  13.9614350 146.4980470
 139.3554380  12.8317980 146.7245990 126.9385800  28.7444070 146.6705660
 126.4133420  29.1252100 145.9667620 126.8630380  29.3694840 147.3915370
 128.3276270  14.4091670 145.2689350 128.8569030  13.6221470 145.1397300
 128.9604590  15.0882860 145.5024880 130.5214110  14.1466810 148.3234740
 129.8916850  13.4454120 148.4904870 129.9819250  14.9070940 148.1067900
 141.6951120  30.3031610 147.9919600 141.8703310  29.6169350 147.3480520
 140.9972690  30.8278660 147.5996270 129.5378770  30.6926450 145.5454910
 130.2697590  30.4085730 144.9978800 129.7972440  30.4539730 146.4354290
 128.6993560  26.8091180 145.5501240 128.0702440  27.2776280 146.0987070
 128.8141390  25.9640400 145.9847430 136.1543280  20.8596840 131.7002440
 136.0737330  19.9451450 131.4294150 135.7407700  21.3563910 130.9942150
 134.2861320  22.6375860 133.5811710 133.5103420  22.1576300 133.8710280
 134.9374250  21.9581510 133.4067870 128.3027150  22.9495670 134.4587470
 127.4712030  22.6944380 134.8583980 128.9108130  23.0206440 135.1945390
 138.3068750  27.0436050 132.3610840 137.8450280  26.2723290 132.6898010
 139.1194300  27.0702120 132.8663290 128.2828410  26.9835760 134.6545490
 128.5856450  26.0933500 134.4755710 129.0272000  27.5405980 134.4267740
 126.7119100  17.9097560 128.2429860 125.8235800  18.2513530 128.1409740
 126.9960290  17.7097880 127.3510690 124.6752110  20.5103210 134.1269560
 125.2468220  19.7425410 134.1273200 124.6753650  20.8091970 133.2176170
 134.5332060  29.3294060 131.9814830 133.9143500  29.7851560 131.4109270
 135.3883840  29.4845520 131.5804530 133.7270310  25.3133050 133.5881870
 133.6578590  24.3722990 133.4271000 134.4890170  25.4034460 134.1604440
 125.9176980  15.9187570 135.9138490 125.7379820  15.0213320 136.1941250
 125.5157060  16.4659440 136.5885440 134.7575480  18.1203430 133.8150800
 135.1340300  17.2475310 133.7024470 134.6594990  18.4562130 132.9241240
 128.8880490  16.4929060 129.2768240 128.9947240  17.3932790 129.5837000
 127.9772850  16.4447030 128.9862890 138.5399600  15.6153870 130.7479140
 139.3609220  15.1250440 130.7904620 138.5733680  16.2051530 131.5010980
 126.5363650  18.4148070 134.5220830 127.2173760  18.6786440 135.1408230
 126.2211700  17.5748940 134.8558840 130.7288220  19.4615430 133.6093420
 131.2366440  19.9596400 134.2498440 131.2601460  18.6850630 133.4332780
 142.8299150  17.6320620 137.3122770 142.1251320  18.0202330 136.7937880
 143.0957070  18.3270910 137.9143700 129.0124320  14.1013990 137.8756840
 129.0142760  14.6186380 137.0702740 128.1828630  13.6244170 137.8526770
 135.3995410  24.2133300 129.3746740 134.7812680  24.6782750 128.8109460
 135.9118660  24.9060780 129.7916250 130.2627170  23.7409170 136.0530340
 129.9296550  24.3678090 136.6951410 130.4393850  24.2671050 135.2732010
 138.7761080  17.5554250 133.5206680 138.0716650  17.8439140 134.1009790
 139.1373240  18.3654360 133.1606240 128.6939650  15.8123950 135.8827290
 129.0356460  16.6566000 135.5881160 127.7555460  15.9607690 135.9992630
 129.4746270  25.7089970 137.8679520 130.0920270  26.3841050 137.5863970
 128.6139390  26.1177950 137.7767020 124.7678610  24.8989830 126.7486370
 124.3906590  25.3876930 126.0171270 125.0251680  25.5715110 127.3792900
 140.3923860  27.1729380 135.7834160 139.7087380  27.8428490 135.7750830
 140.9318150  27.3710030 135.0179020 141.8448000  17.0009040 133.9115890
 140.8972910  17.0348020 134.0431320 142.1697990  17.8147990 134.2965250
 132.3767540  13.3006220 132.2071880 132.6842520  12.7453110 131.4907380
 131.4468240  13.4350680 132.0244870 137.9282600  29.0173510 134.4979340
 137.9409760  28.6135800 133.6301600 137.3757820  29.7920800 134.3940770
 139.2228020  25.7389730 129.5869510 139.1124350  24.7964060 129.7118930
 139.2196270  26.1005370 130.4732270 137.3268040  23.9203350 135.8261950
 137.7436830  23.7063460 134.9915410 138.0507860  24.1776140 136.3970570
 134.7648300  21.3655050 128.9432000 133.8377580  21.2992430 129.1720470
 134.9173120  22.3035180 128.8287240 134.7517380  17.6372050 125.9399160
 133.8121050  17.7986010 126.0251620 135.0700640  18.3557730 125.3935150
 141.2730140  22.3190570 135.9178190 140.4448770  22.3883660 135.4428320
 141.8680620  22.9044880 135.4494020 138.7945590  22.9275350 129.4467250
 138.1758010  22.5894900 128.7993550 138.7770040  22.2835110 130.1546440
 138.2372150  19.1059890 136.8633060 137.8243330  19.9313600 137.1173050
 137.5048100  18.5204930 136.6709420 130.3704940  21.8919790 131.7251730
 129.9661940  21.1797040 131.2297630 130.4568060  21.5473030 132.6139770
 130.8386640  25.5787350 133.8890940 130.5414930  24.9732820 133.2098720
 131.7886460  25.6164660 133.7780300 129.0833560  18.6663000 135.5050770
 129.6348150  18.7758340 134.7304020 129.5977070  19.0400600 136.2206000
 138.9272250  29.1519220 137.5514040 138.4502810  29.9591410 137.3586650
 138.2434040  28.4997550 137.7040250 129.9305070  25.3169040 140.5398740
 129.0333600  25.5409010 140.7872140 129.9557940  25.4403980 139.5910140
 136.9710290  22.1662160 126.4540000 137.4103570  21.3284590 126.3077820
 137.6838710  22.7991560 126.5404140 128.7576290  22.1882360 139.1156110
 128.6184060  23.0605160 139.4843510 127.8757650  21.8455170 138.9704050
 135.0805670  27.1058230 130.4221240 135.5201580  27.8482560 130.0076630
 135.0192560  27.3484800 131.3460200 130.5556640  28.1304060 141.3241260
 130.5272070  28.5347010 140.4569690 130.3921610  27.2014420 141.1612860
 140.5527430  13.4204970 124.7681040 140.2400090  13.5131800 125.6680110
 141.3139900  13.9986000 124.7178470 127.0709570  20.7864770 129.2258380
 126.9507170  21.5126860 128.6139650 126.7610460  20.0167680 128.7486290
 142.5071460  28.9131160 142.6205430 142.9831180  29.3914050 143.2994510
 143.1278620  28.8448650 141.8950930 124.7094940  23.9579910 135.0327020
 124.7875360  24.0928680 134.0882740 125.3236620  23.2495800 135.2255140
 125.9542570  25.6580100 131.4433200 125.5470650  25.7994690 130.5886800
 126.8455580  25.3740260 131.2404410 141.9104710  26.1044010 139.7805440
 142.0367770  25.8655890 138.8622620 141.9526090  25.2728550 140.2527520
 135.7721450  29.8072010 138.3500250 136.2866120  29.7180020 139.1522680
 134.9290530  30.1531710 138.6428160 137.7475850  30.0927350 127.7784250
 137.5876990  29.8030290 128.6766080 137.5822560  29.3167480 127.2429480
 130.2264230  29.8725880 129.5555870 130.0506710  28.9561420 129.3423670
 129.3719970  30.2313170 129.7953670 137.4501980  27.6014910 126.3382250
 136.7567140  27.5992200 125.6784530 138.1924840  27.1774230 125.9076420
 137.0151910  29.2277620 130.4130740 137.4708860  28.4467000 130.7269360
 137.3544430  29.9384440 130.9571920 141.7628720  18.1576470 140.7455180
 141.1472990  18.6656140 140.2170640 141.4425140  17.2574800 140.6881120
 124.7654460  24.9994080 137.5721480 124.9285500  24.5299440 136.7540850
 125.2306910  24.4917640 138.2370320 129.5373230  14.1299840 132.6082050
 129.0941380  14.9109380 132.2766570 130.0958220  14.4529730 133.3152990
 133.8243040  16.9968360 138.2117370 133.3622410  17.2051380 139.0237310
 133.4221150  16.1827710 137.9088040 138.8247550  18.2177310 139.3414030
 137.9741140  17.9183060 139.6623100 138.6649340  18.4619320 138.4297850
 135.9197260  19.7179060 141.4412820 136.2450670  18.8842810 141.1015050
 136.7077590  20.2407580 141.5891150 132.6532050  13.7510540 127.4887880
 132.0286230  13.7470410 128.2141190 132.5662170  12.8841500 127.0923850
 131.5749130  14.6747170 134.4671650 131.8721460  15.5810000 134.3863670
 132.1234690  14.1865950 133.8531220 129.3287450  19.2533410 130.3363300
 129.1028370  19.0370580 131.2409920 128.5479980  19.6861870 129.9909270
 136.5585210  19.2596780 128.9353950 135.9594100  19.9832580 128.7517570
 137.1064820  19.1973560 128.1530400 131.7686660  20.1518990 141.0023570
 131.6730260  19.2113720 140.8523970 132.6118640  20.3734060 140.6071640
 135.1650080  17.8960320 130.9657230 135.5579650  18.2132520 130.1525920
 135.5266930  17.0172200 131.0801750 126.8997200  16.5632660 139.1557350
 126.5060590  17.4107870 139.3630130 126.2115600  15.9259030 139.3465990
 133.4742250  16.6467630 142.2254090 132.7840570  16.4539830 142.8600180
 134.2174550  16.9302270 142.7578390 124.2014250  14.4861120 133.1887430
 123.9127300  15.0563980 133.9012410 124.9460010  14.0065570 133.5518660
 124.3884480  18.4281240 124.3990150 124.3059150  19.3712000 124.5405140
 124.0367540  18.2856150 123.5202500 135.7505220  20.4866070 135.0608010
 135.0186340  20.9952880 135.4098110 135.3529560  19.6696050 134.7596790
 132.1882610  17.1620270 133.4660500 132.1918670  16.7210220 132.6165040
 133.0833730  17.4837600 133.5732320 128.0384990  17.0446760 132.4254710
 127.6985040  17.5221990 133.1821760 127.2762310  16.5911880 132.0655810
 132.2502760  18.1632350 126.4567260 132.3715580  18.1218830 127.4053080
 131.8651270  19.0256500 126.3013990 136.2131130  15.9399750 134.4730950
 136.2303870  16.3908400 135.3172800 135.9646710  15.0405390 134.6864390
 131.2624260  20.4733490 125.8550560 130.6941160  20.0251740 125.2286470
 131.9713260  20.8326270 125.3215710 139.6401880  13.3531930 140.3117330
 139.9647650  12.6221590 140.8375310 139.6758390  13.0345570 139.4098320
 126.3393440  24.3745510 139.7317290 125.9548230  23.7339180 140.3300250
 126.6505630  25.0781630 140.3012020 132.4890580  21.2222050 135.2125910
 132.8560710  20.7480620 135.9587250 132.2995640  22.0963620 135.5534250
 125.3531070  15.9665740 131.3419380 125.0677990  15.6021410 132.1798000
 125.2909930  15.2346200 130.7282520 130.2789950  20.2630690 137.5310120
 129.9747020  21.1422670 137.7560480 131.2336410  20.3230480 137.5667560
 128.8071740  24.4691680 128.1276970 128.0334000  23.9289300 127.9675690
 129.5366370  23.9498290 127.7894730 139.5659720  23.4657040 133.9203360
 140.2858840  23.9612330 133.5299470 139.3641540  22.7874930 133.2757230
 135.0269660  14.8595000 128.0632750 134.2134270  14.3608170 127.9878060
 134.8331610  15.6993250 127.6469100 134.9478520  23.5366100 139.8072360
 134.8815830  22.6161770 139.5529950 134.3183660  23.6341540 140.5217000
 137.7418050  19.2314650 126.3594910 138.6297670  19.5431880 126.1846250
 137.7123140  18.3586900 125.9675490 128.8509140  24.1372060 131.7655780
 129.3687810  23.3340320 131.7112670 128.3993160  24.0751200 132.6072610
 133.7378640  25.4038340 127.0383080 134.0794340  26.1480570 126.5426400
 132.9091350  25.7169460 127.4007910 126.3353680  21.1033430 138.6781480
 125.9768620  21.7687280 139.2654820 126.0408240  20.2716980 139.0494100
 129.5366800  21.5617670 141.5621030 129.2366940  21.7074850 140.6648850
 130.3078040  21.0022960 141.4694420 134.8795250  26.3586670 139.5576160
 134.8939790  25.4267630 139.3395070 134.1720350  26.4446430 140.1965930
 140.0132320  20.5426490 125.8274770 139.9296040  20.9740710 124.9771210
 140.7326510  21.0024840 126.2601590 141.0906460  22.9994010 138.9044740
 140.3654650  23.5922790 138.7074130 141.6181920  22.9917550 138.1058110
 141.0419570  27.3968750 128.5556900 140.3995730  26.7424370 128.8300620
 140.6550230  27.8023840 127.7797570 136.6206050  24.7254180 132.4028590
 136.9729870  24.1282310 131.7429960 135.7368380  24.3998410 132.5736840
 132.7069330  25.4851870 129.8099000 133.3940460  26.0321080 130.1906590
 131.9201750  26.0292600 129.8448610 124.8461730  21.1024690 125.3016080
 125.7156580  21.3849490 125.5852000 124.3552050  21.9160560 125.1864890
 132.0096540  22.4897900 129.4224360 132.4659320  23.3003150 129.6484550
 131.6584750  22.1721040 130.2542850 134.3129150  28.0004240 136.6516660
 134.9571370  28.2063620 137.3290080 134.6758590  27.2392640 136.1987510
 127.9108320  12.8335550 129.8946880 127.7822950  12.8253450 130.8431800
 127.0870340  13.1718640 129.5437890 135.5861230  26.0036590 135.3694110
 136.2283460  25.3029750 135.4826280 136.1110580  26.7835030 135.1891000
 139.4316950  26.2885210 125.0933250 139.2054530  25.5715650 125.6857890
 139.0413150  26.0397650 124.2555000 137.3598850  26.8031490 138.5730170
 137.6955090  27.3898180 139.2508090 136.4399190  26.6724200 138.8027960
 125.2132980  30.3152070 125.8677710 125.5730620  30.9141410 125.2134980
 125.0725320  30.8611960 126.6412740 124.9102250  14.5926670 139.3553580
 124.1960770  14.7923590 139.9606190 125.3297290  13.8166240 139.7268380
 139.0133200  24.2057150 126.7547410 138.7254900  24.6669840 127.5425290
 139.8085370  23.7454920 127.0231630 125.1974840  28.5806930 140.3420110
 125.3065960  27.6401670 140.2015500 124.5455400  28.8461680 139.6933840
 133.1887430  26.8522820 141.7418230 132.8684300  26.1332060 142.2863920
 132.5145790  27.5277890 141.8154290 131.2301600  27.6983270 126.6851380
 131.2211700  28.4312960 126.0695890 130.3099960  27.4514850 126.7778340
 126.8308240  22.9198160 127.4298140 126.2236190  23.6597060 127.4393440
 127.3057590  23.0097520 126.6036340 136.4041030  17.0848980 137.1055030
 136.7721850  16.2644190 137.4334600 135.5439230  17.1450870 137.5210680
 139.7703060  16.0405920 127.9142590 139.1416220  16.1451590 127.2000820
 139.2754980  16.2602700 128.7036470 134.2161200  27.7611510 125.3476570
 134.3173180  27.5575500 124.4178550 133.3162940  27.5069790 125.5524350
 131.7387090  18.3191870 129.3300470 131.0303240  18.7878210 129.7714080
 132.0231570  17.6613880 129.9645660 133.3643020  19.7388570 137.3293000
 133.8628270  20.2134390 137.9944850 133.5065970  18.8152090 137.5363030
 135.7702520  15.0442530 130.7696260 135.6470300  15.0628660 129.8205770
 136.7187080  15.0921470 130.8894660 132.8579310  30.2797830 130.0424240
 133.1120810  30.2419220 129.1203610 131.9091790  30.1531160 130.0352490
 129.9422110  16.6276950 126.7051180 130.7912640  17.0647100 126.6391370
 129.5753380  16.9397210 127.5323240 140.5709880  15.9556530 138.1721390
 140.0683480  16.6961930 138.5115200 141.3866540  16.3440530 137.8558180
 138.8631890  21.1989710 131.6182750 137.9222030  21.2139940 131.7930440
 139.1775960  20.4125670 132.0643050 128.8413530  22.8809310 125.1786710
 129.6076800  22.7690670 125.7412140 128.9188220  22.1847280 124.5263480
 127.5360290  20.3134380 125.8619600 127.6163880  19.3661890 125.9737000
 128.4280040  20.6441260 125.9680260 140.8657470  28.3698560 133.2937010
 140.9904890  29.1929730 133.7660820 141.7323030  28.1589290 132.9461160
 128.3375000  30.4629770 132.9654140 129.0737480  29.9145230 133.2362710
 128.7215920  31.3285780 132.8260130 125.2220480  26.5303340 128.8395650
 124.2960260  26.7724480 128.8301060 125.6876910  27.3577600 128.7180400
 127.3433280  29.6475840 142.1539720 128.1446010  29.9687890 142.5675120
 126.8285100  29.2871420 142.8759630 131.4477310  29.6360080 124.7879710
 132.2405920  29.9248910 124.3361500 130.9281660  29.2052250 124.1092190
 136.1797910  25.7555710 142.1015130 135.5736070  25.7787310 141.3610880
 135.8752020  25.0238750 142.6382380 137.6098280  29.4836000 140.7124540
 138.5620030  29.3994020 140.6624780 137.4626500  30.1477710 141.3858330
 140.5007480  28.8630210 126.2116450 140.2148990  28.4495350 125.3970630
 140.3027030  29.7917920 126.0916970 125.0631090  22.1349300 141.0975770
 125.5670110  21.5556580 141.6692000 124.3238510  22.4189530 141.6352140
 131.9654710  24.8563490 124.6522060 131.8605350  24.2415840 125.3783440
 131.7978930  24.3329380 123.8685070 132.1169030  23.5420290 140.6311290
 131.3514700  24.1105290 140.5465960 132.2984990  23.2496500 139.7379520
 135.2057440  23.9183520 125.2564050 134.6567540  24.3652820 125.9006790
 135.8276700  23.4132770 125.7801720 139.2592380  25.2725620 141.1886310
 140.0001850  25.6101380 140.6853770 138.4965060  25.4417680 140.6356080
 127.0954170  20.2778890 141.9925840 127.1359510  19.9792760 142.9011070
 127.9499670  20.6786500 141.8333360 130.8732560  22.8774440 127.1529350
 131.2948980  22.7114310 127.9960740 130.9983400  22.0674670 126.6584490
 129.0359980  18.8570990 139.9600330 128.5056440  18.3661940 139.3323670
 129.7048050  19.2855190 139.4258260 133.3860200  21.9012050 124.4006450
 133.9065860  21.1861070 124.0347600 134.0328600  22.5397920 124.7006960
 137.9338040  23.3240450 139.7241520 138.3479060  23.4785530 140.5731940
 136.9989040  23.4495670 139.8867300 138.4060210  20.6636610 141.7280670
 138.9880980  19.9088930 141.6401150 138.5821980  21.1944050 140.9512150
 129.5232280  15.8233360 140.0397620 129.4289150  15.2054110 139.3148490
 128.9429670  16.5499650 139.8127530 132.2893720  14.3806600 137.0725010
 131.8411020  14.4030860 136.2270560 131.6558920  13.9825620 137.6695310
 132.6953270  23.2760930 137.6937450 133.1141380  24.1193660 137.5213690
 131.7761900  23.4132970 137.4644230 135.0317170  21.0077110 139.0775290
 135.1513380  20.4118250 139.8170130 135.8911170  21.0446800 138.6576590
 137.3705070  21.5614300 137.6537800 136.8440290  22.0856920 137.0502940
 137.7136410  22.1941690 138.2847530 129.7691460  18.9507670 124.0987510
 129.5680520  18.0875030 124.4600850 129.5983510  18.8641030 123.1609110
 130.5460690  29.5813940 138.8095180 130.0081780  30.3060000 138.4903880
 130.7994650  29.1044280 138.0192520 131.7985940  17.5498460 140.3351110
 132.3885630  17.2414310 141.0228930 130.9806180  17.0778210 140.4911010
 136.6179370  17.1664270 140.5684130 135.9294890  16.5045810 140.5034120
 137.3385390  16.7202540 141.0132590 137.2479770  13.7615900 126.6274390
 137.5282060  12.9183800 126.9833810 136.4745500  13.9939010 127.1413140
 128.5674260  16.0508290 124.0865390 128.8700160  16.0575720 123.1784540
 129.3068850  15.7006150 124.5833050 133.4022900  30.8165150 139.0681830
 133.3281600  31.7200290 139.3754200 132.5001740  30.4977050 139.0403900
 131.7859190  14.9942910 125.0721590 131.4381190  14.3166900 124.4924040
 131.9871960  14.5332420 125.8864980 133.9508230  29.9823660 126.6908190
 134.8459020  30.3208630 126.7126950 133.9825860  29.2603070 126.0632470
 127.5904390  25.3550710 124.9195190 128.0279260  25.8980380 125.5752770
 128.0752120  24.5297660 124.9291530 124.8050190  28.1439740 132.3715450
 125.1353200  27.2760800 132.1394090 125.2341190  28.3498260 133.2020410
 129.4012110  26.4748750 130.0317420 129.1007650  26.3513720 130.9321330
 129.2949600  25.6157340 129.6233150 125.2940400  29.0110330 135.1097080
 124.8571390  29.1911130 135.9421230 125.8618080  29.7684950 134.9678800
 140.9302580  28.5127330 139.3974390 140.3304570  28.5719890 138.6538310
 141.0596480  27.5732310 139.5271240 142.1704030  26.2545150 124.7344100
 141.3396990  26.3221800 125.2051330 142.3475860  27.1449270 124.4310960
 141.6260490  22.9992630 127.2378300 142.3879400  23.5689280 127.3437990
 141.6414860  22.4319830 128.0086610 125.1264830  21.5230560 131.4685960
 124.4713670  21.2542200 130.8245660 125.9642780  21.4135040 131.0187940
 142.6320460  23.8542730 132.0820230 143.0029290  23.0710050 131.6756200
 143.2722390  24.5431830 131.9037530 139.6154220  25.2379310 137.4950550
 138.8014060  25.6676470 137.7576340 140.0228420  25.8497720 136.8819600
 141.6779660  23.2927000 124.3950820 141.9528500  24.2005880 124.2670040
 141.4890400  23.2289530 125.3312810 138.0755270  16.3171850 125.6904450
 138.4940150  16.1302830 124.8501110 137.7691330  15.4650900 126.0007380
 141.5745000  21.2295990 129.3880250 141.1988600  20.4623920 128.9561540
 140.8448120  21.6118690 129.8755180 126.1640760  21.9083130 136.0089300
 126.5313800  21.8210530 136.8885320 125.5951580  21.1449680 135.9096160
 140.9644620  20.3767510 139.0219770 140.7330710  20.1480260 138.1217720
 141.2249170  21.2967060 138.9764660 125.7156760  18.8192220 139.9147720
 124.8212810  18.7858980 140.2541430 126.2554310  19.0179010 140.6798970
 139.4032690  15.6023940 141.7999470 140.2802870  15.6107340 142.1833470
 139.4153530  14.8654780 141.1891820 124.3402910  18.7329490 127.4111290
 123.4366990  18.9959690 127.2362950 124.8243530  19.0040660 126.6311250
 140.8495960  19.4553480 132.6887490 141.3733440  18.9616130 132.0577660
 141.4355380  19.5903840 133.4335060 141.0285680  19.5393350 136.2107040
 140.0788390  19.5056890 136.3252030 141.2098690  20.4493460 135.9756810
 126.8830120  17.7895030 125.3205670 127.5921820  17.3678250 124.8352950
 126.1670060  17.8570260 124.6889020 126.5304280  13.8434360 124.3608320
 127.2532410  14.3843300 124.6789540 126.8028800  13.5697780 123.4849860
 140.3395930  18.7126830 128.6279900 140.8355050  18.4797700 129.4128780
 140.1412000  17.8738670 128.2117540 126.2196470  13.0940550 134.2630940
 126.8672660  12.5437930 133.8226100 126.6398310  13.3483700 135.0846750
 141.7683090  17.3487780 131.1617580 141.6582370  17.1943820 132.0999850
 142.5290680  16.8208720 130.9192990 140.1148810  13.2881910 137.6200580
 140.7521030  13.9016050 137.9859770 140.2623700  13.3242570 136.6749810
 142.6573360  15.1795700 124.4023720 143.5822670  15.0476880 124.1942010
 142.6349150  15.2588520 125.3560170 142.7311850  15.9506360 127.0280430
 141.9363350  15.8851480 127.5573340 142.9355130  16.8857000 127.0165780
 139.6730270  29.9897910 131.0218820 140.2689340  29.6682480 130.3453240
 139.9308420  29.5169730 131.8132090 125.9728470  13.2496220 137.0056260
 125.6243290  13.7060040 137.7714440 125.6416170  12.3553350 137.0878690
 127.5792840  26.4215820 141.1709450 127.5362470  26.0508730 142.0523910
 127.7103850  27.3593390 141.3111270 131.2798870  27.9775410 136.7719170
 131.0390230  28.2449970 135.8849690 132.2201510  28.1481140 136.8270030
 133.4853290  14.4408100 140.5275680 133.4242180  15.0329930 141.2771090
 134.4253670  14.3334060 140.3825940 136.1227850  14.0978160 140.1667970
 136.7368260  14.4157450 139.5049050 136.6677410  13.6126750 140.7863830
 142.5403030  29.9969790 137.5729810 142.0461310  30.3938660 136.8556940
 141.9316320  29.3719000 137.9667090 126.6449110  12.7772420 140.2807030
 127.1932100  12.5960470 139.5173140 126.7104420  11.9866530 140.8163340
 127.4180870  29.3678070 138.2907230 126.8241190  29.2362770 139.0297270
 127.4104710  28.5316210 137.8249330 136.8635890  12.6610300 136.4937260
 135.9895730  12.9945410 136.2910190 136.7546640  12.1883480 137.3189130
 137.7707870  14.8681170 137.8778980 137.4421230  14.0532930 137.4980710
 138.7190170  14.8250980 137.7544670 140.2242480  30.6393210 134.8516550
 139.7645450  31.3909020 134.4774570 139.5954940  29.9199680 134.7931350
 127.0493100  26.7336450 137.2415270 126.3227160  26.1141740 137.1741220
 127.1102250  27.1277060 136.3713350 130.6538200  28.9481450 134.0264680
 131.1703220  28.3368810 133.5012940 131.3035580  29.4510230 134.5175690
 133.3933700  29.8389940 134.8533660 133.6811510  29.5844240 133.9766670
 133.9056920  29.2867300 135.4439230 134.6110710  13.5780140 135.4330170
 133.8282500  14.0525640 135.7126930 134.3173640  12.6734970 135.3243350
 139.1631780  14.2803240 133.4779260 139.6039870  14.2248340 132.6300860
 138.8939370  15.1961250 133.5489440 141.0270350  13.9118480 131.4888080
 140.9658750  12.9679700 131.3419100 141.8062380  14.0198570 132.0341540
 125.3323100  30.0510840 130.4512030 125.1645140  29.4181520 131.1493920
 124.4657610  30.2570240 130.1006220 125.9551120  13.8827620 127.9543890
 126.7130480  13.9956500 127.3807920 125.4928290  14.7196820 127.9087320
 132.4964930  15.9966890 130.9446200 131.6839440  15.6223780 130.6042080
 133.0006570  15.2411970 131.2467390 136.9989910  12.6609340 132.1829270
 137.6019280  13.2329550 132.6577790 136.2582900  13.2248780 131.9603170
 140.1424510  13.0630900 127.4569550 140.3375140  13.9614350 127.7236980
 139.3554380  12.8317980 127.9502500 126.9385800  28.7444070 127.8962170
 126.4133420  29.1252100 127.1924130 126.8630380  29.3694840 128.6171880
 128.3276270  14.4091670 126.4945860 128.8569030  13.6221470 126.3653810
 128.9604590  15.0882860 126.7281390 130.5214110  14.1466810 129.5491250
 129.8916850  13.4454120 129.7161380 129.9819250  14.9070940 129.3324410
 133.4606060  30.7606040 142.2201860 134.3873370  30.5250310 142.2637820
 133.4456490  31.5878040 141.7387890 141.6951120  30.3031610 129.2176110
 141.8703310  29.6169350 128.5737030 140.9972690  30.8278660 128.8252780
 130.6469670  13.4250790 141.9843740 130.3653940  13.9284390 141.2204560
 131.0289370  12.6272540 141.6185870 129.5378770  30.6926450 126.7711420
 130.2697590  30.4085730 126.2235310 129.7972440  30.4539730 127.6610800
 128.6993560  26.8091180 126.7757750 128.0702440  27.2776280 127.3243580
 128.8141390  25.9640400 127.2103940 137.2485130  12.8404370 142.5624210
 137.1350580  13.1598980 143.4575730 138.0654870  13.2416880 142.2661490
 140.0283620  29.9875900 142.0442900 140.8208940  29.4925130 141.8368860
 140.3216770  30.6666040 142.6518510 136.1543280  20.8596840 112.9258950
 136.0737330  19.9451450 112.6550660 135.7407700  21.3563910 112.2198660
 134.2861320  22.6375860 114.8068220 133.5103420  22.1576300 115.0966790
 134.9374250  21.9581510 114.6324380 128.3027150  22.9495670 115.6843980
 127.4712030  22.6944380 116.0840490 128.9108130  23.0206440 116.4201900
 138.3068750  27.0436050 113.5867350 137.8450280  26.2723290 113.9154520
 139.1194300  27.0702120 114.0919800 128.2828410  26.9835760 115.8802000
 128.5856450  26.0933500 115.7012220 129.0272000  27.5405980 115.6524250
 126.7119100  17.9097560 109.4686370 125.8235800  18.2513530 109.3666250
 126.9960290  17.7097880 108.5767200 124.6752110  20.5103210 115.3526070
 125.2468220  19.7425410 115.3529710 124.6753650  20.8091970 114.4432680
 134.5332060  29.3294060 113.2071340 133.9143500  29.7851560 112.6365780
 135.3883840  29.4845520 112.8061040 133.7270310  25.3133050 114.8138380
 133.6578590  24.3722990 114.6527510 134.4890170  25.4034460 115.3860950
 125.9176980  15.9187570 117.1395000 125.7379820  15.0213320 117.4197760
 125.5157060  16.4659440 117.8141950 134.7575480  18.1203430 115.0407310
 135.1340300  17.2475310 114.9280980 134.6594990  18.4562130 114.1497750
 128.8880490  16.4929060 110.5024750 128.9947240  17.3932790 110.8093510
 127.9772850  16.4447030 110.2119400 138.5399600  15.6153870 111.9735650
 139.3609220  15.1250440 112.0161130 138.5733680  16.2051530 112.7267490
 126.5363650  18.4148070 115.7477340 127.2173760  18.6786440 116.3664740
 126.2211700  17.5748940 116.0815350 130.7288220  19.4615430 114.8349930
 131.2366440  19.9596400 115.4754950 131.2601460  18.6850630 114.6589290
 142.8299150  17.6320620 118.5379280 142.1251320  18.0202330 118.0194390
 143.0957070  18.3270910 119.1400210 129.0124320  14.1013990 119.1013350
 129.0142760  14.6186380 118.2959250 128.1828630  13.6244170 119.0783280
 135.3995410  24.2133300 110.6003250 134.7812680  24.6782750 110.0365970
 135.9118660  24.9060780 111.0172760 130.2627170  23.7409170 117.2786850
 129.9296550  24.3678090 117.9207920 130.4393850  24.2671050 116.4988520
 138.7761080  17.5554250 114.7463190 138.0716650  17.8439140 115.3266300
 139.1373240  18.3654360 114.3862750 128.6939650  15.8123950 117.1083800
 129.0356460  16.6566000 116.8137670 127.7555460  15.9607690 117.2249140
 129.4746270  25.7089970 119.0936030 130.0920270  26.3841050 118.8120480
 128.6139390  26.1177950 119.0023530 124.7678610  24.8989830 107.9742880
 124.3906590  25.3876930 107.2427780 125.0251680  25.5715110 108.6049410
 140.3923860  27.1729380 117.0090670 139.7087380  27.8428490 117.0007340
 140.9318150  27.3710030 116.2435530 141.8448000  17.0009040 115.1372400
 140.8972910  17.0348020 115.2687830 142.1697990  17.8147990 115.5221760
 132.3767540  13.3006220 113.4328390 132.6842520  12.7453110 112.7163890
 131.4468240  13.4350680 113.2501380 137.9282600  29.0173510 115.7235850
 137.9409760  28.6135800 114.8558110 137.3757820  29.7920800 115.6197280
 139.2228020  25.7389730 110.8126020 139.1124350  24.7964060 110.9375440
 139.2196270  26.1005370 111.6988780 137.3268040  23.9203350 117.0518460
 137.7436830  23.7063460 116.2171920 138.0507860  24.1776140 117.6227080
 134.7648300  21.3655050 110.1688510 133.8377580  21.2992430 110.3976980
 134.9173120  22.3035180 110.0543750 134.7517380  17.6372050 107.1655670
 133.8121050  17.7986010 107.2508130 135.0700640  18.3557730 106.6191660
 141.2730140  22.3190570 117.1434700 140.4448770  22.3883660 116.6684830
 141.8680620  22.9044880 116.6750530 138.7945590  22.9275350 110.6723760
 138.1758010  22.5894900 110.0250060 138.7770040  22.2835110 111.3802950
 138.2372150  19.1059890 118.0889570 137.8243330  19.9313600 118.3429560
 137.5048100  18.5204930 117.8965930 130.3704940  21.8919790 112.9508240
 129.9661940  21.1797040 112.4554140 130.4568060  21.5473030 113.8396280
 130.8386640  25.5787350 115.1147450 130.5414930  24.9732820 114.4355230
 131.7886460  25.6164660 115.0036810 129.0833560  18.6663000 116.7307280
 129.6348150  18.7758340 115.9560530 129.5977070  19.0400600 117.4462510
 138.9272250  29.1519220 118.7770550 138.4502810  29.9591410 118.5843160
 138.2434040  28.4997550 118.9296760 129.9305070  25.3169040 121.7655250
 129.0333600  25.5409010 122.0128650 129.9557940  25.4403980 120.8166650
 136.9710290  22.1662160 107.6796510 137.4103570  21.3284590 107.5334330
 137.6838710  22.7991560 107.7660650 128.7576290  22.1882360 120.3412620
 128.6184060  23.0605160 120.7100020 127.8757650  21.8455170 120.1960560
 135.0805670  27.1058230 111.6477750 135.5201580  27.8482560 111.2333140
 135.0192560  27.3484800 112.5716710 130.5556640  28.1304060 122.5497770
 130.5272070  28.5347010 121.6826200 130.3921610  27.2014420 122.3869370
 140.5527430  13.4204970 105.9937550 140.2400090  13.5131800 106.8936620
 141.3139900  13.9986000 105.9434980 127.0709570  20.7864770 110.4514890
 126.9507170  21.5126860 109.8396160 126.7610460  20.0167680 109.9742800
 142.5071460  28.9131160 123.8461940 142.9831180  29.3914050 124.5251020
 143.1278620  28.8448650 123.1207440 124.7094940  23.9579910 116.2583530
 124.7875360  24.0928680 115.3139250 125.3236620  23.2495800 116.4511650
 125.9542570  25.6580100 112.6689710 125.5470650  25.7994690 111.8143310
 126.8455580  25.3740260 112.4660920 141.9104710  26.1044010 121.0061950
 142.0367770  25.8655890 120.0879130 141.9526090  25.2728550 121.4784030
 135.7721450  29.8072010 119.5756760 136.2866120  29.7180020 120.3779190
 134.9290530  30.1531710 119.8684670 137.7475850  30.0927350 109.0040760
 137.5876990  29.8030290 109.9022590 137.5822560  29.3167480 108.4685990
 130.2264230  29.8725880 110.7812380 130.0506710  28.9561420 110.5680180
 129.3719970  30.2313170 111.0210180 137.4501980  27.6014910 107.5638760
 136.7567140  27.5992200 106.9041040 138.1924840  27.1774230 107.1332930
 137.0151910  29.2277620 111.6387250 137.4708860  28.4467000 111.9525870
 137.3544430  29.9384440 112.1828430 141.7628720  18.1576470 121.9711690
 141.1472990  18.6656140 121.4427150 141.4425140  17.2574800 121.9137630
 124.7654460  24.9994080 118.7977990 124.9285500  24.5299440 117.9797360
 125.2306910  24.4917640 119.4626830 129.5373230  14.1299840 113.8338560
 129.0941380  14.9109380 113.5023080 130.0958220  14.4529730 114.5409500
 133.8243040  16.9968360 119.4373880 133.3622410  17.2051380 120.2493820
 133.4221150  16.1827710 119.1344550 138.8247550  18.2177310 120.5670540
 137.9741140  17.9183060 120.8879610 138.6649340  18.4619320 119.6554360
 135.9197260  19.7179060 122.6669330 136.2450670  18.8842810 122.3271560
 136.7077590  20.2407580 122.8147660 132.6532050  13.7510540 108.7144390
 132.0286230  13.7470410 109.4397700 132.5662170  12.8841500 108.3180360
 131.5749130  14.6747170 115.6928160 131.8721460  15.5810000 115.6120180
 132.1234690  14.1865950 115.0787730 129.3287450  19.2533410 111.5619810
 129.1028370  19.0370580 112.4666430 128.5479980  19.6861870 111.2165780
 136.5585210  19.2596780 110.1610460 135.9594100  19.9832580 109.9774080
 137.1064820  19.1973560 109.3786910 131.7686660  20.1518990 122.2280080
 131.6730260  19.2113720 122.0780480 132.6118640  20.3734060 121.8328150
 135.1650080  17.8960320 112.1913740 135.5579650  18.2132520 111.3782430
 135.5266930  17.0172200 112.3058260 126.8997200  16.5632660 120.3813860
 126.5060590  17.4107870 120.5886640 126.2115600  15.9259030 120.5722500
 133.4742250  16.6467630 123.4510600 132.7840570  16.4539830 124.0856690
 134.2174550  16.9302270 123.9834900 124.2014250  14.4861120 114.4143940
 123.9127300  15.0563980 115.1268920 124.9460010  14.0065570 114.7775170
 124.3884480  18.4281240 105.6246660 124.3059150  19.3712000 105.7661650
 124.0367540  18.2856150 104.7459010 135.7505220  20.4866070 116.2864520
 135.0186340  20.9952880 116.6354620 135.3529560  19.6696050 115.9853300
 132.1882610  17.1620270 114.6917010 132.1918670  16.7210220 113.8421550
 133.0833730  17.4837600 114.7988830 128.0384990  17.0446760 113.6511220
 127.6985040  17.5221990 114.4078270 127.2762310  16.5911880 113.2912320
 132.2502760  18.1632350 107.6823770 132.3715580  18.1218830 108.6309590
 131.8651270  19.0256500 107.5270500 136.2131130  15.9399750 115.6987460
 136.2303870  16.3908400 116.5429310 135.9646710  15.0405390 115.9120900
 131.2624260  20.4733490 107.0807070 130.6941160  20.0251740 106.4542980
 131.9713260  20.8326270 106.5472220 139.6401880  13.3531930 121.5373840
 139.9647650  12.6221590 122.0631820 139.6758390  13.0345570 120.6354830
 126.3393440  24.3745510 120.9573800 125.9548230  23.7339180 121.5556760
 126.6505630  25.0781630 121.5268530 132.4890580  21.2222050 116.4382420
 132.8560710  20.7480620 117.1843760 132.2995640  22.0963620 116.7790760
 125.3531070  15.9665740 112.5675890 125.0677990  15.6021410 113.4054510
 125.2909930  15.2346200 111.9539030 130.2789950  20.2630690 118.7566630
 129.9747020  21.1422670 118.9816990 131.2336410  20.3230480 118.7924070
 128.8071740  24.4691680 109.3533480 128.0334000  23.9289300 109.1932200
 129.5366370  23.9498290 109.0151240 139.5659720  23.4657040 115.1459870
 140.2858840  23.9612330 114.7555980 139.3641540  22.7874930 114.5013740
 135.0269660  14.8595000 109.2889260 134.2134270  14.3608170 109.2134570
 134.8331610  15.6993250 108.8725610 134.9478520  23.5366100 121.0328870
 134.8815830  22.6161770 120.7786460 134.3183660  23.6341540 121.7473510
 137.7418050  19.2314650 107.5851420 138.6297670  19.5431880 107.4102760
 137.7123140  18.3586900 107.1932000 128.8509140  24.1372060 112.9912290
 129.3687810  23.3340320 112.9369180 128.3993160  24.0751200 113.8329120
 133.7378640  25.4038340 108.2639590 134.0794340  26.1480570 107.7682910
 132.9091350  25.7169460 108.6264420 126.3353680  21.1033430 119.9037990
 125.9768620  21.7687280 120.4911330 126.0408240  20.2716980 120.2750610
 129.5366800  21.5617670 122.7877540 129.2366940  21.7074850 121.8905360
 130.3078040  21.0022960 122.6950930 134.8795250  26.3586670 120.7832670
 134.8939790  25.4267630 120.5651580 134.1720350  26.4446430 121.4222440
 140.0132320  20.5426490 107.0531280 139.9296040  20.9740710 106.2027720
 140.7326510  21.0024840 107.4858100 141.0906460  22.9994010 120.1301250
 140.3654650  23.5922790 119.9330640 141.6181920  22.9917550 119.3314620
 141.0419570  27.3968750 109.7813410 140.3995730  26.7424370 110.0557130
 140.6550230  27.8023840 109.0054080 136.6206050  24.7254180 113.6285100
 136.9729870  24.1282310 112.9686470 135.7368380  24.3998410 113.7993350
 132.7069330  25.4851870 111.0355510 133.3940460  26.0321080 111.4163100
 131.9201750  26.0292600 111.0705120 124.8461730  21.1024690 106.5272590
 125.7156580  21.3849490 106.8108510 124.3552050  21.9160560 106.4121400
 132.0096540  22.4897900 110.6480870 132.4659320  23.3003150 110.8741060
 131.6584750  22.1721040 111.4799360 134.3129150  28.0004240 117.8773170
 134.9571370  28.2063620 118.5546590 134.6758590  27.2392640 117.4244020
 127.9108320  12.8335550 111.1203390 127.7822950  12.8253450 112.0688310
 127.0870340  13.1718640 110.7694400 135.5861230  26.0036590 116.5950620
 136.2283460  25.3029750 116.7082790 136.1110580  26.7835030 116.4147510
 139.4316950  26.2885210 106.3189760 139.2054530  25.5715650 106.9114400
 139.0413150  26.0397650 105.4811510 137.3598850  26.8031490 119.7986680
 137.6955090  27.3898180 120.4764600 136.4399190  26.6724200 120.0284470
 125.2132980  30.3152070 107.0934220 125.5730620  30.9141410 106.4391490
 125.0725320  30.8611960 107.8669250 124.9102250  14.5926670 120.5810090
 124.1960770  14.7923590 121.1862700 125.3297290  13.8166240 120.9524890
 139.0133200  24.2057150 107.9803920 138.7254900  24.6669840 108.7681800
 139.8085370  23.7454920 108.2488140 125.1974840  28.5806930 121.5676620
 125.3065960  27.6401670 121.4272010 124.5455400  28.8461680 120.9190350
 133.1887430  26.8522820 122.9674740 132.8684300  26.1332060 123.5120430
 132.5145790  27.5277890 123.0410800 131.2301600  27.6983270 107.9107890
 131.2211700  28.4312960 107.2952400 130.3099960  27.4514850 108.0034850
 126.8308240  22.9198160 108.6554650 126.2236190  23.6597060 108.6649950
 127.3057590  23.0097520 107.8292850 136.4041030  17.0848980 118.3311540
 136.7721850  16.2644190 118.6591110 135.5439230  17.1450870 118.7467190
 139.7703060  16.0405920 109.1399100 139.1416220  16.1451590 108.4257330
 139.2754980  16.2602700 109.9292980 134.2161200  27.7611510 106.5733080
 134.3173180  27.5575500 105.6435060 133.3162940  27.5069790 106.7780860
 131.7387090  18.3191870 110.5556980 131.0303240  18.7878210 110.9970590
 132.0231570  17.6613880 111.1902170 133.3643020  19.7388570 118.5549510
 133.8628270  20.2134390 119.2201360 133.5065970  18.8152090 118.7619540
 135.7702520  15.0442530 111.9952770 135.6470300  15.0628660 111.0462280
 136.7187080  15.0921470 112.1151170 132.8579310  30.2797830 111.2680750
 133.1120810  30.2419220 110.3460120 131.9091790  30.1531160 111.2609000
 129.9422110  16.6276950 107.9307690 130.7912640  17.0647100 107.8647880
 129.5753380  16.9397210 108.7579750 140.5709880  15.9556530 119.3977900
 140.0683480  16.6961930 119.7371710 141.3866540  16.3440530 119.0814690
 138.8631890  21.1989710 112.8439260 137.9222030  21.2139940 113.0186950
 139.1775960  20.4125670 113.2899560 128.8413530  22.8809310 106.4043220
 129.6076800  22.7690670 106.9668650 128.9188220  22.1847280 105.7519990
 127.5360290  20.3134380 107.0876110 127.6163880  19.3661890 107.1993510
 128.4280040  20.6441260 107.1936770 140.8657470  28.3698560 114.5193520
 140.9904890  29.1929730 114.9917330 141.7323030  28.1589290 114.1717670
 128.3375000  30.4629770 114.1910650 129.0737480  29.9145230 114.4619220
 128.7215920  31.3285780 114.0516640 125.2220480  26.5303340 110.0652160
 124.2960260  26.7724480 110.0557570 125.6876910  27.3577600 109.9436910
 127.3433280  29.6475840 123.3796230 128.1446010  29.9687890 123.7931630
 126.8285100  29.2871420 124.1016140 131.4477310  29.6360080 106.0136220
 132.2405920  29.9248910 105.5618010 130.9281660  29.2052250 105.3348700
 136.1797910  25.7555710 123.3271640 135.5736070  25.7787310 122.5867390
 135.8752020  25.0238750 123.8638890 137.6098280  29.4836000 121.9381050
 138.5620030  29.3994020 121.8881290 137.4626500  30.1477710 122.6114840
 140.5007480  28.8630210 107.4372960 140.2148990  28.4495350 106.6227140
 140.3027030  29.7917920 107.3173480 125.0631090  22.1349300 122.3232280
 125.5670110  21.5556580 122.8948510 124.3238510  22.4189530 122.8608650
 131.9654710  24.8563490 105.8778570 131.8605350  24.2415840 106.6039950
 131.7978930  24.3329380 105.0941580 132.1169030  23.5420290 121.8567800
 131.3514700  24.1105290 121.7722470 132.2984990  23.2496500 120.9636030
 135.2057440  23.9183520 106.4820560 134.6567540  24.3652820 107.1263300
 135.8276700  23.4132770 107.0058230 139.2592380  25.2725620 122.4142820
 140.0001850  25.6101380 121.9110280 138.4965060  25.4417680 121.8612590
 127.0954170  20.2778890 123.2182350 127.1359510  19.9792760 124.1267580
 127.9499670  20.6786500 123.0589870 130.8732560  22.8774440 108.3785860
 131.2948980  22.7114310 109.2217250 130.9983400  22.0674670 107.8841000
 129.0359980  18.8570990 121.1856840 128.5056440  18.3661940 120.5580180
 129.7048050  19.2855190 120.6514770 133.3860200  21.9012050 105.6262960
 133.9065860  21.1861070 105.2604110 134.0328600  22.5397920 105.9263470
 137.9338040  23.3240450 120.9498030 138.3479060  23.4785530 121.7988450
 136.9989040  23.4495670 121.1123810 138.4060210  20.6636610 122.9537180
 138.9880980  19.9088930 122.8657660 138.5821980  21.1944050 122.1768660
 129.5232280  15.8233360 121.2654130 129.4289150  15.2054110 120.5405000
 128.9429670  16.5499650 121.0384040 132.2893720  14.3806600 118.2981520
 131.8411020  14.4030860 117.4527070 131.6558920  13.9825620 118.8951820
 132.6953270  23.2760930 118.9193960 133.1141380  24.1193660 118.7470200
 131.7761900  23.4132970 118.6900740 135.0317170  21.0077110 120.3031800
 135.1513380  20.4118250 121.0426640 135.8911170  21.0446800 119.8833100
 137.3705070  21.5614300 118.8794310 136.8440290  22.0856920 118.2759450
 137.7136410  22.1941690 119.5104040 129.7691460  18.9507670 105.3244020
 129.5680520  18.0875030 105.6857360 129.5983510  18.8641030 104.3865620
 130.5460690  29.5813940 120.0351690 130.0081780  30.3060000 119.7160390
 130.7994650  29.1044280 119.2449030 131.7985940  17.5498460 121.5607620
 132.3885630  17.2414310 122.2485440 130.9806180  17.0778210 121.7167520
 136.6179370  17.1664270 121.7940640 135.9294890  16.5045810 121.7290630
 137.3385390  16.7202540 122.2389100 137.2479770  13.7615900 107.8530900
 137.5282060  12.9183800 108.2090320 136.4745500  13.9939010 108.3669650
 128.5674260  16.0508290 105.3121900 128.8700160  16.0575720 104.4041050
 129.3068850  15.7006150 105.8089560 133.4022900  30.8165150 120.2938340
 133.3281600  31.7200290 120.6010710 132.5001740  30.4977050 120.2660410
 131.7859190  14.9942910 106.2978100 131.4381190  14.3166900 105.7180550
 131.9871960  14.5332420 107.1121490 133.9508230  29.9823660 107.9164700
 134.8459020  30.3208630 107.9383460 133.9825860  29.2603070 107.2888980
 127.5904390  25.3550710 106.1451700 128.0279260  25.8980380 106.8009280
 128.0752120  24.5297660 106.1548040 124.8050190  28.1439740 113.5971960
 125.1353200  27.2760800 113.3650600 125.2341190  28.3498260 114.4276920
 129.4012110  26.4748750 111.2573930 129.1007650  26.3513720 112.1577840
 129.2949600  25.6157340 110.8489660 125.2940400  29.0110330 116.3353590
 124.8571390  29.1911130 117.1677740 125.8618080  29.7684950 116.1935310
 140.9302580  28.5127330 120.6230900 140.3304570  28.5719890 119.8794820
 141.0596480  27.5732310 120.7527750 142.1704030  26.2545150 105.9600610
 141.3396990  26.3221800 106.4307840 142.3475860  27.1449270 105.6567470
 141.6260490  22.9992630 108.4634810 142.3879400  23.5689280 108.5694500
 141.6414860  22.4319830 109.2343120 125.1264830  21.5230560 112.6942470
 124.4713670  21.2542200 112.0502170 125.9642780  21.4135040 112.2444450
 142.6320460  23.8542730 113.3076740 143.0029290  23.0710050 112.9012710
 143.2722390  24.5431830 113.1294040 139.6154220  25.2379310 118.7207060
 138.8014060  25.6676470 118.9832850 140.0228420  25.8497720 118.1076110
 141.6779660  23.2927000 105.6207330 141.9528500  24.2005880 105.4926550
 141.4890400  23.2289530 106.5569320 138.0755270  16.3171850 106.9160960
 138.4940150  16.1302830 106.0757620 137.7691330  15.4650900 107.2263890
 141.5745000  21.2295990 110.6136760 141.1988600  20.4623920 110.1818050
 140.8448120  21.6118690 111.1011690 126.1640760  21.9083130 117.2345810
 126.5313800  21.8210530 118.1141830 125.5951580  21.1449680 117.1352670
 140.9644620  20.3767510 120.2476280 140.7330710  20.1480260 119.3474230
 141.2249170  21.2967060 120.2021170 125.7156760  18.8192220 121.1404230
 124.8212810  18.7858980 121.4797940 126.2554310  19.0179010 121.9055480
 139.4032690  15.6023940 123.0255980 140.2802870  15.6107340 123.4089980
 139.4153530  14.8654780 122.4148330 124.3402910  18.7329490 108.6367800
 123.4366990  18.9959690 108.4619460 124.8243530  19.0040660 107.8567760
 140.8495960  19.4553480 113.9144000 141.3733440  18.9616130 113.2834170
 141.4355380  19.5903840 114.6591570 141.0285680  19.5393350 117.4363550
 140.0788390  19.5056890 117.5508540 141.2098690  20.4493460 117.2013320
 126.8830120  17.7895030 106.5462180 127.5921820  17.3678250 106.0609460
 126.1670060  17.8570260 105.9145530 126.5304280  13.8434360 105.5864830
 127.2532410  14.3843300 105.9046050 126.8028800  13.5697780 104.7106370
 140.3395930  18.7126830 109.8536410 140.8355050  18.4797700 110.6385290
 140.1412000  17.8738670 109.4374050 126.2196470  13.0940550 115.4887450
 126.8672660  12.5437930 115.0482610 126.6398310  13.3483700 116.3103260
 141.7683090  17.3487780 112.3874090 141.6582370  17.1943820 113.3256360
 142.5290680  16.8208720 112.1449500 140.1148810  13.2881910 118.8457090
 140.7521030  13.9016050 119.2116280 140.2623700  13.3242570 117.9006320
 142.6573360  15.1795700 105.6280230 143.5822670  15.0476880 105.4198520
 142.6349150  15.2588520 106.5816680 142.7311850  15.9506360 108.2536940
 141.9363350  15.8851480 108.7829850 142.9355130  16.8857000 108.2422290
 139.6730270  29.9897910 112.2475330 140.2689340  29.6682480 111.5709750
 139.9308420  29.5169730 113.0388600 125.9728470  13.2496220 118.2312770
 125.6243290  13.7060040 118.9970950 125.6416170  12.3553350 118.3135200
 127.5792840  26.4215820 122.3965960 127.5362470  26.0508730 123.2780420
 127.7103850  27.3593390 122.5367780 131.2798870  27.9775410 117.9975680
 131.0390230  28.2449970 117.1106200 132.2201510  28.1481140 118.0526540
 133.4853290  14.4408100 121.7532190 133.4242180  15.0329930 122.5027600
 134.4253670  14.3334060 121.6082450 136.1227850  14.0978160 121.3924480
 136.7368260  14.4157450 120.7305560 136.6677410  13.6126750 122.0120340
 142.5403030  29.9969790 118.7986320 142.0461310  30.3938660 118.0813450
 141.9316320  29.3719000 119.1923600 126.6449110  12.7772420 121.5063540
 127.1932100  12.5960470 120.7429650 126.7104420  11.9866530 122.0419850
 127.4180870  29.3678070 119.5163740 126.8241190  29.2362770 120.2553780
 127.4104710  28.5316210 119.0505840 136.8635890  12.6610300 117.7193770
 135.9895730  12.9945410 117.5166700 136.7546640  12.1883480 118.5445640
 137.7707870  14.8681170 119.1035490 137.4421230  14.0532930 118.7237220
 138.7190170  14.8250980 118.9801180 140.2242480  30.6393210 116.0773060
 139.7645450  31.3909020 115.7031080 139.5954940  29.9199680 116.0187860
 127.0493100  26.7336450 118.4671780 126.3227160  26.1141740 118.3997730
 127.1102250  27.1277060 117.5969860 130.6538200  28.9481450 115.2521190
 131.1703220  28.3368810 114.7269450 131.3035580  29.4510230 115.7432200
 133.3933700  29.8389940 116.0790170 133.6811510  29.5844240 115.2023180
 133.9056920  29.2867300 116.6695740 134.6110710  13.5780140 116.6586680
 133.8282500  14.0525640 116.9383440 134.3173640  12.6734970 116.5499860
 139.1631780  14.2803240 114.7035770 139.6039870  14.2248340 113.8557370
 138.8939370  15.1961250 114.7745950 141.0270350  13.9118480 112.7144590
 140.9658750  12.9679700 112.5675610 141.8062380  14.0198570 113.2598050
 125.3323100  30.0510840 111.6768540 125.1645140  29.4181520 112.3750430
 124.4657610  30.2570240 111.3262730 125.9551120  13.8827620 109.1800400
 126.7130480  13.9956500 108.6064430 125.4928290  14.7196820 109.1343830
 132.4964930  15.9966890 112.1702710 131.6839440  15.6223780 111.8298590
 133.0006570  15.2411970 112.4723900 136.9989910  12.6609340 113.4085780
 137.6019280  13.2329550 113.8834300 136.2582900  13.2248780 113.1859680
 140.1424510  13.0630900 108.6826060 140.3375140  13.9614350 108.9493490
 139.3554380  12.8317980 109.1759010 126.9385800  28.7444070 109.1218680
 126.4133420  29.1252100 108.4180640 126.8630380  29.3694840 109.8428390
 128.3276270  14.4091670 107.7202370 128.8569030  13.6221470 107.5910320
 128.9604590  15.0882860 107.9537900 130.5214110  14.1466810 110.7747760
 129.8916850  13.4454120 110.9417890 129.9819250  14.9070940 110.5580920
 133.4606060  30.7606040 123.4458370 134.3873370  30.5250310 123.4894330
 133.4456490  31.5878040 122.9644400 141.6951120  30.3031610 110.4432620
 141.8703310  29.6169350 109.7993540 140.9972690  30.8278660 110.0509290
 130.6469670  13.4250790 123.2100250 130.3653940  13.9284390 122.4461070
 131.0289370  12.6272540 122.8442380 129.5378770  30.6926450 107.9967930
 130.2697590  30.4085730 107.4491820 129.7972440  30.4539730 108.8867310
 128.6993560  26.8091180 108.0014260 128.0702440  27.2776280 108.5500090
 128.8141390  25.9640400 108.4360450 137.2485130  12.8404370 123.7880720
 137.1350580  13.1598980 124.6832240 138.0654870  13.2416880 123.4918000
 140.0283620  29.9875900 123.2699410 140.8208940  29.4925130 123.0625370
 140.3216770  30.6666040 123.8775020 136.1543280  20.8596840  94.1515460
 136.0737330  19.9451450  93.8807170 135.7407700  21.3563910  93.4455170
 134.2861320  22.6375860  96.0324730 133.5103420  22.1576300  96.3223300
 134.9374250  21.9581510  95.8580890 128.3027150  22.9495670  96.9100490
 127.4712030  22.6944380  97.3097000 128.9108130  23.0206440  97.6458410
 138.3068750  27.0436050  94.8123860 137.8450280  26.2723290  95.1411030
 139.1194300  27.0702120  95.3176310 128.2828410  26.9835760  97.1058510
 128.5856450  26.0933500  96.9268730 129.0272000  27.5405980  96.8780760
 126.7119100  17.9097560  90.6942880 125.8235800  18.2513530  90.5922760
 126.9960290  17.7097880  89.8023710 124.6752110  20.5103210  96.5782580
 125.2468220  19.7425410  96.5786220 124.6753650  20.8091970  95.6689190
 134.5332060  29.3294060  94.4327850 133.9143500  29.7851560  93.8622290
 135.3883840  29.4845520  94.0317550 133.7270310  25.3133050  96.0394890
 133.6578590  24.3722990  95.8784020 134.4890170  25.4034460  96.6117460
 125.9176980  15.9187570  98.3651510 125.7379820  15.0213320  98.6454270
 125.5157060  16.4659440  99.0398460 134.7575480  18.1203430  96.2663820
 135.1340300  17.2475310  96.1537490 134.6594990  18.4562130  95.3754260
 128.8880490  16.4929060  91.7281260 128.9947240  17.3932790  92.0350020
 127.9772850  16.4447030  91.4375910 138.5399600  15.6153870  93.1992160
 139.3609220  15.1250440  93.2417640 138.5733680  16.2051530  93.9524000
 126.5363650  18.4148070  96.9733850 127.2173760  18.6786440  97.5921250
 126.2211700  17.5748940  97.3071860 130.7288220  19.4615430  96.0606440
 131.2366440  19.9596400  96.7011460 131.2601460  18.6850630  95.8845800
 142.8299150  17.6320620  99.7635790 142.1251320  18.0202330  99.2450900
 143.0957070  18.3270910 100.3656720 129.0124320  14.1013990 100.3269860
 129.0142760  14.6186380  99.5215760 128.1828630  13.6244170 100.3039790
 135.3995410  24.2133300  91.8259760 134.7812680  24.6782750  91.2622480
 135.9118660  24.9060780  92.2429270 130.2627170  23.7409170  98.5043360
 129.9296550  24.3678090  99.1464430 130.4393850  24.2671050  97.7245030
 138.7761080  17.5554250  95.9719700 138.0716650  17.8439140  96.5522810
 139.1373240  18.3654360  95.6119260 128.6939650  15.8123950  98.3340310
 129.0356460  16.6566000  98.0394180 127.7555460  15.9607690  98.4505650
 129.4746270  25.7089970 100.3192540 130.0920270  26.3841050 100.0376990
 128.6139390  26.1177950 100.2280040 124.7678610  24.8989830  89.1999390
 124.3906590  25.3876930  88.4684290 125.0251680  25.5715110  89.8305920
 140.3923860  27.1729380  98.2347180 139.7087380  27.8428490  98.2263850
 140.9318150  27.3710030  97.4692040 141.8448000  17.0009040  96.3628910
 140.8972910  17.0348020  96.4944340 142.1697990  17.8147990  96.7478270
 132.3767540  13.3006220  94.6584900 132.6842520  12.7453110  93.9420400
 131.4468240  13.4350680  94.4757890 137.9282600  29.0173510  96.9492360
 137.9409760  28.6135800  96.0814620 137.3757820  29.7920800  96.8453790
 139.2228020  25.7389730  92.0382530 139.1124350  24.7964060  92.1631950
 139.2196270  26.1005370  92.9245290 137.3268040  23.9203350  98.2774970
 137.7436830  23.7063460  97.4428430 138.0507860  24.1776140  98.8483590
 134.7648300  21.3655050  91.3945020 133.8377580  21.2992430  91.6233490
 134.9173120  22.3035180  91.2800260 134.7517380  17.6372050  88.3912180
 133.8121050  17.7986010  88.4764640 135.0700640  18.3557730  87.8448170
 141.2730140  22.3190570  98.3691210 140.4448770  22.3883660  97.8941340
 141.8680620  22.9044880  97.9007040 138.7945590  22.9275350  91.8980270
 138.1758010  22.5894900  91.2506570 138.7770040  22.2835110  92.6059460
 138.2372150  19.1059890  99.3146080 137.8243330  19.9313600  99.5686070
 137.5048100  18.5204930  99.1222440 130.3704940  21.8919790  94.1764750
 129.9661940  21.1797040  93.6810650 130.4568060  21.5473030  95.0652790
 130.8386640  25.5787350  96.3403960 130.5414930  24.9732820  95.6611740
 131.7886460  25.6164660  96.2293320 129.0833560  18.6663000  97.9563790
 129.6348150  18.7758340  97.1817040 129.5977070  19.0400600  98.6719020
 138.9272250  29.1519220 100.0027060 138.4502810  29.9591410  99.8099670
 138.2434040  28.4997550 100.1553270 129.9305070  25.3169040 102.9911760
 129.0333600  25.5409010 103.2385160 129.9557940  25.4403980 102.0423160
 136.9710290  22.1662160  88.9053020 137.4103570  21.3284590  88.7590840
 137.6838710  22.7991560  88.9917160 128.7576290  22.1882360 101.5669130
 128.6184060  23.0605160 101.9356530 127.8757650  21.8455170 101.4217070
 135.0805670  27.1058230  92.8734260 135.5201580  27.8482560  92.4589650
 135.0192560  27.3484800  93.7973220 130.5556640  28.1304060 103.7754280
 130.5272070  28.5347010 102.9082710 130.3921610  27.2014420 103.6125880
 140.5527430  13.4204970  87.2194060 140.2400090  13.5131800  88.1193130
 141.3139900  13.9986000  87.1691490 127.0709570  20.7864770  91.6771400
 126.9507170  21.5126860  91.0652670 126.7610460  20.0167680  91.1999310
 142.5071460  28.9131160 105.0718450 142.9831180  29.3914050 105.7507530
 143.1278620  28.8448650 104.3463950 124.7094940  23.9579910  97.4840040
 124.7875360  24.0928680  96.5395760 125.3236620  23.2495800  97.6768160
 125.9542570  25.6580100  93.8946220 125.5470650  25.7994690  93.0399820
 126.8455580  25.3740260  93.6917430 141.9104710  26.1044010 102.2318460
 142.0367770  25.8655890 101.3135640 141.9526090  25.2728550 102.7040540
 135.7721450  29.8072010 100.8013270 136.2866120  29.7180020 101.6035700
 134.9290530  30.1531710 101.0941180 137.7475850  30.0927350  90.2297270
 137.5876990  29.8030290  91.1279100 137.5822560  29.3167480  89.6942500
 130.2264230  29.8725880  92.0068890 130.0506710  28.9561420  91.7936690
 129.3719970  30.2313170  92.2466690 137.4501980  27.6014910  88.7895270
 136.7567140  27.5992200  88.1297550 138.1924840  27.1774230  88.3589440
 137.0151910  29.2277620  92.8643760 137.4708860  28.4467000  93.1782380
 137.3544430  29.9384440  93.4084940 141.7628720  18.1576470 103.1968200
 141.1472990  18.6656140 102.6683660 141.4425140  17.2574800 103.1394140
 124.7654460  24.9994080 100.0234500 124.9285500  24.5299440  99.2053870
 125.2306910  24.4917640 100.6883340 129.5373230  14.1299840  95.0595070
 129.0941380  14.9109380  94.7279590 130.0958220  14.4529730  95.7666010
 133.8243040  16.9968360 100.6630390 133.3622410  17.2051380 101.4750330
 133.4221150  16.1827710 100.3601060 138.8247550  18.2177310 101.7927050
 137.9741140  17.9183060 102.1136120 138.6649340  18.4619320 100.8810870
 135.9197260  19.7179060 103.8925840 136.2450670  18.8842810 103.5528070
 136.7077590  20.2407580 104.0404170 132.6532050  13.7510540  89.9400900
 132.0286230  13.7470410  90.6654210 132.5662170  12.8841500  89.5436870
 131.5749130  14.6747170  96.9184670 131.8721460  15.5810000  96.8376690
 132.1234690  14.1865950  96.3044240 129.3287450  19.2533410  92.7876320
 129.1028370  19.0370580  93.6922940 128.5479980  19.6861870  92.4422290
 136.5585210  19.2596780  91.3866970 135.9594100  19.9832580  91.2030590
 137.1064820  19.1973560  90.6043420 131.7686660  20.1518990 103.4536590
 131.6730260  19.2113720 103.3036990 132.6118640  20.3734060 103.0584660
 135.1650080  17.8960320  93.4170250 135.5579650  18.2132520  92.6038940
 135.5266930  17.0172200  93.5314770 126.8997200  16.5632660 101.6070370
 126.5060590  17.4107870 101.8143150 126.2115600  15.9259030 101.7979010
 133.4742250  16.6467630 104.6767110 132.7840570  16.4539830 105.3113200
 134.2174550  16.9302270 105.2091410 124.2014250  14.4861120  95.6400450
 123.9127300  15.0563980  96.3525430 124.9460010  14.0065570  96.0031680
 124.3884480  18.4281240  86.8503170 124.3059150  19.3712000  86.9918160
 124.0367540  18.2856150  85.9715520 135.7505220  20.4866070  97.5121030
 135.0186340  20.9952880  97.8611130 135.3529560  19.6696050  97.2109810
 132.1882610  17.1620270  95.9173520 132.1918670  16.7210220  95.0678060
 133.0833730  17.4837600  96.0245340 128.0384990  17.0446760  94.8767730
 127.6985040  17.5221990  95.6334780 127.2762310  16.5911880  94.5168830
 132.2502760  18.1632350  88.9080280 132.3715580  18.1218830  89.8566100
 131.8651270  19.0256500  88.7527010 136.2131130  15.9399750  96.9243970
 136.2303870  16.3908400  97.7685820 135.9646710  15.0405390  97.1377410
 131.2624260  20.4733490  88.3063580 130.6941160  20.0251740  87.6799490
 131.9713260  20.8326270  87.7728730 139.6401880  13.3531930 102.7630350
 139.9647650  12.6221590 103.2888330 139.6758390  13.0345570 101.8611340
 126.3393440  24.3745510 102.1830310 125.9548230  23.7339180 102.7813270
 126.6505630  25.0781630 102.7525040 132.4890580  21.2222050  97.6638930
 132.8560710  20.7480620  98.4100270 132.2995640  22.0963620  98.0047270
 125.3531070  15.9665740  93.7932400 125.0677990  15.6021410  94.6311020
 125.2909930  15.2346200  93.1795540 130.2789950  20.2630690  99.9823140
 129.9747020  21.1422670 100.2073500 131.2336410  20.3230480 100.0180580
 128.8071740  24.4691680  90.5789990 128.0334000  23.9289300  90.4188710
 129.5366370  23.9498290  90.2407750 139.5659720  23.4657040  96.3716380
 140.2858840  23.9612330  95.9812490 139.3641540  22.7874930  95.7270250
 135.0269660  14.8595000  90.5145770 134.2134270  14.3608170  90.4391080
 134.8331610  15.6993250  90.0982120 134.9478520  23.5366100 102.2585380
 134.8815830  22.6161770 102.0042970 134.3183660  23.6341540 102.9730020
 137.7418050  19.2314650  88.8107930 138.6297670  19.5431880  88.6359270
 137.7123140  18.3586900  88.4188510 128.8509140  24.1372060  94.2168800
 129.3687810  23.3340320  94.1625690 128.3993160  24.0751200  95.0585630
 133.7378640  25.4038340  89.4896100 134.0794340  26.1480570  88.9939420
 132.9091350  25.7169460  89.8520930 126.3353680  21.1033430 101.1294500
 125.9768620  21.7687280 101.7167840 126.0408240  20.2716980 101.5007120
 129.5366800  21.5617670 104.0134050 129.2366940  21.7074850 103.1161870
 130.3078040  21.0022960 103.9207440 134.8795250  26.3586670 102.0089180
 134.8939790  25.4267630 101.7908090 134.1720350  26.4446430 102.6478950
 140.0132320  20.5426490  88.2787790 139.9296040  20.9740710  87.4284230
 140.7326510  21.0024840  88.7114610 141.0906460  22.9994010 101.3557760
 140.3654650  23.5922790 101.1587150 141.6181920  22.9917550 100.5571130
 141.0419570  27.3968750  91.0069920 140.3995730  26.7424370  91.2813640
 140.6550230  27.8023840  90.2310590 136.6206050  24.7254180  94.8541610
 136.9729870  24.1282310  94.1942980 135.7368380  24.3998410  95.0249860
 132.7069330  25.4851870  92.2612020 133.3940460  26.0321080  92.6419610
 131.9201750  26.0292600  92.2961630 124.8461730  21.1024690  87.7529100
 125.7156580  21.3849490  88.0365020 124.3552050  21.9160560  87.6377910
 132.0096540  22.4897900  91.8737380 132.4659320  23.3003150  92.0997570
 131.6584750  22.1721040  92.7055870 134.3129150  28.0004240  99.1029680
 134.9571370  28.2063620  99.7803100 134.6758590  27.2392640  98.6500530
 127.9108320  12.8335550  92.3459900 127.7822950  12.8253450  93.2944820
 127.0870340  13.1718640  91.9950910 135.5861230  26.0036590  97.8207130
 136.2283460  25.3029750  97.9339300 136.1110580  26.7835030  97.6404020
 139.4316950  26.2885210  87.5446270 139.2054530  25.5715650  88.1370910
 139.0413150  26.0397650  86.7068020 137.3598850  26.8031490 101.0243190
 137.6955090  27.3898180 101.7021110 136.4399190  26.6724200 101.2540980
 125.2132980  30.3152070  88.3190730 125.5730620  30.9141410  87.6648000
 125.0725320  30.8611960  89.0925760 124.9102250  14.5926670 101.8066600
 124.1960770  14.7923590 102.4119210 125.3297290  13.8166240 102.1781400
 139.0133200  24.2057150  89.2060430 138.7254900  24.6669840  89.9938310
 139.8085370  23.7454920  89.4744650 125.1974840  28.5806930 102.7933130
 125.3065960  27.6401670 102.6528520 124.5455400  28.8461680 102.1446860
 133.1887430  26.8522820 104.1931250 132.8684300  26.1332060 104.7376940
 132.5145790  27.5277890 104.2667310 131.2301600  27.6983270  89.1364400
 131.2211700  28.4312960  88.5208910 130.3099960  27.4514850  89.2291360
 126.8308240  22.9198160  89.8811160 126.2236190  23.6597060  89.8906460
 127.3057590  23.0097520  89.0549360 136.4041030  17.0848980  99.5568050
 136.7721850  16.2644190  99.8847620 135.5439230  17.1450870  99.9723700
 139.7703060  16.0405920  90.3655610 139.1416220  16.1451590  89.6513840
 139.2754980  16.2602700  91.1549490 134.2161200  27.7611510  87.7989590
 134.3173180  27.5575500  86.8691570 133.3162940  27.5069790  88.0037370
 131.7387090  18.3191870  91.7813490 131.0303240  18.7878210  92.2227100
 132.0231570  17.6613880  92.4158680 133.3643020  19.7388570  99.7806020
 133.8628270  20.2134390 100.4457870 133.5065970  18.8152090  99.9876050
 135.7702520  15.0442530  93.2209280 135.6470300  15.0628660  92.2718790
 136.7187080  15.0921470  93.3407680 132.8579310  30.2797830  92.4937260
 133.1120810  30.2419220  91.5716630 131.9091790  30.1531160  92.4865510
 129.9422110  16.6276950  89.1564200 130.7912640  17.0647100  89.0904390
 129.5753380  16.9397210  89.9836260 140.5709880  15.9556530 100.6234410
 140.0683480  16.6961930 100.9628220 141.3866540  16.3440530 100.3071200
 138.8631890  21.1989710  94.0695770 137.9222030  21.2139940  94.2443460
 139.1775960  20.4125670  94.5156070 128.8413530  22.8809310  87.6299730
 129.6076800  22.7690670  88.1925160 128.9188220  22.1847280  86.9776500
 127.5360290  20.3134380  88.3132620 127.6163880  19.3661890  88.4250020
 128.4280040  20.6441260  88.4193280 140.8657470  28.3698560  95.7450030
 140.9904890  29.1929730  96.2173840 141.7323030  28.1589290  95.3974180
 128.3375000  30.4629770  95.4167160 129.0737480  29.9145230  95.6875730
 128.7215920  31.3285780  95.2773150 125.2220480  26.5303340  91.2908670
 124.2960260  26.7724480  91.2814080 125.6876910  27.3577600  91.1693420
 127.3433280  29.6475840 104.6052740 128.1446010  29.9687890 105.0188140
 126.8285100  29.2871420 105.3272650 131.4477310  29.6360080  87.2392730
 132.2405920  29.9248910  86.7874520 130.9281660  29.2052250  86.5605210
 136.1797910  25.7555710 104.5528150 135.5736070  25.7787310 103.8123900
 135.8752020  25.0238750 105.0895400 137.6098280  29.4836000 103.1637560
 138.5620030  29.3994020 103.1137800 137.4626500  30.1477710 103.8371350
 140.5007480  28.8630210  88.6629470 140.2148990  28.4495350  87.8483650
 140.3027030  29.7917920  88.5429990 125.0631090  22.1349300 103.5488790
 125.5670110  21.5556580 104.1205020 124.3238510  22.4189530 104.0865160
 131.9654710  24.8563490  87.1035080 131.8605350  24.2415840  87.8296460
 131.7978930  24.3329380  86.3198090 132.1169030  23.5420290 103.0824310
 131.3514700  24.1105290 102.9978980 132.2984990  23.2496500 102.1892540
 135.2057440  23.9183520  87.7077070 134.6567540  24.3652820  88.3519810
 135.8276700  23.4132770  88.2314740 139.2592380  25.2725620 103.6399330
 140.0001850  25.6101380 103.1366790 138.4965060  25.4417680 103.0869100
 127.0954170  20.2778890 104.4438860 127.1359510  19.9792760 105.3524090
 127.9499670  20.6786500 104.2846380 130.8732560  22.8774440  89.6042370
 131.2948980  22.7114310  90.4473760 130.9983400  22.0674670  89.1097510
 129.0359980  18.8570990 102.4113350 128.5056440  18.3661940 101.7836690
 129.7048050  19.2855190 101.8771280 133.3860200  21.9012050  86.8519470
 133.9065860  21.1861070  86.4860620 134.0328600  22.5397920  87.1519980
 137.9338040  23.3240450 102.1754540 138.3479060  23.4785530 103.0244960
 136.9989040  23.4495670 102.3380320 138.4060210  20.6636610 104.1793690
 138.9880980  19.9088930 104.0914170 138.5821980  21.1944050 103.4025170
 129.5232280  15.8233360 102.4910640 129.4289150  15.2054110 101.7661510
 128.9429670  16.5499650 102.2640550 132.2893720  14.3806600  99.5238030
 131.8411020  14.4030860  98.6783580 131.6558920  13.9825620 100.1208330
 132.6953270  23.2760930 100.1450470 133.1141380  24.1193660  99.9726710
 131.7761900  23.4132970  99.9157250 135.0317170  21.0077110 101.5288310
 135.1513380  20.4118250 102.2683150 135.8911170  21.0446800 101.1089610
 137.3705070  21.5614300 100.1050820 136.8440290  22.0856920  99.5015960
 137.7136410  22.1941690 100.7360550 129.7691460  18.9507670  86.5500530
 129.5680520  18.0875030  86.9113870 129.5983510  18.8641030  85.6122130
 130.5460690  29.5813940 101.2608200 130.0081780  30.3060000 100.9416900
 130.7994650  29.1044280 100.4705540 131.7985940  17.5498460 102.7864130
 132.3885630  17.2414310 103.4741950 130.9806180  17.0778210 102.9424030
 136.6179370  17.1664270 103.0197150 135.9294890  16.5045810 102.9547140
 137.3385390  16.7202540 103.4645610 137.2479770  13.7615900  89.0787410
 137.5282060  12.9183800  89.4346830 136.4745500  13.9939010  89.5926160
 128.5674260  16.0508290  86.5378410 128.8700160  16.0575720  85.6297560
 129.3068850  15.7006150  87.0346070 133.4022900  30.8165150 101.5194850
 133.3281600  31.7200290 101.8267220 132.5001740  30.4977050 101.4916920
 131.7859190  14.9942910  87.5234610 131.4381190  14.3166900  86.9437060
 131.9871960  14.5332420  88.3378000 133.9508230  29.9823660  89.1421210
 134.8459020  30.3208630  89.1639970 133.9825860  29.2603070  88.5145490
 127.5904390  25.3550710  87.3708210 128.0279260  25.8980380  88.0265790
 128.0752120  24.5297660  87.3804550 124.8050190  28.1439740  94.8228470
 125.1353200  27.2760800  94.5907110 125.2341190  28.3498260  95.6533430
 129.4012110  26.4748750  92.4830440 129.1007650  26.3513720  93.3834350
 129.2949600  25.6157340  92.0746170 125.2940400  29.0110330  97.5610100
 124.8571390  29.1911130  98.3934250 125.8618080  29.7684950  97.4191820
 140.9302580  28.5127330 101.8487410 140.3304570  28.5719890 101.1051330
 141.0596480  27.5732310 101.9784260 142.1704030  26.2545150  87.1857120
 141.3396990  26.3221800  87.6564350 142.3475860  27.1449270  86.8823980
 141.6260490  22.9992630  89.6891320 142.3879400  23.5689280  89.7951010
 141.6414860  22.4319830  90.4599630 125.1264830  21.5230560  93.9198980
 124.4713670  21.2542200  93.2758680 125.9642780  21.4135040  93.4700960
 142.6320460  23.8542730  94.5333250 143.0029290  23.0710050  94.1269220
 143.2722390  24.5431830  94.3550550 139.6154220  25.2379310  99.9463570
 138.8014060  25.6676470 100.2089360 140.0228420  25.8497720  99.3332620
 141.6779660  23.2927000  86.8463840 141.9528500  24.2005880  86.7183060
 141.4890400  23.2289530  87.7825830 138.0755270  16.3171850  88.1417470
 138.4940150  16.1302830  87.3014130 137.7691330  15.4650900  88.4520400
 141.5745000  21.2295990  91.8393270 141.1988600  20.4623920  91.4074560
 140.8448120  21.6118690  92.3268200 126.1640760  21.9083130  98.4602320
 126.5313800  21.8210530  99.3398340 125.5951580  21.1449680  98.3609180
 140.9644620  20.3767510 101.4732790 140.7330710  20.1480260 100.5730740
 141.2249170  21.2967060 101.4277680 125.7156760  18.8192220 102.3660740
 124.8212810  18.7858980 102.7054450 126.2554310  19.0179010 103.1311990
 139.4032690  15.6023940 104.2512490 140.2802870  15.6107340 104.6346490
 139.4153530  14.8654780 103.6404840 124.3402910  18.7329490  89.8624310
 123.4366990  18.9959690  89.6875970 124.8243530  19.0040660  89.0824270
 140.8495960  19.4553480  95.1400510 141.3733440  18.9616130  94.5090680
 141.4355380  19.5903840  95.8848080 141.0285680  19.5393350  98.6620060
 140.0788390  19.5056890  98.7765050 141.2098690  20.4493460  98.4269830
 126.8830120  17.7895030  87.7718690 127.5921820  17.3678250  87.2865970
 126.1670060  17.8570260  87.1402040 126.5304280  13.8434360  86.8121340
 127.2532410  14.3843300  87.1302560 126.8028800  13.5697780  85.9362880
 140.3395930  18.7126830  91.0792920 140.8355050  18.4797700  91.8641800
 140.1412000  17.8738670  90.6630560 126.2196470  13.0940550  96.7143960
 126.8672660  12.5437930  96.2739120 126.6398310  13.3483700  97.5359770
 141.7683090  17.3487780  93.6130600 141.6582370  17.1943820  94.5512870
 142.5290680  16.8208720  93.3706010 140.1148810  13.2881910 100.0713600
 140.7521030  13.9016050 100.4372790 140.2623700  13.3242570  99.1262830
 142.6573360  15.1795700  86.8536740 143.5822670  15.0476880  86.6455030
 142.6349150  15.2588520  87.8073190 142.7311850  15.9506360  89.4793450
 141.9363350  15.8851480  90.0086360 142.9355130  16.8857000  89.4678800
 139.6730270  29.9897910  93.4731840 140.2689340  29.6682480  92.7966260
 139.9308420  29.5169730  94.2645110 125.9728470  13.2496220  99.4569280
 125.6243290  13.7060040 100.2227460 125.6416170  12.3553350  99.5391710
 127.5792840  26.4215820 103.6222470 127.5362470  26.0508730 104.5036930
 127.7103850  27.3593390 103.7624290 131.2798870  27.9775410  99.2232190
 131.0390230  28.2449970  98.3362710 132.2201510  28.1481140  99.2783050
 133.4853290  14.4408100 102.9788700 133.4242180  15.0329930 103.7284110
 134.4253670  14.3334060 102.8338960 136.1227850  14.0978160 102.6180990
 136.7368260  14.4157450 101.9562070 136.6677410  13.6126750 103.2376850
 142.5403030  29.9969790 100.0242830 142.0461310  30.3938660  99.3069960
 141.9316320  29.3719000 100.4180110 126.6449110  12.7772420 102.7320050
 127.1932100  12.5960470 101.9686160 126.7104420  11.9866530 103.2676360
 127.4180870  29.3678070 100.7420250 126.8241190  29.2362770 101.4810290
 127.4104710  28.5316210 100.2762350 136.8635890  12.6610300  98.9450280
 135.9895730  12.9945410  98.7423210 136.7546640  12.1883480  99.7702150
 137.7707870  14.8681170 100.3292000 137.4421230  14.0532930  99.9493730
 138.7190170  14.8250980 100.2057690 140.2242480  30.6393210  97.3029570
 139.7645450  31.3909020  96.9287590 139.5954940  29.9199680  97.2444370
 127.0493100  26.7336450  99.6928290 126.3227160  26.1141740  99.6254240
 127.1102250  27.1277060  98.8226370 130.6538200  28.9481450  96.4777700
 131.1703220  28.3368810  95.9525960 131.3035580  29.4510230  96.9688710
 133.3933700  29.8389940  97.3046680 133.6811510  29.5844240  96.4279690
 133.9056920  29.2867300  97.8952250 134.6110710  13.5780140  97.8843190
 133.8282500  14.0525640  98.1639950 134.3173640  12.6734970  97.7756370
 139.1631780  14.2803240  95.9292280 139.6039870  14.2248340  95.0813880
 138.8939370  15.1961250  96.0002460 141.0270350  13.9118480  93.9401100
 140.9658750  12.9679700  93.7932120 141.8062380  14.0198570  94.4854560
 125.3323100  30.0510840  92.9025050 125.1645140  29.4181520  93.6006940
 124.4657610  30.2570240  92.5519240 125.9551120  13.8827620  90.4056910
 126.7130480  13.9956500  89.8320940 125.4928290  14.7196820  90.3600340
 132.4964930  15.9966890  93.3959220 131.6839440  15.6223780  93.0555100
 133.0006570  15.2411970  93.6980410 136.9989910  12.6609340  94.6342290
 137.6019280  13.2329550  95.1090810 136.2582900  13.2248780  94.4116190
 140.1424510  13.0630900  89.9082570 140.3375140  13.9614350  90.1750000
 139.3554380  12.8317980  90.4015520 126.9385800  28.7444070  90.3475190
 126.4133420  29.1252100  89.6437150 126.8630380  29.3694840  91.0684900
 128.3276270  14.4091670  88.9458880 128.8569030  13.6221470  88.8166830
 128.9604590  15.0882860  89.1794410 130.5214110  14.1466810  92.0004270
 129.8916850  13.4454120  92.1674400 129.9819250  14.9070940  91.7837430
 133.4606060  30.7606040 104.6714880 134.3873370  30.5250310 104.7150840
 133.4456490  31.5878040 104.1900910 141.6951120  30.3031610  91.6689130
 141.8703310  29.6169350  91.0250050 140.9972690  30.8278660  91.2765800
 130.6469670  13.4250790 104.4356760 130.3653940  13.9284390 103.6717580
 131.0289370  12.6272540 104.0698890 129.5378770  30.6926450  89.2224440
 130.2697590  30.4085730  88.6748330 129.7972440  30.4539730  90.1123820
 128.6993560  26.8091180  89.2270770 128.0702440  27.2776280  89.7756600
 128.8141390  25.9640400  89.6616960 137.2485130  12.8404370 105.0137230
 137.1350580  13.1598980 105.9088750 138.0654870  13.2416880 104.7174510
 140.0283620  29.9875900 104.4955920 140.8208940  29.4925130 104.2881880
 140.3216770  30.6666040 105.1031530 136.1543280  20.8596840  75.3771970
 136.0737330  19.9451450  75.1063680 135.7407700  21.3563910  74.6711680
 134.2861320  22.6375860  77.2581240 133.5103420  22.1576300  77.5479810
 134.9374250  21.9581510  77.0837400 128.3027150  22.9495670  78.1357000
 127.4712030  22.6944380  78.5353510 128.9108130  23.0206440  78.8714920
 138.3068750  27.0436050  76.0380370 137.8450280  26.2723290  76.3667540
 139.1194300  27.0702120  76.5432820 128.2828410  26.9835760  78.3315020
 128.5856450  26.0933500  78.1525240 129.0272000  27.5405980  78.1037270
 126.7119100  17.9097560  71.9199390 125.8235800  18.2513530  71.8179270
 126.9960290  17.7097880  71.0280220 124.6752110  20.5103210  77.8039090
 125.2468220  19.7425410  77.8042730 124.6753650  20.8091970  76.8945700
 134.5332060  29.3294060  75.6584360 133.9143500  29.7851560  75.0878800
 135.3883840  29.4845520  75.2574060 133.7270310  25.3133050  77.2651400
 133.6578590  24.3722990  77.1040530 134.4890170  25.4034460  77.8373970
 125.9176980  15.9187570  79.5908020 125.7379820  15.0213320  79.8710780
 125.5157060  16.4659440  80.2654970 134.7575480  18.1203430  77.4920330
 135.1340300  17.2475310  77.3794000 134.6594990  18.4562130  76.6010770
 128.8880490  16.4929060  72.9537770 128.9947240  17.3932790  73.2606530
 127.9772850  16.4447030  72.6632420 138.5399600  15.6153870  74.4248670
 139.3609220  15.1250440  74.4674150 138.5733680  16.2051530  75.1780510
 126.5363650  18.4148070  78.1990360 127.2173760  18.6786440  78.8177760
 126.2211700  17.5748940  78.5328370 130.7288220  19.4615430  77.2862950
 131.2366440  19.9596400  77.9267970 131.2601460  18.6850630  77.1102310
 142.8299150  17.6320620  80.9892300 142.1251320  18.0202330  80.4707410
 143.0957070  18.3270910  81.5913230 129.0124320  14.1013990  81.5526370
 129.0142760  14.6186380  80.7472270 128.1828630  13.6244170  81.5296300
 135.3995410  24.2133300  73.0516270 134.7812680  24.6782750  72.4878990
 135.9118660  24.9060780  73.4685780 130.2627170  23.7409170  79.7299870
 129.9296550  24.3678090  80.3720940 130.4393850  24.2671050  78.9501540
 138.7761080  17.5554250  77.1976210 138.0716650  17.8439140  77.7779320
 139.1373240  18.3654360  76.8375770 128.6939650  15.8123950  79.5596820
 129.0356460  16.6566000  79.2650690 127.7555460  15.9607690  79.6762160
 129.4746270  25.7089970  81.5449050 130.0920270  26.3841050  81.2633500
 128.6139390  26.1177950  81.4536550 124.7678610  24.8989830  70.4255900
 124.3906590  25.3876930  69.6940800 125.0251680  25.5715110  71.0562430
 140.3923860  27.1729380  79.4603690 139.7087380  27.8428490  79.4520360
 140.9318150  27.3710030  78.6948550 141.8448000  17.0009040  77.5885420
 140.8972910  17.0348020  77.7200850 142.1697990  17.8147990  77.9734780
 132.3767540  13.3006220  75.8841410 132.6842520  12.7453110  75.1676910
 131.4468240  13.4350680  75.7014400 137.9282600  29.0173510  78.1748870
 137.9409760  28.6135800  77.3071130 137.3757820  29.7920800  78.0710300
 139.2228020  25.7389730  73.2639040 139.1124350  24.7964060  73.3888460
 139.2196270  26.1005370  74.1501800 137.3268040  23.9203350  79.5031480
 137.7436830  23.7063460  78.6684940 138.0507860  24.1776140  80.0740100
 134.7648300  21.3655050  72.6201530 133.8377580  21.2992430  72.8490000
 134.9173120  22.3035180  72.5056770 134.7517380  17.6372050  69.6168690
 133.8121050  17.7986010  69.7021150 135.0700640  18.3557730  69.0704680
 141.2730140  22.3190570  79.5947720 140.4448770  22.3883660  79.1197850
 141.8680620  22.9044880  79.1263550 138.7945590  22.9275350  73.1236780
 138.1758010  22.5894900  72.4763080 138.7770040  22.2835110  73.8315970
 138.2372150  19.1059890  80.5402590 137.8243330  19.9313600  80.7942580
 137.5048100  18.5204930  80.3478950 130.3704940  21.8919790  75.4021260
 129.9661940  21.1797040  74.9067160 130.4568060  21.5473030  76.2909300
 130.8386640  25.5787350  77.5660470 130.5414930  24.9732820  76.8868250
 131.7886460  25.6164660  77.4549830 129.0833560  18.6663000  79.1820300
 129.6348150  18.7758340  78.4073550 129.5977070  19.0400600  79.8975530
 138.9272250  29.1519220  81.2283570 138.4502810  29.9591410  81.0356180
 138.2434040  28.4997550  81.3809780 129.9305070  25.3169040  84.2168270
 129.0333600  25.5409010  84.4641670 129.9557940  25.4403980  83.2679670
 136.9710290  22.1662160  70.1309530 137.4103570  21.3284590  69.9847350
 137.6838710  22.7991560  70.2173670 128.7576290  22.1882360  82.7925640
 128.6184060  23.0605160  83.1613040 127.8757650  21.8455170  82.6473580
 135.0805670  27.1058230  74.0990770 135.5201580  27.8482560  73.6846160
 135.0192560  27.3484800  75.0229730 130.5556640  28.1304060  85.0010790
 130.5272070  28.5347010  84.1339220 130.3921610  27.2014420  84.8382390
 140.5527430  13.4204970  68.4450570 140.2400090  13.5131800  69.3449640
 141.3139900  13.9986000  68.3948000 127.0709570  20.7864770  72.9027910
 126.9507170  21.5126860  72.2909180 126.7610460  20.0167680  72.4255820
 142.5071460  28.9131160  86.2974960 142.9831180  29.3914050  86.9764040
 143.1278620  28.8448650  85.5720460 124.7094940  23.9579910  78.7096550
 124.7875360  24.0928680  77.7652270 125.3236620  23.2495800  78.9024670
 125.9542570  25.6580100  75.1202730 125.5470650  25.7994690  74.2656330
 126.8455580  25.3740260  74.9173940 141.9104710  26.1044010  83.4574970
 142.0367770  25.8655890  82.5392150 141.9526090  25.2728550  83.9297050
 135.7721450  29.8072010  82.0269780 136.2866120  29.7180020  82.8292210
 134.9290530  30.1531710  82.3197690 137.7475850  30.0927350  71.4553780
 137.5876990  29.8030290  72.3535610 137.5822560  29.3167480  70.9199010
 130.2264230  29.8725880  73.2325400 130.0506710  28.9561420  73.0193200
 129.3719970  30.2313170  73.4723200 137.4501980  27.6014910  70.0151780
 136.7567140  27.5992200  69.3554060 138.1924840  27.1774230  69.5845950
 137.0151910  29.2277620  74.0900270 137.4708860  28.4467000  74.4038890
 137.3544430  29.9384440  74.6341450 141.7628720  18.1576470  84.4224710
 141.1472990  18.6656140  83.8940170 141.4425140  17.2574800  84.3650650
 124.7654460  24.9994080  81.2491010 124.9285500  24.5299440  80.4310380
 125.2306910  24.4917640  81.9139850 129.5373230  14.1299840  76.2851580
 129.0941380  14.9109380  75.9536100 130.0958220  14.4529730  76.9922520
 133.8243040  16.9968360  81.8886900 133.3622410  17.2051380  82.7006840
 133.4221150  16.1827710  81.5857570 138.8247550  18.2177310  83.0183560
 137.9741140  17.9183060  83.3392630 138.6649340  18.4619320  82.1067380
 135.9197260  19.7179060  85.1182350 136.2450670  18.8842810  84.7784580
 136.7077590  20.2407580  85.2660680 132.6532050  13.7510540  71.1657410
 132.0286230  13.7470410  71.8910720 132.5662170  12.8841500  70.7693380
 131.5749130  14.6747170  78.1441180 131.8721460  15.5810000  78.0633200
 132.1234690  14.1865950  77.5300750 129.3287450  19.2533410  74.0132830
 129.1028370  19.0370580  74.9179450 128.5479980  19.6861870  73.6678800
 136.5585210  19.2596780  72.6123480 135.9594100  19.9832580  72.4287100
 137.1064820  19.1973560  71.8299930 131.7686660  20.1518990  84.6793100
 131.6730260  19.2113720  84.5293500 132.6118640  20.3734060  84.2841170
 135.1650080  17.8960320  74.6426760 135.5579650  18.2132520  73.8295450
 135.5266930  17.0172200  74.7571280 126.8997200  16.5632660  82.8326880
 126.5060590  17.4107870  83.0399660 126.2115600  15.9259030  83.0235520
 133.4742250  16.6467630  85.9023620 132.7840570  16.4539830  86.5369710
 134.2174550  16.9302270  86.4347920 124.2014250  14.4861120  76.8656960
 123.9127300  15.0563980  77.5781940 124.9460010  14.0065570  77.2288190
 124.3884480  18.4281240  68.0759680 124.3059150  19.3712000  68.2174670
 124.0367540  18.2856150  67.1972030 135.7505220  20.4866070  78.7377540
 135.0186340  20.9952880  79.0867640 135.3529560  19.6696050  78.4366320
 132.1882610  17.1620270  77.1430030 132.1918670  16.7210220  76.2934570
 133.0833730  17.4837600  77.2501850 128.0384990  17.0446760  76.1024240
 127.6985040  17.5221990  76.8591290 127.2762310  16.5911880  75.7425340
 132.2502760  18.1632350  70.1336790 132.3715580  18.1218830  71.0822610
 131.8651270  19.0256500  69.9783520 136.2131130  15.9399750  78.1500480
 136.2303870  16.3908400  78.9942330 135.9646710  15.0405390  78.3633920
 131.2624260  20.4733490  69.5320090 130.6941160  20.0251740  68.9056000
 131.9713260  20.8326270  68.9985240 139.6401880  13.3531930  83.9886860
 139.9647650  12.6221590  84.5144840 139.6758390  13.0345570  83.0867850
 126.3393440  24.3745510  83.4086820 125.9548230  23.7339180  84.0069780
 126.6505630  25.0781630  83.9781550 132.4890580  21.2222050  78.8895440
 132.8560710  20.7480620  79.6356780 132.2995640  22.0963620  79.2303780
 125.3531070  15.9665740  75.0188910 125.0677990  15.6021410  75.8567530
 125.2909930  15.2346200  74.4052050 130.2789950  20.2630690  81.2079650
 129.9747020  21.1422670  81.4330010 131.2336410  20.3230480  81.2437090
 128.8071740  24.4691680  71.8046500 128.0334000  23.9289300  71.6445220
 129.5366370  23.9498290  71.4664260 139.5659720  23.4657040  77.5972890
 140.2858840  23.9612330  77.2069000 139.3641540  22.7874930  76.9526760
 135.0269660  14.8595000  71.7402280 134.2134270  14.3608170  71.6647590
 134.8331610  15.6993250  71.3238630 134.9478520  23.5366100  83.4841890
 134.8815830  22.6161770  83.2299480 134.3183660  23.6341540  84.1986530
 137.7418050  19.2314650  70.0364440 138.6297670  19.5431880  69.8615780
 137.7123140  18.3586900  69.6445020 128.8509140  24.1372060  75.4425310
 129.3687810  23.3340320  75.3882200 128.3993160  24.0751200  76.2842140
 133.7378640  25.4038340  70.7152610 134.0794340  26.1480570  70.2195930
 132.9091350  25.7169460  71.0777440 126.3353680  21.1033430  82.3551010
 125.9768620  21.7687280  82.9424350 126.0408240  20.2716980  82.7263630
 129.5366800  21.5617670  85.2390560 129.2366940  21.7074850  84.3418380
 130.3078040  21.0022960  85.1463950 134.8795250  26.3586670  83.2345690
 134.8939790  25.4267630  83.0164600 134.1720350  26.4446430  83.8735460
 140.0132320  20.5426490  69.5044300 139.9296040  20.9740710  68.6540740
 140.7326510  21.0024840  69.9371120 141.0906460  22.9994010  82.5814270
 140.3654650  23.5922790  82.3843660 141.6181920  22.9917550  81.7827640
 141.0419570  27.3968750  72.2326430 140.3995730  26.7424370  72.5070150
 140.6550230  27.8023840  71.4567100 136.6206050  24.7254180  76.0798120
 136.9729870  24.1282310  75.4199490 135.7368380  24.3998410  76.2506370
 132.7069330  25.4851870  73.4868530 133.3940460  26.0321080  73.8676120
 131.9201750  26.0292600  73.5218140 124.8461730  21.1024690  68.9785610
 125.7156580  21.3849490  69.2621530 124.3552050  21.9160560  68.8634420
 132.0096540  22.4897900  73.0993890 132.4659320  23.3003150  73.3254080
 131.6584750  22.1721040  73.9312380 134.3129150  28.0004240  80.3286190
 134.9571370  28.2063620  81.0059610 134.6758590  27.2392640  79.8757040
 127.9108320  12.8335550  73.5716410 127.7822950  12.8253450  74.5201330
 127.0870340  13.1718640  73.2207420 135.5861230  26.0036590  79.0463640
 136.2283460  25.3029750  79.1595810 136.1110580  26.7835030  78.8660530
 139.4316950  26.2885210  68.7702780 139.2054530  25.5715650  69.3627420
 139.0413150  26.0397650  67.9324530 137.3598850  26.8031490  82.2499700
 137.6955090  27.3898180  82.9277620 136.4399190  26.6724200  82.4797490
 125.2132980  30.3152070  69.5447240 125.5730620  30.9141410  68.8904510
 125.0725320  30.8611960  70.3182270 124.9102250  14.5926670  83.0323110
 124.1960770  14.7923590  83.6375720 125.3297290  13.8166240  83.4037910
 139.0133200  24.2057150  70.4316940 138.7254900  24.6669840  71.2194820
 139.8085370  23.7454920  70.7001160 125.1974840  28.5806930  84.0189640
 125.3065960  27.6401670  83.8785030 124.5455400  28.8461680  83.3703370
 133.1887430  26.8522820  85.4187760 132.8684300  26.1332060  85.9633450
 132.5145790  27.5277890  85.4923820 131.2301600  27.6983270  70.3620910
 131.2211700  28.4312960  69.7465420 130.3099960  27.4514850  70.4547870
 126.8308240  22.9198160  71.1067670 126.2236190  23.6597060  71.1162970
 127.3057590  23.0097520  70.2805870 136.4041030  17.0848980  80.7824560
 136.7721850  16.2644190  81.1104130 135.5439230  17.1450870  81.1980210
 139.7703060  16.0405920  71.5912120 139.1416220  16.1451590  70.8770350
 139.2754980  16.2602700  72.3806000 134.2161200  27.7611510  69.0246100
 134.3173180  27.5575500  68.0948080 133.3162940  27.5069790  69.2293880
 131.7387090  18.3191870  73.0070000 131.0303240  18.7878210  73.4483610
 132.0231570  17.6613880  73.6415190 133.3643020  19.7388570  81.0062530
 133.8628270  20.2134390  81.6714380 133.5065970  18.8152090  81.2132560
 135.7702520  15.0442530  74.4465790 135.6470300  15.0628660  73.4975300
 136.7187080  15.0921470  74.5664190 132.8579310  30.2797830  73.7193770
 133.1120810  30.2419220  72.7973140 131.9091790  30.1531160  73.7122020
 129.9422110  16.6276950  70.3820710 130.7912640  17.0647100  70.3160900
 129.5753380  16.9397210  71.2092770 140.5709880  15.9556530  81.8490920
 140.0683480  16.6961930  82.1884730 141.3866540  16.3440530  81.5327710
 138.8631890  21.1989710  75.2952280 137.9222030  21.2139940  75.4699970
 139.1775960  20.4125670  75.7412580 128.8413530  22.8809310  68.8556240
 129.6076800  22.7690670  69.4181670 128.9188220  22.1847280  68.2033010
 127.5360290  20.3134380  69.5389130 127.6163880  19.3661890  69.6506530
 128.4280040  20.6441260  69.6449790 140.8657470  28.3698560  76.9706540
 140.9904890  29.1929730  77.4430350 141.7323030  28.1589290  76.6230690
 128.3375000  30.4629770  76.6423670 129.0737480  29.9145230  76.9132240
 128.7215920  31.3285780  76.5029660 125.2220480  26.5303340  72.5165180
 124.2960260  26.7724480  72.5070590 125.6876910  27.3577600  72.3949930
 127.3433280  29.6475840  85.8309250 128.1446010  29.9687890  86.2444650
 126.8285100  29.2871420  86.5529160 131.4477310  29.6360080  68.4649240
 132.2405920  29.9248910  68.0131030 130.9281660  29.2052250  67.7861720
 136.1797910  25.7555710  85.7784660 135.5736070  25.7787310  85.0380410
 135.8752020  25.0238750  86.3151910 137.6098280  29.4836000  84.3894070
 138.5620030  29.3994020  84.3394310 137.4626500  30.1477710  85.0627860
 140.5007480  28.8630210  69.8885980 140.2148990  28.4495350  69.0740160
 140.3027030  29.7917920  69.7686500 125.0631090  22.1349300  84.7745300
 125.5670110  21.5556580  85.3461530 124.3238510  22.4189530  85.3121670
 131.9654710  24.8563490  68.3291590 131.8605350  24.2415840  69.0552970
 131.7978930  24.3329380  67.5454600 132.1169030  23.5420290  84.3080820
 131.3514700  24.1105290  84.2235490 132.2984990  23.2496500  83.4149050
 135.2057440  23.9183520  68.9333580 134.6567540  24.3652820  69.5776320
 135.8276700  23.4132770  69.4571250 139.2592380  25.2725620  84.8655840
 140.0001850  25.6101380  84.3623300 138.4965060  25.4417680  84.3125610
 127.0954170  20.2778890  85.6695370 127.1359510  19.9792760  86.5780600
 127.9499670  20.6786500  85.5102890 130.8732560  22.8774440  70.8298880
 131.2948980  22.7114310  71.6730270 130.9983400  22.0674670  70.3354020
 129.0359980  18.8570990  83.6369860 128.5056440  18.3661940  83.0093200
 129.7048050  19.2855190  83.1027790 133.3860200  21.9012050  68.0775980
 133.9065860  21.1861070  67.7117130 134.0328600  22.5397920  68.3776490
 137.9338040  23.3240450  83.4011050 138.3479060  23.4785530  84.2501470
 136.9989040  23.4495670  83.5636830 138.4060210  20.6636610  85.4050200
 138.9880980  19.9088930  85.3170680 138.5821980  21.1944050  84.6281680
 129.5232280  15.8233360  83.7167150 129.4289150  15.2054110  82.9918020
 128.9429670  16.5499650  83.4897060 132.2893720  14.3806600  80.7494540
 131.8411020  14.4030860  79.9040090 131.6558920  13.9825620  81.3464840
 132.6953270  23.2760930  81.3706980 133.1141380  24.1193660  81.1983220
 131.7761900  23.4132970  81.1413760 135.0317170  21.0077110  82.7544820
 135.1513380  20.4118250  83.4939660 135.8911170  21.0446800  82.3346120
 137.3705070  21.5614300  81.3307330 136.8440290  22.0856920  80.7272470
 137.7136410  22.1941690  81.9617060 129.7691460  18.9507670  67.7757040
 129.5680520  18.0875030  68.1370380 129.5983510  18.8641030  66.8378640
 130.5460690  29.5813940  82.4864710 130.0081780  30.3060000  82.1673410
 130.7994650  29.1044280  81.6962050 131.7985940  17.5498460  84.0120640
 132.3885630  17.2414310  84.6998460 130.9806180  17.0778210  84.1680540
 136.6179370  17.1664270  84.2453660 135.9294890  16.5045810  84.1803650
 137.3385390  16.7202540  84.6902120 137.2479770  13.7615900  70.3043920
 137.5282060  12.9183800  70.6603340 136.4745500  13.9939010  70.8182670
 128.5674260  16.0508290  67.7634920 128.8700160  16.0575720  66.8554070
 129.3068850  15.7006150  68.2602580 133.4022900  30.8165150  82.7451360
 133.3281600  31.7200290  83.0523730 132.5001740  30.4977050  82.7173430
 131.7859190  14.9942910  68.7491120 131.4381190  14.3166900  68.1693570
 131.9871960  14.5332420  69.5634510 133.9508230  29.9823660  70.3677720
 134.8459020  30.3208630  70.3896480 133.9825860  29.2603070  69.7402000
 127.5904390  25.3550710  68.5964720 128.0279260  25.8980380  69.2522300
 128.0752120  24.5297660  68.6061060 124.8050190  28.1439740  76.0484980
 125.1353200  27.2760800  75.8163620 125.2341190  28.3498260  76.8789940
 129.4012110  26.4748750  73.7086950 129.1007650  26.3513720  74.6090860
 129.2949600  25.6157340  73.3002680 125.2940400  29.0110330  78.7866610
 124.8571390  29.1911130  79.6190760 125.8618080  29.7684950  78.6448330
 140.9302580  28.5127330  83.0743920 140.3304570  28.5719890  82.3307840
 141.0596480  27.5732310  83.2040770 142.1704030  26.2545150  68.4113630
 141.3396990  26.3221800  68.8820860 142.3475860  27.1449270  68.1080490
 141.6260490  22.9992630  70.9147830 142.3879400  23.5689280  71.0207520
 141.6414860  22.4319830  71.6856140 125.1264830  21.5230560  75.1455490
 124.4713670  21.2542200  74.5015190 125.9642780  21.4135040  74.6957470
 142.6320460  23.8542730  75.7589760 143.0029290  23.0710050  75.3525730
 143.2722390  24.5431830  75.5807060 139.6154220  25.2379310  81.1720080
 138.8014060  25.6676470  81.4345870 140.0228420  25.8497720  80.5589130
 141.6779660  23.2927000  68.0720350 141.9528500  24.2005880  67.9439570
 141.4890400  23.2289530  69.0082340 138.0755270  16.3171850  69.3673980
 138.4940150  16.1302830  68.5270640 137.7691330  15.4650900  69.6776910
 141.5745000  21.2295990  73.0649780 141.1988600  20.4623920  72.6331070
 140.8448120  21.6118690  73.5524710 126.1640760  21.9083130  79.6858830
 126.5313800  21.8210530  80.5654850 125.5951580  21.1449680  79.5865690
 140.9644620  20.3767510  82.6989300 140.7330710  20.1480260  81.7987250
 141.2249170  21.2967060  82.6534190 125.7156760  18.8192220  83.5917250
 124.8212810  18.7858980  83.9310960 126.2554310  19.0179010  84.3568500
 139.4032690  15.6023940  85.4769000 140.2802870  15.6107340  85.8603000
 139.4153530  14.8654780  84.8661350 124.3402910  18.7329490  71.0880820
 123.4366990  18.9959690  70.9132480 124.8243530  19.0040660  70.3080780
 140.8495960  19.4553480  76.3657020 141.3733440  18.9616130  75.7347190
 141.4355380  19.5903840  77.1104590 141.0285680  19.5393350  79.8876570
 140.0788390  19.5056890  80.0021560 141.2098690  20.4493460  79.6526340
 126.8830120  17.7895030  68.9975200 127.5921820  17.3678250  68.5122480
 126.1670060  17.8570260  68.3658550 126.5304280  13.8434360  68.0377850
 127.2532410  14.3843300  68.3559070 126.8028800  13.5697780  67.1619390
 140.3395930  18.7126830  72.3049430 140.8355050  18.4797700  73.0898310
 140.1412000  17.8738670  71.8887070 126.2196470  13.0940550  77.9400470
 126.8672660  12.5437930  77.4995630 126.6398310  13.3483700  78.7616280
 141.7683090  17.3487780  74.8387110 141.6582370  17.1943820  75.7769380
 142.5290680  16.8208720  74.5962520 140.1148810  13.2881910  81.2970110
 140.7521030  13.9016050  81.6629300 140.2623700  13.3242570  80.3519340
 142.6573360  15.1795700  68.0793250 143.5822670  15.0476880  67.8711540
 142.6349150  15.2588520  69.0329700 142.7311850  15.9506360  70.7049960
 141.9363350  15.8851480  71.2342870 142.9355130  16.8857000  70.6935310
 139.6730270  29.9897910  74.6988350 140.2689340  29.6682480  74.0222770
 139.9308420  29.5169730  75.4901620 125.9728470  13.2496220  80.6825790
 125.6243290  13.7060040  81.4483970 125.6416170  12.3553350  80.7648220
 127.5792840  26.4215820  84.8478980 127.5362470  26.0508730  85.7293440
 127.7103850  27.3593390  84.9880800 131.2798870  27.9775410  80.4488700
 131.0390230  28.2449970  79.5619220 132.2201510  28.1481140  80.5039560
 133.4853290  14.4408100  84.2045210 133.4242180  15.0329930  84.9540620
 134.4253670  14.3334060  84.0595470 136.1227850  14.0978160  83.8437500
 136.7368260  14.4157450  83.1818580 136.6677410  13.6126750  84.4633360
 142.5403030  29.9969790  81.2499340 142.0461310  30.3938660  80.5326470
 141.9316320  29.3719000  81.6436620 126.6449110  12.7772420  83.9576560
 127.1932100  12.5960470  83.1942670 126.7104420  11.9866530  84.4932870
 127.4180870  29.3678070  81.9676760 126.8241190  29.2362770  82.7066800
 127.4104710  28.5316210  81.5018860 136.8635890  12.6610300  80.1706790
 135.9895730  12.9945410  79.9679720 136.7546640  12.1883480  80.9958660
 137.7707870  14.8681170  81.5548510 137.4421230  14.0532930  81.1750240
 138.7190170  14.8250980  81.4314200 140.2242480  30.6393210  78.5286080
 139.7645450  31.3909020  78.1544100 139.5954940  29.9199680  78.4700880
 127.0493100  26.7336450  80.9184800 126.3227160  26.1141740  80.8510750
 127.1102250  27.1277060  80.0482880 130.6538200  28.9481450  77.7034210
 131.1703220  28.3368810  77.1782470 131.3035580  29.4510230  78.1945220
 133.3933700  29.8389940  78.5303190 133.6811510  29.5844240  77.6536200
 133.9056920  29.2867300  79.1208760 134.6110710  13.5780140  79.1099700
 133.8282500  14.0525640  79.3896460 134.3173640  12.6734970  79.0012880
 139.1631780  14.2803240  77.1548790 139.6039870  14.2248340  76.3070390
 138.8939370  15.1961250  77.2258970 141.0270350  13.9118480  75.1657610
 140.9658750  12.9679700  75.0188630 141.8062380  14.0198570  75.7111070
 125.3323100  30.0510840  74.1281560 125.1645140  29.4181520  74.8263450
 124.4657610  30.2570240  73.7775750 125.9551120  13.8827620  71.6313420
 126.7130480  13.9956500  71.0577450 125.4928290  14.7196820  71.5856850
 132.4964930  15.9966890  74.6215730 131.6839440  15.6223780  74.2811610
 133.0006570  15.2411970  74.9236920 136.9989910  12.6609340  75.8598800
 137.6019280  13.2329550  76.3347320 136.2582900  13.2248780  75.6372700
 140.1424510  13.0630900  71.1339080 140.3375140  13.9614350  71.4006510
 139.3554380  12.8317980  71.6272030 126.9385800  28.7444070  71.5731700
 126.4133420  29.1252100  70.8693660 126.8630380  29.3694840  72.2941410
 128.3276270  14.4091670  70.1715390 128.8569030  13.6221470  70.0423340
 128.9604590  15.0882860  70.4050920 130.5214110  14.1466810  73.2260780
 129.8916850  13.4454120  73.3930910 129.9819250  14.9070940  73.0093940
 133.4606060  30.7606040  85.8971390 134.3873370  30.5250310  85.9407350
 133.4456490  31.5878040  85.4157420 141.6951120  30.3031610  72.8945640
 141.8703310  29.6169350  72.2506560 140.9972690  30.8278660  72.5022310
 130.6469670  13.4250790  85.6613270 130.3653940  13.9284390  84.8974090
 131.0289370  12.6272540  85.2955400 129.5378770  30.6926450  70.4480950
 130.2697590  30.4085730  69.9004840 129.7972440  30.4539730  71.3380330
 128.6993560  26.8091180  70.4527280 128.0702440  27.2776280  71.0013110
 128.8141390  25.9640400  70.8873470 137.2485130  12.8404370  86.2393740
 137.1350580  13.1598980  87.1345260 138.0654870  13.2416880  85.9431020
 140.0283620  29.9875900  85.7212430 140.8208940  29.4925130  85.5138390
 140.3216770  30.6666040  86.3288040 136.1543280  20.8596840  56.6028480
 136.0737330  19.9451450  56.3320190 135.7407700  21.3563910  55.8968190
 134.2861320  22.6375860  58.4837750 133.5103420  22.1576300  58.7736320
 134.9374250  21.9581510  58.3093910 128.3027150  22.9495670  59.3613510
 127.4712030  22.6944380  59.7610020 128.9108130  23.0206440  60.0971430
 138.3068750  27.0436050  57.2636880 137.8450280  26.2723290  57.5924050
 139.1194300  27.0702120  57.7689330 128.2828410  26.9835760  59.5571530
 128.5856450  26.0933500  59.3781750 129.0272000  27.5405980  59.3293780
 126.7119100  17.9097560  53.1455900 125.8235800  18.2513530  53.0435780
 126.9960290  17.7097880  52.2536730 124.6752110  20.5103210  59.0295600
 125.2468220  19.7425410  59.0299240 124.6753650  20.8091970  58.1202210
 134.5332060  29.3294060  56.8840870 133.9143500  29.7851560  56.3135310
 135.3883840  29.4845520  56.4830570 133.7270310  25.3133050  58.4907910
 133.6578590  24.3722990  58.3297040 134.4890170  25.4034460  59.0630480
 125.9176980  15.9187570  60.8164530 125.7379820  15.0213320  61.0967290
 125.5157060  16.4659440  61.4911480 134.7575480  18.1203430  58.7176840
 135.1340300  17.2475310  58.6050510 134.6594990  18.4562130  57.8267280
 128.8880490  16.4929060  54.1794280 128.9947240  17.3932790  54.4863040
 127.9772850  16.4447030  53.8888930 138.5399600  15.6153870  55.6505180
 139.3609220  15.1250440  55.6930660 138.5733680  16.2051530  56.4037020
 126.5363650  18.4148070  59.4246870 127.2173760  18.6786440  60.0434270
 126.2211700  17.5748940  59.7584880 130.7288220  19.4615430  58.5119460
 131.2366440  19.9596400  59.1524480 131.2601460  18.6850630  58.3358820
 142.8299150  17.6320620  62.2148810 142.1251320  18.0202330  61.6963920
 143.0957070  18.3270910  62.8169740 129.0124320  14.1013990  62.7782880
 129.0142760  14.6186380  61.9728780 128.1828630  13.6244170  62.7552810
 135.3995410  24.2133300  54.2772780 134.7812680  24.6782750  53.7135500
 135.9118660  24.9060780  54.6942290 130.2627170  23.7409170  60.9556380
 129.9296550  24.3678090  61.5977450 130.4393850  24.2671050  60.1758050
 138.7761080  17.5554250  58.4232720 138.0716650  17.8439140  59.0035830
 139.1373240  18.3654360  58.0632280 128.6939650  15.8123950  60.7853330
 129.0356460  16.6566000  60.4907200 127.7555460  15.9607690  60.9018670
 129.4746270  25.7089970  62.7705560 130.0920270  26.3841050  62.4890010
 128.6139390  26.1177950  62.6793060 124.7678610  24.8989830  51.6512410
 124.3906590  25.3876930  50.9197310 125.0251680  25.5715110  52.2818940
 140.3923860  27.1729380  60.6860200 139.7087380  27.8428490  60.6776870
 140.9318150  27.3710030  59.9205060 141.8448000  17.0009040  58.8141930
 140.8972910  17.0348020  58.9457360 142.1697990  17.8147990  59.1991290
 132.3767540  13.3006220  57.1097920 132.6842520  12.7453110  56.3933420
 131.4468240  13.4350680  56.9270910 137.9282600  29.0173510  59.4005380
 137.9409760  28.6135800  58.5327640 137.3757820  29.7920800  59.2966810
 139.2228020  25.7389730  54.4895550 139.1124350  24.7964060  54.6144970
 139.2196270  26.1005370  55.3758310 137.3268040  23.9203350  60.7287990
 137.7436830  23.7063460  59.8941450 138.0507860  24.1776140  61.2996610
 134.7648300  21.3655050  53.8458040 133.8377580  21.2992430  54.0746510
 134.9173120  22.3035180  53.7313280 134.7517380  17.6372050  50.8425200
 133.8121050  17.7986010  50.9277660 135.0700640  18.3557730  50.2961190
 141.2730140  22.3190570  60.8204230 140.4448770  22.3883660  60.3454360
 141.8680620  22.9044880  60.3520060 138.7945590  22.9275350  54.3493290
 138.1758010  22.5894900  53.7019590 138.7770040  22.2835110  55.0572480
 138.2372150  19.1059890  61.7659100 137.8243330  19.9313600  62.0199090
 137.5048100  18.5204930  61.5735460 130.3704940  21.8919790  56.6277770
 129.9661940  21.1797040  56.1323670 130.4568060  21.5473030  57.5165810
 130.8386640  25.5787350  58.7916980 130.5414930  24.9732820  58.1124760
 131.7886460  25.6164660  58.6806340 129.0833560  18.6663000  60.4076810
 129.6348150  18.7758340  59.6330060 129.5977070  19.0400600  61.1232040
 138.9272250  29.1519220  62.4540080 138.4502810  29.9591410  62.2612690
 138.2434040  28.4997550  62.6066290 129.9305070  25.3169040  65.4424780
 129.0333600  25.5409010  65.6898180 129.9557940  25.4403980  64.4936180
 136.9710290  22.1662160  51.3566040 137.4103570  21.3284590  51.2103860
 137.6838710  22.7991560  51.4430180 128.7576290  22.1882360  64.0182150
 128.6184060  23.0605160  64.3869550 127.8757650  21.8455170  63.8730090
 135.0805670  27.1058230  55.3247280 135.5201580  27.8482560  54.9102670
 135.0192560  27.3484800  56.2486240 130.5556640  28.1304060  66.2267300
 130.5272070  28.5347010  65.3595730 130.3921610  27.2014420  66.0638900
 140.5527430  13.4204970  49.6707080 140.2400090  13.5131800  50.5706150
 141.3139900  13.9986000  49.6204510 127.0709570  20.7864770  54.1284420
 126.9507170  21.5126860  53.5165690 126.7610460  20.0167680  53.6512330
 142.5071460  28.9131160  67.5231470 142.9831180  29.3914050  68.2020550
 143.1278620  28.8448650  66.7976970 124.7094940  23.9579910  59.9353060
 124.7875360  24.0928680  58.9908780 125.3236620  23.2495800  60.1281180
 125.9542570  25.6580100  56.3459240 125.5470650  25.7994690  55.4912840
 126.8455580  25.3740260  56.1430450 141.9104710  26.1044010  64.6831480
 142.0367770  25.8655890  63.7648660 141.9526090  25.2728550  65.1553560
 135.7721450  29.8072010  63.2526290 136.2866120  29.7180020  64.0548720
 134.9290530  30.1531710  63.5454200 137.7475850  30.0927350  52.6810290
 137.5876990  29.8030290  53.5792120 137.5822560  29.3167480  52.1455520
 130.2264230  29.8725880  54.4581910 130.0506710  28.9561420  54.2449710
 129.3719970  30.2313170  54.6979710 137.4501980  27.6014910  51.2408290
 136.7567140  27.5992200  50.5810570 138.1924840  27.1774230  50.8102460
 137.0151910  29.2277620  55.3156780 137.4708860  28.4467000  55.6295400
 137.3544430  29.9384440  55.8597960 141.7628720  18.1576470  65.6481220
 141.1472990  18.6656140  65.1196680 141.4425140  17.2574800  65.5907160
 124.7654460  24.9994080  62.4747520 124.9285500  24.5299440  61.6566890
 125.2306910  24.4917640  63.1396360 129.5373230  14.1299840  57.5108090
 129.0941380  14.9109380  57.1792610 130.0958220  14.4529730  58.2179030
 133.8243040  16.9968360  63.1143410 133.3622410  17.2051380  63.9263350
 133.4221150  16.1827710  62.8114080 138.8247550  18.2177310  64.2440070
 137.9741140  17.9183060  64.5649140 138.6649340  18.4619320  63.3323890
 135.9197260  19.7179060  66.3438860 136.2450670  18.8842810  66.0041090
 136.7077590  20.2407580  66.4917190 132.6532050  13.7510540  52.3913920
 132.0286230  13.7470410  53.1167230 132.5662170  12.8841500  51.9949890
 131.5749130  14.6747170  59.3697690 131.8721460  15.5810000  59.2889710
 132.1234690  14.1865950  58.7557260 129.3287450  19.2533410  55.2389340
 129.1028370  19.0370580  56.1435960 128.5479980  19.6861870  54.8935310
 136.5585210  19.2596780  53.8379990 135.9594100  19.9832580  53.6543610
 137.1064820  19.1973560  53.0556440 131.7686660  20.1518990  65.9049610
 131.6730260  19.2113720  65.7550010 132.6118640  20.3734060  65.5097680
 135.1650080  17.8960320  55.8683270 135.5579650  18.2132520  55.0551960
 135.5266930  17.0172200  55.9827790 126.8997200  16.5632660  64.0583390
 126.5060590  17.4107870  64.2656170 126.2115600  15.9259030  64.2492030
 133.4742250  16.6467630  67.1280130 132.7840570  16.4539830  67.7626220
 134.2174550  16.9302270  67.6604430 124.2014250  14.4861120  58.0913470
 123.9127300  15.0563980  58.8038450 124.9460010  14.0065570  58.4544700
 124.3884480  18.4281240  49.3016190 124.3059150  19.3712000  49.4431180
 124.0367540  18.2856150  48.4228540 135.7505220  20.4866070  59.9634050
 135.0186340  20.9952880  60.3124150 135.3529560  19.6696050  59.6622830
 132.1882610  17.1620270  58.3686540 132.1918670  16.7210220  57.5191080
 133.0833730  17.4837600  58.4758360 128.0384990  17.0446760  57.3280750
 127.6985040  17.5221990  58.0847800 127.2762310  16.5911880  56.9681850
 132.2502760  18.1632350  51.3593300 132.3715580  18.1218830  52.3079120
 131.8651270  19.0256500  51.2040030 136.2131130  15.9399750  59.3756990
 136.2303870  16.3908400  60.2198840 135.9646710  15.0405390  59.5890430
 131.2624260  20.4733490  50.7576600 130.6941160  20.0251740  50.1312510
 131.9713260  20.8326270  50.2241750 139.6401880  13.3531930  65.2143370
 139.9647650  12.6221590  65.7401350 139.6758390  13.0345570  64.3124360
 126.3393440  24.3745510  64.6343330 125.9548230  23.7339180  65.2326290
 126.6505630  25.0781630  65.2038060 132.4890580  21.2222050  60.1151950
 132.8560710  20.7480620  60.8613290 132.2995640  22.0963620  60.4560290
 125.3531070  15.9665740  56.2445420 125.0677990  15.6021410  57.0824040
 125.2909930  15.2346200  55.6308560 130.2789950  20.2630690  62.4336160
 129.9747020  21.1422670  62.6586520 131.2336410  20.3230480  62.4693600
 128.8071740  24.4691680  53.0303010 128.0334000  23.9289300  52.8701730
 129.5366370  23.9498290  52.6920770 139.5659720  23.4657040  58.8229400
 140.2858840  23.9612330  58.4325510 139.3641540  22.7874930  58.1783270
 135.0269660  14.8595000  52.9658790 134.2134270  14.3608170  52.8904100
 134.8331610  15.6993250  52.5495140 134.9478520  23.5366100  64.7098400
 134.8815830  22.6161770  64.4555990 134.3183660  23.6341540  65.4243040
 137.7418050  19.2314650  51.2620950 138.6297670  19.5431880  51.0872290
 137.7123140  18.3586900  50.8701530 128.8509140  24.1372060  56.6681820
 129.3687810  23.3340320  56.6138710 128.3993160  24.0751200  57.5098650
 133.7378640  25.4038340  51.9409120 134.0794340  26.1480570  51.4452440
 132.9091350  25.7169460  52.3033950 126.3353680  21.1033430  63.5807520
 125.9768620  21.7687280  64.1680860 126.0408240  20.2716980  63.9520140
 129.5366800  21.5617670  66.4647070 129.2366940  21.7074850  65.5674890
 130.3078040  21.0022960  66.3720460 134.8795250  26.3586670  64.4602200
 134.8939790  25.4267630  64.2421110 134.1720350  26.4446430  65.0991970
 140.0132320  20.5426490  50.7300810 139.9296040  20.9740710  49.8797250
 140.7326510  21.0024840  51.1627630 141.0906460  22.9994010  63.8070780
 140.3654650  23.5922790  63.6100170 141.6181920  22.9917550  63.0084150
 141.0419570  27.3968750  53.4582940 140.3995730  26.7424370  53.7326660
 140.6550230  27.8023840  52.6823610 136.6206050  24.7254180  57.3054630
 136.9729870  24.1282310  56.6456000 135.7368380  24.3998410  57.4762880
 132.7069330  25.4851870  54.7125040 133.3940460  26.0321080  55.0932630
 131.9201750  26.0292600  54.7474650 124.8461730  21.1024690  50.2042120
 125.7156580  21.3849490  50.4878040 124.3552050  21.9160560  50.0890930
 132.0096540  22.4897900  54.3250400 132.4659320  23.3003150  54.5510590
 131.6584750  22.1721040  55.1568890 134.3129150  28.0004240  61.5542700
 134.9571370  28.2063620  62.2316120 134.6758590  27.2392640  61.1013550
 127.9108320  12.8335550  54.7972920 127.7822950  12.8253450  55.7457840
 127.0870340  13.1718640  54.4463930 135.5861230  26.0036590  60.2720150
 136.2283460  25.3029750  60.3852320 136.1110580  26.7835030  60.0917040
 139.4316950  26.2885210  49.9959290 139.2054530  25.5715650  50.5883930
 139.0413150  26.0397650  49.1581040 137.3598850  26.8031490  63.4756210
 137.6955090  27.3898180  64.1534130 136.4399190  26.6724200  63.7054000
 125.2132980  30.3152070  50.7703750 125.5730620  30.9141410  50.1161020
 125.0725320  30.8611960  51.5438780 124.9102250  14.5926670  64.2579620
 124.1960770  14.7923590  64.8632230 125.3297290  13.8166240  64.6294420
 139.0133200  24.2057150  51.6573450 138.7254900  24.6669840  52.4451330
 139.8085370  23.7454920  51.9257670 125.1974840  28.5806930  65.2446150
 125.3065960  27.6401670  65.1041540 124.5455400  28.8461680  64.5959880
 133.1887430  26.8522820  66.6444270 132.8684300  26.1332060  67.1889960
 132.5145790  27.5277890  66.7180330 131.2301600  27.6983270  51.5877420
 131.2211700  28.4312960  50.9721930 130.3099960  27.4514850  51.6804380
 126.8308240  22.9198160  52.3324180 126.2236190  23.6597060  52.3419480
 127.3057590  23.0097520  51.5062380 136.4041030  17.0848980  62.0081070
 136.7721850  16.2644190  62.3360640 135.5439230  17.1450870  62.4236720
 139.7703060  16.0405920  52.8168630 139.1416220  16.1451590  52.1026860
 139.2754980  16.2602700  53.6062510 134.2161200  27.7611510  50.2502610
 134.3173180  27.5575500  49.3204590 133.3162940  27.5069790  50.4550390
 131.7387090  18.3191870  54.2326510 131.0303240  18.7878210  54.6740120
 132.0231570  17.6613880  54.8671700 133.3643020  19.7388570  62.2319040
 133.8628270  20.2134390  62.8970890 133.5065970  18.8152090  62.4389070
 135.7702520  15.0442530  55.6722300 135.6470300  15.0628660  54.7231810
 136.7187080  15.0921470  55.7920700 132.8579310  30.2797830  54.9450280
 133.1120810  30.2419220  54.0229650 131.9091790  30.1531160  54.9378530
 129.9422110  16.6276950  51.6077220 130.7912640  17.0647100  51.5417410
 129.5753380  16.9397210  52.4349280 140.5709880  15.9556530  63.0747430
 140.0683480  16.6961930  63.4141240 141.3866540  16.3440530  62.7584220
 138.8631890  21.1989710  56.5208790 137.9222030  21.2139940  56.6956480
 139.1775960  20.4125670  56.9669090 128.8413530  22.8809310  50.0812750
 129.6076800  22.7690670  50.6438180 128.9188220  22.1847280  49.4289520
 127.5360290  20.3134380  50.7645640 127.6163880  19.3661890  50.8763040
 128.4280040  20.6441260  50.8706300 140.8657470  28.3698560  58.1963050
 140.9904890  29.1929730  58.6686860 141.7323030  28.1589290  57.8487200
 128.3375000  30.4629770  57.8680180 129.0737480  29.9145230  58.1388750
 128.7215920  31.3285780  57.7286170 125.2220480  26.5303340  53.7421690
 124.2960260  26.7724480  53.7327100 125.6876910  27.3577600  53.6206440
 127.3433280  29.6475840  67.0565760 128.1446010  29.9687890  67.4701160
 126.8285100  29.2871420  67.7785670 131.4477310  29.6360080  49.6905750
 132.2405920  29.9248910  49.2387540 130.9281660  29.2052250  49.0118230
 136.1797910  25.7555710  67.0041170 135.5736070  25.7787310  66.2636920
 135.8752020  25.0238750  67.5408420 137.6098280  29.4836000  65.6150580
 138.5620030  29.3994020  65.5650820 137.4626500  30.1477710  66.2884370
 140.5007480  28.8630210  51.1142490 140.2148990  28.4495350  50.2996670
 140.3027030  29.7917920  50.9943010 125.0631090  22.1349300  66.0001810
 125.5670110  21.5556580  66.5718040 124.3238510  22.4189530  66.5378180
 131.9654710  24.8563490  49.5548100 131.8605350  24.2415840  50.2809480
 131.7978930  24.3329380  48.7711110 132.1169030  23.5420290  65.5337330
 131.3514700  24.1105290  65.4492000 132.2984990  23.2496500  64.6405560
 135.2057440  23.9183520  50.1590090 134.6567540  24.3652820  50.8032830
 135.8276700  23.4132770  50.6827760 139.2592380  25.2725620  66.0912350
 140.0001850  25.6101380  65.5879810 138.4965060  25.4417680  65.5382120
 127.0954170  20.2778890  66.8951880 127.1359510  19.9792760  67.8037110
 127.9499670  20.6786500  66.7359400 130.8732560  22.8774440  52.0555390
 131.2948980  22.7114310  52.8986780 130.9983400  22.0674670  51.5610530
 129.0359980  18.8570990  64.8626370 128.5056440  18.3661940  64.2349710
 129.7048050  19.2855190  64.3284300 133.3860200  21.9012050  49.3032490
 133.9065860  21.1861070  48.9373640 134.0328600  22.5397920  49.6033000
 137.9338040  23.3240450  64.6267560 138.3479060  23.4785530  65.4757980
 136.9989040  23.4495670  64.7893340 138.4060210  20.6636610  66.6306710
 138.9880980  19.9088930  66.5427190 138.5821980  21.1944050  65.8538190
 129.5232280  15.8233360  64.9423660 129.4289150  15.2054110  64.2174530
 128.9429670  16.5499650  64.7153570 132.2893720  14.3806600  61.9751050
 131.8411020  14.4030860  61.1296600 131.6558920  13.9825620  62.5721350
 132.6953270  23.2760930  62.5963490 133.1141380  24.1193660  62.4239730
 131.7761900  23.4132970  62.3670270 135.0317170  21.0077110  63.9801330
 135.1513380  20.4118250  64.7196170 135.8911170  21.0446800  63.5602630
 137.3705070  21.5614300  62.5563840 136.8440290  22.0856920  61.9528980
 137.7136410  22.1941690  63.1873570 129.7691460  18.9507670  49.0013550
 129.5680520  18.0875030  49.3626890 129.5983510  18.8641030  48.0635150
 130.5460690  29.5813940  63.7121220 130.0081780  30.3060000  63.3929920
 130.7994650  29.1044280  62.9218560 131.7985940  17.5498460  65.2377150
 132.3885630  17.2414310  65.9254970 130.9806180  17.0778210  65.3937050
 136.6179370  17.1664270  65.4710170 135.9294890  16.5045810  65.4060160
 137.3385390  16.7202540  65.9158630 137.2479770  13.7615900  51.5300430
 137.5282060  12.9183800  51.8859850 136.4745500  13.9939010  52.0439180
 128.5674260  16.0508290  48.9891430 128.8700160  16.0575720  48.0810580
 129.3068850  15.7006150  49.4859090 133.4022900  30.8165150  63.9707870
 133.3281600  31.7200290  64.2780240 132.5001740  30.4977050  63.9429940
 131.7859190  14.9942910  49.9747630 131.4381190  14.3166900  49.3950080
 131.9871960  14.5332420  50.7891020 133.9508230  29.9823660  51.5934230
 134.8459020  30.3208630  51.6152990 133.9825860  29.2603070  50.9658510
 127.5904390  25.3550710  49.8221230 128.0279260  25.8980380  50.4778810
 128.0752120  24.5297660  49.8317570 124.8050190  28.1439740  57.2741490
 125.1353200  27.2760800  57.0420130 125.2341190  28.3498260  58.1046450
 129.4012110  26.4748750  54.9343460 129.1007650  26.3513720  55.8347370
 129.2949600  25.6157340  54.5259190 125.2940400  29.0110330  60.0123120
 124.8571390  29.1911130  60.8447270 125.8618080  29.7684950  59.8704840
 140.9302580  28.5127330  64.3000430 140.3304570  28.5719890  63.5564350
 141.0596480  27.5732310  64.4297280 142.1704030  26.2545150  49.6370140
 141.3396990  26.3221800  50.1077370 142.3475860  27.1449270  49.3337000
 141.6260490  22.9992630  52.1404340 142.3879400  23.5689280  52.2464030
 141.6414860  22.4319830  52.9112650 125.1264830  21.5230560  56.3712000
 124.4713670  21.2542200  55.7271700 125.9642780  21.4135040  55.9213980
 142.6320460  23.8542730  56.9846270 143.0029290  23.0710050  56.5782240
 143.2722390  24.5431830  56.8063570 139.6154220  25.2379310  62.3976590
 138.8014060  25.6676470  62.6602380 140.0228420  25.8497720  61.7845640
 141.6779660  23.2927000  49.2976860 141.9528500  24.2005880  49.1696080
 141.4890400  23.2289530  50.2338850 138.0755270  16.3171850  50.5930490
 138.4940150  16.1302830  49.7527150 137.7691330  15.4650900  50.9033420
 141.5745000  21.2295990  54.2906290 141.1988600  20.4623920  53.8587580
 140.8448120  21.6118690  54.7781220 126.1640760  21.9083130  60.9115340
 126.5313800  21.8210530  61.7911360 125.5951580  21.1449680  60.8122200
 140.9644620  20.3767510  63.9245810 140.7330710  20.1480260  63.0243760
 141.2249170  21.2967060  63.8790700 125.7156760  18.8192220  64.8173760
 124.8212810  18.7858980  65.1567470 126.2554310  19.0179010  65.5825010
 139.4032690  15.6023940  66.7025510 140.2802870  15.6107340  67.0859510
 139.4153530  14.8654780  66.0917860 124.3402910  18.7329490  52.3137330
 123.4366990  18.9959690  52.1388990 124.8243530  19.0040660  51.5337290
 140.8495960  19.4553480  57.5913530 141.3733440  18.9616130  56.9603700
 141.4355380  19.5903840  58.3361100 141.0285680  19.5393350  61.1133080
 140.0788390  19.5056890  61.2278070 141.2098690  20.4493460  60.8782850
 126.8830120  17.7895030  50.2231710 127.5921820  17.3678250  49.7378990
 126.1670060  17.8570260  49.5915060 126.5304280  13.8434360  49.2634360
 127.2532410  14.3843300  49.5815580 126.8028800  13.5697780  48.3875900
 140.3395930  18.7126830  53.5305940 140.8355050  18.4797700  54.3154820
 140.1412000  17.8738670  53.1143580 126.2196470  13.0940550  59.1656980
 126.8672660  12.5437930  58.7252140 126.6398310  13.3483700  59.9872790
 141.7683090  17.3487780  56.0643620 141.6582370  17.1943820  57.0025890
 142.5290680  16.8208720  55.8219030 140.1148810  13.2881910  62.5226620
 140.7521030  13.9016050  62.8885810 140.2623700  13.3242570  61.5775850
 142.6573360  15.1795700  49.3049760 143.5822670  15.0476880  49.0968050
 142.6349150  15.2588520  50.2586210 142.7311850  15.9506360  51.9306470
 141.9363350  15.8851480  52.4599380 142.9355130  16.8857000  51.9191820
 139.6730270  29.9897910  55.9244860 140.2689340  29.6682480  55.2479280
 139.9308420  29.5169730  56.7158130 125.9728470  13.2496220  61.9082300
 125.6243290  13.7060040  62.6740480 125.6416170  12.3553350  61.9904730
 127.5792840  26.4215820  66.0735490 127.5362470  26.0508730  66.9549950
 127.7103850  27.3593390  66.2137310 131.2798870  27.9775410  61.6745210
 131.0390230  28.2449970  60.7875730 132.2201510  28.1481140  61.7296070
 133.4853290  14.4408100  65.4301720 133.4242180  15.0329930  66.1797130
 134.4253670  14.3334060  65.2851980 136.1227850  14.0978160  65.0694010
 136.7368260  14.4157450  64.4075090 136.6677410  13.6126750  65.6889870
 142.5403030  29.9969790  62.4755850 142.0461310  30.3938660  61.7582980
 141.9316320  29.3719000  62.8693130 126.6449110  12.7772420  65.1833070
 127.1932100  12.5960470  64.4199180 126.7104420  11.9866530  65.7189380
 127.4180870  29.3678070  63.1933270 126.8241190  29.2362770  63.9323310
 127.4104710  28.5316210  62.7275370 136.8635890  12.6610300  61.3963300
 135.9895730  12.9945410  61.1936230 136.7546640  12.1883480  62.2215170
 137.7707870  14.8681170  62.7805020 137.4421230  14.0532930  62.4006750
 138.7190170  14.8250980  62.6570710 140.2242480  30.6393210  59.7542590
 139.7645450  31.3909020  59.3800610 139.5954940  29.9199680  59.6957390
 127.0493100  26.7336450  62.1441310 126.3227160  26.1141740  62.0767260
 127.1102250  27.1277060  61.2739390 130.6538200  28.9481450  58.9290720
 131.1703220  28.3368810  58.4038980 131.3035580  29.4510230  59.4201730
 133.3933700  29.8389940  59.7559700 133.6811510  29.5844240  58.8792710
 133.9056920  29.2867300  60.3465270 134.6110710  13.5780140  60.3356210
 133.8282500  14.0525640  60.6152970 134.3173640  12.6734970  60.2269390
 139.1631780  14.2803240  58.3805300 139.6039870  14.2248340  57.5326900
 138.8939370  15.1961250  58.4515480 141.0270350  13.9118480  56.3914120
 140.9658750  12.9679700  56.2445140 141.8062380  14.0198570  56.9367580
 125.3323100  30.0510840  55.3538070 125.1645140  29.4181520  56.0519960
 124.4657610  30.2570240  55.0032260 125.9551120  13.8827620  52.8569930
 126.7130480  13.9956500  52.2833960 125.4928290  14.7196820  52.8113360
 132.4964930  15.9966890  55.8472240 131.6839440  15.6223780  55.5068120
 133.0006570  15.2411970  56.1493430 136.9989910  12.6609340  57.0855310
 137.6019280  13.2329550  57.5603830 136.2582900  13.2248780  56.8629210
 140.1424510  13.0630900  52.3595590 140.3375140  13.9614350  52.6263020
 139.3554380  12.8317980  52.8528540 126.9385800  28.7444070  52.7988210
 126.4133420  29.1252100  52.0950170 126.8630380  29.3694840  53.5197920
 128.3276270  14.4091670  51.3971900 128.8569030  13.6221470  51.2679850
 128.9604590  15.0882860  51.6307430 130.5214110  14.1466810  54.4517290
 129.8916850  13.4454120  54.6187420 129.9819250  14.9070940  54.2350450
 133.4606060  30.7606040  67.1227900 134.3873370  30.5250310  67.1663860
 133.4456490  31.5878040  66.6413930 141.6951120  30.3031610  54.1202150
 141.8703310  29.6169350  53.4763070 140.9972690  30.8278660  53.7278820
 130.6469670  13.4250790  66.8869780 130.3653940  13.9284390  66.1230600
 131.0289370  12.6272540  66.5211910 129.5378770  30.6926450  51.6737460
 130.2697590  30.4085730  51.1261350 129.7972440  30.4539730  52.5636840
 128.6993560  26.8091180  51.6783790 128.0702440  27.2776280  52.2269620
 128.8141390  25.9640400  52.1129980 137.2485130  12.8404370  67.4650250
 137.1350580  13.1598980  68.3601770 138.0654870  13.2416880  67.1687530
 140.0283620  29.9875900  66.9468940 140.8208940  29.4925130  66.7394900
 140.3216770  30.6666040  67.5544550 136.1543280  20.8596840  37.8284990
 136.0737330  19.9451450  37.5576700 135.7407700  21.3563910  37.1224700
 134.2861320  22.6375860  39.7094260 133.5103420  22.1576300  39.9992830
 134.9374250  21.9581510  39.5350420 128.3027150  22.9495670  40.5870020
 127.4712030  22.6944380  40.9866530 128.9108130  23.0206440  41.3227940
 138.3068750  27.0436050  38.4893390 137.8450280  26.2723290  38.8180560
 139.1194300  27.0702120  38.9945840 128.2828410  26.9835760  40.7828040
 128.5856450  26.0933500  40.6038260 129.0272000  27.5405980  40.5550290
 126.7119100  17.9097560  34.3712410 125.8235800  18.2513530  34.2692290
 126.9960290  17.7097880  33.4793240 124.6752110  20.5103210  40.2552110
 125.2468220  19.7425410  40.2555750 124.6753650  20.8091970  39.3458720
 134.5332060  29.3294060  38.1097380 133.9143500  29.7851560  37.5391820
 135.3883840  29.4845520  37.7087080 133.7270310  25.3133050  39.7164420
 133.6578590  24.3722990  39.5553550 134.4890170  25.4034460  40.2886990
 125.9176980  15.9187570  42.0421040 125.7379820  15.0213320  42.3223800
 125.5157060  16.4659440  42.7167990 134.7575480  18.1203430  39.9433350
 135.1340300  17.2475310  39.8307020 134.6594990  18.4562130  39.0523790
 128.8880490  16.4929060  35.4050790 128.9947240  17.3932790  35.7119550
 127.9772850  16.4447030  35.1145440 138.5399600  15.6153870  36.8761690
 139.3609220  15.1250440  36.9187170 138.5733680  16.2051530  37.6293530
 126.5363650  18.4148070  40.6503380 127.2173760  18.6786440  41.2690780
 126.2211700  17.5748940  40.9841390 130.7288220  19.4615430  39.7375970
 131.2366440  19.9596400  40.3780990 131.2601460  18.6850630  39.5615330
 142.8299150  17.6320620  43.4405320 142.1251320  18.0202330  42.9220430
 143.0957070  18.3270910  44.0426250 129.0124320  14.1013990  44.0039390
 129.0142760  14.6186380  43.1985290 128.1828630  13.6244170  43.9809320
 135.3995410  24.2133300  35.5029290 134.7812680  24.6782750  34.9392010
 135.9118660  24.9060780  35.9198800 130.2627170  23.7409170  42.1812890
 129.9296550  24.3678090  42.8233960 130.4393850  24.2671050  41.4014560
 138.7761080  17.5554250  39.6489230 138.0716650  17.8439140  40.2292340
 139.1373240  18.3654360  39.2888790 128.6939650  15.8123950  42.0109840
 129.0356460  16.6566000  41.7163710 127.7555460  15.9607690  42.1275180
 129.4746270  25.7089970  43.9962070 130.0920270  26.3841050  43.7146520
 128.6139390  26.1177950  43.9049570 124.7678610  24.8989830  32.8768920
 124.3906590  25.3876930  32.1453820 125.0251680  25.5715110  33.5075450
 140.3923860  27.1729380  41.9116710 139.7087380  27.8428490  41.9033380
 140.9318150  27.3710030  41.1461570 141.8448000  17.0009040  40.0398440
 140.8972910  17.0348020  40.1713870 142.1697990  17.8147990  40.4247800
 132.3767540  13.3006220  38.3354430 132.6842520  12.7453110  37.6189930
 131.4468240  13.4350680  38.1527420 137.9282600  29.0173510  40.6261890
 137.9409760  28.6135800  39.7584150 137.3757820  29.7920800  40.5223320
 139.2228020  25.7389730  35.7152060 139.1124350  24.7964060  35.8401480
 139.2196270  26.1005370  36.6014820 137.3268040  23.9203350  41.9544500
 137.7436830  23.7063460  41.1197960 138.0507860  24.1776140  42.5253120
 134.7648300  21.3655050  35.0714550 133.8377580  21.2992430  35.3003020
 134.9173120  22.3035180  34.9569790 134.7517380  17.6372050  32.0681710
 133.8121050  17.7986010  32.1534170 135.0700640  18.3557730  31.5217700
 141.2730140  22.3190570  42.0460740 140.4448770  22.3883660  41.5710870
 141.8680620  22.9044880  41.5776570 138.7945590  22.9275350  35.5749800
 138.1758010  22.5894900  34.9276100 138.7770040  22.2835110  36.2828990
 138.2372150  19.1059890  42.9915610 137.8243330  19.9313600  43.2455600
 137.5048100  18.5204930  42.7991970 130.3704940  21.8919790  37.8534280
 129.9661940  21.1797040  37.3580180 130.4568060  21.5473030  38.7422320
 130.8386640  25.5787350  40.0173490 130.5414930  24.9732820  39.3381270
 131.7886460  25.6164660  39.9062850 129.0833560  18.6663000  41.6333320
 129.6348150  18.7758340  40.8586570 129.5977070  19.0400600  42.3488550
 138.9272250  29.1519220  43.6796590 138.4502810  29.9591410  43.4869200
 138.2434040  28.4997550  43.8322800 129.9305070  25.3169040  46.6681290
 129.0333600  25.5409010  46.9154690 129.9557940  25.4403980  45.7192690
 136.9710290  22.1662160  32.5822550 137.4103570  21.3284590  32.4360370
 137.6838710  22.7991560  32.6686690 128.7576290  22.1882360  45.2438660
 128.6184060  23.0605160  45.6126060 127.8757650  21.8455170  45.0986600
 135.0805670  27.1058230  36.5503790 135.5201580  27.8482560  36.1359180
 135.0192560  27.3484800  37.4742750 130.5556640  28.1304060  47.4523810
 130.5272070  28.5347010  46.5852240 130.3921610  27.2014420  47.2895410
 140.5527430  13.4204970  30.8963590 140.2400090  13.5131800  31.7962660
 141.3139900  13.9986000  30.8461020 127.0709570  20.7864770  35.3540930
 126.9507170  21.5126860  34.7422200 126.7610460  20.0167680  34.8768840
 142.5071460  28.9131160  48.7487980 142.9831180  29.3914050  49.4277060
 143.1278620  28.8448650  48.0233480 124.7094940  23.9579910  41.1609570
 124.7875360  24.0928680  40.2165290 125.3236620  23.2495800  41.3537690
 125.9542570  25.6580100  37.5715750 125.5470650  25.7994690  36.7169350
 126.8455580  25.3740260  37.3686960 141.9104710  26.1044010  45.9087990
 142.0367770  25.8655890  44.9905170 141.9526090  25.2728550  46.3810070
 135.7721450  29.8072010  44.4782800 136.2866120  29.7180020  45.2805230
 134.9290530  30.1531710  44.7710710 137.7475850  30.0927350  33.9066800
 137.5876990  29.8030290  34.8048630 137.5822560  29.3167480  33.3712030
 130.2264230  29.8725880  35.6838420 130.0506710  28.9561420  35.4706220
 129.3719970  30.2313170  35.9236220 137.4501980  27.6014910  32.4664800
 136.7567140  27.5992200  31.8067080 138.1924840  27.1774230  32.0358970
 137.0151910  29.2277620  36.5413290 137.4708860  28.4467000  36.8551910
 137.3544430  29.9384440  37.0854470 141.7628720  18.1576470  46.8737730
 141.1472990  18.6656140  46.3453190 141.4425140  17.2574800  46.8163670
 124.7654460  24.9994080  43.7004030 124.9285500  24.5299440  42.8823400
 125.2306910  24.4917640  44.3652870 129.5373230  14.1299840  38.7364600
 129.0941380  14.9109380  38.4049120 130.0958220  14.4529730  39.4435540
 133.8243040  16.9968360  44.3399920 133.3622410  17.2051380  45.1519860
 133.4221150  16.1827710  44.0370590 138.8247550  18.2177310  45.4696580
 137.9741140  17.9183060  45.7905650 138.6649340  18.4619320  44.5580400
 135.9197260  19.7179060  47.5695370 136.2450670  18.8842810  47.2297600
 136.7077590  20.2407580  47.7173700 132.6532050  13.7510540  33.6170430
 132.0286230  13.7470410  34.3423740 132.5662170  12.8841500  33.2206400
 131.5749130  14.6747170  40.5954200 131.8721460  15.5810000  40.5146220
 132.1234690  14.1865950  39.9813770 129.3287450  19.2533410  36.4645850
 129.1028370  19.0370580  37.3692470 128.5479980  19.6861870  36.1191820
 136.5585210  19.2596780  35.0636500 135.9594100  19.9832580  34.8800120
 137.1064820  19.1973560  34.2812950 131.7686660  20.1518990  47.1306120
 131.6730260  19.2113720  46.9806520 132.6118640  20.3734060  46.7354190
 135.1650080  17.8960320  37.0939780 135.5579650  18.2132520  36.2808470
 135.5266930  17.0172200  37.2084300 126.8997200  16.5632660  45.2839900
 126.5060590  17.4107870  45.4912680 126.2115600  15.9259030  45.4748540
 133.4742250  16.6467630  48.3536640 132.7840570  16.4539830  48.9882730
 134.2174550  16.9302270  48.8860940 124.2014250  14.4861120  39.3169980
 123.9127300  15.0563980  40.0294960 124.9460010  14.0065570  39.6801210
 124.3884480  18.4281240  30.5272700 124.3059150  19.3712000  30.6687690
 124.0367540  18.2856150  29.6485050 135.7505220  20.4866070  41.1890560
 135.0186340  20.9952880  41.5380660 135.3529560  19.6696050  40.8879340
 132.1882610  17.1620270  39.5943050 132.1918670  16.7210220  38.7447590
 133.0833730  17.4837600  39.7014870 128.0384990  17.0446760  38.5537260
 127.6985040  17.5221990  39.3104310 127.2762310  16.5911880  38.1938360
 132.2502760  18.1632350  32.5849810 132.3715580  18.1218830  33.5335630
 131.8651270  19.0256500  32.4296540 136.2131130  15.9399750  40.6013500
 136.2303870  16.3908400  41.4455350 135.9646710  15.0405390  40.8146940
 131.2624260  20.4733490  31.9833110 130.6941160  20.0251740  31.3569020
 131.9713260  20.8326270  31.4498260 139.6401880  13.3531930  46.4399880
 139.9647650  12.6221590  46.9657860 139.6758390  13.0345570  45.5380870
 126.3393440  24.3745510  45.8599840 125.9548230  23.7339180  46.4582800
 126.6505630  25.0781630  46.4294570 132.4890580  21.2222050  41.3408460
 132.8560710  20.7480620  42.0869800 132.2995640  22.0963620  41.6816800
 125.3531070  15.9665740  37.4701930 125.0677990  15.6021410  38.3080550
 125.2909930  15.2346200  36.8565070 130.2789950  20.2630690  43.6592670
 129.9747020  21.1422670  43.8843030 131.2336410  20.3230480  43.6950110
 128.8071740  24.4691680  34.2559520 128.0334000  23.9289300  34.0958240
 129.5366370  23.9498290  33.9177280 139.5659720  23.4657040  40.0485910
 140.2858840  23.9612330  39.6582020 139.3641540  22.7874930  39.4039780
 135.0269660  14.8595000  34.1915300 134.2134270  14.3608170  34.1160610
 134.8331610  15.6993250  33.7751650 134.9478520  23.5366100  45.9354910
 134.8815830  22.6161770  45.6812500 134.3183660  23.6341540  46.6499550
 137.7418050  19.2314650  32.4877460 138.6297670  19.5431880  32.3128800
 137.7123140  18.3586900  32.0958040 128.8509140  24.1372060  37.8938330
 129.3687810  23.3340320  37.8395220 128.3993160  24.0751200  38.7355160
 133.7378640  25.4038340  33.1665630 134.0794340  26.1480570  32.6708950
 132.9091350  25.7169460  33.5290460 126.3353680  21.1033430  44.8064030
 125.9768620  21.7687280  45.3937370 126.0408240  20.2716980  45.1776650
 129.5366800  21.5617670  47.6903580 129.2366940  21.7074850  46.7931400
 130.3078040  21.0022960  47.5976970 134.8795250  26.3586670  45.6858710
 134.8939790  25.4267630  45.4677620 134.1720350  26.4446430  46.3248480
 140.0132320  20.5426490  31.9557320 139.9296040  20.9740710  31.1053760
 140.7326510  21.0024840  32.3884140 141.0906460  22.9994010  45.0327290
 140.3654650  23.5922790  44.8356680 141.6181920  22.9917550  44.2340660
 141.0419570  27.3968750  34.6839450 140.3995730  26.7424370  34.9583170
 140.6550230  27.8023840  33.9080120 136.6206050  24.7254180  38.5311140
 136.9729870  24.1282310  37.8712510 135.7368380  24.3998410  38.7019390
 132.7069330  25.4851870  35.9381550 133.3940460  26.0321080  36.3189140
 131.9201750  26.0292600  35.9731160 124.8461730  21.1024690  31.4298630
 125.7156580  21.3849490  31.7134550 124.3552050  21.9160560  31.3147440
 132.0096540  22.4897900  35.5506910 132.4659320  23.3003150  35.7767100
 131.6584750  22.1721040  36.3825400 134.3129150  28.0004240  42.7799210
 134.9571370  28.2063620  43.4572630 134.6758590  27.2392640  42.3270060
 127.9108320  12.8335550  36.0229430 127.7822950  12.8253450  36.9714350
 127.0870340  13.1718640  35.6720440 135.5861230  26.0036590  41.4976660
 136.2283460  25.3029750  41.6108830 136.1110580  26.7835030  41.3173550
 139.4316950  26.2885210  31.2215800 139.2054530  25.5715650  31.8140440
 139.0413150  26.0397650  30.3837550 137.3598850  26.8031490  44.7012720
 137.6955090  27.3898180  45.3790640 136.4399190  26.6724200  44.9310510
 125.2132980  30.3152070  31.9960260 125.5730620  30.9141410  31.3417530
 125.0725320  30.8611960  32.7695290 124.9102250  14.5926670  45.4836130
 124.1960770  14.7923590  46.0888740 125.3297290  13.8166240  45.8550930
 139.0133200  24.2057150  32.8829960 138.7254900  24.6669840  33.6707840
 139.8085370  23.7454920  33.1514180 125.1974840  28.5806930  46.4702660
 125.3065960  27.6401670  46.3298050 124.5455400  28.8461680  45.8216390
 133.1887430  26.8522820  47.8700780 132.8684300  26.1332060  48.4146470
 132.5145790  27.5277890  47.9436840 131.2301600  27.6983270  32.8133930
 131.2211700  28.4312960  32.1978440 130.3099960  27.4514850  32.9060890
 126.8308240  22.9198160  33.5580690 126.2236190  23.6597060  33.5675990
 127.3057590  23.0097520  32.7318890 136.4041030  17.0848980  43.2337580
 136.7721850  16.2644190  43.5617150 135.5439230  17.1450870  43.6493230
 139.7703060  16.0405920  34.0425140 139.1416220  16.1451590  33.3283370
 139.2754980  16.2602700  34.8319020 134.2161200  27.7611510  31.4759120
 134.3173180  27.5575500  30.5461100 133.3162940  27.5069790  31.6806900
 131.7387090  18.3191870  35.4583020 131.0303240  18.7878210  35.8996630
 132.0231570  17.6613880  36.0928210 133.3643020  19.7388570  43.4575550
 133.8628270  20.2134390  44.1227400 133.5065970  18.8152090  43.6645580
 135.7702520  15.0442530  36.8978810 135.6470300  15.0628660  35.9488320
 136.7187080  15.0921470  37.0177210 132.8579310  30.2797830  36.1706790
 133.1120810  30.2419220  35.2486160 131.9091790  30.1531160  36.1635040
 129.9422110  16.6276950  32.8333730 130.7912640  17.0647100  32.7673920
 129.5753380  16.9397210  33.6605790 140.5709880  15.9556530  44.3003940
 140.0683480  16.6961930  44.6397750 141.3866540  16.3440530  43.9840730
 138.8631890  21.1989710  37.7465300 137.9222030  21.2139940  37.9212990
 139.1775960  20.4125670  38.1925600 128.8413530  22.8809310  31.3069260
 129.6076800  22.7690670  31.8694690 128.9188220  22.1847280  30.6546030
 127.5360290  20.3134380  31.9902150 127.6163880  19.3661890  32.1019550
 128.4280040  20.6441260  32.0962810 140.8657470  28.3698560  39.4219560
 140.9904890  29.1929730  39.8943370 141.7323030  28.1589290  39.0743710
 128.3375000  30.4629770  39.0936690 129.0737480  29.9145230  39.3645260
 128.7215920  31.3285780  38.9542680 125.2220480  26.5303340  34.9678200
 124.2960260  26.7724480  34.9583610 125.6876910  27.3577600  34.8462950
 127.3433280  29.6475840  48.2822270 128.1446010  29.9687890  48.6957670
 126.8285100  29.2871420  49.0042180 131.4477310  29.6360080  30.9162260
 132.2405920  29.9248910  30.4644050 130.9281660  29.2052250  30.2374740
 136.1797910  25.7555710  48.2297680 135.5736070  25.7787310  47.4893430
 135.8752020  25.0238750  48.7664930 137.6098280  29.4836000  46.8407090
 138.5620030  29.3994020  46.7907330 137.4626500  30.1477710  47.5140880
 140.5007480  28.8630210  32.3399000 140.2148990  28.4495350  31.5253180
 140.3027030  29.7917920  32.2199520 125.0631090  22.1349300  47.2258320
 125.5670110  21.5556580  47.7974550 124.3238510  22.4189530  47.7634690
 131.9654710  24.8563490  30.7804610 131.8605350  24.2415840  31.5065990
 131.7978930  24.3329380  29.9967620 132.1169030  23.5420290  46.7593840
 131.3514700  24.1105290  46.6748510 132.2984990  23.2496500  45.8662070
 135.2057440  23.9183520  31.3846600 134.6567540  24.3652820  32.0289340
 135.8276700  23.4132770  31.9084270 139.2592380  25.2725620  47.3168860
 140.0001850  25.6101380  46.8136320 138.4965060  25.4417680  46.7638630
 127.0954170  20.2778890  48.1208390 127.1359510  19.9792760  49.0293620
 127.9499670  20.6786500  47.9615910 130.8732560  22.8774440  33.2811900
 131.2948980  22.7114310  34.1243290 130.9983400  22.0674670  32.7867040
 129.0359980  18.8570990  46.0882880 128.5056440  18.3661940  45.4606220
 129.7048050  19.2855190  45.5540810 133.3860200  21.9012050  30.5289000
 133.9065860  21.1861070  30.1630150 134.0328600  22.5397920  30.8289510
 137.9338040  23.3240450  45.8524070 138.3479060  23.4785530  46.7014490
 136.9989040  23.4495670  46.0149850 138.4060210  20.6636610  47.8563220
 138.9880980  19.9088930  47.7683700 138.5821980  21.1944050  47.0794700
 129.5232280  15.8233360  46.1680170 129.4289150  15.2054110  45.4431040
 128.9429670  16.5499650  45.9410080 132.2893720  14.3806600  43.2007560
 131.8411020  14.4030860  42.3553110 131.6558920  13.9825620  43.7977860
 132.6953270  23.2760930  43.8220000 133.1141380  24.1193660  43.6496240
 131.7761900  23.4132970  43.5926780 135.0317170  21.0077110  45.2057840
 135.1513380  20.4118250  45.9452680 135.8911170  21.0446800  44.7859140
 137.3705070  21.5614300  43.7820350 136.8440290  22.0856920  43.1785490
 137.7136410  22.1941690  44.4130080 129.7691460  18.9507670  30.2270060
 129.5680520  18.0875030  30.5883400 129.5983510  18.8641030  29.2891660
 130.5460690  29.5813940  44.9377730 130.0081780  30.3060000  44.6186430
 130.7994650  29.1044280  44.1475070 131.7985940  17.5498460  46.4633660
 132.3885630  17.2414310  47.1511480 130.9806180  17.0778210  46.6193560
 136.6179370  17.1664270  46.6966680 135.9294890  16.5045810  46.6316670
 137.3385390  16.7202540  47.1415140 137.2479770  13.7615900  32.7556940
 137.5282060  12.9183800  33.1116360 136.4745500  13.9939010  33.2695690
 128.5674260  16.0508290  30.2147940 128.8700160  16.0575720  29.3067090
 129.3068850  15.7006150  30.7115600 133.4022900  30.8165150  45.1964380
 133.3281600  31.7200290  45.5036750 132.5001740  30.4977050  45.1686450
 131.7859190  14.9942910  31.2004140 131.4381190  14.3166900  30.6206590
 131.9871960  14.5332420  32.0147530 133.9508230  29.9823660  32.8190740
 134.8459020  30.3208630  32.8409500 133.9825860  29.2603070  32.1915020
 127.5904390  25.3550710  31.0477740 128.0279260  25.8980380  31.7035320
 128.0752120  24.5297660  31.0574080 124.8050190  28.1439740  38.4998000
 125.1353200  27.2760800  38.2676640 125.2341190  28.3498260  39.3302960
 129.4012110  26.4748750  36.1599970 129.1007650  26.3513720  37.0603880
 129.2949600  25.6157340  35.7515700 125.2940400  29.0110330  41.2379630
 124.8571390  29.1911130  42.0703780 125.8618080  29.7684950  41.0961350
 140.9302580  28.5127330  45.5256940 140.3304570  28.5719890  44.7820860
 141.0596480  27.5732310  45.6553790 142.1704030  26.2545150  30.8626650
 141.3396990  26.3221800  31.3333880 142.3475860  27.1449270  30.5593510
 141.6260490  22.9992630  33.3660850 142.3879400  23.5689280  33.4720540
 141.6414860  22.4319830  34.1369160 125.1264830  21.5230560  37.5968510
 124.4713670  21.2542200  36.9528210 125.9642780  21.4135040  37.1470490
 142.6320460  23.8542730  38.2102780 143.0029290  23.0710050  37.8038750
 143.2722390  24.5431830  38.0320080 139.6154220  25.2379310  43.6233100
 138.8014060  25.6676470  43.8858890 140.0228420  25.8497720  43.0102150
 141.6779660  23.2927000  30.5233370 141.9528500  24.2005880  30.3952590
 141.4890400  23.2289530  31.4595360 138.0755270  16.3171850  31.8187000
 138.4940150  16.1302830  30.9783660 137.7691330  15.4650900  32.1289930
 141.5745000  21.2295990  35.5162800 141.1988600  20.4623920  35.0844090
 140.8448120  21.6118690  36.0037730 126.1640760  21.9083130  42.1371850
 126.5313800  21.8210530  43.0167870 125.5951580  21.1449680  42.0378710
 140.9644620  20.3767510  45.1502320 140.7330710  20.1480260  44.2500270
 141.2249170  21.2967060  45.1047210 125.7156760  18.8192220  46.0430270
 124.8212810  18.7858980  46.3823980 126.2554310  19.0179010  46.8081520
 139.4032690  15.6023940  47.9282020 140.2802870  15.6107340  48.3116020
 139.4153530  14.8654780  47.3174370 124.3402910  18.7329490  33.5393840
 123.4366990  18.9959690  33.3645500 124.8243530  19.0040660  32.7593800
 140.8495960  19.4553480  38.8170040 141.3733440  18.9616130  38.1860210
 141.4355380  19.5903840  39.5617610 141.0285680  19.5393350  42.3389590
 140.0788390  19.5056890  42.4534580 141.2098690  20.4493460  42.1039360
 126.8830120  17.7895030  31.4488220 127.5921820  17.3678250  30.9635500
 126.1670060  17.8570260  30.8171570 126.5304280  13.8434360  30.4890870
 127.2532410  14.3843300  30.8072090 126.8028800  13.5697780  29.6132410
 140.3395930  18.7126830  34.7562450 140.8355050  18.4797700  35.5411330
 140.1412000  17.8738670  34.3400090 126.2196470  13.0940550  40.3913490
 126.8672660  12.5437930  39.9508650 126.6398310  13.3483700  41.2129300
 141.7683090  17.3487780  37.2900130 141.6582370  17.1943820  38.2282400
 142.5290680  16.8208720  37.0475540 140.1148810  13.2881910  43.7483130
 140.7521030  13.9016050  44.1142320 140.2623700  13.3242570  42.8032360
 142.6573360  15.1795700  30.5306270 143.5822670  15.0476880  30.3224560
 142.6349150  15.2588520  31.4842720 142.7311850  15.9506360  33.1562980
 141.9363350  15.8851480  33.6855890 142.9355130  16.8857000  33.1448330
 139.6730270  29.9897910  37.1501370 140.2689340  29.6682480  36.4735790
 139.9308420  29.5169730  37.9414640 125.9728470  13.2496220  43.1338810
 125.6243290  13.7060040  43.8996990 125.6416170  12.3553350  43.2161240
 127.5792840  26.4215820  47.2992000 127.5362470  26.0508730  48.1806460
 127.7103850  27.3593390  47.4393820 131.2798870  27.9775410  42.9001720
 131.0390230  28.2449970  42.0132240 132.2201510  28.1481140  42.9552580
 133.4853290  14.4408100  46.6558230 133.4242180  15.0329930  47.4053640
 134.4253670  14.3334060  46.5108490 136.1227850  14.0978160  46.2950520
 136.7368260  14.4157450  45.6331600 136.6677410  13.6126750  46.9146380
 142.5403030  29.9969790  43.7012360 142.0461310  30.3938660  42.9839490
 141.9316320  29.3719000  44.0949640 126.6449110  12.7772420  46.4089580
 127.1932100  12.5960470  45.6455690 126.7104420  11.9866530  46.9445890
 127.4180870  29.3678070  44.4189780 126.8241190  29.2362770  45.1579820
 127.4104710  28.5316210  43.9531880 136.8635890  12.6610300  42.6219810
 135.9895730  12.9945410  42.4192740 136.7546640  12.1883480  43.4471680
 137.7707870  14.8681170  44.0061530 137.4421230  14.0532930  43.6263260
 138.7190170  14.8250980  43.8827220 140.2242480  30.6393210  40.9799100
 139.7645450  31.3909020  40.6057120 139.5954940  29.9199680  40.9213900
 127.0493100  26.7336450  43.3697820 126.3227160  26.1141740  43.3023770
 127.1102250  27.1277060  42.4995900 130.6538200  28.9481450  40.1547230
 131.1703220  28.3368810  39.6295490 131.3035580  29.4510230  40.6458240
 133.3933700  29.8389940  40.9816210 133.6811510  29.5844240  40.1049220
 133.9056920  29.2867300  41.5721780 134.6110710  13.5780140  41.5612720
 133.8282500  14.0525640  41.8409480 134.3173640  12.6734970  41.4525900
 139.1631780  14.2803240  39.6061810 139.6039870  14.2248340  38.7583410
 138.8939370  15.1961250  39.6771990 141.0270350  13.9118480  37.6170630
 140.9658750  12.9679700  37.4701650 141.8062380  14.0198570  38.1624090
 125.3323100  30.0510840  36.5794580 125.1645140  29.4181520  37.2776470
 124.4657610  30.2570240  36.2288770 125.9551120  13.8827620  34.0826440
 126.7130480  13.9956500  33.5090470 125.4928290  14.7196820  34.0369870
 132.4964930  15.9966890  37.0728750 131.6839440  15.6223780  36.7324630
 133.0006570  15.2411970  37.3749940 136.9989910  12.6609340  38.3111820
 137.6019280  13.2329550  38.7860340 136.2582900  13.2248780  38.0885720
 140.1424510  13.0630900  33.5852100 140.3375140  13.9614350  33.8519530
 139.3554380  12.8317980  34.0785050 126.9385800  28.7444070  34.0244720
 126.4133420  29.1252100  33.3206680 126.8630380  29.3694840  34.7454430
 128.3276270  14.4091670  32.6228410 128.8569030  13.6221470  32.4936360
 128.9604590  15.0882860  32.8563940 130.5214110  14.1466810  35.6773800
 129.8916850  13.4454120  35.8443930 129.9819250  14.9070940  35.4606960
 133.4606060  30.7606040  48.3484410 134.3873370  30.5250310  48.3920370
 133.4456490  31.5878040  47.8670440 141.6951120  30.3031610  35.3458660
 141.8703310  29.6169350  34.7019580 140.9972690  30.8278660  34.9535330
 130.6469670  13.4250790  48.1126290 130.3653940  13.9284390  47.3487110
 131.0289370  12.6272540  47.7468420 129.5378770  30.6926450  32.8993970
 130.2697590  30.4085730  32.3517860 129.7972440  30.4539730  33.7893350
 128.6993560  26.8091180  32.9040300 128.0702440  27.2776280  33.4526130
 128.8141390  25.9640400  33.3386490 137.2485130  12.8404370  48.6906760
 137.1350580  13.1598980  49.5858280 138.0654870  13.2416880  48.3944040
 140.0283620  29.9875900  48.1725450 140.8208940  29.4925130  47.9651410
 140.3216770  30.6666040  48.7801060 136.1543280  20.8596840  19.0541500
 136.0737330  19.9451450  18.7833210 135.7407700  21.3563910  18.3481210
 134.2861320  22.6375860  20.9350770 133.5103420  22.1576300  21.2249340
 134.9374250  21.9581510  20.7606930 128.3027150  22.9495670  21.8126530
 127.4712030  22.6944380  22.2123040 128.9108130  23.0206440  22.5484450
 138.3068750  27.0436050  19.7149900 137.8450280  26.2723290  20.0437070
 139.1194300  27.0702120  20.2202350 128.2828410  26.9835760  22.0084550
 128.5856450  26.0933500  21.8294770 129.0272000  27.5405980  21.7806800
 126.7119100  17.9097560  15.5968920 125.8235800  18.2513530  15.4948800
 126.9960290  17.7097880  14.7049750 124.6752110  20.5103210  21.4808620
 125.2468220  19.7425410  21.4812260 124.6753650  20.8091970  20.5715230
 134.5332060  29.3294060  19.3353890 133.9143500  29.7851560  18.7648330
 135.3883840  29.4845520  18.9343590 133.7270310  25.3133050  20.9420930
 133.6578590  24.3722990  20.7810060 134.4890170  25.4034460  21.5143500
 125.9176980  15.9187570  23.2677550 125.7379820  15.0213320  23.5480310
 125.5157060  16.4659440  23.9424500 134.7575480  18.1203430  21.1689860
 135.1340300  17.2475310  21.0563530 134.6594990  18.4562130  20.2780300
 128.8880490  16.4929060  16.6307300 128.9947240  17.3932790  16.9376060
 127.9772850  16.4447030  16.3401950 138.5399600  15.6153870  18.1018200
 139.3609220  15.1250440  18.1443680 138.5733680  16.2051530  18.8550040
 126.5363650  18.4148070  21.8759890 127.2173760  18.6786440  22.4947290
 126.2211700  17.5748940  22.2097900 130.7288220  19.4615430  20.9632480
 131.2366440  19.9596400  21.6037500 131.2601460  18.6850630  20.7871840
 142.8299150  17.6320620  24.6661830 142.1251320  18.0202330  24.1476940
 143.0957070  18.3270910  25.2682760 129.0124320  14.1013990  25.2295900
 129.0142760  14.6186380  24.4241800 128.1828630  13.6244170  25.2065830
 135.3995410  24.2133300  16.7285800 134.7812680  24.6782750  16.1648520
 135.9118660  24.9060780  17.1455310 130.2627170  23.7409170  23.4069400
 129.9296550  24.3678090  24.0490470 130.4393850  24.2671050  22.6271070
 138.7761080  17.5554250  20.8745740 138.0716650  17.8439140  21.4548850
 139.1373240  18.3654360  20.5145300 128.6939650  15.8123950  23.2366350
 129.0356460  16.6566000  22.9420220 127.7555460  15.9607690  23.3531690
 129.4746270  25.7089970  25.2218580 130.0920270  26.3841050  24.9403030
 128.6139390  26.1177950  25.1306080 124.7678610  24.8989830  14.1025430
 124.3906590  25.3876930  13.3710330 125.0251680  25.5715110  14.7331960
 140.3923860  27.1729380  23.1373220 139.7087380  27.8428490  23.1289890
 140.9318150  27.3710030  22.3718080 141.8448000  17.0009040  21.2654950
 140.8972910  17.0348020  21.3970380 142.1697990  17.8147990  21.6504310
 132.3767540  13.3006220  19.5610940 132.6842520  12.7453110  18.8446440
 131.4468240  13.4350680  19.3783930 137.9282600  29.0173510  21.8518400
 137.9409760  28.6135800  20.9840660 137.3757820  29.7920800  21.7479830
 139.2228020  25.7389730  16.9408570 139.1124350  24.7964060  17.0657990
 139.2196270  26.1005370  17.8271330 137.3268040  23.9203350  23.1801010
 137.7436830  23.7063460  22.3454470 138.0507860  24.1776140  23.7509630
 134.7648300  21.3655050  16.2971060 133.8377580  21.2992430  16.5259530
 134.9173120  22.3035180  16.1826300 134.7517380  17.6372050  13.2938220
 133.8121050  17.7986010  13.3790680 135.0700640  18.3557730  12.7474210
 141.2730140  22.3190570  23.2717250 140.4448770  22.3883660  22.7967380
 141.8680620  22.9044880  22.8033080 138.7945590  22.9275350  16.8006310
 138.1758010  22.5894900  16.1532610 138.7770040  22.2835110  17.5085500
 138.2372150  19.1059890  24.2172120 137.8243330  19.9313600  24.4712110
 137.5048100  18.5204930  24.0248480 130.3704940  21.8919790  19.0790790
 129.9661940  21.1797040  18.5836690 130.4568060  21.5473030  19.9678830
 130.8386640  25.5787350  21.2430000 130.5414930  24.9732820  20.5637780
 131.7886460  25.6164660  21.1319360 129.0833560  18.6663000  22.8589830
 129.6348150  18.7758340  22.0843080 129.5977070  19.0400600  23.5745060
 138.9272250  29.1519220  24.9053100 138.4502810  29.9591410  24.7125710
 138.2434040  28.4997550  25.0579310 129.9305070  25.3169040  27.8937800
 129.0333600  25.5409010  28.1411200 129.9557940  25.4403980  26.9449200
 136.9710290  22.1662160  13.8079060 137.4103570  21.3284590  13.6616880
 137.6838710  22.7991560  13.8943200 128.7576290  22.1882360  26.4695170
 128.6184060  23.0605160  26.8382570 127.8757650  21.8455170  26.3243110
 135.0805670  27.1058230  17.7760300 135.5201580  27.8482560  17.3615690
 135.0192560  27.3484800  18.6999260 130.5556640  28.1304060  28.6780320
 130.5272070  28.5347010  27.8108750 130.3921610  27.2014420  28.5151920
 140.5527430  13.4204970  12.1220100 140.2400090  13.5131800  13.0219170
 141.3139900  13.9986000  12.0717530 127.0709570  20.7864770  16.5797440
 126.9507170  21.5126860  15.9678710 126.7610460  20.0167680  16.1025350
 142.5071460  28.9131160  29.9744490 142.9831180  29.3914050  30.6533570
 143.1278620  28.8448650  29.2489990 124.7094940  23.9579910  22.3866080
 124.7875360  24.0928680  21.4421800 125.3236620  23.2495800  22.5794200
 125.9542570  25.6580100  18.7972260 125.5470650  25.7994690  17.9425860
 126.8455580  25.3740260  18.5943470 141.9104710  26.1044010  27.1344500
 142.0367770  25.8655890  26.2161680 141.9526090  25.2728550  27.6066580
 135.7721450  29.8072010  25.7039310 136.2866120  29.7180020  26.5061740
 134.9290530  30.1531710  25.9967220 137.7475850  30.0927350  15.1323310
 137.5876990  29.8030290  16.0305140 137.5822560  29.3167480  14.5968540
 130.2264230  29.8725880  16.9094930 130.0506710  28.9561420  16.6962730
 129.3719970  30.2313170  17.1492730 137.4501980  27.6014910  13.6921310
 136.7567140  27.5992200  13.0323590 138.1924840  27.1774230  13.2615480
 137.0151910  29.2277620  17.7669800 137.4708860  28.4467000  18.0808420
 137.3544430  29.9384440  18.3110980 141.7628720  18.1576470  28.0994240
 141.1472990  18.6656140  27.5709700 141.4425140  17.2574800  28.0420180
 124.7654460  24.9994080  24.9260540 124.9285500  24.5299440  24.1079910
 125.2306910  24.4917640  25.5909380 129.5373230  14.1299840  19.9621110
 129.0941380  14.9109380  19.6305630 130.0958220  14.4529730  20.6692050
 133.8243040  16.9968360  25.5656430 133.3622410  17.2051380  26.3776370
 133.4221150  16.1827710  25.2627100 138.8247550  18.2177310  26.6953090
 137.9741140  17.9183060  27.0162160 138.6649340  18.4619320  25.7836910
 135.9197260  19.7179060  28.7951880 136.2450670  18.8842810  28.4554110
 136.7077590  20.2407580  28.9430210 132.6532050  13.7510540  14.8426940
 132.0286230  13.7470410  15.5680250 132.5662170  12.8841500  14.4462910
 131.5749130  14.6747170  21.8210710 131.8721460  15.5810000  21.7402730
 132.1234690  14.1865950  21.2070280 129.3287450  19.2533410  17.6902360
 129.1028370  19.0370580  18.5948980 128.5479980  19.6861870  17.3448330
 136.5585210  19.2596780  16.2893010 135.9594100  19.9832580  16.1056630
 137.1064820  19.1973560  15.5069460 131.7686660  20.1518990  28.3562630
 131.6730260  19.2113720  28.2063030 132.6118640  20.3734060  27.9610700
 135.1650080  17.8960320  18.3196290 135.5579650  18.2132520  17.5064980
 135.5266930  17.0172200  18.4340810 126.8997200  16.5632660  26.5096410
 126.5060590  17.4107870  26.7169190 126.2115600  15.9259030  26.7005050
 133.4742250  16.6467630  29.5793150 132.7840570  16.4539830  30.2139240
 134.2174550  16.9302270  30.1117450 124.2014250  14.4861120  20.5426490
 123.9127300  15.0563980  21.2551470 124.9460010  14.0065570  20.9057720
 124.3884480  18.4281240  11.7529210 124.3059150  19.3712000  11.8944200
 124.0367540  18.2856150  10.8741560 135.7505220  20.4866070  22.4147070
 135.0186340  20.9952880  22.7637170 135.3529560  19.6696050  22.1135850
 132.1882610  17.1620270  20.8199560 132.1918670  16.7210220  19.9704100
 133.0833730  17.4837600  20.9271380 128.0384990  17.0446760  19.7793770
 127.6985040  17.5221990  20.5360820 127.2762310  16.5911880  19.4194870
 132.2502760  18.1632350  13.8106320 132.3715580  18.1218830  14.7592140
 131.8651270  19.0256500  13.6553050 136.2131130  15.9399750  21.8270010
 136.2303870  16.3908400  22.6711860 135.9646710  15.0405390  22.0403450
 131.2624260  20.4733490  13.2089620 130.6941160  20.0251740  12.5825530
 131.9713260  20.8326270  12.6754770 139.6401880  13.3531930  27.6656390
 139.9647650  12.6221590  28.1914370 139.6758390  13.0345570  26.7637380
 126.3393440  24.3745510  27.0856350 125.9548230  23.7339180  27.6839310
 126.6505630  25.0781630  27.6551080 132.4890580  21.2222050  22.5664970
 132.8560710  20.7480620  23.3126310 132.2995640  22.0963620  22.9073310
 125.3531070  15.9665740  18.6958440 125.0677990  15.6021410  19.5337060
 125.2909930  15.2346200  18.0821580 130.2789950  20.2630690  24.8849180
 129.9747020  21.1422670  25.1099540 131.2336410  20.3230480  24.9206620
 128.8071740  24.4691680  15.4816030 128.0334000  23.9289300  15.3214750
 129.5366370  23.9498290  15.1433790 139.5659720  23.4657040  21.2742420
 140.2858840  23.9612330  20.8838530 139.3641540  22.7874930  20.6296290
 135.0269660  14.8595000  15.4171810 134.2134270  14.3608170  15.3417120
 134.8331610  15.6993250  15.0008160 134.9478520  23.5366100  27.1611420
 134.8815830  22.6161770  26.9069010 134.3183660  23.6341540  27.8756060
 137.7418050  19.2314650  13.7133970 138.6297670  19.5431880  13.5385310
 137.7123140  18.3586900  13.3214550 128.8509140  24.1372060  19.1194840
 129.3687810  23.3340320  19.0651730 128.3993160  24.0751200  19.9611670
 133.7378640  25.4038340  14.3922140 134.0794340  26.1480570  13.8965460
 132.9091350  25.7169460  14.7546970 126.3353680  21.1033430  26.0320540
 125.9768620  21.7687280  26.6193880 126.0408240  20.2716980  26.4033160
 129.5366800  21.5617670  28.9160090 129.2366940  21.7074850  28.0187910
 130.3078040  21.0022960  28.8233480 134.8795250  26.3586670  26.9115220
 134.8939790  25.4267630  26.6934130 134.1720350  26.4446430  27.5504990
 140.0132320  20.5426490  13.1813830 139.9296040  20.9740710  12.3310270
 140.7326510  21.0024840  13.6140650 141.0906460  22.9994010  26.2583800
 140.3654650  23.5922790  26.0613190 141.6181920  22.9917550  25.4597170
 141.0419570  27.3968750  15.9095960 140.3995730  26.7424370  16.1839680
 140.6550230  27.8023840  15.1336630 136.6206050  24.7254180  19.7567650
 136.9729870  24.1282310  19.0969020 135.7368380  24.3998410  19.9275900
 132.7069330  25.4851870  17.1638060 133.3940460  26.0321080  17.5445650
 131.9201750  26.0292600  17.1987670 124.8461730  21.1024690  12.6555140
 125.7156580  21.3849490  12.9391060 124.3552050  21.9160560  12.5403950
 132.0096540  22.4897900  16.7763420 132.4659320  23.3003150  17.0023610
 131.6584750  22.1721040  17.6081910 134.3129150  28.0004240  24.0055720
 134.9571370  28.2063620  24.6829140 134.6758590  27.2392640  23.5526570
 127.9108320  12.8335550  17.2485940 127.7822950  12.8253450  18.1970860
 127.0870340  13.1718640  16.8976950 135.5861230  26.0036590  22.7233170
 136.2283460  25.3029750  22.8365340 136.1110580  26.7835030  22.5430060
 139.4316950  26.2885210  12.4472310 139.2054530  25.5715650  13.0396950
 139.0413150  26.0397650  11.6094060 137.3598850  26.8031490  25.9269230
 137.6955090  27.3898180  26.6047150 136.4399190  26.6724200  26.1567020
 125.2132980  30.3152070  13.2216770 125.5730620  30.9141410  12.5674040
 125.0725320  30.8611960  13.9951800 124.9102250  14.5926670  26.7092640
 124.1960770  14.7923590  27.3145250 125.3297290  13.8166240  27.0807440
 139.0133200  24.2057150  14.1086470 138.7254900  24.6669840  14.8964350
 139.8085370  23.7454920  14.3770690 125.1974840  28.5806930  27.6959170
 125.3065960  27.6401670  27.5554560 124.5455400  28.8461680  27.0472900
 133.1887430  26.8522820  29.0957290 132.8684300  26.1332060  29.6402980
 132.5145790  27.5277890  29.1693350 131.2301600  27.6983270  14.0390440
 131.2211700  28.4312960  13.4234950 130.3099960  27.4514850  14.1317400
 126.8308240  22.9198160  14.7837200 126.2236190  23.6597060  14.7932500
 127.3057590  23.0097520  13.9575400 136.4041030  17.0848980  24.4594090
 136.7721850  16.2644190  24.7873660 135.5439230  17.1450870  24.8749740
 139.7703060  16.0405920  15.2681650 139.1416220  16.1451590  14.5539880
 139.2754980  16.2602700  16.0575530 134.2161200  27.7611510  12.7015630
 134.3173180  27.5575500  11.7717610 133.3162940  27.5069790  12.9063410
 131.7387090  18.3191870  16.6839530 131.0303240  18.7878210  17.1253140
 132.0231570  17.6613880  17.3184720 133.3643020  19.7388570  24.6832060
 133.8628270  20.2134390  25.3483910 133.5065970  18.8152090  24.8902090
 135.7702520  15.0442530  18.1235320 135.6470300  15.0628660  17.1744830
 136.7187080  15.0921470  18.2433720 132.8579310  30.2797830  17.3963300
 133.1120810  30.2419220  16.4742670 131.9091790  30.1531160  17.3891550
 129.9422110  16.6276950  14.0590240 130.7912640  17.0647100  13.9930430
 129.5753380  16.9397210  14.8862300 140.5709880  15.9556530  25.5260450
 140.0683480  16.6961930  25.8654260 141.3866540  16.3440530  25.2097240
 138.8631890  21.1989710  18.9721810 137.9222030  21.2139940  19.1469500
 139.1775960  20.4125670  19.4182110 128.8413530  22.8809310  12.5325770
 129.6076800  22.7690670  13.0951200 128.9188220  22.1847280  11.8802540
 127.5360290  20.3134380  13.2158660 127.6163880  19.3661890  13.3276060
 128.4280040  20.6441260  13.3219320 140.8657470  28.3698560  20.6476070
 140.9904890  29.1929730  21.1199880 141.7323030  28.1589290  20.3000220
 128.3375000  30.4629770  20.3193200 129.0737480  29.9145230  20.5901770
 128.7215920  31.3285780  20.1799190 125.2220480  26.5303340  16.1934710
 124.2960260  26.7724480  16.1840120 125.6876910  27.3577600  16.0719460
 127.3433280  29.6475840  29.5078780 128.1446010  29.9687890  29.9214180
 126.8285100  29.2871420  30.2298690 131.4477310  29.6360080  12.1418770
 132.2405920  29.9248910  11.6900560 130.9281660  29.2052250  11.4631250
 136.1797910  25.7555710  29.4554190 135.5736070  25.7787310  28.7149940
 135.8752020  25.0238750  29.9921440 137.6098280  29.4836000  28.0663600
 138.5620030  29.3994020  28.0163840 137.4626500  30.1477710  28.7397390
 140.5007480  28.8630210  13.5655510 140.2148990  28.4495350  12.7509690
 140.3027030  29.7917920  13.4456030 125.0631090  22.1349300  28.4514830
 125.5670110  21.5556580  29.0231060 124.3238510  22.4189530  28.9891200
 131.9654710  24.8563490  12.0061120 131.8605350  24.2415840  12.7322500
 131.7978930  24.3329380  11.2224130 132.1169030  23.5420290  27.9850350
 131.3514700  24.1105290  27.9005020 132.2984990  23.2496500  27.0918580
 135.2057440  23.9183520  12.6103110 134.6567540  24.3652820  13.2545850
 135.8276700  23.4132770  13.1340780 139.2592380  25.2725620  28.5425370
 140.0001850  25.6101380  28.0392830 138.4965060  25.4417680  27.9895140
 127.0954170  20.2778890  29.3464900 127.1359510  19.9792760  30.2550130
 127.9499670  20.6786500  29.1872420 130.8732560  22.8774440  14.5068410
 131.2948980  22.7114310  15.3499800 130.9983400  22.0674670  14.0123550
 129.0359980  18.8570990  27.3139390 128.5056440  18.3661940  26.6862730
 129.7048050  19.2855190  26.7797320 133.3860200  21.9012050  11.7545510
 133.9065860  21.1861070  11.3886660 134.0328600  22.5397920  12.0546020
 137.9338040  23.3240450  27.0780580 138.3479060  23.4785530  27.9271000
 136.9989040  23.4495670  27.2406360 138.4060210  20.6636610  29.0819730
 138.9880980  19.9088930  28.9940210 138.5821980  21.1944050  28.3051210
 129.5232280  15.8233360  27.3936680 129.4289150  15.2054110  26.6687550
 128.9429670  16.5499650  27.1666590 132.2893720  14.3806600  24.4264070
 131.8411020  14.4030860  23.5809620 131.6558920  13.9825620  25.0234370
 132.6953270  23.2760930  25.0476510 133.1141380  24.1193660  24.8752750
 131.7761900  23.4132970  24.8183290 135.0317170  21.0077110  26.4314350
 135.1513380  20.4118250  27.1709190 135.8911170  21.0446800  26.0115650
 137.3705070  21.5614300  25.0076860 136.8440290  22.0856920  24.4042000
 137.7136410  22.1941690  25.6386590 129.7691460  18.9507670  11.4526570
 129.5680520  18.0875030  11.8139910 129.5983510  18.8641030  10.5148170
 130.5460690  29.5813940  26.1634240 130.0081780  30.3060000  25.8442940
 130.7994650  29.1044280  25.3731580 131.7985940  17.5498460  27.6890170
 132.3885630  17.2414310  28.3767990 130.9806180  17.0778210  27.8450070
 136.6179370  17.1664270  27.9223190 135.9294890  16.5045810  27.8573180
 137.3385390  16.7202540  28.3671650 137.2479770  13.7615900  13.9813450
 137.5282060  12.9183800  14.3372870 136.4745500  13.9939010  14.4952200
 128.5674260  16.0508290  11.4404450 128.8700160  16.0575720  10.5323600
 129.3068850  15.7006150  11.9372110 133.4022900  30.8165150  26.4220890
 133.3281600  31.7200290  26.7293260 132.5001740  30.4977050  26.3942960
 131.7859190  14.9942910  12.4260650 131.4381190  14.3166900  11.8463100
 131.9871960  14.5332420  13.2404040 133.9508230  29.9823660  14.0447250
 134.8459020  30.3208630  14.0666010 133.9825860  29.2603070  13.4171530
 127.5904390  25.3550710  12.2734250 128.0279260  25.8980380  12.9291830
 128.0752120  24.5297660  12.2830590 124.8050190  28.1439740  19.7254510
 125.1353200  27.2760800  19.4933150 125.2341190  28.3498260  20.5559470
 129.4012110  26.4748750  17.3856480 129.1007650  26.3513720  18.2860390
 129.2949600  25.6157340  16.9772210 125.2940400  29.0110330  22.4636140
 124.8571390  29.1911130  23.2960290 125.8618080  29.7684950  22.3217860
 140.9302580  28.5127330  26.7513450 140.3304570  28.5719890  26.0077370
 141.0596480  27.5732310  26.8810300 142.1704030  26.2545150  12.0883160
 141.3396990  26.3221800  12.5590390 142.3475860  27.1449270  11.7850020
 141.6260490  22.9992630  14.5917360 142.3879400  23.5689280  14.6977050
 141.6414860  22.4319830  15.3625670 125.1264830  21.5230560  18.8225020
 124.4713670  21.2542200  18.1784720 125.9642780  21.4135040  18.3727000
 142.6320460  23.8542730  19.4359290 143.0029290  23.0710050  19.0295260
 143.2722390  24.5431830  19.2576590 139.6154220  25.2379310  24.8489610
 138.8014060  25.6676470  25.1115400 140.0228420  25.8497720  24.2358660
 141.6779660  23.2927000  11.7489880 141.9528500  24.2005880  11.6209100
 141.4890400  23.2289530  12.6851870 138.0755270  16.3171850  13.0443510
 138.4940150  16.1302830  12.2040170 137.7691330  15.4650900  13.3546440
 141.5745000  21.2295990  16.7419310 141.1988600  20.4623920  16.3100600
 140.8448120  21.6118690  17.2294240 126.1640760  21.9083130  23.3628360
 126.5313800  21.8210530  24.2424380 125.5951580  21.1449680  23.2635220
 140.9644620  20.3767510  26.3758830 140.7330710  20.1480260  25.4756780
 141.2249170  21.2967060  26.3303720 125.7156760  18.8192220  27.2686780
 124.8212810  18.7858980  27.6080490 126.2554310  19.0179010  28.0338030
 139.4032690  15.6023940  29.1538530 140.2802870  15.6107340  29.5372530
 139.4153530  14.8654780  28.5430880 124.3402910  18.7329490  14.7650350
 123.4366990  18.9959690  14.5902010 124.8243530  19.0040660  13.9850310
 140.8495960  19.4553480  20.0426550 141.3733440  18.9616130  19.4116720
 141.4355380  19.5903840  20.7874120 141.0285680  19.5393350  23.5646100
 140.0788390  19.5056890  23.6791090 141.2098690  20.4493460  23.3295870
 126.8830120  17.7895030  12.6744730 127.5921820  17.3678250  12.1892010
 126.1670060  17.8570260  12.0428080 126.5304280  13.8434360  11.7147380
 127.2532410  14.3843300  12.0328600 126.8028800  13.5697780  10.8388920
 140.3395930  18.7126830  15.9818960 140.8355050  18.4797700  16.7667840
 140.1412000  17.8738670  15.5656600 126.2196470  13.0940550  21.6170000
 126.8672660  12.5437930  21.1765160 126.6398310  13.3483700  22.4385810
 141.7683090  17.3487780  18.5156640 141.6582370  17.1943820  19.4538910
 142.5290680  16.8208720  18.2732050 140.1148810  13.2881910  24.9739640
 140.7521030  13.9016050  25.3398830 140.2623700  13.3242570  24.0288870
 142.6573360  15.1795700  11.7562780 143.5822670  15.0476880  11.5481070
 142.6349150  15.2588520  12.7099230 142.7311850  15.9506360  14.3819490
 141.9363350  15.8851480  14.9112400 142.9355130  16.8857000  14.3704840
 139.6730270  29.9897910  18.3757880 140.2689340  29.6682480  17.6992300
 139.9308420  29.5169730  19.1671150 125.9728470  13.2496220  24.3595320
 125.6243290  13.7060040  25.1253500 125.6416170  12.3553350  24.4417750
 127.5792840  26.4215820  28.5248510 127.5362470  26.0508730  29.4062970
 127.7103850  27.3593390  28.6650330 131.2798870  27.9775410  24.1258230
 131.0390230  28.2449970  23.2388750 132.2201510  28.1481140  24.1809090
 133.4853290  14.4408100  27.8814740 133.4242180  15.0329930  28.6310150
 134.4253670  14.3334060  27.7365000 136.1227850  14.0978160  27.5207030
 136.7368260  14.4157450  26.8588110 136.6677410  13.6126750  28.1402890
 142.5403030  29.9969790  24.9268870 142.0461310  30.3938660  24.2096000
 141.9316320  29.3719000  25.3206150 126.6449110  12.7772420  27.6346090
 127.1932100  12.5960470  26.8712200 126.7104420  11.9866530  28.1702400
 127.4180870  29.3678070  25.6446290 126.8241190  29.2362770  26.3836330
 127.4104710  28.5316210  25.1788390 136.8635890  12.6610300  23.8476320
 135.9895730  12.9945410  23.6449250 136.7546640  12.1883480  24.6728190
 137.7707870  14.8681170  25.2318040 137.4421230  14.0532930  24.8519770
 138.7190170  14.8250980  25.1083730 140.2242480  30.6393210  22.2055610
 139.7645450  31.3909020  21.8313630 139.5954940  29.9199680  22.1470410
 127.0493100  26.7336450  24.5954330 126.3227160  26.1141740  24.5280280
 127.1102250  27.1277060  23.7252410 130.6538200  28.9481450  21.3803740
 131.1703220  28.3368810  20.8552000 131.3035580  29.4510230  21.8714750
 133.3933700  29.8389940  22.2072720 133.6811510  29.5844240  21.3305730
 133.9056920  29.2867300  22.7978290 134.6110710  13.5780140  22.7869230
 133.8282500  14.0525640  23.0665990 134.3173640  12.6734970  22.6782410
 139.1631780  14.2803240  20.8318320 139.6039870  14.2248340  19.9839920
 138.8939370  15.1961250  20.9028500 141.0270350  13.9118480  18.8427140
 140.9658750  12.9679700  18.6958160 141.8062380  14.0198570  19.3880600
 125.3323100  30.0510840  17.8051090 125.1645140  29.4181520  18.5032980
 124.4657610  30.2570240  17.4545280 125.9551120  13.8827620  15.3082950
 126.7130480  13.9956500  14.7346980 125.4928290  14.7196820  15.2626380
 132.4964930  15.9966890  18.2985260 131.6839440  15.6223780  17.9581140
 133.0006570  15.2411970  18.6006450 136.9989910  12.6609340  19.5368330
 137.6019280  13.2329550  20.0116850 136.2582900  13.2248780  19.3142230
 140.1424510  13.0630900  14.8108610 140.3375140  13.9614350  15.0776040
 139.3554380  12.8317980  15.3041560 126.9385800  28.7444070  15.2501230
 126.4133420  29.1252100  14.5463190 126.8630380  29.3694840  15.9710940
 128.3276270  14.4091670  13.8484920 128.8569030  13.6221470  13.7192870
 128.9604590  15.0882860  14.0820450 130.5214110  14.1466810  16.9030310
 129.8916850  13.4454120  17.0700440 129.9819250  14.9070940  16.6863470
 133.4606060  30.7606040  29.5740920 134.3873370  30.5250310  29.6176880
 133.4456490  31.5878040  29.0926950 141.6951120  30.3031610  16.5715170
 141.8703310  29.6169350  15.9276090 140.9972690  30.8278660  16.1791840
 130.6469670  13.4250790  29.3382800 130.3653940  13.9284390  28.5743620
 131.0289370  12.6272540  28.9724930 129.5378770  30.6926450  14.1250480
 130.2697590  30.4085730  13.5774370 129.7972440  30.4539730  15.0149860
 128.6993560  26.8091180  14.1296810 128.0702440  27.2776280  14.6782640
 128.8141390  25.9640400  14.5643000 137.2485130  12.8404370  29.9163270
 137.1350580  13.1598980  30.8114790 138.0654870  13.2416880  29.6200550
 140.0283620  29.9875900  29.3981960 140.8208940  29.4925130  29.1907920
 140.3216770  30.6666040  30.0057570 134.2861320  22.6375860   2.1607280
 133.5103420  22.1576300   2.4505850 134.9374250  21.9581510   1.9863440
 128.3027150  22.9495670   3.0383040 127.4712030  22.6944380   3.4379550
 128.9108130  23.0206440   3.7740960 128.2828410  26.9835760   3.2341060
 128.5856450  26.0933500   3.0551280 129.0272000  27.5405980   3.0063310
 124.6752110  20.5103210   2.7065130 125.2468220  19.7425410   2.7068770
 124.6753650  20.8091970   1.7971740 133.7270310  25.3133050   2.1677440
 133.6578590  24.3722990   2.0066570 134.4890170  25.4034460   2.7400010
 125.9176980  15.9187570   4.4934060 125.7379820  15.0213320   4.7736820
 125.5157060  16.4659440   5.1681010 126.5363650  18.4148070   3.1016400
 127.2173760  18.6786440   3.7203800 126.2211700  17.5748940   3.4354410
 130.7288220  19.4615430   2.1888990 131.2366440  19.9596400   2.8294010
 131.2601460  18.6850630   2.0128350 142.8299150  17.6320620   5.8918340
 142.1251320  18.0202330   5.3733450 143.0957070  18.3270910   6.4939270
 129.0124320  14.1013990   6.4552410 129.0142760  14.6186380   5.6498310
 128.1828630  13.6244170   6.4322340 130.2627170  23.7409170   4.6325910
 129.9296550  24.3678090   5.2746980 130.4393850  24.2671050   3.8527580
 138.7761080  17.5554250   2.1002250 138.0716650  17.8439140   2.6805360
 139.1373240  18.3654360   1.7401810 128.6939650  15.8123950   4.4622860
 129.0356460  16.6566000   4.1676730 127.7555460  15.9607690   4.5788200
 129.4746270  25.7089970   6.4475090 130.0920270  26.3841050   6.1659540
 128.6139390  26.1177950   6.3562590 140.3923860  27.1729380   4.3629730
 139.7087380  27.8428490   4.3546400 140.9318150  27.3710030   3.5974590
 141.8448000  17.0009040   2.4911460 140.8972910  17.0348020   2.6226890
 142.1697990  17.8147990   2.8760820 137.9282600  29.0173510   3.0774910
 137.9409760  28.6135800   2.2097170 137.3757820  29.7920800   2.9736340
 137.3268040  23.9203350   4.4057520 137.7436830  23.7063460   3.5710980
 138.0507860  24.1776140   4.9766140 141.2730140  22.3190570   4.4973760
 140.4448770  22.3883660   4.0223890 141.8680620  22.9044880   4.0289590
 138.2372150  19.1059890   5.4428630 137.8243330  19.9313600   5.6968620
 137.5048100  18.5204930   5.2504990 130.8386640  25.5787350   2.4686510
 130.5414930  24.9732820   1.7894290 131.7886460  25.6164660   2.3575870
 129.0833560  18.6663000   4.0846340 129.6348150  18.7758340   3.3099590
 129.5977070  19.0400600   4.8001570 138.9272250  29.1519220   6.1309610
 138.4502810  29.9591410   5.9382220 138.2434040  28.4997550   6.2835820
 129.9305070  25.3169040   9.1194310 129.0333600  25.5409010   9.3667710
 129.9557940  25.4403980   8.1705710 128.7576290  22.1882360   7.6951680
 128.6184060  23.0605160   8.0639080 127.8757650  21.8455170   7.5499620
 130.5556640  28.1304060   9.9036830 130.5272070  28.5347010   9.0365260
 130.3921610  27.2014420   9.7408430 142.5071460  28.9131160  11.2001000
 142.9831180  29.3914050  11.8790080 143.1278620  28.8448650  10.4746500
 124.7094940  23.9579910   3.6122590 124.7875360  24.0928680   2.6678310
 125.3236620  23.2495800   3.8050710 141.9104710  26.1044010   8.3601010
 142.0367770  25.8655890   7.4418190 141.9526090  25.2728550   8.8323090
 135.7721450  29.8072010   6.9295820 136.2866120  29.7180020   7.7318250
 134.9290530  30.1531710   7.2223730 141.7628720  18.1576470   9.3250750
 141.1472990  18.6656140   8.7966210 141.4425140  17.2574800   9.2676690
 124.7654460  24.9994080   6.1517050 124.9285500  24.5299440   5.3336420
 125.2306910  24.4917640   6.8165890 133.8243040  16.9968360   6.7912940
 133.3622410  17.2051380   7.6032880 133.4221150  16.1827710   6.4883610
 138.8247550  18.2177310   7.9209600 137.9741140  17.9183060   8.2418670
 138.6649340  18.4619320   7.0093420 135.9197260  19.7179060  10.0208390
 136.2450670  18.8842810   9.6810620 136.7077590  20.2407580  10.1686720
 131.5749130  14.6747170   3.0467220 131.8721460  15.5810000   2.9659240
 132.1234690  14.1865950   2.4326790 131.7686660  20.1518990   9.5819140
 131.6730260  19.2113720   9.4319540 132.6118640  20.3734060   9.1867210
 126.8997200  16.5632660   7.7352920 126.5060590  17.4107870   7.9425700
 126.2115600  15.9259030   7.9261560 133.4742250  16.6467630  10.8049660
 132.7840570  16.4539830  11.4395750 134.2174550  16.9302270  11.3373960
 124.2014250  14.4861120   1.7683000 123.9127300  15.0563980   2.4807980
 124.9460010  14.0065570   2.1314230 135.7505220  20.4866070   3.6403580
 135.0186340  20.9952880   3.9893680 135.3529560  19.6696050   3.3392360
 136.2131130  15.9399750   3.0526520 136.2303870  16.3908400   3.8968370
 135.9646710  15.0405390   3.2659960 139.6401880  13.3531930   8.8912900
 139.9647650  12.6221590   9.4170880 139.6758390  13.0345570   7.9893890
 126.3393440  24.3745510   8.3112860 125.9548230  23.7339180   8.9095820
 126.6505630  25.0781630   8.8807590 132.4890580  21.2222050   3.7921480
 132.8560710  20.7480620   4.5382820 132.2995640  22.0963620   4.1329820
 130.2789950  20.2630690   6.1105690 129.9747020  21.1422670   6.3356050
 131.2336410  20.3230480   6.1463130 139.5659720  23.4657040   2.4998930
 140.2858840  23.9612330   2.1095040 139.3641540  22.7874930   1.8552800
 134.9478520  23.5366100   8.3867930 134.8815830  22.6161770   8.1325520
 134.3183660  23.6341540   9.1012570 126.3353680  21.1033430   7.2577050
 125.9768620  21.7687280   7.8450390 126.0408240  20.2716980   7.6289670
 129.5366800  21.5617670  10.1416600 129.2366940  21.7074850   9.2444420
 130.3078040  21.0022960  10.0489990 134.8795250  26.3586670   8.1371730
 134.8939790  25.4267630   7.9190640 134.1720350  26.4446430   8.7761500
 141.0906460  22.9994010   7.4840310 140.3654650  23.5922790   7.2869700
 141.6181920  22.9917550   6.6853680 134.3129150  28.0004240   5.2312230
 134.9571370  28.2063620   5.9085650 134.6758590  27.2392640   4.7783080
 135.5861230  26.0036590   3.9489680 136.2283460  25.3029750   4.0621850
 136.1110580  26.7835030   3.7686570 137.3598850  26.8031490   7.1525740
 137.6955090  27.3898180   7.8303660 136.4399190  26.6724200   7.3823530
 124.9102250  14.5926670   7.9349150 124.1960770  14.7923590   8.5401760
 125.3297290  13.8166240   8.3063950 125.1974840  28.5806930   8.9215680
 125.3065960  27.6401670   8.7811070 124.5455400  28.8461680   8.2729410
 133.1887430  26.8522820  10.3213800 132.8684300  26.1332060  10.8659490
 132.5145790  27.5277890  10.3949860 136.4041030  17.0848980   5.6850600
 136.7721850  16.2644190   6.0130170 135.5439230  17.1450870   6.1006250
 133.3643020  19.7388570   5.9088570 133.8628270  20.2134390   6.5740420
 133.5065970  18.8152090   6.1158600 140.5709880  15.9556530   6.7516960
 140.0683480  16.6961930   7.0910770 141.3866540  16.3440530   6.4353750
 127.3433280  29.6475840  10.7335290 128.1446010  29.9687890  11.1470690
 126.8285100  29.2871420  11.4555200 136.1797910  25.7555710  10.6810700
 135.5736070  25.7787310   9.9406450 135.8752020  25.0238750  11.2177950
 137.6098280  29.4836000   9.2920110 138.5620030  29.3994020   9.2420350
 137.4626500  30.1477710   9.9653900 125.0631090  22.1349300   9.6771340
 125.5670110  21.5556580  10.2487570 124.3238510  22.4189530  10.2147710
 132.1169030  23.5420290   9.2106860 131.3514700  24.1105290   9.1261530
 132.2984990  23.2496500   8.3175090 139.2592380  25.2725620   9.7681880
 140.0001850  25.6101380   9.2649340 138.4965060  25.4417680   9.2151650
 127.0954170  20.2778890  10.5721410 127.1359510  19.9792760  11.4806640
 127.9499670  20.6786500  10.4128930 129.0359980  18.8570990   8.5395900
 128.5056440  18.3661940   7.9119240 129.7048050  19.2855190   8.0053830
 137.9338040  23.3240450   8.3037090 138.3479060  23.4785530   9.1527510
 136.9989040  23.4495670   8.4662870 138.4060210  20.6636610  10.3076240
 138.9880980  19.9088930  10.2196720 138.5821980  21.1944050   9.5307720
 129.5232280  15.8233360   8.6193190 129.4289150  15.2054110   7.8944060
 128.9429670  16.5499650   8.3923100 132.2893720  14.3806600   5.6520580
 131.8411020  14.4030860   4.8066130 131.6558920  13.9825620   6.2490880
 132.6953270  23.2760930   6.2733020 133.1141380  24.1193660   6.1009260
 131.7761900  23.4132970   6.0439800 135.0317170  21.0077110   7.6570860
 135.1513380  20.4118250   8.3965700 135.8911170  21.0446800   7.2372160
 137.3705070  21.5614300   6.2333370 136.8440290  22.0856920   5.6298510
 137.7136410  22.1941690   6.8643100 130.5460690  29.5813940   7.3890750
 130.0081780  30.3060000   7.0699450 130.7994650  29.1044280   6.5988090
 131.7985940  17.5498460   8.9146680 132.3885630  17.2414310   9.6024500
 130.9806180  17.0778210   9.0706580 136.6179370  17.1664270   9.1479700
 135.9294890  16.5045810   9.0829690 137.3385390  16.7202540   9.5928160
 133.4022900  30.8165150   7.6477400 133.3281600  31.7200290   7.9549770
 132.5001740  30.4977050   7.6199470 125.2940400  29.0110330   3.6892650
 124.8571390  29.1911130   4.5216800 125.8618080  29.7684950   3.5474370
 140.9302580  28.5127330   7.9769960 140.3304570  28.5719890   7.2333880
 141.0596480  27.5732310   8.1066810 139.6154220  25.2379310   6.0746120
 138.8014060  25.6676470   6.3371910 140.0228420  25.8497720   5.4615170
 126.1640760  21.9083130   4.5884870 126.5313800  21.8210530   5.4680890
 125.5951580  21.1449680   4.4891730 140.9644620  20.3767510   7.6015340
 140.7330710  20.1480260   6.7013290 141.2249170  21.2967060   7.5560230
 125.7156760  18.8192220   8.4943290 124.8212810  18.7858980   8.8337000
 126.2554310  19.0179010   9.2594540 139.4032690  15.6023940  10.3795040
 140.2802870  15.6107340  10.7629040 139.4153530  14.8654780   9.7687390
 141.0285680  19.5393350   4.7902610 140.0788390  19.5056890   4.9047600
 141.2098690  20.4493460   4.5552380 126.2196470  13.0940550   2.8426510
 126.8672660  12.5437930   2.4021670 126.6398310  13.3483700   3.6642320
 140.1148810  13.2881910   6.1996150 140.7521030  13.9016050   6.5655340
 140.2623700  13.3242570   5.2545380 125.9728470  13.2496220   5.5851830
 125.6243290  13.7060040   6.3510010 125.6416170  12.3553350   5.6674260
 127.5792840  26.4215820   9.7505020 127.5362470  26.0508730  10.6319480
 127.7103850  27.3593390   9.8906840 131.2798870  27.9775410   5.3514740
 131.0390230  28.2449970   4.4645260 132.2201510  28.1481140   5.4065600
 133.4853290  14.4408100   9.1071250 133.4242180  15.0329930   9.8566660
 134.4253670  14.3334060   8.9621510 136.1227850  14.0978160   8.7463540
 136.7368260  14.4157450   8.0844620 136.6677410  13.6126750   9.3659400
 142.5403030  29.9969790   6.1525380 142.0461310  30.3938660   5.4352510
 141.9316320  29.3719000   6.5462660 126.6449110  12.7772420   8.8602600
 127.1932100  12.5960470   8.0968710 126.7104420  11.9866530   9.3958910
 127.4180870  29.3678070   6.8702800 126.8241190  29.2362770   7.6092840
 127.4104710  28.5316210   6.4044900 136.8635890  12.6610300   5.0732830
 135.9895730  12.9945410   4.8705760 136.7546640  12.1883480   5.8984700
 137.7707870  14.8681170   6.4574550 137.4421230  14.0532930   6.0776280
 138.7190170  14.8250980   6.3340240 140.2242480  30.6393210   3.4312120
 139.7645450  31.3909020   3.0570140 139.5954940  29.9199680   3.3726920
 127.0493100  26.7336450   5.8210840 126.3227160  26.1141740   5.7536790
 127.1102250  27.1277060   4.9508920 130.6538200  28.9481450   2.6060250
 131.1703220  28.3368810   2.0808510 131.3035580  29.4510230   3.0971260
 133.3933700  29.8389940   3.4329230 133.6811510  29.5844240   2.5562240
 133.9056920  29.2867300   4.0234800 134.6110710  13.5780140   4.0125740
 133.8282500  14.0525640   4.2922500 134.3173640  12.6734970   3.9038920
 133.4606060  30.7606040  10.7997430 134.3873370  30.5250310  10.8433390
 133.4456490  31.5878040  10.3183460 130.6469670  13.4250790  10.5639310
 130.3653940  13.9284390   9.8000130 131.0289370  12.6272540  10.1981440
 137.2485130  12.8404370  11.1419780 137.1350580  13.1598980  12.0371300
 138.0654870  13.2416880  10.8457060 140.0283620  29.9875900  10.6238470
 140.8208940  29.4925130  10.4164430 140.3216770  30.6666040  11.2314080
 138.3068750   8.2692560 151.1354330 137.8450280   7.4979800 151.4641500
 139.1194300   8.2958630 151.6406780 134.5332060  10.5550570 150.7558320
 133.9143500  11.0108070 150.1852760 135.3883840  10.7102030 150.3548020
 135.3995410   5.4389810 148.1490230 134.7812680   5.9039260 147.5852950
 135.9118660   6.1317290 148.5659740 124.7678610   6.1246340 145.5229860
 124.3906590   6.6133440 144.7914760 125.0251680   6.7971620 146.1536390
 139.2228020   6.9646240 148.3613000 139.1124350   6.0220570 148.4862420
 139.2196270   7.3261880 149.2475760 134.7648300   2.5911560 147.7175490
 133.8377580   2.5248940 147.9463960 134.9173120   3.5291690 147.6030730
 138.7945590   4.1531860 148.2210740 138.1758010   3.8151410 147.5737040
 138.7770040   3.5091620 148.9289930 130.3704940   3.1176300 150.4995220
 129.9661940   2.4053550 150.0041120 130.4568060   2.7729540 151.3883260
 136.9710290   3.3918670 145.2283490 137.4103570   2.5541100 145.0821310
 137.6838710   4.0248070 145.3147630 135.0805670   8.3314740 149.1964730
 135.5201580   9.0739070 148.7820120 135.0192560   8.5741310 150.1203690
 125.9542570   6.8836610 150.2176690 125.5470650   7.0251200 149.3630290
 126.8455580   6.5996770 150.0147900 137.7475850  11.3183860 146.5527740
 137.5876990  11.0286800 147.4509570 137.5822560  10.5423990 146.0172970
 130.2264230  11.0982390 148.3299360 130.0506710  10.1817930 148.1167160
 129.3719970  11.4569680 148.5697160 137.4501980   8.8271420 145.1125740
 136.7567140   8.8248710 144.4528020 138.1924840   8.4030740 144.6819910
 137.0151910  10.4534130 149.1874230 137.4708860   9.6723510 149.5012850
 137.3544430  11.1640950 149.7315410 128.8071740   5.6948190 146.9020460
 128.0334000   5.1545810 146.7419180 129.5366370   5.1754800 146.5638220
 128.8509140   5.3628570 150.5399270 129.3687810   4.5596830 150.4856160
 128.3993160   5.3007710 151.3816100 133.7378640   6.6294850 145.8126570
 134.0794340   7.3737080 145.3169890 132.9091350   6.9425970 146.1751400
 140.0132320   1.7683000 144.6018260 139.9296040   2.1997220 143.7514700
 140.7326510   2.2281350 145.0345080 141.0419570   8.6225260 147.3300390
 140.3995730   7.9680880 147.6044110 140.6550230   9.0280350 146.5541060
 136.6206050   5.9510690 151.1772080 136.9729870   5.3538820 150.5173450
 135.7368380   5.6254920 151.3480330 132.7069330   6.7108380 148.5842490
 133.3940460   7.2577590 148.9650080 131.9201750   7.2549110 148.6192100
 124.8461730   2.3281200 144.0759570 125.7156580   2.6106000 144.3595490
 124.3552050   3.1417070 143.9608380 132.0096540   3.7154410 148.1967850
 132.4659320   4.5259660 148.4228040 131.6584750   3.3977550 149.0286340
 139.4316950   7.5141720 143.8676740 139.2054530   6.7972160 144.4601380
 139.0413150   7.2654160 143.0298490 125.2132980  11.5408580 144.6421200
 125.5730620  12.1397920 143.9878470 125.0725320  12.0868470 145.4156230
 139.0133200   5.4313660 145.5290900 138.7254900   5.8926350 146.3168780
 139.8085370   4.9711430 145.7975120 131.2301600   8.9239780 145.4594870
 131.2211700   9.6569470 144.8439380 130.3099960   8.6771360 145.5521830
 126.8308240   4.1454670 146.2041630 126.2236190   4.8853570 146.2136930
 127.3057590   4.2354030 145.3779830 134.2161200   8.9868020 144.1220060
 134.3173180   8.7832010 143.1922040 133.3162940   8.7326300 144.3267840
 132.8579310  11.5054340 148.8167730 133.1120810  11.4675730 147.8947100
 131.9091790  11.3787670 148.8095980 128.8413530   4.1065820 143.9530200
 129.6076800   3.9947180 144.5155630 128.9188220   3.4103790 143.3006970
 128.3375000  11.6886280 151.7397630 129.0737480  11.1401740 152.0106200
 128.7215920  12.5542290 151.6003620 125.2220480   7.7559850 147.6139140
 124.2960260   7.9980990 147.6044550 125.6876910   8.5834110 147.4923890
 131.4477310  10.8616590 143.5623200 132.2405920  11.1505420 143.1104990
 130.9281660  10.4308760 142.8835680 140.5007480  10.0886720 144.9859940
 140.2148990   9.6751860 144.1714120 140.3027030  11.0174430 144.8660460
 131.9654710   6.0820000 143.4265550 131.8605350   5.4672350 144.1526930
 131.7978930   5.5585890 142.6428560 135.2057440   5.1440030 144.0307540
 134.6567540   5.5909330 144.6750280 135.8276700   4.6389280 144.5545210
 130.8732560   4.1030950 145.9272840 131.2948980   3.9370820 146.7704230
 130.9983400   3.2931180 145.4327980 133.3860200   3.1268560 143.1749940
 133.9065860   2.4117580 142.8091090 134.0328600   3.7654430 143.4750450
 133.9508230  11.2080170 145.4651680 134.8459020  11.5465140 145.4870440
 133.9825860  10.4859580 144.8375960 127.5904390   6.5807220 143.6938680
 128.0279260   7.1236890 144.3496260 128.0752120   5.7554170 143.7035020
 124.8050190   9.3696250 151.1458940 125.1353200   8.5017310 150.9137580
 125.2341190   9.5754770 151.9763900 129.4012110   7.7005260 148.8060910
 129.1007650   7.5770230 149.7064820 129.2949600   6.8413850 148.3976640
 142.1704030   7.4801660 143.5087590 141.3396990   7.5478310 143.9794820
 142.3475860   8.3705780 143.2054450 141.6260490   4.2249140 146.0121790
 142.3879400   4.7945790 146.1181480 141.6414860   3.6576340 146.7830100
 125.1264830   2.7487070 150.2429450 124.4713670   2.4798710 149.5989150
 125.9642780   2.6391550 149.7931430 142.6320460   5.0799240 150.8563720
 143.0029290   4.2966560 150.4499690 143.2722390   5.7688340 150.6781020
 141.6779660   4.5183510 143.1694310 141.9528500   5.4262390 143.0413530
 141.4890400   4.4546040 144.1056300 141.5745000   2.4552500 148.1623740
 141.1988600   1.6880430 147.7305030 140.8448120   2.8375200 148.6498670
 139.6730270  11.2154420 149.7962310 140.2689340  10.8938990 149.1196730
 139.9308420  10.7426240 150.5875580 125.3323100  11.2767350 149.2255520
 125.1645140  10.6438030 149.9237410 124.4657610  11.4826750 148.8749710
 126.9385800   9.9700580 146.6705660 126.4133420  10.3508610 145.9667620
 126.8630380  10.5951350 147.3915370 141.6951120  11.5288120 147.9919600
 141.8703310  10.8425860 147.3480520 140.9972690  12.0535170 147.5996270
 129.5378770  11.9182960 145.5454910 130.2697590  11.6342240 144.9978800
 129.7972440  11.6796240 146.4354290 128.6993560   8.0347690 145.5501240
 128.0702440   8.5032790 146.0987070 128.8141390   7.1896910 145.9847430
 134.2861320   3.8632370 133.5811710 133.5103420   3.3832810 133.8710280
 134.9374250   3.1838020 133.4067870 128.3027150   4.1752180 134.4587470
 127.4712030   3.9200890 134.8583980 128.9108130   4.2462950 135.1945390
 138.3068750   8.2692560 132.3610840 137.8450280   7.4979800 132.6898010
 139.1194300   8.2958630 132.8663290 128.2828410   8.2092270 134.6545490
 128.5856450   7.3190010 134.4755710 129.0272000   8.7662490 134.4267740
 134.5332060  10.5550570 131.9814830 133.9143500  11.0108070 131.4109270
 135.3883840  10.7102030 131.5804530 133.7270310   6.5389560 133.5881870
 133.6578590   5.5979500 133.4271000 134.4890170   6.6290970 134.1604440
 135.3995410   5.4389810 129.3746740 134.7812680   5.9039260 128.8109460
 135.9118660   6.1317290 129.7916250 130.2627170   4.9665680 136.0530340
 129.9296550   5.5934600 136.6951410 130.4393850   5.4927560 135.2732010
 129.4746270   6.9346480 137.8679520 130.0920270   7.6097560 137.5863970
 128.6139390   7.3434460 137.7767020 124.7678610   6.1246340 126.7486370
 124.3906590   6.6133440 126.0171270 125.0251680   6.7971620 127.3792900
 140.3923860   8.3985890 135.7834160 139.7087380   9.0685000 135.7750830
 140.9318150   8.5966540 135.0179020 137.9282600  10.2430020 134.4979340
 137.9409760   9.8392310 133.6301600 137.3757820  11.0177310 134.3940770
 139.2228020   6.9646240 129.5869510 139.1124350   6.0220570 129.7118930
 139.2196270   7.3261880 130.4732270 137.3268040   5.1459860 135.8261950
 137.7436830   4.9319970 134.9915410 138.0507860   5.4032650 136.3970570
 134.7648300   2.5911560 128.9432000 133.8377580   2.5248940 129.1720470
 134.9173120   3.5291690 128.8287240 141.2730140   3.5447080 135.9178190
 140.4448770   3.6140170 135.4428320 141.8680620   4.1301390 135.4494020
 138.7945590   4.1531860 129.4467250 138.1758010   3.8151410 128.7993550
 138.7770040   3.5091620 130.1546440 130.3704940   3.1176300 131.7251730
 129.9661940   2.4053550 131.2297630 130.4568060   2.7729540 132.6139770
 130.8386640   6.8043860 133.8890940 130.5414930   6.1989330 133.2098720
 131.7886460   6.8421170 133.7780300 138.9272250  10.3775730 137.5514040
 138.4502810  11.1847920 137.3586650 138.2434040   9.7254060 137.7040250
 129.9305070   6.5425550 140.5398740 129.0333600   6.7665520 140.7872140
 129.9557940   6.6660490 139.5910140 136.9710290   3.3918670 126.4540000
 137.4103570   2.5541100 126.3077820 137.6838710   4.0248070 126.5404140
 128.7576290   3.4138870 139.1156110 128.6184060   4.2861670 139.4843510
 127.8757650   3.0711680 138.9704050 135.0805670   8.3314740 130.4221240
 135.5201580   9.0739070 130.0076630 135.0192560   8.5741310 131.3460200
 130.5556640   9.3560570 141.3241260 130.5272070   9.7603520 140.4569690
 130.3921610   8.4270930 141.1612860 142.5071460  10.1387670 142.6205430
 142.9831180  10.6170560 143.2994510 143.1278620  10.0705160 141.8950930
 124.7094940   5.1836420 135.0327020 124.7875360   5.3185190 134.0882740
 125.3236620   4.4752310 135.2255140 125.9542570   6.8836610 131.4433200
 125.5470650   7.0251200 130.5886800 126.8455580   6.5996770 131.2404410
 141.9104710   7.3300520 139.7805440 142.0367770   7.0912400 138.8622620
 141.9526090   6.4985060 140.2527520 135.7721450  11.0328520 138.3500250
 136.2866120  10.9436530 139.1522680 134.9290530  11.3788220 138.6428160
 137.7475850  11.3183860 127.7784250 137.5876990  11.0286800 128.6766080
 137.5822560  10.5423990 127.2429480 130.2264230  11.0982390 129.5555870
 130.0506710  10.1817930 129.3423670 129.3719970  11.4569680 129.7953670
 137.4501980   8.8271420 126.3382250 136.7567140   8.8248710 125.6784530
 138.1924840   8.4030740 125.9076420 137.0151910  10.4534130 130.4130740
 137.4708860   9.6723510 130.7269360 137.3544430  11.1640950 130.9571920
 124.7654460   6.2250590 137.5721480 124.9285500   5.7555950 136.7540850
 125.2306910   5.7174150 138.2370320 126.3393440   5.6002020 139.7317290
 125.9548230   4.9595690 140.3300250 126.6505630   6.3038140 140.3012020
 132.4890580   2.4478560 135.2125910 132.8560710   1.9737130 135.9587250
 132.2995640   3.3220130 135.5534250 128.8071740   5.6948190 128.1276970
 128.0334000   5.1545810 127.9675690 129.5366370   5.1754800 127.7894730
 139.5659720   4.6913550 133.9203360 140.2858840   5.1868840 133.5299470
 139.3641540   4.0131440 133.2757230 134.9478520   4.7622610 139.8072360
 134.8815830   3.8418280 139.5529950 134.3183660   4.8598050 140.5217000
 128.8509140   5.3628570 131.7655780 129.3687810   4.5596830 131.7112670
 128.3993160   5.3007710 132.6072610 133.7378640   6.6294850 127.0383080
 134.0794340   7.3737080 126.5426400 132.9091350   6.9425970 127.4007910
 129.5366800   2.7874180 141.5621030 129.2366940   2.9331360 140.6648850
 130.3078040   2.2279470 141.4694420 134.8795250   7.5843180 139.5576160
 134.8939790   6.6524140 139.3395070 134.1720350   7.6702940 140.1965930
 140.0132320   1.7683000 125.8274770 139.9296040   2.1997220 124.9771210
 140.7326510   2.2281350 126.2601590 141.0906460   4.2250520 138.9044740
 140.3654650   4.8179300 138.7074130 141.6181920   4.2174060 138.1058110
 141.0419570   8.6225260 128.5556900 140.3995730   7.9680880 128.8300620
 140.6550230   9.0280350 127.7797570 136.6206050   5.9510690 132.4028590
 136.9729870   5.3538820 131.7429960 135.7368380   5.6254920 132.5736840
 132.7069330   6.7108380 129.8099000 133.3940460   7.2577590 130.1906590
 131.9201750   7.2549110 129.8448610 124.8461730   2.3281200 125.3016080
 125.7156580   2.6106000 125.5852000 124.3552050   3.1417070 125.1864890
 132.0096540   3.7154410 129.4224360 132.4659320   4.5259660 129.6484550
 131.6584750   3.3977550 130.2542850 134.3129150   9.2260750 136.6516660
 134.9571370   9.4320130 137.3290080 134.6758590   8.4649150 136.1987510
 135.5861230   7.2293100 135.3694110 136.2283460   6.5286260 135.4826280
 136.1110580   8.0091540 135.1891000 139.4316950   7.5141720 125.0933250
 139.2054530   6.7972160 125.6857890 139.0413150   7.2654160 124.2555000
 137.3598850   8.0288000 138.5730170 137.6955090   8.6154690 139.2508090
 136.4399190   7.8980710 138.8027960 125.2132980  11.5408580 125.8677710
 125.5730620  12.1397920 125.2134980 125.0725320  12.0868470 126.6412740
 139.0133200   5.4313660 126.7547410 138.7254900   5.8926350 127.5425290
 139.8085370   4.9711430 127.0231630 125.1974840   9.8063440 140.3420110
 125.3065960   8.8658180 140.2015500 124.5455400  10.0718190 139.6933840
 133.1887430   8.0779330 141.7418230 132.8684300   7.3588570 142.2863920
 132.5145790   8.7534400 141.8154290 131.2301600   8.9239780 126.6851380
 131.2211700   9.6569470 126.0695890 130.3099960   8.6771360 126.7778340
 126.8308240   4.1454670 127.4298140 126.2236190   4.8853570 127.4393440
 127.3057590   4.2354030 126.6036340 134.2161200   8.9868020 125.3476570
 134.3173180   8.7832010 124.4178550 133.3162940   8.7326300 125.5524350
 132.8579310  11.5054340 130.0424240 133.1120810  11.4675730 129.1203610
 131.9091790  11.3787670 130.0352490 128.8413530   4.1065820 125.1786710
 129.6076800   3.9947180 125.7412140 128.9188220   3.4103790 124.5263480
 140.8657470   9.5955070 133.2937010 140.9904890  10.4186240 133.7660820
 141.7323030   9.3845800 132.9461160 128.3375000  11.6886280 132.9654140
 129.0737480  11.1401740 133.2362710 128.7215920  12.5542290 132.8260130
 125.2220480   7.7559850 128.8395650 124.2960260   7.9980990 128.8301060
 125.6876910   8.5834110 128.7180400 127.3433280  10.8732350 142.1539720
 128.1446010  11.1944400 142.5675120 126.8285100  10.5127930 142.8759630
 131.4477310  10.8616590 124.7879710 132.2405920  11.1505420 124.3361500
 130.9281660  10.4308760 124.1092190 136.1797910   6.9812220 142.1015130
 135.5736070   7.0043820 141.3610880 135.8752020   6.2495260 142.6382380
 137.6098280  10.7092510 140.7124540 138.5620030  10.6250530 140.6624780
 137.4626500  11.3734220 141.3858330 140.5007480  10.0886720 126.2116450
 140.2148990   9.6751860 125.3970630 140.3027030  11.0174430 126.0916970
 125.0631090   3.3605810 141.0975770 125.5670110   2.7813090 141.6692000
 124.3238510   3.6446040 141.6352140 131.9654710   6.0820000 124.6522060
 131.8605350   5.4672350 125.3783440 131.7978930   5.5585890 123.8685070
 132.1169030   4.7676800 140.6311290 131.3514700   5.3361800 140.5465960
 132.2984990   4.4753010 139.7379520 135.2057440   5.1440030 125.2564050
 134.6567540   5.5909330 125.9006790 135.8276700   4.6389280 125.7801720
 139.2592380   6.4982130 141.1886310 140.0001850   6.8357890 140.6853770
 138.4965060   6.6674190 140.6356080 130.8732560   4.1030950 127.1529350
 131.2948980   3.9370820 127.9960740 130.9983400   3.2931180 126.6584490
 133.3860200   3.1268560 124.4006450 133.9065860   2.4117580 124.0347600
 134.0328600   3.7654430 124.7006960 137.9338040   4.5496960 139.7241520
 138.3479060   4.7042040 140.5731940 136.9989040   4.6752180 139.8867300
 132.6953270   4.5017440 137.6937450 133.1141380   5.3450170 137.5213690
 131.7761900   4.6389480 137.4644230 137.3705070   2.7870810 137.6537800
 136.8440290   3.3113430 137.0502940 137.7136410   3.4198200 138.2847530
 130.5460690  10.8070450 138.8095180 130.0081780  11.5316510 138.4903880
 130.7994650  10.3300790 138.0192520 133.4022900  12.0421660 139.0681830
 133.3281600  12.9456800 139.3754200 132.5001740  11.7233560 139.0403900
 133.9508230  11.2080170 126.6908190 134.8459020  11.5465140 126.7126950
 133.9825860  10.4859580 126.0632470 127.5904390   6.5807220 124.9195190
 128.0279260   7.1236890 125.5752770 128.0752120   5.7554170 124.9291530
 124.8050190   9.3696250 132.3715450 125.1353200   8.5017310 132.1394090
 125.2341190   9.5754770 133.2020410 129.4012110   7.7005260 130.0317420
 129.1007650   7.5770230 130.9321330 129.2949600   6.8413850 129.6233150
 125.2940400  10.2366840 135.1097080 124.8571390  10.4167640 135.9421230
 125.8618080  10.9941460 134.9678800 140.9302580   9.7383840 139.3974390
 140.3304570   9.7976400 138.6538310 141.0596480   8.7988820 139.5271240
 142.1704030   7.4801660 124.7344100 141.3396990   7.5478310 125.2051330
 142.3475860   8.3705780 124.4310960 141.6260490   4.2249140 127.2378300
 142.3879400   4.7945790 127.3437990 141.6414860   3.6576340 128.0086610
 125.1264830   2.7487070 131.4685960 124.4713670   2.4798710 130.8245660
 125.9642780   2.6391550 131.0187940 142.6320460   5.0799240 132.0820230
 143.0029290   4.2966560 131.6756200 143.2722390   5.7688340 131.9037530
 139.6154220   6.4635820 137.4950550 138.8014060   6.8932980 137.7576340
 140.0228420   7.0754230 136.8819600 141.6779660   4.5183510 124.3950820
 141.9528500   5.4262390 124.2670040 141.4890400   4.4546040 125.3312810
 141.5745000   2.4552500 129.3880250 141.1988600   1.6880430 128.9561540
 140.8448120   2.8375200 129.8755180 126.1640760   3.1339640 136.0089300
 126.5313800   3.0467040 136.8885320 125.5951580   2.3706190 135.9096160
 139.6730270  11.2154420 131.0218820 140.2689340  10.8938990 130.3453240
 139.9308420  10.7426240 131.8132090 127.5792840   7.6472330 141.1709450
 127.5362470   7.2765240 142.0523910 127.7103850   8.5849900 141.3111270
 131.2798870   9.2031920 136.7719170 131.0390230   9.4706480 135.8849690
 132.2201510   9.3737650 136.8270030 142.5403030  11.2226300 137.5729810
 142.0461310  11.6195170 136.8556940 141.9316320  10.5975510 137.9667090
 127.4180870  10.5934580 138.2907230 126.8241190  10.4619280 139.0297270
 127.4104710   9.7572720 137.8249330 140.2242480  11.8649720 134.8516550
 139.7645450  12.6165530 134.4774570 139.5954940  11.1456190 134.7931350
 127.0493100   7.9592960 137.2415270 126.3227160   7.3398250 137.1741220
 127.1102250   8.3533570 136.3713350 130.6538200  10.1737960 134.0264680
 131.1703220   9.5625320 133.5012940 131.3035580  10.6766740 134.5175690
 133.3933700  11.0646450 134.8533660 133.6811510  10.8100750 133.9766670
 133.9056920  10.5123810 135.4439230 125.3323100  11.2767350 130.4512030
 125.1645140  10.6438030 131.1493920 124.4657610  11.4826750 130.1006220
 126.9385800   9.9700580 127.8962170 126.4133420  10.3508610 127.1924130
 126.8630380  10.5951350 128.6171880 133.4606060  11.9862550 142.2201860
 134.3873370  11.7506820 142.2637820 133.4456490  12.8134550 141.7387890
 141.6951120  11.5288120 129.2176110 141.8703310  10.8425860 128.5737030
 140.9972690  12.0535170 128.8252780 129.5378770  11.9182960 126.7711420
 130.2697590  11.6342240 126.2235310 129.7972440  11.6796240 127.6610800
 128.6993560   8.0347690 126.7757750 128.0702440   8.5032790 127.3243580
 128.8141390   7.1896910 127.2103940 140.0283620  11.2132410 142.0442900
 140.8208940  10.7181640 141.8368860 140.3216770  11.8922550 142.6518510
 134.2861320   3.8632370 114.8068220 133.5103420   3.3832810 115.0966790
 134.9374250   3.1838020 114.6324380 128.3027150   4.1752180 115.6843980
 127.4712030   3.9200890 116.0840490 128.9108130   4.2462950 116.4201900
 138.3068750   8.2692560 113.5867350 137.8450280   7.4979800 113.9154520
 139.1194300   8.2958630 114.0919800 128.2828410   8.2092270 115.8802000
 128.5856450   7.3190010 115.7012220 129.0272000   8.7662490 115.6524250
 134.5332060  10.5550570 113.2071340 133.9143500  11.0108070 112.6365780
 135.3883840  10.7102030 112.8061040 133.7270310   6.5389560 114.8138380
 133.6578590   5.5979500 114.6527510 134.4890170   6.6290970 115.3860950
 135.3995410   5.4389810 110.6003250 134.7812680   5.9039260 110.0365970
 135.9118660   6.1317290 111.0172760 130.2627170   4.9665680 117.2786850
 129.9296550   5.5934600 117.9207920 130.4393850   5.4927560 116.4988520
 129.4746270   6.9346480 119.0936030 130.0920270   7.6097560 118.8120480
 128.6139390   7.3434460 119.0023530 124.7678610   6.1246340 107.9742880
 124.3906590   6.6133440 107.2427780 125.0251680   6.7971620 108.6049410
 140.3923860   8.3985890 117.0090670 139.7087380   9.0685000 117.0007340
 140.9318150   8.5966540 116.2435530 137.9282600  10.2430020 115.7235850
 137.9409760   9.8392310 114.8558110 137.3757820  11.0177310 115.6197280
 139.2228020   6.9646240 110.8126020 139.1124350   6.0220570 110.9375440
 139.2196270   7.3261880 111.6988780 137.3268040   5.1459860 117.0518460
 137.7436830   4.9319970 116.2171920 138.0507860   5.4032650 117.6227080
 134.7648300   2.5911560 110.1688510 133.8377580   2.5248940 110.3976980
 134.9173120   3.5291690 110.0543750 141.2730140   3.5447080 117.1434700
 140.4448770   3.6140170 116.6684830 141.8680620   4.1301390 116.6750530
 138.7945590   4.1531860 110.6723760 138.1758010   3.8151410 110.0250060
 138.7770040   3.5091620 111.3802950 130.3704940   3.1176300 112.9508240
 129.9661940   2.4053550 112.4554140 130.4568060   2.7729540 113.8396280
 130.8386640   6.8043860 115.1147450 130.5414930   6.1989330 114.4355230
 131.7886460   6.8421170 115.0036810 138.9272250  10.3775730 118.7770550
 138.4502810  11.1847920 118.5843160 138.2434040   9.7254060 118.9296760
 129.9305070   6.5425550 121.7655250 129.0333600   6.7665520 122.0128650
 129.9557940   6.6660490 120.8166650 136.9710290   3.3918670 107.6796510
 137.4103570   2.5541100 107.5334330 137.6838710   4.0248070 107.7660650
 128.7576290   3.4138870 120.3412620 128.6184060   4.2861670 120.7100020
 127.8757650   3.0711680 120.1960560 135.0805670   8.3314740 111.6477750
 135.5201580   9.0739070 111.2333140 135.0192560   8.5741310 112.5716710
 130.5556640   9.3560570 122.5497770 130.5272070   9.7603520 121.6826200
 130.3921610   8.4270930 122.3869370 142.5071460  10.1387670 123.8461940
 142.9831180  10.6170560 124.5251020 143.1278620  10.0705160 123.1207440
 124.7094940   5.1836420 116.2583530 124.7875360   5.3185190 115.3139250
 125.3236620   4.4752310 116.4511650 125.9542570   6.8836610 112.6689710
 125.5470650   7.0251200 111.8143310 126.8455580   6.5996770 112.4660920
 141.9104710   7.3300520 121.0061950 142.0367770   7.0912400 120.0879130
 141.9526090   6.4985060 121.4784030 135.7721450  11.0328520 119.5756760
 136.2866120  10.9436530 120.3779190 134.9290530  11.3788220 119.8684670
 137.7475850  11.3183860 109.0040760 137.5876990  11.0286800 109.9022590
 137.5822560  10.5423990 108.4685990 130.2264230  11.0982390 110.7812380
 130.0506710  10.1817930 110.5680180 129.3719970  11.4569680 111.0210180
 137.4501980   8.8271420 107.5638760 136.7567140   8.8248710 106.9041040
 138.1924840   8.4030740 107.1332930 137.0151910  10.4534130 111.6387250
 137.4708860   9.6723510 111.9525870 137.3544430  11.1640950 112.1828430
 124.7654460   6.2250590 118.7977990 124.9285500   5.7555950 117.9797360
 125.2306910   5.7174150 119.4626830 126.3393440   5.6002020 120.9573800
 125.9548230   4.9595690 121.5556760 126.6505630   6.3038140 121.5268530
 132.4890580   2.4478560 116.4382420 132.8560710   1.9737130 117.1843760
 132.2995640   3.3220130 116.7790760 128.8071740   5.6948190 109.3533480
 128.0334000   5.1545810 109.1932200 129.5366370   5.1754800 109.0151240
 139.5659720   4.6913550 115.1459870 140.2858840   5.1868840 114.7555980
 139.3641540   4.0131440 114.5013740 134.9478520   4.7622610 121.0328870
 134.8815830   3.8418280 120.7786460 134.3183660   4.8598050 121.7473510
 128.8509140   5.3628570 112.9912290 129.3687810   4.5596830 112.9369180
 128.3993160   5.3007710 113.8329120 133.7378640   6.6294850 108.2639590
 134.0794340   7.3737080 107.7682910 132.9091350   6.9425970 108.6264420
 129.5366800   2.7874180 122.7877540 129.2366940   2.9331360 121.8905360
 130.3078040   2.2279470 122.6950930 134.8795250   7.5843180 120.7832670
 134.8939790   6.6524140 120.5651580 134.1720350   7.6702940 121.4222440
 140.0132320   1.7683000 107.0531280 139.9296040   2.1997220 106.2027720
 140.7326510   2.2281350 107.4858100 141.0906460   4.2250520 120.1301250
 140.3654650   4.8179300 119.9330640 141.6181920   4.2174060 119.3314620
 141.0419570   8.6225260 109.7813410 140.3995730   7.9680880 110.0557130
 140.6550230   9.0280350 109.0054080 136.6206050   5.9510690 113.6285100
 136.9729870   5.3538820 112.9686470 135.7368380   5.6254920 113.7993350
 132.7069330   6.7108380 111.0355510 133.3940460   7.2577590 111.4163100
 131.9201750   7.2549110 111.0705120 124.8461730   2.3281200 106.5272590
 125.7156580   2.6106000 106.8108510 124.3552050   3.1417070 106.4121400
 132.0096540   3.7154410 110.6480870 132.4659320   4.5259660 110.8741060
 131.6584750   3.3977550 111.4799360 134.3129150   9.2260750 117.8773170
 134.9571370   9.4320130 118.5546590 134.6758590   8.4649150 117.4244020
 135.5861230   7.2293100 116.5950620 136.2283460   6.5286260 116.7082790
 136.1110580   8.0091540 116.4147510 139.4316950   7.5141720 106.3189760
 139.2054530   6.7972160 106.9114400 139.0413150   7.2654160 105.4811510
 137.3598850   8.0288000 119.7986680 137.6955090   8.6154690 120.4764600
 136.4399190   7.8980710 120.0284470 125.2132980  11.5408580 107.0934220
 125.5730620  12.1397920 106.4391490 125.0725320  12.0868470 107.8669250
 139.0133200   5.4313660 107.9803920 138.7254900   5.8926350 108.7681800
 139.8085370   4.9711430 108.2488140 125.1974840   9.8063440 121.5676620
 125.3065960   8.8658180 121.4272010 124.5455400  10.0718190 120.9190350
 133.1887430   8.0779330 122.9674740 132.8684300   7.3588570 123.5120430
 132.5145790   8.7534400 123.0410800 131.2301600   8.9239780 107.9107890
 131.2211700   9.6569470 107.2952400 130.3099960   8.6771360 108.0034850
 126.8308240   4.1454670 108.6554650 126.2236190   4.8853570 108.6649950
 127.3057590   4.2354030 107.8292850 134.2161200   8.9868020 106.5733080
 134.3173180   8.7832010 105.6435060 133.3162940   8.7326300 106.7780860
 132.8579310  11.5054340 111.2680750 133.1120810  11.4675730 110.3460120
 131.9091790  11.3787670 111.2609000 128.8413530   4.1065820 106.4043220
 129.6076800   3.9947180 106.9668650 128.9188220   3.4103790 105.7519990
 140.8657470   9.5955070 114.5193520 140.9904890  10.4186240 114.9917330
 141.7323030   9.3845800 114.1717670 128.3375000  11.6886280 114.1910650
 129.0737480  11.1401740 114.4619220 128.7215920  12.5542290 114.0516640
 125.2220480   7.7559850 110.0652160 124.2960260   7.9980990 110.0557570
 125.6876910   8.5834110 109.9436910 127.3433280  10.8732350 123.3796230
 128.1446010  11.1944400 123.7931630 126.8285100  10.5127930 124.1016140
 131.4477310  10.8616590 106.0136220 132.2405920  11.1505420 105.5618010
 130.9281660  10.4308760 105.3348700 136.1797910   6.9812220 123.3271640
 135.5736070   7.0043820 122.5867390 135.8752020   6.2495260 123.8638890
 137.6098280  10.7092510 121.9381050 138.5620030  10.6250530 121.8881290
 137.4626500  11.3734220 122.6114840 140.5007480  10.0886720 107.4372960
 140.2148990   9.6751860 106.6227140 140.3027030  11.0174430 107.3173480
 125.0631090   3.3605810 122.3232280 125.5670110   2.7813090 122.8948510
 124.3238510   3.6446040 122.8608650 131.9654710   6.0820000 105.8778570
 131.8605350   5.4672350 106.6039950 131.7978930   5.5585890 105.0941580
 132.1169030   4.7676800 121.8567800 131.3514700   5.3361800 121.7722470
 132.2984990   4.4753010 120.9636030 135.2057440   5.1440030 106.4820560
 134.6567540   5.5909330 107.1263300 135.8276700   4.6389280 107.0058230
 139.2592380   6.4982130 122.4142820 140.0001850   6.8357890 121.9110280
 138.4965060   6.6674190 121.8612590 130.8732560   4.1030950 108.3785860
 131.2948980   3.9370820 109.2217250 130.9983400   3.2931180 107.8841000
 133.3860200   3.1268560 105.6262960 133.9065860   2.4117580 105.2604110
 134.0328600   3.7654430 105.9263470 137.9338040   4.5496960 120.9498030
 138.3479060   4.7042040 121.7988450 136.9989040   4.6752180 121.1123810
 132.6953270   4.5017440 118.9193960 133.1141380   5.3450170 118.7470200
 131.7761900   4.6389480 118.6900740 137.3705070   2.7870810 118.8794310
 136.8440290   3.3113430 118.2759450 137.7136410   3.4198200 119.5104040
 130.5460690  10.8070450 120.0351690 130.0081780  11.5316510 119.7160390
 130.7994650  10.3300790 119.2449030 133.4022900  12.0421660 120.2938340
 133.3281600  12.9456800 120.6010710 132.5001740  11.7233560 120.2660410
 133.9508230  11.2080170 107.9164700 134.8459020  11.5465140 107.9383460
 133.9825860  10.4859580 107.2888980 127.5904390   6.5807220 106.1451700
 128.0279260   7.1236890 106.8009280 128.0752120   5.7554170 106.1548040
 124.8050190   9.3696250 113.5971960 125.1353200   8.5017310 113.3650600
 125.2341190   9.5754770 114.4276920 129.4012110   7.7005260 111.2573930
 129.1007650   7.5770230 112.1577840 129.2949600   6.8413850 110.8489660
 125.2940400  10.2366840 116.3353590 124.8571390  10.4167640 117.1677740
 125.8618080  10.9941460 116.1935310 140.9302580   9.7383840 120.6230900
 140.3304570   9.7976400 119.8794820 141.0596480   8.7988820 120.7527750
 142.1704030   7.4801660 105.9600610 141.3396990   7.5478310 106.4307840
 142.3475860   8.3705780 105.6567470 141.6260490   4.2249140 108.4634810
 142.3879400   4.7945790 108.5694500 141.6414860   3.6576340 109.2343120
 125.1264830   2.7487070 112.6942470 124.4713670   2.4798710 112.0502170
 125.9642780   2.6391550 112.2444450 142.6320460   5.0799240 113.3076740
 143.0029290   4.2966560 112.9012710 143.2722390   5.7688340 113.1294040
 139.6154220   6.4635820 118.7207060 138.8014060   6.8932980 118.9832850
 140.0228420   7.0754230 118.1076110 141.6779660   4.5183510 105.6207330
 141.9528500   5.4262390 105.4926550 141.4890400   4.4546040 106.5569320
 141.5745000   2.4552500 110.6136760 141.1988600   1.6880430 110.1818050
 140.8448120   2.8375200 111.1011690 126.1640760   3.1339640 117.2345810
 126.5313800   3.0467040 118.1141830 125.5951580   2.3706190 117.1352670
 139.6730270  11.2154420 112.2475330 140.2689340  10.8938990 111.5709750
 139.9308420  10.7426240 113.0388600 127.5792840   7.6472330 122.3965960
 127.5362470   7.2765240 123.2780420 127.7103850   8.5849900 122.5367780
 131.2798870   9.2031920 117.9975680 131.0390230   9.4706480 117.1106200
 132.2201510   9.3737650 118.0526540 142.5403030  11.2226300 118.7986320
 142.0461310  11.6195170 118.0813450 141.9316320  10.5975510 119.1923600
 127.4180870  10.5934580 119.5163740 126.8241190  10.4619280 120.2553780
 127.4104710   9.7572720 119.0505840 140.2242480  11.8649720 116.0773060
 139.7645450  12.6165530 115.7031080 139.5954940  11.1456190 116.0187860
 127.0493100   7.9592960 118.4671780 126.3227160   7.3398250 118.3997730
 127.1102250   8.3533570 117.5969860 130.6538200  10.1737960 115.2521190
 131.1703220   9.5625320 114.7269450 131.3035580  10.6766740 115.7432200
 133.3933700  11.0646450 116.0790170 133.6811510  10.8100750 115.2023180
 133.9056920  10.5123810 116.6695740 125.3323100  11.2767350 111.6768540
 125.1645140  10.6438030 112.3750430 124.4657610  11.4826750 111.3262730
 126.9385800   9.9700580 109.1218680 126.4133420  10.3508610 108.4180640
 126.8630380  10.5951350 109.8428390 133.4606060  11.9862550 123.4458370
 134.3873370  11.7506820 123.4894330 133.4456490  12.8134550 122.9644400
 141.6951120  11.5288120 110.4432620 141.8703310  10.8425860 109.7993540
 140.9972690  12.0535170 110.0509290 129.5378770  11.9182960 107.9967930
 130.2697590  11.6342240 107.4491820 129.7972440  11.6796240 108.8867310
 128.6993560   8.0347690 108.0014260 128.0702440   8.5032790 108.5500090
 128.8141390   7.1896910 108.4360450 140.0283620  11.2132410 123.2699410
 140.8208940  10.7181640 123.0625370 140.3216770  11.8922550 123.8775020
 134.2861320   3.8632370  96.0324730 133.5103420   3.3832810  96.3223300
 134.9374250   3.1838020  95.8580890 128.3027150   4.1752180  96.9100490
 127.4712030   3.9200890  97.3097000 128.9108130   4.2462950  97.6458410
 138.3068750   8.2692560  94.8123860 137.8450280   7.4979800  95.1411030
 139.1194300   8.2958630  95.3176310 128.2828410   8.2092270  97.1058510
 128.5856450   7.3190010  96.9268730 129.0272000   8.7662490  96.8780760
 134.5332060  10.5550570  94.4327850 133.9143500  11.0108070  93.8622290
 135.3883840  10.7102030  94.0317550 133.7270310   6.5389560  96.0394890
 133.6578590   5.5979500  95.8784020 134.4890170   6.6290970  96.6117460
 135.3995410   5.4389810  91.8259760 134.7812680   5.9039260  91.2622480
 135.9118660   6.1317290  92.2429270 130.2627170   4.9665680  98.5043360
 129.9296550   5.5934600  99.1464430 130.4393850   5.4927560  97.7245030
 129.4746270   6.9346480 100.3192540 130.0920270   7.6097560 100.0376990
 128.6139390   7.3434460 100.2280040 124.7678610   6.1246340  89.1999390
 124.3906590   6.6133440  88.4684290 125.0251680   6.7971620  89.8305920
 140.3923860   8.3985890  98.2347180 139.7087380   9.0685000  98.2263850
 140.9318150   8.5966540  97.4692040 137.9282600  10.2430020  96.9492360
 137.9409760   9.8392310  96.0814620 137.3757820  11.0177310  96.8453790
 139.2228020   6.9646240  92.0382530 139.1124350   6.0220570  92.1631950
 139.2196270   7.3261880  92.9245290 137.3268040   5.1459860  98.2774970
 137.7436830   4.9319970  97.4428430 138.0507860   5.4032650  98.8483590
 134.7648300   2.5911560  91.3945020 133.8377580   2.5248940  91.6233490
 134.9173120   3.5291690  91.2800260 141.2730140   3.5447080  98.3691210
 140.4448770   3.6140170  97.8941340 141.8680620   4.1301390  97.9007040
 138.7945590   4.1531860  91.8980270 138.1758010   3.8151410  91.2506570
 138.7770040   3.5091620  92.6059460 130.3704940   3.1176300  94.1764750
 129.9661940   2.4053550  93.6810650 130.4568060   2.7729540  95.0652790
 130.8386640   6.8043860  96.3403960 130.5414930   6.1989330  95.6611740
 131.7886460   6.8421170  96.2293320 138.9272250  10.3775730 100.0027060
 138.4502810  11.1847920  99.8099670 138.2434040   9.7254060 100.1553270
 129.9305070   6.5425550 102.9911760 129.0333600   6.7665520 103.2385160
 129.9557940   6.6660490 102.0423160 136.9710290   3.3918670  88.9053020
 137.4103570   2.5541100  88.7590840 137.6838710   4.0248070  88.9917160
 128.7576290   3.4138870 101.5669130 128.6184060   4.2861670 101.9356530
 127.8757650   3.0711680 101.4217070 135.0805670   8.3314740  92.8734260
 135.5201580   9.0739070  92.4589650 135.0192560   8.5741310  93.7973220
 130.5556640   9.3560570 103.7754280 130.5272070   9.7603520 102.9082710
 130.3921610   8.4270930 103.6125880 142.5071460  10.1387670 105.0718450
 142.9831180  10.6170560 105.7507530 143.1278620  10.0705160 104.3463950
 124.7094940   5.1836420  97.4840040 124.7875360   5.3185190  96.5395760
 125.3236620   4.4752310  97.6768160 125.9542570   6.8836610  93.8946220
 125.5470650   7.0251200  93.0399820 126.8455580   6.5996770  93.6917430
 141.9104710   7.3300520 102.2318460 142.0367770   7.0912400 101.3135640
 141.9526090   6.4985060 102.7040540 135.7721450  11.0328520 100.8013270
 136.2866120  10.9436530 101.6035700 134.9290530  11.3788220 101.0941180
 137.7475850  11.3183860  90.2297270 137.5876990  11.0286800  91.1279100
 137.5822560  10.5423990  89.6942500 130.2264230  11.0982390  92.0068890
 130.0506710  10.1817930  91.7936690 129.3719970  11.4569680  92.2466690
 137.4501980   8.8271420  88.7895270 136.7567140   8.8248710  88.1297550
 138.1924840   8.4030740  88.3589440 137.0151910  10.4534130  92.8643760
 137.4708860   9.6723510  93.1782380 137.3544430  11.1640950  93.4084940
 124.7654460   6.2250590 100.0234500 124.9285500   5.7555950  99.2053870
 125.2306910   5.7174150 100.6883340 126.3393440   5.6002020 102.1830310
 125.9548230   4.9595690 102.7813270 126.6505630   6.3038140 102.7525040
 132.4890580   2.4478560  97.6638930 132.8560710   1.9737130  98.4100270
 132.2995640   3.3220130  98.0047270 128.8071740   5.6948190  90.5789990
 128.0334000   5.1545810  90.4188710 129.5366370   5.1754800  90.2407750
 139.5659720   4.6913550  96.3716380 140.2858840   5.1868840  95.9812490
 139.3641540   4.0131440  95.7270250 134.9478520   4.7622610 102.2585380
 134.8815830   3.8418280 102.0042970 134.3183660   4.8598050 102.9730020
 128.8509140   5.3628570  94.2168800 129.3687810   4.5596830  94.1625690
 128.3993160   5.3007710  95.0585630 133.7378640   6.6294850  89.4896100
 134.0794340   7.3737080  88.9939420 132.9091350   6.9425970  89.8520930
 129.5366800   2.7874180 104.0134050 129.2366940   2.9331360 103.1161870
 130.3078040   2.2279470 103.9207440 134.8795250   7.5843180 102.0089180
 134.8939790   6.6524140 101.7908090 134.1720350   7.6702940 102.6478950
 140.0132320   1.7683000  88.2787790 139.9296040   2.1997220  87.4284230
 140.7326510   2.2281350  88.7114610 141.0906460   4.2250520 101.3557760
 140.3654650   4.8179300 101.1587150 141.6181920   4.2174060 100.5571130
 141.0419570   8.6225260  91.0069920 140.3995730   7.9680880  91.2813640
 140.6550230   9.0280350  90.2310590 136.6206050   5.9510690  94.8541610
 136.9729870   5.3538820  94.1942980 135.7368380   5.6254920  95.0249860
 132.7069330   6.7108380  92.2612020 133.3940460   7.2577590  92.6419610
 131.9201750   7.2549110  92.2961630 124.8461730   2.3281200  87.7529100
 125.7156580   2.6106000  88.0365020 124.3552050   3.1417070  87.6377910
 132.0096540   3.7154410  91.8737380 132.4659320   4.5259660  92.0997570
 131.6584750   3.3977550  92.7055870 134.3129150   9.2260750  99.1029680
 134.9571370   9.4320130  99.7803100 134.6758590   8.4649150  98.6500530
 135.5861230   7.2293100  97.8207130 136.2283460   6.5286260  97.9339300
 136.1110580   8.0091540  97.6404020 139.4316950   7.5141720  87.5446270
 139.2054530   6.7972160  88.1370910 139.0413150   7.2654160  86.7068020
 137.3598850   8.0288000 101.0243190 137.6955090   8.6154690 101.7021110
 136.4399190   7.8980710 101.2540980 125.2132980  11.5408580  88.3190730
 125.5730620  12.1397920  87.6648000 125.0725320  12.0868470  89.0925760
 139.0133200   5.4313660  89.2060430 138.7254900   5.8926350  89.9938310
 139.8085370   4.9711430  89.4744650 125.1974840   9.8063440 102.7933130
 125.3065960   8.8658180 102.6528520 124.5455400  10.0718190 102.1446860
 133.1887430   8.0779330 104.1931250 132.8684300   7.3588570 104.7376940
 132.5145790   8.7534400 104.2667310 131.2301600   8.9239780  89.1364400
 131.2211700   9.6569470  88.5208910 130.3099960   8.6771360  89.2291360
 126.8308240   4.1454670  89.8811160 126.2236190   4.8853570  89.8906460
 127.3057590   4.2354030  89.0549360 134.2161200   8.9868020  87.7989590
 134.3173180   8.7832010  86.8691570 133.3162940   8.7326300  88.0037370
 132.8579310  11.5054340  92.4937260 133.1120810  11.4675730  91.5716630
 131.9091790  11.3787670  92.4865510 128.8413530   4.1065820  87.6299730
 129.6076800   3.9947180  88.1925160 128.9188220   3.4103790  86.9776500
 140.8657470   9.5955070  95.7450030 140.9904890  10.4186240  96.2173840
 141.7323030   9.3845800  95.3974180 128.3375000  11.6886280  95.4167160
 129.0737480  11.1401740  95.6875730 128.7215920  12.5542290  95.2773150
 125.2220480   7.7559850  91.2908670 124.2960260   7.9980990  91.2814080
 125.6876910   8.5834110  91.1693420 127.3433280  10.8732350 104.6052740
 128.1446010  11.1944400 105.0188140 126.8285100  10.5127930 105.3272650
 131.4477310  10.8616590  87.2392730 132.2405920  11.1505420  86.7874520
 130.9281660  10.4308760  86.5605210 136.1797910   6.9812220 104.5528150
 135.5736070   7.0043820 103.8123900 135.8752020   6.2495260 105.0895400
 137.6098280  10.7092510 103.1637560 138.5620030  10.6250530 103.1137800
 137.4626500  11.3734220 103.8371350 140.5007480  10.0886720  88.6629470
 140.2148990   9.6751860  87.8483650 140.3027030  11.0174430  88.5429990
 125.0631090   3.3605810 103.5488790 125.5670110   2.7813090 104.1205020
 124.3238510   3.6446040 104.0865160 131.9654710   6.0820000  87.1035080
 131.8605350   5.4672350  87.8296460 131.7978930   5.5585890  86.3198090
 132.1169030   4.7676800 103.0824310 131.3514700   5.3361800 102.9978980
 132.2984990   4.4753010 102.1892540 135.2057440   5.1440030  87.7077070
 134.6567540   5.5909330  88.3519810 135.8276700   4.6389280  88.2314740
 139.2592380   6.4982130 103.6399330 140.0001850   6.8357890 103.1366790
 138.4965060   6.6674190 103.0869100 130.8732560   4.1030950  89.6042370
 131.2948980   3.9370820  90.4473760 130.9983400   3.2931180  89.1097510
 133.3860200   3.1268560  86.8519470 133.9065860   2.4117580  86.4860620
 134.0328600   3.7654430  87.1519980 137.9338040   4.5496960 102.1754540
 138.3479060   4.7042040 103.0244960 136.9989040   4.6752180 102.3380320
 132.6953270   4.5017440 100.1450470 133.1141380   5.3450170  99.9726710
 131.7761900   4.6389480  99.9157250 137.3705070   2.7870810 100.1050820
 136.8440290   3.3113430  99.5015960 137.7136410   3.4198200 100.7360550
 130.5460690  10.8070450 101.2608200 130.0081780  11.5316510 100.9416900
 130.7994650  10.3300790 100.4705540 133.4022900  12.0421660 101.5194850
 133.3281600  12.9456800 101.8267220 132.5001740  11.7233560 101.4916920
 133.9508230  11.2080170  89.1421210 134.8459020  11.5465140  89.1639970
 133.9825860  10.4859580  88.5145490 127.5904390   6.5807220  87.3708210
 128.0279260   7.1236890  88.0265790 128.0752120   5.7554170  87.3804550
 124.8050190   9.3696250  94.8228470 125.1353200   8.5017310  94.5907110
 125.2341190   9.5754770  95.6533430 129.4012110   7.7005260  92.4830440
 129.1007650   7.5770230  93.3834350 129.2949600   6.8413850  92.0746170
 125.2940400  10.2366840  97.5610100 124.8571390  10.4167640  98.3934250
 125.8618080  10.9941460  97.4191820 140.9302580   9.7383840 101.8487410
 140.3304570   9.7976400 101.1051330 141.0596480   8.7988820 101.9784260
 142.1704030   7.4801660  87.1857120 141.3396990   7.5478310  87.6564350
 142.3475860   8.3705780  86.8823980 141.6260490   4.2249140  89.6891320
 142.3879400   4.7945790  89.7951010 141.6414860   3.6576340  90.4599630
 125.1264830   2.7487070  93.9198980 124.4713670   2.4798710  93.2758680
 125.9642780   2.6391550  93.4700960 142.6320460   5.0799240  94.5333250
 143.0029290   4.2966560  94.1269220 143.2722390   5.7688340  94.3550550
 139.6154220   6.4635820  99.9463570 138.8014060   6.8932980 100.2089360
 140.0228420   7.0754230  99.3332620 141.6779660   4.5183510  86.8463840
 141.9528500   5.4262390  86.7183060 141.4890400   4.4546040  87.7825830
 141.5745000   2.4552500  91.8393270 141.1988600   1.6880430  91.4074560
 140.8448120   2.8375200  92.3268200 126.1640760   3.1339640  98.4602320
 126.5313800   3.0467040  99.3398340 125.5951580   2.3706190  98.3609180
 139.6730270  11.2154420  93.4731840 140.2689340  10.8938990  92.7966260
 139.9308420  10.7426240  94.2645110 127.5792840   7.6472330 103.6222470
 127.5362470   7.2765240 104.5036930 127.7103850   8.5849900 103.7624290
 131.2798870   9.2031920  99.2232190 131.0390230   9.4706480  98.3362710
 132.2201510   9.3737650  99.2783050 142.5403030  11.2226300 100.0242830
 142.0461310  11.6195170  99.3069960 141.9316320  10.5975510 100.4180110
 127.4180870  10.5934580 100.7420250 126.8241190  10.4619280 101.4810290
 127.4104710   9.7572720 100.2762350 140.2242480  11.8649720  97.3029570
 139.7645450  12.6165530  96.9287590 139.5954940  11.1456190  97.2444370
 127.0493100   7.9592960  99.6928290 126.3227160   7.3398250  99.6254240
 127.1102250   8.3533570  98.8226370 130.6538200  10.1737960  96.4777700
 131.1703220   9.5625320  95.9525960 131.3035580  10.6766740  96.9688710
 133.3933700  11.0646450  97.3046680 133.6811510  10.8100750  96.4279690
 133.9056920  10.5123810  97.8952250 125.3323100  11.2767350  92.9025050
 125.1645140  10.6438030  93.6006940 124.4657610  11.4826750  92.5519240
 126.9385800   9.9700580  90.3475190 126.4133420  10.3508610  89.6437150
 126.8630380  10.5951350  91.0684900 133.4606060  11.9862550 104.6714880
 134.3873370  11.7506820 104.7150840 133.4456490  12.8134550 104.1900910
 141.6951120  11.5288120  91.6689130 141.8703310  10.8425860  91.0250050
 140.9972690  12.0535170  91.2765800 129.5378770  11.9182960  89.2224440
 130.2697590  11.6342240  88.6748330 129.7972440  11.6796240  90.1123820
 128.6993560   8.0347690  89.2270770 128.0702440   8.5032790  89.7756600
 128.8141390   7.1896910  89.6616960 140.0283620  11.2132410 104.4955920
 140.8208940  10.7181640 104.2881880 140.3216770  11.8922550 105.1031530
 134.2861320   3.8632370  77.2581240 133.5103420   3.3832810  77.5479810
 134.9374250   3.1838020  77.0837400 128.3027150   4.1752180  78.1357000
 127.4712030   3.9200890  78.5353510 128.9108130   4.2462950  78.8714920
 138.3068750   8.2692560  76.0380370 137.8450280   7.4979800  76.3667540
 139.1194300   8.2958630  76.5432820 128.2828410   8.2092270  78.3315020
 128.5856450   7.3190010  78.1525240 129.0272000   8.7662490  78.1037270
 134.5332060  10.5550570  75.6584360 133.9143500  11.0108070  75.0878800
 135.3883840  10.7102030  75.2574060 133.7270310   6.5389560  77.2651400
 133.6578590   5.5979500  77.1040530 134.4890170   6.6290970  77.8373970
 135.3995410   5.4389810  73.0516270 134.7812680   5.9039260  72.4878990
 135.9118660   6.1317290  73.4685780 130.2627170   4.9665680  79.7299870
 129.9296550   5.5934600  80.3720940 130.4393850   5.4927560  78.9501540
 129.4746270   6.9346480  81.5449050 130.0920270   7.6097560  81.2633500
 128.6139390   7.3434460  81.4536550 124.7678610   6.1246340  70.4255900
 124.3906590   6.6133440  69.6940800 125.0251680   6.7971620  71.0562430
 140.3923860   8.3985890  79.4603690 139.7087380   9.0685000  79.4520360
 140.9318150   8.5966540  78.6948550 137.9282600  10.2430020  78.1748870
 137.9409760   9.8392310  77.3071130 137.3757820  11.0177310  78.0710300
 139.2228020   6.9646240  73.2639040 139.1124350   6.0220570  73.3888460
 139.2196270   7.3261880  74.1501800 137.3268040   5.1459860  79.5031480
 137.7436830   4.9319970  78.6684940 138.0507860   5.4032650  80.0740100
 134.7648300   2.5911560  72.6201530 133.8377580   2.5248940  72.8490000
 134.9173120   3.5291690  72.5056770 141.2730140   3.5447080  79.5947720
 140.4448770   3.6140170  79.1197850 141.8680620   4.1301390  79.1263550
 138.7945590   4.1531860  73.1236780 138.1758010   3.8151410  72.4763080
 138.7770040   3.5091620  73.8315970 130.3704940   3.1176300  75.4021260
 129.9661940   2.4053550  74.9067160 130.4568060   2.7729540  76.2909300
 130.8386640   6.8043860  77.5660470 130.5414930   6.1989330  76.8868250
 131.7886460   6.8421170  77.4549830 138.9272250  10.3775730  81.2283570
 138.4502810  11.1847920  81.0356180 138.2434040   9.7254060  81.3809780
 129.9305070   6.5425550  84.2168270 129.0333600   6.7665520  84.4641670
 129.9557940   6.6660490  83.2679670 136.9710290   3.3918670  70.1309530
 137.4103570   2.5541100  69.9847350 137.6838710   4.0248070  70.2173670
 128.7576290   3.4138870  82.7925640 128.6184060   4.2861670  83.1613040
 127.8757650   3.0711680  82.6473580 135.0805670   8.3314740  74.0990770
 135.5201580   9.0739070  73.6846160 135.0192560   8.5741310  75.0229730
 130.5556640   9.3560570  85.0010790 130.5272070   9.7603520  84.1339220
 130.3921610   8.4270930  84.8382390 142.5071460  10.1387670  86.2974960
 142.9831180  10.6170560  86.9764040 143.1278620  10.0705160  85.5720460
 124.7094940   5.1836420  78.7096550 124.7875360   5.3185190  77.7652270
 125.3236620   4.4752310  78.9024670 125.9542570   6.8836610  75.1202730
 125.5470650   7.0251200  74.2656330 126.8455580   6.5996770  74.9173940
 141.9104710   7.3300520  83.4574970 142.0367770   7.0912400  82.5392150
 141.9526090   6.4985060  83.9297050 135.7721450  11.0328520  82.0269780
 136.2866120  10.9436530  82.8292210 134.9290530  11.3788220  82.3197690
 137.7475850  11.3183860  71.4553780 137.5876990  11.0286800  72.3535610
 137.5822560  10.5423990  70.9199010 130.2264230  11.0982390  73.2325400
 130.0506710  10.1817930  73.0193200 129.3719970  11.4569680  73.4723200
 137.4501980   8.8271420  70.0151780 136.7567140   8.8248710  69.3554060
 138.1924840   8.4030740  69.5845950 137.0151910  10.4534130  74.0900270
 137.4708860   9.6723510  74.4038890 137.3544430  11.1640950  74.6341450
 124.7654460   6.2250590  81.2491010 124.9285500   5.7555950  80.4310380
 125.2306910   5.7174150  81.9139850 126.3393440   5.6002020  83.4086820
 125.9548230   4.9595690  84.0069780 126.6505630   6.3038140  83.9781550
 132.4890580   2.4478560  78.8895440 132.8560710   1.9737130  79.6356780
 132.2995640   3.3220130  79.2303780 128.8071740   5.6948190  71.8046500
 128.0334000   5.1545810  71.6445220 129.5366370   5.1754800  71.4664260
 139.5659720   4.6913550  77.5972890 140.2858840   5.1868840  77.2069000
 139.3641540   4.0131440  76.9526760 134.9478520   4.7622610  83.4841890
 134.8815830   3.8418280  83.2299480 134.3183660   4.8598050  84.1986530
 128.8509140   5.3628570  75.4425310 129.3687810   4.5596830  75.3882200
 128.3993160   5.3007710  76.2842140 133.7378640   6.6294850  70.7152610
 134.0794340   7.3737080  70.2195930 132.9091350   6.9425970  71.0777440
 129.5366800   2.7874180  85.2390560 129.2366940   2.9331360  84.3418380
 130.3078040   2.2279470  85.1463950 134.8795250   7.5843180  83.2345690
 134.8939790   6.6524140  83.0164600 134.1720350   7.6702940  83.8735460
 140.0132320   1.7683000  69.5044300 139.9296040   2.1997220  68.6540740
 140.7326510   2.2281350  69.9371120 141.0906460   4.2250520  82.5814270
 140.3654650   4.8179300  82.3843660 141.6181920   4.2174060  81.7827640
 141.0419570   8.6225260  72.2326430 140.3995730   7.9680880  72.5070150
 140.6550230   9.0280350  71.4567100 136.6206050   5.9510690  76.0798120
 136.9729870   5.3538820  75.4199490 135.7368380   5.6254920  76.2506370
 132.7069330   6.7108380  73.4868530 133.3940460   7.2577590  73.8676120
 131.9201750   7.2549110  73.5218140 124.8461730   2.3281200  68.9785610
 125.7156580   2.6106000  69.2621530 124.3552050   3.1417070  68.8634420
 132.0096540   3.7154410  73.0993890 132.4659320   4.5259660  73.3254080
 131.6584750   3.3977550  73.9312380 134.3129150   9.2260750  80.3286190
 134.9571370   9.4320130  81.0059610 134.6758590   8.4649150  79.8757040
 135.5861230   7.2293100  79.0463640 136.2283460   6.5286260  79.1595810
 136.1110580   8.0091540  78.8660530 139.4316950   7.5141720  68.7702780
 139.2054530   6.7972160  69.3627420 139.0413150   7.2654160  67.9324530
 137.3598850   8.0288000  82.2499700 137.6955090   8.6154690  82.9277620
 136.4399190   7.8980710  82.4797490 125.2132980  11.5408580  69.5447240
 125.5730620  12.1397920  68.8904510 125.0725320  12.0868470  70.3182270
 139.0133200   5.4313660  70.4316940 138.7254900   5.8926350  71.2194820
 139.8085370   4.9711430  70.7001160 125.1974840   9.8063440  84.0189640
 125.3065960   8.8658180  83.8785030 124.5455400  10.0718190  83.3703370
 133.1887430   8.0779330  85.4187760 132.8684300   7.3588570  85.9633450
 132.5145790   8.7534400  85.4923820 131.2301600   8.9239780  70.3620910
 131.2211700   9.6569470  69.7465420 130.3099960   8.6771360  70.4547870
 126.8308240   4.1454670  71.1067670 126.2236190   4.8853570  71.1162970
 127.3057590   4.2354030  70.2805870 134.2161200   8.9868020  69.0246100
 134.3173180   8.7832010  68.0948080 133.3162940   8.7326300  69.2293880
 132.8579310  11.5054340  73.7193770 133.1120810  11.4675730  72.7973140
 131.9091790  11.3787670  73.7122020 128.8413530   4.1065820  68.8556240
 129.6076800   3.9947180  69.4181670 128.9188220   3.4103790  68.2033010
 140.8657470   9.5955070  76.9706540 140.9904890  10.4186240  77.4430350
 141.7323030   9.3845800  76.6230690 128.3375000  11.6886280  76.6423670
 129.0737480  11.1401740  76.9132240 128.7215920  12.5542290  76.5029660
 125.2220480   7.7559850  72.5165180 124.2960260   7.9980990  72.5070590
 125.6876910   8.5834110  72.3949930 127.3433280  10.8732350  85.8309250
 128.1446010  11.1944400  86.2444650 126.8285100  10.5127930  86.5529160
 131.4477310  10.8616590  68.4649240 132.2405920  11.1505420  68.0131030
 130.9281660  10.4308760  67.7861720 136.1797910   6.9812220  85.7784660
 135.5736070   7.0043820  85.0380410 135.8752020   6.2495260  86.3151910
 137.6098280  10.7092510  84.3894070 138.5620030  10.6250530  84.3394310
 137.4626500  11.3734220  85.0627860 140.5007480  10.0886720  69.8885980
 140.2148990   9.6751860  69.0740160 140.3027030  11.0174430  69.7686500
 125.0631090   3.3605810  84.7745300 125.5670110   2.7813090  85.3461530
 124.3238510   3.6446040  85.3121670 131.9654710   6.0820000  68.3291590
 131.8605350   5.4672350  69.0552970 131.7978930   5.5585890  67.5454600
 132.1169030   4.7676800  84.3080820 131.3514700   5.3361800  84.2235490
 132.2984990   4.4753010  83.4149050 135.2057440   5.1440030  68.9333580
 134.6567540   5.5909330  69.5776320 135.8276700   4.6389280  69.4571250
 139.2592380   6.4982130  84.8655840 140.0001850   6.8357890  84.3623300
 138.4965060   6.6674190  84.3125610 130.8732560   4.1030950  70.8298880
 131.2948980   3.9370820  71.6730270 130.9983400   3.2931180  70.3354020
 133.3860200   3.1268560  68.0775980 133.9065860   2.4117580  67.7117130
 134.0328600   3.7654430  68.3776490 137.9338040   4.5496960  83.4011050
 138.3479060   4.7042040  84.2501470 136.9989040   4.6752180  83.5636830
 132.6953270   4.5017440  81.3706980 133.1141380   5.3450170  81.1983220
 131.7761900   4.6389480  81.1413760 137.3705070   2.7870810  81.3307330
 136.8440290   3.3113430  80.7272470 137.7136410   3.4198200  81.9617060
 130.5460690  10.8070450  82.4864710 130.0081780  11.5316510  82.1673410
 130.7994650  10.3300790  81.6962050 133.4022900  12.0421660  82.7451360
 133.3281600  12.9456800  83.0523730 132.5001740  11.7233560  82.7173430
 133.9508230  11.2080170  70.3677720 134.8459020  11.5465140  70.3896480
 133.9825860  10.4859580  69.7402000 127.5904390   6.5807220  68.5964720
 128.0279260   7.1236890  69.2522300 128.0752120   5.7554170  68.6061060
 124.8050190   9.3696250  76.0484980 125.1353200   8.5017310  75.8163620
 125.2341190   9.5754770  76.8789940 129.4012110   7.7005260  73.7086950
 129.1007650   7.5770230  74.6090860 129.2949600   6.8413850  73.3002680
 125.2940400  10.2366840  78.7866610 124.8571390  10.4167640  79.6190760
 125.8618080  10.9941460  78.6448330 140.9302580   9.7383840  83.0743920
 140.3304570   9.7976400  82.3307840 141.0596480   8.7988820  83.2040770
 142.1704030   7.4801660  68.4113630 141.3396990   7.5478310  68.8820860
 142.3475860   8.3705780  68.1080490 141.6260490   4.2249140  70.9147830
 142.3879400   4.7945790  71.0207520 141.6414860   3.6576340  71.6856140
 125.1264830   2.7487070  75.1455490 124.4713670   2.4798710  74.5015190
 125.9642780   2.6391550  74.6957470 142.6320460   5.0799240  75.7589760
 143.0029290   4.2966560  75.3525730 143.2722390   5.7688340  75.5807060
 139.6154220   6.4635820  81.1720080 138.8014060   6.8932980  81.4345870
 140.0228420   7.0754230  80.5589130 141.6779660   4.5183510  68.0720350
 141.9528500   5.4262390  67.9439570 141.4890400   4.4546040  69.0082340
 141.5745000   2.4552500  73.0649780 141.1988600   1.6880430  72.6331070
 140.8448120   2.8375200  73.5524710 126.1640760   3.1339640  79.6858830
 126.5313800   3.0467040  80.5654850 125.5951580   2.3706190  79.5865690
 139.6730270  11.2154420  74.6988350 140.2689340  10.8938990  74.0222770
 139.9308420  10.7426240  75.4901620 127.5792840   7.6472330  84.8478980
 127.5362470   7.2765240  85.7293440 127.7103850   8.5849900  84.9880800
 131.2798870   9.2031920  80.4488700 131.0390230   9.4706480  79.5619220
 132.2201510   9.3737650  80.5039560 142.5403030  11.2226300  81.2499340
 142.0461310  11.6195170  80.5326470 141.9316320  10.5975510  81.6436620
 127.4180870  10.5934580  81.9676760 126.8241190  10.4619280  82.7066800
 127.4104710   9.7572720  81.5018860 140.2242480  11.8649720  78.5286080
 139.7645450  12.6165530  78.1544100 139.5954940  11.1456190  78.4700880
 127.0493100   7.9592960  80.9184800 126.3227160   7.3398250  80.8510750
 127.1102250   8.3533570  80.0482880 130.6538200  10.1737960  77.7034210
 131.1703220   9.5625320  77.1782470 131.3035580  10.6766740  78.1945220
 133.3933700  11.0646450  78.5303190 133.6811510  10.8100750  77.6536200
 133.9056920  10.5123810  79.1208760 125.3323100  11.2767350  74.1281560
 125.1645140  10.6438030  74.8263450 124.4657610  11.4826750  73.7775750
 126.9385800   9.9700580  71.5731700 126.4133420  10.3508610  70.8693660
 126.8630380  10.5951350  72.2941410 133.4606060  11.9862550  85.8971390
 134.3873370  11.7506820  85.9407350 133.4456490  12.8134550  85.4157420
 141.6951120  11.5288120  72.8945640 141.8703310  10.8425860  72.2506560
 140.9972690  12.0535170  72.5022310 129.5378770  11.9182960  70.4480950
 130.2697590  11.6342240  69.9004840 129.7972440  11.6796240  71.3380330
 128.6993560   8.0347690  70.4527280 128.0702440   8.5032790  71.0013110
 128.8141390   7.1896910  70.8873470 140.0283620  11.2132410  85.7212430
 140.8208940  10.7181640  85.5138390 140.3216770  11.8922550  86.3288040
 134.2861320   3.8632370  58.4837750 133.5103420   3.3832810  58.7736320
 134.9374250   3.1838020  58.3093910 128.3027150   4.1752180  59.3613510
 127.4712030   3.9200890  59.7610020 128.9108130   4.2462950  60.0971430
 138.3068750   8.2692560  57.2636880 137.8450280   7.4979800  57.5924050
 139.1194300   8.2958630  57.7689330 128.2828410   8.2092270  59.5571530
 128.5856450   7.3190010  59.3781750 129.0272000   8.7662490  59.3293780
 134.5332060  10.5550570  56.8840870 133.9143500  11.0108070  56.3135310
 135.3883840  10.7102030  56.4830570 133.7270310   6.5389560  58.4907910
 133.6578590   5.5979500  58.3297040 134.4890170   6.6290970  59.0630480
 135.3995410   5.4389810  54.2772780 134.7812680   5.9039260  53.7135500
 135.9118660   6.1317290  54.6942290 130.2627170   4.9665680  60.9556380
 129.9296550   5.5934600  61.5977450 130.4393850   5.4927560  60.1758050
 129.4746270   6.9346480  62.7705560 130.0920270   7.6097560  62.4890010
 128.6139390   7.3434460  62.6793060 124.7678610   6.1246340  51.6512410
 124.3906590   6.6133440  50.9197310 125.0251680   6.7971620  52.2818940
 140.3923860   8.3985890  60.6860200 139.7087380   9.0685000  60.6776870
 140.9318150   8.5966540  59.9205060 137.9282600  10.2430020  59.4005380
 137.9409760   9.8392310  58.5327640 137.3757820  11.0177310  59.2966810
 139.2228020   6.9646240  54.4895550 139.1124350   6.0220570  54.6144970
 139.2196270   7.3261880  55.3758310 137.3268040   5.1459860  60.7287990
 137.7436830   4.9319970  59.8941450 138.0507860   5.4032650  61.2996610
 134.7648300   2.5911560  53.8458040 133.8377580   2.5248940  54.0746510
 134.9173120   3.5291690  53.7313280 141.2730140   3.5447080  60.8204230
 140.4448770   3.6140170  60.3454360 141.8680620   4.1301390  60.3520060
 138.7945590   4.1531860  54.3493290 138.1758010   3.8151410  53.7019590
 138.7770040   3.5091620  55.0572480 130.3704940   3.1176300  56.6277770
 129.9661940   2.4053550  56.1323670 130.4568060   2.7729540  57.5165810
 130.8386640   6.8043860  58.7916980 130.5414930   6.1989330  58.1124760
 131.7886460   6.8421170  58.6806340 138.9272250  10.3775730  62.4540080
 138.4502810  11.1847920  62.2612690 138.2434040   9.7254060  62.6066290
 129.9305070   6.5425550  65.4424780 129.0333600   6.7665520  65.6898180
 129.9557940   6.6660490  64.4936180 136.9710290   3.3918670  51.3566040
 137.4103570   2.5541100  51.2103860 137.6838710   4.0248070  51.4430180
 128.7576290   3.4138870  64.0182150 128.6184060   4.2861670  64.3869550
 127.8757650   3.0711680  63.8730090 135.0805670   8.3314740  55.3247280
 135.5201580   9.0739070  54.9102670 135.0192560   8.5741310  56.2486240
 130.5556640   9.3560570  66.2267300 130.5272070   9.7603520  65.3595730
 130.3921610   8.4270930  66.0638900 142.5071460  10.1387670  67.5231470
 142.9831180  10.6170560  68.2020550 143.1278620  10.0705160  66.7976970
 124.7094940   5.1836420  59.9353060 124.7875360   5.3185190  58.9908780
 125.3236620   4.4752310  60.1281180 125.9542570   6.8836610  56.3459240
 125.5470650   7.0251200  55.4912840 126.8455580   6.5996770  56.1430450
 141.9104710   7.3300520  64.6831480 142.0367770   7.0912400  63.7648660
 141.9526090   6.4985060  65.1553560 135.7721450  11.0328520  63.2526290
 136.2866120  10.9436530  64.0548720 134.9290530  11.3788220  63.5454200
 137.7475850  11.3183860  52.6810290 137.5876990  11.0286800  53.5792120
 137.5822560  10.5423990  52.1455520 130.2264230  11.0982390  54.4581910
 130.0506710  10.1817930  54.2449710 129.3719970  11.4569680  54.6979710
 137.4501980   8.8271420  51.2408290 136.7567140   8.8248710  50.5810570
 138.1924840   8.4030740  50.8102460 137.0151910  10.4534130  55.3156780
 137.4708860   9.6723510  55.6295400 137.3544430  11.1640950  55.8597960
 124.7654460   6.2250590  62.4747520 124.9285500   5.7555950  61.6566890
 125.2306910   5.7174150  63.1396360 126.3393440   5.6002020  64.6343330
 125.9548230   4.9595690  65.2326290 126.6505630   6.3038140  65.2038060
 132.4890580   2.4478560  60.1151950 132.8560710   1.9737130  60.8613290
 132.2995640   3.3220130  60.4560290 128.8071740   5.6948190  53.0303010
 128.0334000   5.1545810  52.8701730 129.5366370   5.1754800  52.6920770
 139.5659720   4.6913550  58.8229400 140.2858840   5.1868840  58.4325510
 139.3641540   4.0131440  58.1783270 134.9478520   4.7622610  64.7098400
 134.8815830   3.8418280  64.4555990 134.3183660   4.8598050  65.4243040
 128.8509140   5.3628570  56.6681820 129.3687810   4.5596830  56.6138710
 128.3993160   5.3007710  57.5098650 133.7378640   6.6294850  51.9409120
 134.0794340   7.3737080  51.4452440 132.9091350   6.9425970  52.3033950
 129.5366800   2.7874180  66.4647070 129.2366940   2.9331360  65.5674890
 130.3078040   2.2279470  66.3720460 134.8795250   7.5843180  64.4602200
 134.8939790   6.6524140  64.2421110 134.1720350   7.6702940  65.0991970
 140.0132320   1.7683000  50.7300810 139.9296040   2.1997220  49.8797250
 140.7326510   2.2281350  51.1627630 141.0906460   4.2250520  63.8070780
 140.3654650   4.8179300  63.6100170 141.6181920   4.2174060  63.0084150
 141.0419570   8.6225260  53.4582940 140.3995730   7.9680880  53.7326660
 140.6550230   9.0280350  52.6823610 136.6206050   5.9510690  57.3054630
 136.9729870   5.3538820  56.6456000 135.7368380   5.6254920  57.4762880
 132.7069330   6.7108380  54.7125040 133.3940460   7.2577590  55.0932630
 131.9201750   7.2549110  54.7474650 124.8461730   2.3281200  50.2042120
 125.7156580   2.6106000  50.4878040 124.3552050   3.1417070  50.0890930
 132.0096540   3.7154410  54.3250400 132.4659320   4.5259660  54.5510590
 131.6584750   3.3977550  55.1568890 134.3129150   9.2260750  61.5542700
 134.9571370   9.4320130  62.2316120 134.6758590   8.4649150  61.1013550
 135.5861230   7.2293100  60.2720150 136.2283460   6.5286260  60.3852320
 136.1110580   8.0091540  60.0917040 139.4316950   7.5141720  49.9959290
 139.2054530   6.7972160  50.5883930 139.0413150   7.2654160  49.1581040
 137.3598850   8.0288000  63.4756210 137.6955090   8.6154690  64.1534130
 136.4399190   7.8980710  63.7054000 125.2132980  11.5408580  50.7703750
 125.5730620  12.1397920  50.1161020 125.0725320  12.0868470  51.5438780
 139.0133200   5.4313660  51.6573450 138.7254900   5.8926350  52.4451330
 139.8085370   4.9711430  51.9257670 125.1974840   9.8063440  65.2446150
 125.3065960   8.8658180  65.1041540 124.5455400  10.0718190  64.5959880
 133.1887430   8.0779330  66.6444270 132.8684300   7.3588570  67.1889960
 132.5145790   8.7534400  66.7180330 131.2301600   8.9239780  51.5877420
 131.2211700   9.6569470  50.9721930 130.3099960   8.6771360  51.6804380
 126.8308240   4.1454670  52.3324180 126.2236190   4.8853570  52.3419480
 127.3057590   4.2354030  51.5062380 134.2161200   8.9868020  50.2502610
 134.3173180   8.7832010  49.3204590 133.3162940   8.7326300  50.4550390
 132.8579310  11.5054340  54.9450280 133.1120810  11.4675730  54.0229650
 131.9091790  11.3787670  54.9378530 128.8413530   4.1065820  50.0812750
 129.6076800   3.9947180  50.6438180 128.9188220   3.4103790  49.4289520
 140.8657470   9.5955070  58.1963050 140.9904890  10.4186240  58.6686860
 141.7323030   9.3845800  57.8487200 128.3375000  11.6886280  57.8680180
 129.0737480  11.1401740  58.1388750 128.7215920  12.5542290  57.7286170
 125.2220480   7.7559850  53.7421690 124.2960260   7.9980990  53.7327100
 125.6876910   8.5834110  53.6206440 127.3433280  10.8732350  67.0565760
 128.1446010  11.1944400  67.4701160 126.8285100  10.5127930  67.7785670
 131.4477310  10.8616590  49.6905750 132.2405920  11.1505420  49.2387540
 130.9281660  10.4308760  49.0118230 136.1797910   6.9812220  67.0041170
 135.5736070   7.0043820  66.2636920 135.8752020   6.2495260  67.5408420
 137.6098280  10.7092510  65.6150580 138.5620030  10.6250530  65.5650820
 137.4626500  11.3734220  66.2884370 140.5007480  10.0886720  51.1142490
 140.2148990   9.6751860  50.2996670 140.3027030  11.0174430  50.9943010
 125.0631090   3.3605810  66.0001810 125.5670110   2.7813090  66.5718040
 124.3238510   3.6446040  66.5378180 131.9654710   6.0820000  49.5548100
 131.8605350   5.4672350  50.2809480 131.7978930   5.5585890  48.7711110
 132.1169030   4.7676800  65.5337330 131.3514700   5.3361800  65.4492000
 132.2984990   4.4753010  64.6405560 135.2057440   5.1440030  50.1590090
 134.6567540   5.5909330  50.8032830 135.8276700   4.6389280  50.6827760
 139.2592380   6.4982130  66.0912350 140.0001850   6.8357890  65.5879810
 138.4965060   6.6674190  65.5382120 130.8732560   4.1030950  52.0555390
 131.2948980   3.9370820  52.8986780 130.9983400   3.2931180  51.5610530
 133.3860200   3.1268560  49.3032490 133.9065860   2.4117580  48.9373640
 134.0328600   3.7654430  49.6033000 137.9338040   4.5496960  64.6267560
 138.3479060   4.7042040  65.4757980 136.9989040   4.6752180  64.7893340
 132.6953270   4.5017440  62.5963490 133.1141380   5.3450170  62.4239730
 131.7761900   4.6389480  62.3670270 137.3705070   2.7870810  62.5563840
 136.8440290   3.3113430  61.9528980 137.7136410   3.4198200  63.1873570
 130.5460690  10.8070450  63.7121220 130.0081780  11.5316510  63.3929920
 130.7994650  10.3300790  62.9218560 133.4022900  12.0421660  63.9707870
 133.3281600  12.9456800  64.2780240 132.5001740  11.7233560  63.9429940
 133.9508230  11.2080170  51.5934230 134.8459020  11.5465140  51.6152990
 133.9825860  10.4859580  50.9658510 127.5904390   6.5807220  49.8221230
 128.0279260   7.1236890  50.4778810 128.0752120   5.7554170  49.8317570
 124.8050190   9.3696250  57.2741490 125.1353200   8.5017310  57.0420130
 125.2341190   9.5754770  58.1046450 129.4012110   7.7005260  54.9343460
 129.1007650   7.5770230  55.8347370 129.2949600   6.8413850  54.5259190
 125.2940400  10.2366840  60.0123120 124.8571390  10.4167640  60.8447270
 125.8618080  10.9941460  59.8704840 140.9302580   9.7383840  64.3000430
 140.3304570   9.7976400  63.5564350 141.0596480   8.7988820  64.4297280
 142.1704030   7.4801660  49.6370140 141.3396990   7.5478310  50.1077370
 142.3475860   8.3705780  49.3337000 141.6260490   4.2249140  52.1404340
 142.3879400   4.7945790  52.2464030 141.6414860   3.6576340  52.9112650
 125.1264830   2.7487070  56.3712000 124.4713670   2.4798710  55.7271700
 125.9642780   2.6391550  55.9213980 142.6320460   5.0799240  56.9846270
 143.0029290   4.2966560  56.5782240 143.2722390   5.7688340  56.8063570
 139.6154220   6.4635820  62.3976590 138.8014060   6.8932980  62.6602380
 140.0228420   7.0754230  61.7845640 141.6779660   4.5183510  49.2976860
 141.9528500   5.4262390  49.1696080 141.4890400   4.4546040  50.2338850
 141.5745000   2.4552500  54.2906290 141.1988600   1.6880430  53.8587580
 140.8448120   2.8375200  54.7781220 126.1640760   3.1339640  60.9115340
 126.5313800   3.0467040  61.7911360 125.5951580   2.3706190  60.8122200
 139.6730270  11.2154420  55.9244860 140.2689340  10.8938990  55.2479280
 139.9308420  10.7426240  56.7158130 127.5792840   7.6472330  66.0735490
 127.5362470   7.2765240  66.9549950 127.7103850   8.5849900  66.2137310
 131.2798870   9.2031920  61.6745210 131.0390230   9.4706480  60.7875730
 132.2201510   9.3737650  61.7296070 142.5403030  11.2226300  62.4755850
 142.0461310  11.6195170  61.7582980 141.9316320  10.5975510  62.8693130
 127.4180870  10.5934580  63.1933270 126.8241190  10.4619280  63.9323310
 127.4104710   9.7572720  62.7275370 140.2242480  11.8649720  59.7542590
 139.7645450  12.6165530  59.3800610 139.5954940  11.1456190  59.6957390
 127.0493100   7.9592960  62.1441310 126.3227160   7.3398250  62.0767260
 127.1102250   8.3533570  61.2739390 130.6538200  10.1737960  58.9290720
 131.1703220   9.5625320  58.4038980 131.3035580  10.6766740  59.4201730
 133.3933700  11.0646450  59.7559700 133.6811510  10.8100750  58.8792710
 133.9056920  10.5123810  60.3465270 125.3323100  11.2767350  55.3538070
 125.1645140  10.6438030  56.0519960 124.4657610  11.4826750  55.0032260
 126.9385800   9.9700580  52.7988210 126.4133420  10.3508610  52.0950170
 126.8630380  10.5951350  53.5197920 133.4606060  11.9862550  67.1227900
 134.3873370  11.7506820  67.1663860 133.4456490  12.8134550  66.6413930
 141.6951120  11.5288120  54.1202150 141.8703310  10.8425860  53.4763070
 140.9972690  12.0535170  53.7278820 129.5378770  11.9182960  51.6737460
 130.2697590  11.6342240  51.1261350 129.7972440  11.6796240  52.5636840
 128.6993560   8.0347690  51.6783790 128.0702440   8.5032790  52.2269620
 128.8141390   7.1896910  52.1129980 140.0283620  11.2132410  66.9468940
 140.8208940  10.7181640  66.7394900 140.3216770  11.8922550  67.5544550
 134.2861320   3.8632370  39.7094260 133.5103420   3.3832810  39.9992830
 134.9374250   3.1838020  39.5350420 128.3027150   4.1752180  40.5870020
 127.4712030   3.9200890  40.9866530 128.9108130   4.2462950  41.3227940
 138.3068750   8.2692560  38.4893390 137.8450280   7.4979800  38.8180560
 139.1194300   8.2958630  38.9945840 128.2828410   8.2092270  40.7828040
 128.5856450   7.3190010  40.6038260 129.0272000   8.7662490  40.5550290
 134.5332060  10.5550570  38.1097380 133.9143500  11.0108070  37.5391820
 135.3883840  10.7102030  37.7087080 133.7270310   6.5389560  39.7164420
 133.6578590   5.5979500  39.5553550 134.4890170   6.6290970  40.2886990
 135.3995410   5.4389810  35.5029290 134.7812680   5.9039260  34.9392010
 135.9118660   6.1317290  35.9198800 130.2627170   4.9665680  42.1812890
 129.9296550   5.5934600  42.8233960 130.4393850   5.4927560  41.4014560
 129.4746270   6.9346480  43.9962070 130.0920270   7.6097560  43.7146520
 128.6139390   7.3434460  43.9049570 124.7678610   6.1246340  32.8768920
 124.3906590   6.6133440  32.1453820 125.0251680   6.7971620  33.5075450
 140.3923860   8.3985890  41.9116710 139.7087380   9.0685000  41.9033380
 140.9318150   8.5966540  41.1461570 137.9282600  10.2430020  40.6261890
 137.9409760   9.8392310  39.7584150 137.3757820  11.0177310  40.5223320
 139.2228020   6.9646240  35.7152060 139.1124350   6.0220570  35.8401480
 139.2196270   7.3261880  36.6014820 137.3268040   5.1459860  41.9544500
 137.7436830   4.9319970  41.1197960 138.0507860   5.4032650  42.5253120
 134.7648300   2.5911560  35.0714550 133.8377580   2.5248940  35.3003020
 134.9173120   3.5291690  34.9569790 141.2730140   3.5447080  42.0460740
 140.4448770   3.6140170  41.5710870 141.8680620   4.1301390  41.5776570
 138.7945590   4.1531860  35.5749800 138.1758010   3.8151410  34.9276100
 138.7770040   3.5091620  36.2828990 130.3704940   3.1176300  37.8534280
 129.9661940   2.4053550  37.3580180 130.4568060   2.7729540  38.7422320
 130.8386640   6.8043860  40.0173490 130.5414930   6.1989330  39.3381270
 131.7886460   6.8421170  39.9062850 138.9272250  10.3775730  43.6796590
 138.4502810  11.1847920  43.4869200 138.2434040   9.7254060  43.8322800
 129.9305070   6.5425550  46.6681290 129.0333600   6.7665520  46.9154690
 129.9557940   6.6660490  45.7192690 136.9710290   3.3918670  32.5822550
 137.4103570   2.5541100  32.4360370 137.6838710   4.0248070  32.6686690
 128.7576290   3.4138870  45.2438660 128.6184060   4.2861670  45.6126060
 127.8757650   3.0711680  45.0986600 135.0805670   8.3314740  36.5503790
 135.5201580   9.0739070  36.1359180 135.0192560   8.5741310  37.4742750
 130.5556640   9.3560570  47.4523810 130.5272070   9.7603520  46.5852240
 130.3921610   8.4270930  47.2895410 142.5071460  10.1387670  48.7487980
 142.9831180  10.6170560  49.4277060 143.1278620  10.0705160  48.0233480
 124.7094940   5.1836420  41.1609570 124.7875360   5.3185190  40.2165290
 125.3236620   4.4752310  41.3537690 125.9542570   6.8836610  37.5715750
 125.5470650   7.0251200  36.7169350 126.8455580   6.5996770  37.3686960
 141.9104710   7.3300520  45.9087990 142.0367770   7.0912400  44.9905170
 141.9526090   6.4985060  46.3810070 135.7721450  11.0328520  44.4782800
 136.2866120  10.9436530  45.2805230 134.9290530  11.3788220  44.7710710
 137.7475850  11.3183860  33.9066800 137.5876990  11.0286800  34.8048630
 137.5822560  10.5423990  33.3712030 130.2264230  11.0982390  35.6838420
 130.0506710  10.1817930  35.4706220 129.3719970  11.4569680  35.9236220
 137.4501980   8.8271420  32.4664800 136.7567140   8.8248710  31.8067080
 138.1924840   8.4030740  32.0358970 137.0151910  10.4534130  36.5413290
 137.4708860   9.6723510  36.8551910 137.3544430  11.1640950  37.0854470
 124.7654460   6.2250590  43.7004030 124.9285500   5.7555950  42.8823400
 125.2306910   5.7174150  44.3652870 126.3393440   5.6002020  45.8599840
 125.9548230   4.9595690  46.4582800 126.6505630   6.3038140  46.4294570
 132.4890580   2.4478560  41.3408460 132.8560710   1.9737130  42.0869800
 132.2995640   3.3220130  41.6816800 128.8071740   5.6948190  34.2559520
 128.0334000   5.1545810  34.0958240 129.5366370   5.1754800  33.9177280
 139.5659720   4.6913550  40.0485910 140.2858840   5.1868840  39.6582020
 139.3641540   4.0131440  39.4039780 134.9478520   4.7622610  45.9354910
 134.8815830   3.8418280  45.6812500 134.3183660   4.8598050  46.6499550
 128.8509140   5.3628570  37.8938330 129.3687810   4.5596830  37.8395220
 128.3993160   5.3007710  38.7355160 133.7378640   6.6294850  33.1665630
 134.0794340   7.3737080  32.6708950 132.9091350   6.9425970  33.5290460
 129.5366800   2.7874180  47.6903580 129.2366940   2.9331360  46.7931400
 130.3078040   2.2279470  47.5976970 134.8795250   7.5843180  45.6858710
 134.8939790   6.6524140  45.4677620 134.1720350   7.6702940  46.3248480
 140.0132320   1.7683000  31.9557320 139.9296040   2.1997220  31.1053760
 140.7326510   2.2281350  32.3884140 141.0906460   4.2250520  45.0327290
 140.3654650   4.8179300  44.8356680 141.6181920   4.2174060  44.2340660
 141.0419570   8.6225260  34.6839450 140.3995730   7.9680880  34.9583170
 140.6550230   9.0280350  33.9080120 136.6206050   5.9510690  38.5311140
 136.9729870   5.3538820  37.8712510 135.7368380   5.6254920  38.7019390
 132.7069330   6.7108380  35.9381550 133.3940460   7.2577590  36.3189140
 131.9201750   7.2549110  35.9731160 124.8461730   2.3281200  31.4298630
 125.7156580   2.6106000  31.7134550 124.3552050   3.1417070  31.3147440
 132.0096540   3.7154410  35.5506910 132.4659320   4.5259660  35.7767100
 131.6584750   3.3977550  36.3825400 134.3129150   9.2260750  42.7799210
 134.9571370   9.4320130  43.4572630 134.6758590   8.4649150  42.3270060
 135.5861230   7.2293100  41.4976660 136.2283460   6.5286260  41.6108830
 136.1110580   8.0091540  41.3173550 139.4316950   7.5141720  31.2215800
 139.2054530   6.7972160  31.8140440 139.0413150   7.2654160  30.3837550
 137.3598850   8.0288000  44.7012720 137.6955090   8.6154690  45.3790640
 136.4399190   7.8980710  44.9310510 125.2132980  11.5408580  31.9960260
 125.5730620  12.1397920  31.3417530 125.0725320  12.0868470  32.7695290
 139.0133200   5.4313660  32.8829960 138.7254900   5.8926350  33.6707840
 139.8085370   4.9711430  33.1514180 125.1974840   9.8063440  46.4702660
 125.3065960   8.8658180  46.3298050 124.5455400  10.0718190  45.8216390
 133.1887430   8.0779330  47.8700780 132.8684300   7.3588570  48.4146470
 132.5145790   8.7534400  47.9436840 131.2301600   8.9239780  32.8133930
 131.2211700   9.6569470  32.1978440 130.3099960   8.6771360  32.9060890
 126.8308240   4.1454670  33.5580690 126.2236190   4.8853570  33.5675990
 127.3057590   4.2354030  32.7318890 134.2161200   8.9868020  31.4759120
 134.3173180   8.7832010  30.5461100 133.3162940   8.7326300  31.6806900
 132.8579310  11.5054340  36.1706790 133.1120810  11.4675730  35.2486160
 131.9091790  11.3787670  36.1635040 128.8413530   4.1065820  31.3069260
 129.6076800   3.9947180  31.8694690 128.9188220   3.4103790  30.6546030
 140.8657470   9.5955070  39.4219560 140.9904890  10.4186240  39.8943370
 141.7323030   9.3845800  39.0743710 128.3375000  11.6886280  39.0936690
 129.0737480  11.1401740  39.3645260 128.7215920  12.5542290  38.9542680
 125.2220480   7.7559850  34.9678200 124.2960260   7.9980990  34.9583610
 125.6876910   8.5834110  34.8462950 127.3433280  10.8732350  48.2822270
 128.1446010  11.1944400  48.6957670 126.8285100  10.5127930  49.0042180
 131.4477310  10.8616590  30.9162260 132.2405920  11.1505420  30.4644050
 130.9281660  10.4308760  30.2374740 136.1797910   6.9812220  48.2297680
 135.5736070   7.0043820  47.4893430 135.8752020   6.2495260  48.7664930
 137.6098280  10.7092510  46.8407090 138.5620030  10.6250530  46.7907330
 137.4626500  11.3734220  47.5140880 140.5007480  10.0886720  32.3399000
 140.2148990   9.6751860  31.5253180 140.3027030  11.0174430  32.2199520
 125.0631090   3.3605810  47.2258320 125.5670110   2.7813090  47.7974550
 124.3238510   3.6446040  47.7634690 131.9654710   6.0820000  30.7804610
 131.8605350   5.4672350  31.5065990 131.7978930   5.5585890  29.9967620
 132.1169030   4.7676800  46.7593840 131.3514700   5.3361800  46.6748510
 132.2984990   4.4753010  45.8662070 135.2057440   5.1440030  31.3846600
 134.6567540   5.5909330  32.0289340 135.8276700   4.6389280  31.9084270
 139.2592380   6.4982130  47.3168860 140.0001850   6.8357890  46.8136320
 138.4965060   6.6674190  46.7638630 130.8732560   4.1030950  33.2811900
 131.2948980   3.9370820  34.1243290 130.9983400   3.2931180  32.7867040
 133.3860200   3.1268560  30.5289000 133.9065860   2.4117580  30.1630150
 134.0328600   3.7654430  30.8289510 137.9338040   4.5496960  45.8524070
 138.3479060   4.7042040  46.7014490 136.9989040   4.6752180  46.0149850
 132.6953270   4.5017440  43.8220000 133.1141380   5.3450170  43.6496240
 131.7761900   4.6389480  43.5926780 137.3705070   2.7870810  43.7820350
 136.8440290   3.3113430  43.1785490 137.7136410   3.4198200  44.4130080
 130.5460690  10.8070450  44.9377730 130.0081780  11.5316510  44.6186430
 130.7994650  10.3300790  44.1475070 133.4022900  12.0421660  45.1964380
 133.3281600  12.9456800  45.5036750 132.5001740  11.7233560  45.1686450
 133.9508230  11.2080170  32.8190740 134.8459020  11.5465140  32.8409500
 133.9825860  10.4859580  32.1915020 127.5904390   6.5807220  31.0477740
 128.0279260   7.1236890  31.7035320 128.0752120   5.7554170  31.0574080
 124.8050190   9.3696250  38.4998000 125.1353200   8.5017310  38.2676640
 125.2341190   9.5754770  39.3302960 129.4012110   7.7005260  36.1599970
 129.1007650   7.5770230  37.0603880 129.2949600   6.8413850  35.7515700
 125.2940400  10.2366840  41.2379630 124.8571390  10.4167640  42.0703780
 125.8618080  10.9941460  41.0961350 140.9302580   9.7383840  45.5256940
 140.3304570   9.7976400  44.7820860 141.0596480   8.7988820  45.6553790
 142.1704030   7.4801660  30.8626650 141.3396990   7.5478310  31.3333880
 142.3475860   8.3705780  30.5593510 141.6260490   4.2249140  33.3660850
 142.3879400   4.7945790  33.4720540 141.6414860   3.6576340  34.1369160
 125.1264830   2.7487070  37.5968510 124.4713670   2.4798710  36.9528210
 125.9642780   2.6391550  37.1470490 142.6320460   5.0799240  38.2102780
 143.0029290   4.2966560  37.8038750 143.2722390   5.7688340  38.0320080
 139.6154220   6.4635820  43.6233100 138.8014060   6.8932980  43.8858890
 140.0228420   7.0754230  43.0102150 141.6779660   4.5183510  30.5233370
 141.9528500   5.4262390  30.3952590 141.4890400   4.4546040  31.4595360
 141.5745000   2.4552500  35.5162800 141.1988600   1.6880430  35.0844090
 140.8448120   2.8375200  36.0037730 126.1640760   3.1339640  42.1371850
 126.5313800   3.0467040  43.0167870 125.5951580   2.3706190  42.0378710
 139.6730270  11.2154420  37.1501370 140.2689340  10.8938990  36.4735790
 139.9308420  10.7426240  37.9414640 127.5792840   7.6472330  47.2992000
 127.5362470   7.2765240  48.1806460 127.7103850   8.5849900  47.4393820
 131.2798870   9.2031920  42.9001720 131.0390230   9.4706480  42.0132240
 132.2201510   9.3737650  42.9552580 142.5403030  11.2226300  43.7012360
 142.0461310  11.6195170  42.9839490 141.9316320  10.5975510  44.0949640
 127.4180870  10.5934580  44.4189780 126.8241190  10.4619280  45.1579820
 127.4104710   9.7572720  43.9531880 140.2242480  11.8649720  40.9799100
 139.7645450  12.6165530  40.6057120 139.5954940  11.1456190  40.9213900
 127.0493100   7.9592960  43.3697820 126.3227160   7.3398250  43.3023770
 127.1102250   8.3533570  42.4995900 130.6538200  10.1737960  40.1547230
 131.1703220   9.5625320  39.6295490 131.3035580  10.6766740  40.6458240
 133.3933700  11.0646450  40.9816210 133.6811510  10.8100750  40.1049220
 133.9056920  10.5123810  41.5721780 125.3323100  11.2767350  36.5794580
 125.1645140  10.6438030  37.2776470 124.4657610  11.4826750  36.2288770
 126.9385800   9.9700580  34.0244720 126.4133420  10.3508610  33.3206680
 126.8630380  10.5951350  34.7454430 133.4606060  11.9862550  48.3484410
 134.3873370  11.7506820  48.3920370 133.4456490  12.8134550  47.8670440
 141.6951120  11.5288120  35.3458660 141.8703310  10.8425860  34.7019580
 140.9972690  12.0535170  34.9535330 129.5378770  11.9182960  32.8993970
 130.2697590  11.6342240  32.3517860 129.7972440  11.6796240  33.7893350
 128.6993560   8.0347690  32.9040300 128.0702440   8.5032790  33.4526130
 128.8141390   7.1896910  33.3386490 140.0283620  11.2132410  48.1725450
 140.8208940  10.7181640  47.9651410 140.3216770  11.8922550  48.7801060
 134.2861320   3.8632370  20.9350770 133.5103420   3.3832810  21.2249340
 134.9374250   3.1838020  20.7606930 128.3027150   4.1752180  21.8126530
 127.4712030   3.9200890  22.2123040 128.9108130   4.2462950  22.5484450
 138.3068750   8.2692560  19.7149900 137.8450280   7.4979800  20.0437070
 139.1194300   8.2958630  20.2202350 128.2828410   8.2092270  22.0084550
 128.5856450   7.3190010  21.8294770 129.0272000   8.7662490  21.7806800
 134.5332060  10.5550570  19.3353890 133.9143500  11.0108070  18.7648330
 135.3883840  10.7102030  18.9343590 133.7270310   6.5389560  20.9420930
 133.6578590   5.5979500  20.7810060 134.4890170   6.6290970  21.5143500
 135.3995410   5.4389810  16.7285800 134.7812680   5.9039260  16.1648520
 135.9118660   6.1317290  17.1455310 130.2627170   4.9665680  23.4069400
 129.9296550   5.5934600  24.0490470 130.4393850   5.4927560  22.6271070
 129.4746270   6.9346480  25.2218580 130.0920270   7.6097560  24.9403030
 128.6139390   7.3434460  25.1306080 124.7678610   6.1246340  14.1025430
 124.3906590   6.6133440  13.3710330 125.0251680   6.7971620  14.7331960
 140.3923860   8.3985890  23.1373220 139.7087380   9.0685000  23.1289890
 140.9318150   8.5966540  22.3718080 137.9282600  10.2430020  21.8518400
 137.9409760   9.8392310  20.9840660 137.3757820  11.0177310  21.7479830
 139.2228020   6.9646240  16.9408570 139.1124350   6.0220570  17.0657990
 139.2196270   7.3261880  17.8271330 137.3268040   5.1459860  23.1801010
 137.7436830   4.9319970  22.3454470 138.0507860   5.4032650  23.7509630
 134.7648300   2.5911560  16.2971060 133.8377580   2.5248940  16.5259530
 134.9173120   3.5291690  16.1826300 141.2730140   3.5447080  23.2717250
 140.4448770   3.6140170  22.7967380 141.8680620   4.1301390  22.8033080
 138.7945590   4.1531860  16.8006310 138.1758010   3.8151410  16.1532610
 138.7770040   3.5091620  17.5085500 130.3704940   3.1176300  19.0790790
 129.9661940   2.4053550  18.5836690 130.4568060   2.7729540  19.9678830
 130.8386640   6.8043860  21.2430000 130.5414930   6.1989330  20.5637780
 131.7886460   6.8421170  21.1319360 138.9272250  10.3775730  24.9053100
 138.4502810  11.1847920  24.7125710 138.2434040   9.7254060  25.0579310
 129.9305070   6.5425550  27.8937800 129.0333600   6.7665520  28.1411200
 129.9557940   6.6660490  26.9449200 136.9710290   3.3918670  13.8079060
 137.4103570   2.5541100  13.6616880 137.6838710   4.0248070  13.8943200
 128.7576290   3.4138870  26.4695170 128.6184060   4.2861670  26.8382570
 127.8757650   3.0711680  26.3243110 135.0805670   8.3314740  17.7760300
 135.5201580   9.0739070  17.3615690 135.0192560   8.5741310  18.6999260
 130.5556640   9.3560570  28.6780320 130.5272070   9.7603520  27.8108750
 130.3921610   8.4270930  28.5151920 142.5071460  10.1387670  29.9744490
 142.9831180  10.6170560  30.6533570 143.1278620  10.0705160  29.2489990
 124.7094940   5.1836420  22.3866080 124.7875360   5.3185190  21.4421800
 125.3236620   4.4752310  22.5794200 125.9542570   6.8836610  18.7972260
 125.5470650   7.0251200  17.9425860 126.8455580   6.5996770  18.5943470
 141.9104710   7.3300520  27.1344500 142.0367770   7.0912400  26.2161680
 141.9526090   6.4985060  27.6066580 135.7721450  11.0328520  25.7039310
 136.2866120  10.9436530  26.5061740 134.9290530  11.3788220  25.9967220
 137.7475850  11.3183860  15.1323310 137.5876990  11.0286800  16.0305140
 137.5822560  10.5423990  14.5968540 130.2264230  11.0982390  16.9094930
 130.0506710  10.1817930  16.6962730 129.3719970  11.4569680  17.1492730
 137.4501980   8.8271420  13.6921310 136.7567140   8.8248710  13.0323590
 138.1924840   8.4030740  13.2615480 137.0151910  10.4534130  17.7669800
 137.4708860   9.6723510  18.0808420 137.3544430  11.1640950  18.3110980
 124.7654460   6.2250590  24.9260540 124.9285500   5.7555950  24.1079910
 125.2306910   5.7174150  25.5909380 126.3393440   5.6002020  27.0856350
 125.9548230   4.9595690  27.6839310 126.6505630   6.3038140  27.6551080
 132.4890580   2.4478560  22.5664970 132.8560710   1.9737130  23.3126310
 132.2995640   3.3220130  22.9073310 128.8071740   5.6948190  15.4816030
 128.0334000   5.1545810  15.3214750 129.5366370   5.1754800  15.1433790
 139.5659720   4.6913550  21.2742420 140.2858840   5.1868840  20.8838530
 139.3641540   4.0131440  20.6296290 134.9478520   4.7622610  27.1611420
 134.8815830   3.8418280  26.9069010 134.3183660   4.8598050  27.8756060
 128.8509140   5.3628570  19.1194840 129.3687810   4.5596830  19.0651730
 128.3993160   5.3007710  19.9611670 133.7378640   6.6294850  14.3922140
 134.0794340   7.3737080  13.8965460 132.9091350   6.9425970  14.7546970
 129.5366800   2.7874180  28.9160090 129.2366940   2.9331360  28.0187910
 130.3078040   2.2279470  28.8233480 134.8795250   7.5843180  26.9115220
 134.8939790   6.6524140  26.6934130 134.1720350   7.6702940  27.5504990
 140.0132320   1.7683000  13.1813830 139.9296040   2.1997220  12.3310270
 140.7326510   2.2281350  13.6140650 141.0906460   4.2250520  26.2583800
 140.3654650   4.8179300  26.0613190 141.6181920   4.2174060  25.4597170
 141.0419570   8.6225260  15.9095960 140.3995730   7.9680880  16.1839680
 140.6550230   9.0280350  15.1336630 136.6206050   5.9510690  19.7567650
 136.9729870   5.3538820  19.0969020 135.7368380   5.6254920  19.9275900
 132.7069330   6.7108380  17.1638060 133.3940460   7.2577590  17.5445650
 131.9201750   7.2549110  17.1987670 124.8461730   2.3281200  12.6555140
 125.7156580   2.6106000  12.9391060 124.3552050   3.1417070  12.5403950
 132.0096540   3.7154410  16.7763420 132.4659320   4.5259660  17.0023610
 131.6584750   3.3977550  17.6081910 134.3129150   9.2260750  24.0055720
 134.9571370   9.4320130  24.6829140 134.6758590   8.4649150  23.5526570
 135.5861230   7.2293100  22.7233170 136.2283460   6.5286260  22.8365340
 136.1110580   8.0091540  22.5430060 139.4316950   7.5141720  12.4472310
 139.2054530   6.7972160  13.0396950 139.0413150   7.2654160  11.6094060
 137.3598850   8.0288000  25.9269230 137.6955090   8.6154690  26.6047150
 136.4399190   7.8980710  26.1567020 125.2132980  11.5408580  13.2216770
 125.5730620  12.1397920  12.5674040 125.0725320  12.0868470  13.9951800
 139.0133200   5.4313660  14.1086470 138.7254900   5.8926350  14.8964350
 139.8085370   4.9711430  14.3770690 125.1974840   9.8063440  27.6959170
 125.3065960   8.8658180  27.5554560 124.5455400  10.0718190  27.0472900
 133.1887430   8.0779330  29.0957290 132.8684300   7.3588570  29.6402980
 132.5145790   8.7534400  29.1693350 131.2301600   8.9239780  14.0390440
 131.2211700   9.6569470  13.4234950 130.3099960   8.6771360  14.1317400
 126.8308240   4.1454670  14.7837200 126.2236190   4.8853570  14.7932500
 127.3057590   4.2354030  13.9575400 134.2161200   8.9868020  12.7015630
 134.3173180   8.7832010  11.7717610 133.3162940   8.7326300  12.9063410
 132.8579310  11.5054340  17.3963300 133.1120810  11.4675730  16.4742670
 131.9091790  11.3787670  17.3891550 128.8413530   4.1065820  12.5325770
 129.6076800   3.9947180  13.0951200 128.9188220   3.4103790  11.8802540
 140.8657470   9.5955070  20.6476070 140.9904890  10.4186240  21.1199880
 141.7323030   9.3845800  20.3000220 128.3375000  11.6886280  20.3193200
 129.0737480  11.1401740  20.5901770 128.7215920  12.5542290  20.1799190
 125.2220480   7.7559850  16.1934710 124.2960260   7.9980990  16.1840120
 125.6876910   8.5834110  16.0719460 127.3433280  10.8732350  29.5078780
 128.1446010  11.1944400  29.9214180 126.8285100  10.5127930  30.2298690
 131.4477310  10.8616590  12.1418770 132.2405920  11.1505420  11.6900560
 130.9281660  10.4308760  11.4631250 136.1797910   6.9812220  29.4554190
 135.5736070   7.0043820  28.7149940 135.8752020   6.2495260  29.9921440
 137.6098280  10.7092510  28.0663600 138.5620030  10.6250530  28.0163840
 137.4626500  11.3734220  28.7397390 140.5007480  10.0886720  13.5655510
 140.2148990   9.6751860  12.7509690 140.3027030  11.0174430  13.4456030
 125.0631090   3.3605810  28.4514830 125.5670110   2.7813090  29.0231060
 124.3238510   3.6446040  28.9891200 131.9654710   6.0820000  12.0061120
 131.8605350   5.4672350  12.7322500 131.7978930   5.5585890  11.2224130
 132.1169030   4.7676800  27.9850350 131.3514700   5.3361800  27.9005020
 132.2984990   4.4753010  27.0918580 135.2057440   5.1440030  12.6103110
 134.6567540   5.5909330  13.2545850 135.8276700   4.6389280  13.1340780
 139.2592380   6.4982130  28.5425370 140.0001850   6.8357890  28.0392830
 138.4965060   6.6674190  27.9895140 130.8732560   4.1030950  14.5068410
 131.2948980   3.9370820  15.3499800 130.9983400   3.2931180  14.0123550
 133.3860200   3.1268560  11.7545510 133.9065860   2.4117580  11.3886660
 134.0328600   3.7654430  12.0546020 137.9338040   4.5496960  27.0780580
 138.3479060   4.7042040  27.9271000 136.9989040   4.6752180  27.2406360
 132.6953270   4.5017440  25.0476510 133.1141380   5.3450170  24.8752750
 131.7761900   4.6389480  24.8183290 137.3705070   2.7870810  25.0076860
 136.8440290   3.3113430  24.4042000 137.7136410   3.4198200  25.6386590
 130.5460690  10.8070450  26.1634240 130.0081780  11.5316510  25.8442940
 130.7994650  10.3300790  25.3731580 133.4022900  12.0421660  26.4220890
 133.3281600  12.9456800  26.7293260 132.5001740  11.7233560  26.3942960
 133.9508230  11.2080170  14.0447250 134.8459020  11.5465140  14.0666010
 133.9825860  10.4859580  13.4171530 127.5904390   6.5807220  12.2734250
 128.0279260   7.1236890  12.9291830 128.0752120   5.7554170  12.2830590
 124.8050190   9.3696250  19.7254510 125.1353200   8.5017310  19.4933150
 125.2341190   9.5754770  20.5559470 129.4012110   7.7005260  17.3856480
 129.1007650   7.5770230  18.2860390 129.2949600   6.8413850  16.9772210
 125.2940400  10.2366840  22.4636140 124.8571390  10.4167640  23.2960290
 125.8618080  10.9941460  22.3217860 140.9302580   9.7383840  26.7513450
 140.3304570   9.7976400  26.0077370 141.0596480   8.7988820  26.8810300
 142.1704030   7.4801660  12.0883160 141.3396990   7.5478310  12.5590390
 142.3475860   8.3705780  11.7850020 141.6260490   4.2249140  14.5917360
 142.3879400   4.7945790  14.6977050 141.6414860   3.6576340  15.3625670
 125.1264830   2.7487070  18.8225020 124.4713670   2.4798710  18.1784720
 125.9642780   2.6391550  18.3727000 142.6320460   5.0799240  19.4359290
 143.0029290   4.2966560  19.0295260 143.2722390   5.7688340  19.2576590
 139.6154220   6.4635820  24.8489610 138.8014060   6.8932980  25.1115400
 140.0228420   7.0754230  24.2358660 141.6779660   4.5183510  11.7489880
 141.9528500   5.4262390  11.6209100 141.4890400   4.4546040  12.6851870
 141.5745000   2.4552500  16.7419310 141.1988600   1.6880430  16.3100600
 140.8448120   2.8375200  17.2294240 126.1640760   3.1339640  23.3628360
 126.5313800   3.0467040  24.2424380 125.5951580   2.3706190  23.2635220
 139.6730270  11.2154420  18.3757880 140.2689340  10.8938990  17.6992300
 139.9308420  10.7426240  19.1671150 127.5792840   7.6472330  28.5248510
 127.5362470   7.2765240  29.4062970 127.7103850   8.5849900  28.6650330
 131.2798870   9.2031920  24.1258230 131.0390230   9.4706480  23.2388750
 132.2201510   9.3737650  24.1809090 142.5403030  11.2226300  24.9268870
 142.0461310  11.6195170  24.2096000 141.9316320  10.5975510  25.3206150
 127.4180870  10.5934580  25.6446290 126.8241190  10.4619280  26.3836330
 127.4104710   9.7572720  25.1788390 140.2242480  11.8649720  22.2055610
 139.7645450  12.6165530  21.8313630 139.5954940  11.1456190  22.1470410
 127.0493100   7.9592960  24.5954330 126.3227160   7.3398250  24.5280280
 127.1102250   8.3533570  23.7252410 130.6538200  10.1737960  21.3803740
 131.1703220   9.5625320  20.8552000 131.3035580  10.6766740  21.8714750
 133.3933700  11.0646450  22.2072720 133.6811510  10.8100750  21.3305730
 133.9056920  10.5123810  22.7978290 125.3323100  11.2767350  17.8051090
 125.1645140  10.6438030  18.5032980 124.4657610  11.4826750  17.4545280
 126.9385800   9.9700580  15.2501230 126.4133420  10.3508610  14.5463190
 126.8630380  10.5951350  15.9710940 133.4606060  11.9862550  29.5740920
 134.3873370  11.7506820  29.6176880 133.4456490  12.8134550  29.0926950
 141.6951120  11.5288120  16.5715170 141.8703310  10.8425860  15.9276090
 140.9972690  12.0535170  16.1791840 129.5378770  11.9182960  14.1250480
 130.2697590  11.6342240  13.5774370 129.7972440  11.6796240  15.0149860
 128.6993560   8.0347690  14.1296810 128.0702440   8.5032790  14.6782640
 128.8141390   7.1896910  14.5643000 140.0283620  11.2132410  29.3981960
 140.8208940  10.7181640  29.1907920 140.3216770  11.8922550  30.0057570
 134.2861320   3.8632370   2.1607280 133.5103420   3.3832810   2.4505850
 134.9374250   3.1838020   1.9863440 128.3027150   4.1752180   3.0383040
 127.4712030   3.9200890   3.4379550 128.9108130   4.2462950   3.7740960
 128.2828410   8.2092270   3.2341060 128.5856450   7.3190010   3.0551280
 129.0272000   8.7662490   3.0063310 133.7270310   6.5389560   2.1677440
 133.6578590   5.5979500   2.0066570 134.4890170   6.6290970   2.7400010
 130.2627170   4.9665680   4.6325910 129.9296550   5.5934600   5.2746980
 130.4393850   5.4927560   3.8527580 129.4746270   6.9346480   6.4475090
 130.0920270   7.6097560   6.1659540 128.6139390   7.3434460   6.3562590
 140.3923860   8.3985890   4.3629730 139.7087380   9.0685000   4.3546400
 140.9318150   8.5966540   3.5974590 137.9282600  10.2430020   3.0774910
 137.9409760   9.8392310   2.2097170 137.3757820  11.0177310   2.9736340
 137.3268040   5.1459860   4.4057520 137.7436830   4.9319970   3.5710980
 138.0507860   5.4032650   4.9766140 141.2730140   3.5447080   4.4973760
 140.4448770   3.6140170   4.0223890 141.8680620   4.1301390   4.0289590
 130.8386640   6.8043860   2.4686510 130.5414930   6.1989330   1.7894290
 131.7886460   6.8421170   2.3575870 138.9272250  10.3775730   6.1309610
 138.4502810  11.1847920   5.9382220 138.2434040   9.7254060   6.2835820
 129.9305070   6.5425550   9.1194310 129.0333600   6.7665520   9.3667710
 129.9557940   6.6660490   8.1705710 128.7576290   3.4138870   7.6951680
 128.6184060   4.2861670   8.0639080 127.8757650   3.0711680   7.5499620
 130.5556640   9.3560570   9.9036830 130.5272070   9.7603520   9.0365260
 130.3921610   8.4270930   9.7408430 142.5071460  10.1387670  11.2001000
 142.9831180  10.6170560  11.8790080 143.1278620  10.0705160  10.4746500
 124.7094940   5.1836420   3.6122590 124.7875360   5.3185190   2.6678310
 125.3236620   4.4752310   3.8050710 141.9104710   7.3300520   8.3601010
 142.0367770   7.0912400   7.4418190 141.9526090   6.4985060   8.8323090
 135.7721450  11.0328520   6.9295820 136.2866120  10.9436530   7.7318250
 134.9290530  11.3788220   7.2223730 124.7654460   6.2250590   6.1517050
 124.9285500   5.7555950   5.3336420 125.2306910   5.7174150   6.8165890
 126.3393440   5.6002020   8.3112860 125.9548230   4.9595690   8.9095820
 126.6505630   6.3038140   8.8807590 132.4890580   2.4478560   3.7921480
 132.8560710   1.9737130   4.5382820 132.2995640   3.3220130   4.1329820
 139.5659720   4.6913550   2.4998930 140.2858840   5.1868840   2.1095040
 139.3641540   4.0131440   1.8552800 134.9478520   4.7622610   8.3867930
 134.8815830   3.8418280   8.1325520 134.3183660   4.8598050   9.1012570
 129.5366800   2.7874180  10.1416600 129.2366940   2.9331360   9.2444420
 130.3078040   2.2279470  10.0489990 134.8795250   7.5843180   8.1371730
 134.8939790   6.6524140   7.9190640 134.1720350   7.6702940   8.7761500
 141.0906460   4.2250520   7.4840310 140.3654650   4.8179300   7.2869700
 141.6181920   4.2174060   6.6853680 134.3129150   9.2260750   5.2312230
 134.9571370   9.4320130   5.9085650 134.6758590   8.4649150   4.7783080
 135.5861230   7.2293100   3.9489680 136.2283460   6.5286260   4.0621850
 136.1110580   8.0091540   3.7686570 137.3598850   8.0288000   7.1525740
 137.6955090   8.6154690   7.8303660 136.4399190   7.8980710   7.3823530
 125.1974840   9.8063440   8.9215680 125.3065960   8.8658180   8.7811070
 124.5455400  10.0718190   8.2729410 133.1887430   8.0779330  10.3213800
 132.8684300   7.3588570  10.8659490 132.5145790   8.7534400  10.3949860
 127.3433280  10.8732350  10.7335290 128.1446010  11.1944400  11.1470690
 126.8285100  10.5127930  11.4555200 136.1797910   6.9812220  10.6810700
 135.5736070   7.0043820   9.9406450 135.8752020   6.2495260  11.2177950
 137.6098280  10.7092510   9.2920110 138.5620030  10.6250530   9.2420350
 137.4626500  11.3734220   9.9653900 125.0631090   3.3605810   9.6771340
 125.5670110   2.7813090  10.2487570 124.3238510   3.6446040  10.2147710
 132.1169030   4.7676800   9.2106860 131.3514700   5.3361800   9.1261530
 132.2984990   4.4753010   8.3175090 139.2592380   6.4982130   9.7681880
 140.0001850   6.8357890   9.2649340 138.4965060   6.6674190   9.2151650
 137.9338040   4.5496960   8.3037090 138.3479060   4.7042040   9.1527510
 136.9989040   4.6752180   8.4662870 132.6953270   4.5017440   6.2733020
 133.1141380   5.3450170   6.1009260 131.7761900   4.6389480   6.0439800
 137.3705070   2.7870810   6.2333370 136.8440290   3.3113430   5.6298510
 137.7136410   3.4198200   6.8643100 130.5460690  10.8070450   7.3890750
 130.0081780  11.5316510   7.0699450 130.7994650  10.3300790   6.5988090
 133.4022900  12.0421660   7.6477400 133.3281600  12.9456800   7.9549770
 132.5001740  11.7233560   7.6199470 125.2940400  10.2366840   3.6892650
 124.8571390  10.4167640   4.5216800 125.8618080  10.9941460   3.5474370
 140.9302580   9.7383840   7.9769960 140.3304570   9.7976400   7.2333880
 141.0596480   8.7988820   8.1066810 139.6154220   6.4635820   6.0746120
 138.8014060   6.8932980   6.3371910 140.0228420   7.0754230   5.4615170
 126.1640760   3.1339640   4.5884870 126.5313800   3.0467040   5.4680890
 125.5951580   2.3706190   4.4891730 127.5792840   7.6472330   9.7505020
 127.5362470   7.2765240  10.6319480 127.7103850   8.5849900   9.8906840
 131.2798870   9.2031920   5.3514740 131.0390230   9.4706480   4.4645260
 132.2201510   9.3737650   5.4065600 142.5403030  11.2226300   6.1525380
 142.0461310  11.6195170   5.4352510 141.9316320  10.5975510   6.5462660
 127.4180870  10.5934580   6.8702800 126.8241190  10.4619280   7.6092840
 127.4104710   9.7572720   6.4044900 140.2242480  11.8649720   3.4312120
 139.7645450  12.6165530   3.0570140 139.5954940  11.1456190   3.3726920
 127.0493100   7.9592960   5.8210840 126.3227160   7.3398250   5.7536790
 127.1102250   8.3533570   4.9508920 130.6538200  10.1737960   2.6060250
 131.1703220   9.5625320   2.0808510 131.3035580  10.6766740   3.0971260
 133.3933700  11.0646450   3.4329230 133.6811510  10.8100750   2.5562240
 133.9056920  10.5123810   4.0234800 133.4606060  11.9862550  10.7997430
 134.3873370  11.7506820  10.8433390 133.4456490  12.8134550  10.3183460
 140.0283620  11.2132410  10.6238470 140.8208940  10.7181640  10.4164430
 140.3216770  11.8922550  11.2314080 117.3799790 152.2801270 150.4745930
 117.2993840 151.3655880 150.2037640 116.9664210 152.7768340 149.7685640
 107.9375610 149.3301990 147.0173350 107.0492310 149.6717960 146.9153230
 108.2216800 149.1302310 146.1254180 110.1137000 147.9133490 148.0511730
 110.2203750 148.8137220 148.3580490 109.2029360 147.8651460 147.7606380
 119.7656110 147.0358300 149.5222630 120.5865730 146.5454870 149.5648110
 119.7990190 147.6255960 150.2754470 113.6024050 144.7210650 150.9815370
 113.9099030 144.1657540 150.2650870 112.6724750 144.8555110 150.7988360
 115.9904810 152.7859480 147.7175490 115.0634090 152.7196860 147.9463960
 116.1429630 153.7239610 147.6030730 115.9773890 149.0576480 144.7142650
 115.0377560 149.2190440 144.7995110 116.2957150 149.7762160 144.1678640
 111.5961450 153.3124220 150.4995220 111.1918450 152.6001470 150.0041120
 111.6824570 152.9677460 151.3883260 118.1966800 153.5866590 145.2283490
 118.6360080 152.7489020 145.0821310 118.9095220 154.2195990 145.3147630
 121.7783940 144.8409400 143.5424530 121.4656600 144.9336230 144.4423600
 122.5396410 145.4190430 143.4921960 108.2966080 152.2069200 148.0001870
 108.1763680 152.9331290 147.3883140 107.9866970 151.4372110 147.5229780
 110.7629740 145.5504270 151.3825540 110.3197890 146.3313810 151.0510060
 111.3214730 145.8734160 152.0896480 113.8788560 145.1714970 146.2631370
 113.2542740 145.1674840 146.9884680 113.7918680 144.3045930 145.8667340
 110.5543960 150.6737840 149.1106790 110.3284880 150.4575010 150.0153410
 109.7736490 151.1066300 148.7652760 117.7841720 150.6801210 147.7097440
 117.1850610 151.4037010 147.5261060 118.3321330 150.6177990 146.9273890
 116.3906590 149.3164750 149.7400720 116.7836160 149.6336950 148.9269410
 116.7523440 148.4376630 149.8545240 105.6140990 149.8485670 143.1733640
 105.5315660 150.7916430 143.3148630 105.2624050 149.7060580 142.2945990
 113.4139120 148.5824700 152.2403990 113.4175180 148.1414650 151.3908530
 114.3090240 148.9042030 152.3475810 109.2641500 148.4651190 151.1998200
 108.9241550 148.9426420 151.9565250 108.5018820 148.0116310 150.8399300
 113.4759270 149.5836780 145.2310750 113.5972090 149.5423260 146.1796570
 113.0907780 150.4460930 145.0757480 112.4880770 151.8937920 144.6294050
 111.9197670 151.4456170 144.0029960 113.1969770 152.2530700 144.0959200
 106.5787580 147.3870170 150.1162870 106.2934500 147.0225840 150.9541490
 106.5166440 146.6550630 149.5026010 116.2526170 146.2799430 146.8376240
 115.4390780 145.7812600 146.7621550 116.0588120 147.1197680 146.4212590
 118.9674560 150.6519080 145.1338400 119.8554180 150.9636310 144.9589740
 118.9379650 149.7791330 144.7418980 121.2388830 151.9630920 144.6018260
 121.1552550 152.3945140 143.7514700 121.9583020 152.4229270 145.0345080
 106.0718240 152.5229120 144.0759570 106.9413090 152.8053920 144.3595490
 105.5808560 153.3364990 143.9608380 109.1364830 144.2539980 148.6690370
 109.0079460 144.2457880 149.6175290 108.3126850 144.5923070 148.3181380
 120.9959570 147.4610350 146.6886080 120.3672730 147.5656020 145.9744310
 120.5011490 147.6807130 147.4779960 112.9643600 149.7396300 148.1043960
 112.2559750 150.2082640 148.5457570 113.2488080 149.0818310 148.7389150
 116.9959030 146.4646960 149.5439750 116.8726810 146.4833090 148.5949260
 117.9443590 146.5125900 149.6638150 111.1678620 148.0481380 145.4794670
 112.0169150 148.4851530 145.4134860 110.8009890 148.3601640 146.3066730
 120.0888400 152.6194140 150.3926240 119.1478540 152.6344370 150.5673930
 120.4032470 151.8330100 150.8386540 110.0670040 154.3013740 143.9530200
 110.8333310 154.1895100 144.5155630 110.1444730 153.6051710 143.3006970
 108.7616800 151.7338810 144.6363090 108.8420390 150.7866320 144.7480490
 109.6536550 152.0645690 144.7423750 112.0989070 154.2978870 145.9272840
 112.5205490 154.1318740 146.7704230 112.2239910 153.4879100 145.4327980
 114.6116710 153.3216480 143.1749940 115.1322370 152.6065500 142.8091090
 115.2585110 153.9602350 143.4750450 110.9947970 150.3712100 142.8731000
 110.7937030 149.5079460 143.2344340 110.8240020 150.2845460 141.9352600
 118.4736280 145.1820330 145.4017880 118.7538570 144.3388230 145.7577300
 117.7002010 145.4143440 145.9156630 109.7930770 147.4712720 142.8608880
 110.0956670 147.4780150 141.9528030 110.5325360 147.1210580 143.3576540
 113.0115700 146.4147340 143.8465080 112.6637700 145.7371330 143.2667530
 113.2128470 145.9536850 144.6608470 106.3521340 152.9434990 150.2429450
 105.6970180 152.6746630 149.5989150 107.1899290 152.8339470 149.7931430
 119.3011780 147.7376280 144.4647940 119.7196660 147.5507260 143.6244600
 118.9947840 146.8855330 144.7750870 122.8001510 152.6500420 148.1623740
 122.4245110 151.8828350 147.7305030 122.0704630 153.0323120 148.6498670
 105.5659420 150.1533920 146.1854780 104.6623500 150.4164120 146.0106440
 106.0500040 150.4245090 145.4054740 122.0752470 150.8757910 151.4630980
 122.5989950 150.3820560 150.8321150 122.6611890 151.0108270 152.2078550
 108.1086630 149.2099460 144.0949160 108.8178330 148.7882680 143.6096440
 107.3926570 149.2774690 143.4632510 107.7560790 145.2638790 143.1351810
 108.4788920 145.8047730 143.4533030 108.0285310 144.9902210 142.2593350
 121.5652440 150.1331260 147.4023390 122.0611560 149.9002130 148.1872270
 121.3668510 149.2943100 146.9861030 122.9939600 148.7692210 149.9361070
 122.8838880 148.6148250 150.8743340 123.7547190 148.2413150 149.6936480
 123.8829870 146.6000130 143.1767210 124.8079180 146.4681310 142.9685500
 123.8605660 146.6792950 144.1303660 123.9568360 147.3710790 145.8023920
 123.1619860 147.3055910 146.3316830 124.1611640 148.3061430 145.7909270
 120.3888290 145.7007670 152.2522750 120.8296380 145.6452770 151.4044350
 120.1195880 146.6165680 152.3232930 122.2526860 145.3322910 150.2631570
 122.1915260 144.3884130 150.1162590 123.0318890 145.4403000 150.8085030
 107.1807630 145.3032050 146.7287380 107.9386990 145.4160930 146.1551410
 106.7184800 146.1401250 146.6830810 113.7221440 147.4171320 149.7189690
 112.9095950 147.0428210 149.3785570 114.2263080 146.6616400 150.0210880
 118.2246420 144.0813770 150.9572760 118.8275790 144.6533980 151.4321280
 117.4839410 144.6453210 150.7346660 121.3681020 144.4835330 146.2313040
 121.5631650 145.3818780 146.4980470 120.5810890 144.2522410 146.7245990
 109.5532780 145.8296100 145.2689350 110.0825540 145.0425900 145.1397300
 110.1861100 146.5087290 145.5024880 111.7470620 145.5671240 148.3234740
 111.1173360 144.8658550 148.4904870 111.2075760 146.3275370 148.1067900
 117.3799790 152.2801270 131.7002440 117.2993840 151.3655880 131.4294150
 116.9664210 152.7768340 130.9942150 115.5117830 154.0580290 133.5811710
 114.7359930 153.5780730 133.8710280 116.1630760 153.3785940 133.4067870
 107.9375610 149.3301990 128.2429860 107.0492310 149.6717960 128.1409740
 108.2216800 149.1302310 127.3510690 105.9008620 151.9307640 134.1269560
 106.4724730 151.1629840 134.1273200 105.9010160 152.2296400 133.2176170
 107.1433490 147.3392000 135.9138490 106.9636330 146.4417750 136.1941250
 106.7413570 147.8863870 136.5885440 115.9831990 149.5407860 133.8150800
 116.3596810 148.6679740 133.7024470 115.8851500 149.8766560 132.9241240
 110.1137000 147.9133490 129.2768240 110.2203750 148.8137220 129.5837000
 109.2029360 147.8651460 128.9862890 119.7656110 147.0358300 130.7479140
 120.5865730 146.5454870 130.7904620 119.7990190 147.6255960 131.5010980
 107.7620160 149.8352500 134.5220830 108.4430270 150.0990870 135.1408230
 107.4468210 148.9953370 134.8558840 111.9544730 150.8819860 133.6093420
 112.4622950 151.3800830 134.2498440 112.4857970 150.1055060 133.4332780
 124.0555660 149.0525050 137.3122770 123.3507830 149.4406760 136.7937880
 124.3213580 149.7475340 137.9143700 110.2380830 145.5218420 137.8756840
 110.2399270 146.0390810 137.0702740 109.4085140 145.0448600 137.8526770
 120.0017590 148.9758680 133.5206680 119.2973160 149.2643570 134.1009790
 120.3629750 149.7858790 133.1606240 109.9196160 147.2328380 135.8827290
 110.2612970 148.0770430 135.5881160 108.9811970 147.3812120 135.9992630
 123.0704510 148.4213470 133.9115890 122.1229420 148.4552450 134.0431320
 123.3954500 149.2352420 134.2965250 113.6024050 144.7210650 132.2071880
 113.9099030 144.1657540 131.4907380 112.6724750 144.8555110 132.0244870
 115.9904810 152.7859480 128.9432000 115.0634090 152.7196860 129.1720470
 116.1429630 153.7239610 128.8287240 115.9773890 149.0576480 125.9399160
 115.0377560 149.2190440 126.0251620 116.2957150 149.7762160 125.3935150
 119.4628660 150.5264320 136.8633060 119.0499840 151.3518030 137.1173050
 118.7304610 149.9409360 136.6709420 111.5961450 153.3124220 131.7251730
 111.1918450 152.6001470 131.2297630 111.6824570 152.9677460 132.6139770
 110.3090070 150.0867430 135.5050770 110.8604660 150.1962770 134.7304020
 110.8233580 150.4605030 136.2206000 118.1966800 153.5866590 126.4540000
 118.6360080 152.7489020 126.3077820 118.9095220 154.2195990 126.5404140
 121.7783940 144.8409400 124.7681040 121.4656600 144.9336230 125.6680110
 122.5396410 145.4190430 124.7178470 108.2966080 152.2069200 129.2258380
 108.1763680 152.9331290 128.6139650 107.9866970 151.4372110 128.7486290
 122.9885230 149.5780900 140.7455180 122.3729500 150.0860570 140.2170640
 122.6681650 148.6779230 140.6881120 110.7629740 145.5504270 132.6082050
 110.3197890 146.3313810 132.2766570 111.3214730 145.8734160 133.3152990
 115.0499550 148.4172790 138.2117370 114.5878920 148.6255810 139.0237310
 114.6477660 147.6032140 137.9088040 120.0504060 149.6381740 139.3414030
 119.1997650 149.3387490 139.6623100 119.8905850 149.8823750 138.4297850
 117.1453770 151.1383490 141.4412820 117.4707180 150.3047240 141.1015050
 117.9334100 151.6612010 141.5891150 113.8788560 145.1714970 127.4887880
 113.2542740 145.1674840 128.2141190 113.7918680 144.3045930 127.0923850
 112.8005640 146.0951600 134.4671650 113.0977970 147.0014430 134.3863670
 113.3491200 145.6070380 133.8531220 110.5543960 150.6737840 130.3363300
 110.3284880 150.4575010 131.2409920 109.7736490 151.1066300 129.9909270
 117.7841720 150.6801210 128.9353950 117.1850610 151.4037010 128.7517570
 118.3321330 150.6177990 128.1530400 112.9943170 151.5723420 141.0023570
 112.8986770 150.6318150 140.8523970 113.8375150 151.7938490 140.6071640
 116.3906590 149.3164750 130.9657230 116.7836160 149.6336950 130.1525920
 116.7523440 148.4376630 131.0801750 108.1253710 147.9837090 139.1557350
 107.7317100 148.8312300 139.3630130 107.4372110 147.3463460 139.3465990
 114.6998760 148.0672060 142.2254090 114.0097080 147.8744260 142.8600180
 115.4431060 148.3506700 142.7578390 105.4270760 145.9065550 133.1887430
 105.1383810 146.4768410 133.9012410 106.1716520 145.4270000 133.5518660
 105.6140990 149.8485670 124.3990150 105.5315660 150.7916430 124.5405140
 105.2624050 149.7060580 123.5202500 116.9761730 151.9070500 135.0608010
 116.2442850 152.4157310 135.4098110 116.5786070 151.0900480 134.7596790
 113.4139120 148.5824700 133.4660500 113.4175180 148.1414650 132.6165040
 114.3090240 148.9042030 133.5732320 109.2641500 148.4651190 132.4254710
 108.9241550 148.9426420 133.1821760 108.5018820 148.0116310 132.0655810
 113.4759270 149.5836780 126.4567260 113.5972090 149.5423260 127.4053080
 113.0907780 150.4460930 126.3013990 117.4387640 147.3604180 134.4730950
 117.4560380 147.8112830 135.3172800 117.1903220 146.4609820 134.6864390
 112.4880770 151.8937920 125.8550560 111.9197670 151.4456170 125.2286470
 113.1969770 152.2530700 125.3215710 120.8658390 144.7736360 140.3117330
 121.1904160 144.0426020 140.8375310 120.9014900 144.4550000 139.4098320
 113.7147090 152.6426480 135.2125910 114.0817220 152.1685050 135.9587250
 113.5252150 153.5168050 135.5534250 106.5787580 147.3870170 131.3419380
 106.2934500 147.0225840 132.1798000 106.5166440 146.6550630 130.7282520
 111.5046460 151.6835120 137.5310120 111.2003530 152.5627100 137.7560480
 112.4592920 151.7434910 137.5667560 116.2526170 146.2799430 128.0632750
 115.4390780 145.7812600 127.9878060 116.0588120 147.1197680 127.6469100
 118.9674560 150.6519080 126.3594910 119.8554180 150.9636310 126.1846250
 118.9379650 149.7791330 125.9675490 107.5610190 152.5237860 138.6781480
 107.2025130 153.1891710 139.2654820 107.2664750 151.6921410 139.0494100
 110.7623310 152.9822100 141.5621030 110.4623450 153.1279280 140.6648850
 111.5334550 152.4227390 141.4694420 121.2388830 151.9630920 125.8274770
 121.1552550 152.3945140 124.9771210 121.9583020 152.4229270 126.2601590
 106.0718240 152.5229120 125.3016080 106.9413090 152.8053920 125.5852000
 105.5808560 153.3364990 125.1864890 109.1364830 144.2539980 129.8946880
 109.0079460 144.2457880 130.8431800 108.3126850 144.5923070 129.5437890
 106.1358760 146.0131100 139.3553580 105.4217280 146.2128020 139.9606190
 106.5553800 145.2370670 139.7268380 117.6297540 148.5053410 137.1055030
 117.9978360 147.6848620 137.4334600 116.7695740 148.5655300 137.5210680
 120.9959570 147.4610350 127.9142590 120.3672730 147.5656020 127.2000820
 120.5011490 147.6807130 128.7036470 112.9643600 149.7396300 129.3300470
 112.2559750 150.2082640 129.7714080 113.2488080 149.0818310 129.9645660
 114.5899530 151.1593000 137.3293000 115.0884780 151.6338820 137.9944850
 114.7322480 150.2356520 137.5363030 116.9959030 146.4646960 130.7696260
 116.8726810 146.4833090 129.8205770 117.9443590 146.5125900 130.8894660
 111.1678620 148.0481380 126.7051180 112.0169150 148.4851530 126.6391370
 110.8009890 148.3601640 127.5323240 121.7966390 147.3760960 138.1721390
 121.2939990 148.1166360 138.5115200 122.6123050 147.7644960 137.8558180
 120.0888400 152.6194140 131.6182750 119.1478540 152.6344370 131.7930440
 120.4032470 151.8330100 132.0643050 110.0670040 154.3013740 125.1786710
 110.8333310 154.1895100 125.7412140 110.1444730 153.6051710 124.5263480
 108.7616800 151.7338810 125.8619600 108.8420390 150.7866320 125.9737000
 109.6536550 152.0645690 125.9680260 106.2887600 153.5553730 141.0975770
 106.7926620 152.9761010 141.6692000 105.5495020 153.8393960 141.6352140
 108.3210680 151.6983320 141.9925840 108.3616020 151.3997190 142.9011070
 109.1756180 152.0990930 141.8333360 112.0989070 154.2978870 127.1529350
 112.5205490 154.1318740 127.9960740 112.2239910 153.4879100 126.6584490
 110.2616490 150.2775420 139.9600330 109.7312950 149.7866370 139.3323670
 110.9304560 150.7059620 139.4258260 114.6116710 153.3216480 124.4006450
 115.1322370 152.6065500 124.0347600 115.2585110 153.9602350 124.7006960
 119.6316720 152.0841040 141.7280670 120.2137490 151.3293360 141.6401150
 119.8078490 152.6148480 140.9512150 110.7488790 147.2437790 140.0397620
 110.6545660 146.6258540 139.3148490 110.1686180 147.9704080 139.8127530
 113.5150230 145.8011030 137.0725010 113.0667530 145.8235290 136.2270560
 112.8815430 145.4030050 137.6695310 116.2573680 152.4281540 139.0775290
 116.3769890 151.8322680 139.8170130 117.1167680 152.4651230 138.6576590
 118.5961580 152.9818730 137.6537800 118.0696800 153.5061350 137.0502940
 118.9392920 153.6146120 138.2847530 110.9947970 150.3712100 124.0987510
 110.7937030 149.5079460 124.4600850 110.8240020 150.2845460 123.1609110
 113.0242450 148.9702890 140.3351110 113.6142140 148.6618740 141.0228930
 112.2062690 148.4982640 140.4911010 117.8435880 148.5868700 140.5684130
 117.1551400 147.9250240 140.5034120 118.5641900 148.1406970 141.0132590
 118.4736280 145.1820330 126.6274390 118.7538570 144.3388230 126.9833810
 117.7002010 145.4143440 127.1413140 109.7930770 147.4712720 124.0865390
 110.0956670 147.4780150 123.1784540 110.5325360 147.1210580 124.5833050
 113.0115700 146.4147340 125.0721590 112.6637700 145.7371330 124.4924040
 113.2128470 145.9536850 125.8864980 106.3521340 152.9434990 131.4685960
 105.6970180 152.6746630 130.8245660 107.1899290 152.8339470 131.0187940
 119.3011780 147.7376280 125.6904450 119.7196660 147.5507260 124.8501110
 118.9947840 146.8855330 126.0007380 122.8001510 152.6500420 129.3880250
 122.4245110 151.8828350 128.9561540 122.0704630 153.0323120 129.8755180
 107.3897270 153.3287560 136.0089300 107.7570310 153.2414960 136.8885320
 106.8208090 152.5654110 135.9096160 122.1901130 151.7971940 139.0219770
 121.9587220 151.5684690 138.1217720 122.4505680 152.7171490 138.9764660
 106.9413270 150.2396650 139.9147720 106.0469320 150.2063410 140.2541430
 107.4810820 150.4383440 140.6798970 120.6289200 147.0228370 141.7999470
 121.5059380 147.0311770 142.1833470 120.6410040 146.2859210 141.1891820
 105.5659420 150.1533920 127.4111290 104.6623500 150.4164120 127.2362950
 106.0500040 150.4245090 126.6311250 122.0752470 150.8757910 132.6887490
 122.5989950 150.3820560 132.0577660 122.6611890 151.0108270 133.4335060
 122.2542190 150.9597780 136.2107040 121.3044900 150.9261320 136.3252030
 122.4355200 151.8697890 135.9756810 108.1086630 149.2099460 125.3205670
 108.8178330 148.7882680 124.8352950 107.3926570 149.2774690 124.6889020
 107.7560790 145.2638790 124.3608320 108.4788920 145.8047730 124.6789540
 108.0285310 144.9902210 123.4849860 121.5652440 150.1331260 128.6279900
 122.0611560 149.9002130 129.4128780 121.3668510 149.2943100 128.2117540
 107.4452980 144.5144980 134.2630940 108.0929170 143.9642360 133.8226100
 107.8654820 144.7688130 135.0846750 122.9939600 148.7692210 131.1617580
 122.8838880 148.6148250 132.0999850 123.7547190 148.2413150 130.9192990
 121.3405320 144.7086340 137.6200580 121.9777540 145.3220480 137.9859770
 121.4880210 144.7447000 136.6749810 123.8829870 146.6000130 124.4023720
 124.8079180 146.4681310 124.1942010 123.8605660 146.6792950 125.3560170
 123.9568360 147.3710790 127.0280430 123.1619860 147.3055910 127.5573340
 124.1611640 148.3061430 127.0165780 107.1984980 144.6700650 137.0056260
 106.8499800 145.1264470 137.7714440 106.8672680 143.7757780 137.0878690
 114.7109800 145.8612530 140.5275680 114.6498690 146.4534360 141.2771090
 115.6510180 145.7538490 140.3825940 117.3484360 145.5182590 140.1667970
 117.9624770 145.8361880 139.5049050 117.8933920 145.0331180 140.7863830
 107.8705620 144.1976850 140.2807030 108.4188610 144.0164900 139.5173140
 107.9360930 143.4070960 140.8163340 118.0892400 144.0814730 136.4937260
 117.2152240 144.4149840 136.2910190 117.9803150 143.6087910 137.3189130
 118.9964380 146.2885600 137.8778980 118.6677740 145.4737360 137.4980710
 119.9446680 146.2455410 137.7544670 115.8367220 144.9984570 135.4330170
 115.0539010 145.4730070 135.7126930 115.5430150 144.0939400 135.3243350
 120.3888290 145.7007670 133.4779260 120.8296380 145.6452770 132.6300860
 120.1195880 146.6165680 133.5489440 122.2526860 145.3322910 131.4888080
 122.1915260 144.3884130 131.3419100 123.0318890 145.4403000 132.0341540
 107.1807630 145.3032050 127.9543890 107.9386990 145.4160930 127.3807920
 106.7184800 146.1401250 127.9087320 113.7221440 147.4171320 130.9446200
 112.9095950 147.0428210 130.6042080 114.2263080 146.6616400 131.2467390
 118.2246420 144.0813770 132.1829270 118.8275790 144.6533980 132.6577790
 117.4839410 144.6453210 131.9603170 121.3681020 144.4835330 127.4569550
 121.5631650 145.3818780 127.7236980 120.5810890 144.2522410 127.9502500
 109.5532780 145.8296100 126.4945860 110.0825540 145.0425900 126.3653810
 110.1861100 146.5087290 126.7281390 111.7470620 145.5671240 129.5491250
 111.1173360 144.8658550 129.7161380 111.2075760 146.3275370 129.3324410
 111.8726180 144.8455220 141.9843740 111.5910450 145.3488820 141.2204560
 112.2545880 144.0476970 141.6185870 118.4741640 144.2608800 142.5624210
 118.3607090 144.5803410 143.4575730 119.2911380 144.6621310 142.2661490
 117.3799790 152.2801270 112.9258950 117.2993840 151.3655880 112.6550660
 116.9664210 152.7768340 112.2198660 115.5117830 154.0580290 114.8068220
 114.7359930 153.5780730 115.0966790 116.1630760 153.3785940 114.6324380
 107.9375610 149.3301990 109.4686370 107.0492310 149.6717960 109.3666250
 108.2216800 149.1302310 108.5767200 105.9008620 151.9307640 115.3526070
 106.4724730 151.1629840 115.3529710 105.9010160 152.2296400 114.4432680
 107.1433490 147.3392000 117.1395000 106.9636330 146.4417750 117.4197760
 106.7413570 147.8863870 117.8141950 115.9831990 149.5407860 115.0407310
 116.3596810 148.6679740 114.9280980 115.8851500 149.8766560 114.1497750
 110.1137000 147.9133490 110.5024750 110.2203750 148.8137220 110.8093510
 109.2029360 147.8651460 110.2119400 119.7656110 147.0358300 111.9735650
 120.5865730 146.5454870 112.0161130 119.7990190 147.6255960 112.7267490
 107.7620160 149.8352500 115.7477340 108.4430270 150.0990870 116.3664740
 107.4468210 148.9953370 116.0815350 111.9544730 150.8819860 114.8349930
 112.4622950 151.3800830 115.4754950 112.4857970 150.1055060 114.6589290
 124.0555660 149.0525050 118.5379280 123.3507830 149.4406760 118.0194390
 124.3213580 149.7475340 119.1400210 110.2380830 145.5218420 119.1013350
 110.2399270 146.0390810 118.2959250 109.4085140 145.0448600 119.0783280
 120.0017590 148.9758680 114.7463190 119.2973160 149.2643570 115.3266300
 120.3629750 149.7858790 114.3862750 109.9196160 147.2328380 117.1083800
 110.2612970 148.0770430 116.8137670 108.9811970 147.3812120 117.2249140
 123.0704510 148.4213470 115.1372400 122.1229420 148.4552450 115.2687830
 123.3954500 149.2352420 115.5221760 113.6024050 144.7210650 113.4328390
 113.9099030 144.1657540 112.7163890 112.6724750 144.8555110 113.2501380
 115.9904810 152.7859480 110.1688510 115.0634090 152.7196860 110.3976980
 116.1429630 153.7239610 110.0543750 115.9773890 149.0576480 107.1655670
 115.0377560 149.2190440 107.2508130 116.2957150 149.7762160 106.6191660
 119.4628660 150.5264320 118.0889570 119.0499840 151.3518030 118.3429560
 118.7304610 149.9409360 117.8965930 111.5961450 153.3124220 112.9508240
 111.1918450 152.6001470 112.4554140 111.6824570 152.9677460 113.8396280
 110.3090070 150.0867430 116.7307280 110.8604660 150.1962770 115.9560530
 110.8233580 150.4605030 117.4462510 118.1966800 153.5866590 107.6796510
 118.6360080 152.7489020 107.5334330 118.9095220 154.2195990 107.7660650
 121.7783940 144.8409400 105.9937550 121.4656600 144.9336230 106.8936620
 122.5396410 145.4190430 105.9434980 108.2966080 152.2069200 110.4514890
 108.1763680 152.9331290 109.8396160 107.9866970 151.4372110 109.9742800
 122.9885230 149.5780900 121.9711690 122.3729500 150.0860570 121.4427150
 122.6681650 148.6779230 121.9137630 110.7629740 145.5504270 113.8338560
 110.3197890 146.3313810 113.5023080 111.3214730 145.8734160 114.5409500
 115.0499550 148.4172790 119.4373880 114.5878920 148.6255810 120.2493820
 114.6477660 147.6032140 119.1344550 120.0504060 149.6381740 120.5670540
 119.1997650 149.3387490 120.8879610 119.8905850 149.8823750 119.6554360
 117.1453770 151.1383490 122.6669330 117.4707180 150.3047240 122.3271560
 117.9334100 151.6612010 122.8147660 113.8788560 145.1714970 108.7144390
 113.2542740 145.1674840 109.4397700 113.7918680 144.3045930 108.3180360
 112.8005640 146.0951600 115.6928160 113.0977970 147.0014430 115.6120180
 113.3491200 145.6070380 115.0787730 110.5543960 150.6737840 111.5619810
 110.3284880 150.4575010 112.4666430 109.7736490 151.1066300 111.2165780
 117.7841720 150.6801210 110.1610460 117.1850610 151.4037010 109.9774080
 118.3321330 150.6177990 109.3786910 112.9943170 151.5723420 122.2280080
 112.8986770 150.6318150 122.0780480 113.8375150 151.7938490 121.8328150
 116.3906590 149.3164750 112.1913740 116.7836160 149.6336950 111.3782430
 116.7523440 148.4376630 112.3058260 108.1253710 147.9837090 120.3813860
 107.7317100 148.8312300 120.5886640 107.4372110 147.3463460 120.5722500
 114.6998760 148.0672060 123.4510600 114.0097080 147.8744260 124.0856690
 115.4431060 148.3506700 123.9834900 105.4270760 145.9065550 114.4143940
 105.1383810 146.4768410 115.1268920 106.1716520 145.4270000 114.7775170
 105.6140990 149.8485670 105.6246660 105.5315660 150.7916430 105.7661650
 105.2624050 149.7060580 104.7459010 116.9761730 151.9070500 116.2864520
 116.2442850 152.4157310 116.6354620 116.5786070 151.0900480 115.9853300
 113.4139120 148.5824700 114.6917010 113.4175180 148.1414650 113.8421550
 114.3090240 148.9042030 114.7988830 109.2641500 148.4651190 113.6511220
 108.9241550 148.9426420 114.4078270 108.5018820 148.0116310 113.2912320
 113.4759270 149.5836780 107.6823770 113.5972090 149.5423260 108.6309590
 113.0907780 150.4460930 107.5270500 117.4387640 147.3604180 115.6987460
 117.4560380 147.8112830 116.5429310 117.1903220 146.4609820 115.9120900
 112.4880770 151.8937920 107.0807070 111.9197670 151.4456170 106.4542980
 113.1969770 152.2530700 106.5472220 120.8658390 144.7736360 121.5373840
 121.1904160 144.0426020 122.0631820 120.9014900 144.4550000 120.6354830
 113.7147090 152.6426480 116.4382420 114.0817220 152.1685050 117.1843760
 113.5252150 153.5168050 116.7790760 106.5787580 147.3870170 112.5675890
 106.2934500 147.0225840 113.4054510 106.5166440 146.6550630 111.9539030
 111.5046460 151.6835120 118.7566630 111.2003530 152.5627100 118.9816990
 112.4592920 151.7434910 118.7924070 116.2526170 146.2799430 109.2889260
 115.4390780 145.7812600 109.2134570 116.0588120 147.1197680 108.8725610
 118.9674560 150.6519080 107.5851420 119.8554180 150.9636310 107.4102760
 118.9379650 149.7791330 107.1932000 107.5610190 152.5237860 119.9037990
 107.2025130 153.1891710 120.4911330 107.2664750 151.6921410 120.2750610
 110.7623310 152.9822100 122.7877540 110.4623450 153.1279280 121.8905360
 111.5334550 152.4227390 122.6950930 121.2388830 151.9630920 107.0531280
 121.1552550 152.3945140 106.2027720 121.9583020 152.4229270 107.4858100
 106.0718240 152.5229120 106.5272590 106.9413090 152.8053920 106.8108510
 105.5808560 153.3364990 106.4121400 109.1364830 144.2539980 111.1203390
 109.0079460 144.2457880 112.0688310 108.3126850 144.5923070 110.7694400
 106.1358760 146.0131100 120.5810090 105.4217280 146.2128020 121.1862700
 106.5553800 145.2370670 120.9524890 117.6297540 148.5053410 118.3311540
 117.9978360 147.6848620 118.6591110 116.7695740 148.5655300 118.7467190
 120.9959570 147.4610350 109.1399100 120.3672730 147.5656020 108.4257330
 120.5011490 147.6807130 109.9292980 112.9643600 149.7396300 110.5556980
 112.2559750 150.2082640 110.9970590 113.2488080 149.0818310 111.1902170
 114.5899530 151.1593000 118.5549510 115.0884780 151.6338820 119.2201360
 114.7322480 150.2356520 118.7619540 116.9959030 146.4646960 111.9952770
 116.8726810 146.4833090 111.0462280 117.9443590 146.5125900 112.1151170
 111.1678620 148.0481380 107.9307690 112.0169150 148.4851530 107.8647880
 110.8009890 148.3601640 108.7579750 121.7966390 147.3760960 119.3977900
 121.2939990 148.1166360 119.7371710 122.6123050 147.7644960 119.0814690
 120.0888400 152.6194140 112.8439260 119.1478540 152.6344370 113.0186950
 120.4032470 151.8330100 113.2899560 110.0670040 154.3013740 106.4043220
 110.8333310 154.1895100 106.9668650 110.1444730 153.6051710 105.7519990
 108.7616800 151.7338810 107.0876110 108.8420390 150.7866320 107.1993510
 109.6536550 152.0645690 107.1936770 106.2887600 153.5553730 122.3232280
 106.7926620 152.9761010 122.8948510 105.5495020 153.8393960 122.8608650
 108.3210680 151.6983320 123.2182350 108.3616020 151.3997190 124.1267580
 109.1756180 152.0990930 123.0589870 112.0989070 154.2978870 108.3785860
 112.5205490 154.1318740 109.2217250 112.2239910 153.4879100 107.8841000
 110.2616490 150.2775420 121.1856840 109.7312950 149.7866370 120.5580180
 110.9304560 150.7059620 120.6514770 114.6116710 153.3216480 105.6262960
 115.1322370 152.6065500 105.2604110 115.2585110 153.9602350 105.9263470
 119.6316720 152.0841040 122.9537180 120.2137490 151.3293360 122.8657660
 119.8078490 152.6148480 122.1768660 110.7488790 147.2437790 121.2654130
 110.6545660 146.6258540 120.5405000 110.1686180 147.9704080 121.0384040
 113.5150230 145.8011030 118.2981520 113.0667530 145.8235290 117.4527070
 112.8815430 145.4030050 118.8951820 116.2573680 152.4281540 120.3031800
 116.3769890 151.8322680 121.0426640 117.1167680 152.4651230 119.8833100
 118.5961580 152.9818730 118.8794310 118.0696800 153.5061350 118.2759450
 118.9392920 153.6146120 119.5104040 110.9947970 150.3712100 105.3244020
 110.7937030 149.5079460 105.6857360 110.8240020 150.2845460 104.3865620
 113.0242450 148.9702890 121.5607620 113.6142140 148.6618740 122.2485440
 112.2062690 148.4982640 121.7167520 117.8435880 148.5868700 121.7940640
 117.1551400 147.9250240 121.7290630 118.5641900 148.1406970 122.2389100
 118.4736280 145.1820330 107.8530900 118.7538570 144.3388230 108.2090320
 117.7002010 145.4143440 108.3669650 109.7930770 147.4712720 105.3121900
 110.0956670 147.4780150 104.4041050 110.5325360 147.1210580 105.8089560
 113.0115700 146.4147340 106.2978100 112.6637700 145.7371330 105.7180550
 113.2128470 145.9536850 107.1121490 106.3521340 152.9434990 112.6942470
 105.6970180 152.6746630 112.0502170 107.1899290 152.8339470 112.2444450
 119.3011780 147.7376280 106.9160960 119.7196660 147.5507260 106.0757620
 118.9947840 146.8855330 107.2263890 122.8001510 152.6500420 110.6136760
 122.4245110 151.8828350 110.1818050 122.0704630 153.0323120 111.1011690
 107.3897270 153.3287560 117.2345810 107.7570310 153.2414960 118.1141830
 106.8208090 152.5654110 117.1352670 122.1901130 151.7971940 120.2476280
 121.9587220 151.5684690 119.3474230 122.4505680 152.7171490 120.2021170
 106.9413270 150.2396650 121.1404230 106.0469320 150.2063410 121.4797940
 107.4810820 150.4383440 121.9055480 120.6289200 147.0228370 123.0255980
 121.5059380 147.0311770 123.4089980 120.6410040 146.2859210 122.4148330
 105.5659420 150.1533920 108.6367800 104.6623500 150.4164120 108.4619460
 106.0500040 150.4245090 107.8567760 122.0752470 150.8757910 113.9144000
 122.5989950 150.3820560 113.2834170 122.6611890 151.0108270 114.6591570
 122.2542190 150.9597780 117.4363550 121.3044900 150.9261320 117.5508540
 122.4355200 151.8697890 117.2013320 108.1086630 149.2099460 106.5462180
 108.8178330 148.7882680 106.0609460 107.3926570 149.2774690 105.9145530
 107.7560790 145.2638790 105.5864830 108.4788920 145.8047730 105.9046050
 108.0285310 144.9902210 104.7106370 121.5652440 150.1331260 109.8536410
 122.0611560 149.9002130 110.6385290 121.3668510 149.2943100 109.4374050
 107.4452980 144.5144980 115.4887450 108.0929170 143.9642360 115.0482610
 107.8654820 144.7688130 116.3103260 122.9939600 148.7692210 112.3874090
 122.8838880 148.6148250 113.3256360 123.7547190 148.2413150 112.1449500
 121.3405320 144.7086340 118.8457090 121.9777540 145.3220480 119.2116280
 121.4880210 144.7447000 117.9006320 123.8829870 146.6000130 105.6280230
 124.8079180 146.4681310 105.4198520 123.8605660 146.6792950 106.5816680
 123.9568360 147.3710790 108.2536940 123.1619860 147.3055910 108.7829850
 124.1611640 148.3061430 108.2422290 107.1984980 144.6700650 118.2312770
 106.8499800 145.1264470 118.9970950 106.8672680 143.7757780 118.3135200
 114.7109800 145.8612530 121.7532190 114.6498690 146.4534360 122.5027600
 115.6510180 145.7538490 121.6082450 117.3484360 145.5182590 121.3924480
 117.9624770 145.8361880 120.7305560 117.8933920 145.0331180 122.0120340
 107.8705620 144.1976850 121.5063540 108.4188610 144.0164900 120.7429650
 107.9360930 143.4070960 122.0419850 118.0892400 144.0814730 117.7193770
 117.2152240 144.4149840 117.5166700 117.9803150 143.6087910 118.5445640
 118.9964380 146.2885600 119.1035490 118.6677740 145.4737360 118.7237220
 119.9446680 146.2455410 118.9801180 115.8367220 144.9984570 116.6586680
 115.0539010 145.4730070 116.9383440 115.5430150 144.0939400 116.5499860
 120.3888290 145.7007670 114.7035770 120.8296380 145.6452770 113.8557370
 120.1195880 146.6165680 114.7745950 122.2526860 145.3322910 112.7144590
 122.1915260 144.3884130 112.5675610 123.0318890 145.4403000 113.2598050
 107.1807630 145.3032050 109.1800400 107.9386990 145.4160930 108.6064430
 106.7184800 146.1401250 109.1343830 113.7221440 147.4171320 112.1702710
 112.9095950 147.0428210 111.8298590 114.2263080 146.6616400 112.4723900
 118.2246420 144.0813770 113.4085780 118.8275790 144.6533980 113.8834300
 117.4839410 144.6453210 113.1859680 121.3681020 144.4835330 108.6826060
 121.5631650 145.3818780 108.9493490 120.5810890 144.2522410 109.1759010
 109.5532780 145.8296100 107.7202370 110.0825540 145.0425900 107.5910320
 110.1861100 146.5087290 107.9537900 111.7470620 145.5671240 110.7747760
 111.1173360 144.8658550 110.9417890 111.2075760 146.3275370 110.5580920
 111.8726180 144.8455220 123.2100250 111.5910450 145.3488820 122.4461070
 112.2545880 144.0476970 122.8442380 118.4741640 144.2608800 123.7880720
 118.3607090 144.5803410 124.6832240 119.2911380 144.6621310 123.4918000
 117.3799790 152.2801270  94.1515460 117.2993840 151.3655880  93.8807170
 116.9664210 152.7768340  93.4455170 115.5117830 154.0580290  96.0324730
 114.7359930 153.5780730  96.3223300 116.1630760 153.3785940  95.8580890
 107.9375610 149.3301990  90.6942880 107.0492310 149.6717960  90.5922760
 108.2216800 149.1302310  89.8023710 105.9008620 151.9307640  96.5782580
 106.4724730 151.1629840  96.5786220 105.9010160 152.2296400  95.6689190
 107.1433490 147.3392000  98.3651510 106.9636330 146.4417750  98.6454270
 106.7413570 147.8863870  99.0398460 115.9831990 149.5407860  96.2663820
 116.3596810 148.6679740  96.1537490 115.8851500 149.8766560  95.3754260
 110.1137000 147.9133490  91.7281260 110.2203750 148.8137220  92.0350020
 109.2029360 147.8651460  91.4375910 119.7656110 147.0358300  93.1992160
 120.5865730 146.5454870  93.2417640 119.7990190 147.6255960  93.9524000
 107.7620160 149.8352500  96.9733850 108.4430270 150.0990870  97.5921250
 107.4468210 148.9953370  97.3071860 111.9544730 150.8819860  96.0606440
 112.4622950 151.3800830  96.7011460 112.4857970 150.1055060  95.8845800
 124.0555660 149.0525050  99.7635790 123.3507830 149.4406760  99.2450900
 124.3213580 149.7475340 100.3656720 110.2380830 145.5218420 100.3269860
 110.2399270 146.0390810  99.5215760 109.4085140 145.0448600 100.3039790
 120.0017590 148.9758680  95.9719700 119.2973160 149.2643570  96.5522810
 120.3629750 149.7858790  95.6119260 109.9196160 147.2328380  98.3340310
 110.2612970 148.0770430  98.0394180 108.9811970 147.3812120  98.4505650
 123.0704510 148.4213470  96.3628910 122.1229420 148.4552450  96.4944340
 123.3954500 149.2352420  96.7478270 113.6024050 144.7210650  94.6584900
 113.9099030 144.1657540  93.9420400 112.6724750 144.8555110  94.4757890
 115.9904810 152.7859480  91.3945020 115.0634090 152.7196860  91.6233490
 116.1429630 153.7239610  91.2800260 115.9773890 149.0576480  88.3912180
 115.0377560 149.2190440  88.4764640 116.2957150 149.7762160  87.8448170
 119.4628660 150.5264320  99.3146080 119.0499840 151.3518030  99.5686070
 118.7304610 149.9409360  99.1222440 111.5961450 153.3124220  94.1764750
 111.1918450 152.6001470  93.6810650 111.6824570 152.9677460  95.0652790
 110.3090070 150.0867430  97.9563790 110.8604660 150.1962770  97.1817040
 110.8233580 150.4605030  98.6719020 118.1966800 153.5866590  88.9053020
 118.6360080 152.7489020  88.7590840 118.9095220 154.2195990  88.9917160
 121.7783940 144.8409400  87.2194060 121.4656600 144.9336230  88.1193130
 122.5396410 145.4190430  87.1691490 108.2966080 152.2069200  91.6771400
 108.1763680 152.9331290  91.0652670 107.9866970 151.4372110  91.1999310
 122.9885230 149.5780900 103.1968200 122.3729500 150.0860570 102.6683660
 122.6681650 148.6779230 103.1394140 110.7629740 145.5504270  95.0595070
 110.3197890 146.3313810  94.7279590 111.3214730 145.8734160  95.7666010
 115.0499550 148.4172790 100.6630390 114.5878920 148.6255810 101.4750330
 114.6477660 147.6032140 100.3601060 120.0504060 149.6381740 101.7927050
 119.1997650 149.3387490 102.1136120 119.8905850 149.8823750 100.8810870
 117.1453770 151.1383490 103.8925840 117.4707180 150.3047240 103.5528070
 117.9334100 151.6612010 104.0404170 113.8788560 145.1714970  89.9400900
 113.2542740 145.1674840  90.6654210 113.7918680 144.3045930  89.5436870
 112.8005640 146.0951600  96.9184670 113.0977970 147.0014430  96.8376690
 113.3491200 145.6070380  96.3044240 110.5543960 150.6737840  92.7876320
 110.3284880 150.4575010  93.6922940 109.7736490 151.1066300  92.4422290
 117.7841720 150.6801210  91.3866970 117.1850610 151.4037010  91.2030590
 118.3321330 150.6177990  90.6043420 112.9943170 151.5723420 103.4536590
 112.8986770 150.6318150 103.3036990 113.8375150 151.7938490 103.0584660
 116.3906590 149.3164750  93.4170250 116.7836160 149.6336950  92.6038940
 116.7523440 148.4376630  93.5314770 108.1253710 147.9837090 101.6070370
 107.7317100 148.8312300 101.8143150 107.4372110 147.3463460 101.7979010
 114.6998760 148.0672060 104.6767110 114.0097080 147.8744260 105.3113200
 115.4431060 148.3506700 105.2091410 105.4270760 145.9065550  95.6400450
 105.1383810 146.4768410  96.3525430 106.1716520 145.4270000  96.0031680
 105.6140990 149.8485670  86.8503170 105.5315660 150.7916430  86.9918160
 105.2624050 149.7060580  85.9715520 116.9761730 151.9070500  97.5121030
 116.2442850 152.4157310  97.8611130 116.5786070 151.0900480  97.2109810
 113.4139120 148.5824700  95.9173520 113.4175180 148.1414650  95.0678060
 114.3090240 148.9042030  96.0245340 109.2641500 148.4651190  94.8767730
 108.9241550 148.9426420  95.6334780 108.5018820 148.0116310  94.5168830
 113.4759270 149.5836780  88.9080280 113.5972090 149.5423260  89.8566100
 113.0907780 150.4460930  88.7527010 117.4387640 147.3604180  96.9243970
 117.4560380 147.8112830  97.7685820 117.1903220 146.4609820  97.1377410
 112.4880770 151.8937920  88.3063580 111.9197670 151.4456170  87.6799490
 113.1969770 152.2530700  87.7728730 120.8658390 144.7736360 102.7630350
 121.1904160 144.0426020 103.2888330 120.9014900 144.4550000 101.8611340
 113.7147090 152.6426480  97.6638930 114.0817220 152.1685050  98.4100270
 113.5252150 153.5168050  98.0047270 106.5787580 147.3870170  93.7932400
 106.2934500 147.0225840  94.6311020 106.5166440 146.6550630  93.1795540
 111.5046460 151.6835120  99.9823140 111.2003530 152.5627100 100.2073500
 112.4592920 151.7434910 100.0180580 116.2526170 146.2799430  90.5145770
 115.4390780 145.7812600  90.4391080 116.0588120 147.1197680  90.0982120
 118.9674560 150.6519080  88.8107930 119.8554180 150.9636310  88.6359270
 118.9379650 149.7791330  88.4188510 107.5610190 152.5237860 101.1294500
 107.2025130 153.1891710 101.7167840 107.2664750 151.6921410 101.5007120
 110.7623310 152.9822100 104.0134050 110.4623450 153.1279280 103.1161870
 111.5334550 152.4227390 103.9207440 121.2388830 151.9630920  88.2787790
 121.1552550 152.3945140  87.4284230 121.9583020 152.4229270  88.7114610
 106.0718240 152.5229120  87.7529100 106.9413090 152.8053920  88.0365020
 105.5808560 153.3364990  87.6377910 109.1364830 144.2539980  92.3459900
 109.0079460 144.2457880  93.2944820 108.3126850 144.5923070  91.9950910
 106.1358760 146.0131100 101.8066600 105.4217280 146.2128020 102.4119210
 106.5553800 145.2370670 102.1781400 117.6297540 148.5053410  99.5568050
 117.9978360 147.6848620  99.8847620 116.7695740 148.5655300  99.9723700
 120.9959570 147.4610350  90.3655610 120.3672730 147.5656020  89.6513840
 120.5011490 147.6807130  91.1549490 112.9643600 149.7396300  91.7813490
 112.2559750 150.2082640  92.2227100 113.2488080 149.0818310  92.4158680
 114.5899530 151.1593000  99.7806020 115.0884780 151.6338820 100.4457870
 114.7322480 150.2356520  99.9876050 116.9959030 146.4646960  93.2209280
 116.8726810 146.4833090  92.2718790 117.9443590 146.5125900  93.3407680
 111.1678620 148.0481380  89.1564200 112.0169150 148.4851530  89.0904390
 110.8009890 148.3601640  89.9836260 121.7966390 147.3760960 100.6234410
 121.2939990 148.1166360 100.9628220 122.6123050 147.7644960 100.3071200
 120.0888400 152.6194140  94.0695770 119.1478540 152.6344370  94.2443460
 120.4032470 151.8330100  94.5156070 110.0670040 154.3013740  87.6299730
 110.8333310 154.1895100  88.1925160 110.1444730 153.6051710  86.9776500
 108.7616800 151.7338810  88.3132620 108.8420390 150.7866320  88.4250020
 109.6536550 152.0645690  88.4193280 106.2887600 153.5553730 103.5488790
 106.7926620 152.9761010 104.1205020 105.5495020 153.8393960 104.0865160
 108.3210680 151.6983320 104.4438860 108.3616020 151.3997190 105.3524090
 109.1756180 152.0990930 104.2846380 112.0989070 154.2978870  89.6042370
 112.5205490 154.1318740  90.4473760 112.2239910 153.4879100  89.1097510
 110.2616490 150.2775420 102.4113350 109.7312950 149.7866370 101.7836690
 110.9304560 150.7059620 101.8771280 114.6116710 153.3216480  86.8519470
 115.1322370 152.6065500  86.4860620 115.2585110 153.9602350  87.1519980
 119.6316720 152.0841040 104.1793690 120.2137490 151.3293360 104.0914170
 119.8078490 152.6148480 103.4025170 110.7488790 147.2437790 102.4910640
 110.6545660 146.6258540 101.7661510 110.1686180 147.9704080 102.2640550
 113.5150230 145.8011030  99.5238030 113.0667530 145.8235290  98.6783580
 112.8815430 145.4030050 100.1208330 116.2573680 152.4281540 101.5288310
 116.3769890 151.8322680 102.2683150 117.1167680 152.4651230 101.1089610
 118.5961580 152.9818730 100.1050820 118.0696800 153.5061350  99.5015960
 118.9392920 153.6146120 100.7360550 110.9947970 150.3712100  86.5500530
 110.7937030 149.5079460  86.9113870 110.8240020 150.2845460  85.6122130
 113.0242450 148.9702890 102.7864130 113.6142140 148.6618740 103.4741950
 112.2062690 148.4982640 102.9424030 117.8435880 148.5868700 103.0197150
 117.1551400 147.9250240 102.9547140 118.5641900 148.1406970 103.4645610
 118.4736280 145.1820330  89.0787410 118.7538570 144.3388230  89.4346830
 117.7002010 145.4143440  89.5926160 109.7930770 147.4712720  86.5378410
 110.0956670 147.4780150  85.6297560 110.5325360 147.1210580  87.0346070
 113.0115700 146.4147340  87.5234610 112.6637700 145.7371330  86.9437060
 113.2128470 145.9536850  88.3378000 106.3521340 152.9434990  93.9198980
 105.6970180 152.6746630  93.2758680 107.1899290 152.8339470  93.4700960
 119.3011780 147.7376280  88.1417470 119.7196660 147.5507260  87.3014130
 118.9947840 146.8855330  88.4520400 122.8001510 152.6500420  91.8393270
 122.4245110 151.8828350  91.4074560 122.0704630 153.0323120  92.3268200
 107.3897270 153.3287560  98.4602320 107.7570310 153.2414960  99.3398340
 106.8208090 152.5654110  98.3609180 122.1901130 151.7971940 101.4732790
 121.9587220 151.5684690 100.5730740 122.4505680 152.7171490 101.4277680
 106.9413270 150.2396650 102.3660740 106.0469320 150.2063410 102.7054450
 107.4810820 150.4383440 103.1311990 120.6289200 147.0228370 104.2512490
 121.5059380 147.0311770 104.6346490 120.6410040 146.2859210 103.6404840
 105.5659420 150.1533920  89.8624310 104.6623500 150.4164120  89.6875970
 106.0500040 150.4245090  89.0824270 122.0752470 150.8757910  95.1400510
 122.5989950 150.3820560  94.5090680 122.6611890 151.0108270  95.8848080
 122.2542190 150.9597780  98.6620060 121.3044900 150.9261320  98.7765050
 122.4355200 151.8697890  98.4269830 108.1086630 149.2099460  87.7718690
 108.8178330 148.7882680  87.2865970 107.3926570 149.2774690  87.1402040
 107.7560790 145.2638790  86.8121340 108.4788920 145.8047730  87.1302560
 108.0285310 144.9902210  85.9362880 121.5652440 150.1331260  91.0792920
 122.0611560 149.9002130  91.8641800 121.3668510 149.2943100  90.6630560
 107.4452980 144.5144980  96.7143960 108.0929170 143.9642360  96.2739120
 107.8654820 144.7688130  97.5359770 122.9939600 148.7692210  93.6130600
 122.8838880 148.6148250  94.5512870 123.7547190 148.2413150  93.3706010
 121.3405320 144.7086340 100.0713600 121.9777540 145.3220480 100.4372790
 121.4880210 144.7447000  99.1262830 123.8829870 146.6000130  86.8536740
 124.8079180 146.4681310  86.6455030 123.8605660 146.6792950  87.8073190
 123.9568360 147.3710790  89.4793450 123.1619860 147.3055910  90.0086360
 124.1611640 148.3061430  89.4678800 107.1984980 144.6700650  99.4569280
 106.8499800 145.1264470 100.2227460 106.8672680 143.7757780  99.5391710
 114.7109800 145.8612530 102.9788700 114.6498690 146.4534360 103.7284110
 115.6510180 145.7538490 102.8338960 117.3484360 145.5182590 102.6180990
 117.9624770 145.8361880 101.9562070 117.8933920 145.0331180 103.2376850
 107.8705620 144.1976850 102.7320050 108.4188610 144.0164900 101.9686160
 107.9360930 143.4070960 103.2676360 118.0892400 144.0814730  98.9450280
 117.2152240 144.4149840  98.7423210 117.9803150 143.6087910  99.7702150
 118.9964380 146.2885600 100.3292000 118.6677740 145.4737360  99.9493730
 119.9446680 146.2455410 100.2057690 115.8367220 144.9984570  97.8843190
 115.0539010 145.4730070  98.1639950 115.5430150 144.0939400  97.7756370
 120.3888290 145.7007670  95.9292280 120.8296380 145.6452770  95.0813880
 120.1195880 146.6165680  96.0002460 122.2526860 145.3322910  93.9401100
 122.1915260 144.3884130  93.7932120 123.0318890 145.4403000  94.4854560
 107.1807630 145.3032050  90.4056910 107.9386990 145.4160930  89.8320940
 106.7184800 146.1401250  90.3600340 113.7221440 147.4171320  93.3959220
 112.9095950 147.0428210  93.0555100 114.2263080 146.6616400  93.6980410
 118.2246420 144.0813770  94.6342290 118.8275790 144.6533980  95.1090810
 117.4839410 144.6453210  94.4116190 121.3681020 144.4835330  89.9082570
 121.5631650 145.3818780  90.1750000 120.5810890 144.2522410  90.4015520
 109.5532780 145.8296100  88.9458880 110.0825540 145.0425900  88.8166830
 110.1861100 146.5087290  89.1794410 111.7470620 145.5671240  92.0004270
 111.1173360 144.8658550  92.1674400 111.2075760 146.3275370  91.7837430
 111.8726180 144.8455220 104.4356760 111.5910450 145.3488820 103.6717580
 112.2545880 144.0476970 104.0698890 118.4741640 144.2608800 105.0137230
 118.3607090 144.5803410 105.9088750 119.2911380 144.6621310 104.7174510
 117.3799790 152.2801270  75.3771970 117.2993840 151.3655880  75.1063680
 116.9664210 152.7768340  74.6711680 115.5117830 154.0580290  77.2581240
 114.7359930 153.5780730  77.5479810 116.1630760 153.3785940  77.0837400
 107.9375610 149.3301990  71.9199390 107.0492310 149.6717960  71.8179270
 108.2216800 149.1302310  71.0280220 105.9008620 151.9307640  77.8039090
 106.4724730 151.1629840  77.8042730 105.9010160 152.2296400  76.8945700
 107.1433490 147.3392000  79.5908020 106.9636330 146.4417750  79.8710780
 106.7413570 147.8863870  80.2654970 115.9831990 149.5407860  77.4920330
 116.3596810 148.6679740  77.3794000 115.8851500 149.8766560  76.6010770
 110.1137000 147.9133490  72.9537770 110.2203750 148.8137220  73.2606530
 109.2029360 147.8651460  72.6632420 119.7656110 147.0358300  74.4248670
 120.5865730 146.5454870  74.4674150 119.7990190 147.6255960  75.1780510
 107.7620160 149.8352500  78.1990360 108.4430270 150.0990870  78.8177760
 107.4468210 148.9953370  78.5328370 111.9544730 150.8819860  77.2862950
 112.4622950 151.3800830  77.9267970 112.4857970 150.1055060  77.1102310
 124.0555660 149.0525050  80.9892300 123.3507830 149.4406760  80.4707410
 124.3213580 149.7475340  81.5913230 110.2380830 145.5218420  81.5526370
 110.2399270 146.0390810  80.7472270 109.4085140 145.0448600  81.5296300
 120.0017590 148.9758680  77.1976210 119.2973160 149.2643570  77.7779320
 120.3629750 149.7858790  76.8375770 109.9196160 147.2328380  79.5596820
 110.2612970 148.0770430  79.2650690 108.9811970 147.3812120  79.6762160
 123.0704510 148.4213470  77.5885420 122.1229420 148.4552450  77.7200850
 123.3954500 149.2352420  77.9734780 113.6024050 144.7210650  75.8841410
 113.9099030 144.1657540  75.1676910 112.6724750 144.8555110  75.7014400
 115.9904810 152.7859480  72.6201530 115.0634090 152.7196860  72.8490000
 116.1429630 153.7239610  72.5056770 115.9773890 149.0576480  69.6168690
 115.0377560 149.2190440  69.7021150 116.2957150 149.7762160  69.0704680
 119.4628660 150.5264320  80.5402590 119.0499840 151.3518030  80.7942580
 118.7304610 149.9409360  80.3478950 111.5961450 153.3124220  75.4021260
 111.1918450 152.6001470  74.9067160 111.6824570 152.9677460  76.2909300
 110.3090070 150.0867430  79.1820300 110.8604660 150.1962770  78.4073550
 110.8233580 150.4605030  79.8975530 118.1966800 153.5866590  70.1309530
 118.6360080 152.7489020  69.9847350 118.9095220 154.2195990  70.2173670
 121.7783940 144.8409400  68.4450570 121.4656600 144.9336230  69.3449640
 122.5396410 145.4190430  68.3948000 108.2966080 152.2069200  72.9027910
 108.1763680 152.9331290  72.2909180 107.9866970 151.4372110  72.4255820
 122.9885230 149.5780900  84.4224710 122.3729500 150.0860570  83.8940170
 122.6681650 148.6779230  84.3650650 110.7629740 145.5504270  76.2851580
 110.3197890 146.3313810  75.9536100 111.3214730 145.8734160  76.9922520
 115.0499550 148.4172790  81.8886900 114.5878920 148.6255810  82.7006840
 114.6477660 147.6032140  81.5857570 120.0504060 149.6381740  83.0183560
 119.1997650 149.3387490  83.3392630 119.8905850 149.8823750  82.1067380
 117.1453770 151.1383490  85.1182350 117.4707180 150.3047240  84.7784580
 117.9334100 151.6612010  85.2660680 113.8788560 145.1714970  71.1657410
 113.2542740 145.1674840  71.8910720 113.7918680 144.3045930  70.7693380
 112.8005640 146.0951600  78.1441180 113.0977970 147.0014430  78.0633200
 113.3491200 145.6070380  77.5300750 110.5543960 150.6737840  74.0132830
 110.3284880 150.4575010  74.9179450 109.7736490 151.1066300  73.6678800
 117.7841720 150.6801210  72.6123480 117.1850610 151.4037010  72.4287100
 118.3321330 150.6177990  71.8299930 112.9943170 151.5723420  84.6793100
 112.8986770 150.6318150  84.5293500 113.8375150 151.7938490  84.2841170
 116.3906590 149.3164750  74.6426760 116.7836160 149.6336950  73.8295450
 116.7523440 148.4376630  74.7571280 108.1253710 147.9837090  82.8326880
 107.7317100 148.8312300  83.0399660 107.4372110 147.3463460  83.0235520
 114.6998760 148.0672060  85.9023620 114.0097080 147.8744260  86.5369710
 115.4431060 148.3506700  86.4347920 105.4270760 145.9065550  76.8656960
 105.1383810 146.4768410  77.5781940 106.1716520 145.4270000  77.2288190
 105.6140990 149.8485670  68.0759680 105.5315660 150.7916430  68.2174670
 105.2624050 149.7060580  67.1972030 116.9761730 151.9070500  78.7377540
 116.2442850 152.4157310  79.0867640 116.5786070 151.0900480  78.4366320
 113.4139120 148.5824700  77.1430030 113.4175180 148.1414650  76.2934570
 114.3090240 148.9042030  77.2501850 109.2641500 148.4651190  76.1024240
 108.9241550 148.9426420  76.8591290 108.5018820 148.0116310  75.7425340
 113.4759270 149.5836780  70.1336790 113.5972090 149.5423260  71.0822610
 113.0907780 150.4460930  69.9783520 117.4387640 147.3604180  78.1500480
 117.4560380 147.8112830  78.9942330 117.1903220 146.4609820  78.3633920
 112.4880770 151.8937920  69.5320090 111.9197670 151.4456170  68.9056000
 113.1969770 152.2530700  68.9985240 120.8658390 144.7736360  83.9886860
 121.1904160 144.0426020  84.5144840 120.9014900 144.4550000  83.0867850
 113.7147090 152.6426480  78.8895440 114.0817220 152.1685050  79.6356780
 113.5252150 153.5168050  79.2303780 106.5787580 147.3870170  75.0188910
 106.2934500 147.0225840  75.8567530 106.5166440 146.6550630  74.4052050
 111.5046460 151.6835120  81.2079650 111.2003530 152.5627100  81.4330010
 112.4592920 151.7434910  81.2437090 116.2526170 146.2799430  71.7402280
 115.4390780 145.7812600  71.6647590 116.0588120 147.1197680  71.3238630
 118.9674560 150.6519080  70.0364440 119.8554180 150.9636310  69.8615780
 118.9379650 149.7791330  69.6445020 107.5610190 152.5237860  82.3551010
 107.2025130 153.1891710  82.9424350 107.2664750 151.6921410  82.7263630
 110.7623310 152.9822100  85.2390560 110.4623450 153.1279280  84.3418380
 111.5334550 152.4227390  85.1463950 121.2388830 151.9630920  69.5044300
 121.1552550 152.3945140  68.6540740 121.9583020 152.4229270  69.9371120
 106.0718240 152.5229120  68.9785610 106.9413090 152.8053920  69.2621530
 105.5808560 153.3364990  68.8634420 109.1364830 144.2539980  73.5716410
 109.0079460 144.2457880  74.5201330 108.3126850 144.5923070  73.2207420
 106.1358760 146.0131100  83.0323110 105.4217280 146.2128020  83.6375720
 106.5553800 145.2370670  83.4037910 117.6297540 148.5053410  80.7824560
 117.9978360 147.6848620  81.1104130 116.7695740 148.5655300  81.1980210
 120.9959570 147.4610350  71.5912120 120.3672730 147.5656020  70.8770350
 120.5011490 147.6807130  72.3806000 112.9643600 149.7396300  73.0070000
 112.2559750 150.2082640  73.4483610 113.2488080 149.0818310  73.6415190
 114.5899530 151.1593000  81.0062530 115.0884780 151.6338820  81.6714380
 114.7322480 150.2356520  81.2132560 116.9959030 146.4646960  74.4465790
 116.8726810 146.4833090  73.4975300 117.9443590 146.5125900  74.5664190
 111.1678620 148.0481380  70.3820710 112.0169150 148.4851530  70.3160900
 110.8009890 148.3601640  71.2092770 121.7966390 147.3760960  81.8490920
 121.2939990 148.1166360  82.1884730 122.6123050 147.7644960  81.5327710
 120.0888400 152.6194140  75.2952280 119.1478540 152.6344370  75.4699970
 120.4032470 151.8330100  75.7412580 110.0670040 154.3013740  68.8556240
 110.8333310 154.1895100  69.4181670 110.1444730 153.6051710  68.2033010
 108.7616800 151.7338810  69.5389130 108.8420390 150.7866320  69.6506530
 109.6536550 152.0645690  69.6449790 106.2887600 153.5553730  84.7745300
 106.7926620 152.9761010  85.3461530 105.5495020 153.8393960  85.3121670
 108.3210680 151.6983320  85.6695370 108.3616020 151.3997190  86.5780600
 109.1756180 152.0990930  85.5102890 112.0989070 154.2978870  70.8298880
 112.5205490 154.1318740  71.6730270 112.2239910 153.4879100  70.3354020
 110.2616490 150.2775420  83.6369860 109.7312950 149.7866370  83.0093200
 110.9304560 150.7059620  83.1027790 114.6116710 153.3216480  68.0775980
 115.1322370 152.6065500  67.7117130 115.2585110 153.9602350  68.3776490
 119.6316720 152.0841040  85.4050200 120.2137490 151.3293360  85.3170680
 119.8078490 152.6148480  84.6281680 110.7488790 147.2437790  83.7167150
 110.6545660 146.6258540  82.9918020 110.1686180 147.9704080  83.4897060
 113.5150230 145.8011030  80.7494540 113.0667530 145.8235290  79.9040090
 112.8815430 145.4030050  81.3464840 116.2573680 152.4281540  82.7544820
 116.3769890 151.8322680  83.4939660 117.1167680 152.4651230  82.3346120
 118.5961580 152.9818730  81.3307330 118.0696800 153.5061350  80.7272470
 118.9392920 153.6146120  81.9617060 110.9947970 150.3712100  67.7757040
 110.7937030 149.5079460  68.1370380 110.8240020 150.2845460  66.8378640
 113.0242450 148.9702890  84.0120640 113.6142140 148.6618740  84.6998460
 112.2062690 148.4982640  84.1680540 117.8435880 148.5868700  84.2453660
 117.1551400 147.9250240  84.1803650 118.5641900 148.1406970  84.6902120
 118.4736280 145.1820330  70.3043920 118.7538570 144.3388230  70.6603340
 117.7002010 145.4143440  70.8182670 109.7930770 147.4712720  67.7634920
 110.0956670 147.4780150  66.8554070 110.5325360 147.1210580  68.2602580
 113.0115700 146.4147340  68.7491120 112.6637700 145.7371330  68.1693570
 113.2128470 145.9536850  69.5634510 106.3521340 152.9434990  75.1455490
 105.6970180 152.6746630  74.5015190 107.1899290 152.8339470  74.6957470
 119.3011780 147.7376280  69.3673980 119.7196660 147.5507260  68.5270640
 118.9947840 146.8855330  69.6776910 122.8001510 152.6500420  73.0649780
 122.4245110 151.8828350  72.6331070 122.0704630 153.0323120  73.5524710
 107.3897270 153.3287560  79.6858830 107.7570310 153.2414960  80.5654850
 106.8208090 152.5654110  79.5865690 122.1901130 151.7971940  82.6989300
 121.9587220 151.5684690  81.7987250 122.4505680 152.7171490  82.6534190
 106.9413270 150.2396650  83.5917250 106.0469320 150.2063410  83.9310960
 107.4810820 150.4383440  84.3568500 120.6289200 147.0228370  85.4769000
 121.5059380 147.0311770  85.8603000 120.6410040 146.2859210  84.8661350
 105.5659420 150.1533920  71.0880820 104.6623500 150.4164120  70.9132480
 106.0500040 150.4245090  70.3080780 122.0752470 150.8757910  76.3657020
 122.5989950 150.3820560  75.7347190 122.6611890 151.0108270  77.1104590
 122.2542190 150.9597780  79.8876570 121.3044900 150.9261320  80.0021560
 122.4355200 151.8697890  79.6526340 108.1086630 149.2099460  68.9975200
 108.8178330 148.7882680  68.5122480 107.3926570 149.2774690  68.3658550
 107.7560790 145.2638790  68.0377850 108.4788920 145.8047730  68.3559070
 108.0285310 144.9902210  67.1619390 121.5652440 150.1331260  72.3049430
 122.0611560 149.9002130  73.0898310 121.3668510 149.2943100  71.8887070
 107.4452980 144.5144980  77.9400470 108.0929170 143.9642360  77.4995630
 107.8654820 144.7688130  78.7616280 122.9939600 148.7692210  74.8387110
 122.8838880 148.6148250  75.7769380 123.7547190 148.2413150  74.5962520
 121.3405320 144.7086340  81.2970110 121.9777540 145.3220480  81.6629300
 121.4880210 144.7447000  80.3519340 123.8829870 146.6000130  68.0793250
 124.8079180 146.4681310  67.8711540 123.8605660 146.6792950  69.0329700
 123.9568360 147.3710790  70.7049960 123.1619860 147.3055910  71.2342870
 124.1611640 148.3061430  70.6935310 107.1984980 144.6700650  80.6825790
 106.8499800 145.1264470  81.4483970 106.8672680 143.7757780  80.7648220
 114.7109800 145.8612530  84.2045210 114.6498690 146.4534360  84.9540620
 115.6510180 145.7538490  84.0595470 117.3484360 145.5182590  83.8437500
 117.9624770 145.8361880  83.1818580 117.8933920 145.0331180  84.4633360
 107.8705620 144.1976850  83.9576560 108.4188610 144.0164900  83.1942670
 107.9360930 143.4070960  84.4932870 118.0892400 144.0814730  80.1706790
 117.2152240 144.4149840  79.9679720 117.9803150 143.6087910  80.9958660
 118.9964380 146.2885600  81.5548510 118.6677740 145.4737360  81.1750240
 119.9446680 146.2455410  81.4314200 115.8367220 144.9984570  79.1099700
 115.0539010 145.4730070  79.3896460 115.5430150 144.0939400  79.0012880
 120.3888290 145.7007670  77.1548790 120.8296380 145.6452770  76.3070390
 120.1195880 146.6165680  77.2258970 122.2526860 145.3322910  75.1657610
 122.1915260 144.3884130  75.0188630 123.0318890 145.4403000  75.7111070
 107.1807630 145.3032050  71.6313420 107.9386990 145.4160930  71.0577450
 106.7184800 146.1401250  71.5856850 113.7221440 147.4171320  74.6215730
 112.9095950 147.0428210  74.2811610 114.2263080 146.6616400  74.9236920
 118.2246420 144.0813770  75.8598800 118.8275790 144.6533980  76.3347320
 117.4839410 144.6453210  75.6372700 121.3681020 144.4835330  71.1339080
 121.5631650 145.3818780  71.4006510 120.5810890 144.2522410  71.6272030
 109.5532780 145.8296100  70.1715390 110.0825540 145.0425900  70.0423340
 110.1861100 146.5087290  70.4050920 111.7470620 145.5671240  73.2260780
 111.1173360 144.8658550  73.3930910 111.2075760 146.3275370  73.0093940
 111.8726180 144.8455220  85.6613270 111.5910450 145.3488820  84.8974090
 112.2545880 144.0476970  85.2955400 118.4741640 144.2608800  86.2393740
 118.3607090 144.5803410  87.1345260 119.2911380 144.6621310  85.9431020
 117.3799790 152.2801270  56.6028480 117.2993840 151.3655880  56.3320190
 116.9664210 152.7768340  55.8968190 115.5117830 154.0580290  58.4837750
 114.7359930 153.5780730  58.7736320 116.1630760 153.3785940  58.3093910
 107.9375610 149.3301990  53.1455900 107.0492310 149.6717960  53.0435780
 108.2216800 149.1302310  52.2536730 105.9008620 151.9307640  59.0295600
 106.4724730 151.1629840  59.0299240 105.9010160 152.2296400  58.1202210
 107.1433490 147.3392000  60.8164530 106.9636330 146.4417750  61.0967290
 106.7413570 147.8863870  61.4911480 115.9831990 149.5407860  58.7176840
 116.3596810 148.6679740  58.6050510 115.8851500 149.8766560  57.8267280
 110.1137000 147.9133490  54.1794280 110.2203750 148.8137220  54.4863040
 109.2029360 147.8651460  53.8888930 119.7656110 147.0358300  55.6505180
 120.5865730 146.5454870  55.6930660 119.7990190 147.6255960  56.4037020
 107.7620160 149.8352500  59.4246870 108.4430270 150.0990870  60.0434270
 107.4468210 148.9953370  59.7584880 111.9544730 150.8819860  58.5119460
 112.4622950 151.3800830  59.1524480 112.4857970 150.1055060  58.3358820
 124.0555660 149.0525050  62.2148810 123.3507830 149.4406760  61.6963920
 124.3213580 149.7475340  62.8169740 110.2380830 145.5218420  62.7782880
 110.2399270 146.0390810  61.9728780 109.4085140 145.0448600  62.7552810
 120.0017590 148.9758680  58.4232720 119.2973160 149.2643570  59.0035830
 120.3629750 149.7858790  58.0632280 109.9196160 147.2328380  60.7853330
 110.2612970 148.0770430  60.4907200 108.9811970 147.3812120  60.9018670
 123.0704510 148.4213470  58.8141930 122.1229420 148.4552450  58.9457360
 123.3954500 149.2352420  59.1991290 113.6024050 144.7210650  57.1097920
 113.9099030 144.1657540  56.3933420 112.6724750 144.8555110  56.9270910
 115.9904810 152.7859480  53.8458040 115.0634090 152.7196860  54.0746510
 116.1429630 153.7239610  53.7313280 115.9773890 149.0576480  50.8425200
 115.0377560 149.2190440  50.9277660 116.2957150 149.7762160  50.2961190
 119.4628660 150.5264320  61.7659100 119.0499840 151.3518030  62.0199090
 118.7304610 149.9409360  61.5735460 111.5961450 153.3124220  56.6277770
 111.1918450 152.6001470  56.1323670 111.6824570 152.9677460  57.5165810
 110.3090070 150.0867430  60.4076810 110.8604660 150.1962770  59.6330060
 110.8233580 150.4605030  61.1232040 118.1966800 153.5866590  51.3566040
 118.6360080 152.7489020  51.2103860 118.9095220 154.2195990  51.4430180
 121.7783940 144.8409400  49.6707080 121.4656600 144.9336230  50.5706150
 122.5396410 145.4190430  49.6204510 108.2966080 152.2069200  54.1284420
 108.1763680 152.9331290  53.5165690 107.9866970 151.4372110  53.6512330
 122.9885230 149.5780900  65.6481220 122.3729500 150.0860570  65.1196680
 122.6681650 148.6779230  65.5907160 110.7629740 145.5504270  57.5108090
 110.3197890 146.3313810  57.1792610 111.3214730 145.8734160  58.2179030
 115.0499550 148.4172790  63.1143410 114.5878920 148.6255810  63.9263350
 114.6477660 147.6032140  62.8114080 120.0504060 149.6381740  64.2440070
 119.1997650 149.3387490  64.5649140 119.8905850 149.8823750  63.3323890
 117.1453770 151.1383490  66.3438860 117.4707180 150.3047240  66.0041090
 117.9334100 151.6612010  66.4917190 113.8788560 145.1714970  52.3913920
 113.2542740 145.1674840  53.1167230 113.7918680 144.3045930  51.9949890
 112.8005640 146.0951600  59.3697690 113.0977970 147.0014430  59.2889710
 113.3491200 145.6070380  58.7557260 110.5543960 150.6737840  55.2389340
 110.3284880 150.4575010  56.1435960 109.7736490 151.1066300  54.8935310
 117.7841720 150.6801210  53.8379990 117.1850610 151.4037010  53.6543610
 118.3321330 150.6177990  53.0556440 112.9943170 151.5723420  65.9049610
 112.8986770 150.6318150  65.7550010 113.8375150 151.7938490  65.5097680
 116.3906590 149.3164750  55.8683270 116.7836160 149.6336950  55.0551960
 116.7523440 148.4376630  55.9827790 108.1253710 147.9837090  64.0583390
 107.7317100 148.8312300  64.2656170 107.4372110 147.3463460  64.2492030
 114.6998760 148.0672060  67.1280130 114.0097080 147.8744260  67.7626220
 115.4431060 148.3506700  67.6604430 105.4270760 145.9065550  58.0913470
 105.1383810 146.4768410  58.8038450 106.1716520 145.4270000  58.4544700
 105.6140990 149.8485670  49.3016190 105.5315660 150.7916430  49.4431180
 105.2624050 149.7060580  48.4228540 116.9761730 151.9070500  59.9634050
 116.2442850 152.4157310  60.3124150 116.5786070 151.0900480  59.6622830
 113.4139120 148.5824700  58.3686540 113.4175180 148.1414650  57.5191080
 114.3090240 148.9042030  58.4758360 109.2641500 148.4651190  57.3280750
 108.9241550 148.9426420  58.0847800 108.5018820 148.0116310  56.9681850
 113.4759270 149.5836780  51.3593300 113.5972090 149.5423260  52.3079120
 113.0907780 150.4460930  51.2040030 117.4387640 147.3604180  59.3756990
 117.4560380 147.8112830  60.2198840 117.1903220 146.4609820  59.5890430
 112.4880770 151.8937920  50.7576600 111.9197670 151.4456170  50.1312510
 113.1969770 152.2530700  50.2241750 120.8658390 144.7736360  65.2143370
 121.1904160 144.0426020  65.7401350 120.9014900 144.4550000  64.3124360
 113.7147090 152.6426480  60.1151950 114.0817220 152.1685050  60.8613290
 113.5252150 153.5168050  60.4560290 106.5787580 147.3870170  56.2445420
 106.2934500 147.0225840  57.0824040 106.5166440 146.6550630  55.6308560
 111.5046460 151.6835120  62.4336160 111.2003530 152.5627100  62.6586520
 112.4592920 151.7434910  62.4693600 116.2526170 146.2799430  52.9658790
 115.4390780 145.7812600  52.8904100 116.0588120 147.1197680  52.5495140
 118.9674560 150.6519080  51.2620950 119.8554180 150.9636310  51.0872290
 118.9379650 149.7791330  50.8701530 107.5610190 152.5237860  63.5807520
 107.2025130 153.1891710  64.1680860 107.2664750 151.6921410  63.9520140
 110.7623310 152.9822100  66.4647070 110.4623450 153.1279280  65.5674890
 111.5334550 152.4227390  66.3720460 121.2388830 151.9630920  50.7300810
 121.1552550 152.3945140  49.8797250 121.9583020 152.4229270  51.1627630
 106.0718240 152.5229120  50.2042120 106.9413090 152.8053920  50.4878040
 105.5808560 153.3364990  50.0890930 109.1364830 144.2539980  54.7972920
 109.0079460 144.2457880  55.7457840 108.3126850 144.5923070  54.4463930
 106.1358760 146.0131100  64.2579620 105.4217280 146.2128020  64.8632230
 106.5553800 145.2370670  64.6294420 117.6297540 148.5053410  62.0081070
 117.9978360 147.6848620  62.3360640 116.7695740 148.5655300  62.4236720
 120.9959570 147.4610350  52.8168630 120.3672730 147.5656020  52.1026860
 120.5011490 147.6807130  53.6062510 112.9643600 149.7396300  54.2326510
 112.2559750 150.2082640  54.6740120 113.2488080 149.0818310  54.8671700
 114.5899530 151.1593000  62.2319040 115.0884780 151.6338820  62.8970890
 114.7322480 150.2356520  62.4389070 116.9959030 146.4646960  55.6722300
 116.8726810 146.4833090  54.7231810 117.9443590 146.5125900  55.7920700
 111.1678620 148.0481380  51.6077220 112.0169150 148.4851530  51.5417410
 110.8009890 148.3601640  52.4349280 121.7966390 147.3760960  63.0747430
 121.2939990 148.1166360  63.4141240 122.6123050 147.7644960  62.7584220
 120.0888400 152.6194140  56.5208790 119.1478540 152.6344370  56.6956480
 120.4032470 151.8330100  56.9669090 110.0670040 154.3013740  50.0812750
 110.8333310 154.1895100  50.6438180 110.1444730 153.6051710  49.4289520
 108.7616800 151.7338810  50.7645640 108.8420390 150.7866320  50.8763040
 109.6536550 152.0645690  50.8706300 106.2887600 153.5553730  66.0001810
 106.7926620 152.9761010  66.5718040 105.5495020 153.8393960  66.5378180
 108.3210680 151.6983320  66.8951880 108.3616020 151.3997190  67.8037110
 109.1756180 152.0990930  66.7359400 112.0989070 154.2978870  52.0555390
 112.5205490 154.1318740  52.8986780 112.2239910 153.4879100  51.5610530
 110.2616490 150.2775420  64.8626370 109.7312950 149.7866370  64.2349710
 110.9304560 150.7059620  64.3284300 114.6116710 153.3216480  49.3032490
 115.1322370 152.6065500  48.9373640 115.2585110 153.9602350  49.6033000
 119.6316720 152.0841040  66.6306710 120.2137490 151.3293360  66.5427190
 119.8078490 152.6148480  65.8538190 110.7488790 147.2437790  64.9423660
 110.6545660 146.6258540  64.2174530 110.1686180 147.9704080  64.7153570
 113.5150230 145.8011030  61.9751050 113.0667530 145.8235290  61.1296600
 112.8815430 145.4030050  62.5721350 116.2573680 152.4281540  63.9801330
 116.3769890 151.8322680  64.7196170 117.1167680 152.4651230  63.5602630
 118.5961580 152.9818730  62.5563840 118.0696800 153.5061350  61.9528980
 118.9392920 153.6146120  63.1873570 110.9947970 150.3712100  49.0013550
 110.7937030 149.5079460  49.3626890 110.8240020 150.2845460  48.0635150
 113.0242450 148.9702890  65.2377150 113.6142140 148.6618740  65.9254970
 112.2062690 148.4982640  65.3937050 117.8435880 148.5868700  65.4710170
 117.1551400 147.9250240  65.4060160 118.5641900 148.1406970  65.9158630
 118.4736280 145.1820330  51.5300430 118.7538570 144.3388230  51.8859850
 117.7002010 145.4143440  52.0439180 109.7930770 147.4712720  48.9891430
 110.0956670 147.4780150  48.0810580 110.5325360 147.1210580  49.4859090
 113.0115700 146.4147340  49.9747630 112.6637700 145.7371330  49.3950080
 113.2128470 145.9536850  50.7891020 106.3521340 152.9434990  56.3712000
 105.6970180 152.6746630  55.7271700 107.1899290 152.8339470  55.9213980
 119.3011780 147.7376280  50.5930490 119.7196660 147.5507260  49.7527150
 118.9947840 146.8855330  50.9033420 122.8001510 152.6500420  54.2906290
 122.4245110 151.8828350  53.8587580 122.0704630 153.0323120  54.7781220
 107.3897270 153.3287560  60.9115340 107.7570310 153.2414960  61.7911360
 106.8208090 152.5654110  60.8122200 122.1901130 151.7971940  63.9245810
 121.9587220 151.5684690  63.0243760 122.4505680 152.7171490  63.8790700
 106.9413270 150.2396650  64.8173760 106.0469320 150.2063410  65.1567470
 107.4810820 150.4383440  65.5825010 120.6289200 147.0228370  66.7025510
 121.5059380 147.0311770  67.0859510 120.6410040 146.2859210  66.0917860
 105.5659420 150.1533920  52.3137330 104.6623500 150.4164120  52.1388990
 106.0500040 150.4245090  51.5337290 122.0752470 150.8757910  57.5913530
 122.5989950 150.3820560  56.9603700 122.6611890 151.0108270  58.3361100
 122.2542190 150.9597780  61.1133080 121.3044900 150.9261320  61.2278070
 122.4355200 151.8697890  60.8782850 108.1086630 149.2099460  50.2231710
 108.8178330 148.7882680  49.7378990 107.3926570 149.2774690  49.5915060
 107.7560790 145.2638790  49.2634360 108.4788920 145.8047730  49.5815580
 108.0285310 144.9902210  48.3875900 121.5652440 150.1331260  53.5305940
 122.0611560 149.9002130  54.3154820 121.3668510 149.2943100  53.1143580
 107.4452980 144.5144980  59.1656980 108.0929170 143.9642360  58.7252140
 107.8654820 144.7688130  59.9872790 122.9939600 148.7692210  56.0643620
 122.8838880 148.6148250  57.0025890 123.7547190 148.2413150  55.8219030
 121.3405320 144.7086340  62.5226620 121.9777540 145.3220480  62.8885810
 121.4880210 144.7447000  61.5775850 123.8829870 146.6000130  49.3049760
 124.8079180 146.4681310  49.0968050 123.8605660 146.6792950  50.2586210
 123.9568360 147.3710790  51.9306470 123.1619860 147.3055910  52.4599380
 124.1611640 148.3061430  51.9191820 107.1984980 144.6700650  61.9082300
 106.8499800 145.1264470  62.6740480 106.8672680 143.7757780  61.9904730
 114.7109800 145.8612530  65.4301720 114.6498690 146.4534360  66.1797130
 115.6510180 145.7538490  65.2851980 117.3484360 145.5182590  65.0694010
 117.9624770 145.8361880  64.4075090 117.8933920 145.0331180  65.6889870
 107.8705620 144.1976850  65.1833070 108.4188610 144.0164900  64.4199180
 107.9360930 143.4070960  65.7189380 118.0892400 144.0814730  61.3963300
 117.2152240 144.4149840  61.1936230 117.9803150 143.6087910  62.2215170
 118.9964380 146.2885600  62.7805020 118.6677740 145.4737360  62.4006750
 119.9446680 146.2455410  62.6570710 115.8367220 144.9984570  60.3356210
 115.0539010 145.4730070  60.6152970 115.5430150 144.0939400  60.2269390
 120.3888290 145.7007670  58.3805300 120.8296380 145.6452770  57.5326900
 120.1195880 146.6165680  58.4515480 122.2526860 145.3322910  56.3914120
 122.1915260 144.3884130  56.2445140 123.0318890 145.4403000  56.9367580
 107.1807630 145.3032050  52.8569930 107.9386990 145.4160930  52.2833960
 106.7184800 146.1401250  52.8113360 113.7221440 147.4171320  55.8472240
 112.9095950 147.0428210  55.5068120 114.2263080 146.6616400  56.1493430
 118.2246420 144.0813770  57.0855310 118.8275790 144.6533980  57.5603830
 117.4839410 144.6453210  56.8629210 121.3681020 144.4835330  52.3595590
 121.5631650 145.3818780  52.6263020 120.5810890 144.2522410  52.8528540
 109.5532780 145.8296100  51.3971900 110.0825540 145.0425900  51.2679850
 110.1861100 146.5087290  51.6307430 111.7470620 145.5671240  54.4517290
 111.1173360 144.8658550  54.6187420 111.2075760 146.3275370  54.2350450
 111.8726180 144.8455220  66.8869780 111.5910450 145.3488820  66.1230600
 112.2545880 144.0476970  66.5211910 118.4741640 144.2608800  67.4650250
 118.3607090 144.5803410  68.3601770 119.2911380 144.6621310  67.1687530
 117.3799790 152.2801270  37.8284990 117.2993840 151.3655880  37.5576700
 116.9664210 152.7768340  37.1224700 115.5117830 154.0580290  39.7094260
 114.7359930 153.5780730  39.9992830 116.1630760 153.3785940  39.5350420
 107.9375610 149.3301990  34.3712410 107.0492310 149.6717960  34.2692290
 108.2216800 149.1302310  33.4793240 105.9008620 151.9307640  40.2552110
 106.4724730 151.1629840  40.2555750 105.9010160 152.2296400  39.3458720
 107.1433490 147.3392000  42.0421040 106.9636330 146.4417750  42.3223800
 106.7413570 147.8863870  42.7167990 115.9831990 149.5407860  39.9433350
 116.3596810 148.6679740  39.8307020 115.8851500 149.8766560  39.0523790
 110.1137000 147.9133490  35.4050790 110.2203750 148.8137220  35.7119550
 109.2029360 147.8651460  35.1145440 119.7656110 147.0358300  36.8761690
 120.5865730 146.5454870  36.9187170 119.7990190 147.6255960  37.6293530
 107.7620160 149.8352500  40.6503380 108.4430270 150.0990870  41.2690780
 107.4468210 148.9953370  40.9841390 111.9544730 150.8819860  39.7375970
 112.4622950 151.3800830  40.3780990 112.4857970 150.1055060  39.5615330
 124.0555660 149.0525050  43.4405320 123.3507830 149.4406760  42.9220430
 124.3213580 149.7475340  44.0426250 110.2380830 145.5218420  44.0039390
 110.2399270 146.0390810  43.1985290 109.4085140 145.0448600  43.9809320
 120.0017590 148.9758680  39.6489230 119.2973160 149.2643570  40.2292340
 120.3629750 149.7858790  39.2888790 109.9196160 147.2328380  42.0109840
 110.2612970 148.0770430  41.7163710 108.9811970 147.3812120  42.1275180
 123.0704510 148.4213470  40.0398440 122.1229420 148.4552450  40.1713870
 123.3954500 149.2352420  40.4247800 113.6024050 144.7210650  38.3354430
 113.9099030 144.1657540  37.6189930 112.6724750 144.8555110  38.1527420
 115.9904810 152.7859480  35.0714550 115.0634090 152.7196860  35.3003020
 116.1429630 153.7239610  34.9569790 115.9773890 149.0576480  32.0681710
 115.0377560 149.2190440  32.1534170 116.2957150 149.7762160  31.5217700
 119.4628660 150.5264320  42.9915610 119.0499840 151.3518030  43.2455600
 118.7304610 149.9409360  42.7991970 111.5961450 153.3124220  37.8534280
 111.1918450 152.6001470  37.3580180 111.6824570 152.9677460  38.7422320
 110.3090070 150.0867430  41.6333320 110.8604660 150.1962770  40.8586570
 110.8233580 150.4605030  42.3488550 118.1966800 153.5866590  32.5822550
 118.6360080 152.7489020  32.4360370 118.9095220 154.2195990  32.6686690
 121.7783940 144.8409400  30.8963590 121.4656600 144.9336230  31.7962660
 122.5396410 145.4190430  30.8461020 108.2966080 152.2069200  35.3540930
 108.1763680 152.9331290  34.7422200 107.9866970 151.4372110  34.8768840
 122.9885230 149.5780900  46.8737730 122.3729500 150.0860570  46.3453190
 122.6681650 148.6779230  46.8163670 110.7629740 145.5504270  38.7364600
 110.3197890 146.3313810  38.4049120 111.3214730 145.8734160  39.4435540
 115.0499550 148.4172790  44.3399920 114.5878920 148.6255810  45.1519860
 114.6477660 147.6032140  44.0370590 120.0504060 149.6381740  45.4696580
 119.1997650 149.3387490  45.7905650 119.8905850 149.8823750  44.5580400
 117.1453770 151.1383490  47.5695370 117.4707180 150.3047240  47.2297600
 117.9334100 151.6612010  47.7173700 113.8788560 145.1714970  33.6170430
 113.2542740 145.1674840  34.3423740 113.7918680 144.3045930  33.2206400
 112.8005640 146.0951600  40.5954200 113.0977970 147.0014430  40.5146220
 113.3491200 145.6070380  39.9813770 110.5543960 150.6737840  36.4645850
 110.3284880 150.4575010  37.3692470 109.7736490 151.1066300  36.1191820
 117.7841720 150.6801210  35.0636500 117.1850610 151.4037010  34.8800120
 118.3321330 150.6177990  34.2812950 112.9943170 151.5723420  47.1306120
 112.8986770 150.6318150  46.9806520 113.8375150 151.7938490  46.7354190
 116.3906590 149.3164750  37.0939780 116.7836160 149.6336950  36.2808470
 116.7523440 148.4376630  37.2084300 108.1253710 147.9837090  45.2839900
 107.7317100 148.8312300  45.4912680 107.4372110 147.3463460  45.4748540
 114.6998760 148.0672060  48.3536640 114.0097080 147.8744260  48.9882730
 115.4431060 148.3506700  48.8860940 105.4270760 145.9065550  39.3169980
 105.1383810 146.4768410  40.0294960 106.1716520 145.4270000  39.6801210
 105.6140990 149.8485670  30.5272700 105.5315660 150.7916430  30.6687690
 105.2624050 149.7060580  29.6485050 116.9761730 151.9070500  41.1890560
 116.2442850 152.4157310  41.5380660 116.5786070 151.0900480  40.8879340
 113.4139120 148.5824700  39.5943050 113.4175180 148.1414650  38.7447590
 114.3090240 148.9042030  39.7014870 109.2641500 148.4651190  38.5537260
 108.9241550 148.9426420  39.3104310 108.5018820 148.0116310  38.1938360
 113.4759270 149.5836780  32.5849810 113.5972090 149.5423260  33.5335630
 113.0907780 150.4460930  32.4296540 117.4387640 147.3604180  40.6013500
 117.4560380 147.8112830  41.4455350 117.1903220 146.4609820  40.8146940
 112.4880770 151.8937920  31.9833110 111.9197670 151.4456170  31.3569020
 113.1969770 152.2530700  31.4498260 120.8658390 144.7736360  46.4399880
 121.1904160 144.0426020  46.9657860 120.9014900 144.4550000  45.5380870
 113.7147090 152.6426480  41.3408460 114.0817220 152.1685050  42.0869800
 113.5252150 153.5168050  41.6816800 106.5787580 147.3870170  37.4701930
 106.2934500 147.0225840  38.3080550 106.5166440 146.6550630  36.8565070
 111.5046460 151.6835120  43.6592670 111.2003530 152.5627100  43.8843030
 112.4592920 151.7434910  43.6950110 116.2526170 146.2799430  34.1915300
 115.4390780 145.7812600  34.1160610 116.0588120 147.1197680  33.7751650
 118.9674560 150.6519080  32.4877460 119.8554180 150.9636310  32.3128800
 118.9379650 149.7791330  32.0958040 107.5610190 152.5237860  44.8064030
 107.2025130 153.1891710  45.3937370 107.2664750 151.6921410  45.1776650
 110.7623310 152.9822100  47.6903580 110.4623450 153.1279280  46.7931400
 111.5334550 152.4227390  47.5976970 121.2388830 151.9630920  31.9557320
 121.1552550 152.3945140  31.1053760 121.9583020 152.4229270  32.3884140
 106.0718240 152.5229120  31.4298630 106.9413090 152.8053920  31.7134550
 105.5808560 153.3364990  31.3147440 109.1364830 144.2539980  36.0229430
 109.0079460 144.2457880  36.9714350 108.3126850 144.5923070  35.6720440
 106.1358760 146.0131100  45.4836130 105.4217280 146.2128020  46.0888740
 106.5553800 145.2370670  45.8550930 117.6297540 148.5053410  43.2337580
 117.9978360 147.6848620  43.5617150 116.7695740 148.5655300  43.6493230
 120.9959570 147.4610350  34.0425140 120.3672730 147.5656020  33.3283370
 120.5011490 147.6807130  34.8319020 112.9643600 149.7396300  35.4583020
 112.2559750 150.2082640  35.8996630 113.2488080 149.0818310  36.0928210
 114.5899530 151.1593000  43.4575550 115.0884780 151.6338820  44.1227400
 114.7322480 150.2356520  43.6645580 116.9959030 146.4646960  36.8978810
 116.8726810 146.4833090  35.9488320 117.9443590 146.5125900  37.0177210
 111.1678620 148.0481380  32.8333730 112.0169150 148.4851530  32.7673920
 110.8009890 148.3601640  33.6605790 121.7966390 147.3760960  44.3003940
 121.2939990 148.1166360  44.6397750 122.6123050 147.7644960  43.9840730
 120.0888400 152.6194140  37.7465300 119.1478540 152.6344370  37.9212990
 120.4032470 151.8330100  38.1925600 110.0670040 154.3013740  31.3069260
 110.8333310 154.1895100  31.8694690 110.1444730 153.6051710  30.6546030
 108.7616800 151.7338810  31.9902150 108.8420390 150.7866320  32.1019550
 109.6536550 152.0645690  32.0962810 106.2887600 153.5553730  47.2258320
 106.7926620 152.9761010  47.7974550 105.5495020 153.8393960  47.7634690
 108.3210680 151.6983320  48.1208390 108.3616020 151.3997190  49.0293620
 109.1756180 152.0990930  47.9615910 112.0989070 154.2978870  33.2811900
 112.5205490 154.1318740  34.1243290 112.2239910 153.4879100  32.7867040
 110.2616490 150.2775420  46.0882880 109.7312950 149.7866370  45.4606220
 110.9304560 150.7059620  45.5540810 114.6116710 153.3216480  30.5289000
 115.1322370 152.6065500  30.1630150 115.2585110 153.9602350  30.8289510
 119.6316720 152.0841040  47.8563220 120.2137490 151.3293360  47.7683700
 119.8078490 152.6148480  47.0794700 110.7488790 147.2437790  46.1680170
 110.6545660 146.6258540  45.4431040 110.1686180 147.9704080  45.9410080
 113.5150230 145.8011030  43.2007560 113.0667530 145.8235290  42.3553110
 112.8815430 145.4030050  43.7977860 116.2573680 152.4281540  45.2057840
 116.3769890 151.8322680  45.9452680 117.1167680 152.4651230  44.7859140
 118.5961580 152.9818730  43.7820350 118.0696800 153.5061350  43.1785490
 118.9392920 153.6146120  44.4130080 110.9947970 150.3712100  30.2270060
 110.7937030 149.5079460  30.5883400 110.8240020 150.2845460  29.2891660
 113.0242450 148.9702890  46.4633660 113.6142140 148.6618740  47.1511480
 112.2062690 148.4982640  46.6193560 117.8435880 148.5868700  46.6966680
 117.1551400 147.9250240  46.6316670 118.5641900 148.1406970  47.1415140
 118.4736280 145.1820330  32.7556940 118.7538570 144.3388230  33.1116360
 117.7002010 145.4143440  33.2695690 109.7930770 147.4712720  30.2147940
 110.0956670 147.4780150  29.3067090 110.5325360 147.1210580  30.7115600
 113.0115700 146.4147340  31.2004140 112.6637700 145.7371330  30.6206590
 113.2128470 145.9536850  32.0147530 106.3521340 152.9434990  37.5968510
 105.6970180 152.6746630  36.9528210 107.1899290 152.8339470  37.1470490
 119.3011780 147.7376280  31.8187000 119.7196660 147.5507260  30.9783660
 118.9947840 146.8855330  32.1289930 122.8001510 152.6500420  35.5162800
 122.4245110 151.8828350  35.0844090 122.0704630 153.0323120  36.0037730
 107.3897270 153.3287560  42.1371850 107.7570310 153.2414960  43.0167870
 106.8208090 152.5654110  42.0378710 122.1901130 151.7971940  45.1502320
 121.9587220 151.5684690  44.2500270 122.4505680 152.7171490  45.1047210
 106.9413270 150.2396650  46.0430270 106.0469320 150.2063410  46.3823980
 107.4810820 150.4383440  46.8081520 120.6289200 147.0228370  47.9282020
 121.5059380 147.0311770  48.3116020 120.6410040 146.2859210  47.3174370
 105.5659420 150.1533920  33.5393840 104.6623500 150.4164120  33.3645500
 106.0500040 150.4245090  32.7593800 122.0752470 150.8757910  38.8170040
 122.5989950 150.3820560  38.1860210 122.6611890 151.0108270  39.5617610
 122.2542190 150.9597780  42.3389590 121.3044900 150.9261320  42.4534580
 122.4355200 151.8697890  42.1039360 108.1086630 149.2099460  31.4488220
 108.8178330 148.7882680  30.9635500 107.3926570 149.2774690  30.8171570
 107.7560790 145.2638790  30.4890870 108.4788920 145.8047730  30.8072090
 108.0285310 144.9902210  29.6132410 121.5652440 150.1331260  34.7562450
 122.0611560 149.9002130  35.5411330 121.3668510 149.2943100  34.3400090
 107.4452980 144.5144980  40.3913490 108.0929170 143.9642360  39.9508650
 107.8654820 144.7688130  41.2129300 122.9939600 148.7692210  37.2900130
 122.8838880 148.6148250  38.2282400 123.7547190 148.2413150  37.0475540
 121.3405320 144.7086340  43.7483130 121.9777540 145.3220480  44.1142320
 121.4880210 144.7447000  42.8032360 123.8829870 146.6000130  30.5306270
 124.8079180 146.4681310  30.3224560 123.8605660 146.6792950  31.4842720
 123.9568360 147.3710790  33.1562980 123.1619860 147.3055910  33.6855890
 124.1611640 148.3061430  33.1448330 107.1984980 144.6700650  43.1338810
 106.8499800 145.1264470  43.8996990 106.8672680 143.7757780  43.2161240
 114.7109800 145.8612530  46.6558230 114.6498690 146.4534360  47.4053640
 115.6510180 145.7538490  46.5108490 117.3484360 145.5182590  46.2950520
 117.9624770 145.8361880  45.6331600 117.8933920 145.0331180  46.9146380
 107.8705620 144.1976850  46.4089580 108.4188610 144.0164900  45.6455690
 107.9360930 143.4070960  46.9445890 118.0892400 144.0814730  42.6219810
 117.2152240 144.4149840  42.4192740 117.9803150 143.6087910  43.4471680
 118.9964380 146.2885600  44.0061530 118.6677740 145.4737360  43.6263260
 119.9446680 146.2455410  43.8827220 115.8367220 144.9984570  41.5612720
 115.0539010 145.4730070  41.8409480 115.5430150 144.0939400  41.4525900
 120.3888290 145.7007670  39.6061810 120.8296380 145.6452770  38.7583410
 120.1195880 146.6165680  39.6771990 122.2526860 145.3322910  37.6170630
 122.1915260 144.3884130  37.4701650 123.0318890 145.4403000  38.1624090
 107.1807630 145.3032050  34.0826440 107.9386990 145.4160930  33.5090470
 106.7184800 146.1401250  34.0369870 113.7221440 147.4171320  37.0728750
 112.9095950 147.0428210  36.7324630 114.2263080 146.6616400  37.3749940
 118.2246420 144.0813770  38.3111820 118.8275790 144.6533980  38.7860340
 117.4839410 144.6453210  38.0885720 121.3681020 144.4835330  33.5852100
 121.5631650 145.3818780  33.8519530 120.5810890 144.2522410  34.0785050
 109.5532780 145.8296100  32.6228410 110.0825540 145.0425900  32.4936360
 110.1861100 146.5087290  32.8563940 111.7470620 145.5671240  35.6773800
 111.1173360 144.8658550  35.8443930 111.2075760 146.3275370  35.4606960
 111.8726180 144.8455220  48.1126290 111.5910450 145.3488820  47.3487110
 112.2545880 144.0476970  47.7468420 118.4741640 144.2608800  48.6906760
 118.3607090 144.5803410  49.5858280 119.2911380 144.6621310  48.3944040
 117.3799790 152.2801270  19.0541500 117.2993840 151.3655880  18.7833210
 116.9664210 152.7768340  18.3481210 115.5117830 154.0580290  20.9350770
 114.7359930 153.5780730  21.2249340 116.1630760 153.3785940  20.7606930
 107.9375610 149.3301990  15.5968920 107.0492310 149.6717960  15.4948800
 108.2216800 149.1302310  14.7049750 105.9008620 151.9307640  21.4808620
 106.4724730 151.1629840  21.4812260 105.9010160 152.2296400  20.5715230
 107.1433490 147.3392000  23.2677550 106.9636330 146.4417750  23.5480310
 106.7413570 147.8863870  23.9424500 115.9831990 149.5407860  21.1689860
 116.3596810 148.6679740  21.0563530 115.8851500 149.8766560  20.2780300
 110.1137000 147.9133490  16.6307300 110.2203750 148.8137220  16.9376060
 109.2029360 147.8651460  16.3401950 119.7656110 147.0358300  18.1018200
 120.5865730 146.5454870  18.1443680 119.7990190 147.6255960  18.8550040
 107.7620160 149.8352500  21.8759890 108.4430270 150.0990870  22.4947290
 107.4468210 148.9953370  22.2097900 111.9544730 150.8819860  20.9632480
 112.4622950 151.3800830  21.6037500 112.4857970 150.1055060  20.7871840
 124.0555660 149.0525050  24.6661830 123.3507830 149.4406760  24.1476940
 124.3213580 149.7475340  25.2682760 110.2380830 145.5218420  25.2295900
 110.2399270 146.0390810  24.4241800 109.4085140 145.0448600  25.2065830
 120.0017590 148.9758680  20.8745740 119.2973160 149.2643570  21.4548850
 120.3629750 149.7858790  20.5145300 109.9196160 147.2328380  23.2366350
 110.2612970 148.0770430  22.9420220 108.9811970 147.3812120  23.3531690
 123.0704510 148.4213470  21.2654950 122.1229420 148.4552450  21.3970380
 123.3954500 149.2352420  21.6504310 113.6024050 144.7210650  19.5610940
 113.9099030 144.1657540  18.8446440 112.6724750 144.8555110  19.3783930
 115.9904810 152.7859480  16.2971060 115.0634090 152.7196860  16.5259530
 116.1429630 153.7239610  16.1826300 115.9773890 149.0576480  13.2938220
 115.0377560 149.2190440  13.3790680 116.2957150 149.7762160  12.7474210
 119.4628660 150.5264320  24.2172120 119.0499840 151.3518030  24.4712110
 118.7304610 149.9409360  24.0248480 111.5961450 153.3124220  19.0790790
 111.1918450 152.6001470  18.5836690 111.6824570 152.9677460  19.9678830
 110.3090070 150.0867430  22.8589830 110.8604660 150.1962770  22.0843080
 110.8233580 150.4605030  23.5745060 118.1966800 153.5866590  13.8079060
 118.6360080 152.7489020  13.6616880 118.9095220 154.2195990  13.8943200
 121.7783940 144.8409400  12.1220100 121.4656600 144.9336230  13.0219170
 122.5396410 145.4190430  12.0717530 108.2966080 152.2069200  16.5797440
 108.1763680 152.9331290  15.9678710 107.9866970 151.4372110  16.1025350
 122.9885230 149.5780900  28.0994240 122.3729500 150.0860570  27.5709700
 122.6681650 148.6779230  28.0420180 110.7629740 145.5504270  19.9621110
 110.3197890 146.3313810  19.6305630 111.3214730 145.8734160  20.6692050
 115.0499550 148.4172790  25.5656430 114.5878920 148.6255810  26.3776370
 114.6477660 147.6032140  25.2627100 120.0504060 149.6381740  26.6953090
 119.1997650 149.3387490  27.0162160 119.8905850 149.8823750  25.7836910
 117.1453770 151.1383490  28.7951880 117.4707180 150.3047240  28.4554110
 117.9334100 151.6612010  28.9430210 113.8788560 145.1714970  14.8426940
 113.2542740 145.1674840  15.5680250 113.7918680 144.3045930  14.4462910
 112.8005640 146.0951600  21.8210710 113.0977970 147.0014430  21.7402730
 113.3491200 145.6070380  21.2070280 110.5543960 150.6737840  17.6902360
 110.3284880 150.4575010  18.5948980 109.7736490 151.1066300  17.3448330
 117.7841720 150.6801210  16.2893010 117.1850610 151.4037010  16.1056630
 118.3321330 150.6177990  15.5069460 112.9943170 151.5723420  28.3562630
 112.8986770 150.6318150  28.2063030 113.8375150 151.7938490  27.9610700
 116.3906590 149.3164750  18.3196290 116.7836160 149.6336950  17.5064980
 116.7523440 148.4376630  18.4340810 108.1253710 147.9837090  26.5096410
 107.7317100 148.8312300  26.7169190 107.4372110 147.3463460  26.7005050
 114.6998760 148.0672060  29.5793150 114.0097080 147.8744260  30.2139240
 115.4431060 148.3506700  30.1117450 105.4270760 145.9065550  20.5426490
 105.1383810 146.4768410  21.2551470 106.1716520 145.4270000  20.9057720
 105.6140990 149.8485670  11.7529210 105.5315660 150.7916430  11.8944200
 105.2624050 149.7060580  10.8741560 116.9761730 151.9070500  22.4147070
 116.2442850 152.4157310  22.7637170 116.5786070 151.0900480  22.1135850
 113.4139120 148.5824700  20.8199560 113.4175180 148.1414650  19.9704100
 114.3090240 148.9042030  20.9271380 109.2641500 148.4651190  19.7793770
 108.9241550 148.9426420  20.5360820 108.5018820 148.0116310  19.4194870
 113.4759270 149.5836780  13.8106320 113.5972090 149.5423260  14.7592140
 113.0907780 150.4460930  13.6553050 117.4387640 147.3604180  21.8270010
 117.4560380 147.8112830  22.6711860 117.1903220 146.4609820  22.0403450
 112.4880770 151.8937920  13.2089620 111.9197670 151.4456170  12.5825530
 113.1969770 152.2530700  12.6754770 120.8658390 144.7736360  27.6656390
 121.1904160 144.0426020  28.1914370 120.9014900 144.4550000  26.7637380
 113.7147090 152.6426480  22.5664970 114.0817220 152.1685050  23.3126310
 113.5252150 153.5168050  22.9073310 106.5787580 147.3870170  18.6958440
 106.2934500 147.0225840  19.5337060 106.5166440 146.6550630  18.0821580
 111.5046460 151.6835120  24.8849180 111.2003530 152.5627100  25.1099540
 112.4592920 151.7434910  24.9206620 116.2526170 146.2799430  15.4171810
 115.4390780 145.7812600  15.3417120 116.0588120 147.1197680  15.0008160
 118.9674560 150.6519080  13.7133970 119.8554180 150.9636310  13.5385310
 118.9379650 149.7791330  13.3214550 107.5610190 152.5237860  26.0320540
 107.2025130 153.1891710  26.6193880 107.2664750 151.6921410  26.4033160
 110.7623310 152.9822100  28.9160090 110.4623450 153.1279280  28.0187910
 111.5334550 152.4227390  28.8233480 121.2388830 151.9630920  13.1813830
 121.1552550 152.3945140  12.3310270 121.9583020 152.4229270  13.6140650
 106.0718240 152.5229120  12.6555140 106.9413090 152.8053920  12.9391060
 105.5808560 153.3364990  12.5403950 109.1364830 144.2539980  17.2485940
 109.0079460 144.2457880  18.1970860 108.3126850 144.5923070  16.8976950
 106.1358760 146.0131100  26.7092640 105.4217280 146.2128020  27.3145250
 106.5553800 145.2370670  27.0807440 117.6297540 148.5053410  24.4594090
 117.9978360 147.6848620  24.7873660 116.7695740 148.5655300  24.8749740
 120.9959570 147.4610350  15.2681650 120.3672730 147.5656020  14.5539880
 120.5011490 147.6807130  16.0575530 112.9643600 149.7396300  16.6839530
 112.2559750 150.2082640  17.1253140 113.2488080 149.0818310  17.3184720
 114.5899530 151.1593000  24.6832060 115.0884780 151.6338820  25.3483910
 114.7322480 150.2356520  24.8902090 116.9959030 146.4646960  18.1235320
 116.8726810 146.4833090  17.1744830 117.9443590 146.5125900  18.2433720
 111.1678620 148.0481380  14.0590240 112.0169150 148.4851530  13.9930430
 110.8009890 148.3601640  14.8862300 121.7966390 147.3760960  25.5260450
 121.2939990 148.1166360  25.8654260 122.6123050 147.7644960  25.2097240
 120.0888400 152.6194140  18.9721810 119.1478540 152.6344370  19.1469500
 120.4032470 151.8330100  19.4182110 110.0670040 154.3013740  12.5325770
 110.8333310 154.1895100  13.0951200 110.1444730 153.6051710  11.8802540
 108.7616800 151.7338810  13.2158660 108.8420390 150.7866320  13.3276060
 109.6536550 152.0645690  13.3219320 106.2887600 153.5553730  28.4514830
 106.7926620 152.9761010  29.0231060 105.5495020 153.8393960  28.9891200
 108.3210680 151.6983320  29.3464900 108.3616020 151.3997190  30.2550130
 109.1756180 152.0990930  29.1872420 112.0989070 154.2978870  14.5068410
 112.5205490 154.1318740  15.3499800 112.2239910 153.4879100  14.0123550
 110.2616490 150.2775420  27.3139390 109.7312950 149.7866370  26.6862730
 110.9304560 150.7059620  26.7797320 114.6116710 153.3216480  11.7545510
 115.1322370 152.6065500  11.3886660 115.2585110 153.9602350  12.0546020
 119.6316720 152.0841040  29.0819730 120.2137490 151.3293360  28.9940210
 119.8078490 152.6148480  28.3051210 110.7488790 147.2437790  27.3936680
 110.6545660 146.6258540  26.6687550 110.1686180 147.9704080  27.1666590
 113.5150230 145.8011030  24.4264070 113.0667530 145.8235290  23.5809620
 112.8815430 145.4030050  25.0234370 116.2573680 152.4281540  26.4314350
 116.3769890 151.8322680  27.1709190 117.1167680 152.4651230  26.0115650
 118.5961580 152.9818730  25.0076860 118.0696800 153.5061350  24.4042000
 118.9392920 153.6146120  25.6386590 110.9947970 150.3712100  11.4526570
 110.7937030 149.5079460  11.8139910 110.8240020 150.2845460  10.5148170
 113.0242450 148.9702890  27.6890170 113.6142140 148.6618740  28.3767990
 112.2062690 148.4982640  27.8450070 117.8435880 148.5868700  27.9223190
 117.1551400 147.9250240  27.8573180 118.5641900 148.1406970  28.3671650
 118.4736280 145.1820330  13.9813450 118.7538570 144.3388230  14.3372870
 117.7002010 145.4143440  14.4952200 109.7930770 147.4712720  11.4404450
 110.0956670 147.4780150  10.5323600 110.5325360 147.1210580  11.9372110
 113.0115700 146.4147340  12.4260650 112.6637700 145.7371330  11.8463100
 113.2128470 145.9536850  13.2404040 106.3521340 152.9434990  18.8225020
 105.6970180 152.6746630  18.1784720 107.1899290 152.8339470  18.3727000
 119.3011780 147.7376280  13.0443510 119.7196660 147.5507260  12.2040170
 118.9947840 146.8855330  13.3546440 122.8001510 152.6500420  16.7419310
 122.4245110 151.8828350  16.3100600 122.0704630 153.0323120  17.2294240
 107.3897270 153.3287560  23.3628360 107.7570310 153.2414960  24.2424380
 106.8208090 152.5654110  23.2635220 122.1901130 151.7971940  26.3758830
 121.9587220 151.5684690  25.4756780 122.4505680 152.7171490  26.3303720
 106.9413270 150.2396650  27.2686780 106.0469320 150.2063410  27.6080490
 107.4810820 150.4383440  28.0338030 120.6289200 147.0228370  29.1538530
 121.5059380 147.0311770  29.5372530 120.6410040 146.2859210  28.5430880
 105.5659420 150.1533920  14.7650350 104.6623500 150.4164120  14.5902010
 106.0500040 150.4245090  13.9850310 122.0752470 150.8757910  20.0426550
 122.5989950 150.3820560  19.4116720 122.6611890 151.0108270  20.7874120
 122.2542190 150.9597780  23.5646100 121.3044900 150.9261320  23.6791090
 122.4355200 151.8697890  23.3295870 108.1086630 149.2099460  12.6744730
 108.8178330 148.7882680  12.1892010 107.3926570 149.2774690  12.0428080
 107.7560790 145.2638790  11.7147380 108.4788920 145.8047730  12.0328600
 108.0285310 144.9902210  10.8388920 121.5652440 150.1331260  15.9818960
 122.0611560 149.9002130  16.7667840 121.3668510 149.2943100  15.5656600
 107.4452980 144.5144980  21.6170000 108.0929170 143.9642360  21.1765160
 107.8654820 144.7688130  22.4385810 122.9939600 148.7692210  18.5156640
 122.8838880 148.6148250  19.4538910 123.7547190 148.2413150  18.2732050
 121.3405320 144.7086340  24.9739640 121.9777540 145.3220480  25.3398830
 121.4880210 144.7447000  24.0288870 123.8829870 146.6000130  11.7562780
 124.8079180 146.4681310  11.5481070 123.8605660 146.6792950  12.7099230
 123.9568360 147.3710790  14.3819490 123.1619860 147.3055910  14.9112400
 124.1611640 148.3061430  14.3704840 107.1984980 144.6700650  24.3595320
 106.8499800 145.1264470  25.1253500 106.8672680 143.7757780  24.4417750
 114.7109800 145.8612530  27.8814740 114.6498690 146.4534360  28.6310150
 115.6510180 145.7538490  27.7365000 117.3484360 145.5182590  27.5207030
 117.9624770 145.8361880  26.8588110 117.8933920 145.0331180  28.1402890
 107.8705620 144.1976850  27.6346090 108.4188610 144.0164900  26.8712200
 107.9360930 143.4070960  28.1702400 118.0892400 144.0814730  23.8476320
 117.2152240 144.4149840  23.6449250 117.9803150 143.6087910  24.6728190
 118.9964380 146.2885600  25.2318040 118.6677740 145.4737360  24.8519770
 119.9446680 146.2455410  25.1083730 115.8367220 144.9984570  22.7869230
 115.0539010 145.4730070  23.0665990 115.5430150 144.0939400  22.6782410
 120.3888290 145.7007670  20.8318320 120.8296380 145.6452770  19.9839920
 120.1195880 146.6165680  20.9028500 122.2526860 145.3322910  18.8427140
 122.1915260 144.3884130  18.6958160 123.0318890 145.4403000  19.3880600
 107.1807630 145.3032050  15.3082950 107.9386990 145.4160930  14.7346980
 106.7184800 146.1401250  15.2626380 113.7221440 147.4171320  18.2985260
 112.9095950 147.0428210  17.9581140 114.2263080 146.6616400  18.6006450
 118.2246420 144.0813770  19.5368330 118.8275790 144.6533980  20.0116850
 117.4839410 144.6453210  19.3142230 121.3681020 144.4835330  14.8108610
 121.5631650 145.3818780  15.0776040 120.5810890 144.2522410  15.3041560
 109.5532780 145.8296100  13.8484920 110.0825540 145.0425900  13.7192870
 110.1861100 146.5087290  14.0820450 111.7470620 145.5671240  16.9030310
 111.1173360 144.8658550  17.0700440 111.2075760 146.3275370  16.6863470
 111.8726180 144.8455220  29.3382800 111.5910450 145.3488820  28.5743620
 112.2545880 144.0476970  28.9724930 118.4741640 144.2608800  29.9163270
 118.3607090 144.5803410  30.8114790 119.2911380 144.6621310  29.6200550
 115.5117830 154.0580290   2.1607280 114.7359930 153.5780730   2.4505850
 116.1630760 153.3785940   1.9863440 105.9008620 151.9307640   2.7065130
 106.4724730 151.1629840   2.7068770 105.9010160 152.2296400   1.7971740
 107.1433490 147.3392000   4.4934060 106.9636330 146.4417750   4.7736820
 106.7413570 147.8863870   5.1681010 107.7620160 149.8352500   3.1016400
 108.4430270 150.0990870   3.7203800 107.4468210 148.9953370   3.4354410
 111.9544730 150.8819860   2.1888990 112.4622950 151.3800830   2.8294010
 112.4857970 150.1055060   2.0128350 124.0555660 149.0525050   5.8918340
 123.3507830 149.4406760   5.3733450 124.3213580 149.7475340   6.4939270
 110.2380830 145.5218420   6.4552410 110.2399270 146.0390810   5.6498310
 109.4085140 145.0448600   6.4322340 120.0017590 148.9758680   2.1002250
 119.2973160 149.2643570   2.6805360 120.3629750 149.7858790   1.7401810
 109.9196160 147.2328380   4.4622860 110.2612970 148.0770430   4.1676730
 108.9811970 147.3812120   4.5788200 123.0704510 148.4213470   2.4911460
 122.1229420 148.4552450   2.6226890 123.3954500 149.2352420   2.8760820
 119.4628660 150.5264320   5.4428630 119.0499840 151.3518030   5.6968620
 118.7304610 149.9409360   5.2504990 110.3090070 150.0867430   4.0846340
 110.8604660 150.1962770   3.3099590 110.8233580 150.4605030   4.8001570
 122.9885230 149.5780900   9.3250750 122.3729500 150.0860570   8.7966210
 122.6681650 148.6779230   9.2676690 115.0499550 148.4172790   6.7912940
 114.5878920 148.6255810   7.6032880 114.6477660 147.6032140   6.4883610
 120.0504060 149.6381740   7.9209600 119.1997650 149.3387490   8.2418670
 119.8905850 149.8823750   7.0093420 117.1453770 151.1383490  10.0208390
 117.4707180 150.3047240   9.6810620 117.9334100 151.6612010  10.1686720
 112.8005640 146.0951600   3.0467220 113.0977970 147.0014430   2.9659240
 113.3491200 145.6070380   2.4326790 112.9943170 151.5723420   9.5819140
 112.8986770 150.6318150   9.4319540 113.8375150 151.7938490   9.1867210
 108.1253710 147.9837090   7.7352920 107.7317100 148.8312300   7.9425700
 107.4372110 147.3463460   7.9261560 114.6998760 148.0672060  10.8049660
 114.0097080 147.8744260  11.4395750 115.4431060 148.3506700  11.3373960
 105.4270760 145.9065550   1.7683000 105.1383810 146.4768410   2.4807980
 106.1716520 145.4270000   2.1314230 116.9761730 151.9070500   3.6403580
 116.2442850 152.4157310   3.9893680 116.5786070 151.0900480   3.3392360
 117.4387640 147.3604180   3.0526520 117.4560380 147.8112830   3.8968370
 117.1903220 146.4609820   3.2659960 120.8658390 144.7736360   8.8912900
 121.1904160 144.0426020   9.4170880 120.9014900 144.4550000   7.9893890
 113.7147090 152.6426480   3.7921480 114.0817220 152.1685050   4.5382820
 113.5252150 153.5168050   4.1329820 111.5046460 151.6835120   6.1105690
 111.2003530 152.5627100   6.3356050 112.4592920 151.7434910   6.1463130
 107.5610190 152.5237860   7.2577050 107.2025130 153.1891710   7.8450390
 107.2664750 151.6921410   7.6289670 110.7623310 152.9822100  10.1416600
 110.4623450 153.1279280   9.2444420 111.5334550 152.4227390  10.0489990
 106.1358760 146.0131100   7.9349150 105.4217280 146.2128020   8.5401760
 106.5553800 145.2370670   8.3063950 117.6297540 148.5053410   5.6850600
 117.9978360 147.6848620   6.0130170 116.7695740 148.5655300   6.1006250
 114.5899530 151.1593000   5.9088570 115.0884780 151.6338820   6.5740420
 114.7322480 150.2356520   6.1158600 121.7966390 147.3760960   6.7516960
 121.2939990 148.1166360   7.0910770 122.6123050 147.7644960   6.4353750
 106.2887600 153.5553730   9.6771340 106.7926620 152.9761010  10.2487570
 105.5495020 153.8393960  10.2147710 108.3210680 151.6983320  10.5721410
 108.3616020 151.3997190  11.4806640 109.1756180 152.0990930  10.4128930
 110.2616490 150.2775420   8.5395900 109.7312950 149.7866370   7.9119240
 110.9304560 150.7059620   8.0053830 119.6316720 152.0841040  10.3076240
 120.2137490 151.3293360  10.2196720 119.8078490 152.6148480   9.5307720
 110.7488790 147.2437790   8.6193190 110.6545660 146.6258540   7.8944060
 110.1686180 147.9704080   8.3923100 113.5150230 145.8011030   5.6520580
 113.0667530 145.8235290   4.8066130 112.8815430 145.4030050   6.2490880
 116.2573680 152.4281540   7.6570860 116.3769890 151.8322680   8.3965700
 117.1167680 152.4651230   7.2372160 118.5961580 152.9818730   6.2333370
 118.0696800 153.5061350   5.6298510 118.9392920 153.6146120   6.8643100
 113.0242450 148.9702890   8.9146680 113.6142140 148.6618740   9.6024500
 112.2062690 148.4982640   9.0706580 117.8435880 148.5868700   9.1479700
 117.1551400 147.9250240   9.0829690 118.5641900 148.1406970   9.5928160
 107.3897270 153.3287560   4.5884870 107.7570310 153.2414960   5.4680890
 106.8208090 152.5654110   4.4891730 122.1901130 151.7971940   7.6015340
 121.9587220 151.5684690   6.7013290 122.4505680 152.7171490   7.5560230
 106.9413270 150.2396650   8.4943290 106.0469320 150.2063410   8.8337000
 107.4810820 150.4383440   9.2594540 120.6289200 147.0228370  10.3795040
 121.5059380 147.0311770  10.7629040 120.6410040 146.2859210   9.7687390
 122.2542190 150.9597780   4.7902610 121.3044900 150.9261320   4.9047600
 122.4355200 151.8697890   4.5552380 107.4452980 144.5144980   2.8426510
 108.0929170 143.9642360   2.4021670 107.8654820 144.7688130   3.6642320
 121.3405320 144.7086340   6.1996150 121.9777540 145.3220480   6.5655340
 121.4880210 144.7447000   5.2545380 107.1984980 144.6700650   5.5851830
 106.8499800 145.1264470   6.3510010 106.8672680 143.7757780   5.6674260
 114.7109800 145.8612530   9.1071250 114.6498690 146.4534360   9.8566660
 115.6510180 145.7538490   8.9621510 117.3484360 145.5182590   8.7463540
 117.9624770 145.8361880   8.0844620 117.8933920 145.0331180   9.3659400
 107.8705620 144.1976850   8.8602600 108.4188610 144.0164900   8.0968710
 107.9360930 143.4070960   9.3958910 118.0892400 144.0814730   5.0732830
 117.2152240 144.4149840   4.8705760 117.9803150 143.6087910   5.8984700
 118.9964380 146.2885600   6.4574550 118.6677740 145.4737360   6.0776280
 119.9446680 146.2455410   6.3340240 115.8367220 144.9984570   4.0125740
 115.0539010 145.4730070   4.2922500 115.5430150 144.0939400   3.9038920
 111.8726180 144.8455220  10.5639310 111.5910450 145.3488820   9.8000130
 112.2545880 144.0476970  10.1981440 118.4741640 144.2608800  11.1419780
 118.3607090 144.5803410  12.0371300 119.2911380 144.6621310  10.8457060
 117.3799790 133.5057780 150.4745930 117.2993840 132.5912390 150.2037640
 116.9664210 134.0024850 149.7685640 119.5325260 139.6896990 151.1354330
 119.0706790 138.9184230 151.4641500 120.3450810 139.7163060 151.6406780
 107.9375610 130.5558500 147.0173350 107.0492310 130.8974470 146.9153230
 108.2216800 130.3558820 146.1254180 115.7588570 141.9755000 150.7558320
 115.1400010 142.4312500 150.1852760 116.6140350 142.1306460 150.3548020
 110.1137000 129.1390000 148.0511730 110.2203750 130.0393730 148.3580490
 109.2029360 129.0907970 147.7606380 119.7656110 128.2614810 149.5222630
 120.5865730 127.7711380 149.5648110 119.7990190 128.8512470 150.2754470
 116.6251920 136.8594240 148.1490230 116.0069190 137.3243690 147.5852950
 117.1375170 137.5521720 148.5659740 105.9935120 137.5450770 145.5229860
 105.6163100 138.0337870 144.7914760 106.2508190 138.2176050 146.1536390
 113.6024050 125.9467160 150.9815370 113.9099030 125.3914050 150.2650870
 112.6724750 126.0811620 150.7988360 120.4484530 138.3850670 148.3613000
 120.3380860 137.4425000 148.4862420 120.4452780 138.7466310 149.2475760
 115.9904810 134.0115990 147.7175490 115.0634090 133.9453370 147.9463960
 116.1429630 134.9496120 147.6030730 115.9773890 130.2832990 144.7142650
 115.0377560 130.4446950 144.7995110 116.2957150 131.0018670 144.1678640
 120.0202100 135.5736290 148.2210740 119.4014520 135.2355840 147.5737040
 120.0026550 134.9296050 148.9289930 111.5961450 134.5380730 150.4995220
 111.1918450 133.8257980 150.0041120 111.6824570 134.1933970 151.3883260
 118.1966800 134.8123100 145.2283490 118.6360080 133.9745530 145.0821310
 118.9095220 135.4452500 145.3147630 116.3062180 139.7519170 149.1964730
 116.7458090 140.4943500 148.7820120 116.2449070 139.9945740 150.1203690
 121.7783940 126.0665910 143.5424530 121.4656600 126.1592740 144.4423600
 122.5396410 126.6446940 143.4921960 108.2966080 133.4325710 148.0001870
 108.1763680 134.1587800 147.3883140 107.9866970 132.6628620 147.5229780
 107.1799080 138.3041040 150.2176690 106.7727160 138.4455630 149.3630290
 108.0712090 138.0201200 150.0147900 118.9732360 142.7388290 146.5527740
 118.8133500 142.4491230 147.4509570 118.8079070 141.9628420 146.0172970
 111.4520740 142.5186820 148.3299360 111.2763220 141.6022360 148.1167160
 110.5976480 142.8774110 148.5697160 118.6758490 140.2475850 145.1125740
 117.9823650 140.2453140 144.4528020 119.4181350 139.8235170 144.6819910
 118.2408420 141.8738560 149.1874230 118.6965370 141.0927940 149.5012850
 118.5800940 142.5845380 149.7315410 110.7629740 126.7760780 151.3825540
 110.3197890 127.5570320 151.0510060 111.3214730 127.0990670 152.0896480
 113.8788560 126.3971480 146.2631370 113.2542740 126.3931350 146.9884680
 113.7918680 125.5302440 145.8667340 110.5543960 131.8994350 149.1106790
 110.3284880 131.6831520 150.0153410 109.7736490 132.3322810 148.7652760
 117.7841720 131.9057720 147.7097440 117.1850610 132.6293520 147.5261060
 118.3321330 131.8434500 146.9273890 116.3906590 130.5421260 149.7400720
 116.7836160 130.8593460 148.9269410 116.7523440 129.6633140 149.8545240
 105.6140990 131.0742180 143.1733640 105.5315660 132.0172940 143.3148630
 105.2624050 130.9317090 142.2945990 113.4139120 129.8081210 152.2403990
 113.4175180 129.3671160 151.3908530 114.3090240 130.1298540 152.3475810
 109.2641500 129.6907700 151.1998200 108.9241550 130.1682930 151.9565250
 108.5018820 129.2372820 150.8399300 113.4759270 130.8093290 145.2310750
 113.5972090 130.7679770 146.1796570 113.0907780 131.6717440 145.0757480
 112.4880770 133.1194430 144.6294050 111.9197670 132.6712680 144.0029960
 113.1969770 133.4787210 144.0959200 106.5787580 128.6126680 150.1162870
 106.2934500 128.2482350 150.9541490 106.5166440 127.8807140 149.5026010
 110.0328250 137.1152620 146.9020460 109.2590510 136.5750240 146.7419180
 110.7622880 136.5959230 146.5638220 116.2526170 127.5055940 146.8376240
 115.4390780 127.0069110 146.7621550 116.0588120 128.3454190 146.4212590
 118.9674560 131.8775590 145.1338400 119.8554180 132.1892820 144.9589740
 118.9379650 131.0047840 144.7418980 110.0765650 136.7833000 150.5399270
 110.5944320 135.9801260 150.4856160 109.6249670 136.7212140 151.3816100
 114.9635150 138.0499280 145.8126570 115.3050850 138.7941510 145.3169890
 114.1347860 138.3630400 146.1751400 121.2388830 133.1887430 144.6018260
 121.1552550 133.6201650 143.7514700 121.9583020 133.6485780 145.0345080
 122.2676080 140.0429690 147.3300390 121.6252240 139.3885310 147.6044110
 121.8806740 140.4484780 146.5541060 117.8462560 137.3715120 151.1772080
 118.1986380 136.7743250 150.5173450 116.9624890 137.0459350 151.3480330
 113.9325840 138.1312810 148.5842490 114.6196970 138.6782020 148.9650080
 113.1458260 138.6753540 148.6192100 106.0718240 133.7485630 144.0759570
 106.9413090 134.0310430 144.3595490 105.5808560 134.5621500 143.9608380
 113.2353050 135.1358840 148.1967850 113.6915830 135.9464090 148.4228040
 112.8841260 134.8181980 149.0286340 109.1364830 125.4796490 148.6690370
 109.0079460 125.4714390 149.6175290 108.3126850 125.8179580 148.3181380
 120.6573460 138.9346150 143.8676740 120.4311040 138.2176590 144.4601380
 120.2669660 138.6858590 143.0298490 106.4389490 142.9613010 144.6421200
 106.7987130 143.5602350 143.9878470 106.2981830 143.5072900 145.4156230
 120.2389710 136.8518090 145.5290900 119.9511410 137.3130780 146.3168780
 121.0341880 136.3915860 145.7975120 112.4558110 140.3444210 145.4594870
 112.4468210 141.0773900 144.8439380 111.5356470 140.0975790 145.5521830
 108.0564750 135.5659100 146.2041630 107.4492700 136.3058000 146.2136930
 108.5314100 135.6558460 145.3779830 120.9959570 128.6866860 146.6886080
 120.3672730 128.7912530 145.9744310 120.5011490 128.9063640 147.4779960
 115.4417710 140.4072450 144.1220060 115.5429690 140.2036440 143.1922040
 114.5419450 140.1530730 144.3267840 112.9643600 130.9652810 148.1043960
 112.2559750 131.4339150 148.5457570 113.2488080 130.3074820 148.7389150
 116.9959030 127.6903470 149.5439750 116.8726810 127.7089600 148.5949260
 117.9443590 127.7382410 149.6638150 114.0835820 142.9258770 148.8167730
 114.3377320 142.8880160 147.8947100 113.1348300 142.7992100 148.8095980
 111.1678620 129.2737890 145.4794670 112.0169150 129.7108040 145.4134860
 110.8009890 129.5858150 146.3066730 120.0888400 133.8450650 150.3926240
 119.1478540 133.8600880 150.5673930 120.4032470 133.0586610 150.8386540
 110.0670040 135.5270250 143.9530200 110.8333310 135.4151610 144.5155630
 110.1444730 134.8308220 143.3006970 108.7616800 132.9595320 144.6363090
 108.8420390 132.0122830 144.7480490 109.6536550 133.2902200 144.7423750
 109.5631510 143.1090710 151.7397630 110.2993990 142.5606170 152.0106200
 109.9472430 143.9746720 151.6003620 106.4476990 139.1764280 147.6139140
 105.5216770 139.4185420 147.6044550 106.9133420 140.0038540 147.4923890
 112.6733820 142.2821020 143.5623200 113.4662430 142.5709850 143.1104990
 112.1538170 141.8513190 142.8835680 121.7263990 141.5091150 144.9859940
 121.4405500 141.0956290 144.1714120 121.5283540 142.4378860 144.8660460
 113.1911220 137.5024430 143.4265550 113.0861860 136.8876780 144.1526930
 113.0235440 136.9790320 142.6428560 116.4313950 136.5644460 144.0307540
 115.8824050 137.0113760 144.6750280 117.0533210 136.0593710 144.5545210
 112.0989070 135.5235380 145.9272840 112.5205490 135.3575250 146.7704230
 112.2239910 134.7135610 145.4327980 114.6116710 134.5472990 143.1749940
 115.1322370 133.8322010 142.8091090 115.2585110 135.1858860 143.4750450
 110.9947970 131.5968610 142.8731000 110.7937030 130.7335970 143.2344340
 110.8240020 131.5101970 141.9352600 118.4736280 126.4076840 145.4017880
 118.7538570 125.5644740 145.7577300 117.7002010 126.6399950 145.9156630
 109.7930770 128.6969230 142.8608880 110.0956670 128.7036660 141.9528030
 110.5325360 128.3467090 143.3576540 113.0115700 127.6403850 143.8465080
 112.6637700 126.9627840 143.2667530 113.2128470 127.1793360 144.6608470
 115.1764740 142.6284600 145.4651680 116.0715530 142.9669570 145.4870440
 115.2082370 141.9064010 144.8375960 108.8160900 138.0011650 143.6938680
 109.2535770 138.5441320 144.3496260 109.3008630 137.1758600 143.7035020
 106.0306700 140.7900680 151.1458940 106.3609710 139.9221740 150.9137580
 106.4597700 140.9959200 151.9763900 110.6268620 139.1209690 148.8060910
 110.3264160 138.9974660 149.7064820 110.5206110 138.2618280 148.3976640
 123.3960540 138.9006090 143.5087590 122.5653500 138.9682740 143.9794820
 123.5732370 139.7910210 143.2054450 122.8517000 135.6453570 146.0121790
 123.6135910 136.2150220 146.1181480 122.8671370 135.0780770 146.7830100
 106.3521340 134.1691500 150.2429450 105.6970180 133.9003140 149.5989150
 107.1899290 134.0595980 149.7931430 123.8576970 136.5003670 150.8563720
 124.2285800 135.7170990 150.4499690 124.4978900 137.1892770 150.6781020
 122.9036170 135.9387940 143.1694310 123.1785010 136.8466820 143.0413530
 122.7146910 135.8750470 144.1056300 119.3011780 128.9632790 144.4647940
 119.7196660 128.7763770 143.6244600 118.9947840 128.1111840 144.7750870
 122.8001510 133.8756930 148.1623740 122.4245110 133.1084860 147.7305030
 122.0704630 134.2579630 148.6498670 105.5659420 131.3790430 146.1854780
 104.6623500 131.6420630 146.0106440 106.0500040 131.6501600 145.4054740
 122.0752470 132.1014420 151.4630980 122.5989950 131.6077070 150.8321150
 122.6611890 132.2364780 152.2078550 108.1086630 130.4355970 144.0949160
 108.8178330 130.0139190 143.6096440 107.3926570 130.5031200 143.4632510
 107.7560790 126.4895300 143.1351810 108.4788920 127.0304240 143.4533030
 108.0285310 126.2158720 142.2593350 121.5652440 131.3587770 147.4023390
 122.0611560 131.1258640 148.1872270 121.3668510 130.5199610 146.9861030
 122.9939600 129.9948720 149.9361070 122.8838880 129.8404760 150.8743340
 123.7547190 129.4669660 149.6936480 123.8829870 127.8256640 143.1767210
 124.8079180 127.6937820 142.9685500 123.8605660 127.9049460 144.1303660
 123.9568360 128.5967300 145.8023920 123.1619860 128.5312420 146.3316830
 124.1611640 129.5317940 145.7909270 120.8986780 142.6358850 149.7962310
 121.4945850 142.3143420 149.1196730 121.1564930 142.1630670 150.5875580
 120.3888290 126.9264180 152.2522750 120.8296380 126.8709280 151.4044350
 120.1195880 127.8422190 152.3232930 122.2526860 126.5579420 150.2631570
 122.1915260 125.6140640 150.1162590 123.0318890 126.6659510 150.8085030
 106.5579610 142.6971780 149.2255520 106.3901650 142.0642460 149.9237410
 105.6914120 142.9031180 148.8749710 107.1807630 126.5288560 146.7287380
 107.9386990 126.6417440 146.1551410 106.7184800 127.3657760 146.6830810
 113.7221440 128.6427830 149.7189690 112.9095950 128.2684720 149.3785570
 114.2263080 127.8872910 150.0210880 118.2246420 125.3070280 150.9572760
 118.8275790 125.8790490 151.4321280 117.4839410 125.8709720 150.7346660
 121.3681020 125.7091840 146.2313040 121.5631650 126.6075290 146.4980470
 120.5810890 125.4778920 146.7245990 108.1642310 141.3905010 146.6705660
 107.6389930 141.7713040 145.9667620 108.0886890 142.0155780 147.3915370
 109.5532780 127.0552610 145.2689350 110.0825540 126.2682410 145.1397300
 110.1861100 127.7343800 145.5024880 111.7470620 126.7927750 148.3234740
 111.1173360 126.0915060 148.4904870 111.2075760 127.5531880 148.1067900
 122.9207630 142.9492550 147.9919600 123.0959820 142.2630290 147.3480520
 122.2229200 143.4739600 147.5996270 110.7635280 143.3387390 145.5454910
 111.4954100 143.0546670 144.9978800 111.0228950 143.1000670 146.4354290
 109.9250070 139.4552120 145.5501240 109.2958950 139.9237220 146.0987070
 110.0397900 138.6101340 145.9847430 117.3799790 133.5057780 131.7002440
 117.2993840 132.5912390 131.4294150 116.9664210 134.0024850 130.9942150
 115.5117830 135.2836800 133.5811710 114.7359930 134.8037240 133.8710280
 116.1630760 134.6042450 133.4067870 109.5283660 135.5956610 134.4587470
 108.6968540 135.3405320 134.8583980 110.1364640 135.6667380 135.1945390
 119.5325260 139.6896990 132.3610840 119.0706790 138.9184230 132.6898010
 120.3450810 139.7163060 132.8663290 109.5084920 139.6296700 134.6545490
 109.8112960 138.7394440 134.4755710 110.2528510 140.1866920 134.4267740
 107.9375610 130.5558500 128.2429860 107.0492310 130.8974470 128.1409740
 108.2216800 130.3558820 127.3510690 105.9008620 133.1564150 134.1269560
 106.4724730 132.3886350 134.1273200 105.9010160 133.4552910 133.2176170
 115.7588570 141.9755000 131.9814830 115.1400010 142.4312500 131.4109270
 116.6140350 142.1306460 131.5804530 114.9526820 137.9593990 133.5881870
 114.8835100 137.0183930 133.4271000 115.7146680 138.0495400 134.1604440
 107.1433490 128.5648510 135.9138490 106.9636330 127.6674260 136.1941250
 106.7413570 129.1120380 136.5885440 115.9831990 130.7664370 133.8150800
 116.3596810 129.8936250 133.7024470 115.8851500 131.1023070 132.9241240
 110.1137000 129.1390000 129.2768240 110.2203750 130.0393730 129.5837000
 109.2029360 129.0907970 128.9862890 119.7656110 128.2614810 130.7479140
 120.5865730 127.7711380 130.7904620 119.7990190 128.8512470 131.5010980
 107.7620160 131.0609010 134.5220830 108.4430270 131.3247380 135.1408230
 107.4468210 130.2209880 134.8558840 111.9544730 132.1076370 133.6093420
 112.4622950 132.6057340 134.2498440 112.4857970 131.3311570 133.4332780
 124.0555660 130.2781560 137.3122770 123.3507830 130.6663270 136.7937880
 124.3213580 130.9731850 137.9143700 110.2380830 126.7474930 137.8756840
 110.2399270 127.2647320 137.0702740 109.4085140 126.2705110 137.8526770
 116.6251920 136.8594240 129.3746740 116.0069190 137.3243690 128.8109460
 117.1375170 137.5521720 129.7916250 111.4883680 136.3870110 136.0530340
 111.1553060 137.0139030 136.6951410 111.6650360 136.9131990 135.2732010
 120.0017590 130.2015190 133.5206680 119.2973160 130.4900080 134.1009790
 120.3629750 131.0115300 133.1606240 109.9196160 128.4584890 135.8827290
 110.2612970 129.3026940 135.5881160 108.9811970 128.6068630 135.9992630
 110.7002780 138.3550910 137.8679520 111.3176780 139.0301990 137.5863970
 109.8395900 138.7638890 137.7767020 105.9935120 137.5450770 126.7486370
 105.6163100 138.0337870 126.0171270 106.2508190 138.2176050 127.3792900
 121.6180370 139.8190320 135.7834160 120.9343890 140.4889430 135.7750830
 122.1574660 140.0170970 135.0179020 123.0704510 129.6469980 133.9115890
 122.1229420 129.6808960 134.0431320 123.3954500 130.4608930 134.2965250
 113.6024050 125.9467160 132.2071880 113.9099030 125.3914050 131.4907380
 112.6724750 126.0811620 132.0244870 119.1539110 141.6634450 134.4979340
 119.1666270 141.2596740 133.6301600 118.6014330 142.4381740 134.3940770
 120.4484530 138.3850670 129.5869510 120.3380860 137.4425000 129.7118930
 120.4452780 138.7466310 130.4732270 118.5524550 136.5664290 135.8261950
 118.9693340 136.3524400 134.9915410 119.2764370 136.8237080 136.3970570
 115.9904810 134.0115990 128.9432000 115.0634090 133.9453370 129.1720470
 116.1429630 134.9496120 128.8287240 115.9773890 130.2832990 125.9399160
 115.0377560 130.4446950 126.0251620 116.2957150 131.0018670 125.3935150
 122.4986650 134.9651510 135.9178190 121.6705280 135.0344600 135.4428320
 123.0937130 135.5505820 135.4494020 120.0202100 135.5736290 129.4467250
 119.4014520 135.2355840 128.7993550 120.0026550 134.9296050 130.1546440
 119.4628660 131.7520830 136.8633060 119.0499840 132.5774540 137.1173050
 118.7304610 131.1665870 136.6709420 111.5961450 134.5380730 131.7251730
 111.1918450 133.8257980 131.2297630 111.6824570 134.1933970 132.6139770
 112.0643150 138.2248290 133.8890940 111.7671440 137.6193760 133.2098720
 113.0142970 138.2625600 133.7780300 110.3090070 131.3123940 135.5050770
 110.8604660 131.4219280 134.7304020 110.8233580 131.6861540 136.2206000
 120.1528760 141.7980160 137.5514040 119.6759320 142.6052350 137.3586650
 119.4690550 141.1458490 137.7040250 111.1561580 137.9629980 140.5398740
 110.2590110 138.1869950 140.7872140 111.1814450 138.0864920 139.5910140
 118.1966800 134.8123100 126.4540000 118.6360080 133.9745530 126.3077820
 118.9095220 135.4452500 126.5404140 109.9832800 134.8343300 139.1156110
 109.8440570 135.7066100 139.4843510 109.1014160 134.4916110 138.9704050
 116.3062180 139.7519170 130.4221240 116.7458090 140.4943500 130.0076630
 116.2449070 139.9945740 131.3460200 111.7813150 140.7765000 141.3241260
 111.7528580 141.1807950 140.4569690 111.6178120 139.8475360 141.1612860
 121.7783940 126.0665910 124.7681040 121.4656600 126.1592740 125.6680110
 122.5396410 126.6446940 124.7178470 108.2966080 133.4325710 129.2258380
 108.1763680 134.1587800 128.6139650 107.9866970 132.6628620 128.7486290
 123.7327970 141.5592100 142.6205430 124.2087690 142.0374990 143.2994510
 124.3535130 141.4909590 141.8950930 105.9351450 136.6040850 135.0327020
 106.0131870 136.7389620 134.0882740 106.5493130 135.8956740 135.2255140
 107.1799080 138.3041040 131.4433200 106.7727160 138.4455630 130.5886800
 108.0712090 138.0201200 131.2404410 123.1361220 138.7504950 139.7805440
 123.2624280 138.5116830 138.8622620 123.1782600 137.9189490 140.2527520
 116.9977960 142.4532950 138.3500250 117.5122630 142.3640960 139.1522680
 116.1547040 142.7992650 138.6428160 118.9732360 142.7388290 127.7784250
 118.8133500 142.4491230 128.6766080 118.8079070 141.9628420 127.2429480
 111.4520740 142.5186820 129.5555870 111.2763220 141.6022360 129.3423670
 110.5976480 142.8774110 129.7953670 118.6758490 140.2475850 126.3382250
 117.9823650 140.2453140 125.6784530 119.4181350 139.8235170 125.9076420
 118.2408420 141.8738560 130.4130740 118.6965370 141.0927940 130.7269360
 118.5800940 142.5845380 130.9571920 122.9885230 130.8037410 140.7455180
 122.3729500 131.3117080 140.2170640 122.6681650 129.9035740 140.6881120
 105.9910970 137.6455020 137.5721480 106.1542010 137.1760380 136.7540850
 106.4563420 137.1378580 138.2370320 110.7629740 126.7760780 132.6082050
 110.3197890 127.5570320 132.2766570 111.3214730 127.0990670 133.3152990
 115.0499550 129.6429300 138.2117370 114.5878920 129.8512320 139.0237310
 114.6477660 128.8288650 137.9088040 120.0504060 130.8638250 139.3414030
 119.1997650 130.5644000 139.6623100 119.8905850 131.1080260 138.4297850
 117.1453770 132.3640000 141.4412820 117.4707180 131.5303750 141.1015050
 117.9334100 132.8868520 141.5891150 113.8788560 126.3971480 127.4887880
 113.2542740 126.3931350 128.2141190 113.7918680 125.5302440 127.0923850
 112.8005640 127.3208110 134.4671650 113.0977970 128.2270940 134.3863670
 113.3491200 126.8326890 133.8531220 110.5543960 131.8994350 130.3363300
 110.3284880 131.6831520 131.2409920 109.7736490 132.3322810 129.9909270
 117.7841720 131.9057720 128.9353950 117.1850610 132.6293520 128.7517570
 118.3321330 131.8434500 128.1530400 112.9943170 132.7979930 141.0023570
 112.8986770 131.8574660 140.8523970 113.8375150 133.0195000 140.6071640
 116.3906590 130.5421260 130.9657230 116.7836160 130.8593460 130.1525920
 116.7523440 129.6633140 131.0801750 108.1253710 129.2093600 139.1557350
 107.7317100 130.0568810 139.3630130 107.4372110 128.5719970 139.3465990
 114.6998760 129.2928570 142.2254090 114.0097080 129.1000770 142.8600180
 115.4431060 129.5763210 142.7578390 105.4270760 127.1322060 133.1887430
 105.1383810 127.7024920 133.9012410 106.1716520 126.6526510 133.5518660
 105.6140990 131.0742180 124.3990150 105.5315660 132.0172940 124.5405140
 105.2624050 130.9317090 123.5202500 116.9761730 133.1327010 135.0608010
 116.2442850 133.6413820 135.4098110 116.5786070 132.3156990 134.7596790
 113.4139120 129.8081210 133.4660500 113.4175180 129.3671160 132.6165040
 114.3090240 130.1298540 133.5732320 109.2641500 129.6907700 132.4254710
 108.9241550 130.1682930 133.1821760 108.5018820 129.2372820 132.0655810
 113.4759270 130.8093290 126.4567260 113.5972090 130.7679770 127.4053080
 113.0907780 131.6717440 126.3013990 117.4387640 128.5860690 134.4730950
 117.4560380 129.0369340 135.3172800 117.1903220 127.6866330 134.6864390
 112.4880770 133.1194430 125.8550560 111.9197670 132.6712680 125.2286470
 113.1969770 133.4787210 125.3215710 120.8658390 125.9992870 140.3117330
 121.1904160 125.2682530 140.8375310 120.9014900 125.6806510 139.4098320
 107.5649950 137.0206450 139.7317290 107.1804740 136.3800120 140.3300250
 107.8762140 137.7242570 140.3012020 113.7147090 133.8682990 135.2125910
 114.0817220 133.3941560 135.9587250 113.5252150 134.7424560 135.5534250
 106.5787580 128.6126680 131.3419380 106.2934500 128.2482350 132.1798000
 106.5166440 127.8807140 130.7282520 111.5046460 132.9091630 137.5310120
 111.2003530 133.7883610 137.7560480 112.4592920 132.9691420 137.5667560
 110.0328250 137.1152620 128.1276970 109.2590510 136.5750240 127.9675690
 110.7622880 136.5959230 127.7894730 120.7916230 136.1117980 133.9203360
 121.5115350 136.6073270 133.5299470 120.5898050 135.4335870 133.2757230
 116.2526170 127.5055940 128.0632750 115.4390780 127.0069110 127.9878060
 116.0588120 128.3454190 127.6469100 116.1735030 136.1827040 139.8072360
 116.1072340 135.2622710 139.5529950 115.5440170 136.2802480 140.5217000
 118.9674560 131.8775590 126.3594910 119.8554180 132.1892820 126.1846250
 118.9379650 131.0047840 125.9675490 110.0765650 136.7833000 131.7655780
 110.5944320 135.9801260 131.7112670 109.6249670 136.7212140 132.6072610
 114.9635150 138.0499280 127.0383080 115.3050850 138.7941510 126.5426400
 114.1347860 138.3630400 127.4007910 107.5610190 133.7494370 138.6781480
 107.2025130 134.4148220 139.2654820 107.2664750 132.9177920 139.0494100
 110.7623310 134.2078610 141.5621030 110.4623450 134.3535790 140.6648850
 111.5334550 133.6483900 141.4694420 116.1051760 139.0047610 139.5576160
 116.1196300 138.0728570 139.3395070 115.3976860 139.0907370 140.1965930
 121.2388830 133.1887430 125.8274770 121.1552550 133.6201650 124.9771210
 121.9583020 133.6485780 126.2601590 122.3162970 135.6454950 138.9044740
 121.5911160 136.2383730 138.7074130 122.8438430 135.6378490 138.1058110
 122.2676080 140.0429690 128.5556900 121.6252240 139.3885310 128.8300620
 121.8806740 140.4484780 127.7797570 117.8462560 137.3715120 132.4028590
 118.1986380 136.7743250 131.7429960 116.9624890 137.0459350 132.5736840
 113.9325840 138.1312810 129.8099000 114.6196970 138.6782020 130.1906590
 113.1458260 138.6753540 129.8448610 106.0718240 133.7485630 125.3016080
 106.9413090 134.0310430 125.5852000 105.5808560 134.5621500 125.1864890
 113.2353050 135.1358840 129.4224360 113.6915830 135.9464090 129.6484550
 112.8841260 134.8181980 130.2542850 115.5385660 140.6465180 136.6516660
 116.1827880 140.8524560 137.3290080 115.9015100 139.8853580 136.1987510
 109.1364830 125.4796490 129.8946880 109.0079460 125.4714390 130.8431800
 108.3126850 125.8179580 129.5437890 116.8117740 138.6497530 135.3694110
 117.4539970 137.9490690 135.4826280 117.3367090 139.4295970 135.1891000
 120.6573460 138.9346150 125.0933250 120.4311040 138.2176590 125.6857890
 120.2669660 138.6858590 124.2555000 118.5855360 139.4492430 138.5730170
 118.9211600 140.0359120 139.2508090 117.6655700 139.3185140 138.8027960
 106.4389490 142.9613010 125.8677710 106.7987130 143.5602350 125.2134980
 106.2981830 143.5072900 126.6412740 106.1358760 127.2387610 139.3553580
 105.4217280 127.4384530 139.9606190 106.5553800 126.4627180 139.7268380
 120.2389710 136.8518090 126.7547410 119.9511410 137.3130780 127.5425290
 121.0341880 136.3915860 127.0231630 106.4231350 141.2267870 140.3420110
 106.5322470 140.2862610 140.2015500 105.7711910 141.4922620 139.6933840
 114.4143940 139.4983760 141.7418230 114.0940810 138.7793000 142.2863920
 113.7402300 140.1738830 141.8154290 112.4558110 140.3444210 126.6851380
 112.4468210 141.0773900 126.0695890 111.5356470 140.0975790 126.7778340
 108.0564750 135.5659100 127.4298140 107.4492700 136.3058000 127.4393440
 108.5314100 135.6558460 126.6036340 117.6297540 129.7309920 137.1055030
 117.9978360 128.9105130 137.4334600 116.7695740 129.7911810 137.5210680
 120.9959570 128.6866860 127.9142590 120.3672730 128.7912530 127.2000820
 120.5011490 128.9063640 128.7036470 115.4417710 140.4072450 125.3476570
 115.5429690 140.2036440 124.4178550 114.5419450 140.1530730 125.5524350
 112.9643600 130.9652810 129.3300470 112.2559750 131.4339150 129.7714080
 113.2488080 130.3074820 129.9645660 114.5899530 132.3849510 137.3293000
 115.0884780 132.8595330 137.9944850 114.7322480 131.4613030 137.5363030
 116.9959030 127.6903470 130.7696260 116.8726810 127.7089600 129.8205770
 117.9443590 127.7382410 130.8894660 114.0835820 142.9258770 130.0424240
 114.3377320 142.8880160 129.1203610 113.1348300 142.7992100 130.0352490
 111.1678620 129.2737890 126.7051180 112.0169150 129.7108040 126.6391370
 110.8009890 129.5858150 127.5323240 121.7966390 128.6017470 138.1721390
 121.2939990 129.3422870 138.5115200 122.6123050 128.9901470 137.8558180
 120.0888400 133.8450650 131.6182750 119.1478540 133.8600880 131.7930440
 120.4032470 133.0586610 132.0643050 110.0670040 135.5270250 125.1786710
 110.8333310 135.4151610 125.7412140 110.1444730 134.8308220 124.5263480
 108.7616800 132.9595320 125.8619600 108.8420390 132.0122830 125.9737000
 109.6536550 133.2902200 125.9680260 122.0913980 141.0159500 133.2937010
 122.2161400 141.8390670 133.7660820 122.9579540 140.8050230 132.9461160
 109.5631510 143.1090710 132.9654140 110.2993990 142.5606170 133.2362710
 109.9472430 143.9746720 132.8260130 106.4476990 139.1764280 128.8395650
 105.5216770 139.4185420 128.8301060 106.9133420 140.0038540 128.7180400
 108.5689790 142.2936780 142.1539720 109.3702520 142.6148830 142.5675120
 108.0541610 141.9332360 142.8759630 112.6733820 142.2821020 124.7879710
 113.4662430 142.5709850 124.3361500 112.1538170 141.8513190 124.1092190
 117.4054420 138.4016650 142.1015130 116.7992580 138.4248250 141.3610880
 117.1008530 137.6699690 142.6382380 118.8354790 142.1296940 140.7124540
 119.7876540 142.0454960 140.6624780 118.6883010 142.7938650 141.3858330
 121.7263990 141.5091150 126.2116450 121.4405500 141.0956290 125.3970630
 121.5283540 142.4378860 126.0916970 106.2887600 134.7810240 141.0975770
 106.7926620 134.2017520 141.6692000 105.5495020 135.0650470 141.6352140
 113.1911220 137.5024430 124.6522060 113.0861860 136.8876780 125.3783440
 113.0235440 136.9790320 123.8685070 113.3425540 136.1881230 140.6311290
 112.5771210 136.7566230 140.5465960 113.5241500 135.8957440 139.7379520
 116.4313950 136.5644460 125.2564050 115.8824050 137.0113760 125.9006790
 117.0533210 136.0593710 125.7801720 120.4848890 137.9186560 141.1886310
 121.2258360 138.2562320 140.6853770 119.7221570 138.0878620 140.6356080
 108.3210680 132.9239830 141.9925840 108.3616020 132.6253700 142.9011070
 109.1756180 133.3247440 141.8333360 112.0989070 135.5235380 127.1529350
 112.5205490 135.3575250 127.9960740 112.2239910 134.7135610 126.6584490
 110.2616490 131.5031930 139.9600330 109.7312950 131.0122880 139.3323670
 110.9304560 131.9316130 139.4258260 114.6116710 134.5472990 124.4006450
 115.1322370 133.8322010 124.0347600 115.2585110 135.1858860 124.7006960
 119.1594550 135.9701390 139.7241520 119.5735570 136.1246470 140.5731940
 118.2245550 136.0956610 139.8867300 119.6316720 133.3097550 141.7280670
 120.2137490 132.5549870 141.6401150 119.8078490 133.8404990 140.9512150
 110.7488790 128.4694300 140.0397620 110.6545660 127.8515050 139.3148490
 110.1686180 129.1960590 139.8127530 113.5150230 127.0267540 137.0725010
 113.0667530 127.0491800 136.2270560 112.8815430 126.6286560 137.6695310
 113.9209780 135.9221870 137.6937450 114.3397890 136.7654600 137.5213690
 113.0018410 136.0593910 137.4644230 116.2573680 133.6538050 139.0775290
 116.3769890 133.0579190 139.8170130 117.1167680 133.6907740 138.6576590
 118.5961580 134.2075240 137.6537800 118.0696800 134.7317860 137.0502940
 118.9392920 134.8402630 138.2847530 110.9947970 131.5968610 124.0987510
 110.7937030 130.7335970 124.4600850 110.8240020 131.5101970 123.1609110
 111.7717200 142.2274880 138.8095180 111.2338290 142.9520940 138.4903880
 112.0251160 141.7505220 138.0192520 113.0242450 130.1959400 140.3351110
 113.6142140 129.8875250 141.0228930 112.2062690 129.7239150 140.4911010
 117.8435880 129.8125210 140.5684130 117.1551400 129.1506750 140.5034120
 118.5641900 129.3663480 141.0132590 118.4736280 126.4076840 126.6274390
 118.7538570 125.5644740 126.9833810 117.7002010 126.6399950 127.1413140
 109.7930770 128.6969230 124.0865390 110.0956670 128.7036660 123.1784540
 110.5325360 128.3467090 124.5833050 114.6279410 143.4626090 139.0681830
 114.5538110 144.3661230 139.3754200 113.7258250 143.1437990 139.0403900
 113.0115700 127.6403850 125.0721590 112.6637700 126.9627840 124.4924040
 113.2128470 127.1793360 125.8864980 115.1764740 142.6284600 126.6908190
 116.0715530 142.9669570 126.7126950 115.2082370 141.9064010 126.0632470
 108.8160900 138.0011650 124.9195190 109.2535770 138.5441320 125.5752770
 109.3008630 137.1758600 124.9291530 106.0306700 140.7900680 132.3715450
 106.3609710 139.9221740 132.1394090 106.4597700 140.9959200 133.2020410
 110.6268620 139.1209690 130.0317420 110.3264160 138.9974660 130.9321330
 110.5206110 138.2618280 129.6233150 106.5196910 141.6571270 135.1097080
 106.0827900 141.8372070 135.9421230 107.0874590 142.4145890 134.9678800
 122.1559090 141.1588270 139.3974390 121.5561080 141.2180830 138.6538310
 122.2852990 140.2193250 139.5271240 123.3960540 138.9006090 124.7344100
 122.5653500 138.9682740 125.2051330 123.5732370 139.7910210 124.4310960
 122.8517000 135.6453570 127.2378300 123.6135910 136.2150220 127.3437990
 122.8671370 135.0780770 128.0086610 106.3521340 134.1691500 131.4685960
 105.6970180 133.9003140 130.8245660 107.1899290 134.0595980 131.0187940
 123.8576970 136.5003670 132.0820230 124.2285800 135.7170990 131.6756200
 124.4978900 137.1892770 131.9037530 120.8410730 137.8840250 137.4950550
 120.0270570 138.3137410 137.7576340 121.2484930 138.4958660 136.8819600
 122.9036170 135.9387940 124.3950820 123.1785010 136.8466820 124.2670040
 122.7146910 135.8750470 125.3312810 119.3011780 128.9632790 125.6904450
 119.7196660 128.7763770 124.8501110 118.9947840 128.1111840 126.0007380
 122.8001510 133.8756930 129.3880250 122.4245110 133.1084860 128.9561540
 122.0704630 134.2579630 129.8755180 107.3897270 134.5544070 136.0089300
 107.7570310 134.4671470 136.8885320 106.8208090 133.7910620 135.9096160
 122.1901130 133.0228450 139.0219770 121.9587220 132.7941200 138.1217720
 122.4505680 133.9428000 138.9764660 106.9413270 131.4653160 139.9147720
 106.0469320 131.4319920 140.2541430 107.4810820 131.6639950 140.6798970
 120.6289200 128.2484880 141.7999470 121.5059380 128.2568280 142.1833470
 120.6410040 127.5115720 141.1891820 105.5659420 131.3790430 127.4111290
 104.6623500 131.6420630 127.2362950 106.0500040 131.6501600 126.6311250
 122.0752470 132.1014420 132.6887490 122.5989950 131.6077070 132.0577660
 122.6611890 132.2364780 133.4335060 122.2542190 132.1854290 136.2107040
 121.3044900 132.1517830 136.3252030 122.4355200 133.0954400 135.9756810
 108.1086630 130.4355970 125.3205670 108.8178330 130.0139190 124.8352950
 107.3926570 130.5031200 124.6889020 107.7560790 126.4895300 124.3608320
 108.4788920 127.0304240 124.6789540 108.0285310 126.2158720 123.4849860
 121.5652440 131.3587770 128.6279900 122.0611560 131.1258640 129.4128780
 121.3668510 130.5199610 128.2117540 107.4452980 125.7401490 134.2630940
 108.0929170 125.1898870 133.8226100 107.8654820 125.9944640 135.0846750
 122.9939600 129.9948720 131.1617580 122.8838880 129.8404760 132.0999850
 123.7547190 129.4669660 130.9192990 121.3405320 125.9342850 137.6200580
 121.9777540 126.5476990 137.9859770 121.4880210 125.9703510 136.6749810
 123.8829870 127.8256640 124.4023720 124.8079180 127.6937820 124.1942010
 123.8605660 127.9049460 125.3560170 123.9568360 128.5967300 127.0280430
 123.1619860 128.5312420 127.5573340 124.1611640 129.5317940 127.0165780
 120.8986780 142.6358850 131.0218820 121.4945850 142.3143420 130.3453240
 121.1564930 142.1630670 131.8132090 107.1984980 125.8957160 137.0056260
 106.8499800 126.3520980 137.7714440 106.8672680 125.0014290 137.0878690
 108.8049350 139.0676760 141.1709450 108.7618980 138.6969670 142.0523910
 108.9360360 140.0054330 141.3111270 112.5055380 140.6236350 136.7719170
 112.2646740 140.8910910 135.8849690 113.4458020 140.7942080 136.8270030
 114.7109800 127.0869040 140.5275680 114.6498690 127.6790870 141.2771090
 115.6510180 126.9795000 140.3825940 117.3484360 126.7439100 140.1667970
 117.9624770 127.0618390 139.5049050 117.8933920 126.2587690 140.7863830
 123.7659540 142.6430730 137.5729810 123.2717820 143.0399600 136.8556940
 123.1572830 142.0179940 137.9667090 107.8705620 125.4233360 140.2807030
 108.4188610 125.2421410 139.5173140 107.9360930 124.6327470 140.8163340
 108.6437380 142.0139010 138.2907230 108.0497700 141.8823710 139.0297270
 108.6361220 141.1777150 137.8249330 118.0892400 125.3071240 136.4937260
 117.2152240 125.6406350 136.2910190 117.9803150 124.8344420 137.3189130
 118.9964380 127.5142110 137.8778980 118.6677740 126.6993870 137.4980710
 119.9446680 127.4711920 137.7544670 121.4498990 143.2854150 134.8516550
 120.9901960 144.0369960 134.4774570 120.8211450 142.5660620 134.7931350
 108.2749610 139.3797390 137.2415270 107.5483670 138.7602680 137.1741220
 108.3358760 139.7738000 136.3713350 111.8794710 141.5942390 134.0264680
 112.3959730 140.9829750 133.5012940 112.5292090 142.0971170 134.5175690
 114.6190210 142.4850880 134.8533660 114.9068020 142.2305180 133.9766670
 115.1313430 141.9328240 135.4439230 115.8367220 126.2241080 135.4330170
 115.0539010 126.6986580 135.7126930 115.5430150 125.3195910 135.3243350
 120.3888290 126.9264180 133.4779260 120.8296380 126.8709280 132.6300860
 120.1195880 127.8422190 133.5489440 122.2526860 126.5579420 131.4888080
 122.1915260 125.6140640 131.3419100 123.0318890 126.6659510 132.0341540
 106.5579610 142.6971780 130.4512030 106.3901650 142.0642460 131.1493920
 105.6914120 142.9031180 130.1006220 107.1807630 126.5288560 127.9543890
 107.9386990 126.6417440 127.3807920 106.7184800 127.3657760 127.9087320
 113.7221440 128.6427830 130.9446200 112.9095950 128.2684720 130.6042080
 114.2263080 127.8872910 131.2467390 118.2246420 125.3070280 132.1829270
 118.8275790 125.8790490 132.6577790 117.4839410 125.8709720 131.9603170
 121.3681020 125.7091840 127.4569550 121.5631650 126.6075290 127.7236980
 120.5810890 125.4778920 127.9502500 108.1642310 141.3905010 127.8962170
 107.6389930 141.7713040 127.1924130 108.0886890 142.0155780 128.6171880
 109.5532780 127.0552610 126.4945860 110.0825540 126.2682410 126.3653810
 110.1861100 127.7343800 126.7281390 111.7470620 126.7927750 129.5491250
 111.1173360 126.0915060 129.7161380 111.2075760 127.5531880 129.3324410
 114.6862570 143.4066980 142.2201860 115.6129880 143.1711250 142.2637820
 114.6713000 144.2338980 141.7387890 122.9207630 142.9492550 129.2176110
 123.0959820 142.2630290 128.5737030 122.2229200 143.4739600 128.8252780
 111.8726180 126.0711730 141.9843740 111.5910450 126.5745330 141.2204560
 112.2545880 125.2733480 141.6185870 110.7635280 143.3387390 126.7711420
 111.4954100 143.0546670 126.2235310 111.0228950 143.1000670 127.6610800
 109.9250070 139.4552120 126.7757750 109.2958950 139.9237220 127.3243580
 110.0397900 138.6101340 127.2103940 118.4741640 125.4865310 142.5624210
 118.3607090 125.8059920 143.4575730 119.2911380 125.8877820 142.2661490
 121.2540130 142.6336840 142.0442900 122.0465450 142.1386070 141.8368860
 121.5473280 143.3126980 142.6518510 117.3799790 133.5057780 112.9258950
 117.2993840 132.5912390 112.6550660 116.9664210 134.0024850 112.2198660
 115.5117830 135.2836800 114.8068220 114.7359930 134.8037240 115.0966790
 116.1630760 134.6042450 114.6324380 109.5283660 135.5956610 115.6843980
 108.6968540 135.3405320 116.0840490 110.1364640 135.6667380 116.4201900
 119.5325260 139.6896990 113.5867350 119.0706790 138.9184230 113.9154520
 120.3450810 139.7163060 114.0919800 109.5084920 139.6296700 115.8802000
 109.8112960 138.7394440 115.7012220 110.2528510 140.1866920 115.6524250
 107.9375610 130.5558500 109.4686370 107.0492310 130.8974470 109.3666250
 108.2216800 130.3558820 108.5767200 105.9008620 133.1564150 115.3526070
 106.4724730 132.3886350 115.3529710 105.9010160 133.4552910 114.4432680
 115.7588570 141.9755000 113.2071340 115.1400010 142.4312500 112.6365780
 116.6140350 142.1306460 112.8061040 114.9526820 137.9593990 114.8138380
 114.8835100 137.0183930 114.6527510 115.7146680 138.0495400 115.3860950
 107.1433490 128.5648510 117.1395000 106.9636330 127.6674260 117.4197760
 106.7413570 129.1120380 117.8141950 115.9831990 130.7664370 115.0407310
 116.3596810 129.8936250 114.9280980 115.8851500 131.1023070 114.1497750
 110.1137000 129.1390000 110.5024750 110.2203750 130.0393730 110.8093510
 109.2029360 129.0907970 110.2119400 119.7656110 128.2614810 111.9735650
 120.5865730 127.7711380 112.0161130 119.7990190 128.8512470 112.7267490
 107.7620160 131.0609010 115.7477340 108.4430270 131.3247380 116.3664740
 107.4468210 130.2209880 116.0815350 111.9544730 132.1076370 114.8349930
 112.4622950 132.6057340 115.4754950 112.4857970 131.3311570 114.6589290
 124.0555660 130.2781560 118.5379280 123.3507830 130.6663270 118.0194390
 124.3213580 130.9731850 119.1400210 110.2380830 126.7474930 119.1013350
 110.2399270 127.2647320 118.2959250 109.4085140 126.2705110 119.0783280
 116.6251920 136.8594240 110.6003250 116.0069190 137.3243690 110.0365970
 117.1375170 137.5521720 111.0172760 111.4883680 136.3870110 117.2786850
 111.1553060 137.0139030 117.9207920 111.6650360 136.9131990 116.4988520
 120.0017590 130.2015190 114.7463190 119.2973160 130.4900080 115.3266300
 120.3629750 131.0115300 114.3862750 109.9196160 128.4584890 117.1083800
 110.2612970 129.3026940 116.8137670 108.9811970 128.6068630 117.2249140
 110.7002780 138.3550910 119.0936030 111.3176780 139.0301990 118.8120480
 109.8395900 138.7638890 119.0023530 105.9935120 137.5450770 107.9742880
 105.6163100 138.0337870 107.2427780 106.2508190 138.2176050 108.6049410
 121.6180370 139.8190320 117.0090670 120.9343890 140.4889430 117.0007340
 122.1574660 140.0170970 116.2435530 123.0704510 129.6469980 115.1372400
 122.1229420 129.6808960 115.2687830 123.3954500 130.4608930 115.5221760
 113.6024050 125.9467160 113.4328390 113.9099030 125.3914050 112.7163890
 112.6724750 126.0811620 113.2501380 119.1539110 141.6634450 115.7235850
 119.1666270 141.2596740 114.8558110 118.6014330 142.4381740 115.6197280
 120.4484530 138.3850670 110.8126020 120.3380860 137.4425000 110.9375440
 120.4452780 138.7466310 111.6988780 118.5524550 136.5664290 117.0518460
 118.9693340 136.3524400 116.2171920 119.2764370 136.8237080 117.6227080
 115.9904810 134.0115990 110.1688510 115.0634090 133.9453370 110.3976980
 116.1429630 134.9496120 110.0543750 115.9773890 130.2832990 107.1655670
 115.0377560 130.4446950 107.2508130 116.2957150 131.0018670 106.6191660
 122.4986650 134.9651510 117.1434700 121.6705280 135.0344600 116.6684830
 123.0937130 135.5505820 116.6750530 120.0202100 135.5736290 110.6723760
 119.4014520 135.2355840 110.0250060 120.0026550 134.9296050 111.3802950
 119.4628660 131.7520830 118.0889570 119.0499840 132.5774540 118.3429560
 118.7304610 131.1665870 117.8965930 111.5961450 134.5380730 112.9508240
 111.1918450 133.8257980 112.4554140 111.6824570 134.1933970 113.8396280
 112.0643150 138.2248290 115.1147450 111.7671440 137.6193760 114.4355230
 113.0142970 138.2625600 115.0036810 110.3090070 131.3123940 116.7307280
 110.8604660 131.4219280 115.9560530 110.8233580 131.6861540 117.4462510
 120.1528760 141.7980160 118.7770550 119.6759320 142.6052350 118.5843160
 119.4690550 141.1458490 118.9296760 111.1561580 137.9629980 121.7655250
 110.2590110 138.1869950 122.0128650 111.1814450 138.0864920 120.8166650
 118.1966800 134.8123100 107.6796510 118.6360080 133.9745530 107.5334330
 118.9095220 135.4452500 107.7660650 109.9832800 134.8343300 120.3412620
 109.8440570 135.7066100 120.7100020 109.1014160 134.4916110 120.1960560
 116.3062180 139.7519170 111.6477750 116.7458090 140.4943500 111.2333140
 116.2449070 139.9945740 112.5716710 111.7813150 140.7765000 122.5497770
 111.7528580 141.1807950 121.6826200 111.6178120 139.8475360 122.3869370
 121.7783940 126.0665910 105.9937550 121.4656600 126.1592740 106.8936620
 122.5396410 126.6446940 105.9434980 108.2966080 133.4325710 110.4514890
 108.1763680 134.1587800 109.8396160 107.9866970 132.6628620 109.9742800
 123.7327970 141.5592100 123.8461940 124.2087690 142.0374990 124.5251020
 124.3535130 141.4909590 123.1207440 105.9351450 136.6040850 116.2583530
 106.0131870 136.7389620 115.3139250 106.5493130 135.8956740 116.4511650
 107.1799080 138.3041040 112.6689710 106.7727160 138.4455630 111.8143310
 108.0712090 138.0201200 112.4660920 123.1361220 138.7504950 121.0061950
 123.2624280 138.5116830 120.0879130 123.1782600 137.9189490 121.4784030
 116.9977960 142.4532950 119.5756760 117.5122630 142.3640960 120.3779190
 116.1547040 142.7992650 119.8684670 118.9732360 142.7388290 109.0040760
 118.8133500 142.4491230 109.9022590 118.8079070 141.9628420 108.4685990
 111.4520740 142.5186820 110.7812380 111.2763220 141.6022360 110.5680180
 110.5976480 142.8774110 111.0210180 118.6758490 140.2475850 107.5638760
 117.9823650 140.2453140 106.9041040 119.4181350 139.8235170 107.1332930
 118.2408420 141.8738560 111.6387250 118.6965370 141.0927940 111.9525870
 118.5800940 142.5845380 112.1828430 122.9885230 130.8037410 121.9711690
 122.3729500 131.3117080 121.4427150 122.6681650 129.9035740 121.9137630
 105.9910970 137.6455020 118.7977990 106.1542010 137.1760380 117.9797360
 106.4563420 137.1378580 119.4626830 110.7629740 126.7760780 113.8338560
 110.3197890 127.5570320 113.5023080 111.3214730 127.0990670 114.5409500
 115.0499550 129.6429300 119.4373880 114.5878920 129.8512320 120.2493820
 114.6477660 128.8288650 119.1344550 120.0504060 130.8638250 120.5670540
 119.1997650 130.5644000 120.8879610 119.8905850 131.1080260 119.6554360
 117.1453770 132.3640000 122.6669330 117.4707180 131.5303750 122.3271560
 117.9334100 132.8868520 122.8147660 113.8788560 126.3971480 108.7144390
 113.2542740 126.3931350 109.4397700 113.7918680 125.5302440 108.3180360
 112.8005640 127.3208110 115.6928160 113.0977970 128.2270940 115.6120180
 113.3491200 126.8326890 115.0787730 110.5543960 131.8994350 111.5619810
 110.3284880 131.6831520 112.4666430 109.7736490 132.3322810 111.2165780
 117.7841720 131.9057720 110.1610460 117.1850610 132.6293520 109.9774080
 118.3321330 131.8434500 109.3786910 112.9943170 132.7979930 122.2280080
 112.8986770 131.8574660 122.0780480 113.8375150 133.0195000 121.8328150
 116.3906590 130.5421260 112.1913740 116.7836160 130.8593460 111.3782430
 116.7523440 129.6633140 112.3058260 108.1253710 129.2093600 120.3813860
 107.7317100 130.0568810 120.5886640 107.4372110 128.5719970 120.5722500
 114.6998760 129.2928570 123.4510600 114.0097080 129.1000770 124.0856690
 115.4431060 129.5763210 123.9834900 105.4270760 127.1322060 114.4143940
 105.1383810 127.7024920 115.1268920 106.1716520 126.6526510 114.7775170
 105.6140990 131.0742180 105.6246660 105.5315660 132.0172940 105.7661650
 105.2624050 130.9317090 104.7459010 116.9761730 133.1327010 116.2864520
 116.2442850 133.6413820 116.6354620 116.5786070 132.3156990 115.9853300
 113.4139120 129.8081210 114.6917010 113.4175180 129.3671160 113.8421550
 114.3090240 130.1298540 114.7988830 109.2641500 129.6907700 113.6511220
 108.9241550 130.1682930 114.4078270 108.5018820 129.2372820 113.2912320
 113.4759270 130.8093290 107.6823770 113.5972090 130.7679770 108.6309590
 113.0907780 131.6717440 107.5270500 117.4387640 128.5860690 115.6987460
 117.4560380 129.0369340 116.5429310 117.1903220 127.6866330 115.9120900
 112.4880770 133.1194430 107.0807070 111.9197670 132.6712680 106.4542980
 113.1969770 133.4787210 106.5472220 120.8658390 125.9992870 121.5373840
 121.1904160 125.2682530 122.0631820 120.9014900 125.6806510 120.6354830
 107.5649950 137.0206450 120.9573800 107.1804740 136.3800120 121.5556760
 107.8762140 137.7242570 121.5268530 113.7147090 133.8682990 116.4382420
 114.0817220 133.3941560 117.1843760 113.5252150 134.7424560 116.7790760
 106.5787580 128.6126680 112.5675890 106.2934500 128.2482350 113.4054510
 106.5166440 127.8807140 111.9539030 111.5046460 132.9091630 118.7566630
 111.2003530 133.7883610 118.9816990 112.4592920 132.9691420 118.7924070
 110.0328250 137.1152620 109.3533480 109.2590510 136.5750240 109.1932200
 110.7622880 136.5959230 109.0151240 120.7916230 136.1117980 115.1459870
 121.5115350 136.6073270 114.7555980 120.5898050 135.4335870 114.5013740
 116.2526170 127.5055940 109.2889260 115.4390780 127.0069110 109.2134570
 116.0588120 128.3454190 108.8725610 116.1735030 136.1827040 121.0328870
 116.1072340 135.2622710 120.7786460 115.5440170 136.2802480 121.7473510
 118.9674560 131.8775590 107.5851420 119.8554180 132.1892820 107.4102760
 118.9379650 131.0047840 107.1932000 110.0765650 136.7833000 112.9912290
 110.5944320 135.9801260 112.9369180 109.6249670 136.7212140 113.8329120
 114.9635150 138.0499280 108.2639590 115.3050850 138.7941510 107.7682910
 114.1347860 138.3630400 108.6264420 107.5610190 133.7494370 119.9037990
 107.2025130 134.4148220 120.4911330 107.2664750 132.9177920 120.2750610
 110.7623310 134.2078610 122.7877540 110.4623450 134.3535790 121.8905360
 111.5334550 133.6483900 122.6950930 116.1051760 139.0047610 120.7832670
 116.1196300 138.0728570 120.5651580 115.3976860 139.0907370 121.4222440
 121.2388830 133.1887430 107.0531280 121.1552550 133.6201650 106.2027720
 121.9583020 133.6485780 107.4858100 122.3162970 135.6454950 120.1301250
 121.5911160 136.2383730 119.9330640 122.8438430 135.6378490 119.3314620
 122.2676080 140.0429690 109.7813410 121.6252240 139.3885310 110.0557130
 121.8806740 140.4484780 109.0054080 117.8462560 137.3715120 113.6285100
 118.1986380 136.7743250 112.9686470 116.9624890 137.0459350 113.7993350
 113.9325840 138.1312810 111.0355510 114.6196970 138.6782020 111.4163100
 113.1458260 138.6753540 111.0705120 106.0718240 133.7485630 106.5272590
 106.9413090 134.0310430 106.8108510 105.5808560 134.5621500 106.4121400
 113.2353050 135.1358840 110.6480870 113.6915830 135.9464090 110.8741060
 112.8841260 134.8181980 111.4799360 115.5385660 140.6465180 117.8773170
 116.1827880 140.8524560 118.5546590 115.9015100 139.8853580 117.4244020
 109.1364830 125.4796490 111.1203390 109.0079460 125.4714390 112.0688310
 108.3126850 125.8179580 110.7694400 116.8117740 138.6497530 116.5950620
 117.4539970 137.9490690 116.7082790 117.3367090 139.4295970 116.4147510
 120.6573460 138.9346150 106.3189760 120.4311040 138.2176590 106.9114400
 120.2669660 138.6858590 105.4811510 118.5855360 139.4492430 119.7986680
 118.9211600 140.0359120 120.4764600 117.6655700 139.3185140 120.0284470
 106.4389490 142.9613010 107.0934220 106.7987130 143.5602350 106.4391490
 106.2981830 143.5072900 107.8669250 106.1358760 127.2387610 120.5810090
 105.4217280 127.4384530 121.1862700 106.5553800 126.4627180 120.9524890
 120.2389710 136.8518090 107.9803920 119.9511410 137.3130780 108.7681800
 121.0341880 136.3915860 108.2488140 106.4231350 141.2267870 121.5676620
 106.5322470 140.2862610 121.4272010 105.7711910 141.4922620 120.9190350
 114.4143940 139.4983760 122.9674740 114.0940810 138.7793000 123.5120430
 113.7402300 140.1738830 123.0410800 112.4558110 140.3444210 107.9107890
 112.4468210 141.0773900 107.2952400 111.5356470 140.0975790 108.0034850
 108.0564750 135.5659100 108.6554650 107.4492700 136.3058000 108.6649950
 108.5314100 135.6558460 107.8292850 117.6297540 129.7309920 118.3311540
 117.9978360 128.9105130 118.6591110 116.7695740 129.7911810 118.7467190
 120.9959570 128.6866860 109.1399100 120.3672730 128.7912530 108.4257330
 120.5011490 128.9063640 109.9292980 115.4417710 140.4072450 106.5733080
 115.5429690 140.2036440 105.6435060 114.5419450 140.1530730 106.7780860
 112.9643600 130.9652810 110.5556980 112.2559750 131.4339150 110.9970590
 113.2488080 130.3074820 111.1902170 114.5899530 132.3849510 118.5549510
 115.0884780 132.8595330 119.2201360 114.7322480 131.4613030 118.7619540
 116.9959030 127.6903470 111.9952770 116.8726810 127.7089600 111.0462280
 117.9443590 127.7382410 112.1151170 114.0835820 142.9258770 111.2680750
 114.3377320 142.8880160 110.3460120 113.1348300 142.7992100 111.2609000
 111.1678620 129.2737890 107.9307690 112.0169150 129.7108040 107.8647880
 110.8009890 129.5858150 108.7579750 121.7966390 128.6017470 119.3977900
 121.2939990 129.3422870 119.7371710 122.6123050 128.9901470 119.0814690
 120.0888400 133.8450650 112.8439260 119.1478540 133.8600880 113.0186950
 120.4032470 133.0586610 113.2899560 110.0670040 135.5270250 106.4043220
 110.8333310 135.4151610 106.9668650 110.1444730 134.8308220 105.7519990
 108.7616800 132.9595320 107.0876110 108.8420390 132.0122830 107.1993510
 109.6536550 133.2902200 107.1936770 122.0913980 141.0159500 114.5193520
 122.2161400 141.8390670 114.9917330 122.9579540 140.8050230 114.1717670
 109.5631510 143.1090710 114.1910650 110.2993990 142.5606170 114.4619220
 109.9472430 143.9746720 114.0516640 106.4476990 139.1764280 110.0652160
 105.5216770 139.4185420 110.0557570 106.9133420 140.0038540 109.9436910
 108.5689790 142.2936780 123.3796230 109.3702520 142.6148830 123.7931630
 108.0541610 141.9332360 124.1016140 112.6733820 142.2821020 106.0136220
 113.4662430 142.5709850 105.5618010 112.1538170 141.8513190 105.3348700
 117.4054420 138.4016650 123.3271640 116.7992580 138.4248250 122.5867390
 117.1008530 137.6699690 123.8638890 118.8354790 142.1296940 121.9381050
 119.7876540 142.0454960 121.8881290 118.6883010 142.7938650 122.6114840
 121.7263990 141.5091150 107.4372960 121.4405500 141.0956290 106.6227140
 121.5283540 142.4378860 107.3173480 106.2887600 134.7810240 122.3232280
 106.7926620 134.2017520 122.8948510 105.5495020 135.0650470 122.8608650
 113.1911220 137.5024430 105.8778570 113.0861860 136.8876780 106.6039950
 113.0235440 136.9790320 105.0941580 113.3425540 136.1881230 121.8567800
 112.5771210 136.7566230 121.7722470 113.5241500 135.8957440 120.9636030
 116.4313950 136.5644460 106.4820560 115.8824050 137.0113760 107.1263300
 117.0533210 136.0593710 107.0058230 120.4848890 137.9186560 122.4142820
 121.2258360 138.2562320 121.9110280 119.7221570 138.0878620 121.8612590
 108.3210680 132.9239830 123.2182350 108.3616020 132.6253700 124.1267580
 109.1756180 133.3247440 123.0589870 112.0989070 135.5235380 108.3785860
 112.5205490 135.3575250 109.2217250 112.2239910 134.7135610 107.8841000
 110.2616490 131.5031930 121.1856840 109.7312950 131.0122880 120.5580180
 110.9304560 131.9316130 120.6514770 114.6116710 134.5472990 105.6262960
 115.1322370 133.8322010 105.2604110 115.2585110 135.1858860 105.9263470
 119.1594550 135.9701390 120.9498030 119.5735570 136.1246470 121.7988450
 118.2245550 136.0956610 121.1123810 119.6316720 133.3097550 122.9537180
 120.2137490 132.5549870 122.8657660 119.8078490 133.8404990 122.1768660
 110.7488790 128.4694300 121.2654130 110.6545660 127.8515050 120.5405000
 110.1686180 129.1960590 121.0384040 113.5150230 127.0267540 118.2981520
 113.0667530 127.0491800 117.4527070 112.8815430 126.6286560 118.8951820
 113.9209780 135.9221870 118.9193960 114.3397890 136.7654600 118.7470200
 113.0018410 136.0593910 118.6900740 116.2573680 133.6538050 120.3031800
 116.3769890 133.0579190 121.0426640 117.1167680 133.6907740 119.8833100
 118.5961580 134.2075240 118.8794310 118.0696800 134.7317860 118.2759450
 118.9392920 134.8402630 119.5104040 110.9947970 131.5968610 105.3244020
 110.7937030 130.7335970 105.6857360 110.8240020 131.5101970 104.3865620
 111.7717200 142.2274880 120.0351690 111.2338290 142.9520940 119.7160390
 112.0251160 141.7505220 119.2449030 113.0242450 130.1959400 121.5607620
 113.6142140 129.8875250 122.2485440 112.2062690 129.7239150 121.7167520
 117.8435880 129.8125210 121.7940640 117.1551400 129.1506750 121.7290630
 118.5641900 129.3663480 122.2389100 118.4736280 126.4076840 107.8530900
 118.7538570 125.5644740 108.2090320 117.7002010 126.6399950 108.3669650
 109.7930770 128.6969230 105.3121900 110.0956670 128.7036660 104.4041050
 110.5325360 128.3467090 105.8089560 114.6279410 143.4626090 120.2938340
 114.5538110 144.3661230 120.6010710 113.7258250 143.1437990 120.2660410
 113.0115700 127.6403850 106.2978100 112.6637700 126.9627840 105.7180550
 113.2128470 127.1793360 107.1121490 115.1764740 142.6284600 107.9164700
 116.0715530 142.9669570 107.9383460 115.2082370 141.9064010 107.2888980
 108.8160900 138.0011650 106.1451700 109.2535770 138.5441320 106.8009280
 109.3008630 137.1758600 106.1548040 106.0306700 140.7900680 113.5971960
 106.3609710 139.9221740 113.3650600 106.4597700 140.9959200 114.4276920
 110.6268620 139.1209690 111.2573930 110.3264160 138.9974660 112.1577840
 110.5206110 138.2618280 110.8489660 106.5196910 141.6571270 116.3353590
 106.0827900 141.8372070 117.1677740 107.0874590 142.4145890 116.1935310
 122.1559090 141.1588270 120.6230900 121.5561080 141.2180830 119.8794820
 122.2852990 140.2193250 120.7527750 123.3960540 138.9006090 105.9600610
 122.5653500 138.9682740 106.4307840 123.5732370 139.7910210 105.6567470
 122.8517000 135.6453570 108.4634810 123.6135910 136.2150220 108.5694500
 122.8671370 135.0780770 109.2343120 106.3521340 134.1691500 112.6942470
 105.6970180 133.9003140 112.0502170 107.1899290 134.0595980 112.2444450
 123.8576970 136.5003670 113.3076740 124.2285800 135.7170990 112.9012710
 124.4978900 137.1892770 113.1294040 120.8410730 137.8840250 118.7207060
 120.0270570 138.3137410 118.9832850 121.2484930 138.4958660 118.1076110
 122.9036170 135.9387940 105.6207330 123.1785010 136.8466820 105.4926550
 122.7146910 135.8750470 106.5569320 119.3011780 128.9632790 106.9160960
 119.7196660 128.7763770 106.0757620 118.9947840 128.1111840 107.2263890
 122.8001510 133.8756930 110.6136760 122.4245110 133.1084860 110.1818050
 122.0704630 134.2579630 111.1011690 107.3897270 134.5544070 117.2345810
 107.7570310 134.4671470 118.1141830 106.8208090 133.7910620 117.1352670
 122.1901130 133.0228450 120.2476280 121.9587220 132.7941200 119.3474230
 122.4505680 133.9428000 120.2021170 106.9413270 131.4653160 121.1404230
 106.0469320 131.4319920 121.4797940 107.4810820 131.6639950 121.9055480
 120.6289200 128.2484880 123.0255980 121.5059380 128.2568280 123.4089980
 120.6410040 127.5115720 122.4148330 105.5659420 131.3790430 108.6367800
 104.6623500 131.6420630 108.4619460 106.0500040 131.6501600 107.8567760
 122.0752470 132.1014420 113.9144000 122.5989950 131.6077070 113.2834170
 122.6611890 132.2364780 114.6591570 122.2542190 132.1854290 117.4363550
 121.3044900 132.1517830 117.5508540 122.4355200 133.0954400 117.2013320
 108.1086630 130.4355970 106.5462180 108.8178330 130.0139190 106.0609460
 107.3926570 130.5031200 105.9145530 107.7560790 126.4895300 105.5864830
 108.4788920 127.0304240 105.9046050 108.0285310 126.2158720 104.7106370
 121.5652440 131.3587770 109.8536410 122.0611560 131.1258640 110.6385290
 121.3668510 130.5199610 109.4374050 107.4452980 125.7401490 115.4887450
 108.0929170 125.1898870 115.0482610 107.8654820 125.9944640 116.3103260
 122.9939600 129.9948720 112.3874090 122.8838880 129.8404760 113.3256360
 123.7547190 129.4669660 112.1449500 121.3405320 125.9342850 118.8457090
 121.9777540 126.5476990 119.2116280 121.4880210 125.9703510 117.9006320
 123.8829870 127.8256640 105.6280230 124.8079180 127.6937820 105.4198520
 123.8605660 127.9049460 106.5816680 123.9568360 128.5967300 108.2536940
 123.1619860 128.5312420 108.7829850 124.1611640 129.5317940 108.2422290
 120.8986780 142.6358850 112.2475330 121.4945850 142.3143420 111.5709750
 121.1564930 142.1630670 113.0388600 107.1984980 125.8957160 118.2312770
 106.8499800 126.3520980 118.9970950 106.8672680 125.0014290 118.3135200
 108.8049350 139.0676760 122.3965960 108.7618980 138.6969670 123.2780420
 108.9360360 140.0054330 122.5367780 112.5055380 140.6236350 117.9975680
 112.2646740 140.8910910 117.1106200 113.4458020 140.7942080 118.0526540
 114.7109800 127.0869040 121.7532190 114.6498690 127.6790870 122.5027600
 115.6510180 126.9795000 121.6082450 117.3484360 126.7439100 121.3924480
 117.9624770 127.0618390 120.7305560 117.8933920 126.2587690 122.0120340
 123.7659540 142.6430730 118.7986320 123.2717820 143.0399600 118.0813450
 123.1572830 142.0179940 119.1923600 107.8705620 125.4233360 121.5063540
 108.4188610 125.2421410 120.7429650 107.9360930 124.6327470 122.0419850
 108.6437380 142.0139010 119.5163740 108.0497700 141.8823710 120.2553780
 108.6361220 141.1777150 119.0505840 118.0892400 125.3071240 117.7193770
 117.2152240 125.6406350 117.5166700 117.9803150 124.8344420 118.5445640
 118.9964380 127.5142110 119.1035490 118.6677740 126.6993870 118.7237220
 119.9446680 127.4711920 118.9801180 121.4498990 143.2854150 116.0773060
 120.9901960 144.0369960 115.7031080 120.8211450 142.5660620 116.0187860
 108.2749610 139.3797390 118.4671780 107.5483670 138.7602680 118.3997730
 108.3358760 139.7738000 117.5969860 111.8794710 141.5942390 115.2521190
 112.3959730 140.9829750 114.7269450 112.5292090 142.0971170 115.7432200
 114.6190210 142.4850880 116.0790170 114.9068020 142.2305180 115.2023180
 115.1313430 141.9328240 116.6695740 115.8367220 126.2241080 116.6586680
 115.0539010 126.6986580 116.9383440 115.5430150 125.3195910 116.5499860
 120.3888290 126.9264180 114.7035770 120.8296380 126.8709280 113.8557370
 120.1195880 127.8422190 114.7745950 122.2526860 126.5579420 112.7144590
 122.1915260 125.6140640 112.5675610 123.0318890 126.6659510 113.2598050
 106.5579610 142.6971780 111.6768540 106.3901650 142.0642460 112.3750430
 105.6914120 142.9031180 111.3262730 107.1807630 126.5288560 109.1800400
 107.9386990 126.6417440 108.6064430 106.7184800 127.3657760 109.1343830
 113.7221440 128.6427830 112.1702710 112.9095950 128.2684720 111.8298590
 114.2263080 127.8872910 112.4723900 118.2246420 125.3070280 113.4085780
 118.8275790 125.8790490 113.8834300 117.4839410 125.8709720 113.1859680
 121.3681020 125.7091840 108.6826060 121.5631650 126.6075290 108.9493490
 120.5810890 125.4778920 109.1759010 108.1642310 141.3905010 109.1218680
 107.6389930 141.7713040 108.4180640 108.0886890 142.0155780 109.8428390
 109.5532780 127.0552610 107.7202370 110.0825540 126.2682410 107.5910320
 110.1861100 127.7343800 107.9537900 111.7470620 126.7927750 110.7747760
 111.1173360 126.0915060 110.9417890 111.2075760 127.5531880 110.5580920
 114.6862570 143.4066980 123.4458370 115.6129880 143.1711250 123.4894330
 114.6713000 144.2338980 122.9644400 122.9207630 142.9492550 110.4432620
 123.0959820 142.2630290 109.7993540 122.2229200 143.4739600 110.0509290
 111.8726180 126.0711730 123.2100250 111.5910450 126.5745330 122.4461070
 112.2545880 125.2733480 122.8442380 110.7635280 143.3387390 107.9967930
 111.4954100 143.0546670 107.4491820 111.0228950 143.1000670 108.8867310
 109.9250070 139.4552120 108.0014260 109.2958950 139.9237220 108.5500090
 110.0397900 138.6101340 108.4360450 118.4741640 125.4865310 123.7880720
 118.3607090 125.8059920 124.6832240 119.2911380 125.8877820 123.4918000
 121.2540130 142.6336840 123.2699410 122.0465450 142.1386070 123.0625370
 121.5473280 143.3126980 123.8775020 117.3799790 133.5057780  94.1515460
 117.2993840 132.5912390  93.8807170 116.9664210 134.0024850  93.4455170
 115.5117830 135.2836800  96.0324730 114.7359930 134.8037240  96.3223300
 116.1630760 134.6042450  95.8580890 109.5283660 135.5956610  96.9100490
 108.6968540 135.3405320  97.3097000 110.1364640 135.6667380  97.6458410
 119.5325260 139.6896990  94.8123860 119.0706790 138.9184230  95.1411030
 120.3450810 139.7163060  95.3176310 109.5084920 139.6296700  97.1058510
 109.8112960 138.7394440  96.9268730 110.2528510 140.1866920  96.8780760
 107.9375610 130.5558500  90.6942880 107.0492310 130.8974470  90.5922760
 108.2216800 130.3558820  89.8023710 105.9008620 133.1564150  96.5782580
 106.4724730 132.3886350  96.5786220 105.9010160 133.4552910  95.6689190
 115.7588570 141.9755000  94.4327850 115.1400010 142.4312500  93.8622290
 116.6140350 142.1306460  94.0317550 114.9526820 137.9593990  96.0394890
 114.8835100 137.0183930  95.8784020 115.7146680 138.0495400  96.6117460
 107.1433490 128.5648510  98.3651510 106.9636330 127.6674260  98.6454270
 106.7413570 129.1120380  99.0398460 115.9831990 130.7664370  96.2663820
 116.3596810 129.8936250  96.1537490 115.8851500 131.1023070  95.3754260
 110.1137000 129.1390000  91.7281260 110.2203750 130.0393730  92.0350020
 109.2029360 129.0907970  91.4375910 119.7656110 128.2614810  93.1992160
 120.5865730 127.7711380  93.2417640 119.7990190 128.8512470  93.9524000
 107.7620160 131.0609010  96.9733850 108.4430270 131.3247380  97.5921250
 107.4468210 130.2209880  97.3071860 111.9544730 132.1076370  96.0606440
 112.4622950 132.6057340  96.7011460 112.4857970 131.3311570  95.8845800
 124.0555660 130.2781560  99.7635790 123.3507830 130.6663270  99.2450900
 124.3213580 130.9731850 100.3656720 110.2380830 126.7474930 100.3269860
 110.2399270 127.2647320  99.5215760 109.4085140 126.2705110 100.3039790
 116.6251920 136.8594240  91.8259760 116.0069190 137.3243690  91.2622480
 117.1375170 137.5521720  92.2429270 111.4883680 136.3870110  98.5043360
 111.1553060 137.0139030  99.1464430 111.6650360 136.9131990  97.7245030
 120.0017590 130.2015190  95.9719700 119.2973160 130.4900080  96.5522810
 120.3629750 131.0115300  95.6119260 109.9196160 128.4584890  98.3340310
 110.2612970 129.3026940  98.0394180 108.9811970 128.6068630  98.4505650
 110.7002780 138.3550910 100.3192540 111.3176780 139.0301990 100.0376990
 109.8395900 138.7638890 100.2280040 105.9935120 137.5450770  89.1999390
 105.6163100 138.0337870  88.4684290 106.2508190 138.2176050  89.8305920
 121.6180370 139.8190320  98.2347180 120.9343890 140.4889430  98.2263850
 122.1574660 140.0170970  97.4692040 123.0704510 129.6469980  96.3628910
 122.1229420 129.6808960  96.4944340 123.3954500 130.4608930  96.7478270
 113.6024050 125.9467160  94.6584900 113.9099030 125.3914050  93.9420400
 112.6724750 126.0811620  94.4757890 119.1539110 141.6634450  96.9492360
 119.1666270 141.2596740  96.0814620 118.6014330 142.4381740  96.8453790
 120.4484530 138.3850670  92.0382530 120.3380860 137.4425000  92.1631950
 120.4452780 138.7466310  92.9245290 118.5524550 136.5664290  98.2774970
 118.9693340 136.3524400  97.4428430 119.2764370 136.8237080  98.8483590
 115.9904810 134.0115990  91.3945020 115.0634090 133.9453370  91.6233490
 116.1429630 134.9496120  91.2800260 115.9773890 130.2832990  88.3912180
 115.0377560 130.4446950  88.4764640 116.2957150 131.0018670  87.8448170
 122.4986650 134.9651510  98.3691210 121.6705280 135.0344600  97.8941340
 123.0937130 135.5505820  97.9007040 120.0202100 135.5736290  91.8980270
 119.4014520 135.2355840  91.2506570 120.0026550 134.9296050  92.6059460
 119.4628660 131.7520830  99.3146080 119.0499840 132.5774540  99.5686070
 118.7304610 131.1665870  99.1222440 111.5961450 134.5380730  94.1764750
 111.1918450 133.8257980  93.6810650 111.6824570 134.1933970  95.0652790
 112.0643150 138.2248290  96.3403960 111.7671440 137.6193760  95.6611740
 113.0142970 138.2625600  96.2293320 110.3090070 131.3123940  97.9563790
 110.8604660 131.4219280  97.1817040 110.8233580 131.6861540  98.6719020
 120.1528760 141.7980160 100.0027060 119.6759320 142.6052350  99.8099670
 119.4690550 141.1458490 100.1553270 111.1561580 137.9629980 102.9911760
 110.2590110 138.1869950 103.2385160 111.1814450 138.0864920 102.0423160
 118.1966800 134.8123100  88.9053020 118.6360080 133.9745530  88.7590840
 118.9095220 135.4452500  88.9917160 109.9832800 134.8343300 101.5669130
 109.8440570 135.7066100 101.9356530 109.1014160 134.4916110 101.4217070
 116.3062180 139.7519170  92.8734260 116.7458090 140.4943500  92.4589650
 116.2449070 139.9945740  93.7973220 111.7813150 140.7765000 103.7754280
 111.7528580 141.1807950 102.9082710 111.6178120 139.8475360 103.6125880
 121.7783940 126.0665910  87.2194060 121.4656600 126.1592740  88.1193130
 122.5396410 126.6446940  87.1691490 108.2966080 133.4325710  91.6771400
 108.1763680 134.1587800  91.0652670 107.9866970 132.6628620  91.1999310
 123.7327970 141.5592100 105.0718450 124.2087690 142.0374990 105.7507530
 124.3535130 141.4909590 104.3463950 105.9351450 136.6040850  97.4840040
 106.0131870 136.7389620  96.5395760 106.5493130 135.8956740  97.6768160
 107.1799080 138.3041040  93.8946220 106.7727160 138.4455630  93.0399820
 108.0712090 138.0201200  93.6917430 123.1361220 138.7504950 102.2318460
 123.2624280 138.5116830 101.3135640 123.1782600 137.9189490 102.7040540
 116.9977960 142.4532950 100.8013270 117.5122630 142.3640960 101.6035700
 116.1547040 142.7992650 101.0941180 118.9732360 142.7388290  90.2297270
 118.8133500 142.4491230  91.1279100 118.8079070 141.9628420  89.6942500
 111.4520740 142.5186820  92.0068890 111.2763220 141.6022360  91.7936690
 110.5976480 142.8774110  92.2466690 118.6758490 140.2475850  88.7895270
 117.9823650 140.2453140  88.1297550 119.4181350 139.8235170  88.3589440
 118.2408420 141.8738560  92.8643760 118.6965370 141.0927940  93.1782380
 118.5800940 142.5845380  93.4084940 122.9885230 130.8037410 103.1968200
 122.3729500 131.3117080 102.6683660 122.6681650 129.9035740 103.1394140
 105.9910970 137.6455020 100.0234500 106.1542010 137.1760380  99.2053870
 106.4563420 137.1378580 100.6883340 110.7629740 126.7760780  95.0595070
 110.3197890 127.5570320  94.7279590 111.3214730 127.0990670  95.7666010
 115.0499550 129.6429300 100.6630390 114.5878920 129.8512320 101.4750330
 114.6477660 128.8288650 100.3601060 120.0504060 130.8638250 101.7927050
 119.1997650 130.5644000 102.1136120 119.8905850 131.1080260 100.8810870
 117.1453770 132.3640000 103.8925840 117.4707180 131.5303750 103.5528070
 117.9334100 132.8868520 104.0404170 112.8005640 127.3208110  96.9184670
 113.0977970 128.2270940  96.8376690 113.3491200 126.8326890  96.3044240
 110.5543960 131.8994350  92.7876320 110.3284880 131.6831520  93.6922940
 109.7736490 132.3322810  92.4422290 117.7841720 131.9057720  91.3866970
 117.1850610 132.6293520  91.2030590 118.3321330 131.8434500  90.6043420
 112.9943170 132.7979930 103.4536590 112.8986770 131.8574660 103.3036990
 113.8375150 133.0195000 103.0584660 116.3906590 130.5421260  93.4170250
 116.7836160 130.8593460  92.6038940 116.7523440 129.6633140  93.5314770
 108.1253710 129.2093600 101.6070370 107.7317100 130.0568810 101.8143150
 107.4372110 128.5719970 101.7979010 114.6998760 129.2928570 104.6767110
 114.0097080 129.1000770 105.3113200 115.4431060 129.5763210 105.2091410
 105.4270760 127.1322060  95.6400450 105.1383810 127.7024920  96.3525430
 106.1716520 126.6526510  96.0031680 105.6140990 131.0742180  86.8503170
 105.5315660 132.0172940  86.9918160 105.2624050 130.9317090  85.9715520
 116.9761730 133.1327010  97.5121030 116.2442850 133.6413820  97.8611130
 116.5786070 132.3156990  97.2109810 113.4139120 129.8081210  95.9173520
 113.4175180 129.3671160  95.0678060 114.3090240 130.1298540  96.0245340
 109.2641500 129.6907700  94.8767730 108.9241550 130.1682930  95.6334780
 108.5018820 129.2372820  94.5168830 113.4759270 130.8093290  88.9080280
 113.5972090 130.7679770  89.8566100 113.0907780 131.6717440  88.7527010
 117.4387640 128.5860690  96.9243970 117.4560380 129.0369340  97.7685820
 117.1903220 127.6866330  97.1377410 112.4880770 133.1194430  88.3063580
 111.9197670 132.6712680  87.6799490 113.1969770 133.4787210  87.7728730
 120.8658390 125.9992870 102.7630350 121.1904160 125.2682530 103.2888330
 120.9014900 125.6806510 101.8611340 107.5649950 137.0206450 102.1830310
 107.1804740 136.3800120 102.7813270 107.8762140 137.7242570 102.7525040
 113.7147090 133.8682990  97.6638930 114.0817220 133.3941560  98.4100270
 113.5252150 134.7424560  98.0047270 106.5787580 128.6126680  93.7932400
 106.2934500 128.2482350  94.6311020 106.5166440 127.8807140  93.1795540
 111.5046460 132.9091630  99.9823140 111.2003530 133.7883610 100.2073500
 112.4592920 132.9691420 100.0180580 110.0328250 137.1152620  90.5789990
 109.2590510 136.5750240  90.4188710 110.7622880 136.5959230  90.2407750
 120.7916230 136.1117980  96.3716380 121.5115350 136.6073270  95.9812490
 120.5898050 135.4335870  95.7270250 116.1735030 136.1827040 102.2585380
 116.1072340 135.2622710 102.0042970 115.5440170 136.2802480 102.9730020
 118.9674560 131.8775590  88.8107930 119.8554180 132.1892820  88.6359270
 118.9379650 131.0047840  88.4188510 110.0765650 136.7833000  94.2168800
 110.5944320 135.9801260  94.1625690 109.6249670 136.7212140  95.0585630
 114.9635150 138.0499280  89.4896100 115.3050850 138.7941510  88.9939420
 114.1347860 138.3630400  89.8520930 107.5610190 133.7494370 101.1294500
 107.2025130 134.4148220 101.7167840 107.2664750 132.9177920 101.5007120
 110.7623310 134.2078610 104.0134050 110.4623450 134.3535790 103.1161870
 111.5334550 133.6483900 103.9207440 116.1051760 139.0047610 102.0089180
 116.1196300 138.0728570 101.7908090 115.3976860 139.0907370 102.6478950
 121.2388830 133.1887430  88.2787790 121.1552550 133.6201650  87.4284230
 121.9583020 133.6485780  88.7114610 122.3162970 135.6454950 101.3557760
 121.5911160 136.2383730 101.1587150 122.8438430 135.6378490 100.5571130
 122.2676080 140.0429690  91.0069920 121.6252240 139.3885310  91.2813640
 121.8806740 140.4484780  90.2310590 117.8462560 137.3715120  94.8541610
 118.1986380 136.7743250  94.1942980 116.9624890 137.0459350  95.0249860
 113.9325840 138.1312810  92.2612020 114.6196970 138.6782020  92.6419610
 113.1458260 138.6753540  92.2961630 106.0718240 133.7485630  87.7529100
 106.9413090 134.0310430  88.0365020 105.5808560 134.5621500  87.6377910
 113.2353050 135.1358840  91.8737380 113.6915830 135.9464090  92.0997570
 112.8841260 134.8181980  92.7055870 115.5385660 140.6465180  99.1029680
 116.1827880 140.8524560  99.7803100 115.9015100 139.8853580  98.6500530
 109.1364830 125.4796490  92.3459900 109.0079460 125.4714390  93.2944820
 108.3126850 125.8179580  91.9950910 116.8117740 138.6497530  97.8207130
 117.4539970 137.9490690  97.9339300 117.3367090 139.4295970  97.6404020
 120.6573460 138.9346150  87.5446270 120.4311040 138.2176590  88.1370910
 120.2669660 138.6858590  86.7068020 118.5855360 139.4492430 101.0243190
 118.9211600 140.0359120 101.7021110 117.6655700 139.3185140 101.2540980
 106.4389490 142.9613010  88.3190730 106.7987130 143.5602350  87.6648000
 106.2981830 143.5072900  89.0925760 106.1358760 127.2387610 101.8066600
 105.4217280 127.4384530 102.4119210 106.5553800 126.4627180 102.1781400
 120.2389710 136.8518090  89.2060430 119.9511410 137.3130780  89.9938310
 121.0341880 136.3915860  89.4744650 106.4231350 141.2267870 102.7933130
 106.5322470 140.2862610 102.6528520 105.7711910 141.4922620 102.1446860
 114.4143940 139.4983760 104.1931250 114.0940810 138.7793000 104.7376940
 113.7402300 140.1738830 104.2667310 112.4558110 140.3444210  89.1364400
 112.4468210 141.0773900  88.5208910 111.5356470 140.0975790  89.2291360
 108.0564750 135.5659100  89.8811160 107.4492700 136.3058000  89.8906460
 108.5314100 135.6558460  89.0549360 117.6297540 129.7309920  99.5568050
 117.9978360 128.9105130  99.8847620 116.7695740 129.7911810  99.9723700
 120.9959570 128.6866860  90.3655610 120.3672730 128.7912530  89.6513840
 120.5011490 128.9063640  91.1549490 115.4417710 140.4072450  87.7989590
 115.5429690 140.2036440  86.8691570 114.5419450 140.1530730  88.0037370
 112.9643600 130.9652810  91.7813490 112.2559750 131.4339150  92.2227100
 113.2488080 130.3074820  92.4158680 114.5899530 132.3849510  99.7806020
 115.0884780 132.8595330 100.4457870 114.7322480 131.4613030  99.9876050
 116.9959030 127.6903470  93.2209280 116.8726810 127.7089600  92.2718790
 117.9443590 127.7382410  93.3407680 114.0835820 142.9258770  92.4937260
 114.3377320 142.8880160  91.5716630 113.1348300 142.7992100  92.4865510
 111.1678620 129.2737890  89.1564200 112.0169150 129.7108040  89.0904390
 110.8009890 129.5858150  89.9836260 121.7966390 128.6017470 100.6234410
 121.2939990 129.3422870 100.9628220 122.6123050 128.9901470 100.3071200
 120.0888400 133.8450650  94.0695770 119.1478540 133.8600880  94.2443460
 120.4032470 133.0586610  94.5156070 110.0670040 135.5270250  87.6299730
 110.8333310 135.4151610  88.1925160 110.1444730 134.8308220  86.9776500
 108.7616800 132.9595320  88.3132620 108.8420390 132.0122830  88.4250020
 109.6536550 133.2902200  88.4193280 122.0913980 141.0159500  95.7450030
 122.2161400 141.8390670  96.2173840 122.9579540 140.8050230  95.3974180
 109.5631510 143.1090710  95.4167160 110.2993990 142.5606170  95.6875730
 109.9472430 143.9746720  95.2773150 106.4476990 139.1764280  91.2908670
 105.5216770 139.4185420  91.2814080 106.9133420 140.0038540  91.1693420
 108.5689790 142.2936780 104.6052740 109.3702520 142.6148830 105.0188140
 108.0541610 141.9332360 105.3272650 112.6733820 142.2821020  87.2392730
 113.4662430 142.5709850  86.7874520 112.1538170 141.8513190  86.5605210
 117.4054420 138.4016650 104.5528150 116.7992580 138.4248250 103.8123900
 117.1008530 137.6699690 105.0895400 118.8354790 142.1296940 103.1637560
 119.7876540 142.0454960 103.1137800 118.6883010 142.7938650 103.8371350
 121.7263990 141.5091150  88.6629470 121.4405500 141.0956290  87.8483650
 121.5283540 142.4378860  88.5429990 106.2887600 134.7810240 103.5488790
 106.7926620 134.2017520 104.1205020 105.5495020 135.0650470 104.0865160
 113.1911220 137.5024430  87.1035080 113.0861860 136.8876780  87.8296460
 113.0235440 136.9790320  86.3198090 113.3425540 136.1881230 103.0824310
 112.5771210 136.7566230 102.9978980 113.5241500 135.8957440 102.1892540
 116.4313950 136.5644460  87.7077070 115.8824050 137.0113760  88.3519810
 117.0533210 136.0593710  88.2314740 120.4848890 137.9186560 103.6399330
 121.2258360 138.2562320 103.1366790 119.7221570 138.0878620 103.0869100
 108.3210680 132.9239830 104.4438860 108.3616020 132.6253700 105.3524090
 109.1756180 133.3247440 104.2846380 112.0989070 135.5235380  89.6042370
 112.5205490 135.3575250  90.4473760 112.2239910 134.7135610  89.1097510
 110.2616490 131.5031930 102.4113350 109.7312950 131.0122880 101.7836690
 110.9304560 131.9316130 101.8771280 114.6116710 134.5472990  86.8519470
 115.1322370 133.8322010  86.4860620 115.2585110 135.1858860  87.1519980
 119.1594550 135.9701390 102.1754540 119.5735570 136.1246470 103.0244960
 118.2245550 136.0956610 102.3380320 119.6316720 133.3097550 104.1793690
 120.2137490 132.5549870 104.0914170 119.8078490 133.8404990 103.4025170
 110.7488790 128.4694300 102.4910640 110.6545660 127.8515050 101.7661510
 110.1686180 129.1960590 102.2640550 113.5150230 127.0267540  99.5238030
 113.0667530 127.0491800  98.6783580 112.8815430 126.6286560 100.1208330
 113.9209780 135.9221870 100.1450470 114.3397890 136.7654600  99.9726710
 113.0018410 136.0593910  99.9157250 116.2573680 133.6538050 101.5288310
 116.3769890 133.0579190 102.2683150 117.1167680 133.6907740 101.1089610
 118.5961580 134.2075240 100.1050820 118.0696800 134.7317860  99.5015960
 118.9392920 134.8402630 100.7360550 110.9947970 131.5968610  86.5500530
 110.7937030 130.7335970  86.9113870 110.8240020 131.5101970  85.6122130
 111.7717200 142.2274880 101.2608200 111.2338290 142.9520940 100.9416900
 112.0251160 141.7505220 100.4705540 113.0242450 130.1959400 102.7864130
 113.6142140 129.8875250 103.4741950 112.2062690 129.7239150 102.9424030
 117.8435880 129.8125210 103.0197150 117.1551400 129.1506750 102.9547140
 118.5641900 129.3663480 103.4645610 109.7930770 128.6969230  86.5378410
 110.0956670 128.7036660  85.6297560 110.5325360 128.3467090  87.0346070
 114.6279410 143.4626090 101.5194850 114.5538110 144.3661230 101.8267220
 113.7258250 143.1437990 101.4916920 115.1764740 142.6284600  89.1421210
 116.0715530 142.9669570  89.1639970 115.2082370 141.9064010  88.5145490
 108.8160900 138.0011650  87.3708210 109.2535770 138.5441320  88.0265790
 109.3008630 137.1758600  87.3804550 106.0306700 140.7900680  94.8228470
 106.3609710 139.9221740  94.5907110 106.4597700 140.9959200  95.6533430
 110.6268620 139.1209690  92.4830440 110.3264160 138.9974660  93.3834350
 110.5206110 138.2618280  92.0746170 106.5196910 141.6571270  97.5610100
 106.0827900 141.8372070  98.3934250 107.0874590 142.4145890  97.4191820
 122.1559090 141.1588270 101.8487410 121.5561080 141.2180830 101.1051330
 122.2852990 140.2193250 101.9784260 123.3960540 138.9006090  87.1857120
 122.5653500 138.9682740  87.6564350 123.5732370 139.7910210  86.8823980
 122.8517000 135.6453570  89.6891320 123.6135910 136.2150220  89.7951010
 122.8671370 135.0780770  90.4599630 106.3521340 134.1691500  93.9198980
 105.6970180 133.9003140  93.2758680 107.1899290 134.0595980  93.4700960
 123.8576970 136.5003670  94.5333250 124.2285800 135.7170990  94.1269220
 124.4978900 137.1892770  94.3550550 120.8410730 137.8840250  99.9463570
 120.0270570 138.3137410 100.2089360 121.2484930 138.4958660  99.3332620
 122.9036170 135.9387940  86.8463840 123.1785010 136.8466820  86.7183060
 122.7146910 135.8750470  87.7825830 119.3011780 128.9632790  88.1417470
 119.7196660 128.7763770  87.3014130 118.9947840 128.1111840  88.4520400
 122.8001510 133.8756930  91.8393270 122.4245110 133.1084860  91.4074560
 122.0704630 134.2579630  92.3268200 107.3897270 134.5544070  98.4602320
 107.7570310 134.4671470  99.3398340 106.8208090 133.7910620  98.3609180
 122.1901130 133.0228450 101.4732790 121.9587220 132.7941200 100.5730740
 122.4505680 133.9428000 101.4277680 106.9413270 131.4653160 102.3660740
 106.0469320 131.4319920 102.7054450 107.4810820 131.6639950 103.1311990
 120.6289200 128.2484880 104.2512490 121.5059380 128.2568280 104.6346490
 120.6410040 127.5115720 103.6404840 105.5659420 131.3790430  89.8624310
 104.6623500 131.6420630  89.6875970 106.0500040 131.6501600  89.0824270
 122.0752470 132.1014420  95.1400510 122.5989950 131.6077070  94.5090680
 122.6611890 132.2364780  95.8848080 122.2542190 132.1854290  98.6620060
 121.3044900 132.1517830  98.7765050 122.4355200 133.0954400  98.4269830
 108.1086630 130.4355970  87.7718690 108.8178330 130.0139190  87.2865970
 107.3926570 130.5031200  87.1402040 107.7560790 126.4895300  86.8121340
 108.4788920 127.0304240  87.1302560 108.0285310 126.2158720  85.9362880
 121.5652440 131.3587770  91.0792920 122.0611560 131.1258640  91.8641800
 121.3668510 130.5199610  90.6630560 107.4452980 125.7401490  96.7143960
 108.0929170 125.1898870  96.2739120 107.8654820 125.9944640  97.5359770
 122.9939600 129.9948720  93.6130600 122.8838880 129.8404760  94.5512870
 123.7547190 129.4669660  93.3706010 121.3405320 125.9342850 100.0713600
 121.9777540 126.5476990 100.4372790 121.4880210 125.9703510  99.1262830
 123.8829870 127.8256640  86.8536740 124.8079180 127.6937820  86.6455030
 123.8605660 127.9049460  87.8073190 123.9568360 128.5967300  89.4793450
 123.1619860 128.5312420  90.0086360 124.1611640 129.5317940  89.4678800
 120.8986780 142.6358850  93.4731840 121.4945850 142.3143420  92.7966260
 121.1564930 142.1630670  94.2645110 107.1984980 125.8957160  99.4569280
 106.8499800 126.3520980 100.2227460 106.8672680 125.0014290  99.5391710
 108.8049350 139.0676760 103.6222470 108.7618980 138.6969670 104.5036930
 108.9360360 140.0054330 103.7624290 112.5055380 140.6236350  99.2232190
 112.2646740 140.8910910  98.3362710 113.4458020 140.7942080  99.2783050
 114.7109800 127.0869040 102.9788700 114.6498690 127.6790870 103.7284110
 115.6510180 126.9795000 102.8338960 117.3484360 126.7439100 102.6180990
 117.9624770 127.0618390 101.9562070 117.8933920 126.2587690 103.2376850
 123.7659540 142.6430730 100.0242830 123.2717820 143.0399600  99.3069960
 123.1572830 142.0179940 100.4180110 107.8705620 125.4233360 102.7320050
 108.4188610 125.2421410 101.9686160 107.9360930 124.6327470 103.2676360
 108.6437380 142.0139010 100.7420250 108.0497700 141.8823710 101.4810290
 108.6361220 141.1777150 100.2762350 118.0892400 125.3071240  98.9450280
 117.2152240 125.6406350  98.7423210 117.9803150 124.8344420  99.7702150
 118.9964380 127.5142110 100.3292000 118.6677740 126.6993870  99.9493730
 119.9446680 127.4711920 100.2057690 121.4498990 143.2854150  97.3029570
 120.9901960 144.0369960  96.9287590 120.8211450 142.5660620  97.2444370
 108.2749610 139.3797390  99.6928290 107.5483670 138.7602680  99.6254240
 108.3358760 139.7738000  98.8226370 111.8794710 141.5942390  96.4777700
 112.3959730 140.9829750  95.9525960 112.5292090 142.0971170  96.9688710
 114.6190210 142.4850880  97.3046680 114.9068020 142.2305180  96.4279690
 115.1313430 141.9328240  97.8952250 115.8367220 126.2241080  97.8843190
 115.0539010 126.6986580  98.1639950 115.5430150 125.3195910  97.7756370
 120.3888290 126.9264180  95.9292280 120.8296380 126.8709280  95.0813880
 120.1195880 127.8422190  96.0002460 122.2526860 126.5579420  93.9401100
 122.1915260 125.6140640  93.7932120 123.0318890 126.6659510  94.4854560
 106.5579610 142.6971780  92.9025050 106.3901650 142.0642460  93.6006940
 105.6914120 142.9031180  92.5519240 107.1807630 126.5288560  90.4056910
 107.9386990 126.6417440  89.8320940 106.7184800 127.3657760  90.3600340
 113.7221440 128.6427830  93.3959220 112.9095950 128.2684720  93.0555100
 114.2263080 127.8872910  93.6980410 118.2246420 125.3070280  94.6342290
 118.8275790 125.8790490  95.1090810 117.4839410 125.8709720  94.4116190
 121.3681020 125.7091840  89.9082570 121.5631650 126.6075290  90.1750000
 120.5810890 125.4778920  90.4015520 108.1642310 141.3905010  90.3475190
 107.6389930 141.7713040  89.6437150 108.0886890 142.0155780  91.0684900
 109.5532780 127.0552610  88.9458880 110.0825540 126.2682410  88.8166830
 110.1861100 127.7343800  89.1794410 111.7470620 126.7927750  92.0004270
 111.1173360 126.0915060  92.1674400 111.2075760 127.5531880  91.7837430
 114.6862570 143.4066980 104.6714880 115.6129880 143.1711250 104.7150840
 114.6713000 144.2338980 104.1900910 122.9207630 142.9492550  91.6689130
 123.0959820 142.2630290  91.0250050 122.2229200 143.4739600  91.2765800
 111.8726180 126.0711730 104.4356760 111.5910450 126.5745330 103.6717580
 112.2545880 125.2733480 104.0698890 110.7635280 143.3387390  89.2224440
 111.4954100 143.0546670  88.6748330 111.0228950 143.1000670  90.1123820
 109.9250070 139.4552120  89.2270770 109.2958950 139.9237220  89.7756600
 110.0397900 138.6101340  89.6616960 118.4741640 125.4865310 105.0137230
 118.3607090 125.8059920 105.9088750 119.2911380 125.8877820 104.7174510
 121.2540130 142.6336840 104.4955920 122.0465450 142.1386070 104.2881880
 121.5473280 143.3126980 105.1031530 117.3799790 133.5057780  75.3771970
 117.2993840 132.5912390  75.1063680 116.9664210 134.0024850  74.6711680
 115.5117830 135.2836800  77.2581240 114.7359930 134.8037240  77.5479810
 116.1630760 134.6042450  77.0837400 109.5283660 135.5956610  78.1357000
 108.6968540 135.3405320  78.5353510 110.1364640 135.6667380  78.8714920
 119.5325260 139.6896990  76.0380370 119.0706790 138.9184230  76.3667540
 120.3450810 139.7163060  76.5432820 109.5084920 139.6296700  78.3315020
 109.8112960 138.7394440  78.1525240 110.2528510 140.1866920  78.1037270
 107.9375610 130.5558500  71.9199390 107.0492310 130.8974470  71.8179270
 108.2216800 130.3558820  71.0280220 105.9008620 133.1564150  77.8039090
 106.4724730 132.3886350  77.8042730 105.9010160 133.4552910  76.8945700
 115.7588570 141.9755000  75.6584360 115.1400010 142.4312500  75.0878800
 116.6140350 142.1306460  75.2574060 114.9526820 137.9593990  77.2651400
 114.8835100 137.0183930  77.1040530 115.7146680 138.0495400  77.8373970
 107.1433490 128.5648510  79.5908020 106.9636330 127.6674260  79.8710780
 106.7413570 129.1120380  80.2654970 110.1137000 129.1390000  72.9537770
 110.2203750 130.0393730  73.2606530 109.2029360 129.0907970  72.6632420
 107.7620160 131.0609010  78.1990360 108.4430270 131.3247380  78.8177760
 107.4468210 130.2209880  78.5328370 111.9544730 132.1076370  77.2862950
 112.4622950 132.6057340  77.9267970 112.4857970 131.3311570  77.1102310
 124.0555660 130.2781560  80.9892300 123.3507830 130.6663270  80.4707410
 124.3213580 130.9731850  81.5913230 116.6251920 136.8594240  73.0516270
 116.0069190 137.3243690  72.4878990 117.1375170 137.5521720  73.4685780
 111.4883680 136.3870110  79.7299870 111.1553060 137.0139030  80.3720940
 111.6650360 136.9131990  78.9501540 109.9196160 128.4584890  79.5596820
 110.2612970 129.3026940  79.2650690 108.9811970 128.6068630  79.6762160
 110.7002780 138.3550910  81.5449050 111.3176780 139.0301990  81.2633500
 109.8395900 138.7638890  81.4536550 105.9935120 137.5450770  70.4255900
 105.6163100 138.0337870  69.6940800 106.2508190 138.2176050  71.0562430
 121.6180370 139.8190320  79.4603690 120.9343890 140.4889430  79.4520360
 122.1574660 140.0170970  78.6948550 123.0704510 129.6469980  77.5885420
 122.1229420 129.6808960  77.7200850 123.3954500 130.4608930  77.9734780
 119.1539110 141.6634450  78.1748870 119.1666270 141.2596740  77.3071130
 118.6014330 142.4381740  78.0710300 120.4484530 138.3850670  73.2639040
 120.3380860 137.4425000  73.3888460 120.4452780 138.7466310  74.1501800
 118.5524550 136.5664290  79.5031480 118.9693340 136.3524400  78.6684940
 119.2764370 136.8237080  80.0740100 115.9904810 134.0115990  72.6201530
 115.0634090 133.9453370  72.8490000 116.1429630 134.9496120  72.5056770
 115.9773890 130.2832990  69.6168690 115.0377560 130.4446950  69.7021150
 116.2957150 131.0018670  69.0704680 122.4986650 134.9651510  79.5947720
 121.6705280 135.0344600  79.1197850 123.0937130 135.5505820  79.1263550
 120.0202100 135.5736290  73.1236780 119.4014520 135.2355840  72.4763080
 120.0026550 134.9296050  73.8315970 119.4628660 131.7520830  80.5402590
 119.0499840 132.5774540  80.7942580 118.7304610 131.1665870  80.3478950
 111.5961450 134.5380730  75.4021260 111.1918450 133.8257980  74.9067160
 111.6824570 134.1933970  76.2909300 112.0643150 138.2248290  77.5660470
 111.7671440 137.6193760  76.8868250 113.0142970 138.2625600  77.4549830
 110.3090070 131.3123940  79.1820300 110.8604660 131.4219280  78.4073550
 110.8233580 131.6861540  79.8975530 120.1528760 141.7980160  81.2283570
 119.6759320 142.6052350  81.0356180 119.4690550 141.1458490  81.3809780
 111.1561580 137.9629980  84.2168270 110.2590110 138.1869950  84.4641670
 111.1814450 138.0864920  83.2679670 118.1966800 134.8123100  70.1309530
 118.6360080 133.9745530  69.9847350 118.9095220 135.4452500  70.2173670
 109.9832800 134.8343300  82.7925640 109.8440570 135.7066100  83.1613040
 109.1014160 134.4916110  82.6473580 116.3062180 139.7519170  74.0990770
 116.7458090 140.4943500  73.6846160 116.2449070 139.9945740  75.0229730
 111.7813150 140.7765000  85.0010790 111.7528580 141.1807950  84.1339220
 111.6178120 139.8475360  84.8382390 121.7783940 126.0665910  68.4450570
 121.4656600 126.1592740  69.3449640 122.5396410 126.6446940  68.3948000
 108.2966080 133.4325710  72.9027910 108.1763680 134.1587800  72.2909180
 107.9866970 132.6628620  72.4255820 123.7327970 141.5592100  86.2974960
 124.2087690 142.0374990  86.9764040 124.3535130 141.4909590  85.5720460
 105.9351450 136.6040850  78.7096550 106.0131870 136.7389620  77.7652270
 106.5493130 135.8956740  78.9024670 107.1799080 138.3041040  75.1202730
 106.7727160 138.4455630  74.2656330 108.0712090 138.0201200  74.9173940
 123.1361220 138.7504950  83.4574970 123.2624280 138.5116830  82.5392150
 123.1782600 137.9189490  83.9297050 116.9977960 142.4532950  82.0269780
 117.5122630 142.3640960  82.8292210 116.1547040 142.7992650  82.3197690
 118.9732360 142.7388290  71.4553780 118.8133500 142.4491230  72.3535610
 118.8079070 141.9628420  70.9199010 111.4520740 142.5186820  73.2325400
 111.2763220 141.6022360  73.0193200 110.5976480 142.8774110  73.4723200
 118.6758490 140.2475850  70.0151780 117.9823650 140.2453140  69.3554060
 119.4181350 139.8235170  69.5845950 118.2408420 141.8738560  74.0900270
 118.6965370 141.0927940  74.4038890 118.5800940 142.5845380  74.6341450
 122.9885230 130.8037410  84.4224710 122.3729500 131.3117080  83.8940170
 122.6681650 129.9035740  84.3650650 105.9910970 137.6455020  81.2491010
 106.1542010 137.1760380  80.4310380 106.4563420 137.1378580  81.9139850
 110.7629740 126.7760780  76.2851580 110.3197890 127.5570320  75.9536100
 111.3214730 127.0990670  76.9922520 120.0504060 130.8638250  83.0183560
 119.1997650 130.5644000  83.3392630 119.8905850 131.1080260  82.1067380
 117.1453770 132.3640000  85.1182350 117.4707180 131.5303750  84.7784580
 117.9334100 132.8868520  85.2660680 113.8788560 126.3971480  71.1657410
 113.2542740 126.3931350  71.8910720 113.7918680 125.5302440  70.7693380
 110.5543960 131.8994350  74.0132830 110.3284880 131.6831520  74.9179450
 109.7736490 132.3322810  73.6678800 112.9943170 132.7979930  84.6793100
 112.8986770 131.8574660  84.5293500 113.8375150 133.0195000  84.2841170
 108.1253710 129.2093600  82.8326880 107.7317100 130.0568810  83.0399660
 107.4372110 128.5719970  83.0235520 105.4270760 127.1322060  76.8656960
 105.1383810 127.7024920  77.5781940 106.1716520 126.6526510  77.2288190
 116.9761730 133.1327010  78.7377540 116.2442850 133.6413820  79.0867640
 116.5786070 132.3156990  78.4366320 109.2641500 129.6907700  76.1024240
 108.9241550 130.1682930  76.8591290 108.5018820 129.2372820  75.7425340
 113.4759270 130.8093290  70.1336790 113.5972090 130.7679770  71.0822610
 113.0907780 131.6717440  69.9783520 112.4880770 133.1194430  69.5320090
 111.9197670 132.6712680  68.9056000 113.1969770 133.4787210  68.9985240
 120.8658390 125.9992870  83.9886860 121.1904160 125.2682530  84.5144840
 120.9014900 125.6806510  83.0867850 107.5649950 137.0206450  83.4086820
 107.1804740 136.3800120  84.0069780 107.8762140 137.7242570  83.9781550
 113.7147090 133.8682990  78.8895440 114.0817220 133.3941560  79.6356780
 113.5252150 134.7424560  79.2303780 106.5787580 128.6126680  75.0188910
 106.2934500 128.2482350  75.8567530 106.5166440 127.8807140  74.4052050
 111.5046460 132.9091630  81.2079650 111.2003530 133.7883610  81.4330010
 112.4592920 132.9691420  81.2437090 110.0328250 137.1152620  71.8046500
 109.2590510 136.5750240  71.6445220 110.7622880 136.5959230  71.4664260
 120.7916230 136.1117980  77.5972890 121.5115350 136.6073270  77.2069000
 120.5898050 135.4335870  76.9526760 116.1735030 136.1827040  83.4841890
 116.1072340 135.2622710  83.2299480 115.5440170 136.2802480  84.1986530
 118.9674560 131.8775590  70.0364440 119.8554180 132.1892820  69.8615780
 118.9379650 131.0047840  69.6445020 110.0765650 136.7833000  75.4425310
 110.5944320 135.9801260  75.3882200 109.6249670 136.7212140  76.2842140
 114.9635150 138.0499280  70.7152610 115.3050850 138.7941510  70.2195930
 114.1347860 138.3630400  71.0777440 107.5610190 133.7494370  82.3551010
 107.2025130 134.4148220  82.9424350 107.2664750 132.9177920  82.7263630
 110.7623310 134.2078610  85.2390560 110.4623450 134.3535790  84.3418380
 111.5334550 133.6483900  85.1463950 116.1051760 139.0047610  83.2345690
 116.1196300 138.0728570  83.0164600 115.3976860 139.0907370  83.8735460
 121.2388830 133.1887430  69.5044300 121.1552550 133.6201650  68.6540740
 121.9583020 133.6485780  69.9371120 122.3162970 135.6454950  82.5814270
 121.5911160 136.2383730  82.3843660 122.8438430 135.6378490  81.7827640
 122.2676080 140.0429690  72.2326430 121.6252240 139.3885310  72.5070150
 121.8806740 140.4484780  71.4567100 117.8462560 137.3715120  76.0798120
 118.1986380 136.7743250  75.4199490 116.9624890 137.0459350  76.2506370
 113.9325840 138.1312810  73.4868530 114.6196970 138.6782020  73.8676120
 113.1458260 138.6753540  73.5218140 106.0718240 133.7485630  68.9785610
 106.9413090 134.0310430  69.2621530 105.5808560 134.5621500  68.8634420
 113.2353050 135.1358840  73.0993890 113.6915830 135.9464090  73.3254080
 112.8841260 134.8181980  73.9312380 115.5385660 140.6465180  80.3286190
 116.1827880 140.8524560  81.0059610 115.9015100 139.8853580  79.8757040
 109.1364830 125.4796490  73.5716410 109.0079460 125.4714390  74.5201330
 108.3126850 125.8179580  73.2207420 116.8117740 138.6497530  79.0463640
 117.4539970 137.9490690  79.1595810 117.3367090 139.4295970  78.8660530
 120.6573460 138.9346150  68.7702780 120.4311040 138.2176590  69.3627420
 120.2669660 138.6858590  67.9324530 118.5855360 139.4492430  82.2499700
 118.9211600 140.0359120  82.9277620 117.6655700 139.3185140  82.4797490
 106.4389490 142.9613010  69.5447240 106.7987130 143.5602350  68.8904510
 106.2981830 143.5072900  70.3182270 106.1358760 127.2387610  83.0323110
 105.4217280 127.4384530  83.6375720 106.5553800 126.4627180  83.4037910
 120.2389710 136.8518090  70.4316940 119.9511410 137.3130780  71.2194820
 121.0341880 136.3915860  70.7001160 106.4231350 141.2267870  84.0189640
 106.5322470 140.2862610  83.8785030 105.7711910 141.4922620  83.3703370
 114.4143940 139.4983760  85.4187760 114.0940810 138.7793000  85.9633450
 113.7402300 140.1738830  85.4923820 112.4558110 140.3444210  70.3620910
 112.4468210 141.0773900  69.7465420 111.5356470 140.0975790  70.4547870
 108.0564750 135.5659100  71.1067670 107.4492700 136.3058000  71.1162970
 108.5314100 135.6558460  70.2805870 117.6297540 129.7309920  80.7824560
 117.9978360 128.9105130  81.1104130 116.7695740 129.7911810  81.1980210
 120.9959570 128.6866860  71.5912120 120.3672730 128.7912530  70.8770350
 120.5011490 128.9063640  72.3806000 115.4417710 140.4072450  69.0246100
 115.5429690 140.2036440  68.0948080 114.5419450 140.1530730  69.2293880
 112.9643600 130.9652810  73.0070000 112.2559750 131.4339150  73.4483610
 113.2488080 130.3074820  73.6415190 114.5899530 132.3849510  81.0062530
 115.0884780 132.8595330  81.6714380 114.7322480 131.4613030  81.2132560
 114.0835820 142.9258770  73.7193770 114.3377320 142.8880160  72.7973140
 113.1348300 142.7992100  73.7122020 111.1678620 129.2737890  70.3820710
 112.0169150 129.7108040  70.3160900 110.8009890 129.5858150  71.2092770
 121.7966390 128.6017470  81.8490920 121.2939990 129.3422870  82.1884730
 122.6123050 128.9901470  81.5327710 120.0888400 133.8450650  75.2952280
 119.1478540 133.8600880  75.4699970 120.4032470 133.0586610  75.7412580
 110.0670040 135.5270250  68.8556240 110.8333310 135.4151610  69.4181670
 110.1444730 134.8308220  68.2033010 108.7616800 132.9595320  69.5389130
 108.8420390 132.0122830  69.6506530 109.6536550 133.2902200  69.6449790
 122.0913980 141.0159500  76.9706540 122.2161400 141.8390670  77.4430350
 122.9579540 140.8050230  76.6230690 109.5631510 143.1090710  76.6423670
 110.2993990 142.5606170  76.9132240 109.9472430 143.9746720  76.5029660
 106.4476990 139.1764280  72.5165180 105.5216770 139.4185420  72.5070590
 106.9133420 140.0038540  72.3949930 108.5689790 142.2936780  85.8309250
 109.3702520 142.6148830  86.2444650 108.0541610 141.9332360  86.5529160
 112.6733820 142.2821020  68.4649240 113.4662430 142.5709850  68.0131030
 112.1538170 141.8513190  67.7861720 117.4054420 138.4016650  85.7784660
 116.7992580 138.4248250  85.0380410 117.1008530 137.6699690  86.3151910
 118.8354790 142.1296940  84.3894070 119.7876540 142.0454960  84.3394310
 118.6883010 142.7938650  85.0627860 121.7263990 141.5091150  69.8885980
 121.4405500 141.0956290  69.0740160 121.5283540 142.4378860  69.7686500
 106.2887600 134.7810240  84.7745300 106.7926620 134.2017520  85.3461530
 105.5495020 135.0650470  85.3121670 113.1911220 137.5024430  68.3291590
 113.0861860 136.8876780  69.0552970 113.0235440 136.9790320  67.5454600
 113.3425540 136.1881230  84.3080820 112.5771210 136.7566230  84.2235490
 113.5241500 135.8957440  83.4149050 116.4313950 136.5644460  68.9333580
 115.8824050 137.0113760  69.5776320 117.0533210 136.0593710  69.4571250
 120.4848890 137.9186560  84.8655840 121.2258360 138.2562320  84.3623300
 119.7221570 138.0878620  84.3125610 108.3210680 132.9239830  85.6695370
 108.3616020 132.6253700  86.5780600 109.1756180 133.3247440  85.5102890
 112.0989070 135.5235380  70.8298880 112.5205490 135.3575250  71.6730270
 112.2239910 134.7135610  70.3354020 110.2616490 131.5031930  83.6369860
 109.7312950 131.0122880  83.0093200 110.9304560 131.9316130  83.1027790
 114.6116710 134.5472990  68.0775980 115.1322370 133.8322010  67.7117130
 115.2585110 135.1858860  68.3776490 119.1594550 135.9701390  83.4011050
 119.5735570 136.1246470  84.2501470 118.2245550 136.0956610  83.5636830
 119.6316720 133.3097550  85.4050200 120.2137490 132.5549870  85.3170680
 119.8078490 133.8404990  84.6281680 110.7488790 128.4694300  83.7167150
 110.6545660 127.8515050  82.9918020 110.1686180 129.1960590  83.4897060
 113.9209780 135.9221870  81.3706980 114.3397890 136.7654600  81.1983220
 113.0018410 136.0593910  81.1413760 116.2573680 133.6538050  82.7544820
 116.3769890 133.0579190  83.4939660 117.1167680 133.6907740  82.3346120
 118.5961580 134.2075240  81.3307330 118.0696800 134.7317860  80.7272470
 118.9392920 134.8402630  81.9617060 110.9947970 131.5968610  67.7757040
 110.7937030 130.7335970  68.1370380 110.8240020 131.5101970  66.8378640
 111.7717200 142.2274880  82.4864710 111.2338290 142.9520940  82.1673410
 112.0251160 141.7505220  81.6962050 113.0242450 130.1959400  84.0120640
 113.6142140 129.8875250  84.6998460 112.2062690 129.7239150  84.1680540
 117.8435880 129.8125210  84.2453660 117.1551400 129.1506750  84.1803650
 118.5641900 129.3663480  84.6902120 118.4736280 126.4076840  70.3043920
 118.7538570 125.5644740  70.6603340 117.7002010 126.6399950  70.8182670
 109.7930770 128.6969230  67.7634920 110.0956670 128.7036660  66.8554070
 110.5325360 128.3467090  68.2602580 114.6279410 143.4626090  82.7451360
 114.5538110 144.3661230  83.0523730 113.7258250 143.1437990  82.7173430
 113.0115700 127.6403850  68.7491120 112.6637700 126.9627840  68.1693570
 113.2128470 127.1793360  69.5634510 115.1764740 142.6284600  70.3677720
 116.0715530 142.9669570  70.3896480 115.2082370 141.9064010  69.7402000
 108.8160900 138.0011650  68.5964720 109.2535770 138.5441320  69.2522300
 109.3008630 137.1758600  68.6061060 106.0306700 140.7900680  76.0484980
 106.3609710 139.9221740  75.8163620 106.4597700 140.9959200  76.8789940
 110.6268620 139.1209690  73.7086950 110.3264160 138.9974660  74.6090860
 110.5206110 138.2618280  73.3002680 106.5196910 141.6571270  78.7866610
 106.0827900 141.8372070  79.6190760 107.0874590 142.4145890  78.6448330
 122.1559090 141.1588270  83.0743920 121.5561080 141.2180830  82.3307840
 122.2852990 140.2193250  83.2040770 123.3960540 138.9006090  68.4113630
 122.5653500 138.9682740  68.8820860 123.5732370 139.7910210  68.1080490
 122.8517000 135.6453570  70.9147830 123.6135910 136.2150220  71.0207520
 122.8671370 135.0780770  71.6856140 106.3521340 134.1691500  75.1455490
 105.6970180 133.9003140  74.5015190 107.1899290 134.0595980  74.6957470
 123.8576970 136.5003670  75.7589760 124.2285800 135.7170990  75.3525730
 124.4978900 137.1892770  75.5807060 120.8410730 137.8840250  81.1720080
 120.0270570 138.3137410  81.4345870 121.2484930 138.4958660  80.5589130
 122.9036170 135.9387940  68.0720350 123.1785010 136.8466820  67.9439570
 122.7146910 135.8750470  69.0082340 119.3011780 128.9632790  69.3673980
 119.7196660 128.7763770  68.5270640 118.9947840 128.1111840  69.6776910
 122.8001510 133.8756930  73.0649780 122.4245110 133.1084860  72.6331070
 122.0704630 134.2579630  73.5524710 107.3897270 134.5544070  79.6858830
 107.7570310 134.4671470  80.5654850 106.8208090 133.7910620  79.5865690
 122.1901130 133.0228450  82.6989300 121.9587220 132.7941200  81.7987250
 122.4505680 133.9428000  82.6534190 106.9413270 131.4653160  83.5917250
 106.0469320 131.4319920  83.9310960 107.4810820 131.6639950  84.3568500
 120.6289200 128.2484880  85.4769000 121.5059380 128.2568280  85.8603000
 120.6410040 127.5115720  84.8661350 105.5659420 131.3790430  71.0880820
 104.6623500 131.6420630  70.9132480 106.0500040 131.6501600  70.3080780
 122.0752470 132.1014420  76.3657020 122.5989950 131.6077070  75.7347190
 122.6611890 132.2364780  77.1104590 122.2542190 132.1854290  79.8876570
 121.3044900 132.1517830  80.0021560 122.4355200 133.0954400  79.6526340
 108.1086630 130.4355970  68.9975200 108.8178330 130.0139190  68.5122480
 107.3926570 130.5031200  68.3658550 107.7560790 126.4895300  68.0377850
 108.4788920 127.0304240  68.3559070 108.0285310 126.2158720  67.1619390
 121.5652440 131.3587770  72.3049430 122.0611560 131.1258640  73.0898310
 121.3668510 130.5199610  71.8887070 107.4452980 125.7401490  77.9400470
 108.0929170 125.1898870  77.4995630 107.8654820 125.9944640  78.7616280
 122.9939600 129.9948720  74.8387110 122.8838880 129.8404760  75.7769380
 123.7547190 129.4669660  74.5962520 121.3405320 125.9342850  81.2970110
 121.9777540 126.5476990  81.6629300 121.4880210 125.9703510  80.3519340
 123.8829870 127.8256640  68.0793250 124.8079180 127.6937820  67.8711540
 123.8605660 127.9049460  69.0329700 123.9568360 128.5967300  70.7049960
 123.1619860 128.5312420  71.2342870 124.1611640 129.5317940  70.6935310
 120.8986780 142.6358850  74.6988350 121.4945850 142.3143420  74.0222770
 121.1564930 142.1630670  75.4901620 107.1984980 125.8957160  80.6825790
 106.8499800 126.3520980  81.4483970 106.8672680 125.0014290  80.7648220
 108.8049350 139.0676760  84.8478980 108.7618980 138.6969670  85.7293440
 108.9360360 140.0054330  84.9880800 112.5055380 140.6236350  80.4488700
 112.2646740 140.8910910  79.5619220 113.4458020 140.7942080  80.5039560
 123.7659540 142.6430730  81.2499340 123.2717820 143.0399600  80.5326470
 123.1572830 142.0179940  81.6436620 107.8705620 125.4233360  83.9576560
 108.4188610 125.2421410  83.1942670 107.9360930 124.6327470  84.4932870
 108.6437380 142.0139010  81.9676760 108.0497700 141.8823710  82.7066800
 108.6361220 141.1777150  81.5018860 121.4498990 143.2854150  78.5286080
 120.9901960 144.0369960  78.1544100 120.8211450 142.5660620  78.4700880
 108.2749610 139.3797390  80.9184800 107.5483670 138.7602680  80.8510750
 108.3358760 139.7738000  80.0482880 111.8794710 141.5942390  77.7034210
 112.3959730 140.9829750  77.1782470 112.5292090 142.0971170  78.1945220
 114.6190210 142.4850880  78.5303190 114.9068020 142.2305180  77.6536200
 115.1313430 141.9328240  79.1208760 122.2526860 126.5579420  75.1657610
 122.1915260 125.6140640  75.0188630 123.0318890 126.6659510  75.7111070
 106.5579610 142.6971780  74.1281560 106.3901650 142.0642460  74.8263450
 105.6914120 142.9031180  73.7775750 107.1807630 126.5288560  71.6313420
 107.9386990 126.6417440  71.0577450 106.7184800 127.3657760  71.5856850
 121.3681020 125.7091840  71.1339080 121.5631650 126.6075290  71.4006510
 120.5810890 125.4778920  71.6272030 108.1642310 141.3905010  71.5731700
 107.6389930 141.7713040  70.8693660 108.0886890 142.0155780  72.2941410
 109.5532780 127.0552610  70.1715390 110.0825540 126.2682410  70.0423340
 110.1861100 127.7343800  70.4050920 111.7470620 126.7927750  73.2260780
 111.1173360 126.0915060  73.3930910 111.2075760 127.5531880  73.0093940
 114.6862570 143.4066980  85.8971390 115.6129880 143.1711250  85.9407350
 114.6713000 144.2338980  85.4157420 122.9207630 142.9492550  72.8945640
 123.0959820 142.2630290  72.2506560 122.2229200 143.4739600  72.5022310
 110.7635280 143.3387390  70.4480950 111.4954100 143.0546670  69.9004840
 111.0228950 143.1000670  71.3380330 109.9250070 139.4552120  70.4527280
 109.2958950 139.9237220  71.0013110 110.0397900 138.6101340  70.8873470
 121.2540130 142.6336840  85.7212430 122.0465450 142.1386070  85.5138390
 121.5473280 143.3126980  86.3288040 117.3799790 133.5057780  56.6028480
 117.2993840 132.5912390  56.3320190 116.9664210 134.0024850  55.8968190
 115.5117830 135.2836800  58.4837750 114.7359930 134.8037240  58.7736320
 116.1630760 134.6042450  58.3093910 109.5283660 135.5956610  59.3613510
 108.6968540 135.3405320  59.7610020 110.1364640 135.6667380  60.0971430
 119.5325260 139.6896990  57.2636880 119.0706790 138.9184230  57.5924050
 120.3450810 139.7163060  57.7689330 109.5084920 139.6296700  59.5571530
 109.8112960 138.7394440  59.3781750 110.2528510 140.1866920  59.3293780
 107.9375610 130.5558500  53.1455900 107.0492310 130.8974470  53.0435780
 108.2216800 130.3558820  52.2536730 105.9008620 133.1564150  59.0295600
 106.4724730 132.3886350  59.0299240 105.9010160 133.4552910  58.1202210
 115.7588570 141.9755000  56.8840870 115.1400010 142.4312500  56.3135310
 116.6140350 142.1306460  56.4830570 114.9526820 137.9593990  58.4907910
 114.8835100 137.0183930  58.3297040 115.7146680 138.0495400  59.0630480
 115.9831990 130.7664370  58.7176840 116.3596810 129.8936250  58.6050510
 115.8851500 131.1023070  57.8267280 110.1137000 129.1390000  54.1794280
 110.2203750 130.0393730  54.4863040 109.2029360 129.0907970  53.8888930
 119.7656110 128.2614810  55.6505180 120.5865730 127.7711380  55.6930660
 119.7990190 128.8512470  56.4037020 107.7620160 131.0609010  59.4246870
 108.4430270 131.3247380  60.0434270 107.4468210 130.2209880  59.7584880
 111.9544730 132.1076370  58.5119460 112.4622950 132.6057340  59.1524480
 112.4857970 131.3311570  58.3358820 124.0555660 130.2781560  62.2148810
 123.3507830 130.6663270  61.6963920 124.3213580 130.9731850  62.8169740
 110.2380830 126.7474930  62.7782880 110.2399270 127.2647320  61.9728780
 109.4085140 126.2705110  62.7552810 116.6251920 136.8594240  54.2772780
 116.0069190 137.3243690  53.7135500 117.1375170 137.5521720  54.6942290
 111.4883680 136.3870110  60.9556380 111.1553060 137.0139030  61.5977450
 111.6650360 136.9131990  60.1758050 120.0017590 130.2015190  58.4232720
 119.2973160 130.4900080  59.0035830 120.3629750 131.0115300  58.0632280
 109.9196160 128.4584890  60.7853330 110.2612970 129.3026940  60.4907200
 108.9811970 128.6068630  60.9018670 110.7002780 138.3550910  62.7705560
 111.3176780 139.0301990  62.4890010 109.8395900 138.7638890  62.6793060
 105.9935120 137.5450770  51.6512410 105.6163100 138.0337870  50.9197310
 106.2508190 138.2176050  52.2818940 121.6180370 139.8190320  60.6860200
 120.9343890 140.4889430  60.6776870 122.1574660 140.0170970  59.9205060
 123.0704510 129.6469980  58.8141930 122.1229420 129.6808960  58.9457360
 123.3954500 130.4608930  59.1991290 113.6024050 125.9467160  57.1097920
 113.9099030 125.3914050  56.3933420 112.6724750 126.0811620  56.9270910
 119.1539110 141.6634450  59.4005380 119.1666270 141.2596740  58.5327640
 118.6014330 142.4381740  59.2966810 120.4484530 138.3850670  54.4895550
 120.3380860 137.4425000  54.6144970 120.4452780 138.7466310  55.3758310
 118.5524550 136.5664290  60.7287990 118.9693340 136.3524400  59.8941450
 119.2764370 136.8237080  61.2996610 115.9904810 134.0115990  53.8458040
 115.0634090 133.9453370  54.0746510 116.1429630 134.9496120  53.7313280
 115.9773890 130.2832990  50.8425200 115.0377560 130.4446950  50.9277660
 116.2957150 131.0018670  50.2961190 122.4986650 134.9651510  60.8204230
 121.6705280 135.0344600  60.3454360 123.0937130 135.5505820  60.3520060
 120.0202100 135.5736290  54.3493290 119.4014520 135.2355840  53.7019590
 120.0026550 134.9296050  55.0572480 119.4628660 131.7520830  61.7659100
 119.0499840 132.5774540  62.0199090 118.7304610 131.1665870  61.5735460
 111.5961450 134.5380730  56.6277770 111.1918450 133.8257980  56.1323670
 111.6824570 134.1933970  57.5165810 112.0643150 138.2248290  58.7916980
 111.7671440 137.6193760  58.1124760 113.0142970 138.2625600  58.6806340
 110.3090070 131.3123940  60.4076810 110.8604660 131.4219280  59.6330060
 110.8233580 131.6861540  61.1232040 120.1528760 141.7980160  62.4540080
 119.6759320 142.6052350  62.2612690 119.4690550 141.1458490  62.6066290
 111.1561580 137.9629980  65.4424780 110.2590110 138.1869950  65.6898180
 111.1814450 138.0864920  64.4936180 118.1966800 134.8123100  51.3566040
 118.6360080 133.9745530  51.2103860 118.9095220 135.4452500  51.4430180
 109.9832800 134.8343300  64.0182150 109.8440570 135.7066100  64.3869550
 109.1014160 134.4916110  63.8730090 116.3062180 139.7519170  55.3247280
 116.7458090 140.4943500  54.9102670 116.2449070 139.9945740  56.2486240
 111.7813150 140.7765000  66.2267300 111.7528580 141.1807950  65.3595730
 111.6178120 139.8475360  66.0638900 121.7783940 126.0665910  49.6707080
 121.4656600 126.1592740  50.5706150 122.5396410 126.6446940  49.6204510
 108.2966080 133.4325710  54.1284420 108.1763680 134.1587800  53.5165690
 107.9866970 132.6628620  53.6512330 123.7327970 141.5592100  67.5231470
 124.2087690 142.0374990  68.2020550 124.3535130 141.4909590  66.7976970
 105.9351450 136.6040850  59.9353060 106.0131870 136.7389620  58.9908780
 106.5493130 135.8956740  60.1281180 107.1799080 138.3041040  56.3459240
 106.7727160 138.4455630  55.4912840 108.0712090 138.0201200  56.1430450
 123.1361220 138.7504950  64.6831480 123.2624280 138.5116830  63.7648660
 123.1782600 137.9189490  65.1553560 116.9977960 142.4532950  63.2526290
 117.5122630 142.3640960  64.0548720 116.1547040 142.7992650  63.5454200
 118.9732360 142.7388290  52.6810290 118.8133500 142.4491230  53.5792120
 118.8079070 141.9628420  52.1455520 111.4520740 142.5186820  54.4581910
 111.2763220 141.6022360  54.2449710 110.5976480 142.8774110  54.6979710
 118.6758490 140.2475850  51.2408290 117.9823650 140.2453140  50.5810570
 119.4181350 139.8235170  50.8102460 118.2408420 141.8738560  55.3156780
 118.6965370 141.0927940  55.6295400 118.5800940 142.5845380  55.8597960
 122.9885230 130.8037410  65.6481220 122.3729500 131.3117080  65.1196680
 122.6681650 129.9035740  65.5907160 105.9910970 137.6455020  62.4747520
 106.1542010 137.1760380  61.6566890 106.4563420 137.1378580  63.1396360
 115.0499550 129.6429300  63.1143410 114.5878920 129.8512320  63.9263350
 114.6477660 128.8288650  62.8114080 120.0504060 130.8638250  64.2440070
 119.1997650 130.5644000  64.5649140 119.8905850 131.1080260  63.3323890
 117.1453770 132.3640000  66.3438860 117.4707180 131.5303750  66.0041090
 117.9334100 132.8868520  66.4917190 113.8788560 126.3971480  52.3913920
 113.2542740 126.3931350  53.1167230 113.7918680 125.5302440  51.9949890
 112.8005640 127.3208110  59.3697690 113.0977970 128.2270940  59.2889710
 113.3491200 126.8326890  58.7557260 110.5543960 131.8994350  55.2389340
 110.3284880 131.6831520  56.1435960 109.7736490 132.3322810  54.8935310
 117.7841720 131.9057720  53.8379990 117.1850610 132.6293520  53.6543610
 118.3321330 131.8434500  53.0556440 112.9943170 132.7979930  65.9049610
 112.8986770 131.8574660  65.7550010 113.8375150 133.0195000  65.5097680
 116.3906590 130.5421260  55.8683270 116.7836160 130.8593460  55.0551960
 116.7523440 129.6633140  55.9827790 114.6998760 129.2928570  67.1280130
 114.0097080 129.1000770  67.7626220 115.4431060 129.5763210  67.6604430
 105.6140990 131.0742180  49.3016190 105.5315660 132.0172940  49.4431180
 105.2624050 130.9317090  48.4228540 116.9761730 133.1327010  59.9634050
 116.2442850 133.6413820  60.3124150 116.5786070 132.3156990  59.6622830
 113.4139120 129.8081210  58.3686540 113.4175180 129.3671160  57.5191080
 114.3090240 130.1298540  58.4758360 113.4759270 130.8093290  51.3593300
 113.5972090 130.7679770  52.3079120 113.0907780 131.6717440  51.2040030
 117.4387640 128.5860690  59.3756990 117.4560380 129.0369340  60.2198840
 117.1903220 127.6866330  59.5890430 112.4880770 133.1194430  50.7576600
 111.9197670 132.6712680  50.1312510 113.1969770 133.4787210  50.2241750
 120.8658390 125.9992870  65.2143370 121.1904160 125.2682530  65.7401350
 120.9014900 125.6806510  64.3124360 107.5649950 137.0206450  64.6343330
 107.1804740 136.3800120  65.2326290 107.8762140 137.7242570  65.2038060
 113.7147090 133.8682990  60.1151950 114.0817220 133.3941560  60.8613290
 113.5252150 134.7424560  60.4560290 111.5046460 132.9091630  62.4336160
 111.2003530 133.7883610  62.6586520 112.4592920 132.9691420  62.4693600
 110.0328250 137.1152620  53.0303010 109.2590510 136.5750240  52.8701730
 110.7622880 136.5959230  52.6920770 120.7916230 136.1117980  58.8229400
 121.5115350 136.6073270  58.4325510 120.5898050 135.4335870  58.1783270
 116.2526170 127.5055940  52.9658790 115.4390780 127.0069110  52.8904100
 116.0588120 128.3454190  52.5495140 116.1735030 136.1827040  64.7098400
 116.1072340 135.2622710  64.4555990 115.5440170 136.2802480  65.4243040
 118.9674560 131.8775590  51.2620950 119.8554180 132.1892820  51.0872290
 118.9379650 131.0047840  50.8701530 110.0765650 136.7833000  56.6681820
 110.5944320 135.9801260  56.6138710 109.6249670 136.7212140  57.5098650
 114.9635150 138.0499280  51.9409120 115.3050850 138.7941510  51.4452440
 114.1347860 138.3630400  52.3033950 107.5610190 133.7494370  63.5807520
 107.2025130 134.4148220  64.1680860 107.2664750 132.9177920  63.9520140
 110.7623310 134.2078610  66.4647070 110.4623450 134.3535790  65.5674890
 111.5334550 133.6483900  66.3720460 116.1051760 139.0047610  64.4602200
 116.1196300 138.0728570  64.2421110 115.3976860 139.0907370  65.0991970
 121.2388830 133.1887430  50.7300810 121.1552550 133.6201650  49.8797250
 121.9583020 133.6485780  51.1627630 122.3162970 135.6454950  63.8070780
 121.5911160 136.2383730  63.6100170 122.8438430 135.6378490  63.0084150
 122.2676080 140.0429690  53.4582940 121.6252240 139.3885310  53.7326660
 121.8806740 140.4484780  52.6823610 117.8462560 137.3715120  57.3054630
 118.1986380 136.7743250  56.6456000 116.9624890 137.0459350  57.4762880
 113.9325840 138.1312810  54.7125040 114.6196970 138.6782020  55.0932630
 113.1458260 138.6753540  54.7474650 106.0718240 133.7485630  50.2042120
 106.9413090 134.0310430  50.4878040 105.5808560 134.5621500  50.0890930
 113.2353050 135.1358840  54.3250400 113.6915830 135.9464090  54.5510590
 112.8841260 134.8181980  55.1568890 115.5385660 140.6465180  61.5542700
 116.1827880 140.8524560  62.2316120 115.9015100 139.8853580  61.1013550
 116.8117740 138.6497530  60.2720150 117.4539970 137.9490690  60.3852320
 117.3367090 139.4295970  60.0917040 120.6573460 138.9346150  49.9959290
 120.4311040 138.2176590  50.5883930 120.2669660 138.6858590  49.1581040
 118.5855360 139.4492430  63.4756210 118.9211600 140.0359120  64.1534130
 117.6655700 139.3185140  63.7054000 106.4389490 142.9613010  50.7703750
 106.7987130 143.5602350  50.1161020 106.2981830 143.5072900  51.5438780
 120.2389710 136.8518090  51.6573450 119.9511410 137.3130780  52.4451330
 121.0341880 136.3915860  51.9257670 106.4231350 141.2267870  65.2446150
 106.5322470 140.2862610  65.1041540 105.7711910 141.4922620  64.5959880
 114.4143940 139.4983760  66.6444270 114.0940810 138.7793000  67.1889960
 113.7402300 140.1738830  66.7180330 112.4558110 140.3444210  51.5877420
 112.4468210 141.0773900  50.9721930 111.5356470 140.0975790  51.6804380
 108.0564750 135.5659100  52.3324180 107.4492700 136.3058000  52.3419480
 108.5314100 135.6558460  51.5062380 117.6297540 129.7309920  62.0081070
 117.9978360 128.9105130  62.3360640 116.7695740 129.7911810  62.4236720
 120.9959570 128.6866860  52.8168630 120.3672730 128.7912530  52.1026860
 120.5011490 128.9063640  53.6062510 115.4417710 140.4072450  50.2502610
 115.5429690 140.2036440  49.3204590 114.5419450 140.1530730  50.4550390
 112.9643600 130.9652810  54.2326510 112.2559750 131.4339150  54.6740120
 113.2488080 130.3074820  54.8671700 114.5899530 132.3849510  62.2319040
 115.0884780 132.8595330  62.8970890 114.7322480 131.4613030  62.4389070
 116.9959030 127.6903470  55.6722300 116.8726810 127.7089600  54.7231810
 117.9443590 127.7382410  55.7920700 114.0835820 142.9258770  54.9450280
 114.3377320 142.8880160  54.0229650 113.1348300 142.7992100  54.9378530
 111.1678620 129.2737890  51.6077220 112.0169150 129.7108040  51.5417410
 110.8009890 129.5858150  52.4349280 121.7966390 128.6017470  63.0747430
 121.2939990 129.3422870  63.4141240 122.6123050 128.9901470  62.7584220
 120.0888400 133.8450650  56.5208790 119.1478540 133.8600880  56.6956480
 120.4032470 133.0586610  56.9669090 110.0670040 135.5270250  50.0812750
 110.8333310 135.4151610  50.6438180 110.1444730 134.8308220  49.4289520
 108.7616800 132.9595320  50.7645640 108.8420390 132.0122830  50.8763040
 109.6536550 133.2902200  50.8706300 122.0913980 141.0159500  58.1963050
 122.2161400 141.8390670  58.6686860 122.9579540 140.8050230  57.8487200
 109.5631510 143.1090710  57.8680180 110.2993990 142.5606170  58.1388750
 109.9472430 143.9746720  57.7286170 106.4476990 139.1764280  53.7421690
 105.5216770 139.4185420  53.7327100 106.9133420 140.0038540  53.6206440
 108.5689790 142.2936780  67.0565760 109.3702520 142.6148830  67.4701160
 108.0541610 141.9332360  67.7785670 112.6733820 142.2821020  49.6905750
 113.4662430 142.5709850  49.2387540 112.1538170 141.8513190  49.0118230
 117.4054420 138.4016650  67.0041170 116.7992580 138.4248250  66.2636920
 117.1008530 137.6699690  67.5408420 118.8354790 142.1296940  65.6150580
 119.7876540 142.0454960  65.5650820 118.6883010 142.7938650  66.2884370
 121.7263990 141.5091150  51.1142490 121.4405500 141.0956290  50.2996670
 121.5283540 142.4378860  50.9943010 106.2887600 134.7810240  66.0001810
 106.7926620 134.2017520  66.5718040 105.5495020 135.0650470  66.5378180
 113.1911220 137.5024430  49.5548100 113.0861860 136.8876780  50.2809480
 113.0235440 136.9790320  48.7711110 113.3425540 136.1881230  65.5337330
 112.5771210 136.7566230  65.4492000 113.5241500 135.8957440  64.6405560
 116.4313950 136.5644460  50.1590090 115.8824050 137.0113760  50.8032830
 117.0533210 136.0593710  50.6827760 120.4848890 137.9186560  66.0912350
 121.2258360 138.2562320  65.5879810 119.7221570 138.0878620  65.5382120
 108.3210680 132.9239830  66.8951880 108.3616020 132.6253700  67.8037110
 109.1756180 133.3247440  66.7359400 112.0989070 135.5235380  52.0555390
 112.5205490 135.3575250  52.8986780 112.2239910 134.7135610  51.5610530
 110.2616490 131.5031930  64.8626370 109.7312950 131.0122880  64.2349710
 110.9304560 131.9316130  64.3284300 114.6116710 134.5472990  49.3032490
 115.1322370 133.8322010  48.9373640 115.2585110 135.1858860  49.6033000
 119.1594550 135.9701390  64.6267560 119.5735570 136.1246470  65.4757980
 118.2245550 136.0956610  64.7893340 119.6316720 133.3097550  66.6306710
 120.2137490 132.5549870  66.5427190 119.8078490 133.8404990  65.8538190
 110.7488790 128.4694300  64.9423660 110.6545660 127.8515050  64.2174530
 110.1686180 129.1960590  64.7153570 113.5150230 127.0267540  61.9751050
 113.0667530 127.0491800  61.1296600 112.8815430 126.6286560  62.5721350
 113.9209780 135.9221870  62.5963490 114.3397890 136.7654600  62.4239730
 113.0018410 136.0593910  62.3670270 116.2573680 133.6538050  63.9801330
 116.3769890 133.0579190  64.7196170 117.1167680 133.6907740  63.5602630
 118.5961580 134.2075240  62.5563840 118.0696800 134.7317860  61.9528980
 118.9392920 134.8402630  63.1873570 110.9947970 131.5968610  49.0013550
 110.7937030 130.7335970  49.3626890 110.8240020 131.5101970  48.0635150
 111.7717200 142.2274880  63.7121220 111.2338290 142.9520940  63.3929920
 112.0251160 141.7505220  62.9218560 113.0242450 130.1959400  65.2377150
 113.6142140 129.8875250  65.9254970 112.2062690 129.7239150  65.3937050
 117.8435880 129.8125210  65.4710170 117.1551400 129.1506750  65.4060160
 118.5641900 129.3663480  65.9158630 118.4736280 126.4076840  51.5300430
 118.7538570 125.5644740  51.8859850 117.7002010 126.6399950  52.0439180
 109.7930770 128.6969230  48.9891430 110.0956670 128.7036660  48.0810580
 110.5325360 128.3467090  49.4859090 114.6279410 143.4626090  63.9707870
 114.5538110 144.3661230  64.2780240 113.7258250 143.1437990  63.9429940
 113.0115700 127.6403850  49.9747630 112.6637700 126.9627840  49.3950080
 113.2128470 127.1793360  50.7891020 115.1764740 142.6284600  51.5934230
 116.0715530 142.9669570  51.6152990 115.2082370 141.9064010  50.9658510
 108.8160900 138.0011650  49.8221230 109.2535770 138.5441320  50.4778810
 109.3008630 137.1758600  49.8317570 106.0306700 140.7900680  57.2741490
 106.3609710 139.9221740  57.0420130 106.4597700 140.9959200  58.1046450
 110.6268620 139.1209690  54.9343460 110.3264160 138.9974660  55.8347370
 110.5206110 138.2618280  54.5259190 106.5196910 141.6571270  60.0123120
 106.0827900 141.8372070  60.8447270 107.0874590 142.4145890  59.8704840
 122.1559090 141.1588270  64.3000430 121.5561080 141.2180830  63.5564350
 122.2852990 140.2193250  64.4297280 123.3960540 138.9006090  49.6370140
 122.5653500 138.9682740  50.1077370 123.5732370 139.7910210  49.3337000
 122.8517000 135.6453570  52.1404340 123.6135910 136.2150220  52.2464030
 122.8671370 135.0780770  52.9112650 106.3521340 134.1691500  56.3712000
 105.6970180 133.9003140  55.7271700 107.1899290 134.0595980  55.9213980
 123.8576970 136.5003670  56.9846270 124.2285800 135.7170990  56.5782240
 124.4978900 137.1892770  56.8063570 120.8410730 137.8840250  62.3976590
 120.0270570 138.3137410  62.6602380 121.2484930 138.4958660  61.7845640
 122.9036170 135.9387940  49.2976860 123.1785010 136.8466820  49.1696080
 122.7146910 135.8750470  50.2338850 119.3011780 128.9632790  50.5930490
 119.7196660 128.7763770  49.7527150 118.9947840 128.1111840  50.9033420
 122.8001510 133.8756930  54.2906290 122.4245110 133.1084860  53.8587580
 122.0704630 134.2579630  54.7781220 107.3897270 134.5544070  60.9115340
 107.7570310 134.4671470  61.7911360 106.8208090 133.7910620  60.8122200
 122.1901130 133.0228450  63.9245810 121.9587220 132.7941200  63.0243760
 122.4505680 133.9428000  63.8790700 120.6289200 128.2484880  66.7025510
 121.5059380 128.2568280  67.0859510 120.6410040 127.5115720  66.0917860
 105.5659420 131.3790430  52.3137330 104.6623500 131.6420630  52.1388990
 106.0500040 131.6501600  51.5337290 122.0752470 132.1014420  57.5913530
 122.5989950 131.6077070  56.9603700 122.6611890 132.2364780  58.3361100
 122.2542190 132.1854290  61.1133080 121.3044900 132.1517830  61.2278070
 122.4355200 133.0954400  60.8782850 108.1086630 130.4355970  50.2231710
 108.8178330 130.0139190  49.7378990 107.3926570 130.5031200  49.5915060
 107.7560790 126.4895300  49.2634360 108.4788920 127.0304240  49.5815580
 108.0285310 126.2158720  48.3875900 121.5652440 131.3587770  53.5305940
 122.0611560 131.1258640  54.3154820 121.3668510 130.5199610  53.1143580
 122.9939600 129.9948720  56.0643620 122.8838880 129.8404760  57.0025890
 123.7547190 129.4669660  55.8219030 121.3405320 125.9342850  62.5226620
 121.9777540 126.5476990  62.8885810 121.4880210 125.9703510  61.5775850
 123.8829870 127.8256640  49.3049760 124.8079180 127.6937820  49.0968050
 123.8605660 127.9049460  50.2586210 123.9568360 128.5967300  51.9306470
 123.1619860 128.5312420  52.4599380 124.1611640 129.5317940  51.9191820
 120.8986780 142.6358850  55.9244860 121.4945850 142.3143420  55.2479280
 121.1564930 142.1630670  56.7158130 107.1984980 125.8957160  61.9082300
 106.8499800 126.3520980  62.6740480 106.8672680 125.0014290  61.9904730
 108.8049350 139.0676760  66.0735490 108.7618980 138.6969670  66.9549950
 108.9360360 140.0054330  66.2137310 112.5055380 140.6236350  61.6745210
 112.2646740 140.8910910  60.7875730 113.4458020 140.7942080  61.7296070
 114.7109800 127.0869040  65.4301720 114.6498690 127.6790870  66.1797130
 115.6510180 126.9795000  65.2851980 117.3484360 126.7439100  65.0694010
 117.9624770 127.0618390  64.4075090 117.8933920 126.2587690  65.6889870
 123.7659540 142.6430730  62.4755850 123.2717820 143.0399600  61.7582980
 123.1572830 142.0179940  62.8693130 107.8705620 125.4233360  65.1833070
 108.4188610 125.2421410  64.4199180 107.9360930 124.6327470  65.7189380
 108.6437380 142.0139010  63.1933270 108.0497700 141.8823710  63.9323310
 108.6361220 141.1777150  62.7275370 118.0892400 125.3071240  61.3963300
 117.2152240 125.6406350  61.1936230 117.9803150 124.8344420  62.2215170
 118.9964380 127.5142110  62.7805020 118.6677740 126.6993870  62.4006750
 119.9446680 127.4711920  62.6570710 121.4498990 143.2854150  59.7542590
 120.9901960 144.0369960  59.3800610 120.8211450 142.5660620  59.6957390
 108.2749610 139.3797390  62.1441310 107.5483670 138.7602680  62.0767260
 108.3358760 139.7738000  61.2739390 111.8794710 141.5942390  58.9290720
 112.3959730 140.9829750  58.4038980 112.5292090 142.0971170  59.4201730
 114.6190210 142.4850880  59.7559700 114.9068020 142.2305180  58.8792710
 115.1313430 141.9328240  60.3465270 115.8367220 126.2241080  60.3356210
 115.0539010 126.6986580  60.6152970 115.5430150 125.3195910  60.2269390
 120.3888290 126.9264180  58.3805300 120.8296380 126.8709280  57.5326900
 120.1195880 127.8422190  58.4515480 122.2526860 126.5579420  56.3914120
 122.1915260 125.6140640  56.2445140 123.0318890 126.6659510  56.9367580
 106.5579610 142.6971780  55.3538070 106.3901650 142.0642460  56.0519960
 105.6914120 142.9031180  55.0032260 107.1807630 126.5288560  52.8569930
 107.9386990 126.6417440  52.2833960 106.7184800 127.3657760  52.8113360
 113.7221440 128.6427830  55.8472240 112.9095950 128.2684720  55.5068120
 114.2263080 127.8872910  56.1493430 118.2246420 125.3070280  57.0855310
 118.8275790 125.8790490  57.5603830 117.4839410 125.8709720  56.8629210
 121.3681020 125.7091840  52.3595590 121.5631650 126.6075290  52.6263020
 120.5810890 125.4778920  52.8528540 108.1642310 141.3905010  52.7988210
 107.6389930 141.7713040  52.0950170 108.0886890 142.0155780  53.5197920
 109.5532780 127.0552610  51.3971900 110.0825540 126.2682410  51.2679850
 110.1861100 127.7343800  51.6307430 111.7470620 126.7927750  54.4517290
 111.1173360 126.0915060  54.6187420 111.2075760 127.5531880  54.2350450
 114.6862570 143.4066980  67.1227900 115.6129880 143.1711250  67.1663860
 114.6713000 144.2338980  66.6413930 122.9207630 142.9492550  54.1202150
 123.0959820 142.2630290  53.4763070 122.2229200 143.4739600  53.7278820
 111.8726180 126.0711730  66.8869780 111.5910450 126.5745330  66.1230600
 112.2545880 125.2733480  66.5211910 110.7635280 143.3387390  51.6737460
 111.4954100 143.0546670  51.1261350 111.0228950 143.1000670  52.5636840
 109.9250070 139.4552120  51.6783790 109.2958950 139.9237220  52.2269620
 110.0397900 138.6101340  52.1129980 118.4741640 125.4865310  67.4650250
 118.3607090 125.8059920  68.3601770 119.2911380 125.8877820  67.1687530
 121.2540130 142.6336840  66.9468940 122.0465450 142.1386070  66.7394900
 121.5473280 143.3126980  67.5544550 117.3799790 133.5057780  37.8284990
 117.2993840 132.5912390  37.5576700 116.9664210 134.0024850  37.1224700
 115.5117830 135.2836800  39.7094260 114.7359930 134.8037240  39.9992830
 116.1630760 134.6042450  39.5350420 109.5283660 135.5956610  40.5870020
 108.6968540 135.3405320  40.9866530 110.1364640 135.6667380  41.3227940
 119.5325260 139.6896990  38.4893390 119.0706790 138.9184230  38.8180560
 120.3450810 139.7163060  38.9945840 109.5084920 139.6296700  40.7828040
 109.8112960 138.7394440  40.6038260 110.2528510 140.1866920  40.5550290
 107.9375610 130.5558500  34.3712410 107.0492310 130.8974470  34.2692290
 108.2216800 130.3558820  33.4793240 105.9008620 133.1564150  40.2552110
 106.4724730 132.3886350  40.2555750 105.9010160 133.4552910  39.3458720
 115.7588570 141.9755000  38.1097380 115.1400010 142.4312500  37.5391820
 116.6140350 142.1306460  37.7087080 114.9526820 137.9593990  39.7164420
 114.8835100 137.0183930  39.5553550 115.7146680 138.0495400  40.2886990
 107.1433490 128.5648510  42.0421040 106.9636330 127.6674260  42.3223800
 106.7413570 129.1120380  42.7167990 115.9831990 130.7664370  39.9433350
 116.3596810 129.8936250  39.8307020 115.8851500 131.1023070  39.0523790
 110.1137000 129.1390000  35.4050790 110.2203750 130.0393730  35.7119550
 109.2029360 129.0907970  35.1145440 119.7656110 128.2614810  36.8761690
 120.5865730 127.7711380  36.9187170 119.7990190 128.8512470  37.6293530
 107.7620160 131.0609010  40.6503380 108.4430270 131.3247380  41.2690780
 107.4468210 130.2209880  40.9841390 111.9544730 132.1076370  39.7375970
 112.4622950 132.6057340  40.3780990 112.4857970 131.3311570  39.5615330
 124.0555660 130.2781560  43.4405320 123.3507830 130.6663270  42.9220430
 124.3213580 130.9731850  44.0426250 110.2380830 126.7474930  44.0039390
 110.2399270 127.2647320  43.1985290 109.4085140 126.2705110  43.9809320
 116.6251920 136.8594240  35.5029290 116.0069190 137.3243690  34.9392010
 117.1375170 137.5521720  35.9198800 111.4883680 136.3870110  42.1812890
 111.1553060 137.0139030  42.8233960 111.6650360 136.9131990  41.4014560
 120.0017590 130.2015190  39.6489230 119.2973160 130.4900080  40.2292340
 120.3629750 131.0115300  39.2888790 109.9196160 128.4584890  42.0109840
 110.2612970 129.3026940  41.7163710 108.9811970 128.6068630  42.1275180
 110.7002780 138.3550910  43.9962070 111.3176780 139.0301990  43.7146520
 109.8395900 138.7638890  43.9049570 105.9935120 137.5450770  32.8768920
 105.6163100 138.0337870  32.1453820 106.2508190 138.2176050  33.5075450
 121.6180370 139.8190320  41.9116710 120.9343890 140.4889430  41.9033380
 122.1574660 140.0170970  41.1461570 123.0704510 129.6469980  40.0398440
 122.1229420 129.6808960  40.1713870 123.3954500 130.4608930  40.4247800
 113.6024050 125.9467160  38.3354430 113.9099030 125.3914050  37.6189930
 112.6724750 126.0811620  38.1527420 119.1539110 141.6634450  40.6261890
 119.1666270 141.2596740  39.7584150 118.6014330 142.4381740  40.5223320
 120.4484530 138.3850670  35.7152060 120.3380860 137.4425000  35.8401480
 120.4452780 138.7466310  36.6014820 118.5524550 136.5664290  41.9544500
 118.9693340 136.3524400  41.1197960 119.2764370 136.8237080  42.5253120
 115.9904810 134.0115990  35.0714550 115.0634090 133.9453370  35.3003020
 116.1429630 134.9496120  34.9569790 115.9773890 130.2832990  32.0681710
 115.0377560 130.4446950  32.1534170 116.2957150 131.0018670  31.5217700
 122.4986650 134.9651510  42.0460740 121.6705280 135.0344600  41.5710870
 123.0937130 135.5505820  41.5776570 120.0202100 135.5736290  35.5749800
 119.4014520 135.2355840  34.9276100 120.0026550 134.9296050  36.2828990
 119.4628660 131.7520830  42.9915610 119.0499840 132.5774540  43.2455600
 118.7304610 131.1665870  42.7991970 111.5961450 134.5380730  37.8534280
 111.1918450 133.8257980  37.3580180 111.6824570 134.1933970  38.7422320
 112.0643150 138.2248290  40.0173490 111.7671440 137.6193760  39.3381270
 113.0142970 138.2625600  39.9062850 110.3090070 131.3123940  41.6333320
 110.8604660 131.4219280  40.8586570 110.8233580 131.6861540  42.3488550
 120.1528760 141.7980160  43.6796590 119.6759320 142.6052350  43.4869200
 119.4690550 141.1458490  43.8322800 111.1561580 137.9629980  46.6681290
 110.2590110 138.1869950  46.9154690 111.1814450 138.0864920  45.7192690
 118.1966800 134.8123100  32.5822550 118.6360080 133.9745530  32.4360370
 118.9095220 135.4452500  32.6686690 109.9832800 134.8343300  45.2438660
 109.8440570 135.7066100  45.6126060 109.1014160 134.4916110  45.0986600
 116.3062180 139.7519170  36.5503790 116.7458090 140.4943500  36.1359180
 116.2449070 139.9945740  37.4742750 111.7813150 140.7765000  47.4523810
 111.7528580 141.1807950  46.5852240 111.6178120 139.8475360  47.2895410
 121.7783940 126.0665910  30.8963590 121.4656600 126.1592740  31.7962660
 122.5396410 126.6446940  30.8461020 108.2966080 133.4325710  35.3540930
 108.1763680 134.1587800  34.7422200 107.9866970 132.6628620  34.8768840
 123.7327970 141.5592100  48.7487980 124.2087690 142.0374990  49.4277060
 124.3535130 141.4909590  48.0233480 105.9351450 136.6040850  41.1609570
 106.0131870 136.7389620  40.2165290 106.5493130 135.8956740  41.3537690
 107.1799080 138.3041040  37.5715750 106.7727160 138.4455630  36.7169350
 108.0712090 138.0201200  37.3686960 123.1361220 138.7504950  45.9087990
 123.2624280 138.5116830  44.9905170 123.1782600 137.9189490  46.3810070
 116.9977960 142.4532950  44.4782800 117.5122630 142.3640960  45.2805230
 116.1547040 142.7992650  44.7710710 118.9732360 142.7388290  33.9066800
 118.8133500 142.4491230  34.8048630 118.8079070 141.9628420  33.3712030
 111.4520740 142.5186820  35.6838420 111.2763220 141.6022360  35.4706220
 110.5976480 142.8774110  35.9236220 118.6758490 140.2475850  32.4664800
 117.9823650 140.2453140  31.8067080 119.4181350 139.8235170  32.0358970
 118.2408420 141.8738560  36.5413290 118.6965370 141.0927940  36.8551910
 118.5800940 142.5845380  37.0854470 122.9885230 130.8037410  46.8737730
 122.3729500 131.3117080  46.3453190 122.6681650 129.9035740  46.8163670
 105.9910970 137.6455020  43.7004030 106.1542010 137.1760380  42.8823400
 106.4563420 137.1378580  44.3652870 110.7629740 126.7760780  38.7364600
 110.3197890 127.5570320  38.4049120 111.3214730 127.0990670  39.4435540
 115.0499550 129.6429300  44.3399920 114.5878920 129.8512320  45.1519860
 114.6477660 128.8288650  44.0370590 120.0504060 130.8638250  45.4696580
 119.1997650 130.5644000  45.7905650 119.8905850 131.1080260  44.5580400
 117.1453770 132.3640000  47.5695370 117.4707180 131.5303750  47.2297600
 117.9334100 132.8868520  47.7173700 113.8788560 126.3971480  33.6170430
 113.2542740 126.3931350  34.3423740 113.7918680 125.5302440  33.2206400
 112.8005640 127.3208110  40.5954200 113.0977970 128.2270940  40.5146220
 113.3491200 126.8326890  39.9813770 110.5543960 131.8994350  36.4645850
 110.3284880 131.6831520  37.3692470 109.7736490 132.3322810  36.1191820
 117.7841720 131.9057720  35.0636500 117.1850610 132.6293520  34.8800120
 118.3321330 131.8434500  34.2812950 112.9943170 132.7979930  47.1306120
 112.8986770 131.8574660  46.9806520 113.8375150 133.0195000  46.7354190
 116.3906590 130.5421260  37.0939780 116.7836160 130.8593460  36.2808470
 116.7523440 129.6633140  37.2084300 108.1253710 129.2093600  45.2839900
 107.7317100 130.0568810  45.4912680 107.4372110 128.5719970  45.4748540
 114.6998760 129.2928570  48.3536640 114.0097080 129.1000770  48.9882730
 115.4431060 129.5763210  48.8860940 105.4270760 127.1322060  39.3169980
 105.1383810 127.7024920  40.0294960 106.1716520 126.6526510  39.6801210
 105.6140990 131.0742180  30.5272700 105.5315660 132.0172940  30.6687690
 105.2624050 130.9317090  29.6485050 116.9761730 133.1327010  41.1890560
 116.2442850 133.6413820  41.5380660 116.5786070 132.3156990  40.8879340
 113.4139120 129.8081210  39.5943050 113.4175180 129.3671160  38.7447590
 114.3090240 130.1298540  39.7014870 109.2641500 129.6907700  38.5537260
 108.9241550 130.1682930  39.3104310 108.5018820 129.2372820  38.1938360
 113.4759270 130.8093290  32.5849810 113.5972090 130.7679770  33.5335630
 113.0907780 131.6717440  32.4296540 117.4387640 128.5860690  40.6013500
 117.4560380 129.0369340  41.4455350 117.1903220 127.6866330  40.8146940
 112.4880770 133.1194430  31.9833110 111.9197670 132.6712680  31.3569020
 113.1969770 133.4787210  31.4498260 120.8658390 125.9992870  46.4399880
 121.1904160 125.2682530  46.9657860 120.9014900 125.6806510  45.5380870
 107.5649950 137.0206450  45.8599840 107.1804740 136.3800120  46.4582800
 107.8762140 137.7242570  46.4294570 113.7147090 133.8682990  41.3408460
 114.0817220 133.3941560  42.0869800 113.5252150 134.7424560  41.6816800
 106.5787580 128.6126680  37.4701930 106.2934500 128.2482350  38.3080550
 106.5166440 127.8807140  36.8565070 111.5046460 132.9091630  43.6592670
 111.2003530 133.7883610  43.8843030 112.4592920 132.9691420  43.6950110
 110.0328250 137.1152620  34.2559520 109.2590510 136.5750240  34.0958240
 110.7622880 136.5959230  33.9177280 120.7916230 136.1117980  40.0485910
 121.5115350 136.6073270  39.6582020 120.5898050 135.4335870  39.4039780
 116.2526170 127.5055940  34.1915300 115.4390780 127.0069110  34.1160610
 116.0588120 128.3454190  33.7751650 116.1735030 136.1827040  45.9354910
 116.1072340 135.2622710  45.6812500 115.5440170 136.2802480  46.6499550
 118.9674560 131.8775590  32.4877460 119.8554180 132.1892820  32.3128800
 118.9379650 131.0047840  32.0958040 110.0765650 136.7833000  37.8938330
 110.5944320 135.9801260  37.8395220 109.6249670 136.7212140  38.7355160
 114.9635150 138.0499280  33.1665630 115.3050850 138.7941510  32.6708950
 114.1347860 138.3630400  33.5290460 107.5610190 133.7494370  44.8064030
 107.2025130 134.4148220  45.3937370 107.2664750 132.9177920  45.1776650
 110.7623310 134.2078610  47.6903580 110.4623450 134.3535790  46.7931400
 111.5334550 133.6483900  47.5976970 116.1051760 139.0047610  45.6858710
 116.1196300 138.0728570  45.4677620 115.3976860 139.0907370  46.3248480
 121.2388830 133.1887430  31.9557320 121.1552550 133.6201650  31.1053760
 121.9583020 133.6485780  32.3884140 122.3162970 135.6454950  45.0327290
 121.5911160 136.2383730  44.8356680 122.8438430 135.6378490  44.2340660
 122.2676080 140.0429690  34.6839450 121.6252240 139.3885310  34.9583170
 121.8806740 140.4484780  33.9080120 117.8462560 137.3715120  38.5311140
 118.1986380 136.7743250  37.8712510 116.9624890 137.0459350  38.7019390
 113.9325840 138.1312810  35.9381550 114.6196970 138.6782020  36.3189140
 113.1458260 138.6753540  35.9731160 106.0718240 133.7485630  31.4298630
 106.9413090 134.0310430  31.7134550 105.5808560 134.5621500  31.3147440
 113.2353050 135.1358840  35.5506910 113.6915830 135.9464090  35.7767100
 112.8841260 134.8181980  36.3825400 115.5385660 140.6465180  42.7799210
 116.1827880 140.8524560  43.4572630 115.9015100 139.8853580  42.3270060
 109.1364830 125.4796490  36.0229430 109.0079460 125.4714390  36.9714350
 108.3126850 125.8179580  35.6720440 116.8117740 138.6497530  41.4976660
 117.4539970 137.9490690  41.6108830 117.3367090 139.4295970  41.3173550
 120.6573460 138.9346150  31.2215800 120.4311040 138.2176590  31.8140440
 120.2669660 138.6858590  30.3837550 118.5855360 139.4492430  44.7012720
 118.9211600 140.0359120  45.3790640 117.6655700 139.3185140  44.9310510
 106.4389490 142.9613010  31.9960260 106.7987130 143.5602350  31.3417530
 106.2981830 143.5072900  32.7695290 106.1358760 127.2387610  45.4836130
 105.4217280 127.4384530  46.0888740 106.5553800 126.4627180  45.8550930
 120.2389710 136.8518090  32.8829960 119.9511410 137.3130780  33.6707840
 121.0341880 136.3915860  33.1514180 106.4231350 141.2267870  46.4702660
 106.5322470 140.2862610  46.3298050 105.7711910 141.4922620  45.8216390
 114.4143940 139.4983760  47.8700780 114.0940810 138.7793000  48.4146470
 113.7402300 140.1738830  47.9436840 112.4558110 140.3444210  32.8133930
 112.4468210 141.0773900  32.1978440 111.5356470 140.0975790  32.9060890
 108.0564750 135.5659100  33.5580690 107.4492700 136.3058000  33.5675990
 108.5314100 135.6558460  32.7318890 117.6297540 129.7309920  43.2337580
 117.9978360 128.9105130  43.5617150 116.7695740 129.7911810  43.6493230
 120.9959570 128.6866860  34.0425140 120.3672730 128.7912530  33.3283370
 120.5011490 128.9063640  34.8319020 115.4417710 140.4072450  31.4759120
 115.5429690 140.2036440  30.5461100 114.5419450 140.1530730  31.6806900
 112.9643600 130.9652810  35.4583020 112.2559750 131.4339150  35.8996630
 113.2488080 130.3074820  36.0928210 114.5899530 132.3849510  43.4575550
 115.0884780 132.8595330  44.1227400 114.7322480 131.4613030  43.6645580
 116.9959030 127.6903470  36.8978810 116.8726810 127.7089600  35.9488320
 117.9443590 127.7382410  37.0177210 114.0835820 142.9258770  36.1706790
 114.3377320 142.8880160  35.2486160 113.1348300 142.7992100  36.1635040
 111.1678620 129.2737890  32.8333730 112.0169150 129.7108040  32.7673920
 110.8009890 129.5858150  33.6605790 121.7966390 128.6017470  44.3003940
 121.2939990 129.3422870  44.6397750 122.6123050 128.9901470  43.9840730
 120.0888400 133.8450650  37.7465300 119.1478540 133.8600880  37.9212990
 120.4032470 133.0586610  38.1925600 110.0670040 135.5270250  31.3069260
 110.8333310 135.4151610  31.8694690 110.1444730 134.8308220  30.6546030
 108.7616800 132.9595320  31.9902150 108.8420390 132.0122830  32.1019550
 109.6536550 133.2902200  32.0962810 122.0913980 141.0159500  39.4219560
 122.2161400 141.8390670  39.8943370 122.9579540 140.8050230  39.0743710
 109.5631510 143.1090710  39.0936690 110.2993990 142.5606170  39.3645260
 109.9472430 143.9746720  38.9542680 106.4476990 139.1764280  34.9678200
 105.5216770 139.4185420  34.9583610 106.9133420 140.0038540  34.8462950
 108.5689790 142.2936780  48.2822270 109.3702520 142.6148830  48.6957670
 108.0541610 141.9332360  49.0042180 112.6733820 142.2821020  30.9162260
 113.4662430 142.5709850  30.4644050 112.1538170 141.8513190  30.2374740
 117.4054420 138.4016650  48.2297680 116.7992580 138.4248250  47.4893430
 117.1008530 137.6699690  48.7664930 118.8354790 142.1296940  46.8407090
 119.7876540 142.0454960  46.7907330 118.6883010 142.7938650  47.5140880
 121.7263990 141.5091150  32.3399000 121.4405500 141.0956290  31.5253180
 121.5283540 142.4378860  32.2199520 106.2887600 134.7810240  47.2258320
 106.7926620 134.2017520  47.7974550 105.5495020 135.0650470  47.7634690
 113.1911220 137.5024430  30.7804610 113.0861860 136.8876780  31.5065990
 113.0235440 136.9790320  29.9967620 113.3425540 136.1881230  46.7593840
 112.5771210 136.7566230  46.6748510 113.5241500 135.8957440  45.8662070
 116.4313950 136.5644460  31.3846600 115.8824050 137.0113760  32.0289340
 117.0533210 136.0593710  31.9084270 120.4848890 137.9186560  47.3168860
 121.2258360 138.2562320  46.8136320 119.7221570 138.0878620  46.7638630
 108.3210680 132.9239830  48.1208390 108.3616020 132.6253700  49.0293620
 109.1756180 133.3247440  47.9615910 112.0989070 135.5235380  33.2811900
 112.5205490 135.3575250  34.1243290 112.2239910 134.7135610  32.7867040
 110.2616490 131.5031930  46.0882880 109.7312950 131.0122880  45.4606220
 110.9304560 131.9316130  45.5540810 114.6116710 134.5472990  30.5289000
 115.1322370 133.8322010  30.1630150 115.2585110 135.1858860  30.8289510
 119.1594550 135.9701390  45.8524070 119.5735570 136.1246470  46.7014490
 118.2245550 136.0956610  46.0149850 119.6316720 133.3097550  47.8563220
 120.2137490 132.5549870  47.7683700 119.8078490 133.8404990  47.0794700
 110.7488790 128.4694300  46.1680170 110.6545660 127.8515050  45.4431040
 110.1686180 129.1960590  45.9410080 113.5150230 127.0267540  43.2007560
 113.0667530 127.0491800  42.3553110 112.8815430 126.6286560  43.7977860
 113.9209780 135.9221870  43.8220000 114.3397890 136.7654600  43.6496240
 113.0018410 136.0593910  43.5926780 116.2573680 133.6538050  45.2057840
 116.3769890 133.0579190  45.9452680 117.1167680 133.6907740  44.7859140
 118.5961580 134.2075240  43.7820350 118.0696800 134.7317860  43.1785490
 118.9392920 134.8402630  44.4130080 110.9947970 131.5968610  30.2270060
 110.7937030 130.7335970  30.5883400 110.8240020 131.5101970  29.2891660
 111.7717200 142.2274880  44.9377730 111.2338290 142.9520940  44.6186430
 112.0251160 141.7505220  44.1475070 113.0242450 130.1959400  46.4633660
 113.6142140 129.8875250  47.1511480 112.2062690 129.7239150  46.6193560
 117.8435880 129.8125210  46.6966680 117.1551400 129.1506750  46.6316670
 118.5641900 129.3663480  47.1415140 118.4736280 126.4076840  32.7556940
 118.7538570 125.5644740  33.1116360 117.7002010 126.6399950  33.2695690
 109.7930770 128.6969230  30.2147940 110.0956670 128.7036660  29.3067090
 110.5325360 128.3467090  30.7115600 114.6279410 143.4626090  45.1964380
 114.5538110 144.3661230  45.5036750 113.7258250 143.1437990  45.1686450
 113.0115700 127.6403850  31.2004140 112.6637700 126.9627840  30.6206590
 113.2128470 127.1793360  32.0147530 115.1764740 142.6284600  32.8190740
 116.0715530 142.9669570  32.8409500 115.2082370 141.9064010  32.1915020
 108.8160900 138.0011650  31.0477740 109.2535770 138.5441320  31.7035320
 109.3008630 137.1758600  31.0574080 106.0306700 140.7900680  38.4998000
 106.3609710 139.9221740  38.2676640 106.4597700 140.9959200  39.3302960
 110.6268620 139.1209690  36.1599970 110.3264160 138.9974660  37.0603880
 110.5206110 138.2618280  35.7515700 106.5196910 141.6571270  41.2379630
 106.0827900 141.8372070  42.0703780 107.0874590 142.4145890  41.0961350
 122.1559090 141.1588270  45.5256940 121.5561080 141.2180830  44.7820860
 122.2852990 140.2193250  45.6553790 123.3960540 138.9006090  30.8626650
 122.5653500 138.9682740  31.3333880 123.5732370 139.7910210  30.5593510
 122.8517000 135.6453570  33.3660850 123.6135910 136.2150220  33.4720540
 122.8671370 135.0780770  34.1369160 106.3521340 134.1691500  37.5968510
 105.6970180 133.9003140  36.9528210 107.1899290 134.0595980  37.1470490
 123.8576970 136.5003670  38.2102780 124.2285800 135.7170990  37.8038750
 124.4978900 137.1892770  38.0320080 120.8410730 137.8840250  43.6233100
 120.0270570 138.3137410  43.8858890 121.2484930 138.4958660  43.0102150
 122.9036170 135.9387940  30.5233370 123.1785010 136.8466820  30.3952590
 122.7146910 135.8750470  31.4595360 119.3011780 128.9632790  31.8187000
 119.7196660 128.7763770  30.9783660 118.9947840 128.1111840  32.1289930
 122.8001510 133.8756930  35.5162800 122.4245110 133.1084860  35.0844090
 122.0704630 134.2579630  36.0037730 107.3897270 134.5544070  42.1371850
 107.7570310 134.4671470  43.0167870 106.8208090 133.7910620  42.0378710
 122.1901130 133.0228450  45.1502320 121.9587220 132.7941200  44.2500270
 122.4505680 133.9428000  45.1047210 106.9413270 131.4653160  46.0430270
 106.0469320 131.4319920  46.3823980 107.4810820 131.6639950  46.8081520
 120.6289200 128.2484880  47.9282020 121.5059380 128.2568280  48.3116020
 120.6410040 127.5115720  47.3174370 105.5659420 131.3790430  33.5393840
 104.6623500 131.6420630  33.3645500 106.0500040 131.6501600  32.7593800
 122.0752470 132.1014420  38.8170040 122.5989950 131.6077070  38.1860210
 122.6611890 132.2364780  39.5617610 122.2542190 132.1854290  42.3389590
 121.3044900 132.1517830  42.4534580 122.4355200 133.0954400  42.1039360
 108.1086630 130.4355970  31.4488220 108.8178330 130.0139190  30.9635500
 107.3926570 130.5031200  30.8171570 107.7560790 126.4895300  30.4890870
 108.4788920 127.0304240  30.8072090 108.0285310 126.2158720  29.6132410
 121.5652440 131.3587770  34.7562450 122.0611560 131.1258640  35.5411330
 121.3668510 130.5199610  34.3400090 107.4452980 125.7401490  40.3913490
 108.0929170 125.1898870  39.9508650 107.8654820 125.9944640  41.2129300
 122.9939600 129.9948720  37.2900130 122.8838880 129.8404760  38.2282400
 123.7547190 129.4669660  37.0475540 121.3405320 125.9342850  43.7483130
 121.9777540 126.5476990  44.1142320 121.4880210 125.9703510  42.8032360
 123.8829870 127.8256640  30.5306270 124.8079180 127.6937820  30.3224560
 123.8605660 127.9049460  31.4842720 123.9568360 128.5967300  33.1562980
 123.1619860 128.5312420  33.6855890 124.1611640 129.5317940  33.1448330
 120.8986780 142.6358850  37.1501370 121.4945850 142.3143420  36.4735790
 121.1564930 142.1630670  37.9414640 107.1984980 125.8957160  43.1338810
 106.8499800 126.3520980  43.8996990 106.8672680 125.0014290  43.2161240
 108.8049350 139.0676760  47.2992000 108.7618980 138.6969670  48.1806460
 108.9360360 140.0054330  47.4393820 112.5055380 140.6236350  42.9001720
 112.2646740 140.8910910  42.0132240 113.4458020 140.7942080  42.9552580
 114.7109800 127.0869040  46.6558230 114.6498690 127.6790870  47.4053640
 115.6510180 126.9795000  46.5108490 117.3484360 126.7439100  46.2950520
 117.9624770 127.0618390  45.6331600 117.8933920 126.2587690  46.9146380
 123.7659540 142.6430730  43.7012360 123.2717820 143.0399600  42.9839490
 123.1572830 142.0179940  44.0949640 107.8705620 125.4233360  46.4089580
 108.4188610 125.2421410  45.6455690 107.9360930 124.6327470  46.9445890
 108.6437380 142.0139010  44.4189780 108.0497700 141.8823710  45.1579820
 108.6361220 141.1777150  43.9531880 118.0892400 125.3071240  42.6219810
 117.2152240 125.6406350  42.4192740 117.9803150 124.8344420  43.4471680
 118.9964380 127.5142110  44.0061530 118.6677740 126.6993870  43.6263260
 119.9446680 127.4711920  43.8827220 121.4498990 143.2854150  40.9799100
 120.9901960 144.0369960  40.6057120 120.8211450 142.5660620  40.9213900
 108.2749610 139.3797390  43.3697820 107.5483670 138.7602680  43.3023770
 108.3358760 139.7738000  42.4995900 111.8794710 141.5942390  40.1547230
 112.3959730 140.9829750  39.6295490 112.5292090 142.0971170  40.6458240
 114.6190210 142.4850880  40.9816210 114.9068020 142.2305180  40.1049220
 115.1313430 141.9328240  41.5721780 115.8367220 126.2241080  41.5612720
 115.0539010 126.6986580  41.8409480 115.5430150 125.3195910  41.4525900
 120.3888290 126.9264180  39.6061810 120.8296380 126.8709280  38.7583410
 120.1195880 127.8422190  39.6771990 122.2526860 126.5579420  37.6170630
 122.1915260 125.6140640  37.4701650 123.0318890 126.6659510  38.1624090
 106.5579610 142.6971780  36.5794580 106.3901650 142.0642460  37.2776470
 105.6914120 142.9031180  36.2288770 107.1807630 126.5288560  34.0826440
 107.9386990 126.6417440  33.5090470 106.7184800 127.3657760  34.0369870
 113.7221440 128.6427830  37.0728750 112.9095950 128.2684720  36.7324630
 114.2263080 127.8872910  37.3749940 118.2246420 125.3070280  38.3111820
 118.8275790 125.8790490  38.7860340 117.4839410 125.8709720  38.0885720
 121.3681020 125.7091840  33.5852100 121.5631650 126.6075290  33.8519530
 120.5810890 125.4778920  34.0785050 108.1642310 141.3905010  34.0244720
 107.6389930 141.7713040  33.3206680 108.0886890 142.0155780  34.7454430
 109.5532780 127.0552610  32.6228410 110.0825540 126.2682410  32.4936360
 110.1861100 127.7343800  32.8563940 111.7470620 126.7927750  35.6773800
 111.1173360 126.0915060  35.8443930 111.2075760 127.5531880  35.4606960
 114.6862570 143.4066980  48.3484410 115.6129880 143.1711250  48.3920370
 114.6713000 144.2338980  47.8670440 122.9207630 142.9492550  35.3458660
 123.0959820 142.2630290  34.7019580 122.2229200 143.4739600  34.9535330
 111.8726180 126.0711730  48.1126290 111.5910450 126.5745330  47.3487110
 112.2545880 125.2733480  47.7468420 110.7635280 143.3387390  32.8993970
 111.4954100 143.0546670  32.3517860 111.0228950 143.1000670  33.7893350
 109.9250070 139.4552120  32.9040300 109.2958950 139.9237220  33.4526130
 110.0397900 138.6101340  33.3386490 118.4741640 125.4865310  48.6906760
 118.3607090 125.8059920  49.5858280 119.2911380 125.8877820  48.3944040
 121.2540130 142.6336840  48.1725450 122.0465450 142.1386070  47.9651410
 121.5473280 143.3126980  48.7801060 117.3799790 133.5057780  19.0541500
 117.2993840 132.5912390  18.7833210 116.9664210 134.0024850  18.3481210
 115.5117830 135.2836800  20.9350770 114.7359930 134.8037240  21.2249340
 116.1630760 134.6042450  20.7606930 109.5283660 135.5956610  21.8126530
 108.6968540 135.3405320  22.2123040 110.1364640 135.6667380  22.5484450
 119.5325260 139.6896990  19.7149900 119.0706790 138.9184230  20.0437070
 120.3450810 139.7163060  20.2202350 109.5084920 139.6296700  22.0084550
 109.8112960 138.7394440  21.8294770 110.2528510 140.1866920  21.7806800
 107.9375610 130.5558500  15.5968920 107.0492310 130.8974470  15.4948800
 108.2216800 130.3558820  14.7049750 105.9008620 133.1564150  21.4808620
 106.4724730 132.3886350  21.4812260 105.9010160 133.4552910  20.5715230
 115.7588570 141.9755000  19.3353890 115.1400010 142.4312500  18.7648330
 116.6140350 142.1306460  18.9343590 114.9526820 137.9593990  20.9420930
 114.8835100 137.0183930  20.7810060 115.7146680 138.0495400  21.5143500
 107.1433490 128.5648510  23.2677550 106.9636330 127.6674260  23.5480310
 106.7413570 129.1120380  23.9424500 115.9831990 130.7664370  21.1689860
 116.3596810 129.8936250  21.0563530 115.8851500 131.1023070  20.2780300
 110.1137000 129.1390000  16.6307300 110.2203750 130.0393730  16.9376060
 109.2029360 129.0907970  16.3401950 119.7656110 128.2614810  18.1018200
 120.5865730 127.7711380  18.1443680 119.7990190 128.8512470  18.8550040
 107.7620160 131.0609010  21.8759890 108.4430270 131.3247380  22.4947290
 107.4468210 130.2209880  22.2097900 111.9544730 132.1076370  20.9632480
 112.4622950 132.6057340  21.6037500 112.4857970 131.3311570  20.7871840
 124.0555660 130.2781560  24.6661830 123.3507830 130.6663270  24.1476940
 124.3213580 130.9731850  25.2682760 110.2380830 126.7474930  25.2295900
 110.2399270 127.2647320  24.4241800 109.4085140 126.2705110  25.2065830
 116.6251920 136.8594240  16.7285800 116.0069190 137.3243690  16.1648520
 117.1375170 137.5521720  17.1455310 111.4883680 136.3870110  23.4069400
 111.1553060 137.0139030  24.0490470 111.6650360 136.9131990  22.6271070
 120.0017590 130.2015190  20.8745740 119.2973160 130.4900080  21.4548850
 120.3629750 131.0115300  20.5145300 109.9196160 128.4584890  23.2366350
 110.2612970 129.3026940  22.9420220 108.9811970 128.6068630  23.3531690
 110.7002780 138.3550910  25.2218580 111.3176780 139.0301990  24.9403030
 109.8395900 138.7638890  25.1306080 105.9935120 137.5450770  14.1025430
 105.6163100 138.0337870  13.3710330 106.2508190 138.2176050  14.7331960
 121.6180370 139.8190320  23.1373220 120.9343890 140.4889430  23.1289890
 122.1574660 140.0170970  22.3718080 123.0704510 129.6469980  21.2654950
 122.1229420 129.6808960  21.3970380 123.3954500 130.4608930  21.6504310
 113.6024050 125.9467160  19.5610940 113.9099030 125.3914050  18.8446440
 112.6724750 126.0811620  19.3783930 119.1539110 141.6634450  21.8518400
 119.1666270 141.2596740  20.9840660 118.6014330 142.4381740  21.7479830
 120.4484530 138.3850670  16.9408570 120.3380860 137.4425000  17.0657990
 120.4452780 138.7466310  17.8271330 118.5524550 136.5664290  23.1801010
 118.9693340 136.3524400  22.3454470 119.2764370 136.8237080  23.7509630
 115.9904810 134.0115990  16.2971060 115.0634090 133.9453370  16.5259530
 116.1429630 134.9496120  16.1826300 115.9773890 130.2832990  13.2938220
 115.0377560 130.4446950  13.3790680 116.2957150 131.0018670  12.7474210
 122.4986650 134.9651510  23.2717250 121.6705280 135.0344600  22.7967380
 123.0937130 135.5505820  22.8033080 120.0202100 135.5736290  16.8006310
 119.4014520 135.2355840  16.1532610 120.0026550 134.9296050  17.5085500
 119.4628660 131.7520830  24.2172120 119.0499840 132.5774540  24.4712110
 118.7304610 131.1665870  24.0248480 111.5961450 134.5380730  19.0790790
 111.1918450 133.8257980  18.5836690 111.6824570 134.1933970  19.9678830
 112.0643150 138.2248290  21.2430000 111.7671440 137.6193760  20.5637780
 113.0142970 138.2625600  21.1319360 110.3090070 131.3123940  22.8589830
 110.8604660 131.4219280  22.0843080 110.8233580 131.6861540  23.5745060
 120.1528760 141.7980160  24.9053100 119.6759320 142.6052350  24.7125710
 119.4690550 141.1458490  25.0579310 111.1561580 137.9629980  27.8937800
 110.2590110 138.1869950  28.1411200 111.1814450 138.0864920  26.9449200
 118.1966800 134.8123100  13.8079060 118.6360080 133.9745530  13.6616880
 118.9095220 135.4452500  13.8943200 109.9832800 134.8343300  26.4695170
 109.8440570 135.7066100  26.8382570 109.1014160 134.4916110  26.3243110
 116.3062180 139.7519170  17.7760300 116.7458090 140.4943500  17.3615690
 116.2449070 139.9945740  18.6999260 111.7813150 140.7765000  28.6780320
 111.7528580 141.1807950  27.8108750 111.6178120 139.8475360  28.5151920
 121.7783940 126.0665910  12.1220100 121.4656600 126.1592740  13.0219170
 122.5396410 126.6446940  12.0717530 108.2966080 133.4325710  16.5797440
 108.1763680 134.1587800  15.9678710 107.9866970 132.6628620  16.1025350
 123.7327970 141.5592100  29.9744490 124.2087690 142.0374990  30.6533570
 124.3535130 141.4909590  29.2489990 105.9351450 136.6040850  22.3866080
 106.0131870 136.7389620  21.4421800 106.5493130 135.8956740  22.5794200
 107.1799080 138.3041040  18.7972260 106.7727160 138.4455630  17.9425860
 108.0712090 138.0201200  18.5943470 123.1361220 138.7504950  27.1344500
 123.2624280 138.5116830  26.2161680 123.1782600 137.9189490  27.6066580
 116.9977960 142.4532950  25.7039310 117.5122630 142.3640960  26.5061740
 116.1547040 142.7992650  25.9967220 118.9732360 142.7388290  15.1323310
 118.8133500 142.4491230  16.0305140 118.8079070 141.9628420  14.5968540
 111.4520740 142.5186820  16.9094930 111.2763220 141.6022360  16.6962730
 110.5976480 142.8774110  17.1492730 118.6758490 140.2475850  13.6921310
 117.9823650 140.2453140  13.0323590 119.4181350 139.8235170  13.2615480
 118.2408420 141.8738560  17.7669800 118.6965370 141.0927940  18.0808420
 118.5800940 142.5845380  18.3110980 122.9885230 130.8037410  28.0994240
 122.3729500 131.3117080  27.5709700 122.6681650 129.9035740  28.0420180
 105.9910970 137.6455020  24.9260540 106.1542010 137.1760380  24.1079910
 106.4563420 137.1378580  25.5909380 110.7629740 126.7760780  19.9621110
 110.3197890 127.5570320  19.6305630 111.3214730 127.0990670  20.6692050
 115.0499550 129.6429300  25.5656430 114.5878920 129.8512320  26.3776370
 114.6477660 128.8288650  25.2627100 120.0504060 130.8638250  26.6953090
 119.1997650 130.5644000  27.0162160 119.8905850 131.1080260  25.7836910
 117.1453770 132.3640000  28.7951880 117.4707180 131.5303750  28.4554110
 117.9334100 132.8868520  28.9430210 113.8788560 126.3971480  14.8426940
 113.2542740 126.3931350  15.5680250 113.7918680 125.5302440  14.4462910
 112.8005640 127.3208110  21.8210710 113.0977970 128.2270940  21.7402730
 113.3491200 126.8326890  21.2070280 110.5543960 131.8994350  17.6902360
 110.3284880 131.6831520  18.5948980 109.7736490 132.3322810  17.3448330
 117.7841720 131.9057720  16.2893010 117.1850610 132.6293520  16.1056630
 118.3321330 131.8434500  15.5069460 112.9943170 132.7979930  28.3562630
 112.8986770 131.8574660  28.2063030 113.8375150 133.0195000  27.9610700
 116.3906590 130.5421260  18.3196290 116.7836160 130.8593460  17.5064980
 116.7523440 129.6633140  18.4340810 108.1253710 129.2093600  26.5096410
 107.7317100 130.0568810  26.7169190 107.4372110 128.5719970  26.7005050
 114.6998760 129.2928570  29.5793150 114.0097080 129.1000770  30.2139240
 115.4431060 129.5763210  30.1117450 105.4270760 127.1322060  20.5426490
 105.1383810 127.7024920  21.2551470 106.1716520 126.6526510  20.9057720
 105.6140990 131.0742180  11.7529210 105.5315660 132.0172940  11.8944200
 105.2624050 130.9317090  10.8741560 116.9761730 133.1327010  22.4147070
 116.2442850 133.6413820  22.7637170 116.5786070 132.3156990  22.1135850
 113.4139120 129.8081210  20.8199560 113.4175180 129.3671160  19.9704100
 114.3090240 130.1298540  20.9271380 109.2641500 129.6907700  19.7793770
 108.9241550 130.1682930  20.5360820 108.5018820 129.2372820  19.4194870
 113.4759270 130.8093290  13.8106320 113.5972090 130.7679770  14.7592140
 113.0907780 131.6717440  13.6553050 117.4387640 128.5860690  21.8270010
 117.4560380 129.0369340  22.6711860 117.1903220 127.6866330  22.0403450
 112.4880770 133.1194430  13.2089620 111.9197670 132.6712680  12.5825530
 113.1969770 133.4787210  12.6754770 120.8658390 125.9992870  27.6656390
 121.1904160 125.2682530  28.1914370 120.9014900 125.6806510  26.7637380
 107.5649950 137.0206450  27.0856350 107.1804740 136.3800120  27.6839310
 107.8762140 137.7242570  27.6551080 113.7147090 133.8682990  22.5664970
 114.0817220 133.3941560  23.3126310 113.5252150 134.7424560  22.9073310
 106.5787580 128.6126680  18.6958440 106.2934500 128.2482350  19.5337060
 106.5166440 127.8807140  18.0821580 111.5046460 132.9091630  24.8849180
 111.2003530 133.7883610  25.1099540 112.4592920 132.9691420  24.9206620
 110.0328250 137.1152620  15.4816030 109.2590510 136.5750240  15.3214750
 110.7622880 136.5959230  15.1433790 120.7916230 136.1117980  21.2742420
 121.5115350 136.6073270  20.8838530 120.5898050 135.4335870  20.6296290
 116.2526170 127.5055940  15.4171810 115.4390780 127.0069110  15.3417120
 116.0588120 128.3454190  15.0008160 116.1735030 136.1827040  27.1611420
 116.1072340 135.2622710  26.9069010 115.5440170 136.2802480  27.8756060
 118.9674560 131.8775590  13.7133970 119.8554180 132.1892820  13.5385310
 118.9379650 131.0047840  13.3214550 110.0765650 136.7833000  19.1194840
 110.5944320 135.9801260  19.0651730 109.6249670 136.7212140  19.9611670
 114.9635150 138.0499280  14.3922140 115.3050850 138.7941510  13.8965460
 114.1347860 138.3630400  14.7546970 107.5610190 133.7494370  26.0320540
 107.2025130 134.4148220  26.6193880 107.2664750 132.9177920  26.4033160
 110.7623310 134.2078610  28.9160090 110.4623450 134.3535790  28.0187910
 111.5334550 133.6483900  28.8233480 116.1051760 139.0047610  26.9115220
 116.1196300 138.0728570  26.6934130 115.3976860 139.0907370  27.5504990
 121.2388830 133.1887430  13.1813830 121.1552550 133.6201650  12.3310270
 121.9583020 133.6485780  13.6140650 122.3162970 135.6454950  26.2583800
 121.5911160 136.2383730  26.0613190 122.8438430 135.6378490  25.4597170
 122.2676080 140.0429690  15.9095960 121.6252240 139.3885310  16.1839680
 121.8806740 140.4484780  15.1336630 117.8462560 137.3715120  19.7567650
 118.1986380 136.7743250  19.0969020 116.9624890 137.0459350  19.9275900
 113.9325840 138.1312810  17.1638060 114.6196970 138.6782020  17.5445650
 113.1458260 138.6753540  17.1987670 106.0718240 133.7485630  12.6555140
 106.9413090 134.0310430  12.9391060 105.5808560 134.5621500  12.5403950
 113.2353050 135.1358840  16.7763420 113.6915830 135.9464090  17.0023610
 112.8841260 134.8181980  17.6081910 115.5385660 140.6465180  24.0055720
 116.1827880 140.8524560  24.6829140 115.9015100 139.8853580  23.5526570
 109.1364830 125.4796490  17.2485940 109.0079460 125.4714390  18.1970860
 108.3126850 125.8179580  16.8976950 116.8117740 138.6497530  22.7233170
 117.4539970 137.9490690  22.8365340 117.3367090 139.4295970  22.5430060
 120.6573460 138.9346150  12.4472310 120.4311040 138.2176590  13.0396950
 120.2669660 138.6858590  11.6094060 118.5855360 139.4492430  25.9269230
 118.9211600 140.0359120  26.6047150 117.6655700 139.3185140  26.1567020
 106.4389490 142.9613010  13.2216770 106.7987130 143.5602350  12.5674040
 106.2981830 143.5072900  13.9951800 106.1358760 127.2387610  26.7092640
 105.4217280 127.4384530  27.3145250 106.5553800 126.4627180  27.0807440
 120.2389710 136.8518090  14.1086470 119.9511410 137.3130780  14.8964350
 121.0341880 136.3915860  14.3770690 106.4231350 141.2267870  27.6959170
 106.5322470 140.2862610  27.5554560 105.7711910 141.4922620  27.0472900
 114.4143940 139.4983760  29.0957290 114.0940810 138.7793000  29.6402980
 113.7402300 140.1738830  29.1693350 112.4558110 140.3444210  14.0390440
 112.4468210 141.0773900  13.4234950 111.5356470 140.0975790  14.1317400
 108.0564750 135.5659100  14.7837200 107.4492700 136.3058000  14.7932500
 108.5314100 135.6558460  13.9575400 117.6297540 129.7309920  24.4594090
 117.9978360 128.9105130  24.7873660 116.7695740 129.7911810  24.8749740
 120.9959570 128.6866860  15.2681650 120.3672730 128.7912530  14.5539880
 120.5011490 128.9063640  16.0575530 115.4417710 140.4072450  12.7015630
 115.5429690 140.2036440  11.7717610 114.5419450 140.1530730  12.9063410
 112.9643600 130.9652810  16.6839530 112.2559750 131.4339150  17.1253140
 113.2488080 130.3074820  17.3184720 114.5899530 132.3849510  24.6832060
 115.0884780 132.8595330  25.3483910 114.7322480 131.4613030  24.8902090
 116.9959030 127.6903470  18.1235320 116.8726810 127.7089600  17.1744830
 117.9443590 127.7382410  18.2433720 114.0835820 142.9258770  17.3963300
 114.3377320 142.8880160  16.4742670 113.1348300 142.7992100  17.3891550
 111.1678620 129.2737890  14.0590240 112.0169150 129.7108040  13.9930430
 110.8009890 129.5858150  14.8862300 121.7966390 128.6017470  25.5260450
 121.2939990 129.3422870  25.8654260 122.6123050 128.9901470  25.2097240
 120.0888400 133.8450650  18.9721810 119.1478540 133.8600880  19.1469500
 120.4032470 133.0586610  19.4182110 110.0670040 135.5270250  12.5325770
 110.8333310 135.4151610  13.0951200 110.1444730 134.8308220  11.8802540
 108.7616800 132.9595320  13.2158660 108.8420390 132.0122830  13.3276060
 109.6536550 133.2902200  13.3219320 122.0913980 141.0159500  20.6476070
 122.2161400 141.8390670  21.1199880 122.9579540 140.8050230  20.3000220
 109.5631510 143.1090710  20.3193200 110.2993990 142.5606170  20.5901770
 109.9472430 143.9746720  20.1799190 106.4476990 139.1764280  16.1934710
 105.5216770 139.4185420  16.1840120 106.9133420 140.0038540  16.0719460
 108.5689790 142.2936780  29.5078780 109.3702520 142.6148830  29.9214180
 108.0541610 141.9332360  30.2298690 112.6733820 142.2821020  12.1418770
 113.4662430 142.5709850  11.6900560 112.1538170 141.8513190  11.4631250
 117.4054420 138.4016650  29.4554190 116.7992580 138.4248250  28.7149940
 117.1008530 137.6699690  29.9921440 118.8354790 142.1296940  28.0663600
 119.7876540 142.0454960  28.0163840 118.6883010 142.7938650  28.7397390
 121.7263990 141.5091150  13.5655510 121.4405500 141.0956290  12.7509690
 121.5283540 142.4378860  13.4456030 106.2887600 134.7810240  28.4514830
 106.7926620 134.2017520  29.0231060 105.5495020 135.0650470  28.9891200
 113.1911220 137.5024430  12.0061120 113.0861860 136.8876780  12.7322500
 113.0235440 136.9790320  11.2224130 113.3425540 136.1881230  27.9850350
 112.5771210 136.7566230  27.9005020 113.5241500 135.8957440  27.0918580
 116.4313950 136.5644460  12.6103110 115.8824050 137.0113760  13.2545850
 117.0533210 136.0593710  13.1340780 120.4848890 137.9186560  28.5425370
 121.2258360 138.2562320  28.0392830 119.7221570 138.0878620  27.9895140
 108.3210680 132.9239830  29.3464900 108.3616020 132.6253700  30.2550130
 109.1756180 133.3247440  29.1872420 112.0989070 135.5235380  14.5068410
 112.5205490 135.3575250  15.3499800 112.2239910 134.7135610  14.0123550
 110.2616490 131.5031930  27.3139390 109.7312950 131.0122880  26.6862730
 110.9304560 131.9316130  26.7797320 114.6116710 134.5472990  11.7545510
 115.1322370 133.8322010  11.3886660 115.2585110 135.1858860  12.0546020
 119.1594550 135.9701390  27.0780580 119.5735570 136.1246470  27.9271000
 118.2245550 136.0956610  27.2406360 119.6316720 133.3097550  29.0819730
 120.2137490 132.5549870  28.9940210 119.8078490 133.8404990  28.3051210
 110.7488790 128.4694300  27.3936680 110.6545660 127.8515050  26.6687550
 110.1686180 129.1960590  27.1666590 113.5150230 127.0267540  24.4264070
 113.0667530 127.0491800  23.5809620 112.8815430 126.6286560  25.0234370
 113.9209780 135.9221870  25.0476510 114.3397890 136.7654600  24.8752750
 113.0018410 136.0593910  24.8183290 116.2573680 133.6538050  26.4314350
 116.3769890 133.0579190  27.1709190 117.1167680 133.6907740  26.0115650
 118.5961580 134.2075240  25.0076860 118.0696800 134.7317860  24.4042000
 118.9392920 134.8402630  25.6386590 110.9947970 131.5968610  11.4526570
 110.7937030 130.7335970  11.8139910 110.8240020 131.5101970  10.5148170
 111.7717200 142.2274880  26.1634240 111.2338290 142.9520940  25.8442940
 112.0251160 141.7505220  25.3731580 113.0242450 130.1959400  27.6890170
 113.6142140 129.8875250  28.3767990 112.2062690 129.7239150  27.8450070
 117.8435880 129.8125210  27.9223190 117.1551400 129.1506750  27.8573180
 118.5641900 129.3663480  28.3671650 118.4736280 126.4076840  13.9813450
 118.7538570 125.5644740  14.3372870 117.7002010 126.6399950  14.4952200
 109.7930770 128.6969230  11.4404450 110.0956670 128.7036660  10.5323600
 110.5325360 128.3467090  11.9372110 114.6279410 143.4626090  26.4220890
 114.5538110 144.3661230  26.7293260 113.7258250 143.1437990  26.3942960
 113.0115700 127.6403850  12.4260650 112.6637700 126.9627840  11.8463100
 113.2128470 127.1793360  13.2404040 115.1764740 142.6284600  14.0447250
 116.0715530 142.9669570  14.0666010 115.2082370 141.9064010  13.4171530
 108.8160900 138.0011650  12.2734250 109.2535770 138.5441320  12.9291830
 109.3008630 137.1758600  12.2830590 106.0306700 140.7900680  19.7254510
 106.3609710 139.9221740  19.4933150 106.4597700 140.9959200  20.5559470
 110.6268620 139.1209690  17.3856480 110.3264160 138.9974660  18.2860390
 110.5206110 138.2618280  16.9772210 106.5196910 141.6571270  22.4636140
 106.0827900 141.8372070  23.2960290 107.0874590 142.4145890  22.3217860
 122.1559090 141.1588270  26.7513450 121.5561080 141.2180830  26.0077370
 122.2852990 140.2193250  26.8810300 123.3960540 138.9006090  12.0883160
 122.5653500 138.9682740  12.5590390 123.5732370 139.7910210  11.7850020
 122.8517000 135.6453570  14.5917360 123.6135910 136.2150220  14.6977050
 122.8671370 135.0780770  15.3625670 106.3521340 134.1691500  18.8225020
 105.6970180 133.9003140  18.1784720 107.1899290 134.0595980  18.3727000
 123.8576970 136.5003670  19.4359290 124.2285800 135.7170990  19.0295260
 124.4978900 137.1892770  19.2576590 120.8410730 137.8840250  24.8489610
 120.0270570 138.3137410  25.1115400 121.2484930 138.4958660  24.2358660
 122.9036170 135.9387940  11.7489880 123.1785010 136.8466820  11.6209100
 122.7146910 135.8750470  12.6851870 119.3011780 128.9632790  13.0443510
 119.7196660 128.7763770  12.2040170 118.9947840 128.1111840  13.3546440
 122.8001510 133.8756930  16.7419310 122.4245110 133.1084860  16.3100600
 122.0704630 134.2579630  17.2294240 107.3897270 134.5544070  23.3628360
 107.7570310 134.4671470  24.2424380 106.8208090 133.7910620  23.2635220
 122.1901130 133.0228450  26.3758830 121.9587220 132.7941200  25.4756780
 122.4505680 133.9428000  26.3303720 106.9413270 131.4653160  27.2686780
 106.0469320 131.4319920  27.6080490 107.4810820 131.6639950  28.0338030
 120.6289200 128.2484880  29.1538530 121.5059380 128.2568280  29.5372530
 120.6410040 127.5115720  28.5430880 105.5659420 131.3790430  14.7650350
 104.6623500 131.6420630  14.5902010 106.0500040 131.6501600  13.9850310
 122.0752470 132.1014420  20.0426550 122.5989950 131.6077070  19.4116720
 122.6611890 132.2364780  20.7874120 122.2542190 132.1854290  23.5646100
 121.3044900 132.1517830  23.6791090 122.4355200 133.0954400  23.3295870
 108.1086630 130.4355970  12.6744730 108.8178330 130.0139190  12.1892010
 107.3926570 130.5031200  12.0428080 107.7560790 126.4895300  11.7147380
 108.4788920 127.0304240  12.0328600 108.0285310 126.2158720  10.8388920
 121.5652440 131.3587770  15.9818960 122.0611560 131.1258640  16.7667840
 121.3668510 130.5199610  15.5656600 107.4452980 125.7401490  21.6170000
 108.0929170 125.1898870  21.1765160 107.8654820 125.9944640  22.4385810
 122.9939600 129.9948720  18.5156640 122.8838880 129.8404760  19.4538910
 123.7547190 129.4669660  18.2732050 121.3405320 125.9342850  24.9739640
 121.9777540 126.5476990  25.3398830 121.4880210 125.9703510  24.0288870
 123.8829870 127.8256640  11.7562780 124.8079180 127.6937820  11.5481070
 123.8605660 127.9049460  12.7099230 123.9568360 128.5967300  14.3819490
 123.1619860 128.5312420  14.9112400 124.1611640 129.5317940  14.3704840
 120.8986780 142.6358850  18.3757880 121.4945850 142.3143420  17.6992300
 121.1564930 142.1630670  19.1671150 107.1984980 125.8957160  24.3595320
 106.8499800 126.3520980  25.1253500 106.8672680 125.0014290  24.4417750
 108.8049350 139.0676760  28.5248510 108.7618980 138.6969670  29.4062970
 108.9360360 140.0054330  28.6650330 112.5055380 140.6236350  24.1258230
 112.2646740 140.8910910  23.2388750 113.4458020 140.7942080  24.1809090
 114.7109800 127.0869040  27.8814740 114.6498690 127.6790870  28.6310150
 115.6510180 126.9795000  27.7365000 117.3484360 126.7439100  27.5207030
 117.9624770 127.0618390  26.8588110 117.8933920 126.2587690  28.1402890
 123.7659540 142.6430730  24.9268870 123.2717820 143.0399600  24.2096000
 123.1572830 142.0179940  25.3206150 107.8705620 125.4233360  27.6346090
 108.4188610 125.2421410  26.8712200 107.9360930 124.6327470  28.1702400
 108.6437380 142.0139010  25.6446290 108.0497700 141.8823710  26.3836330
 108.6361220 141.1777150  25.1788390 118.0892400 125.3071240  23.8476320
 117.2152240 125.6406350  23.6449250 117.9803150 124.8344420  24.6728190
 118.9964380 127.5142110  25.2318040 118.6677740 126.6993870  24.8519770
 119.9446680 127.4711920  25.1083730 121.4498990 143.2854150  22.2055610
 120.9901960 144.0369960  21.8313630 120.8211450 142.5660620  22.1470410
 108.2749610 139.3797390  24.5954330 107.5483670 138.7602680  24.5280280
 108.3358760 139.7738000  23.7252410 111.8794710 141.5942390  21.3803740
 112.3959730 140.9829750  20.8552000 112.5292090 142.0971170  21.8714750
 114.6190210 142.4850880  22.2072720 114.9068020 142.2305180  21.3305730
 115.1313430 141.9328240  22.7978290 115.8367220 126.2241080  22.7869230
 115.0539010 126.6986580  23.0665990 115.5430150 125.3195910  22.6782410
 120.3888290 126.9264180  20.8318320 120.8296380 126.8709280  19.9839920
 120.1195880 127.8422190  20.9028500 122.2526860 126.5579420  18.8427140
 122.1915260 125.6140640  18.6958160 123.0318890 126.6659510  19.3880600
 106.5579610 142.6971780  17.8051090 106.3901650 142.0642460  18.5032980
 105.6914120 142.9031180  17.4545280 107.1807630 126.5288560  15.3082950
 107.9386990 126.6417440  14.7346980 106.7184800 127.3657760  15.2626380
 113.7221440 128.6427830  18.2985260 112.9095950 128.2684720  17.9581140
 114.2263080 127.8872910  18.6006450 118.2246420 125.3070280  19.5368330
 118.8275790 125.8790490  20.0116850 117.4839410 125.8709720  19.3142230
 121.3681020 125.7091840  14.8108610 121.5631650 126.6075290  15.0776040
 120.5810890 125.4778920  15.3041560 108.1642310 141.3905010  15.2501230
 107.6389930 141.7713040  14.5463190 108.0886890 142.0155780  15.9710940
 109.5532780 127.0552610  13.8484920 110.0825540 126.2682410  13.7192870
 110.1861100 127.7343800  14.0820450 111.7470620 126.7927750  16.9030310
 111.1173360 126.0915060  17.0700440 111.2075760 127.5531880  16.6863470
 114.6862570 143.4066980  29.5740920 115.6129880 143.1711250  29.6176880
 114.6713000 144.2338980  29.0926950 122.9207630 142.9492550  16.5715170
 123.0959820 142.2630290  15.9276090 122.2229200 143.4739600  16.1791840
 111.8726180 126.0711730  29.3382800 111.5910450 126.5745330  28.5743620
 112.2545880 125.2733480  28.9724930 110.7635280 143.3387390  14.1250480
 111.4954100 143.0546670  13.5774370 111.0228950 143.1000670  15.0149860
 109.9250070 139.4552120  14.1296810 109.2958950 139.9237220  14.6782640
 110.0397900 138.6101340  14.5643000 118.4741640 125.4865310  29.9163270
 118.3607090 125.8059920  30.8114790 119.2911380 125.8877820  29.6200550
 121.2540130 142.6336840  29.3981960 122.0465450 142.1386070  29.1907920
 121.5473280 143.3126980  30.0057570 115.5117830 135.2836800   2.1607280
 114.7359930 134.8037240   2.4505850 116.1630760 134.6042450   1.9863440
 109.5283660 135.5956610   3.0383040 108.6968540 135.3405320   3.4379550
 110.1364640 135.6667380   3.7740960 109.5084920 139.6296700   3.2341060
 109.8112960 138.7394440   3.0551280 110.2528510 140.1866920   3.0063310
 105.9008620 133.1564150   2.7065130 106.4724730 132.3886350   2.7068770
 105.9010160 133.4552910   1.7971740 114.9526820 137.9593990   2.1677440
 114.8835100 137.0183930   2.0066570 115.7146680 138.0495400   2.7400010
 107.1433490 128.5648510   4.4934060 106.9636330 127.6674260   4.7736820
 106.7413570 129.1120380   5.1681010 107.7620160 131.0609010   3.1016400
 108.4430270 131.3247380   3.7203800 107.4468210 130.2209880   3.4354410
 111.9544730 132.1076370   2.1888990 112.4622950 132.6057340   2.8294010
 112.4857970 131.3311570   2.0128350 124.0555660 130.2781560   5.8918340
 123.3507830 130.6663270   5.3733450 124.3213580 130.9731850   6.4939270
 110.2380830 126.7474930   6.4552410 110.2399270 127.2647320   5.6498310
 109.4085140 126.2705110   6.4322340 111.4883680 136.3870110   4.6325910
 111.1553060 137.0139030   5.2746980 111.6650360 136.9131990   3.8527580
 120.0017590 130.2015190   2.1002250 119.2973160 130.4900080   2.6805360
 120.3629750 131.0115300   1.7401810 109.9196160 128.4584890   4.4622860
 110.2612970 129.3026940   4.1676730 108.9811970 128.6068630   4.5788200
 110.7002780 138.3550910   6.4475090 111.3176780 139.0301990   6.1659540
 109.8395900 138.7638890   6.3562590 121.6180370 139.8190320   4.3629730
 120.9343890 140.4889430   4.3546400 122.1574660 140.0170970   3.5974590
 123.0704510 129.6469980   2.4911460 122.1229420 129.6808960   2.6226890
 123.3954500 130.4608930   2.8760820 119.1539110 141.6634450   3.0774910
 119.1666270 141.2596740   2.2097170 118.6014330 142.4381740   2.9736340
 118.5524550 136.5664290   4.4057520 118.9693340 136.3524400   3.5710980
 119.2764370 136.8237080   4.9766140 122.4986650 134.9651510   4.4973760
 121.6705280 135.0344600   4.0223890 123.0937130 135.5505820   4.0289590
 119.4628660 131.7520830   5.4428630 119.0499840 132.5774540   5.6968620
 118.7304610 131.1665870   5.2504990 112.0643150 138.2248290   2.4686510
 111.7671440 137.6193760   1.7894290 113.0142970 138.2625600   2.3575870
 110.3090070 131.3123940   4.0846340 110.8604660 131.4219280   3.3099590
 110.8233580 131.6861540   4.8001570 120.1528760 141.7980160   6.1309610
 119.6759320 142.6052350   5.9382220 119.4690550 141.1458490   6.2835820
 111.1561580 137.9629980   9.1194310 110.2590110 138.1869950   9.3667710
 111.1814450 138.0864920   8.1705710 109.9832800 134.8343300   7.6951680
 109.8440570 135.7066100   8.0639080 109.1014160 134.4916110   7.5499620
 111.7813150 140.7765000   9.9036830 111.7528580 141.1807950   9.0365260
 111.6178120 139.8475360   9.7408430 123.7327970 141.5592100  11.2001000
 124.2087690 142.0374990  11.8790080 124.3535130 141.4909590  10.4746500
 105.9351450 136.6040850   3.6122590 106.0131870 136.7389620   2.6678310
 106.5493130 135.8956740   3.8050710 123.1361220 138.7504950   8.3601010
 123.2624280 138.5116830   7.4418190 123.1782600 137.9189490   8.8323090
 116.9977960 142.4532950   6.9295820 117.5122630 142.3640960   7.7318250
 116.1547040 142.7992650   7.2223730 122.9885230 130.8037410   9.3250750
 122.3729500 131.3117080   8.7966210 122.6681650 129.9035740   9.2676690
 105.9910970 137.6455020   6.1517050 106.1542010 137.1760380   5.3336420
 106.4563420 137.1378580   6.8165890 115.0499550 129.6429300   6.7912940
 114.5878920 129.8512320   7.6032880 114.6477660 128.8288650   6.4883610
 120.0504060 130.8638250   7.9209600 119.1997650 130.5644000   8.2418670
 119.8905850 131.1080260   7.0093420 117.1453770 132.3640000  10.0208390
 117.4707180 131.5303750   9.6810620 117.9334100 132.8868520  10.1686720
 112.8005640 127.3208110   3.0467220 113.0977970 128.2270940   2.9659240
 113.3491200 126.8326890   2.4326790 112.9943170 132.7979930   9.5819140
 112.8986770 131.8574660   9.4319540 113.8375150 133.0195000   9.1867210
 108.1253710 129.2093600   7.7352920 107.7317100 130.0568810   7.9425700
 107.4372110 128.5719970   7.9261560 114.6998760 129.2928570  10.8049660
 114.0097080 129.1000770  11.4395750 115.4431060 129.5763210  11.3373960
 105.4270760 127.1322060   1.7683000 105.1383810 127.7024920   2.4807980
 106.1716520 126.6526510   2.1314230 116.9761730 133.1327010   3.6403580
 116.2442850 133.6413820   3.9893680 116.5786070 132.3156990   3.3392360
 117.4387640 128.5860690   3.0526520 117.4560380 129.0369340   3.8968370
 117.1903220 127.6866330   3.2659960 120.8658390 125.9992870   8.8912900
 121.1904160 125.2682530   9.4170880 120.9014900 125.6806510   7.9893890
 107.5649950 137.0206450   8.3112860 107.1804740 136.3800120   8.9095820
 107.8762140 137.7242570   8.8807590 113.7147090 133.8682990   3.7921480
 114.0817220 133.3941560   4.5382820 113.5252150 134.7424560   4.1329820
 111.5046460 132.9091630   6.1105690 111.2003530 133.7883610   6.3356050
 112.4592920 132.9691420   6.1463130 120.7916230 136.1117980   2.4998930
 121.5115350 136.6073270   2.1095040 120.5898050 135.4335870   1.8552800
 116.1735030 136.1827040   8.3867930 116.1072340 135.2622710   8.1325520
 115.5440170 136.2802480   9.1012570 107.5610190 133.7494370   7.2577050
 107.2025130 134.4148220   7.8450390 107.2664750 132.9177920   7.6289670
 110.7623310 134.2078610  10.1416600 110.4623450 134.3535790   9.2444420
 111.5334550 133.6483900  10.0489990 116.1051760 139.0047610   8.1371730
 116.1196300 138.0728570   7.9190640 115.3976860 139.0907370   8.7761500
 122.3162970 135.6454950   7.4840310 121.5911160 136.2383730   7.2869700
 122.8438430 135.6378490   6.6853680 115.5385660 140.6465180   5.2312230
 116.1827880 140.8524560   5.9085650 115.9015100 139.8853580   4.7783080
 116.8117740 138.6497530   3.9489680 117.4539970 137.9490690   4.0621850
 117.3367090 139.4295970   3.7686570 118.5855360 139.4492430   7.1525740
 118.9211600 140.0359120   7.8303660 117.6655700 139.3185140   7.3823530
 106.1358760 127.2387610   7.9349150 105.4217280 127.4384530   8.5401760
 106.5553800 126.4627180   8.3063950 106.4231350 141.2267870   8.9215680
 106.5322470 140.2862610   8.7811070 105.7711910 141.4922620   8.2729410
 114.4143940 139.4983760  10.3213800 114.0940810 138.7793000  10.8659490
 113.7402300 140.1738830  10.3949860 117.6297540 129.7309920   5.6850600
 117.9978360 128.9105130   6.0130170 116.7695740 129.7911810   6.1006250
 114.5899530 132.3849510   5.9088570 115.0884780 132.8595330   6.5740420
 114.7322480 131.4613030   6.1158600 121.7966390 128.6017470   6.7516960
 121.2939990 129.3422870   7.0910770 122.6123050 128.9901470   6.4353750
 108.5689790 142.2936780  10.7335290 109.3702520 142.6148830  11.1470690
 108.0541610 141.9332360  11.4555200 117.4054420 138.4016650  10.6810700
 116.7992580 138.4248250   9.9406450 117.1008530 137.6699690  11.2177950
 118.8354790 142.1296940   9.2920110 119.7876540 142.0454960   9.2420350
 118.6883010 142.7938650   9.9653900 106.2887600 134.7810240   9.6771340
 106.7926620 134.2017520  10.2487570 105.5495020 135.0650470  10.2147710
 113.3425540 136.1881230   9.2106860 112.5771210 136.7566230   9.1261530
 113.5241500 135.8957440   8.3175090 120.4848890 137.9186560   9.7681880
 121.2258360 138.2562320   9.2649340 119.7221570 138.0878620   9.2151650
 108.3210680 132.9239830  10.5721410 108.3616020 132.6253700  11.4806640
 109.1756180 133.3247440  10.4128930 110.2616490 131.5031930   8.5395900
 109.7312950 131.0122880   7.9119240 110.9304560 131.9316130   8.0053830
 119.1594550 135.9701390   8.3037090 119.5735570 136.1246470   9.1527510
 118.2245550 136.0956610   8.4662870 119.6316720 133.3097550  10.3076240
 120.2137490 132.5549870  10.2196720 119.8078490 133.8404990   9.5307720
 110.7488790 128.4694300   8.6193190 110.6545660 127.8515050   7.8944060
 110.1686180 129.1960590   8.3923100 113.5150230 127.0267540   5.6520580
 113.0667530 127.0491800   4.8066130 112.8815430 126.6286560   6.2490880
 113.9209780 135.9221870   6.2733020 114.3397890 136.7654600   6.1009260
 113.0018410 136.0593910   6.0439800 116.2573680 133.6538050   7.6570860
 116.3769890 133.0579190   8.3965700 117.1167680 133.6907740   7.2372160
 118.5961580 134.2075240   6.2333370 118.0696800 134.7317860   5.6298510
 118.9392920 134.8402630   6.8643100 111.7717200 142.2274880   7.3890750
 111.2338290 142.9520940   7.0699450 112.0251160 141.7505220   6.5988090
 113.0242450 130.1959400   8.9146680 113.6142140 129.8875250   9.6024500
 112.2062690 129.7239150   9.0706580 117.8435880 129.8125210   9.1479700
 117.1551400 129.1506750   9.0829690 118.5641900 129.3663480   9.5928160
 114.6279410 143.4626090   7.6477400 114.5538110 144.3661230   7.9549770
 113.7258250 143.1437990   7.6199470 106.5196910 141.6571270   3.6892650
 106.0827900 141.8372070   4.5216800 107.0874590 142.4145890   3.5474370
 122.1559090 141.1588270   7.9769960 121.5561080 141.2180830   7.2333880
 122.2852990 140.2193250   8.1066810 120.8410730 137.8840250   6.0746120
 120.0270570 138.3137410   6.3371910 121.2484930 138.4958660   5.4615170
 107.3897270 134.5544070   4.5884870 107.7570310 134.4671470   5.4680890
 106.8208090 133.7910620   4.4891730 122.1901130 133.0228450   7.6015340
 121.9587220 132.7941200   6.7013290 122.4505680 133.9428000   7.5560230
 106.9413270 131.4653160   8.4943290 106.0469320 131.4319920   8.8337000
 107.4810820 131.6639950   9.2594540 120.6289200 128.2484880  10.3795040
 121.5059380 128.2568280  10.7629040 120.6410040 127.5115720   9.7687390
 122.2542190 132.1854290   4.7902610 121.3044900 132.1517830   4.9047600
 122.4355200 133.0954400   4.5552380 107.4452980 125.7401490   2.8426510
 108.0929170 125.1898870   2.4021670 107.8654820 125.9944640   3.6642320
 121.3405320 125.9342850   6.1996150 121.9777540 126.5476990   6.5655340
 121.4880210 125.9703510   5.2545380 107.1984980 125.8957160   5.5851830
 106.8499800 126.3520980   6.3510010 106.8672680 125.0014290   5.6674260
 108.8049350 139.0676760   9.7505020 108.7618980 138.6969670  10.6319480
 108.9360360 140.0054330   9.8906840 112.5055380 140.6236350   5.3514740
 112.2646740 140.8910910   4.4645260 113.4458020 140.7942080   5.4065600
 114.7109800 127.0869040   9.1071250 114.6498690 127.6790870   9.8566660
 115.6510180 126.9795000   8.9621510 117.3484360 126.7439100   8.7463540
 117.9624770 127.0618390   8.0844620 117.8933920 126.2587690   9.3659400
 123.7659540 142.6430730   6.1525380 123.2717820 143.0399600   5.4352510
 123.1572830 142.0179940   6.5462660 107.8705620 125.4233360   8.8602600
 108.4188610 125.2421410   8.0968710 107.9360930 124.6327470   9.3958910
 108.6437380 142.0139010   6.8702800 108.0497700 141.8823710   7.6092840
 108.6361220 141.1777150   6.4044900 118.0892400 125.3071240   5.0732830
 117.2152240 125.6406350   4.8705760 117.9803150 124.8344420   5.8984700
 118.9964380 127.5142110   6.4574550 118.6677740 126.6993870   6.0776280
 119.9446680 127.4711920   6.3340240 121.4498990 143.2854150   3.4312120
 120.9901960 144.0369960   3.0570140 120.8211450 142.5660620   3.3726920
 108.2749610 139.3797390   5.8210840 107.5483670 138.7602680   5.7536790
 108.3358760 139.7738000   4.9508920 111.8794710 141.5942390   2.6060250
 112.3959730 140.9829750   2.0808510 112.5292090 142.0971170   3.0971260
 114.6190210 142.4850880   3.4329230 114.9068020 142.2305180   2.5562240
 115.1313430 141.9328240   4.0234800 115.8367220 126.2241080   4.0125740
 115.0539010 126.6986580   4.2922500 115.5430150 125.3195910   3.9038920
 114.6862570 143.4066980  10.7997430 115.6129880 143.1711250  10.8433390
 114.6713000 144.2338980  10.3183460 111.8726180 126.0711730  10.5639310
 111.5910450 126.5745330   9.8000130 112.2545880 125.2733480  10.1981440
 118.4741640 125.4865310  11.1419780 118.3607090 125.8059920  12.0371300
 119.2911380 125.8877820  10.8457060 121.2540130 142.6336840  10.6238470
 122.0465450 142.1386070  10.4164430 121.5473280 143.3126980  11.2314080
 117.3799790 114.7314290 150.4745930 117.2993840 113.8168900 150.2037640
 116.9664210 115.2281360 149.7685640 119.5325260 120.9153500 151.1354330
 119.0706790 120.1440740 151.4641500 120.3450810 120.9419570 151.6406780
 107.9375610 111.7815010 147.0173350 107.0492310 112.1230980 146.9153230
 108.2216800 111.5815330 146.1254180 115.7588570 123.2011510 150.7558320
 115.1400010 123.6569010 150.1852760 116.6140350 123.3562970 150.3548020
 110.1137000 110.3646510 148.0511730 110.2203750 111.2650240 148.3580490
 109.2029360 110.3164480 147.7606380 119.7656110 109.4871320 149.5222630
 120.5865730 108.9967890 149.5648110 119.7990190 110.0768980 150.2754470
 116.6251920 118.0850750 148.1490230 116.0069190 118.5500200 147.5852950
 117.1375170 118.7778230 148.5659740 105.9935120 118.7707280 145.5229860
 105.6163100 119.2594380 144.7914760 106.2508190 119.4432560 146.1536390
 113.6024050 107.1723670 150.9815370 113.9099030 106.6170560 150.2650870
 112.6724750 107.3068130 150.7988360 120.4484530 119.6107180 148.3613000
 120.3380860 118.6681510 148.4862420 120.4452780 119.9722820 149.2475760
 115.9904810 115.2372500 147.7175490 115.0634090 115.1709880 147.9463960
 116.1429630 116.1752630 147.6030730 115.9773890 111.5089500 144.7142650
 115.0377560 111.6703460 144.7995110 116.2957150 112.2275180 144.1678640
 120.0202100 116.7992800 148.2210740 119.4014520 116.4612350 147.5737040
 120.0026550 116.1552560 148.9289930 111.5961450 115.7637240 150.4995220
 111.1918450 115.0514490 150.0041120 111.6824570 115.4190480 151.3883260
 118.1966800 116.0379610 145.2283490 118.6360080 115.2002040 145.0821310
 118.9095220 116.6709010 145.3147630 116.3062180 120.9775680 149.1964730
 116.7458090 121.7200010 148.7820120 116.2449070 121.2202250 150.1203690
 121.7783940 107.2922420 143.5424530 121.4656600 107.3849250 144.4423600
 122.5396410 107.8703450 143.4921960 108.2966080 114.6582220 148.0001870
 108.1763680 115.3844310 147.3883140 107.9866970 113.8885130 147.5229780
 107.1799080 119.5297550 150.2176690 106.7727160 119.6712140 149.3630290
 108.0712090 119.2457710 150.0147900 118.9732360 123.9644800 146.5527740
 118.8133500 123.6747740 147.4509570 118.8079070 123.1884930 146.0172970
 111.4520740 123.7443330 148.3299360 111.2763220 122.8278870 148.1167160
 110.5976480 124.1030620 148.5697160 118.6758490 121.4732360 145.1125740
 117.9823650 121.4709650 144.4528020 119.4181350 121.0491680 144.6819910
 118.2408420 123.0995070 149.1874230 118.6965370 122.3184450 149.5012850
 118.5800940 123.8101890 149.7315410 110.7629740 108.0017290 151.3825540
 110.3197890 108.7826830 151.0510060 111.3214730 108.3247180 152.0896480
 113.8788560 107.6227990 146.2631370 113.2542740 107.6187860 146.9884680
 113.7918680 106.7558950 145.8667340 110.5543960 113.1250860 149.1106790
 110.3284880 112.9088030 150.0153410 109.7736490 113.5579320 148.7652760
 117.7841720 113.1314230 147.7097440 117.1850610 113.8550030 147.5261060
 118.3321330 113.0691010 146.9273890 116.3906590 111.7677770 149.7400720
 116.7836160 112.0849970 148.9269410 116.7523440 110.8889650 149.8545240
 105.6140990 112.2998690 143.1733640 105.5315660 113.2429450 143.3148630
 105.2624050 112.1573600 142.2945990 113.4139120 111.0337720 152.2403990
 113.4175180 110.5927670 151.3908530 114.3090240 111.3555050 152.3475810
 109.2641500 110.9164210 151.1998200 108.9241550 111.3939440 151.9565250
 108.5018820 110.4629330 150.8399300 113.4759270 112.0349800 145.2310750
 113.5972090 111.9936280 146.1796570 113.0907780 112.8973950 145.0757480
 112.4880770 114.3450940 144.6294050 111.9197670 113.8969190 144.0029960
 113.1969770 114.7043720 144.0959200 106.5787580 109.8383190 150.1162870
 106.2934500 109.4738860 150.9541490 106.5166440 109.1063650 149.5026010
 110.0328250 118.3409130 146.9020460 109.2590510 117.8006750 146.7419180
 110.7622880 117.8215740 146.5638220 116.2526170 108.7312450 146.8376240
 115.4390780 108.2325620 146.7621550 116.0588120 109.5710700 146.4212590
 118.9674560 113.1032100 145.1338400 119.8554180 113.4149330 144.9589740
 118.9379650 112.2304350 144.7418980 110.0765650 118.0089510 150.5399270
 110.5944320 117.2057770 150.4856160 109.6249670 117.9468650 151.3816100
 114.9635150 119.2755790 145.8126570 115.3050850 120.0198020 145.3169890
 114.1347860 119.5886910 146.1751400 121.2388830 114.4143940 144.6018260
 121.1552550 114.8458160 143.7514700 121.9583020 114.8742290 145.0345080
 122.2676080 121.2686200 147.3300390 121.6252240 120.6141820 147.6044110
 121.8806740 121.6741290 146.5541060 117.8462560 118.5971630 151.1772080
 118.1986380 117.9999760 150.5173450 116.9624890 118.2715860 151.3480330
 113.9325840 119.3569320 148.5842490 114.6196970 119.9038530 148.9650080
 113.1458260 119.9010050 148.6192100 106.0718240 114.9742140 144.0759570
 106.9413090 115.2566940 144.3595490 105.5808560 115.7878010 143.9608380
 113.2353050 116.3615350 148.1967850 113.6915830 117.1720600 148.4228040
 112.8841260 116.0438490 149.0286340 109.1364830 106.7053000 148.6690370
 109.0079460 106.6970900 149.6175290 108.3126850 107.0436090 148.3181380
 120.6573460 120.1602660 143.8676740 120.4311040 119.4433100 144.4601380
 120.2669660 119.9115100 143.0298490 106.4389490 124.1869520 144.6421200
 106.7987130 124.7858860 143.9878470 106.2981830 124.7329410 145.4156230
 120.2389710 118.0774600 145.5290900 119.9511410 118.5387290 146.3168780
 121.0341880 117.6172370 145.7975120 112.4558110 121.5700720 145.4594870
 112.4468210 122.3030410 144.8439380 111.5356470 121.3232300 145.5521830
 108.0564750 116.7915610 146.2041630 107.4492700 117.5314510 146.2136930
 108.5314100 116.8814970 145.3779830 120.9959570 109.9123370 146.6886080
 120.3672730 110.0169040 145.9744310 120.5011490 110.1320150 147.4779960
 115.4417710 121.6328960 144.1220060 115.5429690 121.4292950 143.1922040
 114.5419450 121.3787240 144.3267840 112.9643600 112.1909320 148.1043960
 112.2559750 112.6595660 148.5457570 113.2488080 111.5331330 148.7389150
 116.9959030 108.9159980 149.5439750 116.8726810 108.9346110 148.5949260
 117.9443590 108.9638920 149.6638150 114.0835820 124.1515280 148.8167730
 114.3377320 124.1136670 147.8947100 113.1348300 124.0248610 148.8095980
 111.1678620 110.4994400 145.4794670 112.0169150 110.9364550 145.4134860
 110.8009890 110.8114660 146.3066730 120.0888400 115.0707160 150.3926240
 119.1478540 115.0857390 150.5673930 120.4032470 114.2843120 150.8386540
 110.0670040 116.7526760 143.9530200 110.8333310 116.6408120 144.5155630
 110.1444730 116.0564730 143.3006970 108.7616800 114.1851830 144.6363090
 108.8420390 113.2379340 144.7480490 109.6536550 114.5158710 144.7423750
 109.5631510 124.3347220 151.7397630 110.2993990 123.7862680 152.0106200
 109.9472430 125.2003230 151.6003620 106.4476990 120.4020790 147.6139140
 105.5216770 120.6441930 147.6044550 106.9133420 121.2295050 147.4923890
 112.6733820 123.5077530 143.5623200 113.4662430 123.7966360 143.1104990
 112.1538170 123.0769700 142.8835680 121.7263990 122.7347660 144.9859940
 121.4405500 122.3212800 144.1714120 121.5283540 123.6635370 144.8660460
 113.1911220 118.7280940 143.4265550 113.0861860 118.1133290 144.1526930
 113.0235440 118.2046830 142.6428560 116.4313950 117.7900970 144.0307540
 115.8824050 118.2370270 144.6750280 117.0533210 117.2850220 144.5545210
 112.0989070 116.7491890 145.9272840 112.5205490 116.5831760 146.7704230
 112.2239910 115.9392120 145.4327980 114.6116710 115.7729500 143.1749940
 115.1322370 115.0578520 142.8091090 115.2585110 116.4115370 143.4750450
 110.9947970 112.8225120 142.8731000 110.7937030 111.9592480 143.2344340
 110.8240020 112.7358480 141.9352600 118.4736280 107.6333350 145.4017880
 118.7538570 106.7901250 145.7577300 117.7002010 107.8656460 145.9156630
 109.7930770 109.9225740 142.8608880 110.0956670 109.9293170 141.9528030
 110.5325360 109.5723600 143.3576540 113.0115700 108.8660360 143.8465080
 112.6637700 108.1884350 143.2667530 113.2128470 108.4049870 144.6608470
 115.1764740 123.8541110 145.4651680 116.0715530 124.1926080 145.4870440
 115.2082370 123.1320520 144.8375960 108.8160900 119.2268160 143.6938680
 109.2535770 119.7697830 144.3496260 109.3008630 118.4015110 143.7035020
 106.0306700 122.0157190 151.1458940 106.3609710 121.1478250 150.9137580
 106.4597700 122.2215710 151.9763900 110.6268620 120.3466200 148.8060910
 110.3264160 120.2231170 149.7064820 110.5206110 119.4874790 148.3976640
 123.3960540 120.1262600 143.5087590 122.5653500 120.1939250 143.9794820
 123.5732370 121.0166720 143.2054450 122.8517000 116.8710080 146.0121790
 123.6135910 117.4406730 146.1181480 122.8671370 116.3037280 146.7830100
 106.3521340 115.3948010 150.2429450 105.6970180 115.1259650 149.5989150
 107.1899290 115.2852490 149.7931430 123.8576970 117.7260180 150.8563720
 124.2285800 116.9427500 150.4499690 124.4978900 118.4149280 150.6781020
 122.9036170 117.1644450 143.1694310 123.1785010 118.0723330 143.0413530
 122.7146910 117.1006980 144.1056300 119.3011780 110.1889300 144.4647940
 119.7196660 110.0020280 143.6244600 118.9947840 109.3368350 144.7750870
 122.8001510 115.1013440 148.1623740 122.4245110 114.3341370 147.7305030
 122.0704630 115.4836140 148.6498670 105.5659420 112.6046940 146.1854780
 104.6623500 112.8677140 146.0106440 106.0500040 112.8758110 145.4054740
 122.0752470 113.3270930 151.4630980 122.5989950 112.8333580 150.8321150
 122.6611890 113.4621290 152.2078550 108.1086630 111.6612480 144.0949160
 108.8178330 111.2395700 143.6096440 107.3926570 111.7287710 143.4632510
 107.7560790 107.7151810 143.1351810 108.4788920 108.2560750 143.4533030
 108.0285310 107.4415230 142.2593350 121.5652440 112.5844280 147.4023390
 122.0611560 112.3515150 148.1872270 121.3668510 111.7456120 146.9861030
 122.9939600 111.2205230 149.9361070 122.8838880 111.0661270 150.8743340
 123.7547190 110.6926170 149.6936480 123.8829870 109.0513150 143.1767210
 124.8079180 108.9194330 142.9685500 123.8605660 109.1305970 144.1303660
 123.9568360 109.8223810 145.8023920 123.1619860 109.7568930 146.3316830
 124.1611640 110.7574450 145.7909270 120.8986780 123.8615360 149.7962310
 121.4945850 123.5399930 149.1196730 121.1564930 123.3887180 150.5875580
 120.3888290 108.1520690 152.2522750 120.8296380 108.0965790 151.4044350
 120.1195880 109.0678700 152.3232930 122.2526860 107.7835930 150.2631570
 122.1915260 106.8397150 150.1162590 123.0318890 107.8916020 150.8085030
 106.5579610 123.9228290 149.2255520 106.3901650 123.2898970 149.9237410
 105.6914120 124.1287690 148.8749710 107.1807630 107.7545070 146.7287380
 107.9386990 107.8673950 146.1551410 106.7184800 108.5914270 146.6830810
 113.7221440 109.8684340 149.7189690 112.9095950 109.4941230 149.3785570
 114.2263080 109.1129420 150.0210880 118.2246420 106.5326790 150.9572760
 118.8275790 107.1047000 151.4321280 117.4839410 107.0966230 150.7346660
 121.3681020 106.9348350 146.2313040 121.5631650 107.8331800 146.4980470
 120.5810890 106.7035430 146.7245990 108.1642310 122.6161520 146.6705660
 107.6389930 122.9969550 145.9667620 108.0886890 123.2412290 147.3915370
 109.5532780 108.2809120 145.2689350 110.0825540 107.4938920 145.1397300
 110.1861100 108.9600310 145.5024880 111.7470620 108.0184260 148.3234740
 111.1173360 107.3171570 148.4904870 111.2075760 108.7788390 148.1067900
 122.9207630 124.1749060 147.9919600 123.0959820 123.4886800 147.3480520
 122.2229200 124.6996110 147.5996270 110.7635280 124.5643900 145.5454910
 111.4954100 124.2803180 144.9978800 111.0228950 124.3257180 146.4354290
 109.9250070 120.6808630 145.5501240 109.2958950 121.1493730 146.0987070
 110.0397900 119.8357850 145.9847430 117.3799790 114.7314290 131.7002440
 117.2993840 113.8168900 131.4294150 116.9664210 115.2281360 130.9942150
 115.5117830 116.5093310 133.5811710 114.7359930 116.0293750 133.8710280
 116.1630760 115.8298960 133.4067870 109.5283660 116.8213120 134.4587470
 108.6968540 116.5661830 134.8583980 110.1364640 116.8923890 135.1945390
 119.5325260 120.9153500 132.3610840 119.0706790 120.1440740 132.6898010
 120.3450810 120.9419570 132.8663290 109.5084920 120.8553210 134.6545490
 109.8112960 119.9650950 134.4755710 110.2528510 121.4123430 134.4267740
 107.9375610 111.7815010 128.2429860 107.0492310 112.1230980 128.1409740
 108.2216800 111.5815330 127.3510690 105.9008620 114.3820660 134.1269560
 106.4724730 113.6142860 134.1273200 105.9010160 114.6809420 133.2176170
 115.7588570 123.2011510 131.9814830 115.1400010 123.6569010 131.4109270
 116.6140350 123.3562970 131.5804530 114.9526820 119.1850500 133.5881870
 114.8835100 118.2440440 133.4271000 115.7146680 119.2751910 134.1604440
 107.1433490 109.7905020 135.9138490 106.9636330 108.8930770 136.1941250
 106.7413570 110.3376890 136.5885440 115.9831990 111.9920880 133.8150800
 116.3596810 111.1192760 133.7024470 115.8851500 112.3279580 132.9241240
 110.1137000 110.3646510 129.2768240 110.2203750 111.2650240 129.5837000
 109.2029360 110.3164480 128.9862890 119.7656110 109.4871320 130.7479140
 120.5865730 108.9967890 130.7904620 119.7990190 110.0768980 131.5010980
 107.7620160 112.2865520 134.5220830 108.4430270 112.5503890 135.1408230
 107.4468210 111.4466390 134.8558840 111.9544730 113.3332880 133.6093420
 112.4622950 113.8313850 134.2498440 112.4857970 112.5568080 133.4332780
 124.0555660 111.5038070 137.3122770 123.3507830 111.8919780 136.7937880
 124.3213580 112.1988360 137.9143700 110.2380830 107.9731440 137.8756840
 110.2399270 108.4903830 137.0702740 109.4085140 107.4961620 137.8526770
 116.6251920 118.0850750 129.3746740 116.0069190 118.5500200 128.8109460
 117.1375170 118.7778230 129.7916250 111.4883680 117.6126620 136.0530340
 111.1553060 118.2395540 136.6951410 111.6650360 118.1388500 135.2732010
 120.0017590 111.4271700 133.5206680 119.2973160 111.7156590 134.1009790
 120.3629750 112.2371810 133.1606240 109.9196160 109.6841400 135.8827290
 110.2612970 110.5283450 135.5881160 108.9811970 109.8325140 135.9992630
 110.7002780 119.5807420 137.8679520 111.3176780 120.2558500 137.5863970
 109.8395900 119.9895400 137.7767020 105.9935120 118.7707280 126.7486370
 105.6163100 119.2594380 126.0171270 106.2508190 119.4432560 127.3792900
 121.6180370 121.0446830 135.7834160 120.9343890 121.7145940 135.7750830
 122.1574660 121.2427480 135.0179020 123.0704510 110.8726490 133.9115890
 122.1229420 110.9065470 134.0431320 123.3954500 111.6865440 134.2965250
 113.6024050 107.1723670 132.2071880 113.9099030 106.6170560 131.4907380
 112.6724750 107.3068130 132.0244870 119.1539110 122.8890960 134.4979340
 119.1666270 122.4853250 133.6301600 118.6014330 123.6638250 134.3940770
 120.4484530 119.6107180 129.5869510 120.3380860 118.6681510 129.7118930
 120.4452780 119.9722820 130.4732270 118.5524550 117.7920800 135.8261950
 118.9693340 117.5780910 134.9915410 119.2764370 118.0493590 136.3970570
 115.9904810 115.2372500 128.9432000 115.0634090 115.1709880 129.1720470
 116.1429630 116.1752630 128.8287240 115.9773890 111.5089500 125.9399160
 115.0377560 111.6703460 126.0251620 116.2957150 112.2275180 125.3935150
 122.4986650 116.1908020 135.9178190 121.6705280 116.2601110 135.4428320
 123.0937130 116.7762330 135.4494020 120.0202100 116.7992800 129.4467250
 119.4014520 116.4612350 128.7993550 120.0026550 116.1552560 130.1546440
 119.4628660 112.9777340 136.8633060 119.0499840 113.8031050 137.1173050
 118.7304610 112.3922380 136.6709420 111.5961450 115.7637240 131.7251730
 111.1918450 115.0514490 131.2297630 111.6824570 115.4190480 132.6139770
 112.0643150 119.4504800 133.8890940 111.7671440 118.8450270 133.2098720
 113.0142970 119.4882110 133.7780300 110.3090070 112.5380450 135.5050770
 110.8604660 112.6475790 134.7304020 110.8233580 112.9118050 136.2206000
 120.1528760 123.0236670 137.5514040 119.6759320 123.8308860 137.3586650
 119.4690550 122.3715000 137.7040250 111.1561580 119.1886490 140.5398740
 110.2590110 119.4126460 140.7872140 111.1814450 119.3121430 139.5910140
 118.1966800 116.0379610 126.4540000 118.6360080 115.2002040 126.3077820
 118.9095220 116.6709010 126.5404140 109.9832800 116.0599810 139.1156110
 109.8440570 116.9322610 139.4843510 109.1014160 115.7172620 138.9704050
 116.3062180 120.9775680 130.4221240 116.7458090 121.7200010 130.0076630
 116.2449070 121.2202250 131.3460200 111.7813150 122.0021510 141.3241260
 111.7528580 122.4064460 140.4569690 111.6178120 121.0731870 141.1612860
 121.7783940 107.2922420 124.7681040 121.4656600 107.3849250 125.6680110
 122.5396410 107.8703450 124.7178470 108.2966080 114.6582220 129.2258380
 108.1763680 115.3844310 128.6139650 107.9866970 113.8885130 128.7486290
 123.7327970 122.7848610 142.6205430 124.2087690 123.2631500 143.2994510
 124.3535130 122.7166100 141.8950930 105.9351450 117.8297360 135.0327020
 106.0131870 117.9646130 134.0882740 106.5493130 117.1213250 135.2255140
 107.1799080 119.5297550 131.4433200 106.7727160 119.6712140 130.5886800
 108.0712090 119.2457710 131.2404410 123.1361220 119.9761460 139.7805440
 123.2624280 119.7373340 138.8622620 123.1782600 119.1446000 140.2527520
 116.9977960 123.6789460 138.3500250 117.5122630 123.5897470 139.1522680
 116.1547040 124.0249160 138.6428160 118.9732360 123.9644800 127.7784250
 118.8133500 123.6747740 128.6766080 118.8079070 123.1884930 127.2429480
 111.4520740 123.7443330 129.5555870 111.2763220 122.8278870 129.3423670
 110.5976480 124.1030620 129.7953670 118.6758490 121.4732360 126.3382250
 117.9823650 121.4709650 125.6784530 119.4181350 121.0491680 125.9076420
 118.2408420 123.0995070 130.4130740 118.6965370 122.3184450 130.7269360
 118.5800940 123.8101890 130.9571920 122.9885230 112.0293920 140.7455180
 122.3729500 112.5373590 140.2170640 122.6681650 111.1292250 140.6881120
 105.9910970 118.8711530 137.5721480 106.1542010 118.4016890 136.7540850
 106.4563420 118.3635090 138.2370320 110.7629740 108.0017290 132.6082050
 110.3197890 108.7826830 132.2766570 111.3214730 108.3247180 133.3152990
 115.0499550 110.8685810 138.2117370 114.5878920 111.0768830 139.0237310
 114.6477660 110.0545160 137.9088040 120.0504060 112.0894760 139.3414030
 119.1997650 111.7900510 139.6623100 119.8905850 112.3336770 138.4297850
 117.1453770 113.5896510 141.4412820 117.4707180 112.7560260 141.1015050
 117.9334100 114.1125030 141.5891150 113.8788560 107.6227990 127.4887880
 113.2542740 107.6187860 128.2141190 113.7918680 106.7558950 127.0923850
 112.8005640 108.5464620 134.4671650 113.0977970 109.4527450 134.3863670
 113.3491200 108.0583400 133.8531220 110.5543960 113.1250860 130.3363300
 110.3284880 112.9088030 131.2409920 109.7736490 113.5579320 129.9909270
 117.7841720 113.1314230 128.9353950 117.1850610 113.8550030 128.7517570
 118.3321330 113.0691010 128.1530400 112.9943170 114.0236440 141.0023570
 112.8986770 113.0831170 140.8523970 113.8375150 114.2451510 140.6071640
 116.3906590 111.7677770 130.9657230 116.7836160 112.0849970 130.1525920
 116.7523440 110.8889650 131.0801750 108.1253710 110.4350110 139.1557350
 107.7317100 111.2825320 139.3630130 107.4372110 109.7976480 139.3465990
 114.6998760 110.5185080 142.2254090 114.0097080 110.3257280 142.8600180
 115.4431060 110.8019720 142.7578390 105.4270760 108.3578570 133.1887430
 105.1383810 108.9281430 133.9012410 106.1716520 107.8783020 133.5518660
 105.6140990 112.2998690 124.3990150 105.5315660 113.2429450 124.5405140
 105.2624050 112.1573600 123.5202500 116.9761730 114.3583520 135.0608010
 116.2442850 114.8670330 135.4098110 116.5786070 113.5413500 134.7596790
 113.4139120 111.0337720 133.4660500 113.4175180 110.5927670 132.6165040
 114.3090240 111.3555050 133.5732320 109.2641500 110.9164210 132.4254710
 108.9241550 111.3939440 133.1821760 108.5018820 110.4629330 132.0655810
 113.4759270 112.0349800 126.4567260 113.5972090 111.9936280 127.4053080
 113.0907780 112.8973950 126.3013990 117.4387640 109.8117200 134.4730950
 117.4560380 110.2625850 135.3172800 117.1903220 108.9122840 134.6864390
 112.4880770 114.3450940 125.8550560 111.9197670 113.8969190 125.2286470
 113.1969770 114.7043720 125.3215710 120.8658390 107.2249380 140.3117330
 121.1904160 106.4939040 140.8375310 120.9014900 106.9063020 139.4098320
 107.5649950 118.2462960 139.7317290 107.1804740 117.6056630 140.3300250
 107.8762140 118.9499080 140.3012020 113.7147090 115.0939500 135.2125910
 114.0817220 114.6198070 135.9587250 113.5252150 115.9681070 135.5534250
 106.5787580 109.8383190 131.3419380 106.2934500 109.4738860 132.1798000
 106.5166440 109.1063650 130.7282520 111.5046460 114.1348140 137.5310120
 111.2003530 115.0140120 137.7560480 112.4592920 114.1947930 137.5667560
 110.0328250 118.3409130 128.1276970 109.2590510 117.8006750 127.9675690
 110.7622880 117.8215740 127.7894730 120.7916230 117.3374490 133.9203360
 121.5115350 117.8329780 133.5299470 120.5898050 116.6592380 133.2757230
 116.2526170 108.7312450 128.0632750 115.4390780 108.2325620 127.9878060
 116.0588120 109.5710700 127.6469100 116.1735030 117.4083550 139.8072360
 116.1072340 116.4879220 139.5529950 115.5440170 117.5058990 140.5217000
 118.9674560 113.1032100 126.3594910 119.8554180 113.4149330 126.1846250
 118.9379650 112.2304350 125.9675490 110.0765650 118.0089510 131.7655780
 110.5944320 117.2057770 131.7112670 109.6249670 117.9468650 132.6072610
 114.9635150 119.2755790 127.0383080 115.3050850 120.0198020 126.5426400
 114.1347860 119.5886910 127.4007910 107.5610190 114.9750880 138.6781480
 107.2025130 115.6404730 139.2654820 107.2664750 114.1434430 139.0494100
 110.7623310 115.4335120 141.5621030 110.4623450 115.5792300 140.6648850
 111.5334550 114.8740410 141.4694420 116.1051760 120.2304120 139.5576160
 116.1196300 119.2985080 139.3395070 115.3976860 120.3163880 140.1965930
 121.2388830 114.4143940 125.8274770 121.1552550 114.8458160 124.9771210
 121.9583020 114.8742290 126.2601590 122.3162970 116.8711460 138.9044740
 121.5911160 117.4640240 138.7074130 122.8438430 116.8635000 138.1058110
 122.2676080 121.2686200 128.5556900 121.6252240 120.6141820 128.8300620
 121.8806740 121.6741290 127.7797570 117.8462560 118.5971630 132.4028590
 118.1986380 117.9999760 131.7429960 116.9624890 118.2715860 132.5736840
 113.9325840 119.3569320 129.8099000 114.6196970 119.9038530 130.1906590
 113.1458260 119.9010050 129.8448610 106.0718240 114.9742140 125.3016080
 106.9413090 115.2566940 125.5852000 105.5808560 115.7878010 125.1864890
 113.2353050 116.3615350 129.4224360 113.6915830 117.1720600 129.6484550
 112.8841260 116.0438490 130.2542850 115.5385660 121.8721690 136.6516660
 116.1827880 122.0781070 137.3290080 115.9015100 121.1110090 136.1987510
 109.1364830 106.7053000 129.8946880 109.0079460 106.6970900 130.8431800
 108.3126850 107.0436090 129.5437890 116.8117740 119.8754040 135.3694110
 117.4539970 119.1747200 135.4826280 117.3367090 120.6552480 135.1891000
 120.6573460 120.1602660 125.0933250 120.4311040 119.4433100 125.6857890
 120.2669660 119.9115100 124.2555000 118.5855360 120.6748940 138.5730170
 118.9211600 121.2615630 139.2508090 117.6655700 120.5441650 138.8027960
 106.4389490 124.1869520 125.8677710 106.7987130 124.7858860 125.2134980
 106.2981830 124.7329410 126.6412740 106.1358760 108.4644120 139.3553580
 105.4217280 108.6641040 139.9606190 106.5553800 107.6883690 139.7268380
 120.2389710 118.0774600 126.7547410 119.9511410 118.5387290 127.5425290
 121.0341880 117.6172370 127.0231630 106.4231350 122.4524380 140.3420110
 106.5322470 121.5119120 140.2015500 105.7711910 122.7179130 139.6933840
 114.4143940 120.7240270 141.7418230 114.0940810 120.0049510 142.2863920
 113.7402300 121.3995340 141.8154290 112.4558110 121.5700720 126.6851380
 112.4468210 122.3030410 126.0695890 111.5356470 121.3232300 126.7778340
 108.0564750 116.7915610 127.4298140 107.4492700 117.5314510 127.4393440
 108.5314100 116.8814970 126.6036340 117.6297540 110.9566430 137.1055030
 117.9978360 110.1361640 137.4334600 116.7695740 111.0168320 137.5210680
 120.9959570 109.9123370 127.9142590 120.3672730 110.0169040 127.2000820
 120.5011490 110.1320150 128.7036470 115.4417710 121.6328960 125.3476570
 115.5429690 121.4292950 124.4178550 114.5419450 121.3787240 125.5524350
 112.9643600 112.1909320 129.3300470 112.2559750 112.6595660 129.7714080
 113.2488080 111.5331330 129.9645660 114.5899530 113.6106020 137.3293000
 115.0884780 114.0851840 137.9944850 114.7322480 112.6869540 137.5363030
 116.9959030 108.9159980 130.7696260 116.8726810 108.9346110 129.8205770
 117.9443590 108.9638920 130.8894660 114.0835820 124.1515280 130.0424240
 114.3377320 124.1136670 129.1203610 113.1348300 124.0248610 130.0352490
 111.1678620 110.4994400 126.7051180 112.0169150 110.9364550 126.6391370
 110.8009890 110.8114660 127.5323240 121.7966390 109.8273980 138.1721390
 121.2939990 110.5679380 138.5115200 122.6123050 110.2157980 137.8558180
 120.0888400 115.0707160 131.6182750 119.1478540 115.0857390 131.7930440
 120.4032470 114.2843120 132.0643050 110.0670040 116.7526760 125.1786710
 110.8333310 116.6408120 125.7412140 110.1444730 116.0564730 124.5263480
 108.7616800 114.1851830 125.8619600 108.8420390 113.2379340 125.9737000
 109.6536550 114.5158710 125.9680260 122.0913980 122.2416010 133.2937010
 122.2161400 123.0647180 133.7660820 122.9579540 122.0306740 132.9461160
 109.5631510 124.3347220 132.9654140 110.2993990 123.7862680 133.2362710
 109.9472430 125.2003230 132.8260130 106.4476990 120.4020790 128.8395650
 105.5216770 120.6441930 128.8301060 106.9133420 121.2295050 128.7180400
 108.5689790 123.5193290 142.1539720 109.3702520 123.8405340 142.5675120
 108.0541610 123.1588870 142.8759630 112.6733820 123.5077530 124.7879710
 113.4662430 123.7966360 124.3361500 112.1538170 123.0769700 124.1092190
 117.4054420 119.6273160 142.1015130 116.7992580 119.6504760 141.3610880
 117.1008530 118.8956200 142.6382380 118.8354790 123.3553450 140.7124540
 119.7876540 123.2711470 140.6624780 118.6883010 124.0195160 141.3858330
 121.7263990 122.7347660 126.2116450 121.4405500 122.3212800 125.3970630
 121.5283540 123.6635370 126.0916970 106.2887600 116.0066750 141.0975770
 106.7926620 115.4274030 141.6692000 105.5495020 116.2906980 141.6352140
 113.1911220 118.7280940 124.6522060 113.0861860 118.1133290 125.3783440
 113.0235440 118.2046830 123.8685070 113.3425540 117.4137740 140.6311290
 112.5771210 117.9822740 140.5465960 113.5241500 117.1213950 139.7379520
 116.4313950 117.7900970 125.2564050 115.8824050 118.2370270 125.9006790
 117.0533210 117.2850220 125.7801720 120.4848890 119.1443070 141.1886310
 121.2258360 119.4818830 140.6853770 119.7221570 119.3135130 140.6356080
 108.3210680 114.1496340 141.9925840 108.3616020 113.8510210 142.9011070
 109.1756180 114.5503950 141.8333360 112.0989070 116.7491890 127.1529350
 112.5205490 116.5831760 127.9960740 112.2239910 115.9392120 126.6584490
 110.2616490 112.7288440 139.9600330 109.7312950 112.2379390 139.3323670
 110.9304560 113.1572640 139.4258260 114.6116710 115.7729500 124.4006450
 115.1322370 115.0578520 124.0347600 115.2585110 116.4115370 124.7006960
 119.1594550 117.1957900 139.7241520 119.5735570 117.3502980 140.5731940
 118.2245550 117.3213120 139.8867300 119.6316720 114.5354060 141.7280670
 120.2137490 113.7806380 141.6401150 119.8078490 115.0661500 140.9512150
 110.7488790 109.6950810 140.0397620 110.6545660 109.0771560 139.3148490
 110.1686180 110.4217100 139.8127530 113.5150230 108.2524050 137.0725010
 113.0667530 108.2748310 136.2270560 112.8815430 107.8543070 137.6695310
 113.9209780 117.1478380 137.6937450 114.3397890 117.9911110 137.5213690
 113.0018410 117.2850420 137.4644230 116.2573680 114.8794560 139.0775290
 116.3769890 114.2835700 139.8170130 117.1167680 114.9164250 138.6576590
 118.5961580 115.4331750 137.6537800 118.0696800 115.9574370 137.0502940
 118.9392920 116.0659140 138.2847530 110.9947970 112.8225120 124.0987510
 110.7937030 111.9592480 124.4600850 110.8240020 112.7358480 123.1609110
 111.7717200 123.4531390 138.8095180 111.2338290 124.1777450 138.4903880
 112.0251160 122.9761730 138.0192520 113.0242450 111.4215910 140.3351110
 113.6142140 111.1131760 141.0228930 112.2062690 110.9495660 140.4911010
 117.8435880 111.0381720 140.5684130 117.1551400 110.3763260 140.5034120
 118.5641900 110.5919990 141.0132590 118.4736280 107.6333350 126.6274390
 118.7538570 106.7901250 126.9833810 117.7002010 107.8656460 127.1413140
 109.7930770 109.9225740 124.0865390 110.0956670 109.9293170 123.1784540
 110.5325360 109.5723600 124.5833050 114.6279410 124.6882600 139.0681830
 114.5538110 125.5917740 139.3754200 113.7258250 124.3694500 139.0403900
 113.0115700 108.8660360 125.0721590 112.6637700 108.1884350 124.4924040
 113.2128470 108.4049870 125.8864980 115.1764740 123.8541110 126.6908190
 116.0715530 124.1926080 126.7126950 115.2082370 123.1320520 126.0632470
 108.8160900 119.2268160 124.9195190 109.2535770 119.7697830 125.5752770
 109.3008630 118.4015110 124.9291530 106.0306700 122.0157190 132.3715450
 106.3609710 121.1478250 132.1394090 106.4597700 122.2215710 133.2020410
 110.6268620 120.3466200 130.0317420 110.3264160 120.2231170 130.9321330
 110.5206110 119.4874790 129.6233150 106.5196910 122.8827780 135.1097080
 106.0827900 123.0628580 135.9421230 107.0874590 123.6402400 134.9678800
 122.1559090 122.3844780 139.3974390 121.5561080 122.4437340 138.6538310
 122.2852990 121.4449760 139.5271240 123.3960540 120.1262600 124.7344100
 122.5653500 120.1939250 125.2051330 123.5732370 121.0166720 124.4310960
 122.8517000 116.8710080 127.2378300 123.6135910 117.4406730 127.3437990
 122.8671370 116.3037280 128.0086610 106.3521340 115.3948010 131.4685960
 105.6970180 115.1259650 130.8245660 107.1899290 115.2852490 131.0187940
 123.8576970 117.7260180 132.0820230 124.2285800 116.9427500 131.6756200
 124.4978900 118.4149280 131.9037530 120.8410730 119.1096760 137.4950550
 120.0270570 119.5393920 137.7576340 121.2484930 119.7215170 136.8819600
 122.9036170 117.1644450 124.3950820 123.1785010 118.0723330 124.2670040
 122.7146910 117.1006980 125.3312810 119.3011780 110.1889300 125.6904450
 119.7196660 110.0020280 124.8501110 118.9947840 109.3368350 126.0007380
 122.8001510 115.1013440 129.3880250 122.4245110 114.3341370 128.9561540
 122.0704630 115.4836140 129.8755180 107.3897270 115.7800580 136.0089300
 107.7570310 115.6927980 136.8885320 106.8208090 115.0167130 135.9096160
 122.1901130 114.2484960 139.0219770 121.9587220 114.0197710 138.1217720
 122.4505680 115.1684510 138.9764660 106.9413270 112.6909670 139.9147720
 106.0469320 112.6576430 140.2541430 107.4810820 112.8896460 140.6798970
 120.6289200 109.4741390 141.7999470 121.5059380 109.4824790 142.1833470
 120.6410040 108.7372230 141.1891820 105.5659420 112.6046940 127.4111290
 104.6623500 112.8677140 127.2362950 106.0500040 112.8758110 126.6311250
 122.0752470 113.3270930 132.6887490 122.5989950 112.8333580 132.0577660
 122.6611890 113.4621290 133.4335060 122.2542190 113.4110800 136.2107040
 121.3044900 113.3774340 136.3252030 122.4355200 114.3210910 135.9756810
 108.1086630 111.6612480 125.3205670 108.8178330 111.2395700 124.8352950
 107.3926570 111.7287710 124.6889020 107.7560790 107.7151810 124.3608320
 108.4788920 108.2560750 124.6789540 108.0285310 107.4415230 123.4849860
 121.5652440 112.5844280 128.6279900 122.0611560 112.3515150 129.4128780
 121.3668510 111.7456120 128.2117540 107.4452980 106.9658000 134.2630940
 108.0929170 106.4155380 133.8226100 107.8654820 107.2201150 135.0846750
 122.9939600 111.2205230 131.1617580 122.8838880 111.0661270 132.0999850
 123.7547190 110.6926170 130.9192990 121.3405320 107.1599360 137.6200580
 121.9777540 107.7733500 137.9859770 121.4880210 107.1960020 136.6749810
 123.8829870 109.0513150 124.4023720 124.8079180 108.9194330 124.1942010
 123.8605660 109.1305970 125.3560170 123.9568360 109.8223810 127.0280430
 123.1619860 109.7568930 127.5573340 124.1611640 110.7574450 127.0165780
 120.8986780 123.8615360 131.0218820 121.4945850 123.5399930 130.3453240
 121.1564930 123.3887180 131.8132090 107.1984980 107.1213670 137.0056260
 106.8499800 107.5777490 137.7714440 106.8672680 106.2270800 137.0878690
 108.8049350 120.2933270 141.1709450 108.7618980 119.9226180 142.0523910
 108.9360360 121.2310840 141.3111270 112.5055380 121.8492860 136.7719170
 112.2646740 122.1167420 135.8849690 113.4458020 122.0198590 136.8270030
 114.7109800 108.3125550 140.5275680 114.6498690 108.9047380 141.2771090
 115.6510180 108.2051510 140.3825940 117.3484360 107.9695610 140.1667970
 117.9624770 108.2874900 139.5049050 117.8933920 107.4844200 140.7863830
 123.7659540 123.8687240 137.5729810 123.2717820 124.2656110 136.8556940
 123.1572830 123.2436450 137.9667090 107.8705620 106.6489870 140.2807030
 108.4188610 106.4677920 139.5173140 107.9360930 105.8583980 140.8163340
 108.6437380 123.2395520 138.2907230 108.0497700 123.1080220 139.0297270
 108.6361220 122.4033660 137.8249330 118.0892400 106.5327750 136.4937260
 117.2152240 106.8662860 136.2910190 117.9803150 106.0600930 137.3189130
 118.9964380 108.7398620 137.8778980 118.6677740 107.9250380 137.4980710
 119.9446680 108.6968430 137.7544670 121.4498990 124.5110660 134.8516550
 120.9901960 125.2626470 134.4774570 120.8211450 123.7917130 134.7931350
 108.2749610 120.6053900 137.2415270 107.5483670 119.9859190 137.1741220
 108.3358760 120.9994510 136.3713350 111.8794710 122.8198900 134.0264680
 112.3959730 122.2086260 133.5012940 112.5292090 123.3227680 134.5175690
 114.6190210 123.7107390 134.8533660 114.9068020 123.4561690 133.9766670
 115.1313430 123.1584750 135.4439230 115.8367220 107.4497590 135.4330170
 115.0539010 107.9243090 135.7126930 115.5430150 106.5452420 135.3243350
 120.3888290 108.1520690 133.4779260 120.8296380 108.0965790 132.6300860
 120.1195880 109.0678700 133.5489440 122.2526860 107.7835930 131.4888080
 122.1915260 106.8397150 131.3419100 123.0318890 107.8916020 132.0341540
 106.5579610 123.9228290 130.4512030 106.3901650 123.2898970 131.1493920
 105.6914120 124.1287690 130.1006220 107.1807630 107.7545070 127.9543890
 107.9386990 107.8673950 127.3807920 106.7184800 108.5914270 127.9087320
 113.7221440 109.8684340 130.9446200 112.9095950 109.4941230 130.6042080
 114.2263080 109.1129420 131.2467390 118.2246420 106.5326790 132.1829270
 118.8275790 107.1047000 132.6577790 117.4839410 107.0966230 131.9603170
 121.3681020 106.9348350 127.4569550 121.5631650 107.8331800 127.7236980
 120.5810890 106.7035430 127.9502500 108.1642310 122.6161520 127.8962170
 107.6389930 122.9969550 127.1924130 108.0886890 123.2412290 128.6171880
 109.5532780 108.2809120 126.4945860 110.0825540 107.4938920 126.3653810
 110.1861100 108.9600310 126.7281390 111.7470620 108.0184260 129.5491250
 111.1173360 107.3171570 129.7161380 111.2075760 108.7788390 129.3324410
 114.6862570 124.6323490 142.2201860 115.6129880 124.3967760 142.2637820
 114.6713000 125.4595490 141.7387890 122.9207630 124.1749060 129.2176110
 123.0959820 123.4886800 128.5737030 122.2229200 124.6996110 128.8252780
 111.8726180 107.2968240 141.9843740 111.5910450 107.8001840 141.2204560
 112.2545880 106.4989990 141.6185870 110.7635280 124.5643900 126.7711420
 111.4954100 124.2803180 126.2235310 111.0228950 124.3257180 127.6610800
 109.9250070 120.6808630 126.7757750 109.2958950 121.1493730 127.3243580
 110.0397900 119.8357850 127.2103940 118.4741640 106.7121820 142.5624210
 118.3607090 107.0316430 143.4575730 119.2911380 107.1134330 142.2661490
 121.2540130 123.8593350 142.0442900 122.0465450 123.3642580 141.8368860
 121.5473280 124.5383490 142.6518510 117.3799790 114.7314290 112.9258950
 117.2993840 113.8168900 112.6550660 116.9664210 115.2281360 112.2198660
 115.5117830 116.5093310 114.8068220 114.7359930 116.0293750 115.0966790
 116.1630760 115.8298960 114.6324380 109.5283660 116.8213120 115.6843980
 108.6968540 116.5661830 116.0840490 110.1364640 116.8923890 116.4201900
 119.5325260 120.9153500 113.5867350 119.0706790 120.1440740 113.9154520
 120.3450810 120.9419570 114.0919800 107.9375610 111.7815010 109.4686370
 107.0492310 112.1230980 109.3666250 108.2216800 111.5815330 108.5767200
 115.7588570 123.2011510 113.2071340 115.1400010 123.6569010 112.6365780
 116.6140350 123.3562970 112.8061040 114.9526820 119.1850500 114.8138380
 114.8835100 118.2440440 114.6527510 115.7146680 119.2751910 115.3860950
 107.1433490 109.7905020 117.1395000 106.9636330 108.8930770 117.4197760
 106.7413570 110.3376890 117.8141950 115.9831990 111.9920880 115.0407310
 116.3596810 111.1192760 114.9280980 115.8851500 112.3279580 114.1497750
 110.1137000 110.3646510 110.5024750 110.2203750 111.2650240 110.8093510
 109.2029360 110.3164480 110.2119400 119.7656110 109.4871320 111.9735650
 120.5865730 108.9967890 112.0161130 119.7990190 110.0768980 112.7267490
 107.7620160 112.2865520 115.7477340 108.4430270 112.5503890 116.3664740
 107.4468210 111.4466390 116.0815350 111.9544730 113.3332880 114.8349930
 112.4622950 113.8313850 115.4754950 112.4857970 112.5568080 114.6589290
 124.0555660 111.5038070 118.5379280 123.3507830 111.8919780 118.0194390
 124.3213580 112.1988360 119.1400210 110.2380830 107.9731440 119.1013350
 110.2399270 108.4903830 118.2959250 109.4085140 107.4961620 119.0783280
 116.6251920 118.0850750 110.6003250 116.0069190 118.5500200 110.0365970
 117.1375170 118.7778230 111.0172760 111.4883680 117.6126620 117.2786850
 111.1553060 118.2395540 117.9207920 111.6650360 118.1388500 116.4988520
 120.0017590 111.4271700 114.7463190 119.2973160 111.7156590 115.3266300
 120.3629750 112.2371810 114.3862750 109.9196160 109.6841400 117.1083800
 110.2612970 110.5283450 116.8137670 108.9811970 109.8325140 117.2249140
 110.7002780 119.5807420 119.0936030 111.3176780 120.2558500 118.8120480
 109.8395900 119.9895400 119.0023530 121.6180370 121.0446830 117.0090670
 120.9343890 121.7145940 117.0007340 122.1574660 121.2427480 116.2435530
 123.0704510 110.8726490 115.1372400 122.1229420 110.9065470 115.2687830
 123.3954500 111.6865440 115.5221760 113.6024050 107.1723670 113.4328390
 113.9099030 106.6170560 112.7163890 112.6724750 107.3068130 113.2501380
 119.1539110 122.8890960 115.7235850 119.1666270 122.4853250 114.8558110
 118.6014330 123.6638250 115.6197280 120.4484530 119.6107180 110.8126020
 120.3380860 118.6681510 110.9375440 120.4452780 119.9722820 111.6988780
 118.5524550 117.7920800 117.0518460 118.9693340 117.5780910 116.2171920
 119.2764370 118.0493590 117.6227080 115.9904810 115.2372500 110.1688510
 115.0634090 115.1709880 110.3976980 116.1429630 116.1752630 110.0543750
 115.9773890 111.5089500 107.1655670 115.0377560 111.6703460 107.2508130
 116.2957150 112.2275180 106.6191660 122.4986650 116.1908020 117.1434700
 121.6705280 116.2601110 116.6684830 123.0937130 116.7762330 116.6750530
 120.0202100 116.7992800 110.6723760 119.4014520 116.4612350 110.0250060
 120.0026550 116.1552560 111.3802950 119.4628660 112.9777340 118.0889570
 119.0499840 113.8031050 118.3429560 118.7304610 112.3922380 117.8965930
 111.5961450 115.7637240 112.9508240 111.1918450 115.0514490 112.4554140
 111.6824570 115.4190480 113.8396280 112.0643150 119.4504800 115.1147450
 111.7671440 118.8450270 114.4355230 113.0142970 119.4882110 115.0036810
 110.3090070 112.5380450 116.7307280 110.8604660 112.6475790 115.9560530
 110.8233580 112.9118050 117.4462510 120.1528760 123.0236670 118.7770550
 119.6759320 123.8308860 118.5843160 119.4690550 122.3715000 118.9296760
 111.1561580 119.1886490 121.7655250 110.2590110 119.4126460 122.0128650
 111.1814450 119.3121430 120.8166650 118.1966800 116.0379610 107.6796510
 118.6360080 115.2002040 107.5334330 118.9095220 116.6709010 107.7660650
 109.9832800 116.0599810 120.3412620 109.8440570 116.9322610 120.7100020
 109.1014160 115.7172620 120.1960560 116.3062180 120.9775680 111.6477750
 116.7458090 121.7200010 111.2333140 116.2449070 121.2202250 112.5716710
 111.7813150 122.0021510 122.5497770 111.7528580 122.4064460 121.6826200
 111.6178120 121.0731870 122.3869370 121.7783940 107.2922420 105.9937550
 121.4656600 107.3849250 106.8936620 122.5396410 107.8703450 105.9434980
 123.7327970 122.7848610 123.8461940 124.2087690 123.2631500 124.5251020
 124.3535130 122.7166100 123.1207440 123.1361220 119.9761460 121.0061950
 123.2624280 119.7373340 120.0879130 123.1782600 119.1446000 121.4784030
 116.9977960 123.6789460 119.5756760 117.5122630 123.5897470 120.3779190
 116.1547040 124.0249160 119.8684670 118.9732360 123.9644800 109.0040760
 118.8133500 123.6747740 109.9022590 118.8079070 123.1884930 108.4685990
 111.4520740 123.7443330 110.7812380 111.2763220 122.8278870 110.5680180
 110.5976480 124.1030620 111.0210180 118.6758490 121.4732360 107.5638760
 117.9823650 121.4709650 106.9041040 119.4181350 121.0491680 107.1332930
 118.2408420 123.0995070 111.6387250 118.6965370 122.3184450 111.9525870
 118.5800940 123.8101890 112.1828430 122.9885230 112.0293920 121.9711690
 122.3729500 112.5373590 121.4427150 122.6681650 111.1292250 121.9137630
 110.7629740 108.0017290 113.8338560 110.3197890 108.7826830 113.5023080
 111.3214730 108.3247180 114.5409500 115.0499550 110.8685810 119.4373880
 114.5878920 111.0768830 120.2493820 114.6477660 110.0545160 119.1344550
 120.0504060 112.0894760 120.5670540 119.1997650 111.7900510 120.8879610
 119.8905850 112.3336770 119.6554360 117.1453770 113.5896510 122.6669330
 117.4707180 112.7560260 122.3271560 117.9334100 114.1125030 122.8147660
 113.8788560 107.6227990 108.7144390 113.2542740 107.6187860 109.4397700
 113.7918680 106.7558950 108.3180360 112.8005640 108.5464620 115.6928160
 113.0977970 109.4527450 115.6120180 113.3491200 108.0583400 115.0787730
 110.5543960 113.1250860 111.5619810 110.3284880 112.9088030 112.4666430
 109.7736490 113.5579320 111.2165780 117.7841720 113.1314230 110.1610460
 117.1850610 113.8550030 109.9774080 118.3321330 113.0691010 109.3786910
 112.9943170 114.0236440 122.2280080 112.8986770 113.0831170 122.0780480
 113.8375150 114.2451510 121.8328150 116.3906590 111.7677770 112.1913740
 116.7836160 112.0849970 111.3782430 116.7523440 110.8889650 112.3058260
 108.1253710 110.4350110 120.3813860 107.7317100 111.2825320 120.5886640
 107.4372110 109.7976480 120.5722500 114.6998760 110.5185080 123.4510600
 114.0097080 110.3257280 124.0856690 115.4431060 110.8019720 123.9834900
 105.4270760 108.3578570 114.4143940 105.1383810 108.9281430 115.1268920
 106.1716520 107.8783020 114.7775170 105.6140990 112.2998690 105.6246660
 105.5315660 113.2429450 105.7661650 105.2624050 112.1573600 104.7459010
 116.9761730 114.3583520 116.2864520 116.2442850 114.8670330 116.6354620
 116.5786070 113.5413500 115.9853300 113.4139120 111.0337720 114.6917010
 113.4175180 110.5927670 113.8421550 114.3090240 111.3555050 114.7988830
 109.2641500 110.9164210 113.6511220 108.9241550 111.3939440 114.4078270
 108.5018820 110.4629330 113.2912320 113.4759270 112.0349800 107.6823770
 113.5972090 111.9936280 108.6309590 113.0907780 112.8973950 107.5270500
 117.4387640 109.8117200 115.6987460 117.4560380 110.2625850 116.5429310
 117.1903220 108.9122840 115.9120900 112.4880770 114.3450940 107.0807070
 111.9197670 113.8969190 106.4542980 113.1969770 114.7043720 106.5472220
 120.8658390 107.2249380 121.5373840 121.1904160 106.4939040 122.0631820
 120.9014900 106.9063020 120.6354830 107.5649950 118.2462960 120.9573800
 107.1804740 117.6056630 121.5556760 107.8762140 118.9499080 121.5268530
 113.7147090 115.0939500 116.4382420 114.0817220 114.6198070 117.1843760
 113.5252150 115.9681070 116.7790760 106.5787580 109.8383190 112.5675890
 106.2934500 109.4738860 113.4054510 106.5166440 109.1063650 111.9539030
 111.5046460 114.1348140 118.7566630 111.2003530 115.0140120 118.9816990
 112.4592920 114.1947930 118.7924070 110.0328250 118.3409130 109.3533480
 109.2590510 117.8006750 109.1932200 110.7622880 117.8215740 109.0151240
 120.7916230 117.3374490 115.1459870 121.5115350 117.8329780 114.7555980
 120.5898050 116.6592380 114.5013740 116.2526170 108.7312450 109.2889260
 115.4390780 108.2325620 109.2134570 116.0588120 109.5710700 108.8725610
 116.1735030 117.4083550 121.0328870 116.1072340 116.4879220 120.7786460
 115.5440170 117.5058990 121.7473510 118.9674560 113.1032100 107.5851420
 119.8554180 113.4149330 107.4102760 118.9379650 112.2304350 107.1932000
 110.0765650 118.0089510 112.9912290 110.5944320 117.2057770 112.9369180
 109.6249670 117.9468650 113.8329120 114.9635150 119.2755790 108.2639590
 115.3050850 120.0198020 107.7682910 114.1347860 119.5886910 108.6264420
 107.5610190 114.9750880 119.9037990 107.2025130 115.6404730 120.4911330
 107.2664750 114.1434430 120.2750610 110.7623310 115.4335120 122.7877540
 110.4623450 115.5792300 121.8905360 111.5334550 114.8740410 122.6950930
 116.1051760 120.2304120 120.7832670 116.1196300 119.2985080 120.5651580
 115.3976860 120.3163880 121.4222440 121.2388830 114.4143940 107.0531280
 121.1552550 114.8458160 106.2027720 121.9583020 114.8742290 107.4858100
 122.3162970 116.8711460 120.1301250 121.5911160 117.4640240 119.9330640
 122.8438430 116.8635000 119.3314620 122.2676080 121.2686200 109.7813410
 121.6252240 120.6141820 110.0557130 121.8806740 121.6741290 109.0054080
 117.8462560 118.5971630 113.6285100 118.1986380 117.9999760 112.9686470
 116.9624890 118.2715860 113.7993350 113.9325840 119.3569320 111.0355510
 114.6196970 119.9038530 111.4163100 113.1458260 119.9010050 111.0705120
 106.0718240 114.9742140 106.5272590 106.9413090 115.2566940 106.8108510
 105.5808560 115.7878010 106.4121400 113.2353050 116.3615350 110.6480870
 113.6915830 117.1720600 110.8741060 112.8841260 116.0438490 111.4799360
 115.5385660 121.8721690 117.8773170 116.1827880 122.0781070 118.5546590
 115.9015100 121.1110090 117.4244020 109.1364830 106.7053000 111.1203390
 109.0079460 106.6970900 112.0688310 108.3126850 107.0436090 110.7694400
 116.8117740 119.8754040 116.5950620 117.4539970 119.1747200 116.7082790
 117.3367090 120.6552480 116.4147510 120.6573460 120.1602660 106.3189760
 120.4311040 119.4433100 106.9114400 120.2669660 119.9115100 105.4811510
 118.5855360 120.6748940 119.7986680 118.9211600 121.2615630 120.4764600
 117.6655700 120.5441650 120.0284470 106.4389490 124.1869520 107.0934220
 106.7987130 124.7858860 106.4391490 106.2981830 124.7329410 107.8669250
 106.1358760 108.4644120 120.5810090 105.4217280 108.6641040 121.1862700
 106.5553800 107.6883690 120.9524890 120.2389710 118.0774600 107.9803920
 119.9511410 118.5387290 108.7681800 121.0341880 117.6172370 108.2488140
 106.4231350 122.4524380 121.5676620 106.5322470 121.5119120 121.4272010
 105.7711910 122.7179130 120.9190350 114.4143940 120.7240270 122.9674740
 114.0940810 120.0049510 123.5120430 113.7402300 121.3995340 123.0410800
 112.4558110 121.5700720 107.9107890 112.4468210 122.3030410 107.2952400
 111.5356470 121.3232300 108.0034850 117.6297540 110.9566430 118.3311540
 117.9978360 110.1361640 118.6591110 116.7695740 111.0168320 118.7467190
 120.9959570 109.9123370 109.1399100 120.3672730 110.0169040 108.4257330
 120.5011490 110.1320150 109.9292980 115.4417710 121.6328960 106.5733080
 115.5429690 121.4292950 105.6435060 114.5419450 121.3787240 106.7780860
 112.9643600 112.1909320 110.5556980 112.2559750 112.6595660 110.9970590
 113.2488080 111.5331330 111.1902170 114.5899530 113.6106020 118.5549510
 115.0884780 114.0851840 119.2201360 114.7322480 112.6869540 118.7619540
 116.9959030 108.9159980 111.9952770 116.8726810 108.9346110 111.0462280
 117.9443590 108.9638920 112.1151170 114.0835820 124.1515280 111.2680750
 114.3377320 124.1136670 110.3460120 113.1348300 124.0248610 111.2609000
 111.1678620 110.4994400 107.9307690 112.0169150 110.9364550 107.8647880
 110.8009890 110.8114660 108.7579750 121.7966390 109.8273980 119.3977900
 121.2939990 110.5679380 119.7371710 122.6123050 110.2157980 119.0814690
 120.0888400 115.0707160 112.8439260 119.1478540 115.0857390 113.0186950
 120.4032470 114.2843120 113.2899560 110.0670040 116.7526760 106.4043220
 110.8333310 116.6408120 106.9668650 110.1444730 116.0564730 105.7519990
 108.7616800 114.1851830 107.0876110 108.8420390 113.2379340 107.1993510
 109.6536550 114.5158710 107.1936770 122.0913980 122.2416010 114.5193520
 122.2161400 123.0647180 114.9917330 122.9579540 122.0306740 114.1717670
 108.5689790 123.5193290 123.3796230 109.3702520 123.8405340 123.7931630
 108.0541610 123.1588870 124.1016140 112.6733820 123.5077530 106.0136220
 113.4662430 123.7966360 105.5618010 112.1538170 123.0769700 105.3348700
 117.4054420 119.6273160 123.3271640 116.7992580 119.6504760 122.5867390
 117.1008530 118.8956200 123.8638890 118.8354790 123.3553450 121.9381050
 119.7876540 123.2711470 121.8881290 118.6883010 124.0195160 122.6114840
 121.7263990 122.7347660 107.4372960 121.4405500 122.3212800 106.6227140
 121.5283540 123.6635370 107.3173480 106.2887600 116.0066750 122.3232280
 106.7926620 115.4274030 122.8948510 105.5495020 116.2906980 122.8608650
 113.1911220 118.7280940 105.8778570 113.0861860 118.1133290 106.6039950
 113.0235440 118.2046830 105.0941580 113.3425540 117.4137740 121.8567800
 112.5771210 117.9822740 121.7722470 113.5241500 117.1213950 120.9636030
 116.4313950 117.7900970 106.4820560 115.8824050 118.2370270 107.1263300
 117.0533210 117.2850220 107.0058230 120.4848890 119.1443070 122.4142820
 121.2258360 119.4818830 121.9110280 119.7221570 119.3135130 121.8612590
 108.3210680 114.1496340 123.2182350 108.3616020 113.8510210 124.1267580
 109.1756180 114.5503950 123.0589870 112.0989070 116.7491890 108.3785860
 112.5205490 116.5831760 109.2217250 112.2239910 115.9392120 107.8841000
 110.2616490 112.7288440 121.1856840 109.7312950 112.2379390 120.5580180
 110.9304560 113.1572640 120.6514770 114.6116710 115.7729500 105.6262960
 115.1322370 115.0578520 105.2604110 115.2585110 116.4115370 105.9263470
 119.1594550 117.1957900 120.9498030 119.5735570 117.3502980 121.7988450
 118.2245550 117.3213120 121.1123810 119.6316720 114.5354060 122.9537180
 120.2137490 113.7806380 122.8657660 119.8078490 115.0661500 122.1768660
 110.7488790 109.6950810 121.2654130 110.6545660 109.0771560 120.5405000
 110.1686180 110.4217100 121.0384040 113.5150230 108.2524050 118.2981520
 113.0667530 108.2748310 117.4527070 112.8815430 107.8543070 118.8951820
 113.9209780 117.1478380 118.9193960 114.3397890 117.9911110 118.7470200
 113.0018410 117.2850420 118.6900740 116.2573680 114.8794560 120.3031800
 116.3769890 114.2835700 121.0426640 117.1167680 114.9164250 119.8833100
 118.5961580 115.4331750 118.8794310 118.0696800 115.9574370 118.2759450
 118.9392920 116.0659140 119.5104040 110.9947970 112.8225120 105.3244020
 110.7937030 111.9592480 105.6857360 110.8240020 112.7358480 104.3865620
 111.7717200 123.4531390 120.0351690 111.2338290 124.1777450 119.7160390
 112.0251160 122.9761730 119.2449030 113.0242450 111.4215910 121.5607620
 113.6142140 111.1131760 122.2485440 112.2062690 110.9495660 121.7167520
 117.8435880 111.0381720 121.7940640 117.1551400 110.3763260 121.7290630
 118.5641900 110.5919990 122.2389100 118.4736280 107.6333350 107.8530900
 118.7538570 106.7901250 108.2090320 117.7002010 107.8656460 108.3669650
 109.7930770 109.9225740 105.3121900 110.0956670 109.9293170 104.4041050
 110.5325360 109.5723600 105.8089560 114.6279410 124.6882600 120.2938340
 114.5538110 125.5917740 120.6010710 113.7258250 124.3694500 120.2660410
 113.0115700 108.8660360 106.2978100 112.6637700 108.1884350 105.7180550
 113.2128470 108.4049870 107.1121490 115.1764740 123.8541110 107.9164700
 116.0715530 124.1926080 107.9383460 115.2082370 123.1320520 107.2888980
 108.8160900 119.2268160 106.1451700 109.2535770 119.7697830 106.8009280
 109.3008630 118.4015110 106.1548040 110.6268620 120.3466200 111.2573930
 110.3264160 120.2231170 112.1577840 110.5206110 119.4874790 110.8489660
 122.1559090 122.3844780 120.6230900 121.5561080 122.4437340 119.8794820
 122.2852990 121.4449760 120.7527750 123.3960540 120.1262600 105.9600610
 122.5653500 120.1939250 106.4307840 123.5732370 121.0166720 105.6567470
 122.8517000 116.8710080 108.4634810 123.6135910 117.4406730 108.5694500
 122.8671370 116.3037280 109.2343120 123.8576970 117.7260180 113.3076740
 124.2285800 116.9427500 112.9012710 124.4978900 118.4149280 113.1294040
 120.8410730 119.1096760 118.7207060 120.0270570 119.5393920 118.9832850
 121.2484930 119.7215170 118.1076110 122.9036170 117.1644450 105.6207330
 123.1785010 118.0723330 105.4926550 122.7146910 117.1006980 106.5569320
 119.3011780 110.1889300 106.9160960 119.7196660 110.0020280 106.0757620
 118.9947840 109.3368350 107.2263890 122.8001510 115.1013440 110.6136760
 122.4245110 114.3341370 110.1818050 122.0704630 115.4836140 111.1011690
 107.3897270 115.7800580 117.2345810 107.7570310 115.6927980 118.1141830
 106.8208090 115.0167130 117.1352670 122.1901130 114.2484960 120.2476280
 121.9587220 114.0197710 119.3474230 122.4505680 115.1684510 120.2021170
 106.9413270 112.6909670 121.1404230 106.0469320 112.6576430 121.4797940
 107.4810820 112.8896460 121.9055480 120.6289200 109.4741390 123.0255980
 121.5059380 109.4824790 123.4089980 120.6410040 108.7372230 122.4148330
 105.5659420 112.6046940 108.6367800 104.6623500 112.8677140 108.4619460
 106.0500040 112.8758110 107.8567760 122.0752470 113.3270930 113.9144000
 122.5989950 112.8333580 113.2834170 122.6611890 113.4621290 114.6591570
 122.2542190 113.4110800 117.4363550 121.3044900 113.3774340 117.5508540
 122.4355200 114.3210910 117.2013320 108.1086630 111.6612480 106.5462180
 108.8178330 111.2395700 106.0609460 107.3926570 111.7287710 105.9145530
 107.7560790 107.7151810 105.5864830 108.4788920 108.2560750 105.9046050
 108.0285310 107.4415230 104.7106370 121.5652440 112.5844280 109.8536410
 122.0611560 112.3515150 110.6385290 121.3668510 111.7456120 109.4374050
 107.4452980 106.9658000 115.4887450 108.0929170 106.4155380 115.0482610
 107.8654820 107.2201150 116.3103260 122.9939600 111.2205230 112.3874090
 122.8838880 111.0661270 113.3256360 123.7547190 110.6926170 112.1449500
 121.3405320 107.1599360 118.8457090 121.9777540 107.7733500 119.2116280
 121.4880210 107.1960020 117.9006320 123.8829870 109.0513150 105.6280230
 124.8079180 108.9194330 105.4198520 123.8605660 109.1305970 106.5816680
 123.9568360 109.8223810 108.2536940 123.1619860 109.7568930 108.7829850
 124.1611640 110.7574450 108.2422290 120.8986780 123.8615360 112.2475330
 121.4945850 123.5399930 111.5709750 121.1564930 123.3887180 113.0388600
 107.1984980 107.1213670 118.2312770 106.8499800 107.5777490 118.9970950
 106.8672680 106.2270800 118.3135200 108.8049350 120.2933270 122.3965960
 108.7618980 119.9226180 123.2780420 108.9360360 121.2310840 122.5367780
 112.5055380 121.8492860 117.9975680 112.2646740 122.1167420 117.1106200
 113.4458020 122.0198590 118.0526540 114.7109800 108.3125550 121.7532190
 114.6498690 108.9047380 122.5027600 115.6510180 108.2051510 121.6082450
 117.3484360 107.9695610 121.3924480 117.9624770 108.2874900 120.7305560
 117.8933920 107.4844200 122.0120340 123.7659540 123.8687240 118.7986320
 123.2717820 124.2656110 118.0813450 123.1572830 123.2436450 119.1923600
 107.8705620 106.6489870 121.5063540 108.4188610 106.4677920 120.7429650
 107.9360930 105.8583980 122.0419850 108.6437380 123.2395520 119.5163740
 108.0497700 123.1080220 120.2553780 108.6361220 122.4033660 119.0505840
 118.0892400 106.5327750 117.7193770 117.2152240 106.8662860 117.5166700
 117.9803150 106.0600930 118.5445640 118.9964380 108.7398620 119.1035490
 118.6677740 107.9250380 118.7237220 119.9446680 108.6968430 118.9801180
 121.4498990 124.5110660 116.0773060 120.9901960 125.2626470 115.7031080
 120.8211450 123.7917130 116.0187860 111.8794710 122.8198900 115.2521190
 112.3959730 122.2086260 114.7269450 112.5292090 123.3227680 115.7432200
 114.6190210 123.7107390 116.0790170 114.9068020 123.4561690 115.2023180
 115.1313430 123.1584750 116.6695740 115.8367220 107.4497590 116.6586680
 115.0539010 107.9243090 116.9383440 115.5430150 106.5452420 116.5499860
 120.3888290 108.1520690 114.7035770 120.8296380 108.0965790 113.8557370
 120.1195880 109.0678700 114.7745950 122.2526860 107.7835930 112.7144590
 122.1915260 106.8397150 112.5675610 123.0318890 107.8916020 113.2598050
 107.1807630 107.7545070 109.1800400 107.9386990 107.8673950 108.6064430
 106.7184800 108.5914270 109.1343830 113.7221440 109.8684340 112.1702710
 112.9095950 109.4941230 111.8298590 114.2263080 109.1129420 112.4723900
 118.2246420 106.5326790 113.4085780 118.8275790 107.1047000 113.8834300
 117.4839410 107.0966230 113.1859680 121.3681020 106.9348350 108.6826060
 121.5631650 107.8331800 108.9493490 120.5810890 106.7035430 109.1759010
 109.5532780 108.2809120 107.7202370 110.0825540 107.4938920 107.5910320
 110.1861100 108.9600310 107.9537900 111.7470620 108.0184260 110.7747760
 111.1173360 107.3171570 110.9417890 111.2075760 108.7788390 110.5580920
 114.6862570 124.6323490 123.4458370 115.6129880 124.3967760 123.4894330
 114.6713000 125.4595490 122.9644400 122.9207630 124.1749060 110.4432620
 123.0959820 123.4886800 109.7993540 122.2229200 124.6996110 110.0509290
 111.8726180 107.2968240 123.2100250 111.5910450 107.8001840 122.4461070
 112.2545880 106.4989990 122.8442380 110.7635280 124.5643900 107.9967930
 111.4954100 124.2803180 107.4491820 111.0228950 124.3257180 108.8867310
 109.9250070 120.6808630 108.0014260 109.2958950 121.1493730 108.5500090
 110.0397900 119.8357850 108.4360450 118.4741640 106.7121820 123.7880720
 118.3607090 107.0316430 124.6832240 119.2911380 107.1134330 123.4918000
 121.2540130 123.8593350 123.2699410 122.0465450 123.3642580 123.0625370
 121.5473280 124.5383490 123.8775020 117.3799790 114.7314290  94.1515460
 117.2993840 113.8168900  93.8807170 116.9664210 115.2281360  93.4455170
 115.5117830 116.5093310  96.0324730 114.7359930 116.0293750  96.3223300
 116.1630760 115.8298960  95.8580890 109.5283660 116.8213120  96.9100490
 108.6968540 116.5661830  97.3097000 110.1364640 116.8923890  97.6458410
 119.5325260 120.9153500  94.8123860 119.0706790 120.1440740  95.1411030
 120.3450810 120.9419570  95.3176310 109.5084920 120.8553210  97.1058510
 109.8112960 119.9650950  96.9268730 110.2528510 121.4123430  96.8780760
 115.7588570 123.2011510  94.4327850 115.1400010 123.6569010  93.8622290
 116.6140350 123.3562970  94.0317550 114.9526820 119.1850500  96.0394890
 114.8835100 118.2440440  95.8784020 115.7146680 119.2751910  96.6117460
 115.9831990 111.9920880  96.2663820 116.3596810 111.1192760  96.1537490
 115.8851500 112.3279580  95.3754260 119.7656110 109.4871320  93.1992160
 120.5865730 108.9967890  93.2417640 119.7990190 110.0768980  93.9524000
 111.9544730 113.3332880  96.0606440 112.4622950 113.8313850  96.7011460
 112.4857970 112.5568080  95.8845800 116.6251920 118.0850750  91.8259760
 116.0069190 118.5500200  91.2622480 117.1375170 118.7778230  92.2429270
 111.4883680 117.6126620  98.5043360 111.1553060 118.2395540  99.1464430
 111.6650360 118.1388500  97.7245030 120.0017590 111.4271700  95.9719700
 119.2973160 111.7156590  96.5522810 120.3629750 112.2371810  95.6119260
 110.7002780 119.5807420 100.3192540 111.3176780 120.2558500 100.0376990
 109.8395900 119.9895400 100.2280040 105.9935120 118.7707280  89.1999390
 105.6163100 119.2594380  88.4684290 106.2508190 119.4432560  89.8305920
 121.6180370 121.0446830  98.2347180 120.9343890 121.7145940  98.2263850
 122.1574660 121.2427480  97.4692040 113.6024050 107.1723670  94.6584900
 113.9099030 106.6170560  93.9420400 112.6724750 107.3068130  94.4757890
 119.1539110 122.8890960  96.9492360 119.1666270 122.4853250  96.0814620
 118.6014330 123.6638250  96.8453790 120.4484530 119.6107180  92.0382530
 120.3380860 118.6681510  92.1631950 120.4452780 119.9722820  92.9245290
 118.5524550 117.7920800  98.2774970 118.9693340 117.5780910  97.4428430
 119.2764370 118.0493590  98.8483590 115.9904810 115.2372500  91.3945020
 115.0634090 115.1709880  91.6233490 116.1429630 116.1752630  91.2800260
 115.9773890 111.5089500  88.3912180 115.0377560 111.6703460  88.4764640
 116.2957150 112.2275180  87.8448170 120.0202100 116.7992800  91.8980270
 119.4014520 116.4612350  91.2506570 120.0026550 116.1552560  92.6059460
 111.5961450 115.7637240  94.1764750 111.1918450 115.0514490  93.6810650
 111.6824570 115.4190480  95.0652790 112.0643150 119.4504800  96.3403960
 111.7671440 118.8450270  95.6611740 113.0142970 119.4882110  96.2293320
 120.1528760 123.0236670 100.0027060 119.6759320 123.8308860  99.8099670
 119.4690550 122.3715000 100.1553270 111.1561580 119.1886490 102.9911760
 110.2590110 119.4126460 103.2385160 111.1814450 119.3121430 102.0423160
 118.1966800 116.0379610  88.9053020 118.6360080 115.2002040  88.7590840
 118.9095220 116.6709010  88.9917160 109.9832800 116.0599810 101.5669130
 109.8440570 116.9322610 101.9356530 109.1014160 115.7172620 101.4217070
 116.3062180 120.9775680  92.8734260 116.7458090 121.7200010  92.4589650
 116.2449070 121.2202250  93.7973220 111.7813150 122.0021510 103.7754280
 111.7528580 122.4064460 102.9082710 111.6178120 121.0731870 103.6125880
 108.2966080 114.6582220  91.6771400 108.1763680 115.3844310  91.0652670
 107.9866970 113.8885130  91.1999310 123.7327970 122.7848610 105.0718450
 124.2087690 123.2631500 105.7507530 124.3535130 122.7166100 104.3463950
 105.9351450 117.8297360  97.4840040 106.0131870 117.9646130  96.5395760
 106.5493130 117.1213250  97.6768160 107.1799080 119.5297550  93.8946220
 106.7727160 119.6712140  93.0399820 108.0712090 119.2457710  93.6917430
 123.1361220 119.9761460 102.2318460 123.2624280 119.7373340 101.3135640
 123.1782600 119.1446000 102.7040540 116.9977960 123.6789460 100.8013270
 117.5122630 123.5897470 101.6035700 116.1547040 124.0249160 101.0941180
 118.9732360 123.9644800  90.2297270 118.8133500 123.6747740  91.1279100
 118.8079070 123.1884930  89.6942500 111.4520740 123.7443330  92.0068890
 111.2763220 122.8278870  91.7936690 110.5976480 124.1030620  92.2466690
 118.6758490 121.4732360  88.7895270 117.9823650 121.4709650  88.1297550
 119.4181350 121.0491680  88.3589440 118.2408420 123.0995070  92.8643760
 118.6965370 122.3184450  93.1782380 118.5800940 123.8101890  93.4084940
 105.9910970 118.8711530 100.0234500 106.1542010 118.4016890  99.2053870
 106.4563420 118.3635090 100.6883340 115.0499550 110.8685810 100.6630390
 114.5878920 111.0768830 101.4750330 114.6477660 110.0545160 100.3601060
 117.1453770 113.5896510 103.8925840 117.4707180 112.7560260 103.5528070
 117.9334100 114.1125030 104.0404170 113.8788560 107.6227990  89.9400900
 113.2542740 107.6187860  90.6654210 113.7918680 106.7558950  89.5436870
 112.8005640 108.5464620  96.9184670 113.0977970 109.4527450  96.8376690
 113.3491200 108.0583400  96.3044240 110.5543960 113.1250860  92.7876320
 110.3284880 112.9088030  93.6922940 109.7736490 113.5579320  92.4422290
 117.7841720 113.1314230  91.3866970 117.1850610 113.8550030  91.2030590
 118.3321330 113.0691010  90.6043420 112.9943170 114.0236440 103.4536590
 112.8986770 113.0831170 103.3036990 113.8375150 114.2451510 103.0584660
 116.3906590 111.7677770  93.4170250 116.7836160 112.0849970  92.6038940
 116.7523440 110.8889650  93.5314770 114.6998760 110.5185080 104.6767110
 114.0097080 110.3257280 105.3113200 115.4431060 110.8019720 105.2091410
 105.6140990 112.2998690  86.8503170 105.5315660 113.2429450  86.9918160
 105.2624050 112.1573600  85.9715520 116.9761730 114.3583520  97.5121030
 116.2442850 114.8670330  97.8611130 116.5786070 113.5413500  97.2109810
 113.4139120 111.0337720  95.9173520 113.4175180 110.5927670  95.0678060
 114.3090240 111.3555050  96.0245340 113.4759270 112.0349800  88.9080280
 113.5972090 111.9936280  89.8566100 113.0907780 112.8973950  88.7527010
 117.4387640 109.8117200  96.9243970 117.4560380 110.2625850  97.7685820
 117.1903220 108.9122840  97.1377410 112.4880770 114.3450940  88.3063580
 111.9197670 113.8969190  87.6799490 113.1969770 114.7043720  87.7728730
 120.8658390 107.2249380 102.7630350 121.1904160 106.4939040 103.2888330
 120.9014900 106.9063020 101.8611340 107.5649950 118.2462960 102.1830310
 107.1804740 117.6056630 102.7813270 107.8762140 118.9499080 102.7525040
 113.7147090 115.0939500  97.6638930 114.0817220 114.6198070  98.4100270
 113.5252150 115.9681070  98.0047270 111.5046460 114.1348140  99.9823140
 111.2003530 115.0140120 100.2073500 112.4592920 114.1947930 100.0180580
 110.0328250 118.3409130  90.5789990 109.2590510 117.8006750  90.4188710
 110.7622880 117.8215740  90.2407750 120.7916230 117.3374490  96.3716380
 121.5115350 117.8329780  95.9812490 120.5898050 116.6592380  95.7270250
 116.2526170 108.7312450  90.5145770 115.4390780 108.2325620  90.4391080
 116.0588120 109.5710700  90.0982120 116.1735030 117.4083550 102.2585380
 116.1072340 116.4879220 102.0042970 115.5440170 117.5058990 102.9730020
 118.9674560 113.1032100  88.8107930 119.8554180 113.4149330  88.6359270
 118.9379650 112.2304350  88.4188510 110.0765650 118.0089510  94.2168800
 110.5944320 117.2057770  94.1625690 109.6249670 117.9468650  95.0585630
 114.9635150 119.2755790  89.4896100 115.3050850 120.0198020  88.9939420
 114.1347860 119.5886910  89.8520930 107.5610190 114.9750880 101.1294500
 107.2025130 115.6404730 101.7167840 107.2664750 114.1434430 101.5007120
 110.7623310 115.4335120 104.0134050 110.4623450 115.5792300 103.1161870
 111.5334550 114.8740410 103.9207440 116.1051760 120.2304120 102.0089180
 116.1196300 119.2985080 101.7908090 115.3976860 120.3163880 102.6478950
 121.2388830 114.4143940  88.2787790 121.1552550 114.8458160  87.4284230
 121.9583020 114.8742290  88.7114610 122.2676080 121.2686200  91.0069920
 121.6252240 120.6141820  91.2813640 121.8806740 121.6741290  90.2310590
 117.8462560 118.5971630  94.8541610 118.1986380 117.9999760  94.1942980
 116.9624890 118.2715860  95.0249860 113.9325840 119.3569320  92.2612020
 114.6196970 119.9038530  92.6419610 113.1458260 119.9010050  92.2961630
 106.0718240 114.9742140  87.7529100 106.9413090 115.2566940  88.0365020
 105.5808560 115.7878010  87.6377910 113.2353050 116.3615350  91.8737380
 113.6915830 117.1720600  92.0997570 112.8841260 116.0438490  92.7055870
 115.5385660 121.8721690  99.1029680 116.1827880 122.0781070  99.7803100
 115.9015100 121.1110090  98.6500530 116.8117740 119.8754040  97.8207130
 117.4539970 119.1747200  97.9339300 117.3367090 120.6552480  97.6404020
 120.6573460 120.1602660  87.5446270 120.4311040 119.4433100  88.1370910
 120.2669660 119.9115100  86.7068020 118.5855360 120.6748940 101.0243190
 118.9211600 121.2615630 101.7021110 117.6655700 120.5441650 101.2540980
 106.4389490 124.1869520  88.3190730 106.7987130 124.7858860  87.6648000
 106.2981830 124.7329410  89.0925760 120.2389710 118.0774600  89.2060430
 119.9511410 118.5387290  89.9938310 121.0341880 117.6172370  89.4744650
 114.4143940 120.7240270 104.1931250 114.0940810 120.0049510 104.7376940
 113.7402300 121.3995340 104.2667310 112.4558110 121.5700720  89.1364400
 112.4468210 122.3030410  88.5208910 111.5356470 121.3232300  89.2291360
 108.0564750 116.7915610  89.8811160 107.4492700 117.5314510  89.8906460
 108.5314100 116.8814970  89.0549360 117.6297540 110.9566430  99.5568050
 117.9978360 110.1361640  99.8847620 116.7695740 111.0168320  99.9723700
 120.9959570 109.9123370  90.3655610 120.3672730 110.0169040  89.6513840
 120.5011490 110.1320150  91.1549490 112.9643600 112.1909320  91.7813490
 112.2559750 112.6595660  92.2227100 113.2488080 111.5331330  92.4158680
 114.5899530 113.6106020  99.7806020 115.0884780 114.0851840 100.4457870
 114.7322480 112.6869540  99.9876050 116.9959030 108.9159980  93.2209280
 116.8726810 108.9346110  92.2718790 117.9443590 108.9638920  93.3407680
 114.0835820 124.1515280  92.4937260 114.3377320 124.1136670  91.5716630
 113.1348300 124.0248610  92.4865510 111.1678620 110.4994400  89.1564200
 112.0169150 110.9364550  89.0904390 110.8009890 110.8114660  89.9836260
 120.0888400 115.0707160  94.0695770 119.1478540 115.0857390  94.2443460
 120.4032470 114.2843120  94.5156070 110.0670040 116.7526760  87.6299730
 110.8333310 116.6408120  88.1925160 110.1444730 116.0564730  86.9776500
 108.7616800 114.1851830  88.3132620 108.8420390 113.2379340  88.4250020
 109.6536550 114.5158710  88.4193280 122.0913980 122.2416010  95.7450030
 122.2161400 123.0647180  96.2173840 122.9579540 122.0306740  95.3974180
 109.5631510 124.3347220  95.4167160 110.2993990 123.7862680  95.6875730
 109.9472430 125.2003230  95.2773150 106.4476990 120.4020790  91.2908670
 105.5216770 120.6441930  91.2814080 106.9133420 121.2295050  91.1693420
 108.5689790 123.5193290 104.6052740 109.3702520 123.8405340 105.0188140
 108.0541610 123.1588870 105.3272650 117.4054420 119.6273160 104.5528150
 116.7992580 119.6504760 103.8123900 117.1008530 118.8956200 105.0895400
 118.8354790 123.3553450 103.1637560 119.7876540 123.2711470 103.1137800
 118.6883010 124.0195160 103.8371350 121.7263990 122.7347660  88.6629470
 121.4405500 122.3212800  87.8483650 121.5283540 123.6635370  88.5429990
 106.2887600 116.0066750 103.5488790 106.7926620 115.4274030 104.1205020
 105.5495020 116.2906980 104.0865160 113.1911220 118.7280940  87.1035080
 113.0861860 118.1133290  87.8296460 113.0235440 118.2046830  86.3198090
 113.3425540 117.4137740 103.0824310 112.5771210 117.9822740 102.9978980
 113.5241500 117.1213950 102.1892540 116.4313950 117.7900970  87.7077070
 115.8824050 118.2370270  88.3519810 117.0533210 117.2850220  88.2314740
 120.4848890 119.1443070 103.6399330 121.2258360 119.4818830 103.1366790
 119.7221570 119.3135130 103.0869100 108.3210680 114.1496340 104.4438860
 108.3616020 113.8510210 105.3524090 109.1756180 114.5503950 104.2846380
 112.0989070 116.7491890  89.6042370 112.5205490 116.5831760  90.4473760
 112.2239910 115.9392120  89.1097510 114.6116710 115.7729500  86.8519470
 115.1322370 115.0578520  86.4860620 115.2585110 116.4115370  87.1519980
 119.1594550 117.1957900 102.1754540 119.5735570 117.3502980 103.0244960
 118.2245550 117.3213120 102.3380320 113.5150230 108.2524050  99.5238030
 113.0667530 108.2748310  98.6783580 112.8815430 107.8543070 100.1208330
 113.9209780 117.1478380 100.1450470 114.3397890 117.9911110  99.9726710
 113.0018410 117.2850420  99.9157250 116.2573680 114.8794560 101.5288310
 116.3769890 114.2835700 102.2683150 117.1167680 114.9164250 101.1089610
 110.9947970 112.8225120  86.5500530 110.7937030 111.9592480  86.9113870
 110.8240020 112.7358480  85.6122130 111.7717200 123.4531390 101.2608200
 111.2338290 124.1777450 100.9416900 112.0251160 122.9761730 100.4705540
 113.0242450 111.4215910 102.7864130 113.6142140 111.1131760 103.4741950
 112.2062690 110.9495660 102.9424030 117.8435880 111.0381720 103.0197150
 117.1551400 110.3763260 102.9547140 118.5641900 110.5919990 103.4645610
 118.4736280 107.6333350  89.0787410 118.7538570 106.7901250  89.4346830
 117.7002010 107.8656460  89.5926160 109.7930770 109.9225740  86.5378410
 110.0956670 109.9293170  85.6297560 110.5325360 109.5723600  87.0346070
 114.6279410 124.6882600 101.5194850 114.5538110 125.5917740 101.8267220
 113.7258250 124.3694500 101.4916920 113.0115700 108.8660360  87.5234610
 112.6637700 108.1884350  86.9437060 113.2128470 108.4049870  88.3378000
 108.8160900 119.2268160  87.3708210 109.2535770 119.7697830  88.0265790
 109.3008630 118.4015110  87.3804550 106.0306700 122.0157190  94.8228470
 106.3609710 121.1478250  94.5907110 106.4597700 122.2215710  95.6533430
 110.6268620 120.3466200  92.4830440 110.3264160 120.2231170  93.3834350
 110.5206110 119.4874790  92.0746170 106.5196910 122.8827780  97.5610100
 106.0827900 123.0628580  98.3934250 107.0874590 123.6402400  97.4191820
 122.1559090 122.3844780 101.8487410 121.5561080 122.4437340 101.1051330
 122.2852990 121.4449760 101.9784260 123.3960540 120.1262600  87.1857120
 122.5653500 120.1939250  87.6564350 123.5732370 121.0166720  86.8823980
 122.8517000 116.8710080  89.6891320 123.6135910 117.4406730  89.7951010
 122.8671370 116.3037280  90.4599630 106.3521340 115.3948010  93.9198980
 105.6970180 115.1259650  93.2758680 107.1899290 115.2852490  93.4700960
 123.8576970 117.7260180  94.5333250 124.2285800 116.9427500  94.1269220
 124.4978900 118.4149280  94.3550550 120.8410730 119.1096760  99.9463570
 120.0270570 119.5393920 100.2089360 121.2484930 119.7215170  99.3332620
 122.9036170 117.1644450  86.8463840 123.1785010 118.0723330  86.7183060
 122.7146910 117.1006980  87.7825830 119.3011780 110.1889300  88.1417470
 119.7196660 110.0020280  87.3014130 118.9947840 109.3368350  88.4520400
 120.6289200 109.4741390 104.2512490 121.5059380 109.4824790 104.6346490
 120.6410040 108.7372230 103.6404840 105.5659420 112.6046940  89.8624310
 104.6623500 112.8677140  89.6875970 106.0500040 112.8758110  89.0824270
 122.0752470 113.3270930  95.1400510 122.5989950 112.8333580  94.5090680
 122.6611890 113.4621290  95.8848080 108.1086630 111.6612480  87.7718690
 108.8178330 111.2395700  87.2865970 107.3926570 111.7287710  87.1402040
 107.7560790 107.7151810  86.8121340 108.4788920 108.2560750  87.1302560
 108.0285310 107.4415230  85.9362880 121.3405320 107.1599360 100.0713600
 121.9777540 107.7733500 100.4372790 121.4880210 107.1960020  99.1262830
 120.8986780 123.8615360  93.4731840 121.4945850 123.5399930  92.7966260
 121.1564930 123.3887180  94.2645110 108.8049350 120.2933270 103.6222470
 108.7618980 119.9226180 104.5036930 108.9360360 121.2310840 103.7624290
 112.5055380 121.8492860  99.2232190 112.2646740 122.1167420  98.3362710
 113.4458020 122.0198590  99.2783050 114.7109800 108.3125550 102.9788700
 114.6498690 108.9047380 103.7284110 115.6510180 108.2051510 102.8338960
 117.3484360 107.9695610 102.6180990 117.9624770 108.2874900 101.9562070
 117.8933920 107.4844200 103.2376850 123.7659540 123.8687240 100.0242830
 123.2717820 124.2656110  99.3069960 123.1572830 123.2436450 100.4180110
 107.8705620 106.6489870 102.7320050 108.4188610 106.4677920 101.9686160
 107.9360930 105.8583980 103.2676360 108.6437380 123.2395520 100.7420250
 108.0497700 123.1080220 101.4810290 108.6361220 122.4033660 100.2762350
 118.0892400 106.5327750  98.9450280 117.2152240 106.8662860  98.7423210
 117.9803150 106.0600930  99.7702150 118.9964380 108.7398620 100.3292000
 118.6677740 107.9250380  99.9493730 119.9446680 108.6968430 100.2057690
 121.4498990 124.5110660  97.3029570 120.9901960 125.2626470  96.9287590
 120.8211450 123.7917130  97.2444370 108.2749610 120.6053900  99.6928290
 107.5483670 119.9859190  99.6254240 108.3358760 120.9994510  98.8226370
 111.8794710 122.8198900  96.4777700 112.3959730 122.2086260  95.9525960
 112.5292090 123.3227680  96.9688710 114.6190210 123.7107390  97.3046680
 114.9068020 123.4561690  96.4279690 115.1313430 123.1584750  97.8952250
 115.8367220 107.4497590  97.8843190 115.0539010 107.9243090  98.1639950
 115.5430150 106.5452420  97.7756370 120.3888290 108.1520690  95.9292280
 120.8296380 108.0965790  95.0813880 120.1195880 109.0678700  96.0002460
 122.2526860 107.7835930  93.9401100 122.1915260 106.8397150  93.7932120
 123.0318890 107.8916020  94.4854560 106.5579610 123.9228290  92.9025050
 106.3901650 123.2898970  93.6006940 105.6914120 124.1287690  92.5519240
 113.7221440 109.8684340  93.3959220 112.9095950 109.4941230  93.0555100
 114.2263080 109.1129420  93.6980410 121.3681020 106.9348350  89.9082570
 121.5631650 107.8331800  90.1750000 120.5810890 106.7035430  90.4015520
 108.1642310 122.6161520  90.3475190 107.6389930 122.9969550  89.6437150
 108.0886890 123.2412290  91.0684900 111.7470620 108.0184260  92.0004270
 111.1173360 107.3171570  92.1674400 111.2075760 108.7788390  91.7837430
 114.6862570 124.6323490 104.6714880 115.6129880 124.3967760 104.7150840
 114.6713000 125.4595490 104.1900910 122.9207630 124.1749060  91.6689130
 123.0959820 123.4886800  91.0250050 122.2229200 124.6996110  91.2765800
 111.8726180 107.2968240 104.4356760 111.5910450 107.8001840 103.6717580
 112.2545880 106.4989990 104.0698890 109.9250070 120.6808630  89.2270770
 109.2958950 121.1493730  89.7756600 110.0397900 119.8357850  89.6616960
 118.4741640 106.7121820 105.0137230 118.3607090 107.0316430 105.9088750
 119.2911380 107.1134330 104.7174510 121.2540130 123.8593350 104.4955920
 122.0465450 123.3642580 104.2881880 121.5473280 124.5383490 105.1031530
 117.3799790 114.7314290  75.3771970 117.2993840 113.8168900  75.1063680
 116.9664210 115.2281360  74.6711680 115.5117830 116.5093310  77.2581240
 114.7359930 116.0293750  77.5479810 116.1630760 115.8298960  77.0837400
 109.5283660 116.8213120  78.1357000 108.6968540 116.5661830  78.5353510
 110.1364640 116.8923890  78.8714920 119.5325260 120.9153500  76.0380370
 119.0706790 120.1440740  76.3667540 120.3450810 120.9419570  76.5432820
 109.5084920 120.8553210  78.3315020 109.8112960 119.9650950  78.1525240
 110.2528510 121.4123430  78.1037270 107.9375610 111.7815010  71.9199390
 107.0492310 112.1230980  71.8179270 108.2216800 111.5815330  71.0280220
 105.9008620 114.3820660  77.8039090 106.4724730 113.6142860  77.8042730
 105.9010160 114.6809420  76.8945700 114.9526820 119.1850500  77.2651400
 114.8835100 118.2440440  77.1040530 115.7146680 119.2751910  77.8373970
 115.9831990 111.9920880  77.4920330 116.3596810 111.1192760  77.3794000
 115.8851500 112.3279580  76.6010770 110.1137000 110.3646510  72.9537770
 110.2203750 111.2650240  73.2606530 109.2029360 110.3164480  72.6632420
 119.7656110 109.4871320  74.4248670 120.5865730 108.9967890  74.4674150
 119.7990190 110.0768980  75.1780510 111.9544730 113.3332880  77.2862950
 112.4622950 113.8313850  77.9267970 112.4857970 112.5568080  77.1102310
 124.0555660 111.5038070  80.9892300 123.3507830 111.8919780  80.4707410
 124.3213580 112.1988360  81.5913230 110.2380830 107.9731440  81.5526370
 110.2399270 108.4903830  80.7472270 109.4085140 107.4961620  81.5296300
 116.6251920 118.0850750  73.0516270 116.0069190 118.5500200  72.4878990
 117.1375170 118.7778230  73.4685780 111.4883680 117.6126620  79.7299870
 111.1553060 118.2395540  80.3720940 111.6650360 118.1388500  78.9501540
 120.0017590 111.4271700  77.1976210 119.2973160 111.7156590  77.7779320
 120.3629750 112.2371810  76.8375770 110.7002780 119.5807420  81.5449050
 111.3176780 120.2558500  81.2633500 109.8395900 119.9895400  81.4536550
 105.9935120 118.7707280  70.4255900 105.6163100 119.2594380  69.6940800
 106.2508190 119.4432560  71.0562430 121.6180370 121.0446830  79.4603690
 120.9343890 121.7145940  79.4520360 122.1574660 121.2427480  78.6948550
 123.0704510 110.8726490  77.5885420 122.1229420 110.9065470  77.7200850
 123.3954500 111.6865440  77.9734780 113.6024050 107.1723670  75.8841410
 113.9099030 106.6170560  75.1676910 112.6724750 107.3068130  75.7014400
 119.1539110 122.8890960  78.1748870 119.1666270 122.4853250  77.3071130
 118.6014330 123.6638250  78.0710300 120.4484530 119.6107180  73.2639040
 120.3380860 118.6681510  73.3888460 120.4452780 119.9722820  74.1501800
 118.5524550 117.7920800  79.5031480 118.9693340 117.5780910  78.6684940
 119.2764370 118.0493590  80.0740100 115.9904810 115.2372500  72.6201530
 115.0634090 115.1709880  72.8490000 116.1429630 116.1752630  72.5056770
 115.9773890 111.5089500  69.6168690 115.0377560 111.6703460  69.7021150
 116.2957150 112.2275180  69.0704680 122.4986650 116.1908020  79.5947720
 121.6705280 116.2601110  79.1197850 123.0937130 116.7762330  79.1263550
 120.0202100 116.7992800  73.1236780 119.4014520 116.4612350  72.4763080
 120.0026550 116.1552560  73.8315970 119.4628660 112.9777340  80.5402590
 119.0499840 113.8031050  80.7942580 118.7304610 112.3922380  80.3478950
 111.5961450 115.7637240  75.4021260 111.1918450 115.0514490  74.9067160
 111.6824570 115.4190480  76.2909300 112.0643150 119.4504800  77.5660470
 111.7671440 118.8450270  76.8868250 113.0142970 119.4882110  77.4549830
 110.3090070 112.5380450  79.1820300 110.8604660 112.6475790  78.4073550
 110.8233580 112.9118050  79.8975530 120.1528760 123.0236670  81.2283570
 119.6759320 123.8308860  81.0356180 119.4690550 122.3715000  81.3809780
 111.1561580 119.1886490  84.2168270 110.2590110 119.4126460  84.4641670
 111.1814450 119.3121430  83.2679670 118.1966800 116.0379610  70.1309530
 118.6360080 115.2002040  69.9847350 118.9095220 116.6709010  70.2173670
 109.9832800 116.0599810  82.7925640 109.8440570 116.9322610  83.1613040
 109.1014160 115.7172620  82.6473580 116.3062180 120.9775680  74.0990770
 116.7458090 121.7200010  73.6846160 116.2449070 121.2202250  75.0229730
 121.7783940 107.2922420  68.4450570 121.4656600 107.3849250  69.3449640
 122.5396410 107.8703450  68.3948000 108.2966080 114.6582220  72.9027910
 108.1763680 115.3844310  72.2909180 107.9866970 113.8885130  72.4255820
 123.7327970 122.7848610  86.2974960 124.2087690 123.2631500  86.9764040
 124.3535130 122.7166100  85.5720460 105.9351450 117.8297360  78.7096550
 106.0131870 117.9646130  77.7652270 106.5493130 117.1213250  78.9024670
 107.1799080 119.5297550  75.1202730 106.7727160 119.6712140  74.2656330
 108.0712090 119.2457710  74.9173940 123.1361220 119.9761460  83.4574970
 123.2624280 119.7373340  82.5392150 123.1782600 119.1446000  83.9297050
 118.9732360 123.9644800  71.4553780 118.8133500 123.6747740  72.3535610
 118.8079070 123.1884930  70.9199010 111.4520740 123.7443330  73.2325400
 111.2763220 122.8278870  73.0193200 110.5976480 124.1030620  73.4723200
 118.6758490 121.4732360  70.0151780 117.9823650 121.4709650  69.3554060
 119.4181350 121.0491680  69.5845950 105.9910970 118.8711530  81.2491010
 106.1542010 118.4016890  80.4310380 106.4563420 118.3635090  81.9139850
 110.7629740 108.0017290  76.2851580 110.3197890 108.7826830  75.9536100
 111.3214730 108.3247180  76.9922520 115.0499550 110.8685810  81.8886900
 114.5878920 111.0768830  82.7006840 114.6477660 110.0545160  81.5857570
 120.0504060 112.0894760  83.0183560 119.1997650 111.7900510  83.3392630
 119.8905850 112.3336770  82.1067380 117.1453770 113.5896510  85.1182350
 117.4707180 112.7560260  84.7784580 117.9334100 114.1125030  85.2660680
 113.8788560 107.6227990  71.1657410 113.2542740 107.6187860  71.8910720
 113.7918680 106.7558950  70.7693380 112.8005640 108.5464620  78.1441180
 113.0977970 109.4527450  78.0633200 113.3491200 108.0583400  77.5300750
 110.5543960 113.1250860  74.0132830 110.3284880 112.9088030  74.9179450
 109.7736490 113.5579320  73.6678800 117.7841720 113.1314230  72.6123480
 117.1850610 113.8550030  72.4287100 118.3321330 113.0691010  71.8299930
 112.9943170 114.0236440  84.6793100 112.8986770 113.0831170  84.5293500
 113.8375150 114.2451510  84.2841170 116.3906590 111.7677770  74.6426760
 116.7836160 112.0849970  73.8295450 116.7523440 110.8889650  74.7571280
 108.1253710 110.4350110  82.8326880 107.7317100 111.2825320  83.0399660
 107.4372110 109.7976480  83.0235520 114.6998760 110.5185080  85.9023620
 114.0097080 110.3257280  86.5369710 115.4431060 110.8019720  86.4347920
 105.6140990 112.2998690  68.0759680 105.5315660 113.2429450  68.2174670
 105.2624050 112.1573600  67.1972030 116.9761730 114.3583520  78.7377540
 116.2442850 114.8670330  79.0867640 116.5786070 113.5413500  78.4366320
 113.4139120 111.0337720  77.1430030 113.4175180 110.5927670  76.2934570
 114.3090240 111.3555050  77.2501850 113.4759270 112.0349800  70.1336790
 113.5972090 111.9936280  71.0822610 113.0907780 112.8973950  69.9783520
 112.4880770 114.3450940  69.5320090 111.9197670 113.8969190  68.9056000
 113.1969770 114.7043720  68.9985240 120.8658390 107.2249380  83.9886860
 121.1904160 106.4939040  84.5144840 120.9014900 106.9063020  83.0867850
 107.5649950 118.2462960  83.4086820 107.1804740 117.6056630  84.0069780
 107.8762140 118.9499080  83.9781550 113.7147090 115.0939500  78.8895440
 114.0817220 114.6198070  79.6356780 113.5252150 115.9681070  79.2303780
 111.5046460 114.1348140  81.2079650 111.2003530 115.0140120  81.4330010
 112.4592920 114.1947930  81.2437090 110.0328250 118.3409130  71.8046500
 109.2590510 117.8006750  71.6445220 110.7622880 117.8215740  71.4664260
 120.7916230 117.3374490  77.5972890 121.5115350 117.8329780  77.2069000
 120.5898050 116.6592380  76.9526760 116.2526170 108.7312450  71.7402280
 115.4390780 108.2325620  71.6647590 116.0588120 109.5710700  71.3238630
 116.1735030 117.4083550  83.4841890 116.1072340 116.4879220  83.2299480
 115.5440170 117.5058990  84.1986530 118.9674560 113.1032100  70.0364440
 119.8554180 113.4149330  69.8615780 118.9379650 112.2304350  69.6445020
 110.0765650 118.0089510  75.4425310 110.5944320 117.2057770  75.3882200
 109.6249670 117.9468650  76.2842140 114.9635150 119.2755790  70.7152610
 115.3050850 120.0198020  70.2195930 114.1347860 119.5886910  71.0777440
 107.5610190 114.9750880  82.3551010 107.2025130 115.6404730  82.9424350
 107.2664750 114.1434430  82.7263630 110.7623310 115.4335120  85.2390560
 110.4623450 115.5792300  84.3418380 111.5334550 114.8740410  85.1463950
 116.1051760 120.2304120  83.2345690 116.1196300 119.2985080  83.0164600
 115.3976860 120.3163880  83.8735460 121.2388830 114.4143940  69.5044300
 121.1552550 114.8458160  68.6540740 121.9583020 114.8742290  69.9371120
 122.3162970 116.8711460  82.5814270 121.5911160 117.4640240  82.3843660
 122.8438430 116.8635000  81.7827640 122.2676080 121.2686200  72.2326430
 121.6252240 120.6141820  72.5070150 121.8806740 121.6741290  71.4567100
 117.8462560 118.5971630  76.0798120 118.1986380 117.9999760  75.4199490
 116.9624890 118.2715860  76.2506370 113.9325840 119.3569320  73.4868530
 114.6196970 119.9038530  73.8676120 113.1458260 119.9010050  73.5218140
 106.0718240 114.9742140  68.9785610 106.9413090 115.2566940  69.2621530
 105.5808560 115.7878010  68.8634420 113.2353050 116.3615350  73.0993890
 113.6915830 117.1720600  73.3254080 112.8841260 116.0438490  73.9312380
 109.1364830 106.7053000  73.5716410 109.0079460 106.6970900  74.5201330
 108.3126850 107.0436090  73.2207420 116.8117740 119.8754040  79.0463640
 117.4539970 119.1747200  79.1595810 117.3367090 120.6552480  78.8660530
 120.6573460 120.1602660  68.7702780 120.4311040 119.4433100  69.3627420
 120.2669660 119.9115100  67.9324530 118.5855360 120.6748940  82.2499700
 118.9211600 121.2615630  82.9277620 117.6655700 120.5441650  82.4797490
 106.4389490 124.1869520  69.5447240 106.7987130 124.7858860  68.8904510
 106.2981830 124.7329410  70.3182270 120.2389710 118.0774600  70.4316940
 119.9511410 118.5387290  71.2194820 121.0341880 117.6172370  70.7001160
 106.4231350 122.4524380  84.0189640 106.5322470 121.5119120  83.8785030
 105.7711910 122.7179130  83.3703370 112.4558110 121.5700720  70.3620910
 112.4468210 122.3030410  69.7465420 111.5356470 121.3232300  70.4547870
 108.0564750 116.7915610  71.1067670 107.4492700 117.5314510  71.1162970
 108.5314100 116.8814970  70.2805870 117.6297540 110.9566430  80.7824560
 117.9978360 110.1361640  81.1104130 116.7695740 111.0168320  81.1980210
 120.9959570 109.9123370  71.5912120 120.3672730 110.0169040  70.8770350
 120.5011490 110.1320150  72.3806000 112.9643600 112.1909320  73.0070000
 112.2559750 112.6595660  73.4483610 113.2488080 111.5331330  73.6415190
 114.5899530 113.6106020  81.0062530 115.0884780 114.0851840  81.6714380
 114.7322480 112.6869540  81.2132560 116.9959030 108.9159980  74.4465790
 116.8726810 108.9346110  73.4975300 117.9443590 108.9638920  74.5664190
 121.7966390 109.8273980  81.8490920 121.2939990 110.5679380  82.1884730
 122.6123050 110.2157980  81.5327710 120.0888400 115.0707160  75.2952280
 119.1478540 115.0857390  75.4699970 120.4032470 114.2843120  75.7412580
 110.0670040 116.7526760  68.8556240 110.8333310 116.6408120  69.4181670
 110.1444730 116.0564730  68.2033010 108.7616800 114.1851830  69.5389130
 108.8420390 113.2379340  69.6506530 109.6536550 114.5158710  69.6449790
 122.0913980 122.2416010  76.9706540 122.2161400 123.0647180  77.4430350
 122.9579540 122.0306740  76.6230690 109.5631510 124.3347220  76.6423670
 110.2993990 123.7862680  76.9132240 109.9472430 125.2003230  76.5029660
 106.4476990 120.4020790  72.5165180 105.5216770 120.6441930  72.5070590
 106.9133420 121.2295050  72.3949930 108.5689790 123.5193290  85.8309250
 109.3702520 123.8405340  86.2444650 108.0541610 123.1588870  86.5529160
 112.6733820 123.5077530  68.4649240 113.4662430 123.7966360  68.0131030
 112.1538170 123.0769700  67.7861720 117.4054420 119.6273160  85.7784660
 116.7992580 119.6504760  85.0380410 117.1008530 118.8956200  86.3151910
 121.7263990 122.7347660  69.8885980 121.4405500 122.3212800  69.0740160
 121.5283540 123.6635370  69.7686500 106.2887600 116.0066750  84.7745300
 106.7926620 115.4274030  85.3461530 105.5495020 116.2906980  85.3121670
 113.3425540 117.4137740  84.3080820 112.5771210 117.9822740  84.2235490
 113.5241500 117.1213950  83.4149050 120.4848890 119.1443070  84.8655840
 121.2258360 119.4818830  84.3623300 119.7221570 119.3135130  84.3125610
 108.3210680 114.1496340  85.6695370 108.3616020 113.8510210  86.5780600
 109.1756180 114.5503950  85.5102890 112.0989070 116.7491890  70.8298880
 112.5205490 116.5831760  71.6730270 112.2239910 115.9392120  70.3354020
 110.2616490 112.7288440  83.6369860 109.7312950 112.2379390  83.0093200
 110.9304560 113.1572640  83.1027790 119.1594550 117.1957900  83.4011050
 119.5735570 117.3502980  84.2501470 118.2245550 117.3213120  83.5636830
 119.6316720 114.5354060  85.4050200 120.2137490 113.7806380  85.3170680
 119.8078490 115.0661500  84.6281680 110.7488790 109.6950810  83.7167150
 110.6545660 109.0771560  82.9918020 110.1686180 110.4217100  83.4897060
 113.5150230 108.2524050  80.7494540 113.0667530 108.2748310  79.9040090
 112.8815430 107.8543070  81.3464840 113.9209780 117.1478380  81.3706980
 114.3397890 117.9911110  81.1983220 113.0018410 117.2850420  81.1413760
 116.2573680 114.8794560  82.7544820 116.3769890 114.2835700  83.4939660
 117.1167680 114.9164250  82.3346120 118.5961580 115.4331750  81.3307330
 118.0696800 115.9574370  80.7272470 118.9392920 116.0659140  81.9617060
 113.0242450 111.4215910  84.0120640 113.6142140 111.1131760  84.6998460
 112.2062690 110.9495660  84.1680540 117.8435880 111.0381720  84.2453660
 117.1551400 110.3763260  84.1803650 118.5641900 110.5919990  84.6902120
 118.4736280 107.6333350  70.3043920 118.7538570 106.7901250  70.6603340
 117.7002010 107.8656460  70.8182670 115.1764740 123.8541110  70.3677720
 116.0715530 124.1926080  70.3896480 115.2082370 123.1320520  69.7402000
 108.8160900 119.2268160  68.5964720 109.2535770 119.7697830  69.2522300
 109.3008630 118.4015110  68.6061060 106.0306700 122.0157190  76.0484980
 106.3609710 121.1478250  75.8163620 106.4597700 122.2215710  76.8789940
 110.6268620 120.3466200  73.7086950 110.3264160 120.2231170  74.6090860
 110.5206110 119.4874790  73.3002680 106.5196910 122.8827780  78.7866610
 106.0827900 123.0628580  79.6190760 107.0874590 123.6402400  78.6448330
 122.1559090 122.3844780  83.0743920 121.5561080 122.4437340  82.3307840
 122.2852990 121.4449760  83.2040770 123.3960540 120.1262600  68.4113630
 122.5653500 120.1939250  68.8820860 123.5732370 121.0166720  68.1080490
 122.8517000 116.8710080  70.9147830 123.6135910 117.4406730  71.0207520
 122.8671370 116.3037280  71.6856140 106.3521340 115.3948010  75.1455490
 105.6970180 115.1259650  74.5015190 107.1899290 115.2852490  74.6957470
 123.8576970 117.7260180  75.7589760 124.2285800 116.9427500  75.3525730
 124.4978900 118.4149280  75.5807060 120.8410730 119.1096760  81.1720080
 120.0270570 119.5393920  81.4345870 121.2484930 119.7215170  80.5589130
 122.9036170 117.1644450  68.0720350 123.1785010 118.0723330  67.9439570
 122.7146910 117.1006980  69.0082340 119.3011780 110.1889300  69.3673980
 119.7196660 110.0020280  68.5270640 118.9947840 109.3368350  69.6776910
 122.8001510 115.1013440  73.0649780 122.4245110 114.3341370  72.6331070
 122.0704630 115.4836140  73.5524710 107.3897270 115.7800580  79.6858830
 107.7570310 115.6927980  80.5654850 106.8208090 115.0167130  79.5865690
 122.1901130 114.2484960  82.6989300 121.9587220 114.0197710  81.7987250
 122.4505680 115.1684510  82.6534190 106.9413270 112.6909670  83.5917250
 106.0469320 112.6576430  83.9310960 107.4810820 112.8896460  84.3568500
 105.5659420 112.6046940  71.0880820 104.6623500 112.8677140  70.9132480
 106.0500040 112.8758110  70.3080780 122.0752470 113.3270930  76.3657020
 122.5989950 112.8333580  75.7347190 122.6611890 113.4621290  77.1104590
 122.2542190 113.4110800  79.8876570 121.3044900 113.3774340  80.0021560
 122.4355200 114.3210910  79.6526340 108.1086630 111.6612480  68.9975200
 108.8178330 111.2395700  68.5122480 107.3926570 111.7287710  68.3658550
 107.7560790 107.7151810  68.0377850 108.4788920 108.2560750  68.3559070
 108.0285310 107.4415230  67.1619390 121.5652440 112.5844280  72.3049430
 122.0611560 112.3515150  73.0898310 121.3668510 111.7456120  71.8887070
 122.9939600 111.2205230  74.8387110 122.8838880 111.0661270  75.7769380
 123.7547190 110.6926170  74.5962520 108.8049350 120.2933270  84.8478980
 108.7618980 119.9226180  85.7293440 108.9360360 121.2310840  84.9880800
 114.7109800 108.3125550  84.2045210 114.6498690 108.9047380  84.9540620
 115.6510180 108.2051510  84.0595470 117.3484360 107.9695610  83.8437500
 117.9624770 108.2874900  83.1818580 117.8933920 107.4844200  84.4633360
 123.7659540 123.8687240  81.2499340 123.2717820 124.2656110  80.5326470
 123.1572830 123.2436450  81.6436620 107.8705620 106.6489870  83.9576560
 108.4188610 106.4677920  83.1942670 107.9360930 105.8583980  84.4932870
 108.6437380 123.2395520  81.9676760 108.0497700 123.1080220  82.7066800
 108.6361220 122.4033660  81.5018860 121.4498990 124.5110660  78.5286080
 120.9901960 125.2626470  78.1544100 120.8211450 123.7917130  78.4700880
 108.2749610 120.6053900  80.9184800 107.5483670 119.9859190  80.8510750
 108.3358760 120.9994510  80.0482880 122.2526860 107.7835930  75.1657610
 122.1915260 106.8397150  75.0188630 123.0318890 107.8916020  75.7111070
 106.5579610 123.9228290  74.1281560 106.3901650 123.2898970  74.8263450
 105.6914120 124.1287690  73.7775750 107.1807630 107.7545070  71.6313420
 107.9386990 107.8673950  71.0577450 106.7184800 108.5914270  71.5856850
 113.7221440 109.8684340  74.6215730 112.9095950 109.4941230  74.2811610
 114.2263080 109.1129420  74.9236920 121.3681020 106.9348350  71.1339080
 121.5631650 107.8331800  71.4006510 120.5810890 106.7035430  71.6272030
 108.1642310 122.6161520  71.5731700 107.6389930 122.9969550  70.8693660
 108.0886890 123.2412290  72.2941410 109.5532780 108.2809120  70.1715390
 110.0825540 107.4938920  70.0423340 110.1861100 108.9600310  70.4050920
 111.7470620 108.0184260  73.2260780 111.1173360 107.3171570  73.3930910
 111.2075760 108.7788390  73.0093940 122.9207630 124.1749060  72.8945640
 123.0959820 123.4886800  72.2506560 122.2229200 124.6996110  72.5022310
 111.8726180 107.2968240  85.6613270 111.5910450 107.8001840  84.8974090
 112.2545880 106.4989990  85.2955400 110.7635280 124.5643900  70.4480950
 111.4954100 124.2803180  69.9004840 111.0228950 124.3257180  71.3380330
 109.9250070 120.6808630  70.4527280 109.2958950 121.1493730  71.0013110
 110.0397900 119.8357850  70.8873470 118.4741640 106.7121820  86.2393740
 118.3607090 107.0316430  87.1345260 119.2911380 107.1134330  85.9431020
 121.2540130 123.8593350  85.7212430 122.0465450 123.3642580  85.5138390
 121.5473280 124.5383490  86.3288040 115.5117830 116.5093310  58.4837750
 114.7359930 116.0293750  58.7736320 116.1630760 115.8298960  58.3093910
 119.5325260 120.9153500  57.2636880 119.0706790 120.1440740  57.5924050
 120.3450810 120.9419570  57.7689330 107.9375610 111.7815010  53.1455900
 107.0492310 112.1230980  53.0435780 108.2216800 111.5815330  52.2536730
 115.7588570 123.2011510  56.8840870 115.1400010 123.6569010  56.3135310
 116.6140350 123.3562970  56.4830570 114.9526820 119.1850500  58.4907910
 114.8835100 118.2440440  58.3297040 115.7146680 119.2751910  59.0630480
 115.9831990 111.9920880  58.7176840 116.3596810 111.1192760  58.6050510
 115.8851500 112.3279580  57.8267280 110.2380830 107.9731440  62.7782880
 110.2399270 108.4903830  61.9728780 109.4085140 107.4961620  62.7552810
 116.6251920 118.0850750  54.2772780 116.0069190 118.5500200  53.7135500
 117.1375170 118.7778230  54.6942290 111.4883680 117.6126620  60.9556380
 111.1553060 118.2395540  61.5977450 111.6650360 118.1388500  60.1758050
 110.7002780 119.5807420  62.7705560 111.3176780 120.2558500  62.4890010
 109.8395900 119.9895400  62.6793060 121.6180370 121.0446830  60.6860200
 120.9343890 121.7145940  60.6776870 122.1574660 121.2427480  59.9205060
 113.6024050 107.1723670  57.1097920 113.9099030 106.6170560  56.3933420
 112.6724750 107.3068130  56.9270910 119.1539110 122.8890960  59.4005380
 119.1666270 122.4853250  58.5327640 118.6014330 123.6638250  59.2966810
 120.4484530 119.6107180  54.4895550 120.3380860 118.6681510  54.6144970
 120.4452780 119.9722820  55.3758310 118.5524550 117.7920800  60.7287990
 118.9693340 117.5780910  59.8941450 119.2764370 118.0493590  61.2996610
 119.4628660 112.9777340  61.7659100 119.0499840 113.8031050  62.0199090
 118.7304610 112.3922380  61.5735460 111.5961450 115.7637240  56.6277770
 111.1918450 115.0514490  56.1323670 111.6824570 115.4190480  57.5165810
 120.1528760 123.0236670  62.4540080 119.6759320 123.8308860  62.2612690
 119.4690550 122.3715000  62.6066290 109.9832800 116.0599810  64.0182150
 109.8440570 116.9322610  64.3869550 109.1014160 115.7172620  63.8730090
 116.3062180 120.9775680  55.3247280 116.7458090 121.7200010  54.9102670
 116.2449070 121.2202250  56.2486240 108.2966080 114.6582220  54.1284420
 108.1763680 115.3844310  53.5165690 107.9866970 113.8885130  53.6512330
 123.7327970 122.7848610  67.5231470 124.2087690 123.2631500  68.2020550
 124.3535130 122.7166100  66.7976970 105.9351450 117.8297360  59.9353060
 106.0131870 117.9646130  58.9908780 106.5493130 117.1213250  60.1281180
 123.1361220 119.9761460  64.6831480 123.2624280 119.7373340  63.7648660
 123.1782600 119.1446000  65.1553560 116.9977960 123.6789460  63.2526290
 117.5122630 123.5897470  64.0548720 116.1547040 124.0249160  63.5454200
 118.9732360 123.9644800  52.6810290 118.8133500 123.6747740  53.5792120
 118.8079070 123.1884930  52.1455520 118.2408420 123.0995070  55.3156780
 118.6965370 122.3184450  55.6295400 118.5800940 123.8101890  55.8597960
 122.9885230 112.0293920  65.6481220 122.3729500 112.5373590  65.1196680
 122.6681650 111.1292250  65.5907160 105.9910970 118.8711530  62.4747520
 106.1542010 118.4016890  61.6566890 106.4563420 118.3635090  63.1396360
 120.0504060 112.0894760  64.2440070 119.1997650 111.7900510  64.5649140
 119.8905850 112.3336770  63.3323890 117.1453770 113.5896510  66.3438860
 117.4707180 112.7560260  66.0041090 117.9334100 114.1125030  66.4917190
 105.6140990 112.2998690  49.3016190 105.5315660 113.2429450  49.4431180
 105.2624050 112.1573600  48.4228540 116.9761730 114.3583520  59.9634050
 116.2442850 114.8670330  60.3124150 116.5786070 113.5413500  59.6622830
 117.4387640 109.8117200  59.3756990 117.4560380 110.2625850  60.2198840
 117.1903220 108.9122840  59.5890430 112.4880770 114.3450940  50.7576600
 111.9197670 113.8969190  50.1312510 113.1969770 114.7043720  50.2241750
 120.8658390 107.2249380  65.2143370 121.1904160 106.4939040  65.7401350
 120.9014900 106.9063020  64.3124360 107.5649950 118.2462960  64.6343330
 107.1804740 117.6056630  65.2326290 107.8762140 118.9499080  65.2038060
 113.7147090 115.0939500  60.1151950 114.0817220 114.6198070  60.8613290
 113.5252150 115.9681070  60.4560290 111.5046460 114.1348140  62.4336160
 111.2003530 115.0140120  62.6586520 112.4592920 114.1947930  62.4693600
 120.7916230 117.3374490  58.8229400 121.5115350 117.8329780  58.4325510
 120.5898050 116.6592380  58.1783270 107.5610190 114.9750880  63.5807520
 107.2025130 115.6404730  64.1680860 107.2664750 114.1434430  63.9520140
 122.3162970 116.8711460  63.8070780 121.5911160 117.4640240  63.6100170
 122.8438430 116.8635000  63.0084150 122.2676080 121.2686200  53.4582940
 121.6252240 120.6141820  53.7326660 121.8806740 121.6741290  52.6823610
 117.8462560 118.5971630  57.3054630 118.1986380 117.9999760  56.6456000
 116.9624890 118.2715860  57.4762880 113.9325840 119.3569320  54.7125040
 114.6196970 119.9038530  55.0932630 113.1458260 119.9010050  54.7474650
 106.0718240 114.9742140  50.2042120 106.9413090 115.2566940  50.4878040
 105.5808560 115.7878010  50.0890930 113.2353050 116.3615350  54.3250400
 113.6915830 117.1720600  54.5510590 112.8841260 116.0438490  55.1568890
 115.5385660 121.8721690  61.5542700 116.1827880 122.0781070  62.2316120
 115.9015100 121.1110090  61.1013550 109.1364830 106.7053000  54.7972920
 109.0079460 106.6970900  55.7457840 108.3126850 107.0436090  54.4463930
 116.8117740 119.8754040  60.2720150 117.4539970 119.1747200  60.3852320
 117.3367090 120.6552480  60.0917040 106.4389490 124.1869520  50.7703750
 106.7987130 124.7858860  50.1161020 106.2981830 124.7329410  51.5438780
 106.1358760 108.4644120  64.2579620 105.4217280 108.6641040  64.8632230
 106.5553800 107.6883690  64.6294420 106.4231350 122.4524380  65.2446150
 106.5322470 121.5119120  65.1041540 105.7711910 122.7179130  64.5959880
 117.6297540 110.9566430  62.0081070 117.9978360 110.1361640  62.3360640
 116.7695740 111.0168320  62.4236720 114.0835820 124.1515280  54.9450280
 114.3377320 124.1136670  54.0229650 113.1348300 124.0248610  54.9378530
 121.7966390 109.8273980  63.0747430 121.2939990 110.5679380  63.4141240
 122.6123050 110.2157980  62.7584220 108.7616800 114.1851830  50.7645640
 108.8420390 113.2379340  50.8763040 109.6536550 114.5158710  50.8706300
 122.0913980 122.2416010  58.1963050 122.2161400 123.0647180  58.6686860
 122.9579540 122.0306740  57.8487200 108.5689790 123.5193290  67.0565760
 109.3702520 123.8405340  67.4701160 108.0541610 123.1588870  67.7785670
 121.7263990 122.7347660  51.1142490 121.4405500 122.3212800  50.2996670
 121.5283540 123.6635370  50.9943010 106.2887600 116.0066750  66.0001810
 106.7926620 115.4274030  66.5718040 105.5495020 116.2906980  66.5378180
 108.3210680 114.1496340  66.8951880 108.3616020 113.8510210  67.8037110
 109.1756180 114.5503950  66.7359400 119.6316720 114.5354060  66.6306710
 120.2137490 113.7806380  66.5427190 119.8078490 115.0661500  65.8538190
 118.5961580 115.4331750  62.5563840 118.0696800 115.9574370  61.9528980
 118.9392920 116.0659140  63.1873570 110.9947970 112.8225120  49.0013550
 110.7937030 111.9592480  49.3626890 110.8240020 112.7358480  48.0635150
 111.7717200 123.4531390  63.7121220 111.2338290 124.1777450  63.3929920
 112.0251160 122.9761730  62.9218560 109.7930770 109.9225740  48.9891430
 110.0956670 109.9293170  48.0810580 110.5325360 109.5723600  49.4859090
 114.6279410 124.6882600  63.9707870 114.5538110 125.5917740  64.2780240
 113.7258250 124.3694500  63.9429940 115.1764740 123.8541110  51.5934230
 116.0715530 124.1926080  51.6152990 115.2082370 123.1320520  50.9658510
 122.1559090 122.3844780  64.3000430 121.5561080 122.4437340  63.5564350
 122.2852990 121.4449760  64.4297280 123.3960540 120.1262600  49.6370140
 122.5653500 120.1939250  50.1077370 123.5732370 121.0166720  49.3337000
 106.3521340 115.3948010  56.3712000 105.6970180 115.1259650  55.7271700
 107.1899290 115.2852490  55.9213980 120.8410730 119.1096760  62.3976590
 120.0270570 119.5393920  62.6602380 121.2484930 119.7215170  61.7845640
 107.3897270 115.7800580  60.9115340 107.7570310 115.6927980  61.7911360
 106.8208090 115.0167130  60.8122200 122.1901130 114.2484960  63.9245810
 121.9587220 114.0197710  63.0243760 122.4505680 115.1684510  63.8790700
 106.9413270 112.6909670  64.8173760 106.0469320 112.6576430  65.1567470
 107.4810820 112.8896460  65.5825010 120.6289200 109.4741390  66.7025510
 121.5059380 109.4824790  67.0859510 120.6410040 108.7372230  66.0917860
 105.5659420 112.6046940  52.3137330 104.6623500 112.8677140  52.1388990
 106.0500040 112.8758110  51.5337290 108.1086630 111.6612480  50.2231710
 108.8178330 111.2395700  49.7378990 107.3926570 111.7287710  49.5915060
 107.7560790 107.7151810  49.2634360 108.4788920 108.2560750  49.5815580
 108.0285310 107.4415230  48.3875900 121.3405320 107.1599360  62.5226620
 121.9777540 107.7733500  62.8885810 121.4880210 107.1960020  61.5775850
 123.9568360 109.8223810  51.9306470 123.1619860 109.7568930  52.4599380
 124.1611640 110.7574450  51.9191820 120.8986780 123.8615360  55.9244860
 121.4945850 123.5399930  55.2479280 121.1564930 123.3887180  56.7158130
 107.1984980 107.1213670  61.9082300 106.8499800 107.5777490  62.6740480
 106.8672680 106.2270800  61.9904730 108.8049350 120.2933270  66.0735490
 108.7618980 119.9226180  66.9549950 108.9360360 121.2310840  66.2137310
 112.5055380 121.8492860  61.6745210 112.2646740 122.1167420  60.7875730
 113.4458020 122.0198590  61.7296070 123.7659540 123.8687240  62.4755850
 123.2717820 124.2656110  61.7582980 123.1572830 123.2436450  62.8693130
 107.8705620 106.6489870  65.1833070 108.4188610 106.4677920  64.4199180
 107.9360930 105.8583980  65.7189380 108.6437380 123.2395520  63.1933270
 108.0497700 123.1080220  63.9323310 108.6361220 122.4033660  62.7275370
 118.0892400 106.5327750  61.3963300 117.2152240 106.8662860  61.1936230
 117.9803150 106.0600930  62.2215170 118.9964380 108.7398620  62.7805020
 118.6677740 107.9250380  62.4006750 119.9446680 108.6968430  62.6570710
 121.4498990 124.5110660  59.7542590 120.9901960 125.2626470  59.3800610
 120.8211450 123.7917130  59.6957390 108.2749610 120.6053900  62.1441310
 107.5483670 119.9859190  62.0767260 108.3358760 120.9994510  61.2739390
 114.6190210 123.7107390  59.7559700 114.9068020 123.4561690  58.8792710
 115.1313430 123.1584750  60.3465270 115.8367220 107.4497590  60.3356210
 115.0539010 107.9243090  60.6152970 115.5430150 106.5452420  60.2269390
 120.3888290 108.1520690  58.3805300 120.8296380 108.0965790  57.5326900
 120.1195880 109.0678700  58.4515480 122.2526860 107.7835930  56.3914120
 122.1915260 106.8397150  56.2445140 123.0318890 107.8916020  56.9367580
 107.1807630 107.7545070  52.8569930 107.9386990 107.8673950  52.2833960
 106.7184800 108.5914270  52.8113360 118.2246420 106.5326790  57.0855310
 118.8275790 107.1047000  57.5603830 117.4839410 107.0966230  56.8629210
 121.3681020 106.9348350  52.3595590 121.5631650 107.8331800  52.6263020
 120.5810890 106.7035430  52.8528540 109.5532780 108.2809120  51.3971900
 110.0825540 107.4938920  51.2679850 110.1861100 108.9600310  51.6307430
 114.6862570 124.6323490  67.1227900 115.6129880 124.3967760  67.1663860
 114.6713000 125.4595490  66.6413930 122.9207630 124.1749060  54.1202150
 123.0959820 123.4886800  53.4763070 122.2229200 124.6996110  53.7278820
 118.4741640 106.7121820  67.4650250 118.3607090 107.0316430  68.3601770
 119.2911380 107.1134330  67.1687530 121.2540130 123.8593350  66.9468940
 122.0465450 123.3642580  66.7394900 121.5473280 124.5383490  67.5544550
 117.3799790 114.7314290  37.8284990 117.2993840 113.8168900  37.5576700
 116.9664210 115.2281360  37.1224700 115.5117830 116.5093310  39.7094260
 114.7359930 116.0293750  39.9992830 116.1630760 115.8298960  39.5350420
 109.5283660 116.8213120  40.5870020 108.6968540 116.5661830  40.9866530
 110.1364640 116.8923890  41.3227940 119.5325260 120.9153500  38.4893390
 119.0706790 120.1440740  38.8180560 120.3450810 120.9419570  38.9945840
 109.5084920 120.8553210  40.7828040 109.8112960 119.9650950  40.6038260
 110.2528510 121.4123430  40.5550290 105.9008620 114.3820660  40.2552110
 106.4724730 113.6142860  40.2555750 105.9010160 114.6809420  39.3458720
 115.7588570 123.2011510  38.1097380 115.1400010 123.6569010  37.5391820
 116.6140350 123.3562970  37.7087080 114.9526820 119.1850500  39.7164420
 114.8835100 118.2440440  39.5553550 115.7146680 119.2751910  40.2886990
 107.1433490 109.7905020  42.0421040 106.9636330 108.8930770  42.3223800
 106.7413570 110.3376890  42.7167990 115.9831990 111.9920880  39.9433350
 116.3596810 111.1192760  39.8307020 115.8851500 112.3279580  39.0523790
 119.7656110 109.4871320  36.8761690 120.5865730 108.9967890  36.9187170
 119.7990190 110.0768980  37.6293530 107.7620160 112.2865520  40.6503380
 108.4430270 112.5503890  41.2690780 107.4468210 111.4466390  40.9841390
 111.9544730 113.3332880  39.7375970 112.4622950 113.8313850  40.3780990
 112.4857970 112.5568080  39.5615330 124.0555660 111.5038070  43.4405320
 123.3507830 111.8919780  42.9220430 124.3213580 112.1988360  44.0426250
 110.2380830 107.9731440  44.0039390 110.2399270 108.4903830  43.1985290
 109.4085140 107.4961620  43.9809320 116.6251920 118.0850750  35.5029290
 116.0069190 118.5500200  34.9392010 117.1375170 118.7778230  35.9198800
 111.4883680 117.6126620  42.1812890 111.1553060 118.2395540  42.8233960
 111.6650360 118.1388500  41.4014560 120.0017590 111.4271700  39.6489230
 119.2973160 111.7156590  40.2292340 120.3629750 112.2371810  39.2888790
 109.9196160 109.6841400  42.0109840 110.2612970 110.5283450  41.7163710
 108.9811970 109.8325140  42.1275180 110.7002780 119.5807420  43.9962070
 111.3176780 120.2558500  43.7146520 109.8395900 119.9895400  43.9049570
 105.9935120 118.7707280  32.8768920 105.6163100 119.2594380  32.1453820
 106.2508190 119.4432560  33.5075450 121.6180370 121.0446830  41.9116710
 120.9343890 121.7145940  41.9033380 122.1574660 121.2427480  41.1461570
 123.0704510 110.8726490  40.0398440 122.1229420 110.9065470  40.1713870
 123.3954500 111.6865440  40.4247800 119.1539110 122.8890960  40.6261890
 119.1666270 122.4853250  39.7584150 118.6014330 123.6638250  40.5223320
 120.4484530 119.6107180  35.7152060 120.3380860 118.6681510  35.8401480
 120.4452780 119.9722820  36.6014820 118.5524550 117.7920800  41.9544500
 118.9693340 117.5780910  41.1197960 119.2764370 118.0493590  42.5253120
 115.9904810 115.2372500  35.0714550 115.0634090 115.1709880  35.3003020
 116.1429630 116.1752630  34.9569790 115.9773890 111.5089500  32.0681710
 115.0377560 111.6703460  32.1534170 116.2957150 112.2275180  31.5217700
 122.4986650 116.1908020  42.0460740 121.6705280 116.2601110  41.5710870
 123.0937130 116.7762330  41.5776570 120.0202100 116.7992800  35.5749800
 119.4014520 116.4612350  34.9276100 120.0026550 116.1552560  36.2828990
 119.4628660 112.9777340  42.9915610 119.0499840 113.8031050  43.2455600
 118.7304610 112.3922380  42.7991970 111.5961450 115.7637240  37.8534280
 111.1918450 115.0514490  37.3580180 111.6824570 115.4190480  38.7422320
 112.0643150 119.4504800  40.0173490 111.7671440 118.8450270  39.3381270
 113.0142970 119.4882110  39.9062850 110.3090070 112.5380450  41.6333320
 110.8604660 112.6475790  40.8586570 110.8233580 112.9118050  42.3488550
 120.1528760 123.0236670  43.6796590 119.6759320 123.8308860  43.4869200
 119.4690550 122.3715000  43.8322800 118.1966800 116.0379610  32.5822550
 118.6360080 115.2002040  32.4360370 118.9095220 116.6709010  32.6686690
 109.9832800 116.0599810  45.2438660 109.8440570 116.9322610  45.6126060
 109.1014160 115.7172620  45.0986600 116.3062180 120.9775680  36.5503790
 116.7458090 121.7200010  36.1359180 116.2449070 121.2202250  37.4742750
 121.7783940 107.2922420  30.8963590 121.4656600 107.3849250  31.7962660
 122.5396410 107.8703450  30.8461020 108.2966080 114.6582220  35.3540930
 108.1763680 115.3844310  34.7422200 107.9866970 113.8885130  34.8768840
 123.7327970 122.7848610  48.7487980 124.2087690 123.2631500  49.4277060
 124.3535130 122.7166100  48.0233480 105.9351450 117.8297360  41.1609570
 106.0131870 117.9646130  40.2165290 106.5493130 117.1213250  41.3537690
 107.1799080 119.5297550  37.5715750 106.7727160 119.6712140  36.7169350
 108.0712090 119.2457710  37.3686960 123.1361220 119.9761460  45.9087990
 123.2624280 119.7373340  44.9905170 123.1782600 119.1446000  46.3810070
 116.9977960 123.6789460  44.4782800 117.5122630 123.5897470  45.2805230
 116.1547040 124.0249160  44.7710710 118.9732360 123.9644800  33.9066800
 118.8133500 123.6747740  34.8048630 118.8079070 123.1884930  33.3712030
 111.4520740 123.7443330  35.6838420 111.2763220 122.8278870  35.4706220
 110.5976480 124.1030620  35.9236220 118.6758490 121.4732360  32.4664800
 117.9823650 121.4709650  31.8067080 119.4181350 121.0491680  32.0358970
 118.2408420 123.0995070  36.5413290 118.6965370 122.3184450  36.8551910
 118.5800940 123.8101890  37.0854470 105.9910970 118.8711530  43.7004030
 106.1542010 118.4016890  42.8823400 106.4563420 118.3635090  44.3652870
 115.0499550 110.8685810  44.3399920 114.5878920 111.0768830  45.1519860
 114.6477660 110.0545160  44.0370590 120.0504060 112.0894760  45.4696580
 119.1997650 111.7900510  45.7905650 119.8905850 112.3336770  44.5580400
 112.8005640 108.5464620  40.5954200 113.0977970 109.4527450  40.5146220
 113.3491200 108.0583400  39.9813770 117.7841720 113.1314230  35.0636500
 117.1850610 113.8550030  34.8800120 118.3321330 113.0691010  34.2812950
 112.9943170 114.0236440  47.1306120 112.8986770 113.0831170  46.9806520
 113.8375150 114.2451510  46.7354190 116.3906590 111.7677770  37.0939780
 116.7836160 112.0849970  36.2808470 116.7523440 110.8889650  37.2084300
 108.1253710 110.4350110  45.2839900 107.7317100 111.2825320  45.4912680
 107.4372110 109.7976480  45.4748540 105.4270760 108.3578570  39.3169980
 105.1383810 108.9281430  40.0294960 106.1716520 107.8783020  39.6801210
 105.6140990 112.2998690  30.5272700 105.5315660 113.2429450  30.6687690
 105.2624050 112.1573600  29.6485050 116.9761730 114.3583520  41.1890560
 116.2442850 114.8670330  41.5380660 116.5786070 113.5413500  40.8879340
 117.4387640 109.8117200  40.6013500 117.4560380 110.2625850  41.4455350
 117.1903220 108.9122840  40.8146940 112.4880770 114.3450940  31.9833110
 111.9197670 113.8969190  31.3569020 113.1969770 114.7043720  31.4498260
 107.5649950 118.2462960  45.8599840 107.1804740 117.6056630  46.4582800
 107.8762140 118.9499080  46.4294570 113.7147090 115.0939500  41.3408460
 114.0817220 114.6198070  42.0869800 113.5252150 115.9681070  41.6816800
 111.5046460 114.1348140  43.6592670 111.2003530 115.0140120  43.8843030
 112.4592920 114.1947930  43.6950110 110.0328250 118.3409130  34.2559520
 109.2590510 117.8006750  34.0958240 110.7622880 117.8215740  33.9177280
 120.7916230 117.3374490  40.0485910 121.5115350 117.8329780  39.6582020
 120.5898050 116.6592380  39.4039780 116.1735030 117.4083550  45.9354910
 116.1072340 116.4879220  45.6812500 115.5440170 117.5058990  46.6499550
 118.9674560 113.1032100  32.4877460 119.8554180 113.4149330  32.3128800
 118.9379650 112.2304350  32.0958040 110.0765650 118.0089510  37.8938330
 110.5944320 117.2057770  37.8395220 109.6249670 117.9468650  38.7355160
 114.9635150 119.2755790  33.1665630 115.3050850 120.0198020  32.6708950
 114.1347860 119.5886910  33.5290460 107.5610190 114.9750880  44.8064030
 107.2025130 115.6404730  45.3937370 107.2664750 114.1434430  45.1776650
 110.7623310 115.4335120  47.6903580 110.4623450 115.5792300  46.7931400
 111.5334550 114.8740410  47.5976970 116.1051760 120.2304120  45.6858710
 116.1196300 119.2985080  45.4677620 115.3976860 120.3163880  46.3248480
 121.2388830 114.4143940  31.9557320 121.1552550 114.8458160  31.1053760
 121.9583020 114.8742290  32.3884140 122.3162970 116.8711460  45.0327290
 121.5911160 117.4640240  44.8356680 122.8438430 116.8635000  44.2340660
 122.2676080 121.2686200  34.6839450 121.6252240 120.6141820  34.9583170
 121.8806740 121.6741290  33.9080120 117.8462560 118.5971630  38.5311140
 118.1986380 117.9999760  37.8712510 116.9624890 118.2715860  38.7019390
 113.9325840 119.3569320  35.9381550 114.6196970 119.9038530  36.3189140
 113.1458260 119.9010050  35.9731160 106.0718240 114.9742140  31.4298630
 106.9413090 115.2566940  31.7134550 105.5808560 115.7878010  31.3147440
 113.2353050 116.3615350  35.5506910 113.6915830 117.1720600  35.7767100
 112.8841260 116.0438490  36.3825400 115.5385660 121.8721690  42.7799210
 116.1827880 122.0781070  43.4572630 115.9015100 121.1110090  42.3270060
 116.8117740 119.8754040  41.4976660 117.4539970 119.1747200  41.6108830
 117.3367090 120.6552480  41.3173550 120.6573460 120.1602660  31.2215800
 120.4311040 119.4433100  31.8140440 120.2669660 119.9115100  30.3837550
 118.5855360 120.6748940  44.7012720 118.9211600 121.2615630  45.3790640
 117.6655700 120.5441650  44.9310510 106.4389490 124.1869520  31.9960260
 106.7987130 124.7858860  31.3417530 106.2981830 124.7329410  32.7695290
 106.1358760 108.4644120  45.4836130 105.4217280 108.6641040  46.0888740
 106.5553800 107.6883690  45.8550930 120.2389710 118.0774600  32.8829960
 119.9511410 118.5387290  33.6707840 121.0341880 117.6172370  33.1514180
 106.4231350 122.4524380  46.4702660 106.5322470 121.5119120  46.3298050
 105.7711910 122.7179130  45.8216390 112.4558110 121.5700720  32.8133930
 112.4468210 122.3030410  32.1978440 111.5356470 121.3232300  32.9060890
 108.0564750 116.7915610  33.5580690 107.4492700 117.5314510  33.5675990
 108.5314100 116.8814970  32.7318890 117.6297540 110.9566430  43.2337580
 117.9978360 110.1361640  43.5617150 116.7695740 111.0168320  43.6493230
 120.9959570 109.9123370  34.0425140 120.3672730 110.0169040  33.3283370
 120.5011490 110.1320150  34.8319020 115.4417710 121.6328960  31.4759120
 115.5429690 121.4292950  30.5461100 114.5419450 121.3787240  31.6806900
 114.5899530 113.6106020  43.4575550 115.0884780 114.0851840  44.1227400
 114.7322480 112.6869540  43.6645580 116.9959030 108.9159980  36.8978810
 116.8726810 108.9346110  35.9488320 117.9443590 108.9638920  37.0177210
 114.0835820 124.1515280  36.1706790 114.3377320 124.1136670  35.2486160
 113.1348300 124.0248610  36.1635040 120.0888400 115.0707160  37.7465300
 119.1478540 115.0857390  37.9212990 120.4032470 114.2843120  38.1925600
 110.0670040 116.7526760  31.3069260 110.8333310 116.6408120  31.8694690
 110.1444730 116.0564730  30.6546030 108.7616800 114.1851830  31.9902150
 108.8420390 113.2379340  32.1019550 109.6536550 114.5158710  32.0962810
 122.0913980 122.2416010  39.4219560 122.2161400 123.0647180  39.8943370
 122.9579540 122.0306740  39.0743710 109.5631510 124.3347220  39.0936690
 110.2993990 123.7862680  39.3645260 109.9472430 125.2003230  38.9542680
 106.4476990 120.4020790  34.9678200 105.5216770 120.6441930  34.9583610
 106.9133420 121.2295050  34.8462950 112.6733820 123.5077530  30.9162260
 113.4662430 123.7966360  30.4644050 112.1538170 123.0769700  30.2374740
 118.8354790 123.3553450  46.8407090 119.7876540 123.2711470  46.7907330
 118.6883010 124.0195160  47.5140880 121.7263990 122.7347660  32.3399000
 121.4405500 122.3212800  31.5253180 121.5283540 123.6635370  32.2199520
 106.2887600 116.0066750  47.2258320 106.7926620 115.4274030  47.7974550
 105.5495020 116.2906980  47.7634690 113.1911220 118.7280940  30.7804610
 113.0861860 118.1133290  31.5065990 113.0235440 118.2046830  29.9967620
 113.3425540 117.4137740  46.7593840 112.5771210 117.9822740  46.6748510
 113.5241500 117.1213950  45.8662070 116.4313950 117.7900970  31.3846600
 115.8824050 118.2370270  32.0289340 117.0533210 117.2850220  31.9084270
 108.3210680 114.1496340  48.1208390 108.3616020 113.8510210  49.0293620
 109.1756180 114.5503950  47.9615910 112.0989070 116.7491890  33.2811900
 112.5205490 116.5831760  34.1243290 112.2239910 115.9392120  32.7867040
 110.2616490 112.7288440  46.0882880 109.7312950 112.2379390  45.4606220
 110.9304560 113.1572640  45.5540810 114.6116710 115.7729500  30.5289000
 115.1322370 115.0578520  30.1630150 115.2585110 116.4115370  30.8289510
 110.7488790 109.6950810  46.1680170 110.6545660 109.0771560  45.4431040
 110.1686180 110.4217100  45.9410080 113.5150230 108.2524050  43.2007560
 113.0667530 108.2748310  42.3553110 112.8815430 107.8543070  43.7977860
 113.9209780 117.1478380  43.8220000 114.3397890 117.9911110  43.6496240
 113.0018410 117.2850420  43.5926780 116.2573680 114.8794560  45.2057840
 116.3769890 114.2835700  45.9452680 117.1167680 114.9164250  44.7859140
 118.5961580 115.4331750  43.7820350 118.0696800 115.9574370  43.1785490
 118.9392920 116.0659140  44.4130080 110.9947970 112.8225120  30.2270060
 110.7937030 111.9592480  30.5883400 110.8240020 112.7358480  29.2891660
 111.7717200 123.4531390  44.9377730 111.2338290 124.1777450  44.6186430
 112.0251160 122.9761730  44.1475070 113.0242450 111.4215910  46.4633660
 113.6142140 111.1131760  47.1511480 112.2062690 110.9495660  46.6193560
 117.8435880 111.0381720  46.6966680 117.1551400 110.3763260  46.6316670
 118.5641900 110.5919990  47.1415140 118.4736280 107.6333350  32.7556940
 118.7538570 106.7901250  33.1116360 117.7002010 107.8656460  33.2695690
 114.6279410 124.6882600  45.1964380 114.5538110 125.5917740  45.5036750
 113.7258250 124.3694500  45.1686450 115.1764740 123.8541110  32.8190740
 116.0715530 124.1926080  32.8409500 115.2082370 123.1320520  32.1915020
 108.8160900 119.2268160  31.0477740 109.2535770 119.7697830  31.7035320
 109.3008630 118.4015110  31.0574080 106.0306700 122.0157190  38.4998000
 106.3609710 121.1478250  38.2676640 106.4597700 122.2215710  39.3302960
 110.6268620 120.3466200  36.1599970 110.3264160 120.2231170  37.0603880
 110.5206110 119.4874790  35.7515700 106.5196910 122.8827780  41.2379630
 106.0827900 123.0628580  42.0703780 107.0874590 123.6402400  41.0961350
 122.1559090 122.3844780  45.5256940 121.5561080 122.4437340  44.7820860
 122.2852990 121.4449760  45.6553790 123.3960540 120.1262600  30.8626650
 122.5653500 120.1939250  31.3333880 123.5732370 121.0166720  30.5593510
 122.8517000 116.8710080  33.3660850 123.6135910 117.4406730  33.4720540
 122.8671370 116.3037280  34.1369160 106.3521340 115.3948010  37.5968510
 105.6970180 115.1259650  36.9528210 107.1899290 115.2852490  37.1470490
 123.8576970 117.7260180  38.2102780 124.2285800 116.9427500  37.8038750
 124.4978900 118.4149280  38.0320080 120.8410730 119.1096760  43.6233100
 120.0270570 119.5393920  43.8858890 121.2484930 119.7215170  43.0102150
 122.9036170 117.1644450  30.5233370 123.1785010 118.0723330  30.3952590
 122.7146910 117.1006980  31.4595360 119.3011780 110.1889300  31.8187000
 119.7196660 110.0020280  30.9783660 118.9947840 109.3368350  32.1289930
 122.8001510 115.1013440  35.5162800 122.4245110 114.3341370  35.0844090
 122.0704630 115.4836140  36.0037730 107.3897270 115.7800580  42.1371850
 107.7570310 115.6927980  43.0167870 106.8208090 115.0167130  42.0378710
 106.9413270 112.6909670  46.0430270 106.0469320 112.6576430  46.3823980
 107.4810820 112.8896460  46.8081520 105.5659420 112.6046940  33.5393840
 104.6623500 112.8677140  33.3645500 106.0500040 112.8758110  32.7593800
 122.0752470 113.3270930  38.8170040 122.5989950 112.8333580  38.1860210
 122.6611890 113.4621290  39.5617610 122.2542190 113.4110800  42.3389590
 121.3044900 113.3774340  42.4534580 122.4355200 114.3210910  42.1039360
 108.1086630 111.6612480  31.4488220 108.8178330 111.2395700  30.9635500
 107.3926570 111.7287710  30.8171570 121.5652440 112.5844280  34.7562450
 122.0611560 112.3515150  35.5411330 121.3668510 111.7456120  34.3400090
 107.4452980 106.9658000  40.3913490 108.0929170 106.4155380  39.9508650
 107.8654820 107.2201150  41.2129300 122.9939600 111.2205230  37.2900130
 122.8838880 111.0661270  38.2282400 123.7547190 110.6926170  37.0475540
 123.8829870 109.0513150  30.5306270 124.8079180 108.9194330  30.3224560
 123.8605660 109.1305970  31.4842720 123.9568360 109.8223810  33.1562980
 123.1619860 109.7568930  33.6855890 124.1611640 110.7574450  33.1448330
 120.8986780 123.8615360  37.1501370 121.4945850 123.5399930  36.4735790
 121.1564930 123.3887180  37.9414640 107.1984980 107.1213670  43.1338810
 106.8499800 107.5777490  43.8996990 106.8672680 106.2270800  43.2161240
 112.5055380 121.8492860  42.9001720 112.2646740 122.1167420  42.0132240
 113.4458020 122.0198590  42.9552580 114.7109800 108.3125550  46.6558230
 114.6498690 108.9047380  47.4053640 115.6510180 108.2051510  46.5108490
 117.3484360 107.9695610  46.2950520 117.9624770 108.2874900  45.6331600
 117.8933920 107.4844200  46.9146380 123.7659540 123.8687240  43.7012360
 123.2717820 124.2656110  42.9839490 123.1572830 123.2436450  44.0949640
 107.8705620 106.6489870  46.4089580 108.4188610 106.4677920  45.6455690
 107.9360930 105.8583980  46.9445890 108.6437380 123.2395520  44.4189780
 108.0497700 123.1080220  45.1579820 108.6361220 122.4033660  43.9531880
 118.0892400 106.5327750  42.6219810 117.2152240 106.8662860  42.4192740
 117.9803150 106.0600930  43.4471680 121.4498990 124.5110660  40.9799100
 120.9901960 125.2626470  40.6057120 120.8211450 123.7917130  40.9213900
 108.2749610 120.6053900  43.3697820 107.5483670 119.9859190  43.3023770
 108.3358760 120.9994510  42.4995900 111.8794710 122.8198900  40.1547230
 112.3959730 122.2086260  39.6295490 112.5292090 123.3227680  40.6458240
 114.6190210 123.7107390  40.9816210 114.9068020 123.4561690  40.1049220
 115.1313430 123.1584750  41.5721780 115.8367220 107.4497590  41.5612720
 115.0539010 107.9243090  41.8409480 115.5430150 106.5452420  41.4525900
 122.2526860 107.7835930  37.6170630 122.1915260 106.8397150  37.4701650
 123.0318890 107.8916020  38.1624090 106.5579610 123.9228290  36.5794580
 106.3901650 123.2898970  37.2776470 105.6914120 124.1287690  36.2288770
 118.2246420 106.5326790  38.3111820 118.8275790 107.1047000  38.7860340
 117.4839410 107.0966230  38.0885720 108.1642310 122.6161520  34.0244720
 107.6389930 122.9969550  33.3206680 108.0886890 123.2412290  34.7454430
 114.6862570 124.6323490  48.3484410 115.6129880 124.3967760  48.3920370
 114.6713000 125.4595490  47.8670440 122.9207630 124.1749060  35.3458660
 123.0959820 123.4886800  34.7019580 122.2229200 124.6996110  34.9535330
 111.8726180 107.2968240  48.1126290 111.5910450 107.8001840  47.3487110
 112.2545880 106.4989990  47.7468420 110.7635280 124.5643900  32.8993970
 111.4954100 124.2803180  32.3517860 111.0228950 124.3257180  33.7893350
 109.9250070 120.6808630  32.9040300 109.2958950 121.1493730  33.4526130
 110.0397900 119.8357850  33.3386490 121.2540130 123.8593350  48.1725450
 122.0465450 123.3642580  47.9651410 121.5473280 124.5383490  48.7801060
 117.3799790 114.7314290  19.0541500 117.2993840 113.8168900  18.7833210
 116.9664210 115.2281360  18.3481210 115.5117830 116.5093310  20.9350770
 114.7359930 116.0293750  21.2249340 116.1630760 115.8298960  20.7606930
 109.5283660 116.8213120  21.8126530 108.6968540 116.5661830  22.2123040
 110.1364640 116.8923890  22.5484450 119.5325260 120.9153500  19.7149900
 119.0706790 120.1440740  20.0437070 120.3450810 120.9419570  20.2202350
 109.5084920 120.8553210  22.0084550 109.8112960 119.9650950  21.8294770
 110.2528510 121.4123430  21.7806800 107.9375610 111.7815010  15.5968920
 107.0492310 112.1230980  15.4948800 108.2216800 111.5815330  14.7049750
 105.9008620 114.3820660  21.4808620 106.4724730 113.6142860  21.4812260
 105.9010160 114.6809420  20.5715230 115.7588570 123.2011510  19.3353890
 115.1400010 123.6569010  18.7648330 116.6140350 123.3562970  18.9343590
 114.9526820 119.1850500  20.9420930 114.8835100 118.2440440  20.7810060
 115.7146680 119.2751910  21.5143500 107.1433490 109.7905020  23.2677550
 106.9636330 108.8930770  23.5480310 106.7413570 110.3376890  23.9424500
 115.9831990 111.9920880  21.1689860 116.3596810 111.1192760  21.0563530
 115.8851500 112.3279580  20.2780300 110.1137000 110.3646510  16.6307300
 110.2203750 111.2650240  16.9376060 109.2029360 110.3164480  16.3401950
 119.7656110 109.4871320  18.1018200 120.5865730 108.9967890  18.1443680
 119.7990190 110.0768980  18.8550040 107.7620160 112.2865520  21.8759890
 108.4430270 112.5503890  22.4947290 107.4468210 111.4466390  22.2097900
 111.9544730 113.3332880  20.9632480 112.4622950 113.8313850  21.6037500
 112.4857970 112.5568080  20.7871840 124.0555660 111.5038070  24.6661830
 123.3507830 111.8919780  24.1476940 124.3213580 112.1988360  25.2682760
 110.2380830 107.9731440  25.2295900 110.2399270 108.4903830  24.4241800
 109.4085140 107.4961620  25.2065830 116.6251920 118.0850750  16.7285800
 116.0069190 118.5500200  16.1648520 117.1375170 118.7778230  17.1455310
 111.4883680 117.6126620  23.4069400 111.1553060 118.2395540  24.0490470
 111.6650360 118.1388500  22.6271070 120.0017590 111.4271700  20.8745740
 119.2973160 111.7156590  21.4548850 120.3629750 112.2371810  20.5145300
 109.9196160 109.6841400  23.2366350 110.2612970 110.5283450  22.9420220
 108.9811970 109.8325140  23.3531690 110.7002780 119.5807420  25.2218580
 111.3176780 120.2558500  24.9403030 109.8395900 119.9895400  25.1306080
 105.9935120 118.7707280  14.1025430 105.6163100 119.2594380  13.3710330
 106.2508190 119.4432560  14.7331960 121.6180370 121.0446830  23.1373220
 120.9343890 121.7145940  23.1289890 122.1574660 121.2427480  22.3718080
 123.0704510 110.8726490  21.2654950 122.1229420 110.9065470  21.3970380
 123.3954500 111.6865440  21.6504310 113.6024050 107.1723670  19.5610940
 113.9099030 106.6170560  18.8446440 112.6724750 107.3068130  19.3783930
 119.1539110 122.8890960  21.8518400 119.1666270 122.4853250  20.9840660
 118.6014330 123.6638250  21.7479830 120.4484530 119.6107180  16.9408570
 120.3380860 118.6681510  17.0657990 120.4452780 119.9722820  17.8271330
 118.5524550 117.7920800  23.1801010 118.9693340 117.5780910  22.3454470
 119.2764370 118.0493590  23.7509630 115.9904810 115.2372500  16.2971060
 115.0634090 115.1709880  16.5259530 116.1429630 116.1752630  16.1826300
 115.9773890 111.5089500  13.2938220 115.0377560 111.6703460  13.3790680
 116.2957150 112.2275180  12.7474210 122.4986650 116.1908020  23.2717250
 121.6705280 116.2601110  22.7967380 123.0937130 116.7762330  22.8033080
 120.0202100 116.7992800  16.8006310 119.4014520 116.4612350  16.1532610
 120.0026550 116.1552560  17.5085500 119.4628660 112.9777340  24.2172120
 119.0499840 113.8031050  24.4712110 118.7304610 112.3922380  24.0248480
 111.5961450 115.7637240  19.0790790 111.1918450 115.0514490  18.5836690
 111.6824570 115.4190480  19.9678830 112.0643150 119.4504800  21.2430000
 111.7671440 118.8450270  20.5637780 113.0142970 119.4882110  21.1319360
 110.3090070 112.5380450  22.8589830 110.8604660 112.6475790  22.0843080
 110.8233580 112.9118050  23.5745060 120.1528760 123.0236670  24.9053100
 119.6759320 123.8308860  24.7125710 119.4690550 122.3715000  25.0579310
 111.1561580 119.1886490  27.8937800 110.2590110 119.4126460  28.1411200
 111.1814450 119.3121430  26.9449200 118.1966800 116.0379610  13.8079060
 118.6360080 115.2002040  13.6616880 118.9095220 116.6709010  13.8943200
 109.9832800 116.0599810  26.4695170 109.8440570 116.9322610  26.8382570
 109.1014160 115.7172620  26.3243110 116.3062180 120.9775680  17.7760300
 116.7458090 121.7200010  17.3615690 116.2449070 121.2202250  18.6999260
 111.7813150 122.0021510  28.6780320 111.7528580 122.4064460  27.8108750
 111.6178120 121.0731870  28.5151920 121.7783940 107.2922420  12.1220100
 121.4656600 107.3849250  13.0219170 122.5396410 107.8703450  12.0717530
 108.2966080 114.6582220  16.5797440 108.1763680 115.3844310  15.9678710
 107.9866970 113.8885130  16.1025350 123.7327970 122.7848610  29.9744490
 124.2087690 123.2631500  30.6533570 124.3535130 122.7166100  29.2489990
 105.9351450 117.8297360  22.3866080 106.0131870 117.9646130  21.4421800
 106.5493130 117.1213250  22.5794200 107.1799080 119.5297550  18.7972260
 106.7727160 119.6712140  17.9425860 108.0712090 119.2457710  18.5943470
 123.1361220 119.9761460  27.1344500 123.2624280 119.7373340  26.2161680
 123.1782600 119.1446000  27.6066580 116.9977960 123.6789460  25.7039310
 117.5122630 123.5897470  26.5061740 116.1547040 124.0249160  25.9967220
 118.9732360 123.9644800  15.1323310 118.8133500 123.6747740  16.0305140
 118.8079070 123.1884930  14.5968540 111.4520740 123.7443330  16.9094930
 111.2763220 122.8278870  16.6962730 110.5976480 124.1030620  17.1492730
 118.6758490 121.4732360  13.6921310 117.9823650 121.4709650  13.0323590
 119.4181350 121.0491680  13.2615480 118.2408420 123.0995070  17.7669800
 118.6965370 122.3184450  18.0808420 118.5800940 123.8101890  18.3110980
 122.9885230 112.0293920  28.0994240 122.3729500 112.5373590  27.5709700
 122.6681650 111.1292250  28.0420180 105.9910970 118.8711530  24.9260540
 106.1542010 118.4016890  24.1079910 106.4563420 118.3635090  25.5909380
 110.7629740 108.0017290  19.9621110 110.3197890 108.7826830  19.6305630
 111.3214730 108.3247180  20.6692050 115.0499550 110.8685810  25.5656430
 114.5878920 111.0768830  26.3776370 114.6477660 110.0545160  25.2627100
 120.0504060 112.0894760  26.6953090 119.1997650 111.7900510  27.0162160
 119.8905850 112.3336770  25.7836910 117.1453770 113.5896510  28.7951880
 117.4707180 112.7560260  28.4554110 117.9334100 114.1125030  28.9430210
 113.8788560 107.6227990  14.8426940 113.2542740 107.6187860  15.5680250
 113.7918680 106.7558950  14.4462910 112.8005640 108.5464620  21.8210710
 113.0977970 109.4527450  21.7402730 113.3491200 108.0583400  21.2070280
 110.5543960 113.1250860  17.6902360 110.3284880 112.9088030  18.5948980
 109.7736490 113.5579320  17.3448330 117.7841720 113.1314230  16.2893010
 117.1850610 113.8550030  16.1056630 118.3321330 113.0691010  15.5069460
 112.9943170 114.0236440  28.3562630 112.8986770 113.0831170  28.2063030
 113.8375150 114.2451510  27.9610700 116.3906590 111.7677770  18.3196290
 116.7836160 112.0849970  17.5064980 116.7523440 110.8889650  18.4340810
 108.1253710 110.4350110  26.5096410 107.7317100 111.2825320  26.7169190
 107.4372110 109.7976480  26.7005050 105.4270760 108.3578570  20.5426490
 105.1383810 108.9281430  21.2551470 106.1716520 107.8783020  20.9057720
 105.6140990 112.2998690  11.7529210 105.5315660 113.2429450  11.8944200
 105.2624050 112.1573600  10.8741560 116.9761730 114.3583520  22.4147070
 116.2442850 114.8670330  22.7637170 116.5786070 113.5413500  22.1135850
 113.4139120 111.0337720  20.8199560 113.4175180 110.5927670  19.9704100
 114.3090240 111.3555050  20.9271380 109.2641500 110.9164210  19.7793770
 108.9241550 111.3939440  20.5360820 108.5018820 110.4629330  19.4194870
 113.4759270 112.0349800  13.8106320 113.5972090 111.9936280  14.7592140
 113.0907780 112.8973950  13.6553050 117.4387640 109.8117200  21.8270010
 117.4560380 110.2625850  22.6711860 117.1903220 108.9122840  22.0403450
 112.4880770 114.3450940  13.2089620 111.9197670 113.8969190  12.5825530
 113.1969770 114.7043720  12.6754770 120.8658390 107.2249380  27.6656390
 121.1904160 106.4939040  28.1914370 120.9014900 106.9063020  26.7637380
 107.5649950 118.2462960  27.0856350 107.1804740 117.6056630  27.6839310
 107.8762140 118.9499080  27.6551080 113.7147090 115.0939500  22.5664970
 114.0817220 114.6198070  23.3126310 113.5252150 115.9681070  22.9073310
 106.5787580 109.8383190  18.6958440 106.2934500 109.4738860  19.5337060
 106.5166440 109.1063650  18.0821580 111.5046460 114.1348140  24.8849180
 111.2003530 115.0140120  25.1099540 112.4592920 114.1947930  24.9206620
 110.0328250 118.3409130  15.4816030 109.2590510 117.8006750  15.3214750
 110.7622880 117.8215740  15.1433790 120.7916230 117.3374490  21.2742420
 121.5115350 117.8329780  20.8838530 120.5898050 116.6592380  20.6296290
 116.2526170 108.7312450  15.4171810 115.4390780 108.2325620  15.3417120
 116.0588120 109.5710700  15.0008160 116.1735030 117.4083550  27.1611420
 116.1072340 116.4879220  26.9069010 115.5440170 117.5058990  27.8756060
 118.9674560 113.1032100  13.7133970 119.8554180 113.4149330  13.5385310
 118.9379650 112.2304350  13.3214550 110.0765650 118.0089510  19.1194840
 110.5944320 117.2057770  19.0651730 109.6249670 117.9468650  19.9611670
 114.9635150 119.2755790  14.3922140 115.3050850 120.0198020  13.8965460
 114.1347860 119.5886910  14.7546970 107.5610190 114.9750880  26.0320540
 107.2025130 115.6404730  26.6193880 107.2664750 114.1434430  26.4033160
 110.7623310 115.4335120  28.9160090 110.4623450 115.5792300  28.0187910
 111.5334550 114.8740410  28.8233480 116.1051760 120.2304120  26.9115220
 116.1196300 119.2985080  26.6934130 115.3976860 120.3163880  27.5504990
 121.2388830 114.4143940  13.1813830 121.1552550 114.8458160  12.3310270
 121.9583020 114.8742290  13.6140650 122.3162970 116.8711460  26.2583800
 121.5911160 117.4640240  26.0613190 122.8438430 116.8635000  25.4597170
 122.2676080 121.2686200  15.9095960 121.6252240 120.6141820  16.1839680
 121.8806740 121.6741290  15.1336630 117.8462560 118.5971630  19.7567650
 118.1986380 117.9999760  19.0969020 116.9624890 118.2715860  19.9275900
 113.9325840 119.3569320  17.1638060 114.6196970 119.9038530  17.5445650
 113.1458260 119.9010050  17.1987670 106.0718240 114.9742140  12.6555140
 106.9413090 115.2566940  12.9391060 105.5808560 115.7878010  12.5403950
 113.2353050 116.3615350  16.7763420 113.6915830 117.1720600  17.0023610
 112.8841260 116.0438490  17.6081910 115.5385660 121.8721690  24.0055720
 116.1827880 122.0781070  24.6829140 115.9015100 121.1110090  23.5526570
 109.1364830 106.7053000  17.2485940 109.0079460 106.6970900  18.1970860
 108.3126850 107.0436090  16.8976950 116.8117740 119.8754040  22.7233170
 117.4539970 119.1747200  22.8365340 117.3367090 120.6552480  22.5430060
 120.6573460 120.1602660  12.4472310 120.4311040 119.4433100  13.0396950
 120.2669660 119.9115100  11.6094060 118.5855360 120.6748940  25.9269230
 118.9211600 121.2615630  26.6047150 117.6655700 120.5441650  26.1567020
 106.4389490 124.1869520  13.2216770 106.7987130 124.7858860  12.5674040
 106.2981830 124.7329410  13.9951800 106.1358760 108.4644120  26.7092640
 105.4217280 108.6641040  27.3145250 106.5553800 107.6883690  27.0807440
 120.2389710 118.0774600  14.1086470 119.9511410 118.5387290  14.8964350
 121.0341880 117.6172370  14.3770690 106.4231350 122.4524380  27.6959170
 106.5322470 121.5119120  27.5554560 105.7711910 122.7179130  27.0472900
 114.4143940 120.7240270  29.0957290 114.0940810 120.0049510  29.6402980
 113.7402300 121.3995340  29.1693350 112.4558110 121.5700720  14.0390440
 112.4468210 122.3030410  13.4234950 111.5356470 121.3232300  14.1317400
 108.0564750 116.7915610  14.7837200 107.4492700 117.5314510  14.7932500
 108.5314100 116.8814970  13.9575400 117.6297540 110.9566430  24.4594090
 117.9978360 110.1361640  24.7873660 116.7695740 111.0168320  24.8749740
 120.9959570 109.9123370  15.2681650 120.3672730 110.0169040  14.5539880
 120.5011490 110.1320150  16.0575530 115.4417710 121.6328960  12.7015630
 115.5429690 121.4292950  11.7717610 114.5419450 121.3787240  12.9063410
 112.9643600 112.1909320  16.6839530 112.2559750 112.6595660  17.1253140
 113.2488080 111.5331330  17.3184720 114.5899530 113.6106020  24.6832060
 115.0884780 114.0851840  25.3483910 114.7322480 112.6869540  24.8902090
 116.9959030 108.9159980  18.1235320 116.8726810 108.9346110  17.1744830
 117.9443590 108.9638920  18.2433720 114.0835820 124.1515280  17.3963300
 114.3377320 124.1136670  16.4742670 113.1348300 124.0248610  17.3891550
 111.1678620 110.4994400  14.0590240 112.0169150 110.9364550  13.9930430
 110.8009890 110.8114660  14.8862300 121.7966390 109.8273980  25.5260450
 121.2939990 110.5679380  25.8654260 122.6123050 110.2157980  25.2097240
 120.0888400 115.0707160  18.9721810 119.1478540 115.0857390  19.1469500
 120.4032470 114.2843120  19.4182110 110.0670040 116.7526760  12.5325770
 110.8333310 116.6408120  13.0951200 110.1444730 116.0564730  11.8802540
 108.7616800 114.1851830  13.2158660 108.8420390 113.2379340  13.3276060
 109.6536550 114.5158710  13.3219320 122.0913980 122.2416010  20.6476070
 122.2161400 123.0647180  21.1199880 122.9579540 122.0306740  20.3000220
 109.5631510 124.3347220  20.3193200 110.2993990 123.7862680  20.5901770
 109.9472430 125.2003230  20.1799190 106.4476990 120.4020790  16.1934710
 105.5216770 120.6441930  16.1840120 106.9133420 121.2295050  16.0719460
 108.5689790 123.5193290  29.5078780 109.3702520 123.8405340  29.9214180
 108.0541610 123.1588870  30.2298690 112.6733820 123.5077530  12.1418770
 113.4662430 123.7966360  11.6900560 112.1538170 123.0769700  11.4631250
 117.4054420 119.6273160  29.4554190 116.7992580 119.6504760  28.7149940
 117.1008530 118.8956200  29.9921440 118.8354790 123.3553450  28.0663600
 119.7876540 123.2711470  28.0163840 118.6883010 124.0195160  28.7397390
 121.7263990 122.7347660  13.5655510 121.4405500 122.3212800  12.7509690
 121.5283540 123.6635370  13.4456030 106.2887600 116.0066750  28.4514830
 106.7926620 115.4274030  29.0231060 105.5495020 116.2906980  28.9891200
 113.1911220 118.7280940  12.0061120 113.0861860 118.1133290  12.7322500
 113.0235440 118.2046830  11.2224130 113.3425540 117.4137740  27.9850350
 112.5771210 117.9822740  27.9005020 113.5241500 117.1213950  27.0918580
 116.4313950 117.7900970  12.6103110 115.8824050 118.2370270  13.2545850
 117.0533210 117.2850220  13.1340780 120.4848890 119.1443070  28.5425370
 121.2258360 119.4818830  28.0392830 119.7221570 119.3135130  27.9895140
 108.3210680 114.1496340  29.3464900 108.3616020 113.8510210  30.2550130
 109.1756180 114.5503950  29.1872420 112.0989070 116.7491890  14.5068410
 112.5205490 116.5831760  15.3499800 112.2239910 115.9392120  14.0123550
 110.2616490 112.7288440  27.3139390 109.7312950 112.2379390  26.6862730
 110.9304560 113.1572640  26.7797320 114.6116710 115.7729500  11.7545510
 115.1322370 115.0578520  11.3886660 115.2585110 116.4115370  12.0546020
 119.1594550 117.1957900  27.0780580 119.5735570 117.3502980  27.9271000
 118.2245550 117.3213120  27.2406360 119.6316720 114.5354060  29.0819730
 120.2137490 113.7806380  28.9940210 119.8078490 115.0661500  28.3051210
 113.5150230 108.2524050  24.4264070 113.0667530 108.2748310  23.5809620
 112.8815430 107.8543070  25.0234370 113.9209780 117.1478380  25.0476510
 114.3397890 117.9911110  24.8752750 113.0018410 117.2850420  24.8183290
 116.2573680 114.8794560  26.4314350 116.3769890 114.2835700  27.1709190
 117.1167680 114.9164250  26.0115650 118.5961580 115.4331750  25.0076860
 118.0696800 115.9574370  24.4042000 118.9392920 116.0659140  25.6386590
 110.9947970 112.8225120  11.4526570 110.7937030 111.9592480  11.8139910
 110.8240020 112.7358480  10.5148170 111.7717200 123.4531390  26.1634240
 111.2338290 124.1777450  25.8442940 112.0251160 122.9761730  25.3731580
 113.0242450 111.4215910  27.6890170 113.6142140 111.1131760  28.3767990
 112.2062690 110.9495660  27.8450070 117.8435880 111.0381720  27.9223190
 117.1551400 110.3763260  27.8573180 118.5641900 110.5919990  28.3671650
 118.4736280 107.6333350  13.9813450 118.7538570 106.7901250  14.3372870
 117.7002010 107.8656460  14.4952200 109.7930770 109.9225740  11.4404450
 110.0956670 109.9293170  10.5323600 110.5325360 109.5723600  11.9372110
 114.6279410 124.6882600  26.4220890 114.5538110 125.5917740  26.7293260
 113.7258250 124.3694500  26.3942960 113.0115700 108.8660360  12.4260650
 112.6637700 108.1884350  11.8463100 113.2128470 108.4049870  13.2404040
 115.1764740 123.8541110  14.0447250 116.0715530 124.1926080  14.0666010
 115.2082370 123.1320520  13.4171530 108.8160900 119.2268160  12.2734250
 109.2535770 119.7697830  12.9291830 109.3008630 118.4015110  12.2830590
 106.0306700 122.0157190  19.7254510 106.3609710 121.1478250  19.4933150
 106.4597700 122.2215710  20.5559470 110.6268620 120.3466200  17.3856480
 110.3264160 120.2231170  18.2860390 110.5206110 119.4874790  16.9772210
 106.5196910 122.8827780  22.4636140 106.0827900 123.0628580  23.2960290
 107.0874590 123.6402400  22.3217860 122.1559090 122.3844780  26.7513450
 121.5561080 122.4437340  26.0077370 122.2852990 121.4449760  26.8810300
 123.3960540 120.1262600  12.0883160 122.5653500 120.1939250  12.5590390
 123.5732370 121.0166720  11.7850020 122.8517000 116.8710080  14.5917360
 123.6135910 117.4406730  14.6977050 122.8671370 116.3037280  15.3625670
 106.3521340 115.3948010  18.8225020 105.6970180 115.1259650  18.1784720
 107.1899290 115.2852490  18.3727000 123.8576970 117.7260180  19.4359290
 124.2285800 116.9427500  19.0295260 124.4978900 118.4149280  19.2576590
 120.8410730 119.1096760  24.8489610 120.0270570 119.5393920  25.1115400
 121.2484930 119.7215170  24.2358660 122.9036170 117.1644450  11.7489880
 123.1785010 118.0723330  11.6209100 122.7146910 117.1006980  12.6851870
 119.3011780 110.1889300  13.0443510 119.7196660 110.0020280  12.2040170
 118.9947840 109.3368350  13.3546440 122.8001510 115.1013440  16.7419310
 122.4245110 114.3341370  16.3100600 122.0704630 115.4836140  17.2294240
 107.3897270 115.7800580  23.3628360 107.7570310 115.6927980  24.2424380
 106.8208090 115.0167130  23.2635220 122.1901130 114.2484960  26.3758830
 121.9587220 114.0197710  25.4756780 122.4505680 115.1684510  26.3303720
 106.9413270 112.6909670  27.2686780 106.0469320 112.6576430  27.6080490
 107.4810820 112.8896460  28.0338030 120.6289200 109.4741390  29.1538530
 121.5059380 109.4824790  29.5372530 120.6410040 108.7372230  28.5430880
 105.5659420 112.6046940  14.7650350 104.6623500 112.8677140  14.5902010
 106.0500040 112.8758110  13.9850310 122.0752470 113.3270930  20.0426550
 122.5989950 112.8333580  19.4116720 122.6611890 113.4621290  20.7874120
 122.2542190 113.4110800  23.5646100 121.3044900 113.3774340  23.6791090
 122.4355200 114.3210910  23.3295870 108.1086630 111.6612480  12.6744730
 108.8178330 111.2395700  12.1892010 107.3926570 111.7287710  12.0428080
 107.7560790 107.7151810  11.7147380 108.4788920 108.2560750  12.0328600
 108.0285310 107.4415230  10.8388920 121.5652440 112.5844280  15.9818960
 122.0611560 112.3515150  16.7667840 121.3668510 111.7456120  15.5656600
 107.4452980 106.9658000  21.6170000 108.0929170 106.4155380  21.1765160
 107.8654820 107.2201150  22.4385810 122.9939600 111.2205230  18.5156640
 122.8838880 111.0661270  19.4538910 123.7547190 110.6926170  18.2732050
 121.3405320 107.1599360  24.9739640 121.9777540 107.7733500  25.3398830
 121.4880210 107.1960020  24.0288870 123.8829870 109.0513150  11.7562780
 124.8079180 108.9194330  11.5481070 123.8605660 109.1305970  12.7099230
 123.9568360 109.8223810  14.3819490 123.1619860 109.7568930  14.9112400
 124.1611640 110.7574450  14.3704840 120.8986780 123.8615360  18.3757880
 121.4945850 123.5399930  17.6992300 121.1564930 123.3887180  19.1671150
 107.1984980 107.1213670  24.3595320 106.8499800 107.5777490  25.1253500
 106.8672680 106.2270800  24.4417750 108.8049350 120.2933270  28.5248510
 108.7618980 119.9226180  29.4062970 108.9360360 121.2310840  28.6650330
 112.5055380 121.8492860  24.1258230 112.2646740 122.1167420  23.2388750
 113.4458020 122.0198590  24.1809090 117.3484360 107.9695610  27.5207030
 117.9624770 108.2874900  26.8588110 117.8933920 107.4844200  28.1402890
 123.7659540 123.8687240  24.9268870 123.2717820 124.2656110  24.2096000
 123.1572830 123.2436450  25.3206150 107.8705620 106.6489870  27.6346090
 108.4188610 106.4677920  26.8712200 107.9360930 105.8583980  28.1702400
 108.6437380 123.2395520  25.6446290 108.0497700 123.1080220  26.3836330
 108.6361220 122.4033660  25.1788390 118.0892400 106.5327750  23.8476320
 117.2152240 106.8662860  23.6449250 117.9803150 106.0600930  24.6728190
 118.9964380 108.7398620  25.2318040 118.6677740 107.9250380  24.8519770
 119.9446680 108.6968430  25.1083730 121.4498990 124.5110660  22.2055610
 120.9901960 125.2626470  21.8313630 120.8211450 123.7917130  22.1470410
 108.2749610 120.6053900  24.5954330 107.5483670 119.9859190  24.5280280
 108.3358760 120.9994510  23.7252410 111.8794710 122.8198900  21.3803740
 112.3959730 122.2086260  20.8552000 112.5292090 123.3227680  21.8714750
 114.6190210 123.7107390  22.2072720 114.9068020 123.4561690  21.3305730
 115.1313430 123.1584750  22.7978290 115.8367220 107.4497590  22.7869230
 115.0539010 107.9243090  23.0665990 115.5430150 106.5452420  22.6782410
 120.3888290 108.1520690  20.8318320 120.8296380 108.0965790  19.9839920
 120.1195880 109.0678700  20.9028500 122.2526860 107.7835930  18.8427140
 122.1915260 106.8397150  18.6958160 123.0318890 107.8916020  19.3880600
 106.5579610 123.9228290  17.8051090 106.3901650 123.2898970  18.5032980
 105.6914120 124.1287690  17.4545280 107.1807630 107.7545070  15.3082950
 107.9386990 107.8673950  14.7346980 106.7184800 108.5914270  15.2626380
 113.7221440 109.8684340  18.2985260 112.9095950 109.4941230  17.9581140
 114.2263080 109.1129420  18.6006450 118.2246420 106.5326790  19.5368330
 118.8275790 107.1047000  20.0116850 117.4839410 107.0966230  19.3142230
 121.3681020 106.9348350  14.8108610 121.5631650 107.8331800  15.0776040
 120.5810890 106.7035430  15.3041560 108.1642310 122.6161520  15.2501230
 107.6389930 122.9969550  14.5463190 108.0886890 123.2412290  15.9710940
 109.5532780 108.2809120  13.8484920 110.0825540 107.4938920  13.7192870
 110.1861100 108.9600310  14.0820450 111.7470620 108.0184260  16.9030310
 111.1173360 107.3171570  17.0700440 111.2075760 108.7788390  16.6863470
 114.6862570 124.6323490  29.5740920 115.6129880 124.3967760  29.6176880
 114.6713000 125.4595490  29.0926950 122.9207630 124.1749060  16.5715170
 123.0959820 123.4886800  15.9276090 122.2229200 124.6996110  16.1791840
 110.7635280 124.5643900  14.1250480 111.4954100 124.2803180  13.5774370
 111.0228950 124.3257180  15.0149860 109.9250070 120.6808630  14.1296810
 109.2958950 121.1493730  14.6782640 110.0397900 119.8357850  14.5643000
 118.4741640 106.7121820  29.9163270 118.3607090 107.0316430  30.8114790
 119.2911380 107.1134330  29.6200550 121.2540130 123.8593350  29.3981960
 122.0465450 123.3642580  29.1907920 121.5473280 124.5383490  30.0057570
 115.5117830 116.5093310   2.1607280 114.7359930 116.0293750   2.4505850
 116.1630760 115.8298960   1.9863440 109.5283660 116.8213120   3.0383040
 108.6968540 116.5661830   3.4379550 110.1364640 116.8923890   3.7740960
 109.5084920 120.8553210   3.2341060 109.8112960 119.9650950   3.0551280
 110.2528510 121.4123430   3.0063310 105.9008620 114.3820660   2.7065130
 106.4724730 113.6142860   2.7068770 105.9010160 114.6809420   1.7971740
 114.9526820 119.1850500   2.1677440 114.8835100 118.2440440   2.0066570
 115.7146680 119.2751910   2.7400010 107.1433490 109.7905020   4.4934060
 106.9636330 108.8930770   4.7736820 106.7413570 110.3376890   5.1681010
 107.7620160 112.2865520   3.1016400 108.4430270 112.5503890   3.7203800
 107.4468210 111.4466390   3.4354410 111.9544730 113.3332880   2.1888990
 112.4622950 113.8313850   2.8294010 112.4857970 112.5568080   2.0128350
 124.0555660 111.5038070   5.8918340 123.3507830 111.8919780   5.3733450
 124.3213580 112.1988360   6.4939270 110.2380830 107.9731440   6.4552410
 110.2399270 108.4903830   5.6498310 109.4085140 107.4961620   6.4322340
 111.4883680 117.6126620   4.6325910 111.1553060 118.2395540   5.2746980
 111.6650360 118.1388500   3.8527580 120.0017590 111.4271700   2.1002250
 119.2973160 111.7156590   2.6805360 120.3629750 112.2371810   1.7401810
 109.9196160 109.6841400   4.4622860 110.2612970 110.5283450   4.1676730
 108.9811970 109.8325140   4.5788200 110.7002780 119.5807420   6.4475090
 111.3176780 120.2558500   6.1659540 109.8395900 119.9895400   6.3562590
 121.6180370 121.0446830   4.3629730 120.9343890 121.7145940   4.3546400
 122.1574660 121.2427480   3.5974590 123.0704510 110.8726490   2.4911460
 122.1229420 110.9065470   2.6226890 123.3954500 111.6865440   2.8760820
 119.1539110 122.8890960   3.0774910 119.1666270 122.4853250   2.2097170
 118.6014330 123.6638250   2.9736340 118.5524550 117.7920800   4.4057520
 118.9693340 117.5780910   3.5710980 119.2764370 118.0493590   4.9766140
 122.4986650 116.1908020   4.4973760 121.6705280 116.2601110   4.0223890
 123.0937130 116.7762330   4.0289590 119.4628660 112.9777340   5.4428630
 119.0499840 113.8031050   5.6968620 118.7304610 112.3922380   5.2504990
 112.0643150 119.4504800   2.4686510 111.7671440 118.8450270   1.7894290
 113.0142970 119.4882110   2.3575870 110.3090070 112.5380450   4.0846340
 110.8604660 112.6475790   3.3099590 110.8233580 112.9118050   4.8001570
 120.1528760 123.0236670   6.1309610 119.6759320 123.8308860   5.9382220
 119.4690550 122.3715000   6.2835820 111.1561580 119.1886490   9.1194310
 110.2590110 119.4126460   9.3667710 111.1814450 119.3121430   8.1705710
 109.9832800 116.0599810   7.6951680 109.8440570 116.9322610   8.0639080
 109.1014160 115.7172620   7.5499620 111.7813150 122.0021510   9.9036830
 111.7528580 122.4064460   9.0365260 111.6178120 121.0731870   9.7408430
 123.7327970 122.7848610  11.2001000 124.2087690 123.2631500  11.8790080
 124.3535130 122.7166100  10.4746500 105.9351450 117.8297360   3.6122590
 106.0131870 117.9646130   2.6678310 106.5493130 117.1213250   3.8050710
 123.1361220 119.9761460   8.3601010 123.2624280 119.7373340   7.4418190
 123.1782600 119.1446000   8.8323090 116.9977960 123.6789460   6.9295820
 117.5122630 123.5897470   7.7318250 116.1547040 124.0249160   7.2223730
 122.9885230 112.0293920   9.3250750 122.3729500 112.5373590   8.7966210
 122.6681650 111.1292250   9.2676690 105.9910970 118.8711530   6.1517050
 106.1542010 118.4016890   5.3336420 106.4563420 118.3635090   6.8165890
 115.0499550 110.8685810   6.7912940 114.5878920 111.0768830   7.6032880
 114.6477660 110.0545160   6.4883610 120.0504060 112.0894760   7.9209600
 119.1997650 111.7900510   8.2418670 119.8905850 112.3336770   7.0093420
 117.1453770 113.5896510  10.0208390 117.4707180 112.7560260   9.6810620
 117.9334100 114.1125030  10.1686720 112.8005640 108.5464620   3.0467220
 113.0977970 109.4527450   2.9659240 113.3491200 108.0583400   2.4326790
 112.9943170 114.0236440   9.5819140 112.8986770 113.0831170   9.4319540
 113.8375150 114.2451510   9.1867210 108.1253710 110.4350110   7.7352920
 107.7317100 111.2825320   7.9425700 107.4372110 109.7976480   7.9261560
 114.6998760 110.5185080  10.8049660 114.0097080 110.3257280  11.4395750
 115.4431060 110.8019720  11.3373960 105.4270760 108.3578570   1.7683000
 105.1383810 108.9281430   2.4807980 106.1716520 107.8783020   2.1314230
 116.9761730 114.3583520   3.6403580 116.2442850 114.8670330   3.9893680
 116.5786070 113.5413500   3.3392360 117.4387640 109.8117200   3.0526520
 117.4560380 110.2625850   3.8968370 117.1903220 108.9122840   3.2659960
 120.8658390 107.2249380   8.8912900 121.1904160 106.4939040   9.4170880
 120.9014900 106.9063020   7.9893890 107.5649950 118.2462960   8.3112860
 107.1804740 117.6056630   8.9095820 107.8762140 118.9499080   8.8807590
 113.7147090 115.0939500   3.7921480 114.0817220 114.6198070   4.5382820
 113.5252150 115.9681070   4.1329820 111.5046460 114.1348140   6.1105690
 111.2003530 115.0140120   6.3356050 112.4592920 114.1947930   6.1463130
 120.7916230 117.3374490   2.4998930 121.5115350 117.8329780   2.1095040
 120.5898050 116.6592380   1.8552800 116.1735030 117.4083550   8.3867930
 116.1072340 116.4879220   8.1325520 115.5440170 117.5058990   9.1012570
 107.5610190 114.9750880   7.2577050 107.2025130 115.6404730   7.8450390
 107.2664750 114.1434430   7.6289670 110.7623310 115.4335120  10.1416600
 110.4623450 115.5792300   9.2444420 111.5334550 114.8740410  10.0489990
 116.1051760 120.2304120   8.1371730 116.1196300 119.2985080   7.9190640
 115.3976860 120.3163880   8.7761500 122.3162970 116.8711460   7.4840310
 121.5911160 117.4640240   7.2869700 122.8438430 116.8635000   6.6853680
 115.5385660 121.8721690   5.2312230 116.1827880 122.0781070   5.9085650
 115.9015100 121.1110090   4.7783080 116.8117740 119.8754040   3.9489680
 117.4539970 119.1747200   4.0621850 117.3367090 120.6552480   3.7686570
 118.5855360 120.6748940   7.1525740 118.9211600 121.2615630   7.8303660
 117.6655700 120.5441650   7.3823530 106.1358760 108.4644120   7.9349150
 105.4217280 108.6641040   8.5401760 106.5553800 107.6883690   8.3063950
 106.4231350 122.4524380   8.9215680 106.5322470 121.5119120   8.7811070
 105.7711910 122.7179130   8.2729410 114.4143940 120.7240270  10.3213800
 114.0940810 120.0049510  10.8659490 113.7402300 121.3995340  10.3949860
 117.6297540 110.9566430   5.6850600 117.9978360 110.1361640   6.0130170
 116.7695740 111.0168320   6.1006250 114.5899530 113.6106020   5.9088570
 115.0884780 114.0851840   6.5740420 114.7322480 112.6869540   6.1158600
 121.7966390 109.8273980   6.7516960 121.2939990 110.5679380   7.0910770
 122.6123050 110.2157980   6.4353750 108.5689790 123.5193290  10.7335290
 109.3702520 123.8405340  11.1470690 108.0541610 123.1588870  11.4555200
 117.4054420 119.6273160  10.6810700 116.7992580 119.6504760   9.9406450
 117.1008530 118.8956200  11.2177950 118.8354790 123.3553450   9.2920110
 119.7876540 123.2711470   9.2420350 118.6883010 124.0195160   9.9653900
 106.2887600 116.0066750   9.6771340 106.7926620 115.4274030  10.2487570
 105.5495020 116.2906980  10.2147710 113.3425540 117.4137740   9.2106860
 112.5771210 117.9822740   9.1261530 113.5241500 117.1213950   8.3175090
 120.4848890 119.1443070   9.7681880 121.2258360 119.4818830   9.2649340
 119.7221570 119.3135130   9.2151650 108.3210680 114.1496340  10.5721410
 108.3616020 113.8510210  11.4806640 109.1756180 114.5503950  10.4128930
 110.2616490 112.7288440   8.5395900 109.7312950 112.2379390   7.9119240
 110.9304560 113.1572640   8.0053830 119.1594550 117.1957900   8.3037090
 119.5735570 117.3502980   9.1527510 118.2245550 117.3213120   8.4662870
 119.6316720 114.5354060  10.3076240 120.2137490 113.7806380  10.2196720
 119.8078490 115.0661500   9.5307720 110.7488790 109.6950810   8.6193190
 110.6545660 109.0771560   7.8944060 110.1686180 110.4217100   8.3923100
 113.5150230 108.2524050   5.6520580 113.0667530 108.2748310   4.8066130
 112.8815430 107.8543070   6.2490880 113.9209780 117.1478380   6.2733020
 114.3397890 117.9911110   6.1009260 113.0018410 117.2850420   6.0439800
 116.2573680 114.8794560   7.6570860 116.3769890 114.2835700   8.3965700
 117.1167680 114.9164250   7.2372160 118.5961580 115.4331750   6.2333370
 118.0696800 115.9574370   5.6298510 118.9392920 116.0659140   6.8643100
 111.7717200 123.4531390   7.3890750 111.2338290 124.1777450   7.0699450
 112.0251160 122.9761730   6.5988090 113.0242450 111.4215910   8.9146680
 113.6142140 111.1131760   9.6024500 112.2062690 110.9495660   9.0706580
 117.8435880 111.0381720   9.1479700 117.1551400 110.3763260   9.0829690
 118.5641900 110.5919990   9.5928160 114.6279410 124.6882600   7.6477400
 114.5538110 125.5917740   7.9549770 113.7258250 124.3694500   7.6199470
 106.5196910 122.8827780   3.6892650 106.0827900 123.0628580   4.5216800
 107.0874590 123.6402400   3.5474370 122.1559090 122.3844780   7.9769960
 121.5561080 122.4437340   7.2333880 122.2852990 121.4449760   8.1066810
 120.8410730 119.1096760   6.0746120 120.0270570 119.5393920   6.3371910
 121.2484930 119.7215170   5.4615170 107.3897270 115.7800580   4.5884870
 107.7570310 115.6927980   5.4680890 106.8208090 115.0167130   4.4891730
 122.1901130 114.2484960   7.6015340 121.9587220 114.0197710   6.7013290
 122.4505680 115.1684510   7.5560230 106.9413270 112.6909670   8.4943290
 106.0469320 112.6576430   8.8337000 107.4810820 112.8896460   9.2594540
 120.6289200 109.4741390  10.3795040 121.5059380 109.4824790  10.7629040
 120.6410040 108.7372230   9.7687390 122.2542190 113.4110800   4.7902610
 121.3044900 113.3774340   4.9047600 122.4355200 114.3210910   4.5552380
 107.4452980 106.9658000   2.8426510 108.0929170 106.4155380   2.4021670
 107.8654820 107.2201150   3.6642320 121.3405320 107.1599360   6.1996150
 121.9777540 107.7733500   6.5655340 121.4880210 107.1960020   5.2545380
 107.1984980 107.1213670   5.5851830 106.8499800 107.5777490   6.3510010
 106.8672680 106.2270800   5.6674260 108.8049350 120.2933270   9.7505020
 108.7618980 119.9226180  10.6319480 108.9360360 121.2310840   9.8906840
 112.5055380 121.8492860   5.3514740 112.2646740 122.1167420   4.4645260
 113.4458020 122.0198590   5.4065600 114.7109800 108.3125550   9.1071250
 114.6498690 108.9047380   9.8566660 115.6510180 108.2051510   8.9621510
 117.3484360 107.9695610   8.7463540 117.9624770 108.2874900   8.0844620
 117.8933920 107.4844200   9.3659400 123.7659540 123.8687240   6.1525380
 123.2717820 124.2656110   5.4352510 123.1572830 123.2436450   6.5462660
 107.8705620 106.6489870   8.8602600 108.4188610 106.4677920   8.0968710
 107.9360930 105.8583980   9.3958910 108.6437380 123.2395520   6.8702800
 108.0497700 123.1080220   7.6092840 108.6361220 122.4033660   6.4044900
 118.0892400 106.5327750   5.0732830 117.2152240 106.8662860   4.8705760
 117.9803150 106.0600930   5.8984700 118.9964380 108.7398620   6.4574550
 118.6677740 107.9250380   6.0776280 119.9446680 108.6968430   6.3340240
 121.4498990 124.5110660   3.4312120 120.9901960 125.2626470   3.0570140
 120.8211450 123.7917130   3.3726920 108.2749610 120.6053900   5.8210840
 107.5483670 119.9859190   5.7536790 108.3358760 120.9994510   4.9508920
 111.8794710 122.8198900   2.6060250 112.3959730 122.2086260   2.0808510
 112.5292090 123.3227680   3.0971260 114.6190210 123.7107390   3.4329230
 114.9068020 123.4561690   2.5562240 115.1313430 123.1584750   4.0234800
 115.8367220 107.4497590   4.0125740 115.0539010 107.9243090   4.2922500
 115.5430150 106.5452420   3.9038920 114.6862570 124.6323490  10.7997430
 115.6129880 124.3967760  10.8433390 114.6713000 125.4595490  10.3183460
 111.8726180 107.2968240  10.5639310 111.5910450 107.8001840   9.8000130
 112.2545880 106.4989990  10.1981440 118.4741640 106.7121820  11.1419780
 118.3607090 107.0316430  12.0371300 119.2911380 107.1134330  10.8457060
 121.2540130 123.8593350  10.6238470 122.0465450 123.3642580  10.4164430
 121.5473280 124.5383490  11.2314080 117.3799790  95.9570800 150.4745930
 117.2993840  95.0425410 150.2037640 116.9664210  96.4537870 149.7685640
 119.5325260 102.1410010 151.1354330 119.0706790 101.3697250 151.4641500
 120.3450810 102.1676080 151.6406780 107.9375610  93.0071520 147.0173350
 107.0492310  93.3487490 146.9153230 108.2216800  92.8071840 146.1254180
 115.7588570 104.4268020 150.7558320 115.1400010 104.8825520 150.1852760
 116.6140350 104.5819480 150.3548020 110.1137000  91.5903020 148.0511730
 110.2203750  92.4906750 148.3580490 109.2029360  91.5420990 147.7606380
 119.7656110  90.7127830 149.5222630 120.5865730  90.2224400 149.5648110
 119.7990190  91.3025490 150.2754470 116.6251920  99.3107260 148.1490230
 116.0069190  99.7756710 147.5852950 117.1375170 100.0034740 148.5659740
 105.9935120  99.9963790 145.5229860 105.6163100 100.4850890 144.7914760
 106.2508190 100.6689070 146.1536390 113.6024050  88.3980180 150.9815370
 113.9099030  87.8427070 150.2650870 112.6724750  88.5324640 150.7988360
 120.4484530 100.8363690 148.3613000 120.3380860  99.8938020 148.4862420
 120.4452780 101.1979330 149.2475760 115.9904810  96.4629010 147.7175490
 115.0634090  96.3966390 147.9463960 116.1429630  97.4009140 147.6030730
 115.9773890  92.7346010 144.7142650 115.0377560  92.8959970 144.7995110
 116.2957150  93.4531690 144.1678640 120.0202100  98.0249310 148.2210740
 119.4014520  97.6868860 147.5737040 120.0026550  97.3809070 148.9289930
 111.5961450  96.9893750 150.4995220 111.1918450  96.2771000 150.0041120
 111.6824570  96.6446990 151.3883260 118.1966800  97.2636120 145.2283490
 118.6360080  96.4258550 145.0821310 118.9095220  97.8965520 145.3147630
 116.3062180 102.2032190 149.1964730 116.7458090 102.9456520 148.7820120
 116.2449070 102.4458760 150.1203690 121.7783940  88.5178930 143.5424530
 121.4656600  88.6105760 144.4423600 122.5396410  89.0959960 143.4921960
 108.2966080  95.8838730 148.0001870 108.1763680  96.6100820 147.3883140
 107.9866970  95.1141640 147.5229780 107.1799080 100.7554060 150.2176690
 106.7727160 100.8968650 149.3630290 108.0712090 100.4714220 150.0147900
 118.9732360 105.1901310 146.5527740 118.8133500 104.9004250 147.4509570
 118.8079070 104.4141440 146.0172970 111.4520740 104.9699840 148.3299360
 111.2763220 104.0535380 148.1167160 110.5976480 105.3287130 148.5697160
 118.6758490 102.6988870 145.1125740 117.9823650 102.6966160 144.4528020
 119.4181350 102.2748190 144.6819910 118.2408420 104.3251580 149.1874230
 118.6965370 103.5440960 149.5012850 118.5800940 105.0358400 149.7315410
 110.7629740  89.2273800 151.3825540 110.3197890  90.0083340 151.0510060
 111.3214730  89.5503690 152.0896480 113.8788560  88.8484500 146.2631370
 113.2542740  88.8444370 146.9884680 113.7918680  87.9815460 145.8667340
 110.5543960  94.3507370 149.1106790 110.3284880  94.1344540 150.0153410
 109.7736490  94.7835830 148.7652760 117.7841720  94.3570740 147.7097440
 117.1850610  95.0806540 147.5261060 118.3321330  94.2947520 146.9273890
 116.3906590  92.9934280 149.7400720 116.7836160  93.3106480 148.9269410
 116.7523440  92.1146160 149.8545240 105.6140990  93.5255200 143.1733640
 105.5315660  94.4685960 143.3148630 105.2624050  93.3830110 142.2945990
 113.4139120  92.2594230 152.2403990 113.4175180  91.8184180 151.3908530
 114.3090240  92.5811560 152.3475810 109.2641500  92.1420720 151.1998200
 108.9241550  92.6195950 151.9565250 108.5018820  91.6885840 150.8399300
 113.4759270  93.2606310 145.2310750 113.5972090  93.2192790 146.1796570
 113.0907780  94.1230460 145.0757480 112.4880770  95.5707450 144.6294050
 111.9197670  95.1225700 144.0029960 113.1969770  95.9300230 144.0959200
 106.5787580  91.0639700 150.1162870 106.2934500  90.6995370 150.9541490
 106.5166440  90.3320160 149.5026010 110.0328250  99.5665640 146.9020460
 109.2590510  99.0263260 146.7419180 110.7622880  99.0472250 146.5638220
 116.2526170  89.9568960 146.8376240 115.4390780  89.4582130 146.7621550
 116.0588120  90.7967210 146.4212590 118.9674560  94.3288610 145.1338400
 119.8554180  94.6405840 144.9589740 118.9379650  93.4560860 144.7418980
 110.0765650  99.2346020 150.5399270 110.5944320  98.4314280 150.4856160
 109.6249670  99.1725160 151.3816100 114.9635150 100.5012300 145.8126570
 115.3050850 101.2454530 145.3169890 114.1347860 100.8143420 146.1751400
 121.2388830  95.6400450 144.6018260 121.1552550  96.0714670 143.7514700
 121.9583020  96.0998800 145.0345080 122.2676080 102.4942710 147.3300390
 121.6252240 101.8398330 147.6044110 121.8806740 102.8997800 146.5541060
 117.8462560  99.8228140 151.1772080 118.1986380  99.2256270 150.5173450
 116.9624890  99.4972370 151.3480330 113.9325840 100.5825830 148.5842490
 114.6196970 101.1295040 148.9650080 113.1458260 101.1266560 148.6192100
 106.0718240  96.1998650 144.0759570 106.9413090  96.4823450 144.3595490
 105.5808560  97.0134520 143.9608380 113.2353050  97.5871860 148.1967850
 113.6915830  98.3977110 148.4228040 112.8841260  97.2695000 149.0286340
 109.1364830  87.9309510 148.6690370 109.0079460  87.9227410 149.6175290
 108.3126850  88.2692600 148.3181380 120.6573460 101.3859170 143.8676740
 120.4311040 100.6689610 144.4601380 120.2669660 101.1371610 143.0298490
 106.4389490 105.4126030 144.6421200 106.7987130 106.0115370 143.9878470
 106.2981830 105.9585920 145.4156230 120.2389710  99.3031110 145.5290900
 119.9511410  99.7643800 146.3168780 121.0341880  98.8428880 145.7975120
 112.4558110 102.7957230 145.4594870 112.4468210 103.5286920 144.8439380
 111.5356470 102.5488810 145.5521830 108.0564750  98.0172120 146.2041630
 107.4492700  98.7571020 146.2136930 108.5314100  98.1071480 145.3779830
 120.9959570  91.1379880 146.6886080 120.3672730  91.2425550 145.9744310
 120.5011490  91.3576660 147.4779960 115.4417710 102.8585470 144.1220060
 115.5429690 102.6549460 143.1922040 114.5419450 102.6043750 144.3267840
 112.9643600  93.4165830 148.1043960 112.2559750  93.8852170 148.5457570
 113.2488080  92.7587840 148.7389150 116.9959030  90.1416490 149.5439750
 116.8726810  90.1602620 148.5949260 117.9443590  90.1895430 149.6638150
 114.0835820 105.3771790 148.8167730 114.3377320 105.3393180 147.8947100
 113.1348300 105.2505120 148.8095980 111.1678620  91.7250910 145.4794670
 112.0169150  92.1621060 145.4134860 110.8009890  92.0371170 146.3066730
 120.0888400  96.2963670 150.3926240 119.1478540  96.3113900 150.5673930
 120.4032470  95.5099630 150.8386540 110.0670040  97.9783270 143.9530200
 110.8333310  97.8664630 144.5155630 110.1444730  97.2821240 143.3006970
 108.7616800  95.4108340 144.6363090 108.8420390  94.4635850 144.7480490
 109.6536550  95.7415220 144.7423750 109.5631510 105.5603730 151.7397630
 110.2993990 105.0119190 152.0106200 109.9472430 106.4259740 151.6003620
 106.4476990 101.6277300 147.6139140 105.5216770 101.8698440 147.6044550
 106.9133420 102.4551560 147.4923890 112.6733820 104.7334040 143.5623200
 113.4662430 105.0222870 143.1104990 112.1538170 104.3026210 142.8835680
 121.7263990 103.9604170 144.9859940 121.4405500 103.5469310 144.1714120
 121.5283540 104.8891880 144.8660460 113.1911220  99.9537450 143.4265550
 113.0861860  99.3389800 144.1526930 113.0235440  99.4303340 142.6428560
 116.4313950  99.0157480 144.0307540 115.8824050  99.4626780 144.6750280
 117.0533210  98.5106730 144.5545210 112.0989070  97.9748400 145.9272840
 112.5205490  97.8088270 146.7704230 112.2239910  97.1648630 145.4327980
 114.6116710  96.9986010 143.1749940 115.1322370  96.2835030 142.8091090
 115.2585110  97.6371880 143.4750450 110.9947970  94.0481630 142.8731000
 110.7937030  93.1848990 143.2344340 110.8240020  93.9614990 141.9352600
 118.4736280  88.8589860 145.4017880 118.7538570  88.0157760 145.7577300
 117.7002010  89.0912970 145.9156630 109.7930770  91.1482250 142.8608880
 110.0956670  91.1549680 141.9528030 110.5325360  90.7980110 143.3576540
 113.0115700  90.0916870 143.8465080 112.6637700  89.4140860 143.2667530
 113.2128470  89.6306380 144.6608470 115.1764740 105.0797620 145.4651680
 116.0715530 105.4182590 145.4870440 115.2082370 104.3577030 144.8375960
 108.8160900 100.4524670 143.6938680 109.2535770 100.9954340 144.3496260
 109.3008630  99.6271620 143.7035020 106.0306700 103.2413700 151.1458940
 106.3609710 102.3734760 150.9137580 106.4597700 103.4472220 151.9763900
 110.6268620 101.5722710 148.8060910 110.3264160 101.4487680 149.7064820
 110.5206110 100.7131300 148.3976640 123.3960540 101.3519110 143.5087590
 122.5653500 101.4195760 143.9794820 123.5732370 102.2423230 143.2054450
 122.8517000  98.0966590 146.0121790 123.6135910  98.6663240 146.1181480
 122.8671370  97.5293790 146.7830100 106.3521340  96.6204520 150.2429450
 105.6970180  96.3516160 149.5989150 107.1899290  96.5109000 149.7931430
 123.8576970  98.9516690 150.8563720 124.2285800  98.1684010 150.4499690
 124.4978900  99.6405790 150.6781020 122.9036170  98.3900960 143.1694310
 123.1785010  99.2979840 143.0413530 122.7146910  98.3263490 144.1056300
 119.3011780  91.4145810 144.4647940 119.7196660  91.2276790 143.6244600
 118.9947840  90.5624860 144.7750870 122.8001510  96.3269950 148.1623740
 122.4245110  95.5597880 147.7305030 122.0704630  96.7092650 148.6498670
 105.5659420  93.8303450 146.1854780 104.6623500  94.0933650 146.0106440
 106.0500040  94.1014620 145.4054740 122.0752470  94.5527440 151.4630980
 122.5989950  94.0590090 150.8321150 122.6611890  94.6877800 152.2078550
 108.1086630  92.8868990 144.0949160 108.8178330  92.4652210 143.6096440
 107.3926570  92.9544220 143.4632510 107.7560790  88.9408320 143.1351810
 108.4788920  89.4817260 143.4533030 108.0285310  88.6671740 142.2593350
 121.5652440  93.8100790 147.4023390 122.0611560  93.5771660 148.1872270
 121.3668510  92.9712630 146.9861030 122.9939600  92.4461740 149.9361070
 122.8838880  92.2917780 150.8743340 123.7547190  91.9182680 149.6936480
 123.8829870  90.2769660 143.1767210 124.8079180  90.1450840 142.9685500
 123.8605660  90.3562480 144.1303660 123.9568360  91.0480320 145.8023920
 123.1619860  90.9825440 146.3316830 124.1611640  91.9830960 145.7909270
 120.8986780 105.0871870 149.7962310 121.4945850 104.7656440 149.1196730
 121.1564930 104.6143690 150.5875580 120.3888290  89.3777200 152.2522750
 120.8296380  89.3222300 151.4044350 120.1195880  90.2935210 152.3232930
 122.2526860  89.0092440 150.2631570 122.1915260  88.0653660 150.1162590
 123.0318890  89.1172530 150.8085030 106.5579610 105.1484800 149.2255520
 106.3901650 104.5155480 149.9237410 105.6914120 105.3544200 148.8749710
 107.1807630  88.9801580 146.7287380 107.9386990  89.0930460 146.1551410
 106.7184800  89.8170780 146.6830810 113.7221440  91.0940850 149.7189690
 112.9095950  90.7197740 149.3785570 114.2263080  90.3385930 150.0210880
 118.2246420  87.7583300 150.9572760 118.8275790  88.3303510 151.4321280
 117.4839410  88.3222740 150.7346660 121.3681020  88.1604860 146.2313040
 121.5631650  89.0588310 146.4980470 120.5810890  87.9291940 146.7245990
 108.1642310 103.8418030 146.6705660 107.6389930 104.2226060 145.9667620
 108.0886890 104.4668800 147.3915370 109.5532780  89.5065630 145.2689350
 110.0825540  88.7195430 145.1397300 110.1861100  90.1856820 145.5024880
 111.7470620  89.2440770 148.3234740 111.1173360  88.5428080 148.4904870
 111.2075760  90.0044900 148.1067900 122.9207630 105.4005570 147.9919600
 123.0959820 104.7143310 147.3480520 122.2229200 105.9252620 147.5996270
 110.7635280 105.7900410 145.5454910 111.4954100 105.5059690 144.9978800
 111.0228950 105.5513690 146.4354290 109.9250070 101.9065140 145.5501240
 109.2958950 102.3750240 146.0987070 110.0397900 101.0614360 145.9847430
 117.3799790  95.9570800 131.7002440 117.2993840  95.0425410 131.4294150
 116.9664210  96.4537870 130.9942150 115.5117830  97.7349820 133.5811710
 114.7359930  97.2550260 133.8710280 116.1630760  97.0555470 133.4067870
 109.5283660  98.0469630 134.4587470 108.6968540  97.7918340 134.8583980
 110.1364640  98.1180400 135.1945390 119.5325260 102.1410010 132.3610840
 119.0706790 101.3697250 132.6898010 120.3450810 102.1676080 132.8663290
 109.5084920 102.0809720 134.6545490 109.8112960 101.1907460 134.4755710
 110.2528510 102.6379940 134.4267740 107.9375610  93.0071520 128.2429860
 107.0492310  93.3487490 128.1409740 108.2216800  92.8071840 127.3510690
 105.9008620  95.6077170 134.1269560 106.4724730  94.8399370 134.1273200
 105.9010160  95.9065930 133.2176170 115.7588570 104.4268020 131.9814830
 115.1400010 104.8825520 131.4109270 116.6140350 104.5819480 131.5804530
 114.9526820 100.4107010 133.5881870 114.8835100  99.4696950 133.4271000
 115.7146680 100.5008420 134.1604440 107.1433490  91.0161530 135.9138490
 106.9636330  90.1187280 136.1941250 106.7413570  91.5633400 136.5885440
 115.9831990  93.2177390 133.8150800 116.3596810  92.3449270 133.7024470
 115.8851500  93.5536090 132.9241240 110.1137000  91.5903020 129.2768240
 110.2203750  92.4906750 129.5837000 109.2029360  91.5420990 128.9862890
 119.7656110  90.7127830 130.7479140 120.5865730  90.2224400 130.7904620
 119.7990190  91.3025490 131.5010980 107.7620160  93.5122030 134.5220830
 108.4430270  93.7760400 135.1408230 107.4468210  92.6722900 134.8558840
 111.9544730  94.5589390 133.6093420 112.4622950  95.0570360 134.2498440
 112.4857970  93.7824590 133.4332780 124.0555660  92.7294580 137.3122770
 123.3507830  93.1176290 136.7937880 124.3213580  93.4244870 137.9143700
 110.2380830  89.1987950 137.8756840 110.2399270  89.7160340 137.0702740
 109.4085140  88.7218130 137.8526770 116.6251920  99.3107260 129.3746740
 116.0069190  99.7756710 128.8109460 117.1375170 100.0034740 129.7916250
 111.4883680  98.8383130 136.0530340 111.1553060  99.4652050 136.6951410
 111.6650360  99.3645010 135.2732010 120.0017590  92.6528210 133.5206680
 119.2973160  92.9413100 134.1009790 120.3629750  93.4628320 133.1606240
 109.9196160  90.9097910 135.8827290 110.2612970  91.7539960 135.5881160
 108.9811970  91.0581650 135.9992630 110.7002780 100.8063930 137.8679520
 111.3176780 101.4815010 137.5863970 109.8395900 101.2151910 137.7767020
 105.9935120  99.9963790 126.7486370 105.6163100 100.4850890 126.0171270
 106.2508190 100.6689070 127.3792900 121.6180370 102.2703340 135.7834160
 120.9343890 102.9402450 135.7750830 122.1574660 102.4683990 135.0179020
 123.0704510  92.0983000 133.9115890 122.1229420  92.1321980 134.0431320
 123.3954500  92.9121950 134.2965250 113.6024050  88.3980180 132.2071880
 113.9099030  87.8427070 131.4907380 112.6724750  88.5324640 132.0244870
 119.1539110 104.1147470 134.4979340 119.1666270 103.7109760 133.6301600
 118.6014330 104.8894760 134.3940770 120.4484530 100.8363690 129.5869510
 120.3380860  99.8938020 129.7118930 120.4452780 101.1979330 130.4732270
 118.5524550  99.0177310 135.8261950 118.9693340  98.8037420 134.9915410
 119.2764370  99.2750100 136.3970570 115.9904810  96.4629010 128.9432000
 115.0634090  96.3966390 129.1720470 116.1429630  97.4009140 128.8287240
 115.9773890  92.7346010 125.9399160 115.0377560  92.8959970 126.0251620
 116.2957150  93.4531690 125.3935150 122.4986650  97.4164530 135.9178190
 121.6705280  97.4857620 135.4428320 123.0937130  98.0018840 135.4494020
 120.0202100  98.0249310 129.4467250 119.4014520  97.6868860 128.7993550
 120.0026550  97.3809070 130.1546440 119.4628660  94.2033850 136.8633060
 119.0499840  95.0287560 137.1173050 118.7304610  93.6178890 136.6709420
 111.5961450  96.9893750 131.7251730 111.1918450  96.2771000 131.2297630
 111.6824570  96.6446990 132.6139770 112.0643150 100.6761310 133.8890940
 111.7671440 100.0706780 133.2098720 113.0142970 100.7138620 133.7780300
 110.3090070  93.7636960 135.5050770 110.8604660  93.8732300 134.7304020
 110.8233580  94.1374560 136.2206000 120.1528760 104.2493180 137.5514040
 119.6759320 105.0565370 137.3586650 119.4690550 103.5971510 137.7040250
 111.1561580 100.4143000 140.5398740 110.2590110 100.6382970 140.7872140
 111.1814450 100.5377940 139.5910140 118.1966800  97.2636120 126.4540000
 118.6360080  96.4258550 126.3077820 118.9095220  97.8965520 126.5404140
 109.9832800  97.2856320 139.1156110 109.8440570  98.1579120 139.4843510
 109.1014160  96.9429130 138.9704050 116.3062180 102.2032190 130.4221240
 116.7458090 102.9456520 130.0076630 116.2449070 102.4458760 131.3460200
 111.7813150 103.2278020 141.3241260 111.7528580 103.6320970 140.4569690
 111.6178120 102.2988380 141.1612860 121.7783940  88.5178930 124.7681040
 121.4656600  88.6105760 125.6680110 122.5396410  89.0959960 124.7178470
 108.2966080  95.8838730 129.2258380 108.1763680  96.6100820 128.6139650
 107.9866970  95.1141640 128.7486290 123.7327970 104.0105120 142.6205430
 124.2087690 104.4888010 143.2994510 124.3535130 103.9422610 141.8950930
 105.9351450  99.0553870 135.0327020 106.0131870  99.1902640 134.0882740
 106.5493130  98.3469760 135.2255140 107.1799080 100.7554060 131.4433200
 106.7727160 100.8968650 130.5886800 108.0712090 100.4714220 131.2404410
 123.1361220 101.2017970 139.7805440 123.2624280 100.9629850 138.8622620
 123.1782600 100.3702510 140.2527520 116.9977960 104.9045970 138.3500250
 117.5122630 104.8153980 139.1522680 116.1547040 105.2505670 138.6428160
 118.9732360 105.1901310 127.7784250 118.8133500 104.9004250 128.6766080
 118.8079070 104.4141440 127.2429480 111.4520740 104.9699840 129.5555870
 111.2763220 104.0535380 129.3423670 110.5976480 105.3287130 129.7953670
 118.6758490 102.6988870 126.3382250 117.9823650 102.6966160 125.6784530
 119.4181350 102.2748190 125.9076420 118.2408420 104.3251580 130.4130740
 118.6965370 103.5440960 130.7269360 118.5800940 105.0358400 130.9571920
 122.9885230  93.2550430 140.7455180 122.3729500  93.7630100 140.2170640
 122.6681650  92.3548760 140.6881120 105.9910970 100.0968040 137.5721480
 106.1542010  99.6273400 136.7540850 106.4563420  99.5891600 138.2370320
 110.7629740  89.2273800 132.6082050 110.3197890  90.0083340 132.2766570
 111.3214730  89.5503690 133.3152990 115.0499550  92.0942320 138.2117370
 114.5878920  92.3025340 139.0237310 114.6477660  91.2801670 137.9088040
 120.0504060  93.3151270 139.3414030 119.1997650  93.0157020 139.6623100
 119.8905850  93.5593280 138.4297850 117.1453770  94.8153020 141.4412820
 117.4707180  93.9816770 141.1015050 117.9334100  95.3381540 141.5891150
 112.8005640  89.7721130 134.4671650 113.0977970  90.6783960 134.3863670
 113.3491200  89.2839910 133.8531220 110.5543960  94.3507370 130.3363300
 110.3284880  94.1344540 131.2409920 109.7736490  94.7835830 129.9909270
 117.7841720  94.3570740 128.9353950 117.1850610  95.0806540 128.7517570
 118.3321330  94.2947520 128.1530400 112.9943170  95.2492950 141.0023570
 112.8986770  94.3087680 140.8523970 113.8375150  95.4708020 140.6071640
 116.3906590  92.9934280 130.9657230 116.7836160  93.3106480 130.1525920
 116.7523440  92.1146160 131.0801750 108.1253710  91.6606620 139.1557350
 107.7317100  92.5081830 139.3630130 107.4372110  91.0232990 139.3465990
 114.6998760  91.7441590 142.2254090 114.0097080  91.5513790 142.8600180
 115.4431060  92.0276230 142.7578390 105.4270760  89.5835080 133.1887430
 105.1383810  90.1537940 133.9012410 106.1716520  89.1039530 133.5518660
 105.6140990  93.5255200 124.3990150 105.5315660  94.4685960 124.5405140
 105.2624050  93.3830110 123.5202500 116.9761730  95.5840030 135.0608010
 116.2442850  96.0926840 135.4098110 116.5786070  94.7670010 134.7596790
 113.4139120  92.2594230 133.4660500 113.4175180  91.8184180 132.6165040
 114.3090240  92.5811560 133.5732320 109.2641500  92.1420720 132.4254710
 108.9241550  92.6195950 133.1821760 108.5018820  91.6885840 132.0655810
 113.4759270  93.2606310 126.4567260 113.5972090  93.2192790 127.4053080
 113.0907780  94.1230460 126.3013990 117.4387640  91.0373710 134.4730950
 117.4560380  91.4882360 135.3172800 117.1903220  90.1379350 134.6864390
 112.4880770  95.5707450 125.8550560 111.9197670  95.1225700 125.2286470
 113.1969770  95.9300230 125.3215710 120.8658390  88.4505890 140.3117330
 121.1904160  87.7195550 140.8375310 120.9014900  88.1319530 139.4098320
 107.5649950  99.4719470 139.7317290 107.1804740  98.8313140 140.3300250
 107.8762140 100.1755590 140.3012020 113.7147090  96.3196010 135.2125910
 114.0817220  95.8454580 135.9587250 113.5252150  97.1937580 135.5534250
 106.5787580  91.0639700 131.3419380 106.2934500  90.6995370 132.1798000
 106.5166440  90.3320160 130.7282520 111.5046460  95.3604650 137.5310120
 111.2003530  96.2396630 137.7560480 112.4592920  95.4204440 137.5667560
 110.0328250  99.5665640 128.1276970 109.2590510  99.0263260 127.9675690
 110.7622880  99.0472250 127.7894730 120.7916230  98.5631000 133.9203360
 121.5115350  99.0586290 133.5299470 120.5898050  97.8848890 133.2757230
 116.2526170  89.9568960 128.0632750 115.4390780  89.4582130 127.9878060
 116.0588120  90.7967210 127.6469100 116.1735030  98.6340060 139.8072360
 116.1072340  97.7135730 139.5529950 115.5440170  98.7315500 140.5217000
 118.9674560  94.3288610 126.3594910 119.8554180  94.6405840 126.1846250
 118.9379650  93.4560860 125.9675490 110.0765650  99.2346020 131.7655780
 110.5944320  98.4314280 131.7112670 109.6249670  99.1725160 132.6072610
 114.9635150 100.5012300 127.0383080 115.3050850 101.2454530 126.5426400
 114.1347860 100.8143420 127.4007910 107.5610190  96.2007390 138.6781480
 107.2025130  96.8661240 139.2654820 107.2664750  95.3690940 139.0494100
 110.7623310  96.6591630 141.5621030 110.4623450  96.8048810 140.6648850
 111.5334550  96.0996920 141.4694420 116.1051760 101.4560630 139.5576160
 116.1196300 100.5241590 139.3395070 115.3976860 101.5420390 140.1965930
 121.2388830  95.6400450 125.8274770 121.1552550  96.0714670 124.9771210
 121.9583020  96.0998800 126.2601590 122.3162970  98.0967970 138.9044740
 121.5911160  98.6896750 138.7074130 122.8438430  98.0891510 138.1058110
 122.2676080 102.4942710 128.5556900 121.6252240 101.8398330 128.8300620
 121.8806740 102.8997800 127.7797570 117.8462560  99.8228140 132.4028590
 118.1986380  99.2256270 131.7429960 116.9624890  99.4972370 132.5736840
 113.9325840 100.5825830 129.8099000 114.6196970 101.1295040 130.1906590
 113.1458260 101.1266560 129.8448610 106.0718240  96.1998650 125.3016080
 106.9413090  96.4823450 125.5852000 105.5808560  97.0134520 125.1864890
 113.2353050  97.5871860 129.4224360 113.6915830  98.3977110 129.6484550
 112.8841260  97.2695000 130.2542850 115.5385660 103.0978200 136.6516660
 116.1827880 103.3037580 137.3290080 115.9015100 102.3366600 136.1987510
 116.8117740 101.1010550 135.3694110 117.4539970 100.4003710 135.4826280
 117.3367090 101.8808990 135.1891000 120.6573460 101.3859170 125.0933250
 120.4311040 100.6689610 125.6857890 120.2669660 101.1371610 124.2555000
 118.5855360 101.9005450 138.5730170 118.9211600 102.4872140 139.2508090
 117.6655700 101.7698160 138.8027960 106.4389490 105.4126030 125.8677710
 106.7987130 106.0115370 125.2134980 106.2981830 105.9585920 126.6412740
 106.1358760  89.6900630 139.3553580 105.4217280  89.8897550 139.9606190
 106.5553800  88.9140200 139.7268380 120.2389710  99.3031110 126.7547410
 119.9511410  99.7643800 127.5425290 121.0341880  98.8428880 127.0231630
 106.4231350 103.6780890 140.3420110 106.5322470 102.7375630 140.2015500
 105.7711910 103.9435640 139.6933840 114.4143940 101.9496780 141.7418230
 114.0940810 101.2306020 142.2863920 113.7402300 102.6251850 141.8154290
 112.4558110 102.7957230 126.6851380 112.4468210 103.5286920 126.0695890
 111.5356470 102.5488810 126.7778340 108.0564750  98.0172120 127.4298140
 107.4492700  98.7571020 127.4393440 108.5314100  98.1071480 126.6036340
 117.6297540  92.1822940 137.1055030 117.9978360  91.3618150 137.4334600
 116.7695740  92.2424830 137.5210680 120.9959570  91.1379880 127.9142590
 120.3672730  91.2425550 127.2000820 120.5011490  91.3576660 128.7036470
 115.4417710 102.8585470 125.3476570 115.5429690 102.6549460 124.4178550
 114.5419450 102.6043750 125.5524350 112.9643600  93.4165830 129.3300470
 112.2559750  93.8852170 129.7714080 113.2488080  92.7587840 129.9645660
 114.5899530  94.8362530 137.3293000 115.0884780  95.3108350 137.9944850
 114.7322480  93.9126050 137.5363030 116.9959030  90.1416490 130.7696260
 116.8726810  90.1602620 129.8205770 117.9443590  90.1895430 130.8894660
 114.0835820 105.3771790 130.0424240 114.3377320 105.3393180 129.1203610
 113.1348300 105.2505120 130.0352490 121.7966390  91.0530490 138.1721390
 121.2939990  91.7935890 138.5115200 122.6123050  91.4414490 137.8558180
 120.0888400  96.2963670 131.6182750 119.1478540  96.3113900 131.7930440
 120.4032470  95.5099630 132.0643050 110.0670040  97.9783270 125.1786710
 110.8333310  97.8664630 125.7412140 110.1444730  97.2821240 124.5263480
 108.7616800  95.4108340 125.8619600 108.8420390  94.4635850 125.9737000
 109.6536550  95.7415220 125.9680260 122.0913980 103.4672520 133.2937010
 122.2161400 104.2903690 133.7660820 122.9579540 103.2563250 132.9461160
 109.5631510 105.5603730 132.9654140 110.2993990 105.0119190 133.2362710
 109.9472430 106.4259740 132.8260130 106.4476990 101.6277300 128.8395650
 105.5216770 101.8698440 128.8301060 106.9133420 102.4551560 128.7180400
 108.5689790 104.7449800 142.1539720 109.3702520 105.0661850 142.5675120
 108.0541610 104.3845380 142.8759630 112.6733820 104.7334040 124.7879710
 113.4662430 105.0222870 124.3361500 112.1538170 104.3026210 124.1092190
 117.4054420 100.8529670 142.1015130 116.7992580 100.8761270 141.3610880
 117.1008530 100.1212710 142.6382380 118.8354790 104.5809960 140.7124540
 119.7876540 104.4967980 140.6624780 118.6883010 105.2451670 141.3858330
 121.7263990 103.9604170 126.2116450 121.4405500 103.5469310 125.3970630
 121.5283540 104.8891880 126.0916970 106.2887600  97.2323260 141.0975770
 106.7926620  96.6530540 141.6692000 105.5495020  97.5163490 141.6352140
 113.1911220  99.9537450 124.6522060 113.0861860  99.3389800 125.3783440
 113.0235440  99.4303340 123.8685070 113.3425540  98.6394250 140.6311290
 112.5771210  99.2079250 140.5465960 113.5241500  98.3470460 139.7379520
 116.4313950  99.0157480 125.2564050 115.8824050  99.4626780 125.9006790
 117.0533210  98.5106730 125.7801720 120.4848890 100.3699580 141.1886310
 121.2258360 100.7075340 140.6853770 119.7221570 100.5391640 140.6356080
 108.3210680  95.3752850 141.9925840 108.3616020  95.0766720 142.9011070
 109.1756180  95.7760460 141.8333360 112.0989070  97.9748400 127.1529350
 112.5205490  97.8088270 127.9960740 112.2239910  97.1648630 126.6584490
 110.2616490  93.9544950 139.9600330 109.7312950  93.4635900 139.3323670
 110.9304560  94.3829150 139.4258260 114.6116710  96.9986010 124.4006450
 115.1322370  96.2835030 124.0347600 115.2585110  97.6371880 124.7006960
 119.1594550  98.4214410 139.7241520 119.5735570  98.5759490 140.5731940
 118.2245550  98.5469630 139.8867300 119.6316720  95.7610570 141.7280670
 120.2137490  95.0062890 141.6401150 119.8078490  96.2918010 140.9512150
 110.7488790  90.9207320 140.0397620 110.6545660  90.3028070 139.3148490
 110.1686180  91.6473610 139.8127530 113.5150230  89.4780560 137.0725010
 113.0667530  89.5004820 136.2270560 112.8815430  89.0799580 137.6695310
 113.9209780  98.3734890 137.6937450 114.3397890  99.2167620 137.5213690
 113.0018410  98.5106930 137.4644230 116.2573680  96.1051070 139.0775290
 116.3769890  95.5092210 139.8170130 117.1167680  96.1420760 138.6576590
 118.5961580  96.6588260 137.6537800 118.0696800  97.1830880 137.0502940
 118.9392920  97.2915650 138.2847530 110.9947970  94.0481630 124.0987510
 110.7937030  93.1848990 124.4600850 110.8240020  93.9614990 123.1609110
 111.7717200 104.6787900 138.8095180 111.2338290 105.4033960 138.4903880
 112.0251160 104.2018240 138.0192520 113.0242450  92.6472420 140.3351110
 113.6142140  92.3388270 141.0228930 112.2062690  92.1752170 140.4911010
 117.8435880  92.2638230 140.5684130 117.1551400  91.6019770 140.5034120
 118.5641900  91.8176500 141.0132590 118.4736280  88.8589860 126.6274390
 118.7538570  88.0157760 126.9833810 117.7002010  89.0912970 127.1413140
 114.6279410 105.9139110 139.0681830 114.5538110 106.8174250 139.3754200
 113.7258250 105.5951010 139.0403900 115.1764740 105.0797620 126.6908190
 116.0715530 105.4182590 126.7126950 115.2082370 104.3577030 126.0632470
 108.8160900 100.4524670 124.9195190 109.2535770 100.9954340 125.5752770
 109.3008630  99.6271620 124.9291530 106.0306700 103.2413700 132.3715450
 106.3609710 102.3734760 132.1394090 106.4597700 103.4472220 133.2020410
 110.6268620 101.5722710 130.0317420 110.3264160 101.4487680 130.9321330
 110.5206110 100.7131300 129.6233150 106.5196910 104.1084290 135.1097080
 106.0827900 104.2885090 135.9421230 107.0874590 104.8658910 134.9678800
 122.1559090 103.6101290 139.3974390 121.5561080 103.6693850 138.6538310
 122.2852990 102.6706270 139.5271240 123.3960540 101.3519110 124.7344100
 122.5653500 101.4195760 125.2051330 123.5732370 102.2423230 124.4310960
 122.8517000  98.0966590 127.2378300 123.6135910  98.6663240 127.3437990
 122.8671370  97.5293790 128.0086610 106.3521340  96.6204520 131.4685960
 105.6970180  96.3516160 130.8245660 107.1899290  96.5109000 131.0187940
 123.8576970  98.9516690 132.0820230 124.2285800  98.1684010 131.6756200
 124.4978900  99.6405790 131.9037530 120.8410730 100.3353270 137.4950550
 120.0270570 100.7650430 137.7576340 121.2484930 100.9471680 136.8819600
 122.9036170  98.3900960 124.3950820 123.1785010  99.2979840 124.2670040
 122.7146910  98.3263490 125.3312810 119.3011780  91.4145810 125.6904450
 119.7196660  91.2276790 124.8501110 118.9947840  90.5624860 126.0007380
 122.8001510  96.3269950 129.3880250 122.4245110  95.5597880 128.9561540
 122.0704630  96.7092650 129.8755180 107.3897270  97.0057090 136.0089300
 107.7570310  96.9184490 136.8885320 106.8208090  96.2423640 135.9096160
 122.1901130  95.4741470 139.0219770 121.9587220  95.2454220 138.1217720
 122.4505680  96.3941020 138.9764660 106.9413270  93.9166180 139.9147720
 106.0469320  93.8832940 140.2541430 107.4810820  94.1152970 140.6798970
 120.6289200  90.6997900 141.7999470 121.5059380  90.7081300 142.1833470
 120.6410040  89.9628740 141.1891820 105.5659420  93.8303450 127.4111290
 104.6623500  94.0933650 127.2362950 106.0500040  94.1014620 126.6311250
 122.0752470  94.5527440 132.6887490 122.5989950  94.0590090 132.0577660
 122.6611890  94.6877800 133.4335060 122.2542190  94.6367310 136.2107040
 121.3044900  94.6030850 136.3252030 122.4355200  95.5467420 135.9756810
 108.1086630  92.8868990 125.3205670 108.8178330  92.4652210 124.8352950
 107.3926570  92.9544220 124.6889020 121.5652440  93.8100790 128.6279900
 122.0611560  93.5771660 129.4128780 121.3668510  92.9712630 128.2117540
 107.4452980  88.1914510 134.2630940 108.0929170  87.6411890 133.8226100
 107.8654820  88.4457660 135.0846750 122.9939600  92.4461740 131.1617580
 122.8838880  92.2917780 132.0999850 123.7547190  91.9182680 130.9192990
 121.3405320  88.3855870 137.6200580 121.9777540  88.9990010 137.9859770
 121.4880210  88.4216530 136.6749810 123.8829870  90.2769660 124.4023720
 124.8079180  90.1450840 124.1942010 123.8605660  90.3562480 125.3560170
 123.9568360  91.0480320 127.0280430 123.1619860  90.9825440 127.5573340
 124.1611640  91.9830960 127.0165780 120.8986780 105.0871870 131.0218820
 121.4945850 104.7656440 130.3453240 121.1564930 104.6143690 131.8132090
 107.1984980  88.3470180 137.0056260 106.8499800  88.8034000 137.7714440
 106.8672680  87.4527310 137.0878690 108.8049350 101.5189780 141.1709450
 108.7618980 101.1482690 142.0523910 108.9360360 102.4567350 141.3111270
 112.5055380 103.0749370 136.7719170 112.2646740 103.3423930 135.8849690
 113.4458020 103.2455100 136.8270030 114.7109800  89.5382060 140.5275680
 114.6498690  90.1303890 141.2771090 115.6510180  89.4308020 140.3825940
 117.3484360  89.1952120 140.1667970 117.9624770  89.5131410 139.5049050
 117.8933920  88.7100710 140.7863830 123.7659540 105.0943750 137.5729810
 123.2717820 105.4912620 136.8556940 123.1572830 104.4692960 137.9667090
 107.8705620  87.8746380 140.2807030 108.4188610  87.6934430 139.5173140
 107.9360930  87.0840490 140.8163340 108.6437380 104.4652030 138.2907230
 108.0497700 104.3336730 139.0297270 108.6361220 103.6290170 137.8249330
 118.0892400  87.7584260 136.4937260 117.2152240  88.0919370 136.2910190
 117.9803150  87.2857440 137.3189130 118.9964380  89.9655130 137.8778980
 118.6677740  89.1506890 137.4980710 119.9446680  89.9224940 137.7544670
 121.4498990 105.7367170 134.8516550 120.9901960 106.4882980 134.4774570
 120.8211450 105.0173640 134.7931350 108.2749610 101.8310410 137.2415270
 107.5483670 101.2115700 137.1741220 108.3358760 102.2251020 136.3713350
 111.8794710 104.0455410 134.0264680 112.3959730 103.4342770 133.5012940
 112.5292090 104.5484190 134.5175690 114.6190210 104.9363900 134.8533660
 114.9068020 104.6818200 133.9766670 115.1313430 104.3841260 135.4439230
 115.8367220  88.6754100 135.4330170 115.0539010  89.1499600 135.7126930
 115.5430150  87.7708930 135.3243350 120.3888290  89.3777200 133.4779260
 120.8296380  89.3222300 132.6300860 120.1195880  90.2935210 133.5489440
 122.2526860  89.0092440 131.4888080 122.1915260  88.0653660 131.3419100
 123.0318890  89.1172530 132.0341540 106.5579610 105.1484800 130.4512030
 106.3901650 104.5155480 131.1493920 105.6914120 105.3544200 130.1006220
 113.7221440  91.0940850 130.9446200 112.9095950  90.7197740 130.6042080
 114.2263080  90.3385930 131.2467390 118.2246420  87.7583300 132.1829270
 118.8275790  88.3303510 132.6577790 117.4839410  88.3222740 131.9603170
 121.3681020  88.1604860 127.4569550 121.5631650  89.0588310 127.7236980
 120.5810890  87.9291940 127.9502500 108.1642310 103.8418030 127.8962170
 107.6389930 104.2226060 127.1924130 108.0886890 104.4668800 128.6171880
 114.6862570 105.8580000 142.2201860 115.6129880 105.6224270 142.2637820
 114.6713000 106.6852000 141.7387890 122.9207630 105.4005570 129.2176110
 123.0959820 104.7143310 128.5737030 122.2229200 105.9252620 128.8252780
 111.8726180  88.5224750 141.9843740 111.5910450  89.0258350 141.2204560
 112.2545880  87.7246500 141.6185870 110.7635280 105.7900410 126.7711420
 111.4954100 105.5059690 126.2235310 111.0228950 105.5513690 127.6610800
 109.9250070 101.9065140 126.7757750 109.2958950 102.3750240 127.3243580
 110.0397900 101.0614360 127.2103940 118.4741640  87.9378330 142.5624210
 118.3607090  88.2572940 143.4575730 119.2911380  88.3390840 142.2661490
 121.2540130 105.0849860 142.0442900 122.0465450 104.5899090 141.8368860
 121.5473280 105.7640000 142.6518510 109.5084920 102.0809720 115.8802000
 109.8112960 101.1907460 115.7012220 110.2528510 102.6379940 115.6524250
 115.7588570 104.4268020 113.2071340 115.1400010 104.8825520 112.6365780
 116.6140350 104.5819480 112.8061040 107.1433490  91.0161530 117.1395000
 106.9636330  90.1187280 117.4197760 106.7413570  91.5633400 117.8141950
 110.1137000  91.5903020 110.5024750 110.2203750  92.4906750 110.8093510
 109.2029360  91.5420990 110.2119400 119.7656110  90.7127830 111.9735650
 120.5865730  90.2224400 112.0161130 119.7990190  91.3025490 112.7267490
 124.0555660  92.7294580 118.5379280 123.3507830  93.1176290 118.0194390
 124.3213580  93.4244870 119.1400210 110.2380830  89.1987950 119.1013350
 110.2399270  89.7160340 118.2959250 109.4085140  88.7218130 119.0783280
 120.0017590  92.6528210 114.7463190 119.2973160  92.9413100 115.3266300
 120.3629750  93.4628320 114.3862750 109.9196160  90.9097910 117.1083800
 110.2612970  91.7539960 116.8137670 108.9811970  91.0581650 117.2249140
 110.7002780 100.8063930 119.0936030 111.3176780 101.4815010 118.8120480
 109.8395900 101.2151910 119.0023530 123.0704510  92.0983000 115.1372400
 122.1229420  92.1321980 115.2687830 123.3954500  92.9121950 115.5221760
 119.1539110 104.1147470 115.7235850 119.1666270 103.7109760 114.8558110
 118.6014330 104.8894760 115.6197280 122.4986650  97.4164530 117.1434700
 121.6705280  97.4857620 116.6684830 123.0937130  98.0018840 116.6750530
 120.0202100  98.0249310 110.6723760 119.4014520  97.6868860 110.0250060
 120.0026550  97.3809070 111.3802950 120.1528760 104.2493180 118.7770550
 119.6759320 105.0565370 118.5843160 119.4690550 103.5971510 118.9296760
 111.1561580 100.4143000 121.7655250 110.2590110 100.6382970 122.0128650
 111.1814450 100.5377940 120.8166650 109.9832800  97.2856320 120.3412620
 109.8440570  98.1579120 120.7100020 109.1014160  96.9429130 120.1960560
 111.7813150 103.2278020 122.5497770 111.7528580 103.6320970 121.6826200
 111.6178120 102.2988380 122.3869370 123.7327970 104.0105120 123.8461940
 124.2087690 104.4888010 124.5251020 124.3535130 103.9422610 123.1207440
 105.9351450  99.0553870 116.2583530 106.0131870  99.1902640 115.3139250
 106.5493130  98.3469760 116.4511650 107.1799080 100.7554060 112.6689710
 106.7727160 100.8968650 111.8143310 108.0712090 100.4714220 112.4660920
 123.1361220 101.2017970 121.0061950 123.2624280 100.9629850 120.0879130
 123.1782600 100.3702510 121.4784030 116.9977960 104.9045970 119.5756760
 117.5122630 104.8153980 120.3779190 116.1547040 105.2505670 119.8684670
 118.9732360 105.1901310 109.0040760 118.8133500 104.9004250 109.9022590
 118.8079070 104.4141440 108.4685990 111.4520740 104.9699840 110.7812380
 111.2763220 104.0535380 110.5680180 110.5976480 105.3287130 111.0210180
 118.6758490 102.6988870 107.5638760 117.9823650 102.6966160 106.9041040
 119.4181350 102.2748190 107.1332930 118.2408420 104.3251580 111.6387250
 118.6965370 103.5440960 111.9525870 118.5800940 105.0358400 112.1828430
 122.9885230  93.2550430 121.9711690 122.3729500  93.7630100 121.4427150
 122.6681650  92.3548760 121.9137630 105.9910970 100.0968040 118.7977990
 106.1542010  99.6273400 117.9797360 106.4563420  99.5891600 119.4626830
 117.1453770  94.8153020 122.6669330 117.4707180  93.9816770 122.3271560
 117.9334100  95.3381540 122.8147660 112.8005640  89.7721130 115.6928160
 113.0977970  90.6783960 115.6120180 113.3491200  89.2839910 115.0787730
 117.7841720  94.3570740 110.1610460 117.1850610  95.0806540 109.9774080
 118.3321330  94.2947520 109.3786910 112.9943170  95.2492950 122.2280080
 112.8986770  94.3087680 122.0780480 113.8375150  95.4708020 121.8328150
 116.3906590  92.9934280 112.1913740 116.7836160  93.3106480 111.3782430
 116.7523440  92.1146160 112.3058260 108.1253710  91.6606620 120.3813860
 107.7317100  92.5081830 120.5886640 107.4372110  91.0232990 120.5722500
 114.6998760  91.7441590 123.4510600 114.0097080  91.5513790 124.0856690
 115.4431060  92.0276230 123.9834900 105.4270760  89.5835080 114.4143940
 105.1383810  90.1537940 115.1268920 106.1716520  89.1039530 114.7775170
 120.8658390  88.4505890 121.5373840 121.1904160  87.7195550 122.0631820
 120.9014900  88.1319530 120.6354830 107.5649950  99.4719470 120.9573800
 107.1804740  98.8313140 121.5556760 107.8762140 100.1755590 121.5268530
 106.5787580  91.0639700 112.5675890 106.2934500  90.6995370 113.4054510
 106.5166440  90.3320160 111.9539030 116.2526170  89.9568960 109.2889260
 115.4390780  89.4582130 109.2134570 116.0588120  90.7967210 108.8725610
 118.9674560  94.3288610 107.5851420 119.8554180  94.6405840 107.4102760
 118.9379650  93.4560860 107.1932000 107.5610190  96.2007390 119.9037990
 107.2025130  96.8661240 120.4911330 107.2664750  95.3690940 120.2750610
 110.7623310  96.6591630 122.7877540 110.4623450  96.8048810 121.8905360
 111.5334550  96.0996920 122.6950930 116.1051760 101.4560630 120.7832670
 116.1196300 100.5241590 120.5651580 115.3976860 101.5420390 121.4222440
 121.2388830  95.6400450 107.0531280 121.1552550  96.0714670 106.2027720
 121.9583020  96.0998800 107.4858100 122.3162970  98.0967970 120.1301250
 121.5911160  98.6896750 119.9330640 122.8438430  98.0891510 119.3314620
 117.8462560  99.8228140 113.6285100 118.1986380  99.2256270 112.9686470
 116.9624890  99.4972370 113.7993350 115.5385660 103.0978200 117.8773170
 116.1827880 103.3037580 118.5546590 115.9015100 102.3366600 117.4244020
 116.8117740 101.1010550 116.5950620 117.4539970 100.4003710 116.7082790
 117.3367090 101.8808990 116.4147510 120.6573460 101.3859170 106.3189760
 120.4311040 100.6689610 106.9114400 120.2669660 101.1371610 105.4811510
 118.5855360 101.9005450 119.7986680 118.9211600 102.4872140 120.4764600
 117.6655700 101.7698160 120.0284470 106.4389490 105.4126030 107.0934220
 106.7987130 106.0115370 106.4391490 106.2981830 105.9585920 107.8669250
 106.1358760  89.6900630 120.5810090 105.4217280  89.8897550 121.1862700
 106.5553800  88.9140200 120.9524890 120.2389710  99.3031110 107.9803920
 119.9511410  99.7643800 108.7681800 121.0341880  98.8428880 108.2488140
 106.4231350 103.6780890 121.5676620 106.5322470 102.7375630 121.4272010
 105.7711910 103.9435640 120.9190350 114.4143940 101.9496780 122.9674740
 114.0940810 101.2306020 123.5120430 113.7402300 102.6251850 123.0410800
 112.4558110 102.7957230 107.9107890 112.4468210 103.5286920 107.2952400
 111.5356470 102.5488810 108.0034850 120.9959570  91.1379880 109.1399100
 120.3672730  91.2425550 108.4257330 120.5011490  91.3576660 109.9292980
 115.4417710 102.8585470 106.5733080 115.5429690 102.6549460 105.6435060
 114.5419450 102.6043750 106.7780860 116.9959030  90.1416490 111.9952770
 116.8726810  90.1602620 111.0462280 117.9443590  90.1895430 112.1151170
 114.0835820 105.3771790 111.2680750 114.3377320 105.3393180 110.3460120
 113.1348300 105.2505120 111.2609000 121.7966390  91.0530490 119.3977900
 121.2939990  91.7935890 119.7371710 122.6123050  91.4414490 119.0814690
 120.0888400  96.2963670 112.8439260 119.1478540  96.3113900 113.0186950
 120.4032470  95.5099630 113.2899560 109.5631510 105.5603730 114.1910650
 110.2993990 105.0119190 114.4619220 109.9472430 106.4259740 114.0516640
 108.5689790 104.7449800 123.3796230 109.3702520 105.0661850 123.7931630
 108.0541610 104.3845380 124.1016140 112.6733820 104.7334040 106.0136220
 113.4662430 105.0222870 105.5618010 112.1538170 104.3026210 105.3348700
 117.4054420 100.8529670 123.3271640 116.7992580 100.8761270 122.5867390
 117.1008530 100.1212710 123.8638890 118.8354790 104.5809960 121.9381050
 119.7876540 104.4967980 121.8881290 118.6883010 105.2451670 122.6114840
 121.7263990 103.9604170 107.4372960 121.4405500 103.5469310 106.6227140
 121.5283540 104.8891880 107.3173480 106.2887600  97.2323260 122.3232280
 106.7926620  96.6530540 122.8948510 105.5495020  97.5163490 122.8608650
 113.1911220  99.9537450 105.8778570 113.0861860  99.3389800 106.6039950
 113.0235440  99.4303340 105.0941580 113.3425540  98.6394250 121.8567800
 112.5771210  99.2079250 121.7722470 113.5241500  98.3470460 120.9636030
 120.4848890 100.3699580 122.4142820 121.2258360 100.7075340 121.9110280
 119.7221570 100.5391640 121.8612590 108.3210680  95.3752850 123.2182350
 108.3616020  95.0766720 124.1267580 109.1756180  95.7760460 123.0589870
 110.2616490  93.9544950 121.1856840 109.7312950  93.4635900 120.5580180
 110.9304560  94.3829150 120.6514770 119.1594550  98.4214410 120.9498030
 119.5735570  98.5759490 121.7988450 118.2245550  98.5469630 121.1123810
 119.6316720  95.7610570 122.9537180 120.2137490  95.0062890 122.8657660
 119.8078490  96.2918010 122.1768660 110.7488790  90.9207320 121.2654130
 110.6545660  90.3028070 120.5405000 110.1686180  91.6473610 121.0384040
 113.5150230  89.4780560 118.2981520 113.0667530  89.5004820 117.4527070
 112.8815430  89.0799580 118.8951820 111.7717200 104.6787900 120.0351690
 111.2338290 105.4033960 119.7160390 112.0251160 104.2018240 119.2449030
 113.0242450  92.6472420 121.5607620 113.6142140  92.3388270 122.2485440
 112.2062690  92.1752170 121.7167520 117.8435880  92.2638230 121.7940640
 117.1551400  91.6019770 121.7290630 118.5641900  91.8176500 122.2389100
 118.4736280  88.8589860 107.8530900 118.7538570  88.0157760 108.2090320
 117.7002010  89.0912970 108.3669650 114.6279410 105.9139110 120.2938340
 114.5538110 106.8174250 120.6010710 113.7258250 105.5951010 120.2660410
 115.1764740 105.0797620 107.9164700 116.0715530 105.4182590 107.9383460
 115.2082370 104.3577030 107.2888980 106.0306700 103.2413700 113.5971960
 106.3609710 102.3734760 113.3650600 106.4597700 103.4472220 114.4276920
 106.5196910 104.1084290 116.3353590 106.0827900 104.2885090 117.1677740
 107.0874590 104.8658910 116.1935310 122.1559090 103.6101290 120.6230900
 121.5561080 103.6693850 119.8794820 122.2852990 102.6706270 120.7527750
 123.3960540 101.3519110 105.9600610 122.5653500 101.4195760 106.4307840
 123.5732370 102.2423230 105.6567470 122.8517000  98.0966590 108.4634810
 123.6135910  98.6663240 108.5694500 122.8671370  97.5293790 109.2343120
 120.8410730 100.3353270 118.7207060 120.0270570 100.7650430 118.9832850
 121.2484930 100.9471680 118.1076110 122.9036170  98.3900960 105.6207330
 123.1785010  99.2979840 105.4926550 122.7146910  98.3263490 106.5569320
 119.3011780  91.4145810 106.9160960 119.7196660  91.2276790 106.0757620
 118.9947840  90.5624860 107.2263890 122.8001510  96.3269950 110.6136760
 122.4245110  95.5597880 110.1818050 122.0704630  96.7092650 111.1011690
 122.1901130  95.4741470 120.2476280 121.9587220  95.2454220 119.3474230
 122.4505680  96.3941020 120.2021170 106.9413270  93.9166180 121.1404230
 106.0469320  93.8832940 121.4797940 107.4810820  94.1152970 121.9055480
 120.6289200  90.6997900 123.0255980 121.5059380  90.7081300 123.4089980
 120.6410040  89.9628740 122.4148330 105.5659420  93.8303450 108.6367800
 104.6623500  94.0933650 108.4619460 106.0500040  94.1014620 107.8567760
 122.0752470  94.5527440 113.9144000 122.5989950  94.0590090 113.2834170
 122.6611890  94.6877800 114.6591570 122.2542190  94.6367310 117.4363550
 121.3044900  94.6030850 117.5508540 122.4355200  95.5467420 117.2013320
 107.7560790  88.9408320 105.5864830 108.4788920  89.4817260 105.9046050
 108.0285310  88.6671740 104.7106370 121.5652440  93.8100790 109.8536410
 122.0611560  93.5771660 110.6385290 121.3668510  92.9712630 109.4374050
 107.4452980  88.1914510 115.4887450 108.0929170  87.6411890 115.0482610
 107.8654820  88.4457660 116.3103260 122.9939600  92.4461740 112.3874090
 122.8838880  92.2917780 113.3256360 123.7547190  91.9182680 112.1449500
 121.3405320  88.3855870 118.8457090 121.9777540  88.9990010 119.2116280
 121.4880210  88.4216530 117.9006320 123.9568360  91.0480320 108.2536940
 123.1619860  90.9825440 108.7829850 124.1611640  91.9830960 108.2422290
 107.1984980  88.3470180 118.2312770 106.8499800  88.8034000 118.9970950
 106.8672680  87.4527310 118.3135200 108.8049350 101.5189780 122.3965960
 108.7618980 101.1482690 123.2780420 108.9360360 102.4567350 122.5367780
 112.5055380 103.0749370 117.9975680 112.2646740 103.3423930 117.1106200
 113.4458020 103.2455100 118.0526540 114.7109800  89.5382060 121.7532190
 114.6498690  90.1303890 122.5027600 115.6510180  89.4308020 121.6082450
 117.3484360  89.1952120 121.3924480 117.9624770  89.5131410 120.7305560
 117.8933920  88.7100710 122.0120340 123.7659540 105.0943750 118.7986320
 123.2717820 105.4912620 118.0813450 123.1572830 104.4692960 119.1923600
 108.6437380 104.4652030 119.5163740 108.0497700 104.3336730 120.2553780
 108.6361220 103.6290170 119.0505840 118.0892400  87.7584260 117.7193770
 117.2152240  88.0919370 117.5166700 117.9803150  87.2857440 118.5445640
 118.9964380  89.9655130 119.1035490 118.6677740  89.1506890 118.7237220
 119.9446680  89.9224940 118.9801180 121.4498990 105.7367170 116.0773060
 120.9901960 106.4882980 115.7031080 120.8211450 105.0173640 116.0187860
 108.2749610 101.8310410 118.4671780 107.5483670 101.2115700 118.3997730
 108.3358760 102.2251020 117.5969860 111.8794710 104.0455410 115.2521190
 112.3959730 103.4342770 114.7269450 112.5292090 104.5484190 115.7432200
 114.6190210 104.9363900 116.0790170 114.9068020 104.6818200 115.2023180
 115.1313430 104.3841260 116.6695740 115.8367220  88.6754100 116.6586680
 115.0539010  89.1499600 116.9383440 115.5430150  87.7708930 116.5499860
 120.3888290  89.3777200 114.7035770 120.8296380  89.3222300 113.8557370
 120.1195880  90.2935210 114.7745950 122.2526860  89.0092440 112.7144590
 122.1915260  88.0653660 112.5675610 123.0318890  89.1172530 113.2598050
 106.5579610 105.1484800 111.6768540 106.3901650 104.5155480 112.3750430
 105.6914120 105.3544200 111.3262730 107.1807630  88.9801580 109.1800400
 107.9386990  89.0930460 108.6064430 106.7184800  89.8170780 109.1343830
 121.3681020  88.1604860 108.6826060 121.5631650  89.0588310 108.9493490
 120.5810890  87.9291940 109.1759010 109.5532780  89.5065630 107.7202370
 110.0825540  88.7195430 107.5910320 110.1861100  90.1856820 107.9537900
 114.6862570 105.8580000 123.4458370 115.6129880 105.6224270 123.4894330
 114.6713000 106.6852000 122.9644400 110.7635280 105.7900410 107.9967930
 111.4954100 105.5059690 107.4491820 111.0228950 105.5513690 108.8867310
 121.2540130 105.0849860 123.2699410 122.0465450 104.5899090 123.0625370
 121.5473280 105.7640000 123.8775020 115.5117830  97.7349820  96.0324730
 114.7359930  97.2550260  96.3223300 116.1630760  97.0555470  95.8580890
 109.5283660  98.0469630  96.9100490 108.6968540  97.7918340  97.3097000
 110.1364640  98.1180400  97.6458410 109.5084920 102.0809720  97.1058510
 109.8112960 101.1907460  96.9268730 110.2528510 102.6379940  96.8780760
 107.9375610  93.0071520  90.6942880 107.0492310  93.3487490  90.5922760
 108.2216800  92.8071840  89.8023710 111.4883680  98.8383130  98.5043360
 111.1553060  99.4652050  99.1464430 111.6650360  99.3645010  97.7245030
 110.7002780 100.8063930 100.3192540 111.3176780 101.4815010 100.0376990
 109.8395900 101.2151910 100.2280040 105.9935120  99.9963790  89.1999390
 105.6163100 100.4850890  88.4684290 106.2508190 100.6689070  89.8305920
 121.6180370 102.2703340  98.2347180 120.9343890 102.9402450  98.2263850
 122.1574660 102.4683990  97.4692040 111.5961450  96.9893750  94.1764750
 111.1918450  96.2771000  93.6810650 111.6824570  96.6446990  95.0652790
 120.1528760 104.2493180 100.0027060 119.6759320 105.0565370  99.8099670
 119.4690550 103.5971510 100.1553270 111.7813150 103.2278020 103.7754280
 111.7528580 103.6320970 102.9082710 111.6178120 102.2988380 103.6125880
 108.2966080  95.8838730  91.6771400 108.1763680  96.6100820  91.0652670
 107.9866970  95.1141640  91.1999310 123.7327970 104.0105120 105.0718450
 124.2087690 104.4888010 105.7507530 124.3535130 103.9422610 104.3463950
 105.9351450  99.0553870  97.4840040 106.0131870  99.1902640  96.5395760
 106.5493130  98.3469760  97.6768160 107.1799080 100.7554060  93.8946220
 106.7727160 100.8968650  93.0399820 108.0712090 100.4714220  93.6917430
 123.1361220 101.2017970 102.2318460 123.2624280 100.9629850 101.3135640
 123.1782600 100.3702510 102.7040540 116.9977960 104.9045970 100.8013270
 117.5122630 104.8153980 101.6035700 116.1547040 105.2505670 101.0941180
 122.9885230  93.2550430 103.1968200 122.3729500  93.7630100 102.6683660
 122.6681650  92.3548760 103.1394140 105.9910970 100.0968040 100.0234500
 106.1542010  99.6273400  99.2053870 106.4563420  99.5891600 100.6883340
 117.1453770  94.8153020 103.8925840 117.4707180  93.9816770 103.5528070
 117.9334100  95.3381540 104.0404170 105.6140990  93.5255200  86.8503170
 105.5315660  94.4685960  86.9918160 105.2624050  93.3830110  85.9715520
 113.7147090  96.3196010  97.6638930 114.0817220  95.8454580  98.4100270
 113.5252150  97.1937580  98.0047270 106.5787580  91.0639700  93.7932400
 106.2934500  90.6995370  94.6311020 106.5166440  90.3320160  93.1795540
 116.1735030  98.6340060 102.2585380 116.1072340  97.7135730 102.0042970
 115.5440170  98.7315500 102.9730020 118.9674560  94.3288610  88.8107930
 119.8554180  94.6405840  88.6359270 118.9379650  93.4560860  88.4188510
 116.1051760 101.4560630 102.0089180 116.1196300 100.5241590 101.7908090
 115.3976860 101.5420390 102.6478950 106.0718240  96.1998650  87.7529100
 106.9413090  96.4823450  88.0365020 105.5808560  97.0134520  87.6377910
 115.5385660 103.0978200  99.1029680 116.1827880 103.3037580  99.7803100
 115.9015100 102.3366600  98.6500530 120.6573460 101.3859170  87.5446270
 120.4311040 100.6689610  88.1370910 120.2669660 101.1371610  86.7068020
 118.5855360 101.9005450 101.0243190 118.9211600 102.4872140 101.7021110
 117.6655700 101.7698160 101.2540980 106.4231350 103.6780890 102.7933130
 106.5322470 102.7375630 102.6528520 105.7711910 103.9435640 102.1446860
 114.4143940 101.9496780 104.1931250 114.0940810 101.2306020 104.7376940
 113.7402300 102.6251850 104.2667310 108.0564750  98.0172120  89.8811160
 107.4492700  98.7571020  89.8906460 108.5314100  98.1071480  89.0549360
 115.4417710 102.8585470  87.7989590 115.5429690 102.6549460  86.8691570
 114.5419450 102.6043750  88.0037370 110.0670040  97.9783270  87.6299730
 110.8333310  97.8664630  88.1925160 110.1444730  97.2821240  86.9776500
 108.7616800  95.4108340  88.3132620 108.8420390  94.4635850  88.4250020
 109.6536550  95.7415220  88.4193280 106.4476990 101.6277300  91.2908670
 105.5216770 101.8698440  91.2814080 106.9133420 102.4551560  91.1693420
 112.6733820 104.7334040  87.2392730 113.4662430 105.0222870  86.7874520
 112.1538170 104.3026210  86.5605210 117.4054420 100.8529670 104.5528150
 116.7992580 100.8761270 103.8123900 117.1008530 100.1212710 105.0895400
 118.8354790 104.5809960 103.1637560 119.7876540 104.4967980 103.1137800
 118.6883010 105.2451670 103.8371350 121.7263990 103.9604170  88.6629470
 121.4405500 103.5469310  87.8483650 121.5283540 104.8891880  88.5429990
 113.3425540  98.6394250 103.0824310 112.5771210  99.2079250 102.9978980
 113.5241500  98.3470460 102.1892540 116.4313950  99.0157480  87.7077070
 115.8824050  99.4626780  88.3519810 117.0533210  98.5106730  88.2314740
 120.4848890 100.3699580 103.6399330 121.2258360 100.7075340 103.1366790
 119.7221570 100.5391640 103.0869100 119.1594550  98.4214410 102.1754540
 119.5735570  98.5759490 103.0244960 118.2245550  98.5469630 102.3380320
 119.6316720  95.7610570 104.1793690 120.2137490  95.0062890 104.0914170
 119.8078490  96.2918010 103.4025170 113.9209780  98.3734890 100.1450470
 114.3397890  99.2167620  99.9726710 113.0018410  98.5106930  99.9157250
 116.2573680  96.1051070 101.5288310 116.3769890  95.5092210 102.2683150
 117.1167680  96.1420760 101.1089610 111.7717200 104.6787900 101.2608200
 111.2338290 105.4033960 100.9416900 112.0251160 104.2018240 100.4705540
 114.6279410 105.9139110 101.5194850 114.5538110 106.8174250 101.8267220
 113.7258250 105.5951010 101.4916920 115.1764740 105.0797620  89.1421210
 116.0715530 105.4182590  89.1639970 115.2082370 104.3577030  88.5145490
 108.8160900 100.4524670  87.3708210 109.2535770 100.9954340  88.0265790
 109.3008630  99.6271620  87.3804550 122.1559090 103.6101290 101.8487410
 121.5561080 103.6693850 101.1051330 122.2852990 102.6706270 101.9784260
 123.3960540 101.3519110  87.1857120 122.5653500 101.4195760  87.6564350
 123.5732370 102.2423230  86.8823980 122.8517000  98.0966590  89.6891320
 123.6135910  98.6663240  89.7951010 122.8671370  97.5293790  90.4599630
 106.3521340  96.6204520  93.9198980 105.6970180  96.3516160  93.2758680
 107.1899290  96.5109000  93.4700960 120.8410730 100.3353270  99.9463570
 120.0270570 100.7650430 100.2089360 121.2484930 100.9471680  99.3332620
 122.9036170  98.3900960  86.8463840 123.1785010  99.2979840  86.7183060
 122.7146910  98.3263490  87.7825830 105.5659420  93.8303450  89.8624310
 104.6623500  94.0933650  89.6875970 106.0500040  94.1014620  89.0824270
 107.4452980  88.1914510  96.7143960 108.0929170  87.6411890  96.2739120
 107.8654820  88.4457660  97.5359770 112.5055380 103.0749370  99.2232190
 112.2646740 103.3423930  98.3362710 113.4458020 103.2455100  99.2783050
 114.7109800  89.5382060 102.9788700 114.6498690  90.1303890 103.7284110
 115.6510180  89.4308020 102.8338960 123.7659540 105.0943750 100.0242830
 123.2717820 105.4912620  99.3069960 123.1572830 104.4692960 100.4180110
 107.8705620  87.8746380 102.7320050 108.4188610  87.6934430 101.9686160
 107.9360930  87.0840490 103.2676360 108.6437380 104.4652030 100.7420250
 108.0497700 104.3336730 101.4810290 108.6361220 103.6290170 100.2762350
 121.4498990 105.7367170  97.3029570 120.9901960 106.4882980  96.9287590
 120.8211450 105.0173640  97.2444370 108.2749610 101.8310410  99.6928290
 107.5483670 101.2115700  99.6254240 108.3358760 102.2251020  98.8226370
 114.6190210 104.9363900  97.3046680 114.9068020 104.6818200  96.4279690
 115.1313430 104.3841260  97.8952250 114.6862570 105.8580000 104.6714880
 115.6129880 105.6224270 104.7150840 114.6713000 106.6852000 104.1900910
 122.9207630 105.4005570  91.6689130 123.0959820 104.7143310  91.0250050
 122.2229200 105.9252620  91.2765800 110.7635280 105.7900410  89.2224440
 111.4954100 105.5059690  88.6748330 111.0228950 105.5513690  90.1123820
 121.2540130 105.0849860 104.4955920 122.0465450 104.5899090 104.2881880
 121.5473280 105.7640000 105.1031530 109.5283660  98.0469630  78.1357000
 108.6968540  97.7918340  78.5353510 110.1364640  98.1180400  78.8714920
 109.5084920 102.0809720  78.3315020 109.8112960 101.1907460  78.1525240
 110.2528510 102.6379940  78.1037270 105.9008620  95.6077170  77.8039090
 106.4724730  94.8399370  77.8042730 105.9010160  95.9065930  76.8945700
 107.1433490  91.0161530  79.5908020 106.9636330  90.1187280  79.8710780
 106.7413570  91.5633400  80.2654970 110.1137000  91.5903020  72.9537770
 110.2203750  92.4906750  73.2606530 109.2029360  91.5420990  72.6632420
 119.7656110  90.7127830  74.4248670 120.5865730  90.2224400  74.4674150
 119.7990190  91.3025490  75.1780510 107.7620160  93.5122030  78.1990360
 108.4430270  93.7760400  78.8177760 107.4468210  92.6722900  78.5328370
 110.2380830  89.1987950  81.5526370 110.2399270  89.7160340  80.7472270
 109.4085140  88.7218130  81.5296300 116.6251920  99.3107260  73.0516270
 116.0069190  99.7756710  72.4878990 117.1375170 100.0034740  73.4685780
 111.4883680  98.8383130  79.7299870 111.1553060  99.4652050  80.3720940
 111.6650360  99.3645010  78.9501540 109.9196160  90.9097910  79.5596820
 110.2612970  91.7539960  79.2650690 108.9811970  91.0581650  79.6762160
 110.7002780 100.8063930  81.5449050 111.3176780 101.4815010  81.2633500
 109.8395900 101.2151910  81.4536550 113.6024050  88.3980180  75.8841410
 113.9099030  87.8427070  75.1676910 112.6724750  88.5324640  75.7014400
 112.0643150 100.6761310  77.5660470 111.7671440 100.0706780  76.8868250
 113.0142970 100.7138620  77.4549830 111.1561580 100.4143000  84.2168270
 110.2590110 100.6382970  84.4641670 111.1814450 100.5377940  83.2679670
 118.1966800  97.2636120  70.1309530 118.6360080  96.4258550  69.9847350
 118.9095220  97.8965520  70.2173670 109.9832800  97.2856320  82.7925640
 109.8440570  98.1579120  83.1613040 109.1014160  96.9429130  82.6473580
 116.3062180 102.2032190  74.0990770 116.7458090 102.9456520  73.6846160
 116.2449070 102.4458760  75.0229730 111.7813150 103.2278020  85.0010790
 111.7528580 103.6320970  84.1339220 111.6178120 102.2988380  84.8382390
 121.7783940  88.5178930  68.4450570 121.4656600  88.6105760  69.3449640
 122.5396410  89.0959960  68.3948000 123.7327970 104.0105120  86.2974960
 124.2087690 104.4888010  86.9764040 124.3535130 103.9422610  85.5720460
 105.9351450  99.0553870  78.7096550 106.0131870  99.1902640  77.7652270
 106.5493130  98.3469760  78.9024670 123.1361220 101.2017970  83.4574970
 123.2624280 100.9629850  82.5392150 123.1782600 100.3702510  83.9297050
 118.9732360 105.1901310  71.4553780 118.8133500 104.9004250  72.3535610
 118.8079070 104.4141440  70.9199010 111.4520740 104.9699840  73.2325400
 111.2763220 104.0535380  73.0193200 110.5976480 105.3287130  73.4723200
 118.6758490 102.6988870  70.0151780 117.9823650 102.6966160  69.3554060
 119.4181350 102.2748190  69.5845950 105.9910970 100.0968040  81.2491010
 106.1542010  99.6273400  80.4310380 106.4563420  99.5891600  81.9139850
 110.7629740  89.2273800  76.2851580 110.3197890  90.0083340  75.9536100
 111.3214730  89.5503690  76.9922520 115.0499550  92.0942320  81.8886900
 114.5878920  92.3025340  82.7006840 114.6477660  91.2801670  81.5857570
 117.1453770  94.8153020  85.1182350 117.4707180  93.9816770  84.7784580
 117.9334100  95.3381540  85.2660680 117.7841720  94.3570740  72.6123480
 117.1850610  95.0806540  72.4287100 118.3321330  94.2947520  71.8299930
 108.1253710  91.6606620  82.8326880 107.7317100  92.5081830  83.0399660
 107.4372110  91.0232990  83.0235520 105.4270760  89.5835080  76.8656960
 105.1383810  90.1537940  77.5781940 106.1716520  89.1039530  77.2288190
 109.2641500  92.1420720  76.1024240 108.9241550  92.6195950  76.8591290
 108.5018820  91.6885840  75.7425340 112.4880770  95.5707450  69.5320090
 111.9197670  95.1225700  68.9056000 113.1969770  95.9300230  68.9985240
 107.5649950  99.4719470  83.4086820 107.1804740  98.8313140  84.0069780
 107.8762140 100.1755590  83.9781550 106.5787580  91.0639700  75.0188910
 106.2934500  90.6995370  75.8567530 106.5166440  90.3320160  74.4052050
 116.1735030  98.6340060  83.4841890 116.1072340  97.7135730  83.2299480
 115.5440170  98.7315500  84.1986530 118.9674560  94.3288610  70.0364440
 119.8554180  94.6405840  69.8615780 118.9379650  93.4560860  69.6445020
 114.9635150 100.5012300  70.7152610 115.3050850 101.2454530  70.2195930
 114.1347860 100.8143420  71.0777440 107.5610190  96.2007390  82.3551010
 107.2025130  96.8661240  82.9424350 107.2664750  95.3690940  82.7263630
 110.7623310  96.6591630  85.2390560 110.4623450  96.8048810  84.3418380
 111.5334550  96.0996920  85.1463950 116.1051760 101.4560630  83.2345690
 116.1196300 100.5241590  83.0164600 115.3976860 101.5420390  83.8735460
 121.2388830  95.6400450  69.5044300 121.1552550  96.0714670  68.6540740
 121.9583020  96.0998800  69.9371120 122.3162970  98.0967970  82.5814270
 121.5911160  98.6896750  82.3843660 122.8438430  98.0891510  81.7827640
 122.2676080 102.4942710  72.2326430 121.6252240 101.8398330  72.5070150
 121.8806740 102.8997800  71.4567100 113.9325840 100.5825830  73.4868530
 114.6196970 101.1295040  73.8676120 113.1458260 101.1266560  73.5218140
 113.2353050  97.5871860  73.0993890 113.6915830  98.3977110  73.3254080
 112.8841260  97.2695000  73.9312380 115.5385660 103.0978200  80.3286190
 116.1827880 103.3037580  81.0059610 115.9015100 102.3366600  79.8757040
 109.1364830  87.9309510  73.5716410 109.0079460  87.9227410  74.5201330
 108.3126850  88.2692600  73.2207420 118.5855360 101.9005450  82.2499700
 118.9211600 102.4872140  82.9277620 117.6655700 101.7698160  82.4797490
 106.4389490 105.4126030  69.5447240 106.7987130 106.0115370  68.8904510
 106.2981830 105.9585920  70.3182270 106.1358760  89.6900630  83.0323110
 105.4217280  89.8897550  83.6375720 106.5553800  88.9140200  83.4037910
 106.4231350 103.6780890  84.0189640 106.5322470 102.7375630  83.8785030
 105.7711910 103.9435640  83.3703370 114.4143940 101.9496780  85.4187760
 114.0940810 101.2306020  85.9633450 113.7402300 102.6251850  85.4923820
 112.4558110 102.7957230  70.3620910 112.4468210 103.5286920  69.7465420
 111.5356470 102.5488810  70.4547870 120.9959570  91.1379880  71.5912120
 120.3672730  91.2425550  70.8770350 120.5011490  91.3576660  72.3806000
 115.4417710 102.8585470  69.0246100 115.5429690 102.6549460  68.0948080
 114.5419450 102.6043750  69.2293880 114.0835820 105.3771790  73.7193770
 114.3377320 105.3393180  72.7973140 113.1348300 105.2505120  73.7122020
 111.1678620  91.7250910  70.3820710 112.0169150  92.1621060  70.3160900
 110.8009890  92.0371170  71.2092770 109.5631510 105.5603730  76.6423670
 110.2993990 105.0119190  76.9132240 109.9472430 106.4259740  76.5029660
 108.5689790 104.7449800  85.8309250 109.3702520 105.0661850  86.2444650
 108.0541610 104.3845380  86.5529160 112.6733820 104.7334040  68.4649240
 113.4662430 105.0222870  68.0131030 112.1538170 104.3026210  67.7861720
 117.4054420 100.8529670  85.7784660 116.7992580 100.8761270  85.0380410
 117.1008530 100.1212710  86.3151910 118.8354790 104.5809960  84.3894070
 119.7876540 104.4967980  84.3394310 118.6883010 105.2451670  85.0627860
 121.7263990 103.9604170  69.8885980 121.4405500 103.5469310  69.0740160
 121.5283540 104.8891880  69.7686500 106.2887600  97.2323260  84.7745300
 106.7926620  96.6530540  85.3461530 105.5495020  97.5163490  85.3121670
 113.1911220  99.9537450  68.3291590 113.0861860  99.3389800  69.0552970
 113.0235440  99.4303340  67.5454600 113.3425540  98.6394250  84.3080820
 112.5771210  99.2079250  84.2235490 113.5241500  98.3470460  83.4149050
 116.4313950  99.0157480  68.9333580 115.8824050  99.4626780  69.5776320
 117.0533210  98.5106730  69.4571250 120.4848890 100.3699580  84.8655840
 121.2258360 100.7075340  84.3623300 119.7221570 100.5391640  84.3125610
 108.3210680  95.3752850  85.6695370 108.3616020  95.0766720  86.5780600
 109.1756180  95.7760460  85.5102890 110.2616490  93.9544950  83.6369860
 109.7312950  93.4635900  83.0093200 110.9304560  94.3829150  83.1027790
 114.6116710  96.9986010  68.0775980 115.1322370  96.2835030  67.7117130
 115.2585110  97.6371880  68.3776490 119.1594550  98.4214410  83.4011050
 119.5735570  98.5759490  84.2501470 118.2245550  98.5469630  83.5636830
 113.5150230  89.4780560  80.7494540 113.0667530  89.5004820  79.9040090
 112.8815430  89.0799580  81.3464840 113.9209780  98.3734890  81.3706980
 114.3397890  99.2167620  81.1983220 113.0018410  98.5106930  81.1413760
 116.2573680  96.1051070  82.7544820 116.3769890  95.5092210  83.4939660
 117.1167680  96.1420760  82.3346120 111.7717200 104.6787900  82.4864710
 111.2338290 105.4033960  82.1673410 112.0251160 104.2018240  81.6962050
 113.0242450  92.6472420  84.0120640 113.6142140  92.3388270  84.6998460
 112.2062690  92.1752170  84.1680540 117.8435880  92.2638230  84.2453660
 117.1551400  91.6019770  84.1803650 118.5641900  91.8176500  84.6902120
 114.6279410 105.9139110  82.7451360 114.5538110 106.8174250  83.0523730
 113.7258250 105.5951010  82.7173430 115.1764740 105.0797620  70.3677720
 116.0715530 105.4182590  70.3896480 115.2082370 104.3577030  69.7402000
 122.1559090 103.6101290  83.0743920 121.5561080 103.6693850  82.3307840
 122.2852990 102.6706270  83.2040770 122.8517000  98.0966590  70.9147830
 123.6135910  98.6663240  71.0207520 122.8671370  97.5293790  71.6856140
 122.8001510  96.3269950  73.0649780 122.4245110  95.5597880  72.6331070
 122.0704630  96.7092650  73.5524710 107.3897270  97.0057090  79.6858830
 107.7570310  96.9184490  80.5654850 106.8208090  96.2423640  79.5865690
 106.9413270  93.9166180  83.5917250 106.0469320  93.8832940  83.9310960
 107.4810820  94.1152970  84.3568500 107.7560790  88.9408320  68.0377850
 108.4788920  89.4817260  68.3559070 108.0285310  88.6671740  67.1619390
 121.5652440  93.8100790  72.3049430 122.0611560  93.5771660  73.0898310
 121.3668510  92.9712630  71.8887070 107.4452980  88.1914510  77.9400470
 108.0929170  87.6411890  77.4995630 107.8654820  88.4457660  78.7616280
 122.9939600  92.4461740  74.8387110 122.8838880  92.2917780  75.7769380
 123.7547190  91.9182680  74.5962520 123.8829870  90.2769660  68.0793250
 124.8079180  90.1450840  67.8711540 123.8605660  90.3562480  69.0329700
 123.9568360  91.0480320  70.7049960 123.1619860  90.9825440  71.2342870
 124.1611640  91.9830960  70.6935310 107.1984980  88.3470180  80.6825790
 106.8499800  88.8034000  81.4483970 106.8672680  87.4527310  80.7648220
 108.8049350 101.5189780  84.8478980 108.7618980 101.1482690  85.7293440
 108.9360360 102.4567350  84.9880800 112.5055380 103.0749370  80.4488700
 112.2646740 103.3423930  79.5619220 113.4458020 103.2455100  80.5039560
 114.7109800  89.5382060  84.2045210 114.6498690  90.1303890  84.9540620
 115.6510180  89.4308020  84.0595470 117.3484360  89.1952120  83.8437500
 117.9624770  89.5131410  83.1818580 117.8933920  88.7100710  84.4633360
 108.6437380 104.4652030  81.9676760 108.0497700 104.3336730  82.7066800
 108.6361220 103.6290170  81.5018860 108.2749610 101.8310410  80.9184800
 107.5483670 101.2115700  80.8510750 108.3358760 102.2251020  80.0482880
 111.8794710 104.0455410  77.7034210 112.3959730 103.4342770  77.1782470
 112.5292090 104.5484190  78.1945220 107.1807630  88.9801580  71.6313420
 107.9386990  89.0930460  71.0577450 106.7184800  89.8170780  71.5856850
 109.5532780  89.5065630  70.1715390 110.0825540  88.7195430  70.0423340
 110.1861100  90.1856820  70.4050920 111.7470620  89.2440770  73.2260780
 111.1173360  88.5428080  73.3930910 111.2075760  90.0044900  73.0093940
 114.6862570 105.8580000  85.8971390 115.6129880 105.6224270  85.9407350
 114.6713000 106.6852000  85.4157420 122.9207630 105.4005570  72.8945640
 123.0959820 104.7143310  72.2506560 122.2229200 105.9252620  72.5022310
 110.7635280 105.7900410  70.4480950 111.4954100 105.5059690  69.9004840
 111.0228950 105.5513690  71.3380330 118.4741640  87.9378330  86.2393740
 118.3607090  88.2572940  87.1345260 119.2911380  88.3390840  85.9431020
 121.2540130 105.0849860  85.7212430 122.0465450 104.5899090  85.5138390
 121.5473280 105.7640000  86.3288040 117.3799790  95.9570800  56.6028480
 117.2993840  95.0425410  56.3320190 116.9664210  96.4537870  55.8968190
 119.5325260 102.1410010  57.2636880 119.0706790 101.3697250  57.5924050
 120.3450810 102.1676080  57.7689330 105.9008620  95.6077170  59.0295600
 106.4724730  94.8399370  59.0299240 105.9010160  95.9065930  58.1202210
 115.7588570 104.4268020  56.8840870 115.1400010 104.8825520  56.3135310
 116.6140350 104.5819480  56.4830570 110.1137000  91.5903020  54.1794280
 110.2203750  92.4906750  54.4863040 109.2029360  91.5420990  53.8888930
 119.7656110  90.7127830  55.6505180 120.5865730  90.2224400  55.6930660
 119.7990190  91.3025490  56.4037020 124.0555660  92.7294580  62.2148810
 123.3507830  93.1176290  61.6963920 124.3213580  93.4244870  62.8169740
 116.6251920  99.3107260  54.2772780 116.0069190  99.7756710  53.7135500
 117.1375170 100.0034740  54.6942290 120.0017590  92.6528210  58.4232720
 119.2973160  92.9413100  59.0035830 120.3629750  93.4628320  58.0632280
 121.6180370 102.2703340  60.6860200 120.9343890 102.9402450  60.6776870
 122.1574660 102.4683990  59.9205060 123.0704510  92.0983000  58.8141930
 122.1229420  92.1321980  58.9457360 123.3954500  92.9121950  59.1991290
 113.6024050  88.3980180  57.1097920 113.9099030  87.8427070  56.3933420
 112.6724750  88.5324640  56.9270910 119.1539110 104.1147470  59.4005380
 119.1666270 103.7109760  58.5327640 118.6014330 104.8894760  59.2966810
 120.4484530 100.8363690  54.4895550 120.3380860  99.8938020  54.6144970
 120.4452780 101.1979330  55.3758310 115.9904810  96.4629010  53.8458040
 115.0634090  96.3966390  54.0746510 116.1429630  97.4009140  53.7313280
 120.0202100  98.0249310  54.3493290 119.4014520  97.6868860  53.7019590
 120.0026550  97.3809070  55.0572480 120.1528760 104.2493180  62.4540080
 119.6759320 105.0565370  62.2612690 119.4690550 103.5971510  62.6066290
 111.1561580 100.4143000  65.4424780 110.2590110 100.6382970  65.6898180
 111.1814450 100.5377940  64.4936180 116.3062180 102.2032190  55.3247280
 116.7458090 102.9456520  54.9102670 116.2449070 102.4458760  56.2486240
 111.7813150 103.2278020  66.2267300 111.7528580 103.6320970  65.3595730
 111.6178120 102.2988380  66.0638900 121.7783940  88.5178930  49.6707080
 121.4656600  88.6105760  50.5706150 122.5396410  89.0959960  49.6204510
 108.2966080  95.8838730  54.1284420 108.1763680  96.6100820  53.5165690
 107.9866970  95.1141640  53.6512330 123.7327970 104.0105120  67.5231470
 124.2087690 104.4888010  68.2020550 124.3535130 103.9422610  66.7976970
 116.9977960 104.9045970  63.2526290 117.5122630 104.8153980  64.0548720
 116.1547040 105.2505670  63.5454200 118.9732360 105.1901310  52.6810290
 118.8133500 104.9004250  53.5792120 118.8079070 104.4141440  52.1455520
 111.4520740 104.9699840  54.4581910 111.2763220 104.0535380  54.2449710
 110.5976480 105.3287130  54.6979710 118.6758490 102.6988870  51.2408290
 117.9823650 102.6966160  50.5810570 119.4181350 102.2748190  50.8102460
 118.2408420 104.3251580  55.3156780 118.6965370 103.5440960  55.6295400
 118.5800940 105.0358400  55.8597960 105.9910970 100.0968040  62.4747520
 106.1542010  99.6273400  61.6566890 106.4563420  99.5891600  63.1396360
 110.7629740  89.2273800  57.5108090 110.3197890  90.0083340  57.1792610
 111.3214730  89.5503690  58.2179030 113.8788560  88.8484500  52.3913920
 113.2542740  88.8444370  53.1167230 113.7918680  87.9815460  51.9949890
 110.5543960  94.3507370  55.2389340 110.3284880  94.1344540  56.1435960
 109.7736490  94.7835830  54.8935310 116.3906590  92.9934280  55.8683270
 116.7836160  93.3106480  55.0551960 116.7523440  92.1146160  55.9827790
 105.4270760  89.5835080  58.0913470 105.1383810  90.1537940  58.8038450
 106.1716520  89.1039530  58.4544700 113.4759270  93.2606310  51.3593300
 113.5972090  93.2192790  52.3079120 113.0907780  94.1230460  51.2040030
 112.4880770  95.5707450  50.7576600 111.9197670  95.1225700  50.1312510
 113.1969770  95.9300230  50.2241750 120.8658390  88.4505890  65.2143370
 121.1904160  87.7195550  65.7401350 120.9014900  88.1319530  64.3124360
 107.5649950  99.4719470  64.6343330 107.1804740  98.8313140  65.2326290
 107.8762140 100.1755590  65.2038060 106.5787580  91.0639700  56.2445420
 106.2934500  90.6995370  57.0824040 106.5166440  90.3320160  55.6308560
 110.0328250  99.5665640  53.0303010 109.2590510  99.0263260  52.8701730
 110.7622880  99.0472250  52.6920770 120.7916230  98.5631000  58.8229400
 121.5115350  99.0586290  58.4325510 120.5898050  97.8848890  58.1783270
 116.2526170  89.9568960  52.9658790 115.4390780  89.4582130  52.8904100
 116.0588120  90.7967210  52.5495140 114.9635150 100.5012300  51.9409120
 115.3050850 101.2454530  51.4452440 114.1347860 100.8143420  52.3033950
 116.1051760 101.4560630  64.4602200 116.1196300 100.5241590  64.2421110
 115.3976860 101.5420390  65.0991970 122.2676080 102.4942710  53.4582940
 121.6252240 101.8398330  53.7326660 121.8806740 102.8997800  52.6823610
 117.8462560  99.8228140  57.3054630 118.1986380  99.2256270  56.6456000
 116.9624890  99.4972370  57.4762880 106.0718240  96.1998650  50.2042120
 106.9413090  96.4823450  50.4878040 105.5808560  97.0134520  50.0890930
 115.5385660 103.0978200  61.5542700 116.1827880 103.3037580  62.2316120
 115.9015100 102.3366600  61.1013550 109.1364830  87.9309510  54.7972920
 109.0079460  87.9227410  55.7457840 108.3126850  88.2692600  54.4463930
 116.8117740 101.1010550  60.2720150 117.4539970 100.4003710  60.3852320
 117.3367090 101.8808990  60.0917040 106.4389490 105.4126030  50.7703750
 106.7987130 106.0115370  50.1161020 106.2981830 105.9585920  51.5438780
 106.4231350 103.6780890  65.2446150 106.5322470 102.7375630  65.1041540
 105.7711910 103.9435640  64.5959880 114.4143940 101.9496780  66.6444270
 114.0940810 101.2306020  67.1889960 113.7402300 102.6251850  66.7180330
 112.4558110 102.7957230  51.5877420 112.4468210 103.5286920  50.9721930
 111.5356470 102.5488810  51.6804380 108.0564750  98.0172120  52.3324180
 107.4492700  98.7571020  52.3419480 108.5314100  98.1071480  51.5062380
 115.4417710 102.8585470  50.2502610 115.5429690 102.6549460  49.3204590
 114.5419450 102.6043750  50.4550390 112.9643600  93.4165830  54.2326510
 112.2559750  93.8852170  54.6740120 113.2488080  92.7587840  54.8671700
 116.9959030  90.1416490  55.6722300 116.8726810  90.1602620  54.7231810
 117.9443590  90.1895430  55.7920700 114.0835820 105.3771790  54.9450280
 114.3377320 105.3393180  54.0229650 113.1348300 105.2505120  54.9378530
 121.7966390  91.0530490  63.0747430 121.2939990  91.7935890  63.4141240
 122.6123050  91.4414490  62.7584220 120.0888400  96.2963670  56.5208790
 119.1478540  96.3113900  56.6956480 120.4032470  95.5099630  56.9669090
 110.0670040  97.9783270  50.0812750 110.8333310  97.8664630  50.6438180
 110.1444730  97.2821240  49.4289520 108.7616800  95.4108340  50.7645640
 108.8420390  94.4635850  50.8763040 109.6536550  95.7415220  50.8706300
 122.0913980 103.4672520  58.1963050 122.2161400 104.2903690  58.6686860
 122.9579540 103.2563250  57.8487200 109.5631510 105.5603730  57.8680180
 110.2993990 105.0119190  58.1388750 109.9472430 106.4259740  57.7286170
 108.5689790 104.7449800  67.0565760 109.3702520 105.0661850  67.4701160
 108.0541610 104.3845380  67.7785670 112.6733820 104.7334040  49.6905750
 113.4662430 105.0222870  49.2387540 112.1538170 104.3026210  49.0118230
 118.8354790 104.5809960  65.6150580 119.7876540 104.4967980  65.5650820
 118.6883010 105.2451670  66.2884370 113.1911220  99.9537450  49.5548100
 113.0861860  99.3389800  50.2809480 113.0235440  99.4303340  48.7711110
 113.3425540  98.6394250  65.5337330 112.5771210  99.2079250  65.4492000
 113.5241500  98.3470460  64.6405560 116.4313950  99.0157480  50.1590090
 115.8824050  99.4626780  50.8032830 117.0533210  98.5106730  50.6827760
 112.0989070  97.9748400  52.0555390 112.5205490  97.8088270  52.8986780
 112.2239910  97.1648630  51.5610530 113.9209780  98.3734890  62.5963490
 114.3397890  99.2167620  62.4239730 113.0018410  98.5106930  62.3670270
 111.7717200 104.6787900  63.7121220 111.2338290 105.4033960  63.3929920
 112.0251160 104.2018240  62.9218560 114.6279410 105.9139110  63.9707870
 114.5538110 106.8174250  64.2780240 113.7258250 105.5951010  63.9429940
 113.0115700  90.0916870  49.9747630 112.6637700  89.4140860  49.3950080
 113.2128470  89.6306380  50.7891020 115.1764740 105.0797620  51.5934230
 116.0715530 105.4182590  51.6152990 115.2082370 104.3577030  50.9658510
 108.8160900 100.4524670  49.8221230 109.2535770 100.9954340  50.4778810
 109.3008630  99.6271620  49.8317570 122.1559090 103.6101290  64.3000430
 121.5561080 103.6693850  63.5564350 122.2852990 102.6706270  64.4297280
 123.8576970  98.9516690  56.9846270 124.2285800  98.1684010  56.5782240
 124.4978900  99.6405790  56.8063570 122.8001510  96.3269950  54.2906290
 122.4245110  95.5597880  53.8587580 122.0704630  96.7092650  54.7781220
 120.6289200  90.6997900  66.7025510 121.5059380  90.7081300  67.0859510
 120.6410040  89.9628740  66.0917860 105.5659420  93.8303450  52.3137330
 104.6623500  94.0933650  52.1388990 106.0500040  94.1014620  51.5337290
 122.0752470  94.5527440  57.5913530 122.5989950  94.0590090  56.9603700
 122.6611890  94.6877800  58.3361100 122.2542190  94.6367310  61.1133080
 121.3044900  94.6030850  61.2278070 122.4355200  95.5467420  60.8782850
 122.9939600  92.4461740  56.0643620 122.8838880  92.2917780  57.0025890
 123.7547190  91.9182680  55.8219030 121.3405320  88.3855870  62.5226620
 121.9777540  88.9990010  62.8885810 121.4880210  88.4216530  61.5775850
 123.8829870  90.2769660  49.3049760 124.8079180  90.1450840  49.0968050
 123.8605660  90.3562480  50.2586210 123.9568360  91.0480320  51.9306470
 123.1619860  90.9825440  52.4599380 124.1611640  91.9830960  51.9191820
 120.8986780 105.0871870  55.9244860 121.4945850 104.7656440  55.2479280
 121.1564930 104.6143690  56.7158130 108.8049350 101.5189780  66.0735490
 108.7618980 101.1482690  66.9549950 108.9360360 102.4567350  66.2137310
 123.7659540 105.0943750  62.4755850 123.2717820 105.4912620  61.7582980
 123.1572830 104.4692960  62.8693130 107.8705620  87.8746380  65.1833070
 108.4188610  87.6934430  64.4199180 107.9360930  87.0840490  65.7189380
 108.6437380 104.4652030  63.1933270 108.0497700 104.3336730  63.9323310
 108.6361220 103.6290170  62.7275370 118.0892400  87.7584260  61.3963300
 117.2152240  88.0919370  61.1936230 117.9803150  87.2857440  62.2215170
 121.4498990 105.7367170  59.7542590 120.9901960 106.4882980  59.3800610
 120.8211450 105.0173640  59.6957390 114.6190210 104.9363900  59.7559700
 114.9068020 104.6818200  58.8792710 115.1313430 104.3841260  60.3465270
 115.8367220  88.6754100  60.3356210 115.0539010  89.1499600  60.6152970
 115.5430150  87.7708930  60.2269390 120.3888290  89.3777200  58.3805300
 120.8296380  89.3222300  57.5326900 120.1195880  90.2935210  58.4515480
 122.2526860  89.0092440  56.3914120 122.1915260  88.0653660  56.2445140
 123.0318890  89.1172530  56.9367580 113.7221440  91.0940850  55.8472240
 112.9095950  90.7197740  55.5068120 114.2263080  90.3385930  56.1493430
 118.2246420  87.7583300  57.0855310 118.8275790  88.3303510  57.5603830
 117.4839410  88.3222740  56.8629210 121.3681020  88.1604860  52.3595590
 121.5631650  89.0588310  52.6263020 120.5810890  87.9291940  52.8528540
 111.7470620  89.2440770  54.4517290 111.1173360  88.5428080  54.6187420
 111.2075760  90.0044900  54.2350450 122.9207630 105.4005570  54.1202150
 123.0959820 104.7143310  53.4763070 122.2229200 105.9252620  53.7278820
 110.7635280 105.7900410  51.6737460 111.4954100 105.5059690  51.1261350
 111.0228950 105.5513690  52.5636840 109.9250070 101.9065140  51.6783790
 109.2958950 102.3750240  52.2269620 110.0397900 101.0614360  52.1129980
 121.2540130 105.0849860  66.9468940 122.0465450 104.5899090  66.7394900
 121.5473280 105.7640000  67.5544550 115.7588570 104.4268020  38.1097380
 115.1400010 104.8825520  37.5391820 116.6140350 104.5819480  37.7087080
 107.1433490  91.0161530  42.0421040 106.9636330  90.1187280  42.3223800
 106.7413570  91.5633400  42.7167990 119.7656110  90.7127830  36.8761690
 120.5865730  90.2224400  36.9187170 119.7990190  91.3025490  37.6293530
 110.2380830  89.1987950  44.0039390 110.2399270  89.7160340  43.1985290
 109.4085140  88.7218130  43.9809320 120.0017590  92.6528210  39.6489230
 119.2973160  92.9413100  40.2292340 120.3629750  93.4628320  39.2888790
 109.9196160  90.9097910  42.0109840 110.2612970  91.7539960  41.7163710
 108.9811970  91.0581650  42.1275180 115.9904810  96.4629010  35.0714550
 115.0634090  96.3966390  35.3003020 116.1429630  97.4009140  34.9569790
 115.9773890  92.7346010  32.0681710 115.0377560  92.8959970  32.1534170
 116.2957150  93.4531690  31.5217700 111.1561580 100.4143000  46.6681290
 110.2590110 100.6382970  46.9154690 111.1814450 100.5377940  45.7192690
 118.1966800  97.2636120  32.5822550 118.6360080  96.4258550  32.4360370
 118.9095220  97.8965520  32.6686690 111.7813150 103.2278020  47.4523810
 111.7528580 103.6320970  46.5852240 111.6178120 102.2988380  47.2895410
 121.7783940  88.5178930  30.8963590 121.4656600  88.6105760  31.7962660
 122.5396410  89.0959960  30.8461020 116.9977960 104.9045970  44.4782800
 117.5122630 104.8153980  45.2805230 116.1547040 105.2505670  44.7710710
 113.8788560  88.8484500  33.6170430 113.2542740  88.8444370  34.3423740
 113.7918680  87.9815460  33.2206400 112.8005640  89.7721130  40.5954200
 113.0977970  90.6783960  40.5146220 113.3491200  89.2839910  39.9813770
 117.7841720  94.3570740  35.0636500 117.1850610  95.0806540  34.8800120
 118.3321330  94.2947520  34.2812950 112.9943170  95.2492950  47.1306120
 112.8986770  94.3087680  46.9806520 113.8375150  95.4708020  46.7354190
 113.4759270  93.2606310  32.5849810 113.5972090  93.2192790  33.5335630
 113.0907780  94.1230460  32.4296540 120.8658390  88.4505890  46.4399880
 121.1904160  87.7195550  46.9657860 120.9014900  88.1319530  45.5380870
 107.5649950  99.4719470  45.8599840 107.1804740  98.8313140  46.4582800
 107.8762140 100.1755590  46.4294570 116.2526170  89.9568960  34.1915300
 115.4390780  89.4582130  34.1160610 116.0588120  90.7967210  33.7751650
 116.1735030  98.6340060  45.9354910 116.1072340  97.7135730  45.6812500
 115.5440170  98.7315500  46.6499550 118.9674560  94.3288610  32.4877460
 119.8554180  94.6405840  32.3128800 118.9379650  93.4560860  32.0958040
 114.9635150 100.5012300  33.1665630 115.3050850 101.2454530  32.6708950
 114.1347860 100.8143420  33.5290460 110.7623310  96.6591630  47.6903580
 110.4623450  96.8048810  46.7931400 111.5334550  96.0996920  47.5976970
 116.1051760 101.4560630  45.6858710 116.1196300 100.5241590  45.4677620
 115.3976860 101.5420390  46.3248480 121.2388830  95.6400450  31.9557320
 121.1552550  96.0714670  31.1053760 121.9583020  96.0998800  32.3884140
 113.9325840 100.5825830  35.9381550 114.6196970 101.1295040  36.3189140
 113.1458260 101.1266560  35.9731160 106.4389490 105.4126030  31.9960260
 106.7987130 106.0115370  31.3417530 106.2981830 105.9585920  32.7695290
 106.4231350 103.6780890  46.4702660 106.5322470 102.7375630  46.3298050
 105.7711910 103.9435640  45.8216390 114.4143940 101.9496780  47.8700780
 114.0940810 101.2306020  48.4146470 113.7402300 102.6251850  47.9436840
 120.9959570  91.1379880  34.0425140 120.3672730  91.2425550  33.3283370
 120.5011490  91.3576660  34.8319020 115.4417710 102.8585470  31.4759120
 115.5429690 102.6549460  30.5461100 114.5419450 102.6043750  31.6806900
 112.9643600  93.4165830  35.4583020 112.2559750  93.8852170  35.8996630
 113.2488080  92.7587840  36.0928210 116.9959030  90.1416490  36.8978810
 116.8726810  90.1602620  35.9488320 117.9443590  90.1895430  37.0177210
 121.7966390  91.0530490  44.3003940 121.2939990  91.7935890  44.6397750
 122.6123050  91.4414490  43.9840730 120.0888400  96.2963670  37.7465300
 119.1478540  96.3113900  37.9212990 120.4032470  95.5099630  38.1925600
 109.5631510 105.5603730  39.0936690 110.2993990 105.0119190  39.3645260
 109.9472430 106.4259740  38.9542680 108.5689790 104.7449800  48.2822270
 109.3702520 105.0661850  48.6957670 108.0541610 104.3845380  49.0042180
 106.2887600  97.2323260  47.2258320 106.7926620  96.6530540  47.7974550
 105.5495020  97.5163490  47.7634690 113.3425540  98.6394250  46.7593840
 112.5771210  99.2079250  46.6748510 113.5241500  98.3470460  45.8662070
 116.4313950  99.0157480  31.3846600 115.8824050  99.4626780  32.0289340
 117.0533210  98.5106730  31.9084270 114.6116710  96.9986010  30.5289000
 115.1322370  96.2835030  30.1630150 115.2585110  97.6371880  30.8289510
 113.5150230  89.4780560  43.2007560 113.0667530  89.5004820  42.3553110
 112.8815430  89.0799580  43.7977860 110.9947970  94.0481630  30.2270060
 110.7937030  93.1848990  30.5883400 110.8240020  93.9614990  29.2891660
 111.7717200 104.6787900  44.9377730 111.2338290 105.4033960  44.6186430
 112.0251160 104.2018240  44.1475070 113.0242450  92.6472420  46.4633660
 113.6142140  92.3388270  47.1511480 112.2062690  92.1752170  46.6193560
 118.4736280  88.8589860  32.7556940 118.7538570  88.0157760  33.1116360
 117.7002010  89.0912970  33.2695690 114.6279410 105.9139110  45.1964380
 114.5538110 106.8174250  45.5036750 113.7258250 105.5951010  45.1686450
 113.0115700  90.0916870  31.2004140 112.6637700  89.4140860  30.6206590
 113.2128470  89.6306380  32.0147530 106.0306700 103.2413700  38.4998000
 106.3609710 102.3734760  38.2676640 106.4597700 103.4472220  39.3302960
 106.5196910 104.1084290  41.2379630 106.0827900 104.2885090  42.0703780
 107.0874590 104.8658910  41.0961350 123.3960540 101.3519110  30.8626650
 122.5653500 101.4195760  31.3333880 123.5732370 102.2423230  30.5593510
 122.8517000  98.0966590  33.3660850 123.6135910  98.6663240  33.4720540
 122.8671370  97.5293790  34.1369160 123.8576970  98.9516690  38.2102780
 124.2285800  98.1684010  37.8038750 124.4978900  99.6405790  38.0320080
 122.9036170  98.3900960  30.5233370 123.1785010  99.2979840  30.3952590
 122.7146910  98.3263490  31.4595360 119.3011780  91.4145810  31.8187000
 119.7196660  91.2276790  30.9783660 118.9947840  90.5624860  32.1289930
 122.8001510  96.3269950  35.5162800 122.4245110  95.5597880  35.0844090
 122.0704630  96.7092650  36.0037730 122.2542190  94.6367310  42.3389590
 121.3044900  94.6030850  42.4534580 122.4355200  95.5467420  42.1039360
 121.5652440  93.8100790  34.7562450 122.0611560  93.5771660  35.5411330
 121.3668510  92.9712630  34.3400090 121.3405320  88.3855870  43.7483130
 121.9777540  88.9990010  44.1142320 121.4880210  88.4216530  42.8032360
 123.8829870  90.2769660  30.5306270 124.8079180  90.1450840  30.3224560
 123.8605660  90.3562480  31.4842720 123.9568360  91.0480320  33.1562980
 123.1619860  90.9825440  33.6855890 124.1611640  91.9830960  33.1448330
 108.8049350 101.5189780  47.2992000 108.7618980 101.1482690  48.1806460
 108.9360360 102.4567350  47.4393820 112.5055380 103.0749370  42.9001720
 112.2646740 103.3423930  42.0132240 113.4458020 103.2455100  42.9552580
 114.7109800  89.5382060  46.6558230 114.6498690  90.1303890  47.4053640
 115.6510180  89.4308020  46.5108490 117.3484360  89.1952120  46.2950520
 117.9624770  89.5131410  45.6331600 117.8933920  88.7100710  46.9146380
 108.6437380 104.4652030  44.4189780 108.0497700 104.3336730  45.1579820
 108.6361220 103.6290170  43.9531880 118.0892400  87.7584260  42.6219810
 117.2152240  88.0919370  42.4192740 117.9803150  87.2857440  43.4471680
 118.9964380  89.9655130  44.0061530 118.6677740  89.1506890  43.6263260
 119.9446680  89.9224940  43.8827220 111.8794710 104.0455410  40.1547230
 112.3959730 103.4342770  39.6295490 112.5292090 104.5484190  40.6458240
 114.6190210 104.9363900  40.9816210 114.9068020 104.6818200  40.1049220
 115.1313430 104.3841260  41.5721780 115.8367220  88.6754100  41.5612720
 115.0539010  89.1499600  41.8409480 115.5430150  87.7708930  41.4525900
 120.3888290  89.3777200  39.6061810 120.8296380  89.3222300  38.7583410
 120.1195880  90.2935210  39.6771990 122.2526860  89.0092440  37.6170630
 122.1915260  88.0653660  37.4701650 123.0318890  89.1172530  38.1624090
 106.5579610 105.1484800  36.5794580 106.3901650 104.5155480  37.2776470
 105.6914120 105.3544200  36.2288770 113.7221440  91.0940850  37.0728750
 112.9095950  90.7197740  36.7324630 114.2263080  90.3385930  37.3749940
 118.2246420  87.7583300  38.3111820 118.8275790  88.3303510  38.7860340
 117.4839410  88.3222740  38.0885720 121.3681020  88.1604860  33.5852100
 121.5631650  89.0588310  33.8519530 120.5810890  87.9291940  34.0785050
 114.6862570 105.8580000  48.3484410 115.6129880 105.6224270  48.3920370
 114.6713000 106.6852000  47.8670440 111.8726180  88.5224750  48.1126290
 111.5910450  89.0258350  47.3487110 112.2545880  87.7246500  47.7468420
 118.4741640  87.9378330  48.6906760 118.3607090  88.2572940  49.5858280
 119.2911380  88.3390840  48.3944040 117.3799790  95.9570800  19.0541500
 117.2993840  95.0425410  18.7833210 116.9664210  96.4537870  18.3481210
 115.5117830  97.7349820  20.9350770 114.7359930  97.2550260  21.2249340
 116.1630760  97.0555470  20.7606930 109.5283660  98.0469630  21.8126530
 108.6968540  97.7918340  22.2123040 110.1364640  98.1180400  22.5484450
 119.5325260 102.1410010  19.7149900 119.0706790 101.3697250  20.0437070
 120.3450810 102.1676080  20.2202350 109.5084920 102.0809720  22.0084550
 109.8112960 101.1907460  21.8294770 110.2528510 102.6379940  21.7806800
 107.9375610  93.0071520  15.5968920 107.0492310  93.3487490  15.4948800
 108.2216800  92.8071840  14.7049750 105.9008620  95.6077170  21.4808620
 106.4724730  94.8399370  21.4812260 105.9010160  95.9065930  20.5715230
 115.7588570 104.4268020  19.3353890 115.1400010 104.8825520  18.7648330
 116.6140350 104.5819480  18.9343590 114.9526820 100.4107010  20.9420930
 114.8835100  99.4696950  20.7810060 115.7146680 100.5008420  21.5143500
 107.1433490  91.0161530  23.2677550 106.9636330  90.1187280  23.5480310
 106.7413570  91.5633400  23.9424500 115.9831990  93.2177390  21.1689860
 116.3596810  92.3449270  21.0563530 115.8851500  93.5536090  20.2780300
 110.1137000  91.5903020  16.6307300 110.2203750  92.4906750  16.9376060
 109.2029360  91.5420990  16.3401950 119.7656110  90.7127830  18.1018200
 120.5865730  90.2224400  18.1443680 119.7990190  91.3025490  18.8550040
 107.7620160  93.5122030  21.8759890 108.4430270  93.7760400  22.4947290
 107.4468210  92.6722900  22.2097900 111.9544730  94.5589390  20.9632480
 112.4622950  95.0570360  21.6037500 112.4857970  93.7824590  20.7871840
 124.0555660  92.7294580  24.6661830 123.3507830  93.1176290  24.1476940
 124.3213580  93.4244870  25.2682760 110.2380830  89.1987950  25.2295900
 110.2399270  89.7160340  24.4241800 109.4085140  88.7218130  25.2065830
 116.6251920  99.3107260  16.7285800 116.0069190  99.7756710  16.1648520
 117.1375170 100.0034740  17.1455310 111.4883680  98.8383130  23.4069400
 111.1553060  99.4652050  24.0490470 111.6650360  99.3645010  22.6271070
 120.0017590  92.6528210  20.8745740 119.2973160  92.9413100  21.4548850
 120.3629750  93.4628320  20.5145300 109.9196160  90.9097910  23.2366350
 110.2612970  91.7539960  22.9420220 108.9811970  91.0581650  23.3531690
 105.9935120  99.9963790  14.1025430 105.6163100 100.4850890  13.3710330
 106.2508190 100.6689070  14.7331960 121.6180370 102.2703340  23.1373220
 120.9343890 102.9402450  23.1289890 122.1574660 102.4683990  22.3718080
 123.0704510  92.0983000  21.2654950 122.1229420  92.1321980  21.3970380
 123.3954500  92.9121950  21.6504310 113.6024050  88.3980180  19.5610940
 113.9099030  87.8427070  18.8446440 112.6724750  88.5324640  19.3783930
 119.1539110 104.1147470  21.8518400 119.1666270 103.7109760  20.9840660
 118.6014330 104.8894760  21.7479830 120.4484530 100.8363690  16.9408570
 120.3380860  99.8938020  17.0657990 120.4452780 101.1979330  17.8271330
 118.5524550  99.0177310  23.1801010 118.9693340  98.8037420  22.3454470
 119.2764370  99.2750100  23.7509630 115.9904810  96.4629010  16.2971060
 115.0634090  96.3966390  16.5259530 116.1429630  97.4009140  16.1826300
 115.9773890  92.7346010  13.2938220 115.0377560  92.8959970  13.3790680
 116.2957150  93.4531690  12.7474210 122.4986650  97.4164530  23.2717250
 121.6705280  97.4857620  22.7967380 123.0937130  98.0018840  22.8033080
 120.0202100  98.0249310  16.8006310 119.4014520  97.6868860  16.1532610
 120.0026550  97.3809070  17.5085500 119.4628660  94.2033850  24.2172120
 119.0499840  95.0287560  24.4712110 118.7304610  93.6178890  24.0248480
 111.5961450  96.9893750  19.0790790 111.1918450  96.2771000  18.5836690
 111.6824570  96.6446990  19.9678830 112.0643150 100.6761310  21.2430000
 111.7671440 100.0706780  20.5637780 113.0142970 100.7138620  21.1319360
 110.3090070  93.7636960  22.8589830 110.8604660  93.8732300  22.0843080
 110.8233580  94.1374560  23.5745060 120.1528760 104.2493180  24.9053100
 119.6759320 105.0565370  24.7125710 119.4690550 103.5971510  25.0579310
 118.1966800  97.2636120  13.8079060 118.6360080  96.4258550  13.6616880
 118.9095220  97.8965520  13.8943200 109.9832800  97.2856320  26.4695170
 109.8440570  98.1579120  26.8382570 109.1014160  96.9429130  26.3243110
 116.3062180 102.2032190  17.7760300 116.7458090 102.9456520  17.3615690
 116.2449070 102.4458760  18.6999260 121.7783940  88.5178930  12.1220100
 121.4656600  88.6105760  13.0219170 122.5396410  89.0959960  12.0717530
 108.2966080  95.8838730  16.5797440 108.1763680  96.6100820  15.9678710
 107.9866970  95.1141640  16.1025350 123.7327970 104.0105120  29.9744490
 124.2087690 104.4888010  30.6533570 124.3535130 103.9422610  29.2489990
 105.9351450  99.0553870  22.3866080 106.0131870  99.1902640  21.4421800
 106.5493130  98.3469760  22.5794200 107.1799080 100.7554060  18.7972260
 106.7727160 100.8968650  17.9425860 108.0712090 100.4714220  18.5943470
 123.1361220 101.2017970  27.1344500 123.2624280 100.9629850  26.2161680
 123.1782600 100.3702510  27.6066580 116.9977960 104.9045970  25.7039310
 117.5122630 104.8153980  26.5061740 116.1547040 105.2505670  25.9967220
 118.9732360 105.1901310  15.1323310 118.8133500 104.9004250  16.0305140
 118.8079070 104.4141440  14.5968540 111.4520740 104.9699840  16.9094930
 111.2763220 104.0535380  16.6962730 110.5976480 105.3287130  17.1492730
 118.6758490 102.6988870  13.6921310 117.9823650 102.6966160  13.0323590
 119.4181350 102.2748190  13.2615480 118.2408420 104.3251580  17.7669800
 118.6965370 103.5440960  18.0808420 118.5800940 105.0358400  18.3110980
 122.9885230  93.2550430  28.0994240 122.3729500  93.7630100  27.5709700
 122.6681650  92.3548760  28.0420180 105.9910970 100.0968040  24.9260540
 106.1542010  99.6273400  24.1079910 106.4563420  99.5891600  25.5909380
 110.7629740  89.2273800  19.9621110 110.3197890  90.0083340  19.6305630
 111.3214730  89.5503690  20.6692050 115.0499550  92.0942320  25.5656430
 114.5878920  92.3025340  26.3776370 114.6477660  91.2801670  25.2627100
 120.0504060  93.3151270  26.6953090 119.1997650  93.0157020  27.0162160
 119.8905850  93.5593280  25.7836910 117.1453770  94.8153020  28.7951880
 117.4707180  93.9816770  28.4554110 117.9334100  95.3381540  28.9430210
 113.8788560  88.8484500  14.8426940 113.2542740  88.8444370  15.5680250
 113.7918680  87.9815460  14.4462910 112.8005640  89.7721130  21.8210710
 113.0977970  90.6783960  21.7402730 113.3491200  89.2839910  21.2070280
 110.5543960  94.3507370  17.6902360 110.3284880  94.1344540  18.5948980
 109.7736490  94.7835830  17.3448330 117.7841720  94.3570740  16.2893010
 117.1850610  95.0806540  16.1056630 118.3321330  94.2947520  15.5069460
 112.9943170  95.2492950  28.3562630 112.8986770  94.3087680  28.2063030
 113.8375150  95.4708020  27.9610700 116.3906590  92.9934280  18.3196290
 116.7836160  93.3106480  17.5064980 116.7523440  92.1146160  18.4340810
 108.1253710  91.6606620  26.5096410 107.7317100  92.5081830  26.7169190
 107.4372110  91.0232990  26.7005050 114.6998760  91.7441590  29.5793150
 114.0097080  91.5513790  30.2139240 115.4431060  92.0276230  30.1117450
 105.4270760  89.5835080  20.5426490 105.1383810  90.1537940  21.2551470
 106.1716520  89.1039530  20.9057720 105.6140990  93.5255200  11.7529210
 105.5315660  94.4685960  11.8944200 105.2624050  93.3830110  10.8741560
 116.9761730  95.5840030  22.4147070 116.2442850  96.0926840  22.7637170
 116.5786070  94.7670010  22.1135850 113.4139120  92.2594230  20.8199560
 113.4175180  91.8184180  19.9704100 114.3090240  92.5811560  20.9271380
 109.2641500  92.1420720  19.7793770 108.9241550  92.6195950  20.5360820
 108.5018820  91.6885840  19.4194870 113.4759270  93.2606310  13.8106320
 113.5972090  93.2192790  14.7592140 113.0907780  94.1230460  13.6553050
 117.4387640  91.0373710  21.8270010 117.4560380  91.4882360  22.6711860
 117.1903220  90.1379350  22.0403450 112.4880770  95.5707450  13.2089620
 111.9197670  95.1225700  12.5825530 113.1969770  95.9300230  12.6754770
 120.8658390  88.4505890  27.6656390 121.1904160  87.7195550  28.1914370
 120.9014900  88.1319530  26.7637380 107.5649950  99.4719470  27.0856350
 107.1804740  98.8313140  27.6839310 107.8762140 100.1755590  27.6551080
 113.7147090  96.3196010  22.5664970 114.0817220  95.8454580  23.3126310
 113.5252150  97.1937580  22.9073310 106.5787580  91.0639700  18.6958440
 106.2934500  90.6995370  19.5337060 106.5166440  90.3320160  18.0821580
 111.5046460  95.3604650  24.8849180 111.2003530  96.2396630  25.1099540
 112.4592920  95.4204440  24.9206620 110.0328250  99.5665640  15.4816030
 109.2590510  99.0263260  15.3214750 110.7622880  99.0472250  15.1433790
 120.7916230  98.5631000  21.2742420 121.5115350  99.0586290  20.8838530
 120.5898050  97.8848890  20.6296290 116.2526170  89.9568960  15.4171810
 115.4390780  89.4582130  15.3417120 116.0588120  90.7967210  15.0008160
 116.1735030  98.6340060  27.1611420 116.1072340  97.7135730  26.9069010
 115.5440170  98.7315500  27.8756060 118.9674560  94.3288610  13.7133970
 119.8554180  94.6405840  13.5385310 118.9379650  93.4560860  13.3214550
 110.0765650  99.2346020  19.1194840 110.5944320  98.4314280  19.0651730
 109.6249670  99.1725160  19.9611670 114.9635150 100.5012300  14.3922140
 115.3050850 101.2454530  13.8965460 114.1347860 100.8143420  14.7546970
 107.5610190  96.2007390  26.0320540 107.2025130  96.8661240  26.6193880
 107.2664750  95.3690940  26.4033160 121.2388830  95.6400450  13.1813830
 121.1552550  96.0714670  12.3310270 121.9583020  96.0998800  13.6140650
 122.3162970  98.0967970  26.2583800 121.5911160  98.6896750  26.0613190
 122.8438430  98.0891510  25.4597170 122.2676080 102.4942710  15.9095960
 121.6252240 101.8398330  16.1839680 121.8806740 102.8997800  15.1336630
 117.8462560  99.8228140  19.7567650 118.1986380  99.2256270  19.0969020
 116.9624890  99.4972370  19.9275900 113.9325840 100.5825830  17.1638060
 114.6196970 101.1295040  17.5445650 113.1458260 101.1266560  17.1987670
 106.0718240  96.1998650  12.6555140 106.9413090  96.4823450  12.9391060
 105.5808560  97.0134520  12.5403950 113.2353050  97.5871860  16.7763420
 113.6915830  98.3977110  17.0023610 112.8841260  97.2695000  17.6081910
 115.5385660 103.0978200  24.0055720 116.1827880 103.3037580  24.6829140
 115.9015100 102.3366600  23.5526570 109.1364830  87.9309510  17.2485940
 109.0079460  87.9227410  18.1970860 108.3126850  88.2692600  16.8976950
 116.8117740 101.1010550  22.7233170 117.4539970 100.4003710  22.8365340
 117.3367090 101.8808990  22.5430060 120.6573460 101.3859170  12.4472310
 120.4311040 100.6689610  13.0396950 120.2669660 101.1371610  11.6094060
 118.5855360 101.9005450  25.9269230 118.9211600 102.4872140  26.6047150
 117.6655700 101.7698160  26.1567020 106.4389490 105.4126030  13.2216770
 106.7987130 106.0115370  12.5674040 106.2981830 105.9585920  13.9951800
 106.1358760  89.6900630  26.7092640 105.4217280  89.8897550  27.3145250
 106.5553800  88.9140200  27.0807440 120.2389710  99.3031110  14.1086470
 119.9511410  99.7643800  14.8964350 121.0341880  98.8428880  14.3770690
 112.4558110 102.7957230  14.0390440 112.4468210 103.5286920  13.4234950
 111.5356470 102.5488810  14.1317400 108.0564750  98.0172120  14.7837200
 107.4492700  98.7571020  14.7932500 108.5314100  98.1071480  13.9575400
 117.6297540  92.1822940  24.4594090 117.9978360  91.3618150  24.7873660
 116.7695740  92.2424830  24.8749740 120.9959570  91.1379880  15.2681650
 120.3672730  91.2425550  14.5539880 120.5011490  91.3576660  16.0575530
 115.4417710 102.8585470  12.7015630 115.5429690 102.6549460  11.7717610
 114.5419450 102.6043750  12.9063410 112.9643600  93.4165830  16.6839530
 112.2559750  93.8852170  17.1253140 113.2488080  92.7587840  17.3184720
 114.5899530  94.8362530  24.6832060 115.0884780  95.3108350  25.3483910
 114.7322480  93.9126050  24.8902090 116.9959030  90.1416490  18.1235320
 116.8726810  90.1602620  17.1744830 117.9443590  90.1895430  18.2433720
 114.0835820 105.3771790  17.3963300 114.3377320 105.3393180  16.4742670
 113.1348300 105.2505120  17.3891550 111.1678620  91.7250910  14.0590240
 112.0169150  92.1621060  13.9930430 110.8009890  92.0371170  14.8862300
 121.7966390  91.0530490  25.5260450 121.2939990  91.7935890  25.8654260
 122.6123050  91.4414490  25.2097240 120.0888400  96.2963670  18.9721810
 119.1478540  96.3113900  19.1469500 120.4032470  95.5099630  19.4182110
 110.0670040  97.9783270  12.5325770 110.8333310  97.8664630  13.0951200
 110.1444730  97.2821240  11.8802540 108.7616800  95.4108340  13.2158660
 108.8420390  94.4635850  13.3276060 109.6536550  95.7415220  13.3219320
 122.0913980 103.4672520  20.6476070 122.2161400 104.2903690  21.1199880
 122.9579540 103.2563250  20.3000220 109.5631510 105.5603730  20.3193200
 110.2993990 105.0119190  20.5901770 109.9472430 106.4259740  20.1799190
 106.4476990 101.6277300  16.1934710 105.5216770 101.8698440  16.1840120
 106.9133420 102.4551560  16.0719460 112.6733820 104.7334040  12.1418770
 113.4662430 105.0222870  11.6900560 112.1538170 104.3026210  11.4631250
 117.4054420 100.8529670  29.4554190 116.7992580 100.8761270  28.7149940
 117.1008530 100.1212710  29.9921440 118.8354790 104.5809960  28.0663600
 119.7876540 104.4967980  28.0163840 118.6883010 105.2451670  28.7397390
 121.7263990 103.9604170  13.5655510 121.4405500 103.5469310  12.7509690
 121.5283540 104.8891880  13.4456030 113.1911220  99.9537450  12.0061120
 113.0861860  99.3389800  12.7322500 113.0235440  99.4303340  11.2224130
 116.4313950  99.0157480  12.6103110 115.8824050  99.4626780  13.2545850
 117.0533210  98.5106730  13.1340780 120.4848890 100.3699580  28.5425370
 121.2258360 100.7075340  28.0392830 119.7221570 100.5391640  27.9895140
 112.0989070  97.9748400  14.5068410 112.5205490  97.8088270  15.3499800
 112.2239910  97.1648630  14.0123550 110.2616490  93.9544950  27.3139390
 109.7312950  93.4635900  26.6862730 110.9304560  94.3829150  26.7797320
 114.6116710  96.9986010  11.7545510 115.1322370  96.2835030  11.3886660
 115.2585110  97.6371880  12.0546020 119.1594550  98.4214410  27.0780580
 119.5735570  98.5759490  27.9271000 118.2245550  98.5469630  27.2406360
 119.6316720  95.7610570  29.0819730 120.2137490  95.0062890  28.9940210
 119.8078490  96.2918010  28.3051210 110.7488790  90.9207320  27.3936680
 110.6545660  90.3028070  26.6687550 110.1686180  91.6473610  27.1666590
 113.5150230  89.4780560  24.4264070 113.0667530  89.5004820  23.5809620
 112.8815430  89.0799580  25.0234370 113.9209780  98.3734890  25.0476510
 114.3397890  99.2167620  24.8752750 113.0018410  98.5106930  24.8183290
 116.2573680  96.1051070  26.4314350 116.3769890  95.5092210  27.1709190
 117.1167680  96.1420760  26.0115650 118.5961580  96.6588260  25.0076860
 118.0696800  97.1830880  24.4042000 118.9392920  97.2915650  25.6386590
 110.9947970  94.0481630  11.4526570 110.7937030  93.1848990  11.8139910
 110.8240020  93.9614990  10.5148170 113.0242450  92.6472420  27.6890170
 113.6142140  92.3388270  28.3767990 112.2062690  92.1752170  27.8450070
 117.8435880  92.2638230  27.9223190 117.1551400  91.6019770  27.8573180
 118.5641900  91.8176500  28.3671650 118.4736280  88.8589860  13.9813450
 118.7538570  88.0157760  14.3372870 117.7002010  89.0912970  14.4952200
 109.7930770  91.1482250  11.4404450 110.0956670  91.1549680  10.5323600
 110.5325360  90.7980110  11.9372110 113.0115700  90.0916870  12.4260650
 112.6637700  89.4140860  11.8463100 113.2128470  89.6306380  13.2404040
 115.1764740 105.0797620  14.0447250 116.0715530 105.4182590  14.0666010
 115.2082370 104.3577030  13.4171530 108.8160900 100.4524670  12.2734250
 109.2535770 100.9954340  12.9291830 109.3008630  99.6271620  12.2830590
 106.0306700 103.2413700  19.7254510 106.3609710 102.3734760  19.4933150
 106.4597700 103.4472220  20.5559470 110.6268620 101.5722710  17.3856480
 110.3264160 101.4487680  18.2860390 110.5206110 100.7131300  16.9772210
 106.5196910 104.1084290  22.4636140 106.0827900 104.2885090  23.2960290
 107.0874590 104.8658910  22.3217860 122.1559090 103.6101290  26.7513450
 121.5561080 103.6693850  26.0077370 122.2852990 102.6706270  26.8810300
 123.3960540 101.3519110  12.0883160 122.5653500 101.4195760  12.5590390
 123.5732370 102.2423230  11.7850020 122.8517000  98.0966590  14.5917360
 123.6135910  98.6663240  14.6977050 122.8671370  97.5293790  15.3625670
 106.3521340  96.6204520  18.8225020 105.6970180  96.3516160  18.1784720
 107.1899290  96.5109000  18.3727000 123.8576970  98.9516690  19.4359290
 124.2285800  98.1684010  19.0295260 124.4978900  99.6405790  19.2576590
 120.8410730 100.3353270  24.8489610 120.0270570 100.7650430  25.1115400
 121.2484930 100.9471680  24.2358660 122.9036170  98.3900960  11.7489880
 123.1785010  99.2979840  11.6209100 122.7146910  98.3263490  12.6851870
 119.3011780  91.4145810  13.0443510 119.7196660  91.2276790  12.2040170
 118.9947840  90.5624860  13.3546440 122.8001510  96.3269950  16.7419310
 122.4245110  95.5597880  16.3100600 122.0704630  96.7092650  17.2294240
 107.3897270  97.0057090  23.3628360 107.7570310  96.9184490  24.2424380
 106.8208090  96.2423640  23.2635220 122.1901130  95.4741470  26.3758830
 121.9587220  95.2454220  25.4756780 122.4505680  96.3941020  26.3303720
 106.9413270  93.9166180  27.2686780 106.0469320  93.8832940  27.6080490
 107.4810820  94.1152970  28.0338030 120.6289200  90.6997900  29.1538530
 121.5059380  90.7081300  29.5372530 120.6410040  89.9628740  28.5430880
 105.5659420  93.8303450  14.7650350 104.6623500  94.0933650  14.5902010
 106.0500040  94.1014620  13.9850310 122.0752470  94.5527440  20.0426550
 122.5989950  94.0590090  19.4116720 122.6611890  94.6877800  20.7874120
 122.2542190  94.6367310  23.5646100 121.3044900  94.6030850  23.6791090
 122.4355200  95.5467420  23.3295870 108.1086630  92.8868990  12.6744730
 108.8178330  92.4652210  12.1892010 107.3926570  92.9544220  12.0428080
 107.7560790  88.9408320  11.7147380 108.4788920  89.4817260  12.0328600
 108.0285310  88.6671740  10.8388920 121.5652440  93.8100790  15.9818960
 122.0611560  93.5771660  16.7667840 121.3668510  92.9712630  15.5656600
 107.4452980  88.1914510  21.6170000 108.0929170  87.6411890  21.1765160
 107.8654820  88.4457660  22.4385810 122.9939600  92.4461740  18.5156640
 122.8838880  92.2917780  19.4538910 123.7547190  91.9182680  18.2732050
 121.3405320  88.3855870  24.9739640 121.9777540  88.9990010  25.3398830
 121.4880210  88.4216530  24.0288870 123.8829870  90.2769660  11.7562780
 124.8079180  90.1450840  11.5481070 123.8605660  90.3562480  12.7099230
 123.9568360  91.0480320  14.3819490 123.1619860  90.9825440  14.9112400
 124.1611640  91.9830960  14.3704840 120.8986780 105.0871870  18.3757880
 121.4945850 104.7656440  17.6992300 121.1564930 104.6143690  19.1671150
 107.1984980  88.3470180  24.3595320 106.8499800  88.8034000  25.1253500
 106.8672680  87.4527310  24.4417750 114.7109800  89.5382060  27.8814740
 114.6498690  90.1303890  28.6310150 115.6510180  89.4308020  27.7365000
 117.3484360  89.1952120  27.5207030 117.9624770  89.5131410  26.8588110
 117.8933920  88.7100710  28.1402890 123.7659540 105.0943750  24.9268870
 123.2717820 105.4912620  24.2096000 123.1572830 104.4692960  25.3206150
 107.8705620  87.8746380  27.6346090 108.4188610  87.6934430  26.8712200
 107.9360930  87.0840490  28.1702400 118.0892400  87.7584260  23.8476320
 117.2152240  88.0919370  23.6449250 117.9803150  87.2857440  24.6728190
 118.9964380  89.9655130  25.2318040 118.6677740  89.1506890  24.8519770
 119.9446680  89.9224940  25.1083730 121.4498990 105.7367170  22.2055610
 120.9901960 106.4882980  21.8313630 120.8211450 105.0173640  22.1470410
 111.8794710 104.0455410  21.3803740 112.3959730 103.4342770  20.8552000
 112.5292090 104.5484190  21.8714750 114.6190210 104.9363900  22.2072720
 114.9068020 104.6818200  21.3305730 115.1313430 104.3841260  22.7978290
 115.8367220  88.6754100  22.7869230 115.0539010  89.1499600  23.0665990
 115.5430150  87.7708930  22.6782410 120.3888290  89.3777200  20.8318320
 120.8296380  89.3222300  19.9839920 120.1195880  90.2935210  20.9028500
 122.2526860  89.0092440  18.8427140 122.1915260  88.0653660  18.6958160
 123.0318890  89.1172530  19.3880600 106.5579610 105.1484800  17.8051090
 106.3901650 104.5155480  18.5032980 105.6914120 105.3544200  17.4545280
 107.1807630  88.9801580  15.3082950 107.9386990  89.0930460  14.7346980
 106.7184800  89.8170780  15.2626380 113.7221440  91.0940850  18.2985260
 112.9095950  90.7197740  17.9581140 114.2263080  90.3385930  18.6006450
 118.2246420  87.7583300  19.5368330 118.8275790  88.3303510  20.0116850
 117.4839410  88.3222740  19.3142230 121.3681020  88.1604860  14.8108610
 121.5631650  89.0588310  15.0776040 120.5810890  87.9291940  15.3041560
 108.1642310 103.8418030  15.2501230 107.6389930 104.2226060  14.5463190
 108.0886890 104.4668800  15.9710940 109.5532780  89.5065630  13.8484920
 110.0825540  88.7195430  13.7192870 110.1861100  90.1856820  14.0820450
 111.7470620  89.2440770  16.9030310 111.1173360  88.5428080  17.0700440
 111.2075760  90.0044900  16.6863470 122.9207630 105.4005570  16.5715170
 123.0959820 104.7143310  15.9276090 122.2229200 105.9252620  16.1791840
 111.8726180  88.5224750  29.3382800 111.5910450  89.0258350  28.5743620
 112.2545880  87.7246500  28.9724930 110.7635280 105.7900410  14.1250480
 111.4954100 105.5059690  13.5774370 111.0228950 105.5513690  15.0149860
 109.9250070 101.9065140  14.1296810 109.2958950 102.3750240  14.6782640
 110.0397900 101.0614360  14.5643000 118.4741640  87.9378330  29.9163270
 118.3607090  88.2572940  30.8114790 119.2911380  88.3390840  29.6200550
 121.2540130 105.0849860  29.3981960 122.0465450 104.5899090  29.1907920
 121.5473280 105.7640000  30.0057570 115.5117830  97.7349820   2.1607280
 114.7359930  97.2550260   2.4505850 116.1630760  97.0555470   1.9863440
 109.5283660  98.0469630   3.0383040 108.6968540  97.7918340   3.4379550
 110.1364640  98.1180400   3.7740960 109.5084920 102.0809720   3.2341060
 109.8112960 101.1907460   3.0551280 110.2528510 102.6379940   3.0063310
 105.9008620  95.6077170   2.7065130 106.4724730  94.8399370   2.7068770
 105.9010160  95.9065930   1.7971740 114.9526820 100.4107010   2.1677440
 114.8835100  99.4696950   2.0066570 115.7146680 100.5008420   2.7400010
 107.1433490  91.0161530   4.4934060 106.9636330  90.1187280   4.7736820
 106.7413570  91.5633400   5.1681010 107.7620160  93.5122030   3.1016400
 108.4430270  93.7760400   3.7203800 107.4468210  92.6722900   3.4354410
 111.9544730  94.5589390   2.1888990 112.4622950  95.0570360   2.8294010
 112.4857970  93.7824590   2.0128350 124.0555660  92.7294580   5.8918340
 123.3507830  93.1176290   5.3733450 124.3213580  93.4244870   6.4939270
 110.2380830  89.1987950   6.4552410 110.2399270  89.7160340   5.6498310
 109.4085140  88.7218130   6.4322340 111.4883680  98.8383130   4.6325910
 111.1553060  99.4652050   5.2746980 111.6650360  99.3645010   3.8527580
 120.0017590  92.6528210   2.1002250 119.2973160  92.9413100   2.6805360
 120.3629750  93.4628320   1.7401810 109.9196160  90.9097910   4.4622860
 110.2612970  91.7539960   4.1676730 108.9811970  91.0581650   4.5788200
 110.7002780 100.8063930   6.4475090 111.3176780 101.4815010   6.1659540
 109.8395900 101.2151910   6.3562590 121.6180370 102.2703340   4.3629730
 120.9343890 102.9402450   4.3546400 122.1574660 102.4683990   3.5974590
 123.0704510  92.0983000   2.4911460 122.1229420  92.1321980   2.6226890
 123.3954500  92.9121950   2.8760820 119.1539110 104.1147470   3.0774910
 119.1666270 103.7109760   2.2097170 118.6014330 104.8894760   2.9736340
 118.5524550  99.0177310   4.4057520 118.9693340  98.8037420   3.5710980
 119.2764370  99.2750100   4.9766140 122.4986650  97.4164530   4.4973760
 121.6705280  97.4857620   4.0223890 123.0937130  98.0018840   4.0289590
 119.4628660  94.2033850   5.4428630 119.0499840  95.0287560   5.6968620
 118.7304610  93.6178890   5.2504990 112.0643150 100.6761310   2.4686510
 111.7671440 100.0706780   1.7894290 113.0142970 100.7138620   2.3575870
 110.3090070  93.7636960   4.0846340 110.8604660  93.8732300   3.3099590
 110.8233580  94.1374560   4.8001570 120.1528760 104.2493180   6.1309610
 119.6759320 105.0565370   5.9382220 119.4690550 103.5971510   6.2835820
 111.1561580 100.4143000   9.1194310 110.2590110 100.6382970   9.3667710
 111.1814450 100.5377940   8.1705710 109.9832800  97.2856320   7.6951680
 109.8440570  98.1579120   8.0639080 109.1014160  96.9429130   7.5499620
 111.7813150 103.2278020   9.9036830 111.7528580 103.6320970   9.0365260
 111.6178120 102.2988380   9.7408430 123.7327970 104.0105120  11.2001000
 124.2087690 104.4888010  11.8790080 124.3535130 103.9422610  10.4746500
 105.9351450  99.0553870   3.6122590 106.0131870  99.1902640   2.6678310
 106.5493130  98.3469760   3.8050710 123.1361220 101.2017970   8.3601010
 123.2624280 100.9629850   7.4418190 123.1782600 100.3702510   8.8323090
 116.9977960 104.9045970   6.9295820 117.5122630 104.8153980   7.7318250
 116.1547040 105.2505670   7.2223730 122.9885230  93.2550430   9.3250750
 122.3729500  93.7630100   8.7966210 122.6681650  92.3548760   9.2676690
 105.9910970 100.0968040   6.1517050 106.1542010  99.6273400   5.3336420
 106.4563420  99.5891600   6.8165890 115.0499550  92.0942320   6.7912940
 114.5878920  92.3025340   7.6032880 114.6477660  91.2801670   6.4883610
 120.0504060  93.3151270   7.9209600 119.1997650  93.0157020   8.2418670
 119.8905850  93.5593280   7.0093420 117.1453770  94.8153020  10.0208390
 117.4707180  93.9816770   9.6810620 117.9334100  95.3381540  10.1686720
 112.8005640  89.7721130   3.0467220 113.0977970  90.6783960   2.9659240
 113.3491200  89.2839910   2.4326790 112.9943170  95.2492950   9.5819140
 112.8986770  94.3087680   9.4319540 113.8375150  95.4708020   9.1867210
 108.1253710  91.6606620   7.7352920 107.7317100  92.5081830   7.9425700
 107.4372110  91.0232990   7.9261560 114.6998760  91.7441590  10.8049660
 114.0097080  91.5513790  11.4395750 115.4431060  92.0276230  11.3373960
 105.4270760  89.5835080   1.7683000 105.1383810  90.1537940   2.4807980
 106.1716520  89.1039530   2.1314230 116.9761730  95.5840030   3.6403580
 116.2442850  96.0926840   3.9893680 116.5786070  94.7670010   3.3392360
 117.4387640  91.0373710   3.0526520 117.4560380  91.4882360   3.8968370
 117.1903220  90.1379350   3.2659960 120.8658390  88.4505890   8.8912900
 121.1904160  87.7195550   9.4170880 120.9014900  88.1319530   7.9893890
 107.5649950  99.4719470   8.3112860 107.1804740  98.8313140   8.9095820
 107.8762140 100.1755590   8.8807590 113.7147090  96.3196010   3.7921480
 114.0817220  95.8454580   4.5382820 113.5252150  97.1937580   4.1329820
 111.5046460  95.3604650   6.1105690 111.2003530  96.2396630   6.3356050
 112.4592920  95.4204440   6.1463130 120.7916230  98.5631000   2.4998930
 121.5115350  99.0586290   2.1095040 120.5898050  97.8848890   1.8552800
 116.1735030  98.6340060   8.3867930 116.1072340  97.7135730   8.1325520
 115.5440170  98.7315500   9.1012570 107.5610190  96.2007390   7.2577050
 107.2025130  96.8661240   7.8450390 107.2664750  95.3690940   7.6289670
 110.7623310  96.6591630  10.1416600 110.4623450  96.8048810   9.2444420
 111.5334550  96.0996920  10.0489990 116.1051760 101.4560630   8.1371730
 116.1196300 100.5241590   7.9190640 115.3976860 101.5420390   8.7761500
 122.3162970  98.0967970   7.4840310 121.5911160  98.6896750   7.2869700
 122.8438430  98.0891510   6.6853680 115.5385660 103.0978200   5.2312230
 116.1827880 103.3037580   5.9085650 115.9015100 102.3366600   4.7783080
 116.8117740 101.1010550   3.9489680 117.4539970 100.4003710   4.0621850
 117.3367090 101.8808990   3.7686570 118.5855360 101.9005450   7.1525740
 118.9211600 102.4872140   7.8303660 117.6655700 101.7698160   7.3823530
 106.1358760  89.6900630   7.9349150 105.4217280  89.8897550   8.5401760
 106.5553800  88.9140200   8.3063950 106.4231350 103.6780890   8.9215680
 106.5322470 102.7375630   8.7811070 105.7711910 103.9435640   8.2729410
 114.4143940 101.9496780  10.3213800 114.0940810 101.2306020  10.8659490
 113.7402300 102.6251850  10.3949860 117.6297540  92.1822940   5.6850600
 117.9978360  91.3618150   6.0130170 116.7695740  92.2424830   6.1006250
 114.5899530  94.8362530   5.9088570 115.0884780  95.3108350   6.5740420
 114.7322480  93.9126050   6.1158600 121.7966390  91.0530490   6.7516960
 121.2939990  91.7935890   7.0910770 122.6123050  91.4414490   6.4353750
 108.5689790 104.7449800  10.7335290 109.3702520 105.0661850  11.1470690
 108.0541610 104.3845380  11.4555200 117.4054420 100.8529670  10.6810700
 116.7992580 100.8761270   9.9406450 117.1008530 100.1212710  11.2177950
 118.8354790 104.5809960   9.2920110 119.7876540 104.4967980   9.2420350
 118.6883010 105.2451670   9.9653900 106.2887600  97.2323260   9.6771340
 106.7926620  96.6530540  10.2487570 105.5495020  97.5163490  10.2147710
 113.3425540  98.6394250   9.2106860 112.5771210  99.2079250   9.1261530
 113.5241500  98.3470460   8.3175090 120.4848890 100.3699580   9.7681880
 121.2258360 100.7075340   9.2649340 119.7221570 100.5391640   9.2151650
 108.3210680  95.3752850  10.5721410 108.3616020  95.0766720  11.4806640
 109.1756180  95.7760460  10.4128930 110.2616490  93.9544950   8.5395900
 109.7312950  93.4635900   7.9119240 110.9304560  94.3829150   8.0053830
 119.1594550  98.4214410   8.3037090 119.5735570  98.5759490   9.1527510
 118.2245550  98.5469630   8.4662870 119.6316720  95.7610570  10.3076240
 120.2137490  95.0062890  10.2196720 119.8078490  96.2918010   9.5307720
 110.7488790  90.9207320   8.6193190 110.6545660  90.3028070   7.8944060
 110.1686180  91.6473610   8.3923100 113.5150230  89.4780560   5.6520580
 113.0667530  89.5004820   4.8066130 112.8815430  89.0799580   6.2490880
 113.9209780  98.3734890   6.2733020 114.3397890  99.2167620   6.1009260
 113.0018410  98.5106930   6.0439800 116.2573680  96.1051070   7.6570860
 116.3769890  95.5092210   8.3965700 117.1167680  96.1420760   7.2372160
 118.5961580  96.6588260   6.2333370 118.0696800  97.1830880   5.6298510
 118.9392920  97.2915650   6.8643100 111.7717200 104.6787900   7.3890750
 111.2338290 105.4033960   7.0699450 112.0251160 104.2018240   6.5988090
 113.0242450  92.6472420   8.9146680 113.6142140  92.3388270   9.6024500
 112.2062690  92.1752170   9.0706580 117.8435880  92.2638230   9.1479700
 117.1551400  91.6019770   9.0829690 118.5641900  91.8176500   9.5928160
 114.6279410 105.9139110   7.6477400 114.5538110 106.8174250   7.9549770
 113.7258250 105.5951010   7.6199470 106.5196910 104.1084290   3.6892650
 106.0827900 104.2885090   4.5216800 107.0874590 104.8658910   3.5474370
 122.1559090 103.6101290   7.9769960 121.5561080 103.6693850   7.2333880
 122.2852990 102.6706270   8.1066810 120.8410730 100.3353270   6.0746120
 120.0270570 100.7650430   6.3371910 121.2484930 100.9471680   5.4615170
 107.3897270  97.0057090   4.5884870 107.7570310  96.9184490   5.4680890
 106.8208090  96.2423640   4.4891730 122.1901130  95.4741470   7.6015340
 121.9587220  95.2454220   6.7013290 122.4505680  96.3941020   7.5560230
 106.9413270  93.9166180   8.4943290 106.0469320  93.8832940   8.8337000
 107.4810820  94.1152970   9.2594540 120.6289200  90.6997900  10.3795040
 121.5059380  90.7081300  10.7629040 120.6410040  89.9628740   9.7687390
 122.2542190  94.6367310   4.7902610 121.3044900  94.6030850   4.9047600
 122.4355200  95.5467420   4.5552380 107.4452980  88.1914510   2.8426510
 108.0929170  87.6411890   2.4021670 107.8654820  88.4457660   3.6642320
 121.3405320  88.3855870   6.1996150 121.9777540  88.9990010   6.5655340
 121.4880210  88.4216530   5.2545380 107.1984980  88.3470180   5.5851830
 106.8499800  88.8034000   6.3510010 106.8672680  87.4527310   5.6674260
 108.8049350 101.5189780   9.7505020 108.7618980 101.1482690  10.6319480
 108.9360360 102.4567350   9.8906840 112.5055380 103.0749370   5.3514740
 112.2646740 103.3423930   4.4645260 113.4458020 103.2455100   5.4065600
 114.7109800  89.5382060   9.1071250 114.6498690  90.1303890   9.8566660
 115.6510180  89.4308020   8.9621510 117.3484360  89.1952120   8.7463540
 117.9624770  89.5131410   8.0844620 117.8933920  88.7100710   9.3659400
 123.7659540 105.0943750   6.1525380 123.2717820 105.4912620   5.4352510
 123.1572830 104.4692960   6.5462660 107.8705620  87.8746380   8.8602600
 108.4188610  87.6934430   8.0968710 107.9360930  87.0840490   9.3958910
 108.6437380 104.4652030   6.8702800 108.0497700 104.3336730   7.6092840
 108.6361220 103.6290170   6.4044900 118.0892400  87.7584260   5.0732830
 117.2152240  88.0919370   4.8705760 117.9803150  87.2857440   5.8984700
 118.9964380  89.9655130   6.4574550 118.6677740  89.1506890   6.0776280
 119.9446680  89.9224940   6.3340240 121.4498990 105.7367170   3.4312120
 120.9901960 106.4882980   3.0570140 120.8211450 105.0173640   3.3726920
 108.2749610 101.8310410   5.8210840 107.5483670 101.2115700   5.7536790
 108.3358760 102.2251020   4.9508920 111.8794710 104.0455410   2.6060250
 112.3959730 103.4342770   2.0808510 112.5292090 104.5484190   3.0971260
 114.6190210 104.9363900   3.4329230 114.9068020 104.6818200   2.5562240
 115.1313430 104.3841260   4.0234800 115.8367220  88.6754100   4.0125740
 115.0539010  89.1499600   4.2922500 115.5430150  87.7708930   3.9038920
 114.6862570 105.8580000  10.7997430 115.6129880 105.6224270  10.8433390
 114.6713000 106.6852000  10.3183460 111.8726180  88.5224750  10.5639310
 111.5910450  89.0258350   9.8000130 112.2545880  87.7246500  10.1981440
 118.4741640  87.9378330  11.1419780 118.3607090  88.2572940  12.0371300
 119.2911380  88.3390840  10.8457060 121.2540130 105.0849860  10.6238470
 122.0465450 104.5899090  10.4164430 121.5473280 105.7640000  11.2314080
 117.3799790  77.1827310 150.4745930 117.2993840  76.2681920 150.2037640
 116.9664210  77.6794380 149.7685640 119.5325260  83.3666520 151.1354330
 119.0706790  82.5953760 151.4641500 120.3450810  83.3932590 151.6406780
 107.9375610  74.2328030 147.0173350 107.0492310  74.5744000 146.9153230
 108.2216800  74.0328350 146.1254180 115.7588570  85.6524530 150.7558320
 115.1400010  86.1082030 150.1852760 116.6140350  85.8075990 150.3548020
 110.1137000  72.8159530 148.0511730 110.2203750  73.7163260 148.3580490
 109.2029360  72.7677500 147.7606380 119.7656110  71.9384340 149.5222630
 120.5865730  71.4480910 149.5648110 119.7990190  72.5282000 150.2754470
 116.6251920  80.5363770 148.1490230 116.0069190  81.0013220 147.5852950
 117.1375170  81.2291250 148.5659740 105.9935120  81.2220300 145.5229860
 105.6163100  81.7107400 144.7914760 106.2508190  81.8945580 146.1536390
 113.6024050  69.6236690 150.9815370 113.9099030  69.0683580 150.2650870
 112.6724750  69.7581150 150.7988360 120.4484530  82.0620200 148.3613000
 120.3380860  81.1194530 148.4862420 120.4452780  82.4235840 149.2475760
 115.9904810  77.6885520 147.7175490 115.0634090  77.6222900 147.9463960
 116.1429630  78.6265650 147.6030730 115.9773890  73.9602520 144.7142650
 115.0377560  74.1216480 144.7995110 116.2957150  74.6788200 144.1678640
 120.0202100  79.2505820 148.2210740 119.4014520  78.9125370 147.5737040
 120.0026550  78.6065580 148.9289930 111.5961450  78.2150260 150.4995220
 111.1918450  77.5027510 150.0041120 111.6824570  77.8703500 151.3883260
 118.1966800  78.4892630 145.2283490 118.6360080  77.6515060 145.0821310
 118.9095220  79.1222030 145.3147630 116.3062180  83.4288700 149.1964730
 116.7458090  84.1713030 148.7820120 116.2449070  83.6715270 150.1203690
 121.7783940  69.7435440 143.5424530 121.4656600  69.8362270 144.4423600
 122.5396410  70.3216470 143.4921960 108.2966080  77.1095240 148.0001870
 108.1763680  77.8357330 147.3883140 107.9866970  76.3398150 147.5229780
 107.1799080  81.9810570 150.2176690 106.7727160  82.1225160 149.3630290
 108.0712090  81.6970730 150.0147900 118.9732360  86.4157820 146.5527740
 118.8133500  86.1260760 147.4509570 118.8079070  85.6397950 146.0172970
 111.4520740  86.1956350 148.3299360 111.2763220  85.2791890 148.1167160
 110.5976480  86.5543640 148.5697160 118.6758490  83.9245380 145.1125740
 117.9823650  83.9222670 144.4528020 119.4181350  83.5004700 144.6819910
 118.2408420  85.5508090 149.1874230 118.6965370  84.7697470 149.5012850
 118.5800940  86.2614910 149.7315410 110.7629740  70.4530310 151.3825540
 110.3197890  71.2339850 151.0510060 111.3214730  70.7760200 152.0896480
 113.8788560  70.0741010 146.2631370 113.2542740  70.0700880 146.9884680
 113.7918680  69.2071970 145.8667340 110.5543960  75.5763880 149.1106790
 110.3284880  75.3601050 150.0153410 109.7736490  76.0092340 148.7652760
 117.7841720  75.5827250 147.7097440 117.1850610  76.3063050 147.5261060
 118.3321330  75.5204030 146.9273890 116.3906590  74.2190790 149.7400720
 116.7836160  74.5362990 148.9269410 116.7523440  73.3402670 149.8545240
 105.6140990  74.7511710 143.1733640 105.5315660  75.6942470 143.3148630
 105.2624050  74.6086620 142.2945990 113.4139120  73.4850740 152.2403990
 113.4175180  73.0440690 151.3908530 114.3090240  73.8068070 152.3475810
 109.2641500  73.3677230 151.1998200 108.9241550  73.8452460 151.9565250
 108.5018820  72.9142350 150.8399300 113.4759270  74.4862820 145.2310750
 113.5972090  74.4449300 146.1796570 113.0907780  75.3486970 145.0757480
 112.4880770  76.7963960 144.6294050 111.9197670  76.3482210 144.0029960
 113.1969770  77.1556740 144.0959200 106.5787580  72.2896210 150.1162870
 106.2934500  71.9251880 150.9541490 106.5166440  71.5576670 149.5026010
 110.0328250  80.7922150 146.9020460 109.2590510  80.2519770 146.7419180
 110.7622880  80.2728760 146.5638220 116.2526170  71.1825470 146.8376240
 115.4390780  70.6838640 146.7621550 116.0588120  72.0223720 146.4212590
 118.9674560  75.5545120 145.1338400 119.8554180  75.8662350 144.9589740
 118.9379650  74.6817370 144.7418980 110.0765650  80.4602530 150.5399270
 110.5944320  79.6570790 150.4856160 109.6249670  80.3981670 151.3816100
 114.9635150  81.7268810 145.8126570 115.3050850  82.4711040 145.3169890
 114.1347860  82.0399930 146.1751400 121.2388830  76.8656960 144.6018260
 121.1552550  77.2971180 143.7514700 121.9583020  77.3255310 145.0345080
 122.2676080  83.7199220 147.3300390 121.6252240  83.0654840 147.6044110
 121.8806740  84.1254310 146.5541060 117.8462560  81.0484650 151.1772080
 118.1986380  80.4512780 150.5173450 116.9624890  80.7228880 151.3480330
 113.9325840  81.8082340 148.5842490 114.6196970  82.3551550 148.9650080
 113.1458260  82.3523070 148.6192100 106.0718240  77.4255160 144.0759570
 106.9413090  77.7079960 144.3595490 105.5808560  78.2391030 143.9608380
 113.2353050  78.8128370 148.1967850 113.6915830  79.6233620 148.4228040
 112.8841260  78.4951510 149.0286340 109.1364830  69.1566020 148.6690370
 109.0079460  69.1483920 149.6175290 108.3126850  69.4949110 148.3181380
 120.6573460  82.6115680 143.8676740 120.4311040  81.8946120 144.4601380
 120.2669660  82.3628120 143.0298490 106.4389490  86.6382540 144.6421200
 106.7987130  87.2371880 143.9878470 106.2981830  87.1842430 145.4156230
 120.2389710  80.5287620 145.5290900 119.9511410  80.9900310 146.3168780
 121.0341880  80.0685390 145.7975120 112.4558110  84.0213740 145.4594870
 112.4468210  84.7543430 144.8439380 111.5356470  83.7745320 145.5521830
 108.0564750  79.2428630 146.2041630 107.4492700  79.9827530 146.2136930
 108.5314100  79.3327990 145.3779830 120.9959570  72.3636390 146.6886080
 120.3672730  72.4682060 145.9744310 120.5011490  72.5833170 147.4779960
 115.4417710  84.0841980 144.1220060 115.5429690  83.8805970 143.1922040
 114.5419450  83.8300260 144.3267840 112.9643600  74.6422340 148.1043960
 112.2559750  75.1108680 148.5457570 113.2488080  73.9844350 148.7389150
 116.9959030  71.3673000 149.5439750 116.8726810  71.3859130 148.5949260
 117.9443590  71.4151940 149.6638150 114.0835820  86.6028300 148.8167730
 114.3377320  86.5649690 147.8947100 113.1348300  86.4761630 148.8095980
 111.1678620  72.9507420 145.4794670 112.0169150  73.3877570 145.4134860
 110.8009890  73.2627680 146.3066730 120.0888400  77.5220180 150.3926240
 119.1478540  77.5370410 150.5673930 120.4032470  76.7356140 150.8386540
 110.0670040  79.2039780 143.9530200 110.8333310  79.0921140 144.5155630
 110.1444730  78.5077750 143.3006970 108.7616800  76.6364850 144.6363090
 108.8420390  75.6892360 144.7480490 109.6536550  76.9671730 144.7423750
 109.5631510  86.7860240 151.7397630 110.2993990  86.2375700 152.0106200
 109.9472430  87.6516250 151.6003620 106.4476990  82.8533810 147.6139140
 105.5216770  83.0954950 147.6044550 106.9133420  83.6808070 147.4923890
 112.6733820  85.9590550 143.5623200 113.4662430  86.2479380 143.1104990
 112.1538170  85.5282720 142.8835680 121.7263990  85.1860680 144.9859940
 121.4405500  84.7725820 144.1714120 121.5283540  86.1148390 144.8660460
 113.1911220  81.1793960 143.4265550 113.0861860  80.5646310 144.1526930
 113.0235440  80.6559850 142.6428560 116.4313950  80.2413990 144.0307540
 115.8824050  80.6883290 144.6750280 117.0533210  79.7363240 144.5545210
 112.0989070  79.2004910 145.9272840 112.5205490  79.0344780 146.7704230
 112.2239910  78.3905140 145.4327980 114.6116710  78.2242520 143.1749940
 115.1322370  77.5091540 142.8091090 115.2585110  78.8628390 143.4750450
 110.9947970  75.2738140 142.8731000 110.7937030  74.4105500 143.2344340
 110.8240020  75.1871500 141.9352600 118.4736280  70.0846370 145.4017880
 118.7538570  69.2414270 145.7577300 117.7002010  70.3169480 145.9156630
 109.7930770  72.3738760 142.8608880 110.0956670  72.3806190 141.9528030
 110.5325360  72.0236620 143.3576540 113.0115700  71.3173380 143.8465080
 112.6637700  70.6397370 143.2667530 113.2128470  70.8562890 144.6608470
 115.1764740  86.3054130 145.4651680 116.0715530  86.6439100 145.4870440
 115.2082370  85.5833540 144.8375960 108.8160900  81.6781180 143.6938680
 109.2535770  82.2210850 144.3496260 109.3008630  80.8528130 143.7035020
 106.0306700  84.4670210 151.1458940 106.3609710  83.5991270 150.9137580
 106.4597700  84.6728730 151.9763900 110.6268620  82.7979220 148.8060910
 110.3264160  82.6744190 149.7064820 110.5206110  81.9387810 148.3976640
 123.3960540  82.5775620 143.5087590 122.5653500  82.6452270 143.9794820
 123.5732370  83.4679740 143.2054450 122.8517000  79.3223100 146.0121790
 123.6135910  79.8919750 146.1181480 122.8671370  78.7550300 146.7830100
 106.3521340  77.8461030 150.2429450 105.6970180  77.5772670 149.5989150
 107.1899290  77.7365510 149.7931430 123.8576970  80.1773200 150.8563720
 124.2285800  79.3940520 150.4499690 124.4978900  80.8662300 150.6781020
 122.9036170  79.6157470 143.1694310 123.1785010  80.5236350 143.0413530
 122.7146910  79.5520000 144.1056300 119.3011780  72.6402320 144.4647940
 119.7196660  72.4533300 143.6244600 118.9947840  71.7881370 144.7750870
 122.8001510  77.5526460 148.1623740 122.4245110  76.7854390 147.7305030
 122.0704630  77.9349160 148.6498670 105.5659420  75.0559960 146.1854780
 104.6623500  75.3190160 146.0106440 106.0500040  75.3271130 145.4054740
 122.0752470  75.7783950 151.4630980 122.5989950  75.2846600 150.8321150
 122.6611890  75.9134310 152.2078550 108.1086630  74.1125500 144.0949160
 108.8178330  73.6908720 143.6096440 107.3926570  74.1800730 143.4632510
 107.7560790  70.1664830 143.1351810 108.4788920  70.7073770 143.4533030
 108.0285310  69.8928250 142.2593350 121.5652440  75.0357300 147.4023390
 122.0611560  74.8028170 148.1872270 121.3668510  74.1969140 146.9861030
 122.9939600  73.6718250 149.9361070 122.8838880  73.5174290 150.8743340
 123.7547190  73.1439190 149.6936480 123.8829870  71.5026170 143.1767210
 124.8079180  71.3707350 142.9685500 123.8605660  71.5818990 144.1303660
 123.9568360  72.2736830 145.8023920 123.1619860  72.2081950 146.3316830
 124.1611640  73.2087470 145.7909270 120.8986780  86.3128380 149.7962310
 121.4945850  85.9912950 149.1196730 121.1564930  85.8400200 150.5875580
 120.3888290  70.6033710 152.2522750 120.8296380  70.5478810 151.4044350
 120.1195880  71.5191720 152.3232930 122.2526860  70.2348950 150.2631570
 122.1915260  69.2910170 150.1162590 123.0318890  70.3429040 150.8085030
 106.5579610  86.3741310 149.2255520 106.3901650  85.7411990 149.9237410
 105.6914120  86.5800710 148.8749710 107.1807630  70.2058090 146.7287380
 107.9386990  70.3186970 146.1551410 106.7184800  71.0427290 146.6830810
 113.7221440  72.3197360 149.7189690 112.9095950  71.9454250 149.3785570
 114.2263080  71.5642440 150.0210880 118.2246420  68.9839810 150.9572760
 118.8275790  69.5560020 151.4321280 117.4839410  69.5479250 150.7346660
 121.3681020  69.3861370 146.2313040 121.5631650  70.2844820 146.4980470
 120.5810890  69.1548450 146.7245990 108.1642310  85.0674540 146.6705660
 107.6389930  85.4482570 145.9667620 108.0886890  85.6925310 147.3915370
 109.5532780  70.7322140 145.2689350 110.0825540  69.9451940 145.1397300
 110.1861100  71.4113330 145.5024880 111.7470620  70.4697280 148.3234740
 111.1173360  69.7684590 148.4904870 111.2075760  71.2301410 148.1067900
 122.9207630  86.6262080 147.9919600 123.0959820  85.9399820 147.3480520
 122.2229200  87.1509130 147.5996270 110.7635280  87.0156920 145.5454910
 111.4954100  86.7316200 144.9978800 111.0228950  86.7770200 146.4354290
 109.9250070  83.1321650 145.5501240 109.2958950  83.6006750 146.0987070
 110.0397900  82.2870870 145.9847430 117.3799790  77.1827310 131.7002440
 117.2993840  76.2681920 131.4294150 116.9664210  77.6794380 130.9942150
 115.5117830  78.9606330 133.5811710 114.7359930  78.4806770 133.8710280
 116.1630760  78.2811980 133.4067870 109.5283660  79.2726140 134.4587470
 108.6968540  79.0174850 134.8583980 110.1364640  79.3436910 135.1945390
 119.5325260  83.3666520 132.3610840 119.0706790  82.5953760 132.6898010
 120.3450810  83.3932590 132.8663290 109.5084920  83.3066230 134.6545490
 109.8112960  82.4163970 134.4755710 110.2528510  83.8636450 134.4267740
 107.9375610  74.2328030 128.2429860 107.0492310  74.5744000 128.1409740
 108.2216800  74.0328350 127.3510690 105.9008620  76.8333680 134.1269560
 106.4724730  76.0655880 134.1273200 105.9010160  77.1322440 133.2176170
 114.9526820  81.6363520 133.5881870 114.8835100  80.6953460 133.4271000
 115.7146680  81.7264930 134.1604440 107.1433490  72.2418040 135.9138490
 106.9636330  71.3443790 136.1941250 106.7413570  72.7889910 136.5885440
 115.9831990  74.4433900 133.8150800 116.3596810  73.5705780 133.7024470
 115.8851500  74.7792600 132.9241240 119.7656110  71.9384340 130.7479140
 120.5865730  71.4480910 130.7904620 119.7990190  72.5282000 131.5010980
 107.7620160  74.7378540 134.5220830 108.4430270  75.0016910 135.1408230
 107.4468210  73.8979410 134.8558840 111.9544730  75.7845900 133.6093420
 112.4622950  76.2826870 134.2498440 112.4857970  75.0081100 133.4332780
 124.0555660  73.9551090 137.3122770 123.3507830  74.3432800 136.7937880
 124.3213580  74.6501380 137.9143700 110.2380830  70.4244460 137.8756840
 110.2399270  70.9416850 137.0702740 109.4085140  69.9474640 137.8526770
 111.4883680  80.0639640 136.0530340 111.1553060  80.6908560 136.6951410
 111.6650360  80.5901520 135.2732010 120.0017590  73.8784720 133.5206680
 119.2973160  74.1669610 134.1009790 120.3629750  74.6884830 133.1606240
 109.9196160  72.1354420 135.8827290 110.2612970  72.9796470 135.5881160
 108.9811970  72.2838160 135.9992630 110.7002780  82.0320440 137.8679520
 111.3176780  82.7071520 137.5863970 109.8395900  82.4408420 137.7767020
 121.6180370  83.4959850 135.7834160 120.9343890  84.1658960 135.7750830
 122.1574660  83.6940500 135.0179020 123.0704510  73.3239510 133.9115890
 122.1229420  73.3578490 134.0431320 123.3954500  74.1378460 134.2965250
 119.1539110  85.3403980 134.4979340 119.1666270  84.9366270 133.6301600
 118.6014330  86.1151270 134.3940770 120.4484530  82.0620200 129.5869510
 120.3380860  81.1194530 129.7118930 120.4452780  82.4235840 130.4732270
 118.5524550  80.2433820 135.8261950 118.9693340  80.0293930 134.9915410
 119.2764370  80.5006610 136.3970570 115.9904810  77.6885520 128.9432000
 115.0634090  77.6222900 129.1720470 116.1429630  78.6265650 128.8287240
 122.4986650  78.6421040 135.9178190 121.6705280  78.7114130 135.4428320
 123.0937130  79.2275350 135.4494020 120.0202100  79.2505820 129.4467250
 119.4014520  78.9125370 128.7993550 120.0026550  78.6065580 130.1546440
 119.4628660  75.4290360 136.8633060 119.0499840  76.2544070 137.1173050
 118.7304610  74.8435400 136.6709420 112.0643150  81.9017820 133.8890940
 111.7671440  81.2963290 133.2098720 113.0142970  81.9395130 133.7780300
 110.3090070  74.9893470 135.5050770 110.8604660  75.0988810 134.7304020
 110.8233580  75.3631070 136.2206000 120.1528760  85.4749690 137.5514040
 119.6759320  86.2821880 137.3586650 119.4690550  84.8228020 137.7040250
 111.1561580  81.6399510 140.5398740 110.2590110  81.8639480 140.7872140
 111.1814450  81.7634450 139.5910140 118.1966800  78.4892630 126.4540000
 118.6360080  77.6515060 126.3077820 118.9095220  79.1222030 126.5404140
 109.9832800  78.5112830 139.1156110 109.8440570  79.3835630 139.4843510
 109.1014160  78.1685640 138.9704050 111.7813150  84.4534530 141.3241260
 111.7528580  84.8577480 140.4569690 111.6178120  83.5244890 141.1612860
 121.7783940  69.7435440 124.7681040 121.4656600  69.8362270 125.6680110
 122.5396410  70.3216470 124.7178470 123.7327970  85.2361630 142.6205430
 124.2087690  85.7144520 143.2994510 124.3535130  85.1679120 141.8950930
 105.9351450  80.2810380 135.0327020 106.0131870  80.4159150 134.0882740
 106.5493130  79.5726270 135.2255140 123.1361220  82.4274480 139.7805440
 123.2624280  82.1886360 138.8622620 123.1782600  81.5959020 140.2527520
 116.9977960  86.1302480 138.3500250 117.5122630  86.0410490 139.1522680
 116.1547040  86.4762180 138.6428160 122.9885230  74.4806940 140.7455180
 122.3729500  74.9886610 140.2170640 122.6681650  73.5805270 140.6881120
 105.9910970  81.3224550 137.5721480 106.1542010  80.8529910 136.7540850
 106.4563420  80.8148110 138.2370320 110.7629740  70.4530310 132.6082050
 110.3197890  71.2339850 132.2766570 111.3214730  70.7760200 133.3152990
 115.0499550  73.3198830 138.2117370 114.5878920  73.5281850 139.0237310
 114.6477660  72.5058180 137.9088040 120.0504060  74.5407780 139.3414030
 119.1997650  74.2413530 139.6623100 119.8905850  74.7849790 138.4297850
 117.1453770  76.0409530 141.4412820 117.4707180  75.2073280 141.1015050
 117.9334100  76.5638050 141.5891150 112.8005640  70.9977640 134.4671650
 113.0977970  71.9040470 134.3863670 113.3491200  70.5096420 133.8531220
 117.7841720  75.5827250 128.9353950 117.1850610  76.3063050 128.7517570
 118.3321330  75.5204030 128.1530400 112.9943170  76.4749460 141.0023570
 112.8986770  75.5344190 140.8523970 113.8375150  76.6964530 140.6071640
 108.1253710  72.8863130 139.1557350 107.7317100  73.7338340 139.3630130
 107.4372110  72.2489500 139.3465990 114.6998760  72.9698100 142.2254090
 114.0097080  72.7770300 142.8600180 115.4431060  73.2532740 142.7578390
 105.4270760  70.8091590 133.1887430 105.1383810  71.3794450 133.9012410
 106.1716520  70.3296040 133.5518660 116.9761730  76.8096540 135.0608010
 116.2442850  77.3183350 135.4098110 116.5786070  75.9926520 134.7596790
 113.4139120  73.4850740 133.4660500 113.4175180  73.0440690 132.6165040
 114.3090240  73.8068070 133.5732320 109.2641500  73.3677230 132.4254710
 108.9241550  73.8452460 133.1821760 108.5018820  72.9142350 132.0655810
 117.4387640  72.2630220 134.4730950 117.4560380  72.7138870 135.3172800
 117.1903220  71.3635860 134.6864390 120.8658390  69.6762400 140.3117330
 121.1904160  68.9452060 140.8375310 120.9014900  69.3576040 139.4098320
 107.5649950  80.6975980 139.7317290 107.1804740  80.0569650 140.3300250
 107.8762140  81.4012100 140.3012020 113.7147090  77.5452520 135.2125910
 114.0817220  77.0711090 135.9587250 113.5252150  78.4194090 135.5534250
 106.5787580  72.2896210 131.3419380 106.2934500  71.9251880 132.1798000
 106.5166440  71.5576670 130.7282520 111.5046460  76.5861160 137.5310120
 111.2003530  77.4653140 137.7560480 112.4592920  76.6460950 137.5667560
 120.7916230  79.7887510 133.9203360 121.5115350  80.2842800 133.5299470
 120.5898050  79.1105400 133.2757230 116.1735030  79.8596570 139.8072360
 116.1072340  78.9392240 139.5529950 115.5440170  79.9572010 140.5217000
 118.9674560  75.5545120 126.3594910 119.8554180  75.8662350 126.1846250
 118.9379650  74.6817370 125.9675490 107.5610190  77.4263900 138.6781480
 107.2025130  78.0917750 139.2654820 107.2664750  76.5947450 139.0494100
 110.7623310  77.8848140 141.5621030 110.4623450  78.0305320 140.6648850
 111.5334550  77.3253430 141.4694420 116.1051760  82.6817140 139.5576160
 116.1196300  81.7498100 139.3395070 115.3976860  82.7676900 140.1965930
 121.2388830  76.8656960 125.8274770 121.1552550  77.2971180 124.9771210
 121.9583020  77.3255310 126.2601590 122.3162970  79.3224480 138.9044740
 121.5911160  79.9153260 138.7074130 122.8438430  79.3148020 138.1058110
 122.2676080  83.7199220 128.5556900 121.6252240  83.0654840 128.8300620
 121.8806740  84.1254310 127.7797570 117.8462560  81.0484650 132.4028590
 118.1986380  80.4512780 131.7429960 116.9624890  80.7228880 132.5736840
 115.5385660  84.3234710 136.6516660 116.1827880  84.5294090 137.3290080
 115.9015100  83.5623110 136.1987510 109.1364830  69.1566020 129.8946880
 109.0079460  69.1483920 130.8431800 108.3126850  69.4949110 129.5437890
 116.8117740  82.3267060 135.3694110 117.4539970  81.6260220 135.4826280
 117.3367090  83.1065500 135.1891000 118.5855360  83.1261960 138.5730170
 118.9211600  83.7128650 139.2508090 117.6655700  82.9954670 138.8027960
 106.1358760  70.9157140 139.3553580 105.4217280  71.1154060 139.9606190
 106.5553800  70.1396710 139.7268380 106.4231350  84.9037400 140.3420110
 106.5322470  83.9632140 140.2015500 105.7711910  85.1692150 139.6933840
 114.4143940  83.1753290 141.7418230 114.0940810  82.4562530 142.2863920
 113.7402300  83.8508360 141.8154290 117.6297540  73.4079450 137.1055030
 117.9978360  72.5874660 137.4334600 116.7695740  73.4681340 137.5210680
 120.9959570  72.3636390 127.9142590 120.3672730  72.4682060 127.2000820
 120.5011490  72.5833170 128.7036470 114.5899530  76.0619040 137.3293000
 115.0884780  76.5364860 137.9944850 114.7322480  75.1382560 137.5363030
 121.7966390  72.2787000 138.1721390 121.2939990  73.0192400 138.5115200
 122.6123050  72.6671000 137.8558180 120.0888400  77.5220180 131.6182750
 119.1478540  77.5370410 131.7930440 120.4032470  76.7356140 132.0643050
 122.0913980  84.6929030 133.2937010 122.2161400  85.5160200 133.7660820
 122.9579540  84.4819760 132.9461160 109.5631510  86.7860240 132.9654140
 110.2993990  86.2375700 133.2362710 109.9472430  87.6516250 132.8260130
 108.5689790  85.9706310 142.1539720 109.3702520  86.2918360 142.5675120
 108.0541610  85.6101890 142.8759630 117.4054420  82.0786180 142.1015130
 116.7992580  82.1017780 141.3610880 117.1008530  81.3469220 142.6382380
 118.8354790  85.8066470 140.7124540 119.7876540  85.7224490 140.6624780
 118.6883010  86.4708180 141.3858330 106.2887600  78.4579770 141.0975770
 106.7926620  77.8787050 141.6692000 105.5495020  78.7420000 141.6352140
 113.3425540  79.8650760 140.6311290 112.5771210  80.4335760 140.5465960
 113.5241500  79.5726970 139.7379520 120.4848890  81.5956090 141.1886310
 121.2258360  81.9331850 140.6853770 119.7221570  81.7648150 140.6356080
 108.3210680  76.6009360 141.9925840 108.3616020  76.3023230 142.9011070
 109.1756180  77.0016970 141.8333360 110.2616490  75.1801460 139.9600330
 109.7312950  74.6892410 139.3323670 110.9304560  75.6085660 139.4258260
 119.1594550  79.6470920 139.7241520 119.5735570  79.8016000 140.5731940
 118.2245550  79.7726140 139.8867300 119.6316720  76.9867080 141.7280670
 120.2137490  76.2319400 141.6401150 119.8078490  77.5174520 140.9512150
 110.7488790  72.1463830 140.0397620 110.6545660  71.5284580 139.3148490
 110.1686180  72.8730120 139.8127530 113.5150230  70.7037070 137.0725010
 113.0667530  70.7261330 136.2270560 112.8815430  70.3056090 137.6695310
 113.9209780  79.5991400 137.6937450 114.3397890  80.4424130 137.5213690
 113.0018410  79.7363440 137.4644230 116.2573680  77.3307580 139.0775290
 116.3769890  76.7348720 139.8170130 117.1167680  77.3677270 138.6576590
 118.5961580  77.8844770 137.6537800 118.0696800  78.4087390 137.0502940
 118.9392920  78.5172160 138.2847530 110.9947970  75.2738140 124.0987510
 110.7937030  74.4105500 124.4600850 110.8240020  75.1871500 123.1609110
 111.7717200  85.9044410 138.8095180 111.2338290  86.6290470 138.4903880
 112.0251160  85.4274750 138.0192520 113.0242450  73.8728930 140.3351110
 113.6142140  73.5644780 141.0228930 112.2062690  73.4008680 140.4911010
 117.8435880  73.4894740 140.5684130 117.1551400  72.8276280 140.5034120
 118.5641900  73.0433010 141.0132590 118.4736280  70.0846370 126.6274390
 118.7538570  69.2414270 126.9833810 117.7002010  70.3169480 127.1413140
 114.6279410  87.1395620 139.0681830 114.5538110  88.0430760 139.3754200
 113.7258250  86.8207520 139.0403900 106.5196910  85.3340800 135.1097080
 106.0827900  85.5141600 135.9421230 107.0874590  86.0915420 134.9678800
 122.1559090  84.8357800 139.3974390 121.5561080  84.8950360 138.6538310
 122.2852990  83.8962780 139.5271240 122.8517000  79.3223100 127.2378300
 123.6135910  79.8919750 127.3437990 122.8671370  78.7550300 128.0086610
 123.8576970  80.1773200 132.0820230 124.2285800  79.3940520 131.6756200
 124.4978900  80.8662300 131.9037530 120.8410730  81.5609780 137.4950550
 120.0270570  81.9906940 137.7576340 121.2484930  82.1728190 136.8819600
 119.3011780  72.6402320 125.6904450 119.7196660  72.4533300 124.8501110
 118.9947840  71.7881370 126.0007380 122.8001510  77.5526460 129.3880250
 122.4245110  76.7854390 128.9561540 122.0704630  77.9349160 129.8755180
 107.3897270  78.2313600 136.0089300 107.7570310  78.1441000 136.8885320
 106.8208090  77.4680150 135.9096160 122.1901130  76.6997980 139.0219770
 121.9587220  76.4710730 138.1217720 122.4505680  77.6197530 138.9764660
 106.9413270  75.1422690 139.9147720 106.0469320  75.1089450 140.2541430
 107.4810820  75.3409480 140.6798970 120.6289200  71.9254410 141.7999470
 121.5059380  71.9337810 142.1833470 120.6410040  71.1885250 141.1891820
 105.5659420  75.0559960 127.4111290 104.6623500  75.3190160 127.2362950
 106.0500040  75.3271130 126.6311250 122.0752470  75.7783950 132.6887490
 122.5989950  75.2846600 132.0577660 122.6611890  75.9134310 133.4335060
 122.2542190  75.8623820 136.2107040 121.3044900  75.8287360 136.3252030
 122.4355200  76.7723930 135.9756810 108.1086630  74.1125500 125.3205670
 108.8178330  73.6908720 124.8352950 107.3926570  74.1800730 124.6889020
 107.7560790  70.1664830 124.3608320 108.4788920  70.7073770 124.6789540
 108.0285310  69.8928250 123.4849860 121.5652440  75.0357300 128.6279900
 122.0611560  74.8028170 129.4128780 121.3668510  74.1969140 128.2117540
 107.4452980  69.4171020 134.2630940 108.0929170  68.8668400 133.8226100
 107.8654820  69.6714170 135.0846750 122.9939600  73.6718250 131.1617580
 122.8838880  73.5174290 132.0999850 123.7547190  73.1439190 130.9192990
 121.3405320  69.6112380 137.6200580 121.9777540  70.2246520 137.9859770
 121.4880210  69.6473040 136.6749810 123.8829870  71.5026170 124.4023720
 124.8079180  71.3707350 124.1942010 123.8605660  71.5818990 125.3560170
 123.9568360  72.2736830 127.0280430 123.1619860  72.2081950 127.5573340
 124.1611640  73.2087470 127.0165780 120.8986780  86.3128380 131.0218820
 121.4945850  85.9912950 130.3453240 121.1564930  85.8400200 131.8132090
 107.1984980  69.5726690 137.0056260 106.8499800  70.0290510 137.7714440
 106.8672680  68.6783820 137.0878690 108.8049350  82.7446290 141.1709450
 108.7618980  82.3739200 142.0523910 108.9360360  83.6823860 141.3111270
 112.5055380  84.3005880 136.7719170 112.2646740  84.5680440 135.8849690
 113.4458020  84.4711610 136.8270030 114.7109800  70.7638570 140.5275680
 114.6498690  71.3560400 141.2771090 115.6510180  70.6564530 140.3825940
 117.3484360  70.4208630 140.1667970 117.9624770  70.7387920 139.5049050
 117.8933920  69.9357220 140.7863830 123.7659540  86.3200260 137.5729810
 123.2717820  86.7169130 136.8556940 123.1572830  85.6949470 137.9667090
 107.8705620  69.1002890 140.2807030 108.4188610  68.9190940 139.5173140
 107.9360930  68.3097000 140.8163340 108.6437380  85.6908540 138.2907230
 108.0497700  85.5593240 139.0297270 108.6361220  84.8546680 137.8249330
 118.0892400  68.9840770 136.4937260 117.2152240  69.3175880 136.2910190
 117.9803150  68.5113950 137.3189130 118.9964380  71.1911640 137.8778980
 118.6677740  70.3763400 137.4980710 119.9446680  71.1481450 137.7544670
 121.4498990  86.9623680 134.8516550 120.9901960  87.7139490 134.4774570
 120.8211450  86.2430150 134.7931350 108.2749610  83.0566920 137.2415270
 107.5483670  82.4372210 137.1741220 108.3358760  83.4507530 136.3713350
 111.8794710  85.2711920 134.0264680 112.3959730  84.6599280 133.5012940
 112.5292090  85.7740700 134.5175690 114.6190210  86.1620410 134.8533660
 114.9068020  85.9074710 133.9766670 115.1313430  85.6097770 135.4439230
 115.8367220  69.9010610 135.4330170 115.0539010  70.3756110 135.7126930
 115.5430150  68.9965440 135.3243350 120.3888290  70.6033710 133.4779260
 120.8296380  70.5478810 132.6300860 120.1195880  71.5191720 133.5489440
 122.2526860  70.2348950 131.4888080 122.1915260  69.2910170 131.3419100
 123.0318890  70.3429040 132.0341540 107.1807630  70.2058090 127.9543890
 107.9386990  70.3186970 127.3807920 106.7184800  71.0427290 127.9087320
 118.2246420  68.9839810 132.1829270 118.8275790  69.5560020 132.6577790
 117.4839410  69.5479250 131.9603170 121.3681020  69.3861370 127.4569550
 121.5631650  70.2844820 127.7236980 120.5810890  69.1548450 127.9502500
 114.6862570  87.0836510 142.2201860 115.6129880  86.8480780 142.2637820
 114.6713000  87.9108510 141.7387890 122.9207630  86.6262080 129.2176110
 123.0959820  85.9399820 128.5737030 122.2229200  87.1509130 128.8252780
 111.8726180  69.7481260 141.9843740 111.5910450  70.2514860 141.2204560
 112.2545880  68.9503010 141.6185870 118.4741640  69.1634840 142.5624210
 118.3607090  69.4829450 143.4575730 119.2911380  69.5647350 142.2661490
 121.2540130  86.3106370 142.0442900 122.0465450  85.8155600 141.8368860
 121.5473280  86.9896510 142.6518510 107.9375610  74.2328030 109.4686370
 107.0492310  74.5744000 109.3666250 108.2216800  74.0328350 108.5767200
 105.9008620  76.8333680 115.3526070 106.4724730  76.0655880 115.3529710
 105.9010160  77.1322440 114.4432680 110.1137000  72.8159530 110.5024750
 110.2203750  73.7163260 110.8093510 109.2029360  72.7677500 110.2119400
 119.7656110  71.9384340 111.9735650 120.5865730  71.4480910 112.0161130
 119.7990190  72.5282000 112.7267490 107.7620160  74.7378540 115.7477340
 108.4430270  75.0016910 116.3664740 107.4468210  73.8979410 116.0815350
 124.0555660  73.9551090 118.5379280 123.3507830  74.3432800 118.0194390
 124.3213580  74.6501380 119.1400210 110.2380830  70.4244460 119.1013350
 110.2399270  70.9416850 118.2959250 109.4085140  69.9474640 119.0783280
 120.0017590  73.8784720 114.7463190 119.2973160  74.1669610 115.3266300
 120.3629750  74.6884830 114.3862750 109.9196160  72.1354420 117.1083800
 110.2612970  72.9796470 116.8137670 108.9811970  72.2838160 117.2249140
 123.0704510  73.3239510 115.1372400 122.1229420  73.3578490 115.2687830
 123.3954500  74.1378460 115.5221760 113.6024050  69.6236690 113.4328390
 113.9099030  69.0683580 112.7163890 112.6724750  69.7581150 113.2501380
 118.5524550  80.2433820 117.0518460 118.9693340  80.0293930 116.2171920
 119.2764370  80.5006610 117.6227080 119.4628660  75.4290360 118.0889570
 119.0499840  76.2544070 118.3429560 118.7304610  74.8435400 117.8965930
 120.1528760  85.4749690 118.7770550 119.6759320  86.2821880 118.5843160
 119.4690550  84.8228020 118.9296760 108.2966080  77.1095240 110.4514890
 108.1763680  77.8357330 109.8396160 107.9866970  76.3398150 109.9742800
 122.9885230  74.4806940 121.9711690 122.3729500  74.9886610 121.4427150
 122.6681650  73.5805270 121.9137630 110.7629740  70.4530310 113.8338560
 110.3197890  71.2339850 113.5023080 111.3214730  70.7760200 114.5409500
 115.0499550  73.3198830 119.4373880 114.5878920  73.5281850 120.2493820
 114.6477660  72.5058180 119.1344550 120.0504060  74.5407780 120.5670540
 119.1997650  74.2413530 120.8879610 119.8905850  74.7849790 119.6554360
 117.1453770  76.0409530 122.6669330 117.4707180  75.2073280 122.3271560
 117.9334100  76.5638050 122.8147660 113.8788560  70.0741010 108.7144390
 113.2542740  70.0700880 109.4397700 113.7918680  69.2071970 108.3180360
 112.8005640  70.9977640 115.6928160 113.0977970  71.9040470 115.6120180
 113.3491200  70.5096420 115.0787730 108.1253710  72.8863130 120.3813860
 107.7317100  73.7338340 120.5886640 107.4372110  72.2489500 120.5722500
 114.6998760  72.9698100 123.4510600 114.0097080  72.7770300 124.0856690
 115.4431060  73.2532740 123.9834900 109.2641500  73.3677230 113.6511220
 108.9241550  73.8452460 114.4078270 108.5018820  72.9142350 113.2912320
 117.4387640  72.2630220 115.6987460 117.4560380  72.7138870 116.5429310
 117.1903220  71.3635860 115.9120900 120.8658390  69.6762400 121.5373840
 121.1904160  68.9452060 122.0631820 120.9014900  69.3576040 120.6354830
 106.5787580  72.2896210 112.5675890 106.2934500  71.9251880 113.4054510
 106.5166440  71.5576670 111.9539030 116.2526170  71.1825470 109.2889260
 115.4390780  70.6838640 109.2134570 116.0588120  72.0223720 108.8725610
 109.1364830  69.1566020 111.1203390 109.0079460  69.1483920 112.0688310
 108.3126850  69.4949110 110.7694400 106.4389490  86.6382540 107.0934220
 106.7987130  87.2371880 106.4391490 106.2981830  87.1842430 107.8669250
 108.0564750  79.2428630 108.6554650 107.4492700  79.9827530 108.6649950
 108.5314100  79.3327990 107.8292850 117.6297540  73.4079450 118.3311540
 117.9978360  72.5874660 118.6591110 116.7695740  73.4681340 118.7467190
 120.9959570  72.3636390 109.1399100 120.3672730  72.4682060 108.4257330
 120.5011490  72.5833170 109.9292980 116.9959030  71.3673000 111.9952770
 116.8726810  71.3859130 111.0462280 117.9443590  71.4151940 112.1151170
 121.7966390  72.2787000 119.3977900 121.2939990  73.0192400 119.7371710
 122.6123050  72.6671000 119.0814690 122.0913980  84.6929030 114.5193520
 122.2161400  85.5160200 114.9917330 122.9579540  84.4819760 114.1717670
 108.3210680  76.6009360 123.2182350 108.3616020  76.3023230 124.1267580
 109.1756180  77.0016970 123.0589870 119.6316720  76.9867080 122.9537180
 120.2137490  76.2319400 122.8657660 119.8078490  77.5174520 122.1768660
 110.7488790  72.1463830 121.2654130 110.6545660  71.5284580 120.5405000
 110.1686180  72.8730120 121.0384040 113.5150230  70.7037070 118.2981520
 113.0667530  70.7261330 117.4527070 112.8815430  70.3056090 118.8951820
 118.5961580  77.8844770 118.8794310 118.0696800  78.4087390 118.2759450
 118.9392920  78.5172160 119.5104040 117.8435880  73.4894740 121.7940640
 117.1551400  72.8276280 121.7290630 118.5641900  73.0433010 122.2389100
 114.6279410  87.1395620 120.2938340 114.5538110  88.0430760 120.6010710
 113.7258250  86.8207520 120.2660410 106.3521340  77.8461030 112.6942470
 105.6970180  77.5772670 112.0502170 107.1899290  77.7365510 112.2444450
 123.8576970  80.1773200 113.3076740 124.2285800  79.3940520 112.9012710
 124.4978900  80.8662300 113.1294040 122.9036170  79.6157470 105.6207330
 123.1785010  80.5236350 105.4926550 122.7146910  79.5520000 106.5569320
 106.9413270  75.1422690 121.1404230 106.0469320  75.1089450 121.4797940
 107.4810820  75.3409480 121.9055480 120.6289200  71.9254410 123.0255980
 121.5059380  71.9337810 123.4089980 120.6410040  71.1885250 122.4148330
 105.5659420  75.0559960 108.6367800 104.6623500  75.3190160 108.4619460
 106.0500040  75.3271130 107.8567760 122.2542190  75.8623820 117.4363550
 121.3044900  75.8287360 117.5508540 122.4355200  76.7723930 117.2013320
 107.7560790  70.1664830 105.5864830 108.4788920  70.7073770 105.9046050
 108.0285310  69.8928250 104.7106370 122.9939600  73.6718250 112.3874090
 122.8838880  73.5174290 113.3256360 123.7547190  73.1439190 112.1449500
 121.3405320  69.6112380 118.8457090 121.9777540  70.2246520 119.2116280
 121.4880210  69.6473040 117.9006320 123.8829870  71.5026170 105.6280230
 124.8079180  71.3707350 105.4198520 123.8605660  71.5818990 106.5816680
 114.7109800  70.7638570 121.7532190 114.6498690  71.3560400 122.5027600
 115.6510180  70.6564530 121.6082450 117.3484360  70.4208630 121.3924480
 117.9624770  70.7387920 120.7305560 117.8933920  69.9357220 122.0120340
 107.8705620  69.1002890 121.5063540 108.4188610  68.9190940 120.7429650
 107.9360930  68.3097000 122.0419850 118.0892400  68.9840770 117.7193770
 117.2152240  69.3175880 117.5166700 117.9803150  68.5113950 118.5445640
 118.9964380  71.1911640 119.1035490 118.6677740  70.3763400 118.7237220
 119.9446680  71.1481450 118.9801180 121.4498990  86.9623680 116.0773060
 120.9901960  87.7139490 115.7031080 120.8211450  86.2430150 116.0187860
 115.8367220  69.9010610 116.6586680 115.0539010  70.3756110 116.9383440
 115.5430150  68.9965440 116.5499860 120.3888290  70.6033710 114.7035770
 120.8296380  70.5478810 113.8557370 120.1195880  71.5191720 114.7745950
 106.5579610  86.3741310 111.6768540 106.3901650  85.7411990 112.3750430
 105.6914120  86.5800710 111.3262730 107.1807630  70.2058090 109.1800400
 107.9386990  70.3186970 108.6064430 106.7184800  71.0427290 109.1343830
 113.7221440  72.3197360 112.1702710 112.9095950  71.9454250 111.8298590
 114.2263080  71.5642440 112.4723900 118.2246420  68.9839810 113.4085780
 118.8275790  69.5560020 113.8834300 117.4839410  69.5479250 113.1859680
 121.3681020  69.3861370 108.6826060 121.5631650  70.2844820 108.9493490
 120.5810890  69.1548450 109.1759010 109.5532780  70.7322140 107.7202370
 110.0825540  69.9451940 107.5910320 110.1861100  71.4113330 107.9537900
 111.7470620  70.4697280 110.7747760 111.1173360  69.7684590 110.9417890
 111.2075760  71.2301410 110.5580920 122.9207630  86.6262080 110.4432620
 123.0959820  85.9399820 109.7993540 122.2229200  87.1509130 110.0509290
 118.4741640  69.1634840 123.7880720 118.3607090  69.4829450 124.6832240
 119.2911380  69.5647350 123.4918000 117.3799790  77.1827310  94.1515460
 117.2993840  76.2681920  93.8807170 116.9664210  77.6794380  93.4455170
 115.9831990  74.4433900  96.2663820 116.3596810  73.5705780  96.1537490
 115.8851500  74.7792600  95.3754260 110.2380830  70.4244460 100.3269860
 110.2399270  70.9416850  99.5215760 109.4085140  69.9474640 100.3039790
 110.7002780  82.0320440 100.3192540 111.3176780  82.7071520 100.0376990
 109.8395900  82.4408420 100.2280040 121.6180370  83.4959850  98.2347180
 120.9343890  84.1658960  98.2263850 122.1574660  83.6940500  97.4692040
 113.6024050  69.6236690  94.6584900 113.9099030  69.0683580  93.9420400
 112.6724750  69.7581150  94.4757890 119.1539110  85.3403980  96.9492360
 119.1666270  84.9366270  96.0814620 118.6014330  86.1151270  96.8453790
 118.5524550  80.2433820  98.2774970 118.9693340  80.0293930  97.4428430
 119.2764370  80.5006610  98.8483590 122.4986650  78.6421040  98.3691210
 121.6705280  78.7114130  97.8941340 123.0937130  79.2275350  97.9007040
 120.1528760  85.4749690 100.0027060 119.6759320  86.2821880  99.8099670
 119.4690550  84.8228020 100.1553270 116.9977960  86.1302480 100.8013270
 117.5122630  86.0410490 101.6035700 116.1547040  86.4762180 101.0941180
 122.9885230  74.4806940 103.1968200 122.3729500  74.9886610 102.6683660
 122.6681650  73.5805270 103.1394140 105.9910970  81.3224550 100.0234500
 106.1542010  80.8529910  99.2053870 106.4563420  80.8148110 100.6883340
 110.7629740  70.4530310  95.0595070 110.3197890  71.2339850  94.7279590
 111.3214730  70.7760200  95.7666010 112.8005640  70.9977640  96.9184670
 113.0977970  71.9040470  96.8376690 113.3491200  70.5096420  96.3044240
 110.5543960  75.5763880  92.7876320 110.3284880  75.3601050  93.6922940
 109.7736490  76.0092340  92.4422290 116.3906590  74.2190790  93.4170250
 116.7836160  74.5362990  92.6038940 116.7523440  73.3402670  93.5314770
 105.4270760  70.8091590  95.6400450 105.1383810  71.3794450  96.3525430
 106.1716520  70.3296040  96.0031680 116.9761730  76.8096540  97.5121030
 116.2442850  77.3183350  97.8611130 116.5786070  75.9926520  97.2109810
 113.4139120  73.4850740  95.9173520 113.4175180  73.0440690  95.0678060
 114.3090240  73.8068070  96.0245340 109.2641500  73.3677230  94.8767730
 108.9241550  73.8452460  95.6334780 108.5018820  72.9142350  94.5168830
 113.4759270  74.4862820  88.9080280 113.5972090  74.4449300  89.8566100
 113.0907780  75.3486970  88.7527010 112.4880770  76.7963960  88.3063580
 111.9197670  76.3482210  87.6799490 113.1969770  77.1556740  87.7728730
 120.7916230  79.7887510  96.3716380 121.5115350  80.2842800  95.9812490
 120.5898050  79.1105400  95.7270250 122.3162970  79.3224480 101.3557760
 121.5911160  79.9153260 101.1587150 122.8438430  79.3148020 100.5571130
 115.5385660  84.3234710  99.1029680 116.1827880  84.5294090  99.7803100
 115.9015100  83.5623110  98.6500530 116.8117740  82.3267060  97.8207130
 117.4539970  81.6260220  97.9339300 117.3367090  83.1065500  97.6404020
 106.1358760  70.9157140 101.8066600 105.4217280  71.1154060 102.4119210
 106.5553800  70.1396710 102.1781400 106.4231350  84.9037400 102.7933130
 106.5322470  83.9632140 102.6528520 105.7711910  85.1692150 102.1446860
 112.9643600  74.6422340  91.7813490 112.2559750  75.1108680  92.2227100
 113.2488080  73.9844350  92.4158680 116.9959030  71.3673000  93.2209280
 116.8726810  71.3859130  92.2718790 117.9443590  71.4151940  93.3407680
 120.0888400  77.5220180  94.0695770 119.1478540  77.5370410  94.2443460
 120.4032470  76.7356140  94.5156070 108.7616800  76.6364850  88.3132620
 108.8420390  75.6892360  88.4250020 109.6536550  76.9671730  88.4193280
 122.0913980  84.6929030  95.7450030 122.2161400  85.5160200  96.2173840
 122.9579540  84.4819760  95.3974180 112.0989070  79.2004910  89.6042370
 112.5205490  79.0344780  90.4473760 112.2239910  78.3905140  89.1097510
 119.1594550  79.6470920 102.1754540 119.5735570  79.8016000 103.0244960
 118.2245550  79.7726140 102.3380320 110.7488790  72.1463830 102.4910640
 110.6545660  71.5284580 101.7661510 110.1686180  72.8730120 102.2640550
 113.5150230  70.7037070  99.5238030 113.0667530  70.7261330  98.6783580
 112.8815430  70.3056090 100.1208330 113.9209780  79.5991400 100.1450470
 114.3397890  80.4424130  99.9726710 113.0018410  79.7363440  99.9157250
 118.5961580  77.8844770 100.1050820 118.0696800  78.4087390  99.5015960
 118.9392920  78.5172160 100.7360550 110.9947970  75.2738140  86.5500530
 110.7937030  74.4105500  86.9113870 110.8240020  75.1871500  85.6122130
 118.4736280  70.0846370  89.0787410 118.7538570  69.2414270  89.4346830
 117.7002010  70.3169480  89.5926160 114.6279410  87.1395620 101.5194850
 114.5538110  88.0430760 101.8267220 113.7258250  86.8207520 101.4916920
 106.5196910  85.3340800  97.5610100 106.0827900  85.5141600  98.3934250
 107.0874590  86.0915420  97.4191820 123.8576970  80.1773200  94.5333250
 124.2285800  79.3940520  94.1269220 124.4978900  80.8662300  94.3550550
 120.8410730  81.5609780  99.9463570 120.0270570  81.9906940 100.2089360
 121.2484930  82.1728190  99.3332620 122.1901130  76.6997980 101.4732790
 121.9587220  76.4710730 100.5730740 122.4505680  77.6197530 101.4277680
 107.4452980  69.4171020  96.7143960 108.0929170  68.8668400  96.2739120
 107.8654820  69.6714170  97.5359770 107.1984980  69.5726690  99.4569280
 106.8499800  70.0290510 100.2227460 106.8672680  68.6783820  99.5391710
 112.5055380  84.3005880  99.2232190 112.2646740  84.5680440  98.3362710
 113.4458020  84.4711610  99.2783050 107.8705620  69.1002890 102.7320050
 108.4188610  68.9190940 101.9686160 107.9360930  68.3097000 103.2676360
 108.6437380  85.6908540 100.7420250 108.0497700  85.5593240 101.4810290
 108.6361220  84.8546680 100.2762350 108.2749610  83.0566920  99.6928290
 107.5483670  82.4372210  99.6254240 108.3358760  83.4507530  98.8226370
 114.6190210  86.1620410  97.3046680 114.9068020  85.9074710  96.4279690
 115.1313430  85.6097770  97.8952250 115.8367220  69.9010610  97.8843190
 115.0539010  70.3756110  98.1639950 115.5430150  68.9965440  97.7756370
 113.7221440  72.3197360  93.3959220 112.9095950  71.9454250  93.0555100
 114.2263080  71.5642440  93.6980410 118.2246420  68.9839810  94.6342290
 118.8275790  69.5560020  95.1090810 117.4839410  69.5479250  94.4116190
 121.3681020  69.3861370  89.9082570 121.5631650  70.2844820  90.1750000
 120.5810890  69.1548450  90.4015520 111.8726180  69.7481260 104.4356760
 111.5910450  70.2514860 103.6717580 112.2545880  68.9503010 104.0698890
 115.5117830  78.9606330  77.2581240 114.7359930  78.4806770  77.5479810
 116.1630760  78.2811980  77.0837400 109.5283660  79.2726140  78.1357000
 108.6968540  79.0174850  78.5353510 110.1364640  79.3436910  78.8714920
 109.5084920  83.3066230  78.3315020 109.8112960  82.4163970  78.1525240
 110.2528510  83.8636450  78.1037270 107.9375610  74.2328030  71.9199390
 107.0492310  74.5744000  71.8179270 108.2216800  74.0328350  71.0280220
 114.9526820  81.6363520  77.2651400 114.8835100  80.6953460  77.1040530
 115.7146680  81.7264930  77.8373970 110.1137000  72.8159530  72.9537770
 110.2203750  73.7163260  73.2606530 109.2029360  72.7677500  72.6632420
 111.9544730  75.7845900  77.2862950 112.4622950  76.2826870  77.9267970
 112.4857970  75.0081100  77.1102310 116.6251920  80.5363770  73.0516270
 116.0069190  81.0013220  72.4878990 117.1375170  81.2291250  73.4685780
 111.4883680  80.0639640  79.7299870 111.1553060  80.6908560  80.3720940
 111.6650360  80.5901520  78.9501540 110.7002780  82.0320440  81.5449050
 111.3176780  82.7071520  81.2633500 109.8395900  82.4408420  81.4536550
 105.9935120  81.2220300  70.4255900 105.6163100  81.7107400  69.6940800
 106.2508190  81.8945580  71.0562430 113.6024050  69.6236690  75.8841410
 113.9099030  69.0683580  75.1676910 112.6724750  69.7581150  75.7014400
 118.5524550  80.2433820  79.5031480 118.9693340  80.0293930  78.6684940
 119.2764370  80.5006610  80.0740100 115.9773890  73.9602520  69.6168690
 115.0377560  74.1216480  69.7021150 116.2957150  74.6788200  69.0704680
 122.4986650  78.6421040  79.5947720 121.6705280  78.7114130  79.1197850
 123.0937130  79.2275350  79.1263550 119.4628660  75.4290360  80.5402590
 119.0499840  76.2544070  80.7942580 118.7304610  74.8435400  80.3478950
 111.5961450  78.2150260  75.4021260 111.1918450  77.5027510  74.9067160
 111.6824570  77.8703500  76.2909300 112.0643150  81.9017820  77.5660470
 111.7671440  81.2963290  76.8868250 113.0142970  81.9395130  77.4549830
 118.1966800  78.4892630  70.1309530 118.6360080  77.6515060  69.9847350
 118.9095220  79.1222030  70.2173670 111.7813150  84.4534530  85.0010790
 111.7528580  84.8577480  84.1339220 111.6178120  83.5244890  84.8382390
 108.2966080  77.1095240  72.9027910 108.1763680  77.8357330  72.2909180
 107.9866970  76.3398150  72.4255820 105.9351450  80.2810380  78.7096550
 106.0131870  80.4159150  77.7652270 106.5493130  79.5726270  78.9024670
 107.1799080  81.9810570  75.1202730 106.7727160  82.1225160  74.2656330
 108.0712090  81.6970730  74.9173940 116.9977960  86.1302480  82.0269780
 117.5122630  86.0410490  82.8292210 116.1547040  86.4762180  82.3197690
 111.4520740  86.1956350  73.2325400 111.2763220  85.2791890  73.0193200
 110.5976480  86.5543640  73.4723200 118.6758490  83.9245380  70.0151780
 117.9823650  83.9222670  69.3554060 119.4181350  83.5004700  69.5845950
 110.7629740  70.4530310  76.2851580 110.3197890  71.2339850  75.9536100
 111.3214730  70.7760200  76.9922520 115.0499550  73.3198830  81.8886900
 114.5878920  73.5281850  82.7006840 114.6477660  72.5058180  81.5857570
 113.8788560  70.0741010  71.1657410 113.2542740  70.0700880  71.8910720
 113.7918680  69.2071970  70.7693380 112.8005640  70.9977640  78.1441180
 113.0977970  71.9040470  78.0633200 113.3491200  70.5096420  77.5300750
 110.5543960  75.5763880  74.0132830 110.3284880  75.3601050  74.9179450
 109.7736490  76.0092340  73.6678800 112.9943170  76.4749460  84.6793100
 112.8986770  75.5344190  84.5293500 113.8375150  76.6964530  84.2841170
 114.6998760  72.9698100  85.9023620 114.0097080  72.7770300  86.5369710
 115.4431060  73.2532740  86.4347920 105.6140990  74.7511710  68.0759680
 105.5315660  75.6942470  68.2174670 105.2624050  74.6086620  67.1972030
 116.9761730  76.8096540  78.7377540 116.2442850  77.3183350  79.0867640
 116.5786070  75.9926520  78.4366320 113.4139120  73.4850740  77.1430030
 113.4175180  73.0440690  76.2934570 114.3090240  73.8068070  77.2501850
 109.2641500  73.3677230  76.1024240 108.9241550  73.8452460  76.8591290
 108.5018820  72.9142350  75.7425340 113.4759270  74.4862820  70.1336790
 113.5972090  74.4449300  71.0822610 113.0907780  75.3486970  69.9783520
 112.4880770  76.7963960  69.5320090 111.9197670  76.3482210  68.9056000
 113.1969770  77.1556740  68.9985240 113.7147090  77.5452520  78.8895440
 114.0817220  77.0711090  79.6356780 113.5252150  78.4194090  79.2303780
 111.5046460  76.5861160  81.2079650 111.2003530  77.4653140  81.4330010
 112.4592920  76.6460950  81.2437090 110.0328250  80.7922150  71.8046500
 109.2590510  80.2519770  71.6445220 110.7622880  80.2728760  71.4664260
 120.7916230  79.7887510  77.5972890 121.5115350  80.2842800  77.2069000
 120.5898050  79.1105400  76.9526760 110.0765650  80.4602530  75.4425310
 110.5944320  79.6570790  75.3882200 109.6249670  80.3981670  76.2842140
 114.9635150  81.7268810  70.7152610 115.3050850  82.4711040  70.2195930
 114.1347860  82.0399930  71.0777440 117.8462560  81.0484650  76.0798120
 118.1986380  80.4512780  75.4199490 116.9624890  80.7228880  76.2506370
 113.9325840  81.8082340  73.4868530 114.6196970  82.3551550  73.8676120
 113.1458260  82.3523070  73.5218140 106.0718240  77.4255160  68.9785610
 106.9413090  77.7079960  69.2621530 105.5808560  78.2391030  68.8634420
 113.2353050  78.8128370  73.0993890 113.6915830  79.6233620  73.3254080
 112.8841260  78.4951510  73.9312380 115.5385660  84.3234710  80.3286190
 116.1827880  84.5294090  81.0059610 115.9015100  83.5623110  79.8757040
 109.1364830  69.1566020  73.5716410 109.0079460  69.1483920  74.5201330
 108.3126850  69.4949110  73.2207420 116.8117740  82.3267060  79.0463640
 117.4539970  81.6260220  79.1595810 117.3367090  83.1065500  78.8660530
 120.6573460  82.6115680  68.7702780 120.4311040  81.8946120  69.3627420
 120.2669660  82.3628120  67.9324530 118.5855360  83.1261960  82.2499700
 118.9211600  83.7128650  82.9277620 117.6655700  82.9954670  82.4797490
 106.4389490  86.6382540  69.5447240 106.7987130  87.2371880  68.8904510
 106.2981830  87.1842430  70.3182270 120.2389710  80.5287620  70.4316940
 119.9511410  80.9900310  71.2194820 121.0341880  80.0685390  70.7001160
 112.4558110  84.0213740  70.3620910 112.4468210  84.7543430  69.7465420
 111.5356470  83.7745320  70.4547870 108.0564750  79.2428630  71.1067670
 107.4492700  79.9827530  71.1162970 108.5314100  79.3327990  70.2805870
 112.9643600  74.6422340  73.0070000 112.2559750  75.1108680  73.4483610
 113.2488080  73.9844350  73.6415190 114.5899530  76.0619040  81.0062530
 115.0884780  76.5364860  81.6714380 114.7322480  75.1382560  81.2132560
 114.0835820  86.6028300  73.7193770 114.3377320  86.5649690  72.7973140
 113.1348300  86.4761630  73.7122020 111.1678620  72.9507420  70.3820710
 112.0169150  73.3877570  70.3160900 110.8009890  73.2627680  71.2092770
 110.0670040  79.2039780  68.8556240 110.8333310  79.0921140  69.4181670
 110.1444730  78.5077750  68.2033010 108.7616800  76.6364850  69.5389130
 108.8420390  75.6892360  69.6506530 109.6536550  76.9671730  69.6449790
 109.5631510  86.7860240  76.6423670 110.2993990  86.2375700  76.9132240
 109.9472430  87.6516250  76.5029660 106.4476990  82.8533810  72.5165180
 105.5216770  83.0954950  72.5070590 106.9133420  83.6808070  72.3949930
 118.8354790  85.8066470  84.3894070 119.7876540  85.7224490  84.3394310
 118.6883010  86.4708180  85.0627860 113.1911220  81.1793960  68.3291590
 113.0861860  80.5646310  69.0552970 113.0235440  80.6559850  67.5454600
 116.4313950  80.2413990  68.9333580 115.8824050  80.6883290  69.5776320
 117.0533210  79.7363240  69.4571250 112.0989070  79.2004910  70.8298880
 112.5205490  79.0344780  71.6730270 112.2239910  78.3905140  70.3354020
 110.2616490  75.1801460  83.6369860 109.7312950  74.6892410  83.0093200
 110.9304560  75.6085660  83.1027790 114.6116710  78.2242520  68.0775980
 115.1322370  77.5091540  67.7117130 115.2585110  78.8628390  68.3776490
 113.5150230  70.7037070  80.7494540 113.0667530  70.7261330  79.9040090
 112.8815430  70.3056090  81.3464840 113.9209780  79.5991400  81.3706980
 114.3397890  80.4424130  81.1983220 113.0018410  79.7363440  81.1413760
 118.5961580  77.8844770  81.3307330 118.0696800  78.4087390  80.7272470
 118.9392920  78.5172160  81.9617060 110.9947970  75.2738140  67.7757040
 110.7937030  74.4105500  68.1370380 110.8240020  75.1871500  66.8378640
 111.7717200  85.9044410  82.4864710 111.2338290  86.6290470  82.1673410
 112.0251160  85.4274750  81.6962050 113.0242450  73.8728930  84.0120640
 113.6142140  73.5644780  84.6998460 112.2062690  73.4008680  84.1680540
 109.7930770  72.3738760  67.7634920 110.0956670  72.3806190  66.8554070
 110.5325360  72.0236620  68.2602580 114.6279410  87.1395620  82.7451360
 114.5538110  88.0430760  83.0523730 113.7258250  86.8207520  82.7173430
 113.0115700  71.3173380  68.7491120 112.6637700  70.6397370  68.1693570
 113.2128470  70.8562890  69.5634510 108.8160900  81.6781180  68.5964720
 109.2535770  82.2210850  69.2522300 109.3008630  80.8528130  68.6061060
 106.0306700  84.4670210  76.0484980 106.3609710  83.5991270  75.8163620
 106.4597700  84.6728730  76.8789940 110.6268620  82.7979220  73.7086950
 110.3264160  82.6744190  74.6090860 110.5206110  81.9387810  73.3002680
 106.5196910  85.3340800  78.7866610 106.0827900  85.5141600  79.6190760
 107.0874590  86.0915420  78.6448330 122.1559090  84.8357800  83.0743920
 121.5561080  84.8950360  82.3307840 122.2852990  83.8962780  83.2040770
 123.3960540  82.5775620  68.4113630 122.5653500  82.6452270  68.8820860
 123.5732370  83.4679740  68.1080490 106.3521340  77.8461030  75.1455490
 105.6970180  77.5772670  74.5015190 107.1899290  77.7365510  74.6957470
 123.8576970  80.1773200  75.7589760 124.2285800  79.3940520  75.3525730
 124.4978900  80.8662300  75.5807060 120.8410730  81.5609780  81.1720080
 120.0270570  81.9906940  81.4345870 121.2484930  82.1728190  80.5589130
 122.1901130  76.6997980  82.6989300 121.9587220  76.4710730  81.7987250
 122.4505680  77.6197530  82.6534190 105.5659420  75.0559960  71.0880820
 104.6623500  75.3190160  70.9132480 106.0500040  75.3271130  70.3080780
 122.2542190  75.8623820  79.8876570 121.3044900  75.8287360  80.0021560
 122.4355200  76.7723930  79.6526340 108.1086630  74.1125500  68.9975200
 108.8178330  73.6908720  68.5122480 107.3926570  74.1800730  68.3658550
 107.7560790  70.1664830  68.0377850 108.4788920  70.7073770  68.3559070
 108.0285310  69.8928250  67.1619390 123.8829870  71.5026170  68.0793250
 124.8079180  71.3707350  67.8711540 123.8605660  71.5818990  69.0329700
 123.9568360  72.2736830  70.7049960 123.1619860  72.2081950  71.2342870
 124.1611640  73.2087470  70.6935310 112.5055380  84.3005880  80.4488700
 112.2646740  84.5680440  79.5619220 113.4458020  84.4711610  80.5039560
 114.7109800  70.7638570  84.2045210 114.6498690  71.3560400  84.9540620
 115.6510180  70.6564530  84.0595470 108.6437380  85.6908540  81.9676760
 108.0497700  85.5593240  82.7066800 108.6361220  84.8546680  81.5018860
 108.2749610  83.0566920  80.9184800 107.5483670  82.4372210  80.8510750
 108.3358760  83.4507530  80.0482880 111.8794710  85.2711920  77.7034210
 112.3959730  84.6599280  77.1782470 112.5292090  85.7740700  78.1945220
 114.6190210  86.1620410  78.5303190 114.9068020  85.9074710  77.6536200
 115.1313430  85.6097770  79.1208760 106.5579610  86.3741310  74.1281560
 106.3901650  85.7411990  74.8263450 105.6914120  86.5800710  73.7775750
 107.1807630  70.2058090  71.6313420 107.9386990  70.3186970  71.0577450
 106.7184800  71.0427290  71.5856850 113.7221440  72.3197360  74.6215730
 112.9095950  71.9454250  74.2811610 114.2263080  71.5642440  74.9236920
 108.1642310  85.0674540  71.5731700 107.6389930  85.4482570  70.8693660
 108.0886890  85.6925310  72.2941410 109.5532780  70.7322140  70.1715390
 110.0825540  69.9451940  70.0423340 110.1861100  71.4113330  70.4050920
 111.7470620  70.4697280  73.2260780 111.1173360  69.7684590  73.3930910
 111.2075760  71.2301410  73.0093940 114.6862570  87.0836510  85.8971390
 115.6129880  86.8480780  85.9407350 114.6713000  87.9108510  85.4157420
 110.7635280  87.0156920  70.4480950 111.4954100  86.7316200  69.9004840
 111.0228950  86.7770200  71.3380330 109.9250070  83.1321650  70.4527280
 109.2958950  83.6006750  71.0013110 110.0397900  82.2870870  70.8873470
 121.2540130  86.3106370  85.7212430 122.0465450  85.8155600  85.5138390
 121.5473280  86.9896510  86.3288040 117.3799790  77.1827310  56.6028480
 117.2993840  76.2681920  56.3320190 116.9664210  77.6794380  55.8968190
 115.5117830  78.9606330  58.4837750 114.7359930  78.4806770  58.7736320
 116.1630760  78.2811980  58.3093910 119.5325260  83.3666520  57.2636880
 119.0706790  82.5953760  57.5924050 120.3450810  83.3932590  57.7689330
 115.7588570  85.6524530  56.8840870 115.1400010  86.1082030  56.3135310
 116.6140350  85.8075990  56.4830570 114.9526820  81.6363520  58.4907910
 114.8835100  80.6953460  58.3297040 115.7146680  81.7264930  59.0630480
 107.1433490  72.2418040  60.8164530 106.9636330  71.3443790  61.0967290
 106.7413570  72.7889910  61.4911480 115.9831990  74.4433900  58.7176840
 116.3596810  73.5705780  58.6050510 115.8851500  74.7792600  57.8267280
 119.7656110  71.9384340  55.6505180 120.5865730  71.4480910  55.6930660
 119.7990190  72.5282000  56.4037020 124.0555660  73.9551090  62.2148810
 123.3507830  74.3432800  61.6963920 124.3213580  74.6501380  62.8169740
 110.2380830  70.4244460  62.7782880 110.2399270  70.9416850  61.9728780
 109.4085140  69.9474640  62.7552810 116.6251920  80.5363770  54.2772780
 116.0069190  81.0013220  53.7135500 117.1375170  81.2291250  54.6942290
 111.4883680  80.0639640  60.9556380 111.1553060  80.6908560  61.5977450
 111.6650360  80.5901520  60.1758050 120.0017590  73.8784720  58.4232720
 119.2973160  74.1669610  59.0035830 120.3629750  74.6884830  58.0632280
 109.9196160  72.1354420  60.7853330 110.2612970  72.9796470  60.4907200
 108.9811970  72.2838160  60.9018670 121.6180370  83.4959850  60.6860200
 120.9343890  84.1658960  60.6776870 122.1574660  83.6940500  59.9205060
 123.0704510  73.3239510  58.8141930 122.1229420  73.3578490  58.9457360
 123.3954500  74.1378460  59.1991290 113.6024050  69.6236690  57.1097920
 113.9099030  69.0683580  56.3933420 112.6724750  69.7581150  56.9270910
 119.1539110  85.3403980  59.4005380 119.1666270  84.9366270  58.5327640
 118.6014330  86.1151270  59.2966810 120.4484530  82.0620200  54.4895550
 120.3380860  81.1194530  54.6144970 120.4452780  82.4235840  55.3758310
 118.5524550  80.2433820  60.7287990 118.9693340  80.0293930  59.8941450
 119.2764370  80.5006610  61.2996610 115.9904810  77.6885520  53.8458040
 115.0634090  77.6222900  54.0746510 116.1429630  78.6265650  53.7313280
 115.9773890  73.9602520  50.8425200 115.0377560  74.1216480  50.9277660
 116.2957150  74.6788200  50.2961190 122.4986650  78.6421040  60.8204230
 121.6705280  78.7114130  60.3454360 123.0937130  79.2275350  60.3520060
 120.0202100  79.2505820  54.3493290 119.4014520  78.9125370  53.7019590
 120.0026550  78.6065580  55.0572480 119.4628660  75.4290360  61.7659100
 119.0499840  76.2544070  62.0199090 118.7304610  74.8435400  61.5735460
 112.0643150  81.9017820  58.7916980 111.7671440  81.2963290  58.1124760
 113.0142970  81.9395130  58.6806340 120.1528760  85.4749690  62.4540080
 119.6759320  86.2821880  62.2612690 119.4690550  84.8228020  62.6066290
 118.1966800  78.4892630  51.3566040 118.6360080  77.6515060  51.2103860
 118.9095220  79.1222030  51.4430180 109.9832800  78.5112830  64.0182150
 109.8440570  79.3835630  64.3869550 109.1014160  78.1685640  63.8730090
 116.3062180  83.4288700  55.3247280 116.7458090  84.1713030  54.9102670
 116.2449070  83.6715270  56.2486240 123.7327970  85.2361630  67.5231470
 124.2087690  85.7144520  68.2020550 124.3535130  85.1679120  66.7976970
 123.1361220  82.4274480  64.6831480 123.2624280  82.1886360  63.7648660
 123.1782600  81.5959020  65.1553560 118.9732360  86.4157820  52.6810290
 118.8133500  86.1260760  53.5792120 118.8079070  85.6397950  52.1455520
 111.4520740  86.1956350  54.4581910 111.2763220  85.2791890  54.2449710
 110.5976480  86.5543640  54.6979710 118.6758490  83.9245380  51.2408290
 117.9823650  83.9222670  50.5810570 119.4181350  83.5004700  50.8102460
 118.2408420  85.5508090  55.3156780 118.6965370  84.7697470  55.6295400
 118.5800940  86.2614910  55.8597960 110.7629740  70.4530310  57.5108090
 110.3197890  71.2339850  57.1792610 111.3214730  70.7760200  58.2179030
 115.0499550  73.3198830  63.1143410 114.5878920  73.5281850  63.9263350
 114.6477660  72.5058180  62.8114080 117.1453770  76.0409530  66.3438860
 117.4707180  75.2073280  66.0041090 117.9334100  76.5638050  66.4917190
 112.8005640  70.9977640  59.3697690 113.0977970  71.9040470  59.2889710
 113.3491200  70.5096420  58.7557260 117.7841720  75.5827250  53.8379990
 117.1850610  76.3063050  53.6543610 118.3321330  75.5204030  53.0556440
 112.9943170  76.4749460  65.9049610 112.8986770  75.5344190  65.7550010
 113.8375150  76.6964530  65.5097680 116.3906590  74.2190790  55.8683270
 116.7836160  74.5362990  55.0551960 116.7523440  73.3402670  55.9827790
 108.1253710  72.8863130  64.0583390 107.7317100  73.7338340  64.2656170
 107.4372110  72.2489500  64.2492030 114.6998760  72.9698100  67.1280130
 114.0097080  72.7770300  67.7626220 115.4431060  73.2532740  67.6604430
 105.4270760  70.8091590  58.0913470 105.1383810  71.3794450  58.8038450
 106.1716520  70.3296040  58.4544700 105.6140990  74.7511710  49.3016190
 105.5315660  75.6942470  49.4431180 105.2624050  74.6086620  48.4228540
 116.9761730  76.8096540  59.9634050 116.2442850  77.3183350  60.3124150
 116.5786070  75.9926520  59.6622830 113.4139120  73.4850740  58.3686540
 113.4175180  73.0440690  57.5191080 114.3090240  73.8068070  58.4758360
 113.4759270  74.4862820  51.3593300 113.5972090  74.4449300  52.3079120
 113.0907780  75.3486970  51.2040030 117.4387640  72.2630220  59.3756990
 117.4560380  72.7138870  60.2198840 117.1903220  71.3635860  59.5890430
 120.8658390  69.6762400  65.2143370 121.1904160  68.9452060  65.7401350
 120.9014900  69.3576040  64.3124360 107.5649950  80.6975980  64.6343330
 107.1804740  80.0569650  65.2326290 107.8762140  81.4012100  65.2038060
 106.5787580  72.2896210  56.2445420 106.2934500  71.9251880  57.0824040
 106.5166440  71.5576670  55.6308560 120.7916230  79.7887510  58.8229400
 121.5115350  80.2842800  58.4325510 120.5898050  79.1105400  58.1783270
 116.2526170  71.1825470  52.9658790 115.4390780  70.6838640  52.8904100
 116.0588120  72.0223720  52.5495140 116.1735030  79.8596570  64.7098400
 116.1072340  78.9392240  64.4555990 115.5440170  79.9572010  65.4243040
 118.9674560  75.5545120  51.2620950 119.8554180  75.8662350  51.0872290
 118.9379650  74.6817370  50.8701530 114.9635150  81.7268810  51.9409120
 115.3050850  82.4711040  51.4452440 114.1347860  82.0399930  52.3033950
 110.7623310  77.8848140  66.4647070 110.4623450  78.0305320  65.5674890
 111.5334550  77.3253430  66.3720460 121.2388830  76.8656960  50.7300810
 121.1552550  77.2971180  49.8797250 121.9583020  77.3255310  51.1627630
 122.2676080  83.7199220  53.4582940 121.6252240  83.0654840  53.7326660
 121.8806740  84.1254310  52.6823610 117.8462560  81.0484650  57.3054630
 118.1986380  80.4512780  56.6456000 116.9624890  80.7228880  57.4762880
 113.9325840  81.8082340  54.7125040 114.6196970  82.3551550  55.0932630
 113.1458260  82.3523070  54.7474650 120.6573460  82.6115680  49.9959290
 120.4311040  81.8946120  50.5883930 120.2669660  82.3628120  49.1581040
 106.1358760  70.9157140  64.2579620 105.4217280  71.1154060  64.8632230
 106.5553800  70.1396710  64.6294420 120.2389710  80.5287620  51.6573450
 119.9511410  80.9900310  52.4451330 121.0341880  80.0685390  51.9257670
 106.4231350  84.9037400  65.2446150 106.5322470  83.9632140  65.1041540
 105.7711910  85.1692150  64.5959880 112.4558110  84.0213740  51.5877420
 112.4468210  84.7543430  50.9721930 111.5356470  83.7745320  51.6804380
 117.6297540  73.4079450  62.0081070 117.9978360  72.5874660  62.3360640
 116.7695740  73.4681340  62.4236720 115.4417710  84.0841980  50.2502610
 115.5429690  83.8805970  49.3204590 114.5419450  83.8300260  50.4550390
 112.9643600  74.6422340  54.2326510 112.2559750  75.1108680  54.6740120
 113.2488080  73.9844350  54.8671700 114.5899530  76.0619040  62.2319040
 115.0884780  76.5364860  62.8970890 114.7322480  75.1382560  62.4389070
 116.9959030  71.3673000  55.6722300 116.8726810  71.3859130  54.7231810
 117.9443590  71.4151940  55.7920700 114.0835820  86.6028300  54.9450280
 114.3377320  86.5649690  54.0229650 113.1348300  86.4761630  54.9378530
 121.7966390  72.2787000  63.0747430 121.2939990  73.0192400  63.4141240
 122.6123050  72.6671000  62.7584220 120.0888400  77.5220180  56.5208790
 119.1478540  77.5370410  56.6956480 120.4032470  76.7356140  56.9669090
 122.0913980  84.6929030  58.1963050 122.2161400  85.5160200  58.6686860
 122.9579540  84.4819760  57.8487200 109.5631510  86.7860240  57.8680180
 110.2993990  86.2375700  58.1388750 109.9472430  87.6516250  57.7286170
 108.5689790  85.9706310  67.0565760 109.3702520  86.2918360  67.4701160
 108.0541610  85.6101890  67.7785670 112.6733820  85.9590550  49.6905750
 113.4662430  86.2479380  49.2387540 112.1538170  85.5282720  49.0118230
 118.8354790  85.8066470  65.6150580 119.7876540  85.7224490  65.5650820
 118.6883010  86.4708180  66.2884370 121.7263990  85.1860680  51.1142490
 121.4405500  84.7725820  50.2996670 121.5283540  86.1148390  50.9943010
 106.2887600  78.4579770  66.0001810 106.7926620  77.8787050  66.5718040
 105.5495020  78.7420000  66.5378180 113.1911220  81.1793960  49.5548100
 113.0861860  80.5646310  50.2809480 113.0235440  80.6559850  48.7711110
 116.4313950  80.2413990  50.1590090 115.8824050  80.6883290  50.8032830
 117.0533210  79.7363240  50.6827760 108.3210680  76.6009360  66.8951880
 108.3616020  76.3023230  67.8037110 109.1756180  77.0016970  66.7359400
 110.2616490  75.1801460  64.8626370 109.7312950  74.6892410  64.2349710
 110.9304560  75.6085660  64.3284300 114.6116710  78.2242520  49.3032490
 115.1322370  77.5091540  48.9373640 115.2585110  78.8628390  49.6033000
 119.1594550  79.6470920  64.6267560 119.5735570  79.8016000  65.4757980
 118.2245550  79.7726140  64.7893340 110.7488790  72.1463830  64.9423660
 110.6545660  71.5284580  64.2174530 110.1686180  72.8730120  64.7153570
 113.5150230  70.7037070  61.9751050 113.0667530  70.7261330  61.1296600
 112.8815430  70.3056090  62.5721350 113.9209780  79.5991400  62.5963490
 114.3397890  80.4424130  62.4239730 113.0018410  79.7363440  62.3670270
 116.2573680  77.3307580  63.9801330 116.3769890  76.7348720  64.7196170
 117.1167680  77.3677270  63.5602630 118.5961580  77.8844770  62.5563840
 118.0696800  78.4087390  61.9528980 118.9392920  78.5172160  63.1873570
 110.9947970  75.2738140  49.0013550 110.7937030  74.4105500  49.3626890
 110.8240020  75.1871500  48.0635150 113.0242450  73.8728930  65.2377150
 113.6142140  73.5644780  65.9254970 112.2062690  73.4008680  65.3937050
 117.8435880  73.4894740  65.4710170 117.1551400  72.8276280  65.4060160
 118.5641900  73.0433010  65.9158630 115.1764740  86.3054130  51.5934230
 116.0715530  86.6439100  51.6152990 115.2082370  85.5833540  50.9658510
 122.1559090  84.8357800  64.3000430 121.5561080  84.8950360  63.5564350
 122.2852990  83.8962780  64.4297280 123.3960540  82.5775620  49.6370140
 122.5653500  82.6452270  50.1077370 123.5732370  83.4679740  49.3337000
 122.8517000  79.3223100  52.1404340 123.6135910  79.8919750  52.2464030
 122.8671370  78.7550300  52.9112650 123.8576970  80.1773200  56.9846270
 124.2285800  79.3940520  56.5782240 124.4978900  80.8662300  56.8063570
 120.8410730  81.5609780  62.3976590 120.0270570  81.9906940  62.6602380
 121.2484930  82.1728190  61.7845640 122.9036170  79.6157470  49.2976860
 123.1785010  80.5236350  49.1696080 122.7146910  79.5520000  50.2338850
 122.8001510  77.5526460  54.2906290 122.4245110  76.7854390  53.8587580
 122.0704630  77.9349160  54.7781220 106.9413270  75.1422690  64.8173760
 106.0469320  75.1089450  65.1567470 107.4810820  75.3409480  65.5825010
 120.6289200  71.9254410  66.7025510 121.5059380  71.9337810  67.0859510
 120.6410040  71.1885250  66.0917860 105.5659420  75.0559960  52.3137330
 104.6623500  75.3190160  52.1388990 106.0500040  75.3271130  51.5337290
 122.0752470  75.7783950  57.5913530 122.5989950  75.2846600  56.9603700
 122.6611890  75.9134310  58.3361100 122.2542190  75.8623820  61.1133080
 121.3044900  75.8287360  61.2278070 122.4355200  76.7723930  60.8782850
 121.5652440  75.0357300  53.5305940 122.0611560  74.8028170  54.3154820
 121.3668510  74.1969140  53.1143580 107.4452980  69.4171020  59.1656980
 108.0929170  68.8668400  58.7252140 107.8654820  69.6714170  59.9872790
 122.9939600  73.6718250  56.0643620 122.8838880  73.5174290  57.0025890
 123.7547190  73.1439190  55.8219030 121.3405320  69.6112380  62.5226620
 121.9777540  70.2246520  62.8885810 121.4880210  69.6473040  61.5775850
 123.9568360  72.2736830  51.9306470 123.1619860  72.2081950  52.4599380
 124.1611640  73.2087470  51.9191820 120.8986780  86.3128380  55.9244860
 121.4945850  85.9912950  55.2479280 121.1564930  85.8400200  56.7158130
 107.1984980  69.5726690  61.9082300 106.8499800  70.0290510  62.6740480
 106.8672680  68.6783820  61.9904730 108.8049350  82.7446290  66.0735490
 108.7618980  82.3739200  66.9549950 108.9360360  83.6823860  66.2137310
 114.7109800  70.7638570  65.4301720 114.6498690  71.3560400  66.1797130
 115.6510180  70.6564530  65.2851980 117.3484360  70.4208630  65.0694010
 117.9624770  70.7387920  64.4075090 117.8933920  69.9357220  65.6889870
 123.7659540  86.3200260  62.4755850 123.2717820  86.7169130  61.7582980
 123.1572830  85.6949470  62.8693130 107.8705620  69.1002890  65.1833070
 108.4188610  68.9190940  64.4199180 107.9360930  68.3097000  65.7189380
 118.0892400  68.9840770  61.3963300 117.2152240  69.3175880  61.1936230
 117.9803150  68.5113950  62.2215170 118.9964380  71.1911640  62.7805020
 118.6677740  70.3763400  62.4006750 119.9446680  71.1481450  62.6570710
 121.4498990  86.9623680  59.7542590 120.9901960  87.7139490  59.3800610
 120.8211450  86.2430150  59.6957390 111.8794710  85.2711920  58.9290720
 112.3959730  84.6599280  58.4038980 112.5292090  85.7740700  59.4201730
 115.8367220  69.9010610  60.3356210 115.0539010  70.3756110  60.6152970
 115.5430150  68.9965440  60.2269390 120.3888290  70.6033710  58.3805300
 120.8296380  70.5478810  57.5326900 120.1195880  71.5191720  58.4515480
 122.2526860  70.2348950  56.3914120 122.1915260  69.2910170  56.2445140
 123.0318890  70.3429040  56.9367580 113.7221440  72.3197360  55.8472240
 112.9095950  71.9454250  55.5068120 114.2263080  71.5642440  56.1493430
 118.2246420  68.9839810  57.0855310 118.8275790  69.5560020  57.5603830
 117.4839410  69.5479250  56.8629210 122.9207630  86.6262080  54.1202150
 123.0959820  85.9399820  53.4763070 122.2229200  87.1509130  53.7278820
 111.8726180  69.7481260  66.8869780 111.5910450  70.2514860  66.1230600
 112.2545880  68.9503010  66.5211910 110.7635280  87.0156920  51.6737460
 111.4954100  86.7316200  51.1261350 111.0228950  86.7770200  52.5636840
 121.2540130  86.3106370  66.9468940 122.0465450  85.8155600  66.7394900
 121.5473280  86.9896510  67.5544550 117.3799790  77.1827310  37.8284990
 117.2993840  76.2681920  37.5576700 116.9664210  77.6794380  37.1224700
 115.5117830  78.9606330  39.7094260 114.7359930  78.4806770  39.9992830
 116.1630760  78.2811980  39.5350420 119.5325260  83.3666520  38.4893390
 119.0706790  82.5953760  38.8180560 120.3450810  83.3932590  38.9945840
 105.9008620  76.8333680  40.2552110 106.4724730  76.0655880  40.2555750
 105.9010160  77.1322440  39.3458720 114.9526820  81.6363520  39.7164420
 114.8835100  80.6953460  39.5553550 115.7146680  81.7264930  40.2886990
 115.9831990  74.4433900  39.9433350 116.3596810  73.5705780  39.8307020
 115.8851500  74.7792600  39.0523790 111.9544730  75.7845900  39.7375970
 112.4622950  76.2826870  40.3780990 112.4857970  75.0081100  39.5615330
 110.2380830  70.4244460  44.0039390 110.2399270  70.9416850  43.1985290
 109.4085140  69.9474640  43.9809320 116.6251920  80.5363770  35.5029290
 116.0069190  81.0013220  34.9392010 117.1375170  81.2291250  35.9198800
 111.4883680  80.0639640  42.1812890 111.1553060  80.6908560  42.8233960
 111.6650360  80.5901520  41.4014560 120.0017590  73.8784720  39.6489230
 119.2973160  74.1669610  40.2292340 120.3629750  74.6884830  39.2888790
 109.9196160  72.1354420  42.0109840 110.2612970  72.9796470  41.7163710
 108.9811970  72.2838160  42.1275180 121.6180370  83.4959850  41.9116710
 120.9343890  84.1658960  41.9033380 122.1574660  83.6940500  41.1461570
 119.1539110  85.3403980  40.6261890 119.1666270  84.9366270  39.7584150
 118.6014330  86.1151270  40.5223320 120.4484530  82.0620200  35.7152060
 120.3380860  81.1194530  35.8401480 120.4452780  82.4235840  36.6014820
 118.5524550  80.2433820  41.9544500 118.9693340  80.0293930  41.1197960
 119.2764370  80.5006610  42.5253120 115.9904810  77.6885520  35.0714550
 115.0634090  77.6222900  35.3003020 116.1429630  78.6265650  34.9569790
 120.0202100  79.2505820  35.5749800 119.4014520  78.9125370  34.9276100
 120.0026550  78.6065580  36.2828990 112.0643150  81.9017820  40.0173490
 111.7671440  81.2963290  39.3381270 113.0142970  81.9395130  39.9062850
 110.3090070  74.9893470  41.6333320 110.8604660  75.0988810  40.8586570
 110.8233580  75.3631070  42.3488550 120.1528760  85.4749690  43.6796590
 119.6759320  86.2821880  43.4869200 119.4690550  84.8228020  43.8322800
 111.1561580  81.6399510  46.6681290 110.2590110  81.8639480  46.9154690
 111.1814450  81.7634450  45.7192690 118.1966800  78.4892630  32.5822550
 118.6360080  77.6515060  32.4360370 118.9095220  79.1222030  32.6686690
 109.9832800  78.5112830  45.2438660 109.8440570  79.3835630  45.6126060
 109.1014160  78.1685640  45.0986600 116.3062180  83.4288700  36.5503790
 116.7458090  84.1713030  36.1359180 116.2449070  83.6715270  37.4742750
 111.7813150  84.4534530  47.4523810 111.7528580  84.8577480  46.5852240
 111.6178120  83.5244890  47.2895410 121.7783940  69.7435440  30.8963590
 121.4656600  69.8362270  31.7962660 122.5396410  70.3216470  30.8461020
 108.2966080  77.1095240  35.3540930 108.1763680  77.8357330  34.7422200
 107.9866970  76.3398150  34.8768840 123.7327970  85.2361630  48.7487980
 124.2087690  85.7144520  49.4277060 124.3535130  85.1679120  48.0233480
 123.1361220  82.4274480  45.9087990 123.2624280  82.1886360  44.9905170
 123.1782600  81.5959020  46.3810070 116.9977960  86.1302480  44.4782800
 117.5122630  86.0410490  45.2805230 116.1547040  86.4762180  44.7710710
 118.9732360  86.4157820  33.9066800 118.8133500  86.1260760  34.8048630
 118.8079070  85.6397950  33.3712030 118.6758490  83.9245380  32.4664800
 117.9823650  83.9222670  31.8067080 119.4181350  83.5004700  32.0358970
 118.2408420  85.5508090  36.5413290 118.6965370  84.7697470  36.8551910
 118.5800940  86.2614910  37.0854470 112.8005640  70.9977640  40.5954200
 113.0977970  71.9040470  40.5146220 113.3491200  70.5096420  39.9813770
 110.5543960  75.5763880  36.4645850 110.3284880  75.3601050  37.3692470
 109.7736490  76.0092340  36.1191820 117.7841720  75.5827250  35.0636500
 117.1850610  76.3063050  34.8800120 118.3321330  75.5204030  34.2812950
 112.9943170  76.4749460  47.1306120 112.8986770  75.5344190  46.9806520
 113.8375150  76.6964530  46.7354190 116.3906590  74.2190790  37.0939780
 116.7836160  74.5362990  36.2808470 116.7523440  73.3402670  37.2084300
 108.1253710  72.8863130  45.2839900 107.7317100  73.7338340  45.4912680
 107.4372110  72.2489500  45.4748540 114.6998760  72.9698100  48.3536640
 114.0097080  72.7770300  48.9882730 115.4431060  73.2532740  48.8860940
 105.6140990  74.7511710  30.5272700 105.5315660  75.6942470  30.6687690
 105.2624050  74.6086620  29.6485050 113.4139120  73.4850740  39.5943050
 113.4175180  73.0440690  38.7447590 114.3090240  73.8068070  39.7014870
 113.7147090  77.5452520  41.3408460 114.0817220  77.0711090  42.0869800
 113.5252150  78.4194090  41.6816800 111.5046460  76.5861160  43.6592670
 111.2003530  77.4653140  43.8843030 112.4592920  76.6460950  43.6950110
 120.7916230  79.7887510  40.0485910 121.5115350  80.2842800  39.6582020
 120.5898050  79.1105400  39.4039780 116.1735030  79.8596570  45.9354910
 116.1072340  78.9392240  45.6812500 115.5440170  79.9572010  46.6499550
 118.9674560  75.5545120  32.4877460 119.8554180  75.8662350  32.3128800
 118.9379650  74.6817370  32.0958040 114.9635150  81.7268810  33.1665630
 115.3050850  82.4711040  32.6708950 114.1347860  82.0399930  33.5290460
 107.5610190  77.4263900  44.8064030 107.2025130  78.0917750  45.3937370
 107.2664750  76.5947450  45.1776650 110.7623310  77.8848140  47.6903580
 110.4623450  78.0305320  46.7931400 111.5334550  77.3253430  47.5976970
 116.1051760  82.6817140  45.6858710 116.1196300  81.7498100  45.4677620
 115.3976860  82.7676900  46.3248480 121.2388830  76.8656960  31.9557320
 121.1552550  77.2971180  31.1053760 121.9583020  77.3255310  32.3884140
 122.2676080  83.7199220  34.6839450 121.6252240  83.0654840  34.9583170
 121.8806740  84.1254310  33.9080120 117.8462560  81.0484650  38.5311140
 118.1986380  80.4512780  37.8712510 116.9624890  80.7228880  38.7019390
 106.0718240  77.4255160  31.4298630 106.9413090  77.7079960  31.7134550
 105.5808560  78.2391030  31.3147440 113.2353050  78.8128370  35.5506910
 113.6915830  79.6233620  35.7767100 112.8841260  78.4951510  36.3825400
 115.5385660  84.3234710  42.7799210 116.1827880  84.5294090  43.4572630
 115.9015100  83.5623110  42.3270060 116.8117740  82.3267060  41.4976660
 117.4539970  81.6260220  41.6108830 117.3367090  83.1065500  41.3173550
 120.6573460  82.6115680  31.2215800 120.4311040  81.8946120  31.8140440
 120.2669660  82.3628120  30.3837550 118.5855360  83.1261960  44.7012720
 118.9211600  83.7128650  45.3790640 117.6655700  82.9954670  44.9310510
 106.4389490  86.6382540  31.9960260 106.7987130  87.2371880  31.3417530
 106.2981830  87.1842430  32.7695290 120.2389710  80.5287620  32.8829960
 119.9511410  80.9900310  33.6707840 121.0341880  80.0685390  33.1514180
 114.4143940  83.1753290  47.8700780 114.0940810  82.4562530  48.4146470
 113.7402300  83.8508360  47.9436840 108.0564750  79.2428630  33.5580690
 107.4492700  79.9827530  33.5675990 108.5314100  79.3327990  32.7318890
 120.9959570  72.3636390  34.0425140 120.3672730  72.4682060  33.3283370
 120.5011490  72.5833170  34.8319020 115.4417710  84.0841980  31.4759120
 115.5429690  83.8805970  30.5461100 114.5419450  83.8300260  31.6806900
 114.5899530  76.0619040  43.4575550 115.0884780  76.5364860  44.1227400
 114.7322480  75.1382560  43.6645580 120.0888400  77.5220180  37.7465300
 119.1478540  77.5370410  37.9212990 120.4032470  76.7356140  38.1925600
 110.0670040  79.2039780  31.3069260 110.8333310  79.0921140  31.8694690
 110.1444730  78.5077750  30.6546030 108.5689790  85.9706310  48.2822270
 109.3702520  86.2918360  48.6957670 108.0541610  85.6101890  49.0042180
 112.6733820  85.9590550  30.9162260 113.4662430  86.2479380  30.4644050
 112.1538170  85.5282720  30.2374740 117.4054420  82.0786180  48.2297680
 116.7992580  82.1017780  47.4893430 117.1008530  81.3469220  48.7664930
 118.8354790  85.8066470  46.8407090 119.7876540  85.7224490  46.7907330
 118.6883010  86.4708180  47.5140880 121.7263990  85.1860680  32.3399000
 121.4405500  84.7725820  31.5253180 121.5283540  86.1148390  32.2199520
 113.1911220  81.1793960  30.7804610 113.0861860  80.5646310  31.5065990
 113.0235440  80.6559850  29.9967620 113.3425540  79.8650760  46.7593840
 112.5771210  80.4335760  46.6748510 113.5241500  79.5726970  45.8662070
 116.4313950  80.2413990  31.3846600 115.8824050  80.6883290  32.0289340
 117.0533210  79.7363240  31.9084270 120.4848890  81.5956090  47.3168860
 121.2258360  81.9331850  46.8136320 119.7221570  81.7648150  46.7638630
 108.3210680  76.6009360  48.1208390 108.3616020  76.3023230  49.0293620
 109.1756180  77.0016970  47.9615910 112.0989070  79.2004910  33.2811900
 112.5205490  79.0344780  34.1243290 112.2239910  78.3905140  32.7867040
 110.2616490  75.1801460  46.0882880 109.7312950  74.6892410  45.4606220
 110.9304560  75.6085660  45.5540810 114.6116710  78.2242520  30.5289000
 115.1322370  77.5091540  30.1630150 115.2585110  78.8628390  30.8289510
 110.7488790  72.1463830  46.1680170 110.6545660  71.5284580  45.4431040
 110.1686180  72.8730120  45.9410080 113.5150230  70.7037070  43.2007560
 113.0667530  70.7261330  42.3553110 112.8815430  70.3056090  43.7977860
 113.9209780  79.5991400  43.8220000 114.3397890  80.4424130  43.6496240
 113.0018410  79.7363440  43.5926780 111.7717200  85.9044410  44.9377730
 111.2338290  86.6290470  44.6186430 112.0251160  85.4274750  44.1475070
 113.0242450  73.8728930  46.4633660 113.6142140  73.5644780  47.1511480
 112.2062690  73.4008680  46.6193560 114.6279410  87.1395620  45.1964380
 114.5538110  88.0430760  45.5036750 113.7258250  86.8207520  45.1686450
 115.1764740  86.3054130  32.8190740 116.0715530  86.6439100  32.8409500
 115.2082370  85.5833540  32.1915020 108.8160900  81.6781180  31.0477740
 109.2535770  82.2210850  31.7035320 109.3008630  80.8528130  31.0574080
 122.1559090  84.8357800  45.5256940 121.5561080  84.8950360  44.7820860
 122.2852990  83.8962780  45.6553790 123.3960540  82.5775620  30.8626650
 122.5653500  82.6452270  31.3333880 123.5732370  83.4679740  30.5593510
 122.8517000  79.3223100  33.3660850 123.6135910  79.8919750  33.4720540
 122.8671370  78.7550300  34.1369160 123.8576970  80.1773200  38.2102780
 124.2285800  79.3940520  37.8038750 124.4978900  80.8662300  38.0320080
 120.8410730  81.5609780  43.6233100 120.0270570  81.9906940  43.8858890
 121.2484930  82.1728190  43.0102150 122.9036170  79.6157470  30.5233370
 123.1785010  80.5236350  30.3952590 122.7146910  79.5520000  31.4595360
 119.3011780  72.6402320  31.8187000 119.7196660  72.4533300  30.9783660
 118.9947840  71.7881370  32.1289930 122.8001510  77.5526460  35.5162800
 122.4245110  76.7854390  35.0844090 122.0704630  77.9349160  36.0037730
 106.9413270  75.1422690  46.0430270 106.0469320  75.1089450  46.3823980
 107.4810820  75.3409480  46.8081520 105.5659420  75.0559960  33.5393840
 104.6623500  75.3190160  33.3645500 106.0500040  75.3271130  32.7593800
 122.0752470  75.7783950  38.8170040 122.5989950  75.2846600  38.1860210
 122.6611890  75.9134310  39.5617610 121.5652440  75.0357300  34.7562450
 122.0611560  74.8028170  35.5411330 121.3668510  74.1969140  34.3400090
 122.9939600  73.6718250  37.2900130 122.8838880  73.5174290  38.2282400
 123.7547190  73.1439190  37.0475540 123.8829870  71.5026170  30.5306270
 124.8079180  71.3707350  30.3224560 123.8605660  71.5818990  31.4842720
 123.9568360  72.2736830  33.1562980 123.1619860  72.2081950  33.6855890
 124.1611640  73.2087470  33.1448330 120.8986780  86.3128380  37.1501370
 121.4945850  85.9912950  36.4735790 121.1564930  85.8400200  37.9414640
 112.5055380  84.3005880  42.9001720 112.2646740  84.5680440  42.0132240
 113.4458020  84.4711610  42.9552580 114.7109800  70.7638570  46.6558230
 114.6498690  71.3560400  47.4053640 115.6510180  70.6564530  46.5108490
 123.7659540  86.3200260  43.7012360 123.2717820  86.7169130  42.9839490
 123.1572830  85.6949470  44.0949640 107.8705620  69.1002890  46.4089580
 108.4188610  68.9190940  45.6455690 107.9360930  68.3097000  46.9445890
 121.4498990  86.9623680  40.9799100 120.9901960  87.7139490  40.6057120
 120.8211450  86.2430150  40.9213900 114.6190210  86.1620410  40.9816210
 114.9068020  85.9074710  40.1049220 115.1313430  85.6097770  41.5721780
 115.8367220  69.9010610  41.5612720 115.0539010  70.3756110  41.8409480
 115.5430150  68.9965440  41.4525900 114.6862570  87.0836510  48.3484410
 115.6129880  86.8480780  48.3920370 114.6713000  87.9108510  47.8670440
 122.9207630  86.6262080  35.3458660 123.0959820  85.9399820  34.7019580
 122.2229200  87.1509130  34.9535330 121.2540130  86.3106370  48.1725450
 122.0465450  85.8155600  47.9651410 121.5473280  86.9896510  48.7801060
 117.3799790  77.1827310  19.0541500 117.2993840  76.2681920  18.7833210
 116.9664210  77.6794380  18.3481210 115.5117830  78.9606330  20.9350770
 114.7359930  78.4806770  21.2249340 116.1630760  78.2811980  20.7606930
 109.5283660  79.2726140  21.8126530 108.6968540  79.0174850  22.2123040
 110.1364640  79.3436910  22.5484450 119.5325260  83.3666520  19.7149900
 119.0706790  82.5953760  20.0437070 120.3450810  83.3932590  20.2202350
 109.5084920  83.3066230  22.0084550 109.8112960  82.4163970  21.8294770
 110.2528510  83.8636450  21.7806800 107.9375610  74.2328030  15.5968920
 107.0492310  74.5744000  15.4948800 108.2216800  74.0328350  14.7049750
 115.7588570  85.6524530  19.3353890 115.1400010  86.1082030  18.7648330
 116.6140350  85.8075990  18.9343590 114.9526820  81.6363520  20.9420930
 114.8835100  80.6953460  20.7810060 115.7146680  81.7264930  21.5143500
 115.9831990  74.4433900  21.1689860 116.3596810  73.5705780  21.0563530
 115.8851500  74.7792600  20.2780300 110.1137000  72.8159530  16.6307300
 110.2203750  73.7163260  16.9376060 109.2029360  72.7677500  16.3401950
 119.7656110  71.9384340  18.1018200 120.5865730  71.4480910  18.1443680
 119.7990190  72.5282000  18.8550040 111.9544730  75.7845900  20.9632480
 112.4622950  76.2826870  21.6037500 112.4857970  75.0081100  20.7871840
 124.0555660  73.9551090  24.6661830 123.3507830  74.3432800  24.1476940
 124.3213580  74.6501380  25.2682760 116.6251920  80.5363770  16.7285800
 116.0069190  81.0013220  16.1648520 117.1375170  81.2291250  17.1455310
 111.4883680  80.0639640  23.4069400 111.1553060  80.6908560  24.0490470
 111.6650360  80.5901520  22.6271070 120.0017590  73.8784720  20.8745740
 119.2973160  74.1669610  21.4548850 120.3629750  74.6884830  20.5145300
 110.7002780  82.0320440  25.2218580 111.3176780  82.7071520  24.9403030
 109.8395900  82.4408420  25.1306080 105.9935120  81.2220300  14.1025430
 105.6163100  81.7107400  13.3710330 106.2508190  81.8945580  14.7331960
 121.6180370  83.4959850  23.1373220 120.9343890  84.1658960  23.1289890
 122.1574660  83.6940500  22.3718080 123.0704510  73.3239510  21.2654950
 122.1229420  73.3578490  21.3970380 123.3954500  74.1378460  21.6504310
 113.6024050  69.6236690  19.5610940 113.9099030  69.0683580  18.8446440
 112.6724750  69.7581150  19.3783930 119.1539110  85.3403980  21.8518400
 119.1666270  84.9366270  20.9840660 118.6014330  86.1151270  21.7479830
 120.4484530  82.0620200  16.9408570 120.3380860  81.1194530  17.0657990
 120.4452780  82.4235840  17.8271330 118.5524550  80.2433820  23.1801010
 118.9693340  80.0293930  22.3454470 119.2764370  80.5006610  23.7509630
 115.9904810  77.6885520  16.2971060 115.0634090  77.6222900  16.5259530
 116.1429630  78.6265650  16.1826300 115.9773890  73.9602520  13.2938220
 115.0377560  74.1216480  13.3790680 116.2957150  74.6788200  12.7474210
 122.4986650  78.6421040  23.2717250 121.6705280  78.7114130  22.7967380
 123.0937130  79.2275350  22.8033080 120.0202100  79.2505820  16.8006310
 119.4014520  78.9125370  16.1532610 120.0026550  78.6065580  17.5085500
 119.4628660  75.4290360  24.2172120 119.0499840  76.2544070  24.4712110
 118.7304610  74.8435400  24.0248480 111.5961450  78.2150260  19.0790790
 111.1918450  77.5027510  18.5836690 111.6824570  77.8703500  19.9678830
 112.0643150  81.9017820  21.2430000 111.7671440  81.2963290  20.5637780
 113.0142970  81.9395130  21.1319360 120.1528760  85.4749690  24.9053100
 119.6759320  86.2821880  24.7125710 119.4690550  84.8228020  25.0579310
 111.1561580  81.6399510  27.8937800 110.2590110  81.8639480  28.1411200
 111.1814450  81.7634450  26.9449200 118.1966800  78.4892630  13.8079060
 118.6360080  77.6515060  13.6616880 118.9095220  79.1222030  13.8943200
 109.9832800  78.5112830  26.4695170 109.8440570  79.3835630  26.8382570
 109.1014160  78.1685640  26.3243110 116.3062180  83.4288700  17.7760300
 116.7458090  84.1713030  17.3615690 116.2449070  83.6715270  18.6999260
 111.7813150  84.4534530  28.6780320 111.7528580  84.8577480  27.8108750
 111.6178120  83.5244890  28.5151920 121.7783940  69.7435440  12.1220100
 121.4656600  69.8362270  13.0219170 122.5396410  70.3216470  12.0717530
 108.2966080  77.1095240  16.5797440 108.1763680  77.8357330  15.9678710
 107.9866970  76.3398150  16.1025350 123.7327970  85.2361630  29.9744490
 124.2087690  85.7144520  30.6533570 124.3535130  85.1679120  29.2489990
 107.1799080  81.9810570  18.7972260 106.7727160  82.1225160  17.9425860
 108.0712090  81.6970730  18.5943470 123.1361220  82.4274480  27.1344500
 123.2624280  82.1886360  26.2161680 123.1782600  81.5959020  27.6066580
 116.9977960  86.1302480  25.7039310 117.5122630  86.0410490  26.5061740
 116.1547040  86.4762180  25.9967220 118.9732360  86.4157820  15.1323310
 118.8133500  86.1260760  16.0305140 118.8079070  85.6397950  14.5968540
 111.4520740  86.1956350  16.9094930 111.2763220  85.2791890  16.6962730
 110.5976480  86.5543640  17.1492730 118.6758490  83.9245380  13.6921310
 117.9823650  83.9222670  13.0323590 119.4181350  83.5004700  13.2615480
 118.2408420  85.5508090  17.7669800 118.6965370  84.7697470  18.0808420
 118.5800940  86.2614910  18.3110980 122.9885230  74.4806940  28.0994240
 122.3729500  74.9886610  27.5709700 122.6681650  73.5805270  28.0420180
 110.7629740  70.4530310  19.9621110 110.3197890  71.2339850  19.6305630
 111.3214730  70.7760200  20.6692050 120.0504060  74.5407780  26.6953090
 119.1997650  74.2413530  27.0162160 119.8905850  74.7849790  25.7836910
 117.1453770  76.0409530  28.7951880 117.4707180  75.2073280  28.4554110
 117.9334100  76.5638050  28.9430210 113.8788560  70.0741010  14.8426940
 113.2542740  70.0700880  15.5680250 113.7918680  69.2071970  14.4462910
 110.5543960  75.5763880  17.6902360 110.3284880  75.3601050  18.5948980
 109.7736490  76.0092340  17.3448330 117.7841720  75.5827250  16.2893010
 117.1850610  76.3063050  16.1056630 118.3321330  75.5204030  15.5069460
 116.3906590  74.2190790  18.3196290 116.7836160  74.5362990  17.5064980
 116.7523440  73.3402670  18.4340810 105.6140990  74.7511710  11.7529210
 105.5315660  75.6942470  11.8944200 105.2624050  74.6086620  10.8741560
 116.9761730  76.8096540  22.4147070 116.2442850  77.3183350  22.7637170
 116.5786070  75.9926520  22.1135850 109.2641500  73.3677230  19.7793770
 108.9241550  73.8452460  20.5360820 108.5018820  72.9142350  19.4194870
 113.4759270  74.4862820  13.8106320 113.5972090  74.4449300  14.7592140
 113.0907780  75.3486970  13.6553050 117.4387640  72.2630220  21.8270010
 117.4560380  72.7138870  22.6711860 117.1903220  71.3635860  22.0403450
 112.4880770  76.7963960  13.2089620 111.9197670  76.3482210  12.5825530
 113.1969770  77.1556740  12.6754770 120.8658390  69.6762400  27.6656390
 121.1904160  68.9452060  28.1914370 120.9014900  69.3576040  26.7637380
 107.5649950  80.6975980  27.0856350 107.1804740  80.0569650  27.6839310
 107.8762140  81.4012100  27.6551080 106.5787580  72.2896210  18.6958440
 106.2934500  71.9251880  19.5337060 106.5166440  71.5576670  18.0821580
 110.0328250  80.7922150  15.4816030 109.2590510  80.2519770  15.3214750
 110.7622880  80.2728760  15.1433790 120.7916230  79.7887510  21.2742420
 121.5115350  80.2842800  20.8838530 120.5898050  79.1105400  20.6296290
 116.2526170  71.1825470  15.4171810 115.4390780  70.6838640  15.3417120
 116.0588120  72.0223720  15.0008160 116.1735030  79.8596570  27.1611420
 116.1072340  78.9392240  26.9069010 115.5440170  79.9572010  27.8756060
 118.9674560  75.5545120  13.7133970 119.8554180  75.8662350  13.5385310
 118.9379650  74.6817370  13.3214550 110.0765650  80.4602530  19.1194840
 110.5944320  79.6570790  19.0651730 109.6249670  80.3981670  19.9611670
 114.9635150  81.7268810  14.3922140 115.3050850  82.4711040  13.8965460
 114.1347860  82.0399930  14.7546970 110.7623310  77.8848140  28.9160090
 110.4623450  78.0305320  28.0187910 111.5334550  77.3253430  28.8233480
 116.1051760  82.6817140  26.9115220 116.1196300  81.7498100  26.6934130
 115.3976860  82.7676900  27.5504990 121.2388830  76.8656960  13.1813830
 121.1552550  77.2971180  12.3310270 121.9583020  77.3255310  13.6140650
 122.3162970  79.3224480  26.2583800 121.5911160  79.9153260  26.0613190
 122.8438430  79.3148020  25.4597170 122.2676080  83.7199220  15.9095960
 121.6252240  83.0654840  16.1839680 121.8806740  84.1254310  15.1336630
 117.8462560  81.0484650  19.7567650 118.1986380  80.4512780  19.0969020
 116.9624890  80.7228880  19.9275900 113.9325840  81.8082340  17.1638060
 114.6196970  82.3551550  17.5445650 113.1458260  82.3523070  17.1987670
 106.0718240  77.4255160  12.6555140 106.9413090  77.7079960  12.9391060
 105.5808560  78.2391030  12.5403950 113.2353050  78.8128370  16.7763420
 113.6915830  79.6233620  17.0023610 112.8841260  78.4951510  17.6081910
 115.5385660  84.3234710  24.0055720 116.1827880  84.5294090  24.6829140
 115.9015100  83.5623110  23.5526570 109.1364830  69.1566020  17.2485940
 109.0079460  69.1483920  18.1970860 108.3126850  69.4949110  16.8976950
 116.8117740  82.3267060  22.7233170 117.4539970  81.6260220  22.8365340
 117.3367090  83.1065500  22.5430060 120.6573460  82.6115680  12.4472310
 120.4311040  81.8946120  13.0396950 120.2669660  82.3628120  11.6094060
 118.5855360  83.1261960  25.9269230 118.9211600  83.7128650  26.6047150
 117.6655700  82.9954670  26.1567020 106.4389490  86.6382540  13.2216770
 106.7987130  87.2371880  12.5674040 106.2981830  87.1842430  13.9951800
 120.2389710  80.5287620  14.1086470 119.9511410  80.9900310  14.8964350
 121.0341880  80.0685390  14.3770690 106.4231350  84.9037400  27.6959170
 106.5322470  83.9632140  27.5554560 105.7711910  85.1692150  27.0472900
 114.4143940  83.1753290  29.0957290 114.0940810  82.4562530  29.6402980
 113.7402300  83.8508360  29.1693350 112.4558110  84.0213740  14.0390440
 112.4468210  84.7543430  13.4234950 111.5356470  83.7745320  14.1317400
 108.0564750  79.2428630  14.7837200 107.4492700  79.9827530  14.7932500
 108.5314100  79.3327990  13.9575400 120.9959570  72.3636390  15.2681650
 120.3672730  72.4682060  14.5539880 120.5011490  72.5833170  16.0575530
 115.4417710  84.0841980  12.7015630 115.5429690  83.8805970  11.7717610
 114.5419450  83.8300260  12.9063410 112.9643600  74.6422340  16.6839530
 112.2559750  75.1108680  17.1253140 113.2488080  73.9844350  17.3184720
 116.9959030  71.3673000  18.1235320 116.8726810  71.3859130  17.1744830
 117.9443590  71.4151940  18.2433720 114.0835820  86.6028300  17.3963300
 114.3377320  86.5649690  16.4742670 113.1348300  86.4761630  17.3891550
 111.1678620  72.9507420  14.0590240 112.0169150  73.3877570  13.9930430
 110.8009890  73.2627680  14.8862300 121.7966390  72.2787000  25.5260450
 121.2939990  73.0192400  25.8654260 122.6123050  72.6671000  25.2097240
 120.0888400  77.5220180  18.9721810 119.1478540  77.5370410  19.1469500
 120.4032470  76.7356140  19.4182110 110.0670040  79.2039780  12.5325770
 110.8333310  79.0921140  13.0951200 110.1444730  78.5077750  11.8802540
 108.7616800  76.6364850  13.2158660 108.8420390  75.6892360  13.3276060
 109.6536550  76.9671730  13.3219320 122.0913980  84.6929030  20.6476070
 122.2161400  85.5160200  21.1199880 122.9579540  84.4819760  20.3000220
 109.5631510  86.7860240  20.3193200 110.2993990  86.2375700  20.5901770
 109.9472430  87.6516250  20.1799190 106.4476990  82.8533810  16.1934710
 105.5216770  83.0954950  16.1840120 106.9133420  83.6808070  16.0719460
 108.5689790  85.9706310  29.5078780 109.3702520  86.2918360  29.9214180
 108.0541610  85.6101890  30.2298690 112.6733820  85.9590550  12.1418770
 113.4662430  86.2479380  11.6900560 112.1538170  85.5282720  11.4631250
 117.4054420  82.0786180  29.4554190 116.7992580  82.1017780  28.7149940
 117.1008530  81.3469220  29.9921440 118.8354790  85.8066470  28.0663600
 119.7876540  85.7224490  28.0163840 118.6883010  86.4708180  28.7397390
 121.7263990  85.1860680  13.5655510 121.4405500  84.7725820  12.7509690
 121.5283540  86.1148390  13.4456030 113.1911220  81.1793960  12.0061120
 113.0861860  80.5646310  12.7322500 113.0235440  80.6559850  11.2224130
 113.3425540  79.8650760  27.9850350 112.5771210  80.4335760  27.9005020
 113.5241500  79.5726970  27.0918580 116.4313950  80.2413990  12.6103110
 115.8824050  80.6883290  13.2545850 117.0533210  79.7363240  13.1340780
 120.4848890  81.5956090  28.5425370 121.2258360  81.9331850  28.0392830
 119.7221570  81.7648150  27.9895140 112.0989070  79.2004910  14.5068410
 112.5205490  79.0344780  15.3499800 112.2239910  78.3905140  14.0123550
 114.6116710  78.2242520  11.7545510 115.1322370  77.5091540  11.3886660
 115.2585110  78.8628390  12.0546020 119.1594550  79.6470920  27.0780580
 119.5735570  79.8016000  27.9271000 118.2245550  79.7726140  27.2406360
 119.6316720  76.9867080  29.0819730 120.2137490  76.2319400  28.9940210
 119.8078490  77.5174520  28.3051210 113.9209780  79.5991400  25.0476510
 114.3397890  80.4424130  24.8752750 113.0018410  79.7363440  24.8183290
 118.5961580  77.8844770  25.0076860 118.0696800  78.4087390  24.4042000
 118.9392920  78.5172160  25.6386590 110.9947970  75.2738140  11.4526570
 110.7937030  74.4105500  11.8139910 110.8240020  75.1871500  10.5148170
 111.7717200  85.9044410  26.1634240 111.2338290  86.6290470  25.8442940
 112.0251160  85.4274750  25.3731580 118.4736280  70.0846370  13.9813450
 118.7538570  69.2414270  14.3372870 117.7002010  70.3169480  14.4952200
 109.7930770  72.3738760  11.4404450 110.0956670  72.3806190  10.5323600
 110.5325360  72.0236620  11.9372110 114.6279410  87.1395620  26.4220890
 114.5538110  88.0430760  26.7293260 113.7258250  86.8207520  26.3942960
 113.0115700  71.3173380  12.4260650 112.6637700  70.6397370  11.8463100
 113.2128470  70.8562890  13.2404040 115.1764740  86.3054130  14.0447250
 116.0715530  86.6439100  14.0666010 115.2082370  85.5833540  13.4171530
 108.8160900  81.6781180  12.2734250 109.2535770  82.2210850  12.9291830
 109.3008630  80.8528130  12.2830590 106.0306700  84.4670210  19.7254510
 106.3609710  83.5991270  19.4933150 106.4597700  84.6728730  20.5559470
 110.6268620  82.7979220  17.3856480 110.3264160  82.6744190  18.2860390
 110.5206110  81.9387810  16.9772210 106.5196910  85.3340800  22.4636140
 106.0827900  85.5141600  23.2960290 107.0874590  86.0915420  22.3217860
 122.1559090  84.8357800  26.7513450 121.5561080  84.8950360  26.0077370
 122.2852990  83.8962780  26.8810300 123.3960540  82.5775620  12.0883160
 122.5653500  82.6452270  12.5590390 123.5732370  83.4679740  11.7850020
 122.8517000  79.3223100  14.5917360 123.6135910  79.8919750  14.6977050
 122.8671370  78.7550300  15.3625670 123.8576970  80.1773200  19.4359290
 124.2285800  79.3940520  19.0295260 124.4978900  80.8662300  19.2576590
 120.8410730  81.5609780  24.8489610 120.0270570  81.9906940  25.1115400
 121.2484930  82.1728190  24.2358660 122.9036170  79.6157470  11.7489880
 123.1785010  80.5236350  11.6209100 122.7146910  79.5520000  12.6851870
 119.3011780  72.6402320  13.0443510 119.7196660  72.4533300  12.2040170
 118.9947840  71.7881370  13.3546440 122.8001510  77.5526460  16.7419310
 122.4245110  76.7854390  16.3100600 122.0704630  77.9349160  17.2294240
 122.1901130  76.6997980  26.3758830 121.9587220  76.4710730  25.4756780
 122.4505680  77.6197530  26.3303720 120.6289200  71.9254410  29.1538530
 121.5059380  71.9337810  29.5372530 120.6410040  71.1885250  28.5430880
 105.5659420  75.0559960  14.7650350 104.6623500  75.3190160  14.5902010
 106.0500040  75.3271130  13.9850310 122.0752470  75.7783950  20.0426550
 122.5989950  75.2846600  19.4116720 122.6611890  75.9134310  20.7874120
 122.2542190  75.8623820  23.5646100 121.3044900  75.8287360  23.6791090
 122.4355200  76.7723930  23.3295870 108.1086630  74.1125500  12.6744730
 108.8178330  73.6908720  12.1892010 107.3926570  74.1800730  12.0428080
 107.7560790  70.1664830  11.7147380 108.4788920  70.7073770  12.0328600
 108.0285310  69.8928250  10.8388920 121.5652440  75.0357300  15.9818960
 122.0611560  74.8028170  16.7667840 121.3668510  74.1969140  15.5656600
 122.9939600  73.6718250  18.5156640 122.8838880  73.5174290  19.4538910
 123.7547190  73.1439190  18.2732050 121.3405320  69.6112380  24.9739640
 121.9777540  70.2246520  25.3398830 121.4880210  69.6473040  24.0288870
 123.8829870  71.5026170  11.7562780 124.8079180  71.3707350  11.5481070
 123.8605660  71.5818990  12.7099230 123.9568360  72.2736830  14.3819490
 123.1619860  72.2081950  14.9112400 124.1611640  73.2087470  14.3704840
 120.8986780  86.3128380  18.3757880 121.4945850  85.9912950  17.6992300
 121.1564930  85.8400200  19.1671150 108.8049350  82.7446290  28.5248510
 108.7618980  82.3739200  29.4062970 108.9360360  83.6823860  28.6650330
 112.5055380  84.3005880  24.1258230 112.2646740  84.5680440  23.2388750
 113.4458020  84.4711610  24.1809090 123.7659540  86.3200260  24.9268870
 123.2717820  86.7169130  24.2096000 123.1572830  85.6949470  25.3206150
 108.6437380  85.6908540  25.6446290 108.0497700  85.5593240  26.3836330
 108.6361220  84.8546680  25.1788390 118.0892400  68.9840770  23.8476320
 117.2152240  69.3175880  23.6449250 117.9803150  68.5113950  24.6728190
 118.9964380  71.1911640  25.2318040 118.6677740  70.3763400  24.8519770
 119.9446680  71.1481450  25.1083730 121.4498990  86.9623680  22.2055610
 120.9901960  87.7139490  21.8313630 120.8211450  86.2430150  22.1470410
 108.2749610  83.0566920  24.5954330 107.5483670  82.4372210  24.5280280
 108.3358760  83.4507530  23.7252410 111.8794710  85.2711920  21.3803740
 112.3959730  84.6599280  20.8552000 112.5292090  85.7740700  21.8714750
 114.6190210  86.1620410  22.2072720 114.9068020  85.9074710  21.3305730
 115.1313430  85.6097770  22.7978290 115.8367220  69.9010610  22.7869230
 115.0539010  70.3756110  23.0665990 115.5430150  68.9965440  22.6782410
 120.3888290  70.6033710  20.8318320 120.8296380  70.5478810  19.9839920
 120.1195880  71.5191720  20.9028500 122.2526860  70.2348950  18.8427140
 122.1915260  69.2910170  18.6958160 123.0318890  70.3429040  19.3880600
 106.5579610  86.3741310  17.8051090 106.3901650  85.7411990  18.5032980
 105.6914120  86.5800710  17.4545280 107.1807630  70.2058090  15.3082950
 107.9386990  70.3186970  14.7346980 106.7184800  71.0427290  15.2626380
 113.7221440  72.3197360  18.2985260 112.9095950  71.9454250  17.9581140
 114.2263080  71.5642440  18.6006450 118.2246420  68.9839810  19.5368330
 118.8275790  69.5560020  20.0116850 117.4839410  69.5479250  19.3142230
 121.3681020  69.3861370  14.8108610 121.5631650  70.2844820  15.0776040
 120.5810890  69.1548450  15.3041560 108.1642310  85.0674540  15.2501230
 107.6389930  85.4482570  14.5463190 108.0886890  85.6925310  15.9710940
 109.5532780  70.7322140  13.8484920 110.0825540  69.9451940  13.7192870
 110.1861100  71.4113330  14.0820450 111.7470620  70.4697280  16.9030310
 111.1173360  69.7684590  17.0700440 111.2075760  71.2301410  16.6863470
 114.6862570  87.0836510  29.5740920 115.6129880  86.8480780  29.6176880
 114.6713000  87.9108510  29.0926950 122.9207630  86.6262080  16.5715170
 123.0959820  85.9399820  15.9276090 122.2229200  87.1509130  16.1791840
 110.7635280  87.0156920  14.1250480 111.4954100  86.7316200  13.5774370
 111.0228950  86.7770200  15.0149860 109.9250070  83.1321650  14.1296810
 109.2958950  83.6006750  14.6782640 110.0397900  82.2870870  14.5643000
 121.2540130  86.3106370  29.3981960 122.0465450  85.8155600  29.1907920
 121.5473280  86.9896510  30.0057570 115.5117830  78.9606330   2.1607280
 114.7359930  78.4806770   2.4505850 116.1630760  78.2811980   1.9863440
 109.5283660  79.2726140   3.0383040 108.6968540  79.0174850   3.4379550
 110.1364640  79.3436910   3.7740960 109.5084920  83.3066230   3.2341060
 109.8112960  82.4163970   3.0551280 110.2528510  83.8636450   3.0063310
 105.9008620  76.8333680   2.7065130 106.4724730  76.0655880   2.7068770
 105.9010160  77.1322440   1.7971740 114.9526820  81.6363520   2.1677440
 114.8835100  80.6953460   2.0066570 115.7146680  81.7264930   2.7400010
 107.1433490  72.2418040   4.4934060 106.9636330  71.3443790   4.7736820
 106.7413570  72.7889910   5.1681010 107.7620160  74.7378540   3.1016400
 108.4430270  75.0016910   3.7203800 107.4468210  73.8979410   3.4354410
 111.9544730  75.7845900   2.1888990 112.4622950  76.2826870   2.8294010
 112.4857970  75.0081100   2.0128350 124.0555660  73.9551090   5.8918340
 123.3507830  74.3432800   5.3733450 124.3213580  74.6501380   6.4939270
 110.2380830  70.4244460   6.4552410 110.2399270  70.9416850   5.6498310
 109.4085140  69.9474640   6.4322340 111.4883680  80.0639640   4.6325910
 111.1553060  80.6908560   5.2746980 111.6650360  80.5901520   3.8527580
 120.0017590  73.8784720   2.1002250 119.2973160  74.1669610   2.6805360
 120.3629750  74.6884830   1.7401810 109.9196160  72.1354420   4.4622860
 110.2612970  72.9796470   4.1676730 108.9811970  72.2838160   4.5788200
 110.7002780  82.0320440   6.4475090 111.3176780  82.7071520   6.1659540
 109.8395900  82.4408420   6.3562590 121.6180370  83.4959850   4.3629730
 120.9343890  84.1658960   4.3546400 122.1574660  83.6940500   3.5974590
 123.0704510  73.3239510   2.4911460 122.1229420  73.3578490   2.6226890
 123.3954500  74.1378460   2.8760820 119.1539110  85.3403980   3.0774910
 119.1666270  84.9366270   2.2097170 118.6014330  86.1151270   2.9736340
 118.5524550  80.2433820   4.4057520 118.9693340  80.0293930   3.5710980
 119.2764370  80.5006610   4.9766140 122.4986650  78.6421040   4.4973760
 121.6705280  78.7114130   4.0223890 123.0937130  79.2275350   4.0289590
 119.4628660  75.4290360   5.4428630 119.0499840  76.2544070   5.6968620
 118.7304610  74.8435400   5.2504990 112.0643150  81.9017820   2.4686510
 111.7671440  81.2963290   1.7894290 113.0142970  81.9395130   2.3575870
 110.3090070  74.9893470   4.0846340 110.8604660  75.0988810   3.3099590
 110.8233580  75.3631070   4.8001570 120.1528760  85.4749690   6.1309610
 119.6759320  86.2821880   5.9382220 119.4690550  84.8228020   6.2835820
 111.1561580  81.6399510   9.1194310 110.2590110  81.8639480   9.3667710
 111.1814450  81.7634450   8.1705710 109.9832800  78.5112830   7.6951680
 109.8440570  79.3835630   8.0639080 109.1014160  78.1685640   7.5499620
 111.7813150  84.4534530   9.9036830 111.7528580  84.8577480   9.0365260
 111.6178120  83.5244890   9.7408430 123.7327970  85.2361630  11.2001000
 124.2087690  85.7144520  11.8790080 124.3535130  85.1679120  10.4746500
 105.9351450  80.2810380   3.6122590 106.0131870  80.4159150   2.6678310
 106.5493130  79.5726270   3.8050710 123.1361220  82.4274480   8.3601010
 123.2624280  82.1886360   7.4418190 123.1782600  81.5959020   8.8323090
 116.9977960  86.1302480   6.9295820 117.5122630  86.0410490   7.7318250
 116.1547040  86.4762180   7.2223730 122.9885230  74.4806940   9.3250750
 122.3729500  74.9886610   8.7966210 122.6681650  73.5805270   9.2676690
 105.9910970  81.3224550   6.1517050 106.1542010  80.8529910   5.3336420
 106.4563420  80.8148110   6.8165890 115.0499550  73.3198830   6.7912940
 114.5878920  73.5281850   7.6032880 114.6477660  72.5058180   6.4883610
 120.0504060  74.5407780   7.9209600 119.1997650  74.2413530   8.2418670
 119.8905850  74.7849790   7.0093420 117.1453770  76.0409530  10.0208390
 117.4707180  75.2073280   9.6810620 117.9334100  76.5638050  10.1686720
 112.8005640  70.9977640   3.0467220 113.0977970  71.9040470   2.9659240
 113.3491200  70.5096420   2.4326790 112.9943170  76.4749460   9.5819140
 112.8986770  75.5344190   9.4319540 113.8375150  76.6964530   9.1867210
 108.1253710  72.8863130   7.7352920 107.7317100  73.7338340   7.9425700
 107.4372110  72.2489500   7.9261560 114.6998760  72.9698100  10.8049660
 114.0097080  72.7770300  11.4395750 115.4431060  73.2532740  11.3373960
 105.4270760  70.8091590   1.7683000 105.1383810  71.3794450   2.4807980
 106.1716520  70.3296040   2.1314230 116.9761730  76.8096540   3.6403580
 116.2442850  77.3183350   3.9893680 116.5786070  75.9926520   3.3392360
 117.4387640  72.2630220   3.0526520 117.4560380  72.7138870   3.8968370
 117.1903220  71.3635860   3.2659960 120.8658390  69.6762400   8.8912900
 121.1904160  68.9452060   9.4170880 120.9014900  69.3576040   7.9893890
 107.5649950  80.6975980   8.3112860 107.1804740  80.0569650   8.9095820
 107.8762140  81.4012100   8.8807590 113.7147090  77.5452520   3.7921480
 114.0817220  77.0711090   4.5382820 113.5252150  78.4194090   4.1329820
 111.5046460  76.5861160   6.1105690 111.2003530  77.4653140   6.3356050
 112.4592920  76.6460950   6.1463130 120.7916230  79.7887510   2.4998930
 121.5115350  80.2842800   2.1095040 120.5898050  79.1105400   1.8552800
 116.1735030  79.8596570   8.3867930 116.1072340  78.9392240   8.1325520
 115.5440170  79.9572010   9.1012570 107.5610190  77.4263900   7.2577050
 107.2025130  78.0917750   7.8450390 107.2664750  76.5947450   7.6289670
 110.7623310  77.8848140  10.1416600 110.4623450  78.0305320   9.2444420
 111.5334550  77.3253430  10.0489990 116.1051760  82.6817140   8.1371730
 116.1196300  81.7498100   7.9190640 115.3976860  82.7676900   8.7761500
 122.3162970  79.3224480   7.4840310 121.5911160  79.9153260   7.2869700
 122.8438430  79.3148020   6.6853680 115.5385660  84.3234710   5.2312230
 116.1827880  84.5294090   5.9085650 115.9015100  83.5623110   4.7783080
 116.8117740  82.3267060   3.9489680 117.4539970  81.6260220   4.0621850
 117.3367090  83.1065500   3.7686570 118.5855360  83.1261960   7.1525740
 118.9211600  83.7128650   7.8303660 117.6655700  82.9954670   7.3823530
 106.1358760  70.9157140   7.9349150 105.4217280  71.1154060   8.5401760
 106.5553800  70.1396710   8.3063950 106.4231350  84.9037400   8.9215680
 106.5322470  83.9632140   8.7811070 105.7711910  85.1692150   8.2729410
 114.4143940  83.1753290  10.3213800 114.0940810  82.4562530  10.8659490
 113.7402300  83.8508360  10.3949860 117.6297540  73.4079450   5.6850600
 117.9978360  72.5874660   6.0130170 116.7695740  73.4681340   6.1006250
 114.5899530  76.0619040   5.9088570 115.0884780  76.5364860   6.5740420
 114.7322480  75.1382560   6.1158600 121.7966390  72.2787000   6.7516960
 121.2939990  73.0192400   7.0910770 122.6123050  72.6671000   6.4353750
 108.5689790  85.9706310  10.7335290 109.3702520  86.2918360  11.1470690
 108.0541610  85.6101890  11.4555200 117.4054420  82.0786180  10.6810700
 116.7992580  82.1017780   9.9406450 117.1008530  81.3469220  11.2177950
 118.8354790  85.8066470   9.2920110 119.7876540  85.7224490   9.2420350
 118.6883010  86.4708180   9.9653900 106.2887600  78.4579770   9.6771340
 106.7926620  77.8787050  10.2487570 105.5495020  78.7420000  10.2147710
 113.3425540  79.8650760   9.2106860 112.5771210  80.4335760   9.1261530
 113.5241500  79.5726970   8.3175090 120.4848890  81.5956090   9.7681880
 121.2258360  81.9331850   9.2649340 119.7221570  81.7648150   9.2151650
 108.3210680  76.6009360  10.5721410 108.3616020  76.3023230  11.4806640
 109.1756180  77.0016970  10.4128930 110.2616490  75.1801460   8.5395900
 109.7312950  74.6892410   7.9119240 110.9304560  75.6085660   8.0053830
 119.1594550  79.6470920   8.3037090 119.5735570  79.8016000   9.1527510
 118.2245550  79.7726140   8.4662870 119.6316720  76.9867080  10.3076240
 120.2137490  76.2319400  10.2196720 119.8078490  77.5174520   9.5307720
 110.7488790  72.1463830   8.6193190 110.6545660  71.5284580   7.8944060
 110.1686180  72.8730120   8.3923100 113.5150230  70.7037070   5.6520580
 113.0667530  70.7261330   4.8066130 112.8815430  70.3056090   6.2490880
 113.9209780  79.5991400   6.2733020 114.3397890  80.4424130   6.1009260
 113.0018410  79.7363440   6.0439800 116.2573680  77.3307580   7.6570860
 116.3769890  76.7348720   8.3965700 117.1167680  77.3677270   7.2372160
 118.5961580  77.8844770   6.2333370 118.0696800  78.4087390   5.6298510
 118.9392920  78.5172160   6.8643100 111.7717200  85.9044410   7.3890750
 111.2338290  86.6290470   7.0699450 112.0251160  85.4274750   6.5988090
 113.0242450  73.8728930   8.9146680 113.6142140  73.5644780   9.6024500
 112.2062690  73.4008680   9.0706580 117.8435880  73.4894740   9.1479700
 117.1551400  72.8276280   9.0829690 118.5641900  73.0433010   9.5928160
 114.6279410  87.1395620   7.6477400 114.5538110  88.0430760   7.9549770
 113.7258250  86.8207520   7.6199470 106.5196910  85.3340800   3.6892650
 106.0827900  85.5141600   4.5216800 107.0874590  86.0915420   3.5474370
 122.1559090  84.8357800   7.9769960 121.5561080  84.8950360   7.2333880
 122.2852990  83.8962780   8.1066810 120.8410730  81.5609780   6.0746120
 120.0270570  81.9906940   6.3371910 121.2484930  82.1728190   5.4615170
 107.3897270  78.2313600   4.5884870 107.7570310  78.1441000   5.4680890
 106.8208090  77.4680150   4.4891730 122.1901130  76.6997980   7.6015340
 121.9587220  76.4710730   6.7013290 122.4505680  77.6197530   7.5560230
 106.9413270  75.1422690   8.4943290 106.0469320  75.1089450   8.8337000
 107.4810820  75.3409480   9.2594540 120.6289200  71.9254410  10.3795040
 121.5059380  71.9337810  10.7629040 120.6410040  71.1885250   9.7687390
 122.2542190  75.8623820   4.7902610 121.3044900  75.8287360   4.9047600
 122.4355200  76.7723930   4.5552380 107.4452980  69.4171020   2.8426510
 108.0929170  68.8668400   2.4021670 107.8654820  69.6714170   3.6642320
 121.3405320  69.6112380   6.1996150 121.9777540  70.2246520   6.5655340
 121.4880210  69.6473040   5.2545380 107.1984980  69.5726690   5.5851830
 106.8499800  70.0290510   6.3510010 106.8672680  68.6783820   5.6674260
 108.8049350  82.7446290   9.7505020 108.7618980  82.3739200  10.6319480
 108.9360360  83.6823860   9.8906840 112.5055380  84.3005880   5.3514740
 112.2646740  84.5680440   4.4645260 113.4458020  84.4711610   5.4065600
 114.7109800  70.7638570   9.1071250 114.6498690  71.3560400   9.8566660
 115.6510180  70.6564530   8.9621510 117.3484360  70.4208630   8.7463540
 117.9624770  70.7387920   8.0844620 117.8933920  69.9357220   9.3659400
 123.7659540  86.3200260   6.1525380 123.2717820  86.7169130   5.4352510
 123.1572830  85.6949470   6.5462660 107.8705620  69.1002890   8.8602600
 108.4188610  68.9190940   8.0968710 107.9360930  68.3097000   9.3958910
 108.6437380  85.6908540   6.8702800 108.0497700  85.5593240   7.6092840
 108.6361220  84.8546680   6.4044900 118.0892400  68.9840770   5.0732830
 117.2152240  69.3175880   4.8705760 117.9803150  68.5113950   5.8984700
 118.9964380  71.1911640   6.4574550 118.6677740  70.3763400   6.0776280
 119.9446680  71.1481450   6.3340240 121.4498990  86.9623680   3.4312120
 120.9901960  87.7139490   3.0570140 120.8211450  86.2430150   3.3726920
 108.2749610  83.0566920   5.8210840 107.5483670  82.4372210   5.7536790
 108.3358760  83.4507530   4.9508920 111.8794710  85.2711920   2.6060250
 112.3959730  84.6599280   2.0808510 112.5292090  85.7740700   3.0971260
 114.6190210  86.1620410   3.4329230 114.9068020  85.9074710   2.5562240
 115.1313430  85.6097770   4.0234800 115.8367220  69.9010610   4.0125740
 115.0539010  70.3756110   4.2922500 115.5430150  68.9965440   3.9038920
 114.6862570  87.0836510  10.7997430 115.6129880  86.8480780  10.8433390
 114.6713000  87.9108510  10.3183460 111.8726180  69.7481260  10.5639310
 111.5910450  70.2514860   9.8000130 112.2545880  68.9503010  10.1981440
 118.4741640  69.1634840  11.1419780 118.3607090  69.4829450  12.0371300
 119.2911380  69.5647350  10.8457060 121.2540130  86.3106370  10.6238470
 122.0465450  85.8155600  10.4164430 121.5473280  86.9896510  11.2314080
 117.3799790  58.4083820 150.4745930 117.2993840  57.4938430 150.2037640
 116.9664210  58.9050890 149.7685640 119.5325260  64.5923030 151.1354330
 119.0706790  63.8210270 151.4641500 120.3450810  64.6189100 151.6406780
 107.9375610  55.4584540 147.0173350 107.0492310  55.8000510 146.9153230
 108.2216800  55.2584860 146.1254180 115.7588570  66.8781040 150.7558320
 115.1400010  67.3338540 150.1852760 116.6140350  67.0332500 150.3548020
 110.1137000  54.0416040 148.0511730 110.2203750  54.9419770 148.3580490
 109.2029360  53.9934010 147.7606380 119.7656110  53.1640850 149.5222630
 120.5865730  52.6737420 149.5648110 119.7990190  53.7538510 150.2754470
 116.6251920  61.7620280 148.1490230 116.0069190  62.2269730 147.5852950
 117.1375170  62.4547760 148.5659740 105.9935120  62.4476810 145.5229860
 105.6163100  62.9363910 144.7914760 106.2508190  63.1202090 146.1536390
 113.6024050  50.8493200 150.9815370 113.9099030  50.2940090 150.2650870
 112.6724750  50.9837660 150.7988360 120.4484530  63.2876710 148.3613000
 120.3380860  62.3451040 148.4862420 120.4452780  63.6492350 149.2475760
 115.9904810  58.9142030 147.7175490 115.0634090  58.8479410 147.9463960
 116.1429630  59.8522160 147.6030730 115.9773890  55.1859030 144.7142650
 115.0377560  55.3472990 144.7995110 116.2957150  55.9044710 144.1678640
 120.0202100  60.4762330 148.2210740 119.4014520  60.1381880 147.5737040
 120.0026550  59.8322090 148.9289930 111.5961450  59.4406770 150.4995220
 111.1918450  58.7284020 150.0041120 111.6824570  59.0960010 151.3883260
 118.1966800  59.7149140 145.2283490 118.6360080  58.8771570 145.0821310
 118.9095220  60.3478540 145.3147630 116.3062180  64.6545210 149.1964730
 116.7458090  65.3969540 148.7820120 116.2449070  64.8971780 150.1203690
 121.7783940  50.9691950 143.5424530 121.4656600  51.0618780 144.4423600
 122.5396410  51.5472980 143.4921960 108.2966080  58.3351750 148.0001870
 108.1763680  59.0613840 147.3883140 107.9866970  57.5654660 147.5229780
 107.1799080  63.2067080 150.2176690 106.7727160  63.3481670 149.3630290
 108.0712090  62.9227240 150.0147900 118.9732360  67.6414330 146.5527740
 118.8133500  67.3517270 147.4509570 118.8079070  66.8654460 146.0172970
 111.4520740  67.4212860 148.3299360 111.2763220  66.5048400 148.1167160
 110.5976480  67.7800150 148.5697160 118.6758490  65.1501890 145.1125740
 117.9823650  65.1479180 144.4528020 119.4181350  64.7261210 144.6819910
 118.2408420  66.7764600 149.1874230 118.6965370  65.9953980 149.5012850
 118.5800940  67.4871420 149.7315410 110.7629740  51.6786820 151.3825540
 110.3197890  52.4596360 151.0510060 111.3214730  52.0016710 152.0896480
 113.8788560  51.2997520 146.2631370 113.2542740  51.2957390 146.9884680
 113.7918680  50.4328480 145.8667340 110.5543960  56.8020390 149.1106790
 110.3284880  56.5857560 150.0153410 109.7736490  57.2348850 148.7652760
 117.7841720  56.8083760 147.7097440 117.1850610  57.5319560 147.5261060
 118.3321330  56.7460540 146.9273890 116.3906590  55.4447300 149.7400720
 116.7836160  55.7619500 148.9269410 116.7523440  54.5659180 149.8545240
 105.6140990  55.9768220 143.1733640 105.5315660  56.9198980 143.3148630
 105.2624050  55.8343130 142.2945990 113.4139120  54.7107250 152.2403990
 113.4175180  54.2697200 151.3908530 114.3090240  55.0324580 152.3475810
 109.2641500  54.5933740 151.1998200 108.9241550  55.0708970 151.9565250
 108.5018820  54.1398860 150.8399300 113.4759270  55.7119330 145.2310750
 113.5972090  55.6705810 146.1796570 113.0907780  56.5743480 145.0757480
 112.4880770  58.0220470 144.6294050 111.9197670  57.5738720 144.0029960
 113.1969770  58.3813250 144.0959200 106.5787580  53.5152720 150.1162870
 106.2934500  53.1508390 150.9541490 106.5166440  52.7833180 149.5026010
 110.0328250  62.0178660 146.9020460 109.2590510  61.4776280 146.7419180
 110.7622880  61.4985270 146.5638220 116.2526170  52.4081980 146.8376240
 115.4390780  51.9095150 146.7621550 116.0588120  53.2480230 146.4212590
 118.9674560  56.7801630 145.1338400 119.8554180  57.0918860 144.9589740
 118.9379650  55.9073880 144.7418980 110.0765650  61.6859040 150.5399270
 110.5944320  60.8827300 150.4856160 109.6249670  61.6238180 151.3816100
 114.9635150  62.9525320 145.8126570 115.3050850  63.6967550 145.3169890
 114.1347860  63.2656440 146.1751400 121.2388830  58.0913470 144.6018260
 121.1552550  58.5227690 143.7514700 121.9583020  58.5511820 145.0345080
 122.2676080  64.9455730 147.3300390 121.6252240  64.2911350 147.6044110
 121.8806740  65.3510820 146.5541060 117.8462560  62.2741160 151.1772080
 118.1986380  61.6769290 150.5173450 116.9624890  61.9485390 151.3480330
 113.9325840  63.0338850 148.5842490 114.6196970  63.5808060 148.9650080
 113.1458260  63.5779580 148.6192100 106.0718240  58.6511670 144.0759570
 106.9413090  58.9336470 144.3595490 105.5808560  59.4647540 143.9608380
 113.2353050  60.0384880 148.1967850 113.6915830  60.8490130 148.4228040
 112.8841260  59.7208020 149.0286340 109.1364830  50.3822530 148.6690370
 109.0079460  50.3740430 149.6175290 108.3126850  50.7205620 148.3181380
 120.6573460  63.8372190 143.8676740 120.4311040  63.1202630 144.4601380
 120.2669660  63.5884630 143.0298490 106.4389490  67.8639050 144.6421200
 106.7987130  68.4628390 143.9878470 106.2981830  68.4098940 145.4156230
 120.2389710  61.7544130 145.5290900 119.9511410  62.2156820 146.3168780
 121.0341880  61.2941900 145.7975120 112.4558110  65.2470250 145.4594870
 112.4468210  65.9799940 144.8439380 111.5356470  65.0001830 145.5521830
 108.0564750  60.4685140 146.2041630 107.4492700  61.2084040 146.2136930
 108.5314100  60.5584500 145.3779830 120.9959570  53.5892900 146.6886080
 120.3672730  53.6938570 145.9744310 120.5011490  53.8089680 147.4779960
 115.4417710  65.3098490 144.1220060 115.5429690  65.1062480 143.1922040
 114.5419450  65.0556770 144.3267840 112.9643600  55.8678850 148.1043960
 112.2559750  56.3365190 148.5457570 113.2488080  55.2100860 148.7389150
 116.9959030  52.5929510 149.5439750 116.8726810  52.6115640 148.5949260
 117.9443590  52.6408450 149.6638150 114.0835820  67.8284810 148.8167730
 114.3377320  67.7906200 147.8947100 113.1348300  67.7018140 148.8095980
 111.1678620  54.1763930 145.4794670 112.0169150  54.6134080 145.4134860
 110.8009890  54.4884190 146.3066730 120.0888400  58.7476690 150.3926240
 119.1478540  58.7626920 150.5673930 120.4032470  57.9612650 150.8386540
 110.0670040  60.4296290 143.9530200 110.8333310  60.3177650 144.5155630
 110.1444730  59.7334260 143.3006970 108.7616800  57.8621360 144.6363090
 108.8420390  56.9148870 144.7480490 109.6536550  58.1928240 144.7423750
 109.5631510  68.0116750 151.7397630 110.2993990  67.4632210 152.0106200
 109.9472430  68.8772760 151.6003620 106.4476990  64.0790320 147.6139140
 105.5216770  64.3211460 147.6044550 106.9133420  64.9064580 147.4923890
 112.6733820  67.1847060 143.5623200 113.4662430  67.4735890 143.1104990
 112.1538170  66.7539230 142.8835680 121.7263990  66.4117190 144.9859940
 121.4405500  65.9982330 144.1714120 121.5283540  67.3404900 144.8660460
 113.1911220  62.4050470 143.4265550 113.0861860  61.7902820 144.1526930
 113.0235440  61.8816360 142.6428560 116.4313950  61.4670500 144.0307540
 115.8824050  61.9139800 144.6750280 117.0533210  60.9619750 144.5545210
 112.0989070  60.4261420 145.9272840 112.5205490  60.2601290 146.7704230
 112.2239910  59.6161650 145.4327980 114.6116710  59.4499030 143.1749940
 115.1322370  58.7348050 142.8091090 115.2585110  60.0884900 143.4750450
 110.9947970  56.4994650 142.8731000 110.7937030  55.6362010 143.2344340
 110.8240020  56.4128010 141.9352600 118.4736280  51.3102880 145.4017880
 118.7538570  50.4670780 145.7577300 117.7002010  51.5425990 145.9156630
 109.7930770  53.5995270 142.8608880 110.0956670  53.6062700 141.9528030
 110.5325360  53.2493130 143.3576540 113.0115700  52.5429890 143.8465080
 112.6637700  51.8653880 143.2667530 113.2128470  52.0819400 144.6608470
 115.1764740  67.5310640 145.4651680 116.0715530  67.8695610 145.4870440
 115.2082370  66.8090050 144.8375960 108.8160900  62.9037690 143.6938680
 109.2535770  63.4467360 144.3496260 109.3008630  62.0784640 143.7035020
 106.0306700  65.6926720 151.1458940 106.3609710  64.8247780 150.9137580
 106.4597700  65.8985240 151.9763900 110.6268620  64.0235730 148.8060910
 110.3264160  63.9000700 149.7064820 110.5206110  63.1644320 148.3976640
 123.3960540  63.8032130 143.5087590 122.5653500  63.8708780 143.9794820
 123.5732370  64.6936250 143.2054450 122.8517000  60.5479610 146.0121790
 123.6135910  61.1176260 146.1181480 122.8671370  59.9806810 146.7830100
 106.3521340  59.0717540 150.2429450 105.6970180  58.8029180 149.5989150
 107.1899290  58.9622020 149.7931430 123.8576970  61.4029710 150.8563720
 124.2285800  60.6197030 150.4499690 124.4978900  62.0918810 150.6781020
 122.9036170  60.8413980 143.1694310 123.1785010  61.7492860 143.0413530
 122.7146910  60.7776510 144.1056300 119.3011780  53.8658830 144.4647940
 119.7196660  53.6789810 143.6244600 118.9947840  53.0137880 144.7750870
 122.8001510  58.7782970 148.1623740 122.4245110  58.0110900 147.7305030
 122.0704630  59.1605670 148.6498670 105.5659420  56.2816470 146.1854780
 104.6623500  56.5446670 146.0106440 106.0500040  56.5527640 145.4054740
 122.0752470  57.0040460 151.4630980 122.5989950  56.5103110 150.8321150
 122.6611890  57.1390820 152.2078550 108.1086630  55.3382010 144.0949160
 108.8178330  54.9165230 143.6096440 107.3926570  55.4057240 143.4632510
 107.7560790  51.3921340 143.1351810 108.4788920  51.9330280 143.4533030
 108.0285310  51.1184760 142.2593350 121.5652440  56.2613810 147.4023390
 122.0611560  56.0284680 148.1872270 121.3668510  55.4225650 146.9861030
 122.9939600  54.8974760 149.9361070 122.8838880  54.7430800 150.8743340
 123.7547190  54.3695700 149.6936480 123.8829870  52.7282680 143.1767210
 124.8079180  52.5963860 142.9685500 123.8605660  52.8075500 144.1303660
 123.9568360  53.4993340 145.8023920 123.1619860  53.4338460 146.3316830
 124.1611640  54.4343980 145.7909270 120.8986780  67.5384890 149.7962310
 121.4945850  67.2169460 149.1196730 121.1564930  67.0656710 150.5875580
 120.3888290  51.8290220 152.2522750 120.8296380  51.7735320 151.4044350
 120.1195880  52.7448230 152.3232930 122.2526860  51.4605460 150.2631570
 122.1915260  50.5166680 150.1162590 123.0318890  51.5685550 150.8085030
 106.5579610  67.5997820 149.2255520 106.3901650  66.9668500 149.9237410
 105.6914120  67.8057220 148.8749710 107.1807630  51.4314600 146.7287380
 107.9386990  51.5443480 146.1551410 106.7184800  52.2683800 146.6830810
 113.7221440  53.5453870 149.7189690 112.9095950  53.1710760 149.3785570
 114.2263080  52.7898950 150.0210880 118.2246420  50.2096320 150.9572760
 118.8275790  50.7816530 151.4321280 117.4839410  50.7735760 150.7346660
 121.3681020  50.6117880 146.2313040 121.5631650  51.5101330 146.4980470
 120.5810890  50.3804960 146.7245990 108.1642310  66.2931050 146.6705660
 107.6389930  66.6739080 145.9667620 108.0886890  66.9181820 147.3915370
 109.5532780  51.9578650 145.2689350 110.0825540  51.1708450 145.1397300
 110.1861100  52.6369840 145.5024880 111.7470620  51.6953790 148.3234740
 111.1173360  50.9941100 148.4904870 111.2075760  52.4557920 148.1067900
 122.9207630  67.8518590 147.9919600 123.0959820  67.1656330 147.3480520
 122.2229200  68.3765640 147.5996270 110.7635280  68.2413430 145.5454910
 111.4954100  67.9572710 144.9978800 111.0228950  68.0026710 146.4354290
 109.9250070  64.3578160 145.5501240 109.2958950  64.8263260 146.0987070
 110.0397900  63.5127380 145.9847430 117.3799790  58.4083820 131.7002440
 117.2993840  57.4938430 131.4294150 116.9664210  58.9050890 130.9942150
 115.5117830  60.1862840 133.5811710 114.7359930  59.7063280 133.8710280
 116.1630760  59.5068490 133.4067870 109.5283660  60.4982650 134.4587470
 108.6968540  60.2431360 134.8583980 110.1364640  60.5693420 135.1945390
 119.5325260  64.5923030 132.3610840 119.0706790  63.8210270 132.6898010
 120.3450810  64.6189100 132.8663290 109.5084920  64.5322740 134.6545490
 109.8112960  63.6420480 134.4755710 110.2528510  65.0892960 134.4267740
 105.9008620  58.0590190 134.1269560 106.4724730  57.2912390 134.1273200
 105.9010160  58.3578950 133.2176170 115.7588570  66.8781040 131.9814830
 115.1400010  67.3338540 131.4109270 116.6140350  67.0332500 131.5804530
 114.9526820  62.8620030 133.5881870 114.8835100  61.9209970 133.4271000
 115.7146680  62.9521440 134.1604440 107.1433490  53.4674550 135.9138490
 106.9636330  52.5700300 136.1941250 106.7413570  54.0146420 136.5885440
 115.9831990  55.6690410 133.8150800 116.3596810  54.7962290 133.7024470
 115.8851500  56.0049110 132.9241240 110.1137000  54.0416040 129.2768240
 110.2203750  54.9419770 129.5837000 109.2029360  53.9934010 128.9862890
 119.7656110  53.1640850 130.7479140 120.5865730  52.6737420 130.7904620
 119.7990190  53.7538510 131.5010980 107.7620160  55.9635050 134.5220830
 108.4430270  56.2273420 135.1408230 107.4468210  55.1235920 134.8558840
 111.9544730  57.0102410 133.6093420 112.4622950  57.5083380 134.2498440
 112.4857970  56.2337610 133.4332780 124.0555660  55.1807600 137.3122770
 123.3507830  55.5689310 136.7937880 124.3213580  55.8757890 137.9143700
 110.2380830  51.6500970 137.8756840 110.2399270  52.1673360 137.0702740
 109.4085140  51.1731150 137.8526770 116.6251920  61.7620280 129.3746740
 116.0069190  62.2269730 128.8109460 117.1375170  62.4547760 129.7916250
 111.4883680  61.2896150 136.0530340 111.1553060  61.9165070 136.6951410
 111.6650360  61.8158030 135.2732010 120.0017590  55.1041230 133.5206680
 119.2973160  55.3926120 134.1009790 120.3629750  55.9141340 133.1606240
 109.9196160  53.3610930 135.8827290 110.2612970  54.2052980 135.5881160
 108.9811970  53.5094670 135.9992630 110.7002780  63.2576950 137.8679520
 111.3176780  63.9328030 137.5863970 109.8395900  63.6664930 137.7767020
 105.9935120  62.4476810 126.7486370 105.6163100  62.9363910 126.0171270
 106.2508190  63.1202090 127.3792900 121.6180370  64.7216360 135.7834160
 120.9343890  65.3915470 135.7750830 122.1574660  64.9197010 135.0179020
 123.0704510  54.5496020 133.9115890 122.1229420  54.5835000 134.0431320
 123.3954500  55.3634970 134.2965250 113.6024050  50.8493200 132.2071880
 113.9099030  50.2940090 131.4907380 112.6724750  50.9837660 132.0244870
 119.1539110  66.5660490 134.4979340 119.1666270  66.1622780 133.6301600
 118.6014330  67.3407780 134.3940770 120.4484530  63.2876710 129.5869510
 120.3380860  62.3451040 129.7118930 120.4452780  63.6492350 130.4732270
 118.5524550  61.4690330 135.8261950 118.9693340  61.2550440 134.9915410
 119.2764370  61.7263120 136.3970570 115.9904810  58.9142030 128.9432000
 115.0634090  58.8479410 129.1720470 116.1429630  59.8522160 128.8287240
 115.9773890  55.1859030 125.9399160 115.0377560  55.3472990 126.0251620
 116.2957150  55.9044710 125.3935150 122.4986650  59.8677550 135.9178190
 121.6705280  59.9370640 135.4428320 123.0937130  60.4531860 135.4494020
 120.0202100  60.4762330 129.4467250 119.4014520  60.1381880 128.7993550
 120.0026550  59.8322090 130.1546440 119.4628660  56.6546870 136.8633060
 119.0499840  57.4800580 137.1173050 118.7304610  56.0691910 136.6709420
 111.5961450  59.4406770 131.7251730 111.1918450  58.7284020 131.2297630
 111.6824570  59.0960010 132.6139770 112.0643150  63.1274330 133.8890940
 111.7671440  62.5219800 133.2098720 113.0142970  63.1651640 133.7780300
 110.3090070  56.2149980 135.5050770 110.8604660  56.3245320 134.7304020
 110.8233580  56.5887580 136.2206000 120.1528760  66.7006200 137.5514040
 119.6759320  67.5078390 137.3586650 119.4690550  66.0484530 137.7040250
 111.1561580  62.8656020 140.5398740 110.2590110  63.0895990 140.7872140
 111.1814450  62.9890960 139.5910140 118.1966800  59.7149140 126.4540000
 118.6360080  58.8771570 126.3077820 118.9095220  60.3478540 126.5404140
 109.9832800  59.7369340 139.1156110 109.8440570  60.6092140 139.4843510
 109.1014160  59.3942150 138.9704050 116.3062180  64.6545210 130.4221240
 116.7458090  65.3969540 130.0076630 116.2449070  64.8971780 131.3460200
 111.7813150  65.6791040 141.3241260 111.7528580  66.0833990 140.4569690
 111.6178120  64.7501400 141.1612860 121.7783940  50.9691950 124.7681040
 121.4656600  51.0618780 125.6680110 122.5396410  51.5472980 124.7178470
 123.7327970  66.4618140 142.6205430 124.2087690  66.9401030 143.2994510
 124.3535130  66.3935630 141.8950930 105.9351450  61.5066890 135.0327020
 106.0131870  61.6415660 134.0882740 106.5493130  60.7982780 135.2255140
 107.1799080  63.2067080 131.4433200 106.7727160  63.3481670 130.5886800
 108.0712090  62.9227240 131.2404410 123.1361220  63.6530990 139.7805440
 123.2624280  63.4142870 138.8622620 123.1782600  62.8215530 140.2527520
 116.9977960  67.3558990 138.3500250 117.5122630  67.2667000 139.1522680
 116.1547040  67.7018690 138.6428160 118.9732360  67.6414330 127.7784250
 118.8133500  67.3517270 128.6766080 118.8079070  66.8654460 127.2429480
 111.4520740  67.4212860 129.5555870 111.2763220  66.5048400 129.3423670
 110.5976480  67.7800150 129.7953670 118.6758490  65.1501890 126.3382250
 117.9823650  65.1479180 125.6784530 119.4181350  64.7261210 125.9076420
 118.2408420  66.7764600 130.4130740 118.6965370  65.9953980 130.7269360
 118.5800940  67.4871420 130.9571920 122.9885230  55.7063450 140.7455180
 122.3729500  56.2143120 140.2170640 122.6681650  54.8061780 140.6881120
 105.9910970  62.5481060 137.5721480 106.1542010  62.0786420 136.7540850
 106.4563420  62.0404620 138.2370320 110.7629740  51.6786820 132.6082050
 110.3197890  52.4596360 132.2766570 111.3214730  52.0016710 133.3152990
 115.0499550  54.5455340 138.2117370 114.5878920  54.7538360 139.0237310
 114.6477660  53.7314690 137.9088040 120.0504060  55.7664290 139.3414030
 119.1997650  55.4670040 139.6623100 119.8905850  56.0106300 138.4297850
 117.1453770  57.2666040 141.4412820 117.4707180  56.4329790 141.1015050
 117.9334100  57.7894560 141.5891150 113.8788560  51.2997520 127.4887880
 113.2542740  51.2957390 128.2141190 113.7918680  50.4328480 127.0923850
 112.8005640  52.2234150 134.4671650 113.0977970  53.1296980 134.3863670
 113.3491200  51.7352930 133.8531220 110.5543960  56.8020390 130.3363300
 110.3284880  56.5857560 131.2409920 109.7736490  57.2348850 129.9909270
 117.7841720  56.8083760 128.9353950 117.1850610  57.5319560 128.7517570
 118.3321330  56.7460540 128.1530400 112.9943170  57.7005970 141.0023570
 112.8986770  56.7600700 140.8523970 113.8375150  57.9221040 140.6071640
 116.3906590  55.4447300 130.9657230 116.7836160  55.7619500 130.1525920
 116.7523440  54.5659180 131.0801750 108.1253710  54.1119640 139.1557350
 107.7317100  54.9594850 139.3630130 107.4372110  53.4746010 139.3465990
 114.6998760  54.1954610 142.2254090 114.0097080  54.0026810 142.8600180
 115.4431060  54.4789250 142.7578390 105.4270760  52.0348100 133.1887430
 105.1383810  52.6050960 133.9012410 106.1716520  51.5552550 133.5518660
 116.9761730  58.0353050 135.0608010 116.2442850  58.5439860 135.4098110
 116.5786070  57.2183030 134.7596790 113.4139120  54.7107250 133.4660500
 113.4175180  54.2697200 132.6165040 114.3090240  55.0324580 133.5732320
 109.2641500  54.5933740 132.4254710 108.9241550  55.0708970 133.1821760
 108.5018820  54.1398860 132.0655810 113.4759270  55.7119330 126.4567260
 113.5972090  55.6705810 127.4053080 113.0907780  56.5743480 126.3013990
 117.4387640  53.4886730 134.4730950 117.4560380  53.9395380 135.3172800
 117.1903220  52.5892370 134.6864390 120.8658390  50.9018910 140.3117330
 121.1904160  50.1708570 140.8375310 120.9014900  50.5832550 139.4098320
 107.5649950  61.9232490 139.7317290 107.1804740  61.2826160 140.3300250
 107.8762140  62.6268610 140.3012020 113.7147090  58.7709030 135.2125910
 114.0817220  58.2967600 135.9587250 113.5252150  59.6450600 135.5534250
 106.5787580  53.5152720 131.3419380 106.2934500  53.1508390 132.1798000
 106.5166440  52.7833180 130.7282520 111.5046460  57.8117670 137.5310120
 111.2003530  58.6909650 137.7560480 112.4592920  57.8717460 137.5667560
 110.0328250  62.0178660 128.1276970 109.2590510  61.4776280 127.9675690
 110.7622880  61.4985270 127.7894730 120.7916230  61.0144020 133.9203360
 121.5115350  61.5099310 133.5299470 120.5898050  60.3361910 133.2757230
 116.2526170  52.4081980 128.0632750 115.4390780  51.9095150 127.9878060
 116.0588120  53.2480230 127.6469100 116.1735030  61.0853080 139.8072360
 116.1072340  60.1648750 139.5529950 115.5440170  61.1828520 140.5217000
 118.9674560  56.7801630 126.3594910 119.8554180  57.0918860 126.1846250
 118.9379650  55.9073880 125.9675490 110.0765650  61.6859040 131.7655780
 110.5944320  60.8827300 131.7112670 109.6249670  61.6238180 132.6072610
 114.9635150  62.9525320 127.0383080 115.3050850  63.6967550 126.5426400
 114.1347860  63.2656440 127.4007910 107.5610190  58.6520410 138.6781480
 107.2025130  59.3174260 139.2654820 107.2664750  57.8203960 139.0494100
 110.7623310  59.1104650 141.5621030 110.4623450  59.2561830 140.6648850
 111.5334550  58.5509940 141.4694420 116.1051760  63.9073650 139.5576160
 116.1196300  62.9754610 139.3395070 115.3976860  63.9933410 140.1965930
 121.2388830  58.0913470 125.8274770 121.1552550  58.5227690 124.9771210
 121.9583020  58.5511820 126.2601590 122.3162970  60.5480990 138.9044740
 121.5911160  61.1409770 138.7074130 122.8438430  60.5404530 138.1058110
 122.2676080  64.9455730 128.5556900 121.6252240  64.2911350 128.8300620
 121.8806740  65.3510820 127.7797570 117.8462560  62.2741160 132.4028590
 118.1986380  61.6769290 131.7429960 116.9624890  61.9485390 132.5736840
 113.9325840  63.0338850 129.8099000 114.6196970  63.5808060 130.1906590
 113.1458260  63.5779580 129.8448610 113.2353050  60.0384880 129.4224360
 113.6915830  60.8490130 129.6484550 112.8841260  59.7208020 130.2542850
 115.5385660  65.5491220 136.6516660 116.1827880  65.7550600 137.3290080
 115.9015100  64.7879620 136.1987510 109.1364830  50.3822530 129.8946880
 109.0079460  50.3740430 130.8431800 108.3126850  50.7205620 129.5437890
 116.8117740  63.5523570 135.3694110 117.4539970  62.8516730 135.4826280
 117.3367090  64.3322010 135.1891000 120.6573460  63.8372190 125.0933250
 120.4311040  63.1202630 125.6857890 120.2669660  63.5884630 124.2555000
 118.5855360  64.3518470 138.5730170 118.9211600  64.9385160 139.2508090
 117.6655700  64.2211180 138.8027960 106.4389490  67.8639050 125.8677710
 106.7987130  68.4628390 125.2134980 106.2981830  68.4098940 126.6412740
 106.1358760  52.1413650 139.3553580 105.4217280  52.3410570 139.9606190
 106.5553800  51.3653220 139.7268380 120.2389710  61.7544130 126.7547410
 119.9511410  62.2156820 127.5425290 121.0341880  61.2941900 127.0231630
 106.4231350  66.1293910 140.3420110 106.5322470  65.1888650 140.2015500
 105.7711910  66.3948660 139.6933840 114.4143940  64.4009800 141.7418230
 114.0940810  63.6819040 142.2863920 113.7402300  65.0764870 141.8154290
 112.4558110  65.2470250 126.6851380 112.4468210  65.9799940 126.0695890
 111.5356470  65.0001830 126.7778340 117.6297540  54.6335960 137.1055030
 117.9978360  53.8131170 137.4334600 116.7695740  54.6937850 137.5210680
 120.9959570  53.5892900 127.9142590 120.3672730  53.6938570 127.2000820
 120.5011490  53.8089680 128.7036470 115.4417710  65.3098490 125.3476570
 115.5429690  65.1062480 124.4178550 114.5419450  65.0556770 125.5524350
 112.9643600  55.8678850 129.3300470 112.2559750  56.3365190 129.7714080
 113.2488080  55.2100860 129.9645660 114.5899530  57.2875550 137.3293000
 115.0884780  57.7621370 137.9944850 114.7322480  56.3639070 137.5363030
 116.9959030  52.5929510 130.7696260 116.8726810  52.6115640 129.8205770
 117.9443590  52.6408450 130.8894660 111.1678620  54.1763930 126.7051180
 112.0169150  54.6134080 126.6391370 110.8009890  54.4884190 127.5323240
 121.7966390  53.5043510 138.1721390 121.2939990  54.2448910 138.5115200
 122.6123050  53.8927510 137.8558180 120.0888400  58.7476690 131.6182750
 119.1478540  58.7626920 131.7930440 120.4032470  57.9612650 132.0643050
 122.0913980  65.9185540 133.2937010 122.2161400  66.7416710 133.7660820
 122.9579540  65.7076270 132.9461160 109.5631510  68.0116750 132.9654140
 110.2993990  67.4632210 133.2362710 109.9472430  68.8772760 132.8260130
 106.4476990  64.0790320 128.8395650 105.5216770  64.3211460 128.8301060
 106.9133420  64.9064580 128.7180400 108.5689790  67.1962820 142.1539720
 109.3702520  67.5174870 142.5675120 108.0541610  66.8358400 142.8759630
 112.6733820  67.1847060 124.7879710 113.4662430  67.4735890 124.3361500
 112.1538170  66.7539230 124.1092190 117.4054420  63.3042690 142.1015130
 116.7992580  63.3274290 141.3610880 117.1008530  62.5725730 142.6382380
 118.8354790  67.0322980 140.7124540 119.7876540  66.9481000 140.6624780
 118.6883010  67.6964690 141.3858330 121.7263990  66.4117190 126.2116450
 121.4405500  65.9982330 125.3970630 121.5283540  67.3404900 126.0916970
 106.2887600  59.6836280 141.0975770 106.7926620  59.1043560 141.6692000
 105.5495020  59.9676510 141.6352140 113.3425540  61.0907270 140.6311290
 112.5771210  61.6592270 140.5465960 113.5241500  60.7983480 139.7379520
 116.4313950  61.4670500 125.2564050 115.8824050  61.9139800 125.9006790
 117.0533210  60.9619750 125.7801720 120.4848890  62.8212600 141.1886310
 121.2258360  63.1588360 140.6853770 119.7221570  62.9904660 140.6356080
 108.3210680  57.8265870 141.9925840 108.3616020  57.5279740 142.9011070
 109.1756180  58.2273480 141.8333360 110.2616490  56.4057970 139.9600330
 109.7312950  55.9148920 139.3323670 110.9304560  56.8342170 139.4258260
 119.1594550  60.8727430 139.7241520 119.5735570  61.0272510 140.5731940
 118.2245550  60.9982650 139.8867300 119.6316720  58.2123590 141.7280670
 120.2137490  57.4575910 141.6401150 119.8078490  58.7431030 140.9512150
 110.7488790  53.3720340 140.0397620 110.6545660  52.7541090 139.3148490
 110.1686180  54.0986630 139.8127530 113.5150230  51.9293580 137.0725010
 113.0667530  51.9517840 136.2270560 112.8815430  51.5312600 137.6695310
 113.9209780  60.8247910 137.6937450 114.3397890  61.6680640 137.5213690
 113.0018410  60.9619950 137.4644230 116.2573680  58.5564090 139.0775290
 116.3769890  57.9605230 139.8170130 117.1167680  58.5933780 138.6576590
 118.5961580  59.1101280 137.6537800 118.0696800  59.6343900 137.0502940
 118.9392920  59.7428670 138.2847530 111.7717200  67.1300920 138.8095180
 111.2338290  67.8546980 138.4903880 112.0251160  66.6531260 138.0192520
 113.0242450  55.0985440 140.3351110 113.6142140  54.7901290 141.0228930
 112.2062690  54.6265190 140.4911010 117.8435880  54.7151250 140.5684130
 117.1551400  54.0532790 140.5034120 118.5641900  54.2689520 141.0132590
 118.4736280  51.3102880 126.6274390 118.7538570  50.4670780 126.9833810
 117.7002010  51.5425990 127.1413140 114.6279410  68.3652130 139.0681830
 114.5538110  69.2687270 139.3754200 113.7258250  68.0464030 139.0403900
 113.0115700  52.5429890 125.0721590 112.6637700  51.8653880 124.4924040
 113.2128470  52.0819400 125.8864980 106.0306700  65.6926720 132.3715450
 106.3609710  64.8247780 132.1394090 106.4597700  65.8985240 133.2020410
 110.6268620  64.0235730 130.0317420 110.3264160  63.9000700 130.9321330
 110.5206110  63.1644320 129.6233150 106.5196910  66.5597310 135.1097080
 106.0827900  66.7398110 135.9421230 107.0874590  67.3171930 134.9678800
 122.1559090  66.0614310 139.3974390 121.5561080  66.1206870 138.6538310
 122.2852990  65.1219290 139.5271240 123.3960540  63.8032130 124.7344100
 122.5653500  63.8708780 125.2051330 123.5732370  64.6936250 124.4310960
 122.8517000  60.5479610 127.2378300 123.6135910  61.1176260 127.3437990
 122.8671370  59.9806810 128.0086610 106.3521340  59.0717540 131.4685960
 105.6970180  58.8029180 130.8245660 107.1899290  58.9622020 131.0187940
 123.8576970  61.4029710 132.0820230 124.2285800  60.6197030 131.6756200
 124.4978900  62.0918810 131.9037530 120.8410730  62.7866290 137.4950550
 120.0270570  63.2163450 137.7576340 121.2484930  63.3984700 136.8819600
 122.9036170  60.8413980 124.3950820 123.1785010  61.7492860 124.2670040
 122.7146910  60.7776510 125.3312810 119.3011780  53.8658830 125.6904450
 119.7196660  53.6789810 124.8501110 118.9947840  53.0137880 126.0007380
 122.8001510  58.7782970 129.3880250 122.4245110  58.0110900 128.9561540
 122.0704630  59.1605670 129.8755180 107.3897270  59.4570110 136.0089300
 107.7570310  59.3697510 136.8885320 106.8208090  58.6936660 135.9096160
 122.1901130  57.9254490 139.0219770 121.9587220  57.6967240 138.1217720
 122.4505680  58.8454040 138.9764660 106.9413270  56.3679200 139.9147720
 106.0469320  56.3345960 140.2541430 107.4810820  56.5665990 140.6798970
 120.6289200  53.1510920 141.7999470 121.5059380  53.1594320 142.1833470
 120.6410040  52.4141760 141.1891820 122.0752470  57.0040460 132.6887490
 122.5989950  56.5103110 132.0577660 122.6611890  57.1390820 133.4335060
 122.2542190  57.0880330 136.2107040 121.3044900  57.0543870 136.3252030
 122.4355200  57.9980440 135.9756810 107.7560790  51.3921340 124.3608320
 108.4788920  51.9330280 124.6789540 108.0285310  51.1184760 123.4849860
 121.5652440  56.2613810 128.6279900 122.0611560  56.0284680 129.4128780
 121.3668510  55.4225650 128.2117540 107.4452980  50.6427530 134.2630940
 108.0929170  50.0924910 133.8226100 107.8654820  50.8970680 135.0846750
 122.9939600  54.8974760 131.1617580 122.8838880  54.7430800 132.0999850
 123.7547190  54.3695700 130.9192990 121.3405320  50.8368890 137.6200580
 121.9777540  51.4503030 137.9859770 121.4880210  50.8729550 136.6749810
 123.8829870  52.7282680 124.4023720 124.8079180  52.5963860 124.1942010
 123.8605660  52.8075500 125.3560170 123.9568360  53.4993340 127.0280430
 123.1619860  53.4338460 127.5573340 124.1611640  54.4343980 127.0165780
 120.8986780  67.5384890 131.0218820 121.4945850  67.2169460 130.3453240
 121.1564930  67.0656710 131.8132090 107.1984980  50.7983200 137.0056260
 106.8499800  51.2547020 137.7714440 106.8672680  49.9040330 137.0878690
 108.8049350  63.9702800 141.1709450 108.7618980  63.5995710 142.0523910
 108.9360360  64.9080370 141.3111270 112.5055380  65.5262390 136.7719170
 112.2646740  65.7936950 135.8849690 113.4458020  65.6968120 136.8270030
 114.7109800  51.9895080 140.5275680 114.6498690  52.5816910 141.2771090
 115.6510180  51.8821040 140.3825940 117.3484360  51.6465140 140.1667970
 117.9624770  51.9644430 139.5049050 117.8933920  51.1613730 140.7863830
 123.7659540  67.5456770 137.5729810 123.2717820  67.9425640 136.8556940
 123.1572830  66.9205980 137.9667090 107.8705620  50.3259400 140.2807030
 108.4188610  50.1447450 139.5173140 107.9360930  49.5353510 140.8163340
 108.6437380  66.9165050 138.2907230 108.0497700  66.7849750 139.0297270
 108.6361220  66.0803190 137.8249330 118.0892400  50.2097280 136.4937260
 117.2152240  50.5432390 136.2910190 117.9803150  49.7370460 137.3189130
 118.9964380  52.4168150 137.8778980 118.6677740  51.6019910 137.4980710
 119.9446680  52.3737960 137.7544670 121.4498990  68.1880190 134.8516550
 120.9901960  68.9396000 134.4774570 120.8211450  67.4686660 134.7931350
 108.2749610  64.2823430 137.2415270 107.5483670  63.6628720 137.1741220
 108.3358760  64.6764040 136.3713350 111.8794710  66.4968430 134.0264680
 112.3959730  65.8855790 133.5012940 112.5292090  66.9997210 134.5175690
 114.6190210  67.3876920 134.8533660 114.9068020  67.1331220 133.9766670
 115.1313430  66.8354280 135.4439230 115.8367220  51.1267120 135.4330170
 115.0539010  51.6012620 135.7126930 115.5430150  50.2221950 135.3243350
 120.3888290  51.8290220 133.4779260 120.8296380  51.7735320 132.6300860
 120.1195880  52.7448230 133.5489440 122.2526860  51.4605460 131.4888080
 122.1915260  50.5166680 131.3419100 123.0318890  51.5685550 132.0341540
 106.5579610  67.5997820 130.4512030 106.3901650  66.9668500 131.1493920
 105.6914120  67.8057220 130.1006220 113.7221440  53.5453870 130.9446200
 112.9095950  53.1710760 130.6042080 114.2263080  52.7898950 131.2467390
 118.2246420  50.2096320 132.1829270 118.8275790  50.7816530 132.6577790
 117.4839410  50.7735760 131.9603170 121.3681020  50.6117880 127.4569550
 121.5631650  51.5101330 127.7236980 120.5810890  50.3804960 127.9502500
 108.1642310  66.2931050 127.8962170 107.6389930  66.6739080 127.1924130
 108.0886890  66.9181820 128.6171880 109.5532780  51.9578650 126.4945860
 110.0825540  51.1708450 126.3653810 110.1861100  52.6369840 126.7281390
 111.7470620  51.6953790 129.5491250 111.1173360  50.9941100 129.7161380
 111.2075760  52.4557920 129.3324410 114.6862570  68.3093020 142.2201860
 115.6129880  68.0737290 142.2637820 114.6713000  69.1365020 141.7387890
 122.9207630  67.8518590 129.2176110 123.0959820  67.1656330 128.5737030
 122.2229200  68.3765640 128.8252780 111.8726180  50.9737770 141.9843740
 111.5910450  51.4771370 141.2204560 112.2545880  50.1759520 141.6185870
 118.4741640  50.3891350 142.5624210 118.3607090  50.7085960 143.4575730
 119.2911380  50.7903860 142.2661490 121.2540130  67.5362880 142.0442900
 122.0465450  67.0412110 141.8368860 121.5473280  68.2153020 142.6518510
 115.5117830  60.1862840 114.8068220 114.7359930  59.7063280 115.0966790
 116.1630760  59.5068490 114.6324380 109.5283660  60.4982650 115.6843980
 108.6968540  60.2431360 116.0840490 110.1364640  60.5693420 116.4201900
 119.5325260  64.5923030 113.5867350 119.0706790  63.8210270 113.9154520
 120.3450810  64.6189100 114.0919800 107.9375610  55.4584540 109.4686370
 107.0492310  55.8000510 109.3666250 108.2216800  55.2584860 108.5767200
 105.9008620  58.0590190 115.3526070 106.4724730  57.2912390 115.3529710
 105.9010160  58.3578950 114.4432680 115.7588570  66.8781040 113.2071340
 115.1400010  67.3338540 112.6365780 116.6140350  67.0332500 112.8061040
 114.9526820  62.8620030 114.8138380 114.8835100  61.9209970 114.6527510
 115.7146680  62.9521440 115.3860950 107.1433490  53.4674550 117.1395000
 106.9636330  52.5700300 117.4197760 106.7413570  54.0146420 117.8141950
 110.1137000  54.0416040 110.5024750 110.2203750  54.9419770 110.8093510
 109.2029360  53.9934010 110.2119400 107.7620160  55.9635050 115.7477340
 108.4430270  56.2273420 116.3664740 107.4468210  55.1235920 116.0815350
 124.0555660  55.1807600 118.5379280 123.3507830  55.5689310 118.0194390
 124.3213580  55.8757890 119.1400210 110.2380830  51.6500970 119.1013350
 110.2399270  52.1673360 118.2959250 109.4085140  51.1731150 119.0783280
 109.9196160  53.3610930 117.1083800 110.2612970  54.2052980 116.8137670
 108.9811970  53.5094670 117.2249140 105.9935120  62.4476810 107.9742880
 105.6163100  62.9363910 107.2427780 106.2508190  63.1202090 108.6049410
 121.6180370  64.7216360 117.0090670 120.9343890  65.3915470 117.0007340
 122.1574660  64.9197010 116.2435530 119.1539110  66.5660490 115.7235850
 119.1666270  66.1622780 114.8558110 118.6014330  67.3407780 115.6197280
 120.4484530  63.2876710 110.8126020 120.3380860  62.3451040 110.9375440
 120.4452780  63.6492350 111.6988780 118.5524550  61.4690330 117.0518460
 118.9693340  61.2550440 116.2171920 119.2764370  61.7263120 117.6227080
 122.4986650  59.8677550 117.1434700 121.6705280  59.9370640 116.6684830
 123.0937130  60.4531860 116.6750530 119.4628660  56.6546870 118.0889570
 119.0499840  57.4800580 118.3429560 118.7304610  56.0691910 117.8965930
 111.5961450  59.4406770 112.9508240 111.1918450  58.7284020 112.4554140
 111.6824570  59.0960010 113.8396280 110.3090070  56.2149980 116.7307280
 110.8604660  56.3245320 115.9560530 110.8233580  56.5887580 117.4462510
 120.1528760  66.7006200 118.7770550 119.6759320  67.5078390 118.5843160
 119.4690550  66.0484530 118.9296760 116.3062180  64.6545210 111.6477750
 116.7458090  65.3969540 111.2333140 116.2449070  64.8971780 112.5716710
 108.2966080  58.3351750 110.4514890 108.1763680  59.0613840 109.8396160
 107.9866970  57.5654660 109.9742800 123.7327970  66.4618140 123.8461940
 124.2087690  66.9401030 124.5251020 124.3535130  66.3935630 123.1207440
 105.9351450  61.5066890 116.2583530 106.0131870  61.6415660 115.3139250
 106.5493130  60.7982780 116.4511650 107.1799080  63.2067080 112.6689710
 106.7727160  63.3481670 111.8143310 108.0712090  62.9227240 112.4660920
 123.1361220  63.6530990 121.0061950 123.2624280  63.4142870 120.0879130
 123.1782600  62.8215530 121.4784030 116.9977960  67.3558990 119.5756760
 117.5122630  67.2667000 120.3779190 116.1547040  67.7018690 119.8684670
 118.9732360  67.6414330 109.0040760 118.8133500  67.3517270 109.9022590
 118.8079070  66.8654460 108.4685990 111.4520740  67.4212860 110.7812380
 111.2763220  66.5048400 110.5680180 110.5976480  67.7800150 111.0210180
 118.6758490  65.1501890 107.5638760 117.9823650  65.1479180 106.9041040
 119.4181350  64.7261210 107.1332930 118.2408420  66.7764600 111.6387250
 118.6965370  65.9953980 111.9525870 118.5800940  67.4871420 112.1828430
 122.9885230  55.7063450 121.9711690 122.3729500  56.2143120 121.4427150
 122.6681650  54.8061780 121.9137630 105.9910970  62.5481060 118.7977990
 106.1542010  62.0786420 117.9797360 106.4563420  62.0404620 119.4626830
 115.0499550  54.5455340 119.4373880 114.5878920  54.7538360 120.2493820
 114.6477660  53.7314690 119.1344550 120.0504060  55.7664290 120.5670540
 119.1997650  55.4670040 120.8879610 119.8905850  56.0106300 119.6554360
 117.1453770  57.2666040 122.6669330 117.4707180  56.4329790 122.3271560
 117.9334100  57.7894560 122.8147660 110.5543960  56.8020390 111.5619810
 110.3284880  56.5857560 112.4666430 109.7736490  57.2348850 111.2165780
 108.1253710  54.1119640 120.3813860 107.7317100  54.9594850 120.5886640
 107.4372110  53.4746010 120.5722500 114.6998760  54.1954610 123.4510600
 114.0097080  54.0026810 124.0856690 115.4431060  54.4789250 123.9834900
 105.4270760  52.0348100 114.4143940 105.1383810  52.6050960 115.1268920
 106.1716520  51.5552550 114.7775170 105.6140990  55.9768220 105.6246660
 105.5315660  56.9198980 105.7661650 105.2624050  55.8343130 104.7459010
 109.2641500  54.5933740 113.6511220 108.9241550  55.0708970 114.4078270
 108.5018820  54.1398860 113.2912320 113.4759270  55.7119330 107.6823770
 113.5972090  55.6705810 108.6309590 113.0907780  56.5743480 107.5270500
 112.4880770  58.0220470 107.0807070 111.9197670  57.5738720 106.4542980
 113.1969770  58.3813250 106.5472220 120.8658390  50.9018910 121.5373840
 121.1904160  50.1708570 122.0631820 120.9014900  50.5832550 120.6354830
 113.7147090  58.7709030 116.4382420 114.0817220  58.2967600 117.1843760
 113.5252150  59.6450600 116.7790760 106.5787580  53.5152720 112.5675890
 106.2934500  53.1508390 113.4054510 106.5166440  52.7833180 111.9539030
 111.5046460  57.8117670 118.7566630 111.2003530  58.6909650 118.9816990
 112.4592920  57.8717460 118.7924070 110.0328250  62.0178660 109.3533480
 109.2590510  61.4776280 109.1932200 110.7622880  61.4985270 109.0151240
 120.7916230  61.0144020 115.1459870 121.5115350  61.5099310 114.7555980
 120.5898050  60.3361910 114.5013740 116.1735030  61.0853080 121.0328870
 116.1072340  60.1648750 120.7786460 115.5440170  61.1828520 121.7473510
 110.0765650  61.6859040 112.9912290 110.5944320  60.8827300 112.9369180
 109.6249670  61.6238180 113.8329120 107.5610190  58.6520410 119.9037990
 107.2025130  59.3174260 120.4911330 107.2664750  57.8203960 120.2750610
 116.1051760  63.9073650 120.7832670 116.1196300  62.9754610 120.5651580
 115.3976860  63.9933410 121.4222440 122.3162970  60.5480990 120.1301250
 121.5911160  61.1409770 119.9330640 122.8438430  60.5404530 119.3314620
 122.2676080  64.9455730 109.7813410 121.6252240  64.2911350 110.0557130
 121.8806740  65.3510820 109.0054080 117.8462560  62.2741160 113.6285100
 118.1986380  61.6769290 112.9686470 116.9624890  61.9485390 113.7993350
 113.9325840  63.0338850 111.0355510 114.6196970  63.5808060 111.4163100
 113.1458260  63.5779580 111.0705120 106.0718240  58.6511670 106.5272590
 106.9413090  58.9336470 106.8108510 105.5808560  59.4647540 106.4121400
 113.2353050  60.0384880 110.6480870 113.6915830  60.8490130 110.8741060
 112.8841260  59.7208020 111.4799360 109.1364830  50.3822530 111.1203390
 109.0079460  50.3740430 112.0688310 108.3126850  50.7205620 110.7694400
 116.8117740  63.5523570 116.5950620 117.4539970  62.8516730 116.7082790
 117.3367090  64.3322010 116.4147510 118.5855360  64.3518470 119.7986680
 118.9211600  64.9385160 120.4764600 117.6655700  64.2211180 120.0284470
 106.4389490  67.8639050 107.0934220 106.7987130  68.4628390 106.4391490
 106.2981830  68.4098940 107.8669250 106.1358760  52.1413650 120.5810090
 105.4217280  52.3410570 121.1862700 106.5553800  51.3653220 120.9524890
 112.4558110  65.2470250 107.9107890 112.4468210  65.9799940 107.2952400
 111.5356470  65.0001830 108.0034850 108.0564750  60.4685140 108.6554650
 107.4492700  61.2084040 108.6649950 108.5314100  60.5584500 107.8292850
 117.6297540  54.6335960 118.3311540 117.9978360  53.8131170 118.6591110
 116.7695740  54.6937850 118.7467190 115.4417710  65.3098490 106.5733080
 115.5429690  65.1062480 105.6435060 114.5419450  65.0556770 106.7780860
 112.9643600  55.8678850 110.5556980 112.2559750  56.3365190 110.9970590
 113.2488080  55.2100860 111.1902170 114.5899530  57.2875550 118.5549510
 115.0884780  57.7621370 119.2201360 114.7322480  56.3639070 118.7619540
 114.0835820  67.8284810 111.2680750 114.3377320  67.7906200 110.3460120
 113.1348300  67.7018140 111.2609000 111.1678620  54.1763930 107.9307690
 112.0169150  54.6134080 107.8647880 110.8009890  54.4884190 108.7579750
 121.7966390  53.5043510 119.3977900 121.2939990  54.2448910 119.7371710
 122.6123050  53.8927510 119.0814690 110.0670040  60.4296290 106.4043220
 110.8333310  60.3177650 106.9668650 110.1444730  59.7334260 105.7519990
 108.7616800  57.8621360 107.0876110 108.8420390  56.9148870 107.1993510
 109.6536550  58.1928240 107.1936770 122.0913980  65.9185540 114.5193520
 122.2161400  66.7416710 114.9917330 122.9579540  65.7076270 114.1717670
 109.5631510  68.0116750 114.1910650 110.2993990  67.4632210 114.4619220
 109.9472430  68.8772760 114.0516640 106.4476990  64.0790320 110.0652160
 105.5216770  64.3211460 110.0557570 106.9133420  64.9064580 109.9436910
 108.5689790  67.1962820 123.3796230 109.3702520  67.5174870 123.7931630
 108.0541610  66.8358400 124.1016140 112.6733820  67.1847060 106.0136220
 113.4662430  67.4735890 105.5618010 112.1538170  66.7539230 105.3348700
 117.4054420  63.3042690 123.3271640 116.7992580  63.3274290 122.5867390
 117.1008530  62.5725730 123.8638890 118.8354790  67.0322980 121.9381050
 119.7876540  66.9481000 121.8881290 118.6883010  67.6964690 122.6114840
 106.2887600  59.6836280 122.3232280 106.7926620  59.1043560 122.8948510
 105.5495020  59.9676510 122.8608650 113.1911220  62.4050470 105.8778570
 113.0861860  61.7902820 106.6039950 113.0235440  61.8816360 105.0941580
 120.4848890  62.8212600 122.4142820 121.2258360  63.1588360 121.9110280
 119.7221570  62.9904660 121.8612590 112.0989070  60.4261420 108.3785860
 112.5205490  60.2601290 109.2217250 112.2239910  59.6161650 107.8841000
 119.1594550  60.8727430 120.9498030 119.5735570  61.0272510 121.7988450
 118.2245550  60.9982650 121.1123810 119.6316720  58.2123590 122.9537180
 120.2137490  57.4575910 122.8657660 119.8078490  58.7431030 122.1768660
 110.7488790  53.3720340 121.2654130 110.6545660  52.7541090 120.5405000
 110.1686180  54.0986630 121.0384040 113.5150230  51.9293580 118.2981520
 113.0667530  51.9517840 117.4527070 112.8815430  51.5312600 118.8951820
 116.2573680  58.5564090 120.3031800 116.3769890  57.9605230 121.0426640
 117.1167680  58.5933780 119.8833100 118.5961580  59.1101280 118.8794310
 118.0696800  59.6343900 118.2759450 118.9392920  59.7428670 119.5104040
 110.9947970  56.4994650 105.3244020 110.7937030  55.6362010 105.6857360
 110.8240020  56.4128010 104.3865620 113.0242450  55.0985440 121.5607620
 113.6142140  54.7901290 122.2485440 112.2062690  54.6265190 121.7167520
 117.8435880  54.7151250 121.7940640 117.1551400  54.0532790 121.7290630
 118.5641900  54.2689520 122.2389100 118.4736280  51.3102880 107.8530900
 118.7538570  50.4670780 108.2090320 117.7002010  51.5425990 108.3669650
 115.1764740  67.5310640 107.9164700 116.0715530  67.8695610 107.9383460
 115.2082370  66.8090050 107.2888980 108.8160900  62.9037690 106.1451700
 109.2535770  63.4467360 106.8009280 109.3008630  62.0784640 106.1548040
 106.0306700  65.6926720 113.5971960 106.3609710  64.8247780 113.3650600
 106.4597700  65.8985240 114.4276920 110.6268620  64.0235730 111.2573930
 110.3264160  63.9000700 112.1577840 110.5206110  63.1644320 110.8489660
 122.1559090  66.0614310 120.6230900 121.5561080  66.1206870 119.8794820
 122.2852990  65.1219290 120.7527750 106.3521340  59.0717540 112.6942470
 105.6970180  58.8029180 112.0502170 107.1899290  58.9622020 112.2444450
 123.8576970  61.4029710 113.3076740 124.2285800  60.6197030 112.9012710
 124.4978900  62.0918810 113.1294040 120.8410730  62.7866290 118.7207060
 120.0270570  63.2163450 118.9832850 121.2484930  63.3984700 118.1076110
 122.9036170  60.8413980 105.6207330 123.1785010  61.7492860 105.4926550
 122.7146910  60.7776510 106.5569320 107.3897270  59.4570110 117.2345810
 107.7570310  59.3697510 118.1141830 106.8208090  58.6936660 117.1352670
 122.1901130  57.9254490 120.2476280 121.9587220  57.6967240 119.3474230
 122.4505680  58.8454040 120.2021170 106.9413270  56.3679200 121.1404230
 106.0469320  56.3345960 121.4797940 107.4810820  56.5665990 121.9055480
 120.6289200  53.1510920 123.0255980 121.5059380  53.1594320 123.4089980
 120.6410040  52.4141760 122.4148330 105.5659420  56.2816470 108.6367800
 104.6623500  56.5446670 108.4619460 106.0500040  56.5527640 107.8567760
 122.2542190  57.0880330 117.4363550 121.3044900  57.0543870 117.5508540
 122.4355200  57.9980440 117.2013320 108.1086630  55.3382010 106.5462180
 108.8178330  54.9165230 106.0609460 107.3926570  55.4057240 105.9145530
 107.4452980  50.6427530 115.4887450 108.0929170  50.0924910 115.0482610
 107.8654820  50.8970680 116.3103260 121.3405320  50.8368890 118.8457090
 121.9777540  51.4503030 119.2116280 121.4880210  50.8729550 117.9006320
 120.8986780  67.5384890 112.2475330 121.4945850  67.2169460 111.5709750
 121.1564930  67.0656710 113.0388600 107.1984980  50.7983200 118.2312770
 106.8499800  51.2547020 118.9970950 106.8672680  49.9040330 118.3135200
 114.7109800  51.9895080 121.7532190 114.6498690  52.5816910 122.5027600
 115.6510180  51.8821040 121.6082450 117.3484360  51.6465140 121.3924480
 117.9624770  51.9644430 120.7305560 117.8933920  51.1613730 122.0120340
 123.7659540  67.5456770 118.7986320 123.2717820  67.9425640 118.0813450
 123.1572830  66.9205980 119.1923600 107.8705620  50.3259400 121.5063540
 108.4188610  50.1447450 120.7429650 107.9360930  49.5353510 122.0419850
 118.0892400  50.2097280 117.7193770 117.2152240  50.5432390 117.5166700
 117.9803150  49.7370460 118.5445640 118.9964380  52.4168150 119.1035490
 118.6677740  51.6019910 118.7237220 119.9446680  52.3737960 118.9801180
 121.4498990  68.1880190 116.0773060 120.9901960  68.9396000 115.7031080
 120.8211450  67.4686660 116.0187860 120.3888290  51.8290220 114.7035770
 120.8296380  51.7735320 113.8557370 120.1195880  52.7448230 114.7745950
 106.5579610  67.5997820 111.6768540 106.3901650  66.9668500 112.3750430
 105.6914120  67.8057220 111.3262730 107.1807630  51.4314600 109.1800400
 107.9386990  51.5443480 108.6064430 106.7184800  52.2683800 109.1343830
 108.1642310  66.2931050 109.1218680 107.6389930  66.6739080 108.4180640
 108.0886890  66.9181820 109.8428390 114.6862570  68.3093020 123.4458370
 115.6129880  68.0737290 123.4894330 114.6713000  69.1365020 122.9644400
 111.8726180  50.9737770 123.2100250 111.5910450  51.4771370 122.4461070
 112.2545880  50.1759520 122.8442380 110.7635280  68.2413430 107.9967930
 111.4954100  67.9572710 107.4491820 111.0228950  68.0026710 108.8867310
 109.9250070  64.3578160 108.0014260 109.2958950  64.8263260 108.5500090
 110.0397900  63.5127380 108.4360450 118.4741640  50.3891350 123.7880720
 118.3607090  50.7085960 124.6832240 119.2911380  50.7903860 123.4918000
 121.2540130  67.5362880 123.2699410 122.0465450  67.0412110 123.0625370
 121.5473280  68.2153020 123.8775020 117.3799790  58.4083820  94.1515460
 117.2993840  57.4938430  93.8807170 116.9664210  58.9050890  93.4455170
 115.5117830  60.1862840  96.0324730 114.7359930  59.7063280  96.3223300
 116.1630760  59.5068490  95.8580890 109.5283660  60.4982650  96.9100490
 108.6968540  60.2431360  97.3097000 110.1364640  60.5693420  97.6458410
 119.5325260  64.5923030  94.8123860 119.0706790  63.8210270  95.1411030
 120.3450810  64.6189100  95.3176310 109.5084920  64.5322740  97.1058510
 109.8112960  63.6420480  96.9268730 110.2528510  65.0892960  96.8780760
 107.9375610  55.4584540  90.6942880 107.0492310  55.8000510  90.5922760
 108.2216800  55.2584860  89.8023710 105.9008620  58.0590190  96.5782580
 106.4724730  57.2912390  96.5786220 105.9010160  58.3578950  95.6689190
 115.7588570  66.8781040  94.4327850 115.1400010  67.3338540  93.8622290
 116.6140350  67.0332500  94.0317550 114.9526820  62.8620030  96.0394890
 114.8835100  61.9209970  95.8784020 115.7146680  62.9521440  96.6117460
 107.1433490  53.4674550  98.3651510 106.9636330  52.5700300  98.6454270
 106.7413570  54.0146420  99.0398460 110.1137000  54.0416040  91.7281260
 110.2203750  54.9419770  92.0350020 109.2029360  53.9934010  91.4375910
 119.7656110  53.1640850  93.1992160 120.5865730  52.6737420  93.2417640
 119.7990190  53.7538510  93.9524000 107.7620160  55.9635050  96.9733850
 108.4430270  56.2273420  97.5921250 107.4468210  55.1235920  97.3071860
 116.6251920  61.7620280  91.8259760 116.0069190  62.2269730  91.2622480
 117.1375170  62.4547760  92.2429270 111.4883680  61.2896150  98.5043360
 111.1553060  61.9165070  99.1464430 111.6650360  61.8158030  97.7245030
 110.7002780  63.2576950 100.3192540 111.3176780  63.9328030 100.0376990
 109.8395900  63.6664930 100.2280040 105.9935120  62.4476810  89.1999390
 105.6163100  62.9363910  88.4684290 106.2508190  63.1202090  89.8305920
 113.6024050  50.8493200  94.6584900 113.9099030  50.2940090  93.9420400
 112.6724750  50.9837660  94.4757890 115.9904810  58.9142030  91.3945020
 115.0634090  58.8479410  91.6233490 116.1429630  59.8522160  91.2800260
 115.9773890  55.1859030  88.3912180 115.0377560  55.3472990  88.4764640
 116.2957150  55.9044710  87.8448170 119.4628660  56.6546870  99.3146080
 119.0499840  57.4800580  99.5686070 118.7304610  56.0691910  99.1222440
 111.5961450  59.4406770  94.1764750 111.1918450  58.7284020  93.6810650
 111.6824570  59.0960010  95.0652790 112.0643150  63.1274330  96.3403960
 111.7671440  62.5219800  95.6611740 113.0142970  63.1651640  96.2293320
 111.1561580  62.8656020 102.9911760 110.2590110  63.0895990 103.2385160
 111.1814450  62.9890960 102.0423160 116.3062180  64.6545210  92.8734260
 116.7458090  65.3969540  92.4589650 116.2449070  64.8971780  93.7973220
 111.7813150  65.6791040 103.7754280 111.7528580  66.0833990 102.9082710
 111.6178120  64.7501400 103.6125880 108.2966080  58.3351750  91.6771400
 108.1763680  59.0613840  91.0652670 107.9866970  57.5654660  91.1999310
 105.9351450  61.5066890  97.4840040 106.0131870  61.6415660  96.5395760
 106.5493130  60.7982780  97.6768160 107.1799080  63.2067080  93.8946220
 106.7727160  63.3481670  93.0399820 108.0712090  62.9227240  93.6917430
 118.9732360  67.6414330  90.2297270 118.8133500  67.3517270  91.1279100
 118.8079070  66.8654460  89.6942500 118.6758490  65.1501890  88.7895270
 117.9823650  65.1479180  88.1297550 119.4181350  64.7261210  88.3589440
 118.2408420  66.7764600  92.8643760 118.6965370  65.9953980  93.1782380
 118.5800940  67.4871420  93.4084940 122.9885230  55.7063450 103.1968200
 122.3729500  56.2143120 102.6683660 122.6681650  54.8061780 103.1394140
 105.9910970  62.5481060 100.0234500 106.1542010  62.0786420  99.2053870
 106.4563420  62.0404620 100.6883340 110.7629740  51.6786820  95.0595070
 110.3197890  52.4596360  94.7279590 111.3214730  52.0016710  95.7666010
 120.0504060  55.7664290 101.7927050 119.1997650  55.4670040 102.1136120
 119.8905850  56.0106300 100.8810870 113.8788560  51.2997520  89.9400900
 113.2542740  51.2957390  90.6654210 113.7918680  50.4328480  89.5436870
 110.5543960  56.8020390  92.7876320 110.3284880  56.5857560  93.6922940
 109.7736490  57.2348850  92.4422290 117.7841720  56.8083760  91.3866970
 117.1850610  57.5319560  91.2030590 118.3321330  56.7460540  90.6043420
 116.3906590  55.4447300  93.4170250 116.7836160  55.7619500  92.6038940
 116.7523440  54.5659180  93.5314770 114.6998760  54.1954610 104.6767110
 114.0097080  54.0026810 105.3113200 115.4431060  54.4789250 105.2091410
 105.4270760  52.0348100  95.6400450 105.1383810  52.6050960  96.3525430
 106.1716520  51.5552550  96.0031680 116.9761730  58.0353050  97.5121030
 116.2442850  58.5439860  97.8611130 116.5786070  57.2183030  97.2109810
 109.2641500  54.5933740  94.8767730 108.9241550  55.0708970  95.6334780
 108.5018820  54.1398860  94.5168830 113.4759270  55.7119330  88.9080280
 113.5972090  55.6705810  89.8566100 113.0907780  56.5743480  88.7527010
 117.4387640  53.4886730  96.9243970 117.4560380  53.9395380  97.7685820
 117.1903220  52.5892370  97.1377410 112.4880770  58.0220470  88.3063580
 111.9197670  57.5738720  87.6799490 113.1969770  58.3813250  87.7728730
 107.5649950  61.9232490 102.1830310 107.1804740  61.2826160 102.7813270
 107.8762140  62.6268610 102.7525040 106.5787580  53.5152720  93.7932400
 106.2934500  53.1508390  94.6311020 106.5166440  52.7833180  93.1795540
 110.0328250  62.0178660  90.5789990 109.2590510  61.4776280  90.4188710
 110.7622880  61.4985270  90.2407750 116.2526170  52.4081980  90.5145770
 115.4390780  51.9095150  90.4391080 116.0588120  53.2480230  90.0982120
 118.9674560  56.7801630  88.8107930 119.8554180  57.0918860  88.6359270
 118.9379650  55.9073880  88.4188510 110.0765650  61.6859040  94.2168800
 110.5944320  60.8827300  94.1625690 109.6249670  61.6238180  95.0585630
 114.9635150  62.9525320  89.4896100 115.3050850  63.6967550  88.9939420
 114.1347860  63.2656440  89.8520930 107.5610190  58.6520410 101.1294500
 107.2025130  59.3174260 101.7167840 107.2664750  57.8203960 101.5007120
 110.7623310  59.1104650 104.0134050 110.4623450  59.2561830 103.1161870
 111.5334550  58.5509940 103.9207440 122.3162970  60.5480990 101.3557760
 121.5911160  61.1409770 101.1587150 122.8438430  60.5404530 100.5571130
 117.8462560  62.2741160  94.8541610 118.1986380  61.6769290  94.1942980
 116.9624890  61.9485390  95.0249860 113.9325840  63.0338850  92.2612020
 114.6196970  63.5808060  92.6419610 113.1458260  63.5779580  92.2961630
 106.0718240  58.6511670  87.7529100 106.9413090  58.9336470  88.0365020
 105.5808560  59.4647540  87.6377910 113.2353050  60.0384880  91.8737380
 113.6915830  60.8490130  92.0997570 112.8841260  59.7208020  92.7055870
 106.4231350  66.1293910 102.7933130 106.5322470  65.1888650 102.6528520
 105.7711910  66.3948660 102.1446860 114.4143940  64.4009800 104.1931250
 114.0940810  63.6819040 104.7376940 113.7402300  65.0764870 104.2667310
 108.0564750  60.4685140  89.8811160 107.4492700  61.2084040  89.8906460
 108.5314100  60.5584500  89.0549360 120.9959570  53.5892900  90.3655610
 120.3672730  53.6938570  89.6513840 120.5011490  53.8089680  91.1549490
 112.9643600  55.8678850  91.7813490 112.2559750  56.3365190  92.2227100
 113.2488080  55.2100860  92.4158680 116.9959030  52.5929510  93.2209280
 116.8726810  52.6115640  92.2718790 117.9443590  52.6408450  93.3407680
 111.1678620  54.1763930  89.1564200 112.0169150  54.6134080  89.0904390
 110.8009890  54.4884190  89.9836260 121.7966390  53.5043510 100.6234410
 121.2939990  54.2448910 100.9628220 122.6123050  53.8927510 100.3071200
 110.0670040  60.4296290  87.6299730 110.8333310  60.3177650  88.1925160
 110.1444730  59.7334260  86.9776500 108.7616800  57.8621360  88.3132620
 108.8420390  56.9148870  88.4250020 109.6536550  58.1928240  88.4193280
 122.0913980  65.9185540  95.7450030 122.2161400  66.7416710  96.2173840
 122.9579540  65.7076270  95.3974180 109.5631510  68.0116750  95.4167160
 110.2993990  67.4632210  95.6875730 109.9472430  68.8772760  95.2773150
 106.4476990  64.0790320  91.2908670 105.5216770  64.3211460  91.2814080
 106.9133420  64.9064580  91.1693420 108.5689790  67.1962820 104.6052740
 109.3702520  67.5174870 105.0188140 108.0541610  66.8358400 105.3272650
 121.7263990  66.4117190  88.6629470 121.4405500  65.9982330  87.8483650
 121.5283540  67.3404900  88.5429990 113.3425540  61.0907270 103.0824310
 112.5771210  61.6592270 102.9978980 113.5241500  60.7983480 102.1892540
 108.3210680  57.8265870 104.4438860 108.3616020  57.5279740 105.3524090
 109.1756180  58.2273480 104.2846380 112.0989070  60.4261420  89.6042370
 112.5205490  60.2601290  90.4473760 112.2239910  59.6161650  89.1097510
 110.9947970  56.4994650  86.5500530 110.7937030  55.6362010  86.9113870
 110.8240020  56.4128010  85.6122130 111.7717200  67.1300920 101.2608200
 111.2338290  67.8546980 100.9416900 112.0251160  66.6531260 100.4705540
 117.8435880  54.7151250 103.0197150 117.1551400  54.0532790 102.9547140
 118.5641900  54.2689520 103.4645610 118.4736280  51.3102880  89.0787410
 118.7538570  50.4670780  89.4346830 117.7002010  51.5425990  89.5926160
 113.0115700  52.5429890  87.5234610 112.6637700  51.8653880  86.9437060
 113.2128470  52.0819400  88.3378000 108.8160900  62.9037690  87.3708210
 109.2535770  63.4467360  88.0265790 109.3008630  62.0784640  87.3804550
 106.0306700  65.6926720  94.8228470 106.3609710  64.8247780  94.5907110
 106.4597700  65.8985240  95.6533430 106.5196910  66.5597310  97.5610100
 106.0827900  66.7398110  98.3934250 107.0874590  67.3171930  97.4191820
 106.3521340  59.0717540  93.9198980 105.6970180  58.8029180  93.2758680
 107.1899290  58.9622020  93.4700960 119.3011780  53.8658830  88.1417470
 119.7196660  53.6789810  87.3014130 118.9947840  53.0137880  88.4520400
 107.3897270  59.4570110  98.4602320 107.7570310  59.3697510  99.3398340
 106.8208090  58.6936660  98.3609180 122.1901130  57.9254490 101.4732790
 121.9587220  57.6967240 100.5730740 122.4505680  58.8454040 101.4277680
 106.9413270  56.3679200 102.3660740 106.0469320  56.3345960 102.7054450
 107.4810820  56.5665990 103.1311990 105.5659420  56.2816470  89.8624310
 104.6623500  56.5446670  89.6875970 106.0500040  56.5527640  89.0824270
 108.1086630  55.3382010  87.7718690 108.8178330  54.9165230  87.2865970
 107.3926570  55.4057240  87.1402040 107.4452980  50.6427530  96.7143960
 108.0929170  50.0924910  96.2739120 107.8654820  50.8970680  97.5359770
 121.3405320  50.8368890 100.0713600 121.9777540  51.4503030 100.4372790
 121.4880210  50.8729550  99.1262830 123.8829870  52.7282680  86.8536740
 124.8079180  52.5963860  86.6455030 123.8605660  52.8075500  87.8073190
 120.8986780  67.5384890  93.4731840 121.4945850  67.2169460  92.7966260
 121.1564930  67.0656710  94.2645110 108.8049350  63.9702800 103.6222470
 108.7618980  63.5995710 104.5036930 108.9360360  64.9080370 103.7624290
 112.5055380  65.5262390  99.2232190 112.2646740  65.7936950  98.3362710
 113.4458020  65.6968120  99.2783050 117.3484360  51.6465140 102.6180990
 117.9624770  51.9644430 101.9562070 117.8933920  51.1613730 103.2376850
 108.6437380  66.9165050 100.7420250 108.0497700  66.7849750 101.4810290
 108.6361220  66.0803190 100.2762350 118.0892400  50.2097280  98.9450280
 117.2152240  50.5432390  98.7423210 117.9803150  49.7370460  99.7702150
 118.9964380  52.4168150 100.3292000 118.6677740  51.6019910  99.9493730
 119.9446680  52.3737960 100.2057690 108.2749610  64.2823430  99.6928290
 107.5483670  63.6628720  99.6254240 108.3358760  64.6764040  98.8226370
 111.8794710  66.4968430  96.4777700 112.3959730  65.8855790  95.9525960
 112.5292090  66.9997210  96.9688710 114.6190210  67.3876920  97.3046680
 114.9068020  67.1331220  96.4279690 115.1313430  66.8354280  97.8952250
 115.8367220  51.1267120  97.8843190 115.0539010  51.6012620  98.1639950
 115.5430150  50.2221950  97.7756370 120.3888290  51.8290220  95.9292280
 120.8296380  51.7735320  95.0813880 120.1195880  52.7448230  96.0002460
 113.7221440  53.5453870  93.3959220 112.9095950  53.1710760  93.0555100
 114.2263080  52.7898950  93.6980410 118.2246420  50.2096320  94.6342290
 118.8275790  50.7816530  95.1090810 117.4839410  50.7735760  94.4116190
 111.7470620  51.6953790  92.0004270 111.1173360  50.9941100  92.1674400
 111.2075760  52.4557920  91.7837430 117.3799790  58.4083820  75.3771970
 117.2993840  57.4938430  75.1063680 116.9664210  58.9050890  74.6711680
 109.5084920  64.5322740  78.3315020 109.8112960  63.6420480  78.1525240
 110.2528510  65.0892960  78.1037270 115.9831990  55.6690410  77.4920330
 116.3596810  54.7962290  77.3794000 115.8851500  56.0049110  76.6010770
 110.1137000  54.0416040  72.9537770 110.2203750  54.9419770  73.2606530
 109.2029360  53.9934010  72.6632420 119.7656110  53.1640850  74.4248670
 120.5865730  52.6737420  74.4674150 119.7990190  53.7538510  75.1780510
 124.0555660  55.1807600  80.9892300 123.3507830  55.5689310  80.4707410
 124.3213580  55.8757890  81.5913230 120.0017590  55.1041230  77.1976210
 119.2973160  55.3926120  77.7779320 120.3629750  55.9141340  76.8375770
 123.0704510  54.5496020  77.5885420 122.1229420  54.5835000  77.7200850
 123.3954500  55.3634970  77.9734780 113.6024050  50.8493200  75.8841410
 113.9099030  50.2940090  75.1676910 112.6724750  50.9837660  75.7014400
 119.1539110  66.5660490  78.1748870 119.1666270  66.1622780  77.3071130
 118.6014330  67.3407780  78.0710300 118.5524550  61.4690330  79.5031480
 118.9693340  61.2550440  78.6684940 119.2764370  61.7263120  80.0740100
 115.9773890  55.1859030  69.6168690 115.0377560  55.3472990  69.7021150
 116.2957150  55.9044710  69.0704680 120.0202100  60.4762330  73.1236780
 119.4014520  60.1381880  72.4763080 120.0026550  59.8322090  73.8315970
 119.4628660  56.6546870  80.5402590 119.0499840  57.4800580  80.7942580
 118.7304610  56.0691910  80.3478950 120.1528760  66.7006200  81.2283570
 119.6759320  67.5078390  81.0356180 119.4690550  66.0484530  81.3809780
 123.7327970  66.4618140  86.2974960 124.2087690  66.9401030  86.9764040
 124.3535130  66.3935630  85.5720460 107.1799080  63.2067080  75.1202730
 106.7727160  63.3481670  74.2656330 108.0712090  62.9227240  74.9173940
 116.9977960  67.3558990  82.0269780 117.5122630  67.2667000  82.8292210
 116.1547040  67.7018690  82.3197690 111.4520740  67.4212860  73.2325400
 111.2763220  66.5048400  73.0193200 110.5976480  67.7800150  73.4723200
 122.9885230  55.7063450  84.4224710 122.3729500  56.2143120  83.8940170
 122.6681650  54.8061780  84.3650650 110.7629740  51.6786820  76.2851580
 110.3197890  52.4596360  75.9536100 111.3214730  52.0016710  76.9922520
 120.0504060  55.7664290  83.0183560 119.1997650  55.4670040  83.3392630
 119.8905850  56.0106300  82.1067380 117.1453770  57.2666040  85.1182350
 117.4707180  56.4329790  84.7784580 117.9334100  57.7894560  85.2660680
 113.8788560  51.2997520  71.1657410 113.2542740  51.2957390  71.8910720
 113.7918680  50.4328480  70.7693380 110.5543960  56.8020390  74.0132830
 110.3284880  56.5857560  74.9179450 109.7736490  57.2348850  73.6678800
 117.7841720  56.8083760  72.6123480 117.1850610  57.5319560  72.4287100
 118.3321330  56.7460540  71.8299930 116.3906590  55.4447300  74.6426760
 116.7836160  55.7619500  73.8295450 116.7523440  54.5659180  74.7571280
 105.4270760  52.0348100  76.8656960 105.1383810  52.6050960  77.5781940
 106.1716520  51.5552550  77.2288190 105.6140990  55.9768220  68.0759680
 105.5315660  56.9198980  68.2174670 105.2624050  55.8343130  67.1972030
 113.4139120  54.7107250  77.1430030 113.4175180  54.2697200  76.2934570
 114.3090240  55.0324580  77.2501850 109.2641500  54.5933740  76.1024240
 108.9241550  55.0708970  76.8591290 108.5018820  54.1398860  75.7425340
 113.4759270  55.7119330  70.1336790 113.5972090  55.6705810  71.0822610
 113.0907780  56.5743480  69.9783520 117.4387640  53.4886730  78.1500480
 117.4560380  53.9395380  78.9942330 117.1903220  52.5892370  78.3633920
 120.8658390  50.9018910  83.9886860 121.1904160  50.1708570  84.5144840
 120.9014900  50.5832550  83.0867850 107.5649950  61.9232490  83.4086820
 107.1804740  61.2826160  84.0069780 107.8762140  62.6268610  83.9781550
 106.5787580  53.5152720  75.0188910 106.2934500  53.1508390  75.8567530
 106.5166440  52.7833180  74.4052050 120.7916230  61.0144020  77.5972890
 121.5115350  61.5099310  77.2069000 120.5898050  60.3361910  76.9526760
 116.2526170  52.4081980  71.7402280 115.4390780  51.9095150  71.6647590
 116.0588120  53.2480230  71.3238630 118.9674560  56.7801630  70.0364440
 119.8554180  57.0918860  69.8615780 118.9379650  55.9073880  69.6445020
 121.2388830  58.0913470  69.5044300 121.1552550  58.5227690  68.6540740
 121.9583020  58.5511820  69.9371120 109.1364830  50.3822530  73.5716410
 109.0079460  50.3740430  74.5201330 108.3126850  50.7205620  73.2207420
 116.8117740  63.5523570  79.0463640 117.4539970  62.8516730  79.1595810
 117.3367090  64.3322010  78.8660530 106.4389490  67.8639050  69.5447240
 106.7987130  68.4628390  68.8904510 106.2981830  68.4098940  70.3182270
 120.9959570  53.5892900  71.5912120 120.3672730  53.6938570  70.8770350
 120.5011490  53.8089680  72.3806000 112.9643600  55.8678850  73.0070000
 112.2559750  56.3365190  73.4483610 113.2488080  55.2100860  73.6415190
 116.9959030  52.5929510  74.4465790 116.8726810  52.6115640  73.4975300
 117.9443590  52.6408450  74.5664190 114.0835820  67.8284810  73.7193770
 114.3377320  67.7906200  72.7973140 113.1348300  67.7018140  73.7122020
 111.1678620  54.1763930  70.3820710 112.0169150  54.6134080  70.3160900
 110.8009890  54.4884190  71.2092770 121.7966390  53.5043510  81.8490920
 121.2939990  54.2448910  82.1884730 122.6123050  53.8927510  81.5327710
 120.0888400  58.7476690  75.2952280 119.1478540  58.7626920  75.4699970
 120.4032470  57.9612650  75.7412580 122.0913980  65.9185540  76.9706540
 122.2161400  66.7416710  77.4430350 122.9579540  65.7076270  76.6230690
 109.5631510  68.0116750  76.6423670 110.2993990  67.4632210  76.9132240
 109.9472430  68.8772760  76.5029660 112.6733820  67.1847060  68.4649240
 113.4662430  67.4735890  68.0131030 112.1538170  66.7539230  67.7861720
 106.2887600  59.6836280  84.7745300 106.7926620  59.1043560  85.3461530
 105.5495020  59.9676510  85.3121670 120.4848890  62.8212600  84.8655840
 121.2258360  63.1588360  84.3623300 119.7221570  62.9904660  84.3125610
 119.6316720  58.2123590  85.4050200 120.2137490  57.4575910  85.3170680
 119.8078490  58.7431030  84.6281680 118.5961580  59.1101280  81.3307330
 118.0696800  59.6343900  80.7272470 118.9392920  59.7428670  81.9617060
 110.9947970  56.4994650  67.7757040 110.7937030  55.6362010  68.1370380
 110.8240020  56.4128010  66.8378640 109.7930770  53.5995270  67.7634920
 110.0956670  53.6062700  66.8554070 110.5325360  53.2493130  68.2602580
 114.6279410  68.3652130  82.7451360 114.5538110  69.2687270  83.0523730
 113.7258250  68.0464030  82.7173430 113.0115700  52.5429890  68.7491120
 112.6637700  51.8653880  68.1693570 113.2128470  52.0819400  69.5634510
 122.8517000  60.5479610  70.9147830 123.6135910  61.1176260  71.0207520
 122.8671370  59.9806810  71.6856140 123.8576970  61.4029710  75.7589760
 124.2285800  60.6197030  75.3525730 124.4978900  62.0918810  75.5807060
 119.3011780  53.8658830  69.3673980 119.7196660  53.6789810  68.5270640
 118.9947840  53.0137880  69.6776910 122.8001510  58.7782970  73.0649780
 122.4245110  58.0110900  72.6331070 122.0704630  59.1605670  73.5524710
 122.1901130  57.9254490  82.6989300 121.9587220  57.6967240  81.7987250
 122.4505680  58.8454040  82.6534190 120.6289200  53.1510920  85.4769000
 121.5059380  53.1594320  85.8603000 120.6410040  52.4141760  84.8661350
 122.0752470  57.0040460  76.3657020 122.5989950  56.5103110  75.7347190
 122.6611890  57.1390820  77.1104590 122.2542190  57.0880330  79.8876570
 121.3044900  57.0543870  80.0021560 122.4355200  57.9980440  79.6526340
 108.1086630  55.3382010  68.9975200 108.8178330  54.9165230  68.5122480
 107.3926570  55.4057240  68.3658550 107.7560790  51.3921340  68.0377850
 108.4788920  51.9330280  68.3559070 108.0285310  51.1184760  67.1619390
 121.5652440  56.2613810  72.3049430 122.0611560  56.0284680  73.0898310
 121.3668510  55.4225650  71.8887070 107.4452980  50.6427530  77.9400470
 108.0929170  50.0924910  77.4995630 107.8654820  50.8970680  78.7616280
 122.9939600  54.8974760  74.8387110 122.8838880  54.7430800  75.7769380
 123.7547190  54.3695700  74.5962520 121.3405320  50.8368890  81.2970110
 121.9777540  51.4503030  81.6629300 121.4880210  50.8729550  80.3519340
 123.9568360  53.4993340  70.7049960 123.1619860  53.4338460  71.2342870
 124.1611640  54.4343980  70.6935310 108.2749610  64.2823430  80.9184800
 107.5483670  63.6628720  80.8510750 108.3358760  64.6764040  80.0482880
 111.8794710  66.4968430  77.7034210 112.3959730  65.8855790  77.1782470
 112.5292090  66.9997210  78.1945220 114.6190210  67.3876920  78.5303190
 114.9068020  67.1331220  77.6536200 115.1313430  66.8354280  79.1208760
 120.3888290  51.8290220  77.1548790 120.8296380  51.7735320  76.3070390
 120.1195880  52.7448230  77.2258970 122.2526860  51.4605460  75.1657610
 122.1915260  50.5166680  75.0188630 123.0318890  51.5685550  75.7111070
 107.1807630  51.4314600  71.6313420 107.9386990  51.5443480  71.0577450
 106.7184800  52.2683800  71.5856850 113.7221440  53.5453870  74.6215730
 112.9095950  53.1710760  74.2811610 114.2263080  52.7898950  74.9236920
 118.2246420  50.2096320  75.8598800 118.8275790  50.7816530  76.3347320
 117.4839410  50.7735760  75.6372700 108.1642310  66.2931050  71.5731700
 107.6389930  66.6739080  70.8693660 108.0886890  66.9181820  72.2941410
 109.5532780  51.9578650  70.1715390 110.0825540  51.1708450  70.0423340
 110.1861100  52.6369840  70.4050920 111.7470620  51.6953790  73.2260780
 111.1173360  50.9941100  73.3930910 111.2075760  52.4557920  73.0093940
 114.6862570  68.3093020  85.8971390 115.6129880  68.0737290  85.9407350
 114.6713000  69.1365020  85.4157420 110.7635280  68.2413430  70.4480950
 111.4954100  67.9572710  69.9004840 111.0228950  68.0026710  71.3380330
 119.5325260  64.5923030  57.2636880 119.0706790  63.8210270  57.5924050
 120.3450810  64.6189100  57.7689330 107.9375610  55.4584540  53.1455900
 107.0492310  55.8000510  53.0435780 108.2216800  55.2584860  52.2536730
 105.9008620  58.0590190  59.0295600 106.4724730  57.2912390  59.0299240
 105.9010160  58.3578950  58.1202210 115.7588570  66.8781040  56.8840870
 115.1400010  67.3338540  56.3135310 116.6140350  67.0332500  56.4830570
 115.9831990  55.6690410  58.7176840 116.3596810  54.7962290  58.6050510
 115.8851500  56.0049110  57.8267280 110.1137000  54.0416040  54.1794280
 110.2203750  54.9419770  54.4863040 109.2029360  53.9934010  53.8888930
 119.7656110  53.1640850  55.6505180 120.5865730  52.6737420  55.6930660
 119.7990190  53.7538510  56.4037020 107.7620160  55.9635050  59.4246870
 108.4430270  56.2273420  60.0434270 107.4468210  55.1235920  59.7584880
 120.0017590  55.1041230  58.4232720 119.2973160  55.3926120  59.0035830
 120.3629750  55.9141340  58.0632280 121.6180370  64.7216360  60.6860200
 120.9343890  65.3915470  60.6776870 122.1574660  64.9197010  59.9205060
 119.1539110  66.5660490  59.4005380 119.1666270  66.1622780  58.5327640
 118.6014330  67.3407780  59.2966810 120.4484530  63.2876710  54.4895550
 120.3380860  62.3451040  54.6144970 120.4452780  63.6492350  55.3758310
 118.5524550  61.4690330  60.7287990 118.9693340  61.2550440  59.8941450
 119.2764370  61.7263120  61.2996610 115.9773890  55.1859030  50.8425200
 115.0377560  55.3472990  50.9277660 116.2957150  55.9044710  50.2961190
 122.4986650  59.8677550  60.8204230 121.6705280  59.9370640  60.3454360
 123.0937130  60.4531860  60.3520060 120.0202100  60.4762330  54.3493290
 119.4014520  60.1381880  53.7019590 120.0026550  59.8322090  55.0572480
 119.4628660  56.6546870  61.7659100 119.0499840  57.4800580  62.0199090
 118.7304610  56.0691910  61.5735460 110.3090070  56.2149980  60.4076810
 110.8604660  56.3245320  59.6330060 110.8233580  56.5887580  61.1232040
 120.1528760  66.7006200  62.4540080 119.6759320  67.5078390  62.2612690
 119.4690550  66.0484530  62.6066290 121.7783940  50.9691950  49.6707080
 121.4656600  51.0618780  50.5706150 122.5396410  51.5472980  49.6204510
 123.7327970  66.4618140  67.5231470 124.2087690  66.9401030  68.2020550
 124.3535130  66.3935630  66.7976970 105.9351450  61.5066890  59.9353060
 106.0131870  61.6415660  58.9908780 106.5493130  60.7982780  60.1281180
 107.1799080  63.2067080  56.3459240 106.7727160  63.3481670  55.4912840
 108.0712090  62.9227240  56.1430450 123.1361220  63.6530990  64.6831480
 123.2624280  63.4142870  63.7648660 123.1782600  62.8215530  65.1553560
 116.9977960  67.3558990  63.2526290 117.5122630  67.2667000  64.0548720
 116.1547040  67.7018690  63.5454200 118.2408420  66.7764600  55.3156780
 118.6965370  65.9953980  55.6295400 118.5800940  67.4871420  55.8597960
 122.9885230  55.7063450  65.6481220 122.3729500  56.2143120  65.1196680
 122.6681650  54.8061780  65.5907160 105.9910970  62.5481060  62.4747520
 106.1542010  62.0786420  61.6566890 106.4563420  62.0404620  63.1396360
 120.0504060  55.7664290  64.2440070 119.1997650  55.4670040  64.5649140
 119.8905850  56.0106300  63.3323890 113.8788560  51.2997520  52.3913920
 113.2542740  51.2957390  53.1167230 113.7918680  50.4328480  51.9949890
 117.7841720  56.8083760  53.8379990 117.1850610  57.5319560  53.6543610
 118.3321330  56.7460540  53.0556440 114.6998760  54.1954610  67.1280130
 114.0097080  54.0026810  67.7626220 115.4431060  54.4789250  67.6604430
 105.6140990  55.9768220  49.3016190 105.5315660  56.9198980  49.4431180
 105.2624050  55.8343130  48.4228540 113.4139120  54.7107250  58.3686540
 113.4175180  54.2697200  57.5191080 114.3090240  55.0324580  58.4758360
 109.2641500  54.5933740  57.3280750 108.9241550  55.0708970  58.0847800
 108.5018820  54.1398860  56.9681850 113.4759270  55.7119330  51.3593300
 113.5972090  55.6705810  52.3079120 113.0907780  56.5743480  51.2040030
 112.4880770  58.0220470  50.7576600 111.9197670  57.5738720  50.1312510
 113.1969770  58.3813250  50.2241750 107.5649950  61.9232490  64.6343330
 107.1804740  61.2826160  65.2326290 107.8762140  62.6268610  65.2038060
 106.5787580  53.5152720  56.2445420 106.2934500  53.1508390  57.0824040
 106.5166440  52.7833180  55.6308560 120.7916230  61.0144020  58.8229400
 121.5115350  61.5099310  58.4325510 120.5898050  60.3361910  58.1783270
 116.2526170  52.4081980  52.9658790 115.4390780  51.9095150  52.8904100
 116.0588120  53.2480230  52.5495140 118.9674560  56.7801630  51.2620950
 119.8554180  57.0918860  51.0872290 118.9379650  55.9073880  50.8701530
 107.5610190  58.6520410  63.5807520 107.2025130  59.3174260  64.1680860
 107.2664750  57.8203960  63.9520140 121.2388830  58.0913470  50.7300810
 121.1552550  58.5227690  49.8797250 121.9583020  58.5511820  51.1627630
 122.3162970  60.5480990  63.8070780 121.5911160  61.1409770  63.6100170
 122.8438430  60.5404530  63.0084150 122.2676080  64.9455730  53.4582940
 121.6252240  64.2911350  53.7326660 121.8806740  65.3510820  52.6823610
 117.8462560  62.2741160  57.3054630 118.1986380  61.6769290  56.6456000
 116.9624890  61.9485390  57.4762880 106.0718240  58.6511670  50.2042120
 106.9413090  58.9336470  50.4878040 105.5808560  59.4647540  50.0890930
 109.1364830  50.3822530  54.7972920 109.0079460  50.3740430  55.7457840
 108.3126850  50.7205620  54.4463930 116.8117740  63.5523570  60.2720150
 117.4539970  62.8516730  60.3852320 117.3367090  64.3322010  60.0917040
 118.5855360  64.3518470  63.4756210 118.9211600  64.9385160  64.1534130
 117.6655700  64.2211180  63.7054000 106.4231350  66.1293910  65.2446150
 106.5322470  65.1888650  65.1041540 105.7711910  66.3948660  64.5959880
 114.4143940  64.4009800  66.6444270 114.0940810  63.6819040  67.1889960
 113.7402300  65.0764870  66.7180330 108.0564750  60.4685140  52.3324180
 107.4492700  61.2084040  52.3419480 108.5314100  60.5584500  51.5062380
 117.6297540  54.6335960  62.0081070 117.9978360  53.8131170  62.3360640
 116.7695740  54.6937850  62.4236720 120.9959570  53.5892900  52.8168630
 120.3672730  53.6938570  52.1026860 120.5011490  53.8089680  53.6062510
 116.9959030  52.5929510  55.6722300 116.8726810  52.6115640  54.7231810
 117.9443590  52.6408450  55.7920700 114.0835820  67.8284810  54.9450280
 114.3377320  67.7906200  54.0229650 113.1348300  67.7018140  54.9378530
 111.1678620  54.1763930  51.6077220 112.0169150  54.6134080  51.5417410
 110.8009890  54.4884190  52.4349280 120.0888400  58.7476690  56.5208790
 119.1478540  58.7626920  56.6956480 120.4032470  57.9612650  56.9669090
 110.0670040  60.4296290  50.0812750 110.8333310  60.3177650  50.6438180
 110.1444730  59.7334260  49.4289520 108.7616800  57.8621360  50.7645640
 108.8420390  56.9148870  50.8763040 109.6536550  58.1928240  50.8706300
 122.0913980  65.9185540  58.1963050 122.2161400  66.7416710  58.6686860
 122.9579540  65.7076270  57.8487200 108.5689790  67.1962820  67.0565760
 109.3702520  67.5174870  67.4701160 108.0541610  66.8358400  67.7785670
 121.7263990  66.4117190  51.1142490 121.4405500  65.9982330  50.2996670
 121.5283540  67.3404900  50.9943010 110.2616490  56.4057970  64.8626370
 109.7312950  55.9148920  64.2349710 110.9304560  56.8342170  64.3284300
 110.9947970  56.4994650  49.0013550 110.7937030  55.6362010  49.3626890
 110.8240020  56.4128010  48.0635150 118.4736280  51.3102880  51.5300430
 118.7538570  50.4670780  51.8859850 117.7002010  51.5425990  52.0439180
 109.7930770  53.5995270  48.9891430 110.0956670  53.6062700  48.0810580
 110.5325360  53.2493130  49.4859090 114.6279410  68.3652130  63.9707870
 114.5538110  69.2687270  64.2780240 113.7258250  68.0464030  63.9429940
 106.0306700  65.6926720  57.2741490 106.3609710  64.8247780  57.0420130
 106.4597700  65.8985240  58.1046450 122.1559090  66.0614310  64.3000430
 121.5561080  66.1206870  63.5564350 122.2852990  65.1219290  64.4297280
 123.3960540  63.8032130  49.6370140 122.5653500  63.8708780  50.1077370
 123.5732370  64.6936250  49.3337000 122.8517000  60.5479610  52.1404340
 123.6135910  61.1176260  52.2464030 122.8671370  59.9806810  52.9112650
 106.3521340  59.0717540  56.3712000 105.6970180  58.8029180  55.7271700
 107.1899290  58.9622020  55.9213980 120.8410730  62.7866290  62.3976590
 120.0270570  63.2163450  62.6602380 121.2484930  63.3984700  61.7845640
 122.9036170  60.8413980  49.2976860 123.1785010  61.7492860  49.1696080
 122.7146910  60.7776510  50.2338850 119.3011780  53.8658830  50.5930490
 119.7196660  53.6789810  49.7527150 118.9947840  53.0137880  50.9033420
 122.8001510  58.7782970  54.2906290 122.4245110  58.0110900  53.8587580
 122.0704630  59.1605670  54.7781220 107.3897270  59.4570110  60.9115340
 107.7570310  59.3697510  61.7911360 106.8208090  58.6936660  60.8122200
 106.9413270  56.3679200  64.8173760 106.0469320  56.3345960  65.1567470
 107.4810820  56.5665990  65.5825010 105.5659420  56.2816470  52.3137330
 104.6623500  56.5446670  52.1388990 106.0500040  56.5527640  51.5337290
 122.0752470  57.0040460  57.5913530 122.5989950  56.5103110  56.9603700
 122.6611890  57.1390820  58.3361100 108.1086630  55.3382010  50.2231710
 108.8178330  54.9165230  49.7378990 107.3926570  55.4057240  49.5915060
 121.5652440  56.2613810  53.5305940 122.0611560  56.0284680  54.3154820
 121.3668510  55.4225650  53.1143580 122.9939600  54.8974760  56.0643620
 122.8838880  54.7430800  57.0025890 123.7547190  54.3695700  55.8219030
 123.8829870  52.7282680  49.3049760 124.8079180  52.5963860  49.0968050
 123.8605660  52.8075500  50.2586210 123.9568360  53.4993340  51.9306470
 123.1619860  53.4338460  52.4599380 124.1611640  54.4343980  51.9191820
 120.8986780  67.5384890  55.9244860 121.4945850  67.2169460  55.2479280
 121.1564930  67.0656710  56.7158130 114.7109800  51.9895080  65.4301720
 114.6498690  52.5816910  66.1797130 115.6510180  51.8821040  65.2851980
 123.7659540  67.5456770  62.4755850 123.2717820  67.9425640  61.7582980
 123.1572830  66.9205980  62.8693130 121.4498990  68.1880190  59.7542590
 120.9901960  68.9396000  59.3800610 120.8211450  67.4686660  59.6957390
 120.3888290  51.8290220  58.3805300 120.8296380  51.7735320  57.5326900
 120.1195880  52.7448230  58.4515480 122.2526860  51.4605460  56.3914120
 122.1915260  50.5166680  56.2445140 123.0318890  51.5685550  56.9367580
 107.1807630  51.4314600  52.8569930 107.9386990  51.5443480  52.2833960
 106.7184800  52.2683800  52.8113360 113.7221440  53.5453870  55.8472240
 112.9095950  53.1710760  55.5068120 114.2263080  52.7898950  56.1493430
 118.2246420  50.2096320  57.0855310 118.8275790  50.7816530  57.5603830
 117.4839410  50.7735760  56.8629210 121.3681020  50.6117880  52.3595590
 121.5631650  51.5101330  52.6263020 120.5810890  50.3804960  52.8528540
 111.7470620  51.6953790  54.4517290 111.1173360  50.9941100  54.6187420
 111.2075760  52.4557920  54.2350450 114.6862570  68.3093020  67.1227900
 115.6129880  68.0737290  67.1663860 114.6713000  69.1365020  66.6413930
 122.9207630  67.8518590  54.1202150 123.0959820  67.1656330  53.4763070
 122.2229200  68.3765640  53.7278820 111.8726180  50.9737770  66.8869780
 111.5910450  51.4771370  66.1230600 112.2545880  50.1759520  66.5211910
 117.3799790  58.4083820  37.8284990 117.2993840  57.4938430  37.5576700
 116.9664210  58.9050890  37.1224700 115.5117830  60.1862840  39.7094260
 114.7359930  59.7063280  39.9992830 116.1630760  59.5068490  39.5350420
 105.9008620  58.0590190  40.2552110 106.4724730  57.2912390  40.2555750
 105.9010160  58.3578950  39.3458720 115.9831990  55.6690410  39.9433350
 116.3596810  54.7962290  39.8307020 115.8851500  56.0049110  39.0523790
 119.7656110  53.1640850  36.8761690 120.5865730  52.6737420  36.9187170
 119.7990190  53.7538510  37.6293530 124.0555660  55.1807600  43.4405320
 123.3507830  55.5689310  42.9220430 124.3213580  55.8757890  44.0426250
 120.0017590  55.1041230  39.6489230 119.2973160  55.3926120  40.2292340
 120.3629750  55.9141340  39.2888790 105.9935120  62.4476810  32.8768920
 105.6163100  62.9363910  32.1453820 106.2508190  63.1202090  33.5075450
 123.0704510  54.5496020  40.0398440 122.1229420  54.5835000  40.1713870
 123.3954500  55.3634970  40.4247800 120.4484530  63.2876710  35.7152060
 120.3380860  62.3451040  35.8401480 120.4452780  63.6492350  36.6014820
 118.5524550  61.4690330  41.9544500 118.9693340  61.2550440  41.1197960
 119.2764370  61.7263120  42.5253120 115.9904810  58.9142030  35.0714550
 115.0634090  58.8479410  35.3003020 116.1429630  59.8522160  34.9569790
 120.0202100  60.4762330  35.5749800 119.4014520  60.1381880  34.9276100
 120.0026550  59.8322090  36.2828990 119.4628660  56.6546870  42.9915610
 119.0499840  57.4800580  43.2455600 118.7304610  56.0691910  42.7991970
 120.1528760  66.7006200  43.6796590 119.6759320  67.5078390  43.4869200
 119.4690550  66.0484530  43.8322800 111.1561580  62.8656020  46.6681290
 110.2590110  63.0895990  46.9154690 111.1814450  62.9890960  45.7192690
 118.1966800  59.7149140  32.5822550 118.6360080  58.8771570  32.4360370
 118.9095220  60.3478540  32.6686690 109.9832800  59.7369340  45.2438660
 109.8440570  60.6092140  45.6126060 109.1014160  59.3942150  45.0986600
 111.7813150  65.6791040  47.4523810 111.7528580  66.0833990  46.5852240
 111.6178120  64.7501400  47.2895410 121.7783940  50.9691950  30.8963590
 121.4656600  51.0618780  31.7962660 122.5396410  51.5472980  30.8461020
 123.7327970  66.4618140  48.7487980 124.2087690  66.9401030  49.4277060
 124.3535130  66.3935630  48.0233480 122.9885230  55.7063450  46.8737730
 122.3729500  56.2143120  46.3453190 122.6681650  54.8061780  46.8163670
 117.7841720  56.8083760  35.0636500 117.1850610  57.5319560  34.8800120
 118.3321330  56.7460540  34.2812950 112.9943170  57.7005970  47.1306120
 112.8986770  56.7600700  46.9806520 113.8375150  57.9221040  46.7354190
 116.3906590  55.4447300  37.0939780 116.7836160  55.7619500  36.2808470
 116.7523440  54.5659180  37.2084300 105.6140990  55.9768220  30.5272700
 105.5315660  56.9198980  30.6687690 105.2624050  55.8343130  29.6485050
 116.9761730  58.0353050  41.1890560 116.2442850  58.5439860  41.5380660
 116.5786070  57.2183030  40.8879340 120.8658390  50.9018910  46.4399880
 121.1904160  50.1708570  46.9657860 120.9014900  50.5832550  45.5380870
 107.5649950  61.9232490  45.8599840 107.1804740  61.2826160  46.4582800
 107.8762140  62.6268610  46.4294570 113.7147090  58.7709030  41.3408460
 114.0817220  58.2967600  42.0869800 113.5252150  59.6450600  41.6816800
 120.7916230  61.0144020  40.0485910 121.5115350  61.5099310  39.6582020
 120.5898050  60.3361910  39.4039780 116.1735030  61.0853080  45.9354910
 116.1072340  60.1648750  45.6812500 115.5440170  61.1828520  46.6499550
 118.9674560  56.7801630  32.4877460 119.8554180  57.0918860  32.3128800
 118.9379650  55.9073880  32.0958040 107.5610190  58.6520410  44.8064030
 107.2025130  59.3174260  45.3937370 107.2664750  57.8203960  45.1776650
 110.7623310  59.1104650  47.6903580 110.4623450  59.2561830  46.7931400
 111.5334550  58.5509940  47.5976970 116.1051760  63.9073650  45.6858710
 116.1196300  62.9754610  45.4677620 115.3976860  63.9933410  46.3248480
 121.2388830  58.0913470  31.9557320 121.1552550  58.5227690  31.1053760
 121.9583020  58.5511820  32.3884140 122.2676080  64.9455730  34.6839450
 121.6252240  64.2911350  34.9583170 121.8806740  65.3510820  33.9080120
 117.8462560  62.2741160  38.5311140 118.1986380  61.6769290  37.8712510
 116.9624890  61.9485390  38.7019390 106.0718240  58.6511670  31.4298630
 106.9413090  58.9336470  31.7134550 105.5808560  59.4647540  31.3147440
 113.2353050  60.0384880  35.5506910 113.6915830  60.8490130  35.7767100
 112.8841260  59.7208020  36.3825400 115.5385660  65.5491220  42.7799210
 116.1827880  65.7550600  43.4572630 115.9015100  64.7879620  42.3270060
 116.8117740  63.5523570  41.4976660 117.4539970  62.8516730  41.6108830
 117.3367090  64.3322010  41.3173550 118.5855360  64.3518470  44.7012720
 118.9211600  64.9385160  45.3790640 117.6655700  64.2211180  44.9310510
 106.4389490  67.8639050  31.9960260 106.7987130  68.4628390  31.3417530
 106.2981830  68.4098940  32.7695290 120.2389710  61.7544130  32.8829960
 119.9511410  62.2156820  33.6707840 121.0341880  61.2941900  33.1514180
 114.4143940  64.4009800  47.8700780 114.0940810  63.6819040  48.4146470
 113.7402300  65.0764870  47.9436840 108.0564750  60.4685140  33.5580690
 107.4492700  61.2084040  33.5675990 108.5314100  60.5584500  32.7318890
 120.9959570  53.5892900  34.0425140 120.3672730  53.6938570  33.3283370
 120.5011490  53.8089680  34.8319020 116.9959030  52.5929510  36.8978810
 116.8726810  52.6115640  35.9488320 117.9443590  52.6408450  37.0177210
 121.7966390  53.5043510  44.3003940 121.2939990  54.2448910  44.6397750
 122.6123050  53.8927510  43.9840730 120.0888400  58.7476690  37.7465300
 119.1478540  58.7626920  37.9212990 120.4032470  57.9612650  38.1925600
 110.0670040  60.4296290  31.3069260 110.8333310  60.3177650  31.8694690
 110.1444730  59.7334260  30.6546030 108.7616800  57.8621360  31.9902150
 108.8420390  56.9148870  32.1019550 109.6536550  58.1928240  32.0962810
 106.4476990  64.0790320  34.9678200 105.5216770  64.3211460  34.9583610
 106.9133420  64.9064580  34.8462950 121.7263990  66.4117190  32.3399000
 121.4405500  65.9982330  31.5253180 121.5283540  67.3404900  32.2199520
 106.2887600  59.6836280  47.2258320 106.7926620  59.1043560  47.7974550
 105.5495020  59.9676510  47.7634690 113.3425540  61.0907270  46.7593840
 112.5771210  61.6592270  46.6748510 113.5241500  60.7983480  45.8662070
 120.4848890  62.8212600  47.3168860 121.2258360  63.1588360  46.8136320
 119.7221570  62.9904660  46.7638630 108.3210680  57.8265870  48.1208390
 108.3616020  57.5279740  49.0293620 109.1756180  58.2273480  47.9615910
 112.0989070  60.4261420  33.2811900 112.5205490  60.2601290  34.1243290
 112.2239910  59.6161650  32.7867040 114.6116710  59.4499030  30.5289000
 115.1322370  58.7348050  30.1630150 115.2585110  60.0884900  30.8289510
 119.1594550  60.8727430  45.8524070 119.5735570  61.0272510  46.7014490
 118.2245550  60.9982650  46.0149850 119.6316720  58.2123590  47.8563220
 120.2137490  57.4575910  47.7683700 119.8078490  58.7431030  47.0794700
 113.9209780  60.8247910  43.8220000 114.3397890  61.6680640  43.6496240
 113.0018410  60.9619950  43.5926780 116.2573680  58.5564090  45.2057840
 116.3769890  57.9605230  45.9452680 117.1167680  58.5933780  44.7859140
 118.5961580  59.1101280  43.7820350 118.0696800  59.6343900  43.1785490
 118.9392920  59.7428670  44.4130080 111.7717200  67.1300920  44.9377730
 111.2338290  67.8546980  44.6186430 112.0251160  66.6531260  44.1475070
 118.4736280  51.3102880  32.7556940 118.7538570  50.4670780  33.1116360
 117.7002010  51.5425990  33.2695690 114.6279410  68.3652130  45.1964380
 114.5538110  69.2687270  45.5036750 113.7258250  68.0464030  45.1686450
 108.8160900  62.9037690  31.0477740 109.2535770  63.4467360  31.7035320
 109.3008630  62.0784640  31.0574080 122.1559090  66.0614310  45.5256940
 121.5561080  66.1206870  44.7820860 122.2852990  65.1219290  45.6553790
 123.3960540  63.8032130  30.8626650 122.5653500  63.8708780  31.3333880
 123.5732370  64.6936250  30.5593510 122.8517000  60.5479610  33.3660850
 123.6135910  61.1176260  33.4720540 122.8671370  59.9806810  34.1369160
 106.3521340  59.0717540  37.5968510 105.6970180  58.8029180  36.9528210
 107.1899290  58.9622020  37.1470490 122.9036170  60.8413980  30.5233370
 123.1785010  61.7492860  30.3952590 122.7146910  60.7776510  31.4595360
 119.3011780  53.8658830  31.8187000 119.7196660  53.6789810  30.9783660
 118.9947840  53.0137880  32.1289930 122.8001510  58.7782970  35.5162800
 122.4245110  58.0110900  35.0844090 122.0704630  59.1605670  36.0037730
 122.1901130  57.9254490  45.1502320 121.9587220  57.6967240  44.2500270
 122.4505680  58.8454040  45.1047210 120.6289200  53.1510920  47.9282020
 121.5059380  53.1594320  48.3116020 120.6410040  52.4141760  47.3174370
 105.5659420  56.2816470  33.5393840 104.6623500  56.5446670  33.3645500
 106.0500040  56.5527640  32.7593800 122.0752470  57.0040460  38.8170040
 122.5989950  56.5103110  38.1860210 122.6611890  57.1390820  39.5617610
 122.2542190  57.0880330  42.3389590 121.3044900  57.0543870  42.4534580
 122.4355200  57.9980440  42.1039360 108.1086630  55.3382010  31.4488220
 108.8178330  54.9165230  30.9635500 107.3926570  55.4057240  30.8171570
 107.7560790  51.3921340  30.4890870 108.4788920  51.9330280  30.8072090
 108.0285310  51.1184760  29.6132410 121.5652440  56.2613810  34.7562450
 122.0611560  56.0284680  35.5411330 121.3668510  55.4225650  34.3400090
 122.9939600  54.8974760  37.2900130 122.8838880  54.7430800  38.2282400
 123.7547190  54.3695700  37.0475540 121.3405320  50.8368890  43.7483130
 121.9777540  51.4503030  44.1142320 121.4880210  50.8729550  42.8032360
 123.8829870  52.7282680  30.5306270 124.8079180  52.5963860  30.3224560
 123.8605660  52.8075500  31.4842720 123.9568360  53.4993340  33.1562980
 123.1619860  53.4338460  33.6855890 124.1611640  54.4343980  33.1448330
 112.5055380  65.5262390  42.9001720 112.2646740  65.7936950  42.0132240
 113.4458020  65.6968120  42.9552580 123.7659540  67.5456770  43.7012360
 123.2717820  67.9425640  42.9839490 123.1572830  66.9205980  44.0949640
 118.0892400  50.2097280  42.6219810 117.2152240  50.5432390  42.4192740
 117.9803150  49.7370460  43.4471680 114.6190210  67.3876920  40.9816210
 114.9068020  67.1331220  40.1049220 115.1313430  66.8354280  41.5721780
 115.8367220  51.1267120  41.5612720 115.0539010  51.6012620  41.8409480
 115.5430150  50.2221950  41.4525900 120.3888290  51.8290220  39.6061810
 120.8296380  51.7735320  38.7583410 120.1195880  52.7448230  39.6771990
 122.2526860  51.4605460  37.6170630 122.1915260  50.5166680  37.4701650
 123.0318890  51.5685550  38.1624090 107.1807630  51.4314600  34.0826440
 107.9386990  51.5443480  33.5090470 106.7184800  52.2683800  34.0369870
 118.2246420  50.2096320  38.3111820 118.8275790  50.7816530  38.7860340
 117.4839410  50.7735760  38.0885720 121.3681020  50.6117880  33.5852100
 121.5631650  51.5101330  33.8519530 120.5810890  50.3804960  34.0785050
 111.8726180  50.9737770  48.1126290 111.5910450  51.4771370  47.3487110
 112.2545880  50.1759520  47.7468420 109.9250070  64.3578160  32.9040300
 109.2958950  64.8263260  33.4526130 110.0397900  63.5127380  33.3386490
 117.3799790  58.4083820  19.0541500 117.2993840  57.4938430  18.7833210
 116.9664210  58.9050890  18.3481210 115.5117830  60.1862840  20.9350770
 114.7359930  59.7063280  21.2249340 116.1630760  59.5068490  20.7606930
 109.5283660  60.4982650  21.8126530 108.6968540  60.2431360  22.2123040
 110.1364640  60.5693420  22.5484450 119.5325260  64.5923030  19.7149900
 119.0706790  63.8210270  20.0437070 120.3450810  64.6189100  20.2202350
 109.5084920  64.5322740  22.0084550 109.8112960  63.6420480  21.8294770
 110.2528510  65.0892960  21.7806800 107.9375610  55.4584540  15.5968920
 107.0492310  55.8000510  15.4948800 108.2216800  55.2584860  14.7049750
 105.9008620  58.0590190  21.4808620 106.4724730  57.2912390  21.4812260
 105.9010160  58.3578950  20.5715230 115.7588570  66.8781040  19.3353890
 115.1400010  67.3338540  18.7648330 116.6140350  67.0332500  18.9343590
 114.9526820  62.8620030  20.9420930 114.8835100  61.9209970  20.7810060
 115.7146680  62.9521440  21.5143500 107.1433490  53.4674550  23.2677550
 106.9636330  52.5700300  23.5480310 106.7413570  54.0146420  23.9424500
 115.9831990  55.6690410  21.1689860 116.3596810  54.7962290  21.0563530
 115.8851500  56.0049110  20.2780300 110.1137000  54.0416040  16.6307300
 110.2203750  54.9419770  16.9376060 109.2029360  53.9934010  16.3401950
 119.7656110  53.1640850  18.1018200 120.5865730  52.6737420  18.1443680
 119.7990190  53.7538510  18.8550040 107.7620160  55.9635050  21.8759890
 108.4430270  56.2273420  22.4947290 107.4468210  55.1235920  22.2097900
 111.9544730  57.0102410  20.9632480 112.4622950  57.5083380  21.6037500
 112.4857970  56.2337610  20.7871840 124.0555660  55.1807600  24.6661830
 123.3507830  55.5689310  24.1476940 124.3213580  55.8757890  25.2682760
 110.2380830  51.6500970  25.2295900 110.2399270  52.1673360  24.4241800
 109.4085140  51.1731150  25.2065830 116.6251920  61.7620280  16.7285800
 116.0069190  62.2269730  16.1648520 117.1375170  62.4547760  17.1455310
 111.4883680  61.2896150  23.4069400 111.1553060  61.9165070  24.0490470
 111.6650360  61.8158030  22.6271070 120.0017590  55.1041230  20.8745740
 119.2973160  55.3926120  21.4548850 120.3629750  55.9141340  20.5145300
 109.9196160  53.3610930  23.2366350 110.2612970  54.2052980  22.9420220
 108.9811970  53.5094670  23.3531690 110.7002780  63.2576950  25.2218580
 111.3176780  63.9328030  24.9403030 109.8395900  63.6664930  25.1306080
 105.9935120  62.4476810  14.1025430 105.6163100  62.9363910  13.3710330
 106.2508190  63.1202090  14.7331960 121.6180370  64.7216360  23.1373220
 120.9343890  65.3915470  23.1289890 122.1574660  64.9197010  22.3718080
 123.0704510  54.5496020  21.2654950 122.1229420  54.5835000  21.3970380
 123.3954500  55.3634970  21.6504310 113.6024050  50.8493200  19.5610940
 113.9099030  50.2940090  18.8446440 112.6724750  50.9837660  19.3783930
 119.1539110  66.5660490  21.8518400 119.1666270  66.1622780  20.9840660
 118.6014330  67.3407780  21.7479830 120.4484530  63.2876710  16.9408570
 120.3380860  62.3451040  17.0657990 120.4452780  63.6492350  17.8271330
 118.5524550  61.4690330  23.1801010 118.9693340  61.2550440  22.3454470
 119.2764370  61.7263120  23.7509630 115.9904810  58.9142030  16.2971060
 115.0634090  58.8479410  16.5259530 116.1429630  59.8522160  16.1826300
 115.9773890  55.1859030  13.2938220 115.0377560  55.3472990  13.3790680
 116.2957150  55.9044710  12.7474210 122.4986650  59.8677550  23.2717250
 121.6705280  59.9370640  22.7967380 123.0937130  60.4531860  22.8033080
 120.0202100  60.4762330  16.8006310 119.4014520  60.1381880  16.1532610
 120.0026550  59.8322090  17.5085500 119.4628660  56.6546870  24.2172120
 119.0499840  57.4800580  24.4712110 118.7304610  56.0691910  24.0248480
 111.5961450  59.4406770  19.0790790 111.1918450  58.7284020  18.5836690
 111.6824570  59.0960010  19.9678830 112.0643150  63.1274330  21.2430000
 111.7671440  62.5219800  20.5637780 113.0142970  63.1651640  21.1319360
 110.3090070  56.2149980  22.8589830 110.8604660  56.3245320  22.0843080
 110.8233580  56.5887580  23.5745060 120.1528760  66.7006200  24.9053100
 119.6759320  67.5078390  24.7125710 119.4690550  66.0484530  25.0579310
 111.1561580  62.8656020  27.8937800 110.2590110  63.0895990  28.1411200
 111.1814450  62.9890960  26.9449200 118.1966800  59.7149140  13.8079060
 118.6360080  58.8771570  13.6616880 118.9095220  60.3478540  13.8943200
 109.9832800  59.7369340  26.4695170 109.8440570  60.6092140  26.8382570
 109.1014160  59.3942150  26.3243110 116.3062180  64.6545210  17.7760300
 116.7458090  65.3969540  17.3615690 116.2449070  64.8971780  18.6999260
 121.7783940  50.9691950  12.1220100 121.4656600  51.0618780  13.0219170
 122.5396410  51.5472980  12.0717530 108.2966080  58.3351750  16.5797440
 108.1763680  59.0613840  15.9678710 107.9866970  57.5654660  16.1025350
 123.7327970  66.4618140  29.9744490 124.2087690  66.9401030  30.6533570
 124.3535130  66.3935630  29.2489990 105.9351450  61.5066890  22.3866080
 106.0131870  61.6415660  21.4421800 106.5493130  60.7982780  22.5794200
 107.1799080  63.2067080  18.7972260 106.7727160  63.3481670  17.9425860
 108.0712090  62.9227240  18.5943470 123.1361220  63.6530990  27.1344500
 123.2624280  63.4142870  26.2161680 123.1782600  62.8215530  27.6066580
 118.9732360  67.6414330  15.1323310 118.8133500  67.3517270  16.0305140
 118.8079070  66.8654460  14.5968540 111.4520740  67.4212860  16.9094930
 111.2763220  66.5048400  16.6962730 110.5976480  67.7800150  17.1492730
 118.6758490  65.1501890  13.6921310 117.9823650  65.1479180  13.0323590
 119.4181350  64.7261210  13.2615480 118.2408420  66.7764600  17.7669800
 118.6965370  65.9953980  18.0808420 118.5800940  67.4871420  18.3110980
 122.9885230  55.7063450  28.0994240 122.3729500  56.2143120  27.5709700
 122.6681650  54.8061780  28.0420180 105.9910970  62.5481060  24.9260540
 106.1542010  62.0786420  24.1079910 106.4563420  62.0404620  25.5909380
 110.7629740  51.6786820  19.9621110 110.3197890  52.4596360  19.6305630
 111.3214730  52.0016710  20.6692050 115.0499550  54.5455340  25.5656430
 114.5878920  54.7538360  26.3776370 114.6477660  53.7314690  25.2627100
 120.0504060  55.7664290  26.6953090 119.1997650  55.4670040  27.0162160
 119.8905850  56.0106300  25.7836910 117.1453770  57.2666040  28.7951880
 117.4707180  56.4329790  28.4554110 117.9334100  57.7894560  28.9430210
 113.8788560  51.2997520  14.8426940 113.2542740  51.2957390  15.5680250
 113.7918680  50.4328480  14.4462910 112.8005640  52.2234150  21.8210710
 113.0977970  53.1296980  21.7402730 113.3491200  51.7352930  21.2070280
 110.5543960  56.8020390  17.6902360 110.3284880  56.5857560  18.5948980
 109.7736490  57.2348850  17.3448330 117.7841720  56.8083760  16.2893010
 117.1850610  57.5319560  16.1056630 118.3321330  56.7460540  15.5069460
 112.9943170  57.7005970  28.3562630 112.8986770  56.7600700  28.2063030
 113.8375150  57.9221040  27.9610700 116.3906590  55.4447300  18.3196290
 116.7836160  55.7619500  17.5064980 116.7523440  54.5659180  18.4340810
 108.1253710  54.1119640  26.5096410 107.7317100  54.9594850  26.7169190
 107.4372110  53.4746010  26.7005050 105.4270760  52.0348100  20.5426490
 105.1383810  52.6050960  21.2551470 106.1716520  51.5552550  20.9057720
 105.6140990  55.9768220  11.7529210 105.5315660  56.9198980  11.8944200
 105.2624050  55.8343130  10.8741560 116.9761730  58.0353050  22.4147070
 116.2442850  58.5439860  22.7637170 116.5786070  57.2183030  22.1135850
 113.4139120  54.7107250  20.8199560 113.4175180  54.2697200  19.9704100
 114.3090240  55.0324580  20.9271380 109.2641500  54.5933740  19.7793770
 108.9241550  55.0708970  20.5360820 108.5018820  54.1398860  19.4194870
 113.4759270  55.7119330  13.8106320 113.5972090  55.6705810  14.7592140
 113.0907780  56.5743480  13.6553050 117.4387640  53.4886730  21.8270010
 117.4560380  53.9395380  22.6711860 117.1903220  52.5892370  22.0403450
 112.4880770  58.0220470  13.2089620 111.9197670  57.5738720  12.5825530
 113.1969770  58.3813250  12.6754770 120.8658390  50.9018910  27.6656390
 121.1904160  50.1708570  28.1914370 120.9014900  50.5832550  26.7637380
 107.5649950  61.9232490  27.0856350 107.1804740  61.2826160  27.6839310
 107.8762140  62.6268610  27.6551080 113.7147090  58.7709030  22.5664970
 114.0817220  58.2967600  23.3126310 113.5252150  59.6450600  22.9073310
 106.5787580  53.5152720  18.6958440 106.2934500  53.1508390  19.5337060
 106.5166440  52.7833180  18.0821580 111.5046460  57.8117670  24.8849180
 111.2003530  58.6909650  25.1099540 112.4592920  57.8717460  24.9206620
 110.0328250  62.0178660  15.4816030 109.2590510  61.4776280  15.3214750
 110.7622880  61.4985270  15.1433790 120.7916230  61.0144020  21.2742420
 121.5115350  61.5099310  20.8838530 120.5898050  60.3361910  20.6296290
 116.2526170  52.4081980  15.4171810 115.4390780  51.9095150  15.3417120
 116.0588120  53.2480230  15.0008160 118.9674560  56.7801630  13.7133970
 119.8554180  57.0918860  13.5385310 118.9379650  55.9073880  13.3214550
 110.0765650  61.6859040  19.1194840 110.5944320  60.8827300  19.0651730
 109.6249670  61.6238180  19.9611670 114.9635150  62.9525320  14.3922140
 115.3050850  63.6967550  13.8965460 114.1347860  63.2656440  14.7546970
 107.5610190  58.6520410  26.0320540 107.2025130  59.3174260  26.6193880
 107.2664750  57.8203960  26.4033160 110.7623310  59.1104650  28.9160090
 110.4623450  59.2561830  28.0187910 111.5334550  58.5509940  28.8233480
 121.2388830  58.0913470  13.1813830 121.1552550  58.5227690  12.3310270
 121.9583020  58.5511820  13.6140650 122.3162970  60.5480990  26.2583800
 121.5911160  61.1409770  26.0613190 122.8438430  60.5404530  25.4597170
 122.2676080  64.9455730  15.9095960 121.6252240  64.2911350  16.1839680
 121.8806740  65.3510820  15.1336630 117.8462560  62.2741160  19.7567650
 118.1986380  61.6769290  19.0969020 116.9624890  61.9485390  19.9275900
 113.9325840  63.0338850  17.1638060 114.6196970  63.5808060  17.5445650
 113.1458260  63.5779580  17.1987670 106.0718240  58.6511670  12.6555140
 106.9413090  58.9336470  12.9391060 105.5808560  59.4647540  12.5403950
 113.2353050  60.0384880  16.7763420 113.6915830  60.8490130  17.0023610
 112.8841260  59.7208020  17.6081910 109.1364830  50.3822530  17.2485940
 109.0079460  50.3740430  18.1970860 108.3126850  50.7205620  16.8976950
 116.8117740  63.5523570  22.7233170 117.4539970  62.8516730  22.8365340
 117.3367090  64.3322010  22.5430060 120.6573460  63.8372190  12.4472310
 120.4311040  63.1202630  13.0396950 120.2669660  63.5884630  11.6094060
 106.4389490  67.8639050  13.2216770 106.7987130  68.4628390  12.5674040
 106.2981830  68.4098940  13.9951800 106.1358760  52.1413650  26.7092640
 105.4217280  52.3410570  27.3145250 106.5553800  51.3653220  27.0807440
 120.2389710  61.7544130  14.1086470 119.9511410  62.2156820  14.8964350
 121.0341880  61.2941900  14.3770690 112.4558110  65.2470250  14.0390440
 112.4468210  65.9799940  13.4234950 111.5356470  65.0001830  14.1317400
 108.0564750  60.4685140  14.7837200 107.4492700  61.2084040  14.7932500
 108.5314100  60.5584500  13.9575400 117.6297540  54.6335960  24.4594090
 117.9978360  53.8131170  24.7873660 116.7695740  54.6937850  24.8749740
 120.9959570  53.5892900  15.2681650 120.3672730  53.6938570  14.5539880
 120.5011490  53.8089680  16.0575530 115.4417710  65.3098490  12.7015630
 115.5429690  65.1062480  11.7717610 114.5419450  65.0556770  12.9063410
 112.9643600  55.8678850  16.6839530 112.2559750  56.3365190  17.1253140
 113.2488080  55.2100860  17.3184720 114.5899530  57.2875550  24.6832060
 115.0884780  57.7621370  25.3483910 114.7322480  56.3639070  24.8902090
 116.9959030  52.5929510  18.1235320 116.8726810  52.6115640  17.1744830
 117.9443590  52.6408450  18.2433720 114.0835820  67.8284810  17.3963300
 114.3377320  67.7906200  16.4742670 113.1348300  67.7018140  17.3891550
 111.1678620  54.1763930  14.0590240 112.0169150  54.6134080  13.9930430
 110.8009890  54.4884190  14.8862300 121.7966390  53.5043510  25.5260450
 121.2939990  54.2448910  25.8654260 122.6123050  53.8927510  25.2097240
 120.0888400  58.7476690  18.9721810 119.1478540  58.7626920  19.1469500
 120.4032470  57.9612650  19.4182110 110.0670040  60.4296290  12.5325770
 110.8333310  60.3177650  13.0951200 110.1444730  59.7334260  11.8802540
 108.7616800  57.8621360  13.2158660 108.8420390  56.9148870  13.3276060
 109.6536550  58.1928240  13.3219320 122.0913980  65.9185540  20.6476070
 122.2161400  66.7416710  21.1199880 122.9579540  65.7076270  20.3000220
 109.5631510  68.0116750  20.3193200 110.2993990  67.4632210  20.5901770
 109.9472430  68.8772760  20.1799190 106.4476990  64.0790320  16.1934710
 105.5216770  64.3211460  16.1840120 106.9133420  64.9064580  16.0719460
 108.5689790  67.1962820  29.5078780 109.3702520  67.5174870  29.9214180
 108.0541610  66.8358400  30.2298690 112.6733820  67.1847060  12.1418770
 113.4662430  67.4735890  11.6900560 112.1538170  66.7539230  11.4631250
 121.7263990  66.4117190  13.5655510 121.4405500  65.9982330  12.7509690
 121.5283540  67.3404900  13.4456030 106.2887600  59.6836280  28.4514830
 106.7926620  59.1043560  29.0231060 105.5495020  59.9676510  28.9891200
 113.1911220  62.4050470  12.0061120 113.0861860  61.7902820  12.7322500
 113.0235440  61.8816360  11.2224130 116.4313950  61.4670500  12.6103110
 115.8824050  61.9139800  13.2545850 117.0533210  60.9619750  13.1340780
 108.3210680  57.8265870  29.3464900 108.3616020  57.5279740  30.2550130
 109.1756180  58.2273480  29.1872420 112.0989070  60.4261420  14.5068410
 112.5205490  60.2601290  15.3499800 112.2239910  59.6161650  14.0123550
 110.2616490  56.4057970  27.3139390 109.7312950  55.9148920  26.6862730
 110.9304560  56.8342170  26.7797320 114.6116710  59.4499030  11.7545510
 115.1322370  58.7348050  11.3886660 115.2585110  60.0884900  12.0546020
 119.1594550  60.8727430  27.0780580 119.5735570  61.0272510  27.9271000
 118.2245550  60.9982650  27.2406360 119.6316720  58.2123590  29.0819730
 120.2137490  57.4575910  28.9940210 119.8078490  58.7431030  28.3051210
 110.7488790  53.3720340  27.3936680 110.6545660  52.7541090  26.6687550
 110.1686180  54.0986630  27.1666590 113.5150230  51.9293580  24.4264070
 113.0667530  51.9517840  23.5809620 112.8815430  51.5312600  25.0234370
 113.9209780  60.8247910  25.0476510 114.3397890  61.6680640  24.8752750
 113.0018410  60.9619950  24.8183290 116.2573680  58.5564090  26.4314350
 116.3769890  57.9605230  27.1709190 117.1167680  58.5933780  26.0115650
 118.5961580  59.1101280  25.0076860 118.0696800  59.6343900  24.4042000
 118.9392920  59.7428670  25.6386590 110.9947970  56.4994650  11.4526570
 110.7937030  55.6362010  11.8139910 110.8240020  56.4128010  10.5148170
 111.7717200  67.1300920  26.1634240 111.2338290  67.8546980  25.8442940
 112.0251160  66.6531260  25.3731580 113.0242450  55.0985440  27.6890170
 113.6142140  54.7901290  28.3767990 112.2062690  54.6265190  27.8450070
 117.8435880  54.7151250  27.9223190 117.1551400  54.0532790  27.8573180
 118.5641900  54.2689520  28.3671650 118.4736280  51.3102880  13.9813450
 118.7538570  50.4670780  14.3372870 117.7002010  51.5425990  14.4952200
 109.7930770  53.5995270  11.4404450 110.0956670  53.6062700  10.5323600
 110.5325360  53.2493130  11.9372110 113.0115700  52.5429890  12.4260650
 112.6637700  51.8653880  11.8463100 113.2128470  52.0819400  13.2404040
 115.1764740  67.5310640  14.0447250 116.0715530  67.8695610  14.0666010
 115.2082370  66.8090050  13.4171530 108.8160900  62.9037690  12.2734250
 109.2535770  63.4467360  12.9291830 109.3008630  62.0784640  12.2830590
 106.0306700  65.6926720  19.7254510 106.3609710  64.8247780  19.4933150
 106.4597700  65.8985240  20.5559470 110.6268620  64.0235730  17.3856480
 110.3264160  63.9000700  18.2860390 110.5206110  63.1644320  16.9772210
 122.1559090  66.0614310  26.7513450 121.5561080  66.1206870  26.0077370
 122.2852990  65.1219290  26.8810300 123.3960540  63.8032130  12.0883160
 122.5653500  63.8708780  12.5590390 123.5732370  64.6936250  11.7850020
 122.8517000  60.5479610  14.5917360 123.6135910  61.1176260  14.6977050
 122.8671370  59.9806810  15.3625670 106.3521340  59.0717540  18.8225020
 105.6970180  58.8029180  18.1784720 107.1899290  58.9622020  18.3727000
 123.8576970  61.4029710  19.4359290 124.2285800  60.6197030  19.0295260
 124.4978900  62.0918810  19.2576590 120.8410730  62.7866290  24.8489610
 120.0270570  63.2163450  25.1115400 121.2484930  63.3984700  24.2358660
 122.9036170  60.8413980  11.7489880 123.1785010  61.7492860  11.6209100
 122.7146910  60.7776510  12.6851870 119.3011780  53.8658830  13.0443510
 119.7196660  53.6789810  12.2040170 118.9947840  53.0137880  13.3546440
 122.8001510  58.7782970  16.7419310 122.4245110  58.0110900  16.3100600
 122.0704630  59.1605670  17.2294240 107.3897270  59.4570110  23.3628360
 107.7570310  59.3697510  24.2424380 106.8208090  58.6936660  23.2635220
 122.1901130  57.9254490  26.3758830 121.9587220  57.6967240  25.4756780
 122.4505680  58.8454040  26.3303720 106.9413270  56.3679200  27.2686780
 106.0469320  56.3345960  27.6080490 107.4810820  56.5665990  28.0338030
 120.6289200  53.1510920  29.1538530 121.5059380  53.1594320  29.5372530
 120.6410040  52.4141760  28.5430880 105.5659420  56.2816470  14.7650350
 104.6623500  56.5446670  14.5902010 106.0500040  56.5527640  13.9850310
 122.0752470  57.0040460  20.0426550 122.5989950  56.5103110  19.4116720
 122.6611890  57.1390820  20.7874120 122.2542190  57.0880330  23.5646100
 121.3044900  57.0543870  23.6791090 122.4355200  57.9980440  23.3295870
 108.1086630  55.3382010  12.6744730 108.8178330  54.9165230  12.1892010
 107.3926570  55.4057240  12.0428080 107.7560790  51.3921340  11.7147380
 108.4788920  51.9330280  12.0328600 108.0285310  51.1184760  10.8388920
 121.5652440  56.2613810  15.9818960 122.0611560  56.0284680  16.7667840
 121.3668510  55.4225650  15.5656600 107.4452980  50.6427530  21.6170000
 108.0929170  50.0924910  21.1765160 107.8654820  50.8970680  22.4385810
 122.9939600  54.8974760  18.5156640 122.8838880  54.7430800  19.4538910
 123.7547190  54.3695700  18.2732050 121.3405320  50.8368890  24.9739640
 121.9777540  51.4503030  25.3398830 121.4880210  50.8729550  24.0288870
 123.8829870  52.7282680  11.7562780 124.8079180  52.5963860  11.5481070
 123.8605660  52.8075500  12.7099230 123.9568360  53.4993340  14.3819490
 123.1619860  53.4338460  14.9112400 124.1611640  54.4343980  14.3704840
 120.8986780  67.5384890  18.3757880 121.4945850  67.2169460  17.6992300
 121.1564930  67.0656710  19.1671150 107.1984980  50.7983200  24.3595320
 106.8499800  51.2547020  25.1253500 106.8672680  49.9040330  24.4417750
 108.8049350  63.9702800  28.5248510 108.7618980  63.5995710  29.4062970
 108.9360360  64.9080370  28.6650330 112.5055380  65.5262390  24.1258230
 112.2646740  65.7936950  23.2388750 113.4458020  65.6968120  24.1809090
 114.7109800  51.9895080  27.8814740 114.6498690  52.5816910  28.6310150
 115.6510180  51.8821040  27.7365000 117.3484360  51.6465140  27.5207030
 117.9624770  51.9644430  26.8588110 117.8933920  51.1613730  28.1402890
 123.7659540  67.5456770  24.9268870 123.2717820  67.9425640  24.2096000
 123.1572830  66.9205980  25.3206150 107.8705620  50.3259400  27.6346090
 108.4188610  50.1447450  26.8712200 107.9360930  49.5353510  28.1702400
 118.0892400  50.2097280  23.8476320 117.2152240  50.5432390  23.6449250
 117.9803150  49.7370460  24.6728190 118.9964380  52.4168150  25.2318040
 118.6677740  51.6019910  24.8519770 119.9446680  52.3737960  25.1083730
 121.4498990  68.1880190  22.2055610 120.9901960  68.9396000  21.8313630
 120.8211450  67.4686660  22.1470410 108.2749610  64.2823430  24.5954330
 107.5483670  63.6628720  24.5280280 108.3358760  64.6764040  23.7252410
 111.8794710  66.4968430  21.3803740 112.3959730  65.8855790  20.8552000
 112.5292090  66.9997210  21.8714750 114.6190210  67.3876920  22.2072720
 114.9068020  67.1331220  21.3305730 115.1313430  66.8354280  22.7978290
 115.8367220  51.1267120  22.7869230 115.0539010  51.6012620  23.0665990
 115.5430150  50.2221950  22.6782410 120.3888290  51.8290220  20.8318320
 120.8296380  51.7735320  19.9839920 120.1195880  52.7448230  20.9028500
 122.2526860  51.4605460  18.8427140 122.1915260  50.5166680  18.6958160
 123.0318890  51.5685550  19.3880600 106.5579610  67.5997820  17.8051090
 106.3901650  66.9668500  18.5032980 105.6914120  67.8057220  17.4545280
 107.1807630  51.4314600  15.3082950 107.9386990  51.5443480  14.7346980
 106.7184800  52.2683800  15.2626380 113.7221440  53.5453870  18.2985260
 112.9095950  53.1710760  17.9581140 114.2263080  52.7898950  18.6006450
 118.2246420  50.2096320  19.5368330 118.8275790  50.7816530  20.0116850
 117.4839410  50.7735760  19.3142230 121.3681020  50.6117880  14.8108610
 121.5631650  51.5101330  15.0776040 120.5810890  50.3804960  15.3041560
 108.1642310  66.2931050  15.2501230 107.6389930  66.6739080  14.5463190
 108.0886890  66.9181820  15.9710940 109.5532780  51.9578650  13.8484920
 110.0825540  51.1708450  13.7192870 110.1861100  52.6369840  14.0820450
 111.7470620  51.6953790  16.9030310 111.1173360  50.9941100  17.0700440
 111.2075760  52.4557920  16.6863470 122.9207630  67.8518590  16.5715170
 123.0959820  67.1656330  15.9276090 122.2229200  68.3765640  16.1791840
 111.8726180  50.9737770  29.3382800 111.5910450  51.4771370  28.5743620
 112.2545880  50.1759520  28.9724930 110.7635280  68.2413430  14.1250480
 111.4954100  67.9572710  13.5774370 111.0228950  68.0026710  15.0149860
 109.9250070  64.3578160  14.1296810 109.2958950  64.8263260  14.6782640
 110.0397900  63.5127380  14.5643000 118.4741640  50.3891350  29.9163270
 118.3607090  50.7085960  30.8114790 119.2911380  50.7903860  29.6200550
 121.2540130  67.5362880  29.3981960 122.0465450  67.0412110  29.1907920
 121.5473280  68.2153020  30.0057570 115.5117830  60.1862840   2.1607280
 114.7359930  59.7063280   2.4505850 116.1630760  59.5068490   1.9863440
 109.5283660  60.4982650   3.0383040 108.6968540  60.2431360   3.4379550
 110.1364640  60.5693420   3.7740960 109.5084920  64.5322740   3.2341060
 109.8112960  63.6420480   3.0551280 110.2528510  65.0892960   3.0063310
 105.9008620  58.0590190   2.7065130 106.4724730  57.2912390   2.7068770
 105.9010160  58.3578950   1.7971740 114.9526820  62.8620030   2.1677440
 114.8835100  61.9209970   2.0066570 115.7146680  62.9521440   2.7400010
 107.1433490  53.4674550   4.4934060 106.9636330  52.5700300   4.7736820
 106.7413570  54.0146420   5.1681010 107.7620160  55.9635050   3.1016400
 108.4430270  56.2273420   3.7203800 107.4468210  55.1235920   3.4354410
 111.9544730  57.0102410   2.1888990 112.4622950  57.5083380   2.8294010
 112.4857970  56.2337610   2.0128350 124.0555660  55.1807600   5.8918340
 123.3507830  55.5689310   5.3733450 124.3213580  55.8757890   6.4939270
 110.2380830  51.6500970   6.4552410 110.2399270  52.1673360   5.6498310
 109.4085140  51.1731150   6.4322340 111.4883680  61.2896150   4.6325910
 111.1553060  61.9165070   5.2746980 111.6650360  61.8158030   3.8527580
 120.0017590  55.1041230   2.1002250 119.2973160  55.3926120   2.6805360
 120.3629750  55.9141340   1.7401810 109.9196160  53.3610930   4.4622860
 110.2612970  54.2052980   4.1676730 108.9811970  53.5094670   4.5788200
 110.7002780  63.2576950   6.4475090 111.3176780  63.9328030   6.1659540
 109.8395900  63.6664930   6.3562590 121.6180370  64.7216360   4.3629730
 120.9343890  65.3915470   4.3546400 122.1574660  64.9197010   3.5974590
 123.0704510  54.5496020   2.4911460 122.1229420  54.5835000   2.6226890
 123.3954500  55.3634970   2.8760820 119.1539110  66.5660490   3.0774910
 119.1666270  66.1622780   2.2097170 118.6014330  67.3407780   2.9736340
 118.5524550  61.4690330   4.4057520 118.9693340  61.2550440   3.5710980
 119.2764370  61.7263120   4.9766140 122.4986650  59.8677550   4.4973760
 121.6705280  59.9370640   4.0223890 123.0937130  60.4531860   4.0289590
 119.4628660  56.6546870   5.4428630 119.0499840  57.4800580   5.6968620
 118.7304610  56.0691910   5.2504990 112.0643150  63.1274330   2.4686510
 111.7671440  62.5219800   1.7894290 113.0142970  63.1651640   2.3575870
 110.3090070  56.2149980   4.0846340 110.8604660  56.3245320   3.3099590
 110.8233580  56.5887580   4.8001570 120.1528760  66.7006200   6.1309610
 119.6759320  67.5078390   5.9382220 119.4690550  66.0484530   6.2835820
 111.1561580  62.8656020   9.1194310 110.2590110  63.0895990   9.3667710
 111.1814450  62.9890960   8.1705710 109.9832800  59.7369340   7.6951680
 109.8440570  60.6092140   8.0639080 109.1014160  59.3942150   7.5499620
 111.7813150  65.6791040   9.9036830 111.7528580  66.0833990   9.0365260
 111.6178120  64.7501400   9.7408430 123.7327970  66.4618140  11.2001000
 124.2087690  66.9401030  11.8790080 124.3535130  66.3935630  10.4746500
 105.9351450  61.5066890   3.6122590 106.0131870  61.6415660   2.6678310
 106.5493130  60.7982780   3.8050710 123.1361220  63.6530990   8.3601010
 123.2624280  63.4142870   7.4418190 123.1782600  62.8215530   8.8323090
 116.9977960  67.3558990   6.9295820 117.5122630  67.2667000   7.7318250
 116.1547040  67.7018690   7.2223730 122.9885230  55.7063450   9.3250750
 122.3729500  56.2143120   8.7966210 122.6681650  54.8061780   9.2676690
 105.9910970  62.5481060   6.1517050 106.1542010  62.0786420   5.3336420
 106.4563420  62.0404620   6.8165890 115.0499550  54.5455340   6.7912940
 114.5878920  54.7538360   7.6032880 114.6477660  53.7314690   6.4883610
 120.0504060  55.7664290   7.9209600 119.1997650  55.4670040   8.2418670
 119.8905850  56.0106300   7.0093420 117.1453770  57.2666040  10.0208390
 117.4707180  56.4329790   9.6810620 117.9334100  57.7894560  10.1686720
 112.8005640  52.2234150   3.0467220 113.0977970  53.1296980   2.9659240
 113.3491200  51.7352930   2.4326790 112.9943170  57.7005970   9.5819140
 112.8986770  56.7600700   9.4319540 113.8375150  57.9221040   9.1867210
 108.1253710  54.1119640   7.7352920 107.7317100  54.9594850   7.9425700
 107.4372110  53.4746010   7.9261560 114.6998760  54.1954610  10.8049660
 114.0097080  54.0026810  11.4395750 115.4431060  54.4789250  11.3373960
 105.4270760  52.0348100   1.7683000 105.1383810  52.6050960   2.4807980
 106.1716520  51.5552550   2.1314230 116.9761730  58.0353050   3.6403580
 116.2442850  58.5439860   3.9893680 116.5786070  57.2183030   3.3392360
 117.4387640  53.4886730   3.0526520 117.4560380  53.9395380   3.8968370
 117.1903220  52.5892370   3.2659960 120.8658390  50.9018910   8.8912900
 121.1904160  50.1708570   9.4170880 120.9014900  50.5832550   7.9893890
 107.5649950  61.9232490   8.3112860 107.1804740  61.2826160   8.9095820
 107.8762140  62.6268610   8.8807590 113.7147090  58.7709030   3.7921480
 114.0817220  58.2967600   4.5382820 113.5252150  59.6450600   4.1329820
 111.5046460  57.8117670   6.1105690 111.2003530  58.6909650   6.3356050
 112.4592920  57.8717460   6.1463130 120.7916230  61.0144020   2.4998930
 121.5115350  61.5099310   2.1095040 120.5898050  60.3361910   1.8552800
 116.1735030  61.0853080   8.3867930 116.1072340  60.1648750   8.1325520
 115.5440170  61.1828520   9.1012570 107.5610190  58.6520410   7.2577050
 107.2025130  59.3174260   7.8450390 107.2664750  57.8203960   7.6289670
 110.7623310  59.1104650  10.1416600 110.4623450  59.2561830   9.2444420
 111.5334550  58.5509940  10.0489990 116.1051760  63.9073650   8.1371730
 116.1196300  62.9754610   7.9190640 115.3976860  63.9933410   8.7761500
 122.3162970  60.5480990   7.4840310 121.5911160  61.1409770   7.2869700
 122.8438430  60.5404530   6.6853680 115.5385660  65.5491220   5.2312230
 116.1827880  65.7550600   5.9085650 115.9015100  64.7879620   4.7783080
 116.8117740  63.5523570   3.9489680 117.4539970  62.8516730   4.0621850
 117.3367090  64.3322010   3.7686570 118.5855360  64.3518470   7.1525740
 118.9211600  64.9385160   7.8303660 117.6655700  64.2211180   7.3823530
 106.1358760  52.1413650   7.9349150 105.4217280  52.3410570   8.5401760
 106.5553800  51.3653220   8.3063950 106.4231350  66.1293910   8.9215680
 106.5322470  65.1888650   8.7811070 105.7711910  66.3948660   8.2729410
 114.4143940  64.4009800  10.3213800 114.0940810  63.6819040  10.8659490
 113.7402300  65.0764870  10.3949860 117.6297540  54.6335960   5.6850600
 117.9978360  53.8131170   6.0130170 116.7695740  54.6937850   6.1006250
 114.5899530  57.2875550   5.9088570 115.0884780  57.7621370   6.5740420
 114.7322480  56.3639070   6.1158600 121.7966390  53.5043510   6.7516960
 121.2939990  54.2448910   7.0910770 122.6123050  53.8927510   6.4353750
 108.5689790  67.1962820  10.7335290 109.3702520  67.5174870  11.1470690
 108.0541610  66.8358400  11.4555200 117.4054420  63.3042690  10.6810700
 116.7992580  63.3274290   9.9406450 117.1008530  62.5725730  11.2177950
 118.8354790  67.0322980   9.2920110 119.7876540  66.9481000   9.2420350
 118.6883010  67.6964690   9.9653900 106.2887600  59.6836280   9.6771340
 106.7926620  59.1043560  10.2487570 105.5495020  59.9676510  10.2147710
 113.3425540  61.0907270   9.2106860 112.5771210  61.6592270   9.1261530
 113.5241500  60.7983480   8.3175090 120.4848890  62.8212600   9.7681880
 121.2258360  63.1588360   9.2649340 119.7221570  62.9904660   9.2151650
 108.3210680  57.8265870  10.5721410 108.3616020  57.5279740  11.4806640
 109.1756180  58.2273480  10.4128930 110.2616490  56.4057970   8.5395900
 109.7312950  55.9148920   7.9119240 110.9304560  56.8342170   8.0053830
 119.1594550  60.8727430   8.3037090 119.5735570  61.0272510   9.1527510
 118.2245550  60.9982650   8.4662870 119.6316720  58.2123590  10.3076240
 120.2137490  57.4575910  10.2196720 119.8078490  58.7431030   9.5307720
 110.7488790  53.3720340   8.6193190 110.6545660  52.7541090   7.8944060
 110.1686180  54.0986630   8.3923100 113.5150230  51.9293580   5.6520580
 113.0667530  51.9517840   4.8066130 112.8815430  51.5312600   6.2490880
 113.9209780  60.8247910   6.2733020 114.3397890  61.6680640   6.1009260
 113.0018410  60.9619950   6.0439800 116.2573680  58.5564090   7.6570860
 116.3769890  57.9605230   8.3965700 117.1167680  58.5933780   7.2372160
 118.5961580  59.1101280   6.2333370 118.0696800  59.6343900   5.6298510
 118.9392920  59.7428670   6.8643100 111.7717200  67.1300920   7.3890750
 111.2338290  67.8546980   7.0699450 112.0251160  66.6531260   6.5988090
 113.0242450  55.0985440   8.9146680 113.6142140  54.7901290   9.6024500
 112.2062690  54.6265190   9.0706580 117.8435880  54.7151250   9.1479700
 117.1551400  54.0532790   9.0829690 118.5641900  54.2689520   9.5928160
 114.6279410  68.3652130   7.6477400 114.5538110  69.2687270   7.9549770
 113.7258250  68.0464030   7.6199470 106.5196910  66.5597310   3.6892650
 106.0827900  66.7398110   4.5216800 107.0874590  67.3171930   3.5474370
 122.1559090  66.0614310   7.9769960 121.5561080  66.1206870   7.2333880
 122.2852990  65.1219290   8.1066810 120.8410730  62.7866290   6.0746120
 120.0270570  63.2163450   6.3371910 121.2484930  63.3984700   5.4615170
 107.3897270  59.4570110   4.5884870 107.7570310  59.3697510   5.4680890
 106.8208090  58.6936660   4.4891730 122.1901130  57.9254490   7.6015340
 121.9587220  57.6967240   6.7013290 122.4505680  58.8454040   7.5560230
 106.9413270  56.3679200   8.4943290 106.0469320  56.3345960   8.8337000
 107.4810820  56.5665990   9.2594540 120.6289200  53.1510920  10.3795040
 121.5059380  53.1594320  10.7629040 120.6410040  52.4141760   9.7687390
 122.2542190  57.0880330   4.7902610 121.3044900  57.0543870   4.9047600
 122.4355200  57.9980440   4.5552380 107.4452980  50.6427530   2.8426510
 108.0929170  50.0924910   2.4021670 107.8654820  50.8970680   3.6642320
 121.3405320  50.8368890   6.1996150 121.9777540  51.4503030   6.5655340
 121.4880210  50.8729550   5.2545380 107.1984980  50.7983200   5.5851830
 106.8499800  51.2547020   6.3510010 106.8672680  49.9040330   5.6674260
 108.8049350  63.9702800   9.7505020 108.7618980  63.5995710  10.6319480
 108.9360360  64.9080370   9.8906840 112.5055380  65.5262390   5.3514740
 112.2646740  65.7936950   4.4645260 113.4458020  65.6968120   5.4065600
 114.7109800  51.9895080   9.1071250 114.6498690  52.5816910   9.8566660
 115.6510180  51.8821040   8.9621510 117.3484360  51.6465140   8.7463540
 117.9624770  51.9644430   8.0844620 117.8933920  51.1613730   9.3659400
 123.7659540  67.5456770   6.1525380 123.2717820  67.9425640   5.4352510
 123.1572830  66.9205980   6.5462660 107.8705620  50.3259400   8.8602600
 108.4188610  50.1447450   8.0968710 107.9360930  49.5353510   9.3958910
 108.6437380  66.9165050   6.8702800 108.0497700  66.7849750   7.6092840
 108.6361220  66.0803190   6.4044900 118.0892400  50.2097280   5.0732830
 117.2152240  50.5432390   4.8705760 117.9803150  49.7370460   5.8984700
 118.9964380  52.4168150   6.4574550 118.6677740  51.6019910   6.0776280
 119.9446680  52.3737960   6.3340240 121.4498990  68.1880190   3.4312120
 120.9901960  68.9396000   3.0570140 120.8211450  67.4686660   3.3726920
 108.2749610  64.2823430   5.8210840 107.5483670  63.6628720   5.7536790
 108.3358760  64.6764040   4.9508920 111.8794710  66.4968430   2.6060250
 112.3959730  65.8855790   2.0808510 112.5292090  66.9997210   3.0971260
 114.6190210  67.3876920   3.4329230 114.9068020  67.1331220   2.5562240
 115.1313430  66.8354280   4.0234800 115.8367220  51.1267120   4.0125740
 115.0539010  51.6012620   4.2922500 115.5430150  50.2221950   3.9038920
 114.6862570  68.3093020  10.7997430 115.6129880  68.0737290  10.8433390
 114.6713000  69.1365020  10.3183460 111.8726180  50.9737770  10.5639310
 111.5910450  51.4771370   9.8000130 112.2545880  50.1759520  10.1981440
 118.4741640  50.3891350  11.1419780 118.3607090  50.7085960  12.0371300
 119.2911380  50.7903860  10.8457060 121.2540130  67.5362880  10.6238470
 122.0465450  67.0412110  10.4164430 121.5473280  68.2153020  11.2314080
 117.3799790  39.6340330 150.4745930 117.2993840  38.7194940 150.2037640
 116.9664210  40.1307400 149.7685640 119.5325260  45.8179540 151.1354330
 119.0706790  45.0466780 151.4641500 120.3450810  45.8445610 151.6406780
 107.9375610  36.6841050 147.0173350 107.0492310  37.0257020 146.9153230
 108.2216800  36.4841370 146.1254180 115.7588570  48.1037550 150.7558320
 115.1400010  48.5595050 150.1852760 116.6140350  48.2589010 150.3548020
 110.1137000  35.2672550 148.0511730 110.2203750  36.1676280 148.3580490
 109.2029360  35.2190520 147.7606380 119.7656110  34.3897360 149.5222630
 120.5865730  33.8993930 149.5648110 119.7990190  34.9795020 150.2754470
 116.6251920  42.9876790 148.1490230 116.0069190  43.4526240 147.5852950
 117.1375170  43.6804270 148.5659740 105.9935120  43.6733320 145.5229860
 105.6163100  44.1620420 144.7914760 106.2508190  44.3458600 146.1536390
 113.6024050  32.0749710 150.9815370 113.9099030  31.5196600 150.2650870
 112.6724750  32.2094170 150.7988360 120.4484530  44.5133220 148.3613000
 120.3380860  43.5707550 148.4862420 120.4452780  44.8748860 149.2475760
 115.9904810  40.1398540 147.7175490 115.0634090  40.0735920 147.9463960
 116.1429630  41.0778670 147.6030730 115.9773890  36.4115540 144.7142650
 115.0377560  36.5729500 144.7995110 116.2957150  37.1301220 144.1678640
 120.0202100  41.7018840 148.2210740 119.4014520  41.3638390 147.5737040
 120.0026550  41.0578600 148.9289930 111.5961450  40.6663280 150.4995220
 111.1918450  39.9540530 150.0041120 111.6824570  40.3216520 151.3883260
 118.1966800  40.9405650 145.2283490 118.6360080  40.1028080 145.0821310
 118.9095220  41.5735050 145.3147630 116.3062180  45.8801720 149.1964730
 116.7458090  46.6226050 148.7820120 116.2449070  46.1228290 150.1203690
 121.7783940  32.1948460 143.5424530 121.4656600  32.2875290 144.4423600
 122.5396410  32.7729490 143.4921960 108.2966080  39.5608260 148.0001870
 108.1763680  40.2870350 147.3883140 107.9866970  38.7911170 147.5229780
 107.1799080  44.4323590 150.2176690 106.7727160  44.5738180 149.3630290
 108.0712090  44.1483750 150.0147900 118.9732360  48.8670840 146.5527740
 118.8133500  48.5773780 147.4509570 118.8079070  48.0910970 146.0172970
 111.4520740  48.6469370 148.3299360 111.2763220  47.7304910 148.1167160
 110.5976480  49.0056660 148.5697160 118.6758490  46.3758400 145.1125740
 117.9823650  46.3735690 144.4528020 119.4181350  45.9517720 144.6819910
 118.2408420  48.0021110 149.1874230 118.6965370  47.2210490 149.5012850
 118.5800940  48.7127930 149.7315410 110.7629740  32.9043330 151.3825540
 110.3197890  33.6852870 151.0510060 111.3214730  33.2273220 152.0896480
 113.8788560  32.5254030 146.2631370 113.2542740  32.5213900 146.9884680
 113.7918680  31.6584990 145.8667340 110.5543960  38.0276900 149.1106790
 110.3284880  37.8114070 150.0153410 109.7736490  38.4605360 148.7652760
 117.7841720  38.0340270 147.7097440 117.1850610  38.7576070 147.5261060
 118.3321330  37.9717050 146.9273890 116.3906590  36.6703810 149.7400720
 116.7836160  36.9876010 148.9269410 116.7523440  35.7915690 149.8545240
 105.6140990  37.2024730 143.1733640 105.5315660  38.1455490 143.3148630
 105.2624050  37.0599640 142.2945990 113.4139120  35.9363760 152.2403990
 113.4175180  35.4953710 151.3908530 114.3090240  36.2581090 152.3475810
 109.2641500  35.8190250 151.1998200 108.9241550  36.2965480 151.9565250
 108.5018820  35.3655370 150.8399300 113.4759270  36.9375840 145.2310750
 113.5972090  36.8962320 146.1796570 113.0907780  37.7999990 145.0757480
 112.4880770  39.2476980 144.6294050 111.9197670  38.7995230 144.0029960
 113.1969770  39.6069760 144.0959200 106.5787580  34.7409230 150.1162870
 106.2934500  34.3764900 150.9541490 106.5166440  34.0089690 149.5026010
 110.0328250  43.2435170 146.9020460 109.2590510  42.7032790 146.7419180
 110.7622880  42.7241780 146.5638220 116.2526170  33.6338490 146.8376240
 115.4390780  33.1351660 146.7621550 116.0588120  34.4736740 146.4212590
 118.9674560  38.0058140 145.1338400 119.8554180  38.3175370 144.9589740
 118.9379650  37.1330390 144.7418980 110.0765650  42.9115550 150.5399270
 110.5944320  42.1083810 150.4856160 109.6249670  42.8494690 151.3816100
 114.9635150  44.1781830 145.8126570 115.3050850  44.9224060 145.3169890
 114.1347860  44.4912950 146.1751400 121.2388830  39.3169980 144.6018260
 121.1552550  39.7484200 143.7514700 121.9583020  39.7768330 145.0345080
 122.2676080  46.1712240 147.3300390 121.6252240  45.5167860 147.6044110
 121.8806740  46.5767330 146.5541060 117.8462560  43.4997670 151.1772080
 118.1986380  42.9025800 150.5173450 116.9624890  43.1741900 151.3480330
 113.9325840  44.2595360 148.5842490 114.6196970  44.8064570 148.9650080
 113.1458260  44.8036090 148.6192100 106.0718240  39.8768180 144.0759570
 106.9413090  40.1592980 144.3595490 105.5808560  40.6904050 143.9608380
 113.2353050  41.2641390 148.1967850 113.6915830  42.0746640 148.4228040
 112.8841260  40.9464530 149.0286340 109.1364830  31.6079040 148.6690370
 109.0079460  31.5996940 149.6175290 108.3126850  31.9462130 148.3181380
 120.6573460  45.0628700 143.8676740 120.4311040  44.3459140 144.4601380
 120.2669660  44.8141140 143.0298490 106.4389490  49.0895560 144.6421200
 106.7987130  49.6884900 143.9878470 106.2981830  49.6355450 145.4156230
 120.2389710  42.9800640 145.5290900 119.9511410  43.4413330 146.3168780
 121.0341880  42.5198410 145.7975120 112.4558110  46.4726760 145.4594870
 112.4468210  47.2056450 144.8439380 111.5356470  46.2258340 145.5521830
 108.0564750  41.6941650 146.2041630 107.4492700  42.4340550 146.2136930
 108.5314100  41.7841010 145.3779830 120.9959570  34.8149410 146.6886080
 120.3672730  34.9195080 145.9744310 120.5011490  35.0346190 147.4779960
 115.4417710  46.5355000 144.1220060 115.5429690  46.3318990 143.1922040
 114.5419450  46.2813280 144.3267840 112.9643600  37.0935360 148.1043960
 112.2559750  37.5621700 148.5457570 113.2488080  36.4357370 148.7389150
 116.9959030  33.8186020 149.5439750 116.8726810  33.8372150 148.5949260
 117.9443590  33.8664960 149.6638150 114.0835820  49.0541320 148.8167730
 114.3377320  49.0162710 147.8947100 113.1348300  48.9274650 148.8095980
 111.1678620  35.4020440 145.4794670 112.0169150  35.8390590 145.4134860
 110.8009890  35.7140700 146.3066730 120.0888400  39.9733200 150.3926240
 119.1478540  39.9883430 150.5673930 120.4032470  39.1869160 150.8386540
 110.0670040  41.6552800 143.9530200 110.8333310  41.5434160 144.5155630
 110.1444730  40.9590770 143.3006970 108.7616800  39.0877870 144.6363090
 108.8420390  38.1405380 144.7480490 109.6536550  39.4184750 144.7423750
 109.5631510  49.2373260 151.7397630 110.2993990  48.6888720 152.0106200
 109.9472430  50.1029270 151.6003620 106.4476990  45.3046830 147.6139140
 105.5216770  45.5467970 147.6044550 106.9133420  46.1321090 147.4923890
 112.6733820  48.4103570 143.5623200 113.4662430  48.6992400 143.1104990
 112.1538170  47.9795740 142.8835680 121.7263990  47.6373700 144.9859940
 121.4405500  47.2238840 144.1714120 121.5283540  48.5661410 144.8660460
 113.1911220  43.6306980 143.4265550 113.0861860  43.0159330 144.1526930
 113.0235440  43.1072870 142.6428560 116.4313950  42.6927010 144.0307540
 115.8824050  43.1396310 144.6750280 117.0533210  42.1876260 144.5545210
 112.0989070  41.6517930 145.9272840 112.5205490  41.4857800 146.7704230
 112.2239910  40.8418160 145.4327980 114.6116710  40.6755540 143.1749940
 115.1322370  39.9604560 142.8091090 115.2585110  41.3141410 143.4750450
 110.9947970  37.7251160 142.8731000 110.7937030  36.8618520 143.2344340
 110.8240020  37.6384520 141.9352600 118.4736280  32.5359390 145.4017880
 118.7538570  31.6927290 145.7577300 117.7002010  32.7682500 145.9156630
 109.7930770  34.8251780 142.8608880 110.0956670  34.8319210 141.9528030
 110.5325360  34.4749640 143.3576540 113.0115700  33.7686400 143.8465080
 112.6637700  33.0910390 143.2667530 113.2128470  33.3075910 144.6608470
 115.1764740  48.7567150 145.4651680 116.0715530  49.0952120 145.4870440
 115.2082370  48.0346560 144.8375960 108.8160900  44.1294200 143.6938680
 109.2535770  44.6723870 144.3496260 109.3008630  43.3041150 143.7035020
 106.0306700  46.9183230 151.1458940 106.3609710  46.0504290 150.9137580
 106.4597700  47.1241750 151.9763900 110.6268620  45.2492240 148.8060910
 110.3264160  45.1257210 149.7064820 110.5206110  44.3900830 148.3976640
 123.3960540  45.0288640 143.5087590 122.5653500  45.0965290 143.9794820
 123.5732370  45.9192760 143.2054450 122.8517000  41.7736120 146.0121790
 123.6135910  42.3432770 146.1181480 122.8671370  41.2063320 146.7830100
 106.3521340  40.2974050 150.2429450 105.6970180  40.0285690 149.5989150
 107.1899290  40.1878530 149.7931430 123.8576970  42.6286220 150.8563720
 124.2285800  41.8453540 150.4499690 124.4978900  43.3175320 150.6781020
 122.9036170  42.0670490 143.1694310 123.1785010  42.9749370 143.0413530
 122.7146910  42.0033020 144.1056300 119.3011780  35.0915340 144.4647940
 119.7196660  34.9046320 143.6244600 118.9947840  34.2394390 144.7750870
 122.8001510  40.0039480 148.1623740 122.4245110  39.2367410 147.7305030
 122.0704630  40.3862180 148.6498670 105.5659420  37.5072980 146.1854780
 104.6623500  37.7703180 146.0106440 106.0500040  37.7784150 145.4054740
 122.0752470  38.2296970 151.4630980 122.5989950  37.7359620 150.8321150
 122.6611890  38.3647330 152.2078550 108.1086630  36.5638520 144.0949160
 108.8178330  36.1421740 143.6096440 107.3926570  36.6313750 143.4632510
 107.7560790  32.6177850 143.1351810 108.4788920  33.1586790 143.4533030
 108.0285310  32.3441270 142.2593350 121.5652440  37.4870320 147.4023390
 122.0611560  37.2541190 148.1872270 121.3668510  36.6482160 146.9861030
 122.9939600  36.1231270 149.9361070 122.8838880  35.9687310 150.8743340
 123.7547190  35.5952210 149.6936480 123.8829870  33.9539190 143.1767210
 124.8079180  33.8220370 142.9685500 123.8605660  34.0332010 144.1303660
 123.9568360  34.7249850 145.8023920 123.1619860  34.6594970 146.3316830
 124.1611640  35.6600490 145.7909270 120.8986780  48.7641400 149.7962310
 121.4945850  48.4425970 149.1196730 121.1564930  48.2913220 150.5875580
 120.3888290  33.0546730 152.2522750 120.8296380  32.9991830 151.4044350
 120.1195880  33.9704740 152.3232930 122.2526860  32.6861970 150.2631570
 122.1915260  31.7423190 150.1162590 123.0318890  32.7942060 150.8085030
 106.5579610  48.8254330 149.2255520 106.3901650  48.1925010 149.9237410
 105.6914120  49.0313730 148.8749710 107.1807630  32.6571110 146.7287380
 107.9386990  32.7699990 146.1551410 106.7184800  33.4940310 146.6830810
 113.7221440  34.7710380 149.7189690 112.9095950  34.3967270 149.3785570
 114.2263080  34.0155460 150.0210880 118.2246420  31.4352830 150.9572760
 118.8275790  32.0073040 151.4321280 117.4839410  31.9992270 150.7346660
 121.3681020  31.8374390 146.2313040 121.5631650  32.7357840 146.4980470
 120.5810890  31.6061470 146.7245990 108.1642310  47.5187560 146.6705660
 107.6389930  47.8995590 145.9667620 108.0886890  48.1438330 147.3915370
 109.5532780  33.1835160 145.2689350 110.0825540  32.3964960 145.1397300
 110.1861100  33.8626350 145.5024880 111.7470620  32.9210300 148.3234740
 111.1173360  32.2197610 148.4904870 111.2075760  33.6814430 148.1067900
 122.9207630  49.0775100 147.9919600 123.0959820  48.3912840 147.3480520
 122.2229200  49.6022150 147.5996270 110.7635280  49.4669940 145.5454910
 111.4954100  49.1829220 144.9978800 111.0228950  49.2283220 146.4354290
 109.9250070  45.5834670 145.5501240 109.2958950  46.0519770 146.0987070
 110.0397900  44.7383890 145.9847430 117.3799790  39.6340330 131.7002440
 117.2993840  38.7194940 131.4294150 116.9664210  40.1307400 130.9942150
 115.5117830  41.4119350 133.5811710 114.7359930  40.9319790 133.8710280
 116.1630760  40.7325000 133.4067870 109.5283660  41.7239160 134.4587470
 108.6968540  41.4687870 134.8583980 110.1364640  41.7949930 135.1945390
 119.5325260  45.8179540 132.3610840 119.0706790  45.0466780 132.6898010
 120.3450810  45.8445610 132.8663290 109.5084920  45.7579250 134.6545490
 109.8112960  44.8676990 134.4755710 110.2528510  46.3149470 134.4267740
 107.9375610  36.6841050 128.2429860 107.0492310  37.0257020 128.1409740
 108.2216800  36.4841370 127.3510690 105.9008620  39.2846700 134.1269560
 106.4724730  38.5168900 134.1273200 105.9010160  39.5835460 133.2176170
 115.7588570  48.1037550 131.9814830 115.1400010  48.5595050 131.4109270
 116.6140350  48.2589010 131.5804530 114.9526820  44.0876540 133.5881870
 114.8835100  43.1466480 133.4271000 115.7146680  44.1777950 134.1604440
 107.1433490  34.6931060 135.9138490 106.9636330  33.7956810 136.1941250
 106.7413570  35.2402930 136.5885440 115.9831990  36.8946920 133.8150800
 116.3596810  36.0218800 133.7024470 115.8851500  37.2305620 132.9241240
 110.1137000  35.2672550 129.2768240 110.2203750  36.1676280 129.5837000
 109.2029360  35.2190520 128.9862890 119.7656110  34.3897360 130.7479140
 120.5865730  33.8993930 130.7904620 119.7990190  34.9795020 131.5010980
 107.7620160  37.1891560 134.5220830 108.4430270  37.4529930 135.1408230
 107.4468210  36.3492430 134.8558840 111.9544730  38.2358920 133.6093420
 112.4622950  38.7339890 134.2498440 112.4857970  37.4594120 133.4332780
 124.0555660  36.4064110 137.3122770 123.3507830  36.7945820 136.7937880
 124.3213580  37.1014400 137.9143700 110.2380830  32.8757480 137.8756840
 110.2399270  33.3929870 137.0702740 109.4085140  32.3987660 137.8526770
 116.6251920  42.9876790 129.3746740 116.0069190  43.4526240 128.8109460
 117.1375170  43.6804270 129.7916250 111.4883680  42.5152660 136.0530340
 111.1553060  43.1421580 136.6951410 111.6650360  43.0414540 135.2732010
 120.0017590  36.3297740 133.5206680 119.2973160  36.6182630 134.1009790
 120.3629750  37.1397850 133.1606240 109.9196160  34.5867440 135.8827290
 110.2612970  35.4309490 135.5881160 108.9811970  34.7351180 135.9992630
 110.7002780  44.4833460 137.8679520 111.3176780  45.1584540 137.5863970
 109.8395900  44.8921440 137.7767020 121.6180370  45.9472870 135.7834160
 120.9343890  46.6171980 135.7750830 122.1574660  46.1453520 135.0179020
 123.0704510  35.7752530 133.9115890 122.1229420  35.8091510 134.0431320
 123.3954500  36.5891480 134.2965250 113.6024050  32.0749710 132.2071880
 113.9099030  31.5196600 131.4907380 112.6724750  32.2094170 132.0244870
 119.1539110  47.7917000 134.4979340 119.1666270  47.3879290 133.6301600
 118.6014330  48.5664290 134.3940770 120.4484530  44.5133220 129.5869510
 120.3380860  43.5707550 129.7118930 120.4452780  44.8748860 130.4732270
 118.5524550  42.6946840 135.8261950 118.9693340  42.4806950 134.9915410
 119.2764370  42.9519630 136.3970570 115.9904810  40.1398540 128.9432000
 115.0634090  40.0735920 129.1720470 116.1429630  41.0778670 128.8287240
 115.9773890  36.4115540 125.9399160 115.0377560  36.5729500 126.0251620
 116.2957150  37.1301220 125.3935150 122.4986650  41.0934060 135.9178190
 121.6705280  41.1627150 135.4428320 123.0937130  41.6788370 135.4494020
 120.0202100  41.7018840 129.4467250 119.4014520  41.3638390 128.7993550
 120.0026550  41.0578600 130.1546440 119.4628660  37.8803380 136.8633060
 119.0499840  38.7057090 137.1173050 118.7304610  37.2948420 136.6709420
 111.5961450  40.6663280 131.7251730 111.1918450  39.9540530 131.2297630
 111.6824570  40.3216520 132.6139770 112.0643150  44.3530840 133.8890940
 111.7671440  43.7476310 133.2098720 113.0142970  44.3908150 133.7780300
 110.3090070  37.4406490 135.5050770 110.8604660  37.5501830 134.7304020
 110.8233580  37.8144090 136.2206000 120.1528760  47.9262710 137.5514040
 119.6759320  48.7334900 137.3586650 119.4690550  47.2741040 137.7040250
 111.1561580  44.0912530 140.5398740 110.2590110  44.3152500 140.7872140
 111.1814450  44.2147470 139.5910140 118.1966800  40.9405650 126.4540000
 118.6360080  40.1028080 126.3077820 118.9095220  41.5735050 126.5404140
 109.9832800  40.9625850 139.1156110 109.8440570  41.8348650 139.4843510
 109.1014160  40.6198660 138.9704050 116.3062180  45.8801720 130.4221240
 116.7458090  46.6226050 130.0076630 116.2449070  46.1228290 131.3460200
 111.7813150  46.9047550 141.3241260 111.7528580  47.3090500 140.4569690
 111.6178120  45.9757910 141.1612860 121.7783940  32.1948460 124.7681040
 121.4656600  32.2875290 125.6680110 122.5396410  32.7729490 124.7178470
 108.2966080  39.5608260 129.2258380 108.1763680  40.2870350 128.6139650
 107.9866970  38.7911170 128.7486290 123.7327970  47.6874650 142.6205430
 124.2087690  48.1657540 143.2994510 124.3535130  47.6192140 141.8950930
 105.9351450  42.7323400 135.0327020 106.0131870  42.8672170 134.0882740
 106.5493130  42.0239290 135.2255140 107.1799080  44.4323590 131.4433200
 106.7727160  44.5738180 130.5886800 108.0712090  44.1483750 131.2404410
 123.1361220  44.8787500 139.7805440 123.2624280  44.6399380 138.8622620
 123.1782600  44.0472040 140.2527520 116.9977960  48.5815500 138.3500250
 117.5122630  48.4923510 139.1522680 116.1547040  48.9275200 138.6428160
 118.9732360  48.8670840 127.7784250 118.8133500  48.5773780 128.6766080
 118.8079070  48.0910970 127.2429480 111.4520740  48.6469370 129.5555870
 111.2763220  47.7304910 129.3423670 110.5976480  49.0056660 129.7953670
 118.6758490  46.3758400 126.3382250 117.9823650  46.3735690 125.6784530
 119.4181350  45.9517720 125.9076420 118.2408420  48.0021110 130.4130740
 118.6965370  47.2210490 130.7269360 118.5800940  48.7127930 130.9571920
 122.9885230  36.9319960 140.7455180 122.3729500  37.4399630 140.2170640
 122.6681650  36.0318290 140.6881120 105.9910970  43.7737570 137.5721480
 106.1542010  43.3042930 136.7540850 106.4563420  43.2661130 138.2370320
 110.7629740  32.9043330 132.6082050 110.3197890  33.6852870 132.2766570
 111.3214730  33.2273220 133.3152990 115.0499550  35.7711850 138.2117370
 114.5878920  35.9794870 139.0237310 114.6477660  34.9571200 137.9088040
 120.0504060  36.9920800 139.3414030 119.1997650  36.6926550 139.6623100
 119.8905850  37.2362810 138.4297850 117.1453770  38.4922550 141.4412820
 117.4707180  37.6586300 141.1015050 117.9334100  39.0151070 141.5891150
 113.8788560  32.5254030 127.4887880 113.2542740  32.5213900 128.2141190
 113.7918680  31.6584990 127.0923850 112.8005640  33.4490660 134.4671650
 113.0977970  34.3553490 134.3863670 113.3491200  32.9609440 133.8531220
 110.5543960  38.0276900 130.3363300 110.3284880  37.8114070 131.2409920
 109.7736490  38.4605360 129.9909270 117.7841720  38.0340270 128.9353950
 117.1850610  38.7576070 128.7517570 118.3321330  37.9717050 128.1530400
 112.9943170  38.9262480 141.0023570 112.8986770  37.9857210 140.8523970
 113.8375150  39.1477550 140.6071640 116.3906590  36.6703810 130.9657230
 116.7836160  36.9876010 130.1525920 116.7523440  35.7915690 131.0801750
 108.1253710  35.3376150 139.1557350 107.7317100  36.1851360 139.3630130
 107.4372110  34.7002520 139.3465990 114.6998760  35.4211120 142.2254090
 114.0097080  35.2283320 142.8600180 115.4431060  35.7045760 142.7578390
 105.4270760  33.2604610 133.1887430 105.1383810  33.8307470 133.9012410
 106.1716520  32.7809060 133.5518660 105.6140990  37.2024730 124.3990150
 105.5315660  38.1455490 124.5405140 105.2624050  37.0599640 123.5202500
 116.9761730  39.2609560 135.0608010 116.2442850  39.7696370 135.4098110
 116.5786070  38.4439540 134.7596790 113.4139120  35.9363760 133.4660500
 113.4175180  35.4953710 132.6165040 114.3090240  36.2581090 133.5732320
 109.2641500  35.8190250 132.4254710 108.9241550  36.2965480 133.1821760
 108.5018820  35.3655370 132.0655810 113.4759270  36.9375840 126.4567260
 113.5972090  36.8962320 127.4053080 113.0907780  37.7999990 126.3013990
 117.4387640  34.7143240 134.4730950 117.4560380  35.1651890 135.3172800
 117.1903220  33.8148880 134.6864390 112.4880770  39.2476980 125.8550560
 111.9197670  38.7995230 125.2286470 113.1969770  39.6069760 125.3215710
 120.8658390  32.1275420 140.3117330 121.1904160  31.3965080 140.8375310
 120.9014900  31.8089060 139.4098320 107.5649950  43.1489000 139.7317290
 107.1804740  42.5082670 140.3300250 107.8762140  43.8525120 140.3012020
 113.7147090  39.9965540 135.2125910 114.0817220  39.5224110 135.9587250
 113.5252150  40.8707110 135.5534250 106.5787580  34.7409230 131.3419380
 106.2934500  34.3764900 132.1798000 106.5166440  34.0089690 130.7282520
 111.5046460  39.0374180 137.5310120 111.2003530  39.9166160 137.7560480
 112.4592920  39.0973970 137.5667560 110.0328250  43.2435170 128.1276970
 109.2590510  42.7032790 127.9675690 110.7622880  42.7241780 127.7894730
 120.7916230  42.2400530 133.9203360 121.5115350  42.7355820 133.5299470
 120.5898050  41.5618420 133.2757230 116.2526170  33.6338490 128.0632750
 115.4390780  33.1351660 127.9878060 116.0588120  34.4736740 127.6469100
 116.1735030  42.3109590 139.8072360 116.1072340  41.3905260 139.5529950
 115.5440170  42.4085030 140.5217000 118.9674560  38.0058140 126.3594910
 119.8554180  38.3175370 126.1846250 118.9379650  37.1330390 125.9675490
 110.0765650  42.9115550 131.7655780 110.5944320  42.1083810 131.7112670
 109.6249670  42.8494690 132.6072610 114.9635150  44.1781830 127.0383080
 115.3050850  44.9224060 126.5426400 114.1347860  44.4912950 127.4007910
 107.5610190  39.8776920 138.6781480 107.2025130  40.5430770 139.2654820
 107.2664750  39.0460470 139.0494100 110.7623310  40.3361160 141.5621030
 110.4623450  40.4818340 140.6648850 111.5334550  39.7766450 141.4694420
 116.1051760  45.1330160 139.5576160 116.1196300  44.2011120 139.3395070
 115.3976860  45.2189920 140.1965930 121.2388830  39.3169980 125.8274770
 121.1552550  39.7484200 124.9771210 121.9583020  39.7768330 126.2601590
 122.3162970  41.7737500 138.9044740 121.5911160  42.3666280 138.7074130
 122.8438430  41.7661040 138.1058110 122.2676080  46.1712240 128.5556900
 121.6252240  45.5167860 128.8300620 121.8806740  46.5767330 127.7797570
 117.8462560  43.4997670 132.4028590 118.1986380  42.9025800 131.7429960
 116.9624890  43.1741900 132.5736840 113.9325840  44.2595360 129.8099000
 114.6196970  44.8064570 130.1906590 113.1458260  44.8036090 129.8448610
 113.2353050  41.2641390 129.4224360 113.6915830  42.0746640 129.6484550
 112.8841260  40.9464530 130.2542850 115.5385660  46.7747730 136.6516660
 116.1827880  46.9807110 137.3290080 115.9015100  46.0136130 136.1987510
 109.1364830  31.6079040 129.8946880 109.0079460  31.5996940 130.8431800
 108.3126850  31.9462130 129.5437890 116.8117740  44.7780080 135.3694110
 117.4539970  44.0773240 135.4826280 117.3367090  45.5578520 135.1891000
 120.6573460  45.0628700 125.0933250 120.4311040  44.3459140 125.6857890
 120.2669660  44.8141140 124.2555000 118.5855360  45.5774980 138.5730170
 118.9211600  46.1641670 139.2508090 117.6655700  45.4467690 138.8027960
 106.4389490  49.0895560 125.8677710 106.7987130  49.6884900 125.2134980
 106.2981830  49.6355450 126.6412740 106.1358760  33.3670160 139.3553580
 105.4217280  33.5667080 139.9606190 106.5553800  32.5909730 139.7268380
 120.2389710  42.9800640 126.7547410 119.9511410  43.4413330 127.5425290
 121.0341880  42.5198410 127.0231630 106.4231350  47.3550420 140.3420110
 106.5322470  46.4145160 140.2015500 105.7711910  47.6205170 139.6933840
 114.4143940  45.6266310 141.7418230 114.0940810  44.9075550 142.2863920
 113.7402300  46.3021380 141.8154290 112.4558110  46.4726760 126.6851380
 112.4468210  47.2056450 126.0695890 111.5356470  46.2258340 126.7778340
 108.0564750  41.6941650 127.4298140 107.4492700  42.4340550 127.4393440
 108.5314100  41.7841010 126.6036340 117.6297540  35.8592470 137.1055030
 117.9978360  35.0387680 137.4334600 116.7695740  35.9194360 137.5210680
 120.9959570  34.8149410 127.9142590 120.3672730  34.9195080 127.2000820
 120.5011490  35.0346190 128.7036470 115.4417710  46.5355000 125.3476570
 115.5429690  46.3318990 124.4178550 114.5419450  46.2813280 125.5524350
 112.9643600  37.0935360 129.3300470 112.2559750  37.5621700 129.7714080
 113.2488080  36.4357370 129.9645660 114.5899530  38.5132060 137.3293000
 115.0884780  38.9877880 137.9944850 114.7322480  37.5895580 137.5363030
 116.9959030  33.8186020 130.7696260 116.8726810  33.8372150 129.8205770
 117.9443590  33.8664960 130.8894660 114.0835820  49.0541320 130.0424240
 114.3377320  49.0162710 129.1203610 113.1348300  48.9274650 130.0352490
 111.1678620  35.4020440 126.7051180 112.0169150  35.8390590 126.6391370
 110.8009890  35.7140700 127.5323240 121.7966390  34.7300020 138.1721390
 121.2939990  35.4705420 138.5115200 122.6123050  35.1184020 137.8558180
 120.0888400  39.9733200 131.6182750 119.1478540  39.9883430 131.7930440
 120.4032470  39.1869160 132.0643050 110.0670040  41.6552800 125.1786710
 110.8333310  41.5434160 125.7412140 110.1444730  40.9590770 124.5263480
 108.7616800  39.0877870 125.8619600 108.8420390  38.1405380 125.9737000
 109.6536550  39.4184750 125.9680260 122.0913980  47.1442050 133.2937010
 122.2161400  47.9673220 133.7660820 122.9579540  46.9332780 132.9461160
 109.5631510  49.2373260 132.9654140 110.2993990  48.6888720 133.2362710
 109.9472430  50.1029270 132.8260130 106.4476990  45.3046830 128.8395650
 105.5216770  45.5467970 128.8301060 106.9133420  46.1321090 128.7180400
 108.5689790  48.4219330 142.1539720 109.3702520  48.7431380 142.5675120
 108.0541610  48.0614910 142.8759630 112.6733820  48.4103570 124.7879710
 113.4662430  48.6992400 124.3361500 112.1538170  47.9795740 124.1092190
 117.4054420  44.5299200 142.1015130 116.7992580  44.5530800 141.3610880
 117.1008530  43.7982240 142.6382380 118.8354790  48.2579490 140.7124540
 119.7876540  48.1737510 140.6624780 118.6883010  48.9221200 141.3858330
 121.7263990  47.6373700 126.2116450 121.4405500  47.2238840 125.3970630
 121.5283540  48.5661410 126.0916970 106.2887600  40.9092790 141.0975770
 106.7926620  40.3300070 141.6692000 105.5495020  41.1933020 141.6352140
 113.1911220  43.6306980 124.6522060 113.0861860  43.0159330 125.3783440
 113.0235440  43.1072870 123.8685070 113.3425540  42.3163780 140.6311290
 112.5771210  42.8848780 140.5465960 113.5241500  42.0239990 139.7379520
 116.4313950  42.6927010 125.2564050 115.8824050  43.1396310 125.9006790
 117.0533210  42.1876260 125.7801720 120.4848890  44.0469110 141.1886310
 121.2258360  44.3844870 140.6853770 119.7221570  44.2161170 140.6356080
 108.3210680  39.0522380 141.9925840 108.3616020  38.7536250 142.9011070
 109.1756180  39.4529990 141.8333360 112.0989070  41.6517930 127.1529350
 112.5205490  41.4857800 127.9960740 112.2239910  40.8418160 126.6584490
 110.2616490  37.6314480 139.9600330 109.7312950  37.1405430 139.3323670
 110.9304560  38.0598680 139.4258260 114.6116710  40.6755540 124.4006450
 115.1322370  39.9604560 124.0347600 115.2585110  41.3141410 124.7006960
 119.1594550  42.0983940 139.7241520 119.5735570  42.2529020 140.5731940
 118.2245550  42.2239160 139.8867300 119.6316720  39.4380100 141.7280670
 120.2137490  38.6832420 141.6401150 119.8078490  39.9687540 140.9512150
 110.7488790  34.5976850 140.0397620 110.6545660  33.9797600 139.3148490
 110.1686180  35.3243140 139.8127530 113.5150230  33.1550090 137.0725010
 113.0667530  33.1774350 136.2270560 112.8815430  32.7569110 137.6695310
 113.9209780  42.0504420 137.6937450 114.3397890  42.8937150 137.5213690
 113.0018410  42.1876460 137.4644230 116.2573680  39.7820600 139.0775290
 116.3769890  39.1861740 139.8170130 117.1167680  39.8190290 138.6576590
 118.5961580  40.3357790 137.6537800 118.0696800  40.8600410 137.0502940
 118.9392920  40.9685180 138.2847530 110.9947970  37.7251160 124.0987510
 110.7937030  36.8618520 124.4600850 110.8240020  37.6384520 123.1609110
 111.7717200  48.3557430 138.8095180 111.2338290  49.0803490 138.4903880
 112.0251160  47.8787770 138.0192520 113.0242450  36.3241950 140.3351110
 113.6142140  36.0157800 141.0228930 112.2062690  35.8521700 140.4911010
 117.8435880  35.9407760 140.5684130 117.1551400  35.2789300 140.5034120
 118.5641900  35.4946030 141.0132590 118.4736280  32.5359390 126.6274390
 118.7538570  31.6927290 126.9833810 117.7002010  32.7682500 127.1413140
 109.7930770  34.8251780 124.0865390 110.0956670  34.8319210 123.1784540
 110.5325360  34.4749640 124.5833050 114.6279410  49.5908640 139.0681830
 114.5538110  50.4943780 139.3754200 113.7258250  49.2720540 139.0403900
 113.0115700  33.7686400 125.0721590 112.6637700  33.0910390 124.4924040
 113.2128470  33.3075910 125.8864980 115.1764740  48.7567150 126.6908190
 116.0715530  49.0952120 126.7126950 115.2082370  48.0346560 126.0632470
 108.8160900  44.1294200 124.9195190 109.2535770  44.6723870 125.5752770
 109.3008630  43.3041150 124.9291530 106.0306700  46.9183230 132.3715450
 106.3609710  46.0504290 132.1394090 106.4597700  47.1241750 133.2020410
 110.6268620  45.2492240 130.0317420 110.3264160  45.1257210 130.9321330
 110.5206110  44.3900830 129.6233150 106.5196910  47.7853820 135.1097080
 106.0827900  47.9654620 135.9421230 107.0874590  48.5428440 134.9678800
 122.1559090  47.2870820 139.3974390 121.5561080  47.3463380 138.6538310
 122.2852990  46.3475800 139.5271240 123.3960540  45.0288640 124.7344100
 122.5653500  45.0965290 125.2051330 123.5732370  45.9192760 124.4310960
 122.8517000  41.7736120 127.2378300 123.6135910  42.3432770 127.3437990
 122.8671370  41.2063320 128.0086610 106.3521340  40.2974050 131.4685960
 105.6970180  40.0285690 130.8245660 107.1899290  40.1878530 131.0187940
 123.8576970  42.6286220 132.0820230 124.2285800  41.8453540 131.6756200
 124.4978900  43.3175320 131.9037530 120.8410730  44.0122800 137.4950550
 120.0270570  44.4419960 137.7576340 121.2484930  44.6241210 136.8819600
 122.9036170  42.0670490 124.3950820 123.1785010  42.9749370 124.2670040
 122.7146910  42.0033020 125.3312810 119.3011780  35.0915340 125.6904450
 119.7196660  34.9046320 124.8501110 118.9947840  34.2394390 126.0007380
 122.8001510  40.0039480 129.3880250 122.4245110  39.2367410 128.9561540
 122.0704630  40.3862180 129.8755180 107.3897270  40.6826620 136.0089300
 107.7570310  40.5954020 136.8885320 106.8208090  39.9193170 135.9096160
 122.1901130  39.1511000 139.0219770 121.9587220  38.9223750 138.1217720
 122.4505680  40.0710550 138.9764660 106.9413270  37.5935710 139.9147720
 106.0469320  37.5602470 140.2541430 107.4810820  37.7922500 140.6798970
 120.6289200  34.3767430 141.7999470 121.5059380  34.3850830 142.1833470
 120.6410040  33.6398270 141.1891820 105.5659420  37.5072980 127.4111290
 104.6623500  37.7703180 127.2362950 106.0500040  37.7784150 126.6311250
 122.0752470  38.2296970 132.6887490 122.5989950  37.7359620 132.0577660
 122.6611890  38.3647330 133.4335060 122.2542190  38.3136840 136.2107040
 121.3044900  38.2800380 136.3252030 122.4355200  39.2236950 135.9756810
 108.1086630  36.5638520 125.3205670 108.8178330  36.1421740 124.8352950
 107.3926570  36.6313750 124.6889020 107.7560790  32.6177850 124.3608320
 108.4788920  33.1586790 124.6789540 108.0285310  32.3441270 123.4849860
 121.5652440  37.4870320 128.6279900 122.0611560  37.2541190 129.4128780
 121.3668510  36.6482160 128.2117540 107.4452980  31.8684040 134.2630940
 108.0929170  31.3181420 133.8226100 107.8654820  32.1227190 135.0846750
 122.9939600  36.1231270 131.1617580 122.8838880  35.9687310 132.0999850
 123.7547190  35.5952210 130.9192990 121.3405320  32.0625400 137.6200580
 121.9777540  32.6759540 137.9859770 121.4880210  32.0986060 136.6749810
 123.8829870  33.9539190 124.4023720 124.8079180  33.8220370 124.1942010
 123.8605660  34.0332010 125.3560170 123.9568360  34.7249850 127.0280430
 123.1619860  34.6594970 127.5573340 124.1611640  35.6600490 127.0165780
 120.8986780  48.7641400 131.0218820 121.4945850  48.4425970 130.3453240
 121.1564930  48.2913220 131.8132090 107.1984980  32.0239710 137.0056260
 106.8499800  32.4803530 137.7714440 106.8672680  31.1296840 137.0878690
 108.8049350  45.1959310 141.1709450 108.7618980  44.8252220 142.0523910
 108.9360360  46.1336880 141.3111270 112.5055380  46.7518900 136.7719170
 112.2646740  47.0193460 135.8849690 113.4458020  46.9224630 136.8270030
 114.7109800  33.2151590 140.5275680 114.6498690  33.8073420 141.2771090
 115.6510180  33.1077550 140.3825940 117.3484360  32.8721650 140.1667970
 117.9624770  33.1900940 139.5049050 117.8933920  32.3870240 140.7863830
 123.7659540  48.7713280 137.5729810 123.2717820  49.1682150 136.8556940
 123.1572830  48.1462490 137.9667090 107.8705620  31.5515910 140.2807030
 108.4188610  31.3703960 139.5173140 107.9360930  30.7610020 140.8163340
 108.6437380  48.1421560 138.2907230 108.0497700  48.0106260 139.0297270
 108.6361220  47.3059700 137.8249330 118.0892400  31.4353790 136.4937260
 117.2152240  31.7688900 136.2910190 117.9803150  30.9626970 137.3189130
 118.9964380  33.6424660 137.8778980 118.6677740  32.8276420 137.4980710
 119.9446680  33.5994470 137.7544670 121.4498990  49.4136700 134.8516550
 120.9901960  50.1652510 134.4774570 120.8211450  48.6943170 134.7931350
 108.2749610  45.5079940 137.2415270 107.5483670  44.8885230 137.1741220
 108.3358760  45.9020550 136.3713350 111.8794710  47.7224940 134.0264680
 112.3959730  47.1112300 133.5012940 112.5292090  48.2253720 134.5175690
 114.6190210  48.6133430 134.8533660 114.9068020  48.3587730 133.9766670
 115.1313430  48.0610790 135.4439230 115.8367220  32.3523630 135.4330170
 115.0539010  32.8269130 135.7126930 115.5430150  31.4478460 135.3243350
 120.3888290  33.0546730 133.4779260 120.8296380  32.9991830 132.6300860
 120.1195880  33.9704740 133.5489440 122.2526860  32.6861970 131.4888080
 122.1915260  31.7423190 131.3419100 123.0318890  32.7942060 132.0341540
 106.5579610  48.8254330 130.4512030 106.3901650  48.1925010 131.1493920
 105.6914120  49.0313730 130.1006220 107.1807630  32.6571110 127.9543890
 107.9386990  32.7699990 127.3807920 106.7184800  33.4940310 127.9087320
 113.7221440  34.7710380 130.9446200 112.9095950  34.3967270 130.6042080
 114.2263080  34.0155460 131.2467390 118.2246420  31.4352830 132.1829270
 118.8275790  32.0073040 132.6577790 117.4839410  31.9992270 131.9603170
 121.3681020  31.8374390 127.4569550 121.5631650  32.7357840 127.7236980
 120.5810890  31.6061470 127.9502500 108.1642310  47.5187560 127.8962170
 107.6389930  47.8995590 127.1924130 108.0886890  48.1438330 128.6171880
 109.5532780  33.1835160 126.4945860 110.0825540  32.3964960 126.3653810
 110.1861100  33.8626350 126.7281390 111.7470620  32.9210300 129.5491250
 111.1173360  32.2197610 129.7161380 111.2075760  33.6814430 129.3324410
 114.6862570  49.5349530 142.2201860 115.6129880  49.2993800 142.2637820
 114.6713000  50.3621530 141.7387890 122.9207630  49.0775100 129.2176110
 123.0959820  48.3912840 128.5737030 122.2229200  49.6022150 128.8252780
 111.8726180  32.1994280 141.9843740 111.5910450  32.7027880 141.2204560
 112.2545880  31.4016030 141.6185870 110.7635280  49.4669940 126.7711420
 111.4954100  49.1829220 126.2235310 111.0228950  49.2283220 127.6610800
 109.9250070  45.5834670 126.7757750 109.2958950  46.0519770 127.3243580
 110.0397900  44.7383890 127.2103940 118.4741640  31.6147860 142.5624210
 118.3607090  31.9342470 143.4575730 119.2911380  32.0160370 142.2661490
 121.2540130  48.7619390 142.0442900 122.0465450  48.2668620 141.8368860
 121.5473280  49.4409530 142.6518510 117.3799790  39.6340330 112.9258950
 117.2993840  38.7194940 112.6550660 116.9664210  40.1307400 112.2198660
 115.5117830  41.4119350 114.8068220 114.7359930  40.9319790 115.0966790
 116.1630760  40.7325000 114.6324380 109.5283660  41.7239160 115.6843980
 108.6968540  41.4687870 116.0840490 110.1364640  41.7949930 116.4201900
 119.5325260  45.8179540 113.5867350 119.0706790  45.0466780 113.9154520
 120.3450810  45.8445610 114.0919800 109.5084920  45.7579250 115.8802000
 109.8112960  44.8676990 115.7012220 110.2528510  46.3149470 115.6524250
 107.9375610  36.6841050 109.4686370 107.0492310  37.0257020 109.3666250
 108.2216800  36.4841370 108.5767200 114.9526820  44.0876540 114.8138380
 114.8835100  43.1466480 114.6527510 115.7146680  44.1777950 115.3860950
 115.9831990  36.8946920 115.0407310 116.3596810  36.0218800 114.9280980
 115.8851500  37.2305620 114.1497750 110.1137000  35.2672550 110.5024750
 110.2203750  36.1676280 110.8093510 109.2029360  35.2190520 110.2119400
 119.7656110  34.3897360 111.9735650 120.5865730  33.8993930 112.0161130
 119.7990190  34.9795020 112.7267490 111.9544730  38.2358920 114.8349930
 112.4622950  38.7339890 115.4754950 112.4857970  37.4594120 114.6589290
 124.0555660  36.4064110 118.5379280 123.3507830  36.7945820 118.0194390
 124.3213580  37.1014400 119.1400210 110.2380830  32.8757480 119.1013350
 110.2399270  33.3929870 118.2959250 109.4085140  32.3987660 119.0783280
 111.4883680  42.5152660 117.2786850 111.1553060  43.1421580 117.9207920
 111.6650360  43.0414540 116.4988520 120.0017590  36.3297740 114.7463190
 119.2973160  36.6182630 115.3266300 120.3629750  37.1397850 114.3862750
 109.9196160  34.5867440 117.1083800 110.2612970  35.4309490 116.8137670
 108.9811970  34.7351180 117.2249140 110.7002780  44.4833460 119.0936030
 111.3176780  45.1584540 118.8120480 109.8395900  44.8921440 119.0023530
 121.6180370  45.9472870 117.0090670 120.9343890  46.6171980 117.0007340
 122.1574660  46.1453520 116.2435530 123.0704510  35.7752530 115.1372400
 122.1229420  35.8091510 115.2687830 123.3954500  36.5891480 115.5221760
 113.6024050  32.0749710 113.4328390 113.9099030  31.5196600 112.7163890
 112.6724750  32.2094170 113.2501380 119.1539110  47.7917000 115.7235850
 119.1666270  47.3879290 114.8558110 118.6014330  48.5664290 115.6197280
 120.4484530  44.5133220 110.8126020 120.3380860  43.5707550 110.9375440
 120.4452780  44.8748860 111.6988780 118.5524550  42.6946840 117.0518460
 118.9693340  42.4806950 116.2171920 119.2764370  42.9519630 117.6227080
 115.9904810  40.1398540 110.1688510 115.0634090  40.0735920 110.3976980
 116.1429630  41.0778670 110.0543750 115.9773890  36.4115540 107.1655670
 115.0377560  36.5729500 107.2508130 116.2957150  37.1301220 106.6191660
 122.4986650  41.0934060 117.1434700 121.6705280  41.1627150 116.6684830
 123.0937130  41.6788370 116.6750530 120.0202100  41.7018840 110.6723760
 119.4014520  41.3638390 110.0250060 120.0026550  41.0578600 111.3802950
 119.4628660  37.8803380 118.0889570 119.0499840  38.7057090 118.3429560
 118.7304610  37.2948420 117.8965930 111.5961450  40.6663280 112.9508240
 111.1918450  39.9540530 112.4554140 111.6824570  40.3216520 113.8396280
 112.0643150  44.3530840 115.1147450 111.7671440  43.7476310 114.4355230
 113.0142970  44.3908150 115.0036810 110.3090070  37.4406490 116.7307280
 110.8604660  37.5501830 115.9560530 110.8233580  37.8144090 117.4462510
 120.1528760  47.9262710 118.7770550 119.6759320  48.7334900 118.5843160
 119.4690550  47.2741040 118.9296760 111.1561580  44.0912530 121.7655250
 110.2590110  44.3152500 122.0128650 111.1814450  44.2147470 120.8166650
 118.1966800  40.9405650 107.6796510 118.6360080  40.1028080 107.5334330
 118.9095220  41.5735050 107.7660650 109.9832800  40.9625850 120.3412620
 109.8440570  41.8348650 120.7100020 109.1014160  40.6198660 120.1960560
 111.7813150  46.9047550 122.5497770 111.7528580  47.3090500 121.6826200
 111.6178120  45.9757910 122.3869370 121.7783940  32.1948460 105.9937550
 121.4656600  32.2875290 106.8936620 122.5396410  32.7729490 105.9434980
 108.2966080  39.5608260 110.4514890 108.1763680  40.2870350 109.8396160
 107.9866970  38.7911170 109.9742800 123.7327970  47.6874650 123.8461940
 124.2087690  48.1657540 124.5251020 124.3535130  47.6192140 123.1207440
 107.1799080  44.4323590 112.6689710 106.7727160  44.5738180 111.8143310
 108.0712090  44.1483750 112.4660920 123.1361220  44.8787500 121.0061950
 123.2624280  44.6399380 120.0879130 123.1782600  44.0472040 121.4784030
 116.9977960  48.5815500 119.5756760 117.5122630  48.4923510 120.3779190
 116.1547040  48.9275200 119.8684670 118.9732360  48.8670840 109.0040760
 118.8133500  48.5773780 109.9022590 118.8079070  48.0910970 108.4685990
 122.9885230  36.9319960 121.9711690 122.3729500  37.4399630 121.4427150
 122.6681650  36.0318290 121.9137630 110.7629740  32.9043330 113.8338560
 110.3197890  33.6852870 113.5023080 111.3214730  33.2273220 114.5409500
 115.0499550  35.7711850 119.4373880 114.5878920  35.9794870 120.2493820
 114.6477660  34.9571200 119.1344550 120.0504060  36.9920800 120.5670540
 119.1997650  36.6926550 120.8879610 119.8905850  37.2362810 119.6554360
 117.1453770  38.4922550 122.6669330 117.4707180  37.6586300 122.3271560
 117.9334100  39.0151070 122.8147660 113.8788560  32.5254030 108.7144390
 113.2542740  32.5213900 109.4397700 113.7918680  31.6584990 108.3180360
 112.8005640  33.4490660 115.6928160 113.0977970  34.3553490 115.6120180
 113.3491200  32.9609440 115.0787730 110.5543960  38.0276900 111.5619810
 110.3284880  37.8114070 112.4666430 109.7736490  38.4605360 111.2165780
 117.7841720  38.0340270 110.1610460 117.1850610  38.7576070 109.9774080
 118.3321330  37.9717050 109.3786910 112.9943170  38.9262480 122.2280080
 112.8986770  37.9857210 122.0780480 113.8375150  39.1477550 121.8328150
 116.3906590  36.6703810 112.1913740 116.7836160  36.9876010 111.3782430
 116.7523440  35.7915690 112.3058260 108.1253710  35.3376150 120.3813860
 107.7317100  36.1851360 120.5886640 107.4372110  34.7002520 120.5722500
 114.6998760  35.4211120 123.4510600 114.0097080  35.2283320 124.0856690
 115.4431060  35.7045760 123.9834900 105.4270760  33.2604610 114.4143940
 105.1383810  33.8307470 115.1268920 106.1716520  32.7809060 114.7775170
 105.6140990  37.2024730 105.6246660 105.5315660  38.1455490 105.7661650
 105.2624050  37.0599640 104.7459010 116.9761730  39.2609560 116.2864520
 116.2442850  39.7696370 116.6354620 116.5786070  38.4439540 115.9853300
 113.4139120  35.9363760 114.6917010 113.4175180  35.4953710 113.8421550
 114.3090240  36.2581090 114.7988830 109.2641500  35.8190250 113.6511220
 108.9241550  36.2965480 114.4078270 108.5018820  35.3655370 113.2912320
 113.4759270  36.9375840 107.6823770 113.5972090  36.8962320 108.6309590
 113.0907780  37.7999990 107.5270500 117.4387640  34.7143240 115.6987460
 117.4560380  35.1651890 116.5429310 117.1903220  33.8148880 115.9120900
 112.4880770  39.2476980 107.0807070 111.9197670  38.7995230 106.4542980
 113.1969770  39.6069760 106.5472220 120.8658390  32.1275420 121.5373840
 121.1904160  31.3965080 122.0631820 120.9014900  31.8089060 120.6354830
 113.7147090  39.9965540 116.4382420 114.0817220  39.5224110 117.1843760
 113.5252150  40.8707110 116.7790760 106.5787580  34.7409230 112.5675890
 106.2934500  34.3764900 113.4054510 106.5166440  34.0089690 111.9539030
 111.5046460  39.0374180 118.7566630 111.2003530  39.9166160 118.9816990
 112.4592920  39.0973970 118.7924070 110.0328250  43.2435170 109.3533480
 109.2590510  42.7032790 109.1932200 110.7622880  42.7241780 109.0151240
 120.7916230  42.2400530 115.1459870 121.5115350  42.7355820 114.7555980
 120.5898050  41.5618420 114.5013740 116.2526170  33.6338490 109.2889260
 115.4390780  33.1351660 109.2134570 116.0588120  34.4736740 108.8725610
 116.1735030  42.3109590 121.0328870 116.1072340  41.3905260 120.7786460
 115.5440170  42.4085030 121.7473510 118.9674560  38.0058140 107.5851420
 119.8554180  38.3175370 107.4102760 118.9379650  37.1330390 107.1932000
 110.0765650  42.9115550 112.9912290 110.5944320  42.1083810 112.9369180
 109.6249670  42.8494690 113.8329120 110.7623310  40.3361160 122.7877540
 110.4623450  40.4818340 121.8905360 111.5334550  39.7766450 122.6950930
 116.1051760  45.1330160 120.7832670 116.1196300  44.2011120 120.5651580
 115.3976860  45.2189920 121.4222440 121.2388830  39.3169980 107.0531280
 121.1552550  39.7484200 106.2027720 121.9583020  39.7768330 107.4858100
 122.3162970  41.7737500 120.1301250 121.5911160  42.3666280 119.9330640
 122.8438430  41.7661040 119.3314620 117.8462560  43.4997670 113.6285100
 118.1986380  42.9025800 112.9686470 116.9624890  43.1741900 113.7993350
 106.0718240  39.8768180 106.5272590 106.9413090  40.1592980 106.8108510
 105.5808560  40.6904050 106.4121400 115.5385660  46.7747730 117.8773170
 116.1827880  46.9807110 118.5546590 115.9015100  46.0136130 117.4244020
 109.1364830  31.6079040 111.1203390 109.0079460  31.5996940 112.0688310
 108.3126850  31.9462130 110.7694400 116.8117740  44.7780080 116.5950620
 117.4539970  44.0773240 116.7082790 117.3367090  45.5578520 116.4147510
 118.5855360  45.5774980 119.7986680 118.9211600  46.1641670 120.4764600
 117.6655700  45.4467690 120.0284470 106.1358760  33.3670160 120.5810090
 105.4217280  33.5667080 121.1862700 106.5553800  32.5909730 120.9524890
 120.2389710  42.9800640 107.9803920 119.9511410  43.4413330 108.7681800
 121.0341880  42.5198410 108.2488140 106.4231350  47.3550420 121.5676620
 106.5322470  46.4145160 121.4272010 105.7711910  47.6205170 120.9190350
 114.4143940  45.6266310 122.9674740 114.0940810  44.9075550 123.5120430
 113.7402300  46.3021380 123.0410800 108.0564750  41.6941650 108.6554650
 107.4492700  42.4340550 108.6649950 108.5314100  41.7841010 107.8292850
 117.6297540  35.8592470 118.3311540 117.9978360  35.0387680 118.6591110
 116.7695740  35.9194360 118.7467190 120.9959570  34.8149410 109.1399100
 120.3672730  34.9195080 108.4257330 120.5011490  35.0346190 109.9292980
 112.9643600  37.0935360 110.5556980 112.2559750  37.5621700 110.9970590
 113.2488080  36.4357370 111.1902170 114.5899530  38.5132060 118.5549510
 115.0884780  38.9877880 119.2201360 114.7322480  37.5895580 118.7619540
 116.9959030  33.8186020 111.9952770 116.8726810  33.8372150 111.0462280
 117.9443590  33.8664960 112.1151170 111.1678620  35.4020440 107.9307690
 112.0169150  35.8390590 107.8647880 110.8009890  35.7140700 108.7579750
 121.7966390  34.7300020 119.3977900 121.2939990  35.4705420 119.7371710
 122.6123050  35.1184020 119.0814690 120.0888400  39.9733200 112.8439260
 119.1478540  39.9883430 113.0186950 120.4032470  39.1869160 113.2899560
 108.7616800  39.0877870 107.0876110 108.8420390  38.1405380 107.1993510
 109.6536550  39.4184750 107.1936770 122.0913980  47.1442050 114.5193520
 122.2161400  47.9673220 114.9917330 122.9579540  46.9332780 114.1717670
 109.5631510  49.2373260 114.1910650 110.2993990  48.6888720 114.4619220
 109.9472430  50.1029270 114.0516640 106.4476990  45.3046830 110.0652160
 105.5216770  45.5467970 110.0557570 106.9133420  46.1321090 109.9436910
 108.5689790  48.4219330 123.3796230 109.3702520  48.7431380 123.7931630
 108.0541610  48.0614910 124.1016140 117.4054420  44.5299200 123.3271640
 116.7992580  44.5530800 122.5867390 117.1008530  43.7982240 123.8638890
 118.8354790  48.2579490 121.9381050 119.7876540  48.1737510 121.8881290
 118.6883010  48.9221200 122.6114840 113.3425540  42.3163780 121.8567800
 112.5771210  42.8848780 121.7722470 113.5241500  42.0239990 120.9636030
 120.4848890  44.0469110 122.4142820 121.2258360  44.3844870 121.9110280
 119.7221570  44.2161170 121.8612590 112.0989070  41.6517930 108.3785860
 112.5205490  41.4857800 109.2217250 112.2239910  40.8418160 107.8841000
 110.2616490  37.6314480 121.1856840 109.7312950  37.1405430 120.5580180
 110.9304560  38.0598680 120.6514770 114.6116710  40.6755540 105.6262960
 115.1322370  39.9604560 105.2604110 115.2585110  41.3141410 105.9263470
 119.1594550  42.0983940 120.9498030 119.5735570  42.2529020 121.7988450
 118.2245550  42.2239160 121.1123810 119.6316720  39.4380100 122.9537180
 120.2137490  38.6832420 122.8657660 119.8078490  39.9687540 122.1768660
 110.7488790  34.5976850 121.2654130 110.6545660  33.9797600 120.5405000
 110.1686180  35.3243140 121.0384040 113.5150230  33.1550090 118.2981520
 113.0667530  33.1774350 117.4527070 112.8815430  32.7569110 118.8951820
 113.9209780  42.0504420 118.9193960 114.3397890  42.8937150 118.7470200
 113.0018410  42.1876460 118.6900740 116.2573680  39.7820600 120.3031800
 116.3769890  39.1861740 121.0426640 117.1167680  39.8190290 119.8833100
 118.5961580  40.3357790 118.8794310 118.0696800  40.8600410 118.2759450
 118.9392920  40.9685180 119.5104040 111.7717200  48.3557430 120.0351690
 111.2338290  49.0803490 119.7160390 112.0251160  47.8787770 119.2449030
 113.0242450  36.3241950 121.5607620 113.6142140  36.0157800 122.2485440
 112.2062690  35.8521700 121.7167520 117.8435880  35.9407760 121.7940640
 117.1551400  35.2789300 121.7290630 118.5641900  35.4946030 122.2389100
 118.4736280  32.5359390 107.8530900 118.7538570  31.6927290 108.2090320
 117.7002010  32.7682500 108.3669650 109.7930770  34.8251780 105.3121900
 110.0956670  34.8319210 104.4041050 110.5325360  34.4749640 105.8089560
 114.6279410  49.5908640 120.2938340 114.5538110  50.4943780 120.6010710
 113.7258250  49.2720540 120.2660410 113.0115700  33.7686400 106.2978100
 112.6637700  33.0910390 105.7180550 113.2128470  33.3075910 107.1121490
 108.8160900  44.1294200 106.1451700 109.2535770  44.6723870 106.8009280
 109.3008630  43.3041150 106.1548040 106.0306700  46.9183230 113.5971960
 106.3609710  46.0504290 113.3650600 106.4597700  47.1241750 114.4276920
 106.5196910  47.7853820 116.3353590 106.0827900  47.9654620 117.1677740
 107.0874590  48.5428440 116.1935310 122.1559090  47.2870820 120.6230900
 121.5561080  47.3463380 119.8794820 122.2852990  46.3475800 120.7527750
 122.8517000  41.7736120 108.4634810 123.6135910  42.3432770 108.5694500
 122.8671370  41.2063320 109.2343120 123.8576970  42.6286220 113.3076740
 124.2285800  41.8453540 112.9012710 124.4978900  43.3175320 113.1294040
 120.8410730  44.0122800 118.7207060 120.0270570  44.4419960 118.9832850
 121.2484930  44.6241210 118.1076110 122.9036170  42.0670490 105.6207330
 123.1785010  42.9749370 105.4926550 122.7146910  42.0033020 106.5569320
 119.3011780  35.0915340 106.9160960 119.7196660  34.9046320 106.0757620
 118.9947840  34.2394390 107.2263890 122.8001510  40.0039480 110.6136760
 122.4245110  39.2367410 110.1818050 122.0704630  40.3862180 111.1011690
 122.1901130  39.1511000 120.2476280 121.9587220  38.9223750 119.3474230
 122.4505680  40.0710550 120.2021170 120.6289200  34.3767430 123.0255980
 121.5059380  34.3850830 123.4089980 120.6410040  33.6398270 122.4148330
 105.5659420  37.5072980 108.6367800 104.6623500  37.7703180 108.4619460
 106.0500040  37.7784150 107.8567760 122.0752470  38.2296970 113.9144000
 122.5989950  37.7359620 113.2834170 122.6611890  38.3647330 114.6591570
 122.2542190  38.3136840 117.4363550 121.3044900  38.2800380 117.5508540
 122.4355200  39.2236950 117.2013320 108.1086630  36.5638520 106.5462180
 108.8178330  36.1421740 106.0609460 107.3926570  36.6313750 105.9145530
 107.7560790  32.6177850 105.5864830 108.4788920  33.1586790 105.9046050
 108.0285310  32.3441270 104.7106370 121.5652440  37.4870320 109.8536410
 122.0611560  37.2541190 110.6385290 121.3668510  36.6482160 109.4374050
 107.4452980  31.8684040 115.4887450 108.0929170  31.3181420 115.0482610
 107.8654820  32.1227190 116.3103260 122.9939600  36.1231270 112.3874090
 122.8838880  35.9687310 113.3256360 123.7547190  35.5952210 112.1449500
 121.3405320  32.0625400 118.8457090 121.9777540  32.6759540 119.2116280
 121.4880210  32.0986060 117.9006320 123.8829870  33.9539190 105.6280230
 124.8079180  33.8220370 105.4198520 123.8605660  34.0332010 106.5816680
 123.9568360  34.7249850 108.2536940 123.1619860  34.6594970 108.7829850
 124.1611640  35.6600490 108.2422290 120.8986780  48.7641400 112.2475330
 121.4945850  48.4425970 111.5709750 121.1564930  48.2913220 113.0388600
 107.1984980  32.0239710 118.2312770 106.8499800  32.4803530 118.9970950
 106.8672680  31.1296840 118.3135200 108.8049350  45.1959310 122.3965960
 108.7618980  44.8252220 123.2780420 108.9360360  46.1336880 122.5367780
 112.5055380  46.7518900 117.9975680 112.2646740  47.0193460 117.1106200
 113.4458020  46.9224630 118.0526540 114.7109800  33.2151590 121.7532190
 114.6498690  33.8073420 122.5027600 115.6510180  33.1077550 121.6082450
 117.3484360  32.8721650 121.3924480 117.9624770  33.1900940 120.7305560
 117.8933920  32.3870240 122.0120340 123.7659540  48.7713280 118.7986320
 123.2717820  49.1682150 118.0813450 123.1572830  48.1462490 119.1923600
 107.8705620  31.5515910 121.5063540 108.4188610  31.3703960 120.7429650
 107.9360930  30.7610020 122.0419850 108.6437380  48.1421560 119.5163740
 108.0497700  48.0106260 120.2553780 108.6361220  47.3059700 119.0505840
 118.0892400  31.4353790 117.7193770 117.2152240  31.7688900 117.5166700
 117.9803150  30.9626970 118.5445640 118.9964380  33.6424660 119.1035490
 118.6677740  32.8276420 118.7237220 119.9446680  33.5994470 118.9801180
 121.4498990  49.4136700 116.0773060 120.9901960  50.1652510 115.7031080
 120.8211450  48.6943170 116.0187860 108.2749610  45.5079940 118.4671780
 107.5483670  44.8885230 118.3997730 108.3358760  45.9020550 117.5969860
 111.8794710  47.7224940 115.2521190 112.3959730  47.1112300 114.7269450
 112.5292090  48.2253720 115.7432200 114.6190210  48.6133430 116.0790170
 114.9068020  48.3587730 115.2023180 115.1313430  48.0610790 116.6695740
 115.8367220  32.3523630 116.6586680 115.0539010  32.8269130 116.9383440
 115.5430150  31.4478460 116.5499860 120.3888290  33.0546730 114.7035770
 120.8296380  32.9991830 113.8557370 120.1195880  33.9704740 114.7745950
 122.2526860  32.6861970 112.7144590 122.1915260  31.7423190 112.5675610
 123.0318890  32.7942060 113.2598050 106.5579610  48.8254330 111.6768540
 106.3901650  48.1925010 112.3750430 105.6914120  49.0313730 111.3262730
 107.1807630  32.6571110 109.1800400 107.9386990  32.7699990 108.6064430
 106.7184800  33.4940310 109.1343830 113.7221440  34.7710380 112.1702710
 112.9095950  34.3967270 111.8298590 114.2263080  34.0155460 112.4723900
 118.2246420  31.4352830 113.4085780 118.8275790  32.0073040 113.8834300
 117.4839410  31.9992270 113.1859680 121.3681020  31.8374390 108.6826060
 121.5631650  32.7357840 108.9493490 120.5810890  31.6061470 109.1759010
 108.1642310  47.5187560 109.1218680 107.6389930  47.8995590 108.4180640
 108.0886890  48.1438330 109.8428390 109.5532780  33.1835160 107.7202370
 110.0825540  32.3964960 107.5910320 110.1861100  33.8626350 107.9537900
 111.7470620  32.9210300 110.7747760 111.1173360  32.2197610 110.9417890
 111.2075760  33.6814430 110.5580920 114.6862570  49.5349530 123.4458370
 115.6129880  49.2993800 123.4894330 114.6713000  50.3621530 122.9644400
 111.8726180  32.1994280 123.2100250 111.5910450  32.7027880 122.4461070
 112.2545880  31.4016030 122.8442380 118.4741640  31.6147860 123.7880720
 118.3607090  31.9342470 124.6832240 119.2911380  32.0160370 123.4918000
 121.2540130  48.7619390 123.2699410 122.0465450  48.2668620 123.0625370
 121.5473280  49.4409530 123.8775020 117.3799790  39.6340330  94.1515460
 117.2993840  38.7194940  93.8807170 116.9664210  40.1307400  93.4455170
 115.5117830  41.4119350  96.0324730 114.7359930  40.9319790  96.3223300
 116.1630760  40.7325000  95.8580890 109.5084920  45.7579250  97.1058510
 109.8112960  44.8676990  96.9268730 110.2528510  46.3149470  96.8780760
 115.7588570  48.1037550  94.4327850 115.1400010  48.5595050  93.8622290
 116.6140350  48.2589010  94.0317550 114.9526820  44.0876540  96.0394890
 114.8835100  43.1466480  95.8784020 115.7146680  44.1777950  96.6117460
 115.9831990  36.8946920  96.2663820 116.3596810  36.0218800  96.1537490
 115.8851500  37.2305620  95.3754260 111.9544730  38.2358920  96.0606440
 112.4622950  38.7339890  96.7011460 112.4857970  37.4594120  95.8845800
 124.0555660  36.4064110  99.7635790 123.3507830  36.7945820  99.2450900
 124.3213580  37.1014400 100.3656720 110.7002780  44.4833460 100.3192540
 111.3176780  45.1584540 100.0376990 109.8395900  44.8921440 100.2280040
 105.9935120  43.6733320  89.1999390 105.6163100  44.1620420  88.4684290
 106.2508190  44.3458600  89.8305920 123.0704510  35.7752530  96.3628910
 122.1229420  35.8091510  96.4944340 123.3954500  36.5891480  96.7478270
 120.4484530  44.5133220  92.0382530 120.3380860  43.5707550  92.1631950
 120.4452780  44.8748860  92.9245290 120.0202100  41.7018840  91.8980270
 119.4014520  41.3638390  91.2506570 120.0026550  41.0578600  92.6059460
 119.4628660  37.8803380  99.3146080 119.0499840  38.7057090  99.5686070
 118.7304610  37.2948420  99.1222440 111.5961450  40.6663280  94.1764750
 111.1918450  39.9540530  93.6810650 111.6824570  40.3216520  95.0652790
 112.0643150  44.3530840  96.3403960 111.7671440  43.7476310  95.6611740
 113.0142970  44.3908150  96.2293320 111.1561580  44.0912530 102.9911760
 110.2590110  44.3152500 103.2385160 111.1814450  44.2147470 102.0423160
 116.3062180  45.8801720  92.8734260 116.7458090  46.6226050  92.4589650
 116.2449070  46.1228290  93.7973220 111.7813150  46.9047550 103.7754280
 111.7528580  47.3090500 102.9082710 111.6178120  45.9757910 103.6125880
 107.1799080  44.4323590  93.8946220 106.7727160  44.5738180  93.0399820
 108.0712090  44.1483750  93.6917430 118.9732360  48.8670840  90.2297270
 118.8133500  48.5773780  91.1279100 118.8079070  48.0910970  89.6942500
 118.6758490  46.3758400  88.7895270 117.9823650  46.3735690  88.1297550
 119.4181350  45.9517720  88.3589440 118.2408420  48.0021110  92.8643760
 118.6965370  47.2210490  93.1782380 118.5800940  48.7127930  93.4084940
 122.9885230  36.9319960 103.1968200 122.3729500  37.4399630 102.6683660
 122.6681650  36.0318290 103.1394140 115.0499550  35.7711850 100.6630390
 114.5878920  35.9794870 101.4750330 114.6477660  34.9571200 100.3601060
 120.0504060  36.9920800 101.7927050 119.1997650  36.6926550 102.1136120
 119.8905850  37.2362810 100.8810870 117.1453770  38.4922550 103.8925840
 117.4707180  37.6586300 103.5528070 117.9334100  39.0151070 104.0404170
 114.6998760  35.4211120 104.6767110 114.0097080  35.2283320 105.3113200
 115.4431060  35.7045760 105.2091410 116.9761730  39.2609560  97.5121030
 116.2442850  39.7696370  97.8611130 116.5786070  38.4439540  97.2109810
 120.8658390  32.1275420 102.7630350 121.1904160  31.3965080 103.2888330
 120.9014900  31.8089060 101.8611340 113.7147090  39.9965540  97.6638930
 114.0817220  39.5224110  98.4100270 113.5252150  40.8707110  98.0047270
 116.1735030  42.3109590 102.2585380 116.1072340  41.3905260 102.0042970
 115.5440170  42.4085030 102.9730020 110.0765650  42.9115550  94.2168800
 110.5944320  42.1083810  94.1625690 109.6249670  42.8494690  95.0585630
 106.0718240  39.8768180  87.7529100 106.9413090  40.1592980  88.0365020
 105.5808560  40.6904050  87.6377910 120.6573460  45.0628700  87.5446270
 120.4311040  44.3459140  88.1370910 120.2669660  44.8141140  86.7068020
 106.1358760  33.3670160 101.8066600 105.4217280  33.5667080 102.4119210
 106.5553800  32.5909730 102.1781400 120.2389710  42.9800640  89.2060430
 119.9511410  43.4413330  89.9938310 121.0341880  42.5198410  89.4744650
 117.6297540  35.8592470  99.5568050 117.9978360  35.0387680  99.8847620
 116.7695740  35.9194360  99.9723700 112.9643600  37.0935360  91.7813490
 112.2559750  37.5621700  92.2227100 113.2488080  36.4357370  92.4158680
 114.5899530  38.5132060  99.7806020 115.0884780  38.9877880 100.4457870
 114.7322480  37.5895580  99.9876050 114.0835820  49.0541320  92.4937260
 114.3377320  49.0162710  91.5716630 113.1348300  48.9274650  92.4865510
 121.7966390  34.7300020 100.6234410 121.2939990  35.4705420 100.9628220
 122.6123050  35.1184020 100.3071200 120.0888400  39.9733200  94.0695770
 119.1478540  39.9883430  94.2443460 120.4032470  39.1869160  94.5156070
 108.7616800  39.0877870  88.3132620 108.8420390  38.1405380  88.4250020
 109.6536550  39.4184750  88.4193280 109.5631510  49.2373260  95.4167160
 110.2993990  48.6888720  95.6875730 109.9472430  50.1029270  95.2773150
 117.4054420  44.5299200 104.5528150 116.7992580  44.5530800 103.8123900
 117.1008530  43.7982240 105.0895400 113.3425540  42.3163780 103.0824310
 112.5771210  42.8848780 102.9978980 113.5241500  42.0239990 102.1892540
 114.6116710  40.6755540  86.8519470 115.1322370  39.9604560  86.4860620
 115.2585110  41.3141410  87.1519980 119.6316720  39.4380100 104.1793690
 120.2137490  38.6832420 104.0914170 119.8078490  39.9687540 103.4025170
 110.7488790  34.5976850 102.4910640 110.6545660  33.9797600 101.7661510
 110.1686180  35.3243140 102.2640550 113.9209780  42.0504420 100.1450470
 114.3397890  42.8937150  99.9726710 113.0018410  42.1876460  99.9157250
 116.2573680  39.7820600 101.5288310 116.3769890  39.1861740 102.2683150
 117.1167680  39.8190290 101.1089610 118.5961580  40.3357790 100.1050820
 118.0696800  40.8600410  99.5015960 118.9392920  40.9685180 100.7360550
 113.0242450  36.3241950 102.7864130 113.6142140  36.0157800 103.4741950
 112.2062690  35.8521700 102.9424030 117.8435880  35.9407760 103.0197150
 117.1551400  35.2789300 102.9547140 118.5641900  35.4946030 103.4645610
 114.6279410  49.5908640 101.5194850 114.5538110  50.4943780 101.8267220
 113.7258250  49.2720540 101.4916920 115.1764740  48.7567150  89.1421210
 116.0715530  49.0952120  89.1639970 115.2082370  48.0346560  88.5145490
 106.0306700  46.9183230  94.8228470 106.3609710  46.0504290  94.5907110
 106.4597700  47.1241750  95.6533430 106.5196910  47.7853820  97.5610100
 106.0827900  47.9654620  98.3934250 107.0874590  48.5428440  97.4191820
 122.8517000  41.7736120  89.6891320 123.6135910  42.3432770  89.7951010
 122.8671370  41.2063320  90.4599630 106.3521340  40.2974050  93.9198980
 105.6970180  40.0285690  93.2758680 107.1899290  40.1878530  93.4700960
 122.9036170  42.0670490  86.8463840 123.1785010  42.9749370  86.7183060
 122.7146910  42.0033020  87.7825830 122.1901130  39.1511000 101.4732790
 121.9587220  38.9223750 100.5730740 122.4505680  40.0710550 101.4277680
 120.6289200  34.3767430 104.2512490 121.5059380  34.3850830 104.6346490
 120.6410040  33.6398270 103.6404840 122.0752470  38.2296970  95.1400510
 122.5989950  37.7359620  94.5090680 122.6611890  38.3647330  95.8848080
 122.2542190  38.3136840  98.6620060 121.3044900  38.2800380  98.7765050
 122.4355200  39.2236950  98.4269830 121.3405320  32.0625400 100.0713600
 121.9777540  32.6759540 100.4372790 121.4880210  32.0986060  99.1262830
 108.8049350  45.1959310 103.6222470 108.7618980  44.8252220 104.5036930
 108.9360360  46.1336880 103.7624290 112.5055380  46.7518900  99.2232190
 112.2646740  47.0193460  98.3362710 113.4458020  46.9224630  99.2783050
 114.7109800  33.2151590 102.9788700 114.6498690  33.8073420 103.7284110
 115.6510180  33.1077550 102.8338960 117.3484360  32.8721650 102.6180990
 117.9624770  33.1900940 101.9562070 117.8933920  32.3870240 103.2376850
 107.8705620  31.5515910 102.7320050 108.4188610  31.3703960 101.9686160
 107.9360930  30.7610020 103.2676360 118.0892400  31.4353790  98.9450280
 117.2152240  31.7688900  98.7423210 117.9803150  30.9626970  99.7702150
 118.9964380  33.6424660 100.3292000 118.6677740  32.8276420  99.9493730
 119.9446680  33.5994470 100.2057690 121.4498990  49.4136700  97.3029570
 120.9901960  50.1652510  96.9287590 120.8211450  48.6943170  97.2444370
 108.2749610  45.5079940  99.6928290 107.5483670  44.8885230  99.6254240
 108.3358760  45.9020550  98.8226370 111.8794710  47.7224940  96.4777700
 112.3959730  47.1112300  95.9525960 112.5292090  48.2253720  96.9688710
 114.6190210  48.6133430  97.3046680 114.9068020  48.3587730  96.4279690
 115.1313430  48.0610790  97.8952250 113.7221440  34.7710380  93.3959220
 112.9095950  34.3967270  93.0555100 114.2263080  34.0155460  93.6980410
 114.6862570  49.5349530 104.6714880 115.6129880  49.2993800 104.7150840
 114.6713000  50.3621530 104.1900910 111.8726180  32.1994280 104.4356760
 111.5910450  32.7027880 103.6717580 112.2545880  31.4016030 104.0698890
 118.4741640  31.6147860 105.0137230 118.3607090  31.9342470 105.9088750
 119.2911380  32.0160370 104.7174510 117.3799790  39.6340330  75.3771970
 117.2993840  38.7194940  75.1063680 116.9664210  40.1307400  74.6711680
 115.5117830  41.4119350  77.2581240 114.7359930  40.9319790  77.5479810
 116.1630760  40.7325000  77.0837400 119.5325260  45.8179540  76.0380370
 119.0706790  45.0466780  76.3667540 120.3450810  45.8445610  76.5432820
 107.9375610  36.6841050  71.9199390 107.0492310  37.0257020  71.8179270
 108.2216800  36.4841370  71.0280220 115.9831990  36.8946920  77.4920330
 116.3596810  36.0218800  77.3794000 115.8851500  37.2305620  76.6010770
 110.1137000  35.2672550  72.9537770 110.2203750  36.1676280  73.2606530
 109.2029360  35.2190520  72.6632420 119.7656110  34.3897360  74.4248670
 120.5865730  33.8993930  74.4674150 119.7990190  34.9795020  75.1780510
 111.9544730  38.2358920  77.2862950 112.4622950  38.7339890  77.9267970
 112.4857970  37.4594120  77.1102310 124.0555660  36.4064110  80.9892300
 123.3507830  36.7945820  80.4707410 124.3213580  37.1014400  81.5913230
 110.2380830  32.8757480  81.5526370 110.2399270  33.3929870  80.7472270
 109.4085140  32.3987660  81.5296300 116.6251920  42.9876790  73.0516270
 116.0069190  43.4526240  72.4878990 117.1375170  43.6804270  73.4685780
 120.0017590  36.3297740  77.1976210 119.2973160  36.6182630  77.7779320
 120.3629750  37.1397850  76.8375770 121.6180370  45.9472870  79.4603690
 120.9343890  46.6171980  79.4520360 122.1574660  46.1453520  78.6948550
 123.0704510  35.7752530  77.5885420 122.1229420  35.8091510  77.7200850
 123.3954500  36.5891480  77.9734780 113.6024050  32.0749710  75.8841410
 113.9099030  31.5196600  75.1676910 112.6724750  32.2094170  75.7014400
 120.4484530  44.5133220  73.2639040 120.3380860  43.5707550  73.3888460
 120.4452780  44.8748860  74.1501800 115.9904810  40.1398540  72.6201530
 115.0634090  40.0735920  72.8490000 116.1429630  41.0778670  72.5056770
 122.4986650  41.0934060  79.5947720 121.6705280  41.1627150  79.1197850
 123.0937130  41.6788370  79.1263550 120.0202100  41.7018840  73.1236780
 119.4014520  41.3638390  72.4763080 120.0026550  41.0578600  73.8315970
 119.4628660  37.8803380  80.5402590 119.0499840  38.7057090  80.7942580
 118.7304610  37.2948420  80.3478950 110.3090070  37.4406490  79.1820300
 110.8604660  37.5501830  78.4073550 110.8233580  37.8144090  79.8975530
 120.1528760  47.9262710  81.2283570 119.6759320  48.7334900  81.0356180
 119.4690550  47.2741040  81.3809780 118.1966800  40.9405650  70.1309530
 118.6360080  40.1028080  69.9847350 118.9095220  41.5735050  70.2173670
 109.9832800  40.9625850  82.7925640 109.8440570  41.8348650  83.1613040
 109.1014160  40.6198660  82.6473580 116.3062180  45.8801720  74.0990770
 116.7458090  46.6226050  73.6846160 116.2449070  46.1228290  75.0229730
 123.1361220  44.8787500  83.4574970 123.2624280  44.6399380  82.5392150
 123.1782600  44.0472040  83.9297050 118.9732360  48.8670840  71.4553780
 118.8133500  48.5773780  72.3535610 118.8079070  48.0910970  70.9199010
 111.4520740  48.6469370  73.2325400 111.2763220  47.7304910  73.0193200
 110.5976480  49.0056660  73.4723200 118.2408420  48.0021110  74.0900270
 118.6965370  47.2210490  74.4038890 118.5800940  48.7127930  74.6341450
 105.9910970  43.7737570  81.2491010 106.1542010  43.3042930  80.4310380
 106.4563420  43.2661130  81.9139850 110.7629740  32.9043330  76.2851580
 110.3197890  33.6852870  75.9536100 111.3214730  33.2273220  76.9922520
 115.0499550  35.7711850  81.8886900 114.5878920  35.9794870  82.7006840
 114.6477660  34.9571200  81.5857570 120.0504060  36.9920800  83.0183560
 119.1997650  36.6926550  83.3392630 119.8905850  37.2362810  82.1067380
 113.8788560  32.5254030  71.1657410 113.2542740  32.5213900  71.8910720
 113.7918680  31.6584990  70.7693380 112.8005640  33.4490660  78.1441180
 113.0977970  34.3553490  78.0633200 113.3491200  32.9609440  77.5300750
 117.7841720  38.0340270  72.6123480 117.1850610  38.7576070  72.4287100
 118.3321330  37.9717050  71.8299930 116.3906590  36.6703810  74.6426760
 116.7836160  36.9876010  73.8295450 116.7523440  35.7915690  74.7571280
 105.4270760  33.2604610  76.8656960 105.1383810  33.8307470  77.5781940
 106.1716520  32.7809060  77.2288190 105.6140990  37.2024730  68.0759680
 105.5315660  38.1455490  68.2174670 105.2624050  37.0599640  67.1972030
 116.9761730  39.2609560  78.7377540 116.2442850  39.7696370  79.0867640
 116.5786070  38.4439540  78.4366320 113.4139120  35.9363760  77.1430030
 113.4175180  35.4953710  76.2934570 114.3090240  36.2581090  77.2501850
 109.2641500  35.8190250  76.1024240 108.9241550  36.2965480  76.8591290
 108.5018820  35.3655370  75.7425340 117.4387640  34.7143240  78.1500480
 117.4560380  35.1651890  78.9942330 117.1903220  33.8148880  78.3633920
 120.8658390  32.1275420  83.9886860 121.1904160  31.3965080  84.5144840
 120.9014900  31.8089060  83.0867850 107.5649950  43.1489000  83.4086820
 107.1804740  42.5082670  84.0069780 107.8762140  43.8525120  83.9781550
 113.7147090  39.9965540  78.8895440 114.0817220  39.5224110  79.6356780
 113.5252150  40.8707110  79.2303780 106.5787580  34.7409230  75.0188910
 106.2934500  34.3764900  75.8567530 106.5166440  34.0089690  74.4052050
 111.5046460  39.0374180  81.2079650 111.2003530  39.9166160  81.4330010
 112.4592920  39.0973970  81.2437090 120.7916230  42.2400530  77.5972890
 121.5115350  42.7355820  77.2069000 120.5898050  41.5618420  76.9526760
 116.2526170  33.6338490  71.7402280 115.4390780  33.1351660  71.6647590
 116.0588120  34.4736740  71.3238630 118.9674560  38.0058140  70.0364440
 119.8554180  38.3175370  69.8615780 118.9379650  37.1330390  69.6445020
 110.7623310  40.3361160  85.2390560 110.4623450  40.4818340  84.3418380
 111.5334550  39.7766450  85.1463950 121.2388830  39.3169980  69.5044300
 121.1552550  39.7484200  68.6540740 121.9583020  39.7768330  69.9371120
 122.3162970  41.7737500  82.5814270 121.5911160  42.3666280  82.3843660
 122.8438430  41.7661040  81.7827640 122.2676080  46.1712240  72.2326430
 121.6252240  45.5167860  72.5070150 121.8806740  46.5767330  71.4567100
 106.0718240  39.8768180  68.9785610 106.9413090  40.1592980  69.2621530
 105.5808560  40.6904050  68.8634420 109.1364830  31.6079040  73.5716410
 109.0079460  31.5996940  74.5201330 108.3126850  31.9462130  73.2207420
 117.6297540  35.8592470  80.7824560 117.9978360  35.0387680  81.1104130
 116.7695740  35.9194360  81.1980210 115.4417710  46.5355000  69.0246100
 115.5429690  46.3318990  68.0948080 114.5419450  46.2813280  69.2293880
 112.9643600  37.0935360  73.0070000 112.2559750  37.5621700  73.4483610
 113.2488080  36.4357370  73.6415190 114.5899530  38.5132060  81.0062530
 115.0884780  38.9877880  81.6714380 114.7322480  37.5895580  81.2132560
 116.9959030  33.8186020  74.4465790 116.8726810  33.8372150  73.4975300
 117.9443590  33.8664960  74.5664190 114.0835820  49.0541320  73.7193770
 114.3377320  49.0162710  72.7973140 113.1348300  48.9274650  73.7122020
 111.1678620  35.4020440  70.3820710 112.0169150  35.8390590  70.3160900
 110.8009890  35.7140700  71.2092770 121.7966390  34.7300020  81.8490920
 121.2939990  35.4705420  82.1884730 122.6123050  35.1184020  81.5327710
 120.0888400  39.9733200  75.2952280 119.1478540  39.9883430  75.4699970
 120.4032470  39.1869160  75.7412580 122.0913980  47.1442050  76.9706540
 122.2161400  47.9673220  77.4430350 122.9579540  46.9332780  76.6230690
 109.5631510  49.2373260  76.6423670 110.2993990  48.6888720  76.9132240
 109.9472430  50.1029270  76.5029660 112.6733820  48.4103570  68.4649240
 113.4662430  48.6992400  68.0131030 112.1538170  47.9795740  67.7861720
 117.4054420  44.5299200  85.7784660 116.7992580  44.5530800  85.0380410
 117.1008530  43.7982240  86.3151910 106.2887600  40.9092790  84.7745300
 106.7926620  40.3300070  85.3461530 105.5495020  41.1933020  85.3121670
 113.3425540  42.3163780  84.3080820 112.5771210  42.8848780  84.2235490
 113.5241500  42.0239990  83.4149050 116.4313950  42.6927010  68.9333580
 115.8824050  43.1396310  69.5776320 117.0533210  42.1876260  69.4571250
 120.4848890  44.0469110  84.8655840 121.2258360  44.3844870  84.3623300
 119.7221570  44.2161170  84.3125610 119.1594550  42.0983940  83.4011050
 119.5735570  42.2529020  84.2501470 118.2245550  42.2239160  83.5636830
 113.5150230  33.1550090  80.7494540 113.0667530  33.1774350  79.9040090
 112.8815430  32.7569110  81.3464840 116.2573680  39.7820600  82.7544820
 116.3769890  39.1861740  83.4939660 117.1167680  39.8190290  82.3346120
 118.5961580  40.3357790  81.3307330 118.0696800  40.8600410  80.7272470
 118.9392920  40.9685180  81.9617060 113.0115700  33.7686400  68.7491120
 112.6637700  33.0910390  68.1693570 113.2128470  33.3075910  69.5634510
 115.1764740  48.7567150  70.3677720 116.0715530  49.0952120  70.3896480
 115.2082370  48.0346560  69.7402000 122.1559090  47.2870820  83.0743920
 121.5561080  47.3463380  82.3307840 122.2852990  46.3475800  83.2040770
 123.8576970  42.6286220  75.7589760 124.2285800  41.8453540  75.3525730
 124.4978900  43.3175320  75.5807060 120.8410730  44.0122800  81.1720080
 120.0270570  44.4419960  81.4345870 121.2484930  44.6241210  80.5589130
 122.8001510  40.0039480  73.0649780 122.4245110  39.2367410  72.6331070
 122.0704630  40.3862180  73.5524710 122.1901130  39.1511000  82.6989300
 121.9587220  38.9223750  81.7987250 122.4505680  40.0710550  82.6534190
 120.6289200  34.3767430  85.4769000 121.5059380  34.3850830  85.8603000
 120.6410040  33.6398270  84.8661350 105.5659420  37.5072980  71.0880820
 104.6623500  37.7703180  70.9132480 106.0500040  37.7784150  70.3080780
 122.0752470  38.2296970  76.3657020 122.5989950  37.7359620  75.7347190
 122.6611890  38.3647330  77.1104590 122.2542190  38.3136840  79.8876570
 121.3044900  38.2800380  80.0021560 122.4355200  39.2236950  79.6526340
 108.1086630  36.5638520  68.9975200 108.8178330  36.1421740  68.5122480
 107.3926570  36.6313750  68.3658550 121.5652440  37.4870320  72.3049430
 122.0611560  37.2541190  73.0898310 121.3668510  36.6482160  71.8887070
 107.4452980  31.8684040  77.9400470 108.0929170  31.3181420  77.4995630
 107.8654820  32.1227190  78.7616280 122.9939600  36.1231270  74.8387110
 122.8838880  35.9687310  75.7769380 123.7547190  35.5952210  74.5962520
 121.3405320  32.0625400  81.2970110 121.9777540  32.6759540  81.6629300
 121.4880210  32.0986060  80.3519340 123.8829870  33.9539190  68.0793250
 124.8079180  33.8220370  67.8711540 123.8605660  34.0332010  69.0329700
 123.9568360  34.7249850  70.7049960 123.1619860  34.6594970  71.2342870
 124.1611640  35.6600490  70.6935310 120.8986780  48.7641400  74.6988350
 121.4945850  48.4425970  74.0222770 121.1564930  48.2913220  75.4901620
 117.3484360  32.8721650  83.8437500 117.9624770  33.1900940  83.1818580
 117.8933920  32.3870240  84.4633360 123.7659540  48.7713280  81.2499340
 123.2717820  49.1682150  80.5326470 123.1572830  48.1462490  81.6436620
 107.8705620  31.5515910  83.9576560 108.4188610  31.3703960  83.1942670
 107.9360930  30.7610020  84.4932870 118.0892400  31.4353790  80.1706790
 117.2152240  31.7688900  79.9679720 117.9803150  30.9626970  80.9958660
 118.9964380  33.6424660  81.5548510 118.6677740  32.8276420  81.1750240
 119.9446680  33.5994470  81.4314200 121.4498990  49.4136700  78.5286080
 120.9901960  50.1652510  78.1544100 120.8211450  48.6943170  78.4700880
 120.3888290  33.0546730  77.1548790 120.8296380  32.9991830  76.3070390
 120.1195880  33.9704740  77.2258970 122.2526860  32.6861970  75.1657610
 122.1915260  31.7423190  75.0188630 123.0318890  32.7942060  75.7111070
 113.7221440  34.7710380  74.6215730 112.9095950  34.3967270  74.2811610
 114.2263080  34.0155460  74.9236920 118.2246420  31.4352830  75.8598800
 118.8275790  32.0073040  76.3347320 117.4839410  31.9992270  75.6372700
 111.7470620  32.9210300  73.2260780 111.1173360  32.2197610  73.3930910
 111.2075760  33.6814430  73.0093940 122.9207630  49.0775100  72.8945640
 123.0959820  48.3912840  72.2506560 122.2229200  49.6022150  72.5022310
 110.7635280  49.4669940  70.4480950 111.4954100  49.1829220  69.9004840
 111.0228950  49.2283220  71.3380330 118.4741640  31.6147860  86.2393740
 118.3607090  31.9342470  87.1345260 119.2911380  32.0160370  85.9431020
 121.2540130  48.7619390  85.7212430 122.0465450  48.2668620  85.5138390
 121.5473280  49.4409530  86.3288040 115.5117830  41.4119350  58.4837750
 114.7359930  40.9319790  58.7736320 116.1630760  40.7325000  58.3093910
 105.9008620  39.2846700  59.0295600 106.4724730  38.5168900  59.0299240
 105.9010160  39.5835460  58.1202210 114.9526820  44.0876540  58.4907910
 114.8835100  43.1466480  58.3297040 115.7146680  44.1777950  59.0630480
 107.1433490  34.6931060  60.8164530 106.9636330  33.7956810  61.0967290
 106.7413570  35.2402930  61.4911480 107.7620160  37.1891560  59.4246870
 108.4430270  37.4529930  60.0434270 107.4468210  36.3492430  59.7584880
 111.9544730  38.2358920  58.5119460 112.4622950  38.7339890  59.1524480
 112.4857970  37.4594120  58.3358820 124.0555660  36.4064110  62.2148810
 123.3507830  36.7945820  61.6963920 124.3213580  37.1014400  62.8169740
 116.6251920  42.9876790  54.2772780 116.0069190  43.4526240  53.7135500
 117.1375170  43.6804270  54.6942290 109.9196160  34.5867440  60.7853330
 110.2612970  35.4309490  60.4907200 108.9811970  34.7351180  60.9018670
 121.6180370  45.9472870  60.6860200 120.9343890  46.6171980  60.6776870
 122.1574660  46.1453520  59.9205060 123.0704510  35.7752530  58.8141930
 122.1229420  35.8091510  58.9457360 123.3954500  36.5891480  59.1991290
 113.6024050  32.0749710  57.1097920 113.9099030  31.5196600  56.3933420
 112.6724750  32.2094170  56.9270910 119.1539110  47.7917000  59.4005380
 119.1666270  47.3879290  58.5327640 118.6014330  48.5664290  59.2966810
 118.5524550  42.6946840  60.7287990 118.9693340  42.4806950  59.8941450
 119.2764370  42.9519630  61.2996610 115.9904810  40.1398540  53.8458040
 115.0634090  40.0735920  54.0746510 116.1429630  41.0778670  53.7313280
 122.4986650  41.0934060  60.8204230 121.6705280  41.1627150  60.3454360
 123.0937130  41.6788370  60.3520060 111.5961450  40.6663280  56.6277770
 111.1918450  39.9540530  56.1323670 111.6824570  40.3216520  57.5165810
 112.0643150  44.3530840  58.7916980 111.7671440  43.7476310  58.1124760
 113.0142970  44.3908150  58.6806340 110.3090070  37.4406490  60.4076810
 110.8604660  37.5501830  59.6330060 110.8233580  37.8144090  61.1232040
 111.1561580  44.0912530  65.4424780 110.2590110  44.3152500  65.6898180
 111.1814450  44.2147470  64.4936180 118.1966800  40.9405650  51.3566040
 118.6360080  40.1028080  51.2103860 118.9095220  41.5735050  51.4430180
 109.9832800  40.9625850  64.0182150 109.8440570  41.8348650  64.3869550
 109.1014160  40.6198660  63.8730090 116.3062180  45.8801720  55.3247280
 116.7458090  46.6226050  54.9102670 116.2449070  46.1228290  56.2486240
 111.7813150  46.9047550  66.2267300 111.7528580  47.3090500  65.3595730
 111.6178120  45.9757910  66.0638900 121.7783940  32.1948460  49.6707080
 121.4656600  32.2875290  50.5706150 122.5396410  32.7729490  49.6204510
 107.1799080  44.4323590  56.3459240 106.7727160  44.5738180  55.4912840
 108.0712090  44.1483750  56.1430450 118.9732360  48.8670840  52.6810290
 118.8133500  48.5773780  53.5792120 118.8079070  48.0910970  52.1455520
 111.4520740  48.6469370  54.4581910 111.2763220  47.7304910  54.2449710
 110.5976480  49.0056660  54.6979710 122.9885230  36.9319960  65.6481220
 122.3729500  37.4399630  65.1196680 122.6681650  36.0318290  65.5907160
 110.7629740  32.9043330  57.5108090 110.3197890  33.6852870  57.1792610
 111.3214730  33.2273220  58.2179030 120.0504060  36.9920800  64.2440070
 119.1997650  36.6926550  64.5649140 119.8905850  37.2362810  63.3323890
 112.8005640  33.4490660  59.3697690 113.0977970  34.3553490  59.2889710
 113.3491200  32.9609440  58.7557260 108.1253710  35.3376150  64.0583390
 107.7317100  36.1851360  64.2656170 107.4372110  34.7002520  64.2492030
 105.4270760  33.2604610  58.0913470 105.1383810  33.8307470  58.8038450
 106.1716520  32.7809060  58.4544700 113.4139120  35.9363760  58.3686540
 113.4175180  35.4953710  57.5191080 114.3090240  36.2581090  58.4758360
 109.2641500  35.8190250  57.3280750 108.9241550  36.2965480  58.0847800
 108.5018820  35.3655370  56.9681850 113.7147090  39.9965540  60.1151950
 114.0817220  39.5224110  60.8613290 113.5252150  40.8707110  60.4560290
 106.5787580  34.7409230  56.2445420 106.2934500  34.3764900  57.0824040
 106.5166440  34.0089690  55.6308560 110.0765650  42.9115550  56.6681820
 110.5944320  42.1083810  56.6138710 109.6249670  42.8494690  57.5098650
 114.9635150  44.1781830  51.9409120 115.3050850  44.9224060  51.4452440
 114.1347860  44.4912950  52.3033950 107.5610190  39.8776920  63.5807520
 107.2025130  40.5430770  64.1680860 107.2664750  39.0460470  63.9520140
 121.2388830  39.3169980  50.7300810 121.1552550  39.7484200  49.8797250
 121.9583020  39.7768330  51.1627630 117.8462560  43.4997670  57.3054630
 118.1986380  42.9025800  56.6456000 116.9624890  43.1741900  57.4762880
 113.9325840  44.2595360  54.7125040 114.6196970  44.8064570  55.0932630
 113.1458260  44.8036090  54.7474650 113.2353050  41.2641390  54.3250400
 113.6915830  42.0746640  54.5510590 112.8841260  40.9464530  55.1568890
 109.1364830  31.6079040  54.7972920 109.0079460  31.5996940  55.7457840
 108.3126850  31.9462130  54.4463930 120.6573460  45.0628700  49.9959290
 120.4311040  44.3459140  50.5883930 120.2669660  44.8141140  49.1581040
 118.5855360  45.5774980  63.4756210 118.9211600  46.1641670  64.1534130
 117.6655700  45.4467690  63.7054000 114.4143940  45.6266310  66.6444270
 114.0940810  44.9075550  67.1889960 113.7402300  46.3021380  66.7180330
 112.4558110  46.4726760  51.5877420 112.4468210  47.2056450  50.9721930
 111.5356470  46.2258340  51.6804380 115.4417710  46.5355000  50.2502610
 115.5429690  46.3318990  49.3204590 114.5419450  46.2813280  50.4550390
 114.0835820  49.0541320  54.9450280 114.3377320  49.0162710  54.0229650
 113.1348300  48.9274650  54.9378530 121.7966390  34.7300020  63.0747430
 121.2939990  35.4705420  63.4141240 122.6123050  35.1184020  62.7584220
 108.5689790  48.4219330  67.0565760 109.3702520  48.7431380  67.4701160
 108.0541610  48.0614910  67.7785670 112.6733820  48.4103570  49.6905750
 113.4662430  48.6992400  49.2387540 112.1538170  47.9795740  49.0118230
 106.2887600  40.9092790  66.0001810 106.7926620  40.3300070  66.5718040
 105.5495020  41.1933020  66.5378180 113.3425540  42.3163780  65.5337330
 112.5771210  42.8848780  65.4492000 113.5241500  42.0239990  64.6405560
 116.4313950  42.6927010  50.1590090 115.8824050  43.1396310  50.8032830
 117.0533210  42.1876260  50.6827760 108.3210680  39.0522380  66.8951880
 108.3616020  38.7536250  67.8037110 109.1756180  39.4529990  66.7359400
 113.5150230  33.1550090  61.9751050 113.0667530  33.1774350  61.1296600
 112.8815430  32.7569110  62.5721350 113.9209780  42.0504420  62.5963490
 114.3397890  42.8937150  62.4239730 113.0018410  42.1876460  62.3670270
 115.1764740  48.7567150  51.5934230 116.0715530  49.0952120  51.6152990
 115.2082370  48.0346560  50.9658510 106.0306700  46.9183230  57.2741490
 106.3609710  46.0504290  57.0420130 106.4597700  47.1241750  58.1046450
 110.6268620  45.2492240  54.9343460 110.3264160  45.1257210  55.8347370
 110.5206110  44.3900830  54.5259190 123.3960540  45.0288640  49.6370140
 122.5653500  45.0965290  50.1077370 123.5732370  45.9192760  49.3337000
 106.3521340  40.2974050  56.3712000 105.6970180  40.0285690  55.7271700
 107.1899290  40.1878530  55.9213980 120.8410730  44.0122800  62.3976590
 120.0270570  44.4419960  62.6602380 121.2484930  44.6241210  61.7845640
 122.9036170  42.0670490  49.2976860 123.1785010  42.9749370  49.1696080
 122.7146910  42.0033020  50.2338850 122.1901130  39.1511000  63.9245810
 121.9587220  38.9223750  63.0243760 122.4505680  40.0710550  63.8790700
 106.9413270  37.5935710  64.8173760 106.0469320  37.5602470  65.1567470
 107.4810820  37.7922500  65.5825010 121.5652440  37.4870320  53.5305940
 122.0611560  37.2541190  54.3154820 121.3668510  36.6482160  53.1143580
 107.4452980  31.8684040  59.1656980 108.0929170  31.3181420  58.7252140
 107.8654820  32.1227190  59.9872790 122.9939600  36.1231270  56.0643620
 122.8838880  35.9687310  57.0025890 123.7547190  35.5952210  55.8219030
 121.3405320  32.0625400  62.5226620 121.9777540  32.6759540  62.8885810
 121.4880210  32.0986060  61.5775850 123.8829870  33.9539190  49.3049760
 124.8079180  33.8220370  49.0968050 123.8605660  34.0332010  50.2586210
 123.9568360  34.7249850  51.9306470 123.1619860  34.6594970  52.4599380
 124.1611640  35.6600490  51.9191820 117.3484360  32.8721650  65.0694010
 117.9624770  33.1900940  64.4075090 117.8933920  32.3870240  65.6889870
 123.7659540  48.7713280  62.4755850 123.2717820  49.1682150  61.7582980
 123.1572830  48.1462490  62.8693130 118.0892400  31.4353790  61.3963300
 117.2152240  31.7688900  61.1936230 117.9803150  30.9626970  62.2215170
 121.4498990  49.4136700  59.7542590 120.9901960  50.1652510  59.3800610
 120.8211450  48.6943170  59.6957390 122.2526860  32.6861970  56.3914120
 122.1915260  31.7423190  56.2445140 123.0318890  32.7942060  56.9367580
 106.5579610  48.8254330  55.3538070 106.3901650  48.1925010  56.0519960
 105.6914120  49.0313730  55.0032260 121.3681020  31.8374390  52.3595590
 121.5631650  32.7357840  52.6263020 120.5810890  31.6061470  52.8528540
 114.6862570  49.5349530  67.1227900 115.6129880  49.2993800  67.1663860
 114.6713000  50.3621530  66.6413930 117.3799790  39.6340330  37.8284990
 117.2993840  38.7194940  37.5576700 116.9664210  40.1307400  37.1224700
 115.5117830  41.4119350  39.7094260 114.7359930  40.9319790  39.9992830
 116.1630760  40.7325000  39.5350420 119.5325260  45.8179540  38.4893390
 119.0706790  45.0466780  38.8180560 120.3450810  45.8445610  38.9945840
 107.9375610  36.6841050  34.3712410 107.0492310  37.0257020  34.2692290
 108.2216800  36.4841370  33.4793240 115.7588570  48.1037550  38.1097380
 115.1400010  48.5595050  37.5391820 116.6140350  48.2589010  37.7087080
 114.9526820  44.0876540  39.7164420 114.8835100  43.1466480  39.5553550
 115.7146680  44.1777950  40.2886990 115.9831990  36.8946920  39.9433350
 116.3596810  36.0218800  39.8307020 115.8851500  37.2305620  39.0523790
 110.1137000  35.2672550  35.4050790 110.2203750  36.1676280  35.7119550
 109.2029360  35.2190520  35.1145440 119.7656110  34.3897360  36.8761690
 120.5865730  33.8993930  36.9187170 119.7990190  34.9795020  37.6293530
 111.9544730  38.2358920  39.7375970 112.4622950  38.7339890  40.3780990
 112.4857970  37.4594120  39.5615330 124.0555660  36.4064110  43.4405320
 123.3507830  36.7945820  42.9220430 124.3213580  37.1014400  44.0426250
 116.6251920  42.9876790  35.5029290 116.0069190  43.4526240  34.9392010
 117.1375170  43.6804270  35.9198800 111.4883680  42.5152660  42.1812890
 111.1553060  43.1421580  42.8233960 111.6650360  43.0414540  41.4014560
 120.0017590  36.3297740  39.6489230 119.2973160  36.6182630  40.2292340
 120.3629750  37.1397850  39.2888790 121.6180370  45.9472870  41.9116710
 120.9343890  46.6171980  41.9033380 122.1574660  46.1453520  41.1461570
 123.0704510  35.7752530  40.0398440 122.1229420  35.8091510  40.1713870
 123.3954500  36.5891480  40.4247800 113.6024050  32.0749710  38.3354430
 113.9099030  31.5196600  37.6189930 112.6724750  32.2094170  38.1527420
 119.1539110  47.7917000  40.6261890 119.1666270  47.3879290  39.7584150
 118.6014330  48.5664290  40.5223320 120.4484530  44.5133220  35.7152060
 120.3380860  43.5707550  35.8401480 120.4452780  44.8748860  36.6014820
 118.5524550  42.6946840  41.9544500 118.9693340  42.4806950  41.1197960
 119.2764370  42.9519630  42.5253120 115.9904810  40.1398540  35.0714550
 115.0634090  40.0735920  35.3003020 116.1429630  41.0778670  34.9569790
 115.9773890  36.4115540  32.0681710 115.0377560  36.5729500  32.1534170
 116.2957150  37.1301220  31.5217700 122.4986650  41.0934060  42.0460740
 121.6705280  41.1627150  41.5710870 123.0937130  41.6788370  41.5776570
 120.0202100  41.7018840  35.5749800 119.4014520  41.3638390  34.9276100
 120.0026550  41.0578600  36.2828990 119.4628660  37.8803380  42.9915610
 119.0499840  38.7057090  43.2455600 118.7304610  37.2948420  42.7991970
 111.5961450  40.6663280  37.8534280 111.1918450  39.9540530  37.3580180
 111.6824570  40.3216520  38.7422320 120.1528760  47.9262710  43.6796590
 119.6759320  48.7334900  43.4869200 119.4690550  47.2741040  43.8322800
 118.1966800  40.9405650  32.5822550 118.6360080  40.1028080  32.4360370
 118.9095220  41.5735050  32.6686690 116.3062180  45.8801720  36.5503790
 116.7458090  46.6226050  36.1359180 116.2449070  46.1228290  37.4742750
 121.7783940  32.1948460  30.8963590 121.4656600  32.2875290  31.7962660
 122.5396410  32.7729490  30.8461020 108.2966080  39.5608260  35.3540930
 108.1763680  40.2870350  34.7422200 107.9866970  38.7911170  34.8768840
 123.7327970  47.6874650  48.7487980 124.2087690  48.1657540  49.4277060
 124.3535130  47.6192140  48.0233480 123.1361220  44.8787500  45.9087990
 123.2624280  44.6399380  44.9905170 123.1782600  44.0472040  46.3810070
 116.9977960  48.5815500  44.4782800 117.5122630  48.4923510  45.2805230
 116.1547040  48.9275200  44.7710710 118.9732360  48.8670840  33.9066800
 118.8133500  48.5773780  34.8048630 118.8079070  48.0910970  33.3712030
 118.6758490  46.3758400  32.4664800 117.9823650  46.3735690  31.8067080
 119.4181350  45.9517720  32.0358970 118.2408420  48.0021110  36.5413290
 118.6965370  47.2210490  36.8551910 118.5800940  48.7127930  37.0854470
 122.9885230  36.9319960  46.8737730 122.3729500  37.4399630  46.3453190
 122.6681650  36.0318290  46.8163670 120.0504060  36.9920800  45.4696580
 119.1997650  36.6926550  45.7905650 119.8905850  37.2362810  44.5580400
 117.1453770  38.4922550  47.5695370 117.4707180  37.6586300  47.2297600
 117.9334100  39.0151070  47.7173700 113.8788560  32.5254030  33.6170430
 113.2542740  32.5213900  34.3423740 113.7918680  31.6584990  33.2206400
 112.8005640  33.4490660  40.5954200 113.0977970  34.3553490  40.5146220
 113.3491200  32.9609440  39.9813770 110.5543960  38.0276900  36.4645850
 110.3284880  37.8114070  37.3692470 109.7736490  38.4605360  36.1191820
 117.7841720  38.0340270  35.0636500 117.1850610  38.7576070  34.8800120
 118.3321330  37.9717050  34.2812950 116.3906590  36.6703810  37.0939780
 116.7836160  36.9876010  36.2808470 116.7523440  35.7915690  37.2084300
 116.9761730  39.2609560  41.1890560 116.2442850  39.7696370  41.5380660
 116.5786070  38.4439540  40.8879340 113.4139120  35.9363760  39.5943050
 113.4175180  35.4953710  38.7447590 114.3090240  36.2581090  39.7014870
 109.2641500  35.8190250  38.5537260 108.9241550  36.2965480  39.3104310
 108.5018820  35.3655370  38.1938360 113.4759270  36.9375840  32.5849810
 113.5972090  36.8962320  33.5335630 113.0907780  37.7999990  32.4296540
 117.4387640  34.7143240  40.6013500 117.4560380  35.1651890  41.4455350
 117.1903220  33.8148880  40.8146940 112.4880770  39.2476980  31.9833110
 111.9197670  38.7995230  31.3569020 113.1969770  39.6069760  31.4498260
 120.8658390  32.1275420  46.4399880 121.1904160  31.3965080  46.9657860
 120.9014900  31.8089060  45.5380870 113.7147090  39.9965540  41.3408460
 114.0817220  39.5224110  42.0869800 113.5252150  40.8707110  41.6816800
 106.5787580  34.7409230  37.4701930 106.2934500  34.3764900  38.3080550
 106.5166440  34.0089690  36.8565070 111.5046460  39.0374180  43.6592670
 111.2003530  39.9166160  43.8843030 112.4592920  39.0973970  43.6950110
 110.0328250  43.2435170  34.2559520 109.2590510  42.7032790  34.0958240
 110.7622880  42.7241780  33.9177280 120.7916230  42.2400530  40.0485910
 121.5115350  42.7355820  39.6582020 120.5898050  41.5618420  39.4039780
 116.2526170  33.6338490  34.1915300 115.4390780  33.1351660  34.1160610
 116.0588120  34.4736740  33.7751650 116.1735030  42.3109590  45.9354910
 116.1072340  41.3905260  45.6812500 115.5440170  42.4085030  46.6499550
 118.9674560  38.0058140  32.4877460 119.8554180  38.3175370  32.3128800
 118.9379650  37.1330390  32.0958040 114.9635150  44.1781830  33.1665630
 115.3050850  44.9224060  32.6708950 114.1347860  44.4912950  33.5290460
 107.5610190  39.8776920  44.8064030 107.2025130  40.5430770  45.3937370
 107.2664750  39.0460470  45.1776650 116.1051760  45.1330160  45.6858710
 116.1196300  44.2011120  45.4677620 115.3976860  45.2189920  46.3248480
 121.2388830  39.3169980  31.9557320 121.1552550  39.7484200  31.1053760
 121.9583020  39.7768330  32.3884140 122.3162970  41.7737500  45.0327290
 121.5911160  42.3666280  44.8356680 122.8438430  41.7661040  44.2340660
 122.2676080  46.1712240  34.6839450 121.6252240  45.5167860  34.9583170
 121.8806740  46.5767330  33.9080120 117.8462560  43.4997670  38.5311140
 118.1986380  42.9025800  37.8712510 116.9624890  43.1741900  38.7019390
 113.9325840  44.2595360  35.9381550 114.6196970  44.8064570  36.3189140
 113.1458260  44.8036090  35.9731160 113.2353050  41.2641390  35.5506910
 113.6915830  42.0746640  35.7767100 112.8841260  40.9464530  36.3825400
 115.5385660  46.7747730  42.7799210 116.1827880  46.9807110  43.4572630
 115.9015100  46.0136130  42.3270060 109.1364830  31.6079040  36.0229430
 109.0079460  31.5996940  36.9714350 108.3126850  31.9462130  35.6720440
 116.8117740  44.7780080  41.4976660 117.4539970  44.0773240  41.6108830
 117.3367090  45.5578520  41.3173550 120.6573460  45.0628700  31.2215800
 120.4311040  44.3459140  31.8140440 120.2669660  44.8141140  30.3837550
 118.5855360  45.5774980  44.7012720 118.9211600  46.1641670  45.3790640
 117.6655700  45.4467690  44.9310510 106.4389490  49.0895560  31.9960260
 106.7987130  49.6884900  31.3417530 106.2981830  49.6355450  32.7695290
 120.2389710  42.9800640  32.8829960 119.9511410  43.4413330  33.6707840
 121.0341880  42.5198410  33.1514180 112.4558110  46.4726760  32.8133930
 112.4468210  47.2056450  32.1978440 111.5356470  46.2258340  32.9060890
 117.6297540  35.8592470  43.2337580 117.9978360  35.0387680  43.5617150
 116.7695740  35.9194360  43.6493230 120.9959570  34.8149410  34.0425140
 120.3672730  34.9195080  33.3283370 120.5011490  35.0346190  34.8319020
 115.4417710  46.5355000  31.4759120 115.5429690  46.3318990  30.5461100
 114.5419450  46.2813280  31.6806900 112.9643600  37.0935360  35.4583020
 112.2559750  37.5621700  35.8996630 113.2488080  36.4357370  36.0928210
 114.5899530  38.5132060  43.4575550 115.0884780  38.9877880  44.1227400
 114.7322480  37.5895580  43.6645580 116.9959030  33.8186020  36.8978810
 116.8726810  33.8372150  35.9488320 117.9443590  33.8664960  37.0177210
 114.0835820  49.0541320  36.1706790 114.3377320  49.0162710  35.2486160
 113.1348300  48.9274650  36.1635040 111.1678620  35.4020440  32.8333730
 112.0169150  35.8390590  32.7673920 110.8009890  35.7140700  33.6605790
 121.7966390  34.7300020  44.3003940 121.2939990  35.4705420  44.6397750
 122.6123050  35.1184020  43.9840730 120.0888400  39.9733200  37.7465300
 119.1478540  39.9883430  37.9212990 120.4032470  39.1869160  38.1925600
 110.0670040  41.6552800  31.3069260 110.8333310  41.5434160  31.8694690
 110.1444730  40.9590770  30.6546030 122.0913980  47.1442050  39.4219560
 122.2161400  47.9673220  39.8943370 122.9579540  46.9332780  39.0743710
 112.6733820  48.4103570  30.9162260 113.4662430  48.6992400  30.4644050
 112.1538170  47.9795740  30.2374740 117.4054420  44.5299200  48.2297680
 116.7992580  44.5530800  47.4893430 117.1008530  43.7982240  48.7664930
 118.8354790  48.2579490  46.8407090 119.7876540  48.1737510  46.7907330
 118.6883010  48.9221200  47.5140880 121.7263990  47.6373700  32.3399000
 121.4405500  47.2238840  31.5253180 121.5283540  48.5661410  32.2199520
 106.2887600  40.9092790  47.2258320 106.7926620  40.3300070  47.7974550
 105.5495020  41.1933020  47.7634690 113.1911220  43.6306980  30.7804610
 113.0861860  43.0159330  31.5065990 113.0235440  43.1072870  29.9967620
 116.4313950  42.6927010  31.3846600 115.8824050  43.1396310  32.0289340
 117.0533210  42.1876260  31.9084270 120.4848890  44.0469110  47.3168860
 121.2258360  44.3844870  46.8136320 119.7221570  44.2161170  46.7638630
 112.0989070  41.6517930  33.2811900 112.5205490  41.4857800  34.1243290
 112.2239910  40.8418160  32.7867040 114.6116710  40.6755540  30.5289000
 115.1322370  39.9604560  30.1630150 115.2585110  41.3141410  30.8289510
 119.1594550  42.0983940  45.8524070 119.5735570  42.2529020  46.7014490
 118.2245550  42.2239160  46.0149850 119.6316720  39.4380100  47.8563220
 120.2137490  38.6832420  47.7683700 119.8078490  39.9687540  47.0794700
 113.9209780  42.0504420  43.8220000 114.3397890  42.8937150  43.6496240
 113.0018410  42.1876460  43.5926780 116.2573680  39.7820600  45.2057840
 116.3769890  39.1861740  45.9452680 117.1167680  39.8190290  44.7859140
 118.5961580  40.3357790  43.7820350 118.0696800  40.8600410  43.1785490
 118.9392920  40.9685180  44.4130080 110.9947970  37.7251160  30.2270060
 110.7937030  36.8618520  30.5883400 110.8240020  37.6384520  29.2891660
 111.7717200  48.3557430  44.9377730 111.2338290  49.0803490  44.6186430
 112.0251160  47.8787770  44.1475070 117.8435880  35.9407760  46.6966680
 117.1551400  35.2789300  46.6316670 118.5641900  35.4946030  47.1415140
 118.4736280  32.5359390  32.7556940 118.7538570  31.6927290  33.1116360
 117.7002010  32.7682500  33.2695690 109.7930770  34.8251780  30.2147940
 110.0956670  34.8319210  29.3067090 110.5325360  34.4749640  30.7115600
 113.0115700  33.7686400  31.2004140 112.6637700  33.0910390  30.6206590
 113.2128470  33.3075910  32.0147530 108.8160900  44.1294200  31.0477740
 109.2535770  44.6723870  31.7035320 109.3008630  43.3041150  31.0574080
 122.1559090  47.2870820  45.5256940 121.5561080  47.3463380  44.7820860
 122.2852990  46.3475800  45.6553790 123.3960540  45.0288640  30.8626650
 122.5653500  45.0965290  31.3333880 123.5732370  45.9192760  30.5593510
 122.8517000  41.7736120  33.3660850 123.6135910  42.3432770  33.4720540
 122.8671370  41.2063320  34.1369160 123.8576970  42.6286220  38.2102780
 124.2285800  41.8453540  37.8038750 124.4978900  43.3175320  38.0320080
 120.8410730  44.0122800  43.6233100 120.0270570  44.4419960  43.8858890
 121.2484930  44.6241210  43.0102150 122.9036170  42.0670490  30.5233370
 123.1785010  42.9749370  30.3952590 122.7146910  42.0033020  31.4595360
 119.3011780  35.0915340  31.8187000 119.7196660  34.9046320  30.9783660
 118.9947840  34.2394390  32.1289930 122.8001510  40.0039480  35.5162800
 122.4245110  39.2367410  35.0844090 122.0704630  40.3862180  36.0037730
 122.1901130  39.1511000  45.1502320 121.9587220  38.9223750  44.2500270
 122.4505680  40.0710550  45.1047210 106.9413270  37.5935710  46.0430270
 106.0469320  37.5602470  46.3823980 107.4810820  37.7922500  46.8081520
 120.6289200  34.3767430  47.9282020 121.5059380  34.3850830  48.3116020
 120.6410040  33.6398270  47.3174370 122.0752470  38.2296970  38.8170040
 122.5989950  37.7359620  38.1860210 122.6611890  38.3647330  39.5617610
 122.2542190  38.3136840  42.3389590 121.3044900  38.2800380  42.4534580
 122.4355200  39.2236950  42.1039360 108.1086630  36.5638520  31.4488220
 108.8178330  36.1421740  30.9635500 107.3926570  36.6313750  30.8171570
 107.7560790  32.6177850  30.4890870 108.4788920  33.1586790  30.8072090
 108.0285310  32.3441270  29.6132410 121.5652440  37.4870320  34.7562450
 122.0611560  37.2541190  35.5411330 121.3668510  36.6482160  34.3400090
 122.9939600  36.1231270  37.2900130 122.8838880  35.9687310  38.2282400
 123.7547190  35.5952210  37.0475540 121.3405320  32.0625400  43.7483130
 121.9777540  32.6759540  44.1142320 121.4880210  32.0986060  42.8032360
 123.8829870  33.9539190  30.5306270 124.8079180  33.8220370  30.3224560
 123.8605660  34.0332010  31.4842720 123.9568360  34.7249850  33.1562980
 123.1619860  34.6594970  33.6855890 124.1611640  35.6600490  33.1448330
 120.8986780  48.7641400  37.1501370 121.4945850  48.4425970  36.4735790
 121.1564930  48.2913220  37.9414640 123.7659540  48.7713280  43.7012360
 123.2717820  49.1682150  42.9839490 123.1572830  48.1462490  44.0949640
 118.0892400  31.4353790  42.6219810 117.2152240  31.7688900  42.4192740
 117.9803150  30.9626970  43.4471680 118.9964380  33.6424660  44.0061530
 118.6677740  32.8276420  43.6263260 119.9446680  33.5994470  43.8827220
 121.4498990  49.4136700  40.9799100 120.9901960  50.1652510  40.6057120
 120.8211450  48.6943170  40.9213900 108.2749610  45.5079940  43.3697820
 107.5483670  44.8885230  43.3023770 108.3358760  45.9020550  42.4995900
 115.8367220  32.3523630  41.5612720 115.0539010  32.8269130  41.8409480
 115.5430150  31.4478460  41.4525900 120.3888290  33.0546730  39.6061810
 120.8296380  32.9991830  38.7583410 120.1195880  33.9704740  39.6771990
 122.2526860  32.6861970  37.6170630 122.1915260  31.7423190  37.4701650
 123.0318890  32.7942060  38.1624090 107.1807630  32.6571110  34.0826440
 107.9386990  32.7699990  33.5090470 106.7184800  33.4940310  34.0369870
 113.7221440  34.7710380  37.0728750 112.9095950  34.3967270  36.7324630
 114.2263080  34.0155460  37.3749940 118.2246420  31.4352830  38.3111820
 118.8275790  32.0073040  38.7860340 117.4839410  31.9992270  38.0885720
 121.3681020  31.8374390  33.5852100 121.5631650  32.7357840  33.8519530
 120.5810890  31.6061470  34.0785050 109.5532780  33.1835160  32.6228410
 110.0825540  32.3964960  32.4936360 110.1861100  33.8626350  32.8563940
 111.7470620  32.9210300  35.6773800 111.1173360  32.2197610  35.8443930
 111.2075760  33.6814430  35.4606960 122.9207630  49.0775100  35.3458660
 123.0959820  48.3912840  34.7019580 122.2229200  49.6022150  34.9535330
 109.9250070  45.5834670  32.9040300 109.2958950  46.0519770  33.4526130
 110.0397900  44.7383890  33.3386490 118.4741640  31.6147860  48.6906760
 118.3607090  31.9342470  49.5858280 119.2911380  32.0160370  48.3944040
 121.2540130  48.7619390  48.1725450 122.0465450  48.2668620  47.9651410
 121.5473280  49.4409530  48.7801060 117.3799790  39.6340330  19.0541500
 117.2993840  38.7194940  18.7833210 116.9664210  40.1307400  18.3481210
 115.5117830  41.4119350  20.9350770 114.7359930  40.9319790  21.2249340
 116.1630760  40.7325000  20.7606930 109.5283660  41.7239160  21.8126530
 108.6968540  41.4687870  22.2123040 110.1364640  41.7949930  22.5484450
 119.5325260  45.8179540  19.7149900 119.0706790  45.0466780  20.0437070
 120.3450810  45.8445610  20.2202350 109.5084920  45.7579250  22.0084550
 109.8112960  44.8676990  21.8294770 110.2528510  46.3149470  21.7806800
 107.9375610  36.6841050  15.5968920 107.0492310  37.0257020  15.4948800
 108.2216800  36.4841370  14.7049750 105.9008620  39.2846700  21.4808620
 106.4724730  38.5168900  21.4812260 105.9010160  39.5835460  20.5715230
 115.7588570  48.1037550  19.3353890 115.1400010  48.5595050  18.7648330
 116.6140350  48.2589010  18.9343590 114.9526820  44.0876540  20.9420930
 114.8835100  43.1466480  20.7810060 115.7146680  44.1777950  21.5143500
 107.1433490  34.6931060  23.2677550 106.9636330  33.7956810  23.5480310
 106.7413570  35.2402930  23.9424500 115.9831990  36.8946920  21.1689860
 116.3596810  36.0218800  21.0563530 115.8851500  37.2305620  20.2780300
 110.1137000  35.2672550  16.6307300 110.2203750  36.1676280  16.9376060
 109.2029360  35.2190520  16.3401950 119.7656110  34.3897360  18.1018200
 120.5865730  33.8993930  18.1443680 119.7990190  34.9795020  18.8550040
 107.7620160  37.1891560  21.8759890 108.4430270  37.4529930  22.4947290
 107.4468210  36.3492430  22.2097900 111.9544730  38.2358920  20.9632480
 112.4622950  38.7339890  21.6037500 112.4857970  37.4594120  20.7871840
 124.0555660  36.4064110  24.6661830 123.3507830  36.7945820  24.1476940
 124.3213580  37.1014400  25.2682760 110.2380830  32.8757480  25.2295900
 110.2399270  33.3929870  24.4241800 109.4085140  32.3987660  25.2065830
 116.6251920  42.9876790  16.7285800 116.0069190  43.4526240  16.1648520
 117.1375170  43.6804270  17.1455310 111.4883680  42.5152660  23.4069400
 111.1553060  43.1421580  24.0490470 111.6650360  43.0414540  22.6271070
 120.0017590  36.3297740  20.8745740 119.2973160  36.6182630  21.4548850
 120.3629750  37.1397850  20.5145300 109.9196160  34.5867440  23.2366350
 110.2612970  35.4309490  22.9420220 108.9811970  34.7351180  23.3531690
 110.7002780  44.4833460  25.2218580 111.3176780  45.1584540  24.9403030
 109.8395900  44.8921440  25.1306080 105.9935120  43.6733320  14.1025430
 105.6163100  44.1620420  13.3710330 106.2508190  44.3458600  14.7331960
 121.6180370  45.9472870  23.1373220 120.9343890  46.6171980  23.1289890
 122.1574660  46.1453520  22.3718080 123.0704510  35.7752530  21.2654950
 122.1229420  35.8091510  21.3970380 123.3954500  36.5891480  21.6504310
 113.6024050  32.0749710  19.5610940 113.9099030  31.5196600  18.8446440
 112.6724750  32.2094170  19.3783930 119.1539110  47.7917000  21.8518400
 119.1666270  47.3879290  20.9840660 118.6014330  48.5664290  21.7479830
 120.4484530  44.5133220  16.9408570 120.3380860  43.5707550  17.0657990
 120.4452780  44.8748860  17.8271330 118.5524550  42.6946840  23.1801010
 118.9693340  42.4806950  22.3454470 119.2764370  42.9519630  23.7509630
 115.9904810  40.1398540  16.2971060 115.0634090  40.0735920  16.5259530
 116.1429630  41.0778670  16.1826300 115.9773890  36.4115540  13.2938220
 115.0377560  36.5729500  13.3790680 116.2957150  37.1301220  12.7474210
 122.4986650  41.0934060  23.2717250 121.6705280  41.1627150  22.7967380
 123.0937130  41.6788370  22.8033080 120.0202100  41.7018840  16.8006310
 119.4014520  41.3638390  16.1532610 120.0026550  41.0578600  17.5085500
 119.4628660  37.8803380  24.2172120 119.0499840  38.7057090  24.4712110
 118.7304610  37.2948420  24.0248480 111.5961450  40.6663280  19.0790790
 111.1918450  39.9540530  18.5836690 111.6824570  40.3216520  19.9678830
 112.0643150  44.3530840  21.2430000 111.7671440  43.7476310  20.5637780
 113.0142970  44.3908150  21.1319360 110.3090070  37.4406490  22.8589830
 110.8604660  37.5501830  22.0843080 110.8233580  37.8144090  23.5745060
 120.1528760  47.9262710  24.9053100 119.6759320  48.7334900  24.7125710
 119.4690550  47.2741040  25.0579310 111.1561580  44.0912530  27.8937800
 110.2590110  44.3152500  28.1411200 111.1814450  44.2147470  26.9449200
 118.1966800  40.9405650  13.8079060 118.6360080  40.1028080  13.6616880
 118.9095220  41.5735050  13.8943200 109.9832800  40.9625850  26.4695170
 109.8440570  41.8348650  26.8382570 109.1014160  40.6198660  26.3243110
 116.3062180  45.8801720  17.7760300 116.7458090  46.6226050  17.3615690
 116.2449070  46.1228290  18.6999260 111.7813150  46.9047550  28.6780320
 111.7528580  47.3090500  27.8108750 111.6178120  45.9757910  28.5151920
 121.7783940  32.1948460  12.1220100 121.4656600  32.2875290  13.0219170
 122.5396410  32.7729490  12.0717530 108.2966080  39.5608260  16.5797440
 108.1763680  40.2870350  15.9678710 107.9866970  38.7911170  16.1025350
 123.7327970  47.6874650  29.9744490 124.2087690  48.1657540  30.6533570
 124.3535130  47.6192140  29.2489990 105.9351450  42.7323400  22.3866080
 106.0131870  42.8672170  21.4421800 106.5493130  42.0239290  22.5794200
 107.1799080  44.4323590  18.7972260 106.7727160  44.5738180  17.9425860
 108.0712090  44.1483750  18.5943470 123.1361220  44.8787500  27.1344500
 123.2624280  44.6399380  26.2161680 123.1782600  44.0472040  27.6066580
 116.9977960  48.5815500  25.7039310 117.5122630  48.4923510  26.5061740
 116.1547040  48.9275200  25.9967220 118.9732360  48.8670840  15.1323310
 118.8133500  48.5773780  16.0305140 118.8079070  48.0910970  14.5968540
 111.4520740  48.6469370  16.9094930 111.2763220  47.7304910  16.6962730
 110.5976480  49.0056660  17.1492730 118.6758490  46.3758400  13.6921310
 117.9823650  46.3735690  13.0323590 119.4181350  45.9517720  13.2615480
 118.2408420  48.0021110  17.7669800 118.6965370  47.2210490  18.0808420
 118.5800940  48.7127930  18.3110980 122.9885230  36.9319960  28.0994240
 122.3729500  37.4399630  27.5709700 122.6681650  36.0318290  28.0420180
 105.9910970  43.7737570  24.9260540 106.1542010  43.3042930  24.1079910
 106.4563420  43.2661130  25.5909380 110.7629740  32.9043330  19.9621110
 110.3197890  33.6852870  19.6305630 111.3214730  33.2273220  20.6692050
 115.0499550  35.7711850  25.5656430 114.5878920  35.9794870  26.3776370
 114.6477660  34.9571200  25.2627100 120.0504060  36.9920800  26.6953090
 119.1997650  36.6926550  27.0162160 119.8905850  37.2362810  25.7836910
 117.1453770  38.4922550  28.7951880 117.4707180  37.6586300  28.4554110
 117.9334100  39.0151070  28.9430210 113.8788560  32.5254030  14.8426940
 113.2542740  32.5213900  15.5680250 113.7918680  31.6584990  14.4462910
 112.8005640  33.4490660  21.8210710 113.0977970  34.3553490  21.7402730
 113.3491200  32.9609440  21.2070280 110.5543960  38.0276900  17.6902360
 110.3284880  37.8114070  18.5948980 109.7736490  38.4605360  17.3448330
 117.7841720  38.0340270  16.2893010 117.1850610  38.7576070  16.1056630
 118.3321330  37.9717050  15.5069460 112.9943170  38.9262480  28.3562630
 112.8986770  37.9857210  28.2063030 113.8375150  39.1477550  27.9610700
 116.3906590  36.6703810  18.3196290 116.7836160  36.9876010  17.5064980
 116.7523440  35.7915690  18.4340810 108.1253710  35.3376150  26.5096410
 107.7317100  36.1851360  26.7169190 107.4372110  34.7002520  26.7005050
 114.6998760  35.4211120  29.5793150 114.0097080  35.2283320  30.2139240
 115.4431060  35.7045760  30.1117450 105.4270760  33.2604610  20.5426490
 105.1383810  33.8307470  21.2551470 106.1716520  32.7809060  20.9057720
 105.6140990  37.2024730  11.7529210 105.5315660  38.1455490  11.8944200
 105.2624050  37.0599640  10.8741560 116.9761730  39.2609560  22.4147070
 116.2442850  39.7696370  22.7637170 116.5786070  38.4439540  22.1135850
 113.4139120  35.9363760  20.8199560 113.4175180  35.4953710  19.9704100
 114.3090240  36.2581090  20.9271380 109.2641500  35.8190250  19.7793770
 108.9241550  36.2965480  20.5360820 108.5018820  35.3655370  19.4194870
 113.4759270  36.9375840  13.8106320 113.5972090  36.8962320  14.7592140
 113.0907780  37.7999990  13.6553050 117.4387640  34.7143240  21.8270010
 117.4560380  35.1651890  22.6711860 117.1903220  33.8148880  22.0403450
 112.4880770  39.2476980  13.2089620 111.9197670  38.7995230  12.5825530
 113.1969770  39.6069760  12.6754770 120.8658390  32.1275420  27.6656390
 121.1904160  31.3965080  28.1914370 120.9014900  31.8089060  26.7637380
 107.5649950  43.1489000  27.0856350 107.1804740  42.5082670  27.6839310
 107.8762140  43.8525120  27.6551080 113.7147090  39.9965540  22.5664970
 114.0817220  39.5224110  23.3126310 113.5252150  40.8707110  22.9073310
 106.5787580  34.7409230  18.6958440 106.2934500  34.3764900  19.5337060
 106.5166440  34.0089690  18.0821580 111.5046460  39.0374180  24.8849180
 111.2003530  39.9166160  25.1099540 112.4592920  39.0973970  24.9206620
 110.0328250  43.2435170  15.4816030 109.2590510  42.7032790  15.3214750
 110.7622880  42.7241780  15.1433790 120.7916230  42.2400530  21.2742420
 121.5115350  42.7355820  20.8838530 120.5898050  41.5618420  20.6296290
 116.2526170  33.6338490  15.4171810 115.4390780  33.1351660  15.3417120
 116.0588120  34.4736740  15.0008160 116.1735030  42.3109590  27.1611420
 116.1072340  41.3905260  26.9069010 115.5440170  42.4085030  27.8756060
 118.9674560  38.0058140  13.7133970 119.8554180  38.3175370  13.5385310
 118.9379650  37.1330390  13.3214550 110.0765650  42.9115550  19.1194840
 110.5944320  42.1083810  19.0651730 109.6249670  42.8494690  19.9611670
 114.9635150  44.1781830  14.3922140 115.3050850  44.9224060  13.8965460
 114.1347860  44.4912950  14.7546970 107.5610190  39.8776920  26.0320540
 107.2025130  40.5430770  26.6193880 107.2664750  39.0460470  26.4033160
 110.7623310  40.3361160  28.9160090 110.4623450  40.4818340  28.0187910
 111.5334550  39.7766450  28.8233480 116.1051760  45.1330160  26.9115220
 116.1196300  44.2011120  26.6934130 115.3976860  45.2189920  27.5504990
 121.2388830  39.3169980  13.1813830 121.1552550  39.7484200  12.3310270
 121.9583020  39.7768330  13.6140650 122.3162970  41.7737500  26.2583800
 121.5911160  42.3666280  26.0613190 122.8438430  41.7661040  25.4597170
 122.2676080  46.1712240  15.9095960 121.6252240  45.5167860  16.1839680
 121.8806740  46.5767330  15.1336630 117.8462560  43.4997670  19.7567650
 118.1986380  42.9025800  19.0969020 116.9624890  43.1741900  19.9275900
 113.9325840  44.2595360  17.1638060 114.6196970  44.8064570  17.5445650
 113.1458260  44.8036090  17.1987670 106.0718240  39.8768180  12.6555140
 106.9413090  40.1592980  12.9391060 105.5808560  40.6904050  12.5403950
 113.2353050  41.2641390  16.7763420 113.6915830  42.0746640  17.0023610
 112.8841260  40.9464530  17.6081910 115.5385660  46.7747730  24.0055720
 116.1827880  46.9807110  24.6829140 115.9015100  46.0136130  23.5526570
 109.1364830  31.6079040  17.2485940 109.0079460  31.5996940  18.1970860
 108.3126850  31.9462130  16.8976950 116.8117740  44.7780080  22.7233170
 117.4539970  44.0773240  22.8365340 117.3367090  45.5578520  22.5430060
 120.6573460  45.0628700  12.4472310 120.4311040  44.3459140  13.0396950
 120.2669660  44.8141140  11.6094060 118.5855360  45.5774980  25.9269230
 118.9211600  46.1641670  26.6047150 117.6655700  45.4467690  26.1567020
 106.4389490  49.0895560  13.2216770 106.7987130  49.6884900  12.5674040
 106.2981830  49.6355450  13.9951800 106.1358760  33.3670160  26.7092640
 105.4217280  33.5667080  27.3145250 106.5553800  32.5909730  27.0807440
 120.2389710  42.9800640  14.1086470 119.9511410  43.4413330  14.8964350
 121.0341880  42.5198410  14.3770690 106.4231350  47.3550420  27.6959170
 106.5322470  46.4145160  27.5554560 105.7711910  47.6205170  27.0472900
 114.4143940  45.6266310  29.0957290 114.0940810  44.9075550  29.6402980
 113.7402300  46.3021380  29.1693350 112.4558110  46.4726760  14.0390440
 112.4468210  47.2056450  13.4234950 111.5356470  46.2258340  14.1317400
 108.0564750  41.6941650  14.7837200 107.4492700  42.4340550  14.7932500
 108.5314100  41.7841010  13.9575400 117.6297540  35.8592470  24.4594090
 117.9978360  35.0387680  24.7873660 116.7695740  35.9194360  24.8749740
 120.9959570  34.8149410  15.2681650 120.3672730  34.9195080  14.5539880
 120.5011490  35.0346190  16.0575530 115.4417710  46.5355000  12.7015630
 115.5429690  46.3318990  11.7717610 114.5419450  46.2813280  12.9063410
 112.9643600  37.0935360  16.6839530 112.2559750  37.5621700  17.1253140
 113.2488080  36.4357370  17.3184720 114.5899530  38.5132060  24.6832060
 115.0884780  38.9877880  25.3483910 114.7322480  37.5895580  24.8902090
 116.9959030  33.8186020  18.1235320 116.8726810  33.8372150  17.1744830
 117.9443590  33.8664960  18.2433720 114.0835820  49.0541320  17.3963300
 114.3377320  49.0162710  16.4742670 113.1348300  48.9274650  17.3891550
 111.1678620  35.4020440  14.0590240 112.0169150  35.8390590  13.9930430
 110.8009890  35.7140700  14.8862300 121.7966390  34.7300020  25.5260450
 121.2939990  35.4705420  25.8654260 122.6123050  35.1184020  25.2097240
 120.0888400  39.9733200  18.9721810 119.1478540  39.9883430  19.1469500
 120.4032470  39.1869160  19.4182110 110.0670040  41.6552800  12.5325770
 110.8333310  41.5434160  13.0951200 110.1444730  40.9590770  11.8802540
 108.7616800  39.0877870  13.2158660 108.8420390  38.1405380  13.3276060
 109.6536550  39.4184750  13.3219320 122.0913980  47.1442050  20.6476070
 122.2161400  47.9673220  21.1199880 122.9579540  46.9332780  20.3000220
 109.5631510  49.2373260  20.3193200 110.2993990  48.6888720  20.5901770
 109.9472430  50.1029270  20.1799190 106.4476990  45.3046830  16.1934710
 105.5216770  45.5467970  16.1840120 106.9133420  46.1321090  16.0719460
 108.5689790  48.4219330  29.5078780 109.3702520  48.7431380  29.9214180
 108.0541610  48.0614910  30.2298690 112.6733820  48.4103570  12.1418770
 113.4662430  48.6992400  11.6900560 112.1538170  47.9795740  11.4631250
 117.4054420  44.5299200  29.4554190 116.7992580  44.5530800  28.7149940
 117.1008530  43.7982240  29.9921440 118.8354790  48.2579490  28.0663600
 119.7876540  48.1737510  28.0163840 118.6883010  48.9221200  28.7397390
 121.7263990  47.6373700  13.5655510 121.4405500  47.2238840  12.7509690
 121.5283540  48.5661410  13.4456030 113.1911220  43.6306980  12.0061120
 113.0861860  43.0159330  12.7322500 113.0235440  43.1072870  11.2224130
 113.3425540  42.3163780  27.9850350 112.5771210  42.8848780  27.9005020
 113.5241500  42.0239990  27.0918580 116.4313950  42.6927010  12.6103110
 115.8824050  43.1396310  13.2545850 117.0533210  42.1876260  13.1340780
 120.4848890  44.0469110  28.5425370 121.2258360  44.3844870  28.0392830
 119.7221570  44.2161170  27.9895140 108.3210680  39.0522380  29.3464900
 108.3616020  38.7536250  30.2550130 109.1756180  39.4529990  29.1872420
 112.0989070  41.6517930  14.5068410 112.5205490  41.4857800  15.3499800
 112.2239910  40.8418160  14.0123550 110.2616490  37.6314480  27.3139390
 109.7312950  37.1405430  26.6862730 110.9304560  38.0598680  26.7797320
 114.6116710  40.6755540  11.7545510 115.1322370  39.9604560  11.3886660
 115.2585110  41.3141410  12.0546020 119.1594550  42.0983940  27.0780580
 119.5735570  42.2529020  27.9271000 118.2245550  42.2239160  27.2406360
 119.6316720  39.4380100  29.0819730 120.2137490  38.6832420  28.9940210
 119.8078490  39.9687540  28.3051210 110.7488790  34.5976850  27.3936680
 110.6545660  33.9797600  26.6687550 110.1686180  35.3243140  27.1666590
 113.5150230  33.1550090  24.4264070 113.0667530  33.1774350  23.5809620
 112.8815430  32.7569110  25.0234370 113.9209780  42.0504420  25.0476510
 114.3397890  42.8937150  24.8752750 113.0018410  42.1876460  24.8183290
 116.2573680  39.7820600  26.4314350 116.3769890  39.1861740  27.1709190
 117.1167680  39.8190290  26.0115650 118.5961580  40.3357790  25.0076860
 118.0696800  40.8600410  24.4042000 118.9392920  40.9685180  25.6386590
 110.9947970  37.7251160  11.4526570 110.7937030  36.8618520  11.8139910
 110.8240020  37.6384520  10.5148170 111.7717200  48.3557430  26.1634240
 111.2338290  49.0803490  25.8442940 112.0251160  47.8787770  25.3731580
 113.0242450  36.3241950  27.6890170 113.6142140  36.0157800  28.3767990
 112.2062690  35.8521700  27.8450070 117.8435880  35.9407760  27.9223190
 117.1551400  35.2789300  27.8573180 118.5641900  35.4946030  28.3671650
 118.4736280  32.5359390  13.9813450 118.7538570  31.6927290  14.3372870
 117.7002010  32.7682500  14.4952200 109.7930770  34.8251780  11.4404450
 110.0956670  34.8319210  10.5323600 110.5325360  34.4749640  11.9372110
 114.6279410  49.5908640  26.4220890 114.5538110  50.4943780  26.7293260
 113.7258250  49.2720540  26.3942960 113.0115700  33.7686400  12.4260650
 112.6637700  33.0910390  11.8463100 113.2128470  33.3075910  13.2404040
 115.1764740  48.7567150  14.0447250 116.0715530  49.0952120  14.0666010
 115.2082370  48.0346560  13.4171530 108.8160900  44.1294200  12.2734250
 109.2535770  44.6723870  12.9291830 109.3008630  43.3041150  12.2830590
 106.0306700  46.9183230  19.7254510 106.3609710  46.0504290  19.4933150
 106.4597700  47.1241750  20.5559470 110.6268620  45.2492240  17.3856480
 110.3264160  45.1257210  18.2860390 110.5206110  44.3900830  16.9772210
 106.5196910  47.7853820  22.4636140 106.0827900  47.9654620  23.2960290
 107.0874590  48.5428440  22.3217860 122.1559090  47.2870820  26.7513450
 121.5561080  47.3463380  26.0077370 122.2852990  46.3475800  26.8810300
 123.3960540  45.0288640  12.0883160 122.5653500  45.0965290  12.5590390
 123.5732370  45.9192760  11.7850020 122.8517000  41.7736120  14.5917360
 123.6135910  42.3432770  14.6977050 122.8671370  41.2063320  15.3625670
 106.3521340  40.2974050  18.8225020 105.6970180  40.0285690  18.1784720
 107.1899290  40.1878530  18.3727000 123.8576970  42.6286220  19.4359290
 124.2285800  41.8453540  19.0295260 124.4978900  43.3175320  19.2576590
 120.8410730  44.0122800  24.8489610 120.0270570  44.4419960  25.1115400
 121.2484930  44.6241210  24.2358660 122.9036170  42.0670490  11.7489880
 123.1785010  42.9749370  11.6209100 122.7146910  42.0033020  12.6851870
 119.3011780  35.0915340  13.0443510 119.7196660  34.9046320  12.2040170
 118.9947840  34.2394390  13.3546440 122.8001510  40.0039480  16.7419310
 122.4245110  39.2367410  16.3100600 122.0704630  40.3862180  17.2294240
 107.3897270  40.6826620  23.3628360 107.7570310  40.5954020  24.2424380
 106.8208090  39.9193170  23.2635220 122.1901130  39.1511000  26.3758830
 121.9587220  38.9223750  25.4756780 122.4505680  40.0710550  26.3303720
 106.9413270  37.5935710  27.2686780 106.0469320  37.5602470  27.6080490
 107.4810820  37.7922500  28.0338030 120.6289200  34.3767430  29.1538530
 121.5059380  34.3850830  29.5372530 120.6410040  33.6398270  28.5430880
 105.5659420  37.5072980  14.7650350 104.6623500  37.7703180  14.5902010
 106.0500040  37.7784150  13.9850310 122.0752470  38.2296970  20.0426550
 122.5989950  37.7359620  19.4116720 122.6611890  38.3647330  20.7874120
 122.2542190  38.3136840  23.5646100 121.3044900  38.2800380  23.6791090
 122.4355200  39.2236950  23.3295870 108.1086630  36.5638520  12.6744730
 108.8178330  36.1421740  12.1892010 107.3926570  36.6313750  12.0428080
 107.7560790  32.6177850  11.7147380 108.4788920  33.1586790  12.0328600
 108.0285310  32.3441270  10.8388920 121.5652440  37.4870320  15.9818960
 122.0611560  37.2541190  16.7667840 121.3668510  36.6482160  15.5656600
 107.4452980  31.8684040  21.6170000 108.0929170  31.3181420  21.1765160
 107.8654820  32.1227190  22.4385810 122.9939600  36.1231270  18.5156640
 122.8838880  35.9687310  19.4538910 123.7547190  35.5952210  18.2732050
 121.3405320  32.0625400  24.9739640 121.9777540  32.6759540  25.3398830
 121.4880210  32.0986060  24.0288870 123.8829870  33.9539190  11.7562780
 124.8079180  33.8220370  11.5481070 123.8605660  34.0332010  12.7099230
 123.9568360  34.7249850  14.3819490 123.1619860  34.6594970  14.9112400
 124.1611640  35.6600490  14.3704840 120.8986780  48.7641400  18.3757880
 121.4945850  48.4425970  17.6992300 121.1564930  48.2913220  19.1671150
 107.1984980  32.0239710  24.3595320 106.8499800  32.4803530  25.1253500
 106.8672680  31.1296840  24.4417750 108.8049350  45.1959310  28.5248510
 108.7618980  44.8252220  29.4062970 108.9360360  46.1336880  28.6650330
 112.5055380  46.7518900  24.1258230 112.2646740  47.0193460  23.2388750
 113.4458020  46.9224630  24.1809090 114.7109800  33.2151590  27.8814740
 114.6498690  33.8073420  28.6310150 115.6510180  33.1077550  27.7365000
 117.3484360  32.8721650  27.5207030 117.9624770  33.1900940  26.8588110
 117.8933920  32.3870240  28.1402890 123.7659540  48.7713280  24.9268870
 123.2717820  49.1682150  24.2096000 123.1572830  48.1462490  25.3206150
 107.8705620  31.5515910  27.6346090 108.4188610  31.3703960  26.8712200
 107.9360930  30.7610020  28.1702400 108.6437380  48.1421560  25.6446290
 108.0497700  48.0106260  26.3836330 108.6361220  47.3059700  25.1788390
 118.0892400  31.4353790  23.8476320 117.2152240  31.7688900  23.6449250
 117.9803150  30.9626970  24.6728190 118.9964380  33.6424660  25.2318040
 118.6677740  32.8276420  24.8519770 119.9446680  33.5994470  25.1083730
 121.4498990  49.4136700  22.2055610 120.9901960  50.1652510  21.8313630
 120.8211450  48.6943170  22.1470410 108.2749610  45.5079940  24.5954330
 107.5483670  44.8885230  24.5280280 108.3358760  45.9020550  23.7252410
 111.8794710  47.7224940  21.3803740 112.3959730  47.1112300  20.8552000
 112.5292090  48.2253720  21.8714750 114.6190210  48.6133430  22.2072720
 114.9068020  48.3587730  21.3305730 115.1313430  48.0610790  22.7978290
 115.8367220  32.3523630  22.7869230 115.0539010  32.8269130  23.0665990
 115.5430150  31.4478460  22.6782410 120.3888290  33.0546730  20.8318320
 120.8296380  32.9991830  19.9839920 120.1195880  33.9704740  20.9028500
 122.2526860  32.6861970  18.8427140 122.1915260  31.7423190  18.6958160
 123.0318890  32.7942060  19.3880600 106.5579610  48.8254330  17.8051090
 106.3901650  48.1925010  18.5032980 105.6914120  49.0313730  17.4545280
 107.1807630  32.6571110  15.3082950 107.9386990  32.7699990  14.7346980
 106.7184800  33.4940310  15.2626380 113.7221440  34.7710380  18.2985260
 112.9095950  34.3967270  17.9581140 114.2263080  34.0155460  18.6006450
 118.2246420  31.4352830  19.5368330 118.8275790  32.0073040  20.0116850
 117.4839410  31.9992270  19.3142230 121.3681020  31.8374390  14.8108610
 121.5631650  32.7357840  15.0776040 120.5810890  31.6061470  15.3041560
 108.1642310  47.5187560  15.2501230 107.6389930  47.8995590  14.5463190
 108.0886890  48.1438330  15.9710940 109.5532780  33.1835160  13.8484920
 110.0825540  32.3964960  13.7192870 110.1861100  33.8626350  14.0820450
 111.7470620  32.9210300  16.9030310 111.1173360  32.2197610  17.0700440
 111.2075760  33.6814430  16.6863470 114.6862570  49.5349530  29.5740920
 115.6129880  49.2993800  29.6176880 114.6713000  50.3621530  29.0926950
 122.9207630  49.0775100  16.5715170 123.0959820  48.3912840  15.9276090
 122.2229200  49.6022150  16.1791840 111.8726180  32.1994280  29.3382800
 111.5910450  32.7027880  28.5743620 112.2545880  31.4016030  28.9724930
 110.7635280  49.4669940  14.1250480 111.4954100  49.1829220  13.5774370
 111.0228950  49.2283220  15.0149860 109.9250070  45.5834670  14.1296810
 109.2958950  46.0519770  14.6782640 110.0397900  44.7383890  14.5643000
 118.4741640  31.6147860  29.9163270 118.3607090  31.9342470  30.8114790
 119.2911380  32.0160370  29.6200550 121.2540130  48.7619390  29.3981960
 122.0465450  48.2668620  29.1907920 121.5473280  49.4409530  30.0057570
 115.5117830  41.4119350   2.1607280 114.7359930  40.9319790   2.4505850
 116.1630760  40.7325000   1.9863440 109.5283660  41.7239160   3.0383040
 108.6968540  41.4687870   3.4379550 110.1364640  41.7949930   3.7740960
 109.5084920  45.7579250   3.2341060 109.8112960  44.8676990   3.0551280
 110.2528510  46.3149470   3.0063310 105.9008620  39.2846700   2.7065130
 106.4724730  38.5168900   2.7068770 105.9010160  39.5835460   1.7971740
 114.9526820  44.0876540   2.1677440 114.8835100  43.1466480   2.0066570
 115.7146680  44.1777950   2.7400010 107.1433490  34.6931060   4.4934060
 106.9636330  33.7956810   4.7736820 106.7413570  35.2402930   5.1681010
 107.7620160  37.1891560   3.1016400 108.4430270  37.4529930   3.7203800
 107.4468210  36.3492430   3.4354410 111.9544730  38.2358920   2.1888990
 112.4622950  38.7339890   2.8294010 112.4857970  37.4594120   2.0128350
 124.0555660  36.4064110   5.8918340 123.3507830  36.7945820   5.3733450
 124.3213580  37.1014400   6.4939270 110.2380830  32.8757480   6.4552410
 110.2399270  33.3929870   5.6498310 109.4085140  32.3987660   6.4322340
 111.4883680  42.5152660   4.6325910 111.1553060  43.1421580   5.2746980
 111.6650360  43.0414540   3.8527580 120.0017590  36.3297740   2.1002250
 119.2973160  36.6182630   2.6805360 120.3629750  37.1397850   1.7401810
 109.9196160  34.5867440   4.4622860 110.2612970  35.4309490   4.1676730
 108.9811970  34.7351180   4.5788200 110.7002780  44.4833460   6.4475090
 111.3176780  45.1584540   6.1659540 109.8395900  44.8921440   6.3562590
 121.6180370  45.9472870   4.3629730 120.9343890  46.6171980   4.3546400
 122.1574660  46.1453520   3.5974590 123.0704510  35.7752530   2.4911460
 122.1229420  35.8091510   2.6226890 123.3954500  36.5891480   2.8760820
 119.1539110  47.7917000   3.0774910 119.1666270  47.3879290   2.2097170
 118.6014330  48.5664290   2.9736340 118.5524550  42.6946840   4.4057520
 118.9693340  42.4806950   3.5710980 119.2764370  42.9519630   4.9766140
 122.4986650  41.0934060   4.4973760 121.6705280  41.1627150   4.0223890
 123.0937130  41.6788370   4.0289590 119.4628660  37.8803380   5.4428630
 119.0499840  38.7057090   5.6968620 118.7304610  37.2948420   5.2504990
 112.0643150  44.3530840   2.4686510 111.7671440  43.7476310   1.7894290
 113.0142970  44.3908150   2.3575870 110.3090070  37.4406490   4.0846340
 110.8604660  37.5501830   3.3099590 110.8233580  37.8144090   4.8001570
 120.1528760  47.9262710   6.1309610 119.6759320  48.7334900   5.9382220
 119.4690550  47.2741040   6.2835820 111.1561580  44.0912530   9.1194310
 110.2590110  44.3152500   9.3667710 111.1814450  44.2147470   8.1705710
 109.9832800  40.9625850   7.6951680 109.8440570  41.8348650   8.0639080
 109.1014160  40.6198660   7.5499620 111.7813150  46.9047550   9.9036830
 111.7528580  47.3090500   9.0365260 111.6178120  45.9757910   9.7408430
 123.7327970  47.6874650  11.2001000 124.2087690  48.1657540  11.8790080
 124.3535130  47.6192140  10.4746500 105.9351450  42.7323400   3.6122590
 106.0131870  42.8672170   2.6678310 106.5493130  42.0239290   3.8050710
 123.1361220  44.8787500   8.3601010 123.2624280  44.6399380   7.4418190
 123.1782600  44.0472040   8.8323090 116.9977960  48.5815500   6.9295820
 117.5122630  48.4923510   7.7318250 116.1547040  48.9275200   7.2223730
 122.9885230  36.9319960   9.3250750 122.3729500  37.4399630   8.7966210
 122.6681650  36.0318290   9.2676690 105.9910970  43.7737570   6.1517050
 106.1542010  43.3042930   5.3336420 106.4563420  43.2661130   6.8165890
 115.0499550  35.7711850   6.7912940 114.5878920  35.9794870   7.6032880
 114.6477660  34.9571200   6.4883610 120.0504060  36.9920800   7.9209600
 119.1997650  36.6926550   8.2418670 119.8905850  37.2362810   7.0093420
 117.1453770  38.4922550  10.0208390 117.4707180  37.6586300   9.6810620
 117.9334100  39.0151070  10.1686720 112.8005640  33.4490660   3.0467220
 113.0977970  34.3553490   2.9659240 113.3491200  32.9609440   2.4326790
 112.9943170  38.9262480   9.5819140 112.8986770  37.9857210   9.4319540
 113.8375150  39.1477550   9.1867210 108.1253710  35.3376150   7.7352920
 107.7317100  36.1851360   7.9425700 107.4372110  34.7002520   7.9261560
 114.6998760  35.4211120  10.8049660 114.0097080  35.2283320  11.4395750
 115.4431060  35.7045760  11.3373960 105.4270760  33.2604610   1.7683000
 105.1383810  33.8307470   2.4807980 106.1716520  32.7809060   2.1314230
 116.9761730  39.2609560   3.6403580 116.2442850  39.7696370   3.9893680
 116.5786070  38.4439540   3.3392360 117.4387640  34.7143240   3.0526520
 117.4560380  35.1651890   3.8968370 117.1903220  33.8148880   3.2659960
 120.8658390  32.1275420   8.8912900 121.1904160  31.3965080   9.4170880
 120.9014900  31.8089060   7.9893890 107.5649950  43.1489000   8.3112860
 107.1804740  42.5082670   8.9095820 107.8762140  43.8525120   8.8807590
 113.7147090  39.9965540   3.7921480 114.0817220  39.5224110   4.5382820
 113.5252150  40.8707110   4.1329820 111.5046460  39.0374180   6.1105690
 111.2003530  39.9166160   6.3356050 112.4592920  39.0973970   6.1463130
 120.7916230  42.2400530   2.4998930 121.5115350  42.7355820   2.1095040
 120.5898050  41.5618420   1.8552800 116.1735030  42.3109590   8.3867930
 116.1072340  41.3905260   8.1325520 115.5440170  42.4085030   9.1012570
 107.5610190  39.8776920   7.2577050 107.2025130  40.5430770   7.8450390
 107.2664750  39.0460470   7.6289670 110.7623310  40.3361160  10.1416600
 110.4623450  40.4818340   9.2444420 111.5334550  39.7766450  10.0489990
 116.1051760  45.1330160   8.1371730 116.1196300  44.2011120   7.9190640
 115.3976860  45.2189920   8.7761500 122.3162970  41.7737500   7.4840310
 121.5911160  42.3666280   7.2869700 122.8438430  41.7661040   6.6853680
 115.5385660  46.7747730   5.2312230 116.1827880  46.9807110   5.9085650
 115.9015100  46.0136130   4.7783080 116.8117740  44.7780080   3.9489680
 117.4539970  44.0773240   4.0621850 117.3367090  45.5578520   3.7686570
 118.5855360  45.5774980   7.1525740 118.9211600  46.1641670   7.8303660
 117.6655700  45.4467690   7.3823530 106.1358760  33.3670160   7.9349150
 105.4217280  33.5667080   8.5401760 106.5553800  32.5909730   8.3063950
 106.4231350  47.3550420   8.9215680 106.5322470  46.4145160   8.7811070
 105.7711910  47.6205170   8.2729410 114.4143940  45.6266310  10.3213800
 114.0940810  44.9075550  10.8659490 113.7402300  46.3021380  10.3949860
 117.6297540  35.8592470   5.6850600 117.9978360  35.0387680   6.0130170
 116.7695740  35.9194360   6.1006250 114.5899530  38.5132060   5.9088570
 115.0884780  38.9877880   6.5740420 114.7322480  37.5895580   6.1158600
 121.7966390  34.7300020   6.7516960 121.2939990  35.4705420   7.0910770
 122.6123050  35.1184020   6.4353750 108.5689790  48.4219330  10.7335290
 109.3702520  48.7431380  11.1470690 108.0541610  48.0614910  11.4555200
 117.4054420  44.5299200  10.6810700 116.7992580  44.5530800   9.9406450
 117.1008530  43.7982240  11.2177950 118.8354790  48.2579490   9.2920110
 119.7876540  48.1737510   9.2420350 118.6883010  48.9221200   9.9653900
 106.2887600  40.9092790   9.6771340 106.7926620  40.3300070  10.2487570
 105.5495020  41.1933020  10.2147710 113.3425540  42.3163780   9.2106860
 112.5771210  42.8848780   9.1261530 113.5241500  42.0239990   8.3175090
 120.4848890  44.0469110   9.7681880 121.2258360  44.3844870   9.2649340
 119.7221570  44.2161170   9.2151650 108.3210680  39.0522380  10.5721410
 108.3616020  38.7536250  11.4806640 109.1756180  39.4529990  10.4128930
 110.2616490  37.6314480   8.5395900 109.7312950  37.1405430   7.9119240
 110.9304560  38.0598680   8.0053830 119.1594550  42.0983940   8.3037090
 119.5735570  42.2529020   9.1527510 118.2245550  42.2239160   8.4662870
 119.6316720  39.4380100  10.3076240 120.2137490  38.6832420  10.2196720
 119.8078490  39.9687540   9.5307720 110.7488790  34.5976850   8.6193190
 110.6545660  33.9797600   7.8944060 110.1686180  35.3243140   8.3923100
 113.5150230  33.1550090   5.6520580 113.0667530  33.1774350   4.8066130
 112.8815430  32.7569110   6.2490880 113.9209780  42.0504420   6.2733020
 114.3397890  42.8937150   6.1009260 113.0018410  42.1876460   6.0439800
 116.2573680  39.7820600   7.6570860 116.3769890  39.1861740   8.3965700
 117.1167680  39.8190290   7.2372160 118.5961580  40.3357790   6.2333370
 118.0696800  40.8600410   5.6298510 118.9392920  40.9685180   6.8643100
 111.7717200  48.3557430   7.3890750 111.2338290  49.0803490   7.0699450
 112.0251160  47.8787770   6.5988090 113.0242450  36.3241950   8.9146680
 113.6142140  36.0157800   9.6024500 112.2062690  35.8521700   9.0706580
 117.8435880  35.9407760   9.1479700 117.1551400  35.2789300   9.0829690
 118.5641900  35.4946030   9.5928160 114.6279410  49.5908640   7.6477400
 114.5538110  50.4943780   7.9549770 113.7258250  49.2720540   7.6199470
 106.5196910  47.7853820   3.6892650 106.0827900  47.9654620   4.5216800
 107.0874590  48.5428440   3.5474370 122.1559090  47.2870820   7.9769960
 121.5561080  47.3463380   7.2333880 122.2852990  46.3475800   8.1066810
 120.8410730  44.0122800   6.0746120 120.0270570  44.4419960   6.3371910
 121.2484930  44.6241210   5.4615170 107.3897270  40.6826620   4.5884870
 107.7570310  40.5954020   5.4680890 106.8208090  39.9193170   4.4891730
 122.1901130  39.1511000   7.6015340 121.9587220  38.9223750   6.7013290
 122.4505680  40.0710550   7.5560230 106.9413270  37.5935710   8.4943290
 106.0469320  37.5602470   8.8337000 107.4810820  37.7922500   9.2594540
 120.6289200  34.3767430  10.3795040 121.5059380  34.3850830  10.7629040
 120.6410040  33.6398270   9.7687390 122.2542190  38.3136840   4.7902610
 121.3044900  38.2800380   4.9047600 122.4355200  39.2236950   4.5552380
 107.4452980  31.8684040   2.8426510 108.0929170  31.3181420   2.4021670
 107.8654820  32.1227190   3.6642320 121.3405320  32.0625400   6.1996150
 121.9777540  32.6759540   6.5655340 121.4880210  32.0986060   5.2545380
 107.1984980  32.0239710   5.5851830 106.8499800  32.4803530   6.3510010
 106.8672680  31.1296840   5.6674260 108.8049350  45.1959310   9.7505020
 108.7618980  44.8252220  10.6319480 108.9360360  46.1336880   9.8906840
 112.5055380  46.7518900   5.3514740 112.2646740  47.0193460   4.4645260
 113.4458020  46.9224630   5.4065600 114.7109800  33.2151590   9.1071250
 114.6498690  33.8073420   9.8566660 115.6510180  33.1077550   8.9621510
 117.3484360  32.8721650   8.7463540 117.9624770  33.1900940   8.0844620
 117.8933920  32.3870240   9.3659400 123.7659540  48.7713280   6.1525380
 123.2717820  49.1682150   5.4352510 123.1572830  48.1462490   6.5462660
 107.8705620  31.5515910   8.8602600 108.4188610  31.3703960   8.0968710
 107.9360930  30.7610020   9.3958910 108.6437380  48.1421560   6.8702800
 108.0497700  48.0106260   7.6092840 108.6361220  47.3059700   6.4044900
 118.0892400  31.4353790   5.0732830 117.2152240  31.7688900   4.8705760
 117.9803150  30.9626970   5.8984700 118.9964380  33.6424660   6.4574550
 118.6677740  32.8276420   6.0776280 119.9446680  33.5994470   6.3340240
 121.4498990  49.4136700   3.4312120 120.9901960  50.1652510   3.0570140
 120.8211450  48.6943170   3.3726920 108.2749610  45.5079940   5.8210840
 107.5483670  44.8885230   5.7536790 108.3358760  45.9020550   4.9508920
 111.8794710  47.7224940   2.6060250 112.3959730  47.1112300   2.0808510
 112.5292090  48.2253720   3.0971260 114.6190210  48.6133430   3.4329230
 114.9068020  48.3587730   2.5562240 115.1313430  48.0610790   4.0234800
 115.8367220  32.3523630   4.0125740 115.0539010  32.8269130   4.2922500
 115.5430150  31.4478460   3.9038920 114.6862570  49.5349530  10.7997430
 115.6129880  49.2993800  10.8433390 114.6713000  50.3621530  10.3183460
 111.8726180  32.1994280  10.5639310 111.5910450  32.7027880   9.8000130
 112.2545880  31.4016030  10.1981440 118.4741640  31.6147860  11.1419780
 118.3607090  31.9342470  12.0371300 119.2911380  32.0160370  10.8457060
 121.2540130  48.7619390  10.6238470 122.0465450  48.2668620  10.4164430
 121.5473280  49.4409530  11.2314080 117.3799790  20.8596840 150.4745930
 117.2993840  19.9451450 150.2037640 116.9664210  21.3563910 149.7685640
 119.5325260  27.0436050 151.1354330 119.0706790  26.2723290 151.4641500
 120.3450810  27.0702120 151.6406780 107.9375610  17.9097560 147.0173350
 107.0492310  18.2513530 146.9153230 108.2216800  17.7097880 146.1254180
 115.7588570  29.3294060 150.7558320 115.1400010  29.7851560 150.1852760
 116.6140350  29.4845520 150.3548020 110.1137000  16.4929060 148.0511730
 110.2203750  17.3932790 148.3580490 109.2029360  16.4447030 147.7606380
 119.7656110  15.6153870 149.5222630 120.5865730  15.1250440 149.5648110
 119.7990190  16.2051530 150.2754470 116.6251920  24.2133300 148.1490230
 116.0069190  24.6782750 147.5852950 117.1375170  24.9060780 148.5659740
 105.9935120  24.8989830 145.5229860 105.6163100  25.3876930 144.7914760
 106.2508190  25.5715110 146.1536390 113.6024050  13.3006220 150.9815370
 113.9099030  12.7453110 150.2650870 112.6724750  13.4350680 150.7988360
 120.4484530  25.7389730 148.3613000 120.3380860  24.7964060 148.4862420
 120.4452780  26.1005370 149.2475760 115.9904810  21.3655050 147.7175490
 115.0634090  21.2992430 147.9463960 116.1429630  22.3035180 147.6030730
 115.9773890  17.6372050 144.7142650 115.0377560  17.7986010 144.7995110
 116.2957150  18.3557730 144.1678640 120.0202100  22.9275350 148.2210740
 119.4014520  22.5894900 147.5737040 120.0026550  22.2835110 148.9289930
 111.5961450  21.8919790 150.4995220 111.1918450  21.1797040 150.0041120
 111.6824570  21.5473030 151.3883260 118.1966800  22.1662160 145.2283490
 118.6360080  21.3284590 145.0821310 118.9095220  22.7991560 145.3147630
 116.3062180  27.1058230 149.1964730 116.7458090  27.8482560 148.7820120
 116.2449070  27.3484800 150.1203690 121.7783940  13.4204970 143.5424530
 121.4656600  13.5131800 144.4423600 122.5396410  13.9986000 143.4921960
 108.2966080  20.7864770 148.0001870 108.1763680  21.5126860 147.3883140
 107.9866970  20.0167680 147.5229780 107.1799080  25.6580100 150.2176690
 106.7727160  25.7994690 149.3630290 108.0712090  25.3740260 150.0147900
 118.9732360  30.0927350 146.5527740 118.8133500  29.8030290 147.4509570
 118.8079070  29.3167480 146.0172970 111.4520740  29.8725880 148.3299360
 111.2763220  28.9561420 148.1167160 110.5976480  30.2313170 148.5697160
 118.6758490  27.6014910 145.1125740 117.9823650  27.5992200 144.4528020
 119.4181350  27.1774230 144.6819910 118.2408420  29.2277620 149.1874230
 118.6965370  28.4467000 149.5012850 118.5800940  29.9384440 149.7315410
 110.7629740  14.1299840 151.3825540 110.3197890  14.9109380 151.0510060
 111.3214730  14.4529730 152.0896480 113.8788560  13.7510540 146.2631370
 113.2542740  13.7470410 146.9884680 113.7918680  12.8841500 145.8667340
 110.5543960  19.2533410 149.1106790 110.3284880  19.0370580 150.0153410
 109.7736490  19.6861870 148.7652760 117.7841720  19.2596780 147.7097440
 117.1850610  19.9832580 147.5261060 118.3321330  19.1973560 146.9273890
 116.3906590  17.8960320 149.7400720 116.7836160  18.2132520 148.9269410
 116.7523440  17.0172200 149.8545240 105.6140990  18.4281240 143.1733640
 105.5315660  19.3712000 143.3148630 105.2624050  18.2856150 142.2945990
 113.4139120  17.1620270 152.2403990 113.4175180  16.7210220 151.3908530
 114.3090240  17.4837600 152.3475810 109.2641500  17.0446760 151.1998200
 108.9241550  17.5221990 151.9565250 108.5018820  16.5911880 150.8399300
 113.4759270  18.1632350 145.2310750 113.5972090  18.1218830 146.1796570
 113.0907780  19.0256500 145.0757480 112.4880770  20.4733490 144.6294050
 111.9197670  20.0251740 144.0029960 113.1969770  20.8326270 144.0959200
 106.5787580  15.9665740 150.1162870 106.2934500  15.6021410 150.9541490
 106.5166440  15.2346200 149.5026010 110.0328250  24.4691680 146.9020460
 109.2590510  23.9289300 146.7419180 110.7622880  23.9498290 146.5638220
 116.2526170  14.8595000 146.8376240 115.4390780  14.3608170 146.7621550
 116.0588120  15.6993250 146.4212590 118.9674560  19.2314650 145.1338400
 119.8554180  19.5431880 144.9589740 118.9379650  18.3586900 144.7418980
 110.0765650  24.1372060 150.5399270 110.5944320  23.3340320 150.4856160
 109.6249670  24.0751200 151.3816100 114.9635150  25.4038340 145.8126570
 115.3050850  26.1480570 145.3169890 114.1347860  25.7169460 146.1751400
 121.2388830  20.5426490 144.6018260 121.1552550  20.9740710 143.7514700
 121.9583020  21.0024840 145.0345080 122.2676080  27.3968750 147.3300390
 121.6252240  26.7424370 147.6044110 121.8806740  27.8023840 146.5541060
 117.8462560  24.7254180 151.1772080 118.1986380  24.1282310 150.5173450
 116.9624890  24.3998410 151.3480330 113.9325840  25.4851870 148.5842490
 114.6196970  26.0321080 148.9650080 113.1458260  26.0292600 148.6192100
 106.0718240  21.1024690 144.0759570 106.9413090  21.3849490 144.3595490
 105.5808560  21.9160560 143.9608380 113.2353050  22.4897900 148.1967850
 113.6915830  23.3003150 148.4228040 112.8841260  22.1721040 149.0286340
 109.1364830  12.8335550 148.6690370 109.0079460  12.8253450 149.6175290
 108.3126850  13.1718640 148.3181380 120.6573460  26.2885210 143.8676740
 120.4311040  25.5715650 144.4601380 120.2669660  26.0397650 143.0298490
 106.4389490  30.3152070 144.6421200 106.7987130  30.9141410 143.9878470
 106.2981830  30.8611960 145.4156230 120.2389710  24.2057150 145.5290900
 119.9511410  24.6669840 146.3168780 121.0341880  23.7454920 145.7975120
 112.4558110  27.6983270 145.4594870 112.4468210  28.4312960 144.8439380
 111.5356470  27.4514850 145.5521830 108.0564750  22.9198160 146.2041630
 107.4492700  23.6597060 146.2136930 108.5314100  23.0097520 145.3779830
 120.9959570  16.0405920 146.6886080 120.3672730  16.1451590 145.9744310
 120.5011490  16.2602700 147.4779960 115.4417710  27.7611510 144.1220060
 115.5429690  27.5575500 143.1922040 114.5419450  27.5069790 144.3267840
 112.9643600  18.3191870 148.1043960 112.2559750  18.7878210 148.5457570
 113.2488080  17.6613880 148.7389150 116.9959030  15.0442530 149.5439750
 116.8726810  15.0628660 148.5949260 117.9443590  15.0921470 149.6638150
 114.0835820  30.2797830 148.8167730 114.3377320  30.2419220 147.8947100
 113.1348300  30.1531160 148.8095980 111.1678620  16.6276950 145.4794670
 112.0169150  17.0647100 145.4134860 110.8009890  16.9397210 146.3066730
 120.0888400  21.1989710 150.3926240 119.1478540  21.2139940 150.5673930
 120.4032470  20.4125670 150.8386540 110.0670040  22.8809310 143.9530200
 110.8333310  22.7690670 144.5155630 110.1444730  22.1847280 143.3006970
 108.7616800  20.3134380 144.6363090 108.8420390  19.3661890 144.7480490
 109.6536550  20.6441260 144.7423750 109.5631510  30.4629770 151.7397630
 110.2993990  29.9145230 152.0106200 109.9472430  31.3285780 151.6003620
 106.4476990  26.5303340 147.6139140 105.5216770  26.7724480 147.6044550
 106.9133420  27.3577600 147.4923890 112.6733820  29.6360080 143.5623200
 113.4662430  29.9248910 143.1104990 112.1538170  29.2052250 142.8835680
 121.7263990  28.8630210 144.9859940 121.4405500  28.4495350 144.1714120
 121.5283540  29.7917920 144.8660460 113.1911220  24.8563490 143.4265550
 113.0861860  24.2415840 144.1526930 113.0235440  24.3329380 142.6428560
 116.4313950  23.9183520 144.0307540 115.8824050  24.3652820 144.6750280
 117.0533210  23.4132770 144.5545210 112.0989070  22.8774440 145.9272840
 112.5205490  22.7114310 146.7704230 112.2239910  22.0674670 145.4327980
 114.6116710  21.9012050 143.1749940 115.1322370  21.1861070 142.8091090
 115.2585110  22.5397920 143.4750450 110.9947970  18.9507670 142.8731000
 110.7937030  18.0875030 143.2344340 110.8240020  18.8641030 141.9352600
 118.4736280  13.7615900 145.4017880 118.7538570  12.9183800 145.7577300
 117.7002010  13.9939010 145.9156630 109.7930770  16.0508290 142.8608880
 110.0956670  16.0575720 141.9528030 110.5325360  15.7006150 143.3576540
 113.0115700  14.9942910 143.8465080 112.6637700  14.3166900 143.2667530
 113.2128470  14.5332420 144.6608470 115.1764740  29.9823660 145.4651680
 116.0715530  30.3208630 145.4870440 115.2082370  29.2603070 144.8375960
 108.8160900  25.3550710 143.6938680 109.2535770  25.8980380 144.3496260
 109.3008630  24.5297660 143.7035020 106.0306700  28.1439740 151.1458940
 106.3609710  27.2760800 150.9137580 106.4597700  28.3498260 151.9763900
 110.6268620  26.4748750 148.8060910 110.3264160  26.3513720 149.7064820
 110.5206110  25.6157340 148.3976640 123.3960540  26.2545150 143.5087590
 122.5653500  26.3221800 143.9794820 123.5732370  27.1449270 143.2054450
 122.8517000  22.9992630 146.0121790 123.6135910  23.5689280 146.1181480
 122.8671370  22.4319830 146.7830100 106.3521340  21.5230560 150.2429450
 105.6970180  21.2542200 149.5989150 107.1899290  21.4135040 149.7931430
 123.8576970  23.8542730 150.8563720 124.2285800  23.0710050 150.4499690
 124.4978900  24.5431830 150.6781020 122.9036170  23.2927000 143.1694310
 123.1785010  24.2005880 143.0413530 122.7146910  23.2289530 144.1056300
 119.3011780  16.3171850 144.4647940 119.7196660  16.1302830 143.6244600
 118.9947840  15.4650900 144.7750870 122.8001510  21.2295990 148.1623740
 122.4245110  20.4623920 147.7305030 122.0704630  21.6118690 148.6498670
 105.5659420  18.7329490 146.1854780 104.6623500  18.9959690 146.0106440
 106.0500040  19.0040660 145.4054740 122.0752470  19.4553480 151.4630980
 122.5989950  18.9616130 150.8321150 122.6611890  19.5903840 152.2078550
 108.1086630  17.7895030 144.0949160 108.8178330  17.3678250 143.6096440
 107.3926570  17.8570260 143.4632510 107.7560790  13.8434360 143.1351810
 108.4788920  14.3843300 143.4533030 108.0285310  13.5697780 142.2593350
 121.5652440  18.7126830 147.4023390 122.0611560  18.4797700 148.1872270
 121.3668510  17.8738670 146.9861030 122.9939600  17.3487780 149.9361070
 122.8838880  17.1943820 150.8743340 123.7547190  16.8208720 149.6936480
 123.8829870  15.1795700 143.1767210 124.8079180  15.0476880 142.9685500
 123.8605660  15.2588520 144.1303660 123.9568360  15.9506360 145.8023920
 123.1619860  15.8851480 146.3316830 124.1611640  16.8857000 145.7909270
 120.8986780  29.9897910 149.7962310 121.4945850  29.6682480 149.1196730
 121.1564930  29.5169730 150.5875580 120.3888290  14.2803240 152.2522750
 120.8296380  14.2248340 151.4044350 120.1195880  15.1961250 152.3232930
 122.2526860  13.9118480 150.2631570 122.1915260  12.9679700 150.1162590
 123.0318890  14.0198570 150.8085030 106.5579610  30.0510840 149.2255520
 106.3901650  29.4181520 149.9237410 105.6914120  30.2570240 148.8749710
 107.1807630  13.8827620 146.7287380 107.9386990  13.9956500 146.1551410
 106.7184800  14.7196820 146.6830810 113.7221440  15.9966890 149.7189690
 112.9095950  15.6223780 149.3785570 114.2263080  15.2411970 150.0210880
 118.2246420  12.6609340 150.9572760 118.8275790  13.2329550 151.4321280
 117.4839410  13.2248780 150.7346660 121.3681020  13.0630900 146.2313040
 121.5631650  13.9614350 146.4980470 120.5810890  12.8317980 146.7245990
 108.1642310  28.7444070 146.6705660 107.6389930  29.1252100 145.9667620
 108.0886890  29.3694840 147.3915370 109.5532780  14.4091670 145.2689350
 110.0825540  13.6221470 145.1397300 110.1861100  15.0882860 145.5024880
 111.7470620  14.1466810 148.3234740 111.1173360  13.4454120 148.4904870
 111.2075760  14.9070940 148.1067900 122.9207630  30.3031610 147.9919600
 123.0959820  29.6169350 147.3480520 122.2229200  30.8278660 147.5996270
 110.7635280  30.6926450 145.5454910 111.4954100  30.4085730 144.9978800
 111.0228950  30.4539730 146.4354290 109.9250070  26.8091180 145.5501240
 109.2958950  27.2776280 146.0987070 110.0397900  25.9640400 145.9847430
 117.3799790  20.8596840 131.7002440 117.2993840  19.9451450 131.4294150
 116.9664210  21.3563910 130.9942150 115.5117830  22.6375860 133.5811710
 114.7359930  22.1576300 133.8710280 116.1630760  21.9581510 133.4067870
 109.5283660  22.9495670 134.4587470 108.6968540  22.6944380 134.8583980
 110.1364640  23.0206440 135.1945390 119.5325260  27.0436050 132.3610840
 119.0706790  26.2723290 132.6898010 120.3450810  27.0702120 132.8663290
 109.5084920  26.9835760 134.6545490 109.8112960  26.0933500 134.4755710
 110.2528510  27.5405980 134.4267740 107.9375610  17.9097560 128.2429860
 107.0492310  18.2513530 128.1409740 108.2216800  17.7097880 127.3510690
 105.9008620  20.5103210 134.1269560 106.4724730  19.7425410 134.1273200
 105.9010160  20.8091970 133.2176170 115.7588570  29.3294060 131.9814830
 115.1400010  29.7851560 131.4109270 116.6140350  29.4845520 131.5804530
 114.9526820  25.3133050 133.5881870 114.8835100  24.3722990 133.4271000
 115.7146680  25.4034460 134.1604440 107.1433490  15.9187570 135.9138490
 106.9636330  15.0213320 136.1941250 106.7413570  16.4659440 136.5885440
 115.9831990  18.1203430 133.8150800 116.3596810  17.2475310 133.7024470
 115.8851500  18.4562130 132.9241240 110.1137000  16.4929060 129.2768240
 110.2203750  17.3932790 129.5837000 109.2029360  16.4447030 128.9862890
 119.7656110  15.6153870 130.7479140 120.5865730  15.1250440 130.7904620
 119.7990190  16.2051530 131.5010980 107.7620160  18.4148070 134.5220830
 108.4430270  18.6786440 135.1408230 107.4468210  17.5748940 134.8558840
 111.9544730  19.4615430 133.6093420 112.4622950  19.9596400 134.2498440
 112.4857970  18.6850630 133.4332780 124.0555660  17.6320620 137.3122770
 123.3507830  18.0202330 136.7937880 124.3213580  18.3270910 137.9143700
 110.2380830  14.1013990 137.8756840 110.2399270  14.6186380 137.0702740
 109.4085140  13.6244170 137.8526770 116.6251920  24.2133300 129.3746740
 116.0069190  24.6782750 128.8109460 117.1375170  24.9060780 129.7916250
 111.4883680  23.7409170 136.0530340 111.1553060  24.3678090 136.6951410
 111.6650360  24.2671050 135.2732010 120.0017590  17.5554250 133.5206680
 119.2973160  17.8439140 134.1009790 120.3629750  18.3654360 133.1606240
 109.9196160  15.8123950 135.8827290 110.2612970  16.6566000 135.5881160
 108.9811970  15.9607690 135.9992630 110.7002780  25.7089970 137.8679520
 111.3176780  26.3841050 137.5863970 109.8395900  26.1177950 137.7767020
 105.9935120  24.8989830 126.7486370 105.6163100  25.3876930 126.0171270
 106.2508190  25.5715110 127.3792900 121.6180370  27.1729380 135.7834160
 120.9343890  27.8428490 135.7750830 122.1574660  27.3710030 135.0179020
 123.0704510  17.0009040 133.9115890 122.1229420  17.0348020 134.0431320
 123.3954500  17.8147990 134.2965250 113.6024050  13.3006220 132.2071880
 113.9099030  12.7453110 131.4907380 112.6724750  13.4350680 132.0244870
 119.1539110  29.0173510 134.4979340 119.1666270  28.6135800 133.6301600
 118.6014330  29.7920800 134.3940770 120.4484530  25.7389730 129.5869510
 120.3380860  24.7964060 129.7118930 120.4452780  26.1005370 130.4732270
 118.5524550  23.9203350 135.8261950 118.9693340  23.7063460 134.9915410
 119.2764370  24.1776140 136.3970570 115.9904810  21.3655050 128.9432000
 115.0634090  21.2992430 129.1720470 116.1429630  22.3035180 128.8287240
 115.9773890  17.6372050 125.9399160 115.0377560  17.7986010 126.0251620
 116.2957150  18.3557730 125.3935150 122.4986650  22.3190570 135.9178190
 121.6705280  22.3883660 135.4428320 123.0937130  22.9044880 135.4494020
 120.0202100  22.9275350 129.4467250 119.4014520  22.5894900 128.7993550
 120.0026550  22.2835110 130.1546440 119.4628660  19.1059890 136.8633060
 119.0499840  19.9313600 137.1173050 118.7304610  18.5204930 136.6709420
 111.5961450  21.8919790 131.7251730 111.1918450  21.1797040 131.2297630
 111.6824570  21.5473030 132.6139770 112.0643150  25.5787350 133.8890940
 111.7671440  24.9732820 133.2098720 113.0142970  25.6164660 133.7780300
 110.3090070  18.6663000 135.5050770 110.8604660  18.7758340 134.7304020
 110.8233580  19.0400600 136.2206000 120.1528760  29.1519220 137.5514040
 119.6759320  29.9591410 137.3586650 119.4690550  28.4997550 137.7040250
 111.1561580  25.3169040 140.5398740 110.2590110  25.5409010 140.7872140
 111.1814450  25.4403980 139.5910140 118.1966800  22.1662160 126.4540000
 118.6360080  21.3284590 126.3077820 118.9095220  22.7991560 126.5404140
 109.9832800  22.1882360 139.1156110 109.8440570  23.0605160 139.4843510
 109.1014160  21.8455170 138.9704050 116.3062180  27.1058230 130.4221240
 116.7458090  27.8482560 130.0076630 116.2449070  27.3484800 131.3460200
 111.7813150  28.1304060 141.3241260 111.7528580  28.5347010 140.4569690
 111.6178120  27.2014420 141.1612860 121.7783940  13.4204970 124.7681040
 121.4656600  13.5131800 125.6680110 122.5396410  13.9986000 124.7178470
 108.2966080  20.7864770 129.2258380 108.1763680  21.5126860 128.6139650
 107.9866970  20.0167680 128.7486290 123.7327970  28.9131160 142.6205430
 124.2087690  29.3914050 143.2994510 124.3535130  28.8448650 141.8950930
 105.9351450  23.9579910 135.0327020 106.0131870  24.0928680 134.0882740
 106.5493130  23.2495800 135.2255140 107.1799080  25.6580100 131.4433200
 106.7727160  25.7994690 130.5886800 108.0712090  25.3740260 131.2404410
 123.1361220  26.1044010 139.7805440 123.2624280  25.8655890 138.8622620
 123.1782600  25.2728550 140.2527520 116.9977960  29.8072010 138.3500250
 117.5122630  29.7180020 139.1522680 116.1547040  30.1531710 138.6428160
 118.9732360  30.0927350 127.7784250 118.8133500  29.8030290 128.6766080
 118.8079070  29.3167480 127.2429480 111.4520740  29.8725880 129.5555870
 111.2763220  28.9561420 129.3423670 110.5976480  30.2313170 129.7953670
 118.6758490  27.6014910 126.3382250 117.9823650  27.5992200 125.6784530
 119.4181350  27.1774230 125.9076420 118.2408420  29.2277620 130.4130740
 118.6965370  28.4467000 130.7269360 118.5800940  29.9384440 130.9571920
 122.9885230  18.1576470 140.7455180 122.3729500  18.6656140 140.2170640
 122.6681650  17.2574800 140.6881120 105.9910970  24.9994080 137.5721480
 106.1542010  24.5299440 136.7540850 106.4563420  24.4917640 138.2370320
 110.7629740  14.1299840 132.6082050 110.3197890  14.9109380 132.2766570
 111.3214730  14.4529730 133.3152990 115.0499550  16.9968360 138.2117370
 114.5878920  17.2051380 139.0237310 114.6477660  16.1827710 137.9088040
 120.0504060  18.2177310 139.3414030 119.1997650  17.9183060 139.6623100
 119.8905850  18.4619320 138.4297850 117.1453770  19.7179060 141.4412820
 117.4707180  18.8842810 141.1015050 117.9334100  20.2407580 141.5891150
 113.8788560  13.7510540 127.4887880 113.2542740  13.7470410 128.2141190
 113.7918680  12.8841500 127.0923850 112.8005640  14.6747170 134.4671650
 113.0977970  15.5810000 134.3863670 113.3491200  14.1865950 133.8531220
 110.5543960  19.2533410 130.3363300 110.3284880  19.0370580 131.2409920
 109.7736490  19.6861870 129.9909270 117.7841720  19.2596780 128.9353950
 117.1850610  19.9832580 128.7517570 118.3321330  19.1973560 128.1530400
 112.9943170  20.1518990 141.0023570 112.8986770  19.2113720 140.8523970
 113.8375150  20.3734060 140.6071640 116.3906590  17.8960320 130.9657230
 116.7836160  18.2132520 130.1525920 116.7523440  17.0172200 131.0801750
 108.1253710  16.5632660 139.1557350 107.7317100  17.4107870 139.3630130
 107.4372110  15.9259030 139.3465990 114.6998760  16.6467630 142.2254090
 114.0097080  16.4539830 142.8600180 115.4431060  16.9302270 142.7578390
 105.4270760  14.4861120 133.1887430 105.1383810  15.0563980 133.9012410
 106.1716520  14.0065570 133.5518660 105.6140990  18.4281240 124.3990150
 105.5315660  19.3712000 124.5405140 105.2624050  18.2856150 123.5202500
 116.9761730  20.4866070 135.0608010 116.2442850  20.9952880 135.4098110
 116.5786070  19.6696050 134.7596790 113.4139120  17.1620270 133.4660500
 113.4175180  16.7210220 132.6165040 114.3090240  17.4837600 133.5732320
 109.2641500  17.0446760 132.4254710 108.9241550  17.5221990 133.1821760
 108.5018820  16.5911880 132.0655810 113.4759270  18.1632350 126.4567260
 113.5972090  18.1218830 127.4053080 113.0907780  19.0256500 126.3013990
 117.4387640  15.9399750 134.4730950 117.4560380  16.3908400 135.3172800
 117.1903220  15.0405390 134.6864390 112.4880770  20.4733490 125.8550560
 111.9197670  20.0251740 125.2286470 113.1969770  20.8326270 125.3215710
 120.8658390  13.3531930 140.3117330 121.1904160  12.6221590 140.8375310
 120.9014900  13.0345570 139.4098320 107.5649950  24.3745510 139.7317290
 107.1804740  23.7339180 140.3300250 107.8762140  25.0781630 140.3012020
 113.7147090  21.2222050 135.2125910 114.0817220  20.7480620 135.9587250
 113.5252150  22.0963620 135.5534250 106.5787580  15.9665740 131.3419380
 106.2934500  15.6021410 132.1798000 106.5166440  15.2346200 130.7282520
 111.5046460  20.2630690 137.5310120 111.2003530  21.1422670 137.7560480
 112.4592920  20.3230480 137.5667560 110.0328250  24.4691680 128.1276970
 109.2590510  23.9289300 127.9675690 110.7622880  23.9498290 127.7894730
 120.7916230  23.4657040 133.9203360 121.5115350  23.9612330 133.5299470
 120.5898050  22.7874930 133.2757230 116.2526170  14.8595000 128.0632750
 115.4390780  14.3608170 127.9878060 116.0588120  15.6993250 127.6469100
 116.1735030  23.5366100 139.8072360 116.1072340  22.6161770 139.5529950
 115.5440170  23.6341540 140.5217000 118.9674560  19.2314650 126.3594910
 119.8554180  19.5431880 126.1846250 118.9379650  18.3586900 125.9675490
 110.0765650  24.1372060 131.7655780 110.5944320  23.3340320 131.7112670
 109.6249670  24.0751200 132.6072610 114.9635150  25.4038340 127.0383080
 115.3050850  26.1480570 126.5426400 114.1347860  25.7169460 127.4007910
 107.5610190  21.1033430 138.6781480 107.2025130  21.7687280 139.2654820
 107.2664750  20.2716980 139.0494100 110.7623310  21.5617670 141.5621030
 110.4623450  21.7074850 140.6648850 111.5334550  21.0022960 141.4694420
 116.1051760  26.3586670 139.5576160 116.1196300  25.4267630 139.3395070
 115.3976860  26.4446430 140.1965930 121.2388830  20.5426490 125.8274770
 121.1552550  20.9740710 124.9771210 121.9583020  21.0024840 126.2601590
 122.3162970  22.9994010 138.9044740 121.5911160  23.5922790 138.7074130
 122.8438430  22.9917550 138.1058110 122.2676080  27.3968750 128.5556900
 121.6252240  26.7424370 128.8300620 121.8806740  27.8023840 127.7797570
 117.8462560  24.7254180 132.4028590 118.1986380  24.1282310 131.7429960
 116.9624890  24.3998410 132.5736840 113.9325840  25.4851870 129.8099000
 114.6196970  26.0321080 130.1906590 113.1458260  26.0292600 129.8448610
 106.0718240  21.1024690 125.3016080 106.9413090  21.3849490 125.5852000
 105.5808560  21.9160560 125.1864890 113.2353050  22.4897900 129.4224360
 113.6915830  23.3003150 129.6484550 112.8841260  22.1721040 130.2542850
 115.5385660  28.0004240 136.6516660 116.1827880  28.2063620 137.3290080
 115.9015100  27.2392640 136.1987510 109.1364830  12.8335550 129.8946880
 109.0079460  12.8253450 130.8431800 108.3126850  13.1718640 129.5437890
 116.8117740  26.0036590 135.3694110 117.4539970  25.3029750 135.4826280
 117.3367090  26.7835030 135.1891000 120.6573460  26.2885210 125.0933250
 120.4311040  25.5715650 125.6857890 120.2669660  26.0397650 124.2555000
 118.5855360  26.8031490 138.5730170 118.9211600  27.3898180 139.2508090
 117.6655700  26.6724200 138.8027960 106.4389490  30.3152070 125.8677710
 106.7987130  30.9141410 125.2134980 106.2981830  30.8611960 126.6412740
 106.1358760  14.5926670 139.3553580 105.4217280  14.7923590 139.9606190
 106.5553800  13.8166240 139.7268380 120.2389710  24.2057150 126.7547410
 119.9511410  24.6669840 127.5425290 121.0341880  23.7454920 127.0231630
 106.4231350  28.5806930 140.3420110 106.5322470  27.6401670 140.2015500
 105.7711910  28.8461680 139.6933840 114.4143940  26.8522820 141.7418230
 114.0940810  26.1332060 142.2863920 113.7402300  27.5277890 141.8154290
 112.4558110  27.6983270 126.6851380 112.4468210  28.4312960 126.0695890
 111.5356470  27.4514850 126.7778340 108.0564750  22.9198160 127.4298140
 107.4492700  23.6597060 127.4393440 108.5314100  23.0097520 126.6036340
 117.6297540  17.0848980 137.1055030 117.9978360  16.2644190 137.4334600
 116.7695740  17.1450870 137.5210680 120.9959570  16.0405920 127.9142590
 120.3672730  16.1451590 127.2000820 120.5011490  16.2602700 128.7036470
 115.4417710  27.7611510 125.3476570 115.5429690  27.5575500 124.4178550
 114.5419450  27.5069790 125.5524350 112.9643600  18.3191870 129.3300470
 112.2559750  18.7878210 129.7714080 113.2488080  17.6613880 129.9645660
 114.5899530  19.7388570 137.3293000 115.0884780  20.2134390 137.9944850
 114.7322480  18.8152090 137.5363030 116.9959030  15.0442530 130.7696260
 116.8726810  15.0628660 129.8205770 117.9443590  15.0921470 130.8894660
 114.0835820  30.2797830 130.0424240 114.3377320  30.2419220 129.1203610
 113.1348300  30.1531160 130.0352490 111.1678620  16.6276950 126.7051180
 112.0169150  17.0647100 126.6391370 110.8009890  16.9397210 127.5323240
 121.7966390  15.9556530 138.1721390 121.2939990  16.6961930 138.5115200
 122.6123050  16.3440530 137.8558180 120.0888400  21.1989710 131.6182750
 119.1478540  21.2139940 131.7930440 120.4032470  20.4125670 132.0643050
 110.0670040  22.8809310 125.1786710 110.8333310  22.7690670 125.7412140
 110.1444730  22.1847280 124.5263480 108.7616800  20.3134380 125.8619600
 108.8420390  19.3661890 125.9737000 109.6536550  20.6441260 125.9680260
 122.0913980  28.3698560 133.2937010 122.2161400  29.1929730 133.7660820
 122.9579540  28.1589290 132.9461160 109.5631510  30.4629770 132.9654140
 110.2993990  29.9145230 133.2362710 109.9472430  31.3285780 132.8260130
 106.4476990  26.5303340 128.8395650 105.5216770  26.7724480 128.8301060
 106.9133420  27.3577600 128.7180400 108.5689790  29.6475840 142.1539720
 109.3702520  29.9687890 142.5675120 108.0541610  29.2871420 142.8759630
 112.6733820  29.6360080 124.7879710 113.4662430  29.9248910 124.3361500
 112.1538170  29.2052250 124.1092190 117.4054420  25.7555710 142.1015130
 116.7992580  25.7787310 141.3610880 117.1008530  25.0238750 142.6382380
 118.8354790  29.4836000 140.7124540 119.7876540  29.3994020 140.6624780
 118.6883010  30.1477710 141.3858330 121.7263990  28.8630210 126.2116450
 121.4405500  28.4495350 125.3970630 121.5283540  29.7917920 126.0916970
 106.2887600  22.1349300 141.0975770 106.7926620  21.5556580 141.6692000
 105.5495020  22.4189530 141.6352140 113.1911220  24.8563490 124.6522060
 113.0861860  24.2415840 125.3783440 113.0235440  24.3329380 123.8685070
 113.3425540  23.5420290 140.6311290 112.5771210  24.1105290 140.5465960
 113.5241500  23.2496500 139.7379520 116.4313950  23.9183520 125.2564050
 115.8824050  24.3652820 125.9006790 117.0533210  23.4132770 125.7801720
 120.4848890  25.2725620 141.1886310 121.2258360  25.6101380 140.6853770
 119.7221570  25.4417680 140.6356080 108.3210680  20.2778890 141.9925840
 108.3616020  19.9792760 142.9011070 109.1756180  20.6786500 141.8333360
 112.0989070  22.8774440 127.1529350 112.5205490  22.7114310 127.9960740
 112.2239910  22.0674670 126.6584490 110.2616490  18.8570990 139.9600330
 109.7312950  18.3661940 139.3323670 110.9304560  19.2855190 139.4258260
 114.6116710  21.9012050 124.4006450 115.1322370  21.1861070 124.0347600
 115.2585110  22.5397920 124.7006960 119.1594550  23.3240450 139.7241520
 119.5735570  23.4785530 140.5731940 118.2245550  23.4495670 139.8867300
 119.6316720  20.6636610 141.7280670 120.2137490  19.9088930 141.6401150
 119.8078490  21.1944050 140.9512150 110.7488790  15.8233360 140.0397620
 110.6545660  15.2054110 139.3148490 110.1686180  16.5499650 139.8127530
 113.5150230  14.3806600 137.0725010 113.0667530  14.4030860 136.2270560
 112.8815430  13.9825620 137.6695310 113.9209780  23.2760930 137.6937450
 114.3397890  24.1193660 137.5213690 113.0018410  23.4132970 137.4644230
 116.2573680  21.0077110 139.0775290 116.3769890  20.4118250 139.8170130
 117.1167680  21.0446800 138.6576590 118.5961580  21.5614300 137.6537800
 118.0696800  22.0856920 137.0502940 118.9392920  22.1941690 138.2847530
 110.9947970  18.9507670 124.0987510 110.7937030  18.0875030 124.4600850
 110.8240020  18.8641030 123.1609110 111.7717200  29.5813940 138.8095180
 111.2338290  30.3060000 138.4903880 112.0251160  29.1044280 138.0192520
 113.0242450  17.5498460 140.3351110 113.6142140  17.2414310 141.0228930
 112.2062690  17.0778210 140.4911010 117.8435880  17.1664270 140.5684130
 117.1551400  16.5045810 140.5034120 118.5641900  16.7202540 141.0132590
 118.4736280  13.7615900 126.6274390 118.7538570  12.9183800 126.9833810
 117.7002010  13.9939010 127.1413140 109.7930770  16.0508290 124.0865390
 110.0956670  16.0575720 123.1784540 110.5325360  15.7006150 124.5833050
 114.6279410  30.8165150 139.0681830 114.5538110  31.7200290 139.3754200
 113.7258250  30.4977050 139.0403900 113.0115700  14.9942910 125.0721590
 112.6637700  14.3166900 124.4924040 113.2128470  14.5332420 125.8864980
 115.1764740  29.9823660 126.6908190 116.0715530  30.3208630 126.7126950
 115.2082370  29.2603070 126.0632470 108.8160900  25.3550710 124.9195190
 109.2535770  25.8980380 125.5752770 109.3008630  24.5297660 124.9291530
 106.0306700  28.1439740 132.3715450 106.3609710  27.2760800 132.1394090
 106.4597700  28.3498260 133.2020410 110.6268620  26.4748750 130.0317420
 110.3264160  26.3513720 130.9321330 110.5206110  25.6157340 129.6233150
 106.5196910  29.0110330 135.1097080 106.0827900  29.1911130 135.9421230
 107.0874590  29.7684950 134.9678800 122.1559090  28.5127330 139.3974390
 121.5561080  28.5719890 138.6538310 122.2852990  27.5732310 139.5271240
 123.3960540  26.2545150 124.7344100 122.5653500  26.3221800 125.2051330
 123.5732370  27.1449270 124.4310960 122.8517000  22.9992630 127.2378300
 123.6135910  23.5689280 127.3437990 122.8671370  22.4319830 128.0086610
 106.3521340  21.5230560 131.4685960 105.6970180  21.2542200 130.8245660
 107.1899290  21.4135040 131.0187940 123.8576970  23.8542730 132.0820230
 124.2285800  23.0710050 131.6756200 124.4978900  24.5431830 131.9037530
 120.8410730  25.2379310 137.4950550 120.0270570  25.6676470 137.7576340
 121.2484930  25.8497720 136.8819600 122.9036170  23.2927000 124.3950820
 123.1785010  24.2005880 124.2670040 122.7146910  23.2289530 125.3312810
 119.3011780  16.3171850 125.6904450 119.7196660  16.1302830 124.8501110
 118.9947840  15.4650900 126.0007380 122.8001510  21.2295990 129.3880250
 122.4245110  20.4623920 128.9561540 122.0704630  21.6118690 129.8755180
 107.3897270  21.9083130 136.0089300 107.7570310  21.8210530 136.8885320
 106.8208090  21.1449680 135.9096160 122.1901130  20.3767510 139.0219770
 121.9587220  20.1480260 138.1217720 122.4505680  21.2967060 138.9764660
 106.9413270  18.8192220 139.9147720 106.0469320  18.7858980 140.2541430
 107.4810820  19.0179010 140.6798970 120.6289200  15.6023940 141.7999470
 121.5059380  15.6107340 142.1833470 120.6410040  14.8654780 141.1891820
 105.5659420  18.7329490 127.4111290 104.6623500  18.9959690 127.2362950
 106.0500040  19.0040660 126.6311250 122.0752470  19.4553480 132.6887490
 122.5989950  18.9616130 132.0577660 122.6611890  19.5903840 133.4335060
 122.2542190  19.5393350 136.2107040 121.3044900  19.5056890 136.3252030
 122.4355200  20.4493460 135.9756810 108.1086630  17.7895030 125.3205670
 108.8178330  17.3678250 124.8352950 107.3926570  17.8570260 124.6889020
 107.7560790  13.8434360 124.3608320 108.4788920  14.3843300 124.6789540
 108.0285310  13.5697780 123.4849860 121.5652440  18.7126830 128.6279900
 122.0611560  18.4797700 129.4128780 121.3668510  17.8738670 128.2117540
 107.4452980  13.0940550 134.2630940 108.0929170  12.5437930 133.8226100
 107.8654820  13.3483700 135.0846750 122.9939600  17.3487780 131.1617580
 122.8838880  17.1943820 132.0999850 123.7547190  16.8208720 130.9192990
 121.3405320  13.2881910 137.6200580 121.9777540  13.9016050 137.9859770
 121.4880210  13.3242570 136.6749810 123.8829870  15.1795700 124.4023720
 124.8079180  15.0476880 124.1942010 123.8605660  15.2588520 125.3560170
 123.9568360  15.9506360 127.0280430 123.1619860  15.8851480 127.5573340
 124.1611640  16.8857000 127.0165780 120.8986780  29.9897910 131.0218820
 121.4945850  29.6682480 130.3453240 121.1564930  29.5169730 131.8132090
 107.1984980  13.2496220 137.0056260 106.8499800  13.7060040 137.7714440
 106.8672680  12.3553350 137.0878690 108.8049350  26.4215820 141.1709450
 108.7618980  26.0508730 142.0523910 108.9360360  27.3593390 141.3111270
 112.5055380  27.9775410 136.7719170 112.2646740  28.2449970 135.8849690
 113.4458020  28.1481140 136.8270030 114.7109800  14.4408100 140.5275680
 114.6498690  15.0329930 141.2771090 115.6510180  14.3334060 140.3825940
 117.3484360  14.0978160 140.1667970 117.9624770  14.4157450 139.5049050
 117.8933920  13.6126750 140.7863830 123.7659540  29.9969790 137.5729810
 123.2717820  30.3938660 136.8556940 123.1572830  29.3719000 137.9667090
 107.8705620  12.7772420 140.2807030 108.4188610  12.5960470 139.5173140
 107.9360930  11.9866530 140.8163340 108.6437380  29.3678070 138.2907230
 108.0497700  29.2362770 139.0297270 108.6361220  28.5316210 137.8249330
 118.0892400  12.6610300 136.4937260 117.2152240  12.9945410 136.2910190
 117.9803150  12.1883480 137.3189130 118.9964380  14.8681170 137.8778980
 118.6677740  14.0532930 137.4980710 119.9446680  14.8250980 137.7544670
 121.4498990  30.6393210 134.8516550 120.9901960  31.3909020 134.4774570
 120.8211450  29.9199680 134.7931350 108.2749610  26.7336450 137.2415270
 107.5483670  26.1141740 137.1741220 108.3358760  27.1277060 136.3713350
 111.8794710  28.9481450 134.0264680 112.3959730  28.3368810 133.5012940
 112.5292090  29.4510230 134.5175690 114.6190210  29.8389940 134.8533660
 114.9068020  29.5844240 133.9766670 115.1313430  29.2867300 135.4439230
 115.8367220  13.5780140 135.4330170 115.0539010  14.0525640 135.7126930
 115.5430150  12.6734970 135.3243350 120.3888290  14.2803240 133.4779260
 120.8296380  14.2248340 132.6300860 120.1195880  15.1961250 133.5489440
 122.2526860  13.9118480 131.4888080 122.1915260  12.9679700 131.3419100
 123.0318890  14.0198570 132.0341540 106.5579610  30.0510840 130.4512030
 106.3901650  29.4181520 131.1493920 105.6914120  30.2570240 130.1006220
 107.1807630  13.8827620 127.9543890 107.9386990  13.9956500 127.3807920
 106.7184800  14.7196820 127.9087320 113.7221440  15.9966890 130.9446200
 112.9095950  15.6223780 130.6042080 114.2263080  15.2411970 131.2467390
 118.2246420  12.6609340 132.1829270 118.8275790  13.2329550 132.6577790
 117.4839410  13.2248780 131.9603170 121.3681020  13.0630900 127.4569550
 121.5631650  13.9614350 127.7236980 120.5810890  12.8317980 127.9502500
 108.1642310  28.7444070 127.8962170 107.6389930  29.1252100 127.1924130
 108.0886890  29.3694840 128.6171880 109.5532780  14.4091670 126.4945860
 110.0825540  13.6221470 126.3653810 110.1861100  15.0882860 126.7281390
 111.7470620  14.1466810 129.5491250 111.1173360  13.4454120 129.7161380
 111.2075760  14.9070940 129.3324410 114.6862570  30.7606040 142.2201860
 115.6129880  30.5250310 142.2637820 114.6713000  31.5878040 141.7387890
 122.9207630  30.3031610 129.2176110 123.0959820  29.6169350 128.5737030
 122.2229200  30.8278660 128.8252780 111.8726180  13.4250790 141.9843740
 111.5910450  13.9284390 141.2204560 112.2545880  12.6272540 141.6185870
 110.7635280  30.6926450 126.7711420 111.4954100  30.4085730 126.2235310
 111.0228950  30.4539730 127.6610800 109.9250070  26.8091180 126.7757750
 109.2958950  27.2776280 127.3243580 110.0397900  25.9640400 127.2103940
 118.4741640  12.8404370 142.5624210 118.3607090  13.1598980 143.4575730
 119.2911380  13.2416880 142.2661490 121.2540130  29.9875900 142.0442900
 122.0465450  29.4925130 141.8368860 121.5473280  30.6666040 142.6518510
 117.3799790  20.8596840 112.9258950 117.2993840  19.9451450 112.6550660
 116.9664210  21.3563910 112.2198660 115.5117830  22.6375860 114.8068220
 114.7359930  22.1576300 115.0966790 116.1630760  21.9581510 114.6324380
 109.5283660  22.9495670 115.6843980 108.6968540  22.6944380 116.0840490
 110.1364640  23.0206440 116.4201900 119.5325260  27.0436050 113.5867350
 119.0706790  26.2723290 113.9154520 120.3450810  27.0702120 114.0919800
 109.5084920  26.9835760 115.8802000 109.8112960  26.0933500 115.7012220
 110.2528510  27.5405980 115.6524250 107.9375610  17.9097560 109.4686370
 107.0492310  18.2513530 109.3666250 108.2216800  17.7097880 108.5767200
 105.9008620  20.5103210 115.3526070 106.4724730  19.7425410 115.3529710
 105.9010160  20.8091970 114.4432680 115.7588570  29.3294060 113.2071340
 115.1400010  29.7851560 112.6365780 116.6140350  29.4845520 112.8061040
 114.9526820  25.3133050 114.8138380 114.8835100  24.3722990 114.6527510
 115.7146680  25.4034460 115.3860950 107.1433490  15.9187570 117.1395000
 106.9636330  15.0213320 117.4197760 106.7413570  16.4659440 117.8141950
 115.9831990  18.1203430 115.0407310 116.3596810  17.2475310 114.9280980
 115.8851500  18.4562130 114.1497750 110.1137000  16.4929060 110.5024750
 110.2203750  17.3932790 110.8093510 109.2029360  16.4447030 110.2119400
 119.7656110  15.6153870 111.9735650 120.5865730  15.1250440 112.0161130
 119.7990190  16.2051530 112.7267490 107.7620160  18.4148070 115.7477340
 108.4430270  18.6786440 116.3664740 107.4468210  17.5748940 116.0815350
 111.9544730  19.4615430 114.8349930 112.4622950  19.9596400 115.4754950
 112.4857970  18.6850630 114.6589290 124.0555660  17.6320620 118.5379280
 123.3507830  18.0202330 118.0194390 124.3213580  18.3270910 119.1400210
 110.2380830  14.1013990 119.1013350 110.2399270  14.6186380 118.2959250
 109.4085140  13.6244170 119.0783280 116.6251920  24.2133300 110.6003250
 116.0069190  24.6782750 110.0365970 117.1375170  24.9060780 111.0172760
 111.4883680  23.7409170 117.2786850 111.1553060  24.3678090 117.9207920
 111.6650360  24.2671050 116.4988520 120.0017590  17.5554250 114.7463190
 119.2973160  17.8439140 115.3266300 120.3629750  18.3654360 114.3862750
 109.9196160  15.8123950 117.1083800 110.2612970  16.6566000 116.8137670
 108.9811970  15.9607690 117.2249140 110.7002780  25.7089970 119.0936030
 111.3176780  26.3841050 118.8120480 109.8395900  26.1177950 119.0023530
 105.9935120  24.8989830 107.9742880 105.6163100  25.3876930 107.2427780
 106.2508190  25.5715110 108.6049410 121.6180370  27.1729380 117.0090670
 120.9343890  27.8428490 117.0007340 122.1574660  27.3710030 116.2435530
 123.0704510  17.0009040 115.1372400 122.1229420  17.0348020 115.2687830
 123.3954500  17.8147990 115.5221760 113.6024050  13.3006220 113.4328390
 113.9099030  12.7453110 112.7163890 112.6724750  13.4350680 113.2501380
 119.1539110  29.0173510 115.7235850 119.1666270  28.6135800 114.8558110
 118.6014330  29.7920800 115.6197280 120.4484530  25.7389730 110.8126020
 120.3380860  24.7964060 110.9375440 120.4452780  26.1005370 111.6988780
 118.5524550  23.9203350 117.0518460 118.9693340  23.7063460 116.2171920
 119.2764370  24.1776140 117.6227080 115.9904810  21.3655050 110.1688510
 115.0634090  21.2992430 110.3976980 116.1429630  22.3035180 110.0543750
 115.9773890  17.6372050 107.1655670 115.0377560  17.7986010 107.2508130
 116.2957150  18.3557730 106.6191660 122.4986650  22.3190570 117.1434700
 121.6705280  22.3883660 116.6684830 123.0937130  22.9044880 116.6750530
 120.0202100  22.9275350 110.6723760 119.4014520  22.5894900 110.0250060
 120.0026550  22.2835110 111.3802950 119.4628660  19.1059890 118.0889570
 119.0499840  19.9313600 118.3429560 118.7304610  18.5204930 117.8965930
 111.5961450  21.8919790 112.9508240 111.1918450  21.1797040 112.4554140
 111.6824570  21.5473030 113.8396280 112.0643150  25.5787350 115.1147450
 111.7671440  24.9732820 114.4355230 113.0142970  25.6164660 115.0036810
 110.3090070  18.6663000 116.7307280 110.8604660  18.7758340 115.9560530
 110.8233580  19.0400600 117.4462510 120.1528760  29.1519220 118.7770550
 119.6759320  29.9591410 118.5843160 119.4690550  28.4997550 118.9296760
 111.1561580  25.3169040 121.7655250 110.2590110  25.5409010 122.0128650
 111.1814450  25.4403980 120.8166650 118.1966800  22.1662160 107.6796510
 118.6360080  21.3284590 107.5334330 118.9095220  22.7991560 107.7660650
 109.9832800  22.1882360 120.3412620 109.8440570  23.0605160 120.7100020
 109.1014160  21.8455170 120.1960560 116.3062180  27.1058230 111.6477750
 116.7458090  27.8482560 111.2333140 116.2449070  27.3484800 112.5716710
 111.7813150  28.1304060 122.5497770 111.7528580  28.5347010 121.6826200
 111.6178120  27.2014420 122.3869370 121.7783940  13.4204970 105.9937550
 121.4656600  13.5131800 106.8936620 122.5396410  13.9986000 105.9434980
 108.2966080  20.7864770 110.4514890 108.1763680  21.5126860 109.8396160
 107.9866970  20.0167680 109.9742800 123.7327970  28.9131160 123.8461940
 124.2087690  29.3914050 124.5251020 124.3535130  28.8448650 123.1207440
 105.9351450  23.9579910 116.2583530 106.0131870  24.0928680 115.3139250
 106.5493130  23.2495800 116.4511650 107.1799080  25.6580100 112.6689710
 106.7727160  25.7994690 111.8143310 108.0712090  25.3740260 112.4660920
 123.1361220  26.1044010 121.0061950 123.2624280  25.8655890 120.0879130
 123.1782600  25.2728550 121.4784030 116.9977960  29.8072010 119.5756760
 117.5122630  29.7180020 120.3779190 116.1547040  30.1531710 119.8684670
 118.9732360  30.0927350 109.0040760 118.8133500  29.8030290 109.9022590
 118.8079070  29.3167480 108.4685990 111.4520740  29.8725880 110.7812380
 111.2763220  28.9561420 110.5680180 110.5976480  30.2313170 111.0210180
 118.6758490  27.6014910 107.5638760 117.9823650  27.5992200 106.9041040
 119.4181350  27.1774230 107.1332930 118.2408420  29.2277620 111.6387250
 118.6965370  28.4467000 111.9525870 118.5800940  29.9384440 112.1828430
 122.9885230  18.1576470 121.9711690 122.3729500  18.6656140 121.4427150
 122.6681650  17.2574800 121.9137630 105.9910970  24.9994080 118.7977990
 106.1542010  24.5299440 117.9797360 106.4563420  24.4917640 119.4626830
 110.7629740  14.1299840 113.8338560 110.3197890  14.9109380 113.5023080
 111.3214730  14.4529730 114.5409500 115.0499550  16.9968360 119.4373880
 114.5878920  17.2051380 120.2493820 114.6477660  16.1827710 119.1344550
 120.0504060  18.2177310 120.5670540 119.1997650  17.9183060 120.8879610
 119.8905850  18.4619320 119.6554360 117.1453770  19.7179060 122.6669330
 117.4707180  18.8842810 122.3271560 117.9334100  20.2407580 122.8147660
 113.8788560  13.7510540 108.7144390 113.2542740  13.7470410 109.4397700
 113.7918680  12.8841500 108.3180360 112.8005640  14.6747170 115.6928160
 113.0977970  15.5810000 115.6120180 113.3491200  14.1865950 115.0787730
 110.5543960  19.2533410 111.5619810 110.3284880  19.0370580 112.4666430
 109.7736490  19.6861870 111.2165780 117.7841720  19.2596780 110.1610460
 117.1850610  19.9832580 109.9774080 118.3321330  19.1973560 109.3786910
 112.9943170  20.1518990 122.2280080 112.8986770  19.2113720 122.0780480
 113.8375150  20.3734060 121.8328150 116.3906590  17.8960320 112.1913740
 116.7836160  18.2132520 111.3782430 116.7523440  17.0172200 112.3058260
 108.1253710  16.5632660 120.3813860 107.7317100  17.4107870 120.5886640
 107.4372110  15.9259030 120.5722500 114.6998760  16.6467630 123.4510600
 114.0097080  16.4539830 124.0856690 115.4431060  16.9302270 123.9834900
 105.4270760  14.4861120 114.4143940 105.1383810  15.0563980 115.1268920
 106.1716520  14.0065570 114.7775170 105.6140990  18.4281240 105.6246660
 105.5315660  19.3712000 105.7661650 105.2624050  18.2856150 104.7459010
 116.9761730  20.4866070 116.2864520 116.2442850  20.9952880 116.6354620
 116.5786070  19.6696050 115.9853300 113.4139120  17.1620270 114.6917010
 113.4175180  16.7210220 113.8421550 114.3090240  17.4837600 114.7988830
 109.2641500  17.0446760 113.6511220 108.9241550  17.5221990 114.4078270
 108.5018820  16.5911880 113.2912320 113.4759270  18.1632350 107.6823770
 113.5972090  18.1218830 108.6309590 113.0907780  19.0256500 107.5270500
 117.4387640  15.9399750 115.6987460 117.4560380  16.3908400 116.5429310
 117.1903220  15.0405390 115.9120900 112.4880770  20.4733490 107.0807070
 111.9197670  20.0251740 106.4542980 113.1969770  20.8326270 106.5472220
 120.8658390  13.3531930 121.5373840 121.1904160  12.6221590 122.0631820
 120.9014900  13.0345570 120.6354830 107.5649950  24.3745510 120.9573800
 107.1804740  23.7339180 121.5556760 107.8762140  25.0781630 121.5268530
 113.7147090  21.2222050 116.4382420 114.0817220  20.7480620 117.1843760
 113.5252150  22.0963620 116.7790760 106.5787580  15.9665740 112.5675890
 106.2934500  15.6021410 113.4054510 106.5166440  15.2346200 111.9539030
 111.5046460  20.2630690 118.7566630 111.2003530  21.1422670 118.9816990
 112.4592920  20.3230480 118.7924070 110.0328250  24.4691680 109.3533480
 109.2590510  23.9289300 109.1932200 110.7622880  23.9498290 109.0151240
 120.7916230  23.4657040 115.1459870 121.5115350  23.9612330 114.7555980
 120.5898050  22.7874930 114.5013740 116.2526170  14.8595000 109.2889260
 115.4390780  14.3608170 109.2134570 116.0588120  15.6993250 108.8725610
 116.1735030  23.5366100 121.0328870 116.1072340  22.6161770 120.7786460
 115.5440170  23.6341540 121.7473510 118.9674560  19.2314650 107.5851420
 119.8554180  19.5431880 107.4102760 118.9379650  18.3586900 107.1932000
 110.0765650  24.1372060 112.9912290 110.5944320  23.3340320 112.9369180
 109.6249670  24.0751200 113.8329120 114.9635150  25.4038340 108.2639590
 115.3050850  26.1480570 107.7682910 114.1347860  25.7169460 108.6264420
 107.5610190  21.1033430 119.9037990 107.2025130  21.7687280 120.4911330
 107.2664750  20.2716980 120.2750610 110.7623310  21.5617670 122.7877540
 110.4623450  21.7074850 121.8905360 111.5334550  21.0022960 122.6950930
 116.1051760  26.3586670 120.7832670 116.1196300  25.4267630 120.5651580
 115.3976860  26.4446430 121.4222440 121.2388830  20.5426490 107.0531280
 121.1552550  20.9740710 106.2027720 121.9583020  21.0024840 107.4858100
 122.3162970  22.9994010 120.1301250 121.5911160  23.5922790 119.9330640
 122.8438430  22.9917550 119.3314620 122.2676080  27.3968750 109.7813410
 121.6252240  26.7424370 110.0557130 121.8806740  27.8023840 109.0054080
 117.8462560  24.7254180 113.6285100 118.1986380  24.1282310 112.9686470
 116.9624890  24.3998410 113.7993350 113.9325840  25.4851870 111.0355510
 114.6196970  26.0321080 111.4163100 113.1458260  26.0292600 111.0705120
 106.0718240  21.1024690 106.5272590 106.9413090  21.3849490 106.8108510
 105.5808560  21.9160560 106.4121400 113.2353050  22.4897900 110.6480870
 113.6915830  23.3003150 110.8741060 112.8841260  22.1721040 111.4799360
 115.5385660  28.0004240 117.8773170 116.1827880  28.2063620 118.5546590
 115.9015100  27.2392640 117.4244020 109.1364830  12.8335550 111.1203390
 109.0079460  12.8253450 112.0688310 108.3126850  13.1718640 110.7694400
 116.8117740  26.0036590 116.5950620 117.4539970  25.3029750 116.7082790
 117.3367090  26.7835030 116.4147510 120.6573460  26.2885210 106.3189760
 120.4311040  25.5715650 106.9114400 120.2669660  26.0397650 105.4811510
 118.5855360  26.8031490 119.7986680 118.9211600  27.3898180 120.4764600
 117.6655700  26.6724200 120.0284470 106.4389490  30.3152070 107.0934220
 106.7987130  30.9141410 106.4391490 106.2981830  30.8611960 107.8669250
 106.1358760  14.5926670 120.5810090 105.4217280  14.7923590 121.1862700
 106.5553800  13.8166240 120.9524890 120.2389710  24.2057150 107.9803920
 119.9511410  24.6669840 108.7681800 121.0341880  23.7454920 108.2488140
 106.4231350  28.5806930 121.5676620 106.5322470  27.6401670 121.4272010
 105.7711910  28.8461680 120.9190350 114.4143940  26.8522820 122.9674740
 114.0940810  26.1332060 123.5120430 113.7402300  27.5277890 123.0410800
 112.4558110  27.6983270 107.9107890 112.4468210  28.4312960 107.2952400
 111.5356470  27.4514850 108.0034850 108.0564750  22.9198160 108.6554650
 107.4492700  23.6597060 108.6649950 108.5314100  23.0097520 107.8292850
 117.6297540  17.0848980 118.3311540 117.9978360  16.2644190 118.6591110
 116.7695740  17.1450870 118.7467190 120.9959570  16.0405920 109.1399100
 120.3672730  16.1451590 108.4257330 120.5011490  16.2602700 109.9292980
 115.4417710  27.7611510 106.5733080 115.5429690  27.5575500 105.6435060
 114.5419450  27.5069790 106.7780860 112.9643600  18.3191870 110.5556980
 112.2559750  18.7878210 110.9970590 113.2488080  17.6613880 111.1902170
 114.5899530  19.7388570 118.5549510 115.0884780  20.2134390 119.2201360
 114.7322480  18.8152090 118.7619540 116.9959030  15.0442530 111.9952770
 116.8726810  15.0628660 111.0462280 117.9443590  15.0921470 112.1151170
 114.0835820  30.2797830 111.2680750 114.3377320  30.2419220 110.3460120
 113.1348300  30.1531160 111.2609000 111.1678620  16.6276950 107.9307690
 112.0169150  17.0647100 107.8647880 110.8009890  16.9397210 108.7579750
 121.7966390  15.9556530 119.3977900 121.2939990  16.6961930 119.7371710
 122.6123050  16.3440530 119.0814690 120.0888400  21.1989710 112.8439260
 119.1478540  21.2139940 113.0186950 120.4032470  20.4125670 113.2899560
 110.0670040  22.8809310 106.4043220 110.8333310  22.7690670 106.9668650
 110.1444730  22.1847280 105.7519990 108.7616800  20.3134380 107.0876110
 108.8420390  19.3661890 107.1993510 109.6536550  20.6441260 107.1936770
 122.0913980  28.3698560 114.5193520 122.2161400  29.1929730 114.9917330
 122.9579540  28.1589290 114.1717670 109.5631510  30.4629770 114.1910650
 110.2993990  29.9145230 114.4619220 109.9472430  31.3285780 114.0516640
 106.4476990  26.5303340 110.0652160 105.5216770  26.7724480 110.0557570
 106.9133420  27.3577600 109.9436910 108.5689790  29.6475840 123.3796230
 109.3702520  29.9687890 123.7931630 108.0541610  29.2871420 124.1016140
 112.6733820  29.6360080 106.0136220 113.4662430  29.9248910 105.5618010
 112.1538170  29.2052250 105.3348700 117.4054420  25.7555710 123.3271640
 116.7992580  25.7787310 122.5867390 117.1008530  25.0238750 123.8638890
 118.8354790  29.4836000 121.9381050 119.7876540  29.3994020 121.8881290
 118.6883010  30.1477710 122.6114840 121.7263990  28.8630210 107.4372960
 121.4405500  28.4495350 106.6227140 121.5283540  29.7917920 107.3173480
 106.2887600  22.1349300 122.3232280 106.7926620  21.5556580 122.8948510
 105.5495020  22.4189530 122.8608650 113.1911220  24.8563490 105.8778570
 113.0861860  24.2415840 106.6039950 113.0235440  24.3329380 105.0941580
 113.3425540  23.5420290 121.8567800 112.5771210  24.1105290 121.7722470
 113.5241500  23.2496500 120.9636030 116.4313950  23.9183520 106.4820560
 115.8824050  24.3652820 107.1263300 117.0533210  23.4132770 107.0058230
 120.4848890  25.2725620 122.4142820 121.2258360  25.6101380 121.9110280
 119.7221570  25.4417680 121.8612590 108.3210680  20.2778890 123.2182350
 108.3616020  19.9792760 124.1267580 109.1756180  20.6786500 123.0589870
 112.0989070  22.8774440 108.3785860 112.5205490  22.7114310 109.2217250
 112.2239910  22.0674670 107.8841000 110.2616490  18.8570990 121.1856840
 109.7312950  18.3661940 120.5580180 110.9304560  19.2855190 120.6514770
 114.6116710  21.9012050 105.6262960 115.1322370  21.1861070 105.2604110
 115.2585110  22.5397920 105.9263470 119.1594550  23.3240450 120.9498030
 119.5735570  23.4785530 121.7988450 118.2245550  23.4495670 121.1123810
 119.6316720  20.6636610 122.9537180 120.2137490  19.9088930 122.8657660
 119.8078490  21.1944050 122.1768660 110.7488790  15.8233360 121.2654130
 110.6545660  15.2054110 120.5405000 110.1686180  16.5499650 121.0384040
 113.5150230  14.3806600 118.2981520 113.0667530  14.4030860 117.4527070
 112.8815430  13.9825620 118.8951820 113.9209780  23.2760930 118.9193960
 114.3397890  24.1193660 118.7470200 113.0018410  23.4132970 118.6900740
 116.2573680  21.0077110 120.3031800 116.3769890  20.4118250 121.0426640
 117.1167680  21.0446800 119.8833100 118.5961580  21.5614300 118.8794310
 118.0696800  22.0856920 118.2759450 118.9392920  22.1941690 119.5104040
 110.9947970  18.9507670 105.3244020 110.7937030  18.0875030 105.6857360
 110.8240020  18.8641030 104.3865620 111.7717200  29.5813940 120.0351690
 111.2338290  30.3060000 119.7160390 112.0251160  29.1044280 119.2449030
 113.0242450  17.5498460 121.5607620 113.6142140  17.2414310 122.2485440
 112.2062690  17.0778210 121.7167520 117.8435880  17.1664270 121.7940640
 117.1551400  16.5045810 121.7290630 118.5641900  16.7202540 122.2389100
 118.4736280  13.7615900 107.8530900 118.7538570  12.9183800 108.2090320
 117.7002010  13.9939010 108.3669650 109.7930770  16.0508290 105.3121900
 110.0956670  16.0575720 104.4041050 110.5325360  15.7006150 105.8089560
 114.6279410  30.8165150 120.2938340 114.5538110  31.7200290 120.6010710
 113.7258250  30.4977050 120.2660410 113.0115700  14.9942910 106.2978100
 112.6637700  14.3166900 105.7180550 113.2128470  14.5332420 107.1121490
 115.1764740  29.9823660 107.9164700 116.0715530  30.3208630 107.9383460
 115.2082370  29.2603070 107.2888980 108.8160900  25.3550710 106.1451700
 109.2535770  25.8980380 106.8009280 109.3008630  24.5297660 106.1548040
 106.0306700  28.1439740 113.5971960 106.3609710  27.2760800 113.3650600
 106.4597700  28.3498260 114.4276920 110.6268620  26.4748750 111.2573930
 110.3264160  26.3513720 112.1577840 110.5206110  25.6157340 110.8489660
 106.5196910  29.0110330 116.3353590 106.0827900  29.1911130 117.1677740
 107.0874590  29.7684950 116.1935310 122.1559090  28.5127330 120.6230900
 121.5561080  28.5719890 119.8794820 122.2852990  27.5732310 120.7527750
 123.3960540  26.2545150 105.9600610 122.5653500  26.3221800 106.4307840
 123.5732370  27.1449270 105.6567470 122.8517000  22.9992630 108.4634810
 123.6135910  23.5689280 108.5694500 122.8671370  22.4319830 109.2343120
 106.3521340  21.5230560 112.6942470 105.6970180  21.2542200 112.0502170
 107.1899290  21.4135040 112.2444450 123.8576970  23.8542730 113.3076740
 124.2285800  23.0710050 112.9012710 124.4978900  24.5431830 113.1294040
 120.8410730  25.2379310 118.7207060 120.0270570  25.6676470 118.9832850
 121.2484930  25.8497720 118.1076110 122.9036170  23.2927000 105.6207330
 123.1785010  24.2005880 105.4926550 122.7146910  23.2289530 106.5569320
 119.3011780  16.3171850 106.9160960 119.7196660  16.1302830 106.0757620
 118.9947840  15.4650900 107.2263890 122.8001510  21.2295990 110.6136760
 122.4245110  20.4623920 110.1818050 122.0704630  21.6118690 111.1011690
 107.3897270  21.9083130 117.2345810 107.7570310  21.8210530 118.1141830
 106.8208090  21.1449680 117.1352670 122.1901130  20.3767510 120.2476280
 121.9587220  20.1480260 119.3474230 122.4505680  21.2967060 120.2021170
 106.9413270  18.8192220 121.1404230 106.0469320  18.7858980 121.4797940
 107.4810820  19.0179010 121.9055480 120.6289200  15.6023940 123.0255980
 121.5059380  15.6107340 123.4089980 120.6410040  14.8654780 122.4148330
 105.5659420  18.7329490 108.6367800 104.6623500  18.9959690 108.4619460
 106.0500040  19.0040660 107.8567760 122.0752470  19.4553480 113.9144000
 122.5989950  18.9616130 113.2834170 122.6611890  19.5903840 114.6591570
 122.2542190  19.5393350 117.4363550 121.3044900  19.5056890 117.5508540
 122.4355200  20.4493460 117.2013320 108.1086630  17.7895030 106.5462180
 108.8178330  17.3678250 106.0609460 107.3926570  17.8570260 105.9145530
 107.7560790  13.8434360 105.5864830 108.4788920  14.3843300 105.9046050
 108.0285310  13.5697780 104.7106370 121.5652440  18.7126830 109.8536410
 122.0611560  18.4797700 110.6385290 121.3668510  17.8738670 109.4374050
 107.4452980  13.0940550 115.4887450 108.0929170  12.5437930 115.0482610
 107.8654820  13.3483700 116.3103260 122.9939600  17.3487780 112.3874090
 122.8838880  17.1943820 113.3256360 123.7547190  16.8208720 112.1449500
 121.3405320  13.2881910 118.8457090 121.9777540  13.9016050 119.2116280
 121.4880210  13.3242570 117.9006320 123.8829870  15.1795700 105.6280230
 124.8079180  15.0476880 105.4198520 123.8605660  15.2588520 106.5816680
 123.9568360  15.9506360 108.2536940 123.1619860  15.8851480 108.7829850
 124.1611640  16.8857000 108.2422290 120.8986780  29.9897910 112.2475330
 121.4945850  29.6682480 111.5709750 121.1564930  29.5169730 113.0388600
 107.1984980  13.2496220 118.2312770 106.8499800  13.7060040 118.9970950
 106.8672680  12.3553350 118.3135200 108.8049350  26.4215820 122.3965960
 108.7618980  26.0508730 123.2780420 108.9360360  27.3593390 122.5367780
 112.5055380  27.9775410 117.9975680 112.2646740  28.2449970 117.1106200
 113.4458020  28.1481140 118.0526540 114.7109800  14.4408100 121.7532190
 114.6498690  15.0329930 122.5027600 115.6510180  14.3334060 121.6082450
 117.3484360  14.0978160 121.3924480 117.9624770  14.4157450 120.7305560
 117.8933920  13.6126750 122.0120340 123.7659540  29.9969790 118.7986320
 123.2717820  30.3938660 118.0813450 123.1572830  29.3719000 119.1923600
 107.8705620  12.7772420 121.5063540 108.4188610  12.5960470 120.7429650
 107.9360930  11.9866530 122.0419850 108.6437380  29.3678070 119.5163740
 108.0497700  29.2362770 120.2553780 108.6361220  28.5316210 119.0505840
 118.0892400  12.6610300 117.7193770 117.2152240  12.9945410 117.5166700
 117.9803150  12.1883480 118.5445640 118.9964380  14.8681170 119.1035490
 118.6677740  14.0532930 118.7237220 119.9446680  14.8250980 118.9801180
 121.4498990  30.6393210 116.0773060 120.9901960  31.3909020 115.7031080
 120.8211450  29.9199680 116.0187860 108.2749610  26.7336450 118.4671780
 107.5483670  26.1141740 118.3997730 108.3358760  27.1277060 117.5969860
 111.8794710  28.9481450 115.2521190 112.3959730  28.3368810 114.7269450
 112.5292090  29.4510230 115.7432200 114.6190210  29.8389940 116.0790170
 114.9068020  29.5844240 115.2023180 115.1313430  29.2867300 116.6695740
 115.8367220  13.5780140 116.6586680 115.0539010  14.0525640 116.9383440
 115.5430150  12.6734970 116.5499860 120.3888290  14.2803240 114.7035770
 120.8296380  14.2248340 113.8557370 120.1195880  15.1961250 114.7745950
 122.2526860  13.9118480 112.7144590 122.1915260  12.9679700 112.5675610
 123.0318890  14.0198570 113.2598050 106.5579610  30.0510840 111.6768540
 106.3901650  29.4181520 112.3750430 105.6914120  30.2570240 111.3262730
 107.1807630  13.8827620 109.1800400 107.9386990  13.9956500 108.6064430
 106.7184800  14.7196820 109.1343830 113.7221440  15.9966890 112.1702710
 112.9095950  15.6223780 111.8298590 114.2263080  15.2411970 112.4723900
 118.2246420  12.6609340 113.4085780 118.8275790  13.2329550 113.8834300
 117.4839410  13.2248780 113.1859680 121.3681020  13.0630900 108.6826060
 121.5631650  13.9614350 108.9493490 120.5810890  12.8317980 109.1759010
 108.1642310  28.7444070 109.1218680 107.6389930  29.1252100 108.4180640
 108.0886890  29.3694840 109.8428390 109.5532780  14.4091670 107.7202370
 110.0825540  13.6221470 107.5910320 110.1861100  15.0882860 107.9537900
 111.7470620  14.1466810 110.7747760 111.1173360  13.4454120 110.9417890
 111.2075760  14.9070940 110.5580920 114.6862570  30.7606040 123.4458370
 115.6129880  30.5250310 123.4894330 114.6713000  31.5878040 122.9644400
 122.9207630  30.3031610 110.4432620 123.0959820  29.6169350 109.7993540
 122.2229200  30.8278660 110.0509290 111.8726180  13.4250790 123.2100250
 111.5910450  13.9284390 122.4461070 112.2545880  12.6272540 122.8442380
 110.7635280  30.6926450 107.9967930 111.4954100  30.4085730 107.4491820
 111.0228950  30.4539730 108.8867310 109.9250070  26.8091180 108.0014260
 109.2958950  27.2776280 108.5500090 110.0397900  25.9640400 108.4360450
 118.4741640  12.8404370 123.7880720 118.3607090  13.1598980 124.6832240
 119.2911380  13.2416880 123.4918000 121.2540130  29.9875900 123.2699410
 122.0465450  29.4925130 123.0625370 121.5473280  30.6666040 123.8775020
 117.3799790  20.8596840  94.1515460 117.2993840  19.9451450  93.8807170
 116.9664210  21.3563910  93.4455170 115.5117830  22.6375860  96.0324730
 114.7359930  22.1576300  96.3223300 116.1630760  21.9581510  95.8580890
 119.5325260  27.0436050  94.8123860 119.0706790  26.2723290  95.1411030
 120.3450810  27.0702120  95.3176310 107.9375610  17.9097560  90.6942880
 107.0492310  18.2513530  90.5922760 108.2216800  17.7097880  89.8023710
 114.9526820  25.3133050  96.0394890 114.8835100  24.3722990  95.8784020
 115.7146680  25.4034460  96.6117460 107.1433490  15.9187570  98.3651510
 106.9636330  15.0213320  98.6454270 106.7413570  16.4659440  99.0398460
 115.9831990  18.1203430  96.2663820 116.3596810  17.2475310  96.1537490
 115.8851500  18.4562130  95.3754260 110.1137000  16.4929060  91.7281260
 110.2203750  17.3932790  92.0350020 109.2029360  16.4447030  91.4375910
 119.7656110  15.6153870  93.1992160 120.5865730  15.1250440  93.2417640
 119.7990190  16.2051530  93.9524000 107.7620160  18.4148070  96.9733850
 108.4430270  18.6786440  97.5921250 107.4468210  17.5748940  97.3071860
 111.9544730  19.4615430  96.0606440 112.4622950  19.9596400  96.7011460
 112.4857970  18.6850630  95.8845800 124.0555660  17.6320620  99.7635790
 123.3507830  18.0202330  99.2450900 124.3213580  18.3270910 100.3656720
 110.2380830  14.1013990 100.3269860 110.2399270  14.6186380  99.5215760
 109.4085140  13.6244170 100.3039790 116.6251920  24.2133300  91.8259760
 116.0069190  24.6782750  91.2622480 117.1375170  24.9060780  92.2429270
 120.0017590  17.5554250  95.9719700 119.2973160  17.8439140  96.5522810
 120.3629750  18.3654360  95.6119260 109.9196160  15.8123950  98.3340310
 110.2612970  16.6566000  98.0394180 108.9811970  15.9607690  98.4505650
 121.6180370  27.1729380  98.2347180 120.9343890  27.8428490  98.2263850
 122.1574660  27.3710030  97.4692040 123.0704510  17.0009040  96.3628910
 122.1229420  17.0348020  96.4944340 123.3954500  17.8147990  96.7478270
 113.6024050  13.3006220  94.6584900 113.9099030  12.7453110  93.9420400
 112.6724750  13.4350680  94.4757890 119.1539110  29.0173510  96.9492360
 119.1666270  28.6135800  96.0814620 118.6014330  29.7920800  96.8453790
 120.4484530  25.7389730  92.0382530 120.3380860  24.7964060  92.1631950
 120.4452780  26.1005370  92.9245290 118.5524550  23.9203350  98.2774970
 118.9693340  23.7063460  97.4428430 119.2764370  24.1776140  98.8483590
 115.9904810  21.3655050  91.3945020 115.0634090  21.2992430  91.6233490
 116.1429630  22.3035180  91.2800260 115.9773890  17.6372050  88.3912180
 115.0377560  17.7986010  88.4764640 116.2957150  18.3557730  87.8448170
 122.4986650  22.3190570  98.3691210 121.6705280  22.3883660  97.8941340
 123.0937130  22.9044880  97.9007040 120.0202100  22.9275350  91.8980270
 119.4014520  22.5894900  91.2506570 120.0026550  22.2835110  92.6059460
 119.4628660  19.1059890  99.3146080 119.0499840  19.9313600  99.5686070
 118.7304610  18.5204930  99.1222440 111.5961450  21.8919790  94.1764750
 111.1918450  21.1797040  93.6810650 111.6824570  21.5473030  95.0652790
 110.3090070  18.6663000  97.9563790 110.8604660  18.7758340  97.1817040
 110.8233580  19.0400600  98.6719020 120.1528760  29.1519220 100.0027060
 119.6759320  29.9591410  99.8099670 119.4690550  28.4997550 100.1553270
 111.1561580  25.3169040 102.9911760 110.2590110  25.5409010 103.2385160
 111.1814450  25.4403980 102.0423160 118.1966800  22.1662160  88.9053020
 118.6360080  21.3284590  88.7590840 118.9095220  22.7991560  88.9917160
 109.9832800  22.1882360 101.5669130 109.8440570  23.0605160 101.9356530
 109.1014160  21.8455170 101.4217070 116.3062180  27.1058230  92.8734260
 116.7458090  27.8482560  92.4589650 116.2449070  27.3484800  93.7973220
 111.7813150  28.1304060 103.7754280 111.7528580  28.5347010 102.9082710
 111.6178120  27.2014420 103.6125880 121.7783940  13.4204970  87.2194060
 121.4656600  13.5131800  88.1193130 122.5396410  13.9986000  87.1691490
 108.2966080  20.7864770  91.6771400 108.1763680  21.5126860  91.0652670
 107.9866970  20.0167680  91.1999310 123.7327970  28.9131160 105.0718450
 124.2087690  29.3914050 105.7507530 124.3535130  28.8448650 104.3463950
 123.1361220  26.1044010 102.2318460 123.2624280  25.8655890 101.3135640
 123.1782600  25.2728550 102.7040540 116.9977960  29.8072010 100.8013270
 117.5122630  29.7180020 101.6035700 116.1547040  30.1531710 101.0941180
 118.6758490  27.6014910  88.7895270 117.9823650  27.5992200  88.1297550
 119.4181350  27.1774230  88.3589440 122.9885230  18.1576470 103.1968200
 122.3729500  18.6656140 102.6683660 122.6681650  17.2574800 103.1394140
 110.7629740  14.1299840  95.0595070 110.3197890  14.9109380  94.7279590
 111.3214730  14.4529730  95.7666010 115.0499550  16.9968360 100.6630390
 114.5878920  17.2051380 101.4750330 114.6477660  16.1827710 100.3601060
 120.0504060  18.2177310 101.7927050 119.1997650  17.9183060 102.1136120
 119.8905850  18.4619320 100.8810870 117.1453770  19.7179060 103.8925840
 117.4707180  18.8842810 103.5528070 117.9334100  20.2407580 104.0404170
 113.8788560  13.7510540  89.9400900 113.2542740  13.7470410  90.6654210
 113.7918680  12.8841500  89.5436870 112.8005640  14.6747170  96.9184670
 113.0977970  15.5810000  96.8376690 113.3491200  14.1865950  96.3044240
 110.5543960  19.2533410  92.7876320 110.3284880  19.0370580  93.6922940
 109.7736490  19.6861870  92.4422290 117.7841720  19.2596780  91.3866970
 117.1850610  19.9832580  91.2030590 118.3321330  19.1973560  90.6043420
 112.9943170  20.1518990 103.4536590 112.8986770  19.2113720 103.3036990
 113.8375150  20.3734060 103.0584660 116.3906590  17.8960320  93.4170250
 116.7836160  18.2132520  92.6038940 116.7523440  17.0172200  93.5314770
 108.1253710  16.5632660 101.6070370 107.7317100  17.4107870 101.8143150
 107.4372110  15.9259030 101.7979010 114.6998760  16.6467630 104.6767110
 114.0097080  16.4539830 105.3113200 115.4431060  16.9302270 105.2091410
 105.4270760  14.4861120  95.6400450 105.1383810  15.0563980  96.3525430
 106.1716520  14.0065570  96.0031680 105.6140990  18.4281240  86.8503170
 105.5315660  19.3712000  86.9918160 105.2624050  18.2856150  85.9715520
 116.9761730  20.4866070  97.5121030 116.2442850  20.9952880  97.8611130
 116.5786070  19.6696050  97.2109810 113.4139120  17.1620270  95.9173520
 113.4175180  16.7210220  95.0678060 114.3090240  17.4837600  96.0245340
 109.2641500  17.0446760  94.8767730 108.9241550  17.5221990  95.6334780
 108.5018820  16.5911880  94.5168830 113.4759270  18.1632350  88.9080280
 113.5972090  18.1218830  89.8566100 113.0907780  19.0256500  88.7527010
 117.4387640  15.9399750  96.9243970 117.4560380  16.3908400  97.7685820
 117.1903220  15.0405390  97.1377410 112.4880770  20.4733490  88.3063580
 111.9197670  20.0251740  87.6799490 113.1969770  20.8326270  87.7728730
 120.8658390  13.3531930 102.7630350 121.1904160  12.6221590 103.2888330
 120.9014900  13.0345570 101.8611340 113.7147090  21.2222050  97.6638930
 114.0817220  20.7480620  98.4100270 113.5252150  22.0963620  98.0047270
 106.5787580  15.9665740  93.7932400 106.2934500  15.6021410  94.6311020
 106.5166440  15.2346200  93.1795540 111.5046460  20.2630690  99.9823140
 111.2003530  21.1422670 100.2073500 112.4592920  20.3230480 100.0180580
 110.0328250  24.4691680  90.5789990 109.2590510  23.9289300  90.4188710
 110.7622880  23.9498290  90.2407750 120.7916230  23.4657040  96.3716380
 121.5115350  23.9612330  95.9812490 120.5898050  22.7874930  95.7270250
 116.2526170  14.8595000  90.5145770 115.4390780  14.3608170  90.4391080
 116.0588120  15.6993250  90.0982120 116.1735030  23.5366100 102.2585380
 116.1072340  22.6161770 102.0042970 115.5440170  23.6341540 102.9730020
 118.9674560  19.2314650  88.8107930 119.8554180  19.5431880  88.6359270
 118.9379650  18.3586900  88.4188510 114.9635150  25.4038340  89.4896100
 115.3050850  26.1480570  88.9939420 114.1347860  25.7169460  89.8520930
 107.5610190  21.1033430 101.1294500 107.2025130  21.7687280 101.7167840
 107.2664750  20.2716980 101.5007120 110.7623310  21.5617670 104.0134050
 110.4623450  21.7074850 103.1161870 111.5334550  21.0022960 103.9207440
 116.1051760  26.3586670 102.0089180 116.1196300  25.4267630 101.7908090
 115.3976860  26.4446430 102.6478950 121.2388830  20.5426490  88.2787790
 121.1552550  20.9740710  87.4284230 121.9583020  21.0024840  88.7114610
 122.3162970  22.9994010 101.3557760 121.5911160  23.5922790 101.1587150
 122.8438430  22.9917550 100.5571130 122.2676080  27.3968750  91.0069920
 121.6252240  26.7424370  91.2813640 121.8806740  27.8023840  90.2310590
 117.8462560  24.7254180  94.8541610 118.1986380  24.1282310  94.1942980
 116.9624890  24.3998410  95.0249860 113.9325840  25.4851870  92.2612020
 114.6196970  26.0321080  92.6419610 113.1458260  26.0292600  92.2961630
 113.2353050  22.4897900  91.8737380 113.6915830  23.3003150  92.0997570
 112.8841260  22.1721040  92.7055870 115.5385660  28.0004240  99.1029680
 116.1827880  28.2063620  99.7803100 115.9015100  27.2392640  98.6500530
 109.1364830  12.8335550  92.3459900 109.0079460  12.8253450  93.2944820
 108.3126850  13.1718640  91.9950910 116.8117740  26.0036590  97.8207130
 117.4539970  25.3029750  97.9339300 117.3367090  26.7835030  97.6404020
 120.6573460  26.2885210  87.5446270 120.4311040  25.5715650  88.1370910
 120.2669660  26.0397650  86.7068020 118.5855360  26.8031490 101.0243190
 118.9211600  27.3898180 101.7021110 117.6655700  26.6724200 101.2540980
 106.4389490  30.3152070  88.3190730 106.7987130  30.9141410  87.6648000
 106.2981830  30.8611960  89.0925760 106.1358760  14.5926670 101.8066600
 105.4217280  14.7923590 102.4119210 106.5553800  13.8166240 102.1781400
 120.2389710  24.2057150  89.2060430 119.9511410  24.6669840  89.9938310
 121.0341880  23.7454920  89.4744650 114.4143940  26.8522820 104.1931250
 114.0940810  26.1332060 104.7376940 113.7402300  27.5277890 104.2667310
 112.4558110  27.6983270  89.1364400 112.4468210  28.4312960  88.5208910
 111.5356470  27.4514850  89.2291360 108.0564750  22.9198160  89.8811160
 107.4492700  23.6597060  89.8906460 108.5314100  23.0097520  89.0549360
 117.6297540  17.0848980  99.5568050 117.9978360  16.2644190  99.8847620
 116.7695740  17.1450870  99.9723700 120.9959570  16.0405920  90.3655610
 120.3672730  16.1451590  89.6513840 120.5011490  16.2602700  91.1549490
 115.4417710  27.7611510  87.7989590 115.5429690  27.5575500  86.8691570
 114.5419450  27.5069790  88.0037370 112.9643600  18.3191870  91.7813490
 112.2559750  18.7878210  92.2227100 113.2488080  17.6613880  92.4158680
 114.5899530  19.7388570  99.7806020 115.0884780  20.2134390 100.4457870
 114.7322480  18.8152090  99.9876050 116.9959030  15.0442530  93.2209280
 116.8726810  15.0628660  92.2718790 117.9443590  15.0921470  93.3407680
 111.1678620  16.6276950  89.1564200 112.0169150  17.0647100  89.0904390
 110.8009890  16.9397210  89.9836260 121.7966390  15.9556530 100.6234410
 121.2939990  16.6961930 100.9628220 122.6123050  16.3440530 100.3071200
 120.0888400  21.1989710  94.0695770 119.1478540  21.2139940  94.2443460
 120.4032470  20.4125670  94.5156070 110.0670040  22.8809310  87.6299730
 110.8333310  22.7690670  88.1925160 110.1444730  22.1847280  86.9776500
 108.7616800  20.3134380  88.3132620 108.8420390  19.3661890  88.4250020
 109.6536550  20.6441260  88.4193280 122.0913980  28.3698560  95.7450030
 122.2161400  29.1929730  96.2173840 122.9579540  28.1589290  95.3974180
 108.5689790  29.6475840 104.6052740 109.3702520  29.9687890 105.0188140
 108.0541610  29.2871420 105.3272650 117.4054420  25.7555710 104.5528150
 116.7992580  25.7787310 103.8123900 117.1008530  25.0238750 105.0895400
 118.8354790  29.4836000 103.1637560 119.7876540  29.3994020 103.1137800
 118.6883010  30.1477710 103.8371350 121.7263990  28.8630210  88.6629470
 121.4405500  28.4495350  87.8483650 121.5283540  29.7917920  88.5429990
 106.2887600  22.1349300 103.5488790 106.7926620  21.5556580 104.1205020
 105.5495020  22.4189530 104.0865160 113.1911220  24.8563490  87.1035080
 113.0861860  24.2415840  87.8296460 113.0235440  24.3329380  86.3198090
 113.3425540  23.5420290 103.0824310 112.5771210  24.1105290 102.9978980
 113.5241500  23.2496500 102.1892540 116.4313950  23.9183520  87.7077070
 115.8824050  24.3652820  88.3519810 117.0533210  23.4132770  88.2314740
 120.4848890  25.2725620 103.6399330 121.2258360  25.6101380 103.1366790
 119.7221570  25.4417680 103.0869100 108.3210680  20.2778890 104.4438860
 108.3616020  19.9792760 105.3524090 109.1756180  20.6786500 104.2846380
 112.0989070  22.8774440  89.6042370 112.5205490  22.7114310  90.4473760
 112.2239910  22.0674670  89.1097510 110.2616490  18.8570990 102.4113350
 109.7312950  18.3661940 101.7836690 110.9304560  19.2855190 101.8771280
 114.6116710  21.9012050  86.8519470 115.1322370  21.1861070  86.4860620
 115.2585110  22.5397920  87.1519980 119.1594550  23.3240450 102.1754540
 119.5735570  23.4785530 103.0244960 118.2245550  23.4495670 102.3380320
 119.6316720  20.6636610 104.1793690 120.2137490  19.9088930 104.0914170
 119.8078490  21.1944050 103.4025170 110.7488790  15.8233360 102.4910640
 110.6545660  15.2054110 101.7661510 110.1686180  16.5499650 102.2640550
 113.5150230  14.3806600  99.5238030 113.0667530  14.4030860  98.6783580
 112.8815430  13.9825620 100.1208330 113.9209780  23.2760930 100.1450470
 114.3397890  24.1193660  99.9726710 113.0018410  23.4132970  99.9157250
 116.2573680  21.0077110 101.5288310 116.3769890  20.4118250 102.2683150
 117.1167680  21.0446800 101.1089610 118.5961580  21.5614300 100.1050820
 118.0696800  22.0856920  99.5015960 118.9392920  22.1941690 100.7360550
 110.9947970  18.9507670  86.5500530 110.7937030  18.0875030  86.9113870
 110.8240020  18.8641030  85.6122130 111.7717200  29.5813940 101.2608200
 111.2338290  30.3060000 100.9416900 112.0251160  29.1044280 100.4705540
 113.0242450  17.5498460 102.7864130 113.6142140  17.2414310 103.4741950
 112.2062690  17.0778210 102.9424030 117.8435880  17.1664270 103.0197150
 117.1551400  16.5045810 102.9547140 118.5641900  16.7202540 103.4645610
 118.4736280  13.7615900  89.0787410 118.7538570  12.9183800  89.4346830
 117.7002010  13.9939010  89.5926160 109.7930770  16.0508290  86.5378410
 110.0956670  16.0575720  85.6297560 110.5325360  15.7006150  87.0346070
 114.6279410  30.8165150 101.5194850 114.5538110  31.7200290 101.8267220
 113.7258250  30.4977050 101.4916920 113.0115700  14.9942910  87.5234610
 112.6637700  14.3166900  86.9437060 113.2128470  14.5332420  88.3378000
 115.1764740  29.9823660  89.1421210 116.0715530  30.3208630  89.1639970
 115.2082370  29.2603070  88.5145490 122.1559090  28.5127330 101.8487410
 121.5561080  28.5719890 101.1051330 122.2852990  27.5732310 101.9784260
 123.3960540  26.2545150  87.1857120 122.5653500  26.3221800  87.6564350
 123.5732370  27.1449270  86.8823980 122.8517000  22.9992630  89.6891320
 123.6135910  23.5689280  89.7951010 122.8671370  22.4319830  90.4599630
 123.8576970  23.8542730  94.5333250 124.2285800  23.0710050  94.1269220
 124.4978900  24.5431830  94.3550550 120.8410730  25.2379310  99.9463570
 120.0270570  25.6676470 100.2089360 121.2484930  25.8497720  99.3332620
 122.9036170  23.2927000  86.8463840 123.1785010  24.2005880  86.7183060
 122.7146910  23.2289530  87.7825830 119.3011780  16.3171850  88.1417470
 119.7196660  16.1302830  87.3014130 118.9947840  15.4650900  88.4520400
 122.8001510  21.2295990  91.8393270 122.4245110  20.4623920  91.4074560
 122.0704630  21.6118690  92.3268200 122.1901130  20.3767510 101.4732790
 121.9587220  20.1480260 100.5730740 122.4505680  21.2967060 101.4277680
 106.9413270  18.8192220 102.3660740 106.0469320  18.7858980 102.7054450
 107.4810820  19.0179010 103.1311990 120.6289200  15.6023940 104.2512490
 121.5059380  15.6107340 104.6346490 120.6410040  14.8654780 103.6404840
 105.5659420  18.7329490  89.8624310 104.6623500  18.9959690  89.6875970
 106.0500040  19.0040660  89.0824270 122.0752470  19.4553480  95.1400510
 122.5989950  18.9616130  94.5090680 122.6611890  19.5903840  95.8848080
 122.2542190  19.5393350  98.6620060 121.3044900  19.5056890  98.7765050
 122.4355200  20.4493460  98.4269830 108.1086630  17.7895030  87.7718690
 108.8178330  17.3678250  87.2865970 107.3926570  17.8570260  87.1402040
 107.7560790  13.8434360  86.8121340 108.4788920  14.3843300  87.1302560
 108.0285310  13.5697780  85.9362880 121.5652440  18.7126830  91.0792920
 122.0611560  18.4797700  91.8641800 121.3668510  17.8738670  90.6630560
 107.4452980  13.0940550  96.7143960 108.0929170  12.5437930  96.2739120
 107.8654820  13.3483700  97.5359770 122.9939600  17.3487780  93.6130600
 122.8838880  17.1943820  94.5512870 123.7547190  16.8208720  93.3706010
 121.3405320  13.2881910 100.0713600 121.9777540  13.9016050 100.4372790
 121.4880210  13.3242570  99.1262830 123.8829870  15.1795700  86.8536740
 124.8079180  15.0476880  86.6455030 123.8605660  15.2588520  87.8073190
 123.9568360  15.9506360  89.4793450 123.1619860  15.8851480  90.0086360
 124.1611640  16.8857000  89.4678800 107.1984980  13.2496220  99.4569280
 106.8499800  13.7060040 100.2227460 106.8672680  12.3553350  99.5391710
 112.5055380  27.9775410  99.2232190 112.2646740  28.2449970  98.3362710
 113.4458020  28.1481140  99.2783050 114.7109800  14.4408100 102.9788700
 114.6498690  15.0329930 103.7284110 115.6510180  14.3334060 102.8338960
 117.3484360  14.0978160 102.6180990 117.9624770  14.4157450 101.9562070
 117.8933920  13.6126750 103.2376850 123.7659540  29.9969790 100.0242830
 123.2717820  30.3938660  99.3069960 123.1572830  29.3719000 100.4180110
 107.8705620  12.7772420 102.7320050 108.4188610  12.5960470 101.9686160
 107.9360930  11.9866530 103.2676360 108.6437380  29.3678070 100.7420250
 108.0497700  29.2362770 101.4810290 108.6361220  28.5316210 100.2762350
 118.0892400  12.6610300  98.9450280 117.2152240  12.9945410  98.7423210
 117.9803150  12.1883480  99.7702150 118.9964380  14.8681170 100.3292000
 118.6677740  14.0532930  99.9493730 119.9446680  14.8250980 100.2057690
 121.4498990  30.6393210  97.3029570 120.9901960  31.3909020  96.9287590
 120.8211450  29.9199680  97.2444370 115.8367220  13.5780140  97.8843190
 115.0539010  14.0525640  98.1639950 115.5430150  12.6734970  97.7756370
 120.3888290  14.2803240  95.9292280 120.8296380  14.2248340  95.0813880
 120.1195880  15.1961250  96.0002460 122.2526860  13.9118480  93.9401100
 122.1915260  12.9679700  93.7932120 123.0318890  14.0198570  94.4854560
 107.1807630  13.8827620  90.4056910 107.9386990  13.9956500  89.8320940
 106.7184800  14.7196820  90.3600340 113.7221440  15.9966890  93.3959220
 112.9095950  15.6223780  93.0555100 114.2263080  15.2411970  93.6980410
 118.2246420  12.6609340  94.6342290 118.8275790  13.2329550  95.1090810
 117.4839410  13.2248780  94.4116190 121.3681020  13.0630900  89.9082570
 121.5631650  13.9614350  90.1750000 120.5810890  12.8317980  90.4015520
 108.1642310  28.7444070  90.3475190 107.6389930  29.1252100  89.6437150
 108.0886890  29.3694840  91.0684900 109.5532780  14.4091670  88.9458880
 110.0825540  13.6221470  88.8166830 110.1861100  15.0882860  89.1794410
 111.7470620  14.1466810  92.0004270 111.1173360  13.4454120  92.1674400
 111.2075760  14.9070940  91.7837430 114.6862570  30.7606040 104.6714880
 115.6129880  30.5250310 104.7150840 114.6713000  31.5878040 104.1900910
 122.9207630  30.3031610  91.6689130 123.0959820  29.6169350  91.0250050
 122.2229200  30.8278660  91.2765800 111.8726180  13.4250790 104.4356760
 111.5910450  13.9284390 103.6717580 112.2545880  12.6272540 104.0698890
 109.9250070  26.8091180  89.2270770 109.2958950  27.2776280  89.7756600
 110.0397900  25.9640400  89.6616960 118.4741640  12.8404370 105.0137230
 118.3607090  13.1598980 105.9088750 119.2911380  13.2416880 104.7174510
 121.2540130  29.9875900 104.4955920 122.0465450  29.4925130 104.2881880
 121.5473280  30.6666040 105.1031530 117.3799790  20.8596840  75.3771970
 117.2993840  19.9451450  75.1063680 116.9664210  21.3563910  74.6711680
 119.5325260  27.0436050  76.0380370 119.0706790  26.2723290  76.3667540
 120.3450810  27.0702120  76.5432820 107.9375610  17.9097560  71.9199390
 107.0492310  18.2513530  71.8179270 108.2216800  17.7097880  71.0280220
 107.1433490  15.9187570  79.5908020 106.9636330  15.0213320  79.8710780
 106.7413570  16.4659440  80.2654970 115.9831990  18.1203430  77.4920330
 116.3596810  17.2475310  77.3794000 115.8851500  18.4562130  76.6010770
 110.1137000  16.4929060  72.9537770 110.2203750  17.3932790  73.2606530
 109.2029360  16.4447030  72.6632420 119.7656110  15.6153870  74.4248670
 120.5865730  15.1250440  74.4674150 119.7990190  16.2051530  75.1780510
 107.7620160  18.4148070  78.1990360 108.4430270  18.6786440  78.8177760
 107.4468210  17.5748940  78.5328370 111.9544730  19.4615430  77.2862950
 112.4622950  19.9596400  77.9267970 112.4857970  18.6850630  77.1102310
 124.0555660  17.6320620  80.9892300 123.3507830  18.0202330  80.4707410
 124.3213580  18.3270910  81.5913230 110.2380830  14.1013990  81.5526370
 110.2399270  14.6186380  80.7472270 109.4085140  13.6244170  81.5296300
 116.6251920  24.2133300  73.0516270 116.0069190  24.6782750  72.4878990
 117.1375170  24.9060780  73.4685780 120.0017590  17.5554250  77.1976210
 119.2973160  17.8439140  77.7779320 120.3629750  18.3654360  76.8375770
 109.9196160  15.8123950  79.5596820 110.2612970  16.6566000  79.2650690
 108.9811970  15.9607690  79.6762160 105.9935120  24.8989830  70.4255900
 105.6163100  25.3876930  69.6940800 106.2508190  25.5715110  71.0562430
 121.6180370  27.1729380  79.4603690 120.9343890  27.8428490  79.4520360
 122.1574660  27.3710030  78.6948550 123.0704510  17.0009040  77.5885420
 122.1229420  17.0348020  77.7200850 123.3954500  17.8147990  77.9734780
 113.6024050  13.3006220  75.8841410 113.9099030  12.7453110  75.1676910
 112.6724750  13.4350680  75.7014400 115.9904810  21.3655050  72.6201530
 115.0634090  21.2992430  72.8490000 116.1429630  22.3035180  72.5056770
 115.9773890  17.6372050  69.6168690 115.0377560  17.7986010  69.7021150
 116.2957150  18.3557730  69.0704680 122.4986650  22.3190570  79.5947720
 121.6705280  22.3883660  79.1197850 123.0937130  22.9044880  79.1263550
 120.0202100  22.9275350  73.1236780 119.4014520  22.5894900  72.4763080
 120.0026550  22.2835110  73.8315970 119.4628660  19.1059890  80.5402590
 119.0499840  19.9313600  80.7942580 118.7304610  18.5204930  80.3478950
 110.3090070  18.6663000  79.1820300 110.8604660  18.7758340  78.4073550
 110.8233580  19.0400600  79.8975530 120.1528760  29.1519220  81.2283570
 119.6759320  29.9591410  81.0356180 119.4690550  28.4997550  81.3809780
 111.1561580  25.3169040  84.2168270 110.2590110  25.5409010  84.4641670
 111.1814450  25.4403980  83.2679670 118.1966800  22.1662160  70.1309530
 118.6360080  21.3284590  69.9847350 118.9095220  22.7991560  70.2173670
 109.9832800  22.1882360  82.7925640 109.8440570  23.0605160  83.1613040
 109.1014160  21.8455170  82.6473580 116.3062180  27.1058230  74.0990770
 116.7458090  27.8482560  73.6846160 116.2449070  27.3484800  75.0229730
 111.7813150  28.1304060  85.0010790 111.7528580  28.5347010  84.1339220
 111.6178120  27.2014420  84.8382390 121.7783940  13.4204970  68.4450570
 121.4656600  13.5131800  69.3449640 122.5396410  13.9986000  68.3948000
 123.7327970  28.9131160  86.2974960 124.2087690  29.3914050  86.9764040
 124.3535130  28.8448650  85.5720460 123.1361220  26.1044010  83.4574970
 123.2624280  25.8655890  82.5392150 123.1782600  25.2728550  83.9297050
 116.9977960  29.8072010  82.0269780 117.5122630  29.7180020  82.8292210
 116.1547040  30.1531710  82.3197690 111.4520740  29.8725880  73.2325400
 111.2763220  28.9561420  73.0193200 110.5976480  30.2313170  73.4723200
 122.9885230  18.1576470  84.4224710 122.3729500  18.6656140  83.8940170
 122.6681650  17.2574800  84.3650650 110.7629740  14.1299840  76.2851580
 110.3197890  14.9109380  75.9536100 111.3214730  14.4529730  76.9922520
 115.0499550  16.9968360  81.8886900 114.5878920  17.2051380  82.7006840
 114.6477660  16.1827710  81.5857570 120.0504060  18.2177310  83.0183560
 119.1997650  17.9183060  83.3392630 119.8905850  18.4619320  82.1067380
 117.1453770  19.7179060  85.1182350 117.4707180  18.8842810  84.7784580
 117.9334100  20.2407580  85.2660680 113.8788560  13.7510540  71.1657410
 113.2542740  13.7470410  71.8910720 113.7918680  12.8841500  70.7693380
 112.8005640  14.6747170  78.1441180 113.0977970  15.5810000  78.0633200
 113.3491200  14.1865950  77.5300750 110.5543960  19.2533410  74.0132830
 110.3284880  19.0370580  74.9179450 109.7736490  19.6861870  73.6678800
 117.7841720  19.2596780  72.6123480 117.1850610  19.9832580  72.4287100
 118.3321330  19.1973560  71.8299930 112.9943170  20.1518990  84.6793100
 112.8986770  19.2113720  84.5293500 113.8375150  20.3734060  84.2841170
 116.3906590  17.8960320  74.6426760 116.7836160  18.2132520  73.8295450
 116.7523440  17.0172200  74.7571280 108.1253710  16.5632660  82.8326880
 107.7317100  17.4107870  83.0399660 107.4372110  15.9259030  83.0235520
 114.6998760  16.6467630  85.9023620 114.0097080  16.4539830  86.5369710
 115.4431060  16.9302270  86.4347920 105.4270760  14.4861120  76.8656960
 105.1383810  15.0563980  77.5781940 106.1716520  14.0065570  77.2288190
 105.6140990  18.4281240  68.0759680 105.5315660  19.3712000  68.2174670
 105.2624050  18.2856150  67.1972030 116.9761730  20.4866070  78.7377540
 116.2442850  20.9952880  79.0867640 116.5786070  19.6696050  78.4366320
 113.4139120  17.1620270  77.1430030 113.4175180  16.7210220  76.2934570
 114.3090240  17.4837600  77.2501850 109.2641500  17.0446760  76.1024240
 108.9241550  17.5221990  76.8591290 108.5018820  16.5911880  75.7425340
 113.4759270  18.1632350  70.1336790 113.5972090  18.1218830  71.0822610
 113.0907780  19.0256500  69.9783520 117.4387640  15.9399750  78.1500480
 117.4560380  16.3908400  78.9942330 117.1903220  15.0405390  78.3633920
 112.4880770  20.4733490  69.5320090 111.9197670  20.0251740  68.9056000
 113.1969770  20.8326270  68.9985240 120.8658390  13.3531930  83.9886860
 121.1904160  12.6221590  84.5144840 120.9014900  13.0345570  83.0867850
 106.5787580  15.9665740  75.0188910 106.2934500  15.6021410  75.8567530
 106.5166440  15.2346200  74.4052050 111.5046460  20.2630690  81.2079650
 111.2003530  21.1422670  81.4330010 112.4592920  20.3230480  81.2437090
 110.0328250  24.4691680  71.8046500 109.2590510  23.9289300  71.6445220
 110.7622880  23.9498290  71.4664260 120.7916230  23.4657040  77.5972890
 121.5115350  23.9612330  77.2069000 120.5898050  22.7874930  76.9526760
 116.2526170  14.8595000  71.7402280 115.4390780  14.3608170  71.6647590
 116.0588120  15.6993250  71.3238630 116.1735030  23.5366100  83.4841890
 116.1072340  22.6161770  83.2299480 115.5440170  23.6341540  84.1986530
 118.9674560  19.2314650  70.0364440 119.8554180  19.5431880  69.8615780
 118.9379650  18.3586900  69.6445020 114.9635150  25.4038340  70.7152610
 115.3050850  26.1480570  70.2195930 114.1347860  25.7169460  71.0777440
 107.5610190  21.1033430  82.3551010 107.2025130  21.7687280  82.9424350
 107.2664750  20.2716980  82.7263630 110.7623310  21.5617670  85.2390560
 110.4623450  21.7074850  84.3418380 111.5334550  21.0022960  85.1463950
 116.1051760  26.3586670  83.2345690 116.1196300  25.4267630  83.0164600
 115.3976860  26.4446430  83.8735460 121.2388830  20.5426490  69.5044300
 121.1552550  20.9740710  68.6540740 121.9583020  21.0024840  69.9371120
 122.3162970  22.9994010  82.5814270 121.5911160  23.5922790  82.3843660
 122.8438430  22.9917550  81.7827640 113.9325840  25.4851870  73.4868530
 114.6196970  26.0321080  73.8676120 113.1458260  26.0292600  73.5218140
 113.2353050  22.4897900  73.0993890 113.6915830  23.3003150  73.3254080
 112.8841260  22.1721040  73.9312380 109.1364830  12.8335550  73.5716410
 109.0079460  12.8253450  74.5201330 108.3126850  13.1718640  73.2207420
 118.5855360  26.8031490  82.2499700 118.9211600  27.3898180  82.9277620
 117.6655700  26.6724200  82.4797490 106.1358760  14.5926670  83.0323110
 105.4217280  14.7923590  83.6375720 106.5553800  13.8166240  83.4037910
 120.2389710  24.2057150  70.4316940 119.9511410  24.6669840  71.2194820
 121.0341880  23.7454920  70.7001160 114.4143940  26.8522820  85.4187760
 114.0940810  26.1332060  85.9633450 113.7402300  27.5277890  85.4923820
 112.4558110  27.6983270  70.3620910 112.4468210  28.4312960  69.7465420
 111.5356470  27.4514850  70.4547870 108.0564750  22.9198160  71.1067670
 107.4492700  23.6597060  71.1162970 108.5314100  23.0097520  70.2805870
 117.6297540  17.0848980  80.7824560 117.9978360  16.2644190  81.1104130
 116.7695740  17.1450870  81.1980210 120.9959570  16.0405920  71.5912120
 120.3672730  16.1451590  70.8770350 120.5011490  16.2602700  72.3806000
 115.4417710  27.7611510  69.0246100 115.5429690  27.5575500  68.0948080
 114.5419450  27.5069790  69.2293880 112.9643600  18.3191870  73.0070000
 112.2559750  18.7878210  73.4483610 113.2488080  17.6613880  73.6415190
 114.5899530  19.7388570  81.0062530 115.0884780  20.2134390  81.6714380
 114.7322480  18.8152090  81.2132560 116.9959030  15.0442530  74.4465790
 116.8726810  15.0628660  73.4975300 117.9443590  15.0921470  74.5664190
 114.0835820  30.2797830  73.7193770 114.3377320  30.2419220  72.7973140
 113.1348300  30.1531160  73.7122020 111.1678620  16.6276950  70.3820710
 112.0169150  17.0647100  70.3160900 110.8009890  16.9397210  71.2092770
 121.7966390  15.9556530  81.8490920 121.2939990  16.6961930  82.1884730
 122.6123050  16.3440530  81.5327710 120.0888400  21.1989710  75.2952280
 119.1478540  21.2139940  75.4699970 120.4032470  20.4125670  75.7412580
 108.7616800  20.3134380  69.5389130 108.8420390  19.3661890  69.6506530
 109.6536550  20.6441260  69.6449790 122.0913980  28.3698560  76.9706540
 122.2161400  29.1929730  77.4430350 122.9579540  28.1589290  76.6230690
 109.5631510  30.4629770  76.6423670 110.2993990  29.9145230  76.9132240
 109.9472430  31.3285780  76.5029660 106.4476990  26.5303340  72.5165180
 105.5216770  26.7724480  72.5070590 106.9133420  27.3577600  72.3949930
 108.5689790  29.6475840  85.8309250 109.3702520  29.9687890  86.2444650
 108.0541610  29.2871420  86.5529160 117.4054420  25.7555710  85.7784660
 116.7992580  25.7787310  85.0380410 117.1008530  25.0238750  86.3151910
 118.8354790  29.4836000  84.3894070 119.7876540  29.3994020  84.3394310
 118.6883010  30.1477710  85.0627860 113.3425540  23.5420290  84.3080820
 112.5771210  24.1105290  84.2235490 113.5241500  23.2496500  83.4149050
 116.4313950  23.9183520  68.9333580 115.8824050  24.3652820  69.5776320
 117.0533210  23.4132770  69.4571250 120.4848890  25.2725620  84.8655840
 121.2258360  25.6101380  84.3623300 119.7221570  25.4417680  84.3125610
 108.3210680  20.2778890  85.6695370 108.3616020  19.9792760  86.5780600
 109.1756180  20.6786500  85.5102890 112.0989070  22.8774440  70.8298880
 112.5205490  22.7114310  71.6730270 112.2239910  22.0674670  70.3354020
 110.2616490  18.8570990  83.6369860 109.7312950  18.3661940  83.0093200
 110.9304560  19.2855190  83.1027790 114.6116710  21.9012050  68.0775980
 115.1322370  21.1861070  67.7117130 115.2585110  22.5397920  68.3776490
 119.1594550  23.3240450  83.4011050 119.5735570  23.4785530  84.2501470
 118.2245550  23.4495670  83.5636830 119.6316720  20.6636610  85.4050200
 120.2137490  19.9088930  85.3170680 119.8078490  21.1944050  84.6281680
 110.7488790  15.8233360  83.7167150 110.6545660  15.2054110  82.9918020
 110.1686180  16.5499650  83.4897060 113.5150230  14.3806600  80.7494540
 113.0667530  14.4030860  79.9040090 112.8815430  13.9825620  81.3464840
 116.2573680  21.0077110  82.7544820 116.3769890  20.4118250  83.4939660
 117.1167680  21.0446800  82.3346120 118.5961580  21.5614300  81.3307330
 118.0696800  22.0856920  80.7272470 118.9392920  22.1941690  81.9617060
 110.9947970  18.9507670  67.7757040 110.7937030  18.0875030  68.1370380
 110.8240020  18.8641030  66.8378640 111.7717200  29.5813940  82.4864710
 111.2338290  30.3060000  82.1673410 112.0251160  29.1044280  81.6962050
 113.0242450  17.5498460  84.0120640 113.6142140  17.2414310  84.6998460
 112.2062690  17.0778210  84.1680540 117.8435880  17.1664270  84.2453660
 117.1551400  16.5045810  84.1803650 118.5641900  16.7202540  84.6902120
 118.4736280  13.7615900  70.3043920 118.7538570  12.9183800  70.6603340
 117.7002010  13.9939010  70.8182670 109.7930770  16.0508290  67.7634920
 110.0956670  16.0575720  66.8554070 110.5325360  15.7006150  68.2602580
 114.6279410  30.8165150  82.7451360 114.5538110  31.7200290  83.0523730
 113.7258250  30.4977050  82.7173430 113.0115700  14.9942910  68.7491120
 112.6637700  14.3166900  68.1693570 113.2128470  14.5332420  69.5634510
 106.0306700  28.1439740  76.0484980 106.3609710  27.2760800  75.8163620
 106.4597700  28.3498260  76.8789940 110.6268620  26.4748750  73.7086950
 110.3264160  26.3513720  74.6090860 110.5206110  25.6157340  73.3002680
 106.5196910  29.0110330  78.7866610 106.0827900  29.1911130  79.6190760
 107.0874590  29.7684950  78.6448330 122.1559090  28.5127330  83.0743920
 121.5561080  28.5719890  82.3307840 122.2852990  27.5732310  83.2040770
 123.3960540  26.2545150  68.4113630 122.5653500  26.3221800  68.8820860
 123.5732370  27.1449270  68.1080490 122.8517000  22.9992630  70.9147830
 123.6135910  23.5689280  71.0207520 122.8671370  22.4319830  71.6856140
 123.8576970  23.8542730  75.7589760 124.2285800  23.0710050  75.3525730
 124.4978900  24.5431830  75.5807060 120.8410730  25.2379310  81.1720080
 120.0270570  25.6676470  81.4345870 121.2484930  25.8497720  80.5589130
 122.9036170  23.2927000  68.0720350 123.1785010  24.2005880  67.9439570
 122.7146910  23.2289530  69.0082340 119.3011780  16.3171850  69.3673980
 119.7196660  16.1302830  68.5270640 118.9947840  15.4650900  69.6776910
 122.8001510  21.2295990  73.0649780 122.4245110  20.4623920  72.6331070
 122.0704630  21.6118690  73.5524710 122.1901130  20.3767510  82.6989300
 121.9587220  20.1480260  81.7987250 122.4505680  21.2967060  82.6534190
 106.9413270  18.8192220  83.5917250 106.0469320  18.7858980  83.9310960
 107.4810820  19.0179010  84.3568500 120.6289200  15.6023940  85.4769000
 121.5059380  15.6107340  85.8603000 120.6410040  14.8654780  84.8661350
 105.5659420  18.7329490  71.0880820 104.6623500  18.9959690  70.9132480
 106.0500040  19.0040660  70.3080780 122.0752470  19.4553480  76.3657020
 122.5989950  18.9616130  75.7347190 122.6611890  19.5903840  77.1104590
 122.2542190  19.5393350  79.8876570 121.3044900  19.5056890  80.0021560
 122.4355200  20.4493460  79.6526340 108.1086630  17.7895030  68.9975200
 108.8178330  17.3678250  68.5122480 107.3926570  17.8570260  68.3658550
 107.7560790  13.8434360  68.0377850 108.4788920  14.3843300  68.3559070
 108.0285310  13.5697780  67.1619390 121.5652440  18.7126830  72.3049430
 122.0611560  18.4797700  73.0898310 121.3668510  17.8738670  71.8887070
 107.4452980  13.0940550  77.9400470 108.0929170  12.5437930  77.4995630
 107.8654820  13.3483700  78.7616280 122.9939600  17.3487780  74.8387110
 122.8838880  17.1943820  75.7769380 123.7547190  16.8208720  74.5962520
 121.3405320  13.2881910  81.2970110 121.9777540  13.9016050  81.6629300
 121.4880210  13.3242570  80.3519340 123.8829870  15.1795700  68.0793250
 124.8079180  15.0476880  67.8711540 123.8605660  15.2588520  69.0329700
 123.9568360  15.9506360  70.7049960 123.1619860  15.8851480  71.2342870
 124.1611640  16.8857000  70.6935310 107.1984980  13.2496220  80.6825790
 106.8499800  13.7060040  81.4483970 106.8672680  12.3553350  80.7648220
 114.7109800  14.4408100  84.2045210 114.6498690  15.0329930  84.9540620
 115.6510180  14.3334060  84.0595470 117.3484360  14.0978160  83.8437500
 117.9624770  14.4157450  83.1818580 117.8933920  13.6126750  84.4633360
 123.7659540  29.9969790  81.2499340 123.2717820  30.3938660  80.5326470
 123.1572830  29.3719000  81.6436620 107.8705620  12.7772420  83.9576560
 108.4188610  12.5960470  83.1942670 107.9360930  11.9866530  84.4932870
 108.6437380  29.3678070  81.9676760 108.0497700  29.2362770  82.7066800
 108.6361220  28.5316210  81.5018860 118.0892400  12.6610300  80.1706790
 117.2152240  12.9945410  79.9679720 117.9803150  12.1883480  80.9958660
 118.9964380  14.8681170  81.5548510 118.6677740  14.0532930  81.1750240
 119.9446680  14.8250980  81.4314200 121.4498990  30.6393210  78.5286080
 120.9901960  31.3909020  78.1544100 120.8211450  29.9199680  78.4700880
 115.8367220  13.5780140  79.1099700 115.0539010  14.0525640  79.3896460
 115.5430150  12.6734970  79.0012880 120.3888290  14.2803240  77.1548790
 120.8296380  14.2248340  76.3070390 120.1195880  15.1961250  77.2258970
 122.2526860  13.9118480  75.1657610 122.1915260  12.9679700  75.0188630
 123.0318890  14.0198570  75.7111070 106.5579610  30.0510840  74.1281560
 106.3901650  29.4181520  74.8263450 105.6914120  30.2570240  73.7775750
 107.1807630  13.8827620  71.6313420 107.9386990  13.9956500  71.0577450
 106.7184800  14.7196820  71.5856850 113.7221440  15.9966890  74.6215730
 112.9095950  15.6223780  74.2811610 114.2263080  15.2411970  74.9236920
 118.2246420  12.6609340  75.8598800 118.8275790  13.2329550  76.3347320
 117.4839410  13.2248780  75.6372700 121.3681020  13.0630900  71.1339080
 121.5631650  13.9614350  71.4006510 120.5810890  12.8317980  71.6272030
 108.1642310  28.7444070  71.5731700 107.6389930  29.1252100  70.8693660
 108.0886890  29.3694840  72.2941410 109.5532780  14.4091670  70.1715390
 110.0825540  13.6221470  70.0423340 110.1861100  15.0882860  70.4050920
 111.7470620  14.1466810  73.2260780 111.1173360  13.4454120  73.3930910
 111.2075760  14.9070940  73.0093940 111.8726180  13.4250790  85.6613270
 111.5910450  13.9284390  84.8974090 112.2545880  12.6272540  85.2955400
 118.4741640  12.8404370  86.2393740 118.3607090  13.1598980  87.1345260
 119.2911380  13.2416880  85.9431020 121.2540130  29.9875900  85.7212430
 122.0465450  29.4925130  85.5138390 121.5473280  30.6666040  86.3288040
 117.3799790  20.8596840  56.6028480 117.2993840  19.9451450  56.3320190
 116.9664210  21.3563910  55.8968190 115.5117830  22.6375860  58.4837750
 114.7359930  22.1576300  58.7736320 116.1630760  21.9581510  58.3093910
 109.5283660  22.9495670  59.3613510 108.6968540  22.6944380  59.7610020
 110.1364640  23.0206440  60.0971430 119.5325260  27.0436050  57.2636880
 119.0706790  26.2723290  57.5924050 120.3450810  27.0702120  57.7689330
 107.9375610  17.9097560  53.1455900 107.0492310  18.2513530  53.0435780
 108.2216800  17.7097880  52.2536730 105.9008620  20.5103210  59.0295600
 106.4724730  19.7425410  59.0299240 105.9010160  20.8091970  58.1202210
 115.7588570  29.3294060  56.8840870 115.1400010  29.7851560  56.3135310
 116.6140350  29.4845520  56.4830570 114.9526820  25.3133050  58.4907910
 114.8835100  24.3722990  58.3297040 115.7146680  25.4034460  59.0630480
 107.1433490  15.9187570  60.8164530 106.9636330  15.0213320  61.0967290
 106.7413570  16.4659440  61.4911480 115.9831990  18.1203430  58.7176840
 116.3596810  17.2475310  58.6050510 115.8851500  18.4562130  57.8267280
 110.1137000  16.4929060  54.1794280 110.2203750  17.3932790  54.4863040
 109.2029360  16.4447030  53.8888930 119.7656110  15.6153870  55.6505180
 120.5865730  15.1250440  55.6930660 119.7990190  16.2051530  56.4037020
 107.7620160  18.4148070  59.4246870 108.4430270  18.6786440  60.0434270
 107.4468210  17.5748940  59.7584880 111.9544730  19.4615430  58.5119460
 112.4622950  19.9596400  59.1524480 112.4857970  18.6850630  58.3358820
 124.0555660  17.6320620  62.2148810 123.3507830  18.0202330  61.6963920
 124.3213580  18.3270910  62.8169740 110.2380830  14.1013990  62.7782880
 110.2399270  14.6186380  61.9728780 109.4085140  13.6244170  62.7552810
 116.6251920  24.2133300  54.2772780 116.0069190  24.6782750  53.7135500
 117.1375170  24.9060780  54.6942290 120.0017590  17.5554250  58.4232720
 119.2973160  17.8439140  59.0035830 120.3629750  18.3654360  58.0632280
 109.9196160  15.8123950  60.7853330 110.2612970  16.6566000  60.4907200
 108.9811970  15.9607690  60.9018670 121.6180370  27.1729380  60.6860200
 120.9343890  27.8428490  60.6776870 122.1574660  27.3710030  59.9205060
 123.0704510  17.0009040  58.8141930 122.1229420  17.0348020  58.9457360
 123.3954500  17.8147990  59.1991290 113.6024050  13.3006220  57.1097920
 113.9099030  12.7453110  56.3933420 112.6724750  13.4350680  56.9270910
 119.1539110  29.0173510  59.4005380 119.1666270  28.6135800  58.5327640
 118.6014330  29.7920800  59.2966810 120.4484530  25.7389730  54.4895550
 120.3380860  24.7964060  54.6144970 120.4452780  26.1005370  55.3758310
 118.5524550  23.9203350  60.7287990 118.9693340  23.7063460  59.8941450
 119.2764370  24.1776140  61.2996610 115.9904810  21.3655050  53.8458040
 115.0634090  21.2992430  54.0746510 116.1429630  22.3035180  53.7313280
 115.9773890  17.6372050  50.8425200 115.0377560  17.7986010  50.9277660
 116.2957150  18.3557730  50.2961190 122.4986650  22.3190570  60.8204230
 121.6705280  22.3883660  60.3454360 123.0937130  22.9044880  60.3520060
 120.0202100  22.9275350  54.3493290 119.4014520  22.5894900  53.7019590
 120.0026550  22.2835110  55.0572480 119.4628660  19.1059890  61.7659100
 119.0499840  19.9313600  62.0199090 118.7304610  18.5204930  61.5735460
 111.5961450  21.8919790  56.6277770 111.1918450  21.1797040  56.1323670
 111.6824570  21.5473030  57.5165810 112.0643150  25.5787350  58.7916980
 111.7671440  24.9732820  58.1124760 113.0142970  25.6164660  58.6806340
 110.3090070  18.6663000  60.4076810 110.8604660  18.7758340  59.6330060
 110.8233580  19.0400600  61.1232040 120.1528760  29.1519220  62.4540080
 119.6759320  29.9591410  62.2612690 119.4690550  28.4997550  62.6066290
 118.1966800  22.1662160  51.3566040 118.6360080  21.3284590  51.2103860
 118.9095220  22.7991560  51.4430180 116.3062180  27.1058230  55.3247280
 116.7458090  27.8482560  54.9102670 116.2449070  27.3484800  56.2486240
 121.7783940  13.4204970  49.6707080 121.4656600  13.5131800  50.5706150
 122.5396410  13.9986000  49.6204510 108.2966080  20.7864770  54.1284420
 108.1763680  21.5126860  53.5165690 107.9866970  20.0167680  53.6512330
 123.7327970  28.9131160  67.5231470 124.2087690  29.3914050  68.2020550
 124.3535130  28.8448650  66.7976970 123.1361220  26.1044010  64.6831480
 123.2624280  25.8655890  63.7648660 123.1782600  25.2728550  65.1553560
 116.9977960  29.8072010  63.2526290 117.5122630  29.7180020  64.0548720
 116.1547040  30.1531710  63.5454200 118.6758490  27.6014910  51.2408290
 117.9823650  27.5992200  50.5810570 119.4181350  27.1774230  50.8102460
 122.9885230  18.1576470  65.6481220 122.3729500  18.6656140  65.1196680
 122.6681650  17.2574800  65.5907160 110.7629740  14.1299840  57.5108090
 110.3197890  14.9109380  57.1792610 111.3214730  14.4529730  58.2179030
 115.0499550  16.9968360  63.1143410 114.5878920  17.2051380  63.9263350
 114.6477660  16.1827710  62.8114080 120.0504060  18.2177310  64.2440070
 119.1997650  17.9183060  64.5649140 119.8905850  18.4619320  63.3323890
 117.1453770  19.7179060  66.3438860 117.4707180  18.8842810  66.0041090
 117.9334100  20.2407580  66.4917190 113.8788560  13.7510540  52.3913920
 113.2542740  13.7470410  53.1167230 113.7918680  12.8841500  51.9949890
 112.8005640  14.6747170  59.3697690 113.0977970  15.5810000  59.2889710
 113.3491200  14.1865950  58.7557260 110.5543960  19.2533410  55.2389340
 110.3284880  19.0370580  56.1435960 109.7736490  19.6861870  54.8935310
 117.7841720  19.2596780  53.8379990 117.1850610  19.9832580  53.6543610
 118.3321330  19.1973560  53.0556440 112.9943170  20.1518990  65.9049610
 112.8986770  19.2113720  65.7550010 113.8375150  20.3734060  65.5097680
 116.3906590  17.8960320  55.8683270 116.7836160  18.2132520  55.0551960
 116.7523440  17.0172200  55.9827790 108.1253710  16.5632660  64.0583390
 107.7317100  17.4107870  64.2656170 107.4372110  15.9259030  64.2492030
 114.6998760  16.6467630  67.1280130 114.0097080  16.4539830  67.7626220
 115.4431060  16.9302270  67.6604430 105.4270760  14.4861120  58.0913470
 105.1383810  15.0563980  58.8038450 106.1716520  14.0065570  58.4544700
 105.6140990  18.4281240  49.3016190 105.5315660  19.3712000  49.4431180
 105.2624050  18.2856150  48.4228540 116.9761730  20.4866070  59.9634050
 116.2442850  20.9952880  60.3124150 116.5786070  19.6696050  59.6622830
 113.4139120  17.1620270  58.3686540 113.4175180  16.7210220  57.5191080
 114.3090240  17.4837600  58.4758360 109.2641500  17.0446760  57.3280750
 108.9241550  17.5221990  58.0847800 108.5018820  16.5911880  56.9681850
 113.4759270  18.1632350  51.3593300 113.5972090  18.1218830  52.3079120
 113.0907780  19.0256500  51.2040030 117.4387640  15.9399750  59.3756990
 117.4560380  16.3908400  60.2198840 117.1903220  15.0405390  59.5890430
 112.4880770  20.4733490  50.7576600 111.9197670  20.0251740  50.1312510
 113.1969770  20.8326270  50.2241750 120.8658390  13.3531930  65.2143370
 121.1904160  12.6221590  65.7401350 120.9014900  13.0345570  64.3124360
 113.7147090  21.2222050  60.1151950 114.0817220  20.7480620  60.8613290
 113.5252150  22.0963620  60.4560290 106.5787580  15.9665740  56.2445420
 106.2934500  15.6021410  57.0824040 106.5166440  15.2346200  55.6308560
 111.5046460  20.2630690  62.4336160 111.2003530  21.1422670  62.6586520
 112.4592920  20.3230480  62.4693600 120.7916230  23.4657040  58.8229400
 121.5115350  23.9612330  58.4325510 120.5898050  22.7874930  58.1783270
 116.2526170  14.8595000  52.9658790 115.4390780  14.3608170  52.8904100
 116.0588120  15.6993250  52.5495140 116.1735030  23.5366100  64.7098400
 116.1072340  22.6161770  64.4555990 115.5440170  23.6341540  65.4243040
 118.9674560  19.2314650  51.2620950 119.8554180  19.5431880  51.0872290
 118.9379650  18.3586900  50.8701530 114.9635150  25.4038340  51.9409120
 115.3050850  26.1480570  51.4452440 114.1347860  25.7169460  52.3033950
 116.1051760  26.3586670  64.4602200 116.1196300  25.4267630  64.2421110
 115.3976860  26.4446430  65.0991970 121.2388830  20.5426490  50.7300810
 121.1552550  20.9740710  49.8797250 121.9583020  21.0024840  51.1627630
 122.3162970  22.9994010  63.8070780 121.5911160  23.5922790  63.6100170
 122.8438430  22.9917550  63.0084150 122.2676080  27.3968750  53.4582940
 121.6252240  26.7424370  53.7326660 121.8806740  27.8023840  52.6823610
 117.8462560  24.7254180  57.3054630 118.1986380  24.1282310  56.6456000
 116.9624890  24.3998410  57.4762880 106.0718240  21.1024690  50.2042120
 106.9413090  21.3849490  50.4878040 105.5808560  21.9160560  50.0890930
 113.2353050  22.4897900  54.3250400 113.6915830  23.3003150  54.5510590
 112.8841260  22.1721040  55.1568890 115.5385660  28.0004240  61.5542700
 116.1827880  28.2063620  62.2316120 115.9015100  27.2392640  61.1013550
 109.1364830  12.8335550  54.7972920 109.0079460  12.8253450  55.7457840
 108.3126850  13.1718640  54.4463930 116.8117740  26.0036590  60.2720150
 117.4539970  25.3029750  60.3852320 117.3367090  26.7835030  60.0917040
 120.6573460  26.2885210  49.9959290 120.4311040  25.5715650  50.5883930
 120.2669660  26.0397650  49.1581040 118.5855360  26.8031490  63.4756210
 118.9211600  27.3898180  64.1534130 117.6655700  26.6724200  63.7054000
 106.1358760  14.5926670  64.2579620 105.4217280  14.7923590  64.8632230
 106.5553800  13.8166240  64.6294420 120.2389710  24.2057150  51.6573450
 119.9511410  24.6669840  52.4451330 121.0341880  23.7454920  51.9257670
 117.6297540  17.0848980  62.0081070 117.9978360  16.2644190  62.3360640
 116.7695740  17.1450870  62.4236720 120.9959570  16.0405920  52.8168630
 120.3672730  16.1451590  52.1026860 120.5011490  16.2602700  53.6062510
 115.4417710  27.7611510  50.2502610 115.5429690  27.5575500  49.3204590
 114.5419450  27.5069790  50.4550390 112.9643600  18.3191870  54.2326510
 112.2559750  18.7878210  54.6740120 113.2488080  17.6613880  54.8671700
 114.5899530  19.7388570  62.2319040 115.0884780  20.2134390  62.8970890
 114.7322480  18.8152090  62.4389070 116.9959030  15.0442530  55.6722300
 116.8726810  15.0628660  54.7231810 117.9443590  15.0921470  55.7920700
 111.1678620  16.6276950  51.6077220 112.0169150  17.0647100  51.5417410
 110.8009890  16.9397210  52.4349280 121.7966390  15.9556530  63.0747430
 121.2939990  16.6961930  63.4141240 122.6123050  16.3440530  62.7584220
 120.0888400  21.1989710  56.5208790 119.1478540  21.2139940  56.6956480
 120.4032470  20.4125670  56.9669090 110.0670040  22.8809310  50.0812750
 110.8333310  22.7690670  50.6438180 110.1444730  22.1847280  49.4289520
 108.7616800  20.3134380  50.7645640 108.8420390  19.3661890  50.8763040
 109.6536550  20.6441260  50.8706300 122.0913980  28.3698560  58.1963050
 122.2161400  29.1929730  58.6686860 122.9579540  28.1589290  57.8487200
 121.7263990  28.8630210  51.1142490 121.4405500  28.4495350  50.2996670
 121.5283540  29.7917920  50.9943010 113.1911220  24.8563490  49.5548100
 113.0861860  24.2415840  50.2809480 113.0235440  24.3329380  48.7711110
 116.4313950  23.9183520  50.1590090 115.8824050  24.3652820  50.8032830
 117.0533210  23.4132770  50.6827760 120.4848890  25.2725620  66.0912350
 121.2258360  25.6101380  65.5879810 119.7221570  25.4417680  65.5382120
 112.0989070  22.8774440  52.0555390 112.5205490  22.7114310  52.8986780
 112.2239910  22.0674670  51.5610530 110.2616490  18.8570990  64.8626370
 109.7312950  18.3661940  64.2349710 110.9304560  19.2855190  64.3284300
 114.6116710  21.9012050  49.3032490 115.1322370  21.1861070  48.9373640
 115.2585110  22.5397920  49.6033000 119.1594550  23.3240450  64.6267560
 119.5735570  23.4785530  65.4757980 118.2245550  23.4495670  64.7893340
 119.6316720  20.6636610  66.6306710 120.2137490  19.9088930  66.5427190
 119.8078490  21.1944050  65.8538190 110.7488790  15.8233360  64.9423660
 110.6545660  15.2054110  64.2174530 110.1686180  16.5499650  64.7153570
 113.5150230  14.3806600  61.9751050 113.0667530  14.4030860  61.1296600
 112.8815430  13.9825620  62.5721350 113.9209780  23.2760930  62.5963490
 114.3397890  24.1193660  62.4239730 113.0018410  23.4132970  62.3670270
 116.2573680  21.0077110  63.9801330 116.3769890  20.4118250  64.7196170
 117.1167680  21.0446800  63.5602630 118.5961580  21.5614300  62.5563840
 118.0696800  22.0856920  61.9528980 118.9392920  22.1941690  63.1873570
 110.9947970  18.9507670  49.0013550 110.7937030  18.0875030  49.3626890
 110.8240020  18.8641030  48.0635150 113.0242450  17.5498460  65.2377150
 113.6142140  17.2414310  65.9254970 112.2062690  17.0778210  65.3937050
 117.8435880  17.1664270  65.4710170 117.1551400  16.5045810  65.4060160
 118.5641900  16.7202540  65.9158630 118.4736280  13.7615900  51.5300430
 118.7538570  12.9183800  51.8859850 117.7002010  13.9939010  52.0439180
 109.7930770  16.0508290  48.9891430 110.0956670  16.0575720  48.0810580
 110.5325360  15.7006150  49.4859090 114.6279410  30.8165150  63.9707870
 114.5538110  31.7200290  64.2780240 113.7258250  30.4977050  63.9429940
 113.0115700  14.9942910  49.9747630 112.6637700  14.3166900  49.3950080
 113.2128470  14.5332420  50.7891020 108.8160900  25.3550710  49.8221230
 109.2535770  25.8980380  50.4778810 109.3008630  24.5297660  49.8317570
 122.1559090  28.5127330  64.3000430 121.5561080  28.5719890  63.5564350
 122.2852990  27.5732310  64.4297280 123.3960540  26.2545150  49.6370140
 122.5653500  26.3221800  50.1077370 123.5732370  27.1449270  49.3337000
 122.8517000  22.9992630  52.1404340 123.6135910  23.5689280  52.2464030
 122.8671370  22.4319830  52.9112650 106.3521340  21.5230560  56.3712000
 105.6970180  21.2542200  55.7271700 107.1899290  21.4135040  55.9213980
 123.8576970  23.8542730  56.9846270 124.2285800  23.0710050  56.5782240
 124.4978900  24.5431830  56.8063570 120.8410730  25.2379310  62.3976590
 120.0270570  25.6676470  62.6602380 121.2484930  25.8497720  61.7845640
 122.9036170  23.2927000  49.2976860 123.1785010  24.2005880  49.1696080
 122.7146910  23.2289530  50.2338850 119.3011780  16.3171850  50.5930490
 119.7196660  16.1302830  49.7527150 118.9947840  15.4650900  50.9033420
 122.8001510  21.2295990  54.2906290 122.4245110  20.4623920  53.8587580
 122.0704630  21.6118690  54.7781220 107.3897270  21.9083130  60.9115340
 107.7570310  21.8210530  61.7911360 106.8208090  21.1449680  60.8122200
 122.1901130  20.3767510  63.9245810 121.9587220  20.1480260  63.0243760
 122.4505680  21.2967060  63.8790700 120.6289200  15.6023940  66.7025510
 121.5059380  15.6107340  67.0859510 120.6410040  14.8654780  66.0917860
 105.5659420  18.7329490  52.3137330 104.6623500  18.9959690  52.1388990
 106.0500040  19.0040660  51.5337290 122.0752470  19.4553480  57.5913530
 122.5989950  18.9616130  56.9603700 122.6611890  19.5903840  58.3361100
 122.2542190  19.5393350  61.1133080 121.3044900  19.5056890  61.2278070
 122.4355200  20.4493460  60.8782850 108.1086630  17.7895030  50.2231710
 108.8178330  17.3678250  49.7378990 107.3926570  17.8570260  49.5915060
 107.7560790  13.8434360  49.2634360 108.4788920  14.3843300  49.5815580
 108.0285310  13.5697780  48.3875900 121.5652440  18.7126830  53.5305940
 122.0611560  18.4797700  54.3154820 121.3668510  17.8738670  53.1143580
 107.4452980  13.0940550  59.1656980 108.0929170  12.5437930  58.7252140
 107.8654820  13.3483700  59.9872790 122.9939600  17.3487780  56.0643620
 122.8838880  17.1943820  57.0025890 123.7547190  16.8208720  55.8219030
 121.3405320  13.2881910  62.5226620 121.9777540  13.9016050  62.8885810
 121.4880210  13.3242570  61.5775850 123.8829870  15.1795700  49.3049760
 124.8079180  15.0476880  49.0968050 123.8605660  15.2588520  50.2586210
 123.9568360  15.9506360  51.9306470 123.1619860  15.8851480  52.4599380
 124.1611640  16.8857000  51.9191820 120.8986780  29.9897910  55.9244860
 121.4945850  29.6682480  55.2479280 121.1564930  29.5169730  56.7158130
 107.1984980  13.2496220  61.9082300 106.8499800  13.7060040  62.6740480
 106.8672680  12.3553350  61.9904730 114.7109800  14.4408100  65.4301720
 114.6498690  15.0329930  66.1797130 115.6510180  14.3334060  65.2851980
 117.3484360  14.0978160  65.0694010 117.9624770  14.4157450  64.4075090
 117.8933920  13.6126750  65.6889870 123.7659540  29.9969790  62.4755850
 123.2717820  30.3938660  61.7582980 123.1572830  29.3719000  62.8693130
 107.8705620  12.7772420  65.1833070 108.4188610  12.5960470  64.4199180
 107.9360930  11.9866530  65.7189380 118.0892400  12.6610300  61.3963300
 117.2152240  12.9945410  61.1936230 117.9803150  12.1883480  62.2215170
 118.9964380  14.8681170  62.7805020 118.6677740  14.0532930  62.4006750
 119.9446680  14.8250980  62.6570710 121.4498990  30.6393210  59.7542590
 120.9901960  31.3909020  59.3800610 120.8211450  29.9199680  59.6957390
 111.8794710  28.9481450  58.9290720 112.3959730  28.3368810  58.4038980
 112.5292090  29.4510230  59.4201730 114.6190210  29.8389940  59.7559700
 114.9068020  29.5844240  58.8792710 115.1313430  29.2867300  60.3465270
 115.8367220  13.5780140  60.3356210 115.0539010  14.0525640  60.6152970
 115.5430150  12.6734970  60.2269390 120.3888290  14.2803240  58.3805300
 120.8296380  14.2248340  57.5326900 120.1195880  15.1961250  58.4515480
 122.2526860  13.9118480  56.3914120 122.1915260  12.9679700  56.2445140
 123.0318890  14.0198570  56.9367580 107.1807630  13.8827620  52.8569930
 107.9386990  13.9956500  52.2833960 106.7184800  14.7196820  52.8113360
 113.7221440  15.9966890  55.8472240 112.9095950  15.6223780  55.5068120
 114.2263080  15.2411970  56.1493430 118.2246420  12.6609340  57.0855310
 118.8275790  13.2329550  57.5603830 117.4839410  13.2248780  56.8629210
 121.3681020  13.0630900  52.3595590 121.5631650  13.9614350  52.6263020
 120.5810890  12.8317980  52.8528540 109.5532780  14.4091670  51.3971900
 110.0825540  13.6221470  51.2679850 110.1861100  15.0882860  51.6307430
 111.7470620  14.1466810  54.4517290 111.1173360  13.4454120  54.6187420
 111.2075760  14.9070940  54.2350450 114.6862570  30.7606040  67.1227900
 115.6129880  30.5250310  67.1663860 114.6713000  31.5878040  66.6413930
 122.9207630  30.3031610  54.1202150 123.0959820  29.6169350  53.4763070
 122.2229200  30.8278660  53.7278820 111.8726180  13.4250790  66.8869780
 111.5910450  13.9284390  66.1230600 112.2545880  12.6272540  66.5211910
 118.4741640  12.8404370  67.4650250 118.3607090  13.1598980  68.3601770
 119.2911380  13.2416880  67.1687530 117.3799790  20.8596840  37.8284990
 117.2993840  19.9451450  37.5576700 116.9664210  21.3563910  37.1224700
 115.5117830  22.6375860  39.7094260 114.7359930  22.1576300  39.9992830
 116.1630760  21.9581510  39.5350420 109.5283660  22.9495670  40.5870020
 108.6968540  22.6944380  40.9866530 110.1364640  23.0206440  41.3227940
 119.5325260  27.0436050  38.4893390 119.0706790  26.2723290  38.8180560
 120.3450810  27.0702120  38.9945840 109.5084920  26.9835760  40.7828040
 109.8112960  26.0933500  40.6038260 110.2528510  27.5405980  40.5550290
 107.9375610  17.9097560  34.3712410 107.0492310  18.2513530  34.2692290
 108.2216800  17.7097880  33.4793240 105.9008620  20.5103210  40.2552110
 106.4724730  19.7425410  40.2555750 105.9010160  20.8091970  39.3458720
 115.7588570  29.3294060  38.1097380 115.1400010  29.7851560  37.5391820
 116.6140350  29.4845520  37.7087080 114.9526820  25.3133050  39.7164420
 114.8835100  24.3722990  39.5553550 115.7146680  25.4034460  40.2886990
 107.1433490  15.9187570  42.0421040 106.9636330  15.0213320  42.3223800
 106.7413570  16.4659440  42.7167990 115.9831990  18.1203430  39.9433350
 116.3596810  17.2475310  39.8307020 115.8851500  18.4562130  39.0523790
 110.1137000  16.4929060  35.4050790 110.2203750  17.3932790  35.7119550
 109.2029360  16.4447030  35.1145440 119.7656110  15.6153870  36.8761690
 120.5865730  15.1250440  36.9187170 119.7990190  16.2051530  37.6293530
 107.7620160  18.4148070  40.6503380 108.4430270  18.6786440  41.2690780
 107.4468210  17.5748940  40.9841390 111.9544730  19.4615430  39.7375970
 112.4622950  19.9596400  40.3780990 112.4857970  18.6850630  39.5615330
 124.0555660  17.6320620  43.4405320 123.3507830  18.0202330  42.9220430
 124.3213580  18.3270910  44.0426250 110.2380830  14.1013990  44.0039390
 110.2399270  14.6186380  43.1985290 109.4085140  13.6244170  43.9809320
 116.6251920  24.2133300  35.5029290 116.0069190  24.6782750  34.9392010
 117.1375170  24.9060780  35.9198800 111.4883680  23.7409170  42.1812890
 111.1553060  24.3678090  42.8233960 111.6650360  24.2671050  41.4014560
 120.0017590  17.5554250  39.6489230 119.2973160  17.8439140  40.2292340
 120.3629750  18.3654360  39.2888790 109.9196160  15.8123950  42.0109840
 110.2612970  16.6566000  41.7163710 108.9811970  15.9607690  42.1275180
 110.7002780  25.7089970  43.9962070 111.3176780  26.3841050  43.7146520
 109.8395900  26.1177950  43.9049570 105.9935120  24.8989830  32.8768920
 105.6163100  25.3876930  32.1453820 106.2508190  25.5715110  33.5075450
 121.6180370  27.1729380  41.9116710 120.9343890  27.8428490  41.9033380
 122.1574660  27.3710030  41.1461570 123.0704510  17.0009040  40.0398440
 122.1229420  17.0348020  40.1713870 123.3954500  17.8147990  40.4247800
 113.6024050  13.3006220  38.3354430 113.9099030  12.7453110  37.6189930
 112.6724750  13.4350680  38.1527420 119.1539110  29.0173510  40.6261890
 119.1666270  28.6135800  39.7584150 118.6014330  29.7920800  40.5223320
 120.4484530  25.7389730  35.7152060 120.3380860  24.7964060  35.8401480
 120.4452780  26.1005370  36.6014820 118.5524550  23.9203350  41.9544500
 118.9693340  23.7063460  41.1197960 119.2764370  24.1776140  42.5253120
 115.9904810  21.3655050  35.0714550 115.0634090  21.2992430  35.3003020
 116.1429630  22.3035180  34.9569790 115.9773890  17.6372050  32.0681710
 115.0377560  17.7986010  32.1534170 116.2957150  18.3557730  31.5217700
 122.4986650  22.3190570  42.0460740 121.6705280  22.3883660  41.5710870
 123.0937130  22.9044880  41.5776570 120.0202100  22.9275350  35.5749800
 119.4014520  22.5894900  34.9276100 120.0026550  22.2835110  36.2828990
 119.4628660  19.1059890  42.9915610 119.0499840  19.9313600  43.2455600
 118.7304610  18.5204930  42.7991970 111.5961450  21.8919790  37.8534280
 111.1918450  21.1797040  37.3580180 111.6824570  21.5473030  38.7422320
 112.0643150  25.5787350  40.0173490 111.7671440  24.9732820  39.3381270
 113.0142970  25.6164660  39.9062850 110.3090070  18.6663000  41.6333320
 110.8604660  18.7758340  40.8586570 110.8233580  19.0400600  42.3488550
 120.1528760  29.1519220  43.6796590 119.6759320  29.9591410  43.4869200
 119.4690550  28.4997550  43.8322800 111.1561580  25.3169040  46.6681290
 110.2590110  25.5409010  46.9154690 111.1814450  25.4403980  45.7192690
 118.1966800  22.1662160  32.5822550 118.6360080  21.3284590  32.4360370
 118.9095220  22.7991560  32.6686690 109.9832800  22.1882360  45.2438660
 109.8440570  23.0605160  45.6126060 109.1014160  21.8455170  45.0986600
 116.3062180  27.1058230  36.5503790 116.7458090  27.8482560  36.1359180
 116.2449070  27.3484800  37.4742750 121.7783940  13.4204970  30.8963590
 121.4656600  13.5131800  31.7962660 122.5396410  13.9986000  30.8461020
 108.2966080  20.7864770  35.3540930 108.1763680  21.5126860  34.7422200
 107.9866970  20.0167680  34.8768840 123.7327970  28.9131160  48.7487980
 124.2087690  29.3914050  49.4277060 124.3535130  28.8448650  48.0233480
 105.9351450  23.9579910  41.1609570 106.0131870  24.0928680  40.2165290
 106.5493130  23.2495800  41.3537690 107.1799080  25.6580100  37.5715750
 106.7727160  25.7994690  36.7169350 108.0712090  25.3740260  37.3686960
 123.1361220  26.1044010  45.9087990 123.2624280  25.8655890  44.9905170
 123.1782600  25.2728550  46.3810070 116.9977960  29.8072010  44.4782800
 117.5122630  29.7180020  45.2805230 116.1547040  30.1531710  44.7710710
 118.9732360  30.0927350  33.9066800 118.8133500  29.8030290  34.8048630
 118.8079070  29.3167480  33.3712030 111.4520740  29.8725880  35.6838420
 111.2763220  28.9561420  35.4706220 110.5976480  30.2313170  35.9236220
 118.6758490  27.6014910  32.4664800 117.9823650  27.5992200  31.8067080
 119.4181350  27.1774230  32.0358970 118.2408420  29.2277620  36.5413290
 118.6965370  28.4467000  36.8551910 118.5800940  29.9384440  37.0854470
 122.9885230  18.1576470  46.8737730 122.3729500  18.6656140  46.3453190
 122.6681650  17.2574800  46.8163670 105.9910970  24.9994080  43.7004030
 106.1542010  24.5299440  42.8823400 106.4563420  24.4917640  44.3652870
 110.7629740  14.1299840  38.7364600 110.3197890  14.9109380  38.4049120
 111.3214730  14.4529730  39.4435540 115.0499550  16.9968360  44.3399920
 114.5878920  17.2051380  45.1519860 114.6477660  16.1827710  44.0370590
 120.0504060  18.2177310  45.4696580 119.1997650  17.9183060  45.7905650
 119.8905850  18.4619320  44.5580400 117.1453770  19.7179060  47.5695370
 117.4707180  18.8842810  47.2297600 117.9334100  20.2407580  47.7173700
 113.8788560  13.7510540  33.6170430 113.2542740  13.7470410  34.3423740
 113.7918680  12.8841500  33.2206400 112.8005640  14.6747170  40.5954200
 113.0977970  15.5810000  40.5146220 113.3491200  14.1865950  39.9813770
 110.5543960  19.2533410  36.4645850 110.3284880  19.0370580  37.3692470
 109.7736490  19.6861870  36.1191820 117.7841720  19.2596780  35.0636500
 117.1850610  19.9832580  34.8800120 118.3321330  19.1973560  34.2812950
 112.9943170  20.1518990  47.1306120 112.8986770  19.2113720  46.9806520
 113.8375150  20.3734060  46.7354190 116.3906590  17.8960320  37.0939780
 116.7836160  18.2132520  36.2808470 116.7523440  17.0172200  37.2084300
 108.1253710  16.5632660  45.2839900 107.7317100  17.4107870  45.4912680
 107.4372110  15.9259030  45.4748540 114.6998760  16.6467630  48.3536640
 114.0097080  16.4539830  48.9882730 115.4431060  16.9302270  48.8860940
 105.4270760  14.4861120  39.3169980 105.1383810  15.0563980  40.0294960
 106.1716520  14.0065570  39.6801210 105.6140990  18.4281240  30.5272700
 105.5315660  19.3712000  30.6687690 105.2624050  18.2856150  29.6485050
 116.9761730  20.4866070  41.1890560 116.2442850  20.9952880  41.5380660
 116.5786070  19.6696050  40.8879340 113.4139120  17.1620270  39.5943050
 113.4175180  16.7210220  38.7447590 114.3090240  17.4837600  39.7014870
 109.2641500  17.0446760  38.5537260 108.9241550  17.5221990  39.3104310
 108.5018820  16.5911880  38.1938360 113.4759270  18.1632350  32.5849810
 113.5972090  18.1218830  33.5335630 113.0907780  19.0256500  32.4296540
 117.4387640  15.9399750  40.6013500 117.4560380  16.3908400  41.4455350
 117.1903220  15.0405390  40.8146940 112.4880770  20.4733490  31.9833110
 111.9197670  20.0251740  31.3569020 113.1969770  20.8326270  31.4498260
 120.8658390  13.3531930  46.4399880 121.1904160  12.6221590  46.9657860
 120.9014900  13.0345570  45.5380870 107.5649950  24.3745510  45.8599840
 107.1804740  23.7339180  46.4582800 107.8762140  25.0781630  46.4294570
 113.7147090  21.2222050  41.3408460 114.0817220  20.7480620  42.0869800
 113.5252150  22.0963620  41.6816800 106.5787580  15.9665740  37.4701930
 106.2934500  15.6021410  38.3080550 106.5166440  15.2346200  36.8565070
 111.5046460  20.2630690  43.6592670 111.2003530  21.1422670  43.8843030
 112.4592920  20.3230480  43.6950110 110.0328250  24.4691680  34.2559520
 109.2590510  23.9289300  34.0958240 110.7622880  23.9498290  33.9177280
 120.7916230  23.4657040  40.0485910 121.5115350  23.9612330  39.6582020
 120.5898050  22.7874930  39.4039780 116.2526170  14.8595000  34.1915300
 115.4390780  14.3608170  34.1160610 116.0588120  15.6993250  33.7751650
 116.1735030  23.5366100  45.9354910 116.1072340  22.6161770  45.6812500
 115.5440170  23.6341540  46.6499550 118.9674560  19.2314650  32.4877460
 119.8554180  19.5431880  32.3128800 118.9379650  18.3586900  32.0958040
 110.0765650  24.1372060  37.8938330 110.5944320  23.3340320  37.8395220
 109.6249670  24.0751200  38.7355160 114.9635150  25.4038340  33.1665630
 115.3050850  26.1480570  32.6708950 114.1347860  25.7169460  33.5290460
 107.5610190  21.1033430  44.8064030 107.2025130  21.7687280  45.3937370
 107.2664750  20.2716980  45.1776650 110.7623310  21.5617670  47.6903580
 110.4623450  21.7074850  46.7931400 111.5334550  21.0022960  47.5976970
 116.1051760  26.3586670  45.6858710 116.1196300  25.4267630  45.4677620
 115.3976860  26.4446430  46.3248480 121.2388830  20.5426490  31.9557320
 121.1552550  20.9740710  31.1053760 121.9583020  21.0024840  32.3884140
 122.3162970  22.9994010  45.0327290 121.5911160  23.5922790  44.8356680
 122.8438430  22.9917550  44.2340660 122.2676080  27.3968750  34.6839450
 121.6252240  26.7424370  34.9583170 121.8806740  27.8023840  33.9080120
 117.8462560  24.7254180  38.5311140 118.1986380  24.1282310  37.8712510
 116.9624890  24.3998410  38.7019390 113.9325840  25.4851870  35.9381550
 114.6196970  26.0321080  36.3189140 113.1458260  26.0292600  35.9731160
 106.0718240  21.1024690  31.4298630 106.9413090  21.3849490  31.7134550
 105.5808560  21.9160560  31.3147440 113.2353050  22.4897900  35.5506910
 113.6915830  23.3003150  35.7767100 112.8841260  22.1721040  36.3825400
 115.5385660  28.0004240  42.7799210 116.1827880  28.2063620  43.4572630
 115.9015100  27.2392640  42.3270060 109.1364830  12.8335550  36.0229430
 109.0079460  12.8253450  36.9714350 108.3126850  13.1718640  35.6720440
 116.8117740  26.0036590  41.4976660 117.4539970  25.3029750  41.6108830
 117.3367090  26.7835030  41.3173550 120.6573460  26.2885210  31.2215800
 120.4311040  25.5715650  31.8140440 120.2669660  26.0397650  30.3837550
 118.5855360  26.8031490  44.7012720 118.9211600  27.3898180  45.3790640
 117.6655700  26.6724200  44.9310510 106.4389490  30.3152070  31.9960260
 106.7987130  30.9141410  31.3417530 106.2981830  30.8611960  32.7695290
 106.1358760  14.5926670  45.4836130 105.4217280  14.7923590  46.0888740
 106.5553800  13.8166240  45.8550930 120.2389710  24.2057150  32.8829960
 119.9511410  24.6669840  33.6707840 121.0341880  23.7454920  33.1514180
 106.4231350  28.5806930  46.4702660 106.5322470  27.6401670  46.3298050
 105.7711910  28.8461680  45.8216390 114.4143940  26.8522820  47.8700780
 114.0940810  26.1332060  48.4146470 113.7402300  27.5277890  47.9436840
 112.4558110  27.6983270  32.8133930 112.4468210  28.4312960  32.1978440
 111.5356470  27.4514850  32.9060890 108.0564750  22.9198160  33.5580690
 107.4492700  23.6597060  33.5675990 108.5314100  23.0097520  32.7318890
 117.6297540  17.0848980  43.2337580 117.9978360  16.2644190  43.5617150
 116.7695740  17.1450870  43.6493230 120.9959570  16.0405920  34.0425140
 120.3672730  16.1451590  33.3283370 120.5011490  16.2602700  34.8319020
 115.4417710  27.7611510  31.4759120 115.5429690  27.5575500  30.5461100
 114.5419450  27.5069790  31.6806900 112.9643600  18.3191870  35.4583020
 112.2559750  18.7878210  35.8996630 113.2488080  17.6613880  36.0928210
 114.5899530  19.7388570  43.4575550 115.0884780  20.2134390  44.1227400
 114.7322480  18.8152090  43.6645580 116.9959030  15.0442530  36.8978810
 116.8726810  15.0628660  35.9488320 117.9443590  15.0921470  37.0177210
 114.0835820  30.2797830  36.1706790 114.3377320  30.2419220  35.2486160
 113.1348300  30.1531160  36.1635040 111.1678620  16.6276950  32.8333730
 112.0169150  17.0647100  32.7673920 110.8009890  16.9397210  33.6605790
 121.7966390  15.9556530  44.3003940 121.2939990  16.6961930  44.6397750
 122.6123050  16.3440530  43.9840730 120.0888400  21.1989710  37.7465300
 119.1478540  21.2139940  37.9212990 120.4032470  20.4125670  38.1925600
 110.0670040  22.8809310  31.3069260 110.8333310  22.7690670  31.8694690
 110.1444730  22.1847280  30.6546030 108.7616800  20.3134380  31.9902150
 108.8420390  19.3661890  32.1019550 109.6536550  20.6441260  32.0962810
 122.0913980  28.3698560  39.4219560 122.2161400  29.1929730  39.8943370
 122.9579540  28.1589290  39.0743710 109.5631510  30.4629770  39.0936690
 110.2993990  29.9145230  39.3645260 109.9472430  31.3285780  38.9542680
 106.4476990  26.5303340  34.9678200 105.5216770  26.7724480  34.9583610
 106.9133420  27.3577600  34.8462950 112.6733820  29.6360080  30.9162260
 113.4662430  29.9248910  30.4644050 112.1538170  29.2052250  30.2374740
 117.4054420  25.7555710  48.2297680 116.7992580  25.7787310  47.4893430
 117.1008530  25.0238750  48.7664930 118.8354790  29.4836000  46.8407090
 119.7876540  29.3994020  46.7907330 118.6883010  30.1477710  47.5140880
 121.7263990  28.8630210  32.3399000 121.4405500  28.4495350  31.5253180
 121.5283540  29.7917920  32.2199520 106.2887600  22.1349300  47.2258320
 106.7926620  21.5556580  47.7974550 105.5495020  22.4189530  47.7634690
 113.1911220  24.8563490  30.7804610 113.0861860  24.2415840  31.5065990
 113.0235440  24.3329380  29.9967620 113.3425540  23.5420290  46.7593840
 112.5771210  24.1105290  46.6748510 113.5241500  23.2496500  45.8662070
 116.4313950  23.9183520  31.3846600 115.8824050  24.3652820  32.0289340
 117.0533210  23.4132770  31.9084270 120.4848890  25.2725620  47.3168860
 121.2258360  25.6101380  46.8136320 119.7221570  25.4417680  46.7638630
 108.3210680  20.2778890  48.1208390 108.3616020  19.9792760  49.0293620
 109.1756180  20.6786500  47.9615910 112.0989070  22.8774440  33.2811900
 112.5205490  22.7114310  34.1243290 112.2239910  22.0674670  32.7867040
 110.2616490  18.8570990  46.0882880 109.7312950  18.3661940  45.4606220
 110.9304560  19.2855190  45.5540810 114.6116710  21.9012050  30.5289000
 115.1322370  21.1861070  30.1630150 115.2585110  22.5397920  30.8289510
 119.1594550  23.3240450  45.8524070 119.5735570  23.4785530  46.7014490
 118.2245550  23.4495670  46.0149850 119.6316720  20.6636610  47.8563220
 120.2137490  19.9088930  47.7683700 119.8078490  21.1944050  47.0794700
 110.7488790  15.8233360  46.1680170 110.6545660  15.2054110  45.4431040
 110.1686180  16.5499650  45.9410080 113.5150230  14.3806600  43.2007560
 113.0667530  14.4030860  42.3553110 112.8815430  13.9825620  43.7977860
 113.9209780  23.2760930  43.8220000 114.3397890  24.1193660  43.6496240
 113.0018410  23.4132970  43.5926780 116.2573680  21.0077110  45.2057840
 116.3769890  20.4118250  45.9452680 117.1167680  21.0446800  44.7859140
 118.5961580  21.5614300  43.7820350 118.0696800  22.0856920  43.1785490
 118.9392920  22.1941690  44.4130080 110.9947970  18.9507670  30.2270060
 110.7937030  18.0875030  30.5883400 110.8240020  18.8641030  29.2891660
 113.0242450  17.5498460  46.4633660 113.6142140  17.2414310  47.1511480
 112.2062690  17.0778210  46.6193560 117.8435880  17.1664270  46.6966680
 117.1551400  16.5045810  46.6316670 118.5641900  16.7202540  47.1415140
 118.4736280  13.7615900  32.7556940 118.7538570  12.9183800  33.1116360
 117.7002010  13.9939010  33.2695690 109.7930770  16.0508290  30.2147940
 110.0956670  16.0575720  29.3067090 110.5325360  15.7006150  30.7115600
 113.0115700  14.9942910  31.2004140 112.6637700  14.3166900  30.6206590
 113.2128470  14.5332420  32.0147530 115.1764740  29.9823660  32.8190740
 116.0715530  30.3208630  32.8409500 115.2082370  29.2603070  32.1915020
 108.8160900  25.3550710  31.0477740 109.2535770  25.8980380  31.7035320
 109.3008630  24.5297660  31.0574080 106.0306700  28.1439740  38.4998000
 106.3609710  27.2760800  38.2676640 106.4597700  28.3498260  39.3302960
 110.6268620  26.4748750  36.1599970 110.3264160  26.3513720  37.0603880
 110.5206110  25.6157340  35.7515700 106.5196910  29.0110330  41.2379630
 106.0827900  29.1911130  42.0703780 107.0874590  29.7684950  41.0961350
 122.1559090  28.5127330  45.5256940 121.5561080  28.5719890  44.7820860
 122.2852990  27.5732310  45.6553790 123.3960540  26.2545150  30.8626650
 122.5653500  26.3221800  31.3333880 123.5732370  27.1449270  30.5593510
 122.8517000  22.9992630  33.3660850 123.6135910  23.5689280  33.4720540
 122.8671370  22.4319830  34.1369160 106.3521340  21.5230560  37.5968510
 105.6970180  21.2542200  36.9528210 107.1899290  21.4135040  37.1470490
 123.8576970  23.8542730  38.2102780 124.2285800  23.0710050  37.8038750
 124.4978900  24.5431830  38.0320080 120.8410730  25.2379310  43.6233100
 120.0270570  25.6676470  43.8858890 121.2484930  25.8497720  43.0102150
 122.9036170  23.2927000  30.5233370 123.1785010  24.2005880  30.3952590
 122.7146910  23.2289530  31.4595360 119.3011780  16.3171850  31.8187000
 119.7196660  16.1302830  30.9783660 118.9947840  15.4650900  32.1289930
 122.8001510  21.2295990  35.5162800 122.4245110  20.4623920  35.0844090
 122.0704630  21.6118690  36.0037730 107.3897270  21.9083130  42.1371850
 107.7570310  21.8210530  43.0167870 106.8208090  21.1449680  42.0378710
 122.1901130  20.3767510  45.1502320 121.9587220  20.1480260  44.2500270
 122.4505680  21.2967060  45.1047210 106.9413270  18.8192220  46.0430270
 106.0469320  18.7858980  46.3823980 107.4810820  19.0179010  46.8081520
 120.6289200  15.6023940  47.9282020 121.5059380  15.6107340  48.3116020
 120.6410040  14.8654780  47.3174370 105.5659420  18.7329490  33.5393840
 104.6623500  18.9959690  33.3645500 106.0500040  19.0040660  32.7593800
 122.0752470  19.4553480  38.8170040 122.5989950  18.9616130  38.1860210
 122.6611890  19.5903840  39.5617610 122.2542190  19.5393350  42.3389590
 121.3044900  19.5056890  42.4534580 122.4355200  20.4493460  42.1039360
 108.1086630  17.7895030  31.4488220 108.8178330  17.3678250  30.9635500
 107.3926570  17.8570260  30.8171570 107.7560790  13.8434360  30.4890870
 108.4788920  14.3843300  30.8072090 108.0285310  13.5697780  29.6132410
 121.5652440  18.7126830  34.7562450 122.0611560  18.4797700  35.5411330
 121.3668510  17.8738670  34.3400090 107.4452980  13.0940550  40.3913490
 108.0929170  12.5437930  39.9508650 107.8654820  13.3483700  41.2129300
 122.9939600  17.3487780  37.2900130 122.8838880  17.1943820  38.2282400
 123.7547190  16.8208720  37.0475540 121.3405320  13.2881910  43.7483130
 121.9777540  13.9016050  44.1142320 121.4880210  13.3242570  42.8032360
 123.8829870  15.1795700  30.5306270 124.8079180  15.0476880  30.3224560
 123.8605660  15.2588520  31.4842720 123.9568360  15.9506360  33.1562980
 123.1619860  15.8851480  33.6855890 124.1611640  16.8857000  33.1448330
 120.8986780  29.9897910  37.1501370 121.4945850  29.6682480  36.4735790
 121.1564930  29.5169730  37.9414640 107.1984980  13.2496220  43.1338810
 106.8499800  13.7060040  43.8996990 106.8672680  12.3553350  43.2161240
 108.8049350  26.4215820  47.2992000 108.7618980  26.0508730  48.1806460
 108.9360360  27.3593390  47.4393820 112.5055380  27.9775410  42.9001720
 112.2646740  28.2449970  42.0132240 113.4458020  28.1481140  42.9552580
 114.7109800  14.4408100  46.6558230 114.6498690  15.0329930  47.4053640
 115.6510180  14.3334060  46.5108490 117.3484360  14.0978160  46.2950520
 117.9624770  14.4157450  45.6331600 117.8933920  13.6126750  46.9146380
 123.7659540  29.9969790  43.7012360 123.2717820  30.3938660  42.9839490
 123.1572830  29.3719000  44.0949640 107.8705620  12.7772420  46.4089580
 108.4188610  12.5960470  45.6455690 107.9360930  11.9866530  46.9445890
 118.0892400  12.6610300  42.6219810 117.2152240  12.9945410  42.4192740
 117.9803150  12.1883480  43.4471680 118.9964380  14.8681170  44.0061530
 118.6677740  14.0532930  43.6263260 119.9446680  14.8250980  43.8827220
 121.4498990  30.6393210  40.9799100 120.9901960  31.3909020  40.6057120
 120.8211450  29.9199680  40.9213900 108.2749610  26.7336450  43.3697820
 107.5483670  26.1141740  43.3023770 108.3358760  27.1277060  42.4995900
 111.8794710  28.9481450  40.1547230 112.3959730  28.3368810  39.6295490
 112.5292090  29.4510230  40.6458240 114.6190210  29.8389940  40.9816210
 114.9068020  29.5844240  40.1049220 115.1313430  29.2867300  41.5721780
 115.8367220  13.5780140  41.5612720 115.0539010  14.0525640  41.8409480
 115.5430150  12.6734970  41.4525900 120.3888290  14.2803240  39.6061810
 120.8296380  14.2248340  38.7583410 120.1195880  15.1961250  39.6771990
 122.2526860  13.9118480  37.6170630 122.1915260  12.9679700  37.4701650
 123.0318890  14.0198570  38.1624090 106.5579610  30.0510840  36.5794580
 106.3901650  29.4181520  37.2776470 105.6914120  30.2570240  36.2288770
 107.1807630  13.8827620  34.0826440 107.9386990  13.9956500  33.5090470
 106.7184800  14.7196820  34.0369870 113.7221440  15.9966890  37.0728750
 112.9095950  15.6223780  36.7324630 114.2263080  15.2411970  37.3749940
 118.2246420  12.6609340  38.3111820 118.8275790  13.2329550  38.7860340
 117.4839410  13.2248780  38.0885720 121.3681020  13.0630900  33.5852100
 121.5631650  13.9614350  33.8519530 120.5810890  12.8317980  34.0785050
 108.1642310  28.7444070  34.0244720 107.6389930  29.1252100  33.3206680
 108.0886890  29.3694840  34.7454430 109.5532780  14.4091670  32.6228410
 110.0825540  13.6221470  32.4936360 110.1861100  15.0882860  32.8563940
 111.7470620  14.1466810  35.6773800 111.1173360  13.4454120  35.8443930
 111.2075760  14.9070940  35.4606960 122.9207630  30.3031610  35.3458660
 123.0959820  29.6169350  34.7019580 122.2229200  30.8278660  34.9535330
 111.8726180  13.4250790  48.1126290 111.5910450  13.9284390  47.3487110
 112.2545880  12.6272540  47.7468420 110.7635280  30.6926450  32.8993970
 111.4954100  30.4085730  32.3517860 111.0228950  30.4539730  33.7893350
 109.9250070  26.8091180  32.9040300 109.2958950  27.2776280  33.4526130
 110.0397900  25.9640400  33.3386490 118.4741640  12.8404370  48.6906760
 118.3607090  13.1598980  49.5858280 119.2911380  13.2416880  48.3944040
 121.2540130  29.9875900  48.1725450 122.0465450  29.4925130  47.9651410
 121.5473280  30.6666040  48.7801060 117.3799790  20.8596840  19.0541500
 117.2993840  19.9451450  18.7833210 116.9664210  21.3563910  18.3481210
 115.5117830  22.6375860  20.9350770 114.7359930  22.1576300  21.2249340
 116.1630760  21.9581510  20.7606930 109.5283660  22.9495670  21.8126530
 108.6968540  22.6944380  22.2123040 110.1364640  23.0206440  22.5484450
 119.5325260  27.0436050  19.7149900 119.0706790  26.2723290  20.0437070
 120.3450810  27.0702120  20.2202350 109.5084920  26.9835760  22.0084550
 109.8112960  26.0933500  21.8294770 110.2528510  27.5405980  21.7806800
 107.9375610  17.9097560  15.5968920 107.0492310  18.2513530  15.4948800
 108.2216800  17.7097880  14.7049750 105.9008620  20.5103210  21.4808620
 106.4724730  19.7425410  21.4812260 105.9010160  20.8091970  20.5715230
 115.7588570  29.3294060  19.3353890 115.1400010  29.7851560  18.7648330
 116.6140350  29.4845520  18.9343590 114.9526820  25.3133050  20.9420930
 114.8835100  24.3722990  20.7810060 115.7146680  25.4034460  21.5143500
 107.1433490  15.9187570  23.2677550 106.9636330  15.0213320  23.5480310
 106.7413570  16.4659440  23.9424500 115.9831990  18.1203430  21.1689860
 116.3596810  17.2475310  21.0563530 115.8851500  18.4562130  20.2780300
 110.1137000  16.4929060  16.6307300 110.2203750  17.3932790  16.9376060
 109.2029360  16.4447030  16.3401950 119.7656110  15.6153870  18.1018200
 120.5865730  15.1250440  18.1443680 119.7990190  16.2051530  18.8550040
 107.7620160  18.4148070  21.8759890 108.4430270  18.6786440  22.4947290
 107.4468210  17.5748940  22.2097900 111.9544730  19.4615430  20.9632480
 112.4622950  19.9596400  21.6037500 112.4857970  18.6850630  20.7871840
 124.0555660  17.6320620  24.6661830 123.3507830  18.0202330  24.1476940
 124.3213580  18.3270910  25.2682760 110.2380830  14.1013990  25.2295900
 110.2399270  14.6186380  24.4241800 109.4085140  13.6244170  25.2065830
 116.6251920  24.2133300  16.7285800 116.0069190  24.6782750  16.1648520
 117.1375170  24.9060780  17.1455310 111.4883680  23.7409170  23.4069400
 111.1553060  24.3678090  24.0490470 111.6650360  24.2671050  22.6271070
 120.0017590  17.5554250  20.8745740 119.2973160  17.8439140  21.4548850
 120.3629750  18.3654360  20.5145300 109.9196160  15.8123950  23.2366350
 110.2612970  16.6566000  22.9420220 108.9811970  15.9607690  23.3531690
 110.7002780  25.7089970  25.2218580 111.3176780  26.3841050  24.9403030
 109.8395900  26.1177950  25.1306080 105.9935120  24.8989830  14.1025430
 105.6163100  25.3876930  13.3710330 106.2508190  25.5715110  14.7331960
 121.6180370  27.1729380  23.1373220 120.9343890  27.8428490  23.1289890
 122.1574660  27.3710030  22.3718080 123.0704510  17.0009040  21.2654950
 122.1229420  17.0348020  21.3970380 123.3954500  17.8147990  21.6504310
 113.6024050  13.3006220  19.5610940 113.9099030  12.7453110  18.8446440
 112.6724750  13.4350680  19.3783930 119.1539110  29.0173510  21.8518400
 119.1666270  28.6135800  20.9840660 118.6014330  29.7920800  21.7479830
 120.4484530  25.7389730  16.9408570 120.3380860  24.7964060  17.0657990
 120.4452780  26.1005370  17.8271330 118.5524550  23.9203350  23.1801010
 118.9693340  23.7063460  22.3454470 119.2764370  24.1776140  23.7509630
 115.9904810  21.3655050  16.2971060 115.0634090  21.2992430  16.5259530
 116.1429630  22.3035180  16.1826300 115.9773890  17.6372050  13.2938220
 115.0377560  17.7986010  13.3790680 116.2957150  18.3557730  12.7474210
 122.4986650  22.3190570  23.2717250 121.6705280  22.3883660  22.7967380
 123.0937130  22.9044880  22.8033080 120.0202100  22.9275350  16.8006310
 119.4014520  22.5894900  16.1532610 120.0026550  22.2835110  17.5085500
 119.4628660  19.1059890  24.2172120 119.0499840  19.9313600  24.4712110
 118.7304610  18.5204930  24.0248480 111.5961450  21.8919790  19.0790790
 111.1918450  21.1797040  18.5836690 111.6824570  21.5473030  19.9678830
 112.0643150  25.5787350  21.2430000 111.7671440  24.9732820  20.5637780
 113.0142970  25.6164660  21.1319360 110.3090070  18.6663000  22.8589830
 110.8604660  18.7758340  22.0843080 110.8233580  19.0400600  23.5745060
 120.1528760  29.1519220  24.9053100 119.6759320  29.9591410  24.7125710
 119.4690550  28.4997550  25.0579310 111.1561580  25.3169040  27.8937800
 110.2590110  25.5409010  28.1411200 111.1814450  25.4403980  26.9449200
 118.1966800  22.1662160  13.8079060 118.6360080  21.3284590  13.6616880
 118.9095220  22.7991560  13.8943200 109.9832800  22.1882360  26.4695170
 109.8440570  23.0605160  26.8382570 109.1014160  21.8455170  26.3243110
 116.3062180  27.1058230  17.7760300 116.7458090  27.8482560  17.3615690
 116.2449070  27.3484800  18.6999260 111.7813150  28.1304060  28.6780320
 111.7528580  28.5347010  27.8108750 111.6178120  27.2014420  28.5151920
 121.7783940  13.4204970  12.1220100 121.4656600  13.5131800  13.0219170
 122.5396410  13.9986000  12.0717530 108.2966080  20.7864770  16.5797440
 108.1763680  21.5126860  15.9678710 107.9866970  20.0167680  16.1025350
 123.7327970  28.9131160  29.9744490 124.2087690  29.3914050  30.6533570
 124.3535130  28.8448650  29.2489990 105.9351450  23.9579910  22.3866080
 106.0131870  24.0928680  21.4421800 106.5493130  23.2495800  22.5794200
 107.1799080  25.6580100  18.7972260 106.7727160  25.7994690  17.9425860
 108.0712090  25.3740260  18.5943470 123.1361220  26.1044010  27.1344500
 123.2624280  25.8655890  26.2161680 123.1782600  25.2728550  27.6066580
 116.9977960  29.8072010  25.7039310 117.5122630  29.7180020  26.5061740
 116.1547040  30.1531710  25.9967220 118.9732360  30.0927350  15.1323310
 118.8133500  29.8030290  16.0305140 118.8079070  29.3167480  14.5968540
 111.4520740  29.8725880  16.9094930 111.2763220  28.9561420  16.6962730
 110.5976480  30.2313170  17.1492730 118.6758490  27.6014910  13.6921310
 117.9823650  27.5992200  13.0323590 119.4181350  27.1774230  13.2615480
 118.2408420  29.2277620  17.7669800 118.6965370  28.4467000  18.0808420
 118.5800940  29.9384440  18.3110980 122.9885230  18.1576470  28.0994240
 122.3729500  18.6656140  27.5709700 122.6681650  17.2574800  28.0420180
 105.9910970  24.9994080  24.9260540 106.1542010  24.5299440  24.1079910
 106.4563420  24.4917640  25.5909380 110.7629740  14.1299840  19.9621110
 110.3197890  14.9109380  19.6305630 111.3214730  14.4529730  20.6692050
 115.0499550  16.9968360  25.5656430 114.5878920  17.2051380  26.3776370
 114.6477660  16.1827710  25.2627100 120.0504060  18.2177310  26.6953090
 119.1997650  17.9183060  27.0162160 119.8905850  18.4619320  25.7836910
 117.1453770  19.7179060  28.7951880 117.4707180  18.8842810  28.4554110
 117.9334100  20.2407580  28.9430210 113.8788560  13.7510540  14.8426940
 113.2542740  13.7470410  15.5680250 113.7918680  12.8841500  14.4462910
 112.8005640  14.6747170  21.8210710 113.0977970  15.5810000  21.7402730
 113.3491200  14.1865950  21.2070280 110.5543960  19.2533410  17.6902360
 110.3284880  19.0370580  18.5948980 109.7736490  19.6861870  17.3448330
 117.7841720  19.2596780  16.2893010 117.1850610  19.9832580  16.1056630
 118.3321330  19.1973560  15.5069460 112.9943170  20.1518990  28.3562630
 112.8986770  19.2113720  28.2063030 113.8375150  20.3734060  27.9610700
 116.3906590  17.8960320  18.3196290 116.7836160  18.2132520  17.5064980
 116.7523440  17.0172200  18.4340810 108.1253710  16.5632660  26.5096410
 107.7317100  17.4107870  26.7169190 107.4372110  15.9259030  26.7005050
 114.6998760  16.6467630  29.5793150 114.0097080  16.4539830  30.2139240
 115.4431060  16.9302270  30.1117450 105.4270760  14.4861120  20.5426490
 105.1383810  15.0563980  21.2551470 106.1716520  14.0065570  20.9057720
 105.6140990  18.4281240  11.7529210 105.5315660  19.3712000  11.8944200
 105.2624050  18.2856150  10.8741560 116.9761730  20.4866070  22.4147070
 116.2442850  20.9952880  22.7637170 116.5786070  19.6696050  22.1135850
 113.4139120  17.1620270  20.8199560 113.4175180  16.7210220  19.9704100
 114.3090240  17.4837600  20.9271380 109.2641500  17.0446760  19.7793770
 108.9241550  17.5221990  20.5360820 108.5018820  16.5911880  19.4194870
 113.4759270  18.1632350  13.8106320 113.5972090  18.1218830  14.7592140
 113.0907780  19.0256500  13.6553050 117.4387640  15.9399750  21.8270010
 117.4560380  16.3908400  22.6711860 117.1903220  15.0405390  22.0403450
 112.4880770  20.4733490  13.2089620 111.9197670  20.0251740  12.5825530
 113.1969770  20.8326270  12.6754770 120.8658390  13.3531930  27.6656390
 121.1904160  12.6221590  28.1914370 120.9014900  13.0345570  26.7637380
 107.5649950  24.3745510  27.0856350 107.1804740  23.7339180  27.6839310
 107.8762140  25.0781630  27.6551080 113.7147090  21.2222050  22.5664970
 114.0817220  20.7480620  23.3126310 113.5252150  22.0963620  22.9073310
 106.5787580  15.9665740  18.6958440 106.2934500  15.6021410  19.5337060
 106.5166440  15.2346200  18.0821580 111.5046460  20.2630690  24.8849180
 111.2003530  21.1422670  25.1099540 112.4592920  20.3230480  24.9206620
 110.0328250  24.4691680  15.4816030 109.2590510  23.9289300  15.3214750
 110.7622880  23.9498290  15.1433790 120.7916230  23.4657040  21.2742420
 121.5115350  23.9612330  20.8838530 120.5898050  22.7874930  20.6296290
 116.2526170  14.8595000  15.4171810 115.4390780  14.3608170  15.3417120
 116.0588120  15.6993250  15.0008160 116.1735030  23.5366100  27.1611420
 116.1072340  22.6161770  26.9069010 115.5440170  23.6341540  27.8756060
 118.9674560  19.2314650  13.7133970 119.8554180  19.5431880  13.5385310
 118.9379650  18.3586900  13.3214550 110.0765650  24.1372060  19.1194840
 110.5944320  23.3340320  19.0651730 109.6249670  24.0751200  19.9611670
 114.9635150  25.4038340  14.3922140 115.3050850  26.1480570  13.8965460
 114.1347860  25.7169460  14.7546970 107.5610190  21.1033430  26.0320540
 107.2025130  21.7687280  26.6193880 107.2664750  20.2716980  26.4033160
 110.7623310  21.5617670  28.9160090 110.4623450  21.7074850  28.0187910
 111.5334550  21.0022960  28.8233480 116.1051760  26.3586670  26.9115220
 116.1196300  25.4267630  26.6934130 115.3976860  26.4446430  27.5504990
 121.2388830  20.5426490  13.1813830 121.1552550  20.9740710  12.3310270
 121.9583020  21.0024840  13.6140650 122.3162970  22.9994010  26.2583800
 121.5911160  23.5922790  26.0613190 122.8438430  22.9917550  25.4597170
 122.2676080  27.3968750  15.9095960 121.6252240  26.7424370  16.1839680
 121.8806740  27.8023840  15.1336630 117.8462560  24.7254180  19.7567650
 118.1986380  24.1282310  19.0969020 116.9624890  24.3998410  19.9275900
 113.9325840  25.4851870  17.1638060 114.6196970  26.0321080  17.5445650
 113.1458260  26.0292600  17.1987670 106.0718240  21.1024690  12.6555140
 106.9413090  21.3849490  12.9391060 105.5808560  21.9160560  12.5403950
 113.2353050  22.4897900  16.7763420 113.6915830  23.3003150  17.0023610
 112.8841260  22.1721040  17.6081910 115.5385660  28.0004240  24.0055720
 116.1827880  28.2063620  24.6829140 115.9015100  27.2392640  23.5526570
 109.1364830  12.8335550  17.2485940 109.0079460  12.8253450  18.1970860
 108.3126850  13.1718640  16.8976950 116.8117740  26.0036590  22.7233170
 117.4539970  25.3029750  22.8365340 117.3367090  26.7835030  22.5430060
 120.6573460  26.2885210  12.4472310 120.4311040  25.5715650  13.0396950
 120.2669660  26.0397650  11.6094060 118.5855360  26.8031490  25.9269230
 118.9211600  27.3898180  26.6047150 117.6655700  26.6724200  26.1567020
 106.4389490  30.3152070  13.2216770 106.7987130  30.9141410  12.5674040
 106.2981830  30.8611960  13.9951800 106.1358760  14.5926670  26.7092640
 105.4217280  14.7923590  27.3145250 106.5553800  13.8166240  27.0807440
 120.2389710  24.2057150  14.1086470 119.9511410  24.6669840  14.8964350
 121.0341880  23.7454920  14.3770690 106.4231350  28.5806930  27.6959170
 106.5322470  27.6401670  27.5554560 105.7711910  28.8461680  27.0472900
 114.4143940  26.8522820  29.0957290 114.0940810  26.1332060  29.6402980
 113.7402300  27.5277890  29.1693350 112.4558110  27.6983270  14.0390440
 112.4468210  28.4312960  13.4234950 111.5356470  27.4514850  14.1317400
 108.0564750  22.9198160  14.7837200 107.4492700  23.6597060  14.7932500
 108.5314100  23.0097520  13.9575400 117.6297540  17.0848980  24.4594090
 117.9978360  16.2644190  24.7873660 116.7695740  17.1450870  24.8749740
 120.9959570  16.0405920  15.2681650 120.3672730  16.1451590  14.5539880
 120.5011490  16.2602700  16.0575530 115.4417710  27.7611510  12.7015630
 115.5429690  27.5575500  11.7717610 114.5419450  27.5069790  12.9063410
 112.9643600  18.3191870  16.6839530 112.2559750  18.7878210  17.1253140
 113.2488080  17.6613880  17.3184720 114.5899530  19.7388570  24.6832060
 115.0884780  20.2134390  25.3483910 114.7322480  18.8152090  24.8902090
 116.9959030  15.0442530  18.1235320 116.8726810  15.0628660  17.1744830
 117.9443590  15.0921470  18.2433720 114.0835820  30.2797830  17.3963300
 114.3377320  30.2419220  16.4742670 113.1348300  30.1531160  17.3891550
 111.1678620  16.6276950  14.0590240 112.0169150  17.0647100  13.9930430
 110.8009890  16.9397210  14.8862300 121.7966390  15.9556530  25.5260450
 121.2939990  16.6961930  25.8654260 122.6123050  16.3440530  25.2097240
 120.0888400  21.1989710  18.9721810 119.1478540  21.2139940  19.1469500
 120.4032470  20.4125670  19.4182110 110.0670040  22.8809310  12.5325770
 110.8333310  22.7690670  13.0951200 110.1444730  22.1847280  11.8802540
 108.7616800  20.3134380  13.2158660 108.8420390  19.3661890  13.3276060
 109.6536550  20.6441260  13.3219320 122.0913980  28.3698560  20.6476070
 122.2161400  29.1929730  21.1199880 122.9579540  28.1589290  20.3000220
 109.5631510  30.4629770  20.3193200 110.2993990  29.9145230  20.5901770
 109.9472430  31.3285780  20.1799190 106.4476990  26.5303340  16.1934710
 105.5216770  26.7724480  16.1840120 106.9133420  27.3577600  16.0719460
 108.5689790  29.6475840  29.5078780 109.3702520  29.9687890  29.9214180
 108.0541610  29.2871420  30.2298690 112.6733820  29.6360080  12.1418770
 113.4662430  29.9248910  11.6900560 112.1538170  29.2052250  11.4631250
 117.4054420  25.7555710  29.4554190 116.7992580  25.7787310  28.7149940
 117.1008530  25.0238750  29.9921440 118.8354790  29.4836000  28.0663600
 119.7876540  29.3994020  28.0163840 118.6883010  30.1477710  28.7397390
 121.7263990  28.8630210  13.5655510 121.4405500  28.4495350  12.7509690
 121.5283540  29.7917920  13.4456030 106.2887600  22.1349300  28.4514830
 106.7926620  21.5556580  29.0231060 105.5495020  22.4189530  28.9891200
 113.1911220  24.8563490  12.0061120 113.0861860  24.2415840  12.7322500
 113.0235440  24.3329380  11.2224130 113.3425540  23.5420290  27.9850350
 112.5771210  24.1105290  27.9005020 113.5241500  23.2496500  27.0918580
 116.4313950  23.9183520  12.6103110 115.8824050  24.3652820  13.2545850
 117.0533210  23.4132770  13.1340780 120.4848890  25.2725620  28.5425370
 121.2258360  25.6101380  28.0392830 119.7221570  25.4417680  27.9895140
 108.3210680  20.2778890  29.3464900 108.3616020  19.9792760  30.2550130
 109.1756180  20.6786500  29.1872420 112.0989070  22.8774440  14.5068410
 112.5205490  22.7114310  15.3499800 112.2239910  22.0674670  14.0123550
 110.2616490  18.8570990  27.3139390 109.7312950  18.3661940  26.6862730
 110.9304560  19.2855190  26.7797320 114.6116710  21.9012050  11.7545510
 115.1322370  21.1861070  11.3886660 115.2585110  22.5397920  12.0546020
 119.1594550  23.3240450  27.0780580 119.5735570  23.4785530  27.9271000
 118.2245550  23.4495670  27.2406360 119.6316720  20.6636610  29.0819730
 120.2137490  19.9088930  28.9940210 119.8078490  21.1944050  28.3051210
 110.7488790  15.8233360  27.3936680 110.6545660  15.2054110  26.6687550
 110.1686180  16.5499650  27.1666590 113.5150230  14.3806600  24.4264070
 113.0667530  14.4030860  23.5809620 112.8815430  13.9825620  25.0234370
 113.9209780  23.2760930  25.0476510 114.3397890  24.1193660  24.8752750
 113.0018410  23.4132970  24.8183290 116.2573680  21.0077110  26.4314350
 116.3769890  20.4118250  27.1709190 117.1167680  21.0446800  26.0115650
 118.5961580  21.5614300  25.0076860 118.0696800  22.0856920  24.4042000
 118.9392920  22.1941690  25.6386590 110.9947970  18.9507670  11.4526570
 110.7937030  18.0875030  11.8139910 110.8240020  18.8641030  10.5148170
 111.7717200  29.5813940  26.1634240 111.2338290  30.3060000  25.8442940
 112.0251160  29.1044280  25.3731580 113.0242450  17.5498460  27.6890170
 113.6142140  17.2414310  28.3767990 112.2062690  17.0778210  27.8450070
 117.8435880  17.1664270  27.9223190 117.1551400  16.5045810  27.8573180
 118.5641900  16.7202540  28.3671650 118.4736280  13.7615900  13.9813450
 118.7538570  12.9183800  14.3372870 117.7002010  13.9939010  14.4952200
 109.7930770  16.0508290  11.4404450 110.0956670  16.0575720  10.5323600
 110.5325360  15.7006150  11.9372110 114.6279410  30.8165150  26.4220890
 114.5538110  31.7200290  26.7293260 113.7258250  30.4977050  26.3942960
 113.0115700  14.9942910  12.4260650 112.6637700  14.3166900  11.8463100
 113.2128470  14.5332420  13.2404040 115.1764740  29.9823660  14.0447250
 116.0715530  30.3208630  14.0666010 115.2082370  29.2603070  13.4171530
 108.8160900  25.3550710  12.2734250 109.2535770  25.8980380  12.9291830
 109.3008630  24.5297660  12.2830590 106.0306700  28.1439740  19.7254510
 106.3609710  27.2760800  19.4933150 106.4597700  28.3498260  20.5559470
 110.6268620  26.4748750  17.3856480 110.3264160  26.3513720  18.2860390
 110.5206110  25.6157340  16.9772210 106.5196910  29.0110330  22.4636140
 106.0827900  29.1911130  23.2960290 107.0874590  29.7684950  22.3217860
 122.1559090  28.5127330  26.7513450 121.5561080  28.5719890  26.0077370
 122.2852990  27.5732310  26.8810300 123.3960540  26.2545150  12.0883160
 122.5653500  26.3221800  12.5590390 123.5732370  27.1449270  11.7850020
 122.8517000  22.9992630  14.5917360 123.6135910  23.5689280  14.6977050
 122.8671370  22.4319830  15.3625670 106.3521340  21.5230560  18.8225020
 105.6970180  21.2542200  18.1784720 107.1899290  21.4135040  18.3727000
 123.8576970  23.8542730  19.4359290 124.2285800  23.0710050  19.0295260
 124.4978900  24.5431830  19.2576590 120.8410730  25.2379310  24.8489610
 120.0270570  25.6676470  25.1115400 121.2484930  25.8497720  24.2358660
 122.9036170  23.2927000  11.7489880 123.1785010  24.2005880  11.6209100
 122.7146910  23.2289530  12.6851870 119.3011780  16.3171850  13.0443510
 119.7196660  16.1302830  12.2040170 118.9947840  15.4650900  13.3546440
 122.8001510  21.2295990  16.7419310 122.4245110  20.4623920  16.3100600
 122.0704630  21.6118690  17.2294240 107.3897270  21.9083130  23.3628360
 107.7570310  21.8210530  24.2424380 106.8208090  21.1449680  23.2635220
 122.1901130  20.3767510  26.3758830 121.9587220  20.1480260  25.4756780
 122.4505680  21.2967060  26.3303720 106.9413270  18.8192220  27.2686780
 106.0469320  18.7858980  27.6080490 107.4810820  19.0179010  28.0338030
 120.6289200  15.6023940  29.1538530 121.5059380  15.6107340  29.5372530
 120.6410040  14.8654780  28.5430880 105.5659420  18.7329490  14.7650350
 104.6623500  18.9959690  14.5902010 106.0500040  19.0040660  13.9850310
 122.0752470  19.4553480  20.0426550 122.5989950  18.9616130  19.4116720
 122.6611890  19.5903840  20.7874120 122.2542190  19.5393350  23.5646100
 121.3044900  19.5056890  23.6791090 122.4355200  20.4493460  23.3295870
 108.1086630  17.7895030  12.6744730 108.8178330  17.3678250  12.1892010
 107.3926570  17.8570260  12.0428080 107.7560790  13.8434360  11.7147380
 108.4788920  14.3843300  12.0328600 108.0285310  13.5697780  10.8388920
 121.5652440  18.7126830  15.9818960 122.0611560  18.4797700  16.7667840
 121.3668510  17.8738670  15.5656600 107.4452980  13.0940550  21.6170000
 108.0929170  12.5437930  21.1765160 107.8654820  13.3483700  22.4385810
 122.9939600  17.3487780  18.5156640 122.8838880  17.1943820  19.4538910
 123.7547190  16.8208720  18.2732050 121.3405320  13.2881910  24.9739640
 121.9777540  13.9016050  25.3398830 121.4880210  13.3242570  24.0288870
 123.8829870  15.1795700  11.7562780 124.8079180  15.0476880  11.5481070
 123.8605660  15.2588520  12.7099230 123.9568360  15.9506360  14.3819490
 123.1619860  15.8851480  14.9112400 124.1611640  16.8857000  14.3704840
 120.8986780  29.9897910  18.3757880 121.4945850  29.6682480  17.6992300
 121.1564930  29.5169730  19.1671150 107.1984980  13.2496220  24.3595320
 106.8499800  13.7060040  25.1253500 106.8672680  12.3553350  24.4417750
 108.8049350  26.4215820  28.5248510 108.7618980  26.0508730  29.4062970
 108.9360360  27.3593390  28.6650330 112.5055380  27.9775410  24.1258230
 112.2646740  28.2449970  23.2388750 113.4458020  28.1481140  24.1809090
 114.7109800  14.4408100  27.8814740 114.6498690  15.0329930  28.6310150
 115.6510180  14.3334060  27.7365000 117.3484360  14.0978160  27.5207030
 117.9624770  14.4157450  26.8588110 117.8933920  13.6126750  28.1402890
 123.7659540  29.9969790  24.9268870 123.2717820  30.3938660  24.2096000
 123.1572830  29.3719000  25.3206150 107.8705620  12.7772420  27.6346090
 108.4188610  12.5960470  26.8712200 107.9360930  11.9866530  28.1702400
 108.6437380  29.3678070  25.6446290 108.0497700  29.2362770  26.3836330
 108.6361220  28.5316210  25.1788390 118.0892400  12.6610300  23.8476320
 117.2152240  12.9945410  23.6449250 117.9803150  12.1883480  24.6728190
 118.9964380  14.8681170  25.2318040 118.6677740  14.0532930  24.8519770
 119.9446680  14.8250980  25.1083730 121.4498990  30.6393210  22.2055610
 120.9901960  31.3909020  21.8313630 120.8211450  29.9199680  22.1470410
 108.2749610  26.7336450  24.5954330 107.5483670  26.1141740  24.5280280
 108.3358760  27.1277060  23.7252410 111.8794710  28.9481450  21.3803740
 112.3959730  28.3368810  20.8552000 112.5292090  29.4510230  21.8714750
 114.6190210  29.8389940  22.2072720 114.9068020  29.5844240  21.3305730
 115.1313430  29.2867300  22.7978290 115.8367220  13.5780140  22.7869230
 115.0539010  14.0525640  23.0665990 115.5430150  12.6734970  22.6782410
 120.3888290  14.2803240  20.8318320 120.8296380  14.2248340  19.9839920
 120.1195880  15.1961250  20.9028500 122.2526860  13.9118480  18.8427140
 122.1915260  12.9679700  18.6958160 123.0318890  14.0198570  19.3880600
 106.5579610  30.0510840  17.8051090 106.3901650  29.4181520  18.5032980
 105.6914120  30.2570240  17.4545280 107.1807630  13.8827620  15.3082950
 107.9386990  13.9956500  14.7346980 106.7184800  14.7196820  15.2626380
 113.7221440  15.9966890  18.2985260 112.9095950  15.6223780  17.9581140
 114.2263080  15.2411970  18.6006450 118.2246420  12.6609340  19.5368330
 118.8275790  13.2329550  20.0116850 117.4839410  13.2248780  19.3142230
 121.3681020  13.0630900  14.8108610 121.5631650  13.9614350  15.0776040
 120.5810890  12.8317980  15.3041560 108.1642310  28.7444070  15.2501230
 107.6389930  29.1252100  14.5463190 108.0886890  29.3694840  15.9710940
 109.5532780  14.4091670  13.8484920 110.0825540  13.6221470  13.7192870
 110.1861100  15.0882860  14.0820450 111.7470620  14.1466810  16.9030310
 111.1173360  13.4454120  17.0700440 111.2075760  14.9070940  16.6863470
 114.6862570  30.7606040  29.5740920 115.6129880  30.5250310  29.6176880
 114.6713000  31.5878040  29.0926950 122.9207630  30.3031610  16.5715170
 123.0959820  29.6169350  15.9276090 122.2229200  30.8278660  16.1791840
 111.8726180  13.4250790  29.3382800 111.5910450  13.9284390  28.5743620
 112.2545880  12.6272540  28.9724930 110.7635280  30.6926450  14.1250480
 111.4954100  30.4085730  13.5774370 111.0228950  30.4539730  15.0149860
 109.9250070  26.8091180  14.1296810 109.2958950  27.2776280  14.6782640
 110.0397900  25.9640400  14.5643000 118.4741640  12.8404370  29.9163270
 118.3607090  13.1598980  30.8114790 119.2911380  13.2416880  29.6200550
 121.2540130  29.9875900  29.3981960 122.0465450  29.4925130  29.1907920
 121.5473280  30.6666040  30.0057570 115.5117830  22.6375860   2.1607280
 114.7359930  22.1576300   2.4505850 116.1630760  21.9581510   1.9863440
 109.5283660  22.9495670   3.0383040 108.6968540  22.6944380   3.4379550
 110.1364640  23.0206440   3.7740960 109.5084920  26.9835760   3.2341060
 109.8112960  26.0933500   3.0551280 110.2528510  27.5405980   3.0063310
 105.9008620  20.5103210   2.7065130 106.4724730  19.7425410   2.7068770
 105.9010160  20.8091970   1.7971740 114.9526820  25.3133050   2.1677440
 114.8835100  24.3722990   2.0066570 115.7146680  25.4034460   2.7400010
 107.1433490  15.9187570   4.4934060 106.9636330  15.0213320   4.7736820
 106.7413570  16.4659440   5.1681010 107.7620160  18.4148070   3.1016400
 108.4430270  18.6786440   3.7203800 107.4468210  17.5748940   3.4354410
 111.9544730  19.4615430   2.1888990 112.4622950  19.9596400   2.8294010
 112.4857970  18.6850630   2.0128350 124.0555660  17.6320620   5.8918340
 123.3507830  18.0202330   5.3733450 124.3213580  18.3270910   6.4939270
 110.2380830  14.1013990   6.4552410 110.2399270  14.6186380   5.6498310
 109.4085140  13.6244170   6.4322340 111.4883680  23.7409170   4.6325910
 111.1553060  24.3678090   5.2746980 111.6650360  24.2671050   3.8527580
 120.0017590  17.5554250   2.1002250 119.2973160  17.8439140   2.6805360
 120.3629750  18.3654360   1.7401810 109.9196160  15.8123950   4.4622860
 110.2612970  16.6566000   4.1676730 108.9811970  15.9607690   4.5788200
 110.7002780  25.7089970   6.4475090 111.3176780  26.3841050   6.1659540
 109.8395900  26.1177950   6.3562590 121.6180370  27.1729380   4.3629730
 120.9343890  27.8428490   4.3546400 122.1574660  27.3710030   3.5974590
 123.0704510  17.0009040   2.4911460 122.1229420  17.0348020   2.6226890
 123.3954500  17.8147990   2.8760820 119.1539110  29.0173510   3.0774910
 119.1666270  28.6135800   2.2097170 118.6014330  29.7920800   2.9736340
 118.5524550  23.9203350   4.4057520 118.9693340  23.7063460   3.5710980
 119.2764370  24.1776140   4.9766140 122.4986650  22.3190570   4.4973760
 121.6705280  22.3883660   4.0223890 123.0937130  22.9044880   4.0289590
 119.4628660  19.1059890   5.4428630 119.0499840  19.9313600   5.6968620
 118.7304610  18.5204930   5.2504990 112.0643150  25.5787350   2.4686510
 111.7671440  24.9732820   1.7894290 113.0142970  25.6164660   2.3575870
 110.3090070  18.6663000   4.0846340 110.8604660  18.7758340   3.3099590
 110.8233580  19.0400600   4.8001570 120.1528760  29.1519220   6.1309610
 119.6759320  29.9591410   5.9382220 119.4690550  28.4997550   6.2835820
 111.1561580  25.3169040   9.1194310 110.2590110  25.5409010   9.3667710
 111.1814450  25.4403980   8.1705710 109.9832800  22.1882360   7.6951680
 109.8440570  23.0605160   8.0639080 109.1014160  21.8455170   7.5499620
 111.7813150  28.1304060   9.9036830 111.7528580  28.5347010   9.0365260
 111.6178120  27.2014420   9.7408430 123.7327970  28.9131160  11.2001000
 124.2087690  29.3914050  11.8790080 124.3535130  28.8448650  10.4746500
 105.9351450  23.9579910   3.6122590 106.0131870  24.0928680   2.6678310
 106.5493130  23.2495800   3.8050710 123.1361220  26.1044010   8.3601010
 123.2624280  25.8655890   7.4418190 123.1782600  25.2728550   8.8323090
 116.9977960  29.8072010   6.9295820 117.5122630  29.7180020   7.7318250
 116.1547040  30.1531710   7.2223730 122.9885230  18.1576470   9.3250750
 122.3729500  18.6656140   8.7966210 122.6681650  17.2574800   9.2676690
 105.9910970  24.9994080   6.1517050 106.1542010  24.5299440   5.3336420
 106.4563420  24.4917640   6.8165890 115.0499550  16.9968360   6.7912940
 114.5878920  17.2051380   7.6032880 114.6477660  16.1827710   6.4883610
 120.0504060  18.2177310   7.9209600 119.1997650  17.9183060   8.2418670
 119.8905850  18.4619320   7.0093420 117.1453770  19.7179060  10.0208390
 117.4707180  18.8842810   9.6810620 117.9334100  20.2407580  10.1686720
 112.8005640  14.6747170   3.0467220 113.0977970  15.5810000   2.9659240
 113.3491200  14.1865950   2.4326790 112.9943170  20.1518990   9.5819140
 112.8986770  19.2113720   9.4319540 113.8375150  20.3734060   9.1867210
 108.1253710  16.5632660   7.7352920 107.7317100  17.4107870   7.9425700
 107.4372110  15.9259030   7.9261560 114.6998760  16.6467630  10.8049660
 114.0097080  16.4539830  11.4395750 115.4431060  16.9302270  11.3373960
 105.4270760  14.4861120   1.7683000 105.1383810  15.0563980   2.4807980
 106.1716520  14.0065570   2.1314230 116.9761730  20.4866070   3.6403580
 116.2442850  20.9952880   3.9893680 116.5786070  19.6696050   3.3392360
 117.4387640  15.9399750   3.0526520 117.4560380  16.3908400   3.8968370
 117.1903220  15.0405390   3.2659960 120.8658390  13.3531930   8.8912900
 121.1904160  12.6221590   9.4170880 120.9014900  13.0345570   7.9893890
 107.5649950  24.3745510   8.3112860 107.1804740  23.7339180   8.9095820
 107.8762140  25.0781630   8.8807590 113.7147090  21.2222050   3.7921480
 114.0817220  20.7480620   4.5382820 113.5252150  22.0963620   4.1329820
 111.5046460  20.2630690   6.1105690 111.2003530  21.1422670   6.3356050
 112.4592920  20.3230480   6.1463130 120.7916230  23.4657040   2.4998930
 121.5115350  23.9612330   2.1095040 120.5898050  22.7874930   1.8552800
 116.1735030  23.5366100   8.3867930 116.1072340  22.6161770   8.1325520
 115.5440170  23.6341540   9.1012570 107.5610190  21.1033430   7.2577050
 107.2025130  21.7687280   7.8450390 107.2664750  20.2716980   7.6289670
 110.7623310  21.5617670  10.1416600 110.4623450  21.7074850   9.2444420
 111.5334550  21.0022960  10.0489990 116.1051760  26.3586670   8.1371730
 116.1196300  25.4267630   7.9190640 115.3976860  26.4446430   8.7761500
 122.3162970  22.9994010   7.4840310 121.5911160  23.5922790   7.2869700
 122.8438430  22.9917550   6.6853680 115.5385660  28.0004240   5.2312230
 116.1827880  28.2063620   5.9085650 115.9015100  27.2392640   4.7783080
 116.8117740  26.0036590   3.9489680 117.4539970  25.3029750   4.0621850
 117.3367090  26.7835030   3.7686570 118.5855360  26.8031490   7.1525740
 118.9211600  27.3898180   7.8303660 117.6655700  26.6724200   7.3823530
 106.1358760  14.5926670   7.9349150 105.4217280  14.7923590   8.5401760
 106.5553800  13.8166240   8.3063950 106.4231350  28.5806930   8.9215680
 106.5322470  27.6401670   8.7811070 105.7711910  28.8461680   8.2729410
 114.4143940  26.8522820  10.3213800 114.0940810  26.1332060  10.8659490
 113.7402300  27.5277890  10.3949860 117.6297540  17.0848980   5.6850600
 117.9978360  16.2644190   6.0130170 116.7695740  17.1450870   6.1006250
 114.5899530  19.7388570   5.9088570 115.0884780  20.2134390   6.5740420
 114.7322480  18.8152090   6.1158600 121.7966390  15.9556530   6.7516960
 121.2939990  16.6961930   7.0910770 122.6123050  16.3440530   6.4353750
 108.5689790  29.6475840  10.7335290 109.3702520  29.9687890  11.1470690
 108.0541610  29.2871420  11.4555200 117.4054420  25.7555710  10.6810700
 116.7992580  25.7787310   9.9406450 117.1008530  25.0238750  11.2177950
 118.8354790  29.4836000   9.2920110 119.7876540  29.3994020   9.2420350
 118.6883010  30.1477710   9.9653900 106.2887600  22.1349300   9.6771340
 106.7926620  21.5556580  10.2487570 105.5495020  22.4189530  10.2147710
 113.3425540  23.5420290   9.2106860 112.5771210  24.1105290   9.1261530
 113.5241500  23.2496500   8.3175090 120.4848890  25.2725620   9.7681880
 121.2258360  25.6101380   9.2649340 119.7221570  25.4417680   9.2151650
 108.3210680  20.2778890  10.5721410 108.3616020  19.9792760  11.4806640
 109.1756180  20.6786500  10.4128930 110.2616490  18.8570990   8.5395900
 109.7312950  18.3661940   7.9119240 110.9304560  19.2855190   8.0053830
 119.1594550  23.3240450   8.3037090 119.5735570  23.4785530   9.1527510
 118.2245550  23.4495670   8.4662870 119.6316720  20.6636610  10.3076240
 120.2137490  19.9088930  10.2196720 119.8078490  21.1944050   9.5307720
 110.7488790  15.8233360   8.6193190 110.6545660  15.2054110   7.8944060
 110.1686180  16.5499650   8.3923100 113.5150230  14.3806600   5.6520580
 113.0667530  14.4030860   4.8066130 112.8815430  13.9825620   6.2490880
 113.9209780  23.2760930   6.2733020 114.3397890  24.1193660   6.1009260
 113.0018410  23.4132970   6.0439800 116.2573680  21.0077110   7.6570860
 116.3769890  20.4118250   8.3965700 117.1167680  21.0446800   7.2372160
 118.5961580  21.5614300   6.2333370 118.0696800  22.0856920   5.6298510
 118.9392920  22.1941690   6.8643100 111.7717200  29.5813940   7.3890750
 111.2338290  30.3060000   7.0699450 112.0251160  29.1044280   6.5988090
 113.0242450  17.5498460   8.9146680 113.6142140  17.2414310   9.6024500
 112.2062690  17.0778210   9.0706580 117.8435880  17.1664270   9.1479700
 117.1551400  16.5045810   9.0829690 118.5641900  16.7202540   9.5928160
 114.6279410  30.8165150   7.6477400 114.5538110  31.7200290   7.9549770
 113.7258250  30.4977050   7.6199470 106.5196910  29.0110330   3.6892650
 106.0827900  29.1911130   4.5216800 107.0874590  29.7684950   3.5474370
 122.1559090  28.5127330   7.9769960 121.5561080  28.5719890   7.2333880
 122.2852990  27.5732310   8.1066810 120.8410730  25.2379310   6.0746120
 120.0270570  25.6676470   6.3371910 121.2484930  25.8497720   5.4615170
 107.3897270  21.9083130   4.5884870 107.7570310  21.8210530   5.4680890
 106.8208090  21.1449680   4.4891730 122.1901130  20.3767510   7.6015340
 121.9587220  20.1480260   6.7013290 122.4505680  21.2967060   7.5560230
 106.9413270  18.8192220   8.4943290 106.0469320  18.7858980   8.8337000
 107.4810820  19.0179010   9.2594540 120.6289200  15.6023940  10.3795040
 121.5059380  15.6107340  10.7629040 120.6410040  14.8654780   9.7687390
 122.2542190  19.5393350   4.7902610 121.3044900  19.5056890   4.9047600
 122.4355200  20.4493460   4.5552380 107.4452980  13.0940550   2.8426510
 108.0929170  12.5437930   2.4021670 107.8654820  13.3483700   3.6642320
 121.3405320  13.2881910   6.1996150 121.9777540  13.9016050   6.5655340
 121.4880210  13.3242570   5.2545380 107.1984980  13.2496220   5.5851830
 106.8499800  13.7060040   6.3510010 106.8672680  12.3553350   5.6674260
 108.8049350  26.4215820   9.7505020 108.7618980  26.0508730  10.6319480
 108.9360360  27.3593390   9.8906840 112.5055380  27.9775410   5.3514740
 112.2646740  28.2449970   4.4645260 113.4458020  28.1481140   5.4065600
 114.7109800  14.4408100   9.1071250 114.6498690  15.0329930   9.8566660
 115.6510180  14.3334060   8.9621510 117.3484360  14.0978160   8.7463540
 117.9624770  14.4157450   8.0844620 117.8933920  13.6126750   9.3659400
 123.7659540  29.9969790   6.1525380 123.2717820  30.3938660   5.4352510
 123.1572830  29.3719000   6.5462660 107.8705620  12.7772420   8.8602600
 108.4188610  12.5960470   8.0968710 107.9360930  11.9866530   9.3958910
 108.6437380  29.3678070   6.8702800 108.0497700  29.2362770   7.6092840
 108.6361220  28.5316210   6.4044900 118.0892400  12.6610300   5.0732830
 117.2152240  12.9945410   4.8705760 117.9803150  12.1883480   5.8984700
 118.9964380  14.8681170   6.4574550 118.6677740  14.0532930   6.0776280
 119.9446680  14.8250980   6.3340240 121.4498990  30.6393210   3.4312120
 120.9901960  31.3909020   3.0570140 120.8211450  29.9199680   3.3726920
 108.2749610  26.7336450   5.8210840 107.5483670  26.1141740   5.7536790
 108.3358760  27.1277060   4.9508920 111.8794710  28.9481450   2.6060250
 112.3959730  28.3368810   2.0808510 112.5292090  29.4510230   3.0971260
 114.6190210  29.8389940   3.4329230 114.9068020  29.5844240   2.5562240
 115.1313430  29.2867300   4.0234800 115.8367220  13.5780140   4.0125740
 115.0539010  14.0525640   4.2922500 115.5430150  12.6734970   3.9038920
 114.6862570  30.7606040  10.7997430 115.6129880  30.5250310  10.8433390
 114.6713000  31.5878040  10.3183460 111.8726180  13.4250790  10.5639310
 111.5910450  13.9284390   9.8000130 112.2545880  12.6272540  10.1981440
 118.4741640  12.8404370  11.1419780 118.3607090  13.1598980  12.0371300
 119.2911380  13.2416880  10.8457060 121.2540130  29.9875900  10.6238470
 122.0465450  29.4925130  10.4164430 121.5473280  30.6666040  11.2314080
 119.5325260   8.2692560 151.1354330 119.0706790   7.4979800 151.4641500
 120.3450810   8.2958630 151.6406780 115.7588570  10.5550570 150.7558320
 115.1400010  11.0108070 150.1852760 116.6140350  10.7102030 150.3548020
 116.6251920   5.4389810 148.1490230 116.0069190   5.9039260 147.5852950
 117.1375170   6.1317290 148.5659740 105.9935120   6.1246340 145.5229860
 105.6163100   6.6133440 144.7914760 106.2508190   6.7971620 146.1536390
 120.4484530   6.9646240 148.3613000 120.3380860   6.0220570 148.4862420
 120.4452780   7.3261880 149.2475760 115.9904810   2.5911560 147.7175490
 115.0634090   2.5248940 147.9463960 116.1429630   3.5291690 147.6030730
 120.0202100   4.1531860 148.2210740 119.4014520   3.8151410 147.5737040
 120.0026550   3.5091620 148.9289930 111.5961450   3.1176300 150.4995220
 111.1918450   2.4053550 150.0041120 111.6824570   2.7729540 151.3883260
 118.1966800   3.3918670 145.2283490 118.6360080   2.5541100 145.0821310
 118.9095220   4.0248070 145.3147630 116.3062180   8.3314740 149.1964730
 116.7458090   9.0739070 148.7820120 116.2449070   8.5741310 150.1203690
 107.1799080   6.8836610 150.2176690 106.7727160   7.0251200 149.3630290
 108.0712090   6.5996770 150.0147900 118.9732360  11.3183860 146.5527740
 118.8133500  11.0286800 147.4509570 118.8079070  10.5423990 146.0172970
 111.4520740  11.0982390 148.3299360 111.2763220  10.1817930 148.1167160
 110.5976480  11.4569680 148.5697160 118.6758490   8.8271420 145.1125740
 117.9823650   8.8248710 144.4528020 119.4181350   8.4030740 144.6819910
 118.2408420  10.4534130 149.1874230 118.6965370   9.6723510 149.5012850
 118.5800940  11.1640950 149.7315410 110.0328250   5.6948190 146.9020460
 109.2590510   5.1545810 146.7419180 110.7622880   5.1754800 146.5638220
 110.0765650   5.3628570 150.5399270 110.5944320   4.5596830 150.4856160
 109.6249670   5.3007710 151.3816100 114.9635150   6.6294850 145.8126570
 115.3050850   7.3737080 145.3169890 114.1347860   6.9425970 146.1751400
 121.2388830   1.7683000 144.6018260 121.1552550   2.1997220 143.7514700
 121.9583020   2.2281350 145.0345080 122.2676080   8.6225260 147.3300390
 121.6252240   7.9680880 147.6044110 121.8806740   9.0280350 146.5541060
 117.8462560   5.9510690 151.1772080 118.1986380   5.3538820 150.5173450
 116.9624890   5.6254920 151.3480330 113.9325840   6.7108380 148.5842490
 114.6196970   7.2577590 148.9650080 113.1458260   7.2549110 148.6192100
 106.0718240   2.3281200 144.0759570 106.9413090   2.6106000 144.3595490
 105.5808560   3.1417070 143.9608380 113.2353050   3.7154410 148.1967850
 113.6915830   4.5259660 148.4228040 112.8841260   3.3977550 149.0286340
 120.6573460   7.5141720 143.8676740 120.4311040   6.7972160 144.4601380
 120.2669660   7.2654160 143.0298490 106.4389490  11.5408580 144.6421200
 106.7987130  12.1397920 143.9878470 106.2981830  12.0868470 145.4156230
 120.2389710   5.4313660 145.5290900 119.9511410   5.8926350 146.3168780
 121.0341880   4.9711430 145.7975120 112.4558110   8.9239780 145.4594870
 112.4468210   9.6569470 144.8439380 111.5356470   8.6771360 145.5521830
 108.0564750   4.1454670 146.2041630 107.4492700   4.8853570 146.2136930
 108.5314100   4.2354030 145.3779830 115.4417710   8.9868020 144.1220060
 115.5429690   8.7832010 143.1922040 114.5419450   8.7326300 144.3267840
 114.0835820  11.5054340 148.8167730 114.3377320  11.4675730 147.8947100
 113.1348300  11.3787670 148.8095980 110.0670040   4.1065820 143.9530200
 110.8333310   3.9947180 144.5155630 110.1444730   3.4103790 143.3006970
 109.5631510  11.6886280 151.7397630 110.2993990  11.1401740 152.0106200
 109.9472430  12.5542290 151.6003620 106.4476990   7.7559850 147.6139140
 105.5216770   7.9980990 147.6044550 106.9133420   8.5834110 147.4923890
 112.6733820  10.8616590 143.5623200 113.4662430  11.1505420 143.1104990
 112.1538170  10.4308760 142.8835680 121.7263990  10.0886720 144.9859940
 121.4405500   9.6751860 144.1714120 121.5283540  11.0174430 144.8660460
 113.1911220   6.0820000 143.4265550 113.0861860   5.4672350 144.1526930
 113.0235440   5.5585890 142.6428560 116.4313950   5.1440030 144.0307540
 115.8824050   5.5909330 144.6750280 117.0533210   4.6389280 144.5545210
 112.0989070   4.1030950 145.9272840 112.5205490   3.9370820 146.7704230
 112.2239910   3.2931180 145.4327980 114.6116710   3.1268560 143.1749940
 115.1322370   2.4117580 142.8091090 115.2585110   3.7654430 143.4750450
 115.1764740  11.2080170 145.4651680 116.0715530  11.5465140 145.4870440
 115.2082370  10.4859580 144.8375960 108.8160900   6.5807220 143.6938680
 109.2535770   7.1236890 144.3496260 109.3008630   5.7554170 143.7035020
 106.0306700   9.3696250 151.1458940 106.3609710   8.5017310 150.9137580
 106.4597700   9.5754770 151.9763900 110.6268620   7.7005260 148.8060910
 110.3264160   7.5770230 149.7064820 110.5206110   6.8413850 148.3976640
 123.3960540   7.4801660 143.5087590 122.5653500   7.5478310 143.9794820
 123.5732370   8.3705780 143.2054450 122.8517000   4.2249140 146.0121790
 123.6135910   4.7945790 146.1181480 122.8671370   3.6576340 146.7830100
 106.3521340   2.7487070 150.2429450 105.6970180   2.4798710 149.5989150
 107.1899290   2.6391550 149.7931430 123.8576970   5.0799240 150.8563720
 124.2285800   4.2966560 150.4499690 124.4978900   5.7688340 150.6781020
 122.9036170   4.5183510 143.1694310 123.1785010   5.4262390 143.0413530
 122.7146910   4.4546040 144.1056300 122.8001510   2.4552500 148.1623740
 122.4245110   1.6880430 147.7305030 122.0704630   2.8375200 148.6498670
 120.8986780  11.2154420 149.7962310 121.4945850  10.8938990 149.1196730
 121.1564930  10.7426240 150.5875580 106.5579610  11.2767350 149.2255520
 106.3901650  10.6438030 149.9237410 105.6914120  11.4826750 148.8749710
 108.1642310   9.9700580 146.6705660 107.6389930  10.3508610 145.9667620
 108.0886890  10.5951350 147.3915370 122.9207630  11.5288120 147.9919600
 123.0959820  10.8425860 147.3480520 122.2229200  12.0535170 147.5996270
 110.7635280  11.9182960 145.5454910 111.4954100  11.6342240 144.9978800
 111.0228950  11.6796240 146.4354290 109.9250070   8.0347690 145.5501240
 109.2958950   8.5032790 146.0987070 110.0397900   7.1896910 145.9847430
 115.5117830   3.8632370 133.5811710 114.7359930   3.3832810 133.8710280
 116.1630760   3.1838020 133.4067870 109.5283660   4.1752180 134.4587470
 108.6968540   3.9200890 134.8583980 110.1364640   4.2462950 135.1945390
 119.5325260   8.2692560 132.3610840 119.0706790   7.4979800 132.6898010
 120.3450810   8.2958630 132.8663290 109.5084920   8.2092270 134.6545490
 109.8112960   7.3190010 134.4755710 110.2528510   8.7662490 134.4267740
 115.7588570  10.5550570 131.9814830 115.1400010  11.0108070 131.4109270
 116.6140350  10.7102030 131.5804530 114.9526820   6.5389560 133.5881870
 114.8835100   5.5979500 133.4271000 115.7146680   6.6290970 134.1604440
 116.6251920   5.4389810 129.3746740 116.0069190   5.9039260 128.8109460
 117.1375170   6.1317290 129.7916250 111.4883680   4.9665680 136.0530340
 111.1553060   5.5934600 136.6951410 111.6650360   5.4927560 135.2732010
 110.7002780   6.9346480 137.8679520 111.3176780   7.6097560 137.5863970
 109.8395900   7.3434460 137.7767020 105.9935120   6.1246340 126.7486370
 105.6163100   6.6133440 126.0171270 106.2508190   6.7971620 127.3792900
 121.6180370   8.3985890 135.7834160 120.9343890   9.0685000 135.7750830
 122.1574660   8.5966540 135.0179020 119.1539110  10.2430020 134.4979340
 119.1666270   9.8392310 133.6301600 118.6014330  11.0177310 134.3940770
 120.4484530   6.9646240 129.5869510 120.3380860   6.0220570 129.7118930
 120.4452780   7.3261880 130.4732270 118.5524550   5.1459860 135.8261950
 118.9693340   4.9319970 134.9915410 119.2764370   5.4032650 136.3970570
 115.9904810   2.5911560 128.9432000 115.0634090   2.5248940 129.1720470
 116.1429630   3.5291690 128.8287240 122.4986650   3.5447080 135.9178190
 121.6705280   3.6140170 135.4428320 123.0937130   4.1301390 135.4494020
 120.0202100   4.1531860 129.4467250 119.4014520   3.8151410 128.7993550
 120.0026550   3.5091620 130.1546440 111.5961450   3.1176300 131.7251730
 111.1918450   2.4053550 131.2297630 111.6824570   2.7729540 132.6139770
 112.0643150   6.8043860 133.8890940 111.7671440   6.1989330 133.2098720
 113.0142970   6.8421170 133.7780300 120.1528760  10.3775730 137.5514040
 119.6759320  11.1847920 137.3586650 119.4690550   9.7254060 137.7040250
 111.1561580   6.5425550 140.5398740 110.2590110   6.7665520 140.7872140
 111.1814450   6.6660490 139.5910140 118.1966800   3.3918670 126.4540000
 118.6360080   2.5541100 126.3077820 118.9095220   4.0248070 126.5404140
 109.9832800   3.4138870 139.1156110 109.8440570   4.2861670 139.4843510
 109.1014160   3.0711680 138.9704050 116.3062180   8.3314740 130.4221240
 116.7458090   9.0739070 130.0076630 116.2449070   8.5741310 131.3460200
 111.7813150   9.3560570 141.3241260 111.7528580   9.7603520 140.4569690
 111.6178120   8.4270930 141.1612860 123.7327970  10.1387670 142.6205430
 124.2087690  10.6170560 143.2994510 124.3535130  10.0705160 141.8950930
 105.9351450   5.1836420 135.0327020 106.0131870   5.3185190 134.0882740
 106.5493130   4.4752310 135.2255140 107.1799080   6.8836610 131.4433200
 106.7727160   7.0251200 130.5886800 108.0712090   6.5996770 131.2404410
 123.1361220   7.3300520 139.7805440 123.2624280   7.0912400 138.8622620
 123.1782600   6.4985060 140.2527520 116.9977960  11.0328520 138.3500250
 117.5122630  10.9436530 139.1522680 116.1547040  11.3788220 138.6428160
 118.9732360  11.3183860 127.7784250 118.8133500  11.0286800 128.6766080
 118.8079070  10.5423990 127.2429480 111.4520740  11.0982390 129.5555870
 111.2763220  10.1817930 129.3423670 110.5976480  11.4569680 129.7953670
 118.6758490   8.8271420 126.3382250 117.9823650   8.8248710 125.6784530
 119.4181350   8.4030740 125.9076420 118.2408420  10.4534130 130.4130740
 118.6965370   9.6723510 130.7269360 118.5800940  11.1640950 130.9571920
 105.9910970   6.2250590 137.5721480 106.1542010   5.7555950 136.7540850
 106.4563420   5.7174150 138.2370320 107.5649950   5.6002020 139.7317290
 107.1804740   4.9595690 140.3300250 107.8762140   6.3038140 140.3012020
 113.7147090   2.4478560 135.2125910 114.0817220   1.9737130 135.9587250
 113.5252150   3.3220130 135.5534250 110.0328250   5.6948190 128.1276970
 109.2590510   5.1545810 127.9675690 110.7622880   5.1754800 127.7894730
 120.7916230   4.6913550 133.9203360 121.5115350   5.1868840 133.5299470
 120.5898050   4.0131440 133.2757230 116.1735030   4.7622610 139.8072360
 116.1072340   3.8418280 139.5529950 115.5440170   4.8598050 140.5217000
 110.0765650   5.3628570 131.7655780 110.5944320   4.5596830 131.7112670
 109.6249670   5.3007710 132.6072610 114.9635150   6.6294850 127.0383080
 115.3050850   7.3737080 126.5426400 114.1347860   6.9425970 127.4007910
 110.7623310   2.7874180 141.5621030 110.4623450   2.9331360 140.6648850
 111.5334550   2.2279470 141.4694420 116.1051760   7.5843180 139.5576160
 116.1196300   6.6524140 139.3395070 115.3976860   7.6702940 140.1965930
 121.2388830   1.7683000 125.8274770 121.1552550   2.1997220 124.9771210
 121.9583020   2.2281350 126.2601590 122.3162970   4.2250520 138.9044740
 121.5911160   4.8179300 138.7074130 122.8438430   4.2174060 138.1058110
 122.2676080   8.6225260 128.5556900 121.6252240   7.9680880 128.8300620
 121.8806740   9.0280350 127.7797570 117.8462560   5.9510690 132.4028590
 118.1986380   5.3538820 131.7429960 116.9624890   5.6254920 132.5736840
 113.9325840   6.7108380 129.8099000 114.6196970   7.2577590 130.1906590
 113.1458260   7.2549110 129.8448610 106.0718240   2.3281200 125.3016080
 106.9413090   2.6106000 125.5852000 105.5808560   3.1417070 125.1864890
 113.2353050   3.7154410 129.4224360 113.6915830   4.5259660 129.6484550
 112.8841260   3.3977550 130.2542850 115.5385660   9.2260750 136.6516660
 116.1827880   9.4320130 137.3290080 115.9015100   8.4649150 136.1987510
 116.8117740   7.2293100 135.3694110 117.4539970   6.5286260 135.4826280
 117.3367090   8.0091540 135.1891000 120.6573460   7.5141720 125.0933250
 120.4311040   6.7972160 125.6857890 120.2669660   7.2654160 124.2555000
 118.5855360   8.0288000 138.5730170 118.9211600   8.6154690 139.2508090
 117.6655700   7.8980710 138.8027960 106.4389490  11.5408580 125.8677710
 106.7987130  12.1397920 125.2134980 106.2981830  12.0868470 126.6412740
 120.2389710   5.4313660 126.7547410 119.9511410   5.8926350 127.5425290
 121.0341880   4.9711430 127.0231630 106.4231350   9.8063440 140.3420110
 106.5322470   8.8658180 140.2015500 105.7711910  10.0718190 139.6933840
 114.4143940   8.0779330 141.7418230 114.0940810   7.3588570 142.2863920
 113.7402300   8.7534400 141.8154290 112.4558110   8.9239780 126.6851380
 112.4468210   9.6569470 126.0695890 111.5356470   8.6771360 126.7778340
 108.0564750   4.1454670 127.4298140 107.4492700   4.8853570 127.4393440
 108.5314100   4.2354030 126.6036340 115.4417710   8.9868020 125.3476570
 115.5429690   8.7832010 124.4178550 114.5419450   8.7326300 125.5524350
 114.0835820  11.5054340 130.0424240 114.3377320  11.4675730 129.1203610
 113.1348300  11.3787670 130.0352490 110.0670040   4.1065820 125.1786710
 110.8333310   3.9947180 125.7412140 110.1444730   3.4103790 124.5263480
 122.0913980   9.5955070 133.2937010 122.2161400  10.4186240 133.7660820
 122.9579540   9.3845800 132.9461160 109.5631510  11.6886280 132.9654140
 110.2993990  11.1401740 133.2362710 109.9472430  12.5542290 132.8260130
 106.4476990   7.7559850 128.8395650 105.5216770   7.9980990 128.8301060
 106.9133420   8.5834110 128.7180400 108.5689790  10.8732350 142.1539720
 109.3702520  11.1944400 142.5675120 108.0541610  10.5127930 142.8759630
 112.6733820  10.8616590 124.7879710 113.4662430  11.1505420 124.3361500
 112.1538170  10.4308760 124.1092190 117.4054420   6.9812220 142.1015130
 116.7992580   7.0043820 141.3610880 117.1008530   6.2495260 142.6382380
 118.8354790  10.7092510 140.7124540 119.7876540  10.6250530 140.6624780
 118.6883010  11.3734220 141.3858330 121.7263990  10.0886720 126.2116450
 121.4405500   9.6751860 125.3970630 121.5283540  11.0174430 126.0916970
 106.2887600   3.3605810 141.0975770 106.7926620   2.7813090 141.6692000
 105.5495020   3.6446040 141.6352140 113.1911220   6.0820000 124.6522060
 113.0861860   5.4672350 125.3783440 113.0235440   5.5585890 123.8685070
 113.3425540   4.7676800 140.6311290 112.5771210   5.3361800 140.5465960
 113.5241500   4.4753010 139.7379520 116.4313950   5.1440030 125.2564050
 115.8824050   5.5909330 125.9006790 117.0533210   4.6389280 125.7801720
 120.4848890   6.4982130 141.1886310 121.2258360   6.8357890 140.6853770
 119.7221570   6.6674190 140.6356080 112.0989070   4.1030950 127.1529350
 112.5205490   3.9370820 127.9960740 112.2239910   3.2931180 126.6584490
 114.6116710   3.1268560 124.4006450 115.1322370   2.4117580 124.0347600
 115.2585110   3.7654430 124.7006960 119.1594550   4.5496960 139.7241520
 119.5735570   4.7042040 140.5731940 118.2245550   4.6752180 139.8867300
 113.9209780   4.5017440 137.6937450 114.3397890   5.3450170 137.5213690
 113.0018410   4.6389480 137.4644230 118.5961580   2.7870810 137.6537800
 118.0696800   3.3113430 137.0502940 118.9392920   3.4198200 138.2847530
 111.7717200  10.8070450 138.8095180 111.2338290  11.5316510 138.4903880
 112.0251160  10.3300790 138.0192520 114.6279410  12.0421660 139.0681830
 114.5538110  12.9456800 139.3754200 113.7258250  11.7233560 139.0403900
 115.1764740  11.2080170 126.6908190 116.0715530  11.5465140 126.7126950
 115.2082370  10.4859580 126.0632470 108.8160900   6.5807220 124.9195190
 109.2535770   7.1236890 125.5752770 109.3008630   5.7554170 124.9291530
 106.0306700   9.3696250 132.3715450 106.3609710   8.5017310 132.1394090
 106.4597700   9.5754770 133.2020410 110.6268620   7.7005260 130.0317420
 110.3264160   7.5770230 130.9321330 110.5206110   6.8413850 129.6233150
 106.5196910  10.2366840 135.1097080 106.0827900  10.4167640 135.9421230
 107.0874590  10.9941460 134.9678800 122.1559090   9.7383840 139.3974390
 121.5561080   9.7976400 138.6538310 122.2852990   8.7988820 139.5271240
 123.3960540   7.4801660 124.7344100 122.5653500   7.5478310 125.2051330
 123.5732370   8.3705780 124.4310960 122.8517000   4.2249140 127.2378300
 123.6135910   4.7945790 127.3437990 122.8671370   3.6576340 128.0086610
 106.3521340   2.7487070 131.4685960 105.6970180   2.4798710 130.8245660
 107.1899290   2.6391550 131.0187940 123.8576970   5.0799240 132.0820230
 124.2285800   4.2966560 131.6756200 124.4978900   5.7688340 131.9037530
 120.8410730   6.4635820 137.4950550 120.0270570   6.8932980 137.7576340
 121.2484930   7.0754230 136.8819600 122.9036170   4.5183510 124.3950820
 123.1785010   5.4262390 124.2670040 122.7146910   4.4546040 125.3312810
 122.8001510   2.4552500 129.3880250 122.4245110   1.6880430 128.9561540
 122.0704630   2.8375200 129.8755180 107.3897270   3.1339640 136.0089300
 107.7570310   3.0467040 136.8885320 106.8208090   2.3706190 135.9096160
 120.8986780  11.2154420 131.0218820 121.4945850  10.8938990 130.3453240
 121.1564930  10.7426240 131.8132090 108.8049350   7.6472330 141.1709450
 108.7618980   7.2765240 142.0523910 108.9360360   8.5849900 141.3111270
 112.5055380   9.2031920 136.7719170 112.2646740   9.4706480 135.8849690
 113.4458020   9.3737650 136.8270030 123.7659540  11.2226300 137.5729810
 123.2717820  11.6195170 136.8556940 123.1572830  10.5975510 137.9667090
 108.6437380  10.5934580 138.2907230 108.0497700  10.4619280 139.0297270
 108.6361220   9.7572720 137.8249330 121.4498990  11.8649720 134.8516550
 120.9901960  12.6165530 134.4774570 120.8211450  11.1456190 134.7931350
 108.2749610   7.9592960 137.2415270 107.5483670   7.3398250 137.1741220
 108.3358760   8.3533570 136.3713350 111.8794710  10.1737960 134.0264680
 112.3959730   9.5625320 133.5012940 112.5292090  10.6766740 134.5175690
 114.6190210  11.0646450 134.8533660 114.9068020  10.8100750 133.9766670
 115.1313430  10.5123810 135.4439230 106.5579610  11.2767350 130.4512030
 106.3901650  10.6438030 131.1493920 105.6914120  11.4826750 130.1006220
 108.1642310   9.9700580 127.8962170 107.6389930  10.3508610 127.1924130
 108.0886890  10.5951350 128.6171880 114.6862570  11.9862550 142.2201860
 115.6129880  11.7506820 142.2637820 114.6713000  12.8134550 141.7387890
 122.9207630  11.5288120 129.2176110 123.0959820  10.8425860 128.5737030
 122.2229200  12.0535170 128.8252780 110.7635280  11.9182960 126.7711420
 111.4954100  11.6342240 126.2235310 111.0228950  11.6796240 127.6610800
 109.9250070   8.0347690 126.7757750 109.2958950   8.5032790 127.3243580
 110.0397900   7.1896910 127.2103940 121.2540130  11.2132410 142.0442900
 122.0465450  10.7181640 141.8368860 121.5473280  11.8922550 142.6518510
 115.5117830   3.8632370 114.8068220 114.7359930   3.3832810 115.0966790
 116.1630760   3.1838020 114.6324380 109.5283660   4.1752180 115.6843980
 108.6968540   3.9200890 116.0840490 110.1364640   4.2462950 116.4201900
 119.5325260   8.2692560 113.5867350 119.0706790   7.4979800 113.9154520
 120.3450810   8.2958630 114.0919800 109.5084920   8.2092270 115.8802000
 109.8112960   7.3190010 115.7012220 110.2528510   8.7662490 115.6524250
 115.7588570  10.5550570 113.2071340 115.1400010  11.0108070 112.6365780
 116.6140350  10.7102030 112.8061040 114.9526820   6.5389560 114.8138380
 114.8835100   5.5979500 114.6527510 115.7146680   6.6290970 115.3860950
 116.6251920   5.4389810 110.6003250 116.0069190   5.9039260 110.0365970
 117.1375170   6.1317290 111.0172760 111.4883680   4.9665680 117.2786850
 111.1553060   5.5934600 117.9207920 111.6650360   5.4927560 116.4988520
 110.7002780   6.9346480 119.0936030 111.3176780   7.6097560 118.8120480
 109.8395900   7.3434460 119.0023530 105.9935120   6.1246340 107.9742880
 105.6163100   6.6133440 107.2427780 106.2508190   6.7971620 108.6049410
 121.6180370   8.3985890 117.0090670 120.9343890   9.0685000 117.0007340
 122.1574660   8.5966540 116.2435530 119.1539110  10.2430020 115.7235850
 119.1666270   9.8392310 114.8558110 118.6014330  11.0177310 115.6197280
 120.4484530   6.9646240 110.8126020 120.3380860   6.0220570 110.9375440
 120.4452780   7.3261880 111.6988780 118.5524550   5.1459860 117.0518460
 118.9693340   4.9319970 116.2171920 119.2764370   5.4032650 117.6227080
 115.9904810   2.5911560 110.1688510 115.0634090   2.5248940 110.3976980
 116.1429630   3.5291690 110.0543750 122.4986650   3.5447080 117.1434700
 121.6705280   3.6140170 116.6684830 123.0937130   4.1301390 116.6750530
 120.0202100   4.1531860 110.6723760 119.4014520   3.8151410 110.0250060
 120.0026550   3.5091620 111.3802950 111.5961450   3.1176300 112.9508240
 111.1918450   2.4053550 112.4554140 111.6824570   2.7729540 113.8396280
 112.0643150   6.8043860 115.1147450 111.7671440   6.1989330 114.4355230
 113.0142970   6.8421170 115.0036810 120.1528760  10.3775730 118.7770550
 119.6759320  11.1847920 118.5843160 119.4690550   9.7254060 118.9296760
 111.1561580   6.5425550 121.7655250 110.2590110   6.7665520 122.0128650
 111.1814450   6.6660490 120.8166650 118.1966800   3.3918670 107.6796510
 118.6360080   2.5541100 107.5334330 118.9095220   4.0248070 107.7660650
 109.9832800   3.4138870 120.3412620 109.8440570   4.2861670 120.7100020
 109.1014160   3.0711680 120.1960560 116.3062180   8.3314740 111.6477750
 116.7458090   9.0739070 111.2333140 116.2449070   8.5741310 112.5716710
 111.7813150   9.3560570 122.5497770 111.7528580   9.7603520 121.6826200
 111.6178120   8.4270930 122.3869370 123.7327970  10.1387670 123.8461940
 124.2087690  10.6170560 124.5251020 124.3535130  10.0705160 123.1207440
 105.9351450   5.1836420 116.2583530 106.0131870   5.3185190 115.3139250
 106.5493130   4.4752310 116.4511650 107.1799080   6.8836610 112.6689710
 106.7727160   7.0251200 111.8143310 108.0712090   6.5996770 112.4660920
 123.1361220   7.3300520 121.0061950 123.2624280   7.0912400 120.0879130
 123.1782600   6.4985060 121.4784030 116.9977960  11.0328520 119.5756760
 117.5122630  10.9436530 120.3779190 116.1547040  11.3788220 119.8684670
 118.9732360  11.3183860 109.0040760 118.8133500  11.0286800 109.9022590
 118.8079070  10.5423990 108.4685990 111.4520740  11.0982390 110.7812380
 111.2763220  10.1817930 110.5680180 110.5976480  11.4569680 111.0210180
 118.6758490   8.8271420 107.5638760 117.9823650   8.8248710 106.9041040
 119.4181350   8.4030740 107.1332930 118.2408420  10.4534130 111.6387250
 118.6965370   9.6723510 111.9525870 118.5800940  11.1640950 112.1828430
 105.9910970   6.2250590 118.7977990 106.1542010   5.7555950 117.9797360
 106.4563420   5.7174150 119.4626830 107.5649950   5.6002020 120.9573800
 107.1804740   4.9595690 121.5556760 107.8762140   6.3038140 121.5268530
 113.7147090   2.4478560 116.4382420 114.0817220   1.9737130 117.1843760
 113.5252150   3.3220130 116.7790760 110.0328250   5.6948190 109.3533480
 109.2590510   5.1545810 109.1932200 110.7622880   5.1754800 109.0151240
 120.7916230   4.6913550 115.1459870 121.5115350   5.1868840 114.7555980
 120.5898050   4.0131440 114.5013740 116.1735030   4.7622610 121.0328870
 116.1072340   3.8418280 120.7786460 115.5440170   4.8598050 121.7473510
 110.0765650   5.3628570 112.9912290 110.5944320   4.5596830 112.9369180
 109.6249670   5.3007710 113.8329120 114.9635150   6.6294850 108.2639590
 115.3050850   7.3737080 107.7682910 114.1347860   6.9425970 108.6264420
 110.7623310   2.7874180 122.7877540 110.4623450   2.9331360 121.8905360
 111.5334550   2.2279470 122.6950930 116.1051760   7.5843180 120.7832670
 116.1196300   6.6524140 120.5651580 115.3976860   7.6702940 121.4222440
 121.2388830   1.7683000 107.0531280 121.1552550   2.1997220 106.2027720
 121.9583020   2.2281350 107.4858100 122.3162970   4.2250520 120.1301250
 121.5911160   4.8179300 119.9330640 122.8438430   4.2174060 119.3314620
 122.2676080   8.6225260 109.7813410 121.6252240   7.9680880 110.0557130
 121.8806740   9.0280350 109.0054080 117.8462560   5.9510690 113.6285100
 118.1986380   5.3538820 112.9686470 116.9624890   5.6254920 113.7993350
 113.9325840   6.7108380 111.0355510 114.6196970   7.2577590 111.4163100
 113.1458260   7.2549110 111.0705120 106.0718240   2.3281200 106.5272590
 106.9413090   2.6106000 106.8108510 105.5808560   3.1417070 106.4121400
 113.2353050   3.7154410 110.6480870 113.6915830   4.5259660 110.8741060
 112.8841260   3.3977550 111.4799360 115.5385660   9.2260750 117.8773170
 116.1827880   9.4320130 118.5546590 115.9015100   8.4649150 117.4244020
 116.8117740   7.2293100 116.5950620 117.4539970   6.5286260 116.7082790
 117.3367090   8.0091540 116.4147510 120.6573460   7.5141720 106.3189760
 120.4311040   6.7972160 106.9114400 120.2669660   7.2654160 105.4811510
 118.5855360   8.0288000 119.7986680 118.9211600   8.6154690 120.4764600
 117.6655700   7.8980710 120.0284470 106.4389490  11.5408580 107.0934220
 106.7987130  12.1397920 106.4391490 106.2981830  12.0868470 107.8669250
 120.2389710   5.4313660 107.9803920 119.9511410   5.8926350 108.7681800
 121.0341880   4.9711430 108.2488140 106.4231350   9.8063440 121.5676620
 106.5322470   8.8658180 121.4272010 105.7711910  10.0718190 120.9190350
 114.4143940   8.0779330 122.9674740 114.0940810   7.3588570 123.5120430
 113.7402300   8.7534400 123.0410800 112.4558110   8.9239780 107.9107890
 112.4468210   9.6569470 107.2952400 111.5356470   8.6771360 108.0034850
 108.0564750   4.1454670 108.6554650 107.4492700   4.8853570 108.6649950
 108.5314100   4.2354030 107.8292850 115.4417710   8.9868020 106.5733080
 115.5429690   8.7832010 105.6435060 114.5419450   8.7326300 106.7780860
 114.0835820  11.5054340 111.2680750 114.3377320  11.4675730 110.3460120
 113.1348300  11.3787670 111.2609000 110.0670040   4.1065820 106.4043220
 110.8333310   3.9947180 106.9668650 110.1444730   3.4103790 105.7519990
 122.0913980   9.5955070 114.5193520 122.2161400  10.4186240 114.9917330
 122.9579540   9.3845800 114.1717670 109.5631510  11.6886280 114.1910650
 110.2993990  11.1401740 114.4619220 109.9472430  12.5542290 114.0516640
 106.4476990   7.7559850 110.0652160 105.5216770   7.9980990 110.0557570
 106.9133420   8.5834110 109.9436910 108.5689790  10.8732350 123.3796230
 109.3702520  11.1944400 123.7931630 108.0541610  10.5127930 124.1016140
 112.6733820  10.8616590 106.0136220 113.4662430  11.1505420 105.5618010
 112.1538170  10.4308760 105.3348700 117.4054420   6.9812220 123.3271640
 116.7992580   7.0043820 122.5867390 117.1008530   6.2495260 123.8638890
 118.8354790  10.7092510 121.9381050 119.7876540  10.6250530 121.8881290
 118.6883010  11.3734220 122.6114840 121.7263990  10.0886720 107.4372960
 121.4405500   9.6751860 106.6227140 121.5283540  11.0174430 107.3173480
 106.2887600   3.3605810 122.3232280 106.7926620   2.7813090 122.8948510
 105.5495020   3.6446040 122.8608650 113.1911220   6.0820000 105.8778570
 113.0861860   5.4672350 106.6039950 113.0235440   5.5585890 105.0941580
 113.3425540   4.7676800 121.8567800 112.5771210   5.3361800 121.7722470
 113.5241500   4.4753010 120.9636030 116.4313950   5.1440030 106.4820560
 115.8824050   5.5909330 107.1263300 117.0533210   4.6389280 107.0058230
 120.4848890   6.4982130 122.4142820 121.2258360   6.8357890 121.9110280
 119.7221570   6.6674190 121.8612590 112.0989070   4.1030950 108.3785860
 112.5205490   3.9370820 109.2217250 112.2239910   3.2931180 107.8841000
 114.6116710   3.1268560 105.6262960 115.1322370   2.4117580 105.2604110
 115.2585110   3.7654430 105.9263470 119.1594550   4.5496960 120.9498030
 119.5735570   4.7042040 121.7988450 118.2245550   4.6752180 121.1123810
 113.9209780   4.5017440 118.9193960 114.3397890   5.3450170 118.7470200
 113.0018410   4.6389480 118.6900740 118.5961580   2.7870810 118.8794310
 118.0696800   3.3113430 118.2759450 118.9392920   3.4198200 119.5104040
 111.7717200  10.8070450 120.0351690 111.2338290  11.5316510 119.7160390
 112.0251160  10.3300790 119.2449030 114.6279410  12.0421660 120.2938340
 114.5538110  12.9456800 120.6010710 113.7258250  11.7233560 120.2660410
 115.1764740  11.2080170 107.9164700 116.0715530  11.5465140 107.9383460
 115.2082370  10.4859580 107.2888980 108.8160900   6.5807220 106.1451700
 109.2535770   7.1236890 106.8009280 109.3008630   5.7554170 106.1548040
 106.0306700   9.3696250 113.5971960 106.3609710   8.5017310 113.3650600
 106.4597700   9.5754770 114.4276920 110.6268620   7.7005260 111.2573930
 110.3264160   7.5770230 112.1577840 110.5206110   6.8413850 110.8489660
 106.5196910  10.2366840 116.3353590 106.0827900  10.4167640 117.1677740
 107.0874590  10.9941460 116.1935310 122.1559090   9.7383840 120.6230900
 121.5561080   9.7976400 119.8794820 122.2852990   8.7988820 120.7527750
 123.3960540   7.4801660 105.9600610 122.5653500   7.5478310 106.4307840
 123.5732370   8.3705780 105.6567470 122.8517000   4.2249140 108.4634810
 123.6135910   4.7945790 108.5694500 122.8671370   3.6576340 109.2343120
 106.3521340   2.7487070 112.6942470 105.6970180   2.4798710 112.0502170
 107.1899290   2.6391550 112.2444450 123.8576970   5.0799240 113.3076740
 124.2285800   4.2966560 112.9012710 124.4978900   5.7688340 113.1294040
 120.8410730   6.4635820 118.7207060 120.0270570   6.8932980 118.9832850
 121.2484930   7.0754230 118.1076110 122.9036170   4.5183510 105.6207330
 123.1785010   5.4262390 105.4926550 122.7146910   4.4546040 106.5569320
 122.8001510   2.4552500 110.6136760 122.4245110   1.6880430 110.1818050
 122.0704630   2.8375200 111.1011690 107.3897270   3.1339640 117.2345810
 107.7570310   3.0467040 118.1141830 106.8208090   2.3706190 117.1352670
 120.8986780  11.2154420 112.2475330 121.4945850  10.8938990 111.5709750
 121.1564930  10.7426240 113.0388600 108.8049350   7.6472330 122.3965960
 108.7618980   7.2765240 123.2780420 108.9360360   8.5849900 122.5367780
 112.5055380   9.2031920 117.9975680 112.2646740   9.4706480 117.1106200
 113.4458020   9.3737650 118.0526540 123.7659540  11.2226300 118.7986320
 123.2717820  11.6195170 118.0813450 123.1572830  10.5975510 119.1923600
 108.6437380  10.5934580 119.5163740 108.0497700  10.4619280 120.2553780
 108.6361220   9.7572720 119.0505840 121.4498990  11.8649720 116.0773060
 120.9901960  12.6165530 115.7031080 120.8211450  11.1456190 116.0187860
 108.2749610   7.9592960 118.4671780 107.5483670   7.3398250 118.3997730
 108.3358760   8.3533570 117.5969860 111.8794710  10.1737960 115.2521190
 112.3959730   9.5625320 114.7269450 112.5292090  10.6766740 115.7432200
 114.6190210  11.0646450 116.0790170 114.9068020  10.8100750 115.2023180
 115.1313430  10.5123810 116.6695740 106.5579610  11.2767350 111.6768540
 106.3901650  10.6438030 112.3750430 105.6914120  11.4826750 111.3262730
 108.1642310   9.9700580 109.1218680 107.6389930  10.3508610 108.4180640
 108.0886890  10.5951350 109.8428390 114.6862570  11.9862550 123.4458370
 115.6129880  11.7506820 123.4894330 114.6713000  12.8134550 122.9644400
 122.9207630  11.5288120 110.4432620 123.0959820  10.8425860 109.7993540
 122.2229200  12.0535170 110.0509290 110.7635280  11.9182960 107.9967930
 111.4954100  11.6342240 107.4491820 111.0228950  11.6796240 108.8867310
 109.9250070   8.0347690 108.0014260 109.2958950   8.5032790 108.5500090
 110.0397900   7.1896910 108.4360450 121.2540130  11.2132410 123.2699410
 122.0465450  10.7181640 123.0625370 121.5473280  11.8922550 123.8775020
 115.5117830   3.8632370  96.0324730 114.7359930   3.3832810  96.3223300
 116.1630760   3.1838020  95.8580890 109.5283660   4.1752180  96.9100490
 108.6968540   3.9200890  97.3097000 110.1364640   4.2462950  97.6458410
 119.5325260   8.2692560  94.8123860 119.0706790   7.4979800  95.1411030
 120.3450810   8.2958630  95.3176310 109.5084920   8.2092270  97.1058510
 109.8112960   7.3190010  96.9268730 110.2528510   8.7662490  96.8780760
 115.7588570  10.5550570  94.4327850 115.1400010  11.0108070  93.8622290
 116.6140350  10.7102030  94.0317550 114.9526820   6.5389560  96.0394890
 114.8835100   5.5979500  95.8784020 115.7146680   6.6290970  96.6117460
 116.6251920   5.4389810  91.8259760 116.0069190   5.9039260  91.2622480
 117.1375170   6.1317290  92.2429270 111.4883680   4.9665680  98.5043360
 111.1553060   5.5934600  99.1464430 111.6650360   5.4927560  97.7245030
 110.7002780   6.9346480 100.3192540 111.3176780   7.6097560 100.0376990
 109.8395900   7.3434460 100.2280040 105.9935120   6.1246340  89.1999390
 105.6163100   6.6133440  88.4684290 106.2508190   6.7971620  89.8305920
 121.6180370   8.3985890  98.2347180 120.9343890   9.0685000  98.2263850
 122.1574660   8.5966540  97.4692040 119.1539110  10.2430020  96.9492360
 119.1666270   9.8392310  96.0814620 118.6014330  11.0177310  96.8453790
 120.4484530   6.9646240  92.0382530 120.3380860   6.0220570  92.1631950
 120.4452780   7.3261880  92.9245290 118.5524550   5.1459860  98.2774970
 118.9693340   4.9319970  97.4428430 119.2764370   5.4032650  98.8483590
 115.9904810   2.5911560  91.3945020 115.0634090   2.5248940  91.6233490
 116.1429630   3.5291690  91.2800260 122.4986650   3.5447080  98.3691210
 121.6705280   3.6140170  97.8941340 123.0937130   4.1301390  97.9007040
 120.0202100   4.1531860  91.8980270 119.4014520   3.8151410  91.2506570
 120.0026550   3.5091620  92.6059460 111.5961450   3.1176300  94.1764750
 111.1918450   2.4053550  93.6810650 111.6824570   2.7729540  95.0652790
 112.0643150   6.8043860  96.3403960 111.7671440   6.1989330  95.6611740
 113.0142970   6.8421170  96.2293320 120.1528760  10.3775730 100.0027060
 119.6759320  11.1847920  99.8099670 119.4690550   9.7254060 100.1553270
 111.1561580   6.5425550 102.9911760 110.2590110   6.7665520 103.2385160
 111.1814450   6.6660490 102.0423160 118.1966800   3.3918670  88.9053020
 118.6360080   2.5541100  88.7590840 118.9095220   4.0248070  88.9917160
 109.9832800   3.4138870 101.5669130 109.8440570   4.2861670 101.9356530
 109.1014160   3.0711680 101.4217070 116.3062180   8.3314740  92.8734260
 116.7458090   9.0739070  92.4589650 116.2449070   8.5741310  93.7973220
 111.7813150   9.3560570 103.7754280 111.7528580   9.7603520 102.9082710
 111.6178120   8.4270930 103.6125880 123.7327970  10.1387670 105.0718450
 124.2087690  10.6170560 105.7507530 124.3535130  10.0705160 104.3463950
 105.9351450   5.1836420  97.4840040 106.0131870   5.3185190  96.5395760
 106.5493130   4.4752310  97.6768160 107.1799080   6.8836610  93.8946220
 106.7727160   7.0251200  93.0399820 108.0712090   6.5996770  93.6917430
 123.1361220   7.3300520 102.2318460 123.2624280   7.0912400 101.3135640
 123.1782600   6.4985060 102.7040540 116.9977960  11.0328520 100.8013270
 117.5122630  10.9436530 101.6035700 116.1547040  11.3788220 101.0941180
 118.9732360  11.3183860  90.2297270 118.8133500  11.0286800  91.1279100
 118.8079070  10.5423990  89.6942500 111.4520740  11.0982390  92.0068890
 111.2763220  10.1817930  91.7936690 110.5976480  11.4569680  92.2466690
 118.6758490   8.8271420  88.7895270 117.9823650   8.8248710  88.1297550
 119.4181350   8.4030740  88.3589440 118.2408420  10.4534130  92.8643760
 118.6965370   9.6723510  93.1782380 118.5800940  11.1640950  93.4084940
 105.9910970   6.2250590 100.0234500 106.1542010   5.7555950  99.2053870
 106.4563420   5.7174150 100.6883340 107.5649950   5.6002020 102.1830310
 107.1804740   4.9595690 102.7813270 107.8762140   6.3038140 102.7525040
 113.7147090   2.4478560  97.6638930 114.0817220   1.9737130  98.4100270
 113.5252150   3.3220130  98.0047270 110.0328250   5.6948190  90.5789990
 109.2590510   5.1545810  90.4188710 110.7622880   5.1754800  90.2407750
 120.7916230   4.6913550  96.3716380 121.5115350   5.1868840  95.9812490
 120.5898050   4.0131440  95.7270250 116.1735030   4.7622610 102.2585380
 116.1072340   3.8418280 102.0042970 115.5440170   4.8598050 102.9730020
 110.0765650   5.3628570  94.2168800 110.5944320   4.5596830  94.1625690
 109.6249670   5.3007710  95.0585630 114.9635150   6.6294850  89.4896100
 115.3050850   7.3737080  88.9939420 114.1347860   6.9425970  89.8520930
 110.7623310   2.7874180 104.0134050 110.4623450   2.9331360 103.1161870
 111.5334550   2.2279470 103.9207440 116.1051760   7.5843180 102.0089180
 116.1196300   6.6524140 101.7908090 115.3976860   7.6702940 102.6478950
 121.2388830   1.7683000  88.2787790 121.1552550   2.1997220  87.4284230
 121.9583020   2.2281350  88.7114610 122.3162970   4.2250520 101.3557760
 121.5911160   4.8179300 101.1587150 122.8438430   4.2174060 100.5571130
 122.2676080   8.6225260  91.0069920 121.6252240   7.9680880  91.2813640
 121.8806740   9.0280350  90.2310590 117.8462560   5.9510690  94.8541610
 118.1986380   5.3538820  94.1942980 116.9624890   5.6254920  95.0249860
 113.9325840   6.7108380  92.2612020 114.6196970   7.2577590  92.6419610
 113.1458260   7.2549110  92.2961630 106.0718240   2.3281200  87.7529100
 106.9413090   2.6106000  88.0365020 105.5808560   3.1417070  87.6377910
 113.2353050   3.7154410  91.8737380 113.6915830   4.5259660  92.0997570
 112.8841260   3.3977550  92.7055870 115.5385660   9.2260750  99.1029680
 116.1827880   9.4320130  99.7803100 115.9015100   8.4649150  98.6500530
 116.8117740   7.2293100  97.8207130 117.4539970   6.5286260  97.9339300
 117.3367090   8.0091540  97.6404020 120.6573460   7.5141720  87.5446270
 120.4311040   6.7972160  88.1370910 120.2669660   7.2654160  86.7068020
 118.5855360   8.0288000 101.0243190 118.9211600   8.6154690 101.7021110
 117.6655700   7.8980710 101.2540980 106.4389490  11.5408580  88.3190730
 106.7987130  12.1397920  87.6648000 106.2981830  12.0868470  89.0925760
 120.2389710   5.4313660  89.2060430 119.9511410   5.8926350  89.9938310
 121.0341880   4.9711430  89.4744650 106.4231350   9.8063440 102.7933130
 106.5322470   8.8658180 102.6528520 105.7711910  10.0718190 102.1446860
 114.4143940   8.0779330 104.1931250 114.0940810   7.3588570 104.7376940
 113.7402300   8.7534400 104.2667310 112.4558110   8.9239780  89.1364400
 112.4468210   9.6569470  88.5208910 111.5356470   8.6771360  89.2291360
 108.0564750   4.1454670  89.8811160 107.4492700   4.8853570  89.8906460
 108.5314100   4.2354030  89.0549360 115.4417710   8.9868020  87.7989590
 115.5429690   8.7832010  86.8691570 114.5419450   8.7326300  88.0037370
 114.0835820  11.5054340  92.4937260 114.3377320  11.4675730  91.5716630
 113.1348300  11.3787670  92.4865510 110.0670040   4.1065820  87.6299730
 110.8333310   3.9947180  88.1925160 110.1444730   3.4103790  86.9776500
 122.0913980   9.5955070  95.7450030 122.2161400  10.4186240  96.2173840
 122.9579540   9.3845800  95.3974180 109.5631510  11.6886280  95.4167160
 110.2993990  11.1401740  95.6875730 109.9472430  12.5542290  95.2773150
 106.4476990   7.7559850  91.2908670 105.5216770   7.9980990  91.2814080
 106.9133420   8.5834110  91.1693420 108.5689790  10.8732350 104.6052740
 109.3702520  11.1944400 105.0188140 108.0541610  10.5127930 105.3272650
 112.6733820  10.8616590  87.2392730 113.4662430  11.1505420  86.7874520
 112.1538170  10.4308760  86.5605210 117.4054420   6.9812220 104.5528150
 116.7992580   7.0043820 103.8123900 117.1008530   6.2495260 105.0895400
 118.8354790  10.7092510 103.1637560 119.7876540  10.6250530 103.1137800
 118.6883010  11.3734220 103.8371350 121.7263990  10.0886720  88.6629470
 121.4405500   9.6751860  87.8483650 121.5283540  11.0174430  88.5429990
 106.2887600   3.3605810 103.5488790 106.7926620   2.7813090 104.1205020
 105.5495020   3.6446040 104.0865160 113.1911220   6.0820000  87.1035080
 113.0861860   5.4672350  87.8296460 113.0235440   5.5585890  86.3198090
 113.3425540   4.7676800 103.0824310 112.5771210   5.3361800 102.9978980
 113.5241500   4.4753010 102.1892540 116.4313950   5.1440030  87.7077070
 115.8824050   5.5909330  88.3519810 117.0533210   4.6389280  88.2314740
 120.4848890   6.4982130 103.6399330 121.2258360   6.8357890 103.1366790
 119.7221570   6.6674190 103.0869100 112.0989070   4.1030950  89.6042370
 112.5205490   3.9370820  90.4473760 112.2239910   3.2931180  89.1097510
 114.6116710   3.1268560  86.8519470 115.1322370   2.4117580  86.4860620
 115.2585110   3.7654430  87.1519980 119.1594550   4.5496960 102.1754540
 119.5735570   4.7042040 103.0244960 118.2245550   4.6752180 102.3380320
 113.9209780   4.5017440 100.1450470 114.3397890   5.3450170  99.9726710
 113.0018410   4.6389480  99.9157250 118.5961580   2.7870810 100.1050820
 118.0696800   3.3113430  99.5015960 118.9392920   3.4198200 100.7360550
 111.7717200  10.8070450 101.2608200 111.2338290  11.5316510 100.9416900
 112.0251160  10.3300790 100.4705540 114.6279410  12.0421660 101.5194850
 114.5538110  12.9456800 101.8267220 113.7258250  11.7233560 101.4916920
 115.1764740  11.2080170  89.1421210 116.0715530  11.5465140  89.1639970
 115.2082370  10.4859580  88.5145490 108.8160900   6.5807220  87.3708210
 109.2535770   7.1236890  88.0265790 109.3008630   5.7554170  87.3804550
 106.0306700   9.3696250  94.8228470 106.3609710   8.5017310  94.5907110
 106.4597700   9.5754770  95.6533430 110.6268620   7.7005260  92.4830440
 110.3264160   7.5770230  93.3834350 110.5206110   6.8413850  92.0746170
 106.5196910  10.2366840  97.5610100 106.0827900  10.4167640  98.3934250
 107.0874590  10.9941460  97.4191820 122.1559090   9.7383840 101.8487410
 121.5561080   9.7976400 101.1051330 122.2852990   8.7988820 101.9784260
 123.3960540   7.4801660  87.1857120 122.5653500   7.5478310  87.6564350
 123.5732370   8.3705780  86.8823980 122.8517000   4.2249140  89.6891320
 123.6135910   4.7945790  89.7951010 122.8671370   3.6576340  90.4599630
 106.3521340   2.7487070  93.9198980 105.6970180   2.4798710  93.2758680
 107.1899290   2.6391550  93.4700960 123.8576970   5.0799240  94.5333250
 124.2285800   4.2966560  94.1269220 124.4978900   5.7688340  94.3550550
 120.8410730   6.4635820  99.9463570 120.0270570   6.8932980 100.2089360
 121.2484930   7.0754230  99.3332620 122.9036170   4.5183510  86.8463840
 123.1785010   5.4262390  86.7183060 122.7146910   4.4546040  87.7825830
 122.8001510   2.4552500  91.8393270 122.4245110   1.6880430  91.4074560
 122.0704630   2.8375200  92.3268200 107.3897270   3.1339640  98.4602320
 107.7570310   3.0467040  99.3398340 106.8208090   2.3706190  98.3609180
 120.8986780  11.2154420  93.4731840 121.4945850  10.8938990  92.7966260
 121.1564930  10.7426240  94.2645110 108.8049350   7.6472330 103.6222470
 108.7618980   7.2765240 104.5036930 108.9360360   8.5849900 103.7624290
 112.5055380   9.2031920  99.2232190 112.2646740   9.4706480  98.3362710
 113.4458020   9.3737650  99.2783050 123.7659540  11.2226300 100.0242830
 123.2717820  11.6195170  99.3069960 123.1572830  10.5975510 100.4180110
 108.6437380  10.5934580 100.7420250 108.0497700  10.4619280 101.4810290
 108.6361220   9.7572720 100.2762350 121.4498990  11.8649720  97.3029570
 120.9901960  12.6165530  96.9287590 120.8211450  11.1456190  97.2444370
 108.2749610   7.9592960  99.6928290 107.5483670   7.3398250  99.6254240
 108.3358760   8.3533570  98.8226370 111.8794710  10.1737960  96.4777700
 112.3959730   9.5625320  95.9525960 112.5292090  10.6766740  96.9688710
 114.6190210  11.0646450  97.3046680 114.9068020  10.8100750  96.4279690
 115.1313430  10.5123810  97.8952250 106.5579610  11.2767350  92.9025050
 106.3901650  10.6438030  93.6006940 105.6914120  11.4826750  92.5519240
 108.1642310   9.9700580  90.3475190 107.6389930  10.3508610  89.6437150
 108.0886890  10.5951350  91.0684900 114.6862570  11.9862550 104.6714880
 115.6129880  11.7506820 104.7150840 114.6713000  12.8134550 104.1900910
 122.9207630  11.5288120  91.6689130 123.0959820  10.8425860  91.0250050
 122.2229200  12.0535170  91.2765800 110.7635280  11.9182960  89.2224440
 111.4954100  11.6342240  88.6748330 111.0228950  11.6796240  90.1123820
 109.9250070   8.0347690  89.2270770 109.2958950   8.5032790  89.7756600
 110.0397900   7.1896910  89.6616960 121.2540130  11.2132410 104.4955920
 122.0465450  10.7181640 104.2881880 121.5473280  11.8922550 105.1031530
 115.5117830   3.8632370  77.2581240 114.7359930   3.3832810  77.5479810
 116.1630760   3.1838020  77.0837400 109.5283660   4.1752180  78.1357000
 108.6968540   3.9200890  78.5353510 110.1364640   4.2462950  78.8714920
 119.5325260   8.2692560  76.0380370 119.0706790   7.4979800  76.3667540
 120.3450810   8.2958630  76.5432820 109.5084920   8.2092270  78.3315020
 109.8112960   7.3190010  78.1525240 110.2528510   8.7662490  78.1037270
 115.7588570  10.5550570  75.6584360 115.1400010  11.0108070  75.0878800
 116.6140350  10.7102030  75.2574060 114.9526820   6.5389560  77.2651400
 114.8835100   5.5979500  77.1040530 115.7146680   6.6290970  77.8373970
 116.6251920   5.4389810  73.0516270 116.0069190   5.9039260  72.4878990
 117.1375170   6.1317290  73.4685780 111.4883680   4.9665680  79.7299870
 111.1553060   5.5934600  80.3720940 111.6650360   5.4927560  78.9501540
 110.7002780   6.9346480  81.5449050 111.3176780   7.6097560  81.2633500
 109.8395900   7.3434460  81.4536550 105.9935120   6.1246340  70.4255900
 105.6163100   6.6133440  69.6940800 106.2508190   6.7971620  71.0562430
 121.6180370   8.3985890  79.4603690 120.9343890   9.0685000  79.4520360
 122.1574660   8.5966540  78.6948550 119.1539110  10.2430020  78.1748870
 119.1666270   9.8392310  77.3071130 118.6014330  11.0177310  78.0710300
 120.4484530   6.9646240  73.2639040 120.3380860   6.0220570  73.3888460
 120.4452780   7.3261880  74.1501800 118.5524550   5.1459860  79.5031480
 118.9693340   4.9319970  78.6684940 119.2764370   5.4032650  80.0740100
 115.9904810   2.5911560  72.6201530 115.0634090   2.5248940  72.8490000
 116.1429630   3.5291690  72.5056770 122.4986650   3.5447080  79.5947720
 121.6705280   3.6140170  79.1197850 123.0937130   4.1301390  79.1263550
 120.0202100   4.1531860  73.1236780 119.4014520   3.8151410  72.4763080
 120.0026550   3.5091620  73.8315970 111.5961450   3.1176300  75.4021260
 111.1918450   2.4053550  74.9067160 111.6824570   2.7729540  76.2909300
 112.0643150   6.8043860  77.5660470 111.7671440   6.1989330  76.8868250
 113.0142970   6.8421170  77.4549830 120.1528760  10.3775730  81.2283570
 119.6759320  11.1847920  81.0356180 119.4690550   9.7254060  81.3809780
 111.1561580   6.5425550  84.2168270 110.2590110   6.7665520  84.4641670
 111.1814450   6.6660490  83.2679670 118.1966800   3.3918670  70.1309530
 118.6360080   2.5541100  69.9847350 118.9095220   4.0248070  70.2173670
 109.9832800   3.4138870  82.7925640 109.8440570   4.2861670  83.1613040
 109.1014160   3.0711680  82.6473580 116.3062180   8.3314740  74.0990770
 116.7458090   9.0739070  73.6846160 116.2449070   8.5741310  75.0229730
 111.7813150   9.3560570  85.0010790 111.7528580   9.7603520  84.1339220
 111.6178120   8.4270930  84.8382390 123.7327970  10.1387670  86.2974960
 124.2087690  10.6170560  86.9764040 124.3535130  10.0705160  85.5720460
 105.9351450   5.1836420  78.7096550 106.0131870   5.3185190  77.7652270
 106.5493130   4.4752310  78.9024670 107.1799080   6.8836610  75.1202730
 106.7727160   7.0251200  74.2656330 108.0712090   6.5996770  74.9173940
 123.1361220   7.3300520  83.4574970 123.2624280   7.0912400  82.5392150
 123.1782600   6.4985060  83.9297050 116.9977960  11.0328520  82.0269780
 117.5122630  10.9436530  82.8292210 116.1547040  11.3788220  82.3197690
 118.9732360  11.3183860  71.4553780 118.8133500  11.0286800  72.3535610
 118.8079070  10.5423990  70.9199010 111.4520740  11.0982390  73.2325400
 111.2763220  10.1817930  73.0193200 110.5976480  11.4569680  73.4723200
 118.6758490   8.8271420  70.0151780 117.9823650   8.8248710  69.3554060
 119.4181350   8.4030740  69.5845950 118.2408420  10.4534130  74.0900270
 118.6965370   9.6723510  74.4038890 118.5800940  11.1640950  74.6341450
 105.9910970   6.2250590  81.2491010 106.1542010   5.7555950  80.4310380
 106.4563420   5.7174150  81.9139850 107.5649950   5.6002020  83.4086820
 107.1804740   4.9595690  84.0069780 107.8762140   6.3038140  83.9781550
 113.7147090   2.4478560  78.8895440 114.0817220   1.9737130  79.6356780
 113.5252150   3.3220130  79.2303780 110.0328250   5.6948190  71.8046500
 109.2590510   5.1545810  71.6445220 110.7622880   5.1754800  71.4664260
 120.7916230   4.6913550  77.5972890 121.5115350   5.1868840  77.2069000
 120.5898050   4.0131440  76.9526760 116.1735030   4.7622610  83.4841890
 116.1072340   3.8418280  83.2299480 115.5440170   4.8598050  84.1986530
 110.0765650   5.3628570  75.4425310 110.5944320   4.5596830  75.3882200
 109.6249670   5.3007710  76.2842140 114.9635150   6.6294850  70.7152610
 115.3050850   7.3737080  70.2195930 114.1347860   6.9425970  71.0777440
 110.7623310   2.7874180  85.2390560 110.4623450   2.9331360  84.3418380
 111.5334550   2.2279470  85.1463950 116.1051760   7.5843180  83.2345690
 116.1196300   6.6524140  83.0164600 115.3976860   7.6702940  83.8735460
 121.2388830   1.7683000  69.5044300 121.1552550   2.1997220  68.6540740
 121.9583020   2.2281350  69.9371120 122.3162970   4.2250520  82.5814270
 121.5911160   4.8179300  82.3843660 122.8438430   4.2174060  81.7827640
 122.2676080   8.6225260  72.2326430 121.6252240   7.9680880  72.5070150
 121.8806740   9.0280350  71.4567100 117.8462560   5.9510690  76.0798120
 118.1986380   5.3538820  75.4199490 116.9624890   5.6254920  76.2506370
 113.9325840   6.7108380  73.4868530 114.6196970   7.2577590  73.8676120
 113.1458260   7.2549110  73.5218140 106.0718240   2.3281200  68.9785610
 106.9413090   2.6106000  69.2621530 105.5808560   3.1417070  68.8634420
 113.2353050   3.7154410  73.0993890 113.6915830   4.5259660  73.3254080
 112.8841260   3.3977550  73.9312380 115.5385660   9.2260750  80.3286190
 116.1827880   9.4320130  81.0059610 115.9015100   8.4649150  79.8757040
 116.8117740   7.2293100  79.0463640 117.4539970   6.5286260  79.1595810
 117.3367090   8.0091540  78.8660530 120.6573460   7.5141720  68.7702780
 120.4311040   6.7972160  69.3627420 120.2669660   7.2654160  67.9324530
 118.5855360   8.0288000  82.2499700 118.9211600   8.6154690  82.9277620
 117.6655700   7.8980710  82.4797490 106.4389490  11.5408580  69.5447240
 106.7987130  12.1397920  68.8904510 106.2981830  12.0868470  70.3182270
 120.2389710   5.4313660  70.4316940 119.9511410   5.8926350  71.2194820
 121.0341880   4.9711430  70.7001160 106.4231350   9.8063440  84.0189640
 106.5322470   8.8658180  83.8785030 105.7711910  10.0718190  83.3703370
 114.4143940   8.0779330  85.4187760 114.0940810   7.3588570  85.9633450
 113.7402300   8.7534400  85.4923820 112.4558110   8.9239780  70.3620910
 112.4468210   9.6569470  69.7465420 111.5356470   8.6771360  70.4547870
 108.0564750   4.1454670  71.1067670 107.4492700   4.8853570  71.1162970
 108.5314100   4.2354030  70.2805870 115.4417710   8.9868020  69.0246100
 115.5429690   8.7832010  68.0948080 114.5419450   8.7326300  69.2293880
 114.0835820  11.5054340  73.7193770 114.3377320  11.4675730  72.7973140
 113.1348300  11.3787670  73.7122020 110.0670040   4.1065820  68.8556240
 110.8333310   3.9947180  69.4181670 110.1444730   3.4103790  68.2033010
 122.0913980   9.5955070  76.9706540 122.2161400  10.4186240  77.4430350
 122.9579540   9.3845800  76.6230690 109.5631510  11.6886280  76.6423670
 110.2993990  11.1401740  76.9132240 109.9472430  12.5542290  76.5029660
 106.4476990   7.7559850  72.5165180 105.5216770   7.9980990  72.5070590
 106.9133420   8.5834110  72.3949930 108.5689790  10.8732350  85.8309250
 109.3702520  11.1944400  86.2444650 108.0541610  10.5127930  86.5529160
 112.6733820  10.8616590  68.4649240 113.4662430  11.1505420  68.0131030
 112.1538170  10.4308760  67.7861720 117.4054420   6.9812220  85.7784660
 116.7992580   7.0043820  85.0380410 117.1008530   6.2495260  86.3151910
 118.8354790  10.7092510  84.3894070 119.7876540  10.6250530  84.3394310
 118.6883010  11.3734220  85.0627860 121.7263990  10.0886720  69.8885980
 121.4405500   9.6751860  69.0740160 121.5283540  11.0174430  69.7686500
 106.2887600   3.3605810  84.7745300 106.7926620   2.7813090  85.3461530
 105.5495020   3.6446040  85.3121670 113.1911220   6.0820000  68.3291590
 113.0861860   5.4672350  69.0552970 113.0235440   5.5585890  67.5454600
 113.3425540   4.7676800  84.3080820 112.5771210   5.3361800  84.2235490
 113.5241500   4.4753010  83.4149050 116.4313950   5.1440030  68.9333580
 115.8824050   5.5909330  69.5776320 117.0533210   4.6389280  69.4571250
 120.4848890   6.4982130  84.8655840 121.2258360   6.8357890  84.3623300
 119.7221570   6.6674190  84.3125610 112.0989070   4.1030950  70.8298880
 112.5205490   3.9370820  71.6730270 112.2239910   3.2931180  70.3354020
 114.6116710   3.1268560  68.0775980 115.1322370   2.4117580  67.7117130
 115.2585110   3.7654430  68.3776490 119.1594550   4.5496960  83.4011050
 119.5735570   4.7042040  84.2501470 118.2245550   4.6752180  83.5636830
 113.9209780   4.5017440  81.3706980 114.3397890   5.3450170  81.1983220
 113.0018410   4.6389480  81.1413760 118.5961580   2.7870810  81.3307330
 118.0696800   3.3113430  80.7272470 118.9392920   3.4198200  81.9617060
 111.7717200  10.8070450  82.4864710 111.2338290  11.5316510  82.1673410
 112.0251160  10.3300790  81.6962050 114.6279410  12.0421660  82.7451360
 114.5538110  12.9456800  83.0523730 113.7258250  11.7233560  82.7173430
 115.1764740  11.2080170  70.3677720 116.0715530  11.5465140  70.3896480
 115.2082370  10.4859580  69.7402000 108.8160900   6.5807220  68.5964720
 109.2535770   7.1236890  69.2522300 109.3008630   5.7554170  68.6061060
 106.0306700   9.3696250  76.0484980 106.3609710   8.5017310  75.8163620
 106.4597700   9.5754770  76.8789940 110.6268620   7.7005260  73.7086950
 110.3264160   7.5770230  74.6090860 110.5206110   6.8413850  73.3002680
 106.5196910  10.2366840  78.7866610 106.0827900  10.4167640  79.6190760
 107.0874590  10.9941460  78.6448330 122.1559090   9.7383840  83.0743920
 121.5561080   9.7976400  82.3307840 122.2852990   8.7988820  83.2040770
 123.3960540   7.4801660  68.4113630 122.5653500   7.5478310  68.8820860
 123.5732370   8.3705780  68.1080490 122.8517000   4.2249140  70.9147830
 123.6135910   4.7945790  71.0207520 122.8671370   3.6576340  71.6856140
 106.3521340   2.7487070  75.1455490 105.6970180   2.4798710  74.5015190
 107.1899290   2.6391550  74.6957470 123.8576970   5.0799240  75.7589760
 124.2285800   4.2966560  75.3525730 124.4978900   5.7688340  75.5807060
 120.8410730   6.4635820  81.1720080 120.0270570   6.8932980  81.4345870
 121.2484930   7.0754230  80.5589130 122.9036170   4.5183510  68.0720350
 123.1785010   5.4262390  67.9439570 122.7146910   4.4546040  69.0082340
 122.8001510   2.4552500  73.0649780 122.4245110   1.6880430  72.6331070
 122.0704630   2.8375200  73.5524710 107.3897270   3.1339640  79.6858830
 107.7570310   3.0467040  80.5654850 106.8208090   2.3706190  79.5865690
 120.8986780  11.2154420  74.6988350 121.4945850  10.8938990  74.0222770
 121.1564930  10.7426240  75.4901620 108.8049350   7.6472330  84.8478980
 108.7618980   7.2765240  85.7293440 108.9360360   8.5849900  84.9880800
 112.5055380   9.2031920  80.4488700 112.2646740   9.4706480  79.5619220
 113.4458020   9.3737650  80.5039560 123.7659540  11.2226300  81.2499340
 123.2717820  11.6195170  80.5326470 123.1572830  10.5975510  81.6436620
 108.6437380  10.5934580  81.9676760 108.0497700  10.4619280  82.7066800
 108.6361220   9.7572720  81.5018860 121.4498990  11.8649720  78.5286080
 120.9901960  12.6165530  78.1544100 120.8211450  11.1456190  78.4700880
 108.2749610   7.9592960  80.9184800 107.5483670   7.3398250  80.8510750
 108.3358760   8.3533570  80.0482880 111.8794710  10.1737960  77.7034210
 112.3959730   9.5625320  77.1782470 112.5292090  10.6766740  78.1945220
 114.6190210  11.0646450  78.5303190 114.9068020  10.8100750  77.6536200
 115.1313430  10.5123810  79.1208760 106.5579610  11.2767350  74.1281560
 106.3901650  10.6438030  74.8263450 105.6914120  11.4826750  73.7775750
 108.1642310   9.9700580  71.5731700 107.6389930  10.3508610  70.8693660
 108.0886890  10.5951350  72.2941410 114.6862570  11.9862550  85.8971390
 115.6129880  11.7506820  85.9407350 114.6713000  12.8134550  85.4157420
 122.9207630  11.5288120  72.8945640 123.0959820  10.8425860  72.2506560
 122.2229200  12.0535170  72.5022310 110.7635280  11.9182960  70.4480950
 111.4954100  11.6342240  69.9004840 111.0228950  11.6796240  71.3380330
 109.9250070   8.0347690  70.4527280 109.2958950   8.5032790  71.0013110
 110.0397900   7.1896910  70.8873470 121.2540130  11.2132410  85.7212430
 122.0465450  10.7181640  85.5138390 121.5473280  11.8922550  86.3288040
 115.5117830   3.8632370  58.4837750 114.7359930   3.3832810  58.7736320
 116.1630760   3.1838020  58.3093910 109.5283660   4.1752180  59.3613510
 108.6968540   3.9200890  59.7610020 110.1364640   4.2462950  60.0971430
 119.5325260   8.2692560  57.2636880 119.0706790   7.4979800  57.5924050
 120.3450810   8.2958630  57.7689330 109.5084920   8.2092270  59.5571530
 109.8112960   7.3190010  59.3781750 110.2528510   8.7662490  59.3293780
 115.7588570  10.5550570  56.8840870 115.1400010  11.0108070  56.3135310
 116.6140350  10.7102030  56.4830570 114.9526820   6.5389560  58.4907910
 114.8835100   5.5979500  58.3297040 115.7146680   6.6290970  59.0630480
 116.6251920   5.4389810  54.2772780 116.0069190   5.9039260  53.7135500
 117.1375170   6.1317290  54.6942290 111.4883680   4.9665680  60.9556380
 111.1553060   5.5934600  61.5977450 111.6650360   5.4927560  60.1758050
 110.7002780   6.9346480  62.7705560 111.3176780   7.6097560  62.4890010
 109.8395900   7.3434460  62.6793060 105.9935120   6.1246340  51.6512410
 105.6163100   6.6133440  50.9197310 106.2508190   6.7971620  52.2818940
 121.6180370   8.3985890  60.6860200 120.9343890   9.0685000  60.6776870
 122.1574660   8.5966540  59.9205060 119.1539110  10.2430020  59.4005380
 119.1666270   9.8392310  58.5327640 118.6014330  11.0177310  59.2966810
 120.4484530   6.9646240  54.4895550 120.3380860   6.0220570  54.6144970
 120.4452780   7.3261880  55.3758310 118.5524550   5.1459860  60.7287990
 118.9693340   4.9319970  59.8941450 119.2764370   5.4032650  61.2996610
 115.9904810   2.5911560  53.8458040 115.0634090   2.5248940  54.0746510
 116.1429630   3.5291690  53.7313280 122.4986650   3.5447080  60.8204230
 121.6705280   3.6140170  60.3454360 123.0937130   4.1301390  60.3520060
 120.0202100   4.1531860  54.3493290 119.4014520   3.8151410  53.7019590
 120.0026550   3.5091620  55.0572480 111.5961450   3.1176300  56.6277770
 111.1918450   2.4053550  56.1323670 111.6824570   2.7729540  57.5165810
 112.0643150   6.8043860  58.7916980 111.7671440   6.1989330  58.1124760
 113.0142970   6.8421170  58.6806340 120.1528760  10.3775730  62.4540080
 119.6759320  11.1847920  62.2612690 119.4690550   9.7254060  62.6066290
 111.1561580   6.5425550  65.4424780 110.2590110   6.7665520  65.6898180
 111.1814450   6.6660490  64.4936180 118.1966800   3.3918670  51.3566040
 118.6360080   2.5541100  51.2103860 118.9095220   4.0248070  51.4430180
 109.9832800   3.4138870  64.0182150 109.8440570   4.2861670  64.3869550
 109.1014160   3.0711680  63.8730090 116.3062180   8.3314740  55.3247280
 116.7458090   9.0739070  54.9102670 116.2449070   8.5741310  56.2486240
 111.7813150   9.3560570  66.2267300 111.7528580   9.7603520  65.3595730
 111.6178120   8.4270930  66.0638900 123.7327970  10.1387670  67.5231470
 124.2087690  10.6170560  68.2020550 124.3535130  10.0705160  66.7976970
 105.9351450   5.1836420  59.9353060 106.0131870   5.3185190  58.9908780
 106.5493130   4.4752310  60.1281180 107.1799080   6.8836610  56.3459240
 106.7727160   7.0251200  55.4912840 108.0712090   6.5996770  56.1430450
 123.1361220   7.3300520  64.6831480 123.2624280   7.0912400  63.7648660
 123.1782600   6.4985060  65.1553560 116.9977960  11.0328520  63.2526290
 117.5122630  10.9436530  64.0548720 116.1547040  11.3788220  63.5454200
 118.9732360  11.3183860  52.6810290 118.8133500  11.0286800  53.5792120
 118.8079070  10.5423990  52.1455520 111.4520740  11.0982390  54.4581910
 111.2763220  10.1817930  54.2449710 110.5976480  11.4569680  54.6979710
 118.6758490   8.8271420  51.2408290 117.9823650   8.8248710  50.5810570
 119.4181350   8.4030740  50.8102460 118.2408420  10.4534130  55.3156780
 118.6965370   9.6723510  55.6295400 118.5800940  11.1640950  55.8597960
 105.9910970   6.2250590  62.4747520 106.1542010   5.7555950  61.6566890
 106.4563420   5.7174150  63.1396360 107.5649950   5.6002020  64.6343330
 107.1804740   4.9595690  65.2326290 107.8762140   6.3038140  65.2038060
 113.7147090   2.4478560  60.1151950 114.0817220   1.9737130  60.8613290
 113.5252150   3.3220130  60.4560290 110.0328250   5.6948190  53.0303010
 109.2590510   5.1545810  52.8701730 110.7622880   5.1754800  52.6920770
 120.7916230   4.6913550  58.8229400 121.5115350   5.1868840  58.4325510
 120.5898050   4.0131440  58.1783270 116.1735030   4.7622610  64.7098400
 116.1072340   3.8418280  64.4555990 115.5440170   4.8598050  65.4243040
 110.0765650   5.3628570  56.6681820 110.5944320   4.5596830  56.6138710
 109.6249670   5.3007710  57.5098650 114.9635150   6.6294850  51.9409120
 115.3050850   7.3737080  51.4452440 114.1347860   6.9425970  52.3033950
 110.7623310   2.7874180  66.4647070 110.4623450   2.9331360  65.5674890
 111.5334550   2.2279470  66.3720460 116.1051760   7.5843180  64.4602200
 116.1196300   6.6524140  64.2421110 115.3976860   7.6702940  65.0991970
 121.2388830   1.7683000  50.7300810 121.1552550   2.1997220  49.8797250
 121.9583020   2.2281350  51.1627630 122.3162970   4.2250520  63.8070780
 121.5911160   4.8179300  63.6100170 122.8438430   4.2174060  63.0084150
 122.2676080   8.6225260  53.4582940 121.6252240   7.9680880  53.7326660
 121.8806740   9.0280350  52.6823610 117.8462560   5.9510690  57.3054630
 118.1986380   5.3538820  56.6456000 116.9624890   5.6254920  57.4762880
 113.9325840   6.7108380  54.7125040 114.6196970   7.2577590  55.0932630
 113.1458260   7.2549110  54.7474650 106.0718240   2.3281200  50.2042120
 106.9413090   2.6106000  50.4878040 105.5808560   3.1417070  50.0890930
 113.2353050   3.7154410  54.3250400 113.6915830   4.5259660  54.5510590
 112.8841260   3.3977550  55.1568890 115.5385660   9.2260750  61.5542700
 116.1827880   9.4320130  62.2316120 115.9015100   8.4649150  61.1013550
 116.8117740   7.2293100  60.2720150 117.4539970   6.5286260  60.3852320
 117.3367090   8.0091540  60.0917040 120.6573460   7.5141720  49.9959290
 120.4311040   6.7972160  50.5883930 120.2669660   7.2654160  49.1581040
 118.5855360   8.0288000  63.4756210 118.9211600   8.6154690  64.1534130
 117.6655700   7.8980710  63.7054000 106.4389490  11.5408580  50.7703750
 106.7987130  12.1397920  50.1161020 106.2981830  12.0868470  51.5438780
 120.2389710   5.4313660  51.6573450 119.9511410   5.8926350  52.4451330
 121.0341880   4.9711430  51.9257670 106.4231350   9.8063440  65.2446150
 106.5322470   8.8658180  65.1041540 105.7711910  10.0718190  64.5959880
 114.4143940   8.0779330  66.6444270 114.0940810   7.3588570  67.1889960
 113.7402300   8.7534400  66.7180330 112.4558110   8.9239780  51.5877420
 112.4468210   9.6569470  50.9721930 111.5356470   8.6771360  51.6804380
 108.0564750   4.1454670  52.3324180 107.4492700   4.8853570  52.3419480
 108.5314100   4.2354030  51.5062380 115.4417710   8.9868020  50.2502610
 115.5429690   8.7832010  49.3204590 114.5419450   8.7326300  50.4550390
 114.0835820  11.5054340  54.9450280 114.3377320  11.4675730  54.0229650
 113.1348300  11.3787670  54.9378530 110.0670040   4.1065820  50.0812750
 110.8333310   3.9947180  50.6438180 110.1444730   3.4103790  49.4289520
 122.0913980   9.5955070  58.1963050 122.2161400  10.4186240  58.6686860
 122.9579540   9.3845800  57.8487200 109.5631510  11.6886280  57.8680180
 110.2993990  11.1401740  58.1388750 109.9472430  12.5542290  57.7286170
 106.4476990   7.7559850  53.7421690 105.5216770   7.9980990  53.7327100
 106.9133420   8.5834110  53.6206440 108.5689790  10.8732350  67.0565760
 109.3702520  11.1944400  67.4701160 108.0541610  10.5127930  67.7785670
 112.6733820  10.8616590  49.6905750 113.4662430  11.1505420  49.2387540
 112.1538170  10.4308760  49.0118230 117.4054420   6.9812220  67.0041170
 116.7992580   7.0043820  66.2636920 117.1008530   6.2495260  67.5408420
 118.8354790  10.7092510  65.6150580 119.7876540  10.6250530  65.5650820
 118.6883010  11.3734220  66.2884370 121.7263990  10.0886720  51.1142490
 121.4405500   9.6751860  50.2996670 121.5283540  11.0174430  50.9943010
 106.2887600   3.3605810  66.0001810 106.7926620   2.7813090  66.5718040
 105.5495020   3.6446040  66.5378180 113.1911220   6.0820000  49.5548100
 113.0861860   5.4672350  50.2809480 113.0235440   5.5585890  48.7711110
 113.3425540   4.7676800  65.5337330 112.5771210   5.3361800  65.4492000
 113.5241500   4.4753010  64.6405560 116.4313950   5.1440030  50.1590090
 115.8824050   5.5909330  50.8032830 117.0533210   4.6389280  50.6827760
 120.4848890   6.4982130  66.0912350 121.2258360   6.8357890  65.5879810
 119.7221570   6.6674190  65.5382120 112.0989070   4.1030950  52.0555390
 112.5205490   3.9370820  52.8986780 112.2239910   3.2931180  51.5610530
 114.6116710   3.1268560  49.3032490 115.1322370   2.4117580  48.9373640
 115.2585110   3.7654430  49.6033000 119.1594550   4.5496960  64.6267560
 119.5735570   4.7042040  65.4757980 118.2245550   4.6752180  64.7893340
 113.9209780   4.5017440  62.5963490 114.3397890   5.3450170  62.4239730
 113.0018410   4.6389480  62.3670270 118.5961580   2.7870810  62.5563840
 118.0696800   3.3113430  61.9528980 118.9392920   3.4198200  63.1873570
 111.7717200  10.8070450  63.7121220 111.2338290  11.5316510  63.3929920
 112.0251160  10.3300790  62.9218560 114.6279410  12.0421660  63.9707870
 114.5538110  12.9456800  64.2780240 113.7258250  11.7233560  63.9429940
 115.1764740  11.2080170  51.5934230 116.0715530  11.5465140  51.6152990
 115.2082370  10.4859580  50.9658510 108.8160900   6.5807220  49.8221230
 109.2535770   7.1236890  50.4778810 109.3008630   5.7554170  49.8317570
 106.0306700   9.3696250  57.2741490 106.3609710   8.5017310  57.0420130
 106.4597700   9.5754770  58.1046450 110.6268620   7.7005260  54.9343460
 110.3264160   7.5770230  55.8347370 110.5206110   6.8413850  54.5259190
 106.5196910  10.2366840  60.0123120 106.0827900  10.4167640  60.8447270
 107.0874590  10.9941460  59.8704840 122.1559090   9.7383840  64.3000430
 121.5561080   9.7976400  63.5564350 122.2852990   8.7988820  64.4297280
 123.3960540   7.4801660  49.6370140 122.5653500   7.5478310  50.1077370
 123.5732370   8.3705780  49.3337000 122.8517000   4.2249140  52.1404340
 123.6135910   4.7945790  52.2464030 122.8671370   3.6576340  52.9112650
 106.3521340   2.7487070  56.3712000 105.6970180   2.4798710  55.7271700
 107.1899290   2.6391550  55.9213980 123.8576970   5.0799240  56.9846270
 124.2285800   4.2966560  56.5782240 124.4978900   5.7688340  56.8063570
 120.8410730   6.4635820  62.3976590 120.0270570   6.8932980  62.6602380
 121.2484930   7.0754230  61.7845640 122.9036170   4.5183510  49.2976860
 123.1785010   5.4262390  49.1696080 122.7146910   4.4546040  50.2338850
 122.8001510   2.4552500  54.2906290 122.4245110   1.6880430  53.8587580
 122.0704630   2.8375200  54.7781220 107.3897270   3.1339640  60.9115340
 107.7570310   3.0467040  61.7911360 106.8208090   2.3706190  60.8122200
 120.8986780  11.2154420  55.9244860 121.4945850  10.8938990  55.2479280
 121.1564930  10.7426240  56.7158130 108.8049350   7.6472330  66.0735490
 108.7618980   7.2765240  66.9549950 108.9360360   8.5849900  66.2137310
 112.5055380   9.2031920  61.6745210 112.2646740   9.4706480  60.7875730
 113.4458020   9.3737650  61.7296070 123.7659540  11.2226300  62.4755850
 123.2717820  11.6195170  61.7582980 123.1572830  10.5975510  62.8693130
 108.6437380  10.5934580  63.1933270 108.0497700  10.4619280  63.9323310
 108.6361220   9.7572720  62.7275370 121.4498990  11.8649720  59.7542590
 120.9901960  12.6165530  59.3800610 120.8211450  11.1456190  59.6957390
 108.2749610   7.9592960  62.1441310 107.5483670   7.3398250  62.0767260
 108.3358760   8.3533570  61.2739390 111.8794710  10.1737960  58.9290720
 112.3959730   9.5625320  58.4038980 112.5292090  10.6766740  59.4201730
 114.6190210  11.0646450  59.7559700 114.9068020  10.8100750  58.8792710
 115.1313430  10.5123810  60.3465270 106.5579610  11.2767350  55.3538070
 106.3901650  10.6438030  56.0519960 105.6914120  11.4826750  55.0032260
 108.1642310   9.9700580  52.7988210 107.6389930  10.3508610  52.0950170
 108.0886890  10.5951350  53.5197920 114.6862570  11.9862550  67.1227900
 115.6129880  11.7506820  67.1663860 114.6713000  12.8134550  66.6413930
 122.9207630  11.5288120  54.1202150 123.0959820  10.8425860  53.4763070
 122.2229200  12.0535170  53.7278820 110.7635280  11.9182960  51.6737460
 111.4954100  11.6342240  51.1261350 111.0228950  11.6796240  52.5636840
 109.9250070   8.0347690  51.6783790 109.2958950   8.5032790  52.2269620
 110.0397900   7.1896910  52.1129980 121.2540130  11.2132410  66.9468940
 122.0465450  10.7181640  66.7394900 121.5473280  11.8922550  67.5544550
 115.5117830   3.8632370  39.7094260 114.7359930   3.3832810  39.9992830
 116.1630760   3.1838020  39.5350420 109.5283660   4.1752180  40.5870020
 108.6968540   3.9200890  40.9866530 110.1364640   4.2462950  41.3227940
 119.5325260   8.2692560  38.4893390 119.0706790   7.4979800  38.8180560
 120.3450810   8.2958630  38.9945840 109.5084920   8.2092270  40.7828040
 109.8112960   7.3190010  40.6038260 110.2528510   8.7662490  40.5550290
 115.7588570  10.5550570  38.1097380 115.1400010  11.0108070  37.5391820
 116.6140350  10.7102030  37.7087080 114.9526820   6.5389560  39.7164420
 114.8835100   5.5979500  39.5553550 115.7146680   6.6290970  40.2886990
 116.6251920   5.4389810  35.5029290 116.0069190   5.9039260  34.9392010
 117.1375170   6.1317290  35.9198800 111.4883680   4.9665680  42.1812890
 111.1553060   5.5934600  42.8233960 111.6650360   5.4927560  41.4014560
 110.7002780   6.9346480  43.9962070 111.3176780   7.6097560  43.7146520
 109.8395900   7.3434460  43.9049570 105.9935120   6.1246340  32.8768920
 105.6163100   6.6133440  32.1453820 106.2508190   6.7971620  33.5075450
 121.6180370   8.3985890  41.9116710 120.9343890   9.0685000  41.9033380
 122.1574660   8.5966540  41.1461570 119.1539110  10.2430020  40.6261890
 119.1666270   9.8392310  39.7584150 118.6014330  11.0177310  40.5223320
 120.4484530   6.9646240  35.7152060 120.3380860   6.0220570  35.8401480
 120.4452780   7.3261880  36.6014820 118.5524550   5.1459860  41.9544500
 118.9693340   4.9319970  41.1197960 119.2764370   5.4032650  42.5253120
 115.9904810   2.5911560  35.0714550 115.0634090   2.5248940  35.3003020
 116.1429630   3.5291690  34.9569790 122.4986650   3.5447080  42.0460740
 121.6705280   3.6140170  41.5710870 123.0937130   4.1301390  41.5776570
 120.0202100   4.1531860  35.5749800 119.4014520   3.8151410  34.9276100
 120.0026550   3.5091620  36.2828990 111.5961450   3.1176300  37.8534280
 111.1918450   2.4053550  37.3580180 111.6824570   2.7729540  38.7422320
 112.0643150   6.8043860  40.0173490 111.7671440   6.1989330  39.3381270
 113.0142970   6.8421170  39.9062850 120.1528760  10.3775730  43.6796590
 119.6759320  11.1847920  43.4869200 119.4690550   9.7254060  43.8322800
 111.1561580   6.5425550  46.6681290 110.2590110   6.7665520  46.9154690
 111.1814450   6.6660490  45.7192690 118.1966800   3.3918670  32.5822550
 118.6360080   2.5541100  32.4360370 118.9095220   4.0248070  32.6686690
 109.9832800   3.4138870  45.2438660 109.8440570   4.2861670  45.6126060
 109.1014160   3.0711680  45.0986600 116.3062180   8.3314740  36.5503790
 116.7458090   9.0739070  36.1359180 116.2449070   8.5741310  37.4742750
 111.7813150   9.3560570  47.4523810 111.7528580   9.7603520  46.5852240
 111.6178120   8.4270930  47.2895410 123.7327970  10.1387670  48.7487980
 124.2087690  10.6170560  49.4277060 124.3535130  10.0705160  48.0233480
 105.9351450   5.1836420  41.1609570 106.0131870   5.3185190  40.2165290
 106.5493130   4.4752310  41.3537690 107.1799080   6.8836610  37.5715750
 106.7727160   7.0251200  36.7169350 108.0712090   6.5996770  37.3686960
 123.1361220   7.3300520  45.9087990 123.2624280   7.0912400  44.9905170
 123.1782600   6.4985060  46.3810070 116.9977960  11.0328520  44.4782800
 117.5122630  10.9436530  45.2805230 116.1547040  11.3788220  44.7710710
 118.9732360  11.3183860  33.9066800 118.8133500  11.0286800  34.8048630
 118.8079070  10.5423990  33.3712030 111.4520740  11.0982390  35.6838420
 111.2763220  10.1817930  35.4706220 110.5976480  11.4569680  35.9236220
 118.6758490   8.8271420  32.4664800 117.9823650   8.8248710  31.8067080
 119.4181350   8.4030740  32.0358970 118.2408420  10.4534130  36.5413290
 118.6965370   9.6723510  36.8551910 118.5800940  11.1640950  37.0854470
 105.9910970   6.2250590  43.7004030 106.1542010   5.7555950  42.8823400
 106.4563420   5.7174150  44.3652870 107.5649950   5.6002020  45.8599840
 107.1804740   4.9595690  46.4582800 107.8762140   6.3038140  46.4294570
 113.7147090   2.4478560  41.3408460 114.0817220   1.9737130  42.0869800
 113.5252150   3.3220130  41.6816800 110.0328250   5.6948190  34.2559520
 109.2590510   5.1545810  34.0958240 110.7622880   5.1754800  33.9177280
 120.7916230   4.6913550  40.0485910 121.5115350   5.1868840  39.6582020
 120.5898050   4.0131440  39.4039780 116.1735030   4.7622610  45.9354910
 116.1072340   3.8418280  45.6812500 115.5440170   4.8598050  46.6499550
 110.0765650   5.3628570  37.8938330 110.5944320   4.5596830  37.8395220
 109.6249670   5.3007710  38.7355160 114.9635150   6.6294850  33.1665630
 115.3050850   7.3737080  32.6708950 114.1347860   6.9425970  33.5290460
 110.7623310   2.7874180  47.6903580 110.4623450   2.9331360  46.7931400
 111.5334550   2.2279470  47.5976970 116.1051760   7.5843180  45.6858710
 116.1196300   6.6524140  45.4677620 115.3976860   7.6702940  46.3248480
 121.2388830   1.7683000  31.9557320 121.1552550   2.1997220  31.1053760
 121.9583020   2.2281350  32.3884140 122.3162970   4.2250520  45.0327290
 121.5911160   4.8179300  44.8356680 122.8438430   4.2174060  44.2340660
 122.2676080   8.6225260  34.6839450 121.6252240   7.9680880  34.9583170
 121.8806740   9.0280350  33.9080120 117.8462560   5.9510690  38.5311140
 118.1986380   5.3538820  37.8712510 116.9624890   5.6254920  38.7019390
 113.9325840   6.7108380  35.9381550 114.6196970   7.2577590  36.3189140
 113.1458260   7.2549110  35.9731160 106.0718240   2.3281200  31.4298630
 106.9413090   2.6106000  31.7134550 105.5808560   3.1417070  31.3147440
 113.2353050   3.7154410  35.5506910 113.6915830   4.5259660  35.7767100
 112.8841260   3.3977550  36.3825400 115.5385660   9.2260750  42.7799210
 116.1827880   9.4320130  43.4572630 115.9015100   8.4649150  42.3270060
 116.8117740   7.2293100  41.4976660 117.4539970   6.5286260  41.6108830
 117.3367090   8.0091540  41.3173550 120.6573460   7.5141720  31.2215800
 120.4311040   6.7972160  31.8140440 120.2669660   7.2654160  30.3837550
 118.5855360   8.0288000  44.7012720 118.9211600   8.6154690  45.3790640
 117.6655700   7.8980710  44.9310510 106.4389490  11.5408580  31.9960260
 106.7987130  12.1397920  31.3417530 106.2981830  12.0868470  32.7695290
 120.2389710   5.4313660  32.8829960 119.9511410   5.8926350  33.6707840
 121.0341880   4.9711430  33.1514180 106.4231350   9.8063440  46.4702660
 106.5322470   8.8658180  46.3298050 105.7711910  10.0718190  45.8216390
 114.4143940   8.0779330  47.8700780 114.0940810   7.3588570  48.4146470
 113.7402300   8.7534400  47.9436840 112.4558110   8.9239780  32.8133930
 112.4468210   9.6569470  32.1978440 111.5356470   8.6771360  32.9060890
 108.0564750   4.1454670  33.5580690 107.4492700   4.8853570  33.5675990
 108.5314100   4.2354030  32.7318890 115.4417710   8.9868020  31.4759120
 115.5429690   8.7832010  30.5461100 114.5419450   8.7326300  31.6806900
 114.0835820  11.5054340  36.1706790 114.3377320  11.4675730  35.2486160
 113.1348300  11.3787670  36.1635040 110.0670040   4.1065820  31.3069260
 110.8333310   3.9947180  31.8694690 110.1444730   3.4103790  30.6546030
 122.0913980   9.5955070  39.4219560 122.2161400  10.4186240  39.8943370
 122.9579540   9.3845800  39.0743710 109.5631510  11.6886280  39.0936690
 110.2993990  11.1401740  39.3645260 109.9472430  12.5542290  38.9542680
 106.4476990   7.7559850  34.9678200 105.5216770   7.9980990  34.9583610
 106.9133420   8.5834110  34.8462950 108.5689790  10.8732350  48.2822270
 109.3702520  11.1944400  48.6957670 108.0541610  10.5127930  49.0042180
 112.6733820  10.8616590  30.9162260 113.4662430  11.1505420  30.4644050
 112.1538170  10.4308760  30.2374740 117.4054420   6.9812220  48.2297680
 116.7992580   7.0043820  47.4893430 117.1008530   6.2495260  48.7664930
 118.8354790  10.7092510  46.8407090 119.7876540  10.6250530  46.7907330
 118.6883010  11.3734220  47.5140880 121.7263990  10.0886720  32.3399000
 121.4405500   9.6751860  31.5253180 121.5283540  11.0174430  32.2199520
 106.2887600   3.3605810  47.2258320 106.7926620   2.7813090  47.7974550
 105.5495020   3.6446040  47.7634690 113.1911220   6.0820000  30.7804610
 113.0861860   5.4672350  31.5065990 113.0235440   5.5585890  29.9967620
 113.3425540   4.7676800  46.7593840 112.5771210   5.3361800  46.6748510
 113.5241500   4.4753010  45.8662070 116.4313950   5.1440030  31.3846600
 115.8824050   5.5909330  32.0289340 117.0533210   4.6389280  31.9084270
 120.4848890   6.4982130  47.3168860 121.2258360   6.8357890  46.8136320
 119.7221570   6.6674190  46.7638630 112.0989070   4.1030950  33.2811900
 112.5205490   3.9370820  34.1243290 112.2239910   3.2931180  32.7867040
 114.6116710   3.1268560  30.5289000 115.1322370   2.4117580  30.1630150
 115.2585110   3.7654430  30.8289510 119.1594550   4.5496960  45.8524070
 119.5735570   4.7042040  46.7014490 118.2245550   4.6752180  46.0149850
 113.9209780   4.5017440  43.8220000 114.3397890   5.3450170  43.6496240
 113.0018410   4.6389480  43.5926780 118.5961580   2.7870810  43.7820350
 118.0696800   3.3113430  43.1785490 118.9392920   3.4198200  44.4130080
 111.7717200  10.8070450  44.9377730 111.2338290  11.5316510  44.6186430
 112.0251160  10.3300790  44.1475070 114.6279410  12.0421660  45.1964380
 114.5538110  12.9456800  45.5036750 113.7258250  11.7233560  45.1686450
 115.1764740  11.2080170  32.8190740 116.0715530  11.5465140  32.8409500
 115.2082370  10.4859580  32.1915020 108.8160900   6.5807220  31.0477740
 109.2535770   7.1236890  31.7035320 109.3008630   5.7554170  31.0574080
 106.0306700   9.3696250  38.4998000 106.3609710   8.5017310  38.2676640
 106.4597700   9.5754770  39.3302960 110.6268620   7.7005260  36.1599970
 110.3264160   7.5770230  37.0603880 110.5206110   6.8413850  35.7515700
 106.5196910  10.2366840  41.2379630 106.0827900  10.4167640  42.0703780
 107.0874590  10.9941460  41.0961350 122.1559090   9.7383840  45.5256940
 121.5561080   9.7976400  44.7820860 122.2852990   8.7988820  45.6553790
 123.3960540   7.4801660  30.8626650 122.5653500   7.5478310  31.3333880
 123.5732370   8.3705780  30.5593510 122.8517000   4.2249140  33.3660850
 123.6135910   4.7945790  33.4720540 122.8671370   3.6576340  34.1369160
 106.3521340   2.7487070  37.5968510 105.6970180   2.4798710  36.9528210
 107.1899290   2.6391550  37.1470490 123.8576970   5.0799240  38.2102780
 124.2285800   4.2966560  37.8038750 124.4978900   5.7688340  38.0320080
 120.8410730   6.4635820  43.6233100 120.0270570   6.8932980  43.8858890
 121.2484930   7.0754230  43.0102150 122.9036170   4.5183510  30.5233370
 123.1785010   5.4262390  30.3952590 122.7146910   4.4546040  31.4595360
 122.8001510   2.4552500  35.5162800 122.4245110   1.6880430  35.0844090
 122.0704630   2.8375200  36.0037730 107.3897270   3.1339640  42.1371850
 107.7570310   3.0467040  43.0167870 106.8208090   2.3706190  42.0378710
 120.8986780  11.2154420  37.1501370 121.4945850  10.8938990  36.4735790
 121.1564930  10.7426240  37.9414640 108.8049350   7.6472330  47.2992000
 108.7618980   7.2765240  48.1806460 108.9360360   8.5849900  47.4393820
 112.5055380   9.2031920  42.9001720 112.2646740   9.4706480  42.0132240
 113.4458020   9.3737650  42.9552580 123.7659540  11.2226300  43.7012360
 123.2717820  11.6195170  42.9839490 123.1572830  10.5975510  44.0949640
 108.6437380  10.5934580  44.4189780 108.0497700  10.4619280  45.1579820
 108.6361220   9.7572720  43.9531880 121.4498990  11.8649720  40.9799100
 120.9901960  12.6165530  40.6057120 120.8211450  11.1456190  40.9213900
 108.2749610   7.9592960  43.3697820 107.5483670   7.3398250  43.3023770
 108.3358760   8.3533570  42.4995900 111.8794710  10.1737960  40.1547230
 112.3959730   9.5625320  39.6295490 112.5292090  10.6766740  40.6458240
 114.6190210  11.0646450  40.9816210 114.9068020  10.8100750  40.1049220
 115.1313430  10.5123810  41.5721780 106.5579610  11.2767350  36.5794580
 106.3901650  10.6438030  37.2776470 105.6914120  11.4826750  36.2288770
 108.1642310   9.9700580  34.0244720 107.6389930  10.3508610  33.3206680
 108.0886890  10.5951350  34.7454430 114.6862570  11.9862550  48.3484410
 115.6129880  11.7506820  48.3920370 114.6713000  12.8134550  47.8670440
 122.9207630  11.5288120  35.3458660 123.0959820  10.8425860  34.7019580
 122.2229200  12.0535170  34.9535330 110.7635280  11.9182960  32.8993970
 111.4954100  11.6342240  32.3517860 111.0228950  11.6796240  33.7893350
 109.9250070   8.0347690  32.9040300 109.2958950   8.5032790  33.4526130
 110.0397900   7.1896910  33.3386490 121.2540130  11.2132410  48.1725450
 122.0465450  10.7181640  47.9651410 121.5473280  11.8922550  48.7801060
 115.5117830   3.8632370  20.9350770 114.7359930   3.3832810  21.2249340
 116.1630760   3.1838020  20.7606930 109.5283660   4.1752180  21.8126530
 108.6968540   3.9200890  22.2123040 110.1364640   4.2462950  22.5484450
 119.5325260   8.2692560  19.7149900 119.0706790   7.4979800  20.0437070
 120.3450810   8.2958630  20.2202350 109.5084920   8.2092270  22.0084550
 109.8112960   7.3190010  21.8294770 110.2528510   8.7662490  21.7806800
 115.7588570  10.5550570  19.3353890 115.1400010  11.0108070  18.7648330
 116.6140350  10.7102030  18.9343590 114.9526820   6.5389560  20.9420930
 114.8835100   5.5979500  20.7810060 115.7146680   6.6290970  21.5143500
 116.6251920   5.4389810  16.7285800 116.0069190   5.9039260  16.1648520
 117.1375170   6.1317290  17.1455310 111.4883680   4.9665680  23.4069400
 111.1553060   5.5934600  24.0490470 111.6650360   5.4927560  22.6271070
 110.7002780   6.9346480  25.2218580 111.3176780   7.6097560  24.9403030
 109.8395900   7.3434460  25.1306080 105.9935120   6.1246340  14.1025430
 105.6163100   6.6133440  13.3710330 106.2508190   6.7971620  14.7331960
 121.6180370   8.3985890  23.1373220 120.9343890   9.0685000  23.1289890
 122.1574660   8.5966540  22.3718080 119.1539110  10.2430020  21.8518400
 119.1666270   9.8392310  20.9840660 118.6014330  11.0177310  21.7479830
 120.4484530   6.9646240  16.9408570 120.3380860   6.0220570  17.0657990
 120.4452780   7.3261880  17.8271330 118.5524550   5.1459860  23.1801010
 118.9693340   4.9319970  22.3454470 119.2764370   5.4032650  23.7509630
 115.9904810   2.5911560  16.2971060 115.0634090   2.5248940  16.5259530
 116.1429630   3.5291690  16.1826300 122.4986650   3.5447080  23.2717250
 121.6705280   3.6140170  22.7967380 123.0937130   4.1301390  22.8033080
 120.0202100   4.1531860  16.8006310 119.4014520   3.8151410  16.1532610
 120.0026550   3.5091620  17.5085500 111.5961450   3.1176300  19.0790790
 111.1918450   2.4053550  18.5836690 111.6824570   2.7729540  19.9678830
 112.0643150   6.8043860  21.2430000 111.7671440   6.1989330  20.5637780
 113.0142970   6.8421170  21.1319360 120.1528760  10.3775730  24.9053100
 119.6759320  11.1847920  24.7125710 119.4690550   9.7254060  25.0579310
 111.1561580   6.5425550  27.8937800 110.2590110   6.7665520  28.1411200
 111.1814450   6.6660490  26.9449200 118.1966800   3.3918670  13.8079060
 118.6360080   2.5541100  13.6616880 118.9095220   4.0248070  13.8943200
 109.9832800   3.4138870  26.4695170 109.8440570   4.2861670  26.8382570
 109.1014160   3.0711680  26.3243110 116.3062180   8.3314740  17.7760300
 116.7458090   9.0739070  17.3615690 116.2449070   8.5741310  18.6999260
 111.7813150   9.3560570  28.6780320 111.7528580   9.7603520  27.8108750
 111.6178120   8.4270930  28.5151920 123.7327970  10.1387670  29.9744490
 124.2087690  10.6170560  30.6533570 124.3535130  10.0705160  29.2489990
 105.9351450   5.1836420  22.3866080 106.0131870   5.3185190  21.4421800
 106.5493130   4.4752310  22.5794200 107.1799080   6.8836610  18.7972260
 106.7727160   7.0251200  17.9425860 108.0712090   6.5996770  18.5943470
 123.1361220   7.3300520  27.1344500 123.2624280   7.0912400  26.2161680
 123.1782600   6.4985060  27.6066580 116.9977960  11.0328520  25.7039310
 117.5122630  10.9436530  26.5061740 116.1547040  11.3788220  25.9967220
 118.9732360  11.3183860  15.1323310 118.8133500  11.0286800  16.0305140
 118.8079070  10.5423990  14.5968540 111.4520740  11.0982390  16.9094930
 111.2763220  10.1817930  16.6962730 110.5976480  11.4569680  17.1492730
 118.6758490   8.8271420  13.6921310 117.9823650   8.8248710  13.0323590
 119.4181350   8.4030740  13.2615480 118.2408420  10.4534130  17.7669800
 118.6965370   9.6723510  18.0808420 118.5800940  11.1640950  18.3110980
 105.9910970   6.2250590  24.9260540 106.1542010   5.7555950  24.1079910
 106.4563420   5.7174150  25.5909380 107.5649950   5.6002020  27.0856350
 107.1804740   4.9595690  27.6839310 107.8762140   6.3038140  27.6551080
 113.7147090   2.4478560  22.5664970 114.0817220   1.9737130  23.3126310
 113.5252150   3.3220130  22.9073310 110.0328250   5.6948190  15.4816030
 109.2590510   5.1545810  15.3214750 110.7622880   5.1754800  15.1433790
 120.7916230   4.6913550  21.2742420 121.5115350   5.1868840  20.8838530
 120.5898050   4.0131440  20.6296290 116.1735030   4.7622610  27.1611420
 116.1072340   3.8418280  26.9069010 115.5440170   4.8598050  27.8756060
 110.0765650   5.3628570  19.1194840 110.5944320   4.5596830  19.0651730
 109.6249670   5.3007710  19.9611670 114.9635150   6.6294850  14.3922140
 115.3050850   7.3737080  13.8965460 114.1347860   6.9425970  14.7546970
 110.7623310   2.7874180  28.9160090 110.4623450   2.9331360  28.0187910
 111.5334550   2.2279470  28.8233480 116.1051760   7.5843180  26.9115220
 116.1196300   6.6524140  26.6934130 115.3976860   7.6702940  27.5504990
 121.2388830   1.7683000  13.1813830 121.1552550   2.1997220  12.3310270
 121.9583020   2.2281350  13.6140650 122.3162970   4.2250520  26.2583800
 121.5911160   4.8179300  26.0613190 122.8438430   4.2174060  25.4597170
 122.2676080   8.6225260  15.9095960 121.6252240   7.9680880  16.1839680
 121.8806740   9.0280350  15.1336630 117.8462560   5.9510690  19.7567650
 118.1986380   5.3538820  19.0969020 116.9624890   5.6254920  19.9275900
 113.9325840   6.7108380  17.1638060 114.6196970   7.2577590  17.5445650
 113.1458260   7.2549110  17.1987670 106.0718240   2.3281200  12.6555140
 106.9413090   2.6106000  12.9391060 105.5808560   3.1417070  12.5403950
 113.2353050   3.7154410  16.7763420 113.6915830   4.5259660  17.0023610
 112.8841260   3.3977550  17.6081910 115.5385660   9.2260750  24.0055720
 116.1827880   9.4320130  24.6829140 115.9015100   8.4649150  23.5526570
 116.8117740   7.2293100  22.7233170 117.4539970   6.5286260  22.8365340
 117.3367090   8.0091540  22.5430060 120.6573460   7.5141720  12.4472310
 120.4311040   6.7972160  13.0396950 120.2669660   7.2654160  11.6094060
 118.5855360   8.0288000  25.9269230 118.9211600   8.6154690  26.6047150
 117.6655700   7.8980710  26.1567020 106.4389490  11.5408580  13.2216770
 106.7987130  12.1397920  12.5674040 106.2981830  12.0868470  13.9951800
 120.2389710   5.4313660  14.1086470 119.9511410   5.8926350  14.8964350
 121.0341880   4.9711430  14.3770690 106.4231350   9.8063440  27.6959170
 106.5322470   8.8658180  27.5554560 105.7711910  10.0718190  27.0472900
 114.4143940   8.0779330  29.0957290 114.0940810   7.3588570  29.6402980
 113.7402300   8.7534400  29.1693350 112.4558110   8.9239780  14.0390440
 112.4468210   9.6569470  13.4234950 111.5356470   8.6771360  14.1317400
 108.0564750   4.1454670  14.7837200 107.4492700   4.8853570  14.7932500
 108.5314100   4.2354030  13.9575400 115.4417710   8.9868020  12.7015630
 115.5429690   8.7832010  11.7717610 114.5419450   8.7326300  12.9063410
 114.0835820  11.5054340  17.3963300 114.3377320  11.4675730  16.4742670
 113.1348300  11.3787670  17.3891550 110.0670040   4.1065820  12.5325770
 110.8333310   3.9947180  13.0951200 110.1444730   3.4103790  11.8802540
 122.0913980   9.5955070  20.6476070 122.2161400  10.4186240  21.1199880
 122.9579540   9.3845800  20.3000220 109.5631510  11.6886280  20.3193200
 110.2993990  11.1401740  20.5901770 109.9472430  12.5542290  20.1799190
 106.4476990   7.7559850  16.1934710 105.5216770   7.9980990  16.1840120
 106.9133420   8.5834110  16.0719460 108.5689790  10.8732350  29.5078780
 109.3702520  11.1944400  29.9214180 108.0541610  10.5127930  30.2298690
 112.6733820  10.8616590  12.1418770 113.4662430  11.1505420  11.6900560
 112.1538170  10.4308760  11.4631250 117.4054420   6.9812220  29.4554190
 116.7992580   7.0043820  28.7149940 117.1008530   6.2495260  29.9921440
 118.8354790  10.7092510  28.0663600 119.7876540  10.6250530  28.0163840
 118.6883010  11.3734220  28.7397390 121.7263990  10.0886720  13.5655510
 121.4405500   9.6751860  12.7509690 121.5283540  11.0174430  13.4456030
 106.2887600   3.3605810  28.4514830 106.7926620   2.7813090  29.0231060
 105.5495020   3.6446040  28.9891200 113.1911220   6.0820000  12.0061120
 113.0861860   5.4672350  12.7322500 113.0235440   5.5585890  11.2224130
 113.3425540   4.7676800  27.9850350 112.5771210   5.3361800  27.9005020
 113.5241500   4.4753010  27.0918580 116.4313950   5.1440030  12.6103110
 115.8824050   5.5909330  13.2545850 117.0533210   4.6389280  13.1340780
 120.4848890   6.4982130  28.5425370 121.2258360   6.8357890  28.0392830
 119.7221570   6.6674190  27.9895140 112.0989070   4.1030950  14.5068410
 112.5205490   3.9370820  15.3499800 112.2239910   3.2931180  14.0123550
 114.6116710   3.1268560  11.7545510 115.1322370   2.4117580  11.3886660
 115.2585110   3.7654430  12.0546020 119.1594550   4.5496960  27.0780580
 119.5735570   4.7042040  27.9271000 118.2245550   4.6752180  27.2406360
 113.9209780   4.5017440  25.0476510 114.3397890   5.3450170  24.8752750
 113.0018410   4.6389480  24.8183290 118.5961580   2.7870810  25.0076860
 118.0696800   3.3113430  24.4042000 118.9392920   3.4198200  25.6386590
 111.7717200  10.8070450  26.1634240 111.2338290  11.5316510  25.8442940
 112.0251160  10.3300790  25.3731580 114.6279410  12.0421660  26.4220890
 114.5538110  12.9456800  26.7293260 113.7258250  11.7233560  26.3942960
 115.1764740  11.2080170  14.0447250 116.0715530  11.5465140  14.0666010
 115.2082370  10.4859580  13.4171530 108.8160900   6.5807220  12.2734250
 109.2535770   7.1236890  12.9291830 109.3008630   5.7554170  12.2830590
 106.0306700   9.3696250  19.7254510 106.3609710   8.5017310  19.4933150
 106.4597700   9.5754770  20.5559470 110.6268620   7.7005260  17.3856480
 110.3264160   7.5770230  18.2860390 110.5206110   6.8413850  16.9772210
 106.5196910  10.2366840  22.4636140 106.0827900  10.4167640  23.2960290
 107.0874590  10.9941460  22.3217860 122.1559090   9.7383840  26.7513450
 121.5561080   9.7976400  26.0077370 122.2852990   8.7988820  26.8810300
 123.3960540   7.4801660  12.0883160 122.5653500   7.5478310  12.5590390
 123.5732370   8.3705780  11.7850020 122.8517000   4.2249140  14.5917360
 123.6135910   4.7945790  14.6977050 122.8671370   3.6576340  15.3625670
 106.3521340   2.7487070  18.8225020 105.6970180   2.4798710  18.1784720
 107.1899290   2.6391550  18.3727000 123.8576970   5.0799240  19.4359290
 124.2285800   4.2966560  19.0295260 124.4978900   5.7688340  19.2576590
 120.8410730   6.4635820  24.8489610 120.0270570   6.8932980  25.1115400
 121.2484930   7.0754230  24.2358660 122.9036170   4.5183510  11.7489880
 123.1785010   5.4262390  11.6209100 122.7146910   4.4546040  12.6851870
 122.8001510   2.4552500  16.7419310 122.4245110   1.6880430  16.3100600
 122.0704630   2.8375200  17.2294240 107.3897270   3.1339640  23.3628360
 107.7570310   3.0467040  24.2424380 106.8208090   2.3706190  23.2635220
 120.8986780  11.2154420  18.3757880 121.4945850  10.8938990  17.6992300
 121.1564930  10.7426240  19.1671150 108.8049350   7.6472330  28.5248510
 108.7618980   7.2765240  29.4062970 108.9360360   8.5849900  28.6650330
 112.5055380   9.2031920  24.1258230 112.2646740   9.4706480  23.2388750
 113.4458020   9.3737650  24.1809090 123.7659540  11.2226300  24.9268870
 123.2717820  11.6195170  24.2096000 123.1572830  10.5975510  25.3206150
 108.6437380  10.5934580  25.6446290 108.0497700  10.4619280  26.3836330
 108.6361220   9.7572720  25.1788390 121.4498990  11.8649720  22.2055610
 120.9901960  12.6165530  21.8313630 120.8211450  11.1456190  22.1470410
 108.2749610   7.9592960  24.5954330 107.5483670   7.3398250  24.5280280
 108.3358760   8.3533570  23.7252410 111.8794710  10.1737960  21.3803740
 112.3959730   9.5625320  20.8552000 112.5292090  10.6766740  21.8714750
 114.6190210  11.0646450  22.2072720 114.9068020  10.8100750  21.3305730
 115.1313430  10.5123810  22.7978290 106.5579610  11.2767350  17.8051090
 106.3901650  10.6438030  18.5032980 105.6914120  11.4826750  17.4545280
 108.1642310   9.9700580  15.2501230 107.6389930  10.3508610  14.5463190
 108.0886890  10.5951350  15.9710940 114.6862570  11.9862550  29.5740920
 115.6129880  11.7506820  29.6176880 114.6713000  12.8134550  29.0926950
 122.9207630  11.5288120  16.5715170 123.0959820  10.8425860  15.9276090
 122.2229200  12.0535170  16.1791840 110.7635280  11.9182960  14.1250480
 111.4954100  11.6342240  13.5774370 111.0228950  11.6796240  15.0149860
 109.9250070   8.0347690  14.1296810 109.2958950   8.5032790  14.6782640
 110.0397900   7.1896910  14.5643000 121.2540130  11.2132410  29.3981960
 122.0465450  10.7181640  29.1907920 121.5473280  11.8922550  30.0057570
 115.5117830   3.8632370   2.1607280 114.7359930   3.3832810   2.4505850
 116.1630760   3.1838020   1.9863440 109.5283660   4.1752180   3.0383040
 108.6968540   3.9200890   3.4379550 110.1364640   4.2462950   3.7740960
 109.5084920   8.2092270   3.2341060 109.8112960   7.3190010   3.0551280
 110.2528510   8.7662490   3.0063310 114.9526820   6.5389560   2.1677440
 114.8835100   5.5979500   2.0066570 115.7146680   6.6290970   2.7400010
 111.4883680   4.9665680   4.6325910 111.1553060   5.5934600   5.2746980
 111.6650360   5.4927560   3.8527580 110.7002780   6.9346480   6.4475090
 111.3176780   7.6097560   6.1659540 109.8395900   7.3434460   6.3562590
 121.6180370   8.3985890   4.3629730 120.9343890   9.0685000   4.3546400
 122.1574660   8.5966540   3.5974590 119.1539110  10.2430020   3.0774910
 119.1666270   9.8392310   2.2097170 118.6014330  11.0177310   2.9736340
 118.5524550   5.1459860   4.4057520 118.9693340   4.9319970   3.5710980
 119.2764370   5.4032650   4.9766140 122.4986650   3.5447080   4.4973760
 121.6705280   3.6140170   4.0223890 123.0937130   4.1301390   4.0289590
 112.0643150   6.8043860   2.4686510 111.7671440   6.1989330   1.7894290
 113.0142970   6.8421170   2.3575870 120.1528760  10.3775730   6.1309610
 119.6759320  11.1847920   5.9382220 119.4690550   9.7254060   6.2835820
 111.1561580   6.5425550   9.1194310 110.2590110   6.7665520   9.3667710
 111.1814450   6.6660490   8.1705710 109.9832800   3.4138870   7.6951680
 109.8440570   4.2861670   8.0639080 109.1014160   3.0711680   7.5499620
 111.7813150   9.3560570   9.9036830 111.7528580   9.7603520   9.0365260
 111.6178120   8.4270930   9.7408430 123.7327970  10.1387670  11.2001000
 124.2087690  10.6170560  11.8790080 124.3535130  10.0705160  10.4746500
 105.9351450   5.1836420   3.6122590 106.0131870   5.3185190   2.6678310
 106.5493130   4.4752310   3.8050710 123.1361220   7.3300520   8.3601010
 123.2624280   7.0912400   7.4418190 123.1782600   6.4985060   8.8323090
 116.9977960  11.0328520   6.9295820 117.5122630  10.9436530   7.7318250
 116.1547040  11.3788220   7.2223730 105.9910970   6.2250590   6.1517050
 106.1542010   5.7555950   5.3336420 106.4563420   5.7174150   6.8165890
 107.5649950   5.6002020   8.3112860 107.1804740   4.9595690   8.9095820
 107.8762140   6.3038140   8.8807590 113.7147090   2.4478560   3.7921480
 114.0817220   1.9737130   4.5382820 113.5252150   3.3220130   4.1329820
 120.7916230   4.6913550   2.4998930 121.5115350   5.1868840   2.1095040
 120.5898050   4.0131440   1.8552800 116.1735030   4.7622610   8.3867930
 116.1072340   3.8418280   8.1325520 115.5440170   4.8598050   9.1012570
 110.7623310   2.7874180  10.1416600 110.4623450   2.9331360   9.2444420
 111.5334550   2.2279470  10.0489990 116.1051760   7.5843180   8.1371730
 116.1196300   6.6524140   7.9190640 115.3976860   7.6702940   8.7761500
 122.3162970   4.2250520   7.4840310 121.5911160   4.8179300   7.2869700
 122.8438430   4.2174060   6.6853680 115.5385660   9.2260750   5.2312230
 116.1827880   9.4320130   5.9085650 115.9015100   8.4649150   4.7783080
 116.8117740   7.2293100   3.9489680 117.4539970   6.5286260   4.0621850
 117.3367090   8.0091540   3.7686570 118.5855360   8.0288000   7.1525740
 118.9211600   8.6154690   7.8303660 117.6655700   7.8980710   7.3823530
 106.4231350   9.8063440   8.9215680 106.5322470   8.8658180   8.7811070
 105.7711910  10.0718190   8.2729410 114.4143940   8.0779330  10.3213800
 114.0940810   7.3588570  10.8659490 113.7402300   8.7534400  10.3949860
 108.5689790  10.8732350  10.7335290 109.3702520  11.1944400  11.1470690
 108.0541610  10.5127930  11.4555200 117.4054420   6.9812220  10.6810700
 116.7992580   7.0043820   9.9406450 117.1008530   6.2495260  11.2177950
 118.8354790  10.7092510   9.2920110 119.7876540  10.6250530   9.2420350
 118.6883010  11.3734220   9.9653900 106.2887600   3.3605810   9.6771340
 106.7926620   2.7813090  10.2487570 105.5495020   3.6446040  10.2147710
 113.3425540   4.7676800   9.2106860 112.5771210   5.3361800   9.1261530
 113.5241500   4.4753010   8.3175090 120.4848890   6.4982130   9.7681880
 121.2258360   6.8357890   9.2649340 119.7221570   6.6674190   9.2151650
 119.1594550   4.5496960   8.3037090 119.5735570   4.7042040   9.1527510
 118.2245550   4.6752180   8.4662870 113.9209780   4.5017440   6.2733020
 114.3397890   5.3450170   6.1009260 113.0018410   4.6389480   6.0439800
 118.5961580   2.7870810   6.2333370 118.0696800   3.3113430   5.6298510
 118.9392920   3.4198200   6.8643100 111.7717200  10.8070450   7.3890750
 111.2338290  11.5316510   7.0699450 112.0251160  10.3300790   6.5988090
 114.6279410  12.0421660   7.6477400 114.5538110  12.9456800   7.9549770
 113.7258250  11.7233560   7.6199470 106.5196910  10.2366840   3.6892650
 106.0827900  10.4167640   4.5216800 107.0874590  10.9941460   3.5474370
 122.1559090   9.7383840   7.9769960 121.5561080   9.7976400   7.2333880
 122.2852990   8.7988820   8.1066810 120.8410730   6.4635820   6.0746120
 120.0270570   6.8932980   6.3371910 121.2484930   7.0754230   5.4615170
 107.3897270   3.1339640   4.5884870 107.7570310   3.0467040   5.4680890
 106.8208090   2.3706190   4.4891730 108.8049350   7.6472330   9.7505020
 108.7618980   7.2765240  10.6319480 108.9360360   8.5849900   9.8906840
 112.5055380   9.2031920   5.3514740 112.2646740   9.4706480   4.4645260
 113.4458020   9.3737650   5.4065600 123.7659540  11.2226300   6.1525380
 123.2717820  11.6195170   5.4352510 123.1572830  10.5975510   6.5462660
 108.6437380  10.5934580   6.8702800 108.0497700  10.4619280   7.6092840
 108.6361220   9.7572720   6.4044900 121.4498990  11.8649720   3.4312120
 120.9901960  12.6165530   3.0570140 120.8211450  11.1456190   3.3726920
 108.2749610   7.9592960   5.8210840 107.5483670   7.3398250   5.7536790
 108.3358760   8.3533570   4.9508920 111.8794710  10.1737960   2.6060250
 112.3959730   9.5625320   2.0808510 112.5292090  10.6766740   3.0971260
 114.6190210  11.0646450   3.4329230 114.9068020  10.8100750   2.5562240
 115.1313430  10.5123810   4.0234800 114.6862570  11.9862550  10.7997430
 115.6129880  11.7506820  10.8433390 114.6713000  12.8134550  10.3183460
 121.2540130  11.2132410  10.6238470 122.0465450  10.7181640  10.4164430
 121.5473280  11.8922550  11.2314080  98.6056300 152.2801270 150.4745930
  98.5250350 151.3655880 150.2037640  98.1920720 152.7768340 149.7685640
  89.1632120 149.3301990 147.0173350  88.2748820 149.6717960 146.9153230
  89.4473310 149.1302310 146.1254180  91.3393510 147.9133490 148.0511730
  91.4460260 148.8137220 148.3580490  90.4285870 147.8651460 147.7606380
 100.9912620 147.0358300 149.5222630 101.8122240 146.5454870 149.5648110
 101.0246700 147.6255960 150.2754470  94.8280560 144.7210650 150.9815370
  95.1355540 144.1657540 150.2650870  93.8981260 144.8555110 150.7988360
  97.2161320 152.7859480 147.7175490  96.2890600 152.7196860 147.9463960
  97.3686140 153.7239610 147.6030730  97.2030400 149.0576480 144.7142650
  96.2634070 149.2190440 144.7995110  97.5213660 149.7762160 144.1678640
  92.8217960 153.3124220 150.4995220  92.4174960 152.6001470 150.0041120
  92.9081080 152.9677460 151.3883260  99.4223310 153.5866590 145.2283490
  99.8616590 152.7489020 145.0821310 100.1351730 154.2195990 145.3147630
 103.0040450 144.8409400 143.5424530 102.6913110 144.9336230 144.4423600
 103.7652920 145.4190430 143.4921960  89.5222590 152.2069200 148.0001870
  89.4020190 152.9331290 147.3883140  89.2123480 151.4372110 147.5229780
  91.9886250 145.5504270 151.3825540  91.5454400 146.3313810 151.0510060
  92.5471240 145.8734160 152.0896480  95.1045070 145.1714970 146.2631370
  94.4799250 145.1674840 146.9884680  95.0175190 144.3045930 145.8667340
  91.7800470 150.6737840 149.1106790  91.5541390 150.4575010 150.0153410
  90.9993000 151.1066300 148.7652760  99.0098230 150.6801210 147.7097440
  98.4107120 151.4037010 147.5261060  99.5577840 150.6177990 146.9273890
  97.6163100 149.3164750 149.7400720  98.0092670 149.6336950 148.9269410
  97.9779950 148.4376630 149.8545240  86.8397500 149.8485670 143.1733640
  86.7572170 150.7916430 143.3148630  86.4880560 149.7060580 142.2945990
  94.6395630 148.5824700 152.2403990  94.6431690 148.1414650 151.3908530
  95.5346750 148.9042030 152.3475810  90.4898010 148.4651190 151.1998200
  90.1498060 148.9426420 151.9565250  89.7275330 148.0116310 150.8399300
  94.7015780 149.5836780 145.2310750  94.8228600 149.5423260 146.1796570
  94.3164290 150.4460930 145.0757480  93.7137280 151.8937920 144.6294050
  93.1454180 151.4456170 144.0029960  94.4226280 152.2530700 144.0959200
  87.8044090 147.3870170 150.1162870  87.5191010 147.0225840 150.9541490
  87.7422950 146.6550630 149.5026010  97.4782680 146.2799430 146.8376240
  96.6647290 145.7812600 146.7621550  97.2844630 147.1197680 146.4212590
 100.1931070 150.6519080 145.1338400 101.0810690 150.9636310 144.9589740
 100.1636160 149.7791330 144.7418980 102.4645340 151.9630920 144.6018260
 102.3809060 152.3945140 143.7514700 103.1839530 152.4229270 145.0345080
  87.2974750 152.5229120 144.0759570  88.1669600 152.8053920 144.3595490
  86.8065070 153.3364990 143.9608380  90.3621340 144.2539980 148.6690370
  90.2335970 144.2457880 149.6175290  89.5383360 144.5923070 148.3181380
 102.2216080 147.4610350 146.6886080 101.5929240 147.5656020 145.9744310
 101.7268000 147.6807130 147.4779960  94.1900110 149.7396300 148.1043960
  93.4816260 150.2082640 148.5457570  94.4744590 149.0818310 148.7389150
  98.2215540 146.4646960 149.5439750  98.0983320 146.4833090 148.5949260
  99.1700100 146.5125900 149.6638150  92.3935130 148.0481380 145.4794670
  93.2425660 148.4851530 145.4134860  92.0266400 148.3601640 146.3066730
 101.3144910 152.6194140 150.3926240 100.3735050 152.6344370 150.5673930
 101.6288980 151.8330100 150.8386540  91.2926550 154.3013740 143.9530200
  92.0589820 154.1895100 144.5155630  91.3701240 153.6051710 143.3006970
  89.9873310 151.7338810 144.6363090  90.0676900 150.7866320 144.7480490
  90.8793060 152.0645690 144.7423750  93.3245580 154.2978870 145.9272840
  93.7462000 154.1318740 146.7704230  93.4496420 153.4879100 145.4327980
  95.8373220 153.3216480 143.1749940  96.3578880 152.6065500 142.8091090
  96.4841620 153.9602350 143.4750450  92.2204480 150.3712100 142.8731000
  92.0193540 149.5079460 143.2344340  92.0496530 150.2845460 141.9352600
  99.6992790 145.1820330 145.4017880  99.9795080 144.3388230 145.7577300
  98.9258520 145.4143440 145.9156630  91.0187280 147.4712720 142.8608880
  91.3213180 147.4780150 141.9528030  91.7581870 147.1210580 143.3576540
  94.2372210 146.4147340 143.8465080  93.8894210 145.7371330 143.2667530
  94.4384980 145.9536850 144.6608470  87.5777850 152.9434990 150.2429450
  86.9226690 152.6746630 149.5989150  88.4155800 152.8339470 149.7931430
 100.5268290 147.7376280 144.4647940 100.9453170 147.5507260 143.6244600
 100.2204350 146.8855330 144.7750870 104.0258020 152.6500420 148.1623740
 103.6501620 151.8828350 147.7305030 103.2961140 153.0323120 148.6498670
  86.7915930 150.1533920 146.1854780  85.8880010 150.4164120 146.0106440
  87.2756550 150.4245090 145.4054740 103.3008980 150.8757910 151.4630980
 103.8246460 150.3820560 150.8321150 103.8868400 151.0108270 152.2078550
  89.3343140 149.2099460 144.0949160  90.0434840 148.7882680 143.6096440
  88.6183080 149.2774690 143.4632510  88.9817300 145.2638790 143.1351810
  89.7045430 145.8047730 143.4533030  89.2541820 144.9902210 142.2593350
 102.7908950 150.1331260 147.4023390 103.2868070 149.9002130 148.1872270
 102.5925020 149.2943100 146.9861030 104.2196110 148.7692210 149.9361070
 104.1095390 148.6148250 150.8743340 104.9803700 148.2413150 149.6936480
 105.1086380 146.6000130 143.1767210 106.0335690 146.4681310 142.9685500
 105.0862170 146.6792950 144.1303660 105.1824870 147.3710790 145.8023920
 104.3876370 147.3055910 146.3316830 105.3868150 148.3061430 145.7909270
 101.6144800 145.7007670 152.2522750 102.0552890 145.6452770 151.4044350
 101.3452390 146.6165680 152.3232930 103.4783370 145.3322910 150.2631570
 103.4171770 144.3884130 150.1162590 104.2575400 145.4403000 150.8085030
  88.4064140 145.3032050 146.7287380  89.1643500 145.4160930 146.1551410
  87.9441310 146.1401250 146.6830810  94.9477950 147.4171320 149.7189690
  94.1352460 147.0428210 149.3785570  95.4519590 146.6616400 150.0210880
  99.4502930 144.0813770 150.9572760 100.0532300 144.6533980 151.4321280
  98.7095920 144.6453210 150.7346660 102.5937530 144.4835330 146.2313040
 102.7888160 145.3818780 146.4980470 101.8067400 144.2522410 146.7245990
  90.7789290 145.8296100 145.2689350  91.3082050 145.0425900 145.1397300
  91.4117610 146.5087290 145.5024880  92.9727130 145.5671240 148.3234740
  92.3429870 144.8658550 148.4904870  92.4332270 146.3275370 148.1067900
  98.6056300 152.2801270 131.7002440  98.5250350 151.3655880 131.4294150
  98.1920720 152.7768340 130.9942150  96.7374340 154.0580290 133.5811710
  95.9616440 153.5780730 133.8710280  97.3887270 153.3785940 133.4067870
  89.1632120 149.3301990 128.2429860  88.2748820 149.6717960 128.1409740
  89.4473310 149.1302310 127.3510690  87.1265130 151.9307640 134.1269560
  87.6981240 151.1629840 134.1273200  87.1266670 152.2296400 133.2176170
  88.3690000 147.3392000 135.9138490  88.1892840 146.4417750 136.1941250
  87.9670080 147.8863870 136.5885440  97.2088500 149.5407860 133.8150800
  97.5853320 148.6679740 133.7024470  97.1108010 149.8766560 132.9241240
  91.3393510 147.9133490 129.2768240  91.4460260 148.8137220 129.5837000
  90.4285870 147.8651460 128.9862890 100.9912620 147.0358300 130.7479140
 101.8122240 146.5454870 130.7904620 101.0246700 147.6255960 131.5010980
  88.9876670 149.8352500 134.5220830  89.6686780 150.0990870 135.1408230
  88.6724720 148.9953370 134.8558840  93.1801240 150.8819860 133.6093420
  93.6879460 151.3800830 134.2498440  93.7114480 150.1055060 133.4332780
 105.2812170 149.0525050 137.3122770 104.5764340 149.4406760 136.7937880
 105.5470090 149.7475340 137.9143700  91.4637340 145.5218420 137.8756840
  91.4655780 146.0390810 137.0702740  90.6341650 145.0448600 137.8526770
 101.2274100 148.9758680 133.5206680 100.5229670 149.2643570 134.1009790
 101.5886260 149.7858790 133.1606240  91.1452670 147.2328380 135.8827290
  91.4869480 148.0770430 135.5881160  90.2068480 147.3812120 135.9992630
 104.2961020 148.4213470 133.9115890 103.3485930 148.4552450 134.0431320
 104.6211010 149.2352420 134.2965250  94.8280560 144.7210650 132.2071880
  95.1355540 144.1657540 131.4907380  93.8981260 144.8555110 132.0244870
  97.2161320 152.7859480 128.9432000  96.2890600 152.7196860 129.1720470
  97.3686140 153.7239610 128.8287240  97.2030400 149.0576480 125.9399160
  96.2634070 149.2190440 126.0251620  97.5213660 149.7762160 125.3935150
 100.6885170 150.5264320 136.8633060 100.2756350 151.3518030 137.1173050
  99.9561120 149.9409360 136.6709420  92.8217960 153.3124220 131.7251730
  92.4174960 152.6001470 131.2297630  92.9081080 152.9677460 132.6139770
  91.5346580 150.0867430 135.5050770  92.0861170 150.1962770 134.7304020
  92.0490090 150.4605030 136.2206000  99.4223310 153.5866590 126.4540000
  99.8616590 152.7489020 126.3077820 100.1351730 154.2195990 126.5404140
 103.0040450 144.8409400 124.7681040 102.6913110 144.9336230 125.6680110
 103.7652920 145.4190430 124.7178470  89.5222590 152.2069200 129.2258380
  89.4020190 152.9331290 128.6139650  89.2123480 151.4372110 128.7486290
 104.2141740 149.5780900 140.7455180 103.5986010 150.0860570 140.2170640
 103.8938160 148.6779230 140.6881120  91.9886250 145.5504270 132.6082050
  91.5454400 146.3313810 132.2766570  92.5471240 145.8734160 133.3152990
  96.2756060 148.4172790 138.2117370  95.8135430 148.6255810 139.0237310
  95.8734170 147.6032140 137.9088040 101.2760570 149.6381740 139.3414030
 100.4254160 149.3387490 139.6623100 101.1162360 149.8823750 138.4297850
  98.3710280 151.1383490 141.4412820  98.6963690 150.3047240 141.1015050
  99.1590610 151.6612010 141.5891150  95.1045070 145.1714970 127.4887880
  94.4799250 145.1674840 128.2141190  95.0175190 144.3045930 127.0923850
  94.0262150 146.0951600 134.4671650  94.3234480 147.0014430 134.3863670
  94.5747710 145.6070380 133.8531220  91.7800470 150.6737840 130.3363300
  91.5541390 150.4575010 131.2409920  90.9993000 151.1066300 129.9909270
  99.0098230 150.6801210 128.9353950  98.4107120 151.4037010 128.7517570
  99.5577840 150.6177990 128.1530400  94.2199680 151.5723420 141.0023570
  94.1243280 150.6318150 140.8523970  95.0631660 151.7938490 140.6071640
  97.6163100 149.3164750 130.9657230  98.0092670 149.6336950 130.1525920
  97.9779950 148.4376630 131.0801750  89.3510220 147.9837090 139.1557350
  88.9573610 148.8312300 139.3630130  88.6628620 147.3463460 139.3465990
  95.9255270 148.0672060 142.2254090  95.2353590 147.8744260 142.8600180
  96.6687570 148.3506700 142.7578390  86.6527270 145.9065550 133.1887430
  86.3640320 146.4768410 133.9012410  87.3973030 145.4270000 133.5518660
  86.8397500 149.8485670 124.3990150  86.7572170 150.7916430 124.5405140
  86.4880560 149.7060580 123.5202500  98.2018240 151.9070500 135.0608010
  97.4699360 152.4157310 135.4098110  97.8042580 151.0900480 134.7596790
  94.6395630 148.5824700 133.4660500  94.6431690 148.1414650 132.6165040
  95.5346750 148.9042030 133.5732320  90.4898010 148.4651190 132.4254710
  90.1498060 148.9426420 133.1821760  89.7275330 148.0116310 132.0655810
  94.7015780 149.5836780 126.4567260  94.8228600 149.5423260 127.4053080
  94.3164290 150.4460930 126.3013990  98.6644150 147.3604180 134.4730950
  98.6816890 147.8112830 135.3172800  98.4159730 146.4609820 134.6864390
  93.7137280 151.8937920 125.8550560  93.1454180 151.4456170 125.2286470
  94.4226280 152.2530700 125.3215710 102.0914900 144.7736360 140.3117330
 102.4160670 144.0426020 140.8375310 102.1271410 144.4550000 139.4098320
  94.9403600 152.6426480 135.2125910  95.3073730 152.1685050 135.9587250
  94.7508660 153.5168050 135.5534250  87.8044090 147.3870170 131.3419380
  87.5191010 147.0225840 132.1798000  87.7422950 146.6550630 130.7282520
  92.7302970 151.6835120 137.5310120  92.4260040 152.5627100 137.7560480
  93.6849430 151.7434910 137.5667560  97.4782680 146.2799430 128.0632750
  96.6647290 145.7812600 127.9878060  97.2844630 147.1197680 127.6469100
 100.1931070 150.6519080 126.3594910 101.0810690 150.9636310 126.1846250
 100.1636160 149.7791330 125.9675490  88.7866700 152.5237860 138.6781480
  88.4281640 153.1891710 139.2654820  88.4921260 151.6921410 139.0494100
  91.9879820 152.9822100 141.5621030  91.6879960 153.1279280 140.6648850
  92.7591060 152.4227390 141.4694420 102.4645340 151.9630920 125.8274770
 102.3809060 152.3945140 124.9771210 103.1839530 152.4229270 126.2601590
  87.2974750 152.5229120 125.3016080  88.1669600 152.8053920 125.5852000
  86.8065070 153.3364990 125.1864890  90.3621340 144.2539980 129.8946880
  90.2335970 144.2457880 130.8431800  89.5383360 144.5923070 129.5437890
  87.3615270 146.0131100 139.3553580  86.6473790 146.2128020 139.9606190
  87.7810310 145.2370670 139.7268380  98.8554050 148.5053410 137.1055030
  99.2234870 147.6848620 137.4334600  97.9952250 148.5655300 137.5210680
 102.2216080 147.4610350 127.9142590 101.5929240 147.5656020 127.2000820
 101.7268000 147.6807130 128.7036470  94.1900110 149.7396300 129.3300470
  93.4816260 150.2082640 129.7714080  94.4744590 149.0818310 129.9645660
  95.8156040 151.1593000 137.3293000  96.3141290 151.6338820 137.9944850
  95.9578990 150.2356520 137.5363030  98.2215540 146.4646960 130.7696260
  98.0983320 146.4833090 129.8205770  99.1700100 146.5125900 130.8894660
  92.3935130 148.0481380 126.7051180  93.2425660 148.4851530 126.6391370
  92.0266400 148.3601640 127.5323240 103.0222900 147.3760960 138.1721390
 102.5196500 148.1166360 138.5115200 103.8379560 147.7644960 137.8558180
 101.3144910 152.6194140 131.6182750 100.3735050 152.6344370 131.7930440
 101.6288980 151.8330100 132.0643050  91.2926550 154.3013740 125.1786710
  92.0589820 154.1895100 125.7412140  91.3701240 153.6051710 124.5263480
  89.9873310 151.7338810 125.8619600  90.0676900 150.7866320 125.9737000
  90.8793060 152.0645690 125.9680260  87.5144110 153.5553730 141.0975770
  88.0183130 152.9761010 141.6692000  86.7751530 153.8393960 141.6352140
  89.5467190 151.6983320 141.9925840  89.5872530 151.3997190 142.9011070
  90.4012690 152.0990930 141.8333360  93.3245580 154.2978870 127.1529350
  93.7462000 154.1318740 127.9960740  93.4496420 153.4879100 126.6584490
  91.4873000 150.2775420 139.9600330  90.9569460 149.7866370 139.3323670
  92.1561070 150.7059620 139.4258260  95.8373220 153.3216480 124.4006450
  96.3578880 152.6065500 124.0347600  96.4841620 153.9602350 124.7006960
 100.8573230 152.0841040 141.7280670 101.4394000 151.3293360 141.6401150
 101.0335000 152.6148480 140.9512150  91.9745300 147.2437790 140.0397620
  91.8802170 146.6258540 139.3148490  91.3942690 147.9704080 139.8127530
  94.7406740 145.8011030 137.0725010  94.2924040 145.8235290 136.2270560
  94.1071940 145.4030050 137.6695310  97.4830190 152.4281540 139.0775290
  97.6026400 151.8322680 139.8170130  98.3424190 152.4651230 138.6576590
  99.8218090 152.9818730 137.6537800  99.2953310 153.5061350 137.0502940
 100.1649430 153.6146120 138.2847530  92.2204480 150.3712100 124.0987510
  92.0193540 149.5079460 124.4600850  92.0496530 150.2845460 123.1609110
  94.2498960 148.9702890 140.3351110  94.8398650 148.6618740 141.0228930
  93.4319200 148.4982640 140.4911010  99.0692390 148.5868700 140.5684130
  98.3807910 147.9250240 140.5034120  99.7898410 148.1406970 141.0132590
  99.6992790 145.1820330 126.6274390  99.9795080 144.3388230 126.9833810
  98.9258520 145.4143440 127.1413140  91.0187280 147.4712720 124.0865390
  91.3213180 147.4780150 123.1784540  91.7581870 147.1210580 124.5833050
  94.2372210 146.4147340 125.0721590  93.8894210 145.7371330 124.4924040
  94.4384980 145.9536850 125.8864980  87.5777850 152.9434990 131.4685960
  86.9226690 152.6746630 130.8245660  88.4155800 152.8339470 131.0187940
 100.5268290 147.7376280 125.6904450 100.9453170 147.5507260 124.8501110
 100.2204350 146.8855330 126.0007380 104.0258020 152.6500420 129.3880250
 103.6501620 151.8828350 128.9561540 103.2961140 153.0323120 129.8755180
  88.6153780 153.3287560 136.0089300  88.9826820 153.2414960 136.8885320
  88.0464600 152.5654110 135.9096160 103.4157640 151.7971940 139.0219770
 103.1843730 151.5684690 138.1217720 103.6762190 152.7171490 138.9764660
  88.1669780 150.2396650 139.9147720  87.2725830 150.2063410 140.2541430
  88.7067330 150.4383440 140.6798970 101.8545710 147.0228370 141.7999470
 102.7315890 147.0311770 142.1833470 101.8666550 146.2859210 141.1891820
  86.7915930 150.1533920 127.4111290  85.8880010 150.4164120 127.2362950
  87.2756550 150.4245090 126.6311250 103.3008980 150.8757910 132.6887490
 103.8246460 150.3820560 132.0577660 103.8868400 151.0108270 133.4335060
 103.4798700 150.9597780 136.2107040 102.5301410 150.9261320 136.3252030
 103.6611710 151.8697890 135.9756810  89.3343140 149.2099460 125.3205670
  90.0434840 148.7882680 124.8352950  88.6183080 149.2774690 124.6889020
  88.9817300 145.2638790 124.3608320  89.7045430 145.8047730 124.6789540
  89.2541820 144.9902210 123.4849860 102.7908950 150.1331260 128.6279900
 103.2868070 149.9002130 129.4128780 102.5925020 149.2943100 128.2117540
  88.6709490 144.5144980 134.2630940  89.3185680 143.9642360 133.8226100
  89.0911330 144.7688130 135.0846750 104.2196110 148.7692210 131.1617580
 104.1095390 148.6148250 132.0999850 104.9803700 148.2413150 130.9192990
 102.5661830 144.7086340 137.6200580 103.2034050 145.3220480 137.9859770
 102.7136720 144.7447000 136.6749810 105.1086380 146.6000130 124.4023720
 106.0335690 146.4681310 124.1942010 105.0862170 146.6792950 125.3560170
 105.1824870 147.3710790 127.0280430 104.3876370 147.3055910 127.5573340
 105.3868150 148.3061430 127.0165780  88.4241490 144.6700650 137.0056260
  88.0756310 145.1264470 137.7714440  88.0929190 143.7757780 137.0878690
  95.9366310 145.8612530 140.5275680  95.8755200 146.4534360 141.2771090
  96.8766690 145.7538490 140.3825940  98.5740870 145.5182590 140.1667970
  99.1881280 145.8361880 139.5049050  99.1190430 145.0331180 140.7863830
  89.0962130 144.1976850 140.2807030  89.6445120 144.0164900 139.5173140
  89.1617440 143.4070960 140.8163340  99.3148910 144.0814730 136.4937260
  98.4408750 144.4149840 136.2910190  99.2059660 143.6087910 137.3189130
 100.2220890 146.2885600 137.8778980  99.8934250 145.4737360 137.4980710
 101.1703190 146.2455410 137.7544670  97.0623730 144.9984570 135.4330170
  96.2795520 145.4730070 135.7126930  96.7686660 144.0939400 135.3243350
 101.6144800 145.7007670 133.4779260 102.0552890 145.6452770 132.6300860
 101.3452390 146.6165680 133.5489440 103.4783370 145.3322910 131.4888080
 103.4171770 144.3884130 131.3419100 104.2575400 145.4403000 132.0341540
  88.4064140 145.3032050 127.9543890  89.1643500 145.4160930 127.3807920
  87.9441310 146.1401250 127.9087320  94.9477950 147.4171320 130.9446200
  94.1352460 147.0428210 130.6042080  95.4519590 146.6616400 131.2467390
  99.4502930 144.0813770 132.1829270 100.0532300 144.6533980 132.6577790
  98.7095920 144.6453210 131.9603170 102.5937530 144.4835330 127.4569550
 102.7888160 145.3818780 127.7236980 101.8067400 144.2522410 127.9502500
  90.7789290 145.8296100 126.4945860  91.3082050 145.0425900 126.3653810
  91.4117610 146.5087290 126.7281390  92.9727130 145.5671240 129.5491250
  92.3429870 144.8658550 129.7161380  92.4332270 146.3275370 129.3324410
  93.0982690 144.8455220 141.9843740  92.8166960 145.3488820 141.2204560
  93.4802390 144.0476970 141.6185870  99.6998150 144.2608800 142.5624210
  99.5863600 144.5803410 143.4575730 100.5167890 144.6621310 142.2661490
  98.6056300 152.2801270 112.9258950  98.5250350 151.3655880 112.6550660
  98.1920720 152.7768340 112.2198660  96.7374340 154.0580290 114.8068220
  95.9616440 153.5780730 115.0966790  97.3887270 153.3785940 114.6324380
  89.1632120 149.3301990 109.4686370  88.2748820 149.6717960 109.3666250
  89.4473310 149.1302310 108.5767200  87.1265130 151.9307640 115.3526070
  87.6981240 151.1629840 115.3529710  87.1266670 152.2296400 114.4432680
  88.3690000 147.3392000 117.1395000  88.1892840 146.4417750 117.4197760
  87.9670080 147.8863870 117.8141950  97.2088500 149.5407860 115.0407310
  97.5853320 148.6679740 114.9280980  97.1108010 149.8766560 114.1497750
  91.3393510 147.9133490 110.5024750  91.4460260 148.8137220 110.8093510
  90.4285870 147.8651460 110.2119400 100.9912620 147.0358300 111.9735650
 101.8122240 146.5454870 112.0161130 101.0246700 147.6255960 112.7267490
  88.9876670 149.8352500 115.7477340  89.6686780 150.0990870 116.3664740
  88.6724720 148.9953370 116.0815350  93.1801240 150.8819860 114.8349930
  93.6879460 151.3800830 115.4754950  93.7114480 150.1055060 114.6589290
 105.2812170 149.0525050 118.5379280 104.5764340 149.4406760 118.0194390
 105.5470090 149.7475340 119.1400210  91.4637340 145.5218420 119.1013350
  91.4655780 146.0390810 118.2959250  90.6341650 145.0448600 119.0783280
 101.2274100 148.9758680 114.7463190 100.5229670 149.2643570 115.3266300
 101.5886260 149.7858790 114.3862750  91.1452670 147.2328380 117.1083800
  91.4869480 148.0770430 116.8137670  90.2068480 147.3812120 117.2249140
 104.2961020 148.4213470 115.1372400 103.3485930 148.4552450 115.2687830
 104.6211010 149.2352420 115.5221760  94.8280560 144.7210650 113.4328390
  95.1355540 144.1657540 112.7163890  93.8981260 144.8555110 113.2501380
  97.2161320 152.7859480 110.1688510  96.2890600 152.7196860 110.3976980
  97.3686140 153.7239610 110.0543750  97.2030400 149.0576480 107.1655670
  96.2634070 149.2190440 107.2508130  97.5213660 149.7762160 106.6191660
 100.6885170 150.5264320 118.0889570 100.2756350 151.3518030 118.3429560
  99.9561120 149.9409360 117.8965930  92.8217960 153.3124220 112.9508240
  92.4174960 152.6001470 112.4554140  92.9081080 152.9677460 113.8396280
  91.5346580 150.0867430 116.7307280  92.0861170 150.1962770 115.9560530
  92.0490090 150.4605030 117.4462510  99.4223310 153.5866590 107.6796510
  99.8616590 152.7489020 107.5334330 100.1351730 154.2195990 107.7660650
 103.0040450 144.8409400 105.9937550 102.6913110 144.9336230 106.8936620
 103.7652920 145.4190430 105.9434980  89.5222590 152.2069200 110.4514890
  89.4020190 152.9331290 109.8396160  89.2123480 151.4372110 109.9742800
 104.2141740 149.5780900 121.9711690 103.5986010 150.0860570 121.4427150
 103.8938160 148.6779230 121.9137630  91.9886250 145.5504270 113.8338560
  91.5454400 146.3313810 113.5023080  92.5471240 145.8734160 114.5409500
  96.2756060 148.4172790 119.4373880  95.8135430 148.6255810 120.2493820
  95.8734170 147.6032140 119.1344550 101.2760570 149.6381740 120.5670540
 100.4254160 149.3387490 120.8879610 101.1162360 149.8823750 119.6554360
  98.3710280 151.1383490 122.6669330  98.6963690 150.3047240 122.3271560
  99.1590610 151.6612010 122.8147660  95.1045070 145.1714970 108.7144390
  94.4799250 145.1674840 109.4397700  95.0175190 144.3045930 108.3180360
  94.0262150 146.0951600 115.6928160  94.3234480 147.0014430 115.6120180
  94.5747710 145.6070380 115.0787730  91.7800470 150.6737840 111.5619810
  91.5541390 150.4575010 112.4666430  90.9993000 151.1066300 111.2165780
  99.0098230 150.6801210 110.1610460  98.4107120 151.4037010 109.9774080
  99.5577840 150.6177990 109.3786910  94.2199680 151.5723420 122.2280080
  94.1243280 150.6318150 122.0780480  95.0631660 151.7938490 121.8328150
  97.6163100 149.3164750 112.1913740  98.0092670 149.6336950 111.3782430
  97.9779950 148.4376630 112.3058260  89.3510220 147.9837090 120.3813860
  88.9573610 148.8312300 120.5886640  88.6628620 147.3463460 120.5722500
  95.9255270 148.0672060 123.4510600  95.2353590 147.8744260 124.0856690
  96.6687570 148.3506700 123.9834900  86.6527270 145.9065550 114.4143940
  86.3640320 146.4768410 115.1268920  87.3973030 145.4270000 114.7775170
  86.8397500 149.8485670 105.6246660  86.7572170 150.7916430 105.7661650
  86.4880560 149.7060580 104.7459010  98.2018240 151.9070500 116.2864520
  97.4699360 152.4157310 116.6354620  97.8042580 151.0900480 115.9853300
  94.6395630 148.5824700 114.6917010  94.6431690 148.1414650 113.8421550
  95.5346750 148.9042030 114.7988830  90.4898010 148.4651190 113.6511220
  90.1498060 148.9426420 114.4078270  89.7275330 148.0116310 113.2912320
  94.7015780 149.5836780 107.6823770  94.8228600 149.5423260 108.6309590
  94.3164290 150.4460930 107.5270500  98.6644150 147.3604180 115.6987460
  98.6816890 147.8112830 116.5429310  98.4159730 146.4609820 115.9120900
  93.7137280 151.8937920 107.0807070  93.1454180 151.4456170 106.4542980
  94.4226280 152.2530700 106.5472220 102.0914900 144.7736360 121.5373840
 102.4160670 144.0426020 122.0631820 102.1271410 144.4550000 120.6354830
  94.9403600 152.6426480 116.4382420  95.3073730 152.1685050 117.1843760
  94.7508660 153.5168050 116.7790760  87.8044090 147.3870170 112.5675890
  87.5191010 147.0225840 113.4054510  87.7422950 146.6550630 111.9539030
  92.7302970 151.6835120 118.7566630  92.4260040 152.5627100 118.9816990
  93.6849430 151.7434910 118.7924070  97.4782680 146.2799430 109.2889260
  96.6647290 145.7812600 109.2134570  97.2844630 147.1197680 108.8725610
 100.1931070 150.6519080 107.5851420 101.0810690 150.9636310 107.4102760
 100.1636160 149.7791330 107.1932000  88.7866700 152.5237860 119.9037990
  88.4281640 153.1891710 120.4911330  88.4921260 151.6921410 120.2750610
  91.9879820 152.9822100 122.7877540  91.6879960 153.1279280 121.8905360
  92.7591060 152.4227390 122.6950930 102.4645340 151.9630920 107.0531280
 102.3809060 152.3945140 106.2027720 103.1839530 152.4229270 107.4858100
  87.2974750 152.5229120 106.5272590  88.1669600 152.8053920 106.8108510
  86.8065070 153.3364990 106.4121400  90.3621340 144.2539980 111.1203390
  90.2335970 144.2457880 112.0688310  89.5383360 144.5923070 110.7694400
  87.3615270 146.0131100 120.5810090  86.6473790 146.2128020 121.1862700
  87.7810310 145.2370670 120.9524890  98.8554050 148.5053410 118.3311540
  99.2234870 147.6848620 118.6591110  97.9952250 148.5655300 118.7467190
 102.2216080 147.4610350 109.1399100 101.5929240 147.5656020 108.4257330
 101.7268000 147.6807130 109.9292980  94.1900110 149.7396300 110.5556980
  93.4816260 150.2082640 110.9970590  94.4744590 149.0818310 111.1902170
  95.8156040 151.1593000 118.5549510  96.3141290 151.6338820 119.2201360
  95.9578990 150.2356520 118.7619540  98.2215540 146.4646960 111.9952770
  98.0983320 146.4833090 111.0462280  99.1700100 146.5125900 112.1151170
  92.3935130 148.0481380 107.9307690  93.2425660 148.4851530 107.8647880
  92.0266400 148.3601640 108.7579750 103.0222900 147.3760960 119.3977900
 102.5196500 148.1166360 119.7371710 103.8379560 147.7644960 119.0814690
 101.3144910 152.6194140 112.8439260 100.3735050 152.6344370 113.0186950
 101.6288980 151.8330100 113.2899560  91.2926550 154.3013740 106.4043220
  92.0589820 154.1895100 106.9668650  91.3701240 153.6051710 105.7519990
  89.9873310 151.7338810 107.0876110  90.0676900 150.7866320 107.1993510
  90.8793060 152.0645690 107.1936770  87.5144110 153.5553730 122.3232280
  88.0183130 152.9761010 122.8948510  86.7751530 153.8393960 122.8608650
  89.5467190 151.6983320 123.2182350  89.5872530 151.3997190 124.1267580
  90.4012690 152.0990930 123.0589870  93.3245580 154.2978870 108.3785860
  93.7462000 154.1318740 109.2217250  93.4496420 153.4879100 107.8841000
  91.4873000 150.2775420 121.1856840  90.9569460 149.7866370 120.5580180
  92.1561070 150.7059620 120.6514770  95.8373220 153.3216480 105.6262960
  96.3578880 152.6065500 105.2604110  96.4841620 153.9602350 105.9263470
 100.8573230 152.0841040 122.9537180 101.4394000 151.3293360 122.8657660
 101.0335000 152.6148480 122.1768660  91.9745300 147.2437790 121.2654130
  91.8802170 146.6258540 120.5405000  91.3942690 147.9704080 121.0384040
  94.7406740 145.8011030 118.2981520  94.2924040 145.8235290 117.4527070
  94.1071940 145.4030050 118.8951820  97.4830190 152.4281540 120.3031800
  97.6026400 151.8322680 121.0426640  98.3424190 152.4651230 119.8833100
  99.8218090 152.9818730 118.8794310  99.2953310 153.5061350 118.2759450
 100.1649430 153.6146120 119.5104040  92.2204480 150.3712100 105.3244020
  92.0193540 149.5079460 105.6857360  92.0496530 150.2845460 104.3865620
  94.2498960 148.9702890 121.5607620  94.8398650 148.6618740 122.2485440
  93.4319200 148.4982640 121.7167520  99.0692390 148.5868700 121.7940640
  98.3807910 147.9250240 121.7290630  99.7898410 148.1406970 122.2389100
  99.6992790 145.1820330 107.8530900  99.9795080 144.3388230 108.2090320
  98.9258520 145.4143440 108.3669650  91.0187280 147.4712720 105.3121900
  91.3213180 147.4780150 104.4041050  91.7581870 147.1210580 105.8089560
  94.2372210 146.4147340 106.2978100  93.8894210 145.7371330 105.7180550
  94.4384980 145.9536850 107.1121490  87.5777850 152.9434990 112.6942470
  86.9226690 152.6746630 112.0502170  88.4155800 152.8339470 112.2444450
 100.5268290 147.7376280 106.9160960 100.9453170 147.5507260 106.0757620
 100.2204350 146.8855330 107.2263890 104.0258020 152.6500420 110.6136760
 103.6501620 151.8828350 110.1818050 103.2961140 153.0323120 111.1011690
  88.6153780 153.3287560 117.2345810  88.9826820 153.2414960 118.1141830
  88.0464600 152.5654110 117.1352670 103.4157640 151.7971940 120.2476280
 103.1843730 151.5684690 119.3474230 103.6762190 152.7171490 120.2021170
  88.1669780 150.2396650 121.1404230  87.2725830 150.2063410 121.4797940
  88.7067330 150.4383440 121.9055480 101.8545710 147.0228370 123.0255980
 102.7315890 147.0311770 123.4089980 101.8666550 146.2859210 122.4148330
  86.7915930 150.1533920 108.6367800  85.8880010 150.4164120 108.4619460
  87.2756550 150.4245090 107.8567760 103.3008980 150.8757910 113.9144000
 103.8246460 150.3820560 113.2834170 103.8868400 151.0108270 114.6591570
 103.4798700 150.9597780 117.4363550 102.5301410 150.9261320 117.5508540
 103.6611710 151.8697890 117.2013320  89.3343140 149.2099460 106.5462180
  90.0434840 148.7882680 106.0609460  88.6183080 149.2774690 105.9145530
  88.9817300 145.2638790 105.5864830  89.7045430 145.8047730 105.9046050
  89.2541820 144.9902210 104.7106370 102.7908950 150.1331260 109.8536410
 103.2868070 149.9002130 110.6385290 102.5925020 149.2943100 109.4374050
  88.6709490 144.5144980 115.4887450  89.3185680 143.9642360 115.0482610
  89.0911330 144.7688130 116.3103260 104.2196110 148.7692210 112.3874090
 104.1095390 148.6148250 113.3256360 104.9803700 148.2413150 112.1449500
 102.5661830 144.7086340 118.8457090 103.2034050 145.3220480 119.2116280
 102.7136720 144.7447000 117.9006320 105.1086380 146.6000130 105.6280230
 106.0335690 146.4681310 105.4198520 105.0862170 146.6792950 106.5816680
 105.1824870 147.3710790 108.2536940 104.3876370 147.3055910 108.7829850
 105.3868150 148.3061430 108.2422290  88.4241490 144.6700650 118.2312770
  88.0756310 145.1264470 118.9970950  88.0929190 143.7757780 118.3135200
  95.9366310 145.8612530 121.7532190  95.8755200 146.4534360 122.5027600
  96.8766690 145.7538490 121.6082450  98.5740870 145.5182590 121.3924480
  99.1881280 145.8361880 120.7305560  99.1190430 145.0331180 122.0120340
  89.0962130 144.1976850 121.5063540  89.6445120 144.0164900 120.7429650
  89.1617440 143.4070960 122.0419850  99.3148910 144.0814730 117.7193770
  98.4408750 144.4149840 117.5166700  99.2059660 143.6087910 118.5445640
 100.2220890 146.2885600 119.1035490  99.8934250 145.4737360 118.7237220
 101.1703190 146.2455410 118.9801180  97.0623730 144.9984570 116.6586680
  96.2795520 145.4730070 116.9383440  96.7686660 144.0939400 116.5499860
 101.6144800 145.7007670 114.7035770 102.0552890 145.6452770 113.8557370
 101.3452390 146.6165680 114.7745950 103.4783370 145.3322910 112.7144590
 103.4171770 144.3884130 112.5675610 104.2575400 145.4403000 113.2598050
  88.4064140 145.3032050 109.1800400  89.1643500 145.4160930 108.6064430
  87.9441310 146.1401250 109.1343830  94.9477950 147.4171320 112.1702710
  94.1352460 147.0428210 111.8298590  95.4519590 146.6616400 112.4723900
  99.4502930 144.0813770 113.4085780 100.0532300 144.6533980 113.8834300
  98.7095920 144.6453210 113.1859680 102.5937530 144.4835330 108.6826060
 102.7888160 145.3818780 108.9493490 101.8067400 144.2522410 109.1759010
  90.7789290 145.8296100 107.7202370  91.3082050 145.0425900 107.5910320
  91.4117610 146.5087290 107.9537900  92.9727130 145.5671240 110.7747760
  92.3429870 144.8658550 110.9417890  92.4332270 146.3275370 110.5580920
  93.0982690 144.8455220 123.2100250  92.8166960 145.3488820 122.4461070
  93.4802390 144.0476970 122.8442380  99.6998150 144.2608800 123.7880720
  99.5863600 144.5803410 124.6832240 100.5167890 144.6621310 123.4918000
  98.6056300 152.2801270  94.1515460  98.5250350 151.3655880  93.8807170
  98.1920720 152.7768340  93.4455170  96.7374340 154.0580290  96.0324730
  95.9616440 153.5780730  96.3223300  97.3887270 153.3785940  95.8580890
  89.1632120 149.3301990  90.6942880  88.2748820 149.6717960  90.5922760
  89.4473310 149.1302310  89.8023710  87.1265130 151.9307640  96.5782580
  87.6981240 151.1629840  96.5786220  87.1266670 152.2296400  95.6689190
  88.3690000 147.3392000  98.3651510  88.1892840 146.4417750  98.6454270
  87.9670080 147.8863870  99.0398460  97.2088500 149.5407860  96.2663820
  97.5853320 148.6679740  96.1537490  97.1108010 149.8766560  95.3754260
  91.3393510 147.9133490  91.7281260  91.4460260 148.8137220  92.0350020
  90.4285870 147.8651460  91.4375910 100.9912620 147.0358300  93.1992160
 101.8122240 146.5454870  93.2417640 101.0246700 147.6255960  93.9524000
  88.9876670 149.8352500  96.9733850  89.6686780 150.0990870  97.5921250
  88.6724720 148.9953370  97.3071860  93.1801240 150.8819860  96.0606440
  93.6879460 151.3800830  96.7011460  93.7114480 150.1055060  95.8845800
 105.2812170 149.0525050  99.7635790 104.5764340 149.4406760  99.2450900
 105.5470090 149.7475340 100.3656720  91.4637340 145.5218420 100.3269860
  91.4655780 146.0390810  99.5215760  90.6341650 145.0448600 100.3039790
 101.2274100 148.9758680  95.9719700 100.5229670 149.2643570  96.5522810
 101.5886260 149.7858790  95.6119260  91.1452670 147.2328380  98.3340310
  91.4869480 148.0770430  98.0394180  90.2068480 147.3812120  98.4505650
 104.2961020 148.4213470  96.3628910 103.3485930 148.4552450  96.4944340
 104.6211010 149.2352420  96.7478270  94.8280560 144.7210650  94.6584900
  95.1355540 144.1657540  93.9420400  93.8981260 144.8555110  94.4757890
  97.2161320 152.7859480  91.3945020  96.2890600 152.7196860  91.6233490
  97.3686140 153.7239610  91.2800260  97.2030400 149.0576480  88.3912180
  96.2634070 149.2190440  88.4764640  97.5213660 149.7762160  87.8448170
 100.6885170 150.5264320  99.3146080 100.2756350 151.3518030  99.5686070
  99.9561120 149.9409360  99.1222440  92.8217960 153.3124220  94.1764750
  92.4174960 152.6001470  93.6810650  92.9081080 152.9677460  95.0652790
  91.5346580 150.0867430  97.9563790  92.0861170 150.1962770  97.1817040
  92.0490090 150.4605030  98.6719020  99.4223310 153.5866590  88.9053020
  99.8616590 152.7489020  88.7590840 100.1351730 154.2195990  88.9917160
 103.0040450 144.8409400  87.2194060 102.6913110 144.9336230  88.1193130
 103.7652920 145.4190430  87.1691490  89.5222590 152.2069200  91.6771400
  89.4020190 152.9331290  91.0652670  89.2123480 151.4372110  91.1999310
 104.2141740 149.5780900 103.1968200 103.5986010 150.0860570 102.6683660
 103.8938160 148.6779230 103.1394140  91.9886250 145.5504270  95.0595070
  91.5454400 146.3313810  94.7279590  92.5471240 145.8734160  95.7666010
  96.2756060 148.4172790 100.6630390  95.8135430 148.6255810 101.4750330
  95.8734170 147.6032140 100.3601060 101.2760570 149.6381740 101.7927050
 100.4254160 149.3387490 102.1136120 101.1162360 149.8823750 100.8810870
  98.3710280 151.1383490 103.8925840  98.6963690 150.3047240 103.5528070
  99.1590610 151.6612010 104.0404170  95.1045070 145.1714970  89.9400900
  94.4799250 145.1674840  90.6654210  95.0175190 144.3045930  89.5436870
  94.0262150 146.0951600  96.9184670  94.3234480 147.0014430  96.8376690
  94.5747710 145.6070380  96.3044240  91.7800470 150.6737840  92.7876320
  91.5541390 150.4575010  93.6922940  90.9993000 151.1066300  92.4422290
  99.0098230 150.6801210  91.3866970  98.4107120 151.4037010  91.2030590
  99.5577840 150.6177990  90.6043420  94.2199680 151.5723420 103.4536590
  94.1243280 150.6318150 103.3036990  95.0631660 151.7938490 103.0584660
  97.6163100 149.3164750  93.4170250  98.0092670 149.6336950  92.6038940
  97.9779950 148.4376630  93.5314770  89.3510220 147.9837090 101.6070370
  88.9573610 148.8312300 101.8143150  88.6628620 147.3463460 101.7979010
  95.9255270 148.0672060 104.6767110  95.2353590 147.8744260 105.3113200
  96.6687570 148.3506700 105.2091410  86.6527270 145.9065550  95.6400450
  86.3640320 146.4768410  96.3525430  87.3973030 145.4270000  96.0031680
  86.8397500 149.8485670  86.8503170  86.7572170 150.7916430  86.9918160
  86.4880560 149.7060580  85.9715520  98.2018240 151.9070500  97.5121030
  97.4699360 152.4157310  97.8611130  97.8042580 151.0900480  97.2109810
  94.6395630 148.5824700  95.9173520  94.6431690 148.1414650  95.0678060
  95.5346750 148.9042030  96.0245340  90.4898010 148.4651190  94.8767730
  90.1498060 148.9426420  95.6334780  89.7275330 148.0116310  94.5168830
  94.7015780 149.5836780  88.9080280  94.8228600 149.5423260  89.8566100
  94.3164290 150.4460930  88.7527010  98.6644150 147.3604180  96.9243970
  98.6816890 147.8112830  97.7685820  98.4159730 146.4609820  97.1377410
  93.7137280 151.8937920  88.3063580  93.1454180 151.4456170  87.6799490
  94.4226280 152.2530700  87.7728730 102.0914900 144.7736360 102.7630350
 102.4160670 144.0426020 103.2888330 102.1271410 144.4550000 101.8611340
  94.9403600 152.6426480  97.6638930  95.3073730 152.1685050  98.4100270
  94.7508660 153.5168050  98.0047270  87.8044090 147.3870170  93.7932400
  87.5191010 147.0225840  94.6311020  87.7422950 146.6550630  93.1795540
  92.7302970 151.6835120  99.9823140  92.4260040 152.5627100 100.2073500
  93.6849430 151.7434910 100.0180580  97.4782680 146.2799430  90.5145770
  96.6647290 145.7812600  90.4391080  97.2844630 147.1197680  90.0982120
 100.1931070 150.6519080  88.8107930 101.0810690 150.9636310  88.6359270
 100.1636160 149.7791330  88.4188510  88.7866700 152.5237860 101.1294500
  88.4281640 153.1891710 101.7167840  88.4921260 151.6921410 101.5007120
  91.9879820 152.9822100 104.0134050  91.6879960 153.1279280 103.1161870
  92.7591060 152.4227390 103.9207440 102.4645340 151.9630920  88.2787790
 102.3809060 152.3945140  87.4284230 103.1839530 152.4229270  88.7114610
  87.2974750 152.5229120  87.7529100  88.1669600 152.8053920  88.0365020
  86.8065070 153.3364990  87.6377910  90.3621340 144.2539980  92.3459900
  90.2335970 144.2457880  93.2944820  89.5383360 144.5923070  91.9950910
  87.3615270 146.0131100 101.8066600  86.6473790 146.2128020 102.4119210
  87.7810310 145.2370670 102.1781400  98.8554050 148.5053410  99.5568050
  99.2234870 147.6848620  99.8847620  97.9952250 148.5655300  99.9723700
 102.2216080 147.4610350  90.3655610 101.5929240 147.5656020  89.6513840
 101.7268000 147.6807130  91.1549490  94.1900110 149.7396300  91.7813490
  93.4816260 150.2082640  92.2227100  94.4744590 149.0818310  92.4158680
  95.8156040 151.1593000  99.7806020  96.3141290 151.6338820 100.4457870
  95.9578990 150.2356520  99.9876050  98.2215540 146.4646960  93.2209280
  98.0983320 146.4833090  92.2718790  99.1700100 146.5125900  93.3407680
  92.3935130 148.0481380  89.1564200  93.2425660 148.4851530  89.0904390
  92.0266400 148.3601640  89.9836260 103.0222900 147.3760960 100.6234410
 102.5196500 148.1166360 100.9628220 103.8379560 147.7644960 100.3071200
 101.3144910 152.6194140  94.0695770 100.3735050 152.6344370  94.2443460
 101.6288980 151.8330100  94.5156070  91.2926550 154.3013740  87.6299730
  92.0589820 154.1895100  88.1925160  91.3701240 153.6051710  86.9776500
  89.9873310 151.7338810  88.3132620  90.0676900 150.7866320  88.4250020
  90.8793060 152.0645690  88.4193280  87.5144110 153.5553730 103.5488790
  88.0183130 152.9761010 104.1205020  86.7751530 153.8393960 104.0865160
  89.5467190 151.6983320 104.4438860  89.5872530 151.3997190 105.3524090
  90.4012690 152.0990930 104.2846380  93.3245580 154.2978870  89.6042370
  93.7462000 154.1318740  90.4473760  93.4496420 153.4879100  89.1097510
  91.4873000 150.2775420 102.4113350  90.9569460 149.7866370 101.7836690
  92.1561070 150.7059620 101.8771280  95.8373220 153.3216480  86.8519470
  96.3578880 152.6065500  86.4860620  96.4841620 153.9602350  87.1519980
 100.8573230 152.0841040 104.1793690 101.4394000 151.3293360 104.0914170
 101.0335000 152.6148480 103.4025170  91.9745300 147.2437790 102.4910640
  91.8802170 146.6258540 101.7661510  91.3942690 147.9704080 102.2640550
  94.7406740 145.8011030  99.5238030  94.2924040 145.8235290  98.6783580
  94.1071940 145.4030050 100.1208330  97.4830190 152.4281540 101.5288310
  97.6026400 151.8322680 102.2683150  98.3424190 152.4651230 101.1089610
  99.8218090 152.9818730 100.1050820  99.2953310 153.5061350  99.5015960
 100.1649430 153.6146120 100.7360550  92.2204480 150.3712100  86.5500530
  92.0193540 149.5079460  86.9113870  92.0496530 150.2845460  85.6122130
  94.2498960 148.9702890 102.7864130  94.8398650 148.6618740 103.4741950
  93.4319200 148.4982640 102.9424030  99.0692390 148.5868700 103.0197150
  98.3807910 147.9250240 102.9547140  99.7898410 148.1406970 103.4645610
  99.6992790 145.1820330  89.0787410  99.9795080 144.3388230  89.4346830
  98.9258520 145.4143440  89.5926160  91.0187280 147.4712720  86.5378410
  91.3213180 147.4780150  85.6297560  91.7581870 147.1210580  87.0346070
  94.2372210 146.4147340  87.5234610  93.8894210 145.7371330  86.9437060
  94.4384980 145.9536850  88.3378000  87.5777850 152.9434990  93.9198980
  86.9226690 152.6746630  93.2758680  88.4155800 152.8339470  93.4700960
 100.5268290 147.7376280  88.1417470 100.9453170 147.5507260  87.3014130
 100.2204350 146.8855330  88.4520400 104.0258020 152.6500420  91.8393270
 103.6501620 151.8828350  91.4074560 103.2961140 153.0323120  92.3268200
  88.6153780 153.3287560  98.4602320  88.9826820 153.2414960  99.3398340
  88.0464600 152.5654110  98.3609180 103.4157640 151.7971940 101.4732790
 103.1843730 151.5684690 100.5730740 103.6762190 152.7171490 101.4277680
  88.1669780 150.2396650 102.3660740  87.2725830 150.2063410 102.7054450
  88.7067330 150.4383440 103.1311990 101.8545710 147.0228370 104.2512490
 102.7315890 147.0311770 104.6346490 101.8666550 146.2859210 103.6404840
  86.7915930 150.1533920  89.8624310  85.8880010 150.4164120  89.6875970
  87.2756550 150.4245090  89.0824270 103.3008980 150.8757910  95.1400510
 103.8246460 150.3820560  94.5090680 103.8868400 151.0108270  95.8848080
 103.4798700 150.9597780  98.6620060 102.5301410 150.9261320  98.7765050
 103.6611710 151.8697890  98.4269830  89.3343140 149.2099460  87.7718690
  90.0434840 148.7882680  87.2865970  88.6183080 149.2774690  87.1402040
  88.9817300 145.2638790  86.8121340  89.7045430 145.8047730  87.1302560
  89.2541820 144.9902210  85.9362880 102.7908950 150.1331260  91.0792920
 103.2868070 149.9002130  91.8641800 102.5925020 149.2943100  90.6630560
  88.6709490 144.5144980  96.7143960  89.3185680 143.9642360  96.2739120
  89.0911330 144.7688130  97.5359770 104.2196110 148.7692210  93.6130600
 104.1095390 148.6148250  94.5512870 104.9803700 148.2413150  93.3706010
 102.5661830 144.7086340 100.0713600 103.2034050 145.3220480 100.4372790
 102.7136720 144.7447000  99.1262830 105.1086380 146.6000130  86.8536740
 106.0335690 146.4681310  86.6455030 105.0862170 146.6792950  87.8073190
 105.1824870 147.3710790  89.4793450 104.3876370 147.3055910  90.0086360
 105.3868150 148.3061430  89.4678800  88.4241490 144.6700650  99.4569280
  88.0756310 145.1264470 100.2227460  88.0929190 143.7757780  99.5391710
  95.9366310 145.8612530 102.9788700  95.8755200 146.4534360 103.7284110
  96.8766690 145.7538490 102.8338960  98.5740870 145.5182590 102.6180990
  99.1881280 145.8361880 101.9562070  99.1190430 145.0331180 103.2376850
  89.0962130 144.1976850 102.7320050  89.6445120 144.0164900 101.9686160
  89.1617440 143.4070960 103.2676360  99.3148910 144.0814730  98.9450280
  98.4408750 144.4149840  98.7423210  99.2059660 143.6087910  99.7702150
 100.2220890 146.2885600 100.3292000  99.8934250 145.4737360  99.9493730
 101.1703190 146.2455410 100.2057690  97.0623730 144.9984570  97.8843190
  96.2795520 145.4730070  98.1639950  96.7686660 144.0939400  97.7756370
 101.6144800 145.7007670  95.9292280 102.0552890 145.6452770  95.0813880
 101.3452390 146.6165680  96.0002460 103.4783370 145.3322910  93.9401100
 103.4171770 144.3884130  93.7932120 104.2575400 145.4403000  94.4854560
  88.4064140 145.3032050  90.4056910  89.1643500 145.4160930  89.8320940
  87.9441310 146.1401250  90.3600340  94.9477950 147.4171320  93.3959220
  94.1352460 147.0428210  93.0555100  95.4519590 146.6616400  93.6980410
  99.4502930 144.0813770  94.6342290 100.0532300 144.6533980  95.1090810
  98.7095920 144.6453210  94.4116190 102.5937530 144.4835330  89.9082570
 102.7888160 145.3818780  90.1750000 101.8067400 144.2522410  90.4015520
  90.7789290 145.8296100  88.9458880  91.3082050 145.0425900  88.8166830
  91.4117610 146.5087290  89.1794410  92.9727130 145.5671240  92.0004270
  92.3429870 144.8658550  92.1674400  92.4332270 146.3275370  91.7837430
  93.0982690 144.8455220 104.4356760  92.8166960 145.3488820 103.6717580
  93.4802390 144.0476970 104.0698890  99.6998150 144.2608800 105.0137230
  99.5863600 144.5803410 105.9088750 100.5167890 144.6621310 104.7174510
  98.6056300 152.2801270  75.3771970  98.5250350 151.3655880  75.1063680
  98.1920720 152.7768340  74.6711680  96.7374340 154.0580290  77.2581240
  95.9616440 153.5780730  77.5479810  97.3887270 153.3785940  77.0837400
  89.1632120 149.3301990  71.9199390  88.2748820 149.6717960  71.8179270
  89.4473310 149.1302310  71.0280220  87.1265130 151.9307640  77.8039090
  87.6981240 151.1629840  77.8042730  87.1266670 152.2296400  76.8945700
  88.3690000 147.3392000  79.5908020  88.1892840 146.4417750  79.8710780
  87.9670080 147.8863870  80.2654970  97.2088500 149.5407860  77.4920330
  97.5853320 148.6679740  77.3794000  97.1108010 149.8766560  76.6010770
  91.3393510 147.9133490  72.9537770  91.4460260 148.8137220  73.2606530
  90.4285870 147.8651460  72.6632420 100.9912620 147.0358300  74.4248670
 101.8122240 146.5454870  74.4674150 101.0246700 147.6255960  75.1780510
  88.9876670 149.8352500  78.1990360  89.6686780 150.0990870  78.8177760
  88.6724720 148.9953370  78.5328370  93.1801240 150.8819860  77.2862950
  93.6879460 151.3800830  77.9267970  93.7114480 150.1055060  77.1102310
 105.2812170 149.0525050  80.9892300 104.5764340 149.4406760  80.4707410
 105.5470090 149.7475340  81.5913230  91.4637340 145.5218420  81.5526370
  91.4655780 146.0390810  80.7472270  90.6341650 145.0448600  81.5296300
 101.2274100 148.9758680  77.1976210 100.5229670 149.2643570  77.7779320
 101.5886260 149.7858790  76.8375770  91.1452670 147.2328380  79.5596820
  91.4869480 148.0770430  79.2650690  90.2068480 147.3812120  79.6762160
 104.2961020 148.4213470  77.5885420 103.3485930 148.4552450  77.7200850
 104.6211010 149.2352420  77.9734780  94.8280560 144.7210650  75.8841410
  95.1355540 144.1657540  75.1676910  93.8981260 144.8555110  75.7014400
  97.2161320 152.7859480  72.6201530  96.2890600 152.7196860  72.8490000
  97.3686140 153.7239610  72.5056770  97.2030400 149.0576480  69.6168690
  96.2634070 149.2190440  69.7021150  97.5213660 149.7762160  69.0704680
 100.6885170 150.5264320  80.5402590 100.2756350 151.3518030  80.7942580
  99.9561120 149.9409360  80.3478950  92.8217960 153.3124220  75.4021260
  92.4174960 152.6001470  74.9067160  92.9081080 152.9677460  76.2909300
  91.5346580 150.0867430  79.1820300  92.0861170 150.1962770  78.4073550
  92.0490090 150.4605030  79.8975530  99.4223310 153.5866590  70.1309530
  99.8616590 152.7489020  69.9847350 100.1351730 154.2195990  70.2173670
 103.0040450 144.8409400  68.4450570 102.6913110 144.9336230  69.3449640
 103.7652920 145.4190430  68.3948000  89.5222590 152.2069200  72.9027910
  89.4020190 152.9331290  72.2909180  89.2123480 151.4372110  72.4255820
 104.2141740 149.5780900  84.4224710 103.5986010 150.0860570  83.8940170
 103.8938160 148.6779230  84.3650650  91.9886250 145.5504270  76.2851580
  91.5454400 146.3313810  75.9536100  92.5471240 145.8734160  76.9922520
  96.2756060 148.4172790  81.8886900  95.8135430 148.6255810  82.7006840
  95.8734170 147.6032140  81.5857570 101.2760570 149.6381740  83.0183560
 100.4254160 149.3387490  83.3392630 101.1162360 149.8823750  82.1067380
  98.3710280 151.1383490  85.1182350  98.6963690 150.3047240  84.7784580
  99.1590610 151.6612010  85.2660680  95.1045070 145.1714970  71.1657410
  94.4799250 145.1674840  71.8910720  95.0175190 144.3045930  70.7693380
  94.0262150 146.0951600  78.1441180  94.3234480 147.0014430  78.0633200
  94.5747710 145.6070380  77.5300750  91.7800470 150.6737840  74.0132830
  91.5541390 150.4575010  74.9179450  90.9993000 151.1066300  73.6678800
  99.0098230 150.6801210  72.6123480  98.4107120 151.4037010  72.4287100
  99.5577840 150.6177990  71.8299930  94.2199680 151.5723420  84.6793100
  94.1243280 150.6318150  84.5293500  95.0631660 151.7938490  84.2841170
  97.6163100 149.3164750  74.6426760  98.0092670 149.6336950  73.8295450
  97.9779950 148.4376630  74.7571280  89.3510220 147.9837090  82.8326880
  88.9573610 148.8312300  83.0399660  88.6628620 147.3463460  83.0235520
  95.9255270 148.0672060  85.9023620  95.2353590 147.8744260  86.5369710
  96.6687570 148.3506700  86.4347920  86.6527270 145.9065550  76.8656960
  86.3640320 146.4768410  77.5781940  87.3973030 145.4270000  77.2288190
  86.8397500 149.8485670  68.0759680  86.7572170 150.7916430  68.2174670
  86.4880560 149.7060580  67.1972030  98.2018240 151.9070500  78.7377540
  97.4699360 152.4157310  79.0867640  97.8042580 151.0900480  78.4366320
  94.6395630 148.5824700  77.1430030  94.6431690 148.1414650  76.2934570
  95.5346750 148.9042030  77.2501850  90.4898010 148.4651190  76.1024240
  90.1498060 148.9426420  76.8591290  89.7275330 148.0116310  75.7425340
  94.7015780 149.5836780  70.1336790  94.8228600 149.5423260  71.0822610
  94.3164290 150.4460930  69.9783520  98.6644150 147.3604180  78.1500480
  98.6816890 147.8112830  78.9942330  98.4159730 146.4609820  78.3633920
  93.7137280 151.8937920  69.5320090  93.1454180 151.4456170  68.9056000
  94.4226280 152.2530700  68.9985240 102.0914900 144.7736360  83.9886860
 102.4160670 144.0426020  84.5144840 102.1271410 144.4550000  83.0867850
  94.9403600 152.6426480  78.8895440  95.3073730 152.1685050  79.6356780
  94.7508660 153.5168050  79.2303780  87.8044090 147.3870170  75.0188910
  87.5191010 147.0225840  75.8567530  87.7422950 146.6550630  74.4052050
  92.7302970 151.6835120  81.2079650  92.4260040 152.5627100  81.4330010
  93.6849430 151.7434910  81.2437090  97.4782680 146.2799430  71.7402280
  96.6647290 145.7812600  71.6647590  97.2844630 147.1197680  71.3238630
 100.1931070 150.6519080  70.0364440 101.0810690 150.9636310  69.8615780
 100.1636160 149.7791330  69.6445020  88.7866700 152.5237860  82.3551010
  88.4281640 153.1891710  82.9424350  88.4921260 151.6921410  82.7263630
  91.9879820 152.9822100  85.2390560  91.6879960 153.1279280  84.3418380
  92.7591060 152.4227390  85.1463950 102.4645340 151.9630920  69.5044300
 102.3809060 152.3945140  68.6540740 103.1839530 152.4229270  69.9371120
  87.2974750 152.5229120  68.9785610  88.1669600 152.8053920  69.2621530
  86.8065070 153.3364990  68.8634420  90.3621340 144.2539980  73.5716410
  90.2335970 144.2457880  74.5201330  89.5383360 144.5923070  73.2207420
  87.3615270 146.0131100  83.0323110  86.6473790 146.2128020  83.6375720
  87.7810310 145.2370670  83.4037910  98.8554050 148.5053410  80.7824560
  99.2234870 147.6848620  81.1104130  97.9952250 148.5655300  81.1980210
 102.2216080 147.4610350  71.5912120 101.5929240 147.5656020  70.8770350
 101.7268000 147.6807130  72.3806000  94.1900110 149.7396300  73.0070000
  93.4816260 150.2082640  73.4483610  94.4744590 149.0818310  73.6415190
  95.8156040 151.1593000  81.0062530  96.3141290 151.6338820  81.6714380
  95.9578990 150.2356520  81.2132560  98.2215540 146.4646960  74.4465790
  98.0983320 146.4833090  73.4975300  99.1700100 146.5125900  74.5664190
  92.3935130 148.0481380  70.3820710  93.2425660 148.4851530  70.3160900
  92.0266400 148.3601640  71.2092770 103.0222900 147.3760960  81.8490920
 102.5196500 148.1166360  82.1884730 103.8379560 147.7644960  81.5327710
 101.3144910 152.6194140  75.2952280 100.3735050 152.6344370  75.4699970
 101.6288980 151.8330100  75.7412580  91.2926550 154.3013740  68.8556240
  92.0589820 154.1895100  69.4181670  91.3701240 153.6051710  68.2033010
  89.9873310 151.7338810  69.5389130  90.0676900 150.7866320  69.6506530
  90.8793060 152.0645690  69.6449790  87.5144110 153.5553730  84.7745300
  88.0183130 152.9761010  85.3461530  86.7751530 153.8393960  85.3121670
  89.5467190 151.6983320  85.6695370  89.5872530 151.3997190  86.5780600
  90.4012690 152.0990930  85.5102890  93.3245580 154.2978870  70.8298880
  93.7462000 154.1318740  71.6730270  93.4496420 153.4879100  70.3354020
  91.4873000 150.2775420  83.6369860  90.9569460 149.7866370  83.0093200
  92.1561070 150.7059620  83.1027790  95.8373220 153.3216480  68.0775980
  96.3578880 152.6065500  67.7117130  96.4841620 153.9602350  68.3776490
 100.8573230 152.0841040  85.4050200 101.4394000 151.3293360  85.3170680
 101.0335000 152.6148480  84.6281680  91.9745300 147.2437790  83.7167150
  91.8802170 146.6258540  82.9918020  91.3942690 147.9704080  83.4897060
  94.7406740 145.8011030  80.7494540  94.2924040 145.8235290  79.9040090
  94.1071940 145.4030050  81.3464840  97.4830190 152.4281540  82.7544820
  97.6026400 151.8322680  83.4939660  98.3424190 152.4651230  82.3346120
  99.8218090 152.9818730  81.3307330  99.2953310 153.5061350  80.7272470
 100.1649430 153.6146120  81.9617060  92.2204480 150.3712100  67.7757040
  92.0193540 149.5079460  68.1370380  92.0496530 150.2845460  66.8378640
  94.2498960 148.9702890  84.0120640  94.8398650 148.6618740  84.6998460
  93.4319200 148.4982640  84.1680540  99.0692390 148.5868700  84.2453660
  98.3807910 147.9250240  84.1803650  99.7898410 148.1406970  84.6902120
  99.6992790 145.1820330  70.3043920  99.9795080 144.3388230  70.6603340
  98.9258520 145.4143440  70.8182670  91.0187280 147.4712720  67.7634920
  91.3213180 147.4780150  66.8554070  91.7581870 147.1210580  68.2602580
  94.2372210 146.4147340  68.7491120  93.8894210 145.7371330  68.1693570
  94.4384980 145.9536850  69.5634510  87.5777850 152.9434990  75.1455490
  86.9226690 152.6746630  74.5015190  88.4155800 152.8339470  74.6957470
 100.5268290 147.7376280  69.3673980 100.9453170 147.5507260  68.5270640
 100.2204350 146.8855330  69.6776910 104.0258020 152.6500420  73.0649780
 103.6501620 151.8828350  72.6331070 103.2961140 153.0323120  73.5524710
  88.6153780 153.3287560  79.6858830  88.9826820 153.2414960  80.5654850
  88.0464600 152.5654110  79.5865690 103.4157640 151.7971940  82.6989300
 103.1843730 151.5684690  81.7987250 103.6762190 152.7171490  82.6534190
  88.1669780 150.2396650  83.5917250  87.2725830 150.2063410  83.9310960
  88.7067330 150.4383440  84.3568500 101.8545710 147.0228370  85.4769000
 102.7315890 147.0311770  85.8603000 101.8666550 146.2859210  84.8661350
  86.7915930 150.1533920  71.0880820  85.8880010 150.4164120  70.9132480
  87.2756550 150.4245090  70.3080780 103.3008980 150.8757910  76.3657020
 103.8246460 150.3820560  75.7347190 103.8868400 151.0108270  77.1104590
 103.4798700 150.9597780  79.8876570 102.5301410 150.9261320  80.0021560
 103.6611710 151.8697890  79.6526340  89.3343140 149.2099460  68.9975200
  90.0434840 148.7882680  68.5122480  88.6183080 149.2774690  68.3658550
  88.9817300 145.2638790  68.0377850  89.7045430 145.8047730  68.3559070
  89.2541820 144.9902210  67.1619390 102.7908950 150.1331260  72.3049430
 103.2868070 149.9002130  73.0898310 102.5925020 149.2943100  71.8887070
  88.6709490 144.5144980  77.9400470  89.3185680 143.9642360  77.4995630
  89.0911330 144.7688130  78.7616280 104.2196110 148.7692210  74.8387110
 104.1095390 148.6148250  75.7769380 104.9803700 148.2413150  74.5962520
 102.5661830 144.7086340  81.2970110 103.2034050 145.3220480  81.6629300
 102.7136720 144.7447000  80.3519340 105.1086380 146.6000130  68.0793250
 106.0335690 146.4681310  67.8711540 105.0862170 146.6792950  69.0329700
 105.1824870 147.3710790  70.7049960 104.3876370 147.3055910  71.2342870
 105.3868150 148.3061430  70.6935310  88.4241490 144.6700650  80.6825790
  88.0756310 145.1264470  81.4483970  88.0929190 143.7757780  80.7648220
  95.9366310 145.8612530  84.2045210  95.8755200 146.4534360  84.9540620
  96.8766690 145.7538490  84.0595470  98.5740870 145.5182590  83.8437500
  99.1881280 145.8361880  83.1818580  99.1190430 145.0331180  84.4633360
  89.0962130 144.1976850  83.9576560  89.6445120 144.0164900  83.1942670
  89.1617440 143.4070960  84.4932870  99.3148910 144.0814730  80.1706790
  98.4408750 144.4149840  79.9679720  99.2059660 143.6087910  80.9958660
 100.2220890 146.2885600  81.5548510  99.8934250 145.4737360  81.1750240
 101.1703190 146.2455410  81.4314200  97.0623730 144.9984570  79.1099700
  96.2795520 145.4730070  79.3896460  96.7686660 144.0939400  79.0012880
 101.6144800 145.7007670  77.1548790 102.0552890 145.6452770  76.3070390
 101.3452390 146.6165680  77.2258970 103.4783370 145.3322910  75.1657610
 103.4171770 144.3884130  75.0188630 104.2575400 145.4403000  75.7111070
  88.4064140 145.3032050  71.6313420  89.1643500 145.4160930  71.0577450
  87.9441310 146.1401250  71.5856850  94.9477950 147.4171320  74.6215730
  94.1352460 147.0428210  74.2811610  95.4519590 146.6616400  74.9236920
  99.4502930 144.0813770  75.8598800 100.0532300 144.6533980  76.3347320
  98.7095920 144.6453210  75.6372700 102.5937530 144.4835330  71.1339080
 102.7888160 145.3818780  71.4006510 101.8067400 144.2522410  71.6272030
  90.7789290 145.8296100  70.1715390  91.3082050 145.0425900  70.0423340
  91.4117610 146.5087290  70.4050920  92.9727130 145.5671240  73.2260780
  92.3429870 144.8658550  73.3930910  92.4332270 146.3275370  73.0093940
  93.0982690 144.8455220  85.6613270  92.8166960 145.3488820  84.8974090
  93.4802390 144.0476970  85.2955400  99.6998150 144.2608800  86.2393740
  99.5863600 144.5803410  87.1345260 100.5167890 144.6621310  85.9431020
  98.6056300 152.2801270  56.6028480  98.5250350 151.3655880  56.3320190
  98.1920720 152.7768340  55.8968190  96.7374340 154.0580290  58.4837750
  95.9616440 153.5780730  58.7736320  97.3887270 153.3785940  58.3093910
  89.1632120 149.3301990  53.1455900  88.2748820 149.6717960  53.0435780
  89.4473310 149.1302310  52.2536730  87.1265130 151.9307640  59.0295600
  87.6981240 151.1629840  59.0299240  87.1266670 152.2296400  58.1202210
  88.3690000 147.3392000  60.8164530  88.1892840 146.4417750  61.0967290
  87.9670080 147.8863870  61.4911480  97.2088500 149.5407860  58.7176840
  97.5853320 148.6679740  58.6050510  97.1108010 149.8766560  57.8267280
  91.3393510 147.9133490  54.1794280  91.4460260 148.8137220  54.4863040
  90.4285870 147.8651460  53.8888930 100.9912620 147.0358300  55.6505180
 101.8122240 146.5454870  55.6930660 101.0246700 147.6255960  56.4037020
  88.9876670 149.8352500  59.4246870  89.6686780 150.0990870  60.0434270
  88.6724720 148.9953370  59.7584880  93.1801240 150.8819860  58.5119460
  93.6879460 151.3800830  59.1524480  93.7114480 150.1055060  58.3358820
 105.2812170 149.0525050  62.2148810 104.5764340 149.4406760  61.6963920
 105.5470090 149.7475340  62.8169740  91.4637340 145.5218420  62.7782880
  91.4655780 146.0390810  61.9728780  90.6341650 145.0448600  62.7552810
 101.2274100 148.9758680  58.4232720 100.5229670 149.2643570  59.0035830
 101.5886260 149.7858790  58.0632280  91.1452670 147.2328380  60.7853330
  91.4869480 148.0770430  60.4907200  90.2068480 147.3812120  60.9018670
 104.2961020 148.4213470  58.8141930 103.3485930 148.4552450  58.9457360
 104.6211010 149.2352420  59.1991290  94.8280560 144.7210650  57.1097920
  95.1355540 144.1657540  56.3933420  93.8981260 144.8555110  56.9270910
  97.2161320 152.7859480  53.8458040  96.2890600 152.7196860  54.0746510
  97.3686140 153.7239610  53.7313280  97.2030400 149.0576480  50.8425200
  96.2634070 149.2190440  50.9277660  97.5213660 149.7762160  50.2961190
 100.6885170 150.5264320  61.7659100 100.2756350 151.3518030  62.0199090
  99.9561120 149.9409360  61.5735460  92.8217960 153.3124220  56.6277770
  92.4174960 152.6001470  56.1323670  92.9081080 152.9677460  57.5165810
  91.5346580 150.0867430  60.4076810  92.0861170 150.1962770  59.6330060
  92.0490090 150.4605030  61.1232040  99.4223310 153.5866590  51.3566040
  99.8616590 152.7489020  51.2103860 100.1351730 154.2195990  51.4430180
 103.0040450 144.8409400  49.6707080 102.6913110 144.9336230  50.5706150
 103.7652920 145.4190430  49.6204510  89.5222590 152.2069200  54.1284420
  89.4020190 152.9331290  53.5165690  89.2123480 151.4372110  53.6512330
 104.2141740 149.5780900  65.6481220 103.5986010 150.0860570  65.1196680
 103.8938160 148.6779230  65.5907160  91.9886250 145.5504270  57.5108090
  91.5454400 146.3313810  57.1792610  92.5471240 145.8734160  58.2179030
  96.2756060 148.4172790  63.1143410  95.8135430 148.6255810  63.9263350
  95.8734170 147.6032140  62.8114080 101.2760570 149.6381740  64.2440070
 100.4254160 149.3387490  64.5649140 101.1162360 149.8823750  63.3323890
  98.3710280 151.1383490  66.3438860  98.6963690 150.3047240  66.0041090
  99.1590610 151.6612010  66.4917190  95.1045070 145.1714970  52.3913920
  94.4799250 145.1674840  53.1167230  95.0175190 144.3045930  51.9949890
  94.0262150 146.0951600  59.3697690  94.3234480 147.0014430  59.2889710
  94.5747710 145.6070380  58.7557260  91.7800470 150.6737840  55.2389340
  91.5541390 150.4575010  56.1435960  90.9993000 151.1066300  54.8935310
  99.0098230 150.6801210  53.8379990  98.4107120 151.4037010  53.6543610
  99.5577840 150.6177990  53.0556440  94.2199680 151.5723420  65.9049610
  94.1243280 150.6318150  65.7550010  95.0631660 151.7938490  65.5097680
  97.6163100 149.3164750  55.8683270  98.0092670 149.6336950  55.0551960
  97.9779950 148.4376630  55.9827790  89.3510220 147.9837090  64.0583390
  88.9573610 148.8312300  64.2656170  88.6628620 147.3463460  64.2492030
  95.9255270 148.0672060  67.1280130  95.2353590 147.8744260  67.7626220
  96.6687570 148.3506700  67.6604430  86.6527270 145.9065550  58.0913470
  86.3640320 146.4768410  58.8038450  87.3973030 145.4270000  58.4544700
  86.8397500 149.8485670  49.3016190  86.7572170 150.7916430  49.4431180
  86.4880560 149.7060580  48.4228540  98.2018240 151.9070500  59.9634050
  97.4699360 152.4157310  60.3124150  97.8042580 151.0900480  59.6622830
  94.6395630 148.5824700  58.3686540  94.6431690 148.1414650  57.5191080
  95.5346750 148.9042030  58.4758360  90.4898010 148.4651190  57.3280750
  90.1498060 148.9426420  58.0847800  89.7275330 148.0116310  56.9681850
  94.7015780 149.5836780  51.3593300  94.8228600 149.5423260  52.3079120
  94.3164290 150.4460930  51.2040030  98.6644150 147.3604180  59.3756990
  98.6816890 147.8112830  60.2198840  98.4159730 146.4609820  59.5890430
  93.7137280 151.8937920  50.7576600  93.1454180 151.4456170  50.1312510
  94.4226280 152.2530700  50.2241750 102.0914900 144.7736360  65.2143370
 102.4160670 144.0426020  65.7401350 102.1271410 144.4550000  64.3124360
  94.9403600 152.6426480  60.1151950  95.3073730 152.1685050  60.8613290
  94.7508660 153.5168050  60.4560290  87.8044090 147.3870170  56.2445420
  87.5191010 147.0225840  57.0824040  87.7422950 146.6550630  55.6308560
  92.7302970 151.6835120  62.4336160  92.4260040 152.5627100  62.6586520
  93.6849430 151.7434910  62.4693600  97.4782680 146.2799430  52.9658790
  96.6647290 145.7812600  52.8904100  97.2844630 147.1197680  52.5495140
 100.1931070 150.6519080  51.2620950 101.0810690 150.9636310  51.0872290
 100.1636160 149.7791330  50.8701530  88.7866700 152.5237860  63.5807520
  88.4281640 153.1891710  64.1680860  88.4921260 151.6921410  63.9520140
  91.9879820 152.9822100  66.4647070  91.6879960 153.1279280  65.5674890
  92.7591060 152.4227390  66.3720460 102.4645340 151.9630920  50.7300810
 102.3809060 152.3945140  49.8797250 103.1839530 152.4229270  51.1627630
  87.2974750 152.5229120  50.2042120  88.1669600 152.8053920  50.4878040
  86.8065070 153.3364990  50.0890930  90.3621340 144.2539980  54.7972920
  90.2335970 144.2457880  55.7457840  89.5383360 144.5923070  54.4463930
  87.3615270 146.0131100  64.2579620  86.6473790 146.2128020  64.8632230
  87.7810310 145.2370670  64.6294420  98.8554050 148.5053410  62.0081070
  99.2234870 147.6848620  62.3360640  97.9952250 148.5655300  62.4236720
 102.2216080 147.4610350  52.8168630 101.5929240 147.5656020  52.1026860
 101.7268000 147.6807130  53.6062510  94.1900110 149.7396300  54.2326510
  93.4816260 150.2082640  54.6740120  94.4744590 149.0818310  54.8671700
  95.8156040 151.1593000  62.2319040  96.3141290 151.6338820  62.8970890
  95.9578990 150.2356520  62.4389070  98.2215540 146.4646960  55.6722300
  98.0983320 146.4833090  54.7231810  99.1700100 146.5125900  55.7920700
  92.3935130 148.0481380  51.6077220  93.2425660 148.4851530  51.5417410
  92.0266400 148.3601640  52.4349280 103.0222900 147.3760960  63.0747430
 102.5196500 148.1166360  63.4141240 103.8379560 147.7644960  62.7584220
 101.3144910 152.6194140  56.5208790 100.3735050 152.6344370  56.6956480
 101.6288980 151.8330100  56.9669090  91.2926550 154.3013740  50.0812750
  92.0589820 154.1895100  50.6438180  91.3701240 153.6051710  49.4289520
  89.9873310 151.7338810  50.7645640  90.0676900 150.7866320  50.8763040
  90.8793060 152.0645690  50.8706300  87.5144110 153.5553730  66.0001810
  88.0183130 152.9761010  66.5718040  86.7751530 153.8393960  66.5378180
  89.5467190 151.6983320  66.8951880  89.5872530 151.3997190  67.8037110
  90.4012690 152.0990930  66.7359400  93.3245580 154.2978870  52.0555390
  93.7462000 154.1318740  52.8986780  93.4496420 153.4879100  51.5610530
  91.4873000 150.2775420  64.8626370  90.9569460 149.7866370  64.2349710
  92.1561070 150.7059620  64.3284300  95.8373220 153.3216480  49.3032490
  96.3578880 152.6065500  48.9373640  96.4841620 153.9602350  49.6033000
 100.8573230 152.0841040  66.6306710 101.4394000 151.3293360  66.5427190
 101.0335000 152.6148480  65.8538190  91.9745300 147.2437790  64.9423660
  91.8802170 146.6258540  64.2174530  91.3942690 147.9704080  64.7153570
  94.7406740 145.8011030  61.9751050  94.2924040 145.8235290  61.1296600
  94.1071940 145.4030050  62.5721350  97.4830190 152.4281540  63.9801330
  97.6026400 151.8322680  64.7196170  98.3424190 152.4651230  63.5602630
  99.8218090 152.9818730  62.5563840  99.2953310 153.5061350  61.9528980
 100.1649430 153.6146120  63.1873570  92.2204480 150.3712100  49.0013550
  92.0193540 149.5079460  49.3626890  92.0496530 150.2845460  48.0635150
  94.2498960 148.9702890  65.2377150  94.8398650 148.6618740  65.9254970
  93.4319200 148.4982640  65.3937050  99.0692390 148.5868700  65.4710170
  98.3807910 147.9250240  65.4060160  99.7898410 148.1406970  65.9158630
  99.6992790 145.1820330  51.5300430  99.9795080 144.3388230  51.8859850
  98.9258520 145.4143440  52.0439180  91.0187280 147.4712720  48.9891430
  91.3213180 147.4780150  48.0810580  91.7581870 147.1210580  49.4859090
  94.2372210 146.4147340  49.9747630  93.8894210 145.7371330  49.3950080
  94.4384980 145.9536850  50.7891020  87.5777850 152.9434990  56.3712000
  86.9226690 152.6746630  55.7271700  88.4155800 152.8339470  55.9213980
 100.5268290 147.7376280  50.5930490 100.9453170 147.5507260  49.7527150
 100.2204350 146.8855330  50.9033420 104.0258020 152.6500420  54.2906290
 103.6501620 151.8828350  53.8587580 103.2961140 153.0323120  54.7781220
  88.6153780 153.3287560  60.9115340  88.9826820 153.2414960  61.7911360
  88.0464600 152.5654110  60.8122200 103.4157640 151.7971940  63.9245810
 103.1843730 151.5684690  63.0243760 103.6762190 152.7171490  63.8790700
  88.1669780 150.2396650  64.8173760  87.2725830 150.2063410  65.1567470
  88.7067330 150.4383440  65.5825010 101.8545710 147.0228370  66.7025510
 102.7315890 147.0311770  67.0859510 101.8666550 146.2859210  66.0917860
  86.7915930 150.1533920  52.3137330  85.8880010 150.4164120  52.1388990
  87.2756550 150.4245090  51.5337290 103.3008980 150.8757910  57.5913530
 103.8246460 150.3820560  56.9603700 103.8868400 151.0108270  58.3361100
 103.4798700 150.9597780  61.1133080 102.5301410 150.9261320  61.2278070
 103.6611710 151.8697890  60.8782850  89.3343140 149.2099460  50.2231710
  90.0434840 148.7882680  49.7378990  88.6183080 149.2774690  49.5915060
  88.9817300 145.2638790  49.2634360  89.7045430 145.8047730  49.5815580
  89.2541820 144.9902210  48.3875900 102.7908950 150.1331260  53.5305940
 103.2868070 149.9002130  54.3154820 102.5925020 149.2943100  53.1143580
  88.6709490 144.5144980  59.1656980  89.3185680 143.9642360  58.7252140
  89.0911330 144.7688130  59.9872790 104.2196110 148.7692210  56.0643620
 104.1095390 148.6148250  57.0025890 104.9803700 148.2413150  55.8219030
 102.5661830 144.7086340  62.5226620 103.2034050 145.3220480  62.8885810
 102.7136720 144.7447000  61.5775850 105.1086380 146.6000130  49.3049760
 106.0335690 146.4681310  49.0968050 105.0862170 146.6792950  50.2586210
 105.1824870 147.3710790  51.9306470 104.3876370 147.3055910  52.4599380
 105.3868150 148.3061430  51.9191820  88.4241490 144.6700650  61.9082300
  88.0756310 145.1264470  62.6740480  88.0929190 143.7757780  61.9904730
  95.9366310 145.8612530  65.4301720  95.8755200 146.4534360  66.1797130
  96.8766690 145.7538490  65.2851980  98.5740870 145.5182590  65.0694010
  99.1881280 145.8361880  64.4075090  99.1190430 145.0331180  65.6889870
  89.0962130 144.1976850  65.1833070  89.6445120 144.0164900  64.4199180
  89.1617440 143.4070960  65.7189380  99.3148910 144.0814730  61.3963300
  98.4408750 144.4149840  61.1936230  99.2059660 143.6087910  62.2215170
 100.2220890 146.2885600  62.7805020  99.8934250 145.4737360  62.4006750
 101.1703190 146.2455410  62.6570710  97.0623730 144.9984570  60.3356210
  96.2795520 145.4730070  60.6152970  96.7686660 144.0939400  60.2269390
 101.6144800 145.7007670  58.3805300 102.0552890 145.6452770  57.5326900
 101.3452390 146.6165680  58.4515480 103.4783370 145.3322910  56.3914120
 103.4171770 144.3884130  56.2445140 104.2575400 145.4403000  56.9367580
  88.4064140 145.3032050  52.8569930  89.1643500 145.4160930  52.2833960
  87.9441310 146.1401250  52.8113360  94.9477950 147.4171320  55.8472240
  94.1352460 147.0428210  55.5068120  95.4519590 146.6616400  56.1493430
  99.4502930 144.0813770  57.0855310 100.0532300 144.6533980  57.5603830
  98.7095920 144.6453210  56.8629210 102.5937530 144.4835330  52.3595590
 102.7888160 145.3818780  52.6263020 101.8067400 144.2522410  52.8528540
  90.7789290 145.8296100  51.3971900  91.3082050 145.0425900  51.2679850
  91.4117610 146.5087290  51.6307430  92.9727130 145.5671240  54.4517290
  92.3429870 144.8658550  54.6187420  92.4332270 146.3275370  54.2350450
  93.0982690 144.8455220  66.8869780  92.8166960 145.3488820  66.1230600
  93.4802390 144.0476970  66.5211910  99.6998150 144.2608800  67.4650250
  99.5863600 144.5803410  68.3601770 100.5167890 144.6621310  67.1687530
  98.6056300 152.2801270  37.8284990  98.5250350 151.3655880  37.5576700
  98.1920720 152.7768340  37.1224700  96.7374340 154.0580290  39.7094260
  95.9616440 153.5780730  39.9992830  97.3887270 153.3785940  39.5350420
  89.1632120 149.3301990  34.3712410  88.2748820 149.6717960  34.2692290
  89.4473310 149.1302310  33.4793240  87.1265130 151.9307640  40.2552110
  87.6981240 151.1629840  40.2555750  87.1266670 152.2296400  39.3458720
  88.3690000 147.3392000  42.0421040  88.1892840 146.4417750  42.3223800
  87.9670080 147.8863870  42.7167990  97.2088500 149.5407860  39.9433350
  97.5853320 148.6679740  39.8307020  97.1108010 149.8766560  39.0523790
  91.3393510 147.9133490  35.4050790  91.4460260 148.8137220  35.7119550
  90.4285870 147.8651460  35.1145440 100.9912620 147.0358300  36.8761690
 101.8122240 146.5454870  36.9187170 101.0246700 147.6255960  37.6293530
  88.9876670 149.8352500  40.6503380  89.6686780 150.0990870  41.2690780
  88.6724720 148.9953370  40.9841390  93.1801240 150.8819860  39.7375970
  93.6879460 151.3800830  40.3780990  93.7114480 150.1055060  39.5615330
 105.2812170 149.0525050  43.4405320 104.5764340 149.4406760  42.9220430
 105.5470090 149.7475340  44.0426250  91.4637340 145.5218420  44.0039390
  91.4655780 146.0390810  43.1985290  90.6341650 145.0448600  43.9809320
 101.2274100 148.9758680  39.6489230 100.5229670 149.2643570  40.2292340
 101.5886260 149.7858790  39.2888790  91.1452670 147.2328380  42.0109840
  91.4869480 148.0770430  41.7163710  90.2068480 147.3812120  42.1275180
 104.2961020 148.4213470  40.0398440 103.3485930 148.4552450  40.1713870
 104.6211010 149.2352420  40.4247800  94.8280560 144.7210650  38.3354430
  95.1355540 144.1657540  37.6189930  93.8981260 144.8555110  38.1527420
  97.2161320 152.7859480  35.0714550  96.2890600 152.7196860  35.3003020
  97.3686140 153.7239610  34.9569790  97.2030400 149.0576480  32.0681710
  96.2634070 149.2190440  32.1534170  97.5213660 149.7762160  31.5217700
 100.6885170 150.5264320  42.9915610 100.2756350 151.3518030  43.2455600
  99.9561120 149.9409360  42.7991970  92.8217960 153.3124220  37.8534280
  92.4174960 152.6001470  37.3580180  92.9081080 152.9677460  38.7422320
  91.5346580 150.0867430  41.6333320  92.0861170 150.1962770  40.8586570
  92.0490090 150.4605030  42.3488550  99.4223310 153.5866590  32.5822550
  99.8616590 152.7489020  32.4360370 100.1351730 154.2195990  32.6686690
 103.0040450 144.8409400  30.8963590 102.6913110 144.9336230  31.7962660
 103.7652920 145.4190430  30.8461020  89.5222590 152.2069200  35.3540930
  89.4020190 152.9331290  34.7422200  89.2123480 151.4372110  34.8768840
 104.2141740 149.5780900  46.8737730 103.5986010 150.0860570  46.3453190
 103.8938160 148.6779230  46.8163670  91.9886250 145.5504270  38.7364600
  91.5454400 146.3313810  38.4049120  92.5471240 145.8734160  39.4435540
  96.2756060 148.4172790  44.3399920  95.8135430 148.6255810  45.1519860
  95.8734170 147.6032140  44.0370590 101.2760570 149.6381740  45.4696580
 100.4254160 149.3387490  45.7905650 101.1162360 149.8823750  44.5580400
  98.3710280 151.1383490  47.5695370  98.6963690 150.3047240  47.2297600
  99.1590610 151.6612010  47.7173700  95.1045070 145.1714970  33.6170430
  94.4799250 145.1674840  34.3423740  95.0175190 144.3045930  33.2206400
  94.0262150 146.0951600  40.5954200  94.3234480 147.0014430  40.5146220
  94.5747710 145.6070380  39.9813770  91.7800470 150.6737840  36.4645850
  91.5541390 150.4575010  37.3692470  90.9993000 151.1066300  36.1191820
  99.0098230 150.6801210  35.0636500  98.4107120 151.4037010  34.8800120
  99.5577840 150.6177990  34.2812950  94.2199680 151.5723420  47.1306120
  94.1243280 150.6318150  46.9806520  95.0631660 151.7938490  46.7354190
  97.6163100 149.3164750  37.0939780  98.0092670 149.6336950  36.2808470
  97.9779950 148.4376630  37.2084300  89.3510220 147.9837090  45.2839900
  88.9573610 148.8312300  45.4912680  88.6628620 147.3463460  45.4748540
  95.9255270 148.0672060  48.3536640  95.2353590 147.8744260  48.9882730
  96.6687570 148.3506700  48.8860940  86.6527270 145.9065550  39.3169980
  86.3640320 146.4768410  40.0294960  87.3973030 145.4270000  39.6801210
  86.8397500 149.8485670  30.5272700  86.7572170 150.7916430  30.6687690
  86.4880560 149.7060580  29.6485050  98.2018240 151.9070500  41.1890560
  97.4699360 152.4157310  41.5380660  97.8042580 151.0900480  40.8879340
  94.6395630 148.5824700  39.5943050  94.6431690 148.1414650  38.7447590
  95.5346750 148.9042030  39.7014870  90.4898010 148.4651190  38.5537260
  90.1498060 148.9426420  39.3104310  89.7275330 148.0116310  38.1938360
  94.7015780 149.5836780  32.5849810  94.8228600 149.5423260  33.5335630
  94.3164290 150.4460930  32.4296540  98.6644150 147.3604180  40.6013500
  98.6816890 147.8112830  41.4455350  98.4159730 146.4609820  40.8146940
  93.7137280 151.8937920  31.9833110  93.1454180 151.4456170  31.3569020
  94.4226280 152.2530700  31.4498260 102.0914900 144.7736360  46.4399880
 102.4160670 144.0426020  46.9657860 102.1271410 144.4550000  45.5380870
  94.9403600 152.6426480  41.3408460  95.3073730 152.1685050  42.0869800
  94.7508660 153.5168050  41.6816800  87.8044090 147.3870170  37.4701930
  87.5191010 147.0225840  38.3080550  87.7422950 146.6550630  36.8565070
  92.7302970 151.6835120  43.6592670  92.4260040 152.5627100  43.8843030
  93.6849430 151.7434910  43.6950110  97.4782680 146.2799430  34.1915300
  96.6647290 145.7812600  34.1160610  97.2844630 147.1197680  33.7751650
 100.1931070 150.6519080  32.4877460 101.0810690 150.9636310  32.3128800
 100.1636160 149.7791330  32.0958040  88.7866700 152.5237860  44.8064030
  88.4281640 153.1891710  45.3937370  88.4921260 151.6921410  45.1776650
  91.9879820 152.9822100  47.6903580  91.6879960 153.1279280  46.7931400
  92.7591060 152.4227390  47.5976970 102.4645340 151.9630920  31.9557320
 102.3809060 152.3945140  31.1053760 103.1839530 152.4229270  32.3884140
  87.2974750 152.5229120  31.4298630  88.1669600 152.8053920  31.7134550
  86.8065070 153.3364990  31.3147440  90.3621340 144.2539980  36.0229430
  90.2335970 144.2457880  36.9714350  89.5383360 144.5923070  35.6720440
  87.3615270 146.0131100  45.4836130  86.6473790 146.2128020  46.0888740
  87.7810310 145.2370670  45.8550930  98.8554050 148.5053410  43.2337580
  99.2234870 147.6848620  43.5617150  97.9952250 148.5655300  43.6493230
 102.2216080 147.4610350  34.0425140 101.5929240 147.5656020  33.3283370
 101.7268000 147.6807130  34.8319020  94.1900110 149.7396300  35.4583020
  93.4816260 150.2082640  35.8996630  94.4744590 149.0818310  36.0928210
  95.8156040 151.1593000  43.4575550  96.3141290 151.6338820  44.1227400
  95.9578990 150.2356520  43.6645580  98.2215540 146.4646960  36.8978810
  98.0983320 146.4833090  35.9488320  99.1700100 146.5125900  37.0177210
  92.3935130 148.0481380  32.8333730  93.2425660 148.4851530  32.7673920
  92.0266400 148.3601640  33.6605790 103.0222900 147.3760960  44.3003940
 102.5196500 148.1166360  44.6397750 103.8379560 147.7644960  43.9840730
 101.3144910 152.6194140  37.7465300 100.3735050 152.6344370  37.9212990
 101.6288980 151.8330100  38.1925600  91.2926550 154.3013740  31.3069260
  92.0589820 154.1895100  31.8694690  91.3701240 153.6051710  30.6546030
  89.9873310 151.7338810  31.9902150  90.0676900 150.7866320  32.1019550
  90.8793060 152.0645690  32.0962810  87.5144110 153.5553730  47.2258320
  88.0183130 152.9761010  47.7974550  86.7751530 153.8393960  47.7634690
  89.5467190 151.6983320  48.1208390  89.5872530 151.3997190  49.0293620
  90.4012690 152.0990930  47.9615910  93.3245580 154.2978870  33.2811900
  93.7462000 154.1318740  34.1243290  93.4496420 153.4879100  32.7867040
  91.4873000 150.2775420  46.0882880  90.9569460 149.7866370  45.4606220
  92.1561070 150.7059620  45.5540810  95.8373220 153.3216480  30.5289000
  96.3578880 152.6065500  30.1630150  96.4841620 153.9602350  30.8289510
 100.8573230 152.0841040  47.8563220 101.4394000 151.3293360  47.7683700
 101.0335000 152.6148480  47.0794700  91.9745300 147.2437790  46.1680170
  91.8802170 146.6258540  45.4431040  91.3942690 147.9704080  45.9410080
  94.7406740 145.8011030  43.2007560  94.2924040 145.8235290  42.3553110
  94.1071940 145.4030050  43.7977860  97.4830190 152.4281540  45.2057840
  97.6026400 151.8322680  45.9452680  98.3424190 152.4651230  44.7859140
  99.8218090 152.9818730  43.7820350  99.2953310 153.5061350  43.1785490
 100.1649430 153.6146120  44.4130080  92.2204480 150.3712100  30.2270060
  92.0193540 149.5079460  30.5883400  92.0496530 150.2845460  29.2891660
  94.2498960 148.9702890  46.4633660  94.8398650 148.6618740  47.1511480
  93.4319200 148.4982640  46.6193560  99.0692390 148.5868700  46.6966680
  98.3807910 147.9250240  46.6316670  99.7898410 148.1406970  47.1415140
  99.6992790 145.1820330  32.7556940  99.9795080 144.3388230  33.1116360
  98.9258520 145.4143440  33.2695690  91.0187280 147.4712720  30.2147940
  91.3213180 147.4780150  29.3067090  91.7581870 147.1210580  30.7115600
  94.2372210 146.4147340  31.2004140  93.8894210 145.7371330  30.6206590
  94.4384980 145.9536850  32.0147530  87.5777850 152.9434990  37.5968510
  86.9226690 152.6746630  36.9528210  88.4155800 152.8339470  37.1470490
 100.5268290 147.7376280  31.8187000 100.9453170 147.5507260  30.9783660
 100.2204350 146.8855330  32.1289930 104.0258020 152.6500420  35.5162800
 103.6501620 151.8828350  35.0844090 103.2961140 153.0323120  36.0037730
  88.6153780 153.3287560  42.1371850  88.9826820 153.2414960  43.0167870
  88.0464600 152.5654110  42.0378710 103.4157640 151.7971940  45.1502320
 103.1843730 151.5684690  44.2500270 103.6762190 152.7171490  45.1047210
  88.1669780 150.2396650  46.0430270  87.2725830 150.2063410  46.3823980
  88.7067330 150.4383440  46.8081520 101.8545710 147.0228370  47.9282020
 102.7315890 147.0311770  48.3116020 101.8666550 146.2859210  47.3174370
  86.7915930 150.1533920  33.5393840  85.8880010 150.4164120  33.3645500
  87.2756550 150.4245090  32.7593800 103.3008980 150.8757910  38.8170040
 103.8246460 150.3820560  38.1860210 103.8868400 151.0108270  39.5617610
 103.4798700 150.9597780  42.3389590 102.5301410 150.9261320  42.4534580
 103.6611710 151.8697890  42.1039360  89.3343140 149.2099460  31.4488220
  90.0434840 148.7882680  30.9635500  88.6183080 149.2774690  30.8171570
  88.9817300 145.2638790  30.4890870  89.7045430 145.8047730  30.8072090
  89.2541820 144.9902210  29.6132410 102.7908950 150.1331260  34.7562450
 103.2868070 149.9002130  35.5411330 102.5925020 149.2943100  34.3400090
  88.6709490 144.5144980  40.3913490  89.3185680 143.9642360  39.9508650
  89.0911330 144.7688130  41.2129300 104.2196110 148.7692210  37.2900130
 104.1095390 148.6148250  38.2282400 104.9803700 148.2413150  37.0475540
 102.5661830 144.7086340  43.7483130 103.2034050 145.3220480  44.1142320
 102.7136720 144.7447000  42.8032360 105.1086380 146.6000130  30.5306270
 106.0335690 146.4681310  30.3224560 105.0862170 146.6792950  31.4842720
 105.1824870 147.3710790  33.1562980 104.3876370 147.3055910  33.6855890
 105.3868150 148.3061430  33.1448330  88.4241490 144.6700650  43.1338810
  88.0756310 145.1264470  43.8996990  88.0929190 143.7757780  43.2161240
  95.9366310 145.8612530  46.6558230  95.8755200 146.4534360  47.4053640
  96.8766690 145.7538490  46.5108490  98.5740870 145.5182590  46.2950520
  99.1881280 145.8361880  45.6331600  99.1190430 145.0331180  46.9146380
  89.0962130 144.1976850  46.4089580  89.6445120 144.0164900  45.6455690
  89.1617440 143.4070960  46.9445890  99.3148910 144.0814730  42.6219810
  98.4408750 144.4149840  42.4192740  99.2059660 143.6087910  43.4471680
 100.2220890 146.2885600  44.0061530  99.8934250 145.4737360  43.6263260
 101.1703190 146.2455410  43.8827220  97.0623730 144.9984570  41.5612720
  96.2795520 145.4730070  41.8409480  96.7686660 144.0939400  41.4525900
 101.6144800 145.7007670  39.6061810 102.0552890 145.6452770  38.7583410
 101.3452390 146.6165680  39.6771990 103.4783370 145.3322910  37.6170630
 103.4171770 144.3884130  37.4701650 104.2575400 145.4403000  38.1624090
  88.4064140 145.3032050  34.0826440  89.1643500 145.4160930  33.5090470
  87.9441310 146.1401250  34.0369870  94.9477950 147.4171320  37.0728750
  94.1352460 147.0428210  36.7324630  95.4519590 146.6616400  37.3749940
  99.4502930 144.0813770  38.3111820 100.0532300 144.6533980  38.7860340
  98.7095920 144.6453210  38.0885720 102.5937530 144.4835330  33.5852100
 102.7888160 145.3818780  33.8519530 101.8067400 144.2522410  34.0785050
  90.7789290 145.8296100  32.6228410  91.3082050 145.0425900  32.4936360
  91.4117610 146.5087290  32.8563940  92.9727130 145.5671240  35.6773800
  92.3429870 144.8658550  35.8443930  92.4332270 146.3275370  35.4606960
  93.0982690 144.8455220  48.1126290  92.8166960 145.3488820  47.3487110
  93.4802390 144.0476970  47.7468420  99.6998150 144.2608800  48.6906760
  99.5863600 144.5803410  49.5858280 100.5167890 144.6621310  48.3944040
  98.6056300 152.2801270  19.0541500  98.5250350 151.3655880  18.7833210
  98.1920720 152.7768340  18.3481210  96.7374340 154.0580290  20.9350770
  95.9616440 153.5780730  21.2249340  97.3887270 153.3785940  20.7606930
  89.1632120 149.3301990  15.5968920  88.2748820 149.6717960  15.4948800
  89.4473310 149.1302310  14.7049750  87.1265130 151.9307640  21.4808620
  87.6981240 151.1629840  21.4812260  87.1266670 152.2296400  20.5715230
  88.3690000 147.3392000  23.2677550  88.1892840 146.4417750  23.5480310
  87.9670080 147.8863870  23.9424500  97.2088500 149.5407860  21.1689860
  97.5853320 148.6679740  21.0563530  97.1108010 149.8766560  20.2780300
  91.3393510 147.9133490  16.6307300  91.4460260 148.8137220  16.9376060
  90.4285870 147.8651460  16.3401950 100.9912620 147.0358300  18.1018200
 101.8122240 146.5454870  18.1443680 101.0246700 147.6255960  18.8550040
  88.9876670 149.8352500  21.8759890  89.6686780 150.0990870  22.4947290
  88.6724720 148.9953370  22.2097900  93.1801240 150.8819860  20.9632480
  93.6879460 151.3800830  21.6037500  93.7114480 150.1055060  20.7871840
 105.2812170 149.0525050  24.6661830 104.5764340 149.4406760  24.1476940
 105.5470090 149.7475340  25.2682760  91.4637340 145.5218420  25.2295900
  91.4655780 146.0390810  24.4241800  90.6341650 145.0448600  25.2065830
 101.2274100 148.9758680  20.8745740 100.5229670 149.2643570  21.4548850
 101.5886260 149.7858790  20.5145300  91.1452670 147.2328380  23.2366350
  91.4869480 148.0770430  22.9420220  90.2068480 147.3812120  23.3531690
 104.2961020 148.4213470  21.2654950 103.3485930 148.4552450  21.3970380
 104.6211010 149.2352420  21.6504310  94.8280560 144.7210650  19.5610940
  95.1355540 144.1657540  18.8446440  93.8981260 144.8555110  19.3783930
  97.2161320 152.7859480  16.2971060  96.2890600 152.7196860  16.5259530
  97.3686140 153.7239610  16.1826300  97.2030400 149.0576480  13.2938220
  96.2634070 149.2190440  13.3790680  97.5213660 149.7762160  12.7474210
 100.6885170 150.5264320  24.2172120 100.2756350 151.3518030  24.4712110
  99.9561120 149.9409360  24.0248480  92.8217960 153.3124220  19.0790790
  92.4174960 152.6001470  18.5836690  92.9081080 152.9677460  19.9678830
  91.5346580 150.0867430  22.8589830  92.0861170 150.1962770  22.0843080
  92.0490090 150.4605030  23.5745060  99.4223310 153.5866590  13.8079060
  99.8616590 152.7489020  13.6616880 100.1351730 154.2195990  13.8943200
 103.0040450 144.8409400  12.1220100 102.6913110 144.9336230  13.0219170
 103.7652920 145.4190430  12.0717530  89.5222590 152.2069200  16.5797440
  89.4020190 152.9331290  15.9678710  89.2123480 151.4372110  16.1025350
 104.2141740 149.5780900  28.0994240 103.5986010 150.0860570  27.5709700
 103.8938160 148.6779230  28.0420180  91.9886250 145.5504270  19.9621110
  91.5454400 146.3313810  19.6305630  92.5471240 145.8734160  20.6692050
  96.2756060 148.4172790  25.5656430  95.8135430 148.6255810  26.3776370
  95.8734170 147.6032140  25.2627100 101.2760570 149.6381740  26.6953090
 100.4254160 149.3387490  27.0162160 101.1162360 149.8823750  25.7836910
  98.3710280 151.1383490  28.7951880  98.6963690 150.3047240  28.4554110
  99.1590610 151.6612010  28.9430210  95.1045070 145.1714970  14.8426940
  94.4799250 145.1674840  15.5680250  95.0175190 144.3045930  14.4462910
  94.0262150 146.0951600  21.8210710  94.3234480 147.0014430  21.7402730
  94.5747710 145.6070380  21.2070280  91.7800470 150.6737840  17.6902360
  91.5541390 150.4575010  18.5948980  90.9993000 151.1066300  17.3448330
  99.0098230 150.6801210  16.2893010  98.4107120 151.4037010  16.1056630
  99.5577840 150.6177990  15.5069460  94.2199680 151.5723420  28.3562630
  94.1243280 150.6318150  28.2063030  95.0631660 151.7938490  27.9610700
  97.6163100 149.3164750  18.3196290  98.0092670 149.6336950  17.5064980
  97.9779950 148.4376630  18.4340810  89.3510220 147.9837090  26.5096410
  88.9573610 148.8312300  26.7169190  88.6628620 147.3463460  26.7005050
  95.9255270 148.0672060  29.5793150  95.2353590 147.8744260  30.2139240
  96.6687570 148.3506700  30.1117450  86.6527270 145.9065550  20.5426490
  86.3640320 146.4768410  21.2551470  87.3973030 145.4270000  20.9057720
  86.8397500 149.8485670  11.7529210  86.7572170 150.7916430  11.8944200
  86.4880560 149.7060580  10.8741560  98.2018240 151.9070500  22.4147070
  97.4699360 152.4157310  22.7637170  97.8042580 151.0900480  22.1135850
  94.6395630 148.5824700  20.8199560  94.6431690 148.1414650  19.9704100
  95.5346750 148.9042030  20.9271380  90.4898010 148.4651190  19.7793770
  90.1498060 148.9426420  20.5360820  89.7275330 148.0116310  19.4194870
  94.7015780 149.5836780  13.8106320  94.8228600 149.5423260  14.7592140
  94.3164290 150.4460930  13.6553050  98.6644150 147.3604180  21.8270010
  98.6816890 147.8112830  22.6711860  98.4159730 146.4609820  22.0403450
  93.7137280 151.8937920  13.2089620  93.1454180 151.4456170  12.5825530
  94.4226280 152.2530700  12.6754770 102.0914900 144.7736360  27.6656390
 102.4160670 144.0426020  28.1914370 102.1271410 144.4550000  26.7637380
  94.9403600 152.6426480  22.5664970  95.3073730 152.1685050  23.3126310
  94.7508660 153.5168050  22.9073310  87.8044090 147.3870170  18.6958440
  87.5191010 147.0225840  19.5337060  87.7422950 146.6550630  18.0821580
  92.7302970 151.6835120  24.8849180  92.4260040 152.5627100  25.1099540
  93.6849430 151.7434910  24.9206620  97.4782680 146.2799430  15.4171810
  96.6647290 145.7812600  15.3417120  97.2844630 147.1197680  15.0008160
 100.1931070 150.6519080  13.7133970 101.0810690 150.9636310  13.5385310
 100.1636160 149.7791330  13.3214550  88.7866700 152.5237860  26.0320540
  88.4281640 153.1891710  26.6193880  88.4921260 151.6921410  26.4033160
  91.9879820 152.9822100  28.9160090  91.6879960 153.1279280  28.0187910
  92.7591060 152.4227390  28.8233480 102.4645340 151.9630920  13.1813830
 102.3809060 152.3945140  12.3310270 103.1839530 152.4229270  13.6140650
  87.2974750 152.5229120  12.6555140  88.1669600 152.8053920  12.9391060
  86.8065070 153.3364990  12.5403950  90.3621340 144.2539980  17.2485940
  90.2335970 144.2457880  18.1970860  89.5383360 144.5923070  16.8976950
  87.3615270 146.0131100  26.7092640  86.6473790 146.2128020  27.3145250
  87.7810310 145.2370670  27.0807440  98.8554050 148.5053410  24.4594090
  99.2234870 147.6848620  24.7873660  97.9952250 148.5655300  24.8749740
 102.2216080 147.4610350  15.2681650 101.5929240 147.5656020  14.5539880
 101.7268000 147.6807130  16.0575530  94.1900110 149.7396300  16.6839530
  93.4816260 150.2082640  17.1253140  94.4744590 149.0818310  17.3184720
  95.8156040 151.1593000  24.6832060  96.3141290 151.6338820  25.3483910
  95.9578990 150.2356520  24.8902090  98.2215540 146.4646960  18.1235320
  98.0983320 146.4833090  17.1744830  99.1700100 146.5125900  18.2433720
  92.3935130 148.0481380  14.0590240  93.2425660 148.4851530  13.9930430
  92.0266400 148.3601640  14.8862300 103.0222900 147.3760960  25.5260450
 102.5196500 148.1166360  25.8654260 103.8379560 147.7644960  25.2097240
 101.3144910 152.6194140  18.9721810 100.3735050 152.6344370  19.1469500
 101.6288980 151.8330100  19.4182110  91.2926550 154.3013740  12.5325770
  92.0589820 154.1895100  13.0951200  91.3701240 153.6051710  11.8802540
  89.9873310 151.7338810  13.2158660  90.0676900 150.7866320  13.3276060
  90.8793060 152.0645690  13.3219320  87.5144110 153.5553730  28.4514830
  88.0183130 152.9761010  29.0231060  86.7751530 153.8393960  28.9891200
  89.5467190 151.6983320  29.3464900  89.5872530 151.3997190  30.2550130
  90.4012690 152.0990930  29.1872420  93.3245580 154.2978870  14.5068410
  93.7462000 154.1318740  15.3499800  93.4496420 153.4879100  14.0123550
  91.4873000 150.2775420  27.3139390  90.9569460 149.7866370  26.6862730
  92.1561070 150.7059620  26.7797320  95.8373220 153.3216480  11.7545510
  96.3578880 152.6065500  11.3886660  96.4841620 153.9602350  12.0546020
 100.8573230 152.0841040  29.0819730 101.4394000 151.3293360  28.9940210
 101.0335000 152.6148480  28.3051210  91.9745300 147.2437790  27.3936680
  91.8802170 146.6258540  26.6687550  91.3942690 147.9704080  27.1666590
  94.7406740 145.8011030  24.4264070  94.2924040 145.8235290  23.5809620
  94.1071940 145.4030050  25.0234370  97.4830190 152.4281540  26.4314350
  97.6026400 151.8322680  27.1709190  98.3424190 152.4651230  26.0115650
  99.8218090 152.9818730  25.0076860  99.2953310 153.5061350  24.4042000
 100.1649430 153.6146120  25.6386590  92.2204480 150.3712100  11.4526570
  92.0193540 149.5079460  11.8139910  92.0496530 150.2845460  10.5148170
  94.2498960 148.9702890  27.6890170  94.8398650 148.6618740  28.3767990
  93.4319200 148.4982640  27.8450070  99.0692390 148.5868700  27.9223190
  98.3807910 147.9250240  27.8573180  99.7898410 148.1406970  28.3671650
  99.6992790 145.1820330  13.9813450  99.9795080 144.3388230  14.3372870
  98.9258520 145.4143440  14.4952200  91.0187280 147.4712720  11.4404450
  91.3213180 147.4780150  10.5323600  91.7581870 147.1210580  11.9372110
  94.2372210 146.4147340  12.4260650  93.8894210 145.7371330  11.8463100
  94.4384980 145.9536850  13.2404040  87.5777850 152.9434990  18.8225020
  86.9226690 152.6746630  18.1784720  88.4155800 152.8339470  18.3727000
 100.5268290 147.7376280  13.0443510 100.9453170 147.5507260  12.2040170
 100.2204350 146.8855330  13.3546440 104.0258020 152.6500420  16.7419310
 103.6501620 151.8828350  16.3100600 103.2961140 153.0323120  17.2294240
  88.6153780 153.3287560  23.3628360  88.9826820 153.2414960  24.2424380
  88.0464600 152.5654110  23.2635220 103.4157640 151.7971940  26.3758830
 103.1843730 151.5684690  25.4756780 103.6762190 152.7171490  26.3303720
  88.1669780 150.2396650  27.2686780  87.2725830 150.2063410  27.6080490
  88.7067330 150.4383440  28.0338030 101.8545710 147.0228370  29.1538530
 102.7315890 147.0311770  29.5372530 101.8666550 146.2859210  28.5430880
  86.7915930 150.1533920  14.7650350  85.8880010 150.4164120  14.5902010
  87.2756550 150.4245090  13.9850310 103.3008980 150.8757910  20.0426550
 103.8246460 150.3820560  19.4116720 103.8868400 151.0108270  20.7874120
 103.4798700 150.9597780  23.5646100 102.5301410 150.9261320  23.6791090
 103.6611710 151.8697890  23.3295870  89.3343140 149.2099460  12.6744730
  90.0434840 148.7882680  12.1892010  88.6183080 149.2774690  12.0428080
  88.9817300 145.2638790  11.7147380  89.7045430 145.8047730  12.0328600
  89.2541820 144.9902210  10.8388920 102.7908950 150.1331260  15.9818960
 103.2868070 149.9002130  16.7667840 102.5925020 149.2943100  15.5656600
  88.6709490 144.5144980  21.6170000  89.3185680 143.9642360  21.1765160
  89.0911330 144.7688130  22.4385810 104.2196110 148.7692210  18.5156640
 104.1095390 148.6148250  19.4538910 104.9803700 148.2413150  18.2732050
 102.5661830 144.7086340  24.9739640 103.2034050 145.3220480  25.3398830
 102.7136720 144.7447000  24.0288870 105.1086380 146.6000130  11.7562780
 106.0335690 146.4681310  11.5481070 105.0862170 146.6792950  12.7099230
 105.1824870 147.3710790  14.3819490 104.3876370 147.3055910  14.9112400
 105.3868150 148.3061430  14.3704840  88.4241490 144.6700650  24.3595320
  88.0756310 145.1264470  25.1253500  88.0929190 143.7757780  24.4417750
  95.9366310 145.8612530  27.8814740  95.8755200 146.4534360  28.6310150
  96.8766690 145.7538490  27.7365000  98.5740870 145.5182590  27.5207030
  99.1881280 145.8361880  26.8588110  99.1190430 145.0331180  28.1402890
  89.0962130 144.1976850  27.6346090  89.6445120 144.0164900  26.8712200
  89.1617440 143.4070960  28.1702400  99.3148910 144.0814730  23.8476320
  98.4408750 144.4149840  23.6449250  99.2059660 143.6087910  24.6728190
 100.2220890 146.2885600  25.2318040  99.8934250 145.4737360  24.8519770
 101.1703190 146.2455410  25.1083730  97.0623730 144.9984570  22.7869230
  96.2795520 145.4730070  23.0665990  96.7686660 144.0939400  22.6782410
 101.6144800 145.7007670  20.8318320 102.0552890 145.6452770  19.9839920
 101.3452390 146.6165680  20.9028500 103.4783370 145.3322910  18.8427140
 103.4171770 144.3884130  18.6958160 104.2575400 145.4403000  19.3880600
  88.4064140 145.3032050  15.3082950  89.1643500 145.4160930  14.7346980
  87.9441310 146.1401250  15.2626380  94.9477950 147.4171320  18.2985260
  94.1352460 147.0428210  17.9581140  95.4519590 146.6616400  18.6006450
  99.4502930 144.0813770  19.5368330 100.0532300 144.6533980  20.0116850
  98.7095920 144.6453210  19.3142230 102.5937530 144.4835330  14.8108610
 102.7888160 145.3818780  15.0776040 101.8067400 144.2522410  15.3041560
  90.7789290 145.8296100  13.8484920  91.3082050 145.0425900  13.7192870
  91.4117610 146.5087290  14.0820450  92.9727130 145.5671240  16.9030310
  92.3429870 144.8658550  17.0700440  92.4332270 146.3275370  16.6863470
  93.0982690 144.8455220  29.3382800  92.8166960 145.3488820  28.5743620
  93.4802390 144.0476970  28.9724930  99.6998150 144.2608800  29.9163270
  99.5863600 144.5803410  30.8114790 100.5167890 144.6621310  29.6200550
  96.7374340 154.0580290   2.1607280  95.9616440 153.5780730   2.4505850
  97.3887270 153.3785940   1.9863440  87.1265130 151.9307640   2.7065130
  87.6981240 151.1629840   2.7068770  87.1266670 152.2296400   1.7971740
  88.3690000 147.3392000   4.4934060  88.1892840 146.4417750   4.7736820
  87.9670080 147.8863870   5.1681010  88.9876670 149.8352500   3.1016400
  89.6686780 150.0990870   3.7203800  88.6724720 148.9953370   3.4354410
  93.1801240 150.8819860   2.1888990  93.6879460 151.3800830   2.8294010
  93.7114480 150.1055060   2.0128350 105.2812170 149.0525050   5.8918340
 104.5764340 149.4406760   5.3733450 105.5470090 149.7475340   6.4939270
  91.4637340 145.5218420   6.4552410  91.4655780 146.0390810   5.6498310
  90.6341650 145.0448600   6.4322340 101.2274100 148.9758680   2.1002250
 100.5229670 149.2643570   2.6805360 101.5886260 149.7858790   1.7401810
  91.1452670 147.2328380   4.4622860  91.4869480 148.0770430   4.1676730
  90.2068480 147.3812120   4.5788200 104.2961020 148.4213470   2.4911460
 103.3485930 148.4552450   2.6226890 104.6211010 149.2352420   2.8760820
 100.6885170 150.5264320   5.4428630 100.2756350 151.3518030   5.6968620
  99.9561120 149.9409360   5.2504990  91.5346580 150.0867430   4.0846340
  92.0861170 150.1962770   3.3099590  92.0490090 150.4605030   4.8001570
 104.2141740 149.5780900   9.3250750 103.5986010 150.0860570   8.7966210
 103.8938160 148.6779230   9.2676690  96.2756060 148.4172790   6.7912940
  95.8135430 148.6255810   7.6032880  95.8734170 147.6032140   6.4883610
 101.2760570 149.6381740   7.9209600 100.4254160 149.3387490   8.2418670
 101.1162360 149.8823750   7.0093420  98.3710280 151.1383490  10.0208390
  98.6963690 150.3047240   9.6810620  99.1590610 151.6612010  10.1686720
  94.0262150 146.0951600   3.0467220  94.3234480 147.0014430   2.9659240
  94.5747710 145.6070380   2.4326790  94.2199680 151.5723420   9.5819140
  94.1243280 150.6318150   9.4319540  95.0631660 151.7938490   9.1867210
  89.3510220 147.9837090   7.7352920  88.9573610 148.8312300   7.9425700
  88.6628620 147.3463460   7.9261560  95.9255270 148.0672060  10.8049660
  95.2353590 147.8744260  11.4395750  96.6687570 148.3506700  11.3373960
  86.6527270 145.9065550   1.7683000  86.3640320 146.4768410   2.4807980
  87.3973030 145.4270000   2.1314230  98.2018240 151.9070500   3.6403580
  97.4699360 152.4157310   3.9893680  97.8042580 151.0900480   3.3392360
  98.6644150 147.3604180   3.0526520  98.6816890 147.8112830   3.8968370
  98.4159730 146.4609820   3.2659960 102.0914900 144.7736360   8.8912900
 102.4160670 144.0426020   9.4170880 102.1271410 144.4550000   7.9893890
  94.9403600 152.6426480   3.7921480  95.3073730 152.1685050   4.5382820
  94.7508660 153.5168050   4.1329820  92.7302970 151.6835120   6.1105690
  92.4260040 152.5627100   6.3356050  93.6849430 151.7434910   6.1463130
  88.7866700 152.5237860   7.2577050  88.4281640 153.1891710   7.8450390
  88.4921260 151.6921410   7.6289670  91.9879820 152.9822100  10.1416600
  91.6879960 153.1279280   9.2444420  92.7591060 152.4227390  10.0489990
  87.3615270 146.0131100   7.9349150  86.6473790 146.2128020   8.5401760
  87.7810310 145.2370670   8.3063950  98.8554050 148.5053410   5.6850600
  99.2234870 147.6848620   6.0130170  97.9952250 148.5655300   6.1006250
  95.8156040 151.1593000   5.9088570  96.3141290 151.6338820   6.5740420
  95.9578990 150.2356520   6.1158600 103.0222900 147.3760960   6.7516960
 102.5196500 148.1166360   7.0910770 103.8379560 147.7644960   6.4353750
  87.5144110 153.5553730   9.6771340  88.0183130 152.9761010  10.2487570
  86.7751530 153.8393960  10.2147710  89.5467190 151.6983320  10.5721410
  89.5872530 151.3997190  11.4806640  90.4012690 152.0990930  10.4128930
  91.4873000 150.2775420   8.5395900  90.9569460 149.7866370   7.9119240
  92.1561070 150.7059620   8.0053830 100.8573230 152.0841040  10.3076240
 101.4394000 151.3293360  10.2196720 101.0335000 152.6148480   9.5307720
  91.9745300 147.2437790   8.6193190  91.8802170 146.6258540   7.8944060
  91.3942690 147.9704080   8.3923100  94.7406740 145.8011030   5.6520580
  94.2924040 145.8235290   4.8066130  94.1071940 145.4030050   6.2490880
  97.4830190 152.4281540   7.6570860  97.6026400 151.8322680   8.3965700
  98.3424190 152.4651230   7.2372160  99.8218090 152.9818730   6.2333370
  99.2953310 153.5061350   5.6298510 100.1649430 153.6146120   6.8643100
  94.2498960 148.9702890   8.9146680  94.8398650 148.6618740   9.6024500
  93.4319200 148.4982640   9.0706580  99.0692390 148.5868700   9.1479700
  98.3807910 147.9250240   9.0829690  99.7898410 148.1406970   9.5928160
  88.6153780 153.3287560   4.5884870  88.9826820 153.2414960   5.4680890
  88.0464600 152.5654110   4.4891730 103.4157640 151.7971940   7.6015340
 103.1843730 151.5684690   6.7013290 103.6762190 152.7171490   7.5560230
  88.1669780 150.2396650   8.4943290  87.2725830 150.2063410   8.8337000
  88.7067330 150.4383440   9.2594540 101.8545710 147.0228370  10.3795040
 102.7315890 147.0311770  10.7629040 101.8666550 146.2859210   9.7687390
 103.4798700 150.9597780   4.7902610 102.5301410 150.9261320   4.9047600
 103.6611710 151.8697890   4.5552380  88.6709490 144.5144980   2.8426510
  89.3185680 143.9642360   2.4021670  89.0911330 144.7688130   3.6642320
 102.5661830 144.7086340   6.1996150 103.2034050 145.3220480   6.5655340
 102.7136720 144.7447000   5.2545380  88.4241490 144.6700650   5.5851830
  88.0756310 145.1264470   6.3510010  88.0929190 143.7757780   5.6674260
  95.9366310 145.8612530   9.1071250  95.8755200 146.4534360   9.8566660
  96.8766690 145.7538490   8.9621510  98.5740870 145.5182590   8.7463540
  99.1881280 145.8361880   8.0844620  99.1190430 145.0331180   9.3659400
  89.0962130 144.1976850   8.8602600  89.6445120 144.0164900   8.0968710
  89.1617440 143.4070960   9.3958910  99.3148910 144.0814730   5.0732830
  98.4408750 144.4149840   4.8705760  99.2059660 143.6087910   5.8984700
 100.2220890 146.2885600   6.4574550  99.8934250 145.4737360   6.0776280
 101.1703190 146.2455410   6.3340240  97.0623730 144.9984570   4.0125740
  96.2795520 145.4730070   4.2922500  96.7686660 144.0939400   3.9038920
  93.0982690 144.8455220  10.5639310  92.8166960 145.3488820   9.8000130
  93.4802390 144.0476970  10.1981440  99.6998150 144.2608800  11.1419780
  99.5863600 144.5803410  12.0371300 100.5167890 144.6621310  10.8457060
  98.6056300 133.5057780 150.4745930  98.5250350 132.5912390 150.2037640
  98.1920720 134.0024850 149.7685640 100.7581770 139.6896990 151.1354330
 100.2963300 138.9184230 151.4641500 101.5707320 139.7163060 151.6406780
  89.1632120 130.5558500 147.0173350  88.2748820 130.8974470 146.9153230
  89.4473310 130.3558820 146.1254180  96.9845080 141.9755000 150.7558320
  96.3656520 142.4312500 150.1852760  97.8396860 142.1306460 150.3548020
  91.3393510 129.1390000 148.0511730  91.4460260 130.0393730 148.3580490
  90.4285870 129.0907970 147.7606380 100.9912620 128.2614810 149.5222630
 101.8122240 127.7711380 149.5648110 101.0246700 128.8512470 150.2754470
  97.8508430 136.8594240 148.1490230  97.2325700 137.3243690 147.5852950
  98.3631680 137.5521720 148.5659740  87.2191630 137.5450770 145.5229860
  86.8419610 138.0337870 144.7914760  87.4764700 138.2176050 146.1536390
  94.8280560 125.9467160 150.9815370  95.1355540 125.3914050 150.2650870
  93.8981260 126.0811620 150.7988360 101.6741040 138.3850670 148.3613000
 101.5637370 137.4425000 148.4862420 101.6709290 138.7466310 149.2475760
  97.2161320 134.0115990 147.7175490  96.2890600 133.9453370 147.9463960
  97.3686140 134.9496120 147.6030730  97.2030400 130.2832990 144.7142650
  96.2634070 130.4446950 144.7995110  97.5213660 131.0018670 144.1678640
 101.2458610 135.5736290 148.2210740 100.6271030 135.2355840 147.5737040
 101.2283060 134.9296050 148.9289930  92.8217960 134.5380730 150.4995220
  92.4174960 133.8257980 150.0041120  92.9081080 134.1933970 151.3883260
  99.4223310 134.8123100 145.2283490  99.8616590 133.9745530 145.0821310
 100.1351730 135.4452500 145.3147630  97.5318690 139.7519170 149.1964730
  97.9714600 140.4943500 148.7820120  97.4705580 139.9945740 150.1203690
 103.0040450 126.0665910 143.5424530 102.6913110 126.1592740 144.4423600
 103.7652920 126.6446940 143.4921960  89.5222590 133.4325710 148.0001870
  89.4020190 134.1587800 147.3883140  89.2123480 132.6628620 147.5229780
  88.4055590 138.3041040 150.2176690  87.9983670 138.4455630 149.3630290
  89.2968600 138.0201200 150.0147900 100.1988870 142.7388290 146.5527740
 100.0390010 142.4491230 147.4509570 100.0335580 141.9628420 146.0172970
  92.6777250 142.5186820 148.3299360  92.5019730 141.6022360 148.1167160
  91.8232990 142.8774110 148.5697160  99.9015000 140.2475850 145.1125740
  99.2080160 140.2453140 144.4528020 100.6437860 139.8235170 144.6819910
  99.4664930 141.8738560 149.1874230  99.9221880 141.0927940 149.5012850
  99.8057450 142.5845380 149.7315410  91.9886250 126.7760780 151.3825540
  91.5454400 127.5570320 151.0510060  92.5471240 127.0990670 152.0896480
  95.1045070 126.3971480 146.2631370  94.4799250 126.3931350 146.9884680
  95.0175190 125.5302440 145.8667340  91.7800470 131.8994350 149.1106790
  91.5541390 131.6831520 150.0153410  90.9993000 132.3322810 148.7652760
  99.0098230 131.9057720 147.7097440  98.4107120 132.6293520 147.5261060
  99.5577840 131.8434500 146.9273890  97.6163100 130.5421260 149.7400720
  98.0092670 130.8593460 148.9269410  97.9779950 129.6633140 149.8545240
  86.8397500 131.0742180 143.1733640  86.7572170 132.0172940 143.3148630
  86.4880560 130.9317090 142.2945990  94.6395630 129.8081210 152.2403990
  94.6431690 129.3671160 151.3908530  95.5346750 130.1298540 152.3475810
  90.4898010 129.6907700 151.1998200  90.1498060 130.1682930 151.9565250
  89.7275330 129.2372820 150.8399300  94.7015780 130.8093290 145.2310750
  94.8228600 130.7679770 146.1796570  94.3164290 131.6717440 145.0757480
  93.7137280 133.1194430 144.6294050  93.1454180 132.6712680 144.0029960
  94.4226280 133.4787210 144.0959200  87.8044090 128.6126680 150.1162870
  87.5191010 128.2482350 150.9541490  87.7422950 127.8807140 149.5026010
  91.2584760 137.1152620 146.9020460  90.4847020 136.5750240 146.7419180
  91.9879390 136.5959230 146.5638220  97.4782680 127.5055940 146.8376240
  96.6647290 127.0069110 146.7621550  97.2844630 128.3454190 146.4212590
 100.1931070 131.8775590 145.1338400 101.0810690 132.1892820 144.9589740
 100.1636160 131.0047840 144.7418980  91.3022160 136.7833000 150.5399270
  91.8200830 135.9801260 150.4856160  90.8506180 136.7212140 151.3816100
  96.1891660 138.0499280 145.8126570  96.5307360 138.7941510 145.3169890
  95.3604370 138.3630400 146.1751400 102.4645340 133.1887430 144.6018260
 102.3809060 133.6201650 143.7514700 103.1839530 133.6485780 145.0345080
 103.4932590 140.0429690 147.3300390 102.8508750 139.3885310 147.6044110
 103.1063250 140.4484780 146.5541060  99.0719070 137.3715120 151.1772080
  99.4242890 136.7743250 150.5173450  98.1881400 137.0459350 151.3480330
  95.1582350 138.1312810 148.5842490  95.8453480 138.6782020 148.9650080
  94.3714770 138.6753540 148.6192100  87.2974750 133.7485630 144.0759570
  88.1669600 134.0310430 144.3595490  86.8065070 134.5621500 143.9608380
  94.4609560 135.1358840 148.1967850  94.9172340 135.9464090 148.4228040
  94.1097770 134.8181980 149.0286340  90.3621340 125.4796490 148.6690370
  90.2335970 125.4714390 149.6175290  89.5383360 125.8179580 148.3181380
 101.8829970 138.9346150 143.8676740 101.6567550 138.2176590 144.4601380
 101.4926170 138.6858590 143.0298490  87.6646000 142.9613010 144.6421200
  88.0243640 143.5602350 143.9878470  87.5238340 143.5072900 145.4156230
 101.4646220 136.8518090 145.5290900 101.1767920 137.3130780 146.3168780
 102.2598390 136.3915860 145.7975120  93.6814620 140.3444210 145.4594870
  93.6724720 141.0773900 144.8439380  92.7612980 140.0975790 145.5521830
  89.2821260 135.5659100 146.2041630  88.6749210 136.3058000 146.2136930
  89.7570610 135.6558460 145.3779830 102.2216080 128.6866860 146.6886080
 101.5929240 128.7912530 145.9744310 101.7268000 128.9063640 147.4779960
  96.6674220 140.4072450 144.1220060  96.7686200 140.2036440 143.1922040
  95.7675960 140.1530730 144.3267840  94.1900110 130.9652810 148.1043960
  93.4816260 131.4339150 148.5457570  94.4744590 130.3074820 148.7389150
  98.2215540 127.6903470 149.5439750  98.0983320 127.7089600 148.5949260
  99.1700100 127.7382410 149.6638150  95.3092330 142.9258770 148.8167730
  95.5633830 142.8880160 147.8947100  94.3604810 142.7992100 148.8095980
  92.3935130 129.2737890 145.4794670  93.2425660 129.7108040 145.4134860
  92.0266400 129.5858150 146.3066730 101.3144910 133.8450650 150.3926240
 100.3735050 133.8600880 150.5673930 101.6288980 133.0586610 150.8386540
  91.2926550 135.5270250 143.9530200  92.0589820 135.4151610 144.5155630
  91.3701240 134.8308220 143.3006970  89.9873310 132.9595320 144.6363090
  90.0676900 132.0122830 144.7480490  90.8793060 133.2902200 144.7423750
  90.7888020 143.1090710 151.7397630  91.5250500 142.5606170 152.0106200
  91.1728940 143.9746720 151.6003620  87.6733500 139.1764280 147.6139140
  86.7473280 139.4185420 147.6044550  88.1389930 140.0038540 147.4923890
  93.8990330 142.2821020 143.5623200  94.6918940 142.5709850 143.1104990
  93.3794680 141.8513190 142.8835680 102.9520500 141.5091150 144.9859940
 102.6662010 141.0956290 144.1714120 102.7540050 142.4378860 144.8660460
  94.4167730 137.5024430 143.4265550  94.3118370 136.8876780 144.1526930
  94.2491950 136.9790320 142.6428560  97.6570460 136.5644460 144.0307540
  97.1080560 137.0113760 144.6750280  98.2789720 136.0593710 144.5545210
  93.3245580 135.5235380 145.9272840  93.7462000 135.3575250 146.7704230
  93.4496420 134.7135610 145.4327980  95.8373220 134.5472990 143.1749940
  96.3578880 133.8322010 142.8091090  96.4841620 135.1858860 143.4750450
  92.2204480 131.5968610 142.8731000  92.0193540 130.7335970 143.2344340
  92.0496530 131.5101970 141.9352600  99.6992790 126.4076840 145.4017880
  99.9795080 125.5644740 145.7577300  98.9258520 126.6399950 145.9156630
  91.0187280 128.6969230 142.8608880  91.3213180 128.7036660 141.9528030
  91.7581870 128.3467090 143.3576540  94.2372210 127.6403850 143.8465080
  93.8894210 126.9627840 143.2667530  94.4384980 127.1793360 144.6608470
  96.4021250 142.6284600 145.4651680  97.2972040 142.9669570 145.4870440
  96.4338880 141.9064010 144.8375960  90.0417410 138.0011650 143.6938680
  90.4792280 138.5441320 144.3496260  90.5265140 137.1758600 143.7035020
  87.2563210 140.7900680 151.1458940  87.5866220 139.9221740 150.9137580
  87.6854210 140.9959200 151.9763900  91.8525130 139.1209690 148.8060910
  91.5520670 138.9974660 149.7064820  91.7462620 138.2618280 148.3976640
 104.6217050 138.9006090 143.5087590 103.7910010 138.9682740 143.9794820
 104.7988880 139.7910210 143.2054450 104.0773510 135.6453570 146.0121790
 104.8392420 136.2150220 146.1181480 104.0927880 135.0780770 146.7830100
  87.5777850 134.1691500 150.2429450  86.9226690 133.9003140 149.5989150
  88.4155800 134.0595980 149.7931430 105.0833480 136.5003670 150.8563720
 105.4542310 135.7170990 150.4499690 105.7235410 137.1892770 150.6781020
 104.1292680 135.9387940 143.1694310 104.4041520 136.8466820 143.0413530
 103.9403420 135.8750470 144.1056300 100.5268290 128.9632790 144.4647940
 100.9453170 128.7763770 143.6244600 100.2204350 128.1111840 144.7750870
 104.0258020 133.8756930 148.1623740 103.6501620 133.1084860 147.7305030
 103.2961140 134.2579630 148.6498670  86.7915930 131.3790430 146.1854780
  85.8880010 131.6420630 146.0106440  87.2756550 131.6501600 145.4054740
 103.3008980 132.1014420 151.4630980 103.8246460 131.6077070 150.8321150
 103.8868400 132.2364780 152.2078550  89.3343140 130.4355970 144.0949160
  90.0434840 130.0139190 143.6096440  88.6183080 130.5031200 143.4632510
  88.9817300 126.4895300 143.1351810  89.7045430 127.0304240 143.4533030
  89.2541820 126.2158720 142.2593350 102.7908950 131.3587770 147.4023390
 103.2868070 131.1258640 148.1872270 102.5925020 130.5199610 146.9861030
 104.2196110 129.9948720 149.9361070 104.1095390 129.8404760 150.8743340
 104.9803700 129.4669660 149.6936480 105.1086380 127.8256640 143.1767210
 106.0335690 127.6937820 142.9685500 105.0862170 127.9049460 144.1303660
 105.1824870 128.5967300 145.8023920 104.3876370 128.5312420 146.3316830
 105.3868150 129.5317940 145.7909270 102.1243290 142.6358850 149.7962310
 102.7202360 142.3143420 149.1196730 102.3821440 142.1630670 150.5875580
 101.6144800 126.9264180 152.2522750 102.0552890 126.8709280 151.4044350
 101.3452390 127.8422190 152.3232930 103.4783370 126.5579420 150.2631570
 103.4171770 125.6140640 150.1162590 104.2575400 126.6659510 150.8085030
  87.7836120 142.6971780 149.2255520  87.6158160 142.0642460 149.9237410
  86.9170630 142.9031180 148.8749710  88.4064140 126.5288560 146.7287380
  89.1643500 126.6417440 146.1551410  87.9441310 127.3657760 146.6830810
  94.9477950 128.6427830 149.7189690  94.1352460 128.2684720 149.3785570
  95.4519590 127.8872910 150.0210880  99.4502930 125.3070280 150.9572760
 100.0532300 125.8790490 151.4321280  98.7095920 125.8709720 150.7346660
 102.5937530 125.7091840 146.2313040 102.7888160 126.6075290 146.4980470
 101.8067400 125.4778920 146.7245990  89.3898820 141.3905010 146.6705660
  88.8646440 141.7713040 145.9667620  89.3143400 142.0155780 147.3915370
  90.7789290 127.0552610 145.2689350  91.3082050 126.2682410 145.1397300
  91.4117610 127.7343800 145.5024880  92.9727130 126.7927750 148.3234740
  92.3429870 126.0915060 148.4904870  92.4332270 127.5531880 148.1067900
 104.1464140 142.9492550 147.9919600 104.3216330 142.2630290 147.3480520
 103.4485710 143.4739600 147.5996270  91.9891790 143.3387390 145.5454910
  92.7210610 143.0546670 144.9978800  92.2485460 143.1000670 146.4354290
  91.1506580 139.4552120 145.5501240  90.5215460 139.9237220 146.0987070
  91.2654410 138.6101340 145.9847430  98.6056300 133.5057780 131.7002440
  98.5250350 132.5912390 131.4294150  98.1920720 134.0024850 130.9942150
  96.7374340 135.2836800 133.5811710  95.9616440 134.8037240 133.8710280
  97.3887270 134.6042450 133.4067870  90.7540170 135.5956610 134.4587470
  89.9225050 135.3405320 134.8583980  91.3621150 135.6667380 135.1945390
 100.7581770 139.6896990 132.3610840 100.2963300 138.9184230 132.6898010
 101.5707320 139.7163060 132.8663290  90.7341430 139.6296700 134.6545490
  91.0369470 138.7394440 134.4755710  91.4785020 140.1866920 134.4267740
  89.1632120 130.5558500 128.2429860  88.2748820 130.8974470 128.1409740
  89.4473310 130.3558820 127.3510690  87.1265130 133.1564150 134.1269560
  87.6981240 132.3886350 134.1273200  87.1266670 133.4552910 133.2176170
  96.9845080 141.9755000 131.9814830  96.3656520 142.4312500 131.4109270
  97.8396860 142.1306460 131.5804530  96.1783330 137.9593990 133.5881870
  96.1091610 137.0183930 133.4271000  96.9403190 138.0495400 134.1604440
  88.3690000 128.5648510 135.9138490  88.1892840 127.6674260 136.1941250
  87.9670080 129.1120380 136.5885440  97.2088500 130.7664370 133.8150800
  97.5853320 129.8936250 133.7024470  97.1108010 131.1023070 132.9241240
  91.3393510 129.1390000 129.2768240  91.4460260 130.0393730 129.5837000
  90.4285870 129.0907970 128.9862890 100.9912620 128.2614810 130.7479140
 101.8122240 127.7711380 130.7904620 101.0246700 128.8512470 131.5010980
  88.9876670 131.0609010 134.5220830  89.6686780 131.3247380 135.1408230
  88.6724720 130.2209880 134.8558840  93.1801240 132.1076370 133.6093420
  93.6879460 132.6057340 134.2498440  93.7114480 131.3311570 133.4332780
 105.2812170 130.2781560 137.3122770 104.5764340 130.6663270 136.7937880
 105.5470090 130.9731850 137.9143700  91.4637340 126.7474930 137.8756840
  91.4655780 127.2647320 137.0702740  90.6341650 126.2705110 137.8526770
  97.8508430 136.8594240 129.3746740  97.2325700 137.3243690 128.8109460
  98.3631680 137.5521720 129.7916250  92.7140190 136.3870110 136.0530340
  92.3809570 137.0139030 136.6951410  92.8906870 136.9131990 135.2732010
 101.2274100 130.2015190 133.5206680 100.5229670 130.4900080 134.1009790
 101.5886260 131.0115300 133.1606240  91.1452670 128.4584890 135.8827290
  91.4869480 129.3026940 135.5881160  90.2068480 128.6068630 135.9992630
  91.9259290 138.3550910 137.8679520  92.5433290 139.0301990 137.5863970
  91.0652410 138.7638890 137.7767020  87.2191630 137.5450770 126.7486370
  86.8419610 138.0337870 126.0171270  87.4764700 138.2176050 127.3792900
 102.8436880 139.8190320 135.7834160 102.1600400 140.4889430 135.7750830
 103.3831170 140.0170970 135.0179020 104.2961020 129.6469980 133.9115890
 103.3485930 129.6808960 134.0431320 104.6211010 130.4608930 134.2965250
  94.8280560 125.9467160 132.2071880  95.1355540 125.3914050 131.4907380
  93.8981260 126.0811620 132.0244870 100.3795620 141.6634450 134.4979340
 100.3922780 141.2596740 133.6301600  99.8270840 142.4381740 134.3940770
 101.6741040 138.3850670 129.5869510 101.5637370 137.4425000 129.7118930
 101.6709290 138.7466310 130.4732270  99.7781060 136.5664290 135.8261950
 100.1949850 136.3524400 134.9915410 100.5020880 136.8237080 136.3970570
  97.2161320 134.0115990 128.9432000  96.2890600 133.9453370 129.1720470
  97.3686140 134.9496120 128.8287240  97.2030400 130.2832990 125.9399160
  96.2634070 130.4446950 126.0251620  97.5213660 131.0018670 125.3935150
 103.7243160 134.9651510 135.9178190 102.8961790 135.0344600 135.4428320
 104.3193640 135.5505820 135.4494020 101.2458610 135.5736290 129.4467250
 100.6271030 135.2355840 128.7993550 101.2283060 134.9296050 130.1546440
 100.6885170 131.7520830 136.8633060 100.2756350 132.5774540 137.1173050
  99.9561120 131.1665870 136.6709420  92.8217960 134.5380730 131.7251730
  92.4174960 133.8257980 131.2297630  92.9081080 134.1933970 132.6139770
  93.2899660 138.2248290 133.8890940  92.9927950 137.6193760 133.2098720
  94.2399480 138.2625600 133.7780300  91.5346580 131.3123940 135.5050770
  92.0861170 131.4219280 134.7304020  92.0490090 131.6861540 136.2206000
 101.3785270 141.7980160 137.5514040 100.9015830 142.6052350 137.3586650
 100.6947060 141.1458490 137.7040250  92.3818090 137.9629980 140.5398740
  91.4846620 138.1869950 140.7872140  92.4070960 138.0864920 139.5910140
  99.4223310 134.8123100 126.4540000  99.8616590 133.9745530 126.3077820
 100.1351730 135.4452500 126.5404140  91.2089310 134.8343300 139.1156110
  91.0697080 135.7066100 139.4843510  90.3270670 134.4916110 138.9704050
  97.5318690 139.7519170 130.4221240  97.9714600 140.4943500 130.0076630
  97.4705580 139.9945740 131.3460200  93.0069660 140.7765000 141.3241260
  92.9785090 141.1807950 140.4569690  92.8434630 139.8475360 141.1612860
 103.0040450 126.0665910 124.7681040 102.6913110 126.1592740 125.6680110
 103.7652920 126.6446940 124.7178470  89.5222590 133.4325710 129.2258380
  89.4020190 134.1587800 128.6139650  89.2123480 132.6628620 128.7486290
 104.9584480 141.5592100 142.6205430 105.4344200 142.0374990 143.2994510
 105.5791640 141.4909590 141.8950930  87.1607960 136.6040850 135.0327020
  87.2388380 136.7389620 134.0882740  87.7749640 135.8956740 135.2255140
  88.4055590 138.3041040 131.4433200  87.9983670 138.4455630 130.5886800
  89.2968600 138.0201200 131.2404410 104.3617730 138.7504950 139.7805440
 104.4880790 138.5116830 138.8622620 104.4039110 137.9189490 140.2527520
  98.2234470 142.4532950 138.3500250  98.7379140 142.3640960 139.1522680
  97.3803550 142.7992650 138.6428160 100.1988870 142.7388290 127.7784250
 100.0390010 142.4491230 128.6766080 100.0335580 141.9628420 127.2429480
  92.6777250 142.5186820 129.5555870  92.5019730 141.6022360 129.3423670
  91.8232990 142.8774110 129.7953670  99.9015000 140.2475850 126.3382250
  99.2080160 140.2453140 125.6784530 100.6437860 139.8235170 125.9076420
  99.4664930 141.8738560 130.4130740  99.9221880 141.0927940 130.7269360
  99.8057450 142.5845380 130.9571920 104.2141740 130.8037410 140.7455180
 103.5986010 131.3117080 140.2170640 103.8938160 129.9035740 140.6881120
  87.2167480 137.6455020 137.5721480  87.3798520 137.1760380 136.7540850
  87.6819930 137.1378580 138.2370320  91.9886250 126.7760780 132.6082050
  91.5454400 127.5570320 132.2766570  92.5471240 127.0990670 133.3152990
  96.2756060 129.6429300 138.2117370  95.8135430 129.8512320 139.0237310
  95.8734170 128.8288650 137.9088040 101.2760570 130.8638250 139.3414030
 100.4254160 130.5644000 139.6623100 101.1162360 131.1080260 138.4297850
  98.3710280 132.3640000 141.4412820  98.6963690 131.5303750 141.1015050
  99.1590610 132.8868520 141.5891150  95.1045070 126.3971480 127.4887880
  94.4799250 126.3931350 128.2141190  95.0175190 125.5302440 127.0923850
  94.0262150 127.3208110 134.4671650  94.3234480 128.2270940 134.3863670
  94.5747710 126.8326890 133.8531220  91.7800470 131.8994350 130.3363300
  91.5541390 131.6831520 131.2409920  90.9993000 132.3322810 129.9909270
  99.0098230 131.9057720 128.9353950  98.4107120 132.6293520 128.7517570
  99.5577840 131.8434500 128.1530400  94.2199680 132.7979930 141.0023570
  94.1243280 131.8574660 140.8523970  95.0631660 133.0195000 140.6071640
  97.6163100 130.5421260 130.9657230  98.0092670 130.8593460 130.1525920
  97.9779950 129.6633140 131.0801750  89.3510220 129.2093600 139.1557350
  88.9573610 130.0568810 139.3630130  88.6628620 128.5719970 139.3465990
  95.9255270 129.2928570 142.2254090  95.2353590 129.1000770 142.8600180
  96.6687570 129.5763210 142.7578390  86.6527270 127.1322060 133.1887430
  86.3640320 127.7024920 133.9012410  87.3973030 126.6526510 133.5518660
  86.8397500 131.0742180 124.3990150  86.7572170 132.0172940 124.5405140
  86.4880560 130.9317090 123.5202500  98.2018240 133.1327010 135.0608010
  97.4699360 133.6413820 135.4098110  97.8042580 132.3156990 134.7596790
  94.6395630 129.8081210 133.4660500  94.6431690 129.3671160 132.6165040
  95.5346750 130.1298540 133.5732320  90.4898010 129.6907700 132.4254710
  90.1498060 130.1682930 133.1821760  89.7275330 129.2372820 132.0655810
  94.7015780 130.8093290 126.4567260  94.8228600 130.7679770 127.4053080
  94.3164290 131.6717440 126.3013990  98.6644150 128.5860690 134.4730950
  98.6816890 129.0369340 135.3172800  98.4159730 127.6866330 134.6864390
  93.7137280 133.1194430 125.8550560  93.1454180 132.6712680 125.2286470
  94.4226280 133.4787210 125.3215710 102.0914900 125.9992870 140.3117330
 102.4160670 125.2682530 140.8375310 102.1271410 125.6806510 139.4098320
  88.7906460 137.0206450 139.7317290  88.4061250 136.3800120 140.3300250
  89.1018650 137.7242570 140.3012020  94.9403600 133.8682990 135.2125910
  95.3073730 133.3941560 135.9587250  94.7508660 134.7424560 135.5534250
  87.8044090 128.6126680 131.3419380  87.5191010 128.2482350 132.1798000
  87.7422950 127.8807140 130.7282520  92.7302970 132.9091630 137.5310120
  92.4260040 133.7883610 137.7560480  93.6849430 132.9691420 137.5667560
  91.2584760 137.1152620 128.1276970  90.4847020 136.5750240 127.9675690
  91.9879390 136.5959230 127.7894730 102.0172740 136.1117980 133.9203360
 102.7371860 136.6073270 133.5299470 101.8154560 135.4335870 133.2757230
  97.4782680 127.5055940 128.0632750  96.6647290 127.0069110 127.9878060
  97.2844630 128.3454190 127.6469100  97.3991540 136.1827040 139.8072360
  97.3328850 135.2622710 139.5529950  96.7696680 136.2802480 140.5217000
 100.1931070 131.8775590 126.3594910 101.0810690 132.1892820 126.1846250
 100.1636160 131.0047840 125.9675490  91.3022160 136.7833000 131.7655780
  91.8200830 135.9801260 131.7112670  90.8506180 136.7212140 132.6072610
  96.1891660 138.0499280 127.0383080  96.5307360 138.7941510 126.5426400
  95.3604370 138.3630400 127.4007910  88.7866700 133.7494370 138.6781480
  88.4281640 134.4148220 139.2654820  88.4921260 132.9177920 139.0494100
  91.9879820 134.2078610 141.5621030  91.6879960 134.3535790 140.6648850
  92.7591060 133.6483900 141.4694420  97.3308270 139.0047610 139.5576160
  97.3452810 138.0728570 139.3395070  96.6233370 139.0907370 140.1965930
 102.4645340 133.1887430 125.8274770 102.3809060 133.6201650 124.9771210
 103.1839530 133.6485780 126.2601590 103.5419480 135.6454950 138.9044740
 102.8167670 136.2383730 138.7074130 104.0694940 135.6378490 138.1058110
 103.4932590 140.0429690 128.5556900 102.8508750 139.3885310 128.8300620
 103.1063250 140.4484780 127.7797570  99.0719070 137.3715120 132.4028590
  99.4242890 136.7743250 131.7429960  98.1881400 137.0459350 132.5736840
  95.1582350 138.1312810 129.8099000  95.8453480 138.6782020 130.1906590
  94.3714770 138.6753540 129.8448610  87.2974750 133.7485630 125.3016080
  88.1669600 134.0310430 125.5852000  86.8065070 134.5621500 125.1864890
  94.4609560 135.1358840 129.4224360  94.9172340 135.9464090 129.6484550
  94.1097770 134.8181980 130.2542850  96.7642170 140.6465180 136.6516660
  97.4084390 140.8524560 137.3290080  97.1271610 139.8853580 136.1987510
  90.3621340 125.4796490 129.8946880  90.2335970 125.4714390 130.8431800
  89.5383360 125.8179580 129.5437890  98.0374250 138.6497530 135.3694110
  98.6796480 137.9490690 135.4826280  98.5623600 139.4295970 135.1891000
 101.8829970 138.9346150 125.0933250 101.6567550 138.2176590 125.6857890
 101.4926170 138.6858590 124.2555000  99.8111870 139.4492430 138.5730170
 100.1468110 140.0359120 139.2508090  98.8912210 139.3185140 138.8027960
  87.6646000 142.9613010 125.8677710  88.0243640 143.5602350 125.2134980
  87.5238340 143.5072900 126.6412740  87.3615270 127.2387610 139.3553580
  86.6473790 127.4384530 139.9606190  87.7810310 126.4627180 139.7268380
 101.4646220 136.8518090 126.7547410 101.1767920 137.3130780 127.5425290
 102.2598390 136.3915860 127.0231630  87.6487860 141.2267870 140.3420110
  87.7578980 140.2862610 140.2015500  86.9968420 141.4922620 139.6933840
  95.6400450 139.4983760 141.7418230  95.3197320 138.7793000 142.2863920
  94.9658810 140.1738830 141.8154290  93.6814620 140.3444210 126.6851380
  93.6724720 141.0773900 126.0695890  92.7612980 140.0975790 126.7778340
  89.2821260 135.5659100 127.4298140  88.6749210 136.3058000 127.4393440
  89.7570610 135.6558460 126.6036340  98.8554050 129.7309920 137.1055030
  99.2234870 128.9105130 137.4334600  97.9952250 129.7911810 137.5210680
 102.2216080 128.6866860 127.9142590 101.5929240 128.7912530 127.2000820
 101.7268000 128.9063640 128.7036470  96.6674220 140.4072450 125.3476570
  96.7686200 140.2036440 124.4178550  95.7675960 140.1530730 125.5524350
  94.1900110 130.9652810 129.3300470  93.4816260 131.4339150 129.7714080
  94.4744590 130.3074820 129.9645660  95.8156040 132.3849510 137.3293000
  96.3141290 132.8595330 137.9944850  95.9578990 131.4613030 137.5363030
  98.2215540 127.6903470 130.7696260  98.0983320 127.7089600 129.8205770
  99.1700100 127.7382410 130.8894660  95.3092330 142.9258770 130.0424240
  95.5633830 142.8880160 129.1203610  94.3604810 142.7992100 130.0352490
  92.3935130 129.2737890 126.7051180  93.2425660 129.7108040 126.6391370
  92.0266400 129.5858150 127.5323240 103.0222900 128.6017470 138.1721390
 102.5196500 129.3422870 138.5115200 103.8379560 128.9901470 137.8558180
 101.3144910 133.8450650 131.6182750 100.3735050 133.8600880 131.7930440
 101.6288980 133.0586610 132.0643050  91.2926550 135.5270250 125.1786710
  92.0589820 135.4151610 125.7412140  91.3701240 134.8308220 124.5263480
  89.9873310 132.9595320 125.8619600  90.0676900 132.0122830 125.9737000
  90.8793060 133.2902200 125.9680260 103.3170490 141.0159500 133.2937010
 103.4417910 141.8390670 133.7660820 104.1836050 140.8050230 132.9461160
  90.7888020 143.1090710 132.9654140  91.5250500 142.5606170 133.2362710
  91.1728940 143.9746720 132.8260130  87.6733500 139.1764280 128.8395650
  86.7473280 139.4185420 128.8301060  88.1389930 140.0038540 128.7180400
  89.7946300 142.2936780 142.1539720  90.5959030 142.6148830 142.5675120
  89.2798120 141.9332360 142.8759630  93.8990330 142.2821020 124.7879710
  94.6918940 142.5709850 124.3361500  93.3794680 141.8513190 124.1092190
  98.6310930 138.4016650 142.1015130  98.0249090 138.4248250 141.3610880
  98.3265040 137.6699690 142.6382380 100.0611300 142.1296940 140.7124540
 101.0133050 142.0454960 140.6624780  99.9139520 142.7938650 141.3858330
 102.9520500 141.5091150 126.2116450 102.6662010 141.0956290 125.3970630
 102.7540050 142.4378860 126.0916970  87.5144110 134.7810240 141.0975770
  88.0183130 134.2017520 141.6692000  86.7751530 135.0650470 141.6352140
  94.4167730 137.5024430 124.6522060  94.3118370 136.8876780 125.3783440
  94.2491950 136.9790320 123.8685070  94.5682050 136.1881230 140.6311290
  93.8027720 136.7566230 140.5465960  94.7498010 135.8957440 139.7379520
  97.6570460 136.5644460 125.2564050  97.1080560 137.0113760 125.9006790
  98.2789720 136.0593710 125.7801720 101.7105400 137.9186560 141.1886310
 102.4514870 138.2562320 140.6853770 100.9478080 138.0878620 140.6356080
  89.5467190 132.9239830 141.9925840  89.5872530 132.6253700 142.9011070
  90.4012690 133.3247440 141.8333360  93.3245580 135.5235380 127.1529350
  93.7462000 135.3575250 127.9960740  93.4496420 134.7135610 126.6584490
  91.4873000 131.5031930 139.9600330  90.9569460 131.0122880 139.3323670
  92.1561070 131.9316130 139.4258260  95.8373220 134.5472990 124.4006450
  96.3578880 133.8322010 124.0347600  96.4841620 135.1858860 124.7006960
 100.3851060 135.9701390 139.7241520 100.7992080 136.1246470 140.5731940
  99.4502060 136.0956610 139.8867300 100.8573230 133.3097550 141.7280670
 101.4394000 132.5549870 141.6401150 101.0335000 133.8404990 140.9512150
  91.9745300 128.4694300 140.0397620  91.8802170 127.8515050 139.3148490
  91.3942690 129.1960590 139.8127530  94.7406740 127.0267540 137.0725010
  94.2924040 127.0491800 136.2270560  94.1071940 126.6286560 137.6695310
  95.1466290 135.9221870 137.6937450  95.5654400 136.7654600 137.5213690
  94.2274920 136.0593910 137.4644230  97.4830190 133.6538050 139.0775290
  97.6026400 133.0579190 139.8170130  98.3424190 133.6907740 138.6576590
  99.8218090 134.2075240 137.6537800  99.2953310 134.7317860 137.0502940
 100.1649430 134.8402630 138.2847530  92.2204480 131.5968610 124.0987510
  92.0193540 130.7335970 124.4600850  92.0496530 131.5101970 123.1609110
  92.9973710 142.2274880 138.8095180  92.4594800 142.9520940 138.4903880
  93.2507670 141.7505220 138.0192520  94.2498960 130.1959400 140.3351110
  94.8398650 129.8875250 141.0228930  93.4319200 129.7239150 140.4911010
  99.0692390 129.8125210 140.5684130  98.3807910 129.1506750 140.5034120
  99.7898410 129.3663480 141.0132590  99.6992790 126.4076840 126.6274390
  99.9795080 125.5644740 126.9833810  98.9258520 126.6399950 127.1413140
  91.0187280 128.6969230 124.0865390  91.3213180 128.7036660 123.1784540
  91.7581870 128.3467090 124.5833050  95.8535920 143.4626090 139.0681830
  95.7794620 144.3661230 139.3754200  94.9514760 143.1437990 139.0403900
  94.2372210 127.6403850 125.0721590  93.8894210 126.9627840 124.4924040
  94.4384980 127.1793360 125.8864980  96.4021250 142.6284600 126.6908190
  97.2972040 142.9669570 126.7126950  96.4338880 141.9064010 126.0632470
  90.0417410 138.0011650 124.9195190  90.4792280 138.5441320 125.5752770
  90.5265140 137.1758600 124.9291530  87.2563210 140.7900680 132.3715450
  87.5866220 139.9221740 132.1394090  87.6854210 140.9959200 133.2020410
  91.8525130 139.1209690 130.0317420  91.5520670 138.9974660 130.9321330
  91.7462620 138.2618280 129.6233150  87.7453420 141.6571270 135.1097080
  87.3084410 141.8372070 135.9421230  88.3131100 142.4145890 134.9678800
 103.3815600 141.1588270 139.3974390 102.7817590 141.2180830 138.6538310
 103.5109500 140.2193250 139.5271240 104.6217050 138.9006090 124.7344100
 103.7910010 138.9682740 125.2051330 104.7988880 139.7910210 124.4310960
 104.0773510 135.6453570 127.2378300 104.8392420 136.2150220 127.3437990
 104.0927880 135.0780770 128.0086610  87.5777850 134.1691500 131.4685960
  86.9226690 133.9003140 130.8245660  88.4155800 134.0595980 131.0187940
 105.0833480 136.5003670 132.0820230 105.4542310 135.7170990 131.6756200
 105.7235410 137.1892770 131.9037530 102.0667240 137.8840250 137.4950550
 101.2527080 138.3137410 137.7576340 102.4741440 138.4958660 136.8819600
 104.1292680 135.9387940 124.3950820 104.4041520 136.8466820 124.2670040
 103.9403420 135.8750470 125.3312810 100.5268290 128.9632790 125.6904450
 100.9453170 128.7763770 124.8501110 100.2204350 128.1111840 126.0007380
 104.0258020 133.8756930 129.3880250 103.6501620 133.1084860 128.9561540
 103.2961140 134.2579630 129.8755180  88.6153780 134.5544070 136.0089300
  88.9826820 134.4671470 136.8885320  88.0464600 133.7910620 135.9096160
 103.4157640 133.0228450 139.0219770 103.1843730 132.7941200 138.1217720
 103.6762190 133.9428000 138.9764660  88.1669780 131.4653160 139.9147720
  87.2725830 131.4319920 140.2541430  88.7067330 131.6639950 140.6798970
 101.8545710 128.2484880 141.7999470 102.7315890 128.2568280 142.1833470
 101.8666550 127.5115720 141.1891820  86.7915930 131.3790430 127.4111290
  85.8880010 131.6420630 127.2362950  87.2756550 131.6501600 126.6311250
 103.3008980 132.1014420 132.6887490 103.8246460 131.6077070 132.0577660
 103.8868400 132.2364780 133.4335060 103.4798700 132.1854290 136.2107040
 102.5301410 132.1517830 136.3252030 103.6611710 133.0954400 135.9756810
  89.3343140 130.4355970 125.3205670  90.0434840 130.0139190 124.8352950
  88.6183080 130.5031200 124.6889020  88.9817300 126.4895300 124.3608320
  89.7045430 127.0304240 124.6789540  89.2541820 126.2158720 123.4849860
 102.7908950 131.3587770 128.6279900 103.2868070 131.1258640 129.4128780
 102.5925020 130.5199610 128.2117540  88.6709490 125.7401490 134.2630940
  89.3185680 125.1898870 133.8226100  89.0911330 125.9944640 135.0846750
 104.2196110 129.9948720 131.1617580 104.1095390 129.8404760 132.0999850
 104.9803700 129.4669660 130.9192990 102.5661830 125.9342850 137.6200580
 103.2034050 126.5476990 137.9859770 102.7136720 125.9703510 136.6749810
 105.1086380 127.8256640 124.4023720 106.0335690 127.6937820 124.1942010
 105.0862170 127.9049460 125.3560170 105.1824870 128.5967300 127.0280430
 104.3876370 128.5312420 127.5573340 105.3868150 129.5317940 127.0165780
 102.1243290 142.6358850 131.0218820 102.7202360 142.3143420 130.3453240
 102.3821440 142.1630670 131.8132090  88.4241490 125.8957160 137.0056260
  88.0756310 126.3520980 137.7714440  88.0929190 125.0014290 137.0878690
  90.0305860 139.0676760 141.1709450  89.9875490 138.6969670 142.0523910
  90.1616870 140.0054330 141.3111270  93.7311890 140.6236350 136.7719170
  93.4903250 140.8910910 135.8849690  94.6714530 140.7942080 136.8270030
  95.9366310 127.0869040 140.5275680  95.8755200 127.6790870 141.2771090
  96.8766690 126.9795000 140.3825940  98.5740870 126.7439100 140.1667970
  99.1881280 127.0618390 139.5049050  99.1190430 126.2587690 140.7863830
 104.9916050 142.6430730 137.5729810 104.4974330 143.0399600 136.8556940
 104.3829340 142.0179940 137.9667090  89.0962130 125.4233360 140.2807030
  89.6445120 125.2421410 139.5173140  89.1617440 124.6327470 140.8163340
  89.8693890 142.0139010 138.2907230  89.2754210 141.8823710 139.0297270
  89.8617730 141.1777150 137.8249330  99.3148910 125.3071240 136.4937260
  98.4408750 125.6406350 136.2910190  99.2059660 124.8344420 137.3189130
 100.2220890 127.5142110 137.8778980  99.8934250 126.6993870 137.4980710
 101.1703190 127.4711920 137.7544670 102.6755500 143.2854150 134.8516550
 102.2158470 144.0369960 134.4774570 102.0467960 142.5660620 134.7931350
  89.5006120 139.3797390 137.2415270  88.7740180 138.7602680 137.1741220
  89.5615270 139.7738000 136.3713350  93.1051220 141.5942390 134.0264680
  93.6216240 140.9829750 133.5012940  93.7548600 142.0971170 134.5175690
  95.8446720 142.4850880 134.8533660  96.1324530 142.2305180 133.9766670
  96.3569940 141.9328240 135.4439230  97.0623730 126.2241080 135.4330170
  96.2795520 126.6986580 135.7126930  96.7686660 125.3195910 135.3243350
 101.6144800 126.9264180 133.4779260 102.0552890 126.8709280 132.6300860
 101.3452390 127.8422190 133.5489440 103.4783370 126.5579420 131.4888080
 103.4171770 125.6140640 131.3419100 104.2575400 126.6659510 132.0341540
  87.7836120 142.6971780 130.4512030  87.6158160 142.0642460 131.1493920
  86.9170630 142.9031180 130.1006220  88.4064140 126.5288560 127.9543890
  89.1643500 126.6417440 127.3807920  87.9441310 127.3657760 127.9087320
  94.9477950 128.6427830 130.9446200  94.1352460 128.2684720 130.6042080
  95.4519590 127.8872910 131.2467390  99.4502930 125.3070280 132.1829270
 100.0532300 125.8790490 132.6577790  98.7095920 125.8709720 131.9603170
 102.5937530 125.7091840 127.4569550 102.7888160 126.6075290 127.7236980
 101.8067400 125.4778920 127.9502500  89.3898820 141.3905010 127.8962170
  88.8646440 141.7713040 127.1924130  89.3143400 142.0155780 128.6171880
  90.7789290 127.0552610 126.4945860  91.3082050 126.2682410 126.3653810
  91.4117610 127.7343800 126.7281390  92.9727130 126.7927750 129.5491250
  92.3429870 126.0915060 129.7161380  92.4332270 127.5531880 129.3324410
  95.9119080 143.4066980 142.2201860  96.8386390 143.1711250 142.2637820
  95.8969510 144.2338980 141.7387890 104.1464140 142.9492550 129.2176110
 104.3216330 142.2630290 128.5737030 103.4485710 143.4739600 128.8252780
  93.0982690 126.0711730 141.9843740  92.8166960 126.5745330 141.2204560
  93.4802390 125.2733480 141.6185870  91.9891790 143.3387390 126.7711420
  92.7210610 143.0546670 126.2235310  92.2485460 143.1000670 127.6610800
  91.1506580 139.4552120 126.7757750  90.5215460 139.9237220 127.3243580
  91.2654410 138.6101340 127.2103940  99.6998150 125.4865310 142.5624210
  99.5863600 125.8059920 143.4575730 100.5167890 125.8877820 142.2661490
 102.4796640 142.6336840 142.0442900 103.2721960 142.1386070 141.8368860
 102.7729790 143.3126980 142.6518510  98.6056300 133.5057780 112.9258950
  98.5250350 132.5912390 112.6550660  98.1920720 134.0024850 112.2198660
  96.7374340 135.2836800 114.8068220  95.9616440 134.8037240 115.0966790
  97.3887270 134.6042450 114.6324380  90.7540170 135.5956610 115.6843980
  89.9225050 135.3405320 116.0840490  91.3621150 135.6667380 116.4201900
 100.7581770 139.6896990 113.5867350 100.2963300 138.9184230 113.9154520
 101.5707320 139.7163060 114.0919800  90.7341430 139.6296700 115.8802000
  91.0369470 138.7394440 115.7012220  91.4785020 140.1866920 115.6524250
  87.1265130 133.1564150 115.3526070  87.6981240 132.3886350 115.3529710
  87.1266670 133.4552910 114.4432680  96.9845080 141.9755000 113.2071340
  96.3656520 142.4312500 112.6365780  97.8396860 142.1306460 112.8061040
  96.1783330 137.9593990 114.8138380  96.1091610 137.0183930 114.6527510
  96.9403190 138.0495400 115.3860950  88.3690000 128.5648510 117.1395000
  88.1892840 127.6674260 117.4197760  87.9670080 129.1120380 117.8141950
  97.2088500 130.7664370 115.0407310  97.5853320 129.8936250 114.9280980
  97.1108010 131.1023070 114.1497750  91.3393510 129.1390000 110.5024750
  91.4460260 130.0393730 110.8093510  90.4285870 129.0907970 110.2119400
 100.9912620 128.2614810 111.9735650 101.8122240 127.7711380 112.0161130
 101.0246700 128.8512470 112.7267490  88.9876670 131.0609010 115.7477340
  89.6686780 131.3247380 116.3664740  88.6724720 130.2209880 116.0815350
  93.1801240 132.1076370 114.8349930  93.6879460 132.6057340 115.4754950
  93.7114480 131.3311570 114.6589290 105.2812170 130.2781560 118.5379280
 104.5764340 130.6663270 118.0194390 105.5470090 130.9731850 119.1400210
  91.4637340 126.7474930 119.1013350  91.4655780 127.2647320 118.2959250
  90.6341650 126.2705110 119.0783280  97.8508430 136.8594240 110.6003250
  97.2325700 137.3243690 110.0365970  98.3631680 137.5521720 111.0172760
  92.7140190 136.3870110 117.2786850  92.3809570 137.0139030 117.9207920
  92.8906870 136.9131990 116.4988520 101.2274100 130.2015190 114.7463190
 100.5229670 130.4900080 115.3266300 101.5886260 131.0115300 114.3862750
  91.1452670 128.4584890 117.1083800  91.4869480 129.3026940 116.8137670
  90.2068480 128.6068630 117.2249140  91.9259290 138.3550910 119.0936030
  92.5433290 139.0301990 118.8120480  91.0652410 138.7638890 119.0023530
  87.2191630 137.5450770 107.9742880  86.8419610 138.0337870 107.2427780
  87.4764700 138.2176050 108.6049410 102.8436880 139.8190320 117.0090670
 102.1600400 140.4889430 117.0007340 103.3831170 140.0170970 116.2435530
 104.2961020 129.6469980 115.1372400 103.3485930 129.6808960 115.2687830
 104.6211010 130.4608930 115.5221760  94.8280560 125.9467160 113.4328390
  95.1355540 125.3914050 112.7163890  93.8981260 126.0811620 113.2501380
 100.3795620 141.6634450 115.7235850 100.3922780 141.2596740 114.8558110
  99.8270840 142.4381740 115.6197280 101.6741040 138.3850670 110.8126020
 101.5637370 137.4425000 110.9375440 101.6709290 138.7466310 111.6988780
  99.7781060 136.5664290 117.0518460 100.1949850 136.3524400 116.2171920
 100.5020880 136.8237080 117.6227080  97.2161320 134.0115990 110.1688510
  96.2890600 133.9453370 110.3976980  97.3686140 134.9496120 110.0543750
  97.2030400 130.2832990 107.1655670  96.2634070 130.4446950 107.2508130
  97.5213660 131.0018670 106.6191660 103.7243160 134.9651510 117.1434700
 102.8961790 135.0344600 116.6684830 104.3193640 135.5505820 116.6750530
 101.2458610 135.5736290 110.6723760 100.6271030 135.2355840 110.0250060
 101.2283060 134.9296050 111.3802950 100.6885170 131.7520830 118.0889570
 100.2756350 132.5774540 118.3429560  99.9561120 131.1665870 117.8965930
  92.8217960 134.5380730 112.9508240  92.4174960 133.8257980 112.4554140
  92.9081080 134.1933970 113.8396280  93.2899660 138.2248290 115.1147450
  92.9927950 137.6193760 114.4355230  94.2399480 138.2625600 115.0036810
  91.5346580 131.3123940 116.7307280  92.0861170 131.4219280 115.9560530
  92.0490090 131.6861540 117.4462510 101.3785270 141.7980160 118.7770550
 100.9015830 142.6052350 118.5843160 100.6947060 141.1458490 118.9296760
  92.3818090 137.9629980 121.7655250  91.4846620 138.1869950 122.0128650
  92.4070960 138.0864920 120.8166650  99.4223310 134.8123100 107.6796510
  99.8616590 133.9745530 107.5334330 100.1351730 135.4452500 107.7660650
  91.2089310 134.8343300 120.3412620  91.0697080 135.7066100 120.7100020
  90.3270670 134.4916110 120.1960560  97.5318690 139.7519170 111.6477750
  97.9714600 140.4943500 111.2333140  97.4705580 139.9945740 112.5716710
  93.0069660 140.7765000 122.5497770  92.9785090 141.1807950 121.6826200
  92.8434630 139.8475360 122.3869370  89.5222590 133.4325710 110.4514890
  89.4020190 134.1587800 109.8396160  89.2123480 132.6628620 109.9742800
 104.9584480 141.5592100 123.8461940 105.4344200 142.0374990 124.5251020
 105.5791640 141.4909590 123.1207440  87.1607960 136.6040850 116.2583530
  87.2388380 136.7389620 115.3139250  87.7749640 135.8956740 116.4511650
  88.4055590 138.3041040 112.6689710  87.9983670 138.4455630 111.8143310
  89.2968600 138.0201200 112.4660920 104.3617730 138.7504950 121.0061950
 104.4880790 138.5116830 120.0879130 104.4039110 137.9189490 121.4784030
  98.2234470 142.4532950 119.5756760  98.7379140 142.3640960 120.3779190
  97.3803550 142.7992650 119.8684670 100.1988870 142.7388290 109.0040760
 100.0390010 142.4491230 109.9022590 100.0335580 141.9628420 108.4685990
  92.6777250 142.5186820 110.7812380  92.5019730 141.6022360 110.5680180
  91.8232990 142.8774110 111.0210180  99.9015000 140.2475850 107.5638760
  99.2080160 140.2453140 106.9041040 100.6437860 139.8235170 107.1332930
  99.4664930 141.8738560 111.6387250  99.9221880 141.0927940 111.9525870
  99.8057450 142.5845380 112.1828430 104.2141740 130.8037410 121.9711690
 103.5986010 131.3117080 121.4427150 103.8938160 129.9035740 121.9137630
  87.2167480 137.6455020 118.7977990  87.3798520 137.1760380 117.9797360
  87.6819930 137.1378580 119.4626830  91.9886250 126.7760780 113.8338560
  91.5454400 127.5570320 113.5023080  92.5471240 127.0990670 114.5409500
  96.2756060 129.6429300 119.4373880  95.8135430 129.8512320 120.2493820
  95.8734170 128.8288650 119.1344550 101.2760570 130.8638250 120.5670540
 100.4254160 130.5644000 120.8879610 101.1162360 131.1080260 119.6554360
  98.3710280 132.3640000 122.6669330  98.6963690 131.5303750 122.3271560
  99.1590610 132.8868520 122.8147660  95.1045070 126.3971480 108.7144390
  94.4799250 126.3931350 109.4397700  95.0175190 125.5302440 108.3180360
  94.0262150 127.3208110 115.6928160  94.3234480 128.2270940 115.6120180
  94.5747710 126.8326890 115.0787730  91.7800470 131.8994350 111.5619810
  91.5541390 131.6831520 112.4666430  90.9993000 132.3322810 111.2165780
  99.0098230 131.9057720 110.1610460  98.4107120 132.6293520 109.9774080
  99.5577840 131.8434500 109.3786910  94.2199680 132.7979930 122.2280080
  94.1243280 131.8574660 122.0780480  95.0631660 133.0195000 121.8328150
  97.6163100 130.5421260 112.1913740  98.0092670 130.8593460 111.3782430
  97.9779950 129.6633140 112.3058260  89.3510220 129.2093600 120.3813860
  88.9573610 130.0568810 120.5886640  88.6628620 128.5719970 120.5722500
  95.9255270 129.2928570 123.4510600  95.2353590 129.1000770 124.0856690
  96.6687570 129.5763210 123.9834900  86.6527270 127.1322060 114.4143940
  86.3640320 127.7024920 115.1268920  87.3973030 126.6526510 114.7775170
  98.2018240 133.1327010 116.2864520  97.4699360 133.6413820 116.6354620
  97.8042580 132.3156990 115.9853300  94.6395630 129.8081210 114.6917010
  94.6431690 129.3671160 113.8421550  95.5346750 130.1298540 114.7988830
  90.4898010 129.6907700 113.6511220  90.1498060 130.1682930 114.4078270
  89.7275330 129.2372820 113.2912320  94.7015780 130.8093290 107.6823770
  94.8228600 130.7679770 108.6309590  94.3164290 131.6717440 107.5270500
  98.6644150 128.5860690 115.6987460  98.6816890 129.0369340 116.5429310
  98.4159730 127.6866330 115.9120900  93.7137280 133.1194430 107.0807070
  93.1454180 132.6712680 106.4542980  94.4226280 133.4787210 106.5472220
 102.0914900 125.9992870 121.5373840 102.4160670 125.2682530 122.0631820
 102.1271410 125.6806510 120.6354830  88.7906460 137.0206450 120.9573800
  88.4061250 136.3800120 121.5556760  89.1018650 137.7242570 121.5268530
  94.9403600 133.8682990 116.4382420  95.3073730 133.3941560 117.1843760
  94.7508660 134.7424560 116.7790760  87.8044090 128.6126680 112.5675890
  87.5191010 128.2482350 113.4054510  87.7422950 127.8807140 111.9539030
  92.7302970 132.9091630 118.7566630  92.4260040 133.7883610 118.9816990
  93.6849430 132.9691420 118.7924070  91.2584760 137.1152620 109.3533480
  90.4847020 136.5750240 109.1932200  91.9879390 136.5959230 109.0151240
 102.0172740 136.1117980 115.1459870 102.7371860 136.6073270 114.7555980
 101.8154560 135.4335870 114.5013740  97.4782680 127.5055940 109.2889260
  96.6647290 127.0069110 109.2134570  97.2844630 128.3454190 108.8725610
  97.3991540 136.1827040 121.0328870  97.3328850 135.2622710 120.7786460
  96.7696680 136.2802480 121.7473510 100.1931070 131.8775590 107.5851420
 101.0810690 132.1892820 107.4102760 100.1636160 131.0047840 107.1932000
  91.3022160 136.7833000 112.9912290  91.8200830 135.9801260 112.9369180
  90.8506180 136.7212140 113.8329120  96.1891660 138.0499280 108.2639590
  96.5307360 138.7941510 107.7682910  95.3604370 138.3630400 108.6264420
  88.7866700 133.7494370 119.9037990  88.4281640 134.4148220 120.4911330
  88.4921260 132.9177920 120.2750610  91.9879820 134.2078610 122.7877540
  91.6879960 134.3535790 121.8905360  92.7591060 133.6483900 122.6950930
  97.3308270 139.0047610 120.7832670  97.3452810 138.0728570 120.5651580
  96.6233370 139.0907370 121.4222440 102.4645340 133.1887430 107.0531280
 102.3809060 133.6201650 106.2027720 103.1839530 133.6485780 107.4858100
 103.5419480 135.6454950 120.1301250 102.8167670 136.2383730 119.9330640
 104.0694940 135.6378490 119.3314620 103.4932590 140.0429690 109.7813410
 102.8508750 139.3885310 110.0557130 103.1063250 140.4484780 109.0054080
  99.0719070 137.3715120 113.6285100  99.4242890 136.7743250 112.9686470
  98.1881400 137.0459350 113.7993350  95.1582350 138.1312810 111.0355510
  95.8453480 138.6782020 111.4163100  94.3714770 138.6753540 111.0705120
  87.2974750 133.7485630 106.5272590  88.1669600 134.0310430 106.8108510
  86.8065070 134.5621500 106.4121400  94.4609560 135.1358840 110.6480870
  94.9172340 135.9464090 110.8741060  94.1097770 134.8181980 111.4799360
  96.7642170 140.6465180 117.8773170  97.4084390 140.8524560 118.5546590
  97.1271610 139.8853580 117.4244020  98.0374250 138.6497530 116.5950620
  98.6796480 137.9490690 116.7082790  98.5623600 139.4295970 116.4147510
 101.8829970 138.9346150 106.3189760 101.6567550 138.2176590 106.9114400
 101.4926170 138.6858590 105.4811510  99.8111870 139.4492430 119.7986680
 100.1468110 140.0359120 120.4764600  98.8912210 139.3185140 120.0284470
  87.6646000 142.9613010 107.0934220  88.0243640 143.5602350 106.4391490
  87.5238340 143.5072900 107.8669250  87.3615270 127.2387610 120.5810090
  86.6473790 127.4384530 121.1862700  87.7810310 126.4627180 120.9524890
 101.4646220 136.8518090 107.9803920 101.1767920 137.3130780 108.7681800
 102.2598390 136.3915860 108.2488140  87.6487860 141.2267870 121.5676620
  87.7578980 140.2862610 121.4272010  86.9968420 141.4922620 120.9190350
  95.6400450 139.4983760 122.9674740  95.3197320 138.7793000 123.5120430
  94.9658810 140.1738830 123.0410800  93.6814620 140.3444210 107.9107890
  93.6724720 141.0773900 107.2952400  92.7612980 140.0975790 108.0034850
  89.2821260 135.5659100 108.6554650  88.6749210 136.3058000 108.6649950
  89.7570610 135.6558460 107.8292850  98.8554050 129.7309920 118.3311540
  99.2234870 128.9105130 118.6591110  97.9952250 129.7911810 118.7467190
 102.2216080 128.6866860 109.1399100 101.5929240 128.7912530 108.4257330
 101.7268000 128.9063640 109.9292980  96.6674220 140.4072450 106.5733080
  96.7686200 140.2036440 105.6435060  95.7675960 140.1530730 106.7780860
  94.1900110 130.9652810 110.5556980  93.4816260 131.4339150 110.9970590
  94.4744590 130.3074820 111.1902170  95.8156040 132.3849510 118.5549510
  96.3141290 132.8595330 119.2201360  95.9578990 131.4613030 118.7619540
  98.2215540 127.6903470 111.9952770  98.0983320 127.7089600 111.0462280
  99.1700100 127.7382410 112.1151170  95.3092330 142.9258770 111.2680750
  95.5633830 142.8880160 110.3460120  94.3604810 142.7992100 111.2609000
 103.0222900 128.6017470 119.3977900 102.5196500 129.3422870 119.7371710
 103.8379560 128.9901470 119.0814690 101.3144910 133.8450650 112.8439260
 100.3735050 133.8600880 113.0186950 101.6288980 133.0586610 113.2899560
  91.2926550 135.5270250 106.4043220  92.0589820 135.4151610 106.9668650
  91.3701240 134.8308220 105.7519990  89.9873310 132.9595320 107.0876110
  90.0676900 132.0122830 107.1993510  90.8793060 133.2902200 107.1936770
 103.3170490 141.0159500 114.5193520 103.4417910 141.8390670 114.9917330
 104.1836050 140.8050230 114.1717670  90.7888020 143.1090710 114.1910650
  91.5250500 142.5606170 114.4619220  91.1728940 143.9746720 114.0516640
  87.6733500 139.1764280 110.0652160  86.7473280 139.4185420 110.0557570
  88.1389930 140.0038540 109.9436910  89.7946300 142.2936780 123.3796230
  90.5959030 142.6148830 123.7931630  89.2798120 141.9332360 124.1016140
  93.8990330 142.2821020 106.0136220  94.6918940 142.5709850 105.5618010
  93.3794680 141.8513190 105.3348700  98.6310930 138.4016650 123.3271640
  98.0249090 138.4248250 122.5867390  98.3265040 137.6699690 123.8638890
 100.0611300 142.1296940 121.9381050 101.0133050 142.0454960 121.8881290
  99.9139520 142.7938650 122.6114840 102.9520500 141.5091150 107.4372960
 102.6662010 141.0956290 106.6227140 102.7540050 142.4378860 107.3173480
  87.5144110 134.7810240 122.3232280  88.0183130 134.2017520 122.8948510
  86.7751530 135.0650470 122.8608650  94.4167730 137.5024430 105.8778570
  94.3118370 136.8876780 106.6039950  94.2491950 136.9790320 105.0941580
  94.5682050 136.1881230 121.8567800  93.8027720 136.7566230 121.7722470
  94.7498010 135.8957440 120.9636030  97.6570460 136.5644460 106.4820560
  97.1080560 137.0113760 107.1263300  98.2789720 136.0593710 107.0058230
 101.7105400 137.9186560 122.4142820 102.4514870 138.2562320 121.9110280
 100.9478080 138.0878620 121.8612590  89.5467190 132.9239830 123.2182350
  89.5872530 132.6253700 124.1267580  90.4012690 133.3247440 123.0589870
  93.3245580 135.5235380 108.3785860  93.7462000 135.3575250 109.2217250
  93.4496420 134.7135610 107.8841000  91.4873000 131.5031930 121.1856840
  90.9569460 131.0122880 120.5580180  92.1561070 131.9316130 120.6514770
  95.8373220 134.5472990 105.6262960  96.3578880 133.8322010 105.2604110
  96.4841620 135.1858860 105.9263470 100.3851060 135.9701390 120.9498030
 100.7992080 136.1246470 121.7988450  99.4502060 136.0956610 121.1123810
 100.8573230 133.3097550 122.9537180 101.4394000 132.5549870 122.8657660
 101.0335000 133.8404990 122.1768660  91.9745300 128.4694300 121.2654130
  91.8802170 127.8515050 120.5405000  91.3942690 129.1960590 121.0384040
  94.7406740 127.0267540 118.2981520  94.2924040 127.0491800 117.4527070
  94.1071940 126.6286560 118.8951820  95.1466290 135.9221870 118.9193960
  95.5654400 136.7654600 118.7470200  94.2274920 136.0593910 118.6900740
  97.4830190 133.6538050 120.3031800  97.6026400 133.0579190 121.0426640
  98.3424190 133.6907740 119.8833100  99.8218090 134.2075240 118.8794310
  99.2953310 134.7317860 118.2759450 100.1649430 134.8402630 119.5104040
  92.2204480 131.5968610 105.3244020  92.0193540 130.7335970 105.6857360
  92.0496530 131.5101970 104.3865620  92.9973710 142.2274880 120.0351690
  92.4594800 142.9520940 119.7160390  93.2507670 141.7505220 119.2449030
  94.2498960 130.1959400 121.5607620  94.8398650 129.8875250 122.2485440
  93.4319200 129.7239150 121.7167520  99.0692390 129.8125210 121.7940640
  98.3807910 129.1506750 121.7290630  99.7898410 129.3663480 122.2389100
  99.6992790 126.4076840 107.8530900  99.9795080 125.5644740 108.2090320
  98.9258520 126.6399950 108.3669650  95.8535920 143.4626090 120.2938340
  95.7794620 144.3661230 120.6010710  94.9514760 143.1437990 120.2660410
  94.2372210 127.6403850 106.2978100  93.8894210 126.9627840 105.7180550
  94.4384980 127.1793360 107.1121490  96.4021250 142.6284600 107.9164700
  97.2972040 142.9669570 107.9383460  96.4338880 141.9064010 107.2888980
  90.0417410 138.0011650 106.1451700  90.4792280 138.5441320 106.8009280
  90.5265140 137.1758600 106.1548040  87.2563210 140.7900680 113.5971960
  87.5866220 139.9221740 113.3650600  87.6854210 140.9959200 114.4276920
  91.8525130 139.1209690 111.2573930  91.5520670 138.9974660 112.1577840
  91.7462620 138.2618280 110.8489660  87.7453420 141.6571270 116.3353590
  87.3084410 141.8372070 117.1677740  88.3131100 142.4145890 116.1935310
 103.3815600 141.1588270 120.6230900 102.7817590 141.2180830 119.8794820
 103.5109500 140.2193250 120.7527750 104.6217050 138.9006090 105.9600610
 103.7910010 138.9682740 106.4307840 104.7988880 139.7910210 105.6567470
 104.0773510 135.6453570 108.4634810 104.8392420 136.2150220 108.5694500
 104.0927880 135.0780770 109.2343120  87.5777850 134.1691500 112.6942470
  86.9226690 133.9003140 112.0502170  88.4155800 134.0595980 112.2444450
 105.0833480 136.5003670 113.3076740 105.4542310 135.7170990 112.9012710
 105.7235410 137.1892770 113.1294040 102.0667240 137.8840250 118.7207060
 101.2527080 138.3137410 118.9832850 102.4741440 138.4958660 118.1076110
 104.1292680 135.9387940 105.6207330 104.4041520 136.8466820 105.4926550
 103.9403420 135.8750470 106.5569320 100.5268290 128.9632790 106.9160960
 100.9453170 128.7763770 106.0757620 100.2204350 128.1111840 107.2263890
 104.0258020 133.8756930 110.6136760 103.6501620 133.1084860 110.1818050
 103.2961140 134.2579630 111.1011690  88.6153780 134.5544070 117.2345810
  88.9826820 134.4671470 118.1141830  88.0464600 133.7910620 117.1352670
 103.4157640 133.0228450 120.2476280 103.1843730 132.7941200 119.3474230
 103.6762190 133.9428000 120.2021170  88.1669780 131.4653160 121.1404230
  87.2725830 131.4319920 121.4797940  88.7067330 131.6639950 121.9055480
 101.8545710 128.2484880 123.0255980 102.7315890 128.2568280 123.4089980
 101.8666550 127.5115720 122.4148330 103.3008980 132.1014420 113.9144000
 103.8246460 131.6077070 113.2834170 103.8868400 132.2364780 114.6591570
 103.4798700 132.1854290 117.4363550 102.5301410 132.1517830 117.5508540
 103.6611710 133.0954400 117.2013320 102.7908950 131.3587770 109.8536410
 103.2868070 131.1258640 110.6385290 102.5925020 130.5199610 109.4374050
  88.6709490 125.7401490 115.4887450  89.3185680 125.1898870 115.0482610
  89.0911330 125.9944640 116.3103260 104.2196110 129.9948720 112.3874090
 104.1095390 129.8404760 113.3256360 104.9803700 129.4669660 112.1449500
 102.5661830 125.9342850 118.8457090 103.2034050 126.5476990 119.2116280
 102.7136720 125.9703510 117.9006320 105.1086380 127.8256640 105.6280230
 106.0335690 127.6937820 105.4198520 105.0862170 127.9049460 106.5816680
 105.1824870 128.5967300 108.2536940 104.3876370 128.5312420 108.7829850
 105.3868150 129.5317940 108.2422290 102.1243290 142.6358850 112.2475330
 102.7202360 142.3143420 111.5709750 102.3821440 142.1630670 113.0388600
  88.4241490 125.8957160 118.2312770  88.0756310 126.3520980 118.9970950
  88.0929190 125.0014290 118.3135200  90.0305860 139.0676760 122.3965960
  89.9875490 138.6969670 123.2780420  90.1616870 140.0054330 122.5367780
  93.7311890 140.6236350 117.9975680  93.4903250 140.8910910 117.1106200
  94.6714530 140.7942080 118.0526540  95.9366310 127.0869040 121.7532190
  95.8755200 127.6790870 122.5027600  96.8766690 126.9795000 121.6082450
  98.5740870 126.7439100 121.3924480  99.1881280 127.0618390 120.7305560
  99.1190430 126.2587690 122.0120340 104.9916050 142.6430730 118.7986320
 104.4974330 143.0399600 118.0813450 104.3829340 142.0179940 119.1923600
  89.0962130 125.4233360 121.5063540  89.6445120 125.2421410 120.7429650
  89.1617440 124.6327470 122.0419850  89.8693890 142.0139010 119.5163740
  89.2754210 141.8823710 120.2553780  89.8617730 141.1777150 119.0505840
  99.3148910 125.3071240 117.7193770  98.4408750 125.6406350 117.5166700
  99.2059660 124.8344420 118.5445640 100.2220890 127.5142110 119.1035490
  99.8934250 126.6993870 118.7237220 101.1703190 127.4711920 118.9801180
 102.6755500 143.2854150 116.0773060 102.2158470 144.0369960 115.7031080
 102.0467960 142.5660620 116.0187860  89.5006120 139.3797390 118.4671780
  88.7740180 138.7602680 118.3997730  89.5615270 139.7738000 117.5969860
  93.1051220 141.5942390 115.2521190  93.6216240 140.9829750 114.7269450
  93.7548600 142.0971170 115.7432200  95.8446720 142.4850880 116.0790170
  96.1324530 142.2305180 115.2023180  96.3569940 141.9328240 116.6695740
  97.0623730 126.2241080 116.6586680  96.2795520 126.6986580 116.9383440
  96.7686660 125.3195910 116.5499860 101.6144800 126.9264180 114.7035770
 102.0552890 126.8709280 113.8557370 101.3452390 127.8422190 114.7745950
 103.4783370 126.5579420 112.7144590 103.4171770 125.6140640 112.5675610
 104.2575400 126.6659510 113.2598050  87.7836120 142.6971780 111.6768540
  87.6158160 142.0642460 112.3750430  86.9170630 142.9031180 111.3262730
  94.9477950 128.6427830 112.1702710  94.1352460 128.2684720 111.8298590
  95.4519590 127.8872910 112.4723900  99.4502930 125.3070280 113.4085780
 100.0532300 125.8790490 113.8834300  98.7095920 125.8709720 113.1859680
 102.5937530 125.7091840 108.6826060 102.7888160 126.6075290 108.9493490
 101.8067400 125.4778920 109.1759010  89.3898820 141.3905010 109.1218680
  88.8646440 141.7713040 108.4180640  89.3143400 142.0155780 109.8428390
  92.9727130 126.7927750 110.7747760  92.3429870 126.0915060 110.9417890
  92.4332270 127.5531880 110.5580920  95.9119080 143.4066980 123.4458370
  96.8386390 143.1711250 123.4894330  95.8969510 144.2338980 122.9644400
 104.1464140 142.9492550 110.4432620 104.3216330 142.2630290 109.7993540
 103.4485710 143.4739600 110.0509290  93.0982690 126.0711730 123.2100250
  92.8166960 126.5745330 122.4461070  93.4802390 125.2733480 122.8442380
  91.9891790 143.3387390 107.9967930  92.7210610 143.0546670 107.4491820
  92.2485460 143.1000670 108.8867310  91.1506580 139.4552120 108.0014260
  90.5215460 139.9237220 108.5500090  91.2654410 138.6101340 108.4360450
  99.6998150 125.4865310 123.7880720  99.5863600 125.8059920 124.6832240
 100.5167890 125.8877820 123.4918000 102.4796640 142.6336840 123.2699410
 103.2721960 142.1386070 123.0625370 102.7729790 143.3126980 123.8775020
  96.7374340 135.2836800  96.0324730  95.9616440 134.8037240  96.3223300
  97.3887270 134.6042450  95.8580890  90.7540170 135.5956610  96.9100490
  89.9225050 135.3405320  97.3097000  91.3621150 135.6667380  97.6458410
 100.7581770 139.6896990  94.8123860 100.2963300 138.9184230  95.1411030
 101.5707320 139.7163060  95.3176310  90.7341430 139.6296700  97.1058510
  91.0369470 138.7394440  96.9268730  91.4785020 140.1866920  96.8780760
  96.9845080 141.9755000  94.4327850  96.3656520 142.4312500  93.8622290
  97.8396860 142.1306460  94.0317550  96.1783330 137.9593990  96.0394890
  96.1091610 137.0183930  95.8784020  96.9403190 138.0495400  96.6117460
 100.9912620 128.2614810  93.1992160 101.8122240 127.7711380  93.2417640
 101.0246700 128.8512470  93.9524000 105.2812170 130.2781560  99.7635790
 104.5764340 130.6663270  99.2450900 105.5470090 130.9731850 100.3656720
  92.7140190 136.3870110  98.5043360  92.3809570 137.0139030  99.1464430
  92.8906870 136.9131990  97.7245030 101.2274100 130.2015190  95.9719700
 100.5229670 130.4900080  96.5522810 101.5886260 131.0115300  95.6119260
  91.9259290 138.3550910 100.3192540  92.5433290 139.0301990 100.0376990
  91.0652410 138.7638890 100.2280040  87.2191630 137.5450770  89.1999390
  86.8419610 138.0337870  88.4684290  87.4764700 138.2176050  89.8305920
 102.8436880 139.8190320  98.2347180 102.1600400 140.4889430  98.2263850
 103.3831170 140.0170970  97.4692040 104.2961020 129.6469980  96.3628910
 103.3485930 129.6808960  96.4944340 104.6211010 130.4608930  96.7478270
 100.3795620 141.6634450  96.9492360 100.3922780 141.2596740  96.0814620
  99.8270840 142.4381740  96.8453790 101.6741040 138.3850670  92.0382530
 101.5637370 137.4425000  92.1631950 101.6709290 138.7466310  92.9245290
  99.7781060 136.5664290  98.2774970 100.1949850 136.3524400  97.4428430
 100.5020880 136.8237080  98.8483590 103.7243160 134.9651510  98.3691210
 102.8961790 135.0344600  97.8941340 104.3193640 135.5505820  97.9007040
 101.2458610 135.5736290  91.8980270 100.6271030 135.2355840  91.2506570
 101.2283060 134.9296050  92.6059460 100.6885170 131.7520830  99.3146080
 100.2756350 132.5774540  99.5686070  99.9561120 131.1665870  99.1222440
  93.2899660 138.2248290  96.3403960  92.9927950 137.6193760  95.6611740
  94.2399480 138.2625600  96.2293320 101.3785270 141.7980160 100.0027060
 100.9015830 142.6052350  99.8099670 100.6947060 141.1458490 100.1553270
  92.3818090 137.9629980 102.9911760  91.4846620 138.1869950 103.2385160
  92.4070960 138.0864920 102.0423160  91.2089310 134.8343300 101.5669130
  91.0697080 135.7066100 101.9356530  90.3270670 134.4916110 101.4217070
  97.5318690 139.7519170  92.8734260  97.9714600 140.4943500  92.4589650
  97.4705580 139.9945740  93.7973220  93.0069660 140.7765000 103.7754280
  92.9785090 141.1807950 102.9082710  92.8434630 139.8475360 103.6125880
 103.0040450 126.0665910  87.2194060 102.6913110 126.1592740  88.1193130
 103.7652920 126.6446940  87.1691490 104.9584480 141.5592100 105.0718450
 105.4344200 142.0374990 105.7507530 105.5791640 141.4909590 104.3463950
  87.1607960 136.6040850  97.4840040  87.2388380 136.7389620  96.5395760
  87.7749640 135.8956740  97.6768160  88.4055590 138.3041040  93.8946220
  87.9983670 138.4455630  93.0399820  89.2968600 138.0201200  93.6917430
 104.3617730 138.7504950 102.2318460 104.4880790 138.5116830 101.3135640
 104.4039110 137.9189490 102.7040540  98.2234470 142.4532950 100.8013270
  98.7379140 142.3640960 101.6035700  97.3803550 142.7992650 101.0941180
 100.1988870 142.7388290  90.2297270 100.0390010 142.4491230  91.1279100
 100.0335580 141.9628420  89.6942500  92.6777250 142.5186820  92.0068890
  92.5019730 141.6022360  91.7936690  91.8232990 142.8774110  92.2466690
  99.9015000 140.2475850  88.7895270  99.2080160 140.2453140  88.1297550
 100.6437860 139.8235170  88.3589440  99.4664930 141.8738560  92.8643760
  99.9221880 141.0927940  93.1782380  99.8057450 142.5845380  93.4084940
 104.2141740 130.8037410 103.1968200 103.5986010 131.3117080 102.6683660
 103.8938160 129.9035740 103.1394140  87.2167480 137.6455020 100.0234500
  87.3798520 137.1760380  99.2053870  87.6819930 137.1378580 100.6883340
 101.2760570 130.8638250 101.7927050 100.4254160 130.5644000 102.1136120
 101.1162360 131.1080260 100.8810870  98.3710280 132.3640000 103.8925840
  98.6963690 131.5303750 103.5528070  99.1590610 132.8868520 104.0404170
  94.2199680 132.7979930 103.4536590  94.1243280 131.8574660 103.3036990
  95.0631660 133.0195000 103.0584660  89.3510220 129.2093600 101.6070370
  88.9573610 130.0568810 101.8143150  88.6628620 128.5719970 101.7979010
  95.9255270 129.2928570 104.6767110  95.2353590 129.1000770 105.3113200
  96.6687570 129.5763210 105.2091410  86.8397500 131.0742180  86.8503170
  86.7572170 132.0172940  86.9918160  86.4880560 130.9317090  85.9715520
  88.7906460 137.0206450 102.1830310  88.4061250 136.3800120 102.7813270
  89.1018650 137.7242570 102.7525040 102.0172740 136.1117980  96.3716380
 102.7371860 136.6073270  95.9812490 101.8154560 135.4335870  95.7270250
  97.3991540 136.1827040 102.2585380  97.3328850 135.2622710 102.0042970
  96.7696680 136.2802480 102.9730020  91.3022160 136.7833000  94.2168800
  91.8200830 135.9801260  94.1625690  90.8506180 136.7212140  95.0585630
  91.9879820 134.2078610 104.0134050  91.6879960 134.3535790 103.1161870
  92.7591060 133.6483900 103.9207440  97.3308270 139.0047610 102.0089180
  97.3452810 138.0728570 101.7908090  96.6233370 139.0907370 102.6478950
 102.4645340 133.1887430  88.2787790 102.3809060 133.6201650  87.4284230
 103.1839530 133.6485780  88.7114610 103.5419480 135.6454950 101.3557760
 102.8167670 136.2383730 101.1587150 104.0694940 135.6378490 100.5571130
 103.4932590 140.0429690  91.0069920 102.8508750 139.3885310  91.2813640
 103.1063250 140.4484780  90.2310590  99.0719070 137.3715120  94.8541610
  99.4242890 136.7743250  94.1942980  98.1881400 137.0459350  95.0249860
  95.1582350 138.1312810  92.2612020  95.8453480 138.6782020  92.6419610
  94.3714770 138.6753540  92.2961630  87.2974750 133.7485630  87.7529100
  88.1669600 134.0310430  88.0365020  86.8065070 134.5621500  87.6377910
  96.7642170 140.6465180  99.1029680  97.4084390 140.8524560  99.7803100
  97.1271610 139.8853580  98.6500530  98.0374250 138.6497530  97.8207130
  98.6796480 137.9490690  97.9339300  98.5623600 139.4295970  97.6404020
 101.8829970 138.9346150  87.5446270 101.6567550 138.2176590  88.1370910
 101.4926170 138.6858590  86.7068020  99.8111870 139.4492430 101.0243190
 100.1468110 140.0359120 101.7021110  98.8912210 139.3185140 101.2540980
  87.6646000 142.9613010  88.3190730  88.0243640 143.5602350  87.6648000
  87.5238340 143.5072900  89.0925760 101.4646220 136.8518090  89.2060430
 101.1767920 137.3130780  89.9938310 102.2598390 136.3915860  89.4744650
  87.6487860 141.2267870 102.7933130  87.7578980 140.2862610 102.6528520
  86.9968420 141.4922620 102.1446860  95.6400450 139.4983760 104.1931250
  95.3197320 138.7793000 104.7376940  94.9658810 140.1738830 104.2667310
  93.6814620 140.3444210  89.1364400  93.6724720 141.0773900  88.5208910
  92.7612980 140.0975790  89.2291360 102.2216080 128.6866860  90.3655610
 101.5929240 128.7912530  89.6513840 101.7268000 128.9063640  91.1549490
  96.6674220 140.4072450  87.7989590  96.7686200 140.2036440  86.8691570
  95.7675960 140.1530730  88.0037370  95.3092330 142.9258770  92.4937260
  95.5633830 142.8880160  91.5716630  94.3604810 142.7992100  92.4865510
 103.0222900 128.6017470 100.6234410 102.5196500 129.3422870 100.9628220
 103.8379560 128.9901470 100.3071200 101.3144910 133.8450650  94.0695770
 100.3735050 133.8600880  94.2443460 101.6288980 133.0586610  94.5156070
 103.3170490 141.0159500  95.7450030 103.4417910 141.8390670  96.2173840
 104.1836050 140.8050230  95.3974180  90.7888020 143.1090710  95.4167160
  91.5250500 142.5606170  95.6875730  91.1728940 143.9746720  95.2773150
  87.6733500 139.1764280  91.2908670  86.7473280 139.4185420  91.2814080
  88.1389930 140.0038540  91.1693420  89.7946300 142.2936780 104.6052740
  90.5959030 142.6148830 105.0188140  89.2798120 141.9332360 105.3272650
  93.8990330 142.2821020  87.2392730  94.6918940 142.5709850  86.7874520
  93.3794680 141.8513190  86.5605210  98.6310930 138.4016650 104.5528150
  98.0249090 138.4248250 103.8123900  98.3265040 137.6699690 105.0895400
 100.0611300 142.1296940 103.1637560 101.0133050 142.0454960 103.1137800
  99.9139520 142.7938650 103.8371350 102.9520500 141.5091150  88.6629470
 102.6662010 141.0956290  87.8483650 102.7540050 142.4378860  88.5429990
  94.5682050 136.1881230 103.0824310  93.8027720 136.7566230 102.9978980
  94.7498010 135.8957440 102.1892540 101.7105400 137.9186560 103.6399330
 102.4514870 138.2562320 103.1366790 100.9478080 138.0878620 103.0869100
  89.5467190 132.9239830 104.4438860  89.5872530 132.6253700 105.3524090
  90.4012690 133.3247440 104.2846380  91.4873000 131.5031930 102.4113350
  90.9569460 131.0122880 101.7836690  92.1561070 131.9316130 101.8771280
 100.3851060 135.9701390 102.1754540 100.7992080 136.1246470 103.0244960
  99.4502060 136.0956610 102.3380320 100.8573230 133.3097550 104.1793690
 101.4394000 132.5549870 104.0914170 101.0335000 133.8404990 103.4025170
  91.9745300 128.4694300 102.4910640  91.8802170 127.8515050 101.7661510
  91.3942690 129.1960590 102.2640550  95.1466290 135.9221870 100.1450470
  95.5654400 136.7654600  99.9726710  94.2274920 136.0593910  99.9157250
  97.4830190 133.6538050 101.5288310  97.6026400 133.0579190 102.2683150
  98.3424190 133.6907740 101.1089610  99.8218090 134.2075240 100.1050820
  99.2953310 134.7317860  99.5015960 100.1649430 134.8402630 100.7360550
  92.9973710 142.2274880 101.2608200  92.4594800 142.9520940 100.9416900
  93.2507670 141.7505220 100.4705540  94.2498960 130.1959400 102.7864130
  94.8398650 129.8875250 103.4741950  93.4319200 129.7239150 102.9424030
  99.0692390 129.8125210 103.0197150  98.3807910 129.1506750 102.9547140
  99.7898410 129.3663480 103.4645610  99.6992790 126.4076840  89.0787410
  99.9795080 125.5644740  89.4346830  98.9258520 126.6399950  89.5926160
  95.8535920 143.4626090 101.5194850  95.7794620 144.3661230 101.8267220
  94.9514760 143.1437990 101.4916920  96.4021250 142.6284600  89.1421210
  97.2972040 142.9669570  89.1639970  96.4338880 141.9064010  88.5145490
  90.0417410 138.0011650  87.3708210  90.4792280 138.5441320  88.0265790
  90.5265140 137.1758600  87.3804550  87.2563210 140.7900680  94.8228470
  87.5866220 139.9221740  94.5907110  87.6854210 140.9959200  95.6533430
  91.8525130 139.1209690  92.4830440  91.5520670 138.9974660  93.3834350
  91.7462620 138.2618280  92.0746170  87.7453420 141.6571270  97.5610100
  87.3084410 141.8372070  98.3934250  88.3131100 142.4145890  97.4191820
 103.3815600 141.1588270 101.8487410 102.7817590 141.2180830 101.1051330
 103.5109500 140.2193250 101.9784260 104.6217050 138.9006090  87.1857120
 103.7910010 138.9682740  87.6564350 104.7988880 139.7910210  86.8823980
 104.0773510 135.6453570  89.6891320 104.8392420 136.2150220  89.7951010
 104.0927880 135.0780770  90.4599630  87.5777850 134.1691500  93.9198980
  86.9226690 133.9003140  93.2758680  88.4155800 134.0595980  93.4700960
 105.0833480 136.5003670  94.5333250 105.4542310 135.7170990  94.1269220
 105.7235410 137.1892770  94.3550550 102.0667240 137.8840250  99.9463570
 101.2527080 138.3137410 100.2089360 102.4741440 138.4958660  99.3332620
 104.1292680 135.9387940  86.8463840 104.4041520 136.8466820  86.7183060
 103.9403420 135.8750470  87.7825830 100.5268290 128.9632790  88.1417470
 100.9453170 128.7763770  87.3014130 100.2204350 128.1111840  88.4520400
 104.0258020 133.8756930  91.8393270 103.6501620 133.1084860  91.4074560
 103.2961140 134.2579630  92.3268200 103.4157640 133.0228450 101.4732790
 103.1843730 132.7941200 100.5730740 103.6762190 133.9428000 101.4277680
 103.3008980 132.1014420  95.1400510 103.8246460 131.6077070  94.5090680
 103.8868400 132.2364780  95.8848080 103.4798700 132.1854290  98.6620060
 102.5301410 132.1517830  98.7765050 103.6611710 133.0954400  98.4269830
 102.7908950 131.3587770  91.0792920 103.2868070 131.1258640  91.8641800
 102.5925020 130.5199610  90.6630560 104.2196110 129.9948720  93.6130600
 104.1095390 129.8404760  94.5512870 104.9803700 129.4669660  93.3706010
 105.1086380 127.8256640  86.8536740 106.0335690 127.6937820  86.6455030
 105.0862170 127.9049460  87.8073190 105.1824870 128.5967300  89.4793450
 104.3876370 128.5312420  90.0086360 105.3868150 129.5317940  89.4678800
 102.1243290 142.6358850  93.4731840 102.7202360 142.3143420  92.7966260
 102.3821440 142.1630670  94.2645110  88.4241490 125.8957160  99.4569280
  88.0756310 126.3520980 100.2227460  88.0929190 125.0014290  99.5391710
  90.0305860 139.0676760 103.6222470  89.9875490 138.6969670 104.5036930
  90.1616870 140.0054330 103.7624290  93.7311890 140.6236350  99.2232190
  93.4903250 140.8910910  98.3362710  94.6714530 140.7942080  99.2783050
 104.9916050 142.6430730 100.0242830 104.4974330 143.0399600  99.3069960
 104.3829340 142.0179940 100.4180110  89.8693890 142.0139010 100.7420250
  89.2754210 141.8823710 101.4810290  89.8617730 141.1777150 100.2762350
 100.2220890 127.5142110 100.3292000  99.8934250 126.6993870  99.9493730
 101.1703190 127.4711920 100.2057690 102.6755500 143.2854150  97.3029570
 102.2158470 144.0369960  96.9287590 102.0467960 142.5660620  97.2444370
  89.5006120 139.3797390  99.6928290  88.7740180 138.7602680  99.6254240
  89.5615270 139.7738000  98.8226370  93.1051220 141.5942390  96.4777700
  93.6216240 140.9829750  95.9525960  93.7548600 142.0971170  96.9688710
  95.8446720 142.4850880  97.3046680  96.1324530 142.2305180  96.4279690
  96.3569940 141.9328240  97.8952250 101.6144800 126.9264180  95.9292280
 102.0552890 126.8709280  95.0813880 101.3452390 127.8422190  96.0002460
 103.4783370 126.5579420  93.9401100 103.4171770 125.6140640  93.7932120
 104.2575400 126.6659510  94.4854560  87.7836120 142.6971780  92.9025050
  87.6158160 142.0642460  93.6006940  86.9170630 142.9031180  92.5519240
  99.4502930 125.3070280  94.6342290 100.0532300 125.8790490  95.1090810
  98.7095920 125.8709720  94.4116190 102.5937530 125.7091840  89.9082570
 102.7888160 126.6075290  90.1750000 101.8067400 125.4778920  90.4015520
  89.3898820 141.3905010  90.3475190  88.8646440 141.7713040  89.6437150
  89.3143400 142.0155780  91.0684900  95.9119080 143.4066980 104.6714880
  96.8386390 143.1711250 104.7150840  95.8969510 144.2338980 104.1900910
 104.1464140 142.9492550  91.6689130 104.3216330 142.2630290  91.0250050
 103.4485710 143.4739600  91.2765800  91.9891790 143.3387390  89.2224440
  92.7210610 143.0546670  88.6748330  92.2485460 143.1000670  90.1123820
  91.1506580 139.4552120  89.2270770  90.5215460 139.9237220  89.7756600
  91.2654410 138.6101340  89.6616960 102.4796640 142.6336840 104.4955920
 103.2721960 142.1386070 104.2881880 102.7729790 143.3126980 105.1031530
  90.7540170 135.5956610  78.1357000  89.9225050 135.3405320  78.5353510
  91.3621150 135.6667380  78.8714920  90.7341430 139.6296700  78.3315020
  91.0369470 138.7394440  78.1525240  91.4785020 140.1866920  78.1037270
  89.1632120 130.5558500  71.9199390  88.2748820 130.8974470  71.8179270
  89.4473310 130.3558820  71.0280220  96.9845080 141.9755000  75.6584360
  96.3656520 142.4312500  75.0878800  97.8396860 142.1306460  75.2574060
  88.3690000 128.5648510  79.5908020  88.1892840 127.6674260  79.8710780
  87.9670080 129.1120380  80.2654970  91.3393510 129.1390000  72.9537770
  91.4460260 130.0393730  73.2606530  90.4285870 129.0907970  72.6632420
 100.9912620 128.2614810  74.4248670 101.8122240 127.7711380  74.4674150
 101.0246700 128.8512470  75.1780510  88.9876670 131.0609010  78.1990360
  89.6686780 131.3247380  78.8177760  88.6724720 130.2209880  78.5328370
 105.2812170 130.2781560  80.9892300 104.5764340 130.6663270  80.4707410
 105.5470090 130.9731850  81.5913230  91.4637340 126.7474930  81.5526370
  91.4655780 127.2647320  80.7472270  90.6341650 126.2705110  81.5296300
  92.7140190 136.3870110  79.7299870  92.3809570 137.0139030  80.3720940
  92.8906870 136.9131990  78.9501540 101.2274100 130.2015190  77.1976210
 100.5229670 130.4900080  77.7779320 101.5886260 131.0115300  76.8375770
  91.9259290 138.3550910  81.5449050  92.5433290 139.0301990  81.2633500
  91.0652410 138.7638890  81.4536550 102.8436880 139.8190320  79.4603690
 102.1600400 140.4889430  79.4520360 103.3831170 140.0170970  78.6948550
 104.2961020 129.6469980  77.5885420 103.3485930 129.6808960  77.7200850
 104.6211010 130.4608930  77.9734780 100.3795620 141.6634450  78.1748870
 100.3922780 141.2596740  77.3071130  99.8270840 142.4381740  78.0710300
  99.7781060 136.5664290  79.5031480 100.1949850 136.3524400  78.6684940
 100.5020880 136.8237080  80.0740100  97.2030400 130.2832990  69.6168690
  96.2634070 130.4446950  69.7021150  97.5213660 131.0018670  69.0704680
 103.7243160 134.9651510  79.5947720 102.8961790 135.0344600  79.1197850
 104.3193640 135.5505820  79.1263550 100.6885170 131.7520830  80.5402590
 100.2756350 132.5774540  80.7942580  99.9561120 131.1665870  80.3478950
  92.8217960 134.5380730  75.4021260  92.4174960 133.8257980  74.9067160
  92.9081080 134.1933970  76.2909300  93.2899660 138.2248290  77.5660470
  92.9927950 137.6193760  76.8868250  94.2399480 138.2625600  77.4549830
  91.5346580 131.3123940  79.1820300  92.0861170 131.4219280  78.4073550
  92.0490090 131.6861540  79.8975530 101.3785270 141.7980160  81.2283570
 100.9015830 142.6052350  81.0356180 100.6947060 141.1458490  81.3809780
  92.3818090 137.9629980  84.2168270  91.4846620 138.1869950  84.4641670
  92.4070960 138.0864920  83.2679670  91.2089310 134.8343300  82.7925640
  91.0697080 135.7066100  83.1613040  90.3270670 134.4916110  82.6473580
  93.0069660 140.7765000  85.0010790  92.9785090 141.1807950  84.1339220
  92.8434630 139.8475360  84.8382390  89.5222590 133.4325710  72.9027910
  89.4020190 134.1587800  72.2909180  89.2123480 132.6628620  72.4255820
 104.9584480 141.5592100  86.2974960 105.4344200 142.0374990  86.9764040
 105.5791640 141.4909590  85.5720460  88.4055590 138.3041040  75.1202730
  87.9983670 138.4455630  74.2656330  89.2968600 138.0201200  74.9173940
 104.3617730 138.7504950  83.4574970 104.4880790 138.5116830  82.5392150
 104.4039110 137.9189490  83.9297050  98.2234470 142.4532950  82.0269780
  98.7379140 142.3640960  82.8292210  97.3803550 142.7992650  82.3197690
 100.1988870 142.7388290  71.4553780 100.0390010 142.4491230  72.3535610
 100.0335580 141.9628420  70.9199010  92.6777250 142.5186820  73.2325400
  92.5019730 141.6022360  73.0193200  91.8232990 142.8774110  73.4723200
  99.9015000 140.2475850  70.0151780  99.2080160 140.2453140  69.3554060
 100.6437860 139.8235170  69.5845950  99.4664930 141.8738560  74.0900270
  99.9221880 141.0927940  74.4038890  99.8057450 142.5845380  74.6341450
 104.2141740 130.8037410  84.4224710 103.5986010 131.3117080  83.8940170
 103.8938160 129.9035740  84.3650650 101.2760570 130.8638250  83.0183560
 100.4254160 130.5644000  83.3392630 101.1162360 131.1080260  82.1067380
  98.3710280 132.3640000  85.1182350  98.6963690 131.5303750  84.7784580
  99.1590610 132.8868520  85.2660680  91.7800470 131.8994350  74.0132830
  91.5541390 131.6831520  74.9179450  90.9993000 132.3322810  73.6678800
  94.2199680 132.7979930  84.6793100  94.1243280 131.8574660  84.5293500
  95.0631660 133.0195000  84.2841170  89.3510220 129.2093600  82.8326880
  88.9573610 130.0568810  83.0399660  88.6628620 128.5719970  83.0235520
  95.9255270 129.2928570  85.9023620  95.2353590 129.1000770  86.5369710
  96.6687570 129.5763210  86.4347920  86.6527270 127.1322060  76.8656960
  86.3640320 127.7024920  77.5781940  87.3973030 126.6526510  77.2288190
  90.4898010 129.6907700  76.1024240  90.1498060 130.1682930  76.8591290
  89.7275330 129.2372820  75.7425340  94.7015780 130.8093290  70.1336790
  94.8228600 130.7679770  71.0822610  94.3164290 131.6717440  69.9783520
  93.7137280 133.1194430  69.5320090  93.1454180 132.6712680  68.9056000
  94.4226280 133.4787210  68.9985240 102.0914900 125.9992870  83.9886860
 102.4160670 125.2682530  84.5144840 102.1271410 125.6806510  83.0867850
  94.9403600 133.8682990  78.8895440  95.3073730 133.3941560  79.6356780
  94.7508660 134.7424560  79.2303780  87.8044090 128.6126680  75.0188910
  87.5191010 128.2482350  75.8567530  87.7422950 127.8807140  74.4052050
  92.7302970 132.9091630  81.2079650  92.4260040 133.7883610  81.4330010
  93.6849430 132.9691420  81.2437090 102.0172740 136.1117980  77.5972890
 102.7371860 136.6073270  77.2069000 101.8154560 135.4335870  76.9526760
  97.3991540 136.1827040  83.4841890  97.3328850 135.2622710  83.2299480
  96.7696680 136.2802480  84.1986530 100.1931070 131.8775590  70.0364440
 101.0810690 132.1892820  69.8615780 100.1636160 131.0047840  69.6445020
  91.3022160 136.7833000  75.4425310  91.8200830 135.9801260  75.3882200
  90.8506180 136.7212140  76.2842140  91.9879820 134.2078610  85.2390560
  91.6879960 134.3535790  84.3418380  92.7591060 133.6483900  85.1463950
  97.3308270 139.0047610  83.2345690  97.3452810 138.0728570  83.0164600
  96.6233370 139.0907370  83.8735460 102.4645340 133.1887430  69.5044300
 102.3809060 133.6201650  68.6540740 103.1839530 133.6485780  69.9371120
 103.5419480 135.6454950  82.5814270 102.8167670 136.2383730  82.3843660
 104.0694940 135.6378490  81.7827640 103.4932590 140.0429690  72.2326430
 102.8508750 139.3885310  72.5070150 103.1063250 140.4484780  71.4567100
  96.7642170 140.6465180  80.3286190  97.4084390 140.8524560  81.0059610
  97.1271610 139.8853580  79.8757040  90.3621340 125.4796490  73.5716410
  90.2335970 125.4714390  74.5201330  89.5383360 125.8179580  73.2207420
  98.0374250 138.6497530  79.0463640  98.6796480 137.9490690  79.1595810
  98.5623600 139.4295970  78.8660530 101.8829970 138.9346150  68.7702780
 101.6567550 138.2176590  69.3627420 101.4926170 138.6858590  67.9324530
  99.8111870 139.4492430  82.2499700 100.1468110 140.0359120  82.9277620
  98.8912210 139.3185140  82.4797490  87.6646000 142.9613010  69.5447240
  88.0243640 143.5602350  68.8904510  87.5238340 143.5072900  70.3182270
  87.3615270 127.2387610  83.0323110  86.6473790 127.4384530  83.6375720
  87.7810310 126.4627180  83.4037910  95.6400450 139.4983760  85.4187760
  95.3197320 138.7793000  85.9633450  94.9658810 140.1738830  85.4923820
  93.6814620 140.3444210  70.3620910  93.6724720 141.0773900  69.7465420
  92.7612980 140.0975790  70.4547870 102.2216080 128.6866860  71.5912120
 101.5929240 128.7912530  70.8770350 101.7268000 128.9063640  72.3806000
  96.6674220 140.4072450  69.0246100  96.7686200 140.2036440  68.0948080
  95.7675960 140.1530730  69.2293880  94.1900110 130.9652810  73.0070000
  93.4816260 131.4339150  73.4483610  94.4744590 130.3074820  73.6415190
  95.3092330 142.9258770  73.7193770  95.5633830 142.8880160  72.7973140
  94.3604810 142.7992100  73.7122020  92.3935130 129.2737890  70.3820710
  93.2425660 129.7108040  70.3160900  92.0266400 129.5858150  71.2092770
 103.0222900 128.6017470  81.8490920 102.5196500 129.3422870  82.1884730
 103.8379560 128.9901470  81.5327710 103.3170490 141.0159500  76.9706540
 103.4417910 141.8390670  77.4430350 104.1836050 140.8050230  76.6230690
  90.7888020 143.1090710  76.6423670  91.5250500 142.5606170  76.9132240
  91.1728940 143.9746720  76.5029660  87.6733500 139.1764280  72.5165180
  86.7473280 139.4185420  72.5070590  88.1389930 140.0038540  72.3949930
  89.7946300 142.2936780  85.8309250  90.5959030 142.6148830  86.2444650
  89.2798120 141.9332360  86.5529160  93.8990330 142.2821020  68.4649240
  94.6918940 142.5709850  68.0131030  93.3794680 141.8513190  67.7861720
  98.6310930 138.4016650  85.7784660  98.0249090 138.4248250  85.0380410
  98.3265040 137.6699690  86.3151910 100.0611300 142.1296940  84.3894070
 101.0133050 142.0454960  84.3394310  99.9139520 142.7938650  85.0627860
 102.9520500 141.5091150  69.8885980 102.6662010 141.0956290  69.0740160
 102.7540050 142.4378860  69.7686500  94.4167730 137.5024430  68.3291590
  94.3118370 136.8876780  69.0552970  94.2491950 136.9790320  67.5454600
  94.5682050 136.1881230  84.3080820  93.8027720 136.7566230  84.2235490
  94.7498010 135.8957440  83.4149050 101.7105400 137.9186560  84.8655840
 102.4514870 138.2562320  84.3623300 100.9478080 138.0878620  84.3125610
  91.4873000 131.5031930  83.6369860  90.9569460 131.0122880  83.0093200
  92.1561070 131.9316130  83.1027790  95.8373220 134.5472990  68.0775980
  96.3578880 133.8322010  67.7117130  96.4841620 135.1858860  68.3776490
 100.3851060 135.9701390  83.4011050 100.7992080 136.1246470  84.2501470
  99.4502060 136.0956610  83.5636830 100.8573230 133.3097550  85.4050200
 101.4394000 132.5549870  85.3170680 101.0335000 133.8404990  84.6281680
  95.1466290 135.9221870  81.3706980  95.5654400 136.7654600  81.1983220
  94.2274920 136.0593910  81.1413760  97.4830190 133.6538050  82.7544820
  97.6026400 133.0579190  83.4939660  98.3424190 133.6907740  82.3346120
  99.8218090 134.2075240  81.3307330  99.2953310 134.7317860  80.7272470
 100.1649430 134.8402630  81.9617060  92.9973710 142.2274880  82.4864710
  92.4594800 142.9520940  82.1673410  93.2507670 141.7505220  81.6962050
  94.2498960 130.1959400  84.0120640  94.8398650 129.8875250  84.6998460
  93.4319200 129.7239150  84.1680540  99.0692390 129.8125210  84.2453660
  98.3807910 129.1506750  84.1803650  99.7898410 129.3663480  84.6902120
  91.0187280 128.6969230  67.7634920  91.3213180 128.7036660  66.8554070
  91.7581870 128.3467090  68.2602580  95.8535920 143.4626090  82.7451360
  95.7794620 144.3661230  83.0523730  94.9514760 143.1437990  82.7173430
  96.4021250 142.6284600  70.3677720  97.2972040 142.9669570  70.3896480
  96.4338880 141.9064010  69.7402000  87.2563210 140.7900680  76.0484980
  87.5866220 139.9221740  75.8163620  87.6854210 140.9959200  76.8789940
  91.8525130 139.1209690  73.7086950  91.5520670 138.9974660  74.6090860
  91.7462620 138.2618280  73.3002680  87.7453420 141.6571270  78.7866610
  87.3084410 141.8372070  79.6190760  88.3131100 142.4145890  78.6448330
 103.3815600 141.1588270  83.0743920 102.7817590 141.2180830  82.3307840
 103.5109500 140.2193250  83.2040770 104.6217050 138.9006090  68.4113630
 103.7910010 138.9682740  68.8820860 104.7988880 139.7910210  68.1080490
 104.0773510 135.6453570  70.9147830 104.8392420 136.2150220  71.0207520
 104.0927880 135.0780770  71.6856140  87.5777850 134.1691500  75.1455490
  86.9226690 133.9003140  74.5015190  88.4155800 134.0595980  74.6957470
 105.0833480 136.5003670  75.7589760 105.4542310 135.7170990  75.3525730
 105.7235410 137.1892770  75.5807060 102.0667240 137.8840250  81.1720080
 101.2527080 138.3137410  81.4345870 102.4741440 138.4958660  80.5589130
 104.1292680 135.9387940  68.0720350 104.4041520 136.8466820  67.9439570
 103.9403420 135.8750470  69.0082340 100.5268290 128.9632790  69.3673980
 100.9453170 128.7763770  68.5270640 100.2204350 128.1111840  69.6776910
 104.0258020 133.8756930  73.0649780 103.6501620 133.1084860  72.6331070
 103.2961140 134.2579630  73.5524710 103.4157640 133.0228450  82.6989300
 103.1843730 132.7941200  81.7987250 103.6762190 133.9428000  82.6534190
  88.1669780 131.4653160  83.5917250  87.2725830 131.4319920  83.9310960
  88.7067330 131.6639950  84.3568500 101.8545710 128.2484880  85.4769000
 102.7315890 128.2568280  85.8603000 101.8666550 127.5115720  84.8661350
  86.7915930 131.3790430  71.0880820  85.8880010 131.6420630  70.9132480
  87.2756550 131.6501600  70.3080780 103.3008980 132.1014420  76.3657020
 103.8246460 131.6077070  75.7347190 103.8868400 132.2364780  77.1104590
 103.4798700 132.1854290  79.8876570 102.5301410 132.1517830  80.0021560
 103.6611710 133.0954400  79.6526340 102.7908950 131.3587770  72.3049430
 103.2868070 131.1258640  73.0898310 102.5925020 130.5199610  71.8887070
  88.6709490 125.7401490  77.9400470  89.3185680 125.1898870  77.4995630
  89.0911330 125.9944640  78.7616280 104.2196110 129.9948720  74.8387110
 104.1095390 129.8404760  75.7769380 104.9803700 129.4669660  74.5962520
 102.5661830 125.9342850  81.2970110 103.2034050 126.5476990  81.6629300
 102.7136720 125.9703510  80.3519340 105.1824870 128.5967300  70.7049960
 104.3876370 128.5312420  71.2342870 105.3868150 129.5317940  70.6935310
 102.1243290 142.6358850  74.6988350 102.7202360 142.3143420  74.0222770
 102.3821440 142.1630670  75.4901620  88.4241490 125.8957160  80.6825790
  88.0756310 126.3520980  81.4483970  88.0929190 125.0014290  80.7648220
  90.0305860 139.0676760  84.8478980  89.9875490 138.6969670  85.7293440
  90.1616870 140.0054330  84.9880800  93.7311890 140.6236350  80.4488700
  93.4903250 140.8910910  79.5619220  94.6714530 140.7942080  80.5039560
  98.5740870 126.7439100  83.8437500  99.1881280 127.0618390  83.1818580
  99.1190430 126.2587690  84.4633360 104.9916050 142.6430730  81.2499340
 104.4974330 143.0399600  80.5326470 104.3829340 142.0179940  81.6436620
  89.8693890 142.0139010  81.9676760  89.2754210 141.8823710  82.7066800
  89.8617730 141.1777150  81.5018860 100.2220890 127.5142110  81.5548510
  99.8934250 126.6993870  81.1750240 101.1703190 127.4711920  81.4314200
 102.6755500 143.2854150  78.5286080 102.2158470 144.0369960  78.1544100
 102.0467960 142.5660620  78.4700880  93.1051220 141.5942390  77.7034210
  93.6216240 140.9829750  77.1782470  93.7548600 142.0971170  78.1945220
  95.8446720 142.4850880  78.5303190  96.1324530 142.2305180  77.6536200
  96.3569940 141.9328240  79.1208760 101.6144800 126.9264180  77.1548790
 102.0552890 126.8709280  76.3070390 101.3452390 127.8422190  77.2258970
 103.4783370 126.5579420  75.1657610 103.4171770 125.6140640  75.0188630
 104.2575400 126.6659510  75.7111070  87.7836120 142.6971780  74.1281560
  87.6158160 142.0642460  74.8263450  86.9170630 142.9031180  73.7775750
  89.3898820 141.3905010  71.5731700  88.8646440 141.7713040  70.8693660
  89.3143400 142.0155780  72.2941410  90.7789290 127.0552610  70.1715390
  91.3082050 126.2682410  70.0423340  91.4117610 127.7343800  70.4050920
  95.9119080 143.4066980  85.8971390  96.8386390 143.1711250  85.9407350
  95.8969510 144.2338980  85.4157420 104.1464140 142.9492550  72.8945640
 104.3216330 142.2630290  72.2506560 103.4485710 143.4739600  72.5022310
  91.9891790 143.3387390  70.4480950  92.7210610 143.0546670  69.9004840
  92.2485460 143.1000670  71.3380330  91.1506580 139.4552120  70.4527280
  90.5215460 139.9237220  71.0013110  91.2654410 138.6101340  70.8873470
  99.6998150 125.4865310  86.2393740  99.5863600 125.8059920  87.1345260
 100.5167890 125.8877820  85.9431020 102.4796640 142.6336840  85.7212430
 103.2721960 142.1386070  85.5138390 102.7729790 143.3126980  86.3288040
  98.6056300 133.5057780  56.6028480  98.5250350 132.5912390  56.3320190
  98.1920720 134.0024850  55.8968190  96.7374340 135.2836800  58.4837750
  95.9616440 134.8037240  58.7736320  97.3887270 134.6042450  58.3093910
 100.7581770 139.6896990  57.2636880 100.2963300 138.9184230  57.5924050
 101.5707320 139.7163060  57.7689330  90.7341430 139.6296700  59.5571530
  91.0369470 138.7394440  59.3781750  91.4785020 140.1866920  59.3293780
  96.9845080 141.9755000  56.8840870  96.3656520 142.4312500  56.3135310
  97.8396860 142.1306460  56.4830570  96.1783330 137.9593990  58.4907910
  96.1091610 137.0183930  58.3297040  96.9403190 138.0495400  59.0630480
  97.2088500 130.7664370  58.7176840  97.5853320 129.8936250  58.6050510
  97.1108010 131.1023070  57.8267280  91.3393510 129.1390000  54.1794280
  91.4460260 130.0393730  54.4863040  90.4285870 129.0907970  53.8888930
 100.9912620 128.2614810  55.6505180 101.8122240 127.7711380  55.6930660
 101.0246700 128.8512470  56.4037020  97.8508430 136.8594240  54.2772780
  97.2325700 137.3243690  53.7135500  98.3631680 137.5521720  54.6942290
  92.7140190 136.3870110  60.9556380  92.3809570 137.0139030  61.5977450
  92.8906870 136.9131990  60.1758050 101.2274100 130.2015190  58.4232720
 100.5229670 130.4900080  59.0035830 101.5886260 131.0115300  58.0632280
  91.9259290 138.3550910  62.7705560  92.5433290 139.0301990  62.4890010
  91.0652410 138.7638890  62.6793060  87.2191630 137.5450770  51.6512410
  86.8419610 138.0337870  50.9197310  87.4764700 138.2176050  52.2818940
 102.8436880 139.8190320  60.6860200 102.1600400 140.4889430  60.6776870
 103.3831170 140.0170970  59.9205060  94.8280560 125.9467160  57.1097920
  95.1355540 125.3914050  56.3933420  93.8981260 126.0811620  56.9270910
 100.3795620 141.6634450  59.4005380 100.3922780 141.2596740  58.5327640
  99.8270840 142.4381740  59.2966810 101.6741040 138.3850670  54.4895550
 101.5637370 137.4425000  54.6144970 101.6709290 138.7466310  55.3758310
  99.7781060 136.5664290  60.7287990 100.1949850 136.3524400  59.8941450
 100.5020880 136.8237080  61.2996610  97.2161320 134.0115990  53.8458040
  96.2890600 133.9453370  54.0746510  97.3686140 134.9496120  53.7313280
  97.2030400 130.2832990  50.8425200  96.2634070 130.4446950  50.9277660
  97.5213660 131.0018670  50.2961190 103.7243160 134.9651510  60.8204230
 102.8961790 135.0344600  60.3454360 104.3193640 135.5505820  60.3520060
 101.2458610 135.5736290  54.3493290 100.6271030 135.2355840  53.7019590
 101.2283060 134.9296050  55.0572480 100.6885170 131.7520830  61.7659100
 100.2756350 132.5774540  62.0199090  99.9561120 131.1665870  61.5735460
  93.2899660 138.2248290  58.7916980  92.9927950 137.6193760  58.1124760
  94.2399480 138.2625600  58.6806340 101.3785270 141.7980160  62.4540080
 100.9015830 142.6052350  62.2612690 100.6947060 141.1458490  62.6066290
  99.4223310 134.8123100  51.3566040  99.8616590 133.9745530  51.2103860
 100.1351730 135.4452500  51.4430180  97.5318690 139.7519170  55.3247280
  97.9714600 140.4943500  54.9102670  97.4705580 139.9945740  56.2486240
  93.0069660 140.7765000  66.2267300  92.9785090 141.1807950  65.3595730
  92.8434630 139.8475360  66.0638900 103.0040450 126.0665910  49.6707080
 102.6913110 126.1592740  50.5706150 103.7652920 126.6446940  49.6204510
 104.9584480 141.5592100  67.5231470 105.4344200 142.0374990  68.2020550
 105.5791640 141.4909590  66.7976970  88.4055590 138.3041040  56.3459240
  87.9983670 138.4455630  55.4912840  89.2968600 138.0201200  56.1430450
 104.3617730 138.7504950  64.6831480 104.4880790 138.5116830  63.7648660
 104.4039110 137.9189490  65.1553560  98.2234470 142.4532950  63.2526290
  98.7379140 142.3640960  64.0548720  97.3803550 142.7992650  63.5454200
 100.1988870 142.7388290  52.6810290 100.0390010 142.4491230  53.5792120
 100.0335580 141.9628420  52.1455520  92.6777250 142.5186820  54.4581910
  92.5019730 141.6022360  54.2449710  91.8232990 142.8774110  54.6979710
  99.9015000 140.2475850  51.2408290  99.2080160 140.2453140  50.5810570
 100.6437860 139.8235170  50.8102460  99.4664930 141.8738560  55.3156780
  99.9221880 141.0927940  55.6295400  99.8057450 142.5845380  55.8597960
  87.2167480 137.6455020  62.4747520  87.3798520 137.1760380  61.6566890
  87.6819930 137.1378580  63.1396360  91.9886250 126.7760780  57.5108090
  91.5454400 127.5570320  57.1792610  92.5471240 127.0990670  58.2179030
  96.2756060 129.6429300  63.1143410  95.8135430 129.8512320  63.9263350
  95.8734170 128.8288650  62.8114080  98.3710280 132.3640000  66.3438860
  98.6963690 131.5303750  66.0041090  99.1590610 132.8868520  66.4917190
  95.1045070 126.3971480  52.3913920  94.4799250 126.3931350  53.1167230
  95.0175190 125.5302440  51.9949890  94.0262150 127.3208110  59.3697690
  94.3234480 128.2270940  59.2889710  94.5747710 126.8326890  58.7557260
  99.0098230 131.9057720  53.8379990  98.4107120 132.6293520  53.6543610
  99.5577840 131.8434500  53.0556440  94.2199680 132.7979930  65.9049610
  94.1243280 131.8574660  65.7550010  95.0631660 133.0195000  65.5097680
  97.6163100 130.5421260  55.8683270  98.0092670 130.8593460  55.0551960
  97.9779950 129.6633140  55.9827790  95.9255270 129.2928570  67.1280130
  95.2353590 129.1000770  67.7626220  96.6687570 129.5763210  67.6604430
  86.8397500 131.0742180  49.3016190  86.7572170 132.0172940  49.4431180
  86.4880560 130.9317090  48.4228540  98.2018240 133.1327010  59.9634050
  97.4699360 133.6413820  60.3124150  97.8042580 132.3156990  59.6622830
  94.6395630 129.8081210  58.3686540  94.6431690 129.3671160  57.5191080
  95.5346750 130.1298540  58.4758360  94.7015780 130.8093290  51.3593300
  94.8228600 130.7679770  52.3079120  94.3164290 131.6717440  51.2040030
  98.6644150 128.5860690  59.3756990  98.6816890 129.0369340  60.2198840
  98.4159730 127.6866330  59.5890430  93.7137280 133.1194430  50.7576600
  93.1454180 132.6712680  50.1312510  94.4226280 133.4787210  50.2241750
  94.9403600 133.8682990  60.1151950  95.3073730 133.3941560  60.8613290
  94.7508660 134.7424560  60.4560290  87.8044090 128.6126680  56.2445420
  87.5191010 128.2482350  57.0824040  87.7422950 127.8807140  55.6308560
  92.7302970 132.9091630  62.4336160  92.4260040 133.7883610  62.6586520
  93.6849430 132.9691420  62.4693600 102.0172740 136.1117980  58.8229400
 102.7371860 136.6073270  58.4325510 101.8154560 135.4335870  58.1783270
  97.4782680 127.5055940  52.9658790  96.6647290 127.0069110  52.8904100
  97.2844630 128.3454190  52.5495140  97.3991540 136.1827040  64.7098400
  97.3328850 135.2622710  64.4555990  96.7696680 136.2802480  65.4243040
 100.1931070 131.8775590  51.2620950 101.0810690 132.1892820  51.0872290
 100.1636160 131.0047840  50.8701530  96.1891660 138.0499280  51.9409120
  96.5307360 138.7941510  51.4452440  95.3604370 138.3630400  52.3033950
  97.3308270 139.0047610  64.4602200  97.3452810 138.0728570  64.2421110
  96.6233370 139.0907370  65.0991970 102.4645340 133.1887430  50.7300810
 102.3809060 133.6201650  49.8797250 103.1839530 133.6485780  51.1627630
 103.5419480 135.6454950  63.8070780 102.8167670 136.2383730  63.6100170
 104.0694940 135.6378490  63.0084150 103.4932590 140.0429690  53.4582940
 102.8508750 139.3885310  53.7326660 103.1063250 140.4484780  52.6823610
  99.0719070 137.3715120  57.3054630  99.4242890 136.7743250  56.6456000
  98.1881400 137.0459350  57.4762880  95.1582350 138.1312810  54.7125040
  95.8453480 138.6782020  55.0932630  94.3714770 138.6753540  54.7474650
  87.2974750 133.7485630  50.2042120  88.1669600 134.0310430  50.4878040
  86.8065070 134.5621500  50.0890930  96.7642170 140.6465180  61.5542700
  97.4084390 140.8524560  62.2316120  97.1271610 139.8853580  61.1013550
  90.3621340 125.4796490  54.7972920  90.2335970 125.4714390  55.7457840
  89.5383360 125.8179580  54.4463930  98.0374250 138.6497530  60.2720150
  98.6796480 137.9490690  60.3852320  98.5623600 139.4295970  60.0917040
 101.8829970 138.9346150  49.9959290 101.6567550 138.2176590  50.5883930
 101.4926170 138.6858590  49.1581040  99.8111870 139.4492430  63.4756210
 100.1468110 140.0359120  64.1534130  98.8912210 139.3185140  63.7054000
  87.6646000 142.9613010  50.7703750  88.0243640 143.5602350  50.1161020
  87.5238340 143.5072900  51.5438780 101.4646220 136.8518090  51.6573450
 101.1767920 137.3130780  52.4451330 102.2598390 136.3915860  51.9257670
  87.6487860 141.2267870  65.2446150  87.7578980 140.2862610  65.1041540
  86.9968420 141.4922620  64.5959880  95.6400450 139.4983760  66.6444270
  95.3197320 138.7793000  67.1889960  94.9658810 140.1738830  66.7180330
  93.6814620 140.3444210  51.5877420  93.6724720 141.0773900  50.9721930
  92.7612980 140.0975790  51.6804380  98.8554050 129.7309920  62.0081070
  99.2234870 128.9105130  62.3360640  97.9952250 129.7911810  62.4236720
 102.2216080 128.6866860  52.8168630 101.5929240 128.7912530  52.1026860
 101.7268000 128.9063640  53.6062510  96.6674220 140.4072450  50.2502610
  96.7686200 140.2036440  49.3204590  95.7675960 140.1530730  50.4550390
  94.1900110 130.9652810  54.2326510  93.4816260 131.4339150  54.6740120
  94.4744590 130.3074820  54.8671700  95.8156040 132.3849510  62.2319040
  96.3141290 132.8595330  62.8970890  95.9578990 131.4613030  62.4389070
  98.2215540 127.6903470  55.6722300  98.0983320 127.7089600  54.7231810
  99.1700100 127.7382410  55.7920700  95.3092330 142.9258770  54.9450280
  95.5633830 142.8880160  54.0229650  94.3604810 142.7992100  54.9378530
  92.3935130 129.2737890  51.6077220  93.2425660 129.7108040  51.5417410
  92.0266400 129.5858150  52.4349280 101.3144910 133.8450650  56.5208790
 100.3735050 133.8600880  56.6956480 101.6288980 133.0586610  56.9669090
  91.2926550 135.5270250  50.0812750  92.0589820 135.4151610  50.6438180
  91.3701240 134.8308220  49.4289520 103.3170490 141.0159500  58.1963050
 103.4417910 141.8390670  58.6686860 104.1836050 140.8050230  57.8487200
  90.7888020 143.1090710  57.8680180  91.5250500 142.5606170  58.1388750
  91.1728940 143.9746720  57.7286170  87.6733500 139.1764280  53.7421690
  86.7473280 139.4185420  53.7327100  88.1389930 140.0038540  53.6206440
  89.7946300 142.2936780  67.0565760  90.5959030 142.6148830  67.4701160
  89.2798120 141.9332360  67.7785670  93.8990330 142.2821020  49.6905750
  94.6918940 142.5709850  49.2387540  93.3794680 141.8513190  49.0118230
  98.6310930 138.4016650  67.0041170  98.0249090 138.4248250  66.2636920
  98.3265040 137.6699690  67.5408420 100.0611300 142.1296940  65.6150580
 101.0133050 142.0454960  65.5650820  99.9139520 142.7938650  66.2884370
 102.9520500 141.5091150  51.1142490 102.6662010 141.0956290  50.2996670
 102.7540050 142.4378860  50.9943010  94.4167730 137.5024430  49.5548100
  94.3118370 136.8876780  50.2809480  94.2491950 136.9790320  48.7711110
  94.5682050 136.1881230  65.5337330  93.8027720 136.7566230  65.4492000
  94.7498010 135.8957440  64.6405560  97.6570460 136.5644460  50.1590090
  97.1080560 137.0113760  50.8032830  98.2789720 136.0593710  50.6827760
 101.7105400 137.9186560  66.0912350 102.4514870 138.2562320  65.5879810
 100.9478080 138.0878620  65.5382120  95.8373220 134.5472990  49.3032490
  96.3578880 133.8322010  48.9373640  96.4841620 135.1858860  49.6033000
 100.3851060 135.9701390  64.6267560 100.7992080 136.1246470  65.4757980
  99.4502060 136.0956610  64.7893340  94.7406740 127.0267540  61.9751050
  94.2924040 127.0491800  61.1296600  94.1071940 126.6286560  62.5721350
  95.1466290 135.9221870  62.5963490  95.5654400 136.7654600  62.4239730
  94.2274920 136.0593910  62.3670270  97.4830190 133.6538050  63.9801330
  97.6026400 133.0579190  64.7196170  98.3424190 133.6907740  63.5602630
  99.8218090 134.2075240  62.5563840  99.2953310 134.7317860  61.9528980
 100.1649430 134.8402630  63.1873570  92.2204480 131.5968610  49.0013550
  92.0193540 130.7335970  49.3626890  92.0496530 131.5101970  48.0635150
  92.9973710 142.2274880  63.7121220  92.4594800 142.9520940  63.3929920
  93.2507670 141.7505220  62.9218560  94.2498960 130.1959400  65.2377150
  94.8398650 129.8875250  65.9254970  93.4319200 129.7239150  65.3937050
  99.6992790 126.4076840  51.5300430  99.9795080 125.5644740  51.8859850
  98.9258520 126.6399950  52.0439180  91.0187280 128.6969230  48.9891430
  91.3213180 128.7036660  48.0810580  91.7581870 128.3467090  49.4859090
  95.8535920 143.4626090  63.9707870  95.7794620 144.3661230  64.2780240
  94.9514760 143.1437990  63.9429940  94.2372210 127.6403850  49.9747630
  93.8894210 126.9627840  49.3950080  94.4384980 127.1793360  50.7891020
  96.4021250 142.6284600  51.5934230  97.2972040 142.9669570  51.6152990
  96.4338880 141.9064010  50.9658510  90.0417410 138.0011650  49.8221230
  90.4792280 138.5441320  50.4778810  90.5265140 137.1758600  49.8317570
  87.2563210 140.7900680  57.2741490  87.5866220 139.9221740  57.0420130
  87.6854210 140.9959200  58.1046450  91.8525130 139.1209690  54.9343460
  91.5520670 138.9974660  55.8347370  91.7462620 138.2618280  54.5259190
  87.7453420 141.6571270  60.0123120  87.3084410 141.8372070  60.8447270
  88.3131100 142.4145890  59.8704840 103.3815600 141.1588270  64.3000430
 102.7817590 141.2180830  63.5564350 103.5109500 140.2193250  64.4297280
 104.6217050 138.9006090  49.6370140 103.7910010 138.9682740  50.1077370
 104.7988880 139.7910210  49.3337000 104.0773510 135.6453570  52.1404340
 104.8392420 136.2150220  52.2464030 104.0927880 135.0780770  52.9112650
 105.0833480 136.5003670  56.9846270 105.4542310 135.7170990  56.5782240
 105.7235410 137.1892770  56.8063570 102.0667240 137.8840250  62.3976590
 101.2527080 138.3137410  62.6602380 102.4741440 138.4958660  61.7845640
 104.1292680 135.9387940  49.2976860 104.4041520 136.8466820  49.1696080
 103.9403420 135.8750470  50.2338850 100.5268290 128.9632790  50.5930490
 100.9453170 128.7763770  49.7527150 100.2204350 128.1111840  50.9033420
 104.0258020 133.8756930  54.2906290 103.6501620 133.1084860  53.8587580
 103.2961140 134.2579630  54.7781220  86.7915930 131.3790430  52.3137330
  85.8880010 131.6420630  52.1388990  87.2756550 131.6501600  51.5337290
 103.3008980 132.1014420  57.5913530 103.8246460 131.6077070  56.9603700
 103.8868400 132.2364780  58.3361100  89.3343140 130.4355970  50.2231710
  90.0434840 130.0139190  49.7378990  88.6183080 130.5031200  49.5915060
  88.9817300 126.4895300  49.2634360  89.7045430 127.0304240  49.5815580
  89.2541820 126.2158720  48.3875900 102.7908950 131.3587770  53.5305940
 103.2868070 131.1258640  54.3154820 102.5925020 130.5199610  53.1143580
 105.1086380 127.8256640  49.3049760 106.0335690 127.6937820  49.0968050
 105.0862170 127.9049460  50.2586210 105.1824870 128.5967300  51.9306470
 104.3876370 128.5312420  52.4599380 105.3868150 129.5317940  51.9191820
 102.1243290 142.6358850  55.9244860 102.7202360 142.3143420  55.2479280
 102.3821440 142.1630670  56.7158130  93.7311890 140.6236350  61.6745210
  93.4903250 140.8910910  60.7875730  94.6714530 140.7942080  61.7296070
  95.9366310 127.0869040  65.4301720  95.8755200 127.6790870  66.1797130
  96.8766690 126.9795000  65.2851980  98.5740870 126.7439100  65.0694010
  99.1881280 127.0618390  64.4075090  99.1190430 126.2587690  65.6889870
 104.9916050 142.6430730  62.4755850 104.4974330 143.0399600  61.7582980
 104.3829340 142.0179940  62.8693130  89.8693890 142.0139010  63.1933270
  89.2754210 141.8823710  63.9323310  89.8617730 141.1777150  62.7275370
  99.3148910 125.3071240  61.3963300  98.4408750 125.6406350  61.1936230
  99.2059660 124.8344420  62.2215170 102.6755500 143.2854150  59.7542590
 102.2158470 144.0369960  59.3800610 102.0467960 142.5660620  59.6957390
  89.5006120 139.3797390  62.1441310  88.7740180 138.7602680  62.0767260
  89.5615270 139.7738000  61.2739390  93.1051220 141.5942390  58.9290720
  93.6216240 140.9829750  58.4038980  93.7548600 142.0971170  59.4201730
  95.8446720 142.4850880  59.7559700  96.1324530 142.2305180  58.8792710
  96.3569940 141.9328240  60.3465270  97.0623730 126.2241080  60.3356210
  96.2795520 126.6986580  60.6152970  96.7686660 125.3195910  60.2269390
 101.6144800 126.9264180  58.3805300 102.0552890 126.8709280  57.5326900
 101.3452390 127.8422190  58.4515480  87.7836120 142.6971780  55.3538070
  87.6158160 142.0642460  56.0519960  86.9170630 142.9031180  55.0032260
  88.4064140 126.5288560  52.8569930  89.1643500 126.6417440  52.2833960
  87.9441310 127.3657760  52.8113360  94.9477950 128.6427830  55.8472240
  94.1352460 128.2684720  55.5068120  95.4519590 127.8872910  56.1493430
  99.4502930 125.3070280  57.0855310 100.0532300 125.8790490  57.5603830
  98.7095920 125.8709720  56.8629210 102.5937530 125.7091840  52.3595590
 102.7888160 126.6075290  52.6263020 101.8067400 125.4778920  52.8528540
  89.3898820 141.3905010  52.7988210  88.8646440 141.7713040  52.0950170
  89.3143400 142.0155780  53.5197920  90.7789290 127.0552610  51.3971900
  91.3082050 126.2682410  51.2679850  91.4117610 127.7343800  51.6307430
  92.9727130 126.7927750  54.4517290  92.3429870 126.0915060  54.6187420
  92.4332270 127.5531880  54.2350450  95.9119080 143.4066980  67.1227900
  96.8386390 143.1711250  67.1663860  95.8969510 144.2338980  66.6413930
 104.1464140 142.9492550  54.1202150 104.3216330 142.2630290  53.4763070
 103.4485710 143.4739600  53.7278820  93.0982690 126.0711730  66.8869780
  92.8166960 126.5745330  66.1230600  93.4802390 125.2733480  66.5211910
  91.9891790 143.3387390  51.6737460  92.7210610 143.0546670  51.1261350
  92.2485460 143.1000670  52.5636840  91.1506580 139.4552120  51.6783790
  90.5215460 139.9237220  52.2269620  91.2654410 138.6101340  52.1129980
 102.4796640 142.6336840  66.9468940 103.2721960 142.1386070  66.7394900
 102.7729790 143.3126980  67.5544550  98.6056300 133.5057780  37.8284990
  98.5250350 132.5912390  37.5576700  98.1920720 134.0024850  37.1224700
  96.7374340 135.2836800  39.7094260  95.9616440 134.8037240  39.9992830
  97.3887270 134.6042450  39.5350420  90.7540170 135.5956610  40.5870020
  89.9225050 135.3405320  40.9866530  91.3621150 135.6667380  41.3227940
 100.7581770 139.6896990  38.4893390 100.2963300 138.9184230  38.8180560
 101.5707320 139.7163060  38.9945840  90.7341430 139.6296700  40.7828040
  91.0369470 138.7394440  40.6038260  91.4785020 140.1866920  40.5550290
  89.1632120 130.5558500  34.3712410  88.2748820 130.8974470  34.2692290
  89.4473310 130.3558820  33.4793240  87.1265130 133.1564150  40.2552110
  87.6981240 132.3886350  40.2555750  87.1266670 133.4552910  39.3458720
  96.9845080 141.9755000  38.1097380  96.3656520 142.4312500  37.5391820
  97.8396860 142.1306460  37.7087080  96.1783330 137.9593990  39.7164420
  96.1091610 137.0183930  39.5553550  96.9403190 138.0495400  40.2886990
  97.2088500 130.7664370  39.9433350  97.5853320 129.8936250  39.8307020
  97.1108010 131.1023070  39.0523790  91.3393510 129.1390000  35.4050790
  91.4460260 130.0393730  35.7119550  90.4285870 129.0907970  35.1145440
 100.9912620 128.2614810  36.8761690 101.8122240 127.7711380  36.9187170
 101.0246700 128.8512470  37.6293530  88.9876670 131.0609010  40.6503380
  89.6686780 131.3247380  41.2690780  88.6724720 130.2209880  40.9841390
  93.1801240 132.1076370  39.7375970  93.6879460 132.6057340  40.3780990
  93.7114480 131.3311570  39.5615330 105.2812170 130.2781560  43.4405320
 104.5764340 130.6663270  42.9220430 105.5470090 130.9731850  44.0426250
  97.8508430 136.8594240  35.5029290  97.2325700 137.3243690  34.9392010
  98.3631680 137.5521720  35.9198800  92.7140190 136.3870110  42.1812890
  92.3809570 137.0139030  42.8233960  92.8906870 136.9131990  41.4014560
 101.2274100 130.2015190  39.6489230 100.5229670 130.4900080  40.2292340
 101.5886260 131.0115300  39.2888790  91.9259290 138.3550910  43.9962070
  92.5433290 139.0301990  43.7146520  91.0652410 138.7638890  43.9049570
  87.2191630 137.5450770  32.8768920  86.8419610 138.0337870  32.1453820
  87.4764700 138.2176050  33.5075450 102.8436880 139.8190320  41.9116710
 102.1600400 140.4889430  41.9033380 103.3831170 140.0170970  41.1461570
 104.2961020 129.6469980  40.0398440 103.3485930 129.6808960  40.1713870
 104.6211010 130.4608930  40.4247800  94.8280560 125.9467160  38.3354430
  95.1355540 125.3914050  37.6189930  93.8981260 126.0811620  38.1527420
 100.3795620 141.6634450  40.6261890 100.3922780 141.2596740  39.7584150
  99.8270840 142.4381740  40.5223320 101.6741040 138.3850670  35.7152060
 101.5637370 137.4425000  35.8401480 101.6709290 138.7466310  36.6014820
  99.7781060 136.5664290  41.9544500 100.1949850 136.3524400  41.1197960
 100.5020880 136.8237080  42.5253120  97.2161320 134.0115990  35.0714550
  96.2890600 133.9453370  35.3003020  97.3686140 134.9496120  34.9569790
  97.2030400 130.2832990  32.0681710  96.2634070 130.4446950  32.1534170
  97.5213660 131.0018670  31.5217700 103.7243160 134.9651510  42.0460740
 102.8961790 135.0344600  41.5710870 104.3193640 135.5505820  41.5776570
 101.2458610 135.5736290  35.5749800 100.6271030 135.2355840  34.9276100
 101.2283060 134.9296050  36.2828990 100.6885170 131.7520830  42.9915610
 100.2756350 132.5774540  43.2455600  99.9561120 131.1665870  42.7991970
  92.8217960 134.5380730  37.8534280  92.4174960 133.8257980  37.3580180
  92.9081080 134.1933970  38.7422320  93.2899660 138.2248290  40.0173490
  92.9927950 137.6193760  39.3381270  94.2399480 138.2625600  39.9062850
  91.5346580 131.3123940  41.6333320  92.0861170 131.4219280  40.8586570
  92.0490090 131.6861540  42.3488550 101.3785270 141.7980160  43.6796590
 100.9015830 142.6052350  43.4869200 100.6947060 141.1458490  43.8322800
  92.3818090 137.9629980  46.6681290  91.4846620 138.1869950  46.9154690
  92.4070960 138.0864920  45.7192690  99.4223310 134.8123100  32.5822550
  99.8616590 133.9745530  32.4360370 100.1351730 135.4452500  32.6686690
  91.2089310 134.8343300  45.2438660  91.0697080 135.7066100  45.6126060
  90.3270670 134.4916110  45.0986600  97.5318690 139.7519170  36.5503790
  97.9714600 140.4943500  36.1359180  97.4705580 139.9945740  37.4742750
  93.0069660 140.7765000  47.4523810  92.9785090 141.1807950  46.5852240
  92.8434630 139.8475360  47.2895410 103.0040450 126.0665910  30.8963590
 102.6913110 126.1592740  31.7962660 103.7652920 126.6446940  30.8461020
  89.5222590 133.4325710  35.3540930  89.4020190 134.1587800  34.7422200
  89.2123480 132.6628620  34.8768840 104.9584480 141.5592100  48.7487980
 105.4344200 142.0374990  49.4277060 105.5791640 141.4909590  48.0233480
  87.1607960 136.6040850  41.1609570  87.2388380 136.7389620  40.2165290
  87.7749640 135.8956740  41.3537690  88.4055590 138.3041040  37.5715750
  87.9983670 138.4455630  36.7169350  89.2968600 138.0201200  37.3686960
 104.3617730 138.7504950  45.9087990 104.4880790 138.5116830  44.9905170
 104.4039110 137.9189490  46.3810070  98.2234470 142.4532950  44.4782800
  98.7379140 142.3640960  45.2805230  97.3803550 142.7992650  44.7710710
 100.1988870 142.7388290  33.9066800 100.0390010 142.4491230  34.8048630
 100.0335580 141.9628420  33.3712030  92.6777250 142.5186820  35.6838420
  92.5019730 141.6022360  35.4706220  91.8232990 142.8774110  35.9236220
  99.9015000 140.2475850  32.4664800  99.2080160 140.2453140  31.8067080
 100.6437860 139.8235170  32.0358970  99.4664930 141.8738560  36.5413290
  99.9221880 141.0927940  36.8551910  99.8057450 142.5845380  37.0854470
 104.2141740 130.8037410  46.8737730 103.5986010 131.3117080  46.3453190
 103.8938160 129.9035740  46.8163670  87.2167480 137.6455020  43.7004030
  87.3798520 137.1760380  42.8823400  87.6819930 137.1378580  44.3652870
  96.2756060 129.6429300  44.3399920  95.8135430 129.8512320  45.1519860
  95.8734170 128.8288650  44.0370590 101.2760570 130.8638250  45.4696580
 100.4254160 130.5644000  45.7905650 101.1162360 131.1080260  44.5580400
  98.3710280 132.3640000  47.5695370  98.6963690 131.5303750  47.2297600
  99.1590610 132.8868520  47.7173700  95.1045070 126.3971480  33.6170430
  94.4799250 126.3931350  34.3423740  95.0175190 125.5302440  33.2206400
  91.7800470 131.8994350  36.4645850  91.5541390 131.6831520  37.3692470
  90.9993000 132.3322810  36.1191820  99.0098230 131.9057720  35.0636500
  98.4107120 132.6293520  34.8800120  99.5577840 131.8434500  34.2812950
  94.2199680 132.7979930  47.1306120  94.1243280 131.8574660  46.9806520
  95.0631660 133.0195000  46.7354190  97.6163100 130.5421260  37.0939780
  98.0092670 130.8593460  36.2808470  97.9779950 129.6633140  37.2084300
  89.3510220 129.2093600  45.2839900  88.9573610 130.0568810  45.4912680
  88.6628620 128.5719970  45.4748540  95.9255270 129.2928570  48.3536640
  95.2353590 129.1000770  48.9882730  96.6687570 129.5763210  48.8860940
  86.8397500 131.0742180  30.5272700  86.7572170 132.0172940  30.6687690
  86.4880560 130.9317090  29.6485050  98.2018240 133.1327010  41.1890560
  97.4699360 133.6413820  41.5380660  97.8042580 132.3156990  40.8879340
  94.6395630 129.8081210  39.5943050  94.6431690 129.3671160  38.7447590
  95.5346750 130.1298540  39.7014870  90.4898010 129.6907700  38.5537260
  90.1498060 130.1682930  39.3104310  89.7275330 129.2372820  38.1938360
  94.7015780 130.8093290  32.5849810  94.8228600 130.7679770  33.5335630
  94.3164290 131.6717440  32.4296540  98.6644150 128.5860690  40.6013500
  98.6816890 129.0369340  41.4455350  98.4159730 127.6866330  40.8146940
  93.7137280 133.1194430  31.9833110  93.1454180 132.6712680  31.3569020
  94.4226280 133.4787210  31.4498260 102.0914900 125.9992870  46.4399880
 102.4160670 125.2682530  46.9657860 102.1271410 125.6806510  45.5380870
  88.7906460 137.0206450  45.8599840  88.4061250 136.3800120  46.4582800
  89.1018650 137.7242570  46.4294570  94.9403600 133.8682990  41.3408460
  95.3073730 133.3941560  42.0869800  94.7508660 134.7424560  41.6816800
  87.8044090 128.6126680  37.4701930  87.5191010 128.2482350  38.3080550
  87.7422950 127.8807140  36.8565070  92.7302970 132.9091630  43.6592670
  92.4260040 133.7883610  43.8843030  93.6849430 132.9691420  43.6950110
  91.2584760 137.1152620  34.2559520  90.4847020 136.5750240  34.0958240
  91.9879390 136.5959230  33.9177280 102.0172740 136.1117980  40.0485910
 102.7371860 136.6073270  39.6582020 101.8154560 135.4335870  39.4039780
  97.4782680 127.5055940  34.1915300  96.6647290 127.0069110  34.1160610
  97.2844630 128.3454190  33.7751650  97.3991540 136.1827040  45.9354910
  97.3328850 135.2622710  45.6812500  96.7696680 136.2802480  46.6499550
 100.1931070 131.8775590  32.4877460 101.0810690 132.1892820  32.3128800
 100.1636160 131.0047840  32.0958040  91.3022160 136.7833000  37.8938330
  91.8200830 135.9801260  37.8395220  90.8506180 136.7212140  38.7355160
  96.1891660 138.0499280  33.1665630  96.5307360 138.7941510  32.6708950
  95.3604370 138.3630400  33.5290460  88.7866700 133.7494370  44.8064030
  88.4281640 134.4148220  45.3937370  88.4921260 132.9177920  45.1776650
  91.9879820 134.2078610  47.6903580  91.6879960 134.3535790  46.7931400
  92.7591060 133.6483900  47.5976970  97.3308270 139.0047610  45.6858710
  97.3452810 138.0728570  45.4677620  96.6233370 139.0907370  46.3248480
 102.4645340 133.1887430  31.9557320 102.3809060 133.6201650  31.1053760
 103.1839530 133.6485780  32.3884140 103.5419480 135.6454950  45.0327290
 102.8167670 136.2383730  44.8356680 104.0694940 135.6378490  44.2340660
 103.4932590 140.0429690  34.6839450 102.8508750 139.3885310  34.9583170
 103.1063250 140.4484780  33.9080120  99.0719070 137.3715120  38.5311140
  99.4242890 136.7743250  37.8712510  98.1881400 137.0459350  38.7019390
  95.1582350 138.1312810  35.9381550  95.8453480 138.6782020  36.3189140
  94.3714770 138.6753540  35.9731160  87.2974750 133.7485630  31.4298630
  88.1669600 134.0310430  31.7134550  86.8065070 134.5621500  31.3147440
  94.4609560 135.1358840  35.5506910  94.9172340 135.9464090  35.7767100
  94.1097770 134.8181980  36.3825400  96.7642170 140.6465180  42.7799210
  97.4084390 140.8524560  43.4572630  97.1271610 139.8853580  42.3270060
  98.0374250 138.6497530  41.4976660  98.6796480 137.9490690  41.6108830
  98.5623600 139.4295970  41.3173550 101.8829970 138.9346150  31.2215800
 101.6567550 138.2176590  31.8140440 101.4926170 138.6858590  30.3837550
  99.8111870 139.4492430  44.7012720 100.1468110 140.0359120  45.3790640
  98.8912210 139.3185140  44.9310510  87.6646000 142.9613010  31.9960260
  88.0243640 143.5602350  31.3417530  87.5238340 143.5072900  32.7695290
  87.3615270 127.2387610  45.4836130  86.6473790 127.4384530  46.0888740
  87.7810310 126.4627180  45.8550930 101.4646220 136.8518090  32.8829960
 101.1767920 137.3130780  33.6707840 102.2598390 136.3915860  33.1514180
  87.6487860 141.2267870  46.4702660  87.7578980 140.2862610  46.3298050
  86.9968420 141.4922620  45.8216390  95.6400450 139.4983760  47.8700780
  95.3197320 138.7793000  48.4146470  94.9658810 140.1738830  47.9436840
  93.6814620 140.3444210  32.8133930  93.6724720 141.0773900  32.1978440
  92.7612980 140.0975790  32.9060890  89.2821260 135.5659100  33.5580690
  88.6749210 136.3058000  33.5675990  89.7570610 135.6558460  32.7318890
  98.8554050 129.7309920  43.2337580  99.2234870 128.9105130  43.5617150
  97.9952250 129.7911810  43.6493230 102.2216080 128.6866860  34.0425140
 101.5929240 128.7912530  33.3283370 101.7268000 128.9063640  34.8319020
  96.6674220 140.4072450  31.4759120  96.7686200 140.2036440  30.5461100
  95.7675960 140.1530730  31.6806900  94.1900110 130.9652810  35.4583020
  93.4816260 131.4339150  35.8996630  94.4744590 130.3074820  36.0928210
  95.8156040 132.3849510  43.4575550  96.3141290 132.8595330  44.1227400
  95.9578990 131.4613030  43.6645580  98.2215540 127.6903470  36.8978810
  98.0983320 127.7089600  35.9488320  99.1700100 127.7382410  37.0177210
  95.3092330 142.9258770  36.1706790  95.5633830 142.8880160  35.2486160
  94.3604810 142.7992100  36.1635040  92.3935130 129.2737890  32.8333730
  93.2425660 129.7108040  32.7673920  92.0266400 129.5858150  33.6605790
 103.0222900 128.6017470  44.3003940 102.5196500 129.3422870  44.6397750
 103.8379560 128.9901470  43.9840730 101.3144910 133.8450650  37.7465300
 100.3735050 133.8600880  37.9212990 101.6288980 133.0586610  38.1925600
  91.2926550 135.5270250  31.3069260  92.0589820 135.4151610  31.8694690
  91.3701240 134.8308220  30.6546030  89.9873310 132.9595320  31.9902150
  90.0676900 132.0122830  32.1019550  90.8793060 133.2902200  32.0962810
 103.3170490 141.0159500  39.4219560 103.4417910 141.8390670  39.8943370
 104.1836050 140.8050230  39.0743710  90.7888020 143.1090710  39.0936690
  91.5250500 142.5606170  39.3645260  91.1728940 143.9746720  38.9542680
  87.6733500 139.1764280  34.9678200  86.7473280 139.4185420  34.9583610
  88.1389930 140.0038540  34.8462950  89.7946300 142.2936780  48.2822270
  90.5959030 142.6148830  48.6957670  89.2798120 141.9332360  49.0042180
  93.8990330 142.2821020  30.9162260  94.6918940 142.5709850  30.4644050
  93.3794680 141.8513190  30.2374740  98.6310930 138.4016650  48.2297680
  98.0249090 138.4248250  47.4893430  98.3265040 137.6699690  48.7664930
 100.0611300 142.1296940  46.8407090 101.0133050 142.0454960  46.7907330
  99.9139520 142.7938650  47.5140880 102.9520500 141.5091150  32.3399000
 102.6662010 141.0956290  31.5253180 102.7540050 142.4378860  32.2199520
  87.5144110 134.7810240  47.2258320  88.0183130 134.2017520  47.7974550
  86.7751530 135.0650470  47.7634690  94.4167730 137.5024430  30.7804610
  94.3118370 136.8876780  31.5065990  94.2491950 136.9790320  29.9967620
  94.5682050 136.1881230  46.7593840  93.8027720 136.7566230  46.6748510
  94.7498010 135.8957440  45.8662070  97.6570460 136.5644460  31.3846600
  97.1080560 137.0113760  32.0289340  98.2789720 136.0593710  31.9084270
 101.7105400 137.9186560  47.3168860 102.4514870 138.2562320  46.8136320
 100.9478080 138.0878620  46.7638630  89.5467190 132.9239830  48.1208390
  89.5872530 132.6253700  49.0293620  90.4012690 133.3247440  47.9615910
  93.3245580 135.5235380  33.2811900  93.7462000 135.3575250  34.1243290
  93.4496420 134.7135610  32.7867040  91.4873000 131.5031930  46.0882880
  90.9569460 131.0122880  45.4606220  92.1561070 131.9316130  45.5540810
  95.8373220 134.5472990  30.5289000  96.3578880 133.8322010  30.1630150
  96.4841620 135.1858860  30.8289510 100.3851060 135.9701390  45.8524070
 100.7992080 136.1246470  46.7014490  99.4502060 136.0956610  46.0149850
 100.8573230 133.3097550  47.8563220 101.4394000 132.5549870  47.7683700
 101.0335000 133.8404990  47.0794700  91.9745300 128.4694300  46.1680170
  91.8802170 127.8515050  45.4431040  91.3942690 129.1960590  45.9410080
  94.7406740 127.0267540  43.2007560  94.2924040 127.0491800  42.3553110
  94.1071940 126.6286560  43.7977860  95.1466290 135.9221870  43.8220000
  95.5654400 136.7654600  43.6496240  94.2274920 136.0593910  43.5926780
  97.4830190 133.6538050  45.2057840  97.6026400 133.0579190  45.9452680
  98.3424190 133.6907740  44.7859140  99.8218090 134.2075240  43.7820350
  99.2953310 134.7317860  43.1785490 100.1649430 134.8402630  44.4130080
  92.2204480 131.5968610  30.2270060  92.0193540 130.7335970  30.5883400
  92.0496530 131.5101970  29.2891660  92.9973710 142.2274880  44.9377730
  92.4594800 142.9520940  44.6186430  93.2507670 141.7505220  44.1475070
  94.2498960 130.1959400  46.4633660  94.8398650 129.8875250  47.1511480
  93.4319200 129.7239150  46.6193560  99.0692390 129.8125210  46.6966680
  98.3807910 129.1506750  46.6316670  99.7898410 129.3663480  47.1415140
  99.6992790 126.4076840  32.7556940  99.9795080 125.5644740  33.1116360
  98.9258520 126.6399950  33.2695690  91.0187280 128.6969230  30.2147940
  91.3213180 128.7036660  29.3067090  91.7581870 128.3467090  30.7115600
  95.8535920 143.4626090  45.1964380  95.7794620 144.3661230  45.5036750
  94.9514760 143.1437990  45.1686450  94.2372210 127.6403850  31.2004140
  93.8894210 126.9627840  30.6206590  94.4384980 127.1793360  32.0147530
  96.4021250 142.6284600  32.8190740  97.2972040 142.9669570  32.8409500
  96.4338880 141.9064010  32.1915020  90.0417410 138.0011650  31.0477740
  90.4792280 138.5441320  31.7035320  90.5265140 137.1758600  31.0574080
  87.2563210 140.7900680  38.4998000  87.5866220 139.9221740  38.2676640
  87.6854210 140.9959200  39.3302960  91.8525130 139.1209690  36.1599970
  91.5520670 138.9974660  37.0603880  91.7462620 138.2618280  35.7515700
  87.7453420 141.6571270  41.2379630  87.3084410 141.8372070  42.0703780
  88.3131100 142.4145890  41.0961350 103.3815600 141.1588270  45.5256940
 102.7817590 141.2180830  44.7820860 103.5109500 140.2193250  45.6553790
 104.6217050 138.9006090  30.8626650 103.7910010 138.9682740  31.3333880
 104.7988880 139.7910210  30.5593510 104.0773510 135.6453570  33.3660850
 104.8392420 136.2150220  33.4720540 104.0927880 135.0780770  34.1369160
  87.5777850 134.1691500  37.5968510  86.9226690 133.9003140  36.9528210
  88.4155800 134.0595980  37.1470490 105.0833480 136.5003670  38.2102780
 105.4542310 135.7170990  37.8038750 105.7235410 137.1892770  38.0320080
 102.0667240 137.8840250  43.6233100 101.2527080 138.3137410  43.8858890
 102.4741440 138.4958660  43.0102150 104.1292680 135.9387940  30.5233370
 104.4041520 136.8466820  30.3952590 103.9403420 135.8750470  31.4595360
 100.5268290 128.9632790  31.8187000 100.9453170 128.7763770  30.9783660
 100.2204350 128.1111840  32.1289930 104.0258020 133.8756930  35.5162800
 103.6501620 133.1084860  35.0844090 103.2961140 134.2579630  36.0037730
  88.6153780 134.5544070  42.1371850  88.9826820 134.4671470  43.0167870
  88.0464600 133.7910620  42.0378710 103.4157640 133.0228450  45.1502320
 103.1843730 132.7941200  44.2500270 103.6762190 133.9428000  45.1047210
  88.1669780 131.4653160  46.0430270  87.2725830 131.4319920  46.3823980
  88.7067330 131.6639950  46.8081520 101.8545710 128.2484880  47.9282020
 102.7315890 128.2568280  48.3116020 101.8666550 127.5115720  47.3174370
  86.7915930 131.3790430  33.5393840  85.8880010 131.6420630  33.3645500
  87.2756550 131.6501600  32.7593800 103.3008980 132.1014420  38.8170040
 103.8246460 131.6077070  38.1860210 103.8868400 132.2364780  39.5617610
 103.4798700 132.1854290  42.3389590 102.5301410 132.1517830  42.4534580
 103.6611710 133.0954400  42.1039360  89.3343140 130.4355970  31.4488220
  90.0434840 130.0139190  30.9635500  88.6183080 130.5031200  30.8171570
  88.9817300 126.4895300  30.4890870  89.7045430 127.0304240  30.8072090
  89.2541820 126.2158720  29.6132410 102.7908950 131.3587770  34.7562450
 103.2868070 131.1258640  35.5411330 102.5925020 130.5199610  34.3400090
 104.2196110 129.9948720  37.2900130 104.1095390 129.8404760  38.2282400
 104.9803700 129.4669660  37.0475540 102.5661830 125.9342850  43.7483130
 103.2034050 126.5476990  44.1142320 102.7136720 125.9703510  42.8032360
 105.1086380 127.8256640  30.5306270 106.0335690 127.6937820  30.3224560
 105.0862170 127.9049460  31.4842720 105.1824870 128.5967300  33.1562980
 104.3876370 128.5312420  33.6855890 105.3868150 129.5317940  33.1448330
 102.1243290 142.6358850  37.1501370 102.7202360 142.3143420  36.4735790
 102.3821440 142.1630670  37.9414640  90.0305860 139.0676760  47.2992000
  89.9875490 138.6969670  48.1806460  90.1616870 140.0054330  47.4393820
  93.7311890 140.6236350  42.9001720  93.4903250 140.8910910  42.0132240
  94.6714530 140.7942080  42.9552580 104.9916050 142.6430730  43.7012360
 104.4974330 143.0399600  42.9839490 104.3829340 142.0179940  44.0949640
  89.8693890 142.0139010  44.4189780  89.2754210 141.8823710  45.1579820
  89.8617730 141.1777150  43.9531880 100.2220890 127.5142110  44.0061530
  99.8934250 126.6993870  43.6263260 101.1703190 127.4711920  43.8827220
 102.6755500 143.2854150  40.9799100 102.2158470 144.0369960  40.6057120
 102.0467960 142.5660620  40.9213900  89.5006120 139.3797390  43.3697820
  88.7740180 138.7602680  43.3023770  89.5615270 139.7738000  42.4995900
  93.1051220 141.5942390  40.1547230  93.6216240 140.9829750  39.6295490
  93.7548600 142.0971170  40.6458240  95.8446720 142.4850880  40.9816210
  96.1324530 142.2305180  40.1049220  96.3569940 141.9328240  41.5721780
  97.0623730 126.2241080  41.5612720  96.2795520 126.6986580  41.8409480
  96.7686660 125.3195910  41.4525900 101.6144800 126.9264180  39.6061810
 102.0552890 126.8709280  38.7583410 101.3452390 127.8422190  39.6771990
 103.4783370 126.5579420  37.6170630 103.4171770 125.6140640  37.4701650
 104.2575400 126.6659510  38.1624090  87.7836120 142.6971780  36.5794580
  87.6158160 142.0642460  37.2776470  86.9170630 142.9031180  36.2288770
  94.9477950 128.6427830  37.0728750  94.1352460 128.2684720  36.7324630
  95.4519590 127.8872910  37.3749940  99.4502930 125.3070280  38.3111820
 100.0532300 125.8790490  38.7860340  98.7095920 125.8709720  38.0885720
 102.5937530 125.7091840  33.5852100 102.7888160 126.6075290  33.8519530
 101.8067400 125.4778920  34.0785050  89.3898820 141.3905010  34.0244720
  88.8646440 141.7713040  33.3206680  89.3143400 142.0155780  34.7454430
  90.7789290 127.0552610  32.6228410  91.3082050 126.2682410  32.4936360
  91.4117610 127.7343800  32.8563940  95.9119080 143.4066980  48.3484410
  96.8386390 143.1711250  48.3920370  95.8969510 144.2338980  47.8670440
 104.1464140 142.9492550  35.3458660 104.3216330 142.2630290  34.7019580
 103.4485710 143.4739600  34.9535330  91.9891790 143.3387390  32.8993970
  92.7210610 143.0546670  32.3517860  92.2485460 143.1000670  33.7893350
  91.1506580 139.4552120  32.9040300  90.5215460 139.9237220  33.4526130
  91.2654410 138.6101340  33.3386490  99.6998150 125.4865310  48.6906760
  99.5863600 125.8059920  49.5858280 100.5167890 125.8877820  48.3944040
 102.4796640 142.6336840  48.1725450 103.2721960 142.1386070  47.9651410
 102.7729790 143.3126980  48.7801060  98.6056300 133.5057780  19.0541500
  98.5250350 132.5912390  18.7833210  98.1920720 134.0024850  18.3481210
  96.7374340 135.2836800  20.9350770  95.9616440 134.8037240  21.2249340
  97.3887270 134.6042450  20.7606930  90.7540170 135.5956610  21.8126530
  89.9225050 135.3405320  22.2123040  91.3621150 135.6667380  22.5484450
 100.7581770 139.6896990  19.7149900 100.2963300 138.9184230  20.0437070
 101.5707320 139.7163060  20.2202350  90.7341430 139.6296700  22.0084550
  91.0369470 138.7394440  21.8294770  91.4785020 140.1866920  21.7806800
  89.1632120 130.5558500  15.5968920  88.2748820 130.8974470  15.4948800
  89.4473310 130.3558820  14.7049750  87.1265130 133.1564150  21.4808620
  87.6981240 132.3886350  21.4812260  87.1266670 133.4552910  20.5715230
  96.9845080 141.9755000  19.3353890  96.3656520 142.4312500  18.7648330
  97.8396860 142.1306460  18.9343590  96.1783330 137.9593990  20.9420930
  96.1091610 137.0183930  20.7810060  96.9403190 138.0495400  21.5143500
  88.3690000 128.5648510  23.2677550  88.1892840 127.6674260  23.5480310
  87.9670080 129.1120380  23.9424500  97.2088500 130.7664370  21.1689860
  97.5853320 129.8936250  21.0563530  97.1108010 131.1023070  20.2780300
  91.3393510 129.1390000  16.6307300  91.4460260 130.0393730  16.9376060
  90.4285870 129.0907970  16.3401950 100.9912620 128.2614810  18.1018200
 101.8122240 127.7711380  18.1443680 101.0246700 128.8512470  18.8550040
  88.9876670 131.0609010  21.8759890  89.6686780 131.3247380  22.4947290
  88.6724720 130.2209880  22.2097900  93.1801240 132.1076370  20.9632480
  93.6879460 132.6057340  21.6037500  93.7114480 131.3311570  20.7871840
 105.2812170 130.2781560  24.6661830 104.5764340 130.6663270  24.1476940
 105.5470090 130.9731850  25.2682760  91.4637340 126.7474930  25.2295900
  91.4655780 127.2647320  24.4241800  90.6341650 126.2705110  25.2065830
  97.8508430 136.8594240  16.7285800  97.2325700 137.3243690  16.1648520
  98.3631680 137.5521720  17.1455310  92.7140190 136.3870110  23.4069400
  92.3809570 137.0139030  24.0490470  92.8906870 136.9131990  22.6271070
 101.2274100 130.2015190  20.8745740 100.5229670 130.4900080  21.4548850
 101.5886260 131.0115300  20.5145300  91.1452670 128.4584890  23.2366350
  91.4869480 129.3026940  22.9420220  90.2068480 128.6068630  23.3531690
  91.9259290 138.3550910  25.2218580  92.5433290 139.0301990  24.9403030
  91.0652410 138.7638890  25.1306080  87.2191630 137.5450770  14.1025430
  86.8419610 138.0337870  13.3710330  87.4764700 138.2176050  14.7331960
 102.8436880 139.8190320  23.1373220 102.1600400 140.4889430  23.1289890
 103.3831170 140.0170970  22.3718080 104.2961020 129.6469980  21.2654950
 103.3485930 129.6808960  21.3970380 104.6211010 130.4608930  21.6504310
  94.8280560 125.9467160  19.5610940  95.1355540 125.3914050  18.8446440
  93.8981260 126.0811620  19.3783930 100.3795620 141.6634450  21.8518400
 100.3922780 141.2596740  20.9840660  99.8270840 142.4381740  21.7479830
 101.6741040 138.3850670  16.9408570 101.5637370 137.4425000  17.0657990
 101.6709290 138.7466310  17.8271330  99.7781060 136.5664290  23.1801010
 100.1949850 136.3524400  22.3454470 100.5020880 136.8237080  23.7509630
  97.2161320 134.0115990  16.2971060  96.2890600 133.9453370  16.5259530
  97.3686140 134.9496120  16.1826300  97.2030400 130.2832990  13.2938220
  96.2634070 130.4446950  13.3790680  97.5213660 131.0018670  12.7474210
 103.7243160 134.9651510  23.2717250 102.8961790 135.0344600  22.7967380
 104.3193640 135.5505820  22.8033080 101.2458610 135.5736290  16.8006310
 100.6271030 135.2355840  16.1532610 101.2283060 134.9296050  17.5085500
 100.6885170 131.7520830  24.2172120 100.2756350 132.5774540  24.4712110
  99.9561120 131.1665870  24.0248480  92.8217960 134.5380730  19.0790790
  92.4174960 133.8257980  18.5836690  92.9081080 134.1933970  19.9678830
  93.2899660 138.2248290  21.2430000  92.9927950 137.6193760  20.5637780
  94.2399480 138.2625600  21.1319360  91.5346580 131.3123940  22.8589830
  92.0861170 131.4219280  22.0843080  92.0490090 131.6861540  23.5745060
 101.3785270 141.7980160  24.9053100 100.9015830 142.6052350  24.7125710
 100.6947060 141.1458490  25.0579310  92.3818090 137.9629980  27.8937800
  91.4846620 138.1869950  28.1411200  92.4070960 138.0864920  26.9449200
  99.4223310 134.8123100  13.8079060  99.8616590 133.9745530  13.6616880
 100.1351730 135.4452500  13.8943200  91.2089310 134.8343300  26.4695170
  91.0697080 135.7066100  26.8382570  90.3270670 134.4916110  26.3243110
  97.5318690 139.7519170  17.7760300  97.9714600 140.4943500  17.3615690
  97.4705580 139.9945740  18.6999260  93.0069660 140.7765000  28.6780320
  92.9785090 141.1807950  27.8108750  92.8434630 139.8475360  28.5151920
 103.0040450 126.0665910  12.1220100 102.6913110 126.1592740  13.0219170
 103.7652920 126.6446940  12.0717530  89.5222590 133.4325710  16.5797440
  89.4020190 134.1587800  15.9678710  89.2123480 132.6628620  16.1025350
 104.9584480 141.5592100  29.9744490 105.4344200 142.0374990  30.6533570
 105.5791640 141.4909590  29.2489990  87.1607960 136.6040850  22.3866080
  87.2388380 136.7389620  21.4421800  87.7749640 135.8956740  22.5794200
  88.4055590 138.3041040  18.7972260  87.9983670 138.4455630  17.9425860
  89.2968600 138.0201200  18.5943470 104.3617730 138.7504950  27.1344500
 104.4880790 138.5116830  26.2161680 104.4039110 137.9189490  27.6066580
  98.2234470 142.4532950  25.7039310  98.7379140 142.3640960  26.5061740
  97.3803550 142.7992650  25.9967220 100.1988870 142.7388290  15.1323310
 100.0390010 142.4491230  16.0305140 100.0335580 141.9628420  14.5968540
  92.6777250 142.5186820  16.9094930  92.5019730 141.6022360  16.6962730
  91.8232990 142.8774110  17.1492730  99.9015000 140.2475850  13.6921310
  99.2080160 140.2453140  13.0323590 100.6437860 139.8235170  13.2615480
  99.4664930 141.8738560  17.7669800  99.9221880 141.0927940  18.0808420
  99.8057450 142.5845380  18.3110980 104.2141740 130.8037410  28.0994240
 103.5986010 131.3117080  27.5709700 103.8938160 129.9035740  28.0420180
  87.2167480 137.6455020  24.9260540  87.3798520 137.1760380  24.1079910
  87.6819930 137.1378580  25.5909380  91.9886250 126.7760780  19.9621110
  91.5454400 127.5570320  19.6305630  92.5471240 127.0990670  20.6692050
  96.2756060 129.6429300  25.5656430  95.8135430 129.8512320  26.3776370
  95.8734170 128.8288650  25.2627100 101.2760570 130.8638250  26.6953090
 100.4254160 130.5644000  27.0162160 101.1162360 131.1080260  25.7836910
  98.3710280 132.3640000  28.7951880  98.6963690 131.5303750  28.4554110
  99.1590610 132.8868520  28.9430210  95.1045070 126.3971480  14.8426940
  94.4799250 126.3931350  15.5680250  95.0175190 125.5302440  14.4462910
  94.0262150 127.3208110  21.8210710  94.3234480 128.2270940  21.7402730
  94.5747710 126.8326890  21.2070280  91.7800470 131.8994350  17.6902360
  91.5541390 131.6831520  18.5948980  90.9993000 132.3322810  17.3448330
  99.0098230 131.9057720  16.2893010  98.4107120 132.6293520  16.1056630
  99.5577840 131.8434500  15.5069460  94.2199680 132.7979930  28.3562630
  94.1243280 131.8574660  28.2063030  95.0631660 133.0195000  27.9610700
  97.6163100 130.5421260  18.3196290  98.0092670 130.8593460  17.5064980
  97.9779950 129.6633140  18.4340810  89.3510220 129.2093600  26.5096410
  88.9573610 130.0568810  26.7169190  88.6628620 128.5719970  26.7005050
  95.9255270 129.2928570  29.5793150  95.2353590 129.1000770  30.2139240
  96.6687570 129.5763210  30.1117450  86.6527270 127.1322060  20.5426490
  86.3640320 127.7024920  21.2551470  87.3973030 126.6526510  20.9057720
  86.8397500 131.0742180  11.7529210  86.7572170 132.0172940  11.8944200
  86.4880560 130.9317090  10.8741560  98.2018240 133.1327010  22.4147070
  97.4699360 133.6413820  22.7637170  97.8042580 132.3156990  22.1135850
  94.6395630 129.8081210  20.8199560  94.6431690 129.3671160  19.9704100
  95.5346750 130.1298540  20.9271380  90.4898010 129.6907700  19.7793770
  90.1498060 130.1682930  20.5360820  89.7275330 129.2372820  19.4194870
  94.7015780 130.8093290  13.8106320  94.8228600 130.7679770  14.7592140
  94.3164290 131.6717440  13.6553050  98.6644150 128.5860690  21.8270010
  98.6816890 129.0369340  22.6711860  98.4159730 127.6866330  22.0403450
  93.7137280 133.1194430  13.2089620  93.1454180 132.6712680  12.5825530
  94.4226280 133.4787210  12.6754770 102.0914900 125.9992870  27.6656390
 102.4160670 125.2682530  28.1914370 102.1271410 125.6806510  26.7637380
  88.7906460 137.0206450  27.0856350  88.4061250 136.3800120  27.6839310
  89.1018650 137.7242570  27.6551080  94.9403600 133.8682990  22.5664970
  95.3073730 133.3941560  23.3126310  94.7508660 134.7424560  22.9073310
  87.8044090 128.6126680  18.6958440  87.5191010 128.2482350  19.5337060
  87.7422950 127.8807140  18.0821580  92.7302970 132.9091630  24.8849180
  92.4260040 133.7883610  25.1099540  93.6849430 132.9691420  24.9206620
  91.2584760 137.1152620  15.4816030  90.4847020 136.5750240  15.3214750
  91.9879390 136.5959230  15.1433790 102.0172740 136.1117980  21.2742420
 102.7371860 136.6073270  20.8838530 101.8154560 135.4335870  20.6296290
  97.4782680 127.5055940  15.4171810  96.6647290 127.0069110  15.3417120
  97.2844630 128.3454190  15.0008160  97.3991540 136.1827040  27.1611420
  97.3328850 135.2622710  26.9069010  96.7696680 136.2802480  27.8756060
 100.1931070 131.8775590  13.7133970 101.0810690 132.1892820  13.5385310
 100.1636160 131.0047840  13.3214550  91.3022160 136.7833000  19.1194840
  91.8200830 135.9801260  19.0651730  90.8506180 136.7212140  19.9611670
  96.1891660 138.0499280  14.3922140  96.5307360 138.7941510  13.8965460
  95.3604370 138.3630400  14.7546970  88.7866700 133.7494370  26.0320540
  88.4281640 134.4148220  26.6193880  88.4921260 132.9177920  26.4033160
  91.9879820 134.2078610  28.9160090  91.6879960 134.3535790  28.0187910
  92.7591060 133.6483900  28.8233480  97.3308270 139.0047610  26.9115220
  97.3452810 138.0728570  26.6934130  96.6233370 139.0907370  27.5504990
 102.4645340 133.1887430  13.1813830 102.3809060 133.6201650  12.3310270
 103.1839530 133.6485780  13.6140650 103.5419480 135.6454950  26.2583800
 102.8167670 136.2383730  26.0613190 104.0694940 135.6378490  25.4597170
 103.4932590 140.0429690  15.9095960 102.8508750 139.3885310  16.1839680
 103.1063250 140.4484780  15.1336630  99.0719070 137.3715120  19.7567650
  99.4242890 136.7743250  19.0969020  98.1881400 137.0459350  19.9275900
  95.1582350 138.1312810  17.1638060  95.8453480 138.6782020  17.5445650
  94.3714770 138.6753540  17.1987670  87.2974750 133.7485630  12.6555140
  88.1669600 134.0310430  12.9391060  86.8065070 134.5621500  12.5403950
  94.4609560 135.1358840  16.7763420  94.9172340 135.9464090  17.0023610
  94.1097770 134.8181980  17.6081910  96.7642170 140.6465180  24.0055720
  97.4084390 140.8524560  24.6829140  97.1271610 139.8853580  23.5526570
  90.3621340 125.4796490  17.2485940  90.2335970 125.4714390  18.1970860
  89.5383360 125.8179580  16.8976950  98.0374250 138.6497530  22.7233170
  98.6796480 137.9490690  22.8365340  98.5623600 139.4295970  22.5430060
 101.8829970 138.9346150  12.4472310 101.6567550 138.2176590  13.0396950
 101.4926170 138.6858590  11.6094060  99.8111870 139.4492430  25.9269230
 100.1468110 140.0359120  26.6047150  98.8912210 139.3185140  26.1567020
  87.6646000 142.9613010  13.2216770  88.0243640 143.5602350  12.5674040
  87.5238340 143.5072900  13.9951800  87.3615270 127.2387610  26.7092640
  86.6473790 127.4384530  27.3145250  87.7810310 126.4627180  27.0807440
 101.4646220 136.8518090  14.1086470 101.1767920 137.3130780  14.8964350
 102.2598390 136.3915860  14.3770690  87.6487860 141.2267870  27.6959170
  87.7578980 140.2862610  27.5554560  86.9968420 141.4922620  27.0472900
  95.6400450 139.4983760  29.0957290  95.3197320 138.7793000  29.6402980
  94.9658810 140.1738830  29.1693350  93.6814620 140.3444210  14.0390440
  93.6724720 141.0773900  13.4234950  92.7612980 140.0975790  14.1317400
  89.2821260 135.5659100  14.7837200  88.6749210 136.3058000  14.7932500
  89.7570610 135.6558460  13.9575400  98.8554050 129.7309920  24.4594090
  99.2234870 128.9105130  24.7873660  97.9952250 129.7911810  24.8749740
 102.2216080 128.6866860  15.2681650 101.5929240 128.7912530  14.5539880
 101.7268000 128.9063640  16.0575530  96.6674220 140.4072450  12.7015630
  96.7686200 140.2036440  11.7717610  95.7675960 140.1530730  12.9063410
  94.1900110 130.9652810  16.6839530  93.4816260 131.4339150  17.1253140
  94.4744590 130.3074820  17.3184720  95.8156040 132.3849510  24.6832060
  96.3141290 132.8595330  25.3483910  95.9578990 131.4613030  24.8902090
  98.2215540 127.6903470  18.1235320  98.0983320 127.7089600  17.1744830
  99.1700100 127.7382410  18.2433720  95.3092330 142.9258770  17.3963300
  95.5633830 142.8880160  16.4742670  94.3604810 142.7992100  17.3891550
  92.3935130 129.2737890  14.0590240  93.2425660 129.7108040  13.9930430
  92.0266400 129.5858150  14.8862300 103.0222900 128.6017470  25.5260450
 102.5196500 129.3422870  25.8654260 103.8379560 128.9901470  25.2097240
 101.3144910 133.8450650  18.9721810 100.3735050 133.8600880  19.1469500
 101.6288980 133.0586610  19.4182110  91.2926550 135.5270250  12.5325770
  92.0589820 135.4151610  13.0951200  91.3701240 134.8308220  11.8802540
  89.9873310 132.9595320  13.2158660  90.0676900 132.0122830  13.3276060
  90.8793060 133.2902200  13.3219320 103.3170490 141.0159500  20.6476070
 103.4417910 141.8390670  21.1199880 104.1836050 140.8050230  20.3000220
  90.7888020 143.1090710  20.3193200  91.5250500 142.5606170  20.5901770
  91.1728940 143.9746720  20.1799190  87.6733500 139.1764280  16.1934710
  86.7473280 139.4185420  16.1840120  88.1389930 140.0038540  16.0719460
  89.7946300 142.2936780  29.5078780  90.5959030 142.6148830  29.9214180
  89.2798120 141.9332360  30.2298690  93.8990330 142.2821020  12.1418770
  94.6918940 142.5709850  11.6900560  93.3794680 141.8513190  11.4631250
  98.6310930 138.4016650  29.4554190  98.0249090 138.4248250  28.7149940
  98.3265040 137.6699690  29.9921440 100.0611300 142.1296940  28.0663600
 101.0133050 142.0454960  28.0163840  99.9139520 142.7938650  28.7397390
 102.9520500 141.5091150  13.5655510 102.6662010 141.0956290  12.7509690
 102.7540050 142.4378860  13.4456030  87.5144110 134.7810240  28.4514830
  88.0183130 134.2017520  29.0231060  86.7751530 135.0650470  28.9891200
  94.4167730 137.5024430  12.0061120  94.3118370 136.8876780  12.7322500
  94.2491950 136.9790320  11.2224130  94.5682050 136.1881230  27.9850350
  93.8027720 136.7566230  27.9005020  94.7498010 135.8957440  27.0918580
  97.6570460 136.5644460  12.6103110  97.1080560 137.0113760  13.2545850
  98.2789720 136.0593710  13.1340780 101.7105400 137.9186560  28.5425370
 102.4514870 138.2562320  28.0392830 100.9478080 138.0878620  27.9895140
  89.5467190 132.9239830  29.3464900  89.5872530 132.6253700  30.2550130
  90.4012690 133.3247440  29.1872420  93.3245580 135.5235380  14.5068410
  93.7462000 135.3575250  15.3499800  93.4496420 134.7135610  14.0123550
  91.4873000 131.5031930  27.3139390  90.9569460 131.0122880  26.6862730
  92.1561070 131.9316130  26.7797320  95.8373220 134.5472990  11.7545510
  96.3578880 133.8322010  11.3886660  96.4841620 135.1858860  12.0546020
 100.3851060 135.9701390  27.0780580 100.7992080 136.1246470  27.9271000
  99.4502060 136.0956610  27.2406360 100.8573230 133.3097550  29.0819730
 101.4394000 132.5549870  28.9940210 101.0335000 133.8404990  28.3051210
  91.9745300 128.4694300  27.3936680  91.8802170 127.8515050  26.6687550
  91.3942690 129.1960590  27.1666590  94.7406740 127.0267540  24.4264070
  94.2924040 127.0491800  23.5809620  94.1071940 126.6286560  25.0234370
  95.1466290 135.9221870  25.0476510  95.5654400 136.7654600  24.8752750
  94.2274920 136.0593910  24.8183290  97.4830190 133.6538050  26.4314350
  97.6026400 133.0579190  27.1709190  98.3424190 133.6907740  26.0115650
  99.8218090 134.2075240  25.0076860  99.2953310 134.7317860  24.4042000
 100.1649430 134.8402630  25.6386590  92.2204480 131.5968610  11.4526570
  92.0193540 130.7335970  11.8139910  92.0496530 131.5101970  10.5148170
  92.9973710 142.2274880  26.1634240  92.4594800 142.9520940  25.8442940
  93.2507670 141.7505220  25.3731580  94.2498960 130.1959400  27.6890170
  94.8398650 129.8875250  28.3767990  93.4319200 129.7239150  27.8450070
  99.0692390 129.8125210  27.9223190  98.3807910 129.1506750  27.8573180
  99.7898410 129.3663480  28.3671650  99.6992790 126.4076840  13.9813450
  99.9795080 125.5644740  14.3372870  98.9258520 126.6399950  14.4952200
  91.0187280 128.6969230  11.4404450  91.3213180 128.7036660  10.5323600
  91.7581870 128.3467090  11.9372110  95.8535920 143.4626090  26.4220890
  95.7794620 144.3661230  26.7293260  94.9514760 143.1437990  26.3942960
  94.2372210 127.6403850  12.4260650  93.8894210 126.9627840  11.8463100
  94.4384980 127.1793360  13.2404040  96.4021250 142.6284600  14.0447250
  97.2972040 142.9669570  14.0666010  96.4338880 141.9064010  13.4171530
  90.0417410 138.0011650  12.2734250  90.4792280 138.5441320  12.9291830
  90.5265140 137.1758600  12.2830590  87.2563210 140.7900680  19.7254510
  87.5866220 139.9221740  19.4933150  87.6854210 140.9959200  20.5559470
  91.8525130 139.1209690  17.3856480  91.5520670 138.9974660  18.2860390
  91.7462620 138.2618280  16.9772210  87.7453420 141.6571270  22.4636140
  87.3084410 141.8372070  23.2960290  88.3131100 142.4145890  22.3217860
 103.3815600 141.1588270  26.7513450 102.7817590 141.2180830  26.0077370
 103.5109500 140.2193250  26.8810300 104.6217050 138.9006090  12.0883160
 103.7910010 138.9682740  12.5590390 104.7988880 139.7910210  11.7850020
 104.0773510 135.6453570  14.5917360 104.8392420 136.2150220  14.6977050
 104.0927880 135.0780770  15.3625670  87.5777850 134.1691500  18.8225020
  86.9226690 133.9003140  18.1784720  88.4155800 134.0595980  18.3727000
 105.0833480 136.5003670  19.4359290 105.4542310 135.7170990  19.0295260
 105.7235410 137.1892770  19.2576590 102.0667240 137.8840250  24.8489610
 101.2527080 138.3137410  25.1115400 102.4741440 138.4958660  24.2358660
 104.1292680 135.9387940  11.7489880 104.4041520 136.8466820  11.6209100
 103.9403420 135.8750470  12.6851870 100.5268290 128.9632790  13.0443510
 100.9453170 128.7763770  12.2040170 100.2204350 128.1111840  13.3546440
 104.0258020 133.8756930  16.7419310 103.6501620 133.1084860  16.3100600
 103.2961140 134.2579630  17.2294240  88.6153780 134.5544070  23.3628360
  88.9826820 134.4671470  24.2424380  88.0464600 133.7910620  23.2635220
 103.4157640 133.0228450  26.3758830 103.1843730 132.7941200  25.4756780
 103.6762190 133.9428000  26.3303720  88.1669780 131.4653160  27.2686780
  87.2725830 131.4319920  27.6080490  88.7067330 131.6639950  28.0338030
 101.8545710 128.2484880  29.1538530 102.7315890 128.2568280  29.5372530
 101.8666550 127.5115720  28.5430880  86.7915930 131.3790430  14.7650350
  85.8880010 131.6420630  14.5902010  87.2756550 131.6501600  13.9850310
 103.3008980 132.1014420  20.0426550 103.8246460 131.6077070  19.4116720
 103.8868400 132.2364780  20.7874120 103.4798700 132.1854290  23.5646100
 102.5301410 132.1517830  23.6791090 103.6611710 133.0954400  23.3295870
  89.3343140 130.4355970  12.6744730  90.0434840 130.0139190  12.1892010
  88.6183080 130.5031200  12.0428080  88.9817300 126.4895300  11.7147380
  89.7045430 127.0304240  12.0328600  89.2541820 126.2158720  10.8388920
 102.7908950 131.3587770  15.9818960 103.2868070 131.1258640  16.7667840
 102.5925020 130.5199610  15.5656600  88.6709490 125.7401490  21.6170000
  89.3185680 125.1898870  21.1765160  89.0911330 125.9944640  22.4385810
 104.2196110 129.9948720  18.5156640 104.1095390 129.8404760  19.4538910
 104.9803700 129.4669660  18.2732050 102.5661830 125.9342850  24.9739640
 103.2034050 126.5476990  25.3398830 102.7136720 125.9703510  24.0288870
 105.1086380 127.8256640  11.7562780 106.0335690 127.6937820  11.5481070
 105.0862170 127.9049460  12.7099230 105.1824870 128.5967300  14.3819490
 104.3876370 128.5312420  14.9112400 105.3868150 129.5317940  14.3704840
 102.1243290 142.6358850  18.3757880 102.7202360 142.3143420  17.6992300
 102.3821440 142.1630670  19.1671150  88.4241490 125.8957160  24.3595320
  88.0756310 126.3520980  25.1253500  88.0929190 125.0014290  24.4417750
  90.0305860 139.0676760  28.5248510  89.9875490 138.6969670  29.4062970
  90.1616870 140.0054330  28.6650330  93.7311890 140.6236350  24.1258230
  93.4903250 140.8910910  23.2388750  94.6714530 140.7942080  24.1809090
  95.9366310 127.0869040  27.8814740  95.8755200 127.6790870  28.6310150
  96.8766690 126.9795000  27.7365000  98.5740870 126.7439100  27.5207030
  99.1881280 127.0618390  26.8588110  99.1190430 126.2587690  28.1402890
 104.9916050 142.6430730  24.9268870 104.4974330 143.0399600  24.2096000
 104.3829340 142.0179940  25.3206150  89.0962130 125.4233360  27.6346090
  89.6445120 125.2421410  26.8712200  89.1617440 124.6327470  28.1702400
  89.8693890 142.0139010  25.6446290  89.2754210 141.8823710  26.3836330
  89.8617730 141.1777150  25.1788390  99.3148910 125.3071240  23.8476320
  98.4408750 125.6406350  23.6449250  99.2059660 124.8344420  24.6728190
 100.2220890 127.5142110  25.2318040  99.8934250 126.6993870  24.8519770
 101.1703190 127.4711920  25.1083730 102.6755500 143.2854150  22.2055610
 102.2158470 144.0369960  21.8313630 102.0467960 142.5660620  22.1470410
  89.5006120 139.3797390  24.5954330  88.7740180 138.7602680  24.5280280
  89.5615270 139.7738000  23.7252410  93.1051220 141.5942390  21.3803740
  93.6216240 140.9829750  20.8552000  93.7548600 142.0971170  21.8714750
  95.8446720 142.4850880  22.2072720  96.1324530 142.2305180  21.3305730
  96.3569940 141.9328240  22.7978290  97.0623730 126.2241080  22.7869230
  96.2795520 126.6986580  23.0665990  96.7686660 125.3195910  22.6782410
 101.6144800 126.9264180  20.8318320 102.0552890 126.8709280  19.9839920
 101.3452390 127.8422190  20.9028500 103.4783370 126.5579420  18.8427140
 103.4171770 125.6140640  18.6958160 104.2575400 126.6659510  19.3880600
  87.7836120 142.6971780  17.8051090  87.6158160 142.0642460  18.5032980
  86.9170630 142.9031180  17.4545280  88.4064140 126.5288560  15.3082950
  89.1643500 126.6417440  14.7346980  87.9441310 127.3657760  15.2626380
  94.9477950 128.6427830  18.2985260  94.1352460 128.2684720  17.9581140
  95.4519590 127.8872910  18.6006450  99.4502930 125.3070280  19.5368330
 100.0532300 125.8790490  20.0116850  98.7095920 125.8709720  19.3142230
 102.5937530 125.7091840  14.8108610 102.7888160 126.6075290  15.0776040
 101.8067400 125.4778920  15.3041560  89.3898820 141.3905010  15.2501230
  88.8646440 141.7713040  14.5463190  89.3143400 142.0155780  15.9710940
  90.7789290 127.0552610  13.8484920  91.3082050 126.2682410  13.7192870
  91.4117610 127.7343800  14.0820450  92.9727130 126.7927750  16.9030310
  92.3429870 126.0915060  17.0700440  92.4332270 127.5531880  16.6863470
  95.9119080 143.4066980  29.5740920  96.8386390 143.1711250  29.6176880
  95.8969510 144.2338980  29.0926950 104.1464140 142.9492550  16.5715170
 104.3216330 142.2630290  15.9276090 103.4485710 143.4739600  16.1791840
  93.0982690 126.0711730  29.3382800  92.8166960 126.5745330  28.5743620
  93.4802390 125.2733480  28.9724930  91.9891790 143.3387390  14.1250480
  92.7210610 143.0546670  13.5774370  92.2485460 143.1000670  15.0149860
  91.1506580 139.4552120  14.1296810  90.5215460 139.9237220  14.6782640
  91.2654410 138.6101340  14.5643000  99.6998150 125.4865310  29.9163270
  99.5863600 125.8059920  30.8114790 100.5167890 125.8877820  29.6200550
 102.4796640 142.6336840  29.3981960 103.2721960 142.1386070  29.1907920
 102.7729790 143.3126980  30.0057570  96.7374340 135.2836800   2.1607280
  95.9616440 134.8037240   2.4505850  97.3887270 134.6042450   1.9863440
  90.7540170 135.5956610   3.0383040  89.9225050 135.3405320   3.4379550
  91.3621150 135.6667380   3.7740960  90.7341430 139.6296700   3.2341060
  91.0369470 138.7394440   3.0551280  91.4785020 140.1866920   3.0063310
  87.1265130 133.1564150   2.7065130  87.6981240 132.3886350   2.7068770
  87.1266670 133.4552910   1.7971740  96.1783330 137.9593990   2.1677440
  96.1091610 137.0183930   2.0066570  96.9403190 138.0495400   2.7400010
  88.3690000 128.5648510   4.4934060  88.1892840 127.6674260   4.7736820
  87.9670080 129.1120380   5.1681010  88.9876670 131.0609010   3.1016400
  89.6686780 131.3247380   3.7203800  88.6724720 130.2209880   3.4354410
  93.1801240 132.1076370   2.1888990  93.6879460 132.6057340   2.8294010
  93.7114480 131.3311570   2.0128350 105.2812170 130.2781560   5.8918340
 104.5764340 130.6663270   5.3733450 105.5470090 130.9731850   6.4939270
  91.4637340 126.7474930   6.4552410  91.4655780 127.2647320   5.6498310
  90.6341650 126.2705110   6.4322340  92.7140190 136.3870110   4.6325910
  92.3809570 137.0139030   5.2746980  92.8906870 136.9131990   3.8527580
 101.2274100 130.2015190   2.1002250 100.5229670 130.4900080   2.6805360
 101.5886260 131.0115300   1.7401810  91.1452670 128.4584890   4.4622860
  91.4869480 129.3026940   4.1676730  90.2068480 128.6068630   4.5788200
  91.9259290 138.3550910   6.4475090  92.5433290 139.0301990   6.1659540
  91.0652410 138.7638890   6.3562590 102.8436880 139.8190320   4.3629730
 102.1600400 140.4889430   4.3546400 103.3831170 140.0170970   3.5974590
 104.2961020 129.6469980   2.4911460 103.3485930 129.6808960   2.6226890
 104.6211010 130.4608930   2.8760820 100.3795620 141.6634450   3.0774910
 100.3922780 141.2596740   2.2097170  99.8270840 142.4381740   2.9736340
  99.7781060 136.5664290   4.4057520 100.1949850 136.3524400   3.5710980
 100.5020880 136.8237080   4.9766140 103.7243160 134.9651510   4.4973760
 102.8961790 135.0344600   4.0223890 104.3193640 135.5505820   4.0289590
 100.6885170 131.7520830   5.4428630 100.2756350 132.5774540   5.6968620
  99.9561120 131.1665870   5.2504990  93.2899660 138.2248290   2.4686510
  92.9927950 137.6193760   1.7894290  94.2399480 138.2625600   2.3575870
  91.5346580 131.3123940   4.0846340  92.0861170 131.4219280   3.3099590
  92.0490090 131.6861540   4.8001570 101.3785270 141.7980160   6.1309610
 100.9015830 142.6052350   5.9382220 100.6947060 141.1458490   6.2835820
  92.3818090 137.9629980   9.1194310  91.4846620 138.1869950   9.3667710
  92.4070960 138.0864920   8.1705710  91.2089310 134.8343300   7.6951680
  91.0697080 135.7066100   8.0639080  90.3270670 134.4916110   7.5499620
  93.0069660 140.7765000   9.9036830  92.9785090 141.1807950   9.0365260
  92.8434630 139.8475360   9.7408430 104.9584480 141.5592100  11.2001000
 105.4344200 142.0374990  11.8790080 105.5791640 141.4909590  10.4746500
  87.1607960 136.6040850   3.6122590  87.2388380 136.7389620   2.6678310
  87.7749640 135.8956740   3.8050710 104.3617730 138.7504950   8.3601010
 104.4880790 138.5116830   7.4418190 104.4039110 137.9189490   8.8323090
  98.2234470 142.4532950   6.9295820  98.7379140 142.3640960   7.7318250
  97.3803550 142.7992650   7.2223730 104.2141740 130.8037410   9.3250750
 103.5986010 131.3117080   8.7966210 103.8938160 129.9035740   9.2676690
  87.2167480 137.6455020   6.1517050  87.3798520 137.1760380   5.3336420
  87.6819930 137.1378580   6.8165890  96.2756060 129.6429300   6.7912940
  95.8135430 129.8512320   7.6032880  95.8734170 128.8288650   6.4883610
 101.2760570 130.8638250   7.9209600 100.4254160 130.5644000   8.2418670
 101.1162360 131.1080260   7.0093420  98.3710280 132.3640000  10.0208390
  98.6963690 131.5303750   9.6810620  99.1590610 132.8868520  10.1686720
  94.0262150 127.3208110   3.0467220  94.3234480 128.2270940   2.9659240
  94.5747710 126.8326890   2.4326790  94.2199680 132.7979930   9.5819140
  94.1243280 131.8574660   9.4319540  95.0631660 133.0195000   9.1867210
  89.3510220 129.2093600   7.7352920  88.9573610 130.0568810   7.9425700
  88.6628620 128.5719970   7.9261560  95.9255270 129.2928570  10.8049660
  95.2353590 129.1000770  11.4395750  96.6687570 129.5763210  11.3373960
  86.6527270 127.1322060   1.7683000  86.3640320 127.7024920   2.4807980
  87.3973030 126.6526510   2.1314230  98.2018240 133.1327010   3.6403580
  97.4699360 133.6413820   3.9893680  97.8042580 132.3156990   3.3392360
  98.6644150 128.5860690   3.0526520  98.6816890 129.0369340   3.8968370
  98.4159730 127.6866330   3.2659960 102.0914900 125.9992870   8.8912900
 102.4160670 125.2682530   9.4170880 102.1271410 125.6806510   7.9893890
  88.7906460 137.0206450   8.3112860  88.4061250 136.3800120   8.9095820
  89.1018650 137.7242570   8.8807590  94.9403600 133.8682990   3.7921480
  95.3073730 133.3941560   4.5382820  94.7508660 134.7424560   4.1329820
  92.7302970 132.9091630   6.1105690  92.4260040 133.7883610   6.3356050
  93.6849430 132.9691420   6.1463130 102.0172740 136.1117980   2.4998930
 102.7371860 136.6073270   2.1095040 101.8154560 135.4335870   1.8552800
  97.3991540 136.1827040   8.3867930  97.3328850 135.2622710   8.1325520
  96.7696680 136.2802480   9.1012570  88.7866700 133.7494370   7.2577050
  88.4281640 134.4148220   7.8450390  88.4921260 132.9177920   7.6289670
  91.9879820 134.2078610  10.1416600  91.6879960 134.3535790   9.2444420
  92.7591060 133.6483900  10.0489990  97.3308270 139.0047610   8.1371730
  97.3452810 138.0728570   7.9190640  96.6233370 139.0907370   8.7761500
 103.5419480 135.6454950   7.4840310 102.8167670 136.2383730   7.2869700
 104.0694940 135.6378490   6.6853680  96.7642170 140.6465180   5.2312230
  97.4084390 140.8524560   5.9085650  97.1271610 139.8853580   4.7783080
  98.0374250 138.6497530   3.9489680  98.6796480 137.9490690   4.0621850
  98.5623600 139.4295970   3.7686570  99.8111870 139.4492430   7.1525740
 100.1468110 140.0359120   7.8303660  98.8912210 139.3185140   7.3823530
  87.3615270 127.2387610   7.9349150  86.6473790 127.4384530   8.5401760
  87.7810310 126.4627180   8.3063950  87.6487860 141.2267870   8.9215680
  87.7578980 140.2862610   8.7811070  86.9968420 141.4922620   8.2729410
  95.6400450 139.4983760  10.3213800  95.3197320 138.7793000  10.8659490
  94.9658810 140.1738830  10.3949860  98.8554050 129.7309920   5.6850600
  99.2234870 128.9105130   6.0130170  97.9952250 129.7911810   6.1006250
  95.8156040 132.3849510   5.9088570  96.3141290 132.8595330   6.5740420
  95.9578990 131.4613030   6.1158600 103.0222900 128.6017470   6.7516960
 102.5196500 129.3422870   7.0910770 103.8379560 128.9901470   6.4353750
  89.7946300 142.2936780  10.7335290  90.5959030 142.6148830  11.1470690
  89.2798120 141.9332360  11.4555200  98.6310930 138.4016650  10.6810700
  98.0249090 138.4248250   9.9406450  98.3265040 137.6699690  11.2177950
 100.0611300 142.1296940   9.2920110 101.0133050 142.0454960   9.2420350
  99.9139520 142.7938650   9.9653900  87.5144110 134.7810240   9.6771340
  88.0183130 134.2017520  10.2487570  86.7751530 135.0650470  10.2147710
  94.5682050 136.1881230   9.2106860  93.8027720 136.7566230   9.1261530
  94.7498010 135.8957440   8.3175090 101.7105400 137.9186560   9.7681880
 102.4514870 138.2562320   9.2649340 100.9478080 138.0878620   9.2151650
  89.5467190 132.9239830  10.5721410  89.5872530 132.6253700  11.4806640
  90.4012690 133.3247440  10.4128930  91.4873000 131.5031930   8.5395900
  90.9569460 131.0122880   7.9119240  92.1561070 131.9316130   8.0053830
 100.3851060 135.9701390   8.3037090 100.7992080 136.1246470   9.1527510
  99.4502060 136.0956610   8.4662870 100.8573230 133.3097550  10.3076240
 101.4394000 132.5549870  10.2196720 101.0335000 133.8404990   9.5307720
  91.9745300 128.4694300   8.6193190  91.8802170 127.8515050   7.8944060
  91.3942690 129.1960590   8.3923100  94.7406740 127.0267540   5.6520580
  94.2924040 127.0491800   4.8066130  94.1071940 126.6286560   6.2490880
  95.1466290 135.9221870   6.2733020  95.5654400 136.7654600   6.1009260
  94.2274920 136.0593910   6.0439800  97.4830190 133.6538050   7.6570860
  97.6026400 133.0579190   8.3965700  98.3424190 133.6907740   7.2372160
  99.8218090 134.2075240   6.2333370  99.2953310 134.7317860   5.6298510
 100.1649430 134.8402630   6.8643100  92.9973710 142.2274880   7.3890750
  92.4594800 142.9520940   7.0699450  93.2507670 141.7505220   6.5988090
  94.2498960 130.1959400   8.9146680  94.8398650 129.8875250   9.6024500
  93.4319200 129.7239150   9.0706580  99.0692390 129.8125210   9.1479700
  98.3807910 129.1506750   9.0829690  99.7898410 129.3663480   9.5928160
  95.8535920 143.4626090   7.6477400  95.7794620 144.3661230   7.9549770
  94.9514760 143.1437990   7.6199470  87.7453420 141.6571270   3.6892650
  87.3084410 141.8372070   4.5216800  88.3131100 142.4145890   3.5474370
 103.3815600 141.1588270   7.9769960 102.7817590 141.2180830   7.2333880
 103.5109500 140.2193250   8.1066810 102.0667240 137.8840250   6.0746120
 101.2527080 138.3137410   6.3371910 102.4741440 138.4958660   5.4615170
  88.6153780 134.5544070   4.5884870  88.9826820 134.4671470   5.4680890
  88.0464600 133.7910620   4.4891730 103.4157640 133.0228450   7.6015340
 103.1843730 132.7941200   6.7013290 103.6762190 133.9428000   7.5560230
  88.1669780 131.4653160   8.4943290  87.2725830 131.4319920   8.8337000
  88.7067330 131.6639950   9.2594540 101.8545710 128.2484880  10.3795040
 102.7315890 128.2568280  10.7629040 101.8666550 127.5115720   9.7687390
 103.4798700 132.1854290   4.7902610 102.5301410 132.1517830   4.9047600
 103.6611710 133.0954400   4.5552380  88.6709490 125.7401490   2.8426510
  89.3185680 125.1898870   2.4021670  89.0911330 125.9944640   3.6642320
 102.5661830 125.9342850   6.1996150 103.2034050 126.5476990   6.5655340
 102.7136720 125.9703510   5.2545380  88.4241490 125.8957160   5.5851830
  88.0756310 126.3520980   6.3510010  88.0929190 125.0014290   5.6674260
  90.0305860 139.0676760   9.7505020  89.9875490 138.6969670  10.6319480
  90.1616870 140.0054330   9.8906840  93.7311890 140.6236350   5.3514740
  93.4903250 140.8910910   4.4645260  94.6714530 140.7942080   5.4065600
  95.9366310 127.0869040   9.1071250  95.8755200 127.6790870   9.8566660
  96.8766690 126.9795000   8.9621510  98.5740870 126.7439100   8.7463540
  99.1881280 127.0618390   8.0844620  99.1190430 126.2587690   9.3659400
 104.9916050 142.6430730   6.1525380 104.4974330 143.0399600   5.4352510
 104.3829340 142.0179940   6.5462660  89.0962130 125.4233360   8.8602600
  89.6445120 125.2421410   8.0968710  89.1617440 124.6327470   9.3958910
  89.8693890 142.0139010   6.8702800  89.2754210 141.8823710   7.6092840
  89.8617730 141.1777150   6.4044900  99.3148910 125.3071240   5.0732830
  98.4408750 125.6406350   4.8705760  99.2059660 124.8344420   5.8984700
 100.2220890 127.5142110   6.4574550  99.8934250 126.6993870   6.0776280
 101.1703190 127.4711920   6.3340240 102.6755500 143.2854150   3.4312120
 102.2158470 144.0369960   3.0570140 102.0467960 142.5660620   3.3726920
  89.5006120 139.3797390   5.8210840  88.7740180 138.7602680   5.7536790
  89.5615270 139.7738000   4.9508920  93.1051220 141.5942390   2.6060250
  93.6216240 140.9829750   2.0808510  93.7548600 142.0971170   3.0971260
  95.8446720 142.4850880   3.4329230  96.1324530 142.2305180   2.5562240
  96.3569940 141.9328240   4.0234800  97.0623730 126.2241080   4.0125740
  96.2795520 126.6986580   4.2922500  96.7686660 125.3195910   3.9038920
  95.9119080 143.4066980  10.7997430  96.8386390 143.1711250  10.8433390
  95.8969510 144.2338980  10.3183460  93.0982690 126.0711730  10.5639310
  92.8166960 126.5745330   9.8000130  93.4802390 125.2733480  10.1981440
  99.6998150 125.4865310  11.1419780  99.5863600 125.8059920  12.0371300
 100.5167890 125.8877820  10.8457060 102.4796640 142.6336840  10.6238470
 103.2721960 142.1386070  10.4164430 102.7729790 143.3126980  11.2314080
  98.6056300 114.7314290 150.4745930  98.5250350 113.8168900 150.2037640
  98.1920720 115.2281360 149.7685640 100.7581770 120.9153500 151.1354330
 100.2963300 120.1440740 151.4641500 101.5707320 120.9419570 151.6406780
  89.1632120 111.7815010 147.0173350  88.2748820 112.1230980 146.9153230
  89.4473310 111.5815330 146.1254180  96.9845080 123.2011510 150.7558320
  96.3656520 123.6569010 150.1852760  97.8396860 123.3562970 150.3548020
  91.3393510 110.3646510 148.0511730  91.4460260 111.2650240 148.3580490
  90.4285870 110.3164480 147.7606380 100.9912620 109.4871320 149.5222630
 101.8122240 108.9967890 149.5648110 101.0246700 110.0768980 150.2754470
  97.8508430 118.0850750 148.1490230  97.2325700 118.5500200 147.5852950
  98.3631680 118.7778230 148.5659740  87.2191630 118.7707280 145.5229860
  86.8419610 119.2594380 144.7914760  87.4764700 119.4432560 146.1536390
  94.8280560 107.1723670 150.9815370  95.1355540 106.6170560 150.2650870
  93.8981260 107.3068130 150.7988360 101.6741040 119.6107180 148.3613000
 101.5637370 118.6681510 148.4862420 101.6709290 119.9722820 149.2475760
  97.2161320 115.2372500 147.7175490  96.2890600 115.1709880 147.9463960
  97.3686140 116.1752630 147.6030730  97.2030400 111.5089500 144.7142650
  96.2634070 111.6703460 144.7995110  97.5213660 112.2275180 144.1678640
 101.2458610 116.7992800 148.2210740 100.6271030 116.4612350 147.5737040
 101.2283060 116.1552560 148.9289930  92.8217960 115.7637240 150.4995220
  92.4174960 115.0514490 150.0041120  92.9081080 115.4190480 151.3883260
  99.4223310 116.0379610 145.2283490  99.8616590 115.2002040 145.0821310
 100.1351730 116.6709010 145.3147630  97.5318690 120.9775680 149.1964730
  97.9714600 121.7200010 148.7820120  97.4705580 121.2202250 150.1203690
 103.0040450 107.2922420 143.5424530 102.6913110 107.3849250 144.4423600
 103.7652920 107.8703450 143.4921960  89.5222590 114.6582220 148.0001870
  89.4020190 115.3844310 147.3883140  89.2123480 113.8885130 147.5229780
  88.4055590 119.5297550 150.2176690  87.9983670 119.6712140 149.3630290
  89.2968600 119.2457710 150.0147900 100.1988870 123.9644800 146.5527740
 100.0390010 123.6747740 147.4509570 100.0335580 123.1884930 146.0172970
  92.6777250 123.7443330 148.3299360  92.5019730 122.8278870 148.1167160
  91.8232990 124.1030620 148.5697160  99.9015000 121.4732360 145.1125740
  99.2080160 121.4709650 144.4528020 100.6437860 121.0491680 144.6819910
  99.4664930 123.0995070 149.1874230  99.9221880 122.3184450 149.5012850
  99.8057450 123.8101890 149.7315410  91.9886250 108.0017290 151.3825540
  91.5454400 108.7826830 151.0510060  92.5471240 108.3247180 152.0896480
  95.1045070 107.6227990 146.2631370  94.4799250 107.6187860 146.9884680
  95.0175190 106.7558950 145.8667340  91.7800470 113.1250860 149.1106790
  91.5541390 112.9088030 150.0153410  90.9993000 113.5579320 148.7652760
  99.0098230 113.1314230 147.7097440  98.4107120 113.8550030 147.5261060
  99.5577840 113.0691010 146.9273890  97.6163100 111.7677770 149.7400720
  98.0092670 112.0849970 148.9269410  97.9779950 110.8889650 149.8545240
  86.8397500 112.2998690 143.1733640  86.7572170 113.2429450 143.3148630
  86.4880560 112.1573600 142.2945990  94.6395630 111.0337720 152.2403990
  94.6431690 110.5927670 151.3908530  95.5346750 111.3555050 152.3475810
  90.4898010 110.9164210 151.1998200  90.1498060 111.3939440 151.9565250
  89.7275330 110.4629330 150.8399300  94.7015780 112.0349800 145.2310750
  94.8228600 111.9936280 146.1796570  94.3164290 112.8973950 145.0757480
  93.7137280 114.3450940 144.6294050  93.1454180 113.8969190 144.0029960
  94.4226280 114.7043720 144.0959200  87.8044090 109.8383190 150.1162870
  87.5191010 109.4738860 150.9541490  87.7422950 109.1063650 149.5026010
  91.2584760 118.3409130 146.9020460  90.4847020 117.8006750 146.7419180
  91.9879390 117.8215740 146.5638220  97.4782680 108.7312450 146.8376240
  96.6647290 108.2325620 146.7621550  97.2844630 109.5710700 146.4212590
 100.1931070 113.1032100 145.1338400 101.0810690 113.4149330 144.9589740
 100.1636160 112.2304350 144.7418980  91.3022160 118.0089510 150.5399270
  91.8200830 117.2057770 150.4856160  90.8506180 117.9468650 151.3816100
  96.1891660 119.2755790 145.8126570  96.5307360 120.0198020 145.3169890
  95.3604370 119.5886910 146.1751400 102.4645340 114.4143940 144.6018260
 102.3809060 114.8458160 143.7514700 103.1839530 114.8742290 145.0345080
 103.4932590 121.2686200 147.3300390 102.8508750 120.6141820 147.6044110
 103.1063250 121.6741290 146.5541060  99.0719070 118.5971630 151.1772080
  99.4242890 117.9999760 150.5173450  98.1881400 118.2715860 151.3480330
  95.1582350 119.3569320 148.5842490  95.8453480 119.9038530 148.9650080
  94.3714770 119.9010050 148.6192100  87.2974750 114.9742140 144.0759570
  88.1669600 115.2566940 144.3595490  86.8065070 115.7878010 143.9608380
  94.4609560 116.3615350 148.1967850  94.9172340 117.1720600 148.4228040
  94.1097770 116.0438490 149.0286340  90.3621340 106.7053000 148.6690370
  90.2335970 106.6970900 149.6175290  89.5383360 107.0436090 148.3181380
 101.8829970 120.1602660 143.8676740 101.6567550 119.4433100 144.4601380
 101.4926170 119.9115100 143.0298490  87.6646000 124.1869520 144.6421200
  88.0243640 124.7858860 143.9878470  87.5238340 124.7329410 145.4156230
 101.4646220 118.0774600 145.5290900 101.1767920 118.5387290 146.3168780
 102.2598390 117.6172370 145.7975120  93.6814620 121.5700720 145.4594870
  93.6724720 122.3030410 144.8439380  92.7612980 121.3232300 145.5521830
  89.2821260 116.7915610 146.2041630  88.6749210 117.5314510 146.2136930
  89.7570610 116.8814970 145.3779830 102.2216080 109.9123370 146.6886080
 101.5929240 110.0169040 145.9744310 101.7268000 110.1320150 147.4779960
  96.6674220 121.6328960 144.1220060  96.7686200 121.4292950 143.1922040
  95.7675960 121.3787240 144.3267840  94.1900110 112.1909320 148.1043960
  93.4816260 112.6595660 148.5457570  94.4744590 111.5331330 148.7389150
  98.2215540 108.9159980 149.5439750  98.0983320 108.9346110 148.5949260
  99.1700100 108.9638920 149.6638150  95.3092330 124.1515280 148.8167730
  95.5633830 124.1136670 147.8947100  94.3604810 124.0248610 148.8095980
  92.3935130 110.4994400 145.4794670  93.2425660 110.9364550 145.4134860
  92.0266400 110.8114660 146.3066730 101.3144910 115.0707160 150.3926240
 100.3735050 115.0857390 150.5673930 101.6288980 114.2843120 150.8386540
  91.2926550 116.7526760 143.9530200  92.0589820 116.6408120 144.5155630
  91.3701240 116.0564730 143.3006970  89.9873310 114.1851830 144.6363090
  90.0676900 113.2379340 144.7480490  90.8793060 114.5158710 144.7423750
  90.7888020 124.3347220 151.7397630  91.5250500 123.7862680 152.0106200
  91.1728940 125.2003230 151.6003620  87.6733500 120.4020790 147.6139140
  86.7473280 120.6441930 147.6044550  88.1389930 121.2295050 147.4923890
  93.8990330 123.5077530 143.5623200  94.6918940 123.7966360 143.1104990
  93.3794680 123.0769700 142.8835680 102.9520500 122.7347660 144.9859940
 102.6662010 122.3212800 144.1714120 102.7540050 123.6635370 144.8660460
  94.4167730 118.7280940 143.4265550  94.3118370 118.1133290 144.1526930
  94.2491950 118.2046830 142.6428560  97.6570460 117.7900970 144.0307540
  97.1080560 118.2370270 144.6750280  98.2789720 117.2850220 144.5545210
  93.3245580 116.7491890 145.9272840  93.7462000 116.5831760 146.7704230
  93.4496420 115.9392120 145.4327980  95.8373220 115.7729500 143.1749940
  96.3578880 115.0578520 142.8091090  96.4841620 116.4115370 143.4750450
  92.2204480 112.8225120 142.8731000  92.0193540 111.9592480 143.2344340
  92.0496530 112.7358480 141.9352600  99.6992790 107.6333350 145.4017880
  99.9795080 106.7901250 145.7577300  98.9258520 107.8656460 145.9156630
  91.0187280 109.9225740 142.8608880  91.3213180 109.9293170 141.9528030
  91.7581870 109.5723600 143.3576540  94.2372210 108.8660360 143.8465080
  93.8894210 108.1884350 143.2667530  94.4384980 108.4049870 144.6608470
  96.4021250 123.8541110 145.4651680  97.2972040 124.1926080 145.4870440
  96.4338880 123.1320520 144.8375960  90.0417410 119.2268160 143.6938680
  90.4792280 119.7697830 144.3496260  90.5265140 118.4015110 143.7035020
  87.2563210 122.0157190 151.1458940  87.5866220 121.1478250 150.9137580
  87.6854210 122.2215710 151.9763900  91.8525130 120.3466200 148.8060910
  91.5520670 120.2231170 149.7064820  91.7462620 119.4874790 148.3976640
 104.6217050 120.1262600 143.5087590 103.7910010 120.1939250 143.9794820
 104.7988880 121.0166720 143.2054450 104.0773510 116.8710080 146.0121790
 104.8392420 117.4406730 146.1181480 104.0927880 116.3037280 146.7830100
  87.5777850 115.3948010 150.2429450  86.9226690 115.1259650 149.5989150
  88.4155800 115.2852490 149.7931430 105.0833480 117.7260180 150.8563720
 105.4542310 116.9427500 150.4499690 105.7235410 118.4149280 150.6781020
 104.1292680 117.1644450 143.1694310 104.4041520 118.0723330 143.0413530
 103.9403420 117.1006980 144.1056300 100.5268290 110.1889300 144.4647940
 100.9453170 110.0020280 143.6244600 100.2204350 109.3368350 144.7750870
 104.0258020 115.1013440 148.1623740 103.6501620 114.3341370 147.7305030
 103.2961140 115.4836140 148.6498670  86.7915930 112.6046940 146.1854780
  85.8880010 112.8677140 146.0106440  87.2756550 112.8758110 145.4054740
 103.3008980 113.3270930 151.4630980 103.8246460 112.8333580 150.8321150
 103.8868400 113.4621290 152.2078550  89.3343140 111.6612480 144.0949160
  90.0434840 111.2395700 143.6096440  88.6183080 111.7287710 143.4632510
  88.9817300 107.7151810 143.1351810  89.7045430 108.2560750 143.4533030
  89.2541820 107.4415230 142.2593350 102.7908950 112.5844280 147.4023390
 103.2868070 112.3515150 148.1872270 102.5925020 111.7456120 146.9861030
 104.2196110 111.2205230 149.9361070 104.1095390 111.0661270 150.8743340
 104.9803700 110.6926170 149.6936480 105.1086380 109.0513150 143.1767210
 106.0335690 108.9194330 142.9685500 105.0862170 109.1305970 144.1303660
 105.1824870 109.8223810 145.8023920 104.3876370 109.7568930 146.3316830
 105.3868150 110.7574450 145.7909270 102.1243290 123.8615360 149.7962310
 102.7202360 123.5399930 149.1196730 102.3821440 123.3887180 150.5875580
 101.6144800 108.1520690 152.2522750 102.0552890 108.0965790 151.4044350
 101.3452390 109.0678700 152.3232930 103.4783370 107.7835930 150.2631570
 103.4171770 106.8397150 150.1162590 104.2575400 107.8916020 150.8085030
  87.7836120 123.9228290 149.2255520  87.6158160 123.2898970 149.9237410
  86.9170630 124.1287690 148.8749710  88.4064140 107.7545070 146.7287380
  89.1643500 107.8673950 146.1551410  87.9441310 108.5914270 146.6830810
  94.9477950 109.8684340 149.7189690  94.1352460 109.4941230 149.3785570
  95.4519590 109.1129420 150.0210880  99.4502930 106.5326790 150.9572760
 100.0532300 107.1047000 151.4321280  98.7095920 107.0966230 150.7346660
 102.5937530 106.9348350 146.2313040 102.7888160 107.8331800 146.4980470
 101.8067400 106.7035430 146.7245990  89.3898820 122.6161520 146.6705660
  88.8646440 122.9969550 145.9667620  89.3143400 123.2412290 147.3915370
  90.7789290 108.2809120 145.2689350  91.3082050 107.4938920 145.1397300
  91.4117610 108.9600310 145.5024880  92.9727130 108.0184260 148.3234740
  92.3429870 107.3171570 148.4904870  92.4332270 108.7788390 148.1067900
 104.1464140 124.1749060 147.9919600 104.3216330 123.4886800 147.3480520
 103.4485710 124.6996110 147.5996270  91.9891790 124.5643900 145.5454910
  92.7210610 124.2803180 144.9978800  92.2485460 124.3257180 146.4354290
  91.1506580 120.6808630 145.5501240  90.5215460 121.1493730 146.0987070
  91.2654410 119.8357850 145.9847430  98.6056300 114.7314290 131.7002440
  98.5250350 113.8168900 131.4294150  98.1920720 115.2281360 130.9942150
  96.7374340 116.5093310 133.5811710  95.9616440 116.0293750 133.8710280
  97.3887270 115.8298960 133.4067870  90.7540170 116.8213120 134.4587470
  89.9225050 116.5661830 134.8583980  91.3621150 116.8923890 135.1945390
 100.7581770 120.9153500 132.3610840 100.2963300 120.1440740 132.6898010
 101.5707320 120.9419570 132.8663290  90.7341430 120.8553210 134.6545490
  91.0369470 119.9650950 134.4755710  91.4785020 121.4123430 134.4267740
  87.1265130 114.3820660 134.1269560  87.6981240 113.6142860 134.1273200
  87.1266670 114.6809420 133.2176170  96.9845080 123.2011510 131.9814830
  96.3656520 123.6569010 131.4109270  97.8396860 123.3562970 131.5804530
  96.1783330 119.1850500 133.5881870  96.1091610 118.2440440 133.4271000
  96.9403190 119.2751910 134.1604440  88.3690000 109.7905020 135.9138490
  88.1892840 108.8930770 136.1941250  87.9670080 110.3376890 136.5885440
  97.2088500 111.9920880 133.8150800  97.5853320 111.1192760 133.7024470
  97.1108010 112.3279580 132.9241240 100.9912620 109.4871320 130.7479140
 101.8122240 108.9967890 130.7904620 101.0246700 110.0768980 131.5010980
  88.9876670 112.2865520 134.5220830  89.6686780 112.5503890 135.1408230
  88.6724720 111.4466390 134.8558840  93.1801240 113.3332880 133.6093420
  93.6879460 113.8313850 134.2498440  93.7114480 112.5568080 133.4332780
 105.2812170 111.5038070 137.3122770 104.5764340 111.8919780 136.7937880
 105.5470090 112.1988360 137.9143700  91.4637340 107.9731440 137.8756840
  91.4655780 108.4903830 137.0702740  90.6341650 107.4961620 137.8526770
  97.8508430 118.0850750 129.3746740  97.2325700 118.5500200 128.8109460
  98.3631680 118.7778230 129.7916250  92.7140190 117.6126620 136.0530340
  92.3809570 118.2395540 136.6951410  92.8906870 118.1388500 135.2732010
 101.2274100 111.4271700 133.5206680 100.5229670 111.7156590 134.1009790
 101.5886260 112.2371810 133.1606240  91.1452670 109.6841400 135.8827290
  91.4869480 110.5283450 135.5881160  90.2068480 109.8325140 135.9992630
  91.9259290 119.5807420 137.8679520  92.5433290 120.2558500 137.5863970
  91.0652410 119.9895400 137.7767020  87.2191630 118.7707280 126.7486370
  86.8419610 119.2594380 126.0171270  87.4764700 119.4432560 127.3792900
 102.8436880 121.0446830 135.7834160 102.1600400 121.7145940 135.7750830
 103.3831170 121.2427480 135.0179020 104.2961020 110.8726490 133.9115890
 103.3485930 110.9065470 134.0431320 104.6211010 111.6865440 134.2965250
  94.8280560 107.1723670 132.2071880  95.1355540 106.6170560 131.4907380
  93.8981260 107.3068130 132.0244870 100.3795620 122.8890960 134.4979340
 100.3922780 122.4853250 133.6301600  99.8270840 123.6638250 134.3940770
 101.6741040 119.6107180 129.5869510 101.5637370 118.6681510 129.7118930
 101.6709290 119.9722820 130.4732270  99.7781060 117.7920800 135.8261950
 100.1949850 117.5780910 134.9915410 100.5020880 118.0493590 136.3970570
 103.7243160 116.1908020 135.9178190 102.8961790 116.2601110 135.4428320
 104.3193640 116.7762330 135.4494020 101.2458610 116.7992800 129.4467250
 100.6271030 116.4612350 128.7993550 101.2283060 116.1552560 130.1546440
 100.6885170 112.9777340 136.8633060 100.2756350 113.8031050 137.1173050
  99.9561120 112.3922380 136.6709420  92.8217960 115.7637240 131.7251730
  92.4174960 115.0514490 131.2297630  92.9081080 115.4190480 132.6139770
  93.2899660 119.4504800 133.8890940  92.9927950 118.8450270 133.2098720
  94.2399480 119.4882110 133.7780300  91.5346580 112.5380450 135.5050770
  92.0861170 112.6475790 134.7304020  92.0490090 112.9118050 136.2206000
 101.3785270 123.0236670 137.5514040 100.9015830 123.8308860 137.3586650
 100.6947060 122.3715000 137.7040250  92.3818090 119.1886490 140.5398740
  91.4846620 119.4126460 140.7872140  92.4070960 119.3121430 139.5910140
  91.2089310 116.0599810 139.1156110  91.0697080 116.9322610 139.4843510
  90.3270670 115.7172620 138.9704050  97.5318690 120.9775680 130.4221240
  97.9714600 121.7200010 130.0076630  97.4705580 121.2202250 131.3460200
  93.0069660 122.0021510 141.3241260  92.9785090 122.4064460 140.4569690
  92.8434630 121.0731870 141.1612860 103.0040450 107.2922420 124.7681040
 102.6913110 107.3849250 125.6680110 103.7652920 107.8703450 124.7178470
 104.9584480 122.7848610 142.6205430 105.4344200 123.2631500 143.2994510
 105.5791640 122.7166100 141.8950930  87.1607960 117.8297360 135.0327020
  87.2388380 117.9646130 134.0882740  87.7749640 117.1213250 135.2255140
  88.4055590 119.5297550 131.4433200  87.9983670 119.6712140 130.5886800
  89.2968600 119.2457710 131.2404410 104.3617730 119.9761460 139.7805440
 104.4880790 119.7373340 138.8622620 104.4039110 119.1446000 140.2527520
  98.2234470 123.6789460 138.3500250  98.7379140 123.5897470 139.1522680
  97.3803550 124.0249160 138.6428160 100.1988870 123.9644800 127.7784250
 100.0390010 123.6747740 128.6766080 100.0335580 123.1884930 127.2429480
  92.6777250 123.7443330 129.5555870  92.5019730 122.8278870 129.3423670
  91.8232990 124.1030620 129.7953670  99.9015000 121.4732360 126.3382250
  99.2080160 121.4709650 125.6784530 100.6437860 121.0491680 125.9076420
  99.4664930 123.0995070 130.4130740  99.9221880 122.3184450 130.7269360
  99.8057450 123.8101890 130.9571920 104.2141740 112.0293920 140.7455180
 103.5986010 112.5373590 140.2170640 103.8938160 111.1292250 140.6881120
  87.2167480 118.8711530 137.5721480  87.3798520 118.4016890 136.7540850
  87.6819930 118.3635090 138.2370320  91.9886250 108.0017290 132.6082050
  91.5454400 108.7826830 132.2766570  92.5471240 108.3247180 133.3152990
  96.2756060 110.8685810 138.2117370  95.8135430 111.0768830 139.0237310
  95.8734170 110.0545160 137.9088040 101.2760570 112.0894760 139.3414030
 100.4254160 111.7900510 139.6623100 101.1162360 112.3336770 138.4297850
  98.3710280 113.5896510 141.4412820  98.6963690 112.7560260 141.1015050
  99.1590610 114.1125030 141.5891150  95.1045070 107.6227990 127.4887880
  94.4799250 107.6187860 128.2141190  95.0175190 106.7558950 127.0923850
  94.0262150 108.5464620 134.4671650  94.3234480 109.4527450 134.3863670
  94.5747710 108.0583400 133.8531220  94.2199680 114.0236440 141.0023570
  94.1243280 113.0831170 140.8523970  95.0631660 114.2451510 140.6071640
  89.3510220 110.4350110 139.1557350  88.9573610 111.2825320 139.3630130
  88.6628620 109.7976480 139.3465990  95.9255270 110.5185080 142.2254090
  95.2353590 110.3257280 142.8600180  96.6687570 110.8019720 142.7578390
  86.6527270 108.3578570 133.1887430  86.3640320 108.9281430 133.9012410
  87.3973030 107.8783020 133.5518660  98.2018240 114.3583520 135.0608010
  97.4699360 114.8670330 135.4098110  97.8042580 113.5413500 134.7596790
  94.6395630 111.0337720 133.4660500  94.6431690 110.5927670 132.6165040
  95.5346750 111.3555050 133.5732320  90.4898010 110.9164210 132.4254710
  90.1498060 111.3939440 133.1821760  89.7275330 110.4629330 132.0655810
  98.6644150 109.8117200 134.4730950  98.6816890 110.2625850 135.3172800
  98.4159730 108.9122840 134.6864390 102.0914900 107.2249380 140.3117330
 102.4160670 106.4939040 140.8375310 102.1271410 106.9063020 139.4098320
  88.7906460 118.2462960 139.7317290  88.4061250 117.6056630 140.3300250
  89.1018650 118.9499080 140.3012020  94.9403600 115.0939500 135.2125910
  95.3073730 114.6198070 135.9587250  94.7508660 115.9681070 135.5534250
  87.8044090 109.8383190 131.3419380  87.5191010 109.4738860 132.1798000
  87.7422950 109.1063650 130.7282520  92.7302970 114.1348140 137.5310120
  92.4260040 115.0140120 137.7560480  93.6849430 114.1947930 137.5667560
  91.2584760 118.3409130 128.1276970  90.4847020 117.8006750 127.9675690
  91.9879390 117.8215740 127.7894730 102.0172740 117.3374490 133.9203360
 102.7371860 117.8329780 133.5299470 101.8154560 116.6592380 133.2757230
  97.4782680 108.7312450 128.0632750  96.6647290 108.2325620 127.9878060
  97.2844630 109.5710700 127.6469100  97.3991540 117.4083550 139.8072360
  97.3328850 116.4879220 139.5529950  96.7696680 117.5058990 140.5217000
  91.3022160 118.0089510 131.7655780  91.8200830 117.2057770 131.7112670
  90.8506180 117.9468650 132.6072610  96.1891660 119.2755790 127.0383080
  96.5307360 120.0198020 126.5426400  95.3604370 119.5886910 127.4007910
  88.7866700 114.9750880 138.6781480  88.4281640 115.6404730 139.2654820
  88.4921260 114.1434430 139.0494100  91.9879820 115.4335120 141.5621030
  91.6879960 115.5792300 140.6648850  92.7591060 114.8740410 141.4694420
  97.3308270 120.2304120 139.5576160  97.3452810 119.2985080 139.3395070
  96.6233370 120.3163880 140.1965930 103.5419480 116.8711460 138.9044740
 102.8167670 117.4640240 138.7074130 104.0694940 116.8635000 138.1058110
 103.4932590 121.2686200 128.5556900 102.8508750 120.6141820 128.8300620
 103.1063250 121.6741290 127.7797570  99.0719070 118.5971630 132.4028590
  99.4242890 117.9999760 131.7429960  98.1881400 118.2715860 132.5736840
  95.1582350 119.3569320 129.8099000  95.8453480 119.9038530 130.1906590
  94.3714770 119.9010050 129.8448610  96.7642170 121.8721690 136.6516660
  97.4084390 122.0781070 137.3290080  97.1271610 121.1110090 136.1987510
  90.3621340 106.7053000 129.8946880  90.2335970 106.6970900 130.8431800
  89.5383360 107.0436090 129.5437890  98.0374250 119.8754040 135.3694110
  98.6796480 119.1747200 135.4826280  98.5623600 120.6552480 135.1891000
 101.8829970 120.1602660 125.0933250 101.6567550 119.4433100 125.6857890
 101.4926170 119.9115100 124.2555000  99.8111870 120.6748940 138.5730170
 100.1468110 121.2615630 139.2508090  98.8912210 120.5441650 138.8027960
  87.6646000 124.1869520 125.8677710  88.0243640 124.7858860 125.2134980
  87.5238340 124.7329410 126.6412740  87.3615270 108.4644120 139.3553580
  86.6473790 108.6641040 139.9606190  87.7810310 107.6883690 139.7268380
 101.4646220 118.0774600 126.7547410 101.1767920 118.5387290 127.5425290
 102.2598390 117.6172370 127.0231630  87.6487860 122.4524380 140.3420110
  87.7578980 121.5119120 140.2015500  86.9968420 122.7179130 139.6933840
  95.6400450 120.7240270 141.7418230  95.3197320 120.0049510 142.2863920
  94.9658810 121.3995340 141.8154290  93.6814620 121.5700720 126.6851380
  93.6724720 122.3030410 126.0695890  92.7612980 121.3232300 126.7778340
  98.8554050 110.9566430 137.1055030  99.2234870 110.1361640 137.4334600
  97.9952250 111.0168320 137.5210680  96.6674220 121.6328960 125.3476570
  96.7686200 121.4292950 124.4178550  95.7675960 121.3787240 125.5524350
  95.8156040 113.6106020 137.3293000  96.3141290 114.0851840 137.9944850
  95.9578990 112.6869540 137.5363030  98.2215540 108.9159980 130.7696260
  98.0983320 108.9346110 129.8205770  99.1700100 108.9638920 130.8894660
  95.3092330 124.1515280 130.0424240  95.5633830 124.1136670 129.1203610
  94.3604810 124.0248610 130.0352490 103.0222900 109.8273980 138.1721390
 102.5196500 110.5679380 138.5115200 103.8379560 110.2157980 137.8558180
 101.3144910 115.0707160 131.6182750 100.3735050 115.0857390 131.7930440
 101.6288980 114.2843120 132.0643050 103.3170490 122.2416010 133.2937010
 103.4417910 123.0647180 133.7660820 104.1836050 122.0306740 132.9461160
  90.7888020 124.3347220 132.9654140  91.5250500 123.7862680 133.2362710
  91.1728940 125.2003230 132.8260130  87.6733500 120.4020790 128.8395650
  86.7473280 120.6441930 128.8301060  88.1389930 121.2295050 128.7180400
  89.7946300 123.5193290 142.1539720  90.5959030 123.8405340 142.5675120
  89.2798120 123.1588870 142.8759630  93.8990330 123.5077530 124.7879710
  94.6918940 123.7966360 124.3361500  93.3794680 123.0769700 124.1092190
  98.6310930 119.6273160 142.1015130  98.0249090 119.6504760 141.3610880
  98.3265040 118.8956200 142.6382380 100.0611300 123.3553450 140.7124540
 101.0133050 123.2711470 140.6624780  99.9139520 124.0195160 141.3858330
 102.9520500 122.7347660 126.2116450 102.6662010 122.3212800 125.3970630
 102.7540050 123.6635370 126.0916970  87.5144110 116.0066750 141.0975770
  88.0183130 115.4274030 141.6692000  86.7751530 116.2906980 141.6352140
  94.5682050 117.4137740 140.6311290  93.8027720 117.9822740 140.5465960
  94.7498010 117.1213950 139.7379520  97.6570460 117.7900970 125.2564050
  97.1080560 118.2370270 125.9006790  98.2789720 117.2850220 125.7801720
 101.7105400 119.1443070 141.1886310 102.4514870 119.4818830 140.6853770
 100.9478080 119.3135130 140.6356080  89.5467190 114.1496340 141.9925840
  89.5872530 113.8510210 142.9011070  90.4012690 114.5503950 141.8333360
  91.4873000 112.7288440 139.9600330  90.9569460 112.2379390 139.3323670
  92.1561070 113.1572640 139.4258260 100.3851060 117.1957900 139.7241520
 100.7992080 117.3502980 140.5731940  99.4502060 117.3213120 139.8867300
 100.8573230 114.5354060 141.7280670 101.4394000 113.7806380 141.6401150
 101.0335000 115.0661500 140.9512150  91.9745300 109.6950810 140.0397620
  91.8802170 109.0771560 139.3148490  91.3942690 110.4217100 139.8127530
  94.7406740 108.2524050 137.0725010  94.2924040 108.2748310 136.2270560
  94.1071940 107.8543070 137.6695310  95.1466290 117.1478380 137.6937450
  95.5654400 117.9911110 137.5213690  94.2274920 117.2850420 137.4644230
  97.4830190 114.8794560 139.0775290  97.6026400 114.2835700 139.8170130
  98.3424190 114.9164250 138.6576590  99.8218090 115.4331750 137.6537800
  99.2953310 115.9574370 137.0502940 100.1649430 116.0659140 138.2847530
  92.9973710 123.4531390 138.8095180  92.4594800 124.1777450 138.4903880
  93.2507670 122.9761730 138.0192520  94.2498960 111.4215910 140.3351110
  94.8398650 111.1131760 141.0228930  93.4319200 110.9495660 140.4911010
  99.0692390 111.0381720 140.5684130  98.3807910 110.3763260 140.5034120
  99.7898410 110.5919990 141.0132590  91.0187280 109.9225740 124.0865390
  91.3213180 109.9293170 123.1784540  91.7581870 109.5723600 124.5833050
  95.8535920 124.6882600 139.0681830  95.7794620 125.5917740 139.3754200
  94.9514760 124.3694500 139.0403900  96.4021250 123.8541110 126.6908190
  97.2972040 124.1926080 126.7126950  96.4338880 123.1320520 126.0632470
  87.2563210 122.0157190 132.3715450  87.5866220 121.1478250 132.1394090
  87.6854210 122.2215710 133.2020410  91.8525130 120.3466200 130.0317420
  91.5520670 120.2231170 130.9321330  91.7462620 119.4874790 129.6233150
  87.7453420 122.8827780 135.1097080  87.3084410 123.0628580 135.9421230
  88.3131100 123.6402400 134.9678800 103.3815600 122.3844780 139.3974390
 102.7817590 122.4437340 138.6538310 103.5109500 121.4449760 139.5271240
 104.6217050 120.1262600 124.7344100 103.7910010 120.1939250 125.2051330
 104.7988880 121.0166720 124.4310960 104.0773510 116.8710080 127.2378300
 104.8392420 117.4406730 127.3437990 104.0927880 116.3037280 128.0086610
 105.0833480 117.7260180 132.0820230 105.4542310 116.9427500 131.6756200
 105.7235410 118.4149280 131.9037530 102.0667240 119.1096760 137.4950550
 101.2527080 119.5393920 137.7576340 102.4741440 119.7215170 136.8819600
 104.1292680 117.1644450 124.3950820 104.4041520 118.0723330 124.2670040
 103.9403420 117.1006980 125.3312810 104.0258020 115.1013440 129.3880250
 103.6501620 114.3341370 128.9561540 103.2961140 115.4836140 129.8755180
  88.6153780 115.7800580 136.0089300  88.9826820 115.6927980 136.8885320
  88.0464600 115.0167130 135.9096160 103.4157640 114.2484960 139.0219770
 103.1843730 114.0197710 138.1217720 103.6762190 115.1684510 138.9764660
  88.1669780 112.6909670 139.9147720  87.2725830 112.6576430 140.2541430
  88.7067330 112.8896460 140.6798970 101.8545710 109.4741390 141.7999470
 102.7315890 109.4824790 142.1833470 101.8666550 108.7372230 141.1891820
 103.3008980 113.3270930 132.6887490 103.8246460 112.8333580 132.0577660
 103.8868400 113.4621290 133.4335060 103.4798700 113.4110800 136.2107040
 102.5301410 113.3774340 136.3252030 103.6611710 114.3210910 135.9756810
  88.9817300 107.7151810 124.3608320  89.7045430 108.2560750 124.6789540
  89.2541820 107.4415230 123.4849860 102.7908950 112.5844280 128.6279900
 103.2868070 112.3515150 129.4128780 102.5925020 111.7456120 128.2117540
  88.6709490 106.9658000 134.2630940  89.3185680 106.4155380 133.8226100
  89.0911330 107.2201150 135.0846750 104.2196110 111.2205230 131.1617580
 104.1095390 111.0661270 132.0999850 104.9803700 110.6926170 130.9192990
 102.5661830 107.1599360 137.6200580 103.2034050 107.7733500 137.9859770
 102.7136720 107.1960020 136.6749810 105.1086380 109.0513150 124.4023720
 106.0335690 108.9194330 124.1942010 105.0862170 109.1305970 125.3560170
 105.1824870 109.8223810 127.0280430 104.3876370 109.7568930 127.5573340
 105.3868150 110.7574450 127.0165780 102.1243290 123.8615360 131.0218820
 102.7202360 123.5399930 130.3453240 102.3821440 123.3887180 131.8132090
  88.4241490 107.1213670 137.0056260  88.0756310 107.5777490 137.7714440
  88.0929190 106.2270800 137.0878690  90.0305860 120.2933270 141.1709450
  89.9875490 119.9226180 142.0523910  90.1616870 121.2310840 141.3111270
  93.7311890 121.8492860 136.7719170  93.4903250 122.1167420 135.8849690
  94.6714530 122.0198590 136.8270030  95.9366310 108.3125550 140.5275680
  95.8755200 108.9047380 141.2771090  96.8766690 108.2051510 140.3825940
  98.5740870 107.9695610 140.1667970  99.1881280 108.2874900 139.5049050
  99.1190430 107.4844200 140.7863830 104.9916050 123.8687240 137.5729810
 104.4974330 124.2656110 136.8556940 104.3829340 123.2436450 137.9667090
  89.0962130 106.6489870 140.2807030  89.6445120 106.4677920 139.5173140
  89.1617440 105.8583980 140.8163340  89.8693890 123.2395520 138.2907230
  89.2754210 123.1080220 139.0297270  89.8617730 122.4033660 137.8249330
  99.3148910 106.5327750 136.4937260  98.4408750 106.8662860 136.2910190
  99.2059660 106.0600930 137.3189130 100.2220890 108.7398620 137.8778980
  99.8934250 107.9250380 137.4980710 101.1703190 108.6968430 137.7544670
 102.6755500 124.5110660 134.8516550 102.2158470 125.2626470 134.4774570
 102.0467960 123.7917130 134.7931350  89.5006120 120.6053900 137.2415270
  88.7740180 119.9859190 137.1741220  89.5615270 120.9994510 136.3713350
  93.1051220 122.8198900 134.0264680  93.6216240 122.2086260 133.5012940
  93.7548600 123.3227680 134.5175690  95.8446720 123.7107390 134.8533660
  96.1324530 123.4561690 133.9766670  96.3569940 123.1584750 135.4439230
  97.0623730 107.4497590 135.4330170  96.2795520 107.9243090 135.7126930
  96.7686660 106.5452420 135.3243350 101.6144800 108.1520690 133.4779260
 102.0552890 108.0965790 132.6300860 101.3452390 109.0678700 133.5489440
 103.4783370 107.7835930 131.4888080 103.4171770 106.8397150 131.3419100
 104.2575400 107.8916020 132.0341540  87.7836120 123.9228290 130.4512030
  87.6158160 123.2898970 131.1493920  86.9170630 124.1287690 130.1006220
  88.4064140 107.7545070 127.9543890  89.1643500 107.8673950 127.3807920
  87.9441310 108.5914270 127.9087320  99.4502930 106.5326790 132.1829270
 100.0532300 107.1047000 132.6577790  98.7095920 107.0966230 131.9603170
 102.5937530 106.9348350 127.4569550 102.7888160 107.8331800 127.7236980
 101.8067400 106.7035430 127.9502500  89.3898820 122.6161520 127.8962170
  88.8646440 122.9969550 127.1924130  89.3143400 123.2412290 128.6171880
  90.7789290 108.2809120 126.4945860  91.3082050 107.4938920 126.3653810
  91.4117610 108.9600310 126.7281390  92.9727130 108.0184260 129.5491250
  92.3429870 107.3171570 129.7161380  92.4332270 108.7788390 129.3324410
  95.9119080 124.6323490 142.2201860  96.8386390 124.3967760 142.2637820
  95.8969510 125.4595490 141.7387890 104.1464140 124.1749060 129.2176110
 104.3216330 123.4886800 128.5737030 103.4485710 124.6996110 128.8252780
  93.0982690 107.2968240 141.9843740  92.8166960 107.8001840 141.2204560
  93.4802390 106.4989990 141.6185870  91.9891790 124.5643900 126.7711420
  92.7210610 124.2803180 126.2235310  92.2485460 124.3257180 127.6610800
  91.1506580 120.6808630 126.7757750  90.5215460 121.1493730 127.3243580
  91.2654410 119.8357850 127.2103940  99.6998150 106.7121820 142.5624210
  99.5863600 107.0316430 143.4575730 100.5167890 107.1134330 142.2661490
 102.4796640 123.8593350 142.0442900 103.2721960 123.3642580 141.8368860
 102.7729790 124.5383490 142.6518510  90.7540170 116.8213120 115.6843980
  89.9225050 116.5661830 116.0840490  91.3621150 116.8923890 116.4201900
  90.7341430 120.8553210 115.8802000  91.0369470 119.9650950 115.7012220
  91.4785020 121.4123430 115.6524250  89.1632120 111.7815010 109.4686370
  88.2748820 112.1230980 109.3666250  89.4473310 111.5815330 108.5767200
  96.9845080 123.2011510 113.2071340  96.3656520 123.6569010 112.6365780
  97.8396860 123.3562970 112.8061040  96.1783330 119.1850500 114.8138380
  96.1091610 118.2440440 114.6527510  96.9403190 119.2751910 115.3860950
  91.3393510 110.3646510 110.5024750  91.4460260 111.2650240 110.8093510
  90.4285870 110.3164480 110.2119400 100.9912620 109.4871320 111.9735650
 101.8122240 108.9967890 112.0161130 101.0246700 110.0768980 112.7267490
  93.1801240 113.3332880 114.8349930  93.6879460 113.8313850 115.4754950
  93.7114480 112.5568080 114.6589290 105.2812170 111.5038070 118.5379280
 104.5764340 111.8919780 118.0194390 105.5470090 112.1988360 119.1400210
  91.4637340 107.9731440 119.1013350  91.4655780 108.4903830 118.2959250
  90.6341650 107.4961620 119.0783280  91.1452670 109.6841400 117.1083800
  91.4869480 110.5283450 116.8137670  90.2068480 109.8325140 117.2249140
  87.2191630 118.7707280 107.9742880  86.8419610 119.2594380 107.2427780
  87.4764700 119.4432560 108.6049410  94.8280560 107.1723670 113.4328390
  95.1355540 106.6170560 112.7163890  93.8981260 107.3068130 113.2501380
  99.7781060 117.7920800 117.0518460 100.1949850 117.5780910 116.2171920
 100.5020880 118.0493590 117.6227080  97.2030400 111.5089500 107.1655670
  96.2634070 111.6703460 107.2508130  97.5213660 112.2275180 106.6191660
 100.6885170 112.9777340 118.0889570 100.2756350 113.8031050 118.3429560
  99.9561120 112.3922380 117.8965930  93.2899660 119.4504800 115.1147450
  92.9927950 118.8450270 114.4355230  94.2399480 119.4882110 115.0036810
  91.5346580 112.5380450 116.7307280  92.0861170 112.6475790 115.9560530
  92.0490090 112.9118050 117.4462510 101.3785270 123.0236670 118.7770550
 100.9015830 123.8308860 118.5843160 100.6947060 122.3715000 118.9296760
  97.5318690 120.9775680 111.6477750  97.9714600 121.7200010 111.2333140
  97.4705580 121.2202250 112.5716710 103.0040450 107.2922420 105.9937550
 102.6913110 107.3849250 106.8936620 103.7652920 107.8703450 105.9434980
 104.9584480 122.7848610 123.8461940 105.4344200 123.2631500 124.5251020
 105.5791640 122.7166100 123.1207440  87.1607960 117.8297360 116.2583530
  87.2388380 117.9646130 115.3139250  87.7749640 117.1213250 116.4511650
 104.3617730 119.9761460 121.0061950 104.4880790 119.7373340 120.0879130
 104.4039110 119.1446000 121.4784030  98.2234470 123.6789460 119.5756760
  98.7379140 123.5897470 120.3779190  97.3803550 124.0249160 119.8684670
 100.1988870 123.9644800 109.0040760 100.0390010 123.6747740 109.9022590
 100.0335580 123.1884930 108.4685990  92.6777250 123.7443330 110.7812380
  92.5019730 122.8278870 110.5680180  91.8232990 124.1030620 111.0210180
  99.9015000 121.4732360 107.5638760  99.2080160 121.4709650 106.9041040
 100.6437860 121.0491680 107.1332930  99.4664930 123.0995070 111.6387250
  99.9221880 122.3184450 111.9525870  99.8057450 123.8101890 112.1828430
  91.9886250 108.0017290 113.8338560  91.5454400 108.7826830 113.5023080
  92.5471240 108.3247180 114.5409500  96.2756060 110.8685810 119.4373880
  95.8135430 111.0768830 120.2493820  95.8734170 110.0545160 119.1344550
  95.1045070 107.6227990 108.7144390  94.4799250 107.6187860 109.4397700
  95.0175190 106.7558950 108.3180360  94.0262150 108.5464620 115.6928160
  94.3234480 109.4527450 115.6120180  94.5747710 108.0583400 115.0787730
  91.7800470 113.1250860 111.5619810  91.5541390 112.9088030 112.4666430
  90.9993000 113.5579320 111.2165780  86.8397500 112.2998690 105.6246660
  86.7572170 113.2429450 105.7661650  86.4880560 112.1573600 104.7459010
  94.6395630 111.0337720 114.6917010  94.6431690 110.5927670 113.8421550
  95.5346750 111.3555050 114.7988830  90.4898010 110.9164210 113.6511220
  90.1498060 111.3939440 114.4078270  89.7275330 110.4629330 113.2912320
  94.7015780 112.0349800 107.6823770  94.8228600 111.9936280 108.6309590
  94.3164290 112.8973950 107.5270500  98.6644150 109.8117200 115.6987460
  98.6816890 110.2625850 116.5429310  98.4159730 108.9122840 115.9120900
 102.0914900 107.2249380 121.5373840 102.4160670 106.4939040 122.0631820
 102.1271410 106.9063020 120.6354830  94.9403600 115.0939500 116.4382420
  95.3073730 114.6198070 117.1843760  94.7508660 115.9681070 116.7790760
  87.8044090 109.8383190 112.5675890  87.5191010 109.4738860 113.4054510
  87.7422950 109.1063650 111.9539030  92.7302970 114.1348140 118.7566630
  92.4260040 115.0140120 118.9816990  93.6849430 114.1947930 118.7924070
  97.4782680 108.7312450 109.2889260  96.6647290 108.2325620 109.2134570
  97.2844630 109.5710700 108.8725610  97.3991540 117.4083550 121.0328870
  97.3328850 116.4879220 120.7786460  96.7696680 117.5058990 121.7473510
 100.1931070 113.1032100 107.5851420 101.0810690 113.4149330 107.4102760
 100.1636160 112.2304350 107.1932000  97.3308270 120.2304120 120.7832670
  97.3452810 119.2985080 120.5651580  96.6233370 120.3163880 121.4222440
 102.4645340 114.4143940 107.0531280 102.3809060 114.8458160 106.2027720
 103.1839530 114.8742290 107.4858100 103.5419480 116.8711460 120.1301250
 102.8167670 117.4640240 119.9330640 104.0694940 116.8635000 119.3314620
  87.2974750 114.9742140 106.5272590  88.1669600 115.2566940 106.8108510
  86.8065070 115.7878010 106.4121400  96.7642170 121.8721690 117.8773170
  97.4084390 122.0781070 118.5546590  97.1271610 121.1110090 117.4244020
  90.3621340 106.7053000 111.1203390  90.2335970 106.6970900 112.0688310
  89.5383360 107.0436090 110.7694400  98.0374250 119.8754040 116.5950620
  98.6796480 119.1747200 116.7082790  98.5623600 120.6552480 116.4147510
  99.8111870 120.6748940 119.7986680 100.1468110 121.2615630 120.4764600
  98.8912210 120.5441650 120.0284470 101.4646220 118.0774600 107.9803920
 101.1767920 118.5387290 108.7681800 102.2598390 117.6172370 108.2488140
  95.6400450 120.7240270 122.9674740  95.3197320 120.0049510 123.5120430
  94.9658810 121.3995340 123.0410800  98.8554050 110.9566430 118.3311540
  99.2234870 110.1361640 118.6591110  97.9952250 111.0168320 118.7467190
 102.2216080 109.9123370 109.1399100 101.5929240 110.0169040 108.4257330
 101.7268000 110.1320150 109.9292980  96.6674220 121.6328960 106.5733080
  96.7686200 121.4292950 105.6435060  95.7675960 121.3787240 106.7780860
  94.1900110 112.1909320 110.5556980  93.4816260 112.6595660 110.9970590
  94.4744590 111.5331330 111.1902170  95.8156040 113.6106020 118.5549510
  96.3141290 114.0851840 119.2201360  95.9578990 112.6869540 118.7619540
  98.2215540 108.9159980 111.9952770  98.0983320 108.9346110 111.0462280
  99.1700100 108.9638920 112.1151170  95.3092330 124.1515280 111.2680750
  95.5633830 124.1136670 110.3460120  94.3604810 124.0248610 111.2609000
  92.3935130 110.4994400 107.9307690  93.2425660 110.9364550 107.8647880
  92.0266400 110.8114660 108.7579750 103.0222900 109.8273980 119.3977900
 102.5196500 110.5679380 119.7371710 103.8379560 110.2157980 119.0814690
  90.7888020 124.3347220 114.1910650  91.5250500 123.7862680 114.4619220
  91.1728940 125.2003230 114.0516640  89.7946300 123.5193290 123.3796230
  90.5959030 123.8405340 123.7931630  89.2798120 123.1588870 124.1016140
  98.6310930 119.6273160 123.3271640  98.0249090 119.6504760 122.5867390
  98.3265040 118.8956200 123.8638890 100.0611300 123.3553450 121.9381050
 101.0133050 123.2711470 121.8881290  99.9139520 124.0195160 122.6114840
 101.7105400 119.1443070 122.4142820 102.4514870 119.4818830 121.9110280
 100.9478080 119.3135130 121.8612590  89.5467190 114.1496340 123.2182350
  89.5872530 113.8510210 124.1267580  90.4012690 114.5503950 123.0589870
  91.4873000 112.7288440 121.1856840  90.9569460 112.2379390 120.5580180
  92.1561070 113.1572640 120.6514770 100.3851060 117.1957900 120.9498030
 100.7992080 117.3502980 121.7988450  99.4502060 117.3213120 121.1123810
  91.9745300 109.6950810 121.2654130  91.8802170 109.0771560 120.5405000
  91.3942690 110.4217100 121.0384040  94.7406740 108.2524050 118.2981520
  94.2924040 108.2748310 117.4527070  94.1071940 107.8543070 118.8951820
  99.8218090 115.4331750 118.8794310  99.2953310 115.9574370 118.2759450
 100.1649430 116.0659140 119.5104040  92.2204480 112.8225120 105.3244020
  92.0193540 111.9592480 105.6857360  92.0496530 112.7358480 104.3865620
  92.9973710 123.4531390 120.0351690  92.4594800 124.1777450 119.7160390
  93.2507670 122.9761730 119.2449030  94.2498960 111.4215910 121.5607620
  94.8398650 111.1131760 122.2485440  93.4319200 110.9495660 121.7167520
  99.6992790 107.6333350 107.8530900  99.9795080 106.7901250 108.2090320
  98.9258520 107.8656460 108.3669650  95.8535920 124.6882600 120.2938340
  95.7794620 125.5917740 120.6010710  94.9514760 124.3694500 120.2660410
  96.4021250 123.8541110 107.9164700  97.2972040 124.1926080 107.9383460
  96.4338880 123.1320520 107.2888980  90.0417410 119.2268160 106.1451700
  90.4792280 119.7697830 106.8009280  90.5265140 118.4015110 106.1548040
  87.2563210 122.0157190 113.5971960  87.5866220 121.1478250 113.3650600
  87.6854210 122.2215710 114.4276920  87.7453420 122.8827780 116.3353590
  87.3084410 123.0628580 117.1677740  88.3131100 123.6402400 116.1935310
 103.3815600 122.3844780 120.6230900 102.7817590 122.4437340 119.8794820
 103.5109500 121.4449760 120.7527750 102.0667240 119.1096760 118.7207060
 101.2527080 119.5393920 118.9832850 102.4741440 119.7215170 118.1076110
 104.1292680 117.1644450 105.6207330 104.4041520 118.0723330 105.4926550
 103.9403420 117.1006980 106.5569320 100.5268290 110.1889300 106.9160960
 100.9453170 110.0020280 106.0757620 100.2204350 109.3368350 107.2263890
  88.6153780 115.7800580 117.2345810  88.9826820 115.6927980 118.1141830
  88.0464600 115.0167130 117.1352670 103.4157640 114.2484960 120.2476280
 103.1843730 114.0197710 119.3474230 103.6762190 115.1684510 120.2021170
  88.1669780 112.6909670 121.1404230  87.2725830 112.6576430 121.4797940
  88.7067330 112.8896460 121.9055480  86.7915930 112.6046940 108.6367800
  85.8880010 112.8677140 108.4619460  87.2756550 112.8758110 107.8567760
 103.4798700 113.4110800 117.4363550 102.5301410 113.3774340 117.5508540
 103.6611710 114.3210910 117.2013320  89.3343140 111.6612480 106.5462180
  90.0434840 111.2395700 106.0609460  88.6183080 111.7287710 105.9145530
 102.5661830 107.1599360 118.8457090 103.2034050 107.7733500 119.2116280
 102.7136720 107.1960020 117.9006320 105.1086380 109.0513150 105.6280230
 106.0335690 108.9194330 105.4198520 105.0862170 109.1305970 106.5816680
 105.1824870 109.8223810 108.2536940 104.3876370 109.7568930 108.7829850
 105.3868150 110.7574450 108.2422290  93.7311890 121.8492860 117.9975680
  93.4903250 122.1167420 117.1106200  94.6714530 122.0198590 118.0526540
  95.9366310 108.3125550 121.7532190  95.8755200 108.9047380 122.5027600
  96.8766690 108.2051510 121.6082450 104.9916050 123.8687240 118.7986320
 104.4974330 124.2656110 118.0813450 104.3829340 123.2436450 119.1923600
  89.0962130 106.6489870 121.5063540  89.6445120 106.4677920 120.7429650
  89.1617440 105.8583980 122.0419850  99.3148910 106.5327750 117.7193770
  98.4408750 106.8662860 117.5166700  99.2059660 106.0600930 118.5445640
 100.2220890 108.7398620 119.1035490  99.8934250 107.9250380 118.7237220
 101.1703190 108.6968430 118.9801180  93.1051220 122.8198900 115.2521190
  93.6216240 122.2086260 114.7269450  93.7548600 123.3227680 115.7432200
  95.8446720 123.7107390 116.0790170  96.1324530 123.4561690 115.2023180
  96.3569940 123.1584750 116.6695740  97.0623730 107.4497590 116.6586680
  96.2795520 107.9243090 116.9383440  96.7686660 106.5452420 116.5499860
 101.6144800 108.1520690 114.7035770 102.0552890 108.0965790 113.8557370
 101.3452390 109.0678700 114.7745950 103.4783370 107.7835930 112.7144590
 103.4171770 106.8397150 112.5675610 104.2575400 107.8916020 113.2598050
  87.7836120 123.9228290 111.6768540  87.6158160 123.2898970 112.3750430
  86.9170630 124.1287690 111.3262730  94.9477950 109.8684340 112.1702710
  94.1352460 109.4941230 111.8298590  95.4519590 109.1129420 112.4723900
  99.4502930 106.5326790 113.4085780 100.0532300 107.1047000 113.8834300
  98.7095920 107.0966230 113.1859680 102.5937530 106.9348350 108.6826060
 102.7888160 107.8331800 108.9493490 101.8067400 106.7035430 109.1759010
  92.9727130 108.0184260 110.7747760  92.3429870 107.3171570 110.9417890
  92.4332270 108.7788390 110.5580920  95.9119080 124.6323490 123.4458370
  96.8386390 124.3967760 123.4894330  95.8969510 125.4595490 122.9644400
  93.0982690 107.2968240 123.2100250  92.8166960 107.8001840 122.4461070
  93.4802390 106.4989990 122.8442380 102.4796640 123.8593350 123.2699410
 103.2721960 123.3642580 123.0625370 102.7729790 124.5383490 123.8775020
  98.6056300 114.7314290  94.1515460  98.5250350 113.8168900  93.8807170
  98.1920720 115.2281360  93.4455170  96.7374340 116.5093310  96.0324730
  95.9616440 116.0293750  96.3223300  97.3887270 115.8298960  95.8580890
  90.7540170 116.8213120  96.9100490  89.9225050 116.5661830  97.3097000
  91.3621150 116.8923890  97.6458410 100.7581770 120.9153500  94.8123860
 100.2963300 120.1440740  95.1411030 101.5707320 120.9419570  95.3176310
  90.7341430 120.8553210  97.1058510  91.0369470 119.9650950  96.9268730
  91.4785020 121.4123430  96.8780760  87.1265130 114.3820660  96.5782580
  87.6981240 113.6142860  96.5786220  87.1266670 114.6809420  95.6689190
  96.9845080 123.2011510  94.4327850  96.3656520 123.6569010  93.8622290
  97.8396860 123.3562970  94.0317550  96.1783330 119.1850500  96.0394890
  96.1091610 118.2440440  95.8784020  96.9403190 119.2751910  96.6117460
  97.2088500 111.9920880  96.2663820  97.5853320 111.1192760  96.1537490
  97.1108010 112.3279580  95.3754260  93.1801240 113.3332880  96.0606440
  93.6879460 113.8313850  96.7011460  93.7114480 112.5568080  95.8845800
  97.8508430 118.0850750  91.8259760  97.2325700 118.5500200  91.2622480
  98.3631680 118.7778230  92.2429270  92.7140190 117.6126620  98.5043360
  92.3809570 118.2395540  99.1464430  92.8906870 118.1388500  97.7245030
 100.3795620 122.8890960  96.9492360 100.3922780 122.4853250  96.0814620
  99.8270840 123.6638250  96.8453790 101.6741040 119.6107180  92.0382530
 101.5637370 118.6681510  92.1631950 101.6709290 119.9722820  92.9245290
  99.7781060 117.7920800  98.2774970 100.1949850 117.5780910  97.4428430
 100.5020880 118.0493590  98.8483590  97.2161320 115.2372500  91.3945020
  96.2890600 115.1709880  91.6233490  97.3686140 116.1752630  91.2800260
 103.7243160 116.1908020  98.3691210 102.8961790 116.2601110  97.8941340
 104.3193640 116.7762330  97.9007040 101.2458610 116.7992800  91.8980270
 100.6271030 116.4612350  91.2506570 101.2283060 116.1552560  92.6059460
 100.6885170 112.9777340  99.3146080 100.2756350 113.8031050  99.5686070
  99.9561120 112.3922380  99.1222440  92.8217960 115.7637240  94.1764750
  92.4174960 115.0514490  93.6810650  92.9081080 115.4190480  95.0652790
  93.2899660 119.4504800  96.3403960  92.9927950 118.8450270  95.6611740
  94.2399480 119.4882110  96.2293320  91.5346580 112.5380450  97.9563790
  92.0861170 112.6475790  97.1817040  92.0490090 112.9118050  98.6719020
  99.4223310 116.0379610  88.9053020  99.8616590 115.2002040  88.7590840
 100.1351730 116.6709010  88.9917160  91.2089310 116.0599810 101.5669130
  91.0697080 116.9322610 101.9356530  90.3270670 115.7172620 101.4217070
  97.5318690 120.9775680  92.8734260  97.9714600 121.7200010  92.4589650
  97.4705580 121.2202250  93.7973220  87.1607960 117.8297360  97.4840040
  87.2388380 117.9646130  96.5395760  87.7749640 117.1213250  97.6768160
  88.4055590 119.5297550  93.8946220  87.9983670 119.6712140  93.0399820
  89.2968600 119.2457710  93.6917430 100.1988870 123.9644800  90.2297270
 100.0390010 123.6747740  91.1279100 100.0335580 123.1884930  89.6942500
  99.9015000 121.4732360  88.7895270  99.2080160 121.4709650  88.1297550
 100.6437860 121.0491680  88.3589440  99.4664930 123.0995070  92.8643760
  99.9221880 122.3184450  93.1782380  99.8057450 123.8101890  93.4084940
 104.2141740 112.0293920 103.1968200 103.5986010 112.5373590 102.6683660
 103.8938160 111.1292250 103.1394140  87.2167480 118.8711530 100.0234500
  87.3798520 118.4016890  99.2053870  87.6819930 118.3635090 100.6883340
  96.2756060 110.8685810 100.6630390  95.8135430 111.0768830 101.4750330
  95.8734170 110.0545160 100.3601060 101.2760570 112.0894760 101.7927050
 100.4254160 111.7900510 102.1136120 101.1162360 112.3336770 100.8810870
  99.0098230 113.1314230  91.3866970  98.4107120 113.8550030  91.2030590
  99.5577840 113.0691010  90.6043420  95.9255270 110.5185080 104.6767110
  95.2353590 110.3257280 105.3113200  96.6687570 110.8019720 105.2091410
  98.2018240 114.3583520  97.5121030  97.4699360 114.8670330  97.8611130
  97.8042580 113.5413500  97.2109810 102.0914900 107.2249380 102.7630350
 102.4160670 106.4939040 103.2888330 102.1271410 106.9063020 101.8611340
  88.7906460 118.2462960 102.1830310  88.4061250 117.6056630 102.7813270
  89.1018650 118.9499080 102.7525040  94.9403600 115.0939500  97.6638930
  95.3073730 114.6198070  98.4100270  94.7508660 115.9681070  98.0047270
  92.7302970 114.1348140  99.9823140  92.4260040 115.0140120 100.2073500
  93.6849430 114.1947930 100.0180580  91.2584760 118.3409130  90.5789990
  90.4847020 117.8006750  90.4188710  91.9879390 117.8215740  90.2407750
 102.0172740 117.3374490  96.3716380 102.7371860 117.8329780  95.9812490
 101.8154560 116.6592380  95.7270250 100.1931070 113.1032100  88.8107930
 101.0810690 113.4149330  88.6359270 100.1636160 112.2304350  88.4188510
  91.3022160 118.0089510  94.2168800  91.8200830 117.2057770  94.1625690
  90.8506180 117.9468650  95.0585630  96.1891660 119.2755790  89.4896100
  96.5307360 120.0198020  88.9939420  95.3604370 119.5886910  89.8520930
  88.7866700 114.9750880 101.1294500  88.4281640 115.6404730 101.7167840
  88.4921260 114.1434430 101.5007120 102.4645340 114.4143940  88.2787790
 102.3809060 114.8458160  87.4284230 103.1839530 114.8742290  88.7114610
 103.5419480 116.8711460 101.3557760 102.8167670 117.4640240 101.1587150
 104.0694940 116.8635000 100.5571130 103.4932590 121.2686200  91.0069920
 102.8508750 120.6141820  91.2813640 103.1063250 121.6741290  90.2310590
  99.0719070 118.5971630  94.8541610  99.4242890 117.9999760  94.1942980
  98.1881400 118.2715860  95.0249860  95.1582350 119.3569320  92.2612020
  95.8453480 119.9038530  92.6419610  94.3714770 119.9010050  92.2961630
  94.4609560 116.3615350  91.8737380  94.9172340 117.1720600  92.0997570
  94.1097770 116.0438490  92.7055870  96.7642170 121.8721690  99.1029680
  97.4084390 122.0781070  99.7803100  97.1271610 121.1110090  98.6500530
  98.0374250 119.8754040  97.8207130  98.6796480 119.1747200  97.9339300
  98.5623600 120.6552480  97.6404020 101.8829970 120.1602660  87.5446270
 101.6567550 119.4433100  88.1370910 101.4926170 119.9115100  86.7068020
 101.4646220 118.0774600  89.2060430 101.1767920 118.5387290  89.9938310
 102.2598390 117.6172370  89.4744650  98.8554050 110.9566430  99.5568050
  99.2234870 110.1361640  99.8847620  97.9952250 111.0168320  99.9723700
 102.2216080 109.9123370  90.3655610 101.5929240 110.0169040  89.6513840
 101.7268000 110.1320150  91.1549490  95.8156040 113.6106020  99.7806020
  96.3141290 114.0851840 100.4457870  95.9578990 112.6869540  99.9876050
 103.0222900 109.8273980 100.6234410 102.5196500 110.5679380 100.9628220
 103.8379560 110.2157980 100.3071200 101.3144910 115.0707160  94.0695770
 100.3735050 115.0857390  94.2443460 101.6288980 114.2843120  94.5156070
  91.2926550 116.7526760  87.6299730  92.0589820 116.6408120  88.1925160
  91.3701240 116.0564730  86.9776500 103.3170490 122.2416010  95.7450030
 103.4417910 123.0647180  96.2173840 104.1836050 122.0306740  95.3974180
  87.6733500 120.4020790  91.2908670  86.7473280 120.6441930  91.2814080
  88.1389930 121.2295050  91.1693420 102.9520500 122.7347660  88.6629470
 102.6662010 122.3212800  87.8483650 102.7540050 123.6635370  88.5429990
  87.5144110 116.0066750 103.5488790  88.0183130 115.4274030 104.1205020
  86.7751530 116.2906980 104.0865160  94.4167730 118.7280940  87.1035080
  94.3118370 118.1133290  87.8296460  94.2491950 118.2046830  86.3198090
  97.6570460 117.7900970  87.7077070  97.1080560 118.2370270  88.3519810
  98.2789720 117.2850220  88.2314740  89.5467190 114.1496340 104.4438860
  89.5872530 113.8510210 105.3524090  90.4012690 114.5503950 104.2846380
  93.3245580 116.7491890  89.6042370  93.7462000 116.5831760  90.4473760
  93.4496420 115.9392120  89.1097510  91.4873000 112.7288440 102.4113350
  90.9569460 112.2379390 101.7836690  92.1561070 113.1572640 101.8771280
  95.8373220 115.7729500  86.8519470  96.3578880 115.0578520  86.4860620
  96.4841620 116.4115370  87.1519980  99.8218090 115.4331750 100.1050820
  99.2953310 115.9574370  99.5015960 100.1649430 116.0659140 100.7360550
  94.2498960 111.4215910 102.7864130  94.8398650 111.1131760 103.4741950
  93.4319200 110.9495660 102.9424030  99.0692390 111.0381720 103.0197150
  98.3807910 110.3763260 102.9547140  99.7898410 110.5919990 103.4645610
  90.0417410 119.2268160  87.3708210  90.4792280 119.7697830  88.0265790
  90.5265140 118.4015110  87.3804550  87.2563210 122.0157190  94.8228470
  87.5866220 121.1478250  94.5907110  87.6854210 122.2215710  95.6533430
  91.8525130 120.3466200  92.4830440  91.5520670 120.2231170  93.3834350
  91.7462620 119.4874790  92.0746170  87.7453420 122.8827780  97.5610100
  87.3084410 123.0628580  98.3934250  88.3131100 123.6402400  97.4191820
 104.6217050 120.1262600  87.1857120 103.7910010 120.1939250  87.6564350
 104.7988880 121.0166720  86.8823980 104.0773510 116.8710080  89.6891320
 104.8392420 117.4406730  89.7951010 104.0927880 116.3037280  90.4599630
 105.0833480 117.7260180  94.5333250 105.4542310 116.9427500  94.1269220
 105.7235410 118.4149280  94.3550550 104.1292680 117.1644450  86.8463840
 104.4041520 118.0723330  86.7183060 103.9403420 117.1006980  87.7825830
 100.5268290 110.1889300  88.1417470 100.9453170 110.0020280  87.3014130
 100.2204350 109.3368350  88.4520400 104.0258020 115.1013440  91.8393270
 103.6501620 114.3341370  91.4074560 103.2961140 115.4836140  92.3268200
  88.6153780 115.7800580  98.4602320  88.9826820 115.6927980  99.3398340
  88.0464600 115.0167130  98.3609180 103.4157640 114.2484960 101.4732790
 103.1843730 114.0197710 100.5730740 103.6762190 115.1684510 101.4277680
  88.1669780 112.6909670 102.3660740  87.2725830 112.6576430 102.7054450
  88.7067330 112.8896460 103.1311990 101.8545710 109.4741390 104.2512490
 102.7315890 109.4824790 104.6346490 101.8666550 108.7372230 103.6404840
 103.3008980 113.3270930  95.1400510 103.8246460 112.8333580  94.5090680
 103.8868400 113.4621290  95.8848080 103.4798700 113.4110800  98.6620060
 102.5301410 113.3774340  98.7765050 103.6611710 114.3210910  98.4269830
 102.7908950 112.5844280  91.0792920 103.2868070 112.3515150  91.8641800
 102.5925020 111.7456120  90.6630560 102.5661830 107.1599360 100.0713600
 103.2034050 107.7733500 100.4372790 102.7136720 107.1960020  99.1262830
 102.1243290 123.8615360  93.4731840 102.7202360 123.5399930  92.7966260
 102.3821440 123.3887180  94.2645110  98.5740870 107.9695610 102.6180990
  99.1881280 108.2874900 101.9562070  99.1190430 107.4844200 103.2376850
 100.2220890 108.7398620 100.3292000  99.8934250 107.9250380  99.9493730
 101.1703190 108.6968430 100.2057690 102.6755500 124.5110660  97.3029570
 102.2158470 125.2626470  96.9287590 102.0467960 123.7917130  97.2444370
  95.8446720 123.7107390  97.3046680  96.1324530 123.4561690  96.4279690
  96.3569940 123.1584750  97.8952250  89.3898820 122.6161520  90.3475190
  88.8646440 122.9969550  89.6437150  89.3143400 123.2412290  91.0684900
 104.1464140 124.1749060  91.6689130 104.3216330 123.4886800  91.0250050
 103.4485710 124.6996110  91.2765800  99.6998150 106.7121820 105.0137230
  99.5863600 107.0316430 105.9088750 100.5167890 107.1134330 104.7174510
  98.6056300 114.7314290  75.3771970  98.5250350 113.8168900  75.1063680
  98.1920720 115.2281360  74.6711680  96.7374340 116.5093310  77.2581240
  95.9616440 116.0293750  77.5479810  97.3887270 115.8298960  77.0837400
  90.7341430 120.8553210  78.3315020  91.0369470 119.9650950  78.1525240
  91.4785020 121.4123430  78.1037270  97.2088500 111.9920880  77.4920330
  97.5853320 111.1192760  77.3794000  97.1108010 112.3279580  76.6010770
  91.3393510 110.3646510  72.9537770  91.4460260 111.2650240  73.2606530
  90.4285870 110.3164480  72.6632420 100.9912620 109.4871320  74.4248670
 101.8122240 108.9967890  74.4674150 101.0246700 110.0768980  75.1780510
  93.1801240 113.3332880  77.2862950  93.6879460 113.8313850  77.9267970
  93.7114480 112.5568080  77.1102310  92.7140190 117.6126620  79.7299870
  92.3809570 118.2395540  80.3720940  92.8906870 118.1388500  78.9501540
 101.2274100 111.4271700  77.1976210 100.5229670 111.7156590  77.7779320
 101.5886260 112.2371810  76.8375770  91.9259290 119.5807420  81.5449050
  92.5433290 120.2558500  81.2633500  91.0652410 119.9895400  81.4536550
  87.2191630 118.7707280  70.4255900  86.8419610 119.2594380  69.6940800
  87.4764700 119.4432560  71.0562430  94.8280560 107.1723670  75.8841410
  95.1355540 106.6170560  75.1676910  93.8981260 107.3068130  75.7014400
 103.7243160 116.1908020  79.5947720 102.8961790 116.2601110  79.1197850
 104.3193640 116.7762330  79.1263550 100.6885170 112.9777340  80.5402590
 100.2756350 113.8031050  80.7942580  99.9561120 112.3922380  80.3478950
  91.5346580 112.5380450  79.1820300  92.0861170 112.6475790  78.4073550
  92.0490090 112.9118050  79.8975530  92.3818090 119.1886490  84.2168270
  91.4846620 119.4126460  84.4641670  92.4070960 119.3121430  83.2679670
  91.2089310 116.0599810  82.7925640  91.0697080 116.9322610  83.1613040
  90.3270670 115.7172620  82.6473580 103.0040450 107.2922420  68.4450570
 102.6913110 107.3849250  69.3449640 103.7652920 107.8703450  68.3948000
  89.5222590 114.6582220  72.9027910  89.4020190 115.3844310  72.2909180
  89.2123480 113.8885130  72.4255820 104.9584480 122.7848610  86.2974960
 105.4344200 123.2631500  86.9764040 105.5791640 122.7166100  85.5720460
 104.3617730 119.9761460  83.4574970 104.4880790 119.7373340  82.5392150
 104.4039110 119.1446000  83.9297050 104.2141740 112.0293920  84.4224710
 103.5986010 112.5373590  83.8940170 103.8938160 111.1292250  84.3650650
  91.9886250 108.0017290  76.2851580  91.5454400 108.7826830  75.9536100
  92.5471240 108.3247180  76.9922520  96.2756060 110.8685810  81.8886900
  95.8135430 111.0768830  82.7006840  95.8734170 110.0545160  81.5857570
 101.2760570 112.0894760  83.0183560 100.4254160 111.7900510  83.3392630
 101.1162360 112.3336770  82.1067380  98.3710280 113.5896510  85.1182350
  98.6963690 112.7560260  84.7784580  99.1590610 114.1125030  85.2660680
  95.1045070 107.6227990  71.1657410  94.4799250 107.6187860  71.8910720
  95.0175190 106.7558950  70.7693380  94.0262150 108.5464620  78.1441180
  94.3234480 109.4527450  78.0633200  94.5747710 108.0583400  77.5300750
  97.6163100 111.7677770  74.6426760  98.0092670 112.0849970  73.8295450
  97.9779950 110.8889650  74.7571280  98.2018240 114.3583520  78.7377540
  97.4699360 114.8670330  79.0867640  97.8042580 113.5413500  78.4366320
  94.6395630 111.0337720  77.1430030  94.6431690 110.5927670  76.2934570
  95.5346750 111.3555050  77.2501850  90.4898010 110.9164210  76.1024240
  90.1498060 111.3939440  76.8591290  89.7275330 110.4629330  75.7425340
  98.6644150 109.8117200  78.1500480  98.6816890 110.2625850  78.9942330
  98.4159730 108.9122840  78.3633920 102.0914900 107.2249380  83.9886860
 102.4160670 106.4939040  84.5144840 102.1271410 106.9063020  83.0867850
  88.7906460 118.2462960  83.4086820  88.4061250 117.6056630  84.0069780
  89.1018650 118.9499080  83.9781550  94.9403600 115.0939500  78.8895440
  95.3073730 114.6198070  79.6356780  94.7508660 115.9681070  79.2303780
  92.7302970 114.1348140  81.2079650  92.4260040 115.0140120  81.4330010
  93.6849430 114.1947930  81.2437090  97.4782680 108.7312450  71.7402280
  96.6647290 108.2325620  71.6647590  97.2844630 109.5710700  71.3238630
  97.3991540 117.4083550  83.4841890  97.3328850 116.4879220  83.2299480
  96.7696680 117.5058990  84.1986530 100.1931070 113.1032100  70.0364440
 101.0810690 113.4149330  69.8615780 100.1636160 112.2304350  69.6445020
  91.3022160 118.0089510  75.4425310  91.8200830 117.2057770  75.3882200
  90.8506180 117.9468650  76.2842140  97.3308270 120.2304120  83.2345690
  97.3452810 119.2985080  83.0164600  96.6233370 120.3163880  83.8735460
 102.4645340 114.4143940  69.5044300 102.3809060 114.8458160  68.6540740
 103.1839530 114.8742290  69.9371120 103.5419480 116.8711460  82.5814270
 102.8167670 117.4640240  82.3843660 104.0694940 116.8635000  81.7827640
  87.2974750 114.9742140  68.9785610  88.1669600 115.2566940  69.2621530
  86.8065070 115.7878010  68.8634420  95.6400450 120.7240270  85.4187760
  95.3197320 120.0049510  85.9633450  94.9658810 121.3995340  85.4923820
  89.2821260 116.7915610  71.1067670  88.6749210 117.5314510  71.1162970
  89.7570610 116.8814970  70.2805870  98.8554050 110.9566430  80.7824560
  99.2234870 110.1361640  81.1104130  97.9952250 111.0168320  81.1980210
 102.2216080 109.9123370  71.5912120 101.5929240 110.0169040  70.8770350
 101.7268000 110.1320150  72.3806000  95.8156040 113.6106020  81.0062530
  96.3141290 114.0851840  81.6714380  95.9578990 112.6869540  81.2132560
  98.2215540 108.9159980  74.4465790  98.0983320 108.9346110  73.4975300
  99.1700100 108.9638920  74.5664190  92.3935130 110.4994400  70.3820710
  93.2425660 110.9364550  70.3160900  92.0266400 110.8114660  71.2092770
 101.3144910 115.0707160  75.2952280 100.3735050 115.0857390  75.4699970
 101.6288980 114.2843120  75.7412580  91.2926550 116.7526760  68.8556240
  92.0589820 116.6408120  69.4181670  91.3701240 116.0564730  68.2033010
  89.9873310 114.1851830  69.5389130  90.0676900 113.2379340  69.6506530
  90.8793060 114.5158710  69.6449790  87.6733500 120.4020790  72.5165180
  86.7473280 120.6441930  72.5070590  88.1389930 121.2295050  72.3949930
  98.6310930 119.6273160  85.7784660  98.0249090 119.6504760  85.0380410
  98.3265040 118.8956200  86.3151910 100.0611300 123.3553450  84.3894070
 101.0133050 123.2711470  84.3394310  99.9139520 124.0195160  85.0627860
  94.5682050 117.4137740  84.3080820  93.8027720 117.9822740  84.2235490
  94.7498010 117.1213950  83.4149050 101.7105400 119.1443070  84.8655840
 102.4514870 119.4818830  84.3623300 100.9478080 119.3135130  84.3125610
 100.3851060 117.1957900  83.4011050 100.7992080 117.3502980  84.2501470
  99.4502060 117.3213120  83.5636830 100.8573230 114.5354060  85.4050200
 101.4394000 113.7806380  85.3170680 101.0335000 115.0661500  84.6281680
  95.1466290 117.1478380  81.3706980  95.5654400 117.9911110  81.1983220
  94.2274920 117.2850420  81.1413760  97.4830190 114.8794560  82.7544820
  97.6026400 114.2835700  83.4939660  98.3424190 114.9164250  82.3346120
  99.8218090 115.4331750  81.3307330  99.2953310 115.9574370  80.7272470
 100.1649430 116.0659140  81.9617060  92.2204480 112.8225120  67.7757040
  92.0193540 111.9592480  68.1370380  92.0496530 112.7358480  66.8378640
  99.0692390 111.0381720  84.2453660  98.3807910 110.3763260  84.1803650
  99.7898410 110.5919990  84.6902120  99.6992790 107.6333350  70.3043920
  99.9795080 106.7901250  70.6603340  98.9258520 107.8656460  70.8182670
  91.0187280 109.9225740  67.7634920  91.3213180 109.9293170  66.8554070
  91.7581870 109.5723600  68.2602580  94.2372210 108.8660360  68.7491120
  93.8894210 108.1884350  68.1693570  94.4384980 108.4049870  69.5634510
  90.0417410 119.2268160  68.5964720  90.4792280 119.7697830  69.2522300
  90.5265140 118.4015110  68.6061060  87.2563210 122.0157190  76.0484980
  87.5866220 121.1478250  75.8163620  87.6854210 122.2215710  76.8789940
 104.6217050 120.1262600  68.4113630 103.7910010 120.1939250  68.8820860
 104.7988880 121.0166720  68.1080490 104.0773510 116.8710080  70.9147830
 104.8392420 117.4406730  71.0207520 104.0927880 116.3037280  71.6856140
 105.0833480 117.7260180  75.7589760 105.4542310 116.9427500  75.3525730
 105.7235410 118.4149280  75.5807060 104.1292680 117.1644450  68.0720350
 104.4041520 118.0723330  67.9439570 103.9403420 117.1006980  69.0082340
 100.5268290 110.1889300  69.3673980 100.9453170 110.0020280  68.5270640
 100.2204350 109.3368350  69.6776910 104.0258020 115.1013440  73.0649780
 103.6501620 114.3341370  72.6331070 103.2961140 115.4836140  73.5524710
 103.4157640 114.2484960  82.6989300 103.1843730 114.0197710  81.7987250
 103.6762190 115.1684510  82.6534190 101.8545710 109.4741390  85.4769000
 102.7315890 109.4824790  85.8603000 101.8666550 108.7372230  84.8661350
 103.3008980 113.3270930  76.3657020 103.8246460 112.8333580  75.7347190
 103.8868400 113.4621290  77.1104590 103.4798700 113.4110800  79.8876570
 102.5301410 113.3774340  80.0021560 103.6611710 114.3210910  79.6526340
 102.7908950 112.5844280  72.3049430 103.2868070 112.3515150  73.0898310
 102.5925020 111.7456120  71.8887070 105.1086380 109.0513150  68.0793250
 106.0335690 108.9194330  67.8711540 105.0862170 109.1305970  69.0329700
 105.1824870 109.8223810  70.7049960 104.3876370 109.7568930  71.2342870
 105.3868150 110.7574450  70.6935310 104.9916050 123.8687240  81.2499340
 104.4974330 124.2656110  80.5326470 104.3829340 123.2436450  81.6436620
  89.8693890 123.2395520  81.9676760  89.2754210 123.1080220  82.7066800
  89.8617730 122.4033660  81.5018860  99.3148910 106.5327750  80.1706790
  98.4408750 106.8662860  79.9679720  99.2059660 106.0600930  80.9958660
 100.2220890 108.7398620  81.5548510  99.8934250 107.9250380  81.1750240
 101.1703190 108.6968430  81.4314200  97.0623730 107.4497590  79.1099700
  96.2795520 107.9243090  79.3896460  96.7686660 106.5452420  79.0012880
  87.7836120 123.9228290  74.1281560  87.6158160 123.2898970  74.8263450
  86.9170630 124.1287690  73.7775750  94.9477950 109.8684340  74.6215730
  94.1352460 109.4941230  74.2811610  95.4519590 109.1129420  74.9236920
  99.4502930 106.5326790  75.8598800 100.0532300 107.1047000  76.3347320
  98.7095920 107.0966230  75.6372700 102.5937530 106.9348350  71.1339080
 102.7888160 107.8331800  71.4006510 101.8067400 106.7035430  71.6272030
  89.3898820 122.6161520  71.5731700  88.8646440 122.9969550  70.8693660
  89.3143400 123.2412290  72.2941410  90.7789290 108.2809120  70.1715390
  91.3082050 107.4938920  70.0423340  91.4117610 108.9600310  70.4050920
  92.9727130 108.0184260  73.2260780  92.3429870 107.3171570  73.3930910
  92.4332270 108.7788390  73.0093940  91.1506580 120.6808630  70.4527280
  90.5215460 121.1493730  71.0013110  91.2654410 119.8357850  70.8873470
 102.4796640 123.8593350  85.7212430 103.2721960 123.3642580  85.5138390
 102.7729790 124.5383490  86.3288040  96.7374340 116.5093310  58.4837750
  95.9616440 116.0293750  58.7736320  97.3887270 115.8298960  58.3093910
 100.7581770 120.9153500  57.2636880 100.2963300 120.1440740  57.5924050
 101.5707320 120.9419570  57.7689330  90.7341430 120.8553210  59.5571530
  91.0369470 119.9650950  59.3781750  91.4785020 121.4123430  59.3293780
  96.9845080 123.2011510  56.8840870  96.3656520 123.6569010  56.3135310
  97.8396860 123.3562970  56.4830570  96.1783330 119.1850500  58.4907910
  96.1091610 118.2440440  58.3297040  96.9403190 119.2751910  59.0630480
 102.8436880 121.0446830  60.6860200 102.1600400 121.7145940  60.6776870
 103.3831170 121.2427480  59.9205060 100.3795620 122.8890960  59.4005380
 100.3922780 122.4853250  58.5327640  99.8270840 123.6638250  59.2966810
 101.6741040 119.6107180  54.4895550 101.5637370 118.6681510  54.6144970
 101.6709290 119.9722820  55.3758310  99.7781060 117.7920800  60.7287990
 100.1949850 117.5780910  59.8941450 100.5020880 118.0493590  61.2996610
  93.2899660 119.4504800  58.7916980  92.9927950 118.8450270  58.1124760
  94.2399480 119.4882110  58.6806340 101.3785270 123.0236670  62.4540080
 100.9015830 123.8308860  62.2612690 100.6947060 122.3715000  62.6066290
  97.5318690 120.9775680  55.3247280  97.9714600 121.7200010  54.9102670
  97.4705580 121.2202250  56.2486240  93.0069660 122.0021510  66.2267300
  92.9785090 122.4064460  65.3595730  92.8434630 121.0731870  66.0638900
 103.0040450 107.2922420  49.6707080 102.6913110 107.3849250  50.5706150
 103.7652920 107.8703450  49.6204510 104.9584480 122.7848610  67.5231470
 105.4344200 123.2631500  68.2020550 105.5791640 122.7166100  66.7976970
  88.4055590 119.5297550  56.3459240  87.9983670 119.6712140  55.4912840
  89.2968600 119.2457710  56.1430450 104.3617730 119.9761460  64.6831480
 104.4880790 119.7373340  63.7648660 104.4039110 119.1446000  65.1553560
  98.2234470 123.6789460  63.2526290  98.7379140 123.5897470  64.0548720
  97.3803550 124.0249160  63.5454200 100.1988870 123.9644800  52.6810290
 100.0390010 123.6747740  53.5792120 100.0335580 123.1884930  52.1455520
  92.6777250 123.7443330  54.4581910  92.5019730 122.8278870  54.2449710
  91.8232990 124.1030620  54.6979710  99.4664930 123.0995070  55.3156780
  99.9221880 122.3184450  55.6295400  99.8057450 123.8101890  55.8597960
 104.2141740 112.0293920  65.6481220 103.5986010 112.5373590  65.1196680
 103.8938160 111.1292250  65.5907160  95.1045070 107.6227990  52.3913920
  94.4799250 107.6187860  53.1167230  95.0175190 106.7558950  51.9949890
  89.3510220 110.4350110  64.0583390  88.9573610 111.2825320  64.2656170
  88.6628620 109.7976480  64.2492030  86.6527270 108.3578570  58.0913470
  86.3640320 108.9281430  58.8038450  87.3973030 107.8783020  58.4544700
 102.0914900 107.2249380  65.2143370 102.4160670 106.4939040  65.7401350
 102.1271410 106.9063020  64.3124360  91.2584760 118.3409130  53.0303010
  90.4847020 117.8006750  52.8701730  91.9879390 117.8215740  52.6920770
 102.0172740 117.3374490  58.8229400 102.7371860 117.8329780  58.4325510
 101.8154560 116.6592380  58.1783270  97.4782680 108.7312450  52.9658790
  96.6647290 108.2325620  52.8904100  97.2844630 109.5710700  52.5495140
  97.3991540 117.4083550  64.7098400  97.3328850 116.4879220  64.4555990
  96.7696680 117.5058990  65.4243040  91.3022160 118.0089510  56.6681820
  91.8200830 117.2057770  56.6138710  90.8506180 117.9468650  57.5098650
 103.5419480 116.8711460  63.8070780 102.8167670 117.4640240  63.6100170
 104.0694940 116.8635000  63.0084150 103.4932590 121.2686200  53.4582940
 102.8508750 120.6141820  53.7326660 103.1063250 121.6741290  52.6823610
  99.0719070 118.5971630  57.3054630  99.4242890 117.9999760  56.6456000
  98.1881400 118.2715860  57.4762880  95.1582350 119.3569320  54.7125040
  95.8453480 119.9038530  55.0932630  94.3714770 119.9010050  54.7474650
  96.7642170 121.8721690  61.5542700  97.4084390 122.0781070  62.2316120
  97.1271610 121.1110090  61.1013550  98.0374250 119.8754040  60.2720150
  98.6796480 119.1747200  60.3852320  98.5623600 120.6552480  60.0917040
 101.8829970 120.1602660  49.9959290 101.6567550 119.4433100  50.5883930
 101.4926170 119.9115100  49.1581040  99.8111870 120.6748940  63.4756210
 100.1468110 121.2615630  64.1534130  98.8912210 120.5441650  63.7054000
  87.6646000 124.1869520  50.7703750  88.0243640 124.7858860  50.1161020
  87.5238340 124.7329410  51.5438780  87.3615270 108.4644120  64.2579620
  86.6473790 108.6641040  64.8632230  87.7810310 107.6883690  64.6294420
  89.2821260 116.7915610  52.3324180  88.6749210 117.5314510  52.3419480
  89.7570610 116.8814970  51.5062380 102.2216080 109.9123370  52.8168630
 101.5929240 110.0169040  52.1026860 101.7268000 110.1320150  53.6062510
  98.2215540 108.9159980  55.6722300  98.0983320 108.9346110  54.7231810
  99.1700100 108.9638920  55.7920700  95.3092330 124.1515280  54.9450280
  95.5633830 124.1136670  54.0229650  94.3604810 124.0248610  54.9378530
 103.0222900 109.8273980  63.0747430 102.5196500 110.5679380  63.4141240
 103.8379560 110.2157980  62.7584220  91.2926550 116.7526760  50.0812750
  92.0589820 116.6408120  50.6438180  91.3701240 116.0564730  49.4289520
  89.9873310 114.1851830  50.7645640  90.0676900 113.2379340  50.8763040
  90.8793060 114.5158710  50.8706300 103.3170490 122.2416010  58.1963050
 103.4417910 123.0647180  58.6686860 104.1836050 122.0306740  57.8487200
  90.7888020 124.3347220  57.8680180  91.5250500 123.7862680  58.1388750
  91.1728940 125.2003230  57.7286170  87.6733500 120.4020790  53.7421690
  86.7473280 120.6441930  53.7327100  88.1389930 121.2295050  53.6206440
 102.9520500 122.7347660  51.1142490 102.6662010 122.3212800  50.2996670
 102.7540050 123.6635370  50.9943010  89.5467190 114.1496340  66.8951880
  89.5872530 113.8510210  67.8037110  90.4012690 114.5503950  66.7359400
 100.3851060 117.1957900  64.6267560 100.7992080 117.3502980  65.4757980
  99.4502060 117.3213120  64.7893340 100.8573230 114.5354060  66.6306710
 101.4394000 113.7806380  66.5427190 101.0335000 115.0661500  65.8538190
  92.2204480 112.8225120  49.0013550  92.0193540 111.9592480  49.3626890
  92.0496530 112.7358480  48.0635150  92.9973710 123.4531390  63.7121220
  92.4594800 124.1777450  63.3929920  93.2507670 122.9761730  62.9218560
  99.6992790 107.6333350  51.5300430  99.9795080 106.7901250  51.8859850
  98.9258520 107.8656460  52.0439180  95.8535920 124.6882600  63.9707870
  95.7794620 125.5917740  64.2780240  94.9514760 124.3694500  63.9429940
  90.0417410 119.2268160  49.8221230  90.4792280 119.7697830  50.4778810
  90.5265140 118.4015110  49.8317570  91.8525130 120.3466200  54.9343460
  91.5520670 120.2231170  55.8347370  91.7462620 119.4874790  54.5259190
 103.3815600 122.3844780  64.3000430 102.7817590 122.4437340  63.5564350
 103.5109500 121.4449760  64.4297280 104.6217050 120.1262600  49.6370140
 103.7910010 120.1939250  50.1077370 104.7988880 121.0166720  49.3337000
 104.0773510 116.8710080  52.1404340 104.8392420 117.4406730  52.2464030
 104.0927880 116.3037280  52.9112650 105.0833480 117.7260180  56.9846270
 105.4542310 116.9427500  56.5782240 105.7235410 118.4149280  56.8063570
 102.0667240 119.1096760  62.3976590 101.2527080 119.5393920  62.6602380
 102.4741440 119.7215170  61.7845640 104.1292680 117.1644450  49.2976860
 104.4041520 118.0723330  49.1696080 103.9403420 117.1006980  50.2338850
 100.5268290 110.1889300  50.5930490 100.9453170 110.0020280  49.7527150
 100.2204350 109.3368350  50.9033420 104.0258020 115.1013440  54.2906290
 103.6501620 114.3341370  53.8587580 103.2961140 115.4836140  54.7781220
 101.8545710 109.4741390  66.7025510 102.7315890 109.4824790  67.0859510
 101.8666550 108.7372230  66.0917860 102.7908950 112.5844280  53.5305940
 103.2868070 112.3515150  54.3154820 102.5925020 111.7456120  53.1143580
  88.6709490 106.9658000  59.1656980  89.3185680 106.4155380  58.7252140
  89.0911330 107.2201150  59.9872790 105.1086380 109.0513150  49.3049760
 106.0335690 108.9194330  49.0968050 105.0862170 109.1305970  50.2586210
 105.1824870 109.8223810  51.9306470 104.3876370 109.7568930  52.4599380
 105.3868150 110.7574450  51.9191820  88.4241490 107.1213670  61.9082300
  88.0756310 107.5777490  62.6740480  88.0929190 106.2270800  61.9904730
  90.0305860 120.2933270  66.0735490  89.9875490 119.9226180  66.9549950
  90.1616870 121.2310840  66.2137310  93.7311890 121.8492860  61.6745210
  93.4903250 122.1167420  60.7875730  94.6714530 122.0198590  61.7296070
 104.9916050 123.8687240  62.4755850 104.4974330 124.2656110  61.7582980
 104.3829340 123.2436450  62.8693130  89.0962130 106.6489870  65.1833070
  89.6445120 106.4677920  64.4199180  89.1617440 105.8583980  65.7189380
 102.6755500 124.5110660  59.7542590 102.2158470 125.2626470  59.3800610
 102.0467960 123.7917130  59.6957390  93.1051220 122.8198900  58.9290720
  93.6216240 122.2086260  58.4038980  93.7548600 123.3227680  59.4201730
  95.8446720 123.7107390  59.7559700  96.1324530 123.4561690  58.8792710
  96.3569940 123.1584750  60.3465270  87.7836120 123.9228290  55.3538070
  87.6158160 123.2898970  56.0519960  86.9170630 124.1287690  55.0032260
 102.5937530 106.9348350  52.3595590 102.7888160 107.8331800  52.6263020
 101.8067400 106.7035430  52.8528540  89.3898820 122.6161520  52.7988210
  88.8646440 122.9969550  52.0950170  89.3143400 123.2412290  53.5197920
  93.0982690 107.2968240  66.8869780  92.8166960 107.8001840  66.1230600
  93.4802390 106.4989990  66.5211910  99.6998150 106.7121820  67.4650250
  99.5863600 107.0316430  68.3601770 100.5167890 107.1134330  67.1687530
  98.6056300 114.7314290  37.8284990  98.5250350 113.8168900  37.5576700
  98.1920720 115.2281360  37.1224700  96.7374340 116.5093310  39.7094260
  95.9616440 116.0293750  39.9992830  97.3887270 115.8298960  39.5350420
  90.7540170 116.8213120  40.5870020  89.9225050 116.5661830  40.9866530
  91.3621150 116.8923890  41.3227940 100.7581770 120.9153500  38.4893390
 100.2963300 120.1440740  38.8180560 101.5707320 120.9419570  38.9945840
  87.1265130 114.3820660  40.2552110  87.6981240 113.6142860  40.2555750
  87.1266670 114.6809420  39.3458720  96.9845080 123.2011510  38.1097380
  96.3656520 123.6569010  37.5391820  97.8396860 123.3562970  37.7087080
  96.1783330 119.1850500  39.7164420  96.1091610 118.2440440  39.5553550
  96.9403190 119.2751910  40.2886990  88.3690000 109.7905020  42.0421040
  88.1892840 108.8930770  42.3223800  87.9670080 110.3376890  42.7167990
  97.2088500 111.9920880  39.9433350  97.5853320 111.1192760  39.8307020
  97.1108010 112.3279580  39.0523790 100.9912620 109.4871320  36.8761690
 101.8122240 108.9967890  36.9187170 101.0246700 110.0768980  37.6293530
  88.9876670 112.2865520  40.6503380  89.6686780 112.5503890  41.2690780
  88.6724720 111.4466390  40.9841390  93.1801240 113.3332880  39.7375970
  93.6879460 113.8313850  40.3780990  93.7114480 112.5568080  39.5615330
 105.2812170 111.5038070  43.4405320 104.5764340 111.8919780  42.9220430
 105.5470090 112.1988360  44.0426250  91.4637340 107.9731440  44.0039390
  91.4655780 108.4903830  43.1985290  90.6341650 107.4961620  43.9809320
  97.8508430 118.0850750  35.5029290  97.2325700 118.5500200  34.9392010
  98.3631680 118.7778230  35.9198800  92.7140190 117.6126620  42.1812890
  92.3809570 118.2395540  42.8233960  92.8906870 118.1388500  41.4014560
 101.2274100 111.4271700  39.6489230 100.5229670 111.7156590  40.2292340
 101.5886260 112.2371810  39.2888790  91.1452670 109.6841400  42.0109840
  91.4869480 110.5283450  41.7163710  90.2068480 109.8325140  42.1275180
  91.9259290 119.5807420  43.9962070  92.5433290 120.2558500  43.7146520
  91.0652410 119.9895400  43.9049570 102.8436880 121.0446830  41.9116710
 102.1600400 121.7145940  41.9033380 103.3831170 121.2427480  41.1461570
 104.2961020 110.8726490  40.0398440 103.3485930 110.9065470  40.1713870
 104.6211010 111.6865440  40.4247800 100.3795620 122.8890960  40.6261890
 100.3922780 122.4853250  39.7584150  99.8270840 123.6638250  40.5223320
 101.6741040 119.6107180  35.7152060 101.5637370 118.6681510  35.8401480
 101.6709290 119.9722820  36.6014820  99.7781060 117.7920800  41.9544500
 100.1949850 117.5780910  41.1197960 100.5020880 118.0493590  42.5253120
  97.2161320 115.2372500  35.0714550  96.2890600 115.1709880  35.3003020
  97.3686140 116.1752630  34.9569790 103.7243160 116.1908020  42.0460740
 102.8961790 116.2601110  41.5710870 104.3193640 116.7762330  41.5776570
 101.2458610 116.7992800  35.5749800 100.6271030 116.4612350  34.9276100
 101.2283060 116.1552560  36.2828990 100.6885170 112.9777340  42.9915610
 100.2756350 113.8031050  43.2455600  99.9561120 112.3922380  42.7991970
  92.8217960 115.7637240  37.8534280  92.4174960 115.0514490  37.3580180
  92.9081080 115.4190480  38.7422320  93.2899660 119.4504800  40.0173490
  92.9927950 118.8450270  39.3381270  94.2399480 119.4882110  39.9062850
  91.5346580 112.5380450  41.6333320  92.0861170 112.6475790  40.8586570
  92.0490090 112.9118050  42.3488550  99.4223310 116.0379610  32.5822550
  99.8616590 115.2002040  32.4360370 100.1351730 116.6709010  32.6686690
  91.2089310 116.0599810  45.2438660  91.0697080 116.9322610  45.6126060
  90.3270670 115.7172620  45.0986600  97.5318690 120.9775680  36.5503790
  97.9714600 121.7200010  36.1359180  97.4705580 121.2202250  37.4742750
 103.0040450 107.2922420  30.8963590 102.6913110 107.3849250  31.7962660
 103.7652920 107.8703450  30.8461020 104.9584480 122.7848610  48.7487980
 105.4344200 123.2631500  49.4277060 105.5791640 122.7166100  48.0233480
  87.1607960 117.8297360  41.1609570  87.2388380 117.9646130  40.2165290
  87.7749640 117.1213250  41.3537690 104.3617730 119.9761460  45.9087990
 104.4880790 119.7373340  44.9905170 104.4039110 119.1446000  46.3810070
 100.1988870 123.9644800  33.9066800 100.0390010 123.6747740  34.8048630
 100.0335580 123.1884930  33.3712030  99.9015000 121.4732360  32.4664800
  99.2080160 121.4709650  31.8067080 100.6437860 121.0491680  32.0358970
  99.4664930 123.0995070  36.5413290  99.9221880 122.3184450  36.8551910
  99.8057450 123.8101890  37.0854470 104.2141740 112.0293920  46.8737730
 103.5986010 112.5373590  46.3453190 103.8938160 111.1292250  46.8163670
  87.2167480 118.8711530  43.7004030  87.3798520 118.4016890  42.8823400
  87.6819930 118.3635090  44.3652870  96.2756060 110.8685810  44.3399920
  95.8135430 111.0768830  45.1519860  95.8734170 110.0545160  44.0370590
 101.2760570 112.0894760  45.4696580 100.4254160 111.7900510  45.7905650
 101.1162360 112.3336770  44.5580400  98.3710280 113.5896510  47.5695370
  98.6963690 112.7560260  47.2297600  99.1590610 114.1125030  47.7173700
  99.0098230 113.1314230  35.0636500  98.4107120 113.8550030  34.8800120
  99.5577840 113.0691010  34.2812950  94.2199680 114.0236440  47.1306120
  94.1243280 113.0831170  46.9806520  95.0631660 114.2451510  46.7354190
  97.6163100 111.7677770  37.0939780  98.0092670 112.0849970  36.2808470
  97.9779950 110.8889650  37.2084300  89.3510220 110.4350110  45.2839900
  88.9573610 111.2825320  45.4912680  88.6628620 109.7976480  45.4748540
  95.9255270 110.5185080  48.3536640  95.2353590 110.3257280  48.9882730
  96.6687570 110.8019720  48.8860940  86.6527270 108.3578570  39.3169980
  86.3640320 108.9281430  40.0294960  87.3973030 107.8783020  39.6801210
  86.8397500 112.2998690  30.5272700  86.7572170 113.2429450  30.6687690
  86.4880560 112.1573600  29.6485050  98.2018240 114.3583520  41.1890560
  97.4699360 114.8670330  41.5380660  97.8042580 113.5413500  40.8879340
  94.6395630 111.0337720  39.5943050  94.6431690 110.5927670  38.7447590
  95.5346750 111.3555050  39.7014870  94.7015780 112.0349800  32.5849810
  94.8228600 111.9936280  33.5335630  94.3164290 112.8973950  32.4296540
  98.6644150 109.8117200  40.6013500  98.6816890 110.2625850  41.4455350
  98.4159730 108.9122840  40.8146940 102.0914900 107.2249380  46.4399880
 102.4160670 106.4939040  46.9657860 102.1271410 106.9063020  45.5380870
  88.7906460 118.2462960  45.8599840  88.4061250 117.6056630  46.4582800
  89.1018650 118.9499080  46.4294570  94.9403600 115.0939500  41.3408460
  95.3073730 114.6198070  42.0869800  94.7508660 115.9681070  41.6816800
  92.7302970 114.1348140  43.6592670  92.4260040 115.0140120  43.8843030
  93.6849430 114.1947930  43.6950110 102.0172740 117.3374490  40.0485910
 102.7371860 117.8329780  39.6582020 101.8154560 116.6592380  39.4039780
  97.4782680 108.7312450  34.1915300  96.6647290 108.2325620  34.1160610
  97.2844630 109.5710700  33.7751650 100.1931070 113.1032100  32.4877460
 101.0810690 113.4149330  32.3128800 100.1636160 112.2304350  32.0958040
  96.1891660 119.2755790  33.1665630  96.5307360 120.0198020  32.6708950
  95.3604370 119.5886910  33.5290460  88.7866700 114.9750880  44.8064030
  88.4281640 115.6404730  45.3937370  88.4921260 114.1434430  45.1776650
  91.9879820 115.4335120  47.6903580  91.6879960 115.5792300  46.7931400
  92.7591060 114.8740410  47.5976970 102.4645340 114.4143940  31.9557320
 102.3809060 114.8458160  31.1053760 103.1839530 114.8742290  32.3884140
 103.5419480 116.8711460  45.0327290 102.8167670 117.4640240  44.8356680
 104.0694940 116.8635000  44.2340660 103.4932590 121.2686200  34.6839450
 102.8508750 120.6141820  34.9583170 103.1063250 121.6741290  33.9080120
  99.0719070 118.5971630  38.5311140  99.4242890 117.9999760  37.8712510
  98.1881400 118.2715860  38.7019390  95.1582350 119.3569320  35.9381550
  95.8453480 119.9038530  36.3189140  94.3714770 119.9010050  35.9731160
  94.4609560 116.3615350  35.5506910  94.9172340 117.1720600  35.7767100
  94.1097770 116.0438490  36.3825400 101.8829970 120.1602660  31.2215800
 101.6567550 119.4433100  31.8140440 101.4926170 119.9115100  30.3837550
  87.3615270 108.4644120  45.4836130  86.6473790 108.6641040  46.0888740
  87.7810310 107.6883690  45.8550930 101.4646220 118.0774600  32.8829960
 101.1767920 118.5387290  33.6707840 102.2598390 117.6172370  33.1514180
  87.6487860 122.4524380  46.4702660  87.7578980 121.5119120  46.3298050
  86.9968420 122.7179130  45.8216390  93.6814620 121.5700720  32.8133930
  93.6724720 122.3030410  32.1978440  92.7612980 121.3232300  32.9060890
  98.8554050 110.9566430  43.2337580  99.2234870 110.1361640  43.5617150
  97.9952250 111.0168320  43.6493230 102.2216080 109.9123370  34.0425140
 101.5929240 110.0169040  33.3283370 101.7268000 110.1320150  34.8319020
  96.6674220 121.6328960  31.4759120  96.7686200 121.4292950  30.5461100
  95.7675960 121.3787240  31.6806900  94.1900110 112.1909320  35.4583020
  93.4816260 112.6595660  35.8996630  94.4744590 111.5331330  36.0928210
  95.8156040 113.6106020  43.4575550  96.3141290 114.0851840  44.1227400
  95.9578990 112.6869540  43.6645580  98.2215540 108.9159980  36.8978810
  98.0983320 108.9346110  35.9488320  99.1700100 108.9638920  37.0177210
  95.3092330 124.1515280  36.1706790  95.5633830 124.1136670  35.2486160
  94.3604810 124.0248610  36.1635040  92.3935130 110.4994400  32.8333730
  93.2425660 110.9364550  32.7673920  92.0266400 110.8114660  33.6605790
 103.0222900 109.8273980  44.3003940 102.5196500 110.5679380  44.6397750
 103.8379560 110.2157980  43.9840730 101.3144910 115.0707160  37.7465300
 100.3735050 115.0857390  37.9212990 101.6288980 114.2843120  38.1925600
 103.3170490 122.2416010  39.4219560 103.4417910 123.0647180  39.8943370
 104.1836050 122.0306740  39.0743710  89.7946300 123.5193290  48.2822270
  90.5959030 123.8405340  48.6957670  89.2798120 123.1588870  49.0042180
  93.8990330 123.5077530  30.9162260  94.6918940 123.7966360  30.4644050
  93.3794680 123.0769700  30.2374740 102.9520500 122.7347660  32.3399000
 102.6662010 122.3212800  31.5253180 102.7540050 123.6635370  32.2199520
  87.5144110 116.0066750  47.2258320  88.0183130 115.4274030  47.7974550
  86.7751530 116.2906980  47.7634690  94.4167730 118.7280940  30.7804610
  94.3118370 118.1133290  31.5065990  94.2491950 118.2046830  29.9967620
  97.6570460 117.7900970  31.3846600  97.1080560 118.2370270  32.0289340
  98.2789720 117.2850220  31.9084270 101.7105400 119.1443070  47.3168860
 102.4514870 119.4818830  46.8136320 100.9478080 119.3135130  46.7638630
  89.5467190 114.1496340  48.1208390  89.5872530 113.8510210  49.0293620
  90.4012690 114.5503950  47.9615910  91.4873000 112.7288440  46.0882880
  90.9569460 112.2379390  45.4606220  92.1561070 113.1572640  45.5540810
  95.8373220 115.7729500  30.5289000  96.3578880 115.0578520  30.1630150
  96.4841620 116.4115370  30.8289510 100.3851060 117.1957900  45.8524070
 100.7992080 117.3502980  46.7014490  99.4502060 117.3213120  46.0149850
 100.8573230 114.5354060  47.8563220 101.4394000 113.7806380  47.7683700
 101.0335000 115.0661500  47.0794700  91.9745300 109.6950810  46.1680170
  91.8802170 109.0771560  45.4431040  91.3942690 110.4217100  45.9410080
  95.1466290 117.1478380  43.8220000  95.5654400 117.9911110  43.6496240
  94.2274920 117.2850420  43.5926780  97.4830190 114.8794560  45.2057840
  97.6026400 114.2835700  45.9452680  98.3424190 114.9164250  44.7859140
  99.8218090 115.4331750  43.7820350  99.2953310 115.9574370  43.1785490
 100.1649430 116.0659140  44.4130080  94.2498960 111.4215910  46.4633660
  94.8398650 111.1131760  47.1511480  93.4319200 110.9495660  46.6193560
  99.0692390 111.0381720  46.6966680  98.3807910 110.3763260  46.6316670
  99.7898410 110.5919990  47.1415140  99.6992790 107.6333350  32.7556940
  99.9795080 106.7901250  33.1116360  98.9258520 107.8656460  33.2695690
  96.4021250 123.8541110  32.8190740  97.2972040 124.1926080  32.8409500
  96.4338880 123.1320520  32.1915020 103.3815600 122.3844780  45.5256940
 102.7817590 122.4437340  44.7820860 103.5109500 121.4449760  45.6553790
 104.6217050 120.1262600  30.8626650 103.7910010 120.1939250  31.3333880
 104.7988880 121.0166720  30.5593510 104.0773510 116.8710080  33.3660850
 104.8392420 117.4406730  33.4720540 104.0927880 116.3037280  34.1369160
 105.0833480 117.7260180  38.2102780 105.4542310 116.9427500  37.8038750
 105.7235410 118.4149280  38.0320080 102.0667240 119.1096760  43.6233100
 101.2527080 119.5393920  43.8858890 102.4741440 119.7215170  43.0102150
 104.1292680 117.1644450  30.5233370 104.4041520 118.0723330  30.3952590
 103.9403420 117.1006980  31.4595360 100.5268290 110.1889300  31.8187000
 100.9453170 110.0020280  30.9783660 100.2204350 109.3368350  32.1289930
 104.0258020 115.1013440  35.5162800 103.6501620 114.3341370  35.0844090
 103.2961140 115.4836140  36.0037730  88.6153780 115.7800580  42.1371850
  88.9826820 115.6927980  43.0167870  88.0464600 115.0167130  42.0378710
 103.4157640 114.2484960  45.1502320 103.1843730 114.0197710  44.2500270
 103.6762190 115.1684510  45.1047210  88.1669780 112.6909670  46.0430270
  87.2725830 112.6576430  46.3823980  88.7067330 112.8896460  46.8081520
 101.8545710 109.4741390  47.9282020 102.7315890 109.4824790  48.3116020
 101.8666550 108.7372230  47.3174370 103.3008980 113.3270930  38.8170040
 103.8246460 112.8333580  38.1860210 103.8868400 113.4621290  39.5617610
 103.4798700 113.4110800  42.3389590 102.5301410 113.3774340  42.4534580
 103.6611710 114.3210910  42.1039360  89.3343140 111.6612480  31.4488220
  90.0434840 111.2395700  30.9635500  88.6183080 111.7287710  30.8171570
  88.9817300 107.7151810  30.4890870  89.7045430 108.2560750  30.8072090
  89.2541820 107.4415230  29.6132410 102.7908950 112.5844280  34.7562450
 103.2868070 112.3515150  35.5411330 102.5925020 111.7456120  34.3400090
 104.2196110 111.2205230  37.2900130 104.1095390 111.0661270  38.2282400
 104.9803700 110.6926170  37.0475540 102.5661830 107.1599360  43.7483130
 103.2034050 107.7733500  44.1142320 102.7136720 107.1960020  42.8032360
 105.1086380 109.0513150  30.5306270 106.0335690 108.9194330  30.3224560
 105.0862170 109.1305970  31.4842720 105.1824870 109.8223810  33.1562980
 104.3876370 109.7568930  33.6855890 105.3868150 110.7574450  33.1448330
 102.1243290 123.8615360  37.1501370 102.7202360 123.5399930  36.4735790
 102.3821440 123.3887180  37.9414640  88.4241490 107.1213670  43.1338810
  88.0756310 107.5777490  43.8996990  88.0929190 106.2270800  43.2161240
 104.9916050 123.8687240  43.7012360 104.4974330 124.2656110  42.9839490
 104.3829340 123.2436450  44.0949640 100.2220890 108.7398620  44.0061530
  99.8934250 107.9250380  43.6263260 101.1703190 108.6968430  43.8827220
 102.6755500 124.5110660  40.9799100 102.2158470 125.2626470  40.6057120
 102.0467960 123.7917130  40.9213900  97.0623730 107.4497590  41.5612720
  96.2795520 107.9243090  41.8409480  96.7686660 106.5452420  41.4525900
 101.6144800 108.1520690  39.6061810 102.0552890 108.0965790  38.7583410
 101.3452390 109.0678700  39.6771990 103.4783370 107.7835930  37.6170630
 103.4171770 106.8397150  37.4701650 104.2575400 107.8916020  38.1624090
  99.4502930 106.5326790  38.3111820 100.0532300 107.1047000  38.7860340
  98.7095920 107.0966230  38.0885720 102.5937530 106.9348350  33.5852100
 102.7888160 107.8331800  33.8519530 101.8067400 106.7035430  34.0785050
 104.1464140 124.1749060  35.3458660 104.3216330 123.4886800  34.7019580
 103.4485710 124.6996110  34.9535330  99.6998150 106.7121820  48.6906760
  99.5863600 107.0316430  49.5858280 100.5167890 107.1134330  48.3944040
 102.4796640 123.8593350  48.1725450 103.2721960 123.3642580  47.9651410
 102.7729790 124.5383490  48.7801060  98.6056300 114.7314290  19.0541500
  98.5250350 113.8168900  18.7833210  98.1920720 115.2281360  18.3481210
  96.7374340 116.5093310  20.9350770  95.9616440 116.0293750  21.2249340
  97.3887270 115.8298960  20.7606930  90.7540170 116.8213120  21.8126530
  89.9225050 116.5661830  22.2123040  91.3621150 116.8923890  22.5484450
 100.7581770 120.9153500  19.7149900 100.2963300 120.1440740  20.0437070
 101.5707320 120.9419570  20.2202350  90.7341430 120.8553210  22.0084550
  91.0369470 119.9650950  21.8294770  91.4785020 121.4123430  21.7806800
  89.1632120 111.7815010  15.5968920  88.2748820 112.1230980  15.4948800
  89.4473310 111.5815330  14.7049750  87.1265130 114.3820660  21.4808620
  87.6981240 113.6142860  21.4812260  87.1266670 114.6809420  20.5715230
  96.9845080 123.2011510  19.3353890  96.3656520 123.6569010  18.7648330
  97.8396860 123.3562970  18.9343590  96.1783330 119.1850500  20.9420930
  96.1091610 118.2440440  20.7810060  96.9403190 119.2751910  21.5143500
  97.2088500 111.9920880  21.1689860  97.5853320 111.1192760  21.0563530
  97.1108010 112.3279580  20.2780300  91.3393510 110.3646510  16.6307300
  91.4460260 111.2650240  16.9376060  90.4285870 110.3164480  16.3401950
 100.9912620 109.4871320  18.1018200 101.8122240 108.9967890  18.1443680
 101.0246700 110.0768980  18.8550040  88.9876670 112.2865520  21.8759890
  89.6686780 112.5503890  22.4947290  88.6724720 111.4466390  22.2097900
  93.1801240 113.3332880  20.9632480  93.6879460 113.8313850  21.6037500
  93.7114480 112.5568080  20.7871840 105.2812170 111.5038070  24.6661830
 104.5764340 111.8919780  24.1476940 105.5470090 112.1988360  25.2682760
  91.4637340 107.9731440  25.2295900  91.4655780 108.4903830  24.4241800
  90.6341650 107.4961620  25.2065830  97.8508430 118.0850750  16.7285800
  97.2325700 118.5500200  16.1648520  98.3631680 118.7778230  17.1455310
  92.7140190 117.6126620  23.4069400  92.3809570 118.2395540  24.0490470
  92.8906870 118.1388500  22.6271070 101.2274100 111.4271700  20.8745740
 100.5229670 111.7156590  21.4548850 101.5886260 112.2371810  20.5145300
  91.9259290 119.5807420  25.2218580  92.5433290 120.2558500  24.9403030
  91.0652410 119.9895400  25.1306080  87.2191630 118.7707280  14.1025430
  86.8419610 119.2594380  13.3710330  87.4764700 119.4432560  14.7331960
 102.8436880 121.0446830  23.1373220 102.1600400 121.7145940  23.1289890
 103.3831170 121.2427480  22.3718080 104.2961020 110.8726490  21.2654950
 103.3485930 110.9065470  21.3970380 104.6211010 111.6865440  21.6504310
 100.3795620 122.8890960  21.8518400 100.3922780 122.4853250  20.9840660
  99.8270840 123.6638250  21.7479830 101.6741040 119.6107180  16.9408570
 101.5637370 118.6681510  17.0657990 101.6709290 119.9722820  17.8271330
  99.7781060 117.7920800  23.1801010 100.1949850 117.5780910  22.3454470
 100.5020880 118.0493590  23.7509630  97.2161320 115.2372500  16.2971060
  96.2890600 115.1709880  16.5259530  97.3686140 116.1752630  16.1826300
  97.2030400 111.5089500  13.2938220  96.2634070 111.6703460  13.3790680
  97.5213660 112.2275180  12.7474210 103.7243160 116.1908020  23.2717250
 102.8961790 116.2601110  22.7967380 104.3193640 116.7762330  22.8033080
 101.2458610 116.7992800  16.8006310 100.6271030 116.4612350  16.1532610
 101.2283060 116.1552560  17.5085500 100.6885170 112.9777340  24.2172120
 100.2756350 113.8031050  24.4712110  99.9561120 112.3922380  24.0248480
  92.8217960 115.7637240  19.0790790  92.4174960 115.0514490  18.5836690
  92.9081080 115.4190480  19.9678830  93.2899660 119.4504800  21.2430000
  92.9927950 118.8450270  20.5637780  94.2399480 119.4882110  21.1319360
  91.5346580 112.5380450  22.8589830  92.0861170 112.6475790  22.0843080
  92.0490090 112.9118050  23.5745060 101.3785270 123.0236670  24.9053100
 100.9015830 123.8308860  24.7125710 100.6947060 122.3715000  25.0579310
  92.3818090 119.1886490  27.8937800  91.4846620 119.4126460  28.1411200
  92.4070960 119.3121430  26.9449200  99.4223310 116.0379610  13.8079060
  99.8616590 115.2002040  13.6616880 100.1351730 116.6709010  13.8943200
  91.2089310 116.0599810  26.4695170  91.0697080 116.9322610  26.8382570
  90.3270670 115.7172620  26.3243110  97.5318690 120.9775680  17.7760300
  97.9714600 121.7200010  17.3615690  97.4705580 121.2202250  18.6999260
  93.0069660 122.0021510  28.6780320  92.9785090 122.4064460  27.8108750
  92.8434630 121.0731870  28.5151920 103.0040450 107.2922420  12.1220100
 102.6913110 107.3849250  13.0219170 103.7652920 107.8703450  12.0717530
  89.5222590 114.6582220  16.5797440  89.4020190 115.3844310  15.9678710
  89.2123480 113.8885130  16.1025350 104.9584480 122.7848610  29.9744490
 105.4344200 123.2631500  30.6533570 105.5791640 122.7166100  29.2489990
  87.1607960 117.8297360  22.3866080  87.2388380 117.9646130  21.4421800
  87.7749640 117.1213250  22.5794200  88.4055590 119.5297550  18.7972260
  87.9983670 119.6712140  17.9425860  89.2968600 119.2457710  18.5943470
 104.3617730 119.9761460  27.1344500 104.4880790 119.7373340  26.2161680
 104.4039110 119.1446000  27.6066580  98.2234470 123.6789460  25.7039310
  98.7379140 123.5897470  26.5061740  97.3803550 124.0249160  25.9967220
 100.1988870 123.9644800  15.1323310 100.0390010 123.6747740  16.0305140
 100.0335580 123.1884930  14.5968540  92.6777250 123.7443330  16.9094930
  92.5019730 122.8278870  16.6962730  91.8232990 124.1030620  17.1492730
  99.9015000 121.4732360  13.6921310  99.2080160 121.4709650  13.0323590
 100.6437860 121.0491680  13.2615480  99.4664930 123.0995070  17.7669800
  99.9221880 122.3184450  18.0808420  99.8057450 123.8101890  18.3110980
 104.2141740 112.0293920  28.0994240 103.5986010 112.5373590  27.5709700
 103.8938160 111.1292250  28.0420180  87.2167480 118.8711530  24.9260540
  87.3798520 118.4016890  24.1079910  87.6819930 118.3635090  25.5909380
 101.2760570 112.0894760  26.6953090 100.4254160 111.7900510  27.0162160
 101.1162360 112.3336770  25.7836910  98.3710280 113.5896510  28.7951880
  98.6963690 112.7560260  28.4554110  99.1590610 114.1125030  28.9430210
  95.1045070 107.6227990  14.8426940  94.4799250 107.6187860  15.5680250
  95.0175190 106.7558950  14.4462910  91.7800470 113.1250860  17.6902360
  91.5541390 112.9088030  18.5948980  90.9993000 113.5579320  17.3448330
  99.0098230 113.1314230  16.2893010  98.4107120 113.8550030  16.1056630
  99.5577840 113.0691010  15.5069460  94.2199680 114.0236440  28.3562630
  94.1243280 113.0831170  28.2063030  95.0631660 114.2451510  27.9610700
  97.6163100 111.7677770  18.3196290  98.0092670 112.0849970  17.5064980
  97.9779950 110.8889650  18.4340810  89.3510220 110.4350110  26.5096410
  88.9573610 111.2825320  26.7169190  88.6628620 109.7976480  26.7005050
  86.8397500 112.2998690  11.7529210  86.7572170 113.2429450  11.8944200
  86.4880560 112.1573600  10.8741560  98.2018240 114.3583520  22.4147070
  97.4699360 114.8670330  22.7637170  97.8042580 113.5413500  22.1135850
  94.6395630 111.0337720  20.8199560  94.6431690 110.5927670  19.9704100
  95.5346750 111.3555050  20.9271380  90.4898010 110.9164210  19.7793770
  90.1498060 111.3939440  20.5360820  89.7275330 110.4629330  19.4194870
  94.7015780 112.0349800  13.8106320  94.8228600 111.9936280  14.7592140
  94.3164290 112.8973950  13.6553050  93.7137280 114.3450940  13.2089620
  93.1454180 113.8969190  12.5825530  94.4226280 114.7043720  12.6754770
 102.0914900 107.2249380  27.6656390 102.4160670 106.4939040  28.1914370
 102.1271410 106.9063020  26.7637380  88.7906460 118.2462960  27.0856350
  88.4061250 117.6056630  27.6839310  89.1018650 118.9499080  27.6551080
  94.9403600 115.0939500  22.5664970  95.3073730 114.6198070  23.3126310
  94.7508660 115.9681070  22.9073310  92.7302970 114.1348140  24.8849180
  92.4260040 115.0140120  25.1099540  93.6849430 114.1947930  24.9206620
  91.2584760 118.3409130  15.4816030  90.4847020 117.8006750  15.3214750
  91.9879390 117.8215740  15.1433790 102.0172740 117.3374490  21.2742420
 102.7371860 117.8329780  20.8838530 101.8154560 116.6592380  20.6296290
  97.4782680 108.7312450  15.4171810  96.6647290 108.2325620  15.3417120
  97.2844630 109.5710700  15.0008160  97.3991540 117.4083550  27.1611420
  97.3328850 116.4879220  26.9069010  96.7696680 117.5058990  27.8756060
 100.1931070 113.1032100  13.7133970 101.0810690 113.4149330  13.5385310
 100.1636160 112.2304350  13.3214550  91.3022160 118.0089510  19.1194840
  91.8200830 117.2057770  19.0651730  90.8506180 117.9468650  19.9611670
  96.1891660 119.2755790  14.3922140  96.5307360 120.0198020  13.8965460
  95.3604370 119.5886910  14.7546970  88.7866700 114.9750880  26.0320540
  88.4281640 115.6404730  26.6193880  88.4921260 114.1434430  26.4033160
  91.9879820 115.4335120  28.9160090  91.6879960 115.5792300  28.0187910
  92.7591060 114.8740410  28.8233480  97.3308270 120.2304120  26.9115220
  97.3452810 119.2985080  26.6934130  96.6233370 120.3163880  27.5504990
 102.4645340 114.4143940  13.1813830 102.3809060 114.8458160  12.3310270
 103.1839530 114.8742290  13.6140650 103.5419480 116.8711460  26.2583800
 102.8167670 117.4640240  26.0613190 104.0694940 116.8635000  25.4597170
 103.4932590 121.2686200  15.9095960 102.8508750 120.6141820  16.1839680
 103.1063250 121.6741290  15.1336630  99.0719070 118.5971630  19.7567650
  99.4242890 117.9999760  19.0969020  98.1881400 118.2715860  19.9275900
  95.1582350 119.3569320  17.1638060  95.8453480 119.9038530  17.5445650
  94.3714770 119.9010050  17.1987670  87.2974750 114.9742140  12.6555140
  88.1669600 115.2566940  12.9391060  86.8065070 115.7878010  12.5403950
  94.4609560 116.3615350  16.7763420  94.9172340 117.1720600  17.0023610
  94.1097770 116.0438490  17.6081910  96.7642170 121.8721690  24.0055720
  97.4084390 122.0781070  24.6829140  97.1271610 121.1110090  23.5526570
  98.0374250 119.8754040  22.7233170  98.6796480 119.1747200  22.8365340
  98.5623600 120.6552480  22.5430060 101.8829970 120.1602660  12.4472310
 101.6567550 119.4433100  13.0396950 101.4926170 119.9115100  11.6094060
  99.8111870 120.6748940  25.9269230 100.1468110 121.2615630  26.6047150
  98.8912210 120.5441650  26.1567020  87.6646000 124.1869520  13.2216770
  88.0243640 124.7858860  12.5674040  87.5238340 124.7329410  13.9951800
  87.3615270 108.4644120  26.7092640  86.6473790 108.6641040  27.3145250
  87.7810310 107.6883690  27.0807440 101.4646220 118.0774600  14.1086470
 101.1767920 118.5387290  14.8964350 102.2598390 117.6172370  14.3770690
  87.6487860 122.4524380  27.6959170  87.7578980 121.5119120  27.5554560
  86.9968420 122.7179130  27.0472900  95.6400450 120.7240270  29.0957290
  95.3197320 120.0049510  29.6402980  94.9658810 121.3995340  29.1693350
  93.6814620 121.5700720  14.0390440  93.6724720 122.3030410  13.4234950
  92.7612980 121.3232300  14.1317400  89.2821260 116.7915610  14.7837200
  88.6749210 117.5314510  14.7932500  89.7570610 116.8814970  13.9575400
  98.8554050 110.9566430  24.4594090  99.2234870 110.1361640  24.7873660
  97.9952250 111.0168320  24.8749740 102.2216080 109.9123370  15.2681650
 101.5929240 110.0169040  14.5539880 101.7268000 110.1320150  16.0575530
  96.6674220 121.6328960  12.7015630  96.7686200 121.4292950  11.7717610
  95.7675960 121.3787240  12.9063410  94.1900110 112.1909320  16.6839530
  93.4816260 112.6595660  17.1253140  94.4744590 111.5331330  17.3184720
  95.8156040 113.6106020  24.6832060  96.3141290 114.0851840  25.3483910
  95.9578990 112.6869540  24.8902090  98.2215540 108.9159980  18.1235320
  98.0983320 108.9346110  17.1744830  99.1700100 108.9638920  18.2433720
  95.3092330 124.1515280  17.3963300  95.5633830 124.1136670  16.4742670
  94.3604810 124.0248610  17.3891550  92.3935130 110.4994400  14.0590240
  93.2425660 110.9364550  13.9930430  92.0266400 110.8114660  14.8862300
 103.0222900 109.8273980  25.5260450 102.5196500 110.5679380  25.8654260
 103.8379560 110.2157980  25.2097240 101.3144910 115.0707160  18.9721810
 100.3735050 115.0857390  19.1469500 101.6288980 114.2843120  19.4182110
  91.2926550 116.7526760  12.5325770  92.0589820 116.6408120  13.0951200
  91.3701240 116.0564730  11.8802540  89.9873310 114.1851830  13.2158660
  90.0676900 113.2379340  13.3276060  90.8793060 114.5158710  13.3219320
 103.3170490 122.2416010  20.6476070 103.4417910 123.0647180  21.1199880
 104.1836050 122.0306740  20.3000220  90.7888020 124.3347220  20.3193200
  91.5250500 123.7862680  20.5901770  91.1728940 125.2003230  20.1799190
  87.6733500 120.4020790  16.1934710  86.7473280 120.6441930  16.1840120
  88.1389930 121.2295050  16.0719460  89.7946300 123.5193290  29.5078780
  90.5959030 123.8405340  29.9214180  89.2798120 123.1588870  30.2298690
  93.8990330 123.5077530  12.1418770  94.6918940 123.7966360  11.6900560
  93.3794680 123.0769700  11.4631250  98.6310930 119.6273160  29.4554190
  98.0249090 119.6504760  28.7149940  98.3265040 118.8956200  29.9921440
 100.0611300 123.3553450  28.0663600 101.0133050 123.2711470  28.0163840
  99.9139520 124.0195160  28.7397390 102.9520500 122.7347660  13.5655510
 102.6662010 122.3212800  12.7509690 102.7540050 123.6635370  13.4456030
  87.5144110 116.0066750  28.4514830  88.0183130 115.4274030  29.0231060
  86.7751530 116.2906980  28.9891200  94.4167730 118.7280940  12.0061120
  94.3118370 118.1133290  12.7322500  94.2491950 118.2046830  11.2224130
  94.5682050 117.4137740  27.9850350  93.8027720 117.9822740  27.9005020
  94.7498010 117.1213950  27.0918580  97.6570460 117.7900970  12.6103110
  97.1080560 118.2370270  13.2545850  98.2789720 117.2850220  13.1340780
 101.7105400 119.1443070  28.5425370 102.4514870 119.4818830  28.0392830
 100.9478080 119.3135130  27.9895140  93.3245580 116.7491890  14.5068410
  93.7462000 116.5831760  15.3499800  93.4496420 115.9392120  14.0123550
  91.4873000 112.7288440  27.3139390  90.9569460 112.2379390  26.6862730
  92.1561070 113.1572640  26.7797320  95.8373220 115.7729500  11.7545510
  96.3578880 115.0578520  11.3886660  96.4841620 116.4115370  12.0546020
 100.3851060 117.1957900  27.0780580 100.7992080 117.3502980  27.9271000
  99.4502060 117.3213120  27.2406360 100.8573230 114.5354060  29.0819730
 101.4394000 113.7806380  28.9940210 101.0335000 115.0661500  28.3051210
  95.1466290 117.1478380  25.0476510  95.5654400 117.9911110  24.8752750
  94.2274920 117.2850420  24.8183290  97.4830190 114.8794560  26.4314350
  97.6026400 114.2835700  27.1709190  98.3424190 114.9164250  26.0115650
  99.8218090 115.4331750  25.0076860  99.2953310 115.9574370  24.4042000
 100.1649430 116.0659140  25.6386590  92.2204480 112.8225120  11.4526570
  92.0193540 111.9592480  11.8139910  92.0496530 112.7358480  10.5148170
  92.9973710 123.4531390  26.1634240  92.4594800 124.1777450  25.8442940
  93.2507670 122.9761730  25.3731580  99.6992790 107.6333350  13.9813450
  99.9795080 106.7901250  14.3372870  98.9258520 107.8656460  14.4952200
  91.0187280 109.9225740  11.4404450  91.3213180 109.9293170  10.5323600
  91.7581870 109.5723600  11.9372110  95.8535920 124.6882600  26.4220890
  95.7794620 125.5917740  26.7293260  94.9514760 124.3694500  26.3942960
  94.2372210 108.8660360  12.4260650  93.8894210 108.1884350  11.8463100
  94.4384980 108.4049870  13.2404040  96.4021250 123.8541110  14.0447250
  97.2972040 124.1926080  14.0666010  96.4338880 123.1320520  13.4171530
  90.0417410 119.2268160  12.2734250  90.4792280 119.7697830  12.9291830
  90.5265140 118.4015110  12.2830590  87.2563210 122.0157190  19.7254510
  87.5866220 121.1478250  19.4933150  87.6854210 122.2215710  20.5559470
  91.8525130 120.3466200  17.3856480  91.5520670 120.2231170  18.2860390
  91.7462620 119.4874790  16.9772210  87.7453420 122.8827780  22.4636140
  87.3084410 123.0628580  23.2960290  88.3131100 123.6402400  22.3217860
 103.3815600 122.3844780  26.7513450 102.7817590 122.4437340  26.0077370
 103.5109500 121.4449760  26.8810300 104.6217050 120.1262600  12.0883160
 103.7910010 120.1939250  12.5590390 104.7988880 121.0166720  11.7850020
 104.0773510 116.8710080  14.5917360 104.8392420 117.4406730  14.6977050
 104.0927880 116.3037280  15.3625670  87.5777850 115.3948010  18.8225020
  86.9226690 115.1259650  18.1784720  88.4155800 115.2852490  18.3727000
 105.0833480 117.7260180  19.4359290 105.4542310 116.9427500  19.0295260
 105.7235410 118.4149280  19.2576590 102.0667240 119.1096760  24.8489610
 101.2527080 119.5393920  25.1115400 102.4741440 119.7215170  24.2358660
 104.1292680 117.1644450  11.7489880 104.4041520 118.0723330  11.6209100
 103.9403420 117.1006980  12.6851870 100.5268290 110.1889300  13.0443510
 100.9453170 110.0020280  12.2040170 100.2204350 109.3368350  13.3546440
 104.0258020 115.1013440  16.7419310 103.6501620 114.3341370  16.3100600
 103.2961140 115.4836140  17.2294240  88.6153780 115.7800580  23.3628360
  88.9826820 115.6927980  24.2424380  88.0464600 115.0167130  23.2635220
 103.4157640 114.2484960  26.3758830 103.1843730 114.0197710  25.4756780
 103.6762190 115.1684510  26.3303720  88.1669780 112.6909670  27.2686780
  87.2725830 112.6576430  27.6080490  88.7067330 112.8896460  28.0338030
 101.8545710 109.4741390  29.1538530 102.7315890 109.4824790  29.5372530
 101.8666550 108.7372230  28.5430880  86.7915930 112.6046940  14.7650350
  85.8880010 112.8677140  14.5902010  87.2756550 112.8758110  13.9850310
 103.3008980 113.3270930  20.0426550 103.8246460 112.8333580  19.4116720
 103.8868400 113.4621290  20.7874120 103.4798700 113.4110800  23.5646100
 102.5301410 113.3774340  23.6791090 103.6611710 114.3210910  23.3295870
  89.3343140 111.6612480  12.6744730  90.0434840 111.2395700  12.1892010
  88.6183080 111.7287710  12.0428080  88.9817300 107.7151810  11.7147380
  89.7045430 108.2560750  12.0328600  89.2541820 107.4415230  10.8388920
 102.7908950 112.5844280  15.9818960 103.2868070 112.3515150  16.7667840
 102.5925020 111.7456120  15.5656600 104.2196110 111.2205230  18.5156640
 104.1095390 111.0661270  19.4538910 104.9803700 110.6926170  18.2732050
 102.5661830 107.1599360  24.9739640 103.2034050 107.7733500  25.3398830
 102.7136720 107.1960020  24.0288870 105.1086380 109.0513150  11.7562780
 106.0335690 108.9194330  11.5481070 105.0862170 109.1305970  12.7099230
 105.1824870 109.8223810  14.3819490 104.3876370 109.7568930  14.9112400
 105.3868150 110.7574450  14.3704840 102.1243290 123.8615360  18.3757880
 102.7202360 123.5399930  17.6992300 102.3821440 123.3887180  19.1671150
  90.0305860 120.2933270  28.5248510  89.9875490 119.9226180  29.4062970
  90.1616870 121.2310840  28.6650330  93.7311890 121.8492860  24.1258230
  93.4903250 122.1167420  23.2388750  94.6714530 122.0198590  24.1809090
 104.9916050 123.8687240  24.9268870 104.4974330 124.2656110  24.2096000
 104.3829340 123.2436450  25.3206150  89.0962130 106.6489870  27.6346090
  89.6445120 106.4677920  26.8712200  89.1617440 105.8583980  28.1702400
  89.8693890 123.2395520  25.6446290  89.2754210 123.1080220  26.3836330
  89.8617730 122.4033660  25.1788390 102.6755500 124.5110660  22.2055610
 102.2158470 125.2626470  21.8313630 102.0467960 123.7917130  22.1470410
  89.5006120 120.6053900  24.5954330  88.7740180 119.9859190  24.5280280
  89.5615270 120.9994510  23.7252410  93.1051220 122.8198900  21.3803740
  93.6216240 122.2086260  20.8552000  93.7548600 123.3227680  21.8714750
  95.8446720 123.7107390  22.2072720  96.1324530 123.4561690  21.3305730
  96.3569940 123.1584750  22.7978290 101.6144800 108.1520690  20.8318320
 102.0552890 108.0965790  19.9839920 101.3452390 109.0678700  20.9028500
 103.4783370 107.7835930  18.8427140 103.4171770 106.8397150  18.6958160
 104.2575400 107.8916020  19.3880600  87.7836120 123.9228290  17.8051090
  87.6158160 123.2898970  18.5032980  86.9170630 124.1287690  17.4545280
  88.4064140 107.7545070  15.3082950  89.1643500 107.8673950  14.7346980
  87.9441310 108.5914270  15.2626380  94.9477950 109.8684340  18.2985260
  94.1352460 109.4941230  17.9581140  95.4519590 109.1129420  18.6006450
 102.5937530 106.9348350  14.8108610 102.7888160 107.8331800  15.0776040
 101.8067400 106.7035430  15.3041560  89.3898820 122.6161520  15.2501230
  88.8646440 122.9969550  14.5463190  89.3143400 123.2412290  15.9710940
  90.7789290 108.2809120  13.8484920  91.3082050 107.4938920  13.7192870
  91.4117610 108.9600310  14.0820450  92.9727130 108.0184260  16.9030310
  92.3429870 107.3171570  17.0700440  92.4332270 108.7788390  16.6863470
  95.9119080 124.6323490  29.5740920  96.8386390 124.3967760  29.6176880
  95.8969510 125.4595490  29.0926950 104.1464140 124.1749060  16.5715170
 104.3216330 123.4886800  15.9276090 103.4485710 124.6996110  16.1791840
  91.9891790 124.5643900  14.1250480  92.7210610 124.2803180  13.5774370
  92.2485460 124.3257180  15.0149860  91.1506580 120.6808630  14.1296810
  90.5215460 121.1493730  14.6782640  91.2654410 119.8357850  14.5643000
 102.4796640 123.8593350  29.3981960 103.2721960 123.3642580  29.1907920
 102.7729790 124.5383490  30.0057570  96.7374340 116.5093310   2.1607280
  95.9616440 116.0293750   2.4505850  97.3887270 115.8298960   1.9863440
  90.7540170 116.8213120   3.0383040  89.9225050 116.5661830   3.4379550
  91.3621150 116.8923890   3.7740960  90.7341430 120.8553210   3.2341060
  91.0369470 119.9650950   3.0551280  91.4785020 121.4123430   3.0063310
  87.1265130 114.3820660   2.7065130  87.6981240 113.6142860   2.7068770
  87.1266670 114.6809420   1.7971740  96.1783330 119.1850500   2.1677440
  96.1091610 118.2440440   2.0066570  96.9403190 119.2751910   2.7400010
  88.3690000 109.7905020   4.4934060  88.1892840 108.8930770   4.7736820
  87.9670080 110.3376890   5.1681010  88.9876670 112.2865520   3.1016400
  89.6686780 112.5503890   3.7203800  88.6724720 111.4466390   3.4354410
  93.1801240 113.3332880   2.1888990  93.6879460 113.8313850   2.8294010
  93.7114480 112.5568080   2.0128350 105.2812170 111.5038070   5.8918340
 104.5764340 111.8919780   5.3733450 105.5470090 112.1988360   6.4939270
  91.4637340 107.9731440   6.4552410  91.4655780 108.4903830   5.6498310
  90.6341650 107.4961620   6.4322340  92.7140190 117.6126620   4.6325910
  92.3809570 118.2395540   5.2746980  92.8906870 118.1388500   3.8527580
 101.2274100 111.4271700   2.1002250 100.5229670 111.7156590   2.6805360
 101.5886260 112.2371810   1.7401810  91.1452670 109.6841400   4.4622860
  91.4869480 110.5283450   4.1676730  90.2068480 109.8325140   4.5788200
  91.9259290 119.5807420   6.4475090  92.5433290 120.2558500   6.1659540
  91.0652410 119.9895400   6.3562590 102.8436880 121.0446830   4.3629730
 102.1600400 121.7145940   4.3546400 103.3831170 121.2427480   3.5974590
 104.2961020 110.8726490   2.4911460 103.3485930 110.9065470   2.6226890
 104.6211010 111.6865440   2.8760820 100.3795620 122.8890960   3.0774910
 100.3922780 122.4853250   2.2097170  99.8270840 123.6638250   2.9736340
  99.7781060 117.7920800   4.4057520 100.1949850 117.5780910   3.5710980
 100.5020880 118.0493590   4.9766140 103.7243160 116.1908020   4.4973760
 102.8961790 116.2601110   4.0223890 104.3193640 116.7762330   4.0289590
 100.6885170 112.9777340   5.4428630 100.2756350 113.8031050   5.6968620
  99.9561120 112.3922380   5.2504990  93.2899660 119.4504800   2.4686510
  92.9927950 118.8450270   1.7894290  94.2399480 119.4882110   2.3575870
  91.5346580 112.5380450   4.0846340  92.0861170 112.6475790   3.3099590
  92.0490090 112.9118050   4.8001570 101.3785270 123.0236670   6.1309610
 100.9015830 123.8308860   5.9382220 100.6947060 122.3715000   6.2835820
  92.3818090 119.1886490   9.1194310  91.4846620 119.4126460   9.3667710
  92.4070960 119.3121430   8.1705710  91.2089310 116.0599810   7.6951680
  91.0697080 116.9322610   8.0639080  90.3270670 115.7172620   7.5499620
  93.0069660 122.0021510   9.9036830  92.9785090 122.4064460   9.0365260
  92.8434630 121.0731870   9.7408430 104.9584480 122.7848610  11.2001000
 105.4344200 123.2631500  11.8790080 105.5791640 122.7166100  10.4746500
  87.1607960 117.8297360   3.6122590  87.2388380 117.9646130   2.6678310
  87.7749640 117.1213250   3.8050710 104.3617730 119.9761460   8.3601010
 104.4880790 119.7373340   7.4418190 104.4039110 119.1446000   8.8323090
  98.2234470 123.6789460   6.9295820  98.7379140 123.5897470   7.7318250
  97.3803550 124.0249160   7.2223730 104.2141740 112.0293920   9.3250750
 103.5986010 112.5373590   8.7966210 103.8938160 111.1292250   9.2676690
  87.2167480 118.8711530   6.1517050  87.3798520 118.4016890   5.3336420
  87.6819930 118.3635090   6.8165890  96.2756060 110.8685810   6.7912940
  95.8135430 111.0768830   7.6032880  95.8734170 110.0545160   6.4883610
 101.2760570 112.0894760   7.9209600 100.4254160 111.7900510   8.2418670
 101.1162360 112.3336770   7.0093420  98.3710280 113.5896510  10.0208390
  98.6963690 112.7560260   9.6810620  99.1590610 114.1125030  10.1686720
  94.0262150 108.5464620   3.0467220  94.3234480 109.4527450   2.9659240
  94.5747710 108.0583400   2.4326790  94.2199680 114.0236440   9.5819140
  94.1243280 113.0831170   9.4319540  95.0631660 114.2451510   9.1867210
  89.3510220 110.4350110   7.7352920  88.9573610 111.2825320   7.9425700
  88.6628620 109.7976480   7.9261560  95.9255270 110.5185080  10.8049660
  95.2353590 110.3257280  11.4395750  96.6687570 110.8019720  11.3373960
  86.6527270 108.3578570   1.7683000  86.3640320 108.9281430   2.4807980
  87.3973030 107.8783020   2.1314230  98.2018240 114.3583520   3.6403580
  97.4699360 114.8670330   3.9893680  97.8042580 113.5413500   3.3392360
  98.6644150 109.8117200   3.0526520  98.6816890 110.2625850   3.8968370
  98.4159730 108.9122840   3.2659960 102.0914900 107.2249380   8.8912900
 102.4160670 106.4939040   9.4170880 102.1271410 106.9063020   7.9893890
  88.7906460 118.2462960   8.3112860  88.4061250 117.6056630   8.9095820
  89.1018650 118.9499080   8.8807590  94.9403600 115.0939500   3.7921480
  95.3073730 114.6198070   4.5382820  94.7508660 115.9681070   4.1329820
  92.7302970 114.1348140   6.1105690  92.4260040 115.0140120   6.3356050
  93.6849430 114.1947930   6.1463130 102.0172740 117.3374490   2.4998930
 102.7371860 117.8329780   2.1095040 101.8154560 116.6592380   1.8552800
  97.3991540 117.4083550   8.3867930  97.3328850 116.4879220   8.1325520
  96.7696680 117.5058990   9.1012570  88.7866700 114.9750880   7.2577050
  88.4281640 115.6404730   7.8450390  88.4921260 114.1434430   7.6289670
  91.9879820 115.4335120  10.1416600  91.6879960 115.5792300   9.2444420
  92.7591060 114.8740410  10.0489990  97.3308270 120.2304120   8.1371730
  97.3452810 119.2985080   7.9190640  96.6233370 120.3163880   8.7761500
 103.5419480 116.8711460   7.4840310 102.8167670 117.4640240   7.2869700
 104.0694940 116.8635000   6.6853680  96.7642170 121.8721690   5.2312230
  97.4084390 122.0781070   5.9085650  97.1271610 121.1110090   4.7783080
  98.0374250 119.8754040   3.9489680  98.6796480 119.1747200   4.0621850
  98.5623600 120.6552480   3.7686570  99.8111870 120.6748940   7.1525740
 100.1468110 121.2615630   7.8303660  98.8912210 120.5441650   7.3823530
  87.3615270 108.4644120   7.9349150  86.6473790 108.6641040   8.5401760
  87.7810310 107.6883690   8.3063950  87.6487860 122.4524380   8.9215680
  87.7578980 121.5119120   8.7811070  86.9968420 122.7179130   8.2729410
  95.6400450 120.7240270  10.3213800  95.3197320 120.0049510  10.8659490
  94.9658810 121.3995340  10.3949860  98.8554050 110.9566430   5.6850600
  99.2234870 110.1361640   6.0130170  97.9952250 111.0168320   6.1006250
  95.8156040 113.6106020   5.9088570  96.3141290 114.0851840   6.5740420
  95.9578990 112.6869540   6.1158600 103.0222900 109.8273980   6.7516960
 102.5196500 110.5679380   7.0910770 103.8379560 110.2157980   6.4353750
  89.7946300 123.5193290  10.7335290  90.5959030 123.8405340  11.1470690
  89.2798120 123.1588870  11.4555200  98.6310930 119.6273160  10.6810700
  98.0249090 119.6504760   9.9406450  98.3265040 118.8956200  11.2177950
 100.0611300 123.3553450   9.2920110 101.0133050 123.2711470   9.2420350
  99.9139520 124.0195160   9.9653900  87.5144110 116.0066750   9.6771340
  88.0183130 115.4274030  10.2487570  86.7751530 116.2906980  10.2147710
  94.5682050 117.4137740   9.2106860  93.8027720 117.9822740   9.1261530
  94.7498010 117.1213950   8.3175090 101.7105400 119.1443070   9.7681880
 102.4514870 119.4818830   9.2649340 100.9478080 119.3135130   9.2151650
  89.5467190 114.1496340  10.5721410  89.5872530 113.8510210  11.4806640
  90.4012690 114.5503950  10.4128930  91.4873000 112.7288440   8.5395900
  90.9569460 112.2379390   7.9119240  92.1561070 113.1572640   8.0053830
 100.3851060 117.1957900   8.3037090 100.7992080 117.3502980   9.1527510
  99.4502060 117.3213120   8.4662870 100.8573230 114.5354060  10.3076240
 101.4394000 113.7806380  10.2196720 101.0335000 115.0661500   9.5307720
  91.9745300 109.6950810   8.6193190  91.8802170 109.0771560   7.8944060
  91.3942690 110.4217100   8.3923100  94.7406740 108.2524050   5.6520580
  94.2924040 108.2748310   4.8066130  94.1071940 107.8543070   6.2490880
  95.1466290 117.1478380   6.2733020  95.5654400 117.9911110   6.1009260
  94.2274920 117.2850420   6.0439800  97.4830190 114.8794560   7.6570860
  97.6026400 114.2835700   8.3965700  98.3424190 114.9164250   7.2372160
  99.8218090 115.4331750   6.2333370  99.2953310 115.9574370   5.6298510
 100.1649430 116.0659140   6.8643100  92.9973710 123.4531390   7.3890750
  92.4594800 124.1777450   7.0699450  93.2507670 122.9761730   6.5988090
  94.2498960 111.4215910   8.9146680  94.8398650 111.1131760   9.6024500
  93.4319200 110.9495660   9.0706580  99.0692390 111.0381720   9.1479700
  98.3807910 110.3763260   9.0829690  99.7898410 110.5919990   9.5928160
  95.8535920 124.6882600   7.6477400  95.7794620 125.5917740   7.9549770
  94.9514760 124.3694500   7.6199470  87.7453420 122.8827780   3.6892650
  87.3084410 123.0628580   4.5216800  88.3131100 123.6402400   3.5474370
 103.3815600 122.3844780   7.9769960 102.7817590 122.4437340   7.2333880
 103.5109500 121.4449760   8.1066810 102.0667240 119.1096760   6.0746120
 101.2527080 119.5393920   6.3371910 102.4741440 119.7215170   5.4615170
  88.6153780 115.7800580   4.5884870  88.9826820 115.6927980   5.4680890
  88.0464600 115.0167130   4.4891730 103.4157640 114.2484960   7.6015340
 103.1843730 114.0197710   6.7013290 103.6762190 115.1684510   7.5560230
  88.1669780 112.6909670   8.4943290  87.2725830 112.6576430   8.8337000
  88.7067330 112.8896460   9.2594540 101.8545710 109.4741390  10.3795040
 102.7315890 109.4824790  10.7629040 101.8666550 108.7372230   9.7687390
 103.4798700 113.4110800   4.7902610 102.5301410 113.3774340   4.9047600
 103.6611710 114.3210910   4.5552380  88.6709490 106.9658000   2.8426510
  89.3185680 106.4155380   2.4021670  89.0911330 107.2201150   3.6642320
 102.5661830 107.1599360   6.1996150 103.2034050 107.7733500   6.5655340
 102.7136720 107.1960020   5.2545380  88.4241490 107.1213670   5.5851830
  88.0756310 107.5777490   6.3510010  88.0929190 106.2270800   5.6674260
  90.0305860 120.2933270   9.7505020  89.9875490 119.9226180  10.6319480
  90.1616870 121.2310840   9.8906840  93.7311890 121.8492860   5.3514740
  93.4903250 122.1167420   4.4645260  94.6714530 122.0198590   5.4065600
  95.9366310 108.3125550   9.1071250  95.8755200 108.9047380   9.8566660
  96.8766690 108.2051510   8.9621510  98.5740870 107.9695610   8.7463540
  99.1881280 108.2874900   8.0844620  99.1190430 107.4844200   9.3659400
 104.9916050 123.8687240   6.1525380 104.4974330 124.2656110   5.4352510
 104.3829340 123.2436450   6.5462660  89.0962130 106.6489870   8.8602600
  89.6445120 106.4677920   8.0968710  89.1617440 105.8583980   9.3958910
  89.8693890 123.2395520   6.8702800  89.2754210 123.1080220   7.6092840
  89.8617730 122.4033660   6.4044900  99.3148910 106.5327750   5.0732830
  98.4408750 106.8662860   4.8705760  99.2059660 106.0600930   5.8984700
 100.2220890 108.7398620   6.4574550  99.8934250 107.9250380   6.0776280
 101.1703190 108.6968430   6.3340240 102.6755500 124.5110660   3.4312120
 102.2158470 125.2626470   3.0570140 102.0467960 123.7917130   3.3726920
  89.5006120 120.6053900   5.8210840  88.7740180 119.9859190   5.7536790
  89.5615270 120.9994510   4.9508920  93.1051220 122.8198900   2.6060250
  93.6216240 122.2086260   2.0808510  93.7548600 123.3227680   3.0971260
  95.8446720 123.7107390   3.4329230  96.1324530 123.4561690   2.5562240
  96.3569940 123.1584750   4.0234800  97.0623730 107.4497590   4.0125740
  96.2795520 107.9243090   4.2922500  96.7686660 106.5452420   3.9038920
  95.9119080 124.6323490  10.7997430  96.8386390 124.3967760  10.8433390
  95.8969510 125.4595490  10.3183460  93.0982690 107.2968240  10.5639310
  92.8166960 107.8001840   9.8000130  93.4802390 106.4989990  10.1981440
  99.6998150 106.7121820  11.1419780  99.5863600 107.0316430  12.0371300
 100.5167890 107.1134330  10.8457060 102.4796640 123.8593350  10.6238470
 103.2721960 123.3642580  10.4164430 102.7729790 124.5383490  11.2314080
  98.6056300  95.9570800 150.4745930  98.5250350  95.0425410 150.2037640
  98.1920720  96.4537870 149.7685640 100.7581770 102.1410010 151.1354330
 100.2963300 101.3697250 151.4641500 101.5707320 102.1676080 151.6406780
  89.1632120  93.0071520 147.0173350  88.2748820  93.3487490 146.9153230
  89.4473310  92.8071840 146.1254180  96.9845080 104.4268020 150.7558320
  96.3656520 104.8825520 150.1852760  97.8396860 104.5819480 150.3548020
  91.3393510  91.5903020 148.0511730  91.4460260  92.4906750 148.3580490
  90.4285870  91.5420990 147.7606380 100.9912620  90.7127830 149.5222630
 101.8122240  90.2224400 149.5648110 101.0246700  91.3025490 150.2754470
  97.8508430  99.3107260 148.1490230  97.2325700  99.7756710 147.5852950
  98.3631680 100.0034740 148.5659740  87.2191630  99.9963790 145.5229860
  86.8419610 100.4850890 144.7914760  87.4764700 100.6689070 146.1536390
  94.8280560  88.3980180 150.9815370  95.1355540  87.8427070 150.2650870
  93.8981260  88.5324640 150.7988360 101.6741040 100.8363690 148.3613000
 101.5637370  99.8938020 148.4862420 101.6709290 101.1979330 149.2475760
  97.2161320  96.4629010 147.7175490  96.2890600  96.3966390 147.9463960
  97.3686140  97.4009140 147.6030730  97.2030400  92.7346010 144.7142650
  96.2634070  92.8959970 144.7995110  97.5213660  93.4531690 144.1678640
 101.2458610  98.0249310 148.2210740 100.6271030  97.6868860 147.5737040
 101.2283060  97.3809070 148.9289930  92.8217960  96.9893750 150.4995220
  92.4174960  96.2771000 150.0041120  92.9081080  96.6446990 151.3883260
  99.4223310  97.2636120 145.2283490  99.8616590  96.4258550 145.0821310
 100.1351730  97.8965520 145.3147630  97.5318690 102.2032190 149.1964730
  97.9714600 102.9456520 148.7820120  97.4705580 102.4458760 150.1203690
 103.0040450  88.5178930 143.5424530 102.6913110  88.6105760 144.4423600
 103.7652920  89.0959960 143.4921960  89.5222590  95.8838730 148.0001870
  89.4020190  96.6100820 147.3883140  89.2123480  95.1141640 147.5229780
  88.4055590 100.7554060 150.2176690  87.9983670 100.8968650 149.3630290
  89.2968600 100.4714220 150.0147900 100.1988870 105.1901310 146.5527740
 100.0390010 104.9004250 147.4509570 100.0335580 104.4141440 146.0172970
  92.6777250 104.9699840 148.3299360  92.5019730 104.0535380 148.1167160
  91.8232990 105.3287130 148.5697160  99.9015000 102.6988870 145.1125740
  99.2080160 102.6966160 144.4528020 100.6437860 102.2748190 144.6819910
  99.4664930 104.3251580 149.1874230  99.9221880 103.5440960 149.5012850
  99.8057450 105.0358400 149.7315410  91.9886250  89.2273800 151.3825540
  91.5454400  90.0083340 151.0510060  92.5471240  89.5503690 152.0896480
  95.1045070  88.8484500 146.2631370  94.4799250  88.8444370 146.9884680
  95.0175190  87.9815460 145.8667340  91.7800470  94.3507370 149.1106790
  91.5541390  94.1344540 150.0153410  90.9993000  94.7835830 148.7652760
  99.0098230  94.3570740 147.7097440  98.4107120  95.0806540 147.5261060
  99.5577840  94.2947520 146.9273890  97.6163100  92.9934280 149.7400720
  98.0092670  93.3106480 148.9269410  97.9779950  92.1146160 149.8545240
  86.8397500  93.5255200 143.1733640  86.7572170  94.4685960 143.3148630
  86.4880560  93.3830110 142.2945990  94.6395630  92.2594230 152.2403990
  94.6431690  91.8184180 151.3908530  95.5346750  92.5811560 152.3475810
  90.4898010  92.1420720 151.1998200  90.1498060  92.6195950 151.9565250
  89.7275330  91.6885840 150.8399300  94.7015780  93.2606310 145.2310750
  94.8228600  93.2192790 146.1796570  94.3164290  94.1230460 145.0757480
  93.7137280  95.5707450 144.6294050  93.1454180  95.1225700 144.0029960
  94.4226280  95.9300230 144.0959200  87.8044090  91.0639700 150.1162870
  87.5191010  90.6995370 150.9541490  87.7422950  90.3320160 149.5026010
  91.2584760  99.5665640 146.9020460  90.4847020  99.0263260 146.7419180
  91.9879390  99.0472250 146.5638220  97.4782680  89.9568960 146.8376240
  96.6647290  89.4582130 146.7621550  97.2844630  90.7967210 146.4212590
 100.1931070  94.3288610 145.1338400 101.0810690  94.6405840 144.9589740
 100.1636160  93.4560860 144.7418980  91.3022160  99.2346020 150.5399270
  91.8200830  98.4314280 150.4856160  90.8506180  99.1725160 151.3816100
  96.1891660 100.5012300 145.8126570  96.5307360 101.2454530 145.3169890
  95.3604370 100.8143420 146.1751400 102.4645340  95.6400450 144.6018260
 102.3809060  96.0714670 143.7514700 103.1839530  96.0998800 145.0345080
 103.4932590 102.4942710 147.3300390 102.8508750 101.8398330 147.6044110
 103.1063250 102.8997800 146.5541060  99.0719070  99.8228140 151.1772080
  99.4242890  99.2256270 150.5173450  98.1881400  99.4972370 151.3480330
  95.1582350 100.5825830 148.5842490  95.8453480 101.1295040 148.9650080
  94.3714770 101.1266560 148.6192100  87.2974750  96.1998650 144.0759570
  88.1669600  96.4823450 144.3595490  86.8065070  97.0134520 143.9608380
  94.4609560  97.5871860 148.1967850  94.9172340  98.3977110 148.4228040
  94.1097770  97.2695000 149.0286340  90.3621340  87.9309510 148.6690370
  90.2335970  87.9227410 149.6175290  89.5383360  88.2692600 148.3181380
 101.8829970 101.3859170 143.8676740 101.6567550 100.6689610 144.4601380
 101.4926170 101.1371610 143.0298490  87.6646000 105.4126030 144.6421200
  88.0243640 106.0115370 143.9878470  87.5238340 105.9585920 145.4156230
 101.4646220  99.3031110 145.5290900 101.1767920  99.7643800 146.3168780
 102.2598390  98.8428880 145.7975120  93.6814620 102.7957230 145.4594870
  93.6724720 103.5286920 144.8439380  92.7612980 102.5488810 145.5521830
  89.2821260  98.0172120 146.2041630  88.6749210  98.7571020 146.2136930
  89.7570610  98.1071480 145.3779830 102.2216080  91.1379880 146.6886080
 101.5929240  91.2425550 145.9744310 101.7268000  91.3576660 147.4779960
  96.6674220 102.8585470 144.1220060  96.7686200 102.6549460 143.1922040
  95.7675960 102.6043750 144.3267840  94.1900110  93.4165830 148.1043960
  93.4816260  93.8852170 148.5457570  94.4744590  92.7587840 148.7389150
  98.2215540  90.1416490 149.5439750  98.0983320  90.1602620 148.5949260
  99.1700100  90.1895430 149.6638150  95.3092330 105.3771790 148.8167730
  95.5633830 105.3393180 147.8947100  94.3604810 105.2505120 148.8095980
  92.3935130  91.7250910 145.4794670  93.2425660  92.1621060 145.4134860
  92.0266400  92.0371170 146.3066730 101.3144910  96.2963670 150.3926240
 100.3735050  96.3113900 150.5673930 101.6288980  95.5099630 150.8386540
  91.2926550  97.9783270 143.9530200  92.0589820  97.8664630 144.5155630
  91.3701240  97.2821240 143.3006970  89.9873310  95.4108340 144.6363090
  90.0676900  94.4635850 144.7480490  90.8793060  95.7415220 144.7423750
  90.7888020 105.5603730 151.7397630  91.5250500 105.0119190 152.0106200
  91.1728940 106.4259740 151.6003620  87.6733500 101.6277300 147.6139140
  86.7473280 101.8698440 147.6044550  88.1389930 102.4551560 147.4923890
  93.8990330 104.7334040 143.5623200  94.6918940 105.0222870 143.1104990
  93.3794680 104.3026210 142.8835680 102.9520500 103.9604170 144.9859940
 102.6662010 103.5469310 144.1714120 102.7540050 104.8891880 144.8660460
  94.4167730  99.9537450 143.4265550  94.3118370  99.3389800 144.1526930
  94.2491950  99.4303340 142.6428560  97.6570460  99.0157480 144.0307540
  97.1080560  99.4626780 144.6750280  98.2789720  98.5106730 144.5545210
  93.3245580  97.9748400 145.9272840  93.7462000  97.8088270 146.7704230
  93.4496420  97.1648630 145.4327980  95.8373220  96.9986010 143.1749940
  96.3578880  96.2835030 142.8091090  96.4841620  97.6371880 143.4750450
  92.2204480  94.0481630 142.8731000  92.0193540  93.1848990 143.2344340
  92.0496530  93.9614990 141.9352600  99.6992790  88.8589860 145.4017880
  99.9795080  88.0157760 145.7577300  98.9258520  89.0912970 145.9156630
  91.0187280  91.1482250 142.8608880  91.3213180  91.1549680 141.9528030
  91.7581870  90.7980110 143.3576540  94.2372210  90.0916870 143.8465080
  93.8894210  89.4140860 143.2667530  94.4384980  89.6306380 144.6608470
  96.4021250 105.0797620 145.4651680  97.2972040 105.4182590 145.4870440
  96.4338880 104.3577030 144.8375960  90.0417410 100.4524670 143.6938680
  90.4792280 100.9954340 144.3496260  90.5265140  99.6271620 143.7035020
  87.2563210 103.2413700 151.1458940  87.5866220 102.3734760 150.9137580
  87.6854210 103.4472220 151.9763900  91.8525130 101.5722710 148.8060910
  91.5520670 101.4487680 149.7064820  91.7462620 100.7131300 148.3976640
 104.6217050 101.3519110 143.5087590 103.7910010 101.4195760 143.9794820
 104.7988880 102.2423230 143.2054450 104.0773510  98.0966590 146.0121790
 104.8392420  98.6663240 146.1181480 104.0927880  97.5293790 146.7830100
  87.5777850  96.6204520 150.2429450  86.9226690  96.3516160 149.5989150
  88.4155800  96.5109000 149.7931430 105.0833480  98.9516690 150.8563720
 105.4542310  98.1684010 150.4499690 105.7235410  99.6405790 150.6781020
 104.1292680  98.3900960 143.1694310 104.4041520  99.2979840 143.0413530
 103.9403420  98.3263490 144.1056300 100.5268290  91.4145810 144.4647940
 100.9453170  91.2276790 143.6244600 100.2204350  90.5624860 144.7750870
 104.0258020  96.3269950 148.1623740 103.6501620  95.5597880 147.7305030
 103.2961140  96.7092650 148.6498670  86.7915930  93.8303450 146.1854780
  85.8880010  94.0933650 146.0106440  87.2756550  94.1014620 145.4054740
 103.3008980  94.5527440 151.4630980 103.8246460  94.0590090 150.8321150
 103.8868400  94.6877800 152.2078550  89.3343140  92.8868990 144.0949160
  90.0434840  92.4652210 143.6096440  88.6183080  92.9544220 143.4632510
  88.9817300  88.9408320 143.1351810  89.7045430  89.4817260 143.4533030
  89.2541820  88.6671740 142.2593350 102.7908950  93.8100790 147.4023390
 103.2868070  93.5771660 148.1872270 102.5925020  92.9712630 146.9861030
 104.2196110  92.4461740 149.9361070 104.1095390  92.2917780 150.8743340
 104.9803700  91.9182680 149.6936480 105.1086380  90.2769660 143.1767210
 106.0335690  90.1450840 142.9685500 105.0862170  90.3562480 144.1303660
 105.1824870  91.0480320 145.8023920 104.3876370  90.9825440 146.3316830
 105.3868150  91.9830960 145.7909270 102.1243290 105.0871870 149.7962310
 102.7202360 104.7656440 149.1196730 102.3821440 104.6143690 150.5875580
 101.6144800  89.3777200 152.2522750 102.0552890  89.3222300 151.4044350
 101.3452390  90.2935210 152.3232930 103.4783370  89.0092440 150.2631570
 103.4171770  88.0653660 150.1162590 104.2575400  89.1172530 150.8085030
  87.7836120 105.1484800 149.2255520  87.6158160 104.5155480 149.9237410
  86.9170630 105.3544200 148.8749710  88.4064140  88.9801580 146.7287380
  89.1643500  89.0930460 146.1551410  87.9441310  89.8170780 146.6830810
  94.9477950  91.0940850 149.7189690  94.1352460  90.7197740 149.3785570
  95.4519590  90.3385930 150.0210880  99.4502930  87.7583300 150.9572760
 100.0532300  88.3303510 151.4321280  98.7095920  88.3222740 150.7346660
 102.5937530  88.1604860 146.2313040 102.7888160  89.0588310 146.4980470
 101.8067400  87.9291940 146.7245990  89.3898820 103.8418030 146.6705660
  88.8646440 104.2226060 145.9667620  89.3143400 104.4668800 147.3915370
  90.7789290  89.5065630 145.2689350  91.3082050  88.7195430 145.1397300
  91.4117610  90.1856820 145.5024880  92.9727130  89.2440770 148.3234740
  92.3429870  88.5428080 148.4904870  92.4332270  90.0044900 148.1067900
 104.1464140 105.4005570 147.9919600 104.3216330 104.7143310 147.3480520
 103.4485710 105.9252620 147.5996270  91.9891790 105.7900410 145.5454910
  92.7210610 105.5059690 144.9978800  92.2485460 105.5513690 146.4354290
  91.1506580 101.9065140 145.5501240  90.5215460 102.3750240 146.0987070
  91.2654410 101.0614360 145.9847430  98.6056300  95.9570800 131.7002440
  98.5250350  95.0425410 131.4294150  98.1920720  96.4537870 130.9942150
  96.7374340  97.7349820 133.5811710  95.9616440  97.2550260 133.8710280
  97.3887270  97.0555470 133.4067870  90.7540170  98.0469630 134.4587470
  89.9225050  97.7918340 134.8583980  91.3621150  98.1180400 135.1945390
 100.7581770 102.1410010 132.3610840 100.2963300 101.3697250 132.6898010
 101.5707320 102.1676080 132.8663290  90.7341430 102.0809720 134.6545490
  91.0369470 101.1907460 134.4755710  91.4785020 102.6379940 134.4267740
  89.1632120  93.0071520 128.2429860  88.2748820  93.3487490 128.1409740
  89.4473310  92.8071840 127.3510690  87.1265130  95.6077170 134.1269560
  87.6981240  94.8399370 134.1273200  87.1266670  95.9065930 133.2176170
  96.9845080 104.4268020 131.9814830  96.3656520 104.8825520 131.4109270
  97.8396860 104.5819480 131.5804530  96.1783330 100.4107010 133.5881870
  96.1091610  99.4696950 133.4271000  96.9403190 100.5008420 134.1604440
  88.3690000  91.0161530 135.9138490  88.1892840  90.1187280 136.1941250
  87.9670080  91.5633400 136.5885440  97.2088500  93.2177390 133.8150800
  97.5853320  92.3449270 133.7024470  97.1108010  93.5536090 132.9241240
  91.3393510  91.5903020 129.2768240  91.4460260  92.4906750 129.5837000
  90.4285870  91.5420990 128.9862890 100.9912620  90.7127830 130.7479140
 101.8122240  90.2224400 130.7904620 101.0246700  91.3025490 131.5010980
  88.9876670  93.5122030 134.5220830  89.6686780  93.7760400 135.1408230
  88.6724720  92.6722900 134.8558840  93.1801240  94.5589390 133.6093420
  93.6879460  95.0570360 134.2498440  93.7114480  93.7824590 133.4332780
 105.2812170  92.7294580 137.3122770 104.5764340  93.1176290 136.7937880
 105.5470090  93.4244870 137.9143700  91.4637340  89.1987950 137.8756840
  91.4655780  89.7160340 137.0702740  90.6341650  88.7218130 137.8526770
  97.8508430  99.3107260 129.3746740  97.2325700  99.7756710 128.8109460
  98.3631680 100.0034740 129.7916250  92.7140190  98.8383130 136.0530340
  92.3809570  99.4652050 136.6951410  92.8906870  99.3645010 135.2732010
 101.2274100  92.6528210 133.5206680 100.5229670  92.9413100 134.1009790
 101.5886260  93.4628320 133.1606240  91.1452670  90.9097910 135.8827290
  91.4869480  91.7539960 135.5881160  90.2068480  91.0581650 135.9992630
  91.9259290 100.8063930 137.8679520  92.5433290 101.4815010 137.5863970
  91.0652410 101.2151910 137.7767020 102.8436880 102.2703340 135.7834160
 102.1600400 102.9402450 135.7750830 103.3831170 102.4683990 135.0179020
 104.2961020  92.0983000 133.9115890 103.3485930  92.1321980 134.0431320
 104.6211010  92.9121950 134.2965250  94.8280560  88.3980180 132.2071880
  95.1355540  87.8427070 131.4907380  93.8981260  88.5324640 132.0244870
 100.3795620 104.1147470 134.4979340 100.3922780 103.7109760 133.6301600
  99.8270840 104.8894760 134.3940770 101.6741040 100.8363690 129.5869510
 101.5637370  99.8938020 129.7118930 101.6709290 101.1979330 130.4732270
  99.7781060  99.0177310 135.8261950 100.1949850  98.8037420 134.9915410
 100.5020880  99.2750100 136.3970570 103.7243160  97.4164530 135.9178190
 102.8961790  97.4857620 135.4428320 104.3193640  98.0018840 135.4494020
 101.2458610  98.0249310 129.4467250 100.6271030  97.6868860 128.7993550
 101.2283060  97.3809070 130.1546440 100.6885170  94.2033850 136.8633060
 100.2756350  95.0287560 137.1173050  99.9561120  93.6178890 136.6709420
  92.8217960  96.9893750 131.7251730  92.4174960  96.2771000 131.2297630
  92.9081080  96.6446990 132.6139770  93.2899660 100.6761310 133.8890940
  92.9927950 100.0706780 133.2098720  94.2399480 100.7138620 133.7780300
  91.5346580  93.7636960 135.5050770  92.0861170  93.8732300 134.7304020
  92.0490090  94.1374560 136.2206000 101.3785270 104.2493180 137.5514040
 100.9015830 105.0565370 137.3586650 100.6947060 103.5971510 137.7040250
  92.3818090 100.4143000 140.5398740  91.4846620 100.6382970 140.7872140
  92.4070960 100.5377940 139.5910140  91.2089310  97.2856320 139.1156110
  91.0697080  98.1579120 139.4843510  90.3270670  96.9429130 138.9704050
  97.5318690 102.2032190 130.4221240  97.9714600 102.9456520 130.0076630
  97.4705580 102.4458760 131.3460200  93.0069660 103.2278020 141.3241260
  92.9785090 103.6320970 140.4569690  92.8434630 102.2988380 141.1612860
  89.5222590  95.8838730 129.2258380  89.4020190  96.6100820 128.6139650
  89.2123480  95.1141640 128.7486290 104.9584480 104.0105120 142.6205430
 105.4344200 104.4888010 143.2994510 105.5791640 103.9422610 141.8950930
  87.1607960  99.0553870 135.0327020  87.2388380  99.1902640 134.0882740
  87.7749640  98.3469760 135.2255140 104.3617730 101.2017970 139.7805440
 104.4880790 100.9629850 138.8622620 104.4039110 100.3702510 140.2527520
  98.2234470 104.9045970 138.3500250  98.7379140 104.8153980 139.1522680
  97.3803550 105.2505670 138.6428160 100.1988870 105.1901310 127.7784250
 100.0390010 104.9004250 128.6766080 100.0335580 104.4141440 127.2429480
  92.6777250 104.9699840 129.5555870  92.5019730 104.0535380 129.3423670
  91.8232990 105.3287130 129.7953670  99.9015000 102.6988870 126.3382250
  99.2080160 102.6966160 125.6784530 100.6437860 102.2748190 125.9076420
  99.4664930 104.3251580 130.4130740  99.9221880 103.5440960 130.7269360
  99.8057450 105.0358400 130.9571920 104.2141740  93.2550430 140.7455180
 103.5986010  93.7630100 140.2170640 103.8938160  92.3548760 140.6881120
  87.2167480 100.0968040 137.5721480  87.3798520  99.6273400 136.7540850
  87.6819930  99.5891600 138.2370320  91.9886250  89.2273800 132.6082050
  91.5454400  90.0083340 132.2766570  92.5471240  89.5503690 133.3152990
  96.2756060  92.0942320 138.2117370  95.8135430  92.3025340 139.0237310
  95.8734170  91.2801670 137.9088040 101.2760570  93.3151270 139.3414030
 100.4254160  93.0157020 139.6623100 101.1162360  93.5593280 138.4297850
  98.3710280  94.8153020 141.4412820  98.6963690  93.9816770 141.1015050
  99.1590610  95.3381540 141.5891150  95.1045070  88.8484500 127.4887880
  94.4799250  88.8444370 128.2141190  95.0175190  87.9815460 127.0923850
  94.0262150  89.7721130 134.4671650  94.3234480  90.6783960 134.3863670
  94.5747710  89.2839910 133.8531220  91.7800470  94.3507370 130.3363300
  91.5541390  94.1344540 131.2409920  90.9993000  94.7835830 129.9909270
  94.2199680  95.2492950 141.0023570  94.1243280  94.3087680 140.8523970
  95.0631660  95.4708020 140.6071640  97.6163100  92.9934280 130.9657230
  98.0092670  93.3106480 130.1525920  97.9779950  92.1146160 131.0801750
  89.3510220  91.6606620 139.1557350  88.9573610  92.5081830 139.3630130
  88.6628620  91.0232990 139.3465990  95.9255270  91.7441590 142.2254090
  95.2353590  91.5513790 142.8600180  96.6687570  92.0276230 142.7578390
  86.8397500  93.5255200 124.3990150  86.7572170  94.4685960 124.5405140
  86.4880560  93.3830110 123.5202500  98.2018240  95.5840030 135.0608010
  97.4699360  96.0926840 135.4098110  97.8042580  94.7670010 134.7596790
  94.6395630  92.2594230 133.4660500  94.6431690  91.8184180 132.6165040
  95.5346750  92.5811560 133.5732320  90.4898010  92.1420720 132.4254710
  90.1498060  92.6195950 133.1821760  89.7275330  91.6885840 132.0655810
  98.6644150  91.0373710 134.4730950  98.6816890  91.4882360 135.3172800
  98.4159730  90.1379350 134.6864390 102.0914900  88.4505890 140.3117330
 102.4160670  87.7195550 140.8375310 102.1271410  88.1319530 139.4098320
  88.7906460  99.4719470 139.7317290  88.4061250  98.8313140 140.3300250
  89.1018650 100.1755590 140.3012020  94.9403600  96.3196010 135.2125910
  95.3073730  95.8454580 135.9587250  94.7508660  97.1937580 135.5534250
  92.7302970  95.3604650 137.5310120  92.4260040  96.2396630 137.7560480
  93.6849430  95.4204440 137.5667560 102.0172740  98.5631000 133.9203360
 102.7371860  99.0586290 133.5299470 101.8154560  97.8848890 133.2757230
  97.3991540  98.6340060 139.8072360  97.3328850  97.7135730 139.5529950
  96.7696680  98.7315500 140.5217000  91.3022160  99.2346020 131.7655780
  91.8200830  98.4314280 131.7112670  90.8506180  99.1725160 132.6072610
  88.7866700  96.2007390 138.6781480  88.4281640  96.8661240 139.2654820
  88.4921260  95.3690940 139.0494100  91.9879820  96.6591630 141.5621030
  91.6879960  96.8048810 140.6648850  92.7591060  96.0996920 141.4694420
  97.3308270 101.4560630 139.5576160  97.3452810 100.5241590 139.3395070
  96.6233370 101.5420390 140.1965930 103.5419480  98.0967970 138.9044740
 102.8167670  98.6896750 138.7074130 104.0694940  98.0891510 138.1058110
 103.4932590 102.4942710 128.5556900 102.8508750 101.8398330 128.8300620
 103.1063250 102.8997800 127.7797570  99.0719070  99.8228140 132.4028590
  99.4242890  99.2256270 131.7429960  98.1881400  99.4972370 132.5736840
  95.1582350 100.5825830 129.8099000  95.8453480 101.1295040 130.1906590
  94.3714770 101.1266560 129.8448610  96.7642170 103.0978200 136.6516660
  97.4084390 103.3037580 137.3290080  97.1271610 102.3366600 136.1987510
  98.0374250 101.1010550 135.3694110  98.6796480 100.4003710 135.4826280
  98.5623600 101.8808990 135.1891000 101.8829970 101.3859170 125.0933250
 101.6567550 100.6689610 125.6857890 101.4926170 101.1371610 124.2555000
  99.8111870 101.9005450 138.5730170 100.1468110 102.4872140 139.2508090
  98.8912210 101.7698160 138.8027960  87.6646000 105.4126030 125.8677710
  88.0243640 106.0115370 125.2134980  87.5238340 105.9585920 126.6412740
  87.3615270  89.6900630 139.3553580  86.6473790  89.8897550 139.9606190
  87.7810310  88.9140200 139.7268380 101.4646220  99.3031110 126.7547410
 101.1767920  99.7643800 127.5425290 102.2598390  98.8428880 127.0231630
  87.6487860 103.6780890 140.3420110  87.7578980 102.7375630 140.2015500
  86.9968420 103.9435640 139.6933840  95.6400450 101.9496780 141.7418230
  95.3197320 101.2306020 142.2863920  94.9658810 102.6251850 141.8154290
  93.6814620 102.7957230 126.6851380  93.6724720 103.5286920 126.0695890
  92.7612980 102.5488810 126.7778340  98.8554050  92.1822940 137.1055030
  99.2234870  91.3618150 137.4334600  97.9952250  92.2424830 137.5210680
  96.6674220 102.8585470 125.3476570  96.7686200 102.6549460 124.4178550
  95.7675960 102.6043750 125.5524350  94.1900110  93.4165830 129.3300470
  93.4816260  93.8852170 129.7714080  94.4744590  92.7587840 129.9645660
  95.8156040  94.8362530 137.3293000  96.3141290  95.3108350 137.9944850
  95.9578990  93.9126050 137.5363030  98.2215540  90.1416490 130.7696260
  98.0983320  90.1602620 129.8205770  99.1700100  90.1895430 130.8894660
  95.3092330 105.3771790 130.0424240  95.5633830 105.3393180 129.1203610
  94.3604810 105.2505120 130.0352490  92.3935130  91.7250910 126.7051180
  93.2425660  92.1621060 126.6391370  92.0266400  92.0371170 127.5323240
 103.0222900  91.0530490 138.1721390 102.5196500  91.7935890 138.5115200
 103.8379560  91.4414490 137.8558180 101.3144910  96.2963670 131.6182750
 100.3735050  96.3113900 131.7930440 101.6288980  95.5099630 132.0643050
  89.9873310  95.4108340 125.8619600  90.0676900  94.4635850 125.9737000
  90.8793060  95.7415220 125.9680260 103.3170490 103.4672520 133.2937010
 103.4417910 104.2903690 133.7660820 104.1836050 103.2563250 132.9461160
  90.7888020 105.5603730 132.9654140  91.5250500 105.0119190 133.2362710
  91.1728940 106.4259740 132.8260130  89.7946300 104.7449800 142.1539720
  90.5959030 105.0661850 142.5675120  89.2798120 104.3845380 142.8759630
  93.8990330 104.7334040 124.7879710  94.6918940 105.0222870 124.3361500
  93.3794680 104.3026210 124.1092190  98.6310930 100.8529670 142.1015130
  98.0249090 100.8761270 141.3610880  98.3265040 100.1212710 142.6382380
 100.0611300 104.5809960 140.7124540 101.0133050 104.4967980 140.6624780
  99.9139520 105.2451670 141.3858330 102.9520500 103.9604170 126.2116450
 102.6662010 103.5469310 125.3970630 102.7540050 104.8891880 126.0916970
  87.5144110  97.2323260 141.0975770  88.0183130  96.6530540 141.6692000
  86.7751530  97.5163490 141.6352140  94.5682050  98.6394250 140.6311290
  93.8027720  99.2079250 140.5465960  94.7498010  98.3470460 139.7379520
 101.7105400 100.3699580 141.1886310 102.4514870 100.7075340 140.6853770
 100.9478080 100.5391640 140.6356080  89.5467190  95.3752850 141.9925840
  89.5872530  95.0766720 142.9011070  90.4012690  95.7760460 141.8333360
  91.4873000  93.9544950 139.9600330  90.9569460  93.4635900 139.3323670
  92.1561070  94.3829150 139.4258260 100.3851060  98.4214410 139.7241520
 100.7992080  98.5759490 140.5731940  99.4502060  98.5469630 139.8867300
 100.8573230  95.7610570 141.7280670 101.4394000  95.0062890 141.6401150
 101.0335000  96.2918010 140.9512150  91.9745300  90.9207320 140.0397620
  91.8802170  90.3028070 139.3148490  91.3942690  91.6473610 139.8127530
  94.7406740  89.4780560 137.0725010  94.2924040  89.5004820 136.2270560
  94.1071940  89.0799580 137.6695310  95.1466290  98.3734890 137.6937450
  95.5654400  99.2167620 137.5213690  94.2274920  98.5106930 137.4644230
  97.4830190  96.1051070 139.0775290  97.6026400  95.5092210 139.8170130
  98.3424190  96.1420760 138.6576590  99.8218090  96.6588260 137.6537800
  99.2953310  97.1830880 137.0502940 100.1649430  97.2915650 138.2847530
  92.9973710 104.6787900 138.8095180  92.4594800 105.4033960 138.4903880
  93.2507670 104.2018240 138.0192520  94.2498960  92.6472420 140.3351110
  94.8398650  92.3388270 141.0228930  93.4319200  92.1752170 140.4911010
  99.0692390  92.2638230 140.5684130  98.3807910  91.6019770 140.5034120
  99.7898410  91.8176500 141.0132590  91.0187280  91.1482250 124.0865390
  91.3213180  91.1549680 123.1784540  91.7581870  90.7980110 124.5833050
  95.8535920 105.9139110 139.0681830  95.7794620 106.8174250 139.3754200
  94.9514760 105.5951010 139.0403900  94.2372210  90.0916870 125.0721590
  93.8894210  89.4140860 124.4924040  94.4384980  89.6306380 125.8864980
  96.4021250 105.0797620 126.6908190  97.2972040 105.4182590 126.7126950
  96.4338880 104.3577030 126.0632470  90.0417410 100.4524670 124.9195190
  90.4792280 100.9954340 125.5752770  90.5265140  99.6271620 124.9291530
  87.2563210 103.2413700 132.3715450  87.5866220 102.3734760 132.1394090
  87.6854210 103.4472220 133.2020410  91.8525130 101.5722710 130.0317420
  91.5520670 101.4487680 130.9321330  91.7462620 100.7131300 129.6233150
  87.7453420 104.1084290 135.1097080  87.3084410 104.2885090 135.9421230
  88.3131100 104.8658910 134.9678800 103.3815600 103.6101290 139.3974390
 102.7817590 103.6693850 138.6538310 103.5109500 102.6706270 139.5271240
 104.6217050 101.3519110 124.7344100 103.7910010 101.4195760 125.2051330
 104.7988880 102.2423230 124.4310960 104.0773510  98.0966590 127.2378300
 104.8392420  98.6663240 127.3437990 104.0927880  97.5293790 128.0086610
  87.5777850  96.6204520 131.4685960  86.9226690  96.3516160 130.8245660
  88.4155800  96.5109000 131.0187940 105.0833480  98.9516690 132.0820230
 105.4542310  98.1684010 131.6756200 105.7235410  99.6405790 131.9037530
 102.0667240 100.3353270 137.4950550 101.2527080 100.7650430 137.7576340
 102.4741440 100.9471680 136.8819600 104.1292680  98.3900960 124.3950820
 104.4041520  99.2979840 124.2670040 103.9403420  98.3263490 125.3312810
 104.0258020  96.3269950 129.3880250 103.6501620  95.5597880 128.9561540
 103.2961140  96.7092650 129.8755180  88.6153780  97.0057090 136.0089300
  88.9826820  96.9184490 136.8885320  88.0464600  96.2423640 135.9096160
 103.4157640  95.4741470 139.0219770 103.1843730  95.2454220 138.1217720
 103.6762190  96.3941020 138.9764660  88.1669780  93.9166180 139.9147720
  87.2725830  93.8832940 140.2541430  88.7067330  94.1152970 140.6798970
 101.8545710  90.6997900 141.7999470 102.7315890  90.7081300 142.1833470
 101.8666550  89.9628740 141.1891820  86.7915930  93.8303450 127.4111290
  85.8880010  94.0933650 127.2362950  87.2756550  94.1014620 126.6311250
 103.3008980  94.5527440 132.6887490 103.8246460  94.0590090 132.0577660
 103.8868400  94.6877800 133.4335060 103.4798700  94.6367310 136.2107040
 102.5301410  94.6030850 136.3252030 103.6611710  95.5467420 135.9756810
  89.3343140  92.8868990 125.3205670  90.0434840  92.4652210 124.8352950
  88.6183080  92.9544220 124.6889020  88.9817300  88.9408320 124.3608320
  89.7045430  89.4817260 124.6789540  89.2541820  88.6671740 123.4849860
 104.2196110  92.4461740 131.1617580 104.1095390  92.2917780 132.0999850
 104.9803700  91.9182680 130.9192990 102.5661830  88.3855870 137.6200580
 103.2034050  88.9990010 137.9859770 102.7136720  88.4216530 136.6749810
 105.1824870  91.0480320 127.0280430 104.3876370  90.9825440 127.5573340
 105.3868150  91.9830960 127.0165780 102.1243290 105.0871870 131.0218820
 102.7202360 104.7656440 130.3453240 102.3821440 104.6143690 131.8132090
  88.4241490  88.3470180 137.0056260  88.0756310  88.8034000 137.7714440
  88.0929190  87.4527310 137.0878690  90.0305860 101.5189780 141.1709450
  89.9875490 101.1482690 142.0523910  90.1616870 102.4567350 141.3111270
  93.7311890 103.0749370 136.7719170  93.4903250 103.3423930 135.8849690
  94.6714530 103.2455100 136.8270030  95.9366310  89.5382060 140.5275680
  95.8755200  90.1303890 141.2771090  96.8766690  89.4308020 140.3825940
  98.5740870  89.1952120 140.1667970  99.1881280  89.5131410 139.5049050
  99.1190430  88.7100710 140.7863830 104.9916050 105.0943750 137.5729810
 104.4974330 105.4912620 136.8556940 104.3829340 104.4692960 137.9667090
  89.0962130  87.8746380 140.2807030  89.6445120  87.6934430 139.5173140
  89.1617440  87.0840490 140.8163340  89.8693890 104.4652030 138.2907230
  89.2754210 104.3336730 139.0297270  89.8617730 103.6290170 137.8249330
 100.2220890  89.9655130 137.8778980  99.8934250  89.1506890 137.4980710
 101.1703190  89.9224940 137.7544670 102.6755500 105.7367170 134.8516550
 102.2158470 106.4882980 134.4774570 102.0467960 105.0173640 134.7931350
  89.5006120 101.8310410 137.2415270  88.7740180 101.2115700 137.1741220
  89.5615270 102.2251020 136.3713350  93.1051220 104.0455410 134.0264680
  93.6216240 103.4342770 133.5012940  93.7548600 104.5484190 134.5175690
  95.8446720 104.9363900 134.8533660  96.1324530 104.6818200 133.9766670
  96.3569940 104.3841260 135.4439230  97.0623730  88.6754100 135.4330170
  96.2795520  89.1499600 135.7126930  96.7686660  87.7708930 135.3243350
 101.6144800  89.3777200 133.4779260 102.0552890  89.3222300 132.6300860
 101.3452390  90.2935210 133.5489440  87.7836120 105.1484800 130.4512030
  87.6158160 104.5155480 131.1493920  86.9170630 105.3544200 130.1006220
  94.9477950  91.0940850 130.9446200  94.1352460  90.7197740 130.6042080
  95.4519590  90.3385930 131.2467390  99.4502930  87.7583300 132.1829270
 100.0532300  88.3303510 132.6577790  98.7095920  88.3222740 131.9603170
  89.3898820 103.8418030 127.8962170  88.8646440 104.2226060 127.1924130
  89.3143400 104.4668800 128.6171880  92.9727130  89.2440770 129.5491250
  92.3429870  88.5428080 129.7161380  92.4332270  90.0044900 129.3324410
  95.9119080 105.8580000 142.2201860  96.8386390 105.6224270 142.2637820
  95.8969510 106.6852000 141.7387890 104.1464140 105.4005570 129.2176110
 104.3216330 104.7143310 128.5737030 103.4485710 105.9252620 128.8252780
  93.0982690  88.5224750 141.9843740  92.8166960  89.0258350 141.2204560
  93.4802390  87.7246500 141.6185870  91.9891790 105.7900410 126.7711420
  92.7210610 105.5059690 126.2235310  92.2485460 105.5513690 127.6610800
  91.1506580 101.9065140 126.7757750  90.5215460 102.3750240 127.3243580
  91.2654410 101.0614360 127.2103940  99.6998150  87.9378330 142.5624210
  99.5863600  88.2572940 143.4575730 100.5167890  88.3390840 142.2661490
 102.4796640 105.0849860 142.0442900 103.2721960 104.5899090 141.8368860
 102.7729790 105.7640000 142.6518510 100.7581770 102.1410010 113.5867350
 100.2963300 101.3697250 113.9154520 101.5707320 102.1676080 114.0919800
  87.1265130  95.6077170 115.3526070  87.6981240  94.8399370 115.3529710
  87.1266670  95.9065930 114.4432680  96.9845080 104.4268020 113.2071340
  96.3656520 104.8825520 112.6365780  97.8396860 104.5819480 112.8061040
  88.3690000  91.0161530 117.1395000  88.1892840  90.1187280 117.4197760
  87.9670080  91.5633400 117.8141950 100.9912620  90.7127830 111.9735650
 101.8122240  90.2224400 112.0161130 101.0246700  91.3025490 112.7267490
  88.9876670  93.5122030 115.7477340  89.6686780  93.7760400 116.3664740
  88.6724720  92.6722900 116.0815350 105.2812170  92.7294580 118.5379280
 104.5764340  93.1176290 118.0194390 105.5470090  93.4244870 119.1400210
  97.8508430  99.3107260 110.6003250  97.2325700  99.7756710 110.0365970
  98.3631680 100.0034740 111.0172760 101.2274100  92.6528210 114.7463190
 100.5229670  92.9413100 115.3266300 101.5886260  93.4628320 114.3862750
  91.1452670  90.9097910 117.1083800  91.4869480  91.7539960 116.8137670
  90.2068480  91.0581650 117.2249140  87.2191630  99.9963790 107.9742880
  86.8419610 100.4850890 107.2427780  87.4764700 100.6689070 108.6049410
 102.8436880 102.2703340 117.0090670 102.1600400 102.9402450 117.0007340
 103.3831170 102.4683990 116.2435530 104.2961020  92.0983000 115.1372400
 103.3485930  92.1321980 115.2687830 104.6211010  92.9121950 115.5221760
  94.8280560  88.3980180 113.4328390  95.1355540  87.8427070 112.7163890
  93.8981260  88.5324640 113.2501380 100.3795620 104.1147470 115.7235850
 100.3922780 103.7109760 114.8558110  99.8270840 104.8894760 115.6197280
 101.6741040 100.8363690 110.8126020 101.5637370  99.8938020 110.9375440
 101.6709290 101.1979330 111.6988780  99.7781060  99.0177310 117.0518460
 100.1949850  98.8037420 116.2171920 100.5020880  99.2750100 117.6227080
  97.2030400  92.7346010 107.1655670  96.2634070  92.8959970 107.2508130
  97.5213660  93.4531690 106.6191660 103.7243160  97.4164530 117.1434700
 102.8961790  97.4857620 116.6684830 104.3193640  98.0018840 116.6750530
 101.2458610  98.0249310 110.6723760 100.6271030  97.6868860 110.0250060
 101.2283060  97.3809070 111.3802950 100.6885170  94.2033850 118.0889570
 100.2756350  95.0287560 118.3429560  99.9561120  93.6178890 117.8965930
 101.3785270 104.2493180 118.7770550 100.9015830 105.0565370 118.5843160
 100.6947060 103.5971510 118.9296760  99.4223310  97.2636120 107.6796510
  99.8616590  96.4258550 107.5334330 100.1351730  97.8965520 107.7660650
  91.2089310  97.2856320 120.3412620  91.0697080  98.1579120 120.7100020
  90.3270670  96.9429130 120.1960560  97.5318690 102.2032190 111.6477750
  97.9714600 102.9456520 111.2333140  97.4705580 102.4458760 112.5716710
 103.0040450  88.5178930 105.9937550 102.6913110  88.6105760 106.8936620
 103.7652920  89.0959960 105.9434980 104.9584480 104.0105120 123.8461940
 105.4344200 104.4888010 124.5251020 105.5791640 103.9422610 123.1207440
  87.1607960  99.0553870 116.2583530  87.2388380  99.1902640 115.3139250
  87.7749640  98.3469760 116.4511650  88.4055590 100.7554060 112.6689710
  87.9983670 100.8968650 111.8143310  89.2968600 100.4714220 112.4660920
 104.3617730 101.2017970 121.0061950 104.4880790 100.9629850 120.0879130
 104.4039110 100.3702510 121.4784030 100.1988870 105.1901310 109.0040760
 100.0390010 104.9004250 109.9022590 100.0335580 104.4141440 108.4685990
  92.6777250 104.9699840 110.7812380  92.5019730 104.0535380 110.5680180
  91.8232990 105.3287130 111.0210180  99.9015000 102.6988870 107.5638760
  99.2080160 102.6966160 106.9041040 100.6437860 102.2748190 107.1332930
  99.4664930 104.3251580 111.6387250  99.9221880 103.5440960 111.9525870
  99.8057450 105.0358400 112.1828430  87.2167480 100.0968040 118.7977990
  87.3798520  99.6273400 117.9797360  87.6819930  99.5891600 119.4626830
  91.9886250  89.2273800 113.8338560  91.5454400  90.0083340 113.5023080
  92.5471240  89.5503690 114.5409500  96.2756060  92.0942320 119.4373880
  95.8135430  92.3025340 120.2493820  95.8734170  91.2801670 119.1344550
  94.0262150  89.7721130 115.6928160  94.3234480  90.6783960 115.6120180
  94.5747710  89.2839910 115.0787730  99.0098230  94.3570740 110.1610460
  98.4107120  95.0806540 109.9774080  99.5577840  94.2947520 109.3786910
  97.6163100  92.9934280 112.1913740  98.0092670  93.3106480 111.3782430
  97.9779950  92.1146160 112.3058260  89.3510220  91.6606620 120.3813860
  88.9573610  92.5081830 120.5886640  88.6628620  91.0232990 120.5722500
  95.9255270  91.7441590 123.4510600  95.2353590  91.5513790 124.0856690
  96.6687570  92.0276230 123.9834900  86.6527270  89.5835080 114.4143940
  86.3640320  90.1537940 115.1268920  87.3973030  89.1039530 114.7775170
  94.6395630  92.2594230 114.6917010  94.6431690  91.8184180 113.8421550
  95.5346750  92.5811560 114.7988830  90.4898010  92.1420720 113.6511220
  90.1498060  92.6195950 114.4078270  89.7275330  91.6885840 113.2912320
  98.6644150  91.0373710 115.6987460  98.6816890  91.4882360 116.5429310
  98.4159730  90.1379350 115.9120900  93.7137280  95.5707450 107.0807070
  93.1454180  95.1225700 106.4542980  94.4226280  95.9300230 106.5472220
  88.7906460  99.4719470 120.9573800  88.4061250  98.8313140 121.5556760
  89.1018650 100.1755590 121.5268530  87.8044090  91.0639700 112.5675890
  87.5191010  90.6995370 113.4054510  87.7422950  90.3320160 111.9539030
  91.2584760  99.5665640 109.3533480  90.4847020  99.0263260 109.1932200
  91.9879390  99.0472250 109.0151240 102.0172740  98.5631000 115.1459870
 102.7371860  99.0586290 114.7555980 101.8154560  97.8848890 114.5013740
  97.4782680  89.9568960 109.2889260  96.6647290  89.4582130 109.2134570
  97.2844630  90.7967210 108.8725610  96.1891660 100.5012300 108.2639590
  96.5307360 101.2454530 107.7682910  95.3604370 100.8143420 108.6264420
  88.7866700  96.2007390 119.9037990  88.4281640  96.8661240 120.4911330
  88.4921260  95.3690940 120.2750610 103.5419480  98.0967970 120.1301250
 102.8167670  98.6896750 119.9330640 104.0694940  98.0891510 119.3314620
 103.4932590 102.4942710 109.7813410 102.8508750 101.8398330 110.0557130
 103.1063250 102.8997800 109.0054080  99.0719070  99.8228140 113.6285100
  99.4242890  99.2256270 112.9686470  98.1881400  99.4972370 113.7993350
  90.3621340  87.9309510 111.1203390  90.2335970  87.9227410 112.0688310
  89.5383360  88.2692600 110.7694400 101.8829970 101.3859170 106.3189760
 101.6567550 100.6689610 106.9114400 101.4926170 101.1371610 105.4811510
  99.8111870 101.9005450 119.7986680 100.1468110 102.4872140 120.4764600
  98.8912210 101.7698160 120.0284470 101.4646220  99.3031110 107.9803920
 101.1767920  99.7643800 108.7681800 102.2598390  98.8428880 108.2488140
  87.6487860 103.6780890 121.5676620  87.7578980 102.7375630 121.4272010
  86.9968420 103.9435640 120.9190350  93.6814620 102.7957230 107.9107890
  93.6724720 103.5286920 107.2952400  92.7612980 102.5488810 108.0034850
  98.8554050  92.1822940 118.3311540  99.2234870  91.3618150 118.6591110
  97.9952250  92.2424830 118.7467190 102.2216080  91.1379880 109.1399100
 101.5929240  91.2425550 108.4257330 101.7268000  91.3576660 109.9292980
  96.6674220 102.8585470 106.5733080  96.7686200 102.6549460 105.6435060
  95.7675960 102.6043750 106.7780860  98.2215540  90.1416490 111.9952770
  98.0983320  90.1602620 111.0462280  99.1700100  90.1895430 112.1151170
  95.3092330 105.3771790 111.2680750  95.5633830 105.3393180 110.3460120
  94.3604810 105.2505120 111.2609000 103.0222900  91.0530490 119.3977900
 102.5196500  91.7935890 119.7371710 103.8379560  91.4414490 119.0814690
 101.3144910  96.2963670 112.8439260 100.3735050  96.3113900 113.0186950
 101.6288980  95.5099630 113.2899560  91.2926550  97.9783270 106.4043220
  92.0589820  97.8664630 106.9668650  91.3701240  97.2821240 105.7519990
 103.3170490 103.4672520 114.5193520 103.4417910 104.2903690 114.9917330
 104.1836050 103.2563250 114.1717670  90.7888020 105.5603730 114.1910650
  91.5250500 105.0119190 114.4619220  91.1728940 106.4259740 114.0516640
  87.6733500 101.6277300 110.0652160  86.7473280 101.8698440 110.0557570
  88.1389930 102.4551560 109.9436910  89.7946300 104.7449800 123.3796230
  90.5959030 105.0661850 123.7931630  89.2798120 104.3845380 124.1016140
  98.6310930 100.8529670 123.3271640  98.0249090 100.8761270 122.5867390
  98.3265040 100.1212710 123.8638890 100.0611300 104.5809960 121.9381050
 101.0133050 104.4967980 121.8881290  99.9139520 105.2451670 122.6114840
 102.9520500 103.9604170 107.4372960 102.6662010 103.5469310 106.6227140
 102.7540050 104.8891880 107.3173480  87.5144110  97.2323260 122.3232280
  88.0183130  96.6530540 122.8948510  86.7751530  97.5163490 122.8608650
  94.4167730  99.9537450 105.8778570  94.3118370  99.3389800 106.6039950
  94.2491950  99.4303340 105.0941580  97.6570460  99.0157480 106.4820560
  97.1080560  99.4626780 107.1263300  98.2789720  98.5106730 107.0058230
 101.7105400 100.3699580 122.4142820 102.4514870 100.7075340 121.9110280
 100.9478080 100.5391640 121.8612590  89.5467190  95.3752850 123.2182350
  89.5872530  95.0766720 124.1267580  90.4012690  95.7760460 123.0589870
  93.3245580  97.9748400 108.3785860  93.7462000  97.8088270 109.2217250
  93.4496420  97.1648630 107.8841000  91.4873000  93.9544950 121.1856840
  90.9569460  93.4635900 120.5580180  92.1561070  94.3829150 120.6514770
  95.8373220  96.9986010 105.6262960  96.3578880  96.2835030 105.2604110
  96.4841620  97.6371880 105.9263470 100.3851060  98.4214410 120.9498030
 100.7992080  98.5759490 121.7988450  99.4502060  98.5469630 121.1123810
  91.9745300  90.9207320 121.2654130  91.8802170  90.3028070 120.5405000
  91.3942690  91.6473610 121.0384040  94.7406740  89.4780560 118.2981520
  94.2924040  89.5004820 117.4527070  94.1071940  89.0799580 118.8951820
  99.8218090  96.6588260 118.8794310  99.2953310  97.1830880 118.2759450
 100.1649430  97.2915650 119.5104040  94.2498960  92.6472420 121.5607620
  94.8398650  92.3388270 122.2485440  93.4319200  92.1752170 121.7167520
  99.6992790  88.8589860 107.8530900  99.9795080  88.0157760 108.2090320
  98.9258520  89.0912970 108.3669650  96.4021250 105.0797620 107.9164700
  97.2972040 105.4182590 107.9383460  96.4338880 104.3577030 107.2888980
  90.0417410 100.4524670 106.1451700  90.4792280 100.9954340 106.8009280
  90.5265140  99.6271620 106.1548040  87.2563210 103.2413700 113.5971960
  87.5866220 102.3734760 113.3650600  87.6854210 103.4472220 114.4276920
  91.8525130 101.5722710 111.2573930  91.5520670 101.4487680 112.1577840
  91.7462620 100.7131300 110.8489660  87.7453420 104.1084290 116.3353590
  87.3084410 104.2885090 117.1677740  88.3131100 104.8658910 116.1935310
 103.3815600 103.6101290 120.6230900 102.7817590 103.6693850 119.8794820
 103.5109500 102.6706270 120.7527750  87.5777850  96.6204520 112.6942470
  86.9226690  96.3516160 112.0502170  88.4155800  96.5109000 112.2444450
 105.0833480  98.9516690 113.3076740 105.4542310  98.1684010 112.9012710
 105.7235410  99.6405790 113.1294040 102.0667240 100.3353270 118.7207060
 101.2527080 100.7650430 118.9832850 102.4741440 100.9471680 118.1076110
 100.5268290  91.4145810 106.9160960 100.9453170  91.2276790 106.0757620
 100.2204350  90.5624860 107.2263890 104.0258020  96.3269950 110.6136760
 103.6501620  95.5597880 110.1818050 103.2961140  96.7092650 111.1011690
  88.6153780  97.0057090 117.2345810  88.9826820  96.9184490 118.1141830
  88.0464600  96.2423640 117.1352670 103.4157640  95.4741470 120.2476280
 103.1843730  95.2454220 119.3474230 103.6762190  96.3941020 120.2021170
  88.1669780  93.9166180 121.1404230  87.2725830  93.8832940 121.4797940
  88.7067330  94.1152970 121.9055480 103.3008980  94.5527440 113.9144000
 103.8246460  94.0590090 113.2834170 103.8868400  94.6877800 114.6591570
 103.4798700  94.6367310 117.4363550 102.5301410  94.6030850 117.5508540
 103.6611710  95.5467420 117.2013320 102.7908950  93.8100790 109.8536410
 103.2868070  93.5771660 110.6385290 102.5925020  92.9712630 109.4374050
 104.2196110  92.4461740 112.3874090 104.1095390  92.2917780 113.3256360
 104.9803700  91.9182680 112.1449500 102.5661830  88.3855870 118.8457090
 103.2034050  88.9990010 119.2116280 102.7136720  88.4216530 117.9006320
 105.1824870  91.0480320 108.2536940 104.3876370  90.9825440 108.7829850
 105.3868150  91.9830960 108.2422290 102.1243290 105.0871870 112.2475330
 102.7202360 104.7656440 111.5709750 102.3821440 104.6143690 113.0388600
  90.0305860 101.5189780 122.3965960  89.9875490 101.1482690 123.2780420
  90.1616870 102.4567350 122.5367780  95.9366310  89.5382060 121.7532190
  95.8755200  90.1303890 122.5027600  96.8766690  89.4308020 121.6082450
  98.5740870  89.1952120 121.3924480  99.1881280  89.5131410 120.7305560
  99.1190430  88.7100710 122.0120340 104.9916050 105.0943750 118.7986320
 104.4974330 105.4912620 118.0813450 104.3829340 104.4692960 119.1923600
  89.8693890 104.4652030 119.5163740  89.2754210 104.3336730 120.2553780
  89.8617730 103.6290170 119.0505840  99.3148910  87.7584260 117.7193770
  98.4408750  88.0919370 117.5166700  99.2059660  87.2857440 118.5445640
 100.2220890  89.9655130 119.1035490  99.8934250  89.1506890 118.7237220
 101.1703190  89.9224940 118.9801180 102.6755500 105.7367170 116.0773060
 102.2158470 106.4882980 115.7031080 102.0467960 105.0173640 116.0187860
  89.5006120 101.8310410 118.4671780  88.7740180 101.2115700 118.3997730
  89.5615270 102.2251020 117.5969860  97.0623730  88.6754100 116.6586680
  96.2795520  89.1499600 116.9383440  96.7686660  87.7708930 116.5499860
 101.6144800  89.3777200 114.7035770 102.0552890  89.3222300 113.8557370
 101.3452390  90.2935210 114.7745950 103.4783370  89.0092440 112.7144590
 103.4171770  88.0653660 112.5675610 104.2575400  89.1172530 113.2598050
  87.7836120 105.1484800 111.6768540  87.6158160 104.5155480 112.3750430
  86.9170630 105.3544200 111.3262730  94.9477950  91.0940850 112.1702710
  94.1352460  90.7197740 111.8298590  95.4519590  90.3385930 112.4723900
  99.4502930  87.7583300 113.4085780 100.0532300  88.3303510 113.8834300
  98.7095920  88.3222740 113.1859680 102.5937530  88.1604860 108.6826060
 102.7888160  89.0588310 108.9493490 101.8067400  87.9291940 109.1759010
  89.3898820 103.8418030 109.1218680  88.8646440 104.2226060 108.4180640
  89.3143400 104.4668800 109.8428390  95.9119080 105.8580000 123.4458370
  96.8386390 105.6224270 123.4894330  95.8969510 106.6852000 122.9644400
 104.1464140 105.4005570 110.4432620 104.3216330 104.7143310 109.7993540
 103.4485710 105.9252620 110.0509290  91.1506580 101.9065140 108.0014260
  90.5215460 102.3750240 108.5500090  91.2654410 101.0614360 108.4360450
 102.4796640 105.0849860 123.2699410 103.2721960 104.5899090 123.0625370
 102.7729790 105.7640000 123.8775020 100.9912620  90.7127830  93.1992160
 101.8122240  90.2224400  93.2417640 101.0246700  91.3025490  93.9524000
 102.8436880 102.2703340  98.2347180 102.1600400 102.9402450  98.2263850
 103.3831170 102.4683990  97.4692040 100.3795620 104.1147470  96.9492360
 100.3922780 103.7109760  96.0814620  99.8270840 104.8894760  96.8453790
 103.7243160  97.4164530  98.3691210 102.8961790  97.4857620  97.8941340
 104.3193640  98.0018840  97.9007040 100.6885170  94.2033850  99.3146080
 100.2756350  95.0287560  99.5686070  99.9561120  93.6178890  99.1222440
 101.3785270 104.2493180 100.0027060 100.9015830 105.0565370  99.8099670
 100.6947060 103.5971510 100.1553270  92.3818090 100.4143000 102.9911760
  91.4846620 100.6382970 103.2385160  92.4070960 100.5377940 102.0423160
 103.0040450  88.5178930  87.2194060 102.6913110  88.6105760  88.1193130
 103.7652920  89.0959960  87.1691490 104.9584480 104.0105120 105.0718450
 105.4344200 104.4888010 105.7507530 105.5791640 103.9422610 104.3463950
 104.3617730 101.2017970 102.2318460 104.4880790 100.9629850 101.3135640
 104.4039110 100.3702510 102.7040540  98.3710280  94.8153020 103.8925840
  98.6963690  93.9816770 103.5528070  99.1590610  95.3381540 104.0404170
  98.2018240  95.5840030  97.5121030  97.4699360  96.0926840  97.8611130
  97.8042580  94.7670010  97.2109810 102.0914900  88.4505890 102.7630350
 102.4160670  87.7195550 103.2888330 102.1271410  88.1319530 101.8611340
 102.0172740  98.5631000  96.3716380 102.7371860  99.0586290  95.9812490
 101.8154560  97.8848890  95.7270250  97.3308270 101.4560630 102.0089180
  97.3452810 100.5241590 101.7908090  96.6233370 101.5420390 102.6478950
  99.8111870 101.9005450 101.0243190 100.1468110 102.4872140 101.7021110
  98.8912210 101.7698160 101.2540980  95.6400450 101.9496780 104.1931250
  95.3197320 101.2306020 104.7376940  94.9658810 102.6251850 104.2667310
  98.8554050  92.1822940  99.5568050  99.2234870  91.3618150  99.8847620
  97.9952250  92.2424830  99.9723700 102.2216080  91.1379880  90.3655610
 101.5929240  91.2425550  89.6513840 101.7268000  91.3576660  91.1549490
 103.3170490 103.4672520  95.7450030 103.4417910 104.2903690  96.2173840
 104.1836050 103.2563250  95.3974180  98.6310930 100.8529670 104.5528150
  98.0249090 100.8761270 103.8123900  98.3265040 100.1212710 105.0895400
 100.0611300 104.5809960 103.1637560 101.0133050 104.4967980 103.1137800
  99.9139520 105.2451670 103.8371350 101.7105400 100.3699580 103.6399330
 102.4514870 100.7075340 103.1366790 100.9478080 100.5391640 103.0869100
 100.3851060  98.4214410 102.1754540 100.7992080  98.5759490 103.0244960
  99.4502060  98.5469630 102.3380320  99.8218090  96.6588260 100.1050820
  99.2953310  97.1830880  99.5015960 100.1649430  97.2915650 100.7360550
  99.0692390  92.2638230 103.0197150  98.3807910  91.6019770 102.9547140
  99.7898410  91.8176500 103.4645610  99.6992790  88.8589860  89.0787410
  99.9795080  88.0157760  89.4346830  98.9258520  89.0912970  89.5926160
 103.3815600 103.6101290 101.8487410 102.7817590 103.6693850 101.1051330
 103.5109500 102.6706270 101.9784260 104.0773510  98.0966590  89.6891320
 104.8392420  98.6663240  89.7951010 104.0927880  97.5293790  90.4599630
 105.0833480  98.9516690  94.5333250 105.4542310  98.1684010  94.1269220
 105.7235410  99.6405790  94.3550550 102.0667240 100.3353270  99.9463570
 101.2527080 100.7650430 100.2089360 102.4741440 100.9471680  99.3332620
 104.1292680  98.3900960  86.8463840 104.4041520  99.2979840  86.7183060
 103.9403420  98.3263490  87.7825830 104.0258020  96.3269950  91.8393270
 103.6501620  95.5597880  91.4074560 103.2961140  96.7092650  92.3268200
 102.7908950  93.8100790  91.0792920 103.2868070  93.5771660  91.8641800
 102.5925020  92.9712630  90.6630560 102.1243290 105.0871870  93.4731840
 102.7202360 104.7656440  92.7966260 102.3821440 104.6143690  94.2645110
  90.0305860 101.5189780 103.6222470  89.9875490 101.1482690 104.5036930
  90.1616870 102.4567350 103.7624290  95.9366310  89.5382060 102.9788700
  95.8755200  90.1303890 103.7284110  96.8766690  89.4308020 102.8338960
  98.5740870  89.1952120 102.6180990  99.1881280  89.5131410 101.9562070
  99.1190430  88.7100710 103.2376850 104.9916050 105.0943750 100.0242830
 104.4974330 105.4912620  99.3069960 104.3829340 104.4692960 100.4180110
  99.3148910  87.7584260  98.9450280  98.4408750  88.0919370  98.7423210
  99.2059660  87.2857440  99.7702150 100.2220890  89.9655130 100.3292000
  99.8934250  89.1506890  99.9493730 101.1703190  89.9224940 100.2057690
 102.6755500 105.7367170  97.3029570 102.2158470 106.4882980  96.9287590
 102.0467960 105.0173640  97.2444370  97.0623730  88.6754100  97.8843190
  96.2795520  89.1499600  98.1639950  96.7686660  87.7708930  97.7756370
 101.6144800  89.3777200  95.9292280 102.0552890  89.3222300  95.0813880
 101.3452390  90.2935210  96.0002460 103.4783370  89.0092440  93.9401100
 103.4171770  88.0653660  93.7932120 104.2575400  89.1172530  94.4854560
  99.4502930  87.7583300  94.6342290 100.0532300  88.3303510  95.1090810
  98.7095920  88.3222740  94.4116190  99.6998150  87.9378330 105.0137230
  99.5863600  88.2572940 105.9088750 100.5167890  88.3390840 104.7174510
 102.4796640 105.0849860 104.4955920 103.2721960 104.5899090 104.2881880
 102.7729790 105.7640000 105.1031530  98.6056300  95.9570800  75.3771970
  98.5250350  95.0425410  75.1063680  98.1920720  96.4537870  74.6711680
 100.7581770 102.1410010  76.0380370 100.2963300 101.3697250  76.3667540
 101.5707320 102.1676080  76.5432820  96.9845080 104.4268020  75.6584360
  96.3656520 104.8825520  75.0878800  97.8396860 104.5819480  75.2574060
  97.2088500  93.2177390  77.4920330  97.5853320  92.3449270  77.3794000
  97.1108010  93.5536090  76.6010770 100.9912620  90.7127830  74.4248670
 101.8122240  90.2224400  74.4674150 101.0246700  91.3025490  75.1780510
 105.2812170  92.7294580  80.9892300 104.5764340  93.1176290  80.4707410
 105.5470090  93.4244870  81.5913230  97.8508430  99.3107260  73.0516270
  97.2325700  99.7756710  72.4878990  98.3631680 100.0034740  73.4685780
 101.2274100  92.6528210  77.1976210 100.5229670  92.9413100  77.7779320
 101.5886260  93.4628320  76.8375770 102.8436880 102.2703340  79.4603690
 102.1600400 102.9402450  79.4520360 103.3831170 102.4683990  78.6948550
 104.2961020  92.0983000  77.5885420 103.3485930  92.1321980  77.7200850
 104.6211010  92.9121950  77.9734780  94.8280560  88.3980180  75.8841410
  95.1355540  87.8427070  75.1676910  93.8981260  88.5324640  75.7014400
 100.3795620 104.1147470  78.1748870 100.3922780 103.7109760  77.3071130
  99.8270840 104.8894760  78.0710300  99.7781060  99.0177310  79.5031480
 100.1949850  98.8037420  78.6684940 100.5020880  99.2750100  80.0740100
  97.2161320  96.4629010  72.6201530  96.2890600  96.3966390  72.8490000
  97.3686140  97.4009140  72.5056770 103.7243160  97.4164530  79.5947720
 102.8961790  97.4857620  79.1197850 104.3193640  98.0018840  79.1263550
 100.6885170  94.2033850  80.5402590 100.2756350  95.0287560  80.7942580
  99.9561120  93.6178890  80.3478950 101.3785270 104.2493180  81.2283570
 100.9015830 105.0565370  81.0356180 100.6947060 103.5971510  81.3809780
  99.4223310  97.2636120  70.1309530  99.8616590  96.4258550  69.9847350
 100.1351730  97.8965520  70.2173670  97.5318690 102.2032190  74.0990770
  97.9714600 102.9456520  73.6846160  97.4705580 102.4458760  75.0229730
 103.0040450  88.5178930  68.4450570 102.6913110  88.6105760  69.3449640
 103.7652920  89.0959960  68.3948000 104.3617730 101.2017970  83.4574970
 104.4880790 100.9629850  82.5392150 104.4039110 100.3702510  83.9297050
  98.2234470 104.9045970  82.0269780  98.7379140 104.8153980  82.8292210
  97.3803550 105.2505670  82.3197690 100.1988870 105.1901310  71.4553780
 100.0390010 104.9004250  72.3535610 100.0335580 104.4141440  70.9199010
  99.9015000 102.6988870  70.0151780  99.2080160 102.6966160  69.3554060
 100.6437860 102.2748190  69.5845950  99.4664930 104.3251580  74.0900270
  99.9221880 103.5440960  74.4038890  99.8057450 105.0358400  74.6341450
 104.2141740  93.2550430  84.4224710 103.5986010  93.7630100  83.8940170
 103.8938160  92.3548760  84.3650650  99.0098230  94.3570740  72.6123480
  98.4107120  95.0806540  72.4287100  99.5577840  94.2947520  71.8299930
  97.6163100  92.9934280  74.6426760  98.0092670  93.3106480  73.8295450
  97.9779950  92.1146160  74.7571280  98.6644150  91.0373710  78.1500480
  98.6816890  91.4882360  78.9942330  98.4159730  90.1379350  78.3633920
 102.0172740  98.5631000  77.5972890 102.7371860  99.0586290  77.2069000
 101.8154560  97.8848890  76.9526760 100.1931070  94.3288610  70.0364440
 101.0810690  94.6405840  69.8615780 100.1636160  93.4560860  69.6445020
  96.1891660 100.5012300  70.7152610  96.5307360 101.2454530  70.2195930
  95.3604370 100.8143420  71.0777440 102.4645340  95.6400450  69.5044300
 102.3809060  96.0714670  68.6540740 103.1839530  96.0998800  69.9371120
 103.5419480  98.0967970  82.5814270 102.8167670  98.6896750  82.3843660
 104.0694940  98.0891510  81.7827640  99.0719070  99.8228140  76.0798120
  99.4242890  99.2256270  75.4199490  98.1881400  99.4972370  76.2506370
  95.1582350 100.5825830  73.4868530  95.8453480 101.1295040  73.8676120
  94.3714770 101.1266560  73.5218140 101.8829970 101.3859170  68.7702780
 101.6567550 100.6689610  69.3627420 101.4926170 101.1371610  67.9324530
  99.8111870 101.9005450  82.2499700 100.1468110 102.4872140  82.9277620
  98.8912210 101.7698160  82.4797490  93.6814620 102.7957230  70.3620910
  93.6724720 103.5286920  69.7465420  92.7612980 102.5488810  70.4547870
 102.2216080  91.1379880  71.5912120 101.5929240  91.2425550  70.8770350
 101.7268000  91.3576660  72.3806000  96.6674220 102.8585470  69.0246100
  96.7686200 102.6549460  68.0948080  95.7675960 102.6043750  69.2293880
  98.2215540  90.1416490  74.4465790  98.0983320  90.1602620  73.4975300
  99.1700100  90.1895430  74.5664190  95.3092330 105.3771790  73.7193770
  95.5633830 105.3393180  72.7973140  94.3604810 105.2505120  73.7122020
 103.0222900  91.0530490  81.8490920 102.5196500  91.7935890  82.1884730
 103.8379560  91.4414490  81.5327710 101.3144910  96.2963670  75.2952280
 100.3735050  96.3113900  75.4699970 101.6288980  95.5099630  75.7412580
  90.7888020 105.5603730  76.6423670  91.5250500 105.0119190  76.9132240
  91.1728940 106.4259740  76.5029660  93.8990330 104.7334040  68.4649240
  94.6918940 105.0222870  68.0131030  93.3794680 104.3026210  67.7861720
  94.4167730  99.9537450  68.3291590  94.3118370  99.3389800  69.0552970
  94.2491950  99.4303340  67.5454600  97.6570460  99.0157480  68.9333580
  97.1080560  99.4626780  69.5776320  98.2789720  98.5106730  69.4571250
  99.6992790  88.8589860  70.3043920  99.9795080  88.0157760  70.6603340
  98.9258520  89.0912970  70.8182670  96.4021250 105.0797620  70.3677720
  97.2972040 105.4182590  70.3896480  96.4338880 104.3577030  69.7402000
 102.0667240 100.3353270  81.1720080 101.2527080 100.7650430  81.4345870
 102.4741440 100.9471680  80.5589130 104.1292680  98.3900960  68.0720350
 104.4041520  99.2979840  67.9439570 103.9403420  98.3263490  69.0082340
 100.5268290  91.4145810  69.3673980 100.9453170  91.2276790  68.5270640
 100.2204350  90.5624860  69.6776910 103.4157640  95.4741470  82.6989300
 103.1843730  95.2454220  81.7987250 103.6762190  96.3941020  82.6534190
 103.3008980  94.5527440  76.3657020 103.8246460  94.0590090  75.7347190
 103.8868400  94.6877800  77.1104590 103.4798700  94.6367310  79.8876570
 102.5301410  94.6030850  80.0021560 103.6611710  95.5467420  79.6526340
 102.7908950  93.8100790  72.3049430 103.2868070  93.5771660  73.0898310
 102.5925020  92.9712630  71.8887070 104.2196110  92.4461740  74.8387110
 104.1095390  92.2917780  75.7769380 104.9803700  91.9182680  74.5962520
 102.5661830  88.3855870  81.2970110 103.2034050  88.9990010  81.6629300
 102.7136720  88.4216530  80.3519340 105.1086380  90.2769660  68.0793250
 106.0335690  90.1450840  67.8711540 105.0862170  90.3562480  69.0329700
 105.1824870  91.0480320  70.7049960 104.3876370  90.9825440  71.2342870
 105.3868150  91.9830960  70.6935310  99.3148910  87.7584260  80.1706790
  98.4408750  88.0919370  79.9679720  99.2059660  87.2857440  80.9958660
  95.8446720 104.9363900  78.5303190  96.1324530 104.6818200  77.6536200
  96.3569940 104.3841260  79.1208760 101.6144800  89.3777200  77.1548790
 102.0552890  89.3222300  76.3070390 101.3452390  90.2935210  77.2258970
 103.4783370  89.0092440  75.1657610 103.4171770  88.0653660  75.0188630
 104.2575400  89.1172530  75.7111070  99.4502930  87.7583300  75.8598800
 100.0532300  88.3303510  76.3347320  98.7095920  88.3222740  75.6372700
 102.5937530  88.1604860  71.1339080 102.7888160  89.0588310  71.4006510
 101.8067400  87.9291940  71.6272030  91.9891790 105.7900410  70.4480950
  92.7210610 105.5059690  69.9004840  92.2485460 105.5513690  71.3380330
  91.1506580 101.9065140  70.4527280  90.5215460 102.3750240  71.0013110
  91.2654410 101.0614360  70.8873470  89.1632120  93.0071520  53.1455900
  88.2748820  93.3487490  53.0435780  89.4473310  92.8071840  52.2536730
  87.1265130  95.6077170  59.0295600  87.6981240  94.8399370  59.0299240
  87.1266670  95.9065930  58.1202210  88.9876670  93.5122030  59.4246870
  89.6686780  93.7760400  60.0434270  88.6724720  92.6722900  59.7584880
 101.2274100  92.6528210  58.4232720 100.5229670  92.9413100  59.0035830
 101.5886260  93.4628320  58.0632280  91.1452670  90.9097910  60.7853330
  91.4869480  91.7539960  60.4907200  90.2068480  91.0581650  60.9018670
  91.9259290 100.8063930  62.7705560  92.5433290 101.4815010  62.4890010
  91.0652410 101.2151910  62.6793060 104.2961020  92.0983000  58.8141930
 103.3485930  92.1321980  58.9457360 104.6211010  92.9121950  59.1991290
  99.7781060  99.0177310  60.7287990 100.1949850  98.8037420  59.8941450
 100.5020880  99.2750100  61.2996610 103.7243160  97.4164530  60.8204230
 102.8961790  97.4857620  60.3454360 104.3193640  98.0018840  60.3520060
 100.6885170  94.2033850  61.7659100 100.2756350  95.0287560  62.0199090
  99.9561120  93.6178890  61.5735460  92.3818090 100.4143000  65.4424780
  91.4846620 100.6382970  65.6898180  92.4070960 100.5377940  64.4936180
  93.0069660 103.2278020  66.2267300  92.9785090 103.6320970  65.3595730
  92.8434630 102.2988380  66.0638900 104.9584480 104.0105120  67.5231470
 105.4344200 104.4888010  68.2020550 105.5791640 103.9422610  66.7976970
 104.3617730 101.2017970  64.6831480 104.4880790 100.9629850  63.7648660
 104.4039110 100.3702510  65.1553560 100.1988870 105.1901310  52.6810290
 100.0390010 104.9004250  53.5792120 100.0335580 104.4141440  52.1455520
  92.6777250 104.9699840  54.4581910  92.5019730 104.0535380  54.2449710
  91.8232990 105.3287130  54.6979710  99.9015000 102.6988870  51.2408290
  99.2080160 102.6966160  50.5810570 100.6437860 102.2748190  50.8102460
  91.9886250  89.2273800  57.5108090  91.5454400  90.0083340  57.1792610
  92.5471240  89.5503690  58.2179030 101.2760570  93.3151270  64.2440070
 100.4254160  93.0157020  64.5649140 101.1162360  93.5593280  63.3323890
  98.3710280  94.8153020  66.3438860  98.6963690  93.9816770  66.0041090
  99.1590610  95.3381540  66.4917190  95.1045070  88.8484500  52.3913920
  94.4799250  88.8444370  53.1167230  95.0175190  87.9815460  51.9949890
  94.0262150  89.7721130  59.3697690  94.3234480  90.6783960  59.2889710
  94.5747710  89.2839910  58.7557260  86.6527270  89.5835080  58.0913470
  86.3640320  90.1537940  58.8038450  87.3973030  89.1039530  58.4544700
  86.8397500  93.5255200  49.3016190  86.7572170  94.4685960  49.4431180
  86.4880560  93.3830110  48.4228540  90.4898010  92.1420720  57.3280750
  90.1498060  92.6195950  58.0847800  89.7275330  91.6885840  56.9681850
  98.6644150  91.0373710  59.3756990  98.6816890  91.4882360  60.2198840
  98.4159730  90.1379350  59.5890430 102.0914900  88.4505890  65.2143370
 102.4160670  87.7195550  65.7401350 102.1271410  88.1319530  64.3124360
  87.8044090  91.0639700  56.2445420  87.5191010  90.6995370  57.0824040
  87.7422950  90.3320160  55.6308560  92.7302970  95.3604650  62.4336160
  92.4260040  96.2396630  62.6586520  93.6849430  95.4204440  62.4693600
  97.3991540  98.6340060  64.7098400  97.3328850  97.7135730  64.4555990
  96.7696680  98.7315500  65.4243040  97.3308270 101.4560630  64.4602200
  97.3452810 100.5241590  64.2421110  96.6233370 101.5420390  65.0991970
 103.5419480  98.0967970  63.8070780 102.8167670  98.6896750  63.6100170
 104.0694940  98.0891510  63.0084150  90.3621340  87.9309510  54.7972920
  90.2335970  87.9227410  55.7457840  89.5383360  88.2692600  54.4463930
 101.8829970 101.3859170  49.9959290 101.6567550 100.6689610  50.5883930
 101.4926170 101.1371610  49.1581040  99.8111870 101.9005450  63.4756210
 100.1468110 102.4872140  64.1534130  98.8912210 101.7698160  63.7054000
 101.4646220  99.3031110  51.6573450 101.1767920  99.7643800  52.4451330
 102.2598390  98.8428880  51.9257670  95.6400450 101.9496780  66.6444270
  95.3197320 101.2306020  67.1889960  94.9658810 102.6251850  66.7180330
  98.8554050  92.1822940  62.0081070  99.2234870  91.3618150  62.3360640
  97.9952250  92.2424830  62.4236720  95.8156040  94.8362530  62.2319040
  96.3141290  95.3108350  62.8970890  95.9578990  93.9126050  62.4389070
  92.3935130  91.7250910  51.6077220  93.2425660  92.1621060  51.5417410
  92.0266400  92.0371170  52.4349280 103.0222900  91.0530490  63.0747430
 102.5196500  91.7935890  63.4141240 103.8379560  91.4414490  62.7584220
  87.6733500 101.6277300  53.7421690  86.7473280 101.8698440  53.7327100
  88.1389930 102.4551560  53.6206440  89.7946300 104.7449800  67.0565760
  90.5959030 105.0661850  67.4701160  89.2798120 104.3845380  67.7785670
  98.6310930 100.8529670  67.0041170  98.0249090 100.8761270  66.2636920
  98.3265040 100.1212710  67.5408420 100.0611300 104.5809960  65.6150580
 101.0133050 104.4967980  65.5650820  99.9139520 105.2451670  66.2884370
 102.9520500 103.9604170  51.1142490 102.6662010 103.5469310  50.2996670
 102.7540050 104.8891880  50.9943010  94.5682050  98.6394250  65.5337330
  93.8027720  99.2079250  65.4492000  94.7498010  98.3470460  64.6405560
 101.7105400 100.3699580  66.0912350 102.4514870 100.7075340  65.5879810
 100.9478080 100.5391640  65.5382120 100.3851060  98.4214410  64.6267560
 100.7992080  98.5759490  65.4757980  99.4502060  98.5469630  64.7893340
 100.8573230  95.7610570  66.6306710 101.4394000  95.0062890  66.5427190
 101.0335000  96.2918010  65.8538190  95.1466290  98.3734890  62.5963490
  95.5654400  99.2167620  62.4239730  94.2274920  98.5106930  62.3670270
  97.4830190  96.1051070  63.9801330  97.6026400  95.5092210  64.7196170
  98.3424190  96.1420760  63.5602630  99.8218090  96.6588260  62.5563840
  99.2953310  97.1830880  61.9528980 100.1649430  97.2915650  63.1873570
  92.9973710 104.6787900  63.7121220  92.4594800 105.4033960  63.3929920
  93.2507670 104.2018240  62.9218560  99.0692390  92.2638230  65.4710170
  98.3807910  91.6019770  65.4060160  99.7898410  91.8176500  65.9158630
  91.0187280  91.1482250  48.9891430  91.3213180  91.1549680  48.0810580
  91.7581870  90.7980110  49.4859090  95.8535920 105.9139110  63.9707870
  95.7794620 106.8174250  64.2780240  94.9514760 105.5951010  63.9429940
  94.2372210  90.0916870  49.9747630  93.8894210  89.4140860  49.3950080
  94.4384980  89.6306380  50.7891020  96.4021250 105.0797620  51.5934230
  97.2972040 105.4182590  51.6152990  96.4338880 104.3577030  50.9658510
 104.6217050 101.3519110  49.6370140 103.7910010 101.4195760  50.1077370
 104.7988880 102.2423230  49.3337000 102.0667240 100.3353270  62.3976590
 101.2527080 100.7650430  62.6602380 102.4741440 100.9471680  61.7845640
 104.1292680  98.3900960  49.2976860 104.4041520  99.2979840  49.1696080
 103.9403420  98.3263490  50.2338850 104.0258020  96.3269950  54.2906290
 103.6501620  95.5597880  53.8587580 103.2961140  96.7092650  54.7781220
 103.4157640  95.4741470  63.9245810 103.1843730  95.2454220  63.0243760
 103.6762190  96.3941020  63.8790700 101.8545710  90.6997900  66.7025510
 102.7315890  90.7081300  67.0859510 101.8666550  89.9628740  66.0917860
  86.7915930  93.8303450  52.3137330  85.8880010  94.0933650  52.1388990
  87.2756550  94.1014620  51.5337290 103.3008980  94.5527440  57.5913530
 103.8246460  94.0590090  56.9603700 103.8868400  94.6877800  58.3361100
 103.4798700  94.6367310  61.1133080 102.5301410  94.6030850  61.2278070
 103.6611710  95.5467420  60.8782850  88.9817300  88.9408320  49.2634360
  89.7045430  89.4817260  49.5815580  89.2541820  88.6671740  48.3875900
 102.7908950  93.8100790  53.5305940 103.2868070  93.5771660  54.3154820
 102.5925020  92.9712630  53.1143580 104.2196110  92.4461740  56.0643620
 104.1095390  92.2917780  57.0025890 104.9803700  91.9182680  55.8219030
 102.5661830  88.3855870  62.5226620 103.2034050  88.9990010  62.8885810
 102.7136720  88.4216530  61.5775850  90.0305860 101.5189780  66.0735490
  89.9875490 101.1482690  66.9549950  90.1616870 102.4567350  66.2137310
  98.5740870  89.1952120  65.0694010  99.1881280  89.5131410  64.4075090
  99.1190430  88.7100710  65.6889870  89.8693890 104.4652030  63.1933270
  89.2754210 104.3336730  63.9323310  89.8617730 103.6290170  62.7275370
  99.3148910  87.7584260  61.3963300  98.4408750  88.0919370  61.1936230
  99.2059660  87.2857440  62.2215170 100.2220890  89.9655130  62.7805020
  99.8934250  89.1506890  62.4006750 101.1703190  89.9224940  62.6570710
  89.5006120 101.8310410  62.1441310  88.7740180 101.2115700  62.0767260
  89.5615270 102.2251020  61.2739390  88.4064140  88.9801580  52.8569930
  89.1643500  89.0930460  52.2833960  87.9441310  89.8170780  52.8113360
  90.7789290  89.5065630  51.3971900  91.3082050  88.7195430  51.2679850
  91.4117610  90.1856820  51.6307430  92.9727130  89.2440770  54.4517290
  92.3429870  88.5428080  54.6187420  92.4332270  90.0044900  54.2350450
  95.9119080 105.8580000  67.1227900  96.8386390 105.6224270  67.1663860
  95.8969510 106.6852000  66.6413930  99.6998150  87.9378330  67.4650250
  99.5863600  88.2572940  68.3601770 100.5167890  88.3390840  67.1687530
 102.4796640 105.0849860  66.9468940 103.2721960 104.5899090  66.7394900
 102.7729790 105.7640000  67.5544550  98.6056300  95.9570800  37.8284990
  98.5250350  95.0425410  37.5576700  98.1920720  96.4537870  37.1224700
 100.7581770 102.1410010  38.4893390 100.2963300 101.3697250  38.8180560
 101.5707320 102.1676080  38.9945840  89.1632120  93.0071520  34.3712410
  88.2748820  93.3487490  34.2692290  89.4473310  92.8071840  33.4793240
  96.9845080 104.4268020  38.1097380  96.3656520 104.8825520  37.5391820
  97.8396860 104.5819480  37.7087080  88.3690000  91.0161530  42.0421040
  88.1892840  90.1187280  42.3223800  87.9670080  91.5633400  42.7167990
  91.3393510  91.5903020  35.4050790  91.4460260  92.4906750  35.7119550
  90.4285870  91.5420990  35.1145440 105.2812170  92.7294580  43.4405320
 104.5764340  93.1176290  42.9220430 105.5470090  93.4244870  44.0426250
  91.4637340  89.1987950  44.0039390  91.4655780  89.7160340  43.1985290
  90.6341650  88.7218130  43.9809320  97.8508430  99.3107260  35.5029290
  97.2325700  99.7756710  34.9392010  98.3631680 100.0034740  35.9198800
  87.2191630  99.9963790  32.8768920  86.8419610 100.4850890  32.1453820
  87.4764700 100.6689070  33.5075450 102.8436880 102.2703340  41.9116710
 102.1600400 102.9402450  41.9033380 103.3831170 102.4683990  41.1461570
 100.3795620 104.1147470  40.6261890 100.3922780 103.7109760  39.7584150
  99.8270840 104.8894760  40.5223320 101.6741040 100.8363690  35.7152060
 101.5637370  99.8938020  35.8401480 101.6709290 101.1979330  36.6014820
  99.7781060  99.0177310  41.9544500 100.1949850  98.8037420  41.1197960
 100.5020880  99.2750100  42.5253120  97.2161320  96.4629010  35.0714550
  96.2890600  96.3966390  35.3003020  97.3686140  97.4009140  34.9569790
 103.7243160  97.4164530  42.0460740 102.8961790  97.4857620  41.5710870
 104.3193640  98.0018840  41.5776570 101.2458610  98.0249310  35.5749800
 100.6271030  97.6868860  34.9276100 101.2283060  97.3809070  36.2828990
 101.3785270 104.2493180  43.6796590 100.9015830 105.0565370  43.4869200
 100.6947060 103.5971510  43.8322800  99.4223310  97.2636120  32.5822550
  99.8616590  96.4258550  32.4360370 100.1351730  97.8965520  32.6686690
  97.5318690 102.2032190  36.5503790  97.9714600 102.9456520  36.1359180
  97.4705580 102.4458760  37.4742750 103.0040450  88.5178930  30.8963590
 102.6913110  88.6105760  31.7962660 103.7652920  89.0959960  30.8461020
  89.5222590  95.8838730  35.3540930  89.4020190  96.6100820  34.7422200
  89.2123480  95.1141640  34.8768840 104.9584480 104.0105120  48.7487980
 105.4344200 104.4888010  49.4277060 105.5791640 103.9422610  48.0233480
 104.3617730 101.2017970  45.9087990 104.4880790 100.9629850  44.9905170
 104.4039110 100.3702510  46.3810070 100.1988870 105.1901310  33.9066800
 100.0390010 104.9004250  34.8048630 100.0335580 104.4141440  33.3712030
  99.9015000 102.6988870  32.4664800  99.2080160 102.6966160  31.8067080
 100.6437860 102.2748190  32.0358970  99.4664930 104.3251580  36.5413290
  99.9221880 103.5440960  36.8551910  99.8057450 105.0358400  37.0854470
  87.2167480 100.0968040  43.7004030  87.3798520  99.6273400  42.8823400
  87.6819930  99.5891600  44.3652870  91.9886250  89.2273800  38.7364600
  91.5454400  90.0083340  38.4049120  92.5471240  89.5503690  39.4435540
  91.7800470  94.3507370  36.4645850  91.5541390  94.1344540  37.3692470
  90.9993000  94.7835830  36.1191820  99.0098230  94.3570740  35.0636500
  98.4107120  95.0806540  34.8800120  99.5577840  94.2947520  34.2812950
  94.2199680  95.2492950  47.1306120  94.1243280  94.3087680  46.9806520
  95.0631660  95.4708020  46.7354190  97.6163100  92.9934280  37.0939780
  98.0092670  93.3106480  36.2808470  97.9779950  92.1146160  37.2084300
  86.6527270  89.5835080  39.3169980  86.3640320  90.1537940  40.0294960
  87.3973030  89.1039530  39.6801210  98.2018240  95.5840030  41.1890560
  97.4699360  96.0926840  41.5380660  97.8042580  94.7670010  40.8879340
  90.4898010  92.1420720  38.5537260  90.1498060  92.6195950  39.3104310
  89.7275330  91.6885840  38.1938360  94.7015780  93.2606310  32.5849810
  94.8228600  93.2192790  33.5335630  94.3164290  94.1230460  32.4296540
  93.7137280  95.5707450  31.9833110  93.1454180  95.1225700  31.3569020
  94.4226280  95.9300230  31.4498260 102.0914900  88.4505890  46.4399880
 102.4160670  87.7195550  46.9657860 102.1271410  88.1319530  45.5380870
  87.8044090  91.0639700  37.4701930  87.5191010  90.6995370  38.3080550
  87.7422950  90.3320160  36.8565070 102.0172740  98.5631000  40.0485910
 102.7371860  99.0586290  39.6582020 101.8154560  97.8848890  39.4039780
 100.1931070  94.3288610  32.4877460 101.0810690  94.6405840  32.3128800
 100.1636160  93.4560860  32.0958040  96.1891660 100.5012300  33.1665630
  96.5307360 101.2454530  32.6708950  95.3604370 100.8143420  33.5290460
 102.4645340  95.6400450  31.9557320 102.3809060  96.0714670  31.1053760
 103.1839530  96.0998800  32.3884140 103.5419480  98.0967970  45.0327290
 102.8167670  98.6896750  44.8356680 104.0694940  98.0891510  44.2340660
 103.4932590 102.4942710  34.6839450 102.8508750 101.8398330  34.9583170
 103.1063250 102.8997800  33.9080120  90.3621340  87.9309510  36.0229430
  90.2335970  87.9227410  36.9714350  89.5383360  88.2692600  35.6720440
 101.8829970 101.3859170  31.2215800 101.6567550 100.6689610  31.8140440
 101.4926170 101.1371610  30.3837550  87.6646000 105.4126030  31.9960260
  88.0243640 106.0115370  31.3417530  87.5238340 105.9585920  32.7695290
  87.3615270  89.6900630  45.4836130  86.6473790  89.8897550  46.0888740
  87.7810310  88.9140200  45.8550930 101.4646220  99.3031110  32.8829960
 101.1767920  99.7643800  33.6707840 102.2598390  98.8428880  33.1514180
  87.6487860 103.6780890  46.4702660  87.7578980 102.7375630  46.3298050
  86.9968420 103.9435640  45.8216390  89.2821260  98.0172120  33.5580690
  88.6749210  98.7571020  33.5675990  89.7570610  98.1071480  32.7318890
  96.6674220 102.8585470  31.4759120  96.7686200 102.6549460  30.5461100
  95.7675960 102.6043750  31.6806900  94.1900110  93.4165830  35.4583020
  93.4816260  93.8852170  35.8996630  94.4744590  92.7587840  36.0928210
  92.3935130  91.7250910  32.8333730  93.2425660  92.1621060  32.7673920
  92.0266400  92.0371170  33.6605790 103.0222900  91.0530490  44.3003940
 102.5196500  91.7935890  44.6397750 103.8379560  91.4414490  43.9840730
 101.3144910  96.2963670  37.7465300 100.3735050  96.3113900  37.9212990
 101.6288980  95.5099630  38.1925600  91.2926550  97.9783270  31.3069260
  92.0589820  97.8664630  31.8694690  91.3701240  97.2821240  30.6546030
  89.9873310  95.4108340  31.9902150  90.0676900  94.4635850  32.1019550
  90.8793060  95.7415220  32.0962810 103.3170490 103.4672520  39.4219560
 103.4417910 104.2903690  39.8943370 104.1836050 103.2563250  39.0743710
  87.6733500 101.6277300  34.9678200  86.7473280 101.8698440  34.9583610
  88.1389930 102.4551560  34.8462950  98.6310930 100.8529670  48.2297680
  98.0249090 100.8761270  47.4893430  98.3265040 100.1212710  48.7664930
 102.9520500 103.9604170  32.3399000 102.6662010 103.5469310  31.5253180
 102.7540050 104.8891880  32.2199520  94.4167730  99.9537450  30.7804610
  94.3118370  99.3389800  31.5065990  94.2491950  99.4303340  29.9967620
  97.6570460  99.0157480  31.3846600  97.1080560  99.4626780  32.0289340
  98.2789720  98.5106730  31.9084270 101.7105400 100.3699580  47.3168860
 102.4514870 100.7075340  46.8136320 100.9478080 100.5391640  46.7638630
  95.8373220  96.9986010  30.5289000  96.3578880  96.2835030  30.1630150
  96.4841620  97.6371880  30.8289510 100.3851060  98.4214410  45.8524070
 100.7992080  98.5759490  46.7014490  99.4502060  98.5469630  46.0149850
  91.9745300  90.9207320  46.1680170  91.8802170  90.3028070  45.4431040
  91.3942690  91.6473610  45.9410080  97.4830190  96.1051070  45.2057840
  97.6026400  95.5092210  45.9452680  98.3424190  96.1420760  44.7859140
  99.8218090  96.6588260  43.7820350  99.2953310  97.1830880  43.1785490
 100.1649430  97.2915650  44.4130080  92.2204480  94.0481630  30.2270060
  92.0193540  93.1848990  30.5883400  92.0496530  93.9614990  29.2891660
  91.0187280  91.1482250  30.2147940  91.3213180  91.1549680  29.3067090
  91.7581870  90.7980110  30.7115600  90.0417410 100.4524670  31.0477740
  90.4792280 100.9954340  31.7035320  90.5265140  99.6271620  31.0574080
  87.7453420 104.1084290  41.2379630  87.3084410 104.2885090  42.0703780
  88.3131100 104.8658910  41.0961350 103.3815600 103.6101290  45.5256940
 102.7817590 103.6693850  44.7820860 103.5109500 102.6706270  45.6553790
  87.5777850  96.6204520  37.5968510  86.9226690  96.3516160  36.9528210
  88.4155800  96.5109000  37.1470490 102.0667240 100.3353270  43.6233100
 101.2527080 100.7650430  43.8858890 102.4741440 100.9471680  43.0102150
 103.4157640  95.4741470  45.1502320 103.1843730  95.2454220  44.2500270
 103.6762190  96.3941020  45.1047210  86.7915930  93.8303450  33.5393840
  85.8880010  94.0933650  33.3645500  87.2756550  94.1014620  32.7593800
 103.3008980  94.5527440  38.8170040 103.8246460  94.0590090  38.1860210
 103.8868400  94.6877800  39.5617610 103.4798700  94.6367310  42.3389590
 102.5301410  94.6030850  42.4534580 103.6611710  95.5467420  42.1039360
  89.3343140  92.8868990  31.4488220  90.0434840  92.4652210  30.9635500
  88.6183080  92.9544220  30.8171570  88.6709490  88.1914510  40.3913490
  89.3185680  87.6411890  39.9508650  89.0911330  88.4457660  41.2129300
 102.1243290 105.0871870  37.1501370 102.7202360 104.7656440  36.4735790
 102.3821440 104.6143690  37.9414640  88.4241490  88.3470180  43.1338810
  88.0756310  88.8034000  43.8996990  88.0929190  87.4527310  43.2161240
 104.9916050 105.0943750  43.7012360 104.4974330 105.4912620  42.9839490
 104.3829340 104.4692960  44.0949640  89.0962130  87.8746380  46.4089580
  89.6445120  87.6934430  45.6455690  89.1617440  87.0840490  46.9445890
  89.8693890 104.4652030  44.4189780  89.2754210 104.3336730  45.1579820
  89.8617730 103.6290170  43.9531880 102.6755500 105.7367170  40.9799100
 102.2158470 106.4882980  40.6057120 102.0467960 105.0173640  40.9213900
  89.5006120 101.8310410  43.3697820  88.7740180 101.2115700  43.3023770
  89.5615270 102.2251020  42.4995900  94.9477950  91.0940850  37.0728750
  94.1352460  90.7197740  36.7324630  95.4519590  90.3385930  37.3749940
  89.3898820 103.8418030  34.0244720  88.8646440 104.2226060  33.3206680
  89.3143400 104.4668800  34.7454430  90.7789290  89.5065630  32.6228410
  91.3082050  88.7195430  32.4936360  91.4117610  90.1856820  32.8563940
  92.9727130  89.2440770  35.6773800  92.3429870  88.5428080  35.8443930
  92.4332270  90.0044900  35.4606960 104.1464140 105.4005570  35.3458660
 104.3216330 104.7143310  34.7019580 103.4485710 105.9252620  34.9535330
  93.0982690  88.5224750  48.1126290  92.8166960  89.0258350  47.3487110
  93.4802390  87.7246500  47.7468420 102.4796640 105.0849860  48.1725450
 103.2721960 104.5899090  47.9651410 102.7729790 105.7640000  48.7801060
  98.6056300  95.9570800  19.0541500  98.5250350  95.0425410  18.7833210
  98.1920720  96.4537870  18.3481210  96.7374340  97.7349820  20.9350770
  95.9616440  97.2550260  21.2249340  97.3887270  97.0555470  20.7606930
  90.7540170  98.0469630  21.8126530  89.9225050  97.7918340  22.2123040
  91.3621150  98.1180400  22.5484450 100.7581770 102.1410010  19.7149900
 100.2963300 101.3697250  20.0437070 101.5707320 102.1676080  20.2202350
  90.7341430 102.0809720  22.0084550  91.0369470 101.1907460  21.8294770
  91.4785020 102.6379940  21.7806800  89.1632120  93.0071520  15.5968920
  88.2748820  93.3487490  15.4948800  89.4473310  92.8071840  14.7049750
  87.1265130  95.6077170  21.4808620  87.6981240  94.8399370  21.4812260
  87.1266670  95.9065930  20.5715230  96.1783330 100.4107010  20.9420930
  96.1091610  99.4696950  20.7810060  96.9403190 100.5008420  21.5143500
  97.2088500  93.2177390  21.1689860  97.5853320  92.3449270  21.0563530
  97.1108010  93.5536090  20.2780300  91.3393510  91.5903020  16.6307300
  91.4460260  92.4906750  16.9376060  90.4285870  91.5420990  16.3401950
 100.9912620  90.7127830  18.1018200 101.8122240  90.2224400  18.1443680
 101.0246700  91.3025490  18.8550040  93.1801240  94.5589390  20.9632480
  93.6879460  95.0570360  21.6037500  93.7114480  93.7824590  20.7871840
 105.2812170  92.7294580  24.6661830 104.5764340  93.1176290  24.1476940
 105.5470090  93.4244870  25.2682760  97.8508430  99.3107260  16.7285800
  97.2325700  99.7756710  16.1648520  98.3631680 100.0034740  17.1455310
  92.7140190  98.8383130  23.4069400  92.3809570  99.4652050  24.0490470
  92.8906870  99.3645010  22.6271070 101.2274100  92.6528210  20.8745740
 100.5229670  92.9413100  21.4548850 101.5886260  93.4628320  20.5145300
  91.9259290 100.8063930  25.2218580  92.5433290 101.4815010  24.9403030
  91.0652410 101.2151910  25.1306080  87.2191630  99.9963790  14.1025430
  86.8419610 100.4850890  13.3710330  87.4764700 100.6689070  14.7331960
 102.8436880 102.2703340  23.1373220 102.1600400 102.9402450  23.1289890
 103.3831170 102.4683990  22.3718080 104.2961020  92.0983000  21.2654950
 103.3485930  92.1321980  21.3970380 104.6211010  92.9121950  21.6504310
 101.6741040 100.8363690  16.9408570 101.5637370  99.8938020  17.0657990
 101.6709290 101.1979330  17.8271330  97.2161320  96.4629010  16.2971060
  96.2890600  96.3966390  16.5259530  97.3686140  97.4009140  16.1826300
  97.2030400  92.7346010  13.2938220  96.2634070  92.8959970  13.3790680
  97.5213660  93.4531690  12.7474210 103.7243160  97.4164530  23.2717250
 102.8961790  97.4857620  22.7967380 104.3193640  98.0018840  22.8033080
 101.2458610  98.0249310  16.8006310 100.6271030  97.6868860  16.1532610
 101.2283060  97.3809070  17.5085500  92.8217960  96.9893750  19.0790790
  92.4174960  96.2771000  18.5836690  92.9081080  96.6446990  19.9678830
  93.2899660 100.6761310  21.2430000  92.9927950 100.0706780  20.5637780
  94.2399480 100.7138620  21.1319360  92.3818090 100.4143000  27.8937800
  91.4846620 100.6382970  28.1411200  92.4070960 100.5377940  26.9449200
  99.4223310  97.2636120  13.8079060  99.8616590  96.4258550  13.6616880
 100.1351730  97.8965520  13.8943200  91.2089310  97.2856320  26.4695170
  91.0697080  98.1579120  26.8382570  90.3270670  96.9429130  26.3243110
  97.5318690 102.2032190  17.7760300  97.9714600 102.9456520  17.3615690
  97.4705580 102.4458760  18.6999260  93.0069660 103.2278020  28.6780320
  92.9785090 103.6320970  27.8108750  92.8434630 102.2988380  28.5151920
 103.0040450  88.5178930  12.1220100 102.6913110  88.6105760  13.0219170
 103.7652920  89.0959960  12.0717530  89.5222590  95.8838730  16.5797440
  89.4020190  96.6100820  15.9678710  89.2123480  95.1141640  16.1025350
 104.9584480 104.0105120  29.9744490 105.4344200 104.4888010  30.6533570
 105.5791640 103.9422610  29.2489990  87.1607960  99.0553870  22.3866080
  87.2388380  99.1902640  21.4421800  87.7749640  98.3469760  22.5794200
  88.4055590 100.7554060  18.7972260  87.9983670 100.8968650  17.9425860
  89.2968600 100.4714220  18.5943470 104.3617730 101.2017970  27.1344500
 104.4880790 100.9629850  26.2161680 104.4039110 100.3702510  27.6066580
 100.1988870 105.1901310  15.1323310 100.0390010 104.9004250  16.0305140
 100.0335580 104.4141440  14.5968540  99.9015000 102.6988870  13.6921310
  99.2080160 102.6966160  13.0323590 100.6437860 102.2748190  13.2615480
  99.4664930 104.3251580  17.7669800  99.9221880 103.5440960  18.0808420
  99.8057450 105.0358400  18.3110980 104.2141740  93.2550430  28.0994240
 103.5986010  93.7630100  27.5709700 103.8938160  92.3548760  28.0420180
  87.2167480 100.0968040  24.9260540  87.3798520  99.6273400  24.1079910
  87.6819930  99.5891600  25.5909380  96.2756060  92.0942320  25.5656430
  95.8135430  92.3025340  26.3776370  95.8734170  91.2801670  25.2627100
 101.2760570  93.3151270  26.6953090 100.4254160  93.0157020  27.0162160
 101.1162360  93.5593280  25.7836910  98.3710280  94.8153020  28.7951880
  98.6963690  93.9816770  28.4554110  99.1590610  95.3381540  28.9430210
  95.1045070  88.8484500  14.8426940  94.4799250  88.8444370  15.5680250
  95.0175190  87.9815460  14.4462910  91.7800470  94.3507370  17.6902360
  91.5541390  94.1344540  18.5948980  90.9993000  94.7835830  17.3448330
  99.0098230  94.3570740  16.2893010  98.4107120  95.0806540  16.1056630
  99.5577840  94.2947520  15.5069460  94.2199680  95.2492950  28.3562630
  94.1243280  94.3087680  28.2063030  95.0631660  95.4708020  27.9610700
  97.6163100  92.9934280  18.3196290  98.0092670  93.3106480  17.5064980
  97.9779950  92.1146160  18.4340810  86.6527270  89.5835080  20.5426490
  86.3640320  90.1537940  21.2551470  87.3973030  89.1039530  20.9057720
  86.8397500  93.5255200  11.7529210  86.7572170  94.4685960  11.8944200
  86.4880560  93.3830110  10.8741560  94.7015780  93.2606310  13.8106320
  94.8228600  93.2192790  14.7592140  94.3164290  94.1230460  13.6553050
  98.6644150  91.0373710  21.8270010  98.6816890  91.4882360  22.6711860
  98.4159730  90.1379350  22.0403450  93.7137280  95.5707450  13.2089620
  93.1454180  95.1225700  12.5825530  94.4226280  95.9300230  12.6754770
  88.7906460  99.4719470  27.0856350  88.4061250  98.8313140  27.6839310
  89.1018650 100.1755590  27.6551080  94.9403600  96.3196010  22.5664970
  95.3073730  95.8454580  23.3126310  94.7508660  97.1937580  22.9073310
  87.8044090  91.0639700  18.6958440  87.5191010  90.6995370  19.5337060
  87.7422950  90.3320160  18.0821580  92.7302970  95.3604650  24.8849180
  92.4260040  96.2396630  25.1099540  93.6849430  95.4204440  24.9206620
  91.2584760  99.5665640  15.4816030  90.4847020  99.0263260  15.3214750
  91.9879390  99.0472250  15.1433790  97.4782680  89.9568960  15.4171810
  96.6647290  89.4582130  15.3417120  97.2844630  90.7967210  15.0008160
 100.1931070  94.3288610  13.7133970 101.0810690  94.6405840  13.5385310
 100.1636160  93.4560860  13.3214550  91.3022160  99.2346020  19.1194840
  91.8200830  98.4314280  19.0651730  90.8506180  99.1725160  19.9611670
  96.1891660 100.5012300  14.3922140  96.5307360 101.2454530  13.8965460
  95.3604370 100.8143420  14.7546970  88.7866700  96.2007390  26.0320540
  88.4281640  96.8661240  26.6193880  88.4921260  95.3690940  26.4033160
  91.9879820  96.6591630  28.9160090  91.6879960  96.8048810  28.0187910
  92.7591060  96.0996920  28.8233480 102.4645340  95.6400450  13.1813830
 102.3809060  96.0714670  12.3310270 103.1839530  96.0998800  13.6140650
 103.4932590 102.4942710  15.9095960 102.8508750 101.8398330  16.1839680
 103.1063250 102.8997800  15.1336630  99.0719070  99.8228140  19.7567650
  99.4242890  99.2256270  19.0969020  98.1881400  99.4972370  19.9275900
  95.1582350 100.5825830  17.1638060  95.8453480 101.1295040  17.5445650
  94.3714770 101.1266560  17.1987670  87.2974750  96.1998650  12.6555140
  88.1669600  96.4823450  12.9391060  86.8065070  97.0134520  12.5403950
  94.4609560  97.5871860  16.7763420  94.9172340  98.3977110  17.0023610
  94.1097770  97.2695000  17.6081910  90.3621340  87.9309510  17.2485940
  90.2335970  87.9227410  18.1970860  89.5383360  88.2692600  16.8976950
 101.8829970 101.3859170  12.4472310 101.6567550 100.6689610  13.0396950
 101.4926170 101.1371610  11.6094060  87.6646000 105.4126030  13.2216770
  88.0243640 106.0115370  12.5674040  87.5238340 105.9585920  13.9951800
 101.4646220  99.3031110  14.1086470 101.1767920  99.7643800  14.8964350
 102.2598390  98.8428880  14.3770690  87.6487860 103.6780890  27.6959170
  87.7578980 102.7375630  27.5554560  86.9968420 103.9435640  27.0472900
  95.6400450 101.9496780  29.0957290  95.3197320 101.2306020  29.6402980
  94.9658810 102.6251850  29.1693350  93.6814620 102.7957230  14.0390440
  93.6724720 103.5286920  13.4234950  92.7612980 102.5488810  14.1317400
  89.2821260  98.0172120  14.7837200  88.6749210  98.7571020  14.7932500
  89.7570610  98.1071480  13.9575400  98.8554050  92.1822940  24.4594090
  99.2234870  91.3618150  24.7873660  97.9952250  92.2424830  24.8749740
 102.2216080  91.1379880  15.2681650 101.5929240  91.2425550  14.5539880
 101.7268000  91.3576660  16.0575530  96.6674220 102.8585470  12.7015630
  96.7686200 102.6549460  11.7717610  95.7675960 102.6043750  12.9063410
  94.1900110  93.4165830  16.6839530  93.4816260  93.8852170  17.1253140
  94.4744590  92.7587840  17.3184720  98.2215540  90.1416490  18.1235320
  98.0983320  90.1602620  17.1744830  99.1700100  90.1895430  18.2433720
  95.3092330 105.3771790  17.3963300  95.5633830 105.3393180  16.4742670
  94.3604810 105.2505120  17.3891550  92.3935130  91.7250910  14.0590240
  93.2425660  92.1621060  13.9930430  92.0266400  92.0371170  14.8862300
 103.0222900  91.0530490  25.5260450 102.5196500  91.7935890  25.8654260
 103.8379560  91.4414490  25.2097240 101.3144910  96.2963670  18.9721810
 100.3735050  96.3113900  19.1469500 101.6288980  95.5099630  19.4182110
  91.2926550  97.9783270  12.5325770  92.0589820  97.8664630  13.0951200
  91.3701240  97.2821240  11.8802540  89.9873310  95.4108340  13.2158660
  90.0676900  94.4635850  13.3276060  90.8793060  95.7415220  13.3219320
 103.3170490 103.4672520  20.6476070 103.4417910 104.2903690  21.1199880
 104.1836050 103.2563250  20.3000220  87.6733500 101.6277300  16.1934710
  86.7473280 101.8698440  16.1840120  88.1389930 102.4551560  16.0719460
  89.7946300 104.7449800  29.5078780  90.5959030 105.0661850  29.9214180
  89.2798120 104.3845380  30.2298690  93.8990330 104.7334040  12.1418770
  94.6918940 105.0222870  11.6900560  93.3794680 104.3026210  11.4631250
 100.0611300 104.5809960  28.0663600 101.0133050 104.4967980  28.0163840
  99.9139520 105.2451670  28.7397390 102.9520500 103.9604170  13.5655510
 102.6662010 103.5469310  12.7509690 102.7540050 104.8891880  13.4456030
  87.5144110  97.2323260  28.4514830  88.0183130  96.6530540  29.0231060
  86.7751530  97.5163490  28.9891200  94.4167730  99.9537450  12.0061120
  94.3118370  99.3389800  12.7322500  94.2491950  99.4303340  11.2224130
  97.6570460  99.0157480  12.6103110  97.1080560  99.4626780  13.2545850
  98.2789720  98.5106730  13.1340780  89.5467190  95.3752850  29.3464900
  89.5872530  95.0766720  30.2550130  90.4012690  95.7760460  29.1872420
  93.3245580  97.9748400  14.5068410  93.7462000  97.8088270  15.3499800
  93.4496420  97.1648630  14.0123550  91.4873000  93.9544950  27.3139390
  90.9569460  93.4635900  26.6862730  92.1561070  94.3829150  26.7797320
  95.8373220  96.9986010  11.7545510  96.3578880  96.2835030  11.3886660
  96.4841620  97.6371880  12.0546020 100.8573230  95.7610570  29.0819730
 101.4394000  95.0062890  28.9940210 101.0335000  96.2918010  28.3051210
  92.2204480  94.0481630  11.4526570  92.0193540  93.1848990  11.8139910
  92.0496530  93.9614990  10.5148170  99.6992790  88.8589860  13.9813450
  99.9795080  88.0157760  14.3372870  98.9258520  89.0912970  14.4952200
  91.0187280  91.1482250  11.4404450  91.3213180  91.1549680  10.5323600
  91.7581870  90.7980110  11.9372110  94.2372210  90.0916870  12.4260650
  93.8894210  89.4140860  11.8463100  94.4384980  89.6306380  13.2404040
  96.4021250 105.0797620  14.0447250  97.2972040 105.4182590  14.0666010
  96.4338880 104.3577030  13.4171530  90.0417410 100.4524670  12.2734250
  90.4792280 100.9954340  12.9291830  90.5265140  99.6271620  12.2830590
  91.8525130 101.5722710  17.3856480  91.5520670 101.4487680  18.2860390
  91.7462620 100.7131300  16.9772210 103.3815600 103.6101290  26.7513450
 102.7817590 103.6693850  26.0077370 103.5109500 102.6706270  26.8810300
 104.6217050 101.3519110  12.0883160 103.7910010 101.4195760  12.5590390
 104.7988880 102.2423230  11.7850020 104.0773510  98.0966590  14.5917360
 104.8392420  98.6663240  14.6977050 104.0927880  97.5293790  15.3625670
  87.5777850  96.6204520  18.8225020  86.9226690  96.3516160  18.1784720
  88.4155800  96.5109000  18.3727000 105.0833480  98.9516690  19.4359290
 105.4542310  98.1684010  19.0295260 105.7235410  99.6405790  19.2576590
 104.1292680  98.3900960  11.7489880 104.4041520  99.2979840  11.6209100
 103.9403420  98.3263490  12.6851870 100.5268290  91.4145810  13.0443510
 100.9453170  91.2276790  12.2040170 100.2204350  90.5624860  13.3546440
 104.0258020  96.3269950  16.7419310 103.6501620  95.5597880  16.3100600
 103.2961140  96.7092650  17.2294240  88.6153780  97.0057090  23.3628360
  88.9826820  96.9184490  24.2424380  88.0464600  96.2423640  23.2635220
 103.4157640  95.4741470  26.3758830 103.1843730  95.2454220  25.4756780
 103.6762190  96.3941020  26.3303720  88.1669780  93.9166180  27.2686780
  87.2725830  93.8832940  27.6080490  88.7067330  94.1152970  28.0338030
  86.7915930  93.8303450  14.7650350  85.8880010  94.0933650  14.5902010
  87.2756550  94.1014620  13.9850310 103.3008980  94.5527440  20.0426550
 103.8246460  94.0590090  19.4116720 103.8868400  94.6877800  20.7874120
 103.4798700  94.6367310  23.5646100 102.5301410  94.6030850  23.6791090
 103.6611710  95.5467420  23.3295870  89.3343140  92.8868990  12.6744730
  90.0434840  92.4652210  12.1892010  88.6183080  92.9544220  12.0428080
  88.9817300  88.9408320  11.7147380  89.7045430  89.4817260  12.0328600
  89.2541820  88.6671740  10.8388920 102.7908950  93.8100790  15.9818960
 103.2868070  93.5771660  16.7667840 102.5925020  92.9712630  15.5656600
 104.2196110  92.4461740  18.5156640 104.1095390  92.2917780  19.4538910
 104.9803700  91.9182680  18.2732050 102.5661830  88.3855870  24.9739640
 103.2034050  88.9990010  25.3398830 102.7136720  88.4216530  24.0288870
 105.1086380  90.2769660  11.7562780 106.0335690  90.1450840  11.5481070
 105.0862170  90.3562480  12.7099230 105.1824870  91.0480320  14.3819490
 104.3876370  90.9825440  14.9112400 105.3868150  91.9830960  14.3704840
 102.1243290 105.0871870  18.3757880 102.7202360 104.7656440  17.6992300
 102.3821440 104.6143690  19.1671150  90.0305860 101.5189780  28.5248510
  89.9875490 101.1482690  29.4062970  90.1616870 102.4567350  28.6650330
 104.9916050 105.0943750  24.9268870 104.4974330 105.4912620  24.2096000
 104.3829340 104.4692960  25.3206150  89.8693890 104.4652030  25.6446290
  89.2754210 104.3336730  26.3836330  89.8617730 103.6290170  25.1788390
  99.3148910  87.7584260  23.8476320  98.4408750  88.0919370  23.6449250
  99.2059660  87.2857440  24.6728190 100.2220890  89.9655130  25.2318040
  99.8934250  89.1506890  24.8519770 101.1703190  89.9224940  25.1083730
 102.6755500 105.7367170  22.2055610 102.2158470 106.4882980  21.8313630
 102.0467960 105.0173640  22.1470410  89.5006120 101.8310410  24.5954330
  88.7740180 101.2115700  24.5280280  89.5615270 102.2251020  23.7252410
  97.0623730  88.6754100  22.7869230  96.2795520  89.1499600  23.0665990
  96.7686660  87.7708930  22.6782410 101.6144800  89.3777200  20.8318320
 102.0552890  89.3222300  19.9839920 101.3452390  90.2935210  20.9028500
 103.4783370  89.0092440  18.8427140 103.4171770  88.0653660  18.6958160
 104.2575400  89.1172530  19.3880600  88.4064140  88.9801580  15.3082950
  89.1643500  89.0930460  14.7346980  87.9441310  89.8170780  15.2626380
  94.9477950  91.0940850  18.2985260  94.1352460  90.7197740  17.9581140
  95.4519590  90.3385930  18.6006450  99.4502930  87.7583300  19.5368330
 100.0532300  88.3303510  20.0116850  98.7095920  88.3222740  19.3142230
 102.5937530  88.1604860  14.8108610 102.7888160  89.0588310  15.0776040
 101.8067400  87.9291940  15.3041560  89.3898820 103.8418030  15.2501230
  88.8646440 104.2226060  14.5463190  89.3143400 104.4668800  15.9710940
  90.7789290  89.5065630  13.8484920  91.3082050  88.7195430  13.7192870
  91.4117610  90.1856820  14.0820450  92.9727130  89.2440770  16.9030310
  92.3429870  88.5428080  17.0700440  92.4332270  90.0044900  16.6863470
 104.1464140 105.4005570  16.5715170 104.3216330 104.7143310  15.9276090
 103.4485710 105.9252620  16.1791840  91.9891790 105.7900410  14.1250480
  92.7210610 105.5059690  13.5774370  92.2485460 105.5513690  15.0149860
  91.1506580 101.9065140  14.1296810  90.5215460 102.3750240  14.6782640
  91.2654410 101.0614360  14.5643000 102.4796640 105.0849860  29.3981960
 103.2721960 104.5899090  29.1907920 102.7729790 105.7640000  30.0057570
  96.7374340  97.7349820   2.1607280  95.9616440  97.2550260   2.4505850
  97.3887270  97.0555470   1.9863440  90.7540170  98.0469630   3.0383040
  89.9225050  97.7918340   3.4379550  91.3621150  98.1180400   3.7740960
  90.7341430 102.0809720   3.2341060  91.0369470 101.1907460   3.0551280
  91.4785020 102.6379940   3.0063310  87.1265130  95.6077170   2.7065130
  87.6981240  94.8399370   2.7068770  87.1266670  95.9065930   1.7971740
  96.1783330 100.4107010   2.1677440  96.1091610  99.4696950   2.0066570
  96.9403190 100.5008420   2.7400010  88.3690000  91.0161530   4.4934060
  88.1892840  90.1187280   4.7736820  87.9670080  91.5633400   5.1681010
  88.9876670  93.5122030   3.1016400  89.6686780  93.7760400   3.7203800
  88.6724720  92.6722900   3.4354410  93.1801240  94.5589390   2.1888990
  93.6879460  95.0570360   2.8294010  93.7114480  93.7824590   2.0128350
 105.2812170  92.7294580   5.8918340 104.5764340  93.1176290   5.3733450
 105.5470090  93.4244870   6.4939270  91.4637340  89.1987950   6.4552410
  91.4655780  89.7160340   5.6498310  90.6341650  88.7218130   6.4322340
  92.7140190  98.8383130   4.6325910  92.3809570  99.4652050   5.2746980
  92.8906870  99.3645010   3.8527580 101.2274100  92.6528210   2.1002250
 100.5229670  92.9413100   2.6805360 101.5886260  93.4628320   1.7401810
  91.1452670  90.9097910   4.4622860  91.4869480  91.7539960   4.1676730
  90.2068480  91.0581650   4.5788200  91.9259290 100.8063930   6.4475090
  92.5433290 101.4815010   6.1659540  91.0652410 101.2151910   6.3562590
 102.8436880 102.2703340   4.3629730 102.1600400 102.9402450   4.3546400
 103.3831170 102.4683990   3.5974590 104.2961020  92.0983000   2.4911460
 103.3485930  92.1321980   2.6226890 104.6211010  92.9121950   2.8760820
 100.3795620 104.1147470   3.0774910 100.3922780 103.7109760   2.2097170
  99.8270840 104.8894760   2.9736340  99.7781060  99.0177310   4.4057520
 100.1949850  98.8037420   3.5710980 100.5020880  99.2750100   4.9766140
 103.7243160  97.4164530   4.4973760 102.8961790  97.4857620   4.0223890
 104.3193640  98.0018840   4.0289590 100.6885170  94.2033850   5.4428630
 100.2756350  95.0287560   5.6968620  99.9561120  93.6178890   5.2504990
  93.2899660 100.6761310   2.4686510  92.9927950 100.0706780   1.7894290
  94.2399480 100.7138620   2.3575870  91.5346580  93.7636960   4.0846340
  92.0861170  93.8732300   3.3099590  92.0490090  94.1374560   4.8001570
 101.3785270 104.2493180   6.1309610 100.9015830 105.0565370   5.9382220
 100.6947060 103.5971510   6.2835820  92.3818090 100.4143000   9.1194310
  91.4846620 100.6382970   9.3667710  92.4070960 100.5377940   8.1705710
  91.2089310  97.2856320   7.6951680  91.0697080  98.1579120   8.0639080
  90.3270670  96.9429130   7.5499620  93.0069660 103.2278020   9.9036830
  92.9785090 103.6320970   9.0365260  92.8434630 102.2988380   9.7408430
 104.9584480 104.0105120  11.2001000 105.4344200 104.4888010  11.8790080
 105.5791640 103.9422610  10.4746500  87.1607960  99.0553870   3.6122590
  87.2388380  99.1902640   2.6678310  87.7749640  98.3469760   3.8050710
 104.3617730 101.2017970   8.3601010 104.4880790 100.9629850   7.4418190
 104.4039110 100.3702510   8.8323090  98.2234470 104.9045970   6.9295820
  98.7379140 104.8153980   7.7318250  97.3803550 105.2505670   7.2223730
 104.2141740  93.2550430   9.3250750 103.5986010  93.7630100   8.7966210
 103.8938160  92.3548760   9.2676690  87.2167480 100.0968040   6.1517050
  87.3798520  99.6273400   5.3336420  87.6819930  99.5891600   6.8165890
  96.2756060  92.0942320   6.7912940  95.8135430  92.3025340   7.6032880
  95.8734170  91.2801670   6.4883610 101.2760570  93.3151270   7.9209600
 100.4254160  93.0157020   8.2418670 101.1162360  93.5593280   7.0093420
  98.3710280  94.8153020  10.0208390  98.6963690  93.9816770   9.6810620
  99.1590610  95.3381540  10.1686720  94.0262150  89.7721130   3.0467220
  94.3234480  90.6783960   2.9659240  94.5747710  89.2839910   2.4326790
  94.2199680  95.2492950   9.5819140  94.1243280  94.3087680   9.4319540
  95.0631660  95.4708020   9.1867210  89.3510220  91.6606620   7.7352920
  88.9573610  92.5081830   7.9425700  88.6628620  91.0232990   7.9261560
  95.9255270  91.7441590  10.8049660  95.2353590  91.5513790  11.4395750
  96.6687570  92.0276230  11.3373960  86.6527270  89.5835080   1.7683000
  86.3640320  90.1537940   2.4807980  87.3973030  89.1039530   2.1314230
  98.2018240  95.5840030   3.6403580  97.4699360  96.0926840   3.9893680
  97.8042580  94.7670010   3.3392360  98.6644150  91.0373710   3.0526520
  98.6816890  91.4882360   3.8968370  98.4159730  90.1379350   3.2659960
 102.0914900  88.4505890   8.8912900 102.4160670  87.7195550   9.4170880
 102.1271410  88.1319530   7.9893890  88.7906460  99.4719470   8.3112860
  88.4061250  98.8313140   8.9095820  89.1018650 100.1755590   8.8807590
  94.9403600  96.3196010   3.7921480  95.3073730  95.8454580   4.5382820
  94.7508660  97.1937580   4.1329820  92.7302970  95.3604650   6.1105690
  92.4260040  96.2396630   6.3356050  93.6849430  95.4204440   6.1463130
 102.0172740  98.5631000   2.4998930 102.7371860  99.0586290   2.1095040
 101.8154560  97.8848890   1.8552800  97.3991540  98.6340060   8.3867930
  97.3328850  97.7135730   8.1325520  96.7696680  98.7315500   9.1012570
  88.7866700  96.2007390   7.2577050  88.4281640  96.8661240   7.8450390
  88.4921260  95.3690940   7.6289670  91.9879820  96.6591630  10.1416600
  91.6879960  96.8048810   9.2444420  92.7591060  96.0996920  10.0489990
  97.3308270 101.4560630   8.1371730  97.3452810 100.5241590   7.9190640
  96.6233370 101.5420390   8.7761500 103.5419480  98.0967970   7.4840310
 102.8167670  98.6896750   7.2869700 104.0694940  98.0891510   6.6853680
  96.7642170 103.0978200   5.2312230  97.4084390 103.3037580   5.9085650
  97.1271610 102.3366600   4.7783080  98.0374250 101.1010550   3.9489680
  98.6796480 100.4003710   4.0621850  98.5623600 101.8808990   3.7686570
  99.8111870 101.9005450   7.1525740 100.1468110 102.4872140   7.8303660
  98.8912210 101.7698160   7.3823530  87.3615270  89.6900630   7.9349150
  86.6473790  89.8897550   8.5401760  87.7810310  88.9140200   8.3063950
  87.6487860 103.6780890   8.9215680  87.7578980 102.7375630   8.7811070
  86.9968420 103.9435640   8.2729410  95.6400450 101.9496780  10.3213800
  95.3197320 101.2306020  10.8659490  94.9658810 102.6251850  10.3949860
  98.8554050  92.1822940   5.6850600  99.2234870  91.3618150   6.0130170
  97.9952250  92.2424830   6.1006250  95.8156040  94.8362530   5.9088570
  96.3141290  95.3108350   6.5740420  95.9578990  93.9126050   6.1158600
 103.0222900  91.0530490   6.7516960 102.5196500  91.7935890   7.0910770
 103.8379560  91.4414490   6.4353750  89.7946300 104.7449800  10.7335290
  90.5959030 105.0661850  11.1470690  89.2798120 104.3845380  11.4555200
  98.6310930 100.8529670  10.6810700  98.0249090 100.8761270   9.9406450
  98.3265040 100.1212710  11.2177950 100.0611300 104.5809960   9.2920110
 101.0133050 104.4967980   9.2420350  99.9139520 105.2451670   9.9653900
  87.5144110  97.2323260   9.6771340  88.0183130  96.6530540  10.2487570
  86.7751530  97.5163490  10.2147710  94.5682050  98.6394250   9.2106860
  93.8027720  99.2079250   9.1261530  94.7498010  98.3470460   8.3175090
 101.7105400 100.3699580   9.7681880 102.4514870 100.7075340   9.2649340
 100.9478080 100.5391640   9.2151650  89.5467190  95.3752850  10.5721410
  89.5872530  95.0766720  11.4806640  90.4012690  95.7760460  10.4128930
  91.4873000  93.9544950   8.5395900  90.9569460  93.4635900   7.9119240
  92.1561070  94.3829150   8.0053830 100.3851060  98.4214410   8.3037090
 100.7992080  98.5759490   9.1527510  99.4502060  98.5469630   8.4662870
 100.8573230  95.7610570  10.3076240 101.4394000  95.0062890  10.2196720
 101.0335000  96.2918010   9.5307720  91.9745300  90.9207320   8.6193190
  91.8802170  90.3028070   7.8944060  91.3942690  91.6473610   8.3923100
  94.7406740  89.4780560   5.6520580  94.2924040  89.5004820   4.8066130
  94.1071940  89.0799580   6.2490880  95.1466290  98.3734890   6.2733020
  95.5654400  99.2167620   6.1009260  94.2274920  98.5106930   6.0439800
  97.4830190  96.1051070   7.6570860  97.6026400  95.5092210   8.3965700
  98.3424190  96.1420760   7.2372160  99.8218090  96.6588260   6.2333370
  99.2953310  97.1830880   5.6298510 100.1649430  97.2915650   6.8643100
  92.9973710 104.6787900   7.3890750  92.4594800 105.4033960   7.0699450
  93.2507670 104.2018240   6.5988090  94.2498960  92.6472420   8.9146680
  94.8398650  92.3388270   9.6024500  93.4319200  92.1752170   9.0706580
  99.0692390  92.2638230   9.1479700  98.3807910  91.6019770   9.0829690
  99.7898410  91.8176500   9.5928160  95.8535920 105.9139110   7.6477400
  95.7794620 106.8174250   7.9549770  94.9514760 105.5951010   7.6199470
  87.7453420 104.1084290   3.6892650  87.3084410 104.2885090   4.5216800
  88.3131100 104.8658910   3.5474370 103.3815600 103.6101290   7.9769960
 102.7817590 103.6693850   7.2333880 103.5109500 102.6706270   8.1066810
 102.0667240 100.3353270   6.0746120 101.2527080 100.7650430   6.3371910
 102.4741440 100.9471680   5.4615170  88.6153780  97.0057090   4.5884870
  88.9826820  96.9184490   5.4680890  88.0464600  96.2423640   4.4891730
 103.4157640  95.4741470   7.6015340 103.1843730  95.2454220   6.7013290
 103.6762190  96.3941020   7.5560230  88.1669780  93.9166180   8.4943290
  87.2725830  93.8832940   8.8337000  88.7067330  94.1152970   9.2594540
 101.8545710  90.6997900  10.3795040 102.7315890  90.7081300  10.7629040
 101.8666550  89.9628740   9.7687390 103.4798700  94.6367310   4.7902610
 102.5301410  94.6030850   4.9047600 103.6611710  95.5467420   4.5552380
  88.6709490  88.1914510   2.8426510  89.3185680  87.6411890   2.4021670
  89.0911330  88.4457660   3.6642320 102.5661830  88.3855870   6.1996150
 103.2034050  88.9990010   6.5655340 102.7136720  88.4216530   5.2545380
  88.4241490  88.3470180   5.5851830  88.0756310  88.8034000   6.3510010
  88.0929190  87.4527310   5.6674260  90.0305860 101.5189780   9.7505020
  89.9875490 101.1482690  10.6319480  90.1616870 102.4567350   9.8906840
  93.7311890 103.0749370   5.3514740  93.4903250 103.3423930   4.4645260
  94.6714530 103.2455100   5.4065600  95.9366310  89.5382060   9.1071250
  95.8755200  90.1303890   9.8566660  96.8766690  89.4308020   8.9621510
  98.5740870  89.1952120   8.7463540  99.1881280  89.5131410   8.0844620
  99.1190430  88.7100710   9.3659400 104.9916050 105.0943750   6.1525380
 104.4974330 105.4912620   5.4352510 104.3829340 104.4692960   6.5462660
  89.0962130  87.8746380   8.8602600  89.6445120  87.6934430   8.0968710
  89.1617440  87.0840490   9.3958910  89.8693890 104.4652030   6.8702800
  89.2754210 104.3336730   7.6092840  89.8617730 103.6290170   6.4044900
  99.3148910  87.7584260   5.0732830  98.4408750  88.0919370   4.8705760
  99.2059660  87.2857440   5.8984700 100.2220890  89.9655130   6.4574550
  99.8934250  89.1506890   6.0776280 101.1703190  89.9224940   6.3340240
 102.6755500 105.7367170   3.4312120 102.2158470 106.4882980   3.0570140
 102.0467960 105.0173640   3.3726920  89.5006120 101.8310410   5.8210840
  88.7740180 101.2115700   5.7536790  89.5615270 102.2251020   4.9508920
  93.1051220 104.0455410   2.6060250  93.6216240 103.4342770   2.0808510
  93.7548600 104.5484190   3.0971260  95.8446720 104.9363900   3.4329230
  96.1324530 104.6818200   2.5562240  96.3569940 104.3841260   4.0234800
  97.0623730  88.6754100   4.0125740  96.2795520  89.1499600   4.2922500
  96.7686660  87.7708930   3.9038920  95.9119080 105.8580000  10.7997430
  96.8386390 105.6224270  10.8433390  95.8969510 106.6852000  10.3183460
  93.0982690  88.5224750  10.5639310  92.8166960  89.0258350   9.8000130
  93.4802390  87.7246500  10.1981440  99.6998150  87.9378330  11.1419780
  99.5863600  88.2572940  12.0371300 100.5167890  88.3390840  10.8457060
 102.4796640 105.0849860  10.6238470 103.2721960 104.5899090  10.4164430
 102.7729790 105.7640000  11.2314080  98.6056300  77.1827310 150.4745930
  98.5250350  76.2681920 150.2037640  98.1920720  77.6794380 149.7685640
 100.7581770  83.3666520 151.1354330 100.2963300  82.5953760 151.4641500
 101.5707320  83.3932590 151.6406780  89.1632120  74.2328030 147.0173350
  88.2748820  74.5744000 146.9153230  89.4473310  74.0328350 146.1254180
  96.9845080  85.6524530 150.7558320  96.3656520  86.1082030 150.1852760
  97.8396860  85.8075990 150.3548020  91.3393510  72.8159530 148.0511730
  91.4460260  73.7163260 148.3580490  90.4285870  72.7677500 147.7606380
 100.9912620  71.9384340 149.5222630 101.8122240  71.4480910 149.5648110
 101.0246700  72.5282000 150.2754470  97.8508430  80.5363770 148.1490230
  97.2325700  81.0013220 147.5852950  98.3631680  81.2291250 148.5659740
  87.2191630  81.2220300 145.5229860  86.8419610  81.7107400 144.7914760
  87.4764700  81.8945580 146.1536390  94.8280560  69.6236690 150.9815370
  95.1355540  69.0683580 150.2650870  93.8981260  69.7581150 150.7988360
 101.6741040  82.0620200 148.3613000 101.5637370  81.1194530 148.4862420
 101.6709290  82.4235840 149.2475760  97.2161320  77.6885520 147.7175490
  96.2890600  77.6222900 147.9463960  97.3686140  78.6265650 147.6030730
  97.2030400  73.9602520 144.7142650  96.2634070  74.1216480 144.7995110
  97.5213660  74.6788200 144.1678640 101.2458610  79.2505820 148.2210740
 100.6271030  78.9125370 147.5737040 101.2283060  78.6065580 148.9289930
  92.8217960  78.2150260 150.4995220  92.4174960  77.5027510 150.0041120
  92.9081080  77.8703500 151.3883260  99.4223310  78.4892630 145.2283490
  99.8616590  77.6515060 145.0821310 100.1351730  79.1222030 145.3147630
  97.5318690  83.4288700 149.1964730  97.9714600  84.1713030 148.7820120
  97.4705580  83.6715270 150.1203690 103.0040450  69.7435440 143.5424530
 102.6913110  69.8362270 144.4423600 103.7652920  70.3216470 143.4921960
  89.5222590  77.1095240 148.0001870  89.4020190  77.8357330 147.3883140
  89.2123480  76.3398150 147.5229780  88.4055590  81.9810570 150.2176690
  87.9983670  82.1225160 149.3630290  89.2968600  81.6970730 150.0147900
 100.1988870  86.4157820 146.5527740 100.0390010  86.1260760 147.4509570
 100.0335580  85.6397950 146.0172970  92.6777250  86.1956350 148.3299360
  92.5019730  85.2791890 148.1167160  91.8232990  86.5543640 148.5697160
  99.9015000  83.9245380 145.1125740  99.2080160  83.9222670 144.4528020
 100.6437860  83.5004700 144.6819910  99.4664930  85.5508090 149.1874230
  99.9221880  84.7697470 149.5012850  99.8057450  86.2614910 149.7315410
  91.9886250  70.4530310 151.3825540  91.5454400  71.2339850 151.0510060
  92.5471240  70.7760200 152.0896480  95.1045070  70.0741010 146.2631370
  94.4799250  70.0700880 146.9884680  95.0175190  69.2071970 145.8667340
  91.7800470  75.5763880 149.1106790  91.5541390  75.3601050 150.0153410
  90.9993000  76.0092340 148.7652760  99.0098230  75.5827250 147.7097440
  98.4107120  76.3063050 147.5261060  99.5577840  75.5204030 146.9273890
  97.6163100  74.2190790 149.7400720  98.0092670  74.5362990 148.9269410
  97.9779950  73.3402670 149.8545240  86.8397500  74.7511710 143.1733640
  86.7572170  75.6942470 143.3148630  86.4880560  74.6086620 142.2945990
  94.6395630  73.4850740 152.2403990  94.6431690  73.0440690 151.3908530
  95.5346750  73.8068070 152.3475810  90.4898010  73.3677230 151.1998200
  90.1498060  73.8452460 151.9565250  89.7275330  72.9142350 150.8399300
  94.7015780  74.4862820 145.2310750  94.8228600  74.4449300 146.1796570
  94.3164290  75.3486970 145.0757480  93.7137280  76.7963960 144.6294050
  93.1454180  76.3482210 144.0029960  94.4226280  77.1556740 144.0959200
  87.8044090  72.2896210 150.1162870  87.5191010  71.9251880 150.9541490
  87.7422950  71.5576670 149.5026010  91.2584760  80.7922150 146.9020460
  90.4847020  80.2519770 146.7419180  91.9879390  80.2728760 146.5638220
  97.4782680  71.1825470 146.8376240  96.6647290  70.6838640 146.7621550
  97.2844630  72.0223720 146.4212590 100.1931070  75.5545120 145.1338400
 101.0810690  75.8662350 144.9589740 100.1636160  74.6817370 144.7418980
  91.3022160  80.4602530 150.5399270  91.8200830  79.6570790 150.4856160
  90.8506180  80.3981670 151.3816100  96.1891660  81.7268810 145.8126570
  96.5307360  82.4711040 145.3169890  95.3604370  82.0399930 146.1751400
 102.4645340  76.8656960 144.6018260 102.3809060  77.2971180 143.7514700
 103.1839530  77.3255310 145.0345080 103.4932590  83.7199220 147.3300390
 102.8508750  83.0654840 147.6044110 103.1063250  84.1254310 146.5541060
  99.0719070  81.0484650 151.1772080  99.4242890  80.4512780 150.5173450
  98.1881400  80.7228880 151.3480330  95.1582350  81.8082340 148.5842490
  95.8453480  82.3551550 148.9650080  94.3714770  82.3523070 148.6192100
  87.2974750  77.4255160 144.0759570  88.1669600  77.7079960 144.3595490
  86.8065070  78.2391030 143.9608380  94.4609560  78.8128370 148.1967850
  94.9172340  79.6233620 148.4228040  94.1097770  78.4951510 149.0286340
  90.3621340  69.1566020 148.6690370  90.2335970  69.1483920 149.6175290
  89.5383360  69.4949110 148.3181380 101.8829970  82.6115680 143.8676740
 101.6567550  81.8946120 144.4601380 101.4926170  82.3628120 143.0298490
  87.6646000  86.6382540 144.6421200  88.0243640  87.2371880 143.9878470
  87.5238340  87.1842430 145.4156230 101.4646220  80.5287620 145.5290900
 101.1767920  80.9900310 146.3168780 102.2598390  80.0685390 145.7975120
  93.6814620  84.0213740 145.4594870  93.6724720  84.7543430 144.8439380
  92.7612980  83.7745320 145.5521830  89.2821260  79.2428630 146.2041630
  88.6749210  79.9827530 146.2136930  89.7570610  79.3327990 145.3779830
 102.2216080  72.3636390 146.6886080 101.5929240  72.4682060 145.9744310
 101.7268000  72.5833170 147.4779960  96.6674220  84.0841980 144.1220060
  96.7686200  83.8805970 143.1922040  95.7675960  83.8300260 144.3267840
  94.1900110  74.6422340 148.1043960  93.4816260  75.1108680 148.5457570
  94.4744590  73.9844350 148.7389150  98.2215540  71.3673000 149.5439750
  98.0983320  71.3859130 148.5949260  99.1700100  71.4151940 149.6638150
  95.3092330  86.6028300 148.8167730  95.5633830  86.5649690 147.8947100
  94.3604810  86.4761630 148.8095980  92.3935130  72.9507420 145.4794670
  93.2425660  73.3877570 145.4134860  92.0266400  73.2627680 146.3066730
 101.3144910  77.5220180 150.3926240 100.3735050  77.5370410 150.5673930
 101.6288980  76.7356140 150.8386540  91.2926550  79.2039780 143.9530200
  92.0589820  79.0921140 144.5155630  91.3701240  78.5077750 143.3006970
  89.9873310  76.6364850 144.6363090  90.0676900  75.6892360 144.7480490
  90.8793060  76.9671730 144.7423750  90.7888020  86.7860240 151.7397630
  91.5250500  86.2375700 152.0106200  91.1728940  87.6516250 151.6003620
  87.6733500  82.8533810 147.6139140  86.7473280  83.0954950 147.6044550
  88.1389930  83.6808070 147.4923890  93.8990330  85.9590550 143.5623200
  94.6918940  86.2479380 143.1104990  93.3794680  85.5282720 142.8835680
 102.9520500  85.1860680 144.9859940 102.6662010  84.7725820 144.1714120
 102.7540050  86.1148390 144.8660460  94.4167730  81.1793960 143.4265550
  94.3118370  80.5646310 144.1526930  94.2491950  80.6559850 142.6428560
  97.6570460  80.2413990 144.0307540  97.1080560  80.6883290 144.6750280
  98.2789720  79.7363240 144.5545210  93.3245580  79.2004910 145.9272840
  93.7462000  79.0344780 146.7704230  93.4496420  78.3905140 145.4327980
  95.8373220  78.2242520 143.1749940  96.3578880  77.5091540 142.8091090
  96.4841620  78.8628390 143.4750450  92.2204480  75.2738140 142.8731000
  92.0193540  74.4105500 143.2344340  92.0496530  75.1871500 141.9352600
  99.6992790  70.0846370 145.4017880  99.9795080  69.2414270 145.7577300
  98.9258520  70.3169480 145.9156630  91.0187280  72.3738760 142.8608880
  91.3213180  72.3806190 141.9528030  91.7581870  72.0236620 143.3576540
  94.2372210  71.3173380 143.8465080  93.8894210  70.6397370 143.2667530
  94.4384980  70.8562890 144.6608470  96.4021250  86.3054130 145.4651680
  97.2972040  86.6439100 145.4870440  96.4338880  85.5833540 144.8375960
  90.0417410  81.6781180 143.6938680  90.4792280  82.2210850 144.3496260
  90.5265140  80.8528130 143.7035020  87.2563210  84.4670210 151.1458940
  87.5866220  83.5991270 150.9137580  87.6854210  84.6728730 151.9763900
  91.8525130  82.7979220 148.8060910  91.5520670  82.6744190 149.7064820
  91.7462620  81.9387810 148.3976640 104.6217050  82.5775620 143.5087590
 103.7910010  82.6452270 143.9794820 104.7988880  83.4679740 143.2054450
 104.0773510  79.3223100 146.0121790 104.8392420  79.8919750 146.1181480
 104.0927880  78.7550300 146.7830100  87.5777850  77.8461030 150.2429450
  86.9226690  77.5772670 149.5989150  88.4155800  77.7365510 149.7931430
 105.0833480  80.1773200 150.8563720 105.4542310  79.3940520 150.4499690
 105.7235410  80.8662300 150.6781020 104.1292680  79.6157470 143.1694310
 104.4041520  80.5236350 143.0413530 103.9403420  79.5520000 144.1056300
 100.5268290  72.6402320 144.4647940 100.9453170  72.4533300 143.6244600
 100.2204350  71.7881370 144.7750870 104.0258020  77.5526460 148.1623740
 103.6501620  76.7854390 147.7305030 103.2961140  77.9349160 148.6498670
  86.7915930  75.0559960 146.1854780  85.8880010  75.3190160 146.0106440
  87.2756550  75.3271130 145.4054740 103.3008980  75.7783950 151.4630980
 103.8246460  75.2846600 150.8321150 103.8868400  75.9134310 152.2078550
  89.3343140  74.1125500 144.0949160  90.0434840  73.6908720 143.6096440
  88.6183080  74.1800730 143.4632510  88.9817300  70.1664830 143.1351810
  89.7045430  70.7073770 143.4533030  89.2541820  69.8928250 142.2593350
 102.7908950  75.0357300 147.4023390 103.2868070  74.8028170 148.1872270
 102.5925020  74.1969140 146.9861030 104.2196110  73.6718250 149.9361070
 104.1095390  73.5174290 150.8743340 104.9803700  73.1439190 149.6936480
 105.1086380  71.5026170 143.1767210 106.0335690  71.3707350 142.9685500
 105.0862170  71.5818990 144.1303660 105.1824870  72.2736830 145.8023920
 104.3876370  72.2081950 146.3316830 105.3868150  73.2087470 145.7909270
 102.1243290  86.3128380 149.7962310 102.7202360  85.9912950 149.1196730
 102.3821440  85.8400200 150.5875580 101.6144800  70.6033710 152.2522750
 102.0552890  70.5478810 151.4044350 101.3452390  71.5191720 152.3232930
 103.4783370  70.2348950 150.2631570 103.4171770  69.2910170 150.1162590
 104.2575400  70.3429040 150.8085030  87.7836120  86.3741310 149.2255520
  87.6158160  85.7411990 149.9237410  86.9170630  86.5800710 148.8749710
  88.4064140  70.2058090 146.7287380  89.1643500  70.3186970 146.1551410
  87.9441310  71.0427290 146.6830810  94.9477950  72.3197360 149.7189690
  94.1352460  71.9454250 149.3785570  95.4519590  71.5642440 150.0210880
  99.4502930  68.9839810 150.9572760 100.0532300  69.5560020 151.4321280
  98.7095920  69.5479250 150.7346660 102.5937530  69.3861370 146.2313040
 102.7888160  70.2844820 146.4980470 101.8067400  69.1548450 146.7245990
  89.3898820  85.0674540 146.6705660  88.8646440  85.4482570 145.9667620
  89.3143400  85.6925310 147.3915370  90.7789290  70.7322140 145.2689350
  91.3082050  69.9451940 145.1397300  91.4117610  71.4113330 145.5024880
  92.9727130  70.4697280 148.3234740  92.3429870  69.7684590 148.4904870
  92.4332270  71.2301410 148.1067900 104.1464140  86.6262080 147.9919600
 104.3216330  85.9399820 147.3480520 103.4485710  87.1509130 147.5996270
  91.9891790  87.0156920 145.5454910  92.7210610  86.7316200 144.9978800
  92.2485460  86.7770200 146.4354290  91.1506580  83.1321650 145.5501240
  90.5215460  83.6006750 146.0987070  91.2654410  82.2870870 145.9847430
  98.6056300  77.1827310 131.7002440  98.5250350  76.2681920 131.4294150
  98.1920720  77.6794380 130.9942150  90.7540170  79.2726140 134.4587470
  89.9225050  79.0174850 134.8583980  91.3621150  79.3436910 135.1945390
  90.7341430  83.3066230 134.6545490  91.0369470  82.4163970 134.4755710
  91.4785020  83.8636450 134.4267740  89.1632120  74.2328030 128.2429860
  88.2748820  74.5744000 128.1409740  89.4473310  74.0328350 127.3510690
  96.9845080  85.6524530 131.9814830  96.3656520  86.1082030 131.4109270
  97.8396860  85.8075990 131.5804530  97.2088500  74.4433900 133.8150800
  97.5853320  73.5705780 133.7024470  97.1108010  74.7792600 132.9241240
 100.9912620  71.9384340 130.7479140 101.8122240  71.4480910 130.7904620
 101.0246700  72.5282000 131.5010980 105.2812170  73.9551090 137.3122770
 104.5764340  74.3432800 136.7937880 105.5470090  74.6501380 137.9143700
  97.8508430  80.5363770 129.3746740  97.2325700  81.0013220 128.8109460
  98.3631680  81.2291250 129.7916250  92.7140190  80.0639640 136.0530340
  92.3809570  80.6908560 136.6951410  92.8906870  80.5901520 135.2732010
 101.2274100  73.8784720 133.5206680 100.5229670  74.1669610 134.1009790
 101.5886260  74.6884830 133.1606240  91.9259290  82.0320440 137.8679520
  92.5433290  82.7071520 137.5863970  91.0652410  82.4408420 137.7767020
 104.2961020  73.3239510 133.9115890 103.3485930  73.3578490 134.0431320
 104.6211010  74.1378460 134.2965250  97.2030400  73.9602520 125.9399160
  96.2634070  74.1216480 126.0251620  97.5213660  74.6788200 125.3935150
 103.7243160  78.6421040 135.9178190 102.8961790  78.7114130 135.4428320
 104.3193640  79.2275350 135.4494020 100.6885170  75.4290360 136.8633060
 100.2756350  76.2544070 137.1173050  99.9561120  74.8435400 136.6709420
  93.2899660  81.9017820 133.8890940  92.9927950  81.2963290 133.2098720
  94.2399480  81.9395130 133.7780300  92.3818090  81.6399510 140.5398740
  91.4846620  81.8639480 140.7872140  92.4070960  81.7634450 139.5910140
  97.5318690  83.4288700 130.4221240  97.9714600  84.1713030 130.0076630
  97.4705580  83.6715270 131.3460200  93.0069660  84.4534530 141.3241260
  92.9785090  84.8577480 140.4569690  92.8434630  83.5244890 141.1612860
 103.0040450  69.7435440 124.7681040 102.6913110  69.8362270 125.6680110
 103.7652920  70.3216470 124.7178470 104.9584480  85.2361630 142.6205430
 105.4344200  85.7144520 143.2994510 105.5791640  85.1679120 141.8950930
  87.1607960  80.2810380 135.0327020  87.2388380  80.4159150 134.0882740
  87.7749640  79.5726270 135.2255140  88.4055590  81.9810570 131.4433200
  87.9983670  82.1225160 130.5886800  89.2968600  81.6970730 131.2404410
 104.3617730  82.4274480 139.7805440 104.4880790  82.1886360 138.8622620
 104.4039110  81.5959020 140.2527520  92.6777250  86.1956350 129.5555870
  92.5019730  85.2791890 129.3423670  91.8232990  86.5543640 129.7953670
 104.2141740  74.4806940 140.7455180 103.5986010  74.9886610 140.2170640
 103.8938160  73.5805270 140.6881120  96.2756060  73.3198830 138.2117370
  95.8135430  73.5281850 139.0237310  95.8734170  72.5058180 137.9088040
 101.2760570  74.5407780 139.3414030 100.4254160  74.2413530 139.6623100
 101.1162360  74.7849790 138.4297850  98.3710280  76.0409530 141.4412820
  98.6963690  75.2073280 141.1015050  99.1590610  76.5638050 141.5891150
  95.1045070  70.0741010 127.4887880  94.4799250  70.0700880 128.2141190
  95.0175190  69.2071970 127.0923850  99.0098230  75.5827250 128.9353950
  98.4107120  76.3063050 128.7517570  99.5577840  75.5204030 128.1530400
  94.2199680  76.4749460 141.0023570  94.1243280  75.5344190 140.8523970
  95.0631660  76.6964530 140.6071640  95.9255270  72.9698100 142.2254090
  95.2353590  72.7770300 142.8600180  96.6687570  73.2532740 142.7578390
  86.6527270  70.8091590 133.1887430  86.3640320  71.3794450 133.9012410
  87.3973030  70.3296040 133.5518660  86.8397500  74.7511710 124.3990150
  86.7572170  75.6942470 124.5405140  86.4880560  74.6086620 123.5202500
  98.2018240  76.8096540 135.0608010  97.4699360  77.3183350 135.4098110
  97.8042580  75.9926520 134.7596790  98.6644150  72.2630220 134.4730950
  98.6816890  72.7138870 135.3172800  98.4159730  71.3635860 134.6864390
  93.7137280  76.7963960 125.8550560  93.1454180  76.3482210 125.2286470
  94.4226280  77.1556740 125.3215710 102.0914900  69.6762400 140.3117330
 102.4160670  68.9452060 140.8375310 102.1271410  69.3576040 139.4098320
  88.7906460  80.6975980 139.7317290  88.4061250  80.0569650 140.3300250
  89.1018650  81.4012100 140.3012020  87.8044090  72.2896210 131.3419380
  87.5191010  71.9251880 132.1798000  87.7422950  71.5576670 130.7282520
  91.2584760  80.7922150 128.1276970  90.4847020  80.2519770 127.9675690
  91.9879390  80.2728760 127.7894730  97.4782680  71.1825470 128.0632750
  96.6647290  70.6838640 127.9878060  97.2844630  72.0223720 127.6469100
  96.1891660  81.7268810 127.0383080  96.5307360  82.4711040 126.5426400
  95.3604370  82.0399930 127.4007910  91.9879820  77.8848140 141.5621030
  91.6879960  78.0305320 140.6648850  92.7591060  77.3253430 141.4694420
 103.5419480  79.3224480 138.9044740 102.8167670  79.9153260 138.7074130
 104.0694940  79.3148020 138.1058110  95.1582350  81.8082340 129.8099000
  95.8453480  82.3551550 130.1906590  94.3714770  82.3523070 129.8448610
  87.2974750  77.4255160 125.3016080  88.1669600  77.7079960 125.5852000
  86.8065070  78.2391030 125.1864890  87.3615270  70.9157140 139.3553580
  86.6473790  71.1154060 139.9606190  87.7810310  70.1396710 139.7268380
  87.6487860  84.9037400 140.3420110  87.7578980  83.9632140 140.2015500
  86.9968420  85.1692150 139.6933840  95.6400450  83.1753290 141.7418230
  95.3197320  82.4562530 142.2863920  94.9658810  83.8508360 141.8154290
  93.6814620  84.0213740 126.6851380  93.6724720  84.7543430 126.0695890
  92.7612980  83.7745320 126.7778340  89.2821260  79.2428630 127.4298140
  88.6749210  79.9827530 127.4393440  89.7570610  79.3327990 126.6036340
  98.8554050  73.4079450 137.1055030  99.2234870  72.5874660 137.4334600
  97.9952250  73.4681340 137.5210680 102.2216080  72.3636390 127.9142590
 101.5929240  72.4682060 127.2000820 101.7268000  72.5833170 128.7036470
  96.6674220  84.0841980 125.3476570  96.7686200  83.8805970 124.4178550
  95.7675960  83.8300260 125.5524350  98.2215540  71.3673000 130.7696260
  98.0983320  71.3859130 129.8205770  99.1700100  71.4151940 130.8894660
  95.3092330  86.6028300 130.0424240  95.5633830  86.5649690 129.1203610
  94.3604810  86.4761630 130.0352490  92.3935130  72.9507420 126.7051180
  93.2425660  73.3877570 126.6391370  92.0266400  73.2627680 127.5323240
 103.0222900  72.2787000 138.1721390 102.5196500  73.0192400 138.5115200
 103.8379560  72.6671000 137.8558180 101.3144910  77.5220180 131.6182750
 100.3735050  77.5370410 131.7930440 101.6288980  76.7356140 132.0643050
  91.2926550  79.2039780 125.1786710  92.0589820  79.0921140 125.7412140
  91.3701240  78.5077750 124.5263480  89.9873310  76.6364850 125.8619600
  90.0676900  75.6892360 125.9737000  90.8793060  76.9671730 125.9680260
  89.7946300  85.9706310 142.1539720  90.5959030  86.2918360 142.5675120
  89.2798120  85.6101890 142.8759630  98.6310930  82.0786180 142.1015130
  98.0249090  82.1017780 141.3610880  98.3265040  81.3469220 142.6382380
  94.5682050  79.8650760 140.6311290  93.8027720  80.4335760 140.5465960
  94.7498010  79.5726970 139.7379520 101.7105400  81.5956090 141.1886310
 102.4514870  81.9331850 140.6853770 100.9478080  81.7648150 140.6356080
  89.5467190  76.6009360 141.9925840  89.5872530  76.3023230 142.9011070
  90.4012690  77.0016970 141.8333360 100.8573230  76.9867080 141.7280670
 101.4394000  76.2319400 141.6401150 101.0335000  77.5174520 140.9512150
  97.4830190  77.3307580 139.0775290  97.6026400  76.7348720 139.8170130
  98.3424190  77.3677270 138.6576590  99.8218090  77.8844770 137.6537800
  99.2953310  78.4087390 137.0502940 100.1649430  78.5172160 138.2847530
  92.2204480  75.2738140 124.0987510  92.0193540  74.4105500 124.4600850
  92.0496530  75.1871500 123.1609110  92.9973710  85.9044410 138.8095180
  92.4594800  86.6290470 138.4903880  93.2507670  85.4274750 138.0192520
  99.0692390  73.4894740 140.5684130  98.3807910  72.8276280 140.5034120
  99.7898410  73.0433010 141.0132590  91.0187280  72.3738760 124.0865390
  91.3213180  72.3806190 123.1784540  91.7581870  72.0236620 124.5833050
  95.8535920  87.1395620 139.0681830  95.7794620  88.0430760 139.3754200
  94.9514760  86.8207520 139.0403900  94.2372210  71.3173380 125.0721590
  93.8894210  70.6397370 124.4924040  94.4384980  70.8562890 125.8864980
  96.4021250  86.3054130 126.6908190  97.2972040  86.6439100 126.7126950
  96.4338880  85.5833540 126.0632470  91.8525130  82.7979220 130.0317420
  91.5520670  82.6744190 130.9321330  91.7462620  81.9387810 129.6233150
  87.7453420  85.3340800 135.1097080  87.3084410  85.5141600 135.9421230
  88.3131100  86.0915420 134.9678800 103.3815600  84.8357800 139.3974390
 102.7817590  84.8950360 138.6538310 103.5109500  83.8962780 139.5271240
 100.5268290  72.6402320 125.6904450 100.9453170  72.4533300 124.8501110
 100.2204350  71.7881370 126.0007380 103.4157640  76.6997980 139.0219770
 103.1843730  76.4710730 138.1217720 103.6762190  77.6197530 138.9764660
 101.8545710  71.9254410 141.7999470 102.7315890  71.9337810 142.1833470
 101.8666550  71.1885250 141.1891820  86.7915930  75.0559960 127.4111290
  85.8880010  75.3190160 127.2362950  87.2756550  75.3271130 126.6311250
 103.3008980  75.7783950 132.6887490 103.8246460  75.2846600 132.0577660
 103.8868400  75.9134310 133.4335060 103.4798700  75.8623820 136.2107040
 102.5301410  75.8287360 136.3252030 103.6611710  76.7723930 135.9756810
  89.3343140  74.1125500 125.3205670  90.0434840  73.6908720 124.8352950
  88.6183080  74.1800730 124.6889020  88.9817300  70.1664830 124.3608320
  89.7045430  70.7073770 124.6789540  89.2541820  69.8928250 123.4849860
 102.7908950  75.0357300 128.6279900 103.2868070  74.8028170 129.4128780
 102.5925020  74.1969140 128.2117540 104.2196110  73.6718250 131.1617580
 104.1095390  73.5174290 132.0999850 104.9803700  73.1439190 130.9192990
 102.5661830  69.6112380 137.6200580 103.2034050  70.2246520 137.9859770
 102.7136720  69.6473040 136.6749810 105.1086380  71.5026170 124.4023720
 106.0335690  71.3707350 124.1942010 105.0862170  71.5818990 125.3560170
 105.1824870  72.2736830 127.0280430 104.3876370  72.2081950 127.5573340
 105.3868150  73.2087470 127.0165780  90.0305860  82.7446290 141.1709450
  89.9875490  82.3739200 142.0523910  90.1616870  83.6823860 141.3111270
  95.9366310  70.7638570 140.5275680  95.8755200  71.3560400 141.2771090
  96.8766690  70.6564530 140.3825940  98.5740870  70.4208630 140.1667970
  99.1881280  70.7387920 139.5049050  99.1190430  69.9357220 140.7863830
 104.9916050  86.3200260 137.5729810 104.4974330  86.7169130 136.8556940
 104.3829340  85.6949470 137.9667090  89.0962130  69.1002890 140.2807030
  89.6445120  68.9190940 139.5173140  89.1617440  68.3097000 140.8163340
  89.8693890  85.6908540 138.2907230  89.2754210  85.5593240 139.0297270
  89.8617730  84.8546680 137.8249330  99.3148910  68.9840770 136.4937260
  98.4408750  69.3175880 136.2910190  99.2059660  68.5113950 137.3189130
 100.2220890  71.1911640 137.8778980  99.8934250  70.3763400 137.4980710
 101.1703190  71.1481450 137.7544670 102.6755500  86.9623680 134.8516550
 102.2158470  87.7139490 134.4774570 102.0467960  86.2430150 134.7931350
  89.5006120  83.0566920 137.2415270  88.7740180  82.4372210 137.1741220
  89.5615270  83.4507530 136.3713350  93.1051220  85.2711920 134.0264680
  93.6216240  84.6599280 133.5012940  93.7548600  85.7740700 134.5175690
  97.0623730  69.9010610 135.4330170  96.2795520  70.3756110 135.7126930
  96.7686660  68.9965440 135.3243350 101.6144800  70.6033710 133.4779260
 102.0552890  70.5478810 132.6300860 101.3452390  71.5191720 133.5489440
 103.4783370  70.2348950 131.4888080 103.4171770  69.2910170 131.3419100
 104.2575400  70.3429040 132.0341540  99.4502930  68.9839810 132.1829270
 100.0532300  69.5560020 132.6577790  98.7095920  69.5479250 131.9603170
 102.5937530  69.3861370 127.4569550 102.7888160  70.2844820 127.7236980
 101.8067400  69.1548450 127.9502500  90.7789290  70.7322140 126.4945860
  91.3082050  69.9451940 126.3653810  91.4117610  71.4113330 126.7281390
  95.9119080  87.0836510 142.2201860  96.8386390  86.8480780 142.2637820
  95.8969510  87.9108510 141.7387890  93.0982690  69.7481260 141.9843740
  92.8166960  70.2514860 141.2204560  93.4802390  68.9503010 141.6185870
  91.9891790  87.0156920 126.7711420  92.7210610  86.7316200 126.2235310
  92.2485460  86.7770200 127.6610800  91.1506580  83.1321650 126.7757750
  90.5215460  83.6006750 127.3243580  91.2654410  82.2870870 127.2103940
  99.6998150  69.1634840 142.5624210  99.5863600  69.4829450 143.4575730
 100.5167890  69.5647350 142.2661490 102.4796640  86.3106370 142.0442900
 103.2721960  85.8155600 141.8368860 102.7729790  86.9896510 142.6518510
  98.6056300  77.1827310 112.9258950  98.5250350  76.2681920 112.6550660
  98.1920720  77.6794380 112.2198660  96.7374340  78.9606330 114.8068220
  95.9616440  78.4806770 115.0966790  97.3887270  78.2811980 114.6324380
  90.7540170  79.2726140 115.6843980  89.9225050  79.0174850 116.0840490
  91.3621150  79.3436910 116.4201900 100.7581770  83.3666520 113.5867350
 100.2963300  82.5953760 113.9154520 101.5707320  83.3932590 114.0919800
  89.1632120  74.2328030 109.4686370  88.2748820  74.5744000 109.3666250
  89.4473310  74.0328350 108.5767200  87.1265130  76.8333680 115.3526070
  87.6981240  76.0655880 115.3529710  87.1266670  77.1322440 114.4432680
  96.9845080  85.6524530 113.2071340  96.3656520  86.1082030 112.6365780
  97.8396860  85.8075990 112.8061040  96.1783330  81.6363520 114.8138380
  96.1091610  80.6953460 114.6527510  96.9403190  81.7264930 115.3860950
  91.3393510  72.8159530 110.5024750  91.4460260  73.7163260 110.8093510
  90.4285870  72.7677500 110.2119400  93.1801240  75.7845900 114.8349930
  93.6879460  76.2826870 115.4754950  93.7114480  75.0081100 114.6589290
  97.8508430  80.5363770 110.6003250  97.2325700  81.0013220 110.0365970
  98.3631680  81.2291250 111.0172760  87.2191630  81.2220300 107.9742880
  86.8419610  81.7107400 107.2427780  87.4764700  81.8945580 108.6049410
 100.3795620  85.3403980 115.7235850 100.3922780  84.9366270 114.8558110
  99.8270840  86.1151270 115.6197280  99.7781060  80.2433820 117.0518460
 100.1949850  80.0293930 116.2171920 100.5020880  80.5006610 117.6227080
  97.2161320  77.6885520 110.1688510  96.2890600  77.6222900 110.3976980
  97.3686140  78.6265650 110.0543750 100.6885170  75.4290360 118.0889570
 100.2756350  76.2544070 118.3429560  99.9561120  74.8435400 117.8965930
  92.8217960  78.2150260 112.9508240  92.4174960  77.5027510 112.4554140
  92.9081080  77.8703500 113.8396280 101.3785270  85.4749690 118.7770550
 100.9015830  86.2821880 118.5843160 100.6947060  84.8228020 118.9296760
  91.2089310  78.5112830 120.3412620  91.0697080  79.3835630 120.7100020
  90.3270670  78.1685640 120.1960560  97.5318690  83.4288700 111.6477750
  97.9714600  84.1713030 111.2333140  97.4705580  83.6715270 112.5716710
 103.0040450  69.7435440 105.9937550 102.6913110  69.8362270 106.8936620
 103.7652920  70.3216470 105.9434980  89.5222590  77.1095240 110.4514890
  89.4020190  77.8357330 109.8396160  89.2123480  76.3398150 109.9742800
  87.1607960  80.2810380 116.2583530  87.2388380  80.4159150 115.3139250
  87.7749640  79.5726270 116.4511650  88.4055590  81.9810570 112.6689710
  87.9983670  82.1225160 111.8143310  89.2968600  81.6970730 112.4660920
 100.1988870  86.4157820 109.0040760 100.0390010  86.1260760 109.9022590
 100.0335580  85.6397950 108.4685990  92.6777250  86.1956350 110.7812380
  92.5019730  85.2791890 110.5680180  91.8232990  86.5543640 111.0210180
  99.4664930  85.5508090 111.6387250  99.9221880  84.7697470 111.9525870
  99.8057450  86.2614910 112.1828430 101.2760570  74.5407780 120.5670540
 100.4254160  74.2413530 120.8879610 101.1162360  74.7849790 119.6554360
  95.1045070  70.0741010 108.7144390  94.4799250  70.0700880 109.4397700
  95.0175190  69.2071970 108.3180360  94.0262150  70.9977640 115.6928160
  94.3234480  71.9040470 115.6120180  94.5747710  70.5096420 115.0787730
  91.7800470  75.5763880 111.5619810  91.5541390  75.3601050 112.4666430
  90.9993000  76.0092340 111.2165780  95.9255270  72.9698100 123.4510600
  95.2353590  72.7770300 124.0856690  96.6687570  73.2532740 123.9834900
  86.6527270  70.8091590 114.4143940  86.3640320  71.3794450 115.1268920
  87.3973030  70.3296040 114.7775170  94.6395630  73.4850740 114.6917010
  94.6431690  73.0440690 113.8421550  95.5346750  73.8068070 114.7988830
  88.7906460  80.6975980 120.9573800  88.4061250  80.0569650 121.5556760
  89.1018650  81.4012100 121.5268530  87.8044090  72.2896210 112.5675890
  87.5191010  71.9251880 113.4054510  87.7422950  71.5576670 111.9539030
  91.2584760  80.7922150 109.3533480  90.4847020  80.2519770 109.1932200
  91.9879390  80.2728760 109.0151240 102.0172740  79.7887510 115.1459870
 102.7371860  80.2842800 114.7555980 101.8154560  79.1105400 114.5013740
  97.4782680  71.1825470 109.2889260  96.6647290  70.6838640 109.2134570
  97.2844630  72.0223720 108.8725610  91.3022160  80.4602530 112.9912290
  91.8200830  79.6570790 112.9369180  90.8506180  80.3981670 113.8329120
  96.1891660  81.7268810 108.2639590  96.5307360  82.4711040 107.7682910
  95.3604370  82.0399930 108.6264420  91.9879820  77.8848140 122.7877540
  91.6879960  78.0305320 121.8905360  92.7591060  77.3253430 122.6950930
  99.0719070  81.0484650 113.6285100  99.4242890  80.4512780 112.9686470
  98.1881400  80.7228880 113.7993350  95.1582350  81.8082340 111.0355510
  95.8453480  82.3551550 111.4163100  94.3714770  82.3523070 111.0705120
  94.4609560  78.8128370 110.6480870  94.9172340  79.6233620 110.8741060
  94.1097770  78.4951510 111.4799360  98.0374250  82.3267060 116.5950620
  98.6796480  81.6260220 116.7082790  98.5623600  83.1065500 116.4147510
  99.8111870  83.1261960 119.7986680 100.1468110  83.7128650 120.4764600
  98.8912210  82.9954670 120.0284470  89.2821260  79.2428630 108.6554650
  88.6749210  79.9827530 108.6649950  89.7570610  79.3327990 107.8292850
  98.8554050  73.4079450 118.3311540  99.2234870  72.5874660 118.6591110
  97.9952250  73.4681340 118.7467190 102.2216080  72.3636390 109.1399100
 101.5929240  72.4682060 108.4257330 101.7268000  72.5833170 109.9292980
  94.1900110  74.6422340 110.5556980  93.4816260  75.1108680 110.9970590
  94.4744590  73.9844350 111.1902170  95.3092330  86.6028300 111.2680750
  95.5633830  86.5649690 110.3460120  94.3604810  86.4761630 111.2609000
  92.3935130  72.9507420 107.9307690  93.2425660  73.3877570 107.8647880
  92.0266400  73.2627680 108.7579750 101.3144910  77.5220180 112.8439260
 100.3735050  77.5370410 113.0186950 101.6288980  76.7356140 113.2899560
  89.9873310  76.6364850 107.0876110  90.0676900  75.6892360 107.1993510
  90.8793060  76.9671730 107.1936770 103.3170490  84.6929030 114.5193520
 103.4417910  85.5160200 114.9917330 104.1836050  84.4819760 114.1717670
  87.6733500  82.8533810 110.0652160  86.7473280  83.0954950 110.0557570
  88.1389930  83.6808070 109.9436910 100.0611300  85.8066470 121.9381050
 101.0133050  85.7224490 121.8881290  99.9139520  86.4708180 122.6114840
  87.5144110  78.4579770 122.3232280  88.0183130  77.8787050 122.8948510
  86.7751530  78.7420000 122.8608650  89.5467190  76.6009360 123.2182350
  89.5872530  76.3023230 124.1267580  90.4012690  77.0016970 123.0589870
  93.3245580  79.2004910 108.3785860  93.7462000  79.0344780 109.2217250
  93.4496420  78.3905140 107.8841000  94.2498960  73.8728930 121.5607620
  94.8398650  73.5644780 122.2485440  93.4319200  73.4008680 121.7167520
  99.6992790  70.0846370 107.8530900  99.9795080  69.2414270 108.2090320
  98.9258520  70.3169480 108.3669650  91.0187280  72.3738760 105.3121900
  91.3213180  72.3806190 104.4041050  91.7581870  72.0236620 105.8089560
  87.2563210  84.4670210 113.5971960  87.5866220  83.5991270 113.3650600
  87.6854210  84.6728730 114.4276920  91.8525130  82.7979220 111.2573930
  91.5520670  82.6744190 112.1577840  91.7462620  81.9387810 110.8489660
  87.5777850  77.8461030 112.6942470  86.9226690  77.5772670 112.0502170
  88.4155800  77.7365510 112.2444450 105.0833480  80.1773200 113.3076740
 105.4542310  79.3940520 112.9012710 105.7235410  80.8662300 113.1294040
  88.6153780  78.2313600 117.2345810  88.9826820  78.1441000 118.1141830
  88.0464600  77.4680150 117.1352670 103.4157640  76.6997980 120.2476280
 103.1843730  76.4710730 119.3474230 103.6762190  77.6197530 120.2021170
 101.8545710  71.9254410 123.0255980 102.7315890  71.9337810 123.4089980
 101.8666550  71.1885250 122.4148330 103.3008980  75.7783950 113.9144000
 103.8246460  75.2846600 113.2834170 103.8868400  75.9134310 114.6591570
 103.4798700  75.8623820 117.4363550 102.5301410  75.8287360 117.5508540
 103.6611710  76.7723930 117.2013320  89.3343140  74.1125500 106.5462180
  90.0434840  73.6908720 106.0609460  88.6183080  74.1800730 105.9145530
  88.9817300  70.1664830 105.5864830  89.7045430  70.7073770 105.9046050
  89.2541820  69.8928250 104.7106370 102.7908950  75.0357300 109.8536410
 103.2868070  74.8028170 110.6385290 102.5925020  74.1969140 109.4374050
 104.2196110  73.6718250 112.3874090 104.1095390  73.5174290 113.3256360
 104.9803700  73.1439190 112.1449500 105.1086380  71.5026170 105.6280230
 106.0335690  71.3707350 105.4198520 105.0862170  71.5818990 106.5816680
 105.1824870  72.2736830 108.2536940 104.3876370  72.2081950 108.7829850
 105.3868150  73.2087470 108.2422290 102.1243290  86.3128380 112.2475330
 102.7202360  85.9912950 111.5709750 102.3821440  85.8400200 113.0388600
  95.9366310  70.7638570 121.7532190  95.8755200  71.3560400 122.5027600
  96.8766690  70.6564530 121.6082450  98.5740870  70.4208630 121.3924480
  99.1881280  70.7387920 120.7305560  99.1190430  69.9357220 122.0120340
 102.6755500  86.9623680 116.0773060 102.2158470  87.7139490 115.7031080
 102.0467960  86.2430150 116.0187860  95.8446720  86.1620410 116.0790170
  96.1324530  85.9074710 115.2023180  96.3569940  85.6097770 116.6695740
  87.7836120  86.3741310 111.6768540  87.6158160  85.7411990 112.3750430
  86.9170630  86.5800710 111.3262730  94.9477950  72.3197360 112.1702710
  94.1352460  71.9454250 111.8298590  95.4519590  71.5642440 112.4723900
 102.5937530  69.3861370 108.6826060 102.7888160  70.2844820 108.9493490
 101.8067400  69.1548450 109.1759010  90.7789290  70.7322140 107.7202370
  91.3082050  69.9451940 107.5910320  91.4117610  71.4113330 107.9537900
 104.1464140  86.6262080 110.4432620 104.3216330  85.9399820 109.7993540
 103.4485710  87.1509130 110.0509290  93.0982690  69.7481260 123.2100250
  92.8166960  70.2514860 122.4461070  93.4802390  68.9503010 122.8442380
  96.7374340  78.9606330  96.0324730  95.9616440  78.4806770  96.3223300
  97.3887270  78.2811980  95.8580890 100.7581770  83.3666520  94.8123860
 100.2963300  82.5953760  95.1411030 101.5707320  83.3932590  95.3176310
  96.9845080  85.6524530  94.4327850  96.3656520  86.1082030  93.8622290
  97.8396860  85.8075990  94.0317550 100.9912620  71.9384340  93.1992160
 101.8122240  71.4480910  93.2417640 101.0246700  72.5282000  93.9524000
 101.2274100  73.8784720  95.9719700 100.5229670  74.1669610  96.5522810
 101.5886260  74.6884830  95.6119260 102.8436880  83.4959850  98.2347180
 102.1600400  84.1658960  98.2263850 103.3831170  83.6940500  97.4692040
 104.2961020  73.3239510  96.3628910 103.3485930  73.3578490  96.4944340
 104.6211010  74.1378460  96.7478270 100.3795620  85.3403980  96.9492360
 100.3922780  84.9366270  96.0814620  99.8270840  86.1151270  96.8453790
  99.7781060  80.2433820  98.2774970 100.1949850  80.0293930  97.4428430
 100.5020880  80.5006610  98.8483590 100.6885170  75.4290360  99.3146080
 100.2756350  76.2544070  99.5686070  99.9561120  74.8435400  99.1222440
 101.3785270  85.4749690 100.0027060 100.9015830  86.2821880  99.8099670
 100.6947060  84.8228020 100.1553270  99.4223310  78.4892630  88.9053020
  99.8616590  77.6515060  88.7590840 100.1351730  79.1222030  88.9917160
  98.2234470  86.1302480 100.8013270  98.7379140  86.0410490 101.6035700
  97.3803550  86.4762180 101.0941180 101.2760570  74.5407780 101.7927050
 100.4254160  74.2413530 102.1136120 101.1162360  74.7849790 100.8810870
  98.2018240  76.8096540  97.5121030  97.4699360  77.3183350  97.8611130
  97.8042580  75.9926520  97.2109810 102.0914900  69.6762400 102.7630350
 102.4160670  68.9452060 103.2888330 102.1271410  69.3576040 101.8611340
  97.3991540  79.8596570 102.2585380  97.3328850  78.9392240 102.0042970
  96.7696680  79.9572010 102.9730020 100.1931070  75.5545120  88.8107930
 101.0810690  75.8662350  88.6359270 100.1636160  74.6817370  88.4188510
  97.3308270  82.6817140 102.0089180  97.3452810  81.7498100 101.7908090
  96.6233370  82.7676900 102.6478950 102.4645340  76.8656960  88.2787790
 102.3809060  77.2971180  87.4284230 103.1839530  77.3255310  88.7114610
 103.5419480  79.3224480 101.3557760 102.8167670  79.9153260 101.1587150
 104.0694940  79.3148020 100.5571130  99.0719070  81.0484650  94.8541610
  99.4242890  80.4512780  94.1942980  98.1881400  80.7228880  95.0249860
  98.0374250  82.3267060  97.8207130  98.6796480  81.6260220  97.9339300
  98.5623600  83.1065500  97.6404020  99.8111870  83.1261960 101.0243190
 100.1468110  83.7128650 101.7021110  98.8912210  82.9954670 101.2540980
  98.8554050  73.4079450  99.5568050  99.2234870  72.5874660  99.8847620
  97.9952250  73.4681340  99.9723700  96.6674220  84.0841980  87.7989590
  96.7686200  83.8805970  86.8691570  95.7675960  83.8300260  88.0037370
  95.8156040  76.0619040  99.7806020  96.3141290  76.5364860 100.4457870
  95.9578990  75.1382560  99.9876050  95.3092330  86.6028300  92.4937260
  95.5633830  86.5649690  91.5716630  94.3604810  86.4761630  92.4865510
 103.0222900  72.2787000 100.6234410 102.5196500  73.0192400 100.9628220
 103.8379560  72.6671000 100.3071200 103.3170490  84.6929030  95.7450030
 103.4417910  85.5160200  96.2173840 104.1836050  84.4819760  95.3974180
  98.6310930  82.0786180 104.5528150  98.0249090  82.1017780 103.8123900
  98.3265040  81.3469220 105.0895400 100.0611300  85.8066470 103.1637560
 101.0133050  85.7224490 103.1137800  99.9139520  86.4708180 103.8371350
  94.5682050  79.8650760 103.0824310  93.8027720  80.4335760 102.9978980
  94.7498010  79.5726970 102.1892540  97.6570460  80.2413990  87.7077070
  97.1080560  80.6883290  88.3519810  98.2789720  79.7363240  88.2314740
 100.3851060  79.6470920 102.1754540 100.7992080  79.8016000 103.0244960
  99.4502060  79.7726140 102.3380320  94.7406740  70.7037070  99.5238030
  94.2924040  70.7261330  98.6783580  94.1071940  70.3056090 100.1208330
  95.1466290  79.5991400 100.1450470  95.5654400  80.4424130  99.9726710
  94.2274920  79.7363440  99.9157250  99.8218090  77.8844770 100.1050820
  99.2953310  78.4087390  99.5015960 100.1649430  78.5172160 100.7360550
  99.6992790  70.0846370  89.0787410  99.9795080  69.2414270  89.4346830
  98.9258520  70.3169480  89.5926160 103.3815600  84.8357800 101.8487410
 102.7817590  84.8950360 101.1051330 103.5109500  83.8962780 101.9784260
 102.0667240  81.5609780  99.9463570 101.2527080  81.9906940 100.2089360
 102.4741440  82.1728190  99.3332620 101.8545710  71.9254410 104.2512490
 102.7315890  71.9337810 104.6346490 101.8666550  71.1885250 103.6404840
 102.7908950  75.0357300  91.0792920 103.2868070  74.8028170  91.8641800
 102.5925020  74.1969140  90.6630560 104.2196110  73.6718250  93.6130600
 104.1095390  73.5174290  94.5512870 104.9803700  73.1439190  93.3706010
 102.5661830  69.6112380 100.0713600 103.2034050  70.2246520 100.4372790
 102.7136720  69.6473040  99.1262830  98.5740870  70.4208630 102.6180990
  99.1881280  70.7387920 101.9562070  99.1190430  69.9357220 103.2376850
 104.9916050  86.3200260 100.0242830 104.4974330  86.7169130  99.3069960
 104.3829340  85.6949470 100.4180110  89.0962130  69.1002890 102.7320050
  89.6445120  68.9190940 101.9686160  89.1617440  68.3097000 103.2676360
  99.3148910  68.9840770  98.9450280  98.4408750  69.3175880  98.7423210
  99.2059660  68.5113950  99.7702150 100.2220890  71.1911640 100.3292000
  99.8934250  70.3763400  99.9493730 101.1703190  71.1481450 100.2057690
 102.6755500  86.9623680  97.3029570 102.2158470  87.7139490  96.9287590
 102.0467960  86.2430150  97.2444370  97.0623730  69.9010610  97.8843190
  96.2795520  70.3756110  98.1639950  96.7686660  68.9965440  97.7756370
 101.6144800  70.6033710  95.9292280 102.0552890  70.5478810  95.0813880
 101.3452390  71.5191720  96.0002460 103.4783370  70.2348950  93.9401100
 103.4171770  69.2910170  93.7932120 104.2575400  70.3429040  94.4854560
  99.4502930  68.9839810  94.6342290 100.0532300  69.5560020  95.1090810
  98.7095920  69.5479250  94.4116190  93.0982690  69.7481260 104.4356760
  92.8166960  70.2514860 103.6717580  93.4802390  68.9503010 104.0698890
  99.6998150  69.1634840 105.0137230  99.5863600  69.4829450 105.9088750
 100.5167890  69.5647350 104.7174510 102.4796640  86.3106370 104.4955920
 103.2721960  85.8155600 104.2881880 102.7729790  86.9896510 105.1031530
  98.6056300  77.1827310  75.3771970  98.5250350  76.2681920  75.1063680
  98.1920720  77.6794380  74.6711680 100.7581770  83.3666520  76.0380370
 100.2963300  82.5953760  76.3667540 101.5707320  83.3932590  76.5432820
  97.8508430  80.5363770  73.0516270  97.2325700  81.0013220  72.4878990
  98.3631680  81.2291250  73.4685780 102.8436880  83.4959850  79.4603690
 102.1600400  84.1658960  79.4520360 103.3831170  83.6940500  78.6948550
 100.3795620  85.3403980  78.1748870 100.3922780  84.9366270  77.3071130
  99.8270840  86.1151270  78.0710300 101.6741040  82.0620200  73.2639040
 101.5637370  81.1194530  73.3888460 101.6709290  82.4235840  74.1501800
  99.7781060  80.2433820  79.5031480 100.1949850  80.0293930  78.6684940
 100.5020880  80.5006610  80.0740100 101.2458610  79.2505820  73.1236780
 100.6271030  78.9125370  72.4763080 101.2283060  78.6065580  73.8315970
 101.3785270  85.4749690  81.2283570 100.9015830  86.2821880  81.0356180
 100.6947060  84.8228020  81.3809780  97.5318690  83.4288700  74.0990770
  97.9714600  84.1713030  73.6846160  97.4705580  83.6715270  75.0229730
 103.0040450  69.7435440  68.4450570 102.6913110  69.8362270  69.3449640
 103.7652920  70.3216470  68.3948000  98.2234470  86.1302480  82.0269780
  98.7379140  86.0410490  82.8292210  97.3803550  86.4762180  82.3197690
 100.1988870  86.4157820  71.4553780 100.0390010  86.1260760  72.3535610
 100.0335580  85.6397950  70.9199010  99.9015000  83.9245380  70.0151780
  99.2080160  83.9222670  69.3554060 100.6437860  83.5004700  69.5845950
  99.4664930  85.5508090  74.0900270  99.9221880  84.7697470  74.4038890
  99.8057450  86.2614910  74.6341450  98.3710280  76.0409530  85.1182350
  98.6963690  75.2073280  84.7784580  99.1590610  76.5638050  85.2660680
  95.1045070  70.0741010  71.1657410  94.4799250  70.0700880  71.8910720
  95.0175190  69.2071970  70.7693380  97.6163100  74.2190790  74.6426760
  98.0092670  74.5362990  73.8295450  97.9779950  73.3402670  74.7571280
  86.8397500  74.7511710  68.0759680  86.7572170  75.6942470  68.2174670
  86.4880560  74.6086620  67.1972030 102.0914900  69.6762400  83.9886860
 102.4160670  68.9452060  84.5144840 102.1271410  69.3576040  83.0867850
 102.0172740  79.7887510  77.5972890 102.7371860  80.2842800  77.2069000
 101.8154560  79.1105400  76.9526760  97.4782680  71.1825470  71.7402280
  96.6647290  70.6838640  71.6647590  97.2844630  72.0223720  71.3238630
  97.3308270  82.6817140  83.2345690  97.3452810  81.7498100  83.0164600
  96.6233370  82.7676900  83.8735460 102.4645340  76.8656960  69.5044300
 102.3809060  77.2971180  68.6540740 103.1839530  77.3255310  69.9371120
 103.4932590  83.7199220  72.2326430 102.8508750  83.0654840  72.5070150
 103.1063250  84.1254310  71.4567100  99.0719070  81.0484650  76.0798120
  99.4242890  80.4512780  75.4199490  98.1881400  80.7228880  76.2506370
  98.0374250  82.3267060  79.0463640  98.6796480  81.6260220  79.1595810
  98.5623600  83.1065500  78.8660530 101.8829970  82.6115680  68.7702780
 101.6567550  81.8946120  69.3627420 101.4926170  82.3628120  67.9324530
  99.8111870  83.1261960  82.2499700 100.1468110  83.7128650  82.9277620
  98.8912210  82.9954670  82.4797490 101.4646220  80.5287620  70.4316940
 101.1767920  80.9900310  71.2194820 102.2598390  80.0685390  70.7001160
  98.8554050  73.4079450  80.7824560  99.2234870  72.5874660  81.1104130
  97.9952250  73.4681340  81.1980210 102.2216080  72.3636390  71.5912120
 101.5929240  72.4682060  70.8770350 101.7268000  72.5833170  72.3806000
  98.2215540  71.3673000  74.4465790  98.0983320  71.3859130  73.4975300
  99.1700100  71.4151940  74.5664190  92.3935130  72.9507420  70.3820710
  93.2425660  73.3877570  70.3160900  92.0266400  73.2627680  71.2092770
 101.3144910  77.5220180  75.2952280 100.3735050  77.5370410  75.4699970
 101.6288980  76.7356140  75.7412580 103.3170490  84.6929030  76.9706540
 103.4417910  85.5160200  77.4430350 104.1836050  84.4819760  76.6230690
  98.6310930  82.0786180  85.7784660  98.0249090  82.1017780  85.0380410
  98.3265040  81.3469220  86.3151910 100.0611300  85.8066470  84.3894070
 101.0133050  85.7224490  84.3394310  99.9139520  86.4708180  85.0627860
 102.9520500  85.1860680  69.8885980 102.6662010  84.7725820  69.0740160
 102.7540050  86.1148390  69.7686500 100.3851060  79.6470920  83.4011050
 100.7992080  79.8016000  84.2501470  99.4502060  79.7726140  83.5636830
 100.8573230  76.9867080  85.4050200 101.4394000  76.2319400  85.3170680
 101.0335000  77.5174520  84.6281680  99.8218090  77.8844770  81.3307330
  99.2953310  78.4087390  80.7272470 100.1649430  78.5172160  81.9617060
  92.2204480  75.2738140  67.7757040  92.0193540  74.4105500  68.1370380
  92.0496530  75.1871500  66.8378640  99.0692390  73.4894740  84.2453660
  98.3807910  72.8276280  84.1803650  99.7898410  73.0433010  84.6902120
  99.6992790  70.0846370  70.3043920  99.9795080  69.2414270  70.6603340
  98.9258520  70.3169480  70.8182670  94.2372210  71.3173380  68.7491120
  93.8894210  70.6397370  68.1693570  94.4384980  70.8562890  69.5634510
 104.6217050  82.5775620  68.4113630 103.7910010  82.6452270  68.8820860
 104.7988880  83.4679740  68.1080490 104.0773510  79.3223100  70.9147830
 104.8392420  79.8919750  71.0207520 104.0927880  78.7550300  71.6856140
 105.0833480  80.1773200  75.7589760 105.4542310  79.3940520  75.3525730
 105.7235410  80.8662300  75.5807060 102.0667240  81.5609780  81.1720080
 101.2527080  81.9906940  81.4345870 102.4741440  82.1728190  80.5589130
 104.1292680  79.6157470  68.0720350 104.4041520  80.5236350  67.9439570
 103.9403420  79.5520000  69.0082340 100.5268290  72.6402320  69.3673980
 100.9453170  72.4533300  68.5270640 100.2204350  71.7881370  69.6776910
 104.0258020  77.5526460  73.0649780 103.6501620  76.7854390  72.6331070
 103.2961140  77.9349160  73.5524710 101.8545710  71.9254410  85.4769000
 102.7315890  71.9337810  85.8603000 101.8666550  71.1885250  84.8661350
 103.3008980  75.7783950  76.3657020 103.8246460  75.2846600  75.7347190
 103.8868400  75.9134310  77.1104590 102.7908950  75.0357300  72.3049430
 103.2868070  74.8028170  73.0898310 102.5925020  74.1969140  71.8887070
 104.2196110  73.6718250  74.8387110 104.1095390  73.5174290  75.7769380
 104.9803700  73.1439190  74.5962520 105.1086380  71.5026170  68.0793250
 106.0335690  71.3707350  67.8711540 105.0862170  71.5818990  69.0329700
 105.1824870  72.2736830  70.7049960 104.3876370  72.2081950  71.2342870
 105.3868150  73.2087470  70.6935310 102.1243290  86.3128380  74.6988350
 102.7202360  85.9912950  74.0222770 102.3821440  85.8400200  75.4901620
 104.9916050  86.3200260  81.2499340 104.4974330  86.7169130  80.5326470
 104.3829340  85.6949470  81.6436620  89.8693890  85.6908540  81.9676760
  89.2754210  85.5593240  82.7066800  89.8617730  84.8546680  81.5018860
 102.6755500  86.9623680  78.5286080 102.2158470  87.7139490  78.1544100
 102.0467960  86.2430150  78.4700880 102.5937530  69.3861370  71.1339080
 102.7888160  70.2844820  71.4006510 101.8067400  69.1548450  71.6272030
  90.7789290  70.7322140  70.1715390  91.3082050  69.9451940  70.0423340
  91.4117610  71.4113330  70.4050920 104.1464140  86.6262080  72.8945640
 104.3216330  85.9399820  72.2506560 103.4485710  87.1509130  72.5022310
  99.6998150  69.1634840  86.2393740  99.5863600  69.4829450  87.1345260
 100.5167890  69.5647350  85.9431020 102.4796640  86.3106370  85.7212430
 103.2721960  85.8155600  85.5138390 102.7729790  86.9896510  86.3288040
  98.6056300  77.1827310  56.6028480  98.5250350  76.2681920  56.3320190
  98.1920720  77.6794380  55.8968190 100.7581770  83.3666520  57.2636880
 100.2963300  82.5953760  57.5924050 101.5707320  83.3932590  57.7689330
 100.9912620  71.9384340  55.6505180 101.8122240  71.4480910  55.6930660
 101.0246700  72.5282000  56.4037020 105.2812170  73.9551090  62.2148810
 104.5764340  74.3432800  61.6963920 105.5470090  74.6501380  62.8169740
  97.8508430  80.5363770  54.2772780  97.2325700  81.0013220  53.7135500
  98.3631680  81.2291250  54.6942290 101.2274100  73.8784720  58.4232720
 100.5229670  74.1669610  59.0035830 101.5886260  74.6884830  58.0632280
 104.2961020  73.3239510  58.8141930 103.3485930  73.3578490  58.9457360
 104.6211010  74.1378460  59.1991290  94.8280560  69.6236690  57.1097920
  95.1355540  69.0683580  56.3933420  93.8981260  69.7581150  56.9270910
 101.6741040  82.0620200  54.4895550 101.5637370  81.1194530  54.6144970
 101.6709290  82.4235840  55.3758310  99.7781060  80.2433820  60.7287990
 100.1949850  80.0293930  59.8941450 100.5020880  80.5006610  61.2996610
  97.2161320  77.6885520  53.8458040  96.2890600  77.6222900  54.0746510
  97.3686140  78.6265650  53.7313280  97.2030400  73.9602520  50.8425200
  96.2634070  74.1216480  50.9277660  97.5213660  74.6788200  50.2961190
 101.2458610  79.2505820  54.3493290 100.6271030  78.9125370  53.7019590
 101.2283060  78.6065580  55.0572480 100.6885170  75.4290360  61.7659100
 100.2756350  76.2544070  62.0199090  99.9561120  74.8435400  61.5735460
 101.3785270  85.4749690  62.4540080 100.9015830  86.2821880  62.2612690
 100.6947060  84.8228020  62.6066290 104.9584480  85.2361630  67.5231470
 105.4344200  85.7144520  68.2020550 105.5791640  85.1679120  66.7976970
 104.3617730  82.4274480  64.6831480 104.4880790  82.1886360  63.7648660
 104.4039110  81.5959020  65.1553560  92.6777250  86.1956350  54.4581910
  92.5019730  85.2791890  54.2449710  91.8232990  86.5543640  54.6979710
  99.9015000  83.9245380  51.2408290  99.2080160  83.9222670  50.5810570
 100.6437860  83.5004700  50.8102460 104.2141740  74.4806940  65.6481220
 103.5986010  74.9886610  65.1196680 103.8938160  73.5805270  65.5907160
  96.2756060  73.3198830  63.1143410  95.8135430  73.5281850  63.9263350
  95.8734170  72.5058180  62.8114080 101.2760570  74.5407780  64.2440070
 100.4254160  74.2413530  64.5649140 101.1162360  74.7849790  63.3323890
  98.3710280  76.0409530  66.3438860  98.6963690  75.2073280  66.0041090
  99.1590610  76.5638050  66.4917190  94.0262150  70.9977640  59.3697690
  94.3234480  71.9040470  59.2889710  94.5747710  70.5096420  58.7557260
  99.0098230  75.5827250  53.8379990  98.4107120  76.3063050  53.6543610
  99.5577840  75.5204030  53.0556440  97.6163100  74.2190790  55.8683270
  98.0092670  74.5362990  55.0551960  97.9779950  73.3402670  55.9827790
  95.9255270  72.9698100  67.1280130  95.2353590  72.7770300  67.7626220
  96.6687570  73.2532740  67.6604430  98.2018240  76.8096540  59.9634050
  97.4699360  77.3183350  60.3124150  97.8042580  75.9926520  59.6622830
  94.7015780  74.4862820  51.3593300  94.8228600  74.4449300  52.3079120
  94.3164290  75.3486970  51.2040030  98.6644150  72.2630220  59.3756990
  98.6816890  72.7138870  60.2198840  98.4159730  71.3635860  59.5890430
  93.7137280  76.7963960  50.7576600  93.1454180  76.3482210  50.1312510
  94.4226280  77.1556740  50.2241750 102.0914900  69.6762400  65.2143370
 102.4160670  68.9452060  65.7401350 102.1271410  69.3576040  64.3124360
  97.4782680  71.1825470  52.9658790  96.6647290  70.6838640  52.8904100
  97.2844630  72.0223720  52.5495140 100.1931070  75.5545120  51.2620950
 101.0810690  75.8662350  51.0872290 100.1636160  74.6817370  50.8701530
  96.1891660  81.7268810  51.9409120  96.5307360  82.4711040  51.4452440
  95.3604370  82.0399930  52.3033950 103.5419480  79.3224480  63.8070780
 102.8167670  79.9153260  63.6100170 104.0694940  79.3148020  63.0084150
 103.4932590  83.7199220  53.4582940 102.8508750  83.0654840  53.7326660
 103.1063250  84.1254310  52.6823610  99.0719070  81.0484650  57.3054630
  99.4242890  80.4512780  56.6456000  98.1881400  80.7228880  57.4762880
  94.4609560  78.8128370  54.3250400  94.9172340  79.6233620  54.5510590
  94.1097770  78.4951510  55.1568890  99.8111870  83.1261960  63.4756210
 100.1468110  83.7128650  64.1534130  98.8912210  82.9954670  63.7054000
  87.6646000  86.6382540  50.7703750  88.0243640  87.2371880  50.1161020
  87.5238340  87.1842430  51.5438780  93.6814620  84.0213740  51.5877420
  93.6724720  84.7543430  50.9721930  92.7612980  83.7745320  51.6804380
  98.8554050  73.4079450  62.0081070  99.2234870  72.5874660  62.3360640
  97.9952250  73.4681340  62.4236720 102.2216080  72.3636390  52.8168630
 101.5929240  72.4682060  52.1026860 101.7268000  72.5833170  53.6062510
  96.6674220  84.0841980  50.2502610  96.7686200  83.8805970  49.3204590
  95.7675960  83.8300260  50.4550390  94.1900110  74.6422340  54.2326510
  93.4816260  75.1108680  54.6740120  94.4744590  73.9844350  54.8671700
  98.2215540  71.3673000  55.6722300  98.0983320  71.3859130  54.7231810
  99.1700100  71.4151940  55.7920700  95.3092330  86.6028300  54.9450280
  95.5633830  86.5649690  54.0229650  94.3604810  86.4761630  54.9378530
 103.0222900  72.2787000  63.0747430 102.5196500  73.0192400  63.4141240
 103.8379560  72.6671000  62.7584220 101.3144910  77.5220180  56.5208790
 100.3735050  77.5370410  56.6956480 101.6288980  76.7356140  56.9669090
  90.7888020  86.7860240  57.8680180  91.5250500  86.2375700  58.1388750
  91.1728940  87.6516250  57.7286170  93.8990330  85.9590550  49.6905750
  94.6918940  86.2479380  49.2387540  93.3794680  85.5282720  49.0118230
  98.6310930  82.0786180  67.0041170  98.0249090  82.1017780  66.2636920
  98.3265040  81.3469220  67.5408420 100.0611300  85.8066470  65.6150580
 101.0133050  85.7224490  65.5650820  99.9139520  86.4708180  66.2884370
 102.9520500  85.1860680  51.1142490 102.6662010  84.7725820  50.2996670
 102.7540050  86.1148390  50.9943010  94.4167730  81.1793960  49.5548100
  94.3118370  80.5646310  50.2809480  94.2491950  80.6559850  48.7711110
  97.6570460  80.2413990  50.1590090  97.1080560  80.6883290  50.8032830
  98.2789720  79.7363240  50.6827760 101.7105400  81.5956090  66.0912350
 102.4514870  81.9331850  65.5879810 100.9478080  81.7648150  65.5382120
  93.3245580  79.2004910  52.0555390  93.7462000  79.0344780  52.8986780
  93.4496420  78.3905140  51.5610530  95.8373220  78.2242520  49.3032490
  96.3578880  77.5091540  48.9373640  96.4841620  78.8628390  49.6033000
 100.3851060  79.6470920  64.6267560 100.7992080  79.8016000  65.4757980
  99.4502060  79.7726140  64.7893340 100.8573230  76.9867080  66.6306710
 101.4394000  76.2319400  66.5427190 101.0335000  77.5174520  65.8538190
  94.7406740  70.7037070  61.9751050  94.2924040  70.7261330  61.1296600
  94.1071940  70.3056090  62.5721350  97.4830190  77.3307580  63.9801330
  97.6026400  76.7348720  64.7196170  98.3424190  77.3677270  63.5602630
  99.8218090  77.8844770  62.5563840  99.2953310  78.4087390  61.9528980
 100.1649430  78.5172160  63.1873570  92.2204480  75.2738140  49.0013550
  92.0193540  74.4105500  49.3626890  92.0496530  75.1871500  48.0635150
  94.2498960  73.8728930  65.2377150  94.8398650  73.5644780  65.9254970
  93.4319200  73.4008680  65.3937050  99.0692390  73.4894740  65.4710170
  98.3807910  72.8276280  65.4060160  99.7898410  73.0433010  65.9158630
  99.6992790  70.0846370  51.5300430  99.9795080  69.2414270  51.8859850
  98.9258520  70.3169480  52.0439180  94.2372210  71.3173380  49.9747630
  93.8894210  70.6397370  49.3950080  94.4384980  70.8562890  50.7891020
  96.4021250  86.3054130  51.5934230  97.2972040  86.6439100  51.6152990
  96.4338880  85.5833540  50.9658510 103.3815600  84.8357800  64.3000430
 102.7817590  84.8950360  63.5564350 103.5109500  83.8962780  64.4297280
 102.0667240  81.5609780  62.3976590 101.2527080  81.9906940  62.6602380
 102.4741440  82.1728190  61.7845640 100.5268290  72.6402320  50.5930490
 100.9453170  72.4533300  49.7527150 100.2204350  71.7881370  50.9033420
 104.0258020  77.5526460  54.2906290 103.6501620  76.7854390  53.8587580
 103.2961140  77.9349160  54.7781220 103.4157640  76.6997980  63.9245810
 103.1843730  76.4710730  63.0243760 103.6762190  77.6197530  63.8790700
 101.8545710  71.9254410  66.7025510 102.7315890  71.9337810  67.0859510
 101.8666550  71.1885250  66.0917860 103.4798700  75.8623820  61.1133080
 102.5301410  75.8287360  61.2278070 103.6611710  76.7723930  60.8782850
 102.7908950  75.0357300  53.5305940 103.2868070  74.8028170  54.3154820
 102.5925020  74.1969140  53.1143580 104.2196110  73.6718250  56.0643620
 104.1095390  73.5174290  57.0025890 104.9803700  73.1439190  55.8219030
 102.5661830  69.6112380  62.5226620 103.2034050  70.2246520  62.8885810
 102.7136720  69.6473040  61.5775850 105.1086380  71.5026170  49.3049760
 106.0335690  71.3707350  49.0968050 105.0862170  71.5818990  50.2586210
  98.5740870  70.4208630  65.0694010  99.1881280  70.7387920  64.4075090
  99.1190430  69.9357220  65.6889870  99.3148910  68.9840770  61.3963300
  98.4408750  69.3175880  61.1936230  99.2059660  68.5113950  62.2215170
 100.2220890  71.1911640  62.7805020  99.8934250  70.3763400  62.4006750
 101.1703190  71.1481450  62.6570710  97.0623730  69.9010610  60.3356210
  96.2795520  70.3756110  60.6152970  96.7686660  68.9965440  60.2269390
 101.6144800  70.6033710  58.3805300 102.0552890  70.5478810  57.5326900
 101.3452390  71.5191720  58.4515480 103.4783370  70.2348950  56.3914120
 103.4171770  69.2910170  56.2445140 104.2575400  70.3429040  56.9367580
  94.9477950  72.3197360  55.8472240  94.1352460  71.9454250  55.5068120
  95.4519590  71.5642440  56.1493430  99.4502930  68.9839810  57.0855310
 100.0532300  69.5560020  57.5603830  98.7095920  69.5479250  56.8629210
  91.9891790  87.0156920  51.6737460  92.7210610  86.7316200  51.1261350
  92.2485460  86.7770200  52.5636840  99.6998150  69.1634840  67.4650250
  99.5863600  69.4829450  68.3601770 100.5167890  69.5647350  67.1687530
 102.4796640  86.3106370  66.9468940 103.2721960  85.8155600  66.7394900
 102.7729790  86.9896510  67.5544550  96.7374340  78.9606330  39.7094260
  95.9616440  78.4806770  39.9992830  97.3887270  78.2811980  39.5350420
  90.7540170  79.2726140  40.5870020  89.9225050  79.0174850  40.9866530
  91.3621150  79.3436910  41.3227940  90.7341430  83.3066230  40.7828040
  91.0369470  82.4163970  40.6038260  91.4785020  83.8636450  40.5550290
  87.1265130  76.8333680  40.2552110  87.6981240  76.0655880  40.2555750
  87.1266670  77.1322440  39.3458720  88.3690000  72.2418040  42.0421040
  88.1892840  71.3443790  42.3223800  87.9670080  72.7889910  42.7167990
  93.1801240  75.7845900  39.7375970  93.6879460  76.2826870  40.3780990
  93.7114480  75.0081100  39.5615330  92.7140190  80.0639640  42.1812890
  92.3809570  80.6908560  42.8233960  92.8906870  80.5901520  41.4014560
  91.9259290  82.0320440  43.9962070  92.5433290  82.7071520  43.7146520
  91.0652410  82.4408420  43.9049570  87.2191630  81.2220300  32.8768920
  86.8419610  81.7107400  32.1453820  87.4764700  81.8945580  33.5075450
 103.7243160  78.6421040  42.0460740 102.8961790  78.7114130  41.5710870
 104.3193640  79.2275350  41.5776570 100.6885170  75.4290360  42.9915610
 100.2756350  76.2544070  43.2455600  99.9561120  74.8435400  42.7991970
  92.8217960  78.2150260  37.8534280  92.4174960  77.5027510  37.3580180
  92.9081080  77.8703500  38.7422320  91.5346580  74.9893470  41.6333320
  92.0861170  75.0988810  40.8586570  92.0490090  75.3631070  42.3488550
 101.3785270  85.4749690  43.6796590 100.9015830  86.2821880  43.4869200
 100.6947060  84.8228020  43.8322800  92.3818090  81.6399510  46.6681290
  91.4846620  81.8639480  46.9154690  92.4070960  81.7634450  45.7192690
  91.2089310  78.5112830  45.2438660  91.0697080  79.3835630  45.6126060
  90.3270670  78.1685640  45.0986600  93.0069660  84.4534530  47.4523810
  92.9785090  84.8577480  46.5852240  92.8434630  83.5244890  47.2895410
  89.5222590  77.1095240  35.3540930  89.4020190  77.8357330  34.7422200
  89.2123480  76.3398150  34.8768840 104.9584480  85.2361630  48.7487980
 105.4344200  85.7144520  49.4277060 105.5791640  85.1679120  48.0233480
  87.1607960  80.2810380  41.1609570  87.2388380  80.4159150  40.2165290
  87.7749640  79.5726270  41.3537690  88.4055590  81.9810570  37.5715750
  87.9983670  82.1225160  36.7169350  89.2968600  81.6970730  37.3686960
  92.6777250  86.1956350  35.6838420  92.5019730  85.2791890  35.4706220
  91.8232990  86.5543640  35.9236220 104.2141740  74.4806940  46.8737730
 103.5986010  74.9886610  46.3453190 103.8938160  73.5805270  46.8163670
  87.2167480  81.3224550  43.7004030  87.3798520  80.8529910  42.8823400
  87.6819930  80.8148110  44.3652870  91.9886250  70.4530310  38.7364600
  91.5454400  71.2339850  38.4049120  92.5471240  70.7760200  39.4435540
  96.2756060  73.3198830  44.3399920  95.8135430  73.5281850  45.1519860
  95.8734170  72.5058180  44.0370590 101.2760570  74.5407780  45.4696580
 100.4254160  74.2413530  45.7905650 101.1162360  74.7849790  44.5580400
  98.3710280  76.0409530  47.5695370  98.6963690  75.2073280  47.2297600
  99.1590610  76.5638050  47.7173700  94.0262150  70.9977640  40.5954200
  94.3234480  71.9040470  40.5146220  94.5747710  70.5096420  39.9813770
  91.7800470  75.5763880  36.4645850  91.5541390  75.3601050  37.3692470
  90.9993000  76.0092340  36.1191820  94.2199680  76.4749460  47.1306120
  94.1243280  75.5344190  46.9806520  95.0631660  76.6964530  46.7354190
  95.9255270  72.9698100  48.3536640  95.2353590  72.7770300  48.9882730
  96.6687570  73.2532740  48.8860940  98.2018240  76.8096540  41.1890560
  97.4699360  77.3183350  41.5380660  97.8042580  75.9926520  40.8879340
  90.4898010  73.3677230  38.5537260  90.1498060  73.8452460  39.3104310
  89.7275330  72.9142350  38.1938360  93.7137280  76.7963960  31.9833110
  93.1454180  76.3482210  31.3569020  94.4226280  77.1556740  31.4498260
  88.7906460  80.6975980  45.8599840  88.4061250  80.0569650  46.4582800
  89.1018650  81.4012100  46.4294570  94.9403600  77.5452520  41.3408460
  95.3073730  77.0711090  42.0869800  94.7508660  78.4194090  41.6816800
  92.7302970  76.5861160  43.6592670  92.4260040  77.4653140  43.8843030
  93.6849430  76.6460950  43.6950110  91.2584760  80.7922150  34.2559520
  90.4847020  80.2519770  34.0958240  91.9879390  80.2728760  33.9177280
  97.3991540  79.8596570  45.9354910  97.3328850  78.9392240  45.6812500
  96.7696680  79.9572010  46.6499550  91.3022160  80.4602530  37.8938330
  91.8200830  79.6570790  37.8395220  90.8506180  80.3981670  38.7355160
  88.7866700  77.4263900  44.8064030  88.4281640  78.0917750  45.3937370
  88.4921260  76.5947450  45.1776650  91.9879820  77.8848140  47.6903580
  91.6879960  78.0305320  46.7931400  92.7591060  77.3253430  47.5976970
  97.3308270  82.6817140  45.6858710  97.3452810  81.7498100  45.4677620
  96.6233370  82.7676900  46.3248480  87.2974750  77.4255160  31.4298630
  88.1669600  77.7079960  31.7134550  86.8065070  78.2391030  31.3147440
  94.4609560  78.8128370  35.5506910  94.9172340  79.6233620  35.7767100
  94.1097770  78.4951510  36.3825400  99.8111870  83.1261960  44.7012720
 100.1468110  83.7128650  45.3790640  98.8912210  82.9954670  44.9310510
  87.6487860  84.9037400  46.4702660  87.7578980  83.9632140  46.3298050
  86.9968420  85.1692150  45.8216390  95.6400450  83.1753290  47.8700780
  95.3197320  82.4562530  48.4146470  94.9658810  83.8508360  47.9436840
  89.2821260  79.2428630  33.5580690  88.6749210  79.9827530  33.5675990
  89.7570610  79.3327990  32.7318890  98.8554050  73.4079450  43.2337580
  99.2234870  72.5874660  43.5617150  97.9952250  73.4681340  43.6493230
  94.1900110  74.6422340  35.4583020  93.4816260  75.1108680  35.8996630
  94.4744590  73.9844350  36.0928210  95.8156040  76.0619040  43.4575550
  96.3141290  76.5364860  44.1227400  95.9578990  75.1382560  43.6645580
  89.9873310  76.6364850  31.9902150  90.0676900  75.6892360  32.1019550
  90.8793060  76.9671730  32.0962810  90.7888020  86.7860240  39.0936690
  91.5250500  86.2375700  39.3645260  91.1728940  87.6516250  38.9542680
  87.6733500  82.8533810  34.9678200  86.7473280  83.0954950  34.9583610
  88.1389930  83.6808070  34.8462950  89.7946300  85.9706310  48.2822270
  90.5959030  86.2918360  48.6957670  89.2798120  85.6101890  49.0042180
 100.0611300  85.8066470  46.8407090 101.0133050  85.7224490  46.7907330
  99.9139520  86.4708180  47.5140880  94.5682050  79.8650760  46.7593840
  93.8027720  80.4335760  46.6748510  94.7498010  79.5726970  45.8662070
  93.3245580  79.2004910  33.2811900  93.7462000  79.0344780  34.1243290
  93.4496420  78.3905140  32.7867040  95.8373220  78.2242520  30.5289000
  96.3578880  77.5091540  30.1630150  96.4841620  78.8628390  30.8289510
  95.1466290  79.5991400  43.8220000  95.5654400  80.4424130  43.6496240
  94.2274920  79.7363440  43.5926780  97.4830190  77.3307580  45.2057840
  97.6026400  76.7348720  45.9452680  98.3424190  77.3677270  44.7859140
  92.9973710  85.9044410  44.9377730  92.4594800  86.6290470  44.6186430
  93.2507670  85.4274750  44.1475070  94.2498960  73.8728930  46.4633660
  94.8398650  73.5644780  47.1511480  93.4319200  73.4008680  46.6193560
  99.0692390  73.4894740  46.6966680  98.3807910  72.8276280  46.6316670
  99.7898410  73.0433010  47.1415140  90.0417410  81.6781180  31.0477740
  90.4792280  82.2210850  31.7035320  90.5265140  80.8528130  31.0574080
  87.2563210  84.4670210  38.4998000  87.5866220  83.5991270  38.2676640
  87.6854210  84.6728730  39.3302960  91.8525130  82.7979220  36.1599970
  91.5520670  82.6744190  37.0603880  91.7462620  81.9387810  35.7515700
  87.7453420  85.3340800  41.2379630  87.3084410  85.5141600  42.0703780
  88.3131100  86.0915420  41.0961350  87.5777850  77.8461030  37.5968510
  86.9226690  77.5772670  36.9528210  88.4155800  77.7365510  37.1470490
  88.6153780  78.2313600  42.1371850  88.9826820  78.1441000  43.0167870
  88.0464600  77.4680150  42.0378710 101.8545710  71.9254410  47.9282020
 102.7315890  71.9337810  48.3116020 101.8666550  71.1885250  47.3174370
 103.3008980  75.7783950  38.8170040 103.8246460  75.2846600  38.1860210
 103.8868400  75.9134310  39.5617610  88.6709490  69.4171020  40.3913490
  89.3185680  68.8668400  39.9508650  89.0911330  69.6714170  41.2129300
 104.2196110  73.6718250  37.2900130 104.1095390  73.5174290  38.2282400
 104.9803700  73.1439190  37.0475540 105.1086380  71.5026170  30.5306270
 106.0335690  71.3707350  30.3224560 105.0862170  71.5818990  31.4842720
 105.1824870  72.2736830  33.1562980 104.3876370  72.2081950  33.6855890
 105.3868150  73.2087470  33.1448330  90.0305860  82.7446290  47.2992000
  89.9875490  82.3739200  48.1806460  90.1616870  83.6823860  47.4393820
  93.7311890  84.3005880  42.9001720  93.4903250  84.5680440  42.0132240
  94.6714530  84.4711610  42.9552580  95.9366310  70.7638570  46.6558230
  95.8755200  71.3560400  47.4053640  96.8766690  70.6564530  46.5108490
  98.5740870  70.4208630  46.2950520  99.1881280  70.7387920  45.6331600
  99.1190430  69.9357220  46.9146380  89.8693890  85.6908540  44.4189780
  89.2754210  85.5593240  45.1579820  89.8617730  84.8546680  43.9531880
  99.3148910  68.9840770  42.6219810  98.4408750  69.3175880  42.4192740
  99.2059660  68.5113950  43.4471680  89.5006120  83.0566920  43.3697820
  88.7740180  82.4372210  43.3023770  89.5615270  83.4507530  42.4995900
  87.7836120  86.3741310  36.5794580  87.6158160  85.7411990  37.2776470
  86.9170630  86.5800710  36.2288770  89.3898820  85.0674540  34.0244720
  88.8646440  85.4482570  33.3206680  89.3143400  85.6925310  34.7454430
  95.9119080  87.0836510  48.3484410  96.8386390  86.8480780  48.3920370
  95.8969510  87.9108510  47.8670440  99.6998150  69.1634840  48.6906760
  99.5863600  69.4829450  49.5858280 100.5167890  69.5647350  48.3944040
 102.4796640  86.3106370  48.1725450 103.2721960  85.8155600  47.9651410
 102.7729790  86.9896510  48.7801060  98.6056300  77.1827310  19.0541500
  98.5250350  76.2681920  18.7833210  98.1920720  77.6794380  18.3481210
 100.7581770  83.3666520  19.7149900 100.2963300  82.5953760  20.0437070
 101.5707320  83.3932590  20.2202350  89.1632120  74.2328030  15.5968920
  88.2748820  74.5744000  15.4948800  89.4473310  74.0328350  14.7049750
  96.9845080  85.6524530  19.3353890  96.3656520  86.1082030  18.7648330
  97.8396860  85.8075990  18.9343590  88.3690000  72.2418040  23.2677550
  88.1892840  71.3443790  23.5480310  87.9670080  72.7889910  23.9424500
  97.2088500  74.4433900  21.1689860  97.5853320  73.5705780  21.0563530
  97.1108010  74.7792600  20.2780300  93.1801240  75.7845900  20.9632480
  93.6879460  76.2826870  21.6037500  93.7114480  75.0081100  20.7871840
  97.8508430  80.5363770  16.7285800  97.2325700  81.0013220  16.1648520
  98.3631680  81.2291250  17.1455310 101.2274100  73.8784720  20.8745740
 100.5229670  74.1669610  21.4548850 101.5886260  74.6884830  20.5145300
  91.1452670  72.1354420  23.2366350  91.4869480  72.9796470  22.9420220
  90.2068480  72.2838160  23.3531690  87.2191630  81.2220300  14.1025430
  86.8419610  81.7107400  13.3710330  87.4764700  81.8945580  14.7331960
 102.8436880  83.4959850  23.1373220 102.1600400  84.1658960  23.1289890
 103.3831170  83.6940500  22.3718080 100.3795620  85.3403980  21.8518400
 100.3922780  84.9366270  20.9840660  99.8270840  86.1151270  21.7479830
 101.6741040  82.0620200  16.9408570 101.5637370  81.1194530  17.0657990
 101.6709290  82.4235840  17.8271330  97.2161320  77.6885520  16.2971060
  96.2890600  77.6222900  16.5259530  97.3686140  78.6265650  16.1826300
 101.2458610  79.2505820  16.8006310 100.6271030  78.9125370  16.1532610
 101.2283060  78.6065580  17.5085500 101.3785270  85.4749690  24.9053100
 100.9015830  86.2821880  24.7125710 100.6947060  84.8228020  25.0579310
  99.4223310  78.4892630  13.8079060  99.8616590  77.6515060  13.6616880
 100.1351730  79.1222030  13.8943200  97.5318690  83.4288700  17.7760300
  97.9714600  84.1713030  17.3615690  97.4705580  83.6715270  18.6999260
 103.0040450  69.7435440  12.1220100 102.6913110  69.8362270  13.0219170
 103.7652920  70.3216470  12.0717530  89.5222590  77.1095240  16.5797440
  89.4020190  77.8357330  15.9678710  89.2123480  76.3398150  16.1025350
 104.9584480  85.2361630  29.9744490 105.4344200  85.7144520  30.6533570
 105.5791640  85.1679120  29.2489990  98.2234470  86.1302480  25.7039310
  98.7379140  86.0410490  26.5061740  97.3803550  86.4762180  25.9967220
 100.1988870  86.4157820  15.1323310 100.0390010  86.1260760  16.0305140
 100.0335580  85.6397950  14.5968540  92.6777250  86.1956350  16.9094930
  92.5019730  85.2791890  16.6962730  91.8232990  86.5543640  17.1492730
  99.9015000  83.9245380  13.6921310  99.2080160  83.9222670  13.0323590
 100.6437860  83.5004700  13.2615480  99.4664930  85.5508090  17.7669800
  99.9221880  84.7697470  18.0808420  99.8057450  86.2614910  18.3110980
 104.2141740  74.4806940  28.0994240 103.5986010  74.9886610  27.5709700
 103.8938160  73.5805270  28.0420180  91.9886250  70.4530310  19.9621110
  91.5454400  71.2339850  19.6305630  92.5471240  70.7760200  20.6692050
  94.0262150  70.9977640  21.8210710  94.3234480  71.9040470  21.7402730
  94.5747710  70.5096420  21.2070280  91.7800470  75.5763880  17.6902360
  91.5541390  75.3601050  18.5948980  90.9993000  76.0092340  17.3448330
  99.0098230  75.5827250  16.2893010  98.4107120  76.3063050  16.1056630
  99.5577840  75.5204030  15.5069460  89.3510220  72.8863130  26.5096410
  88.9573610  73.7338340  26.7169190  88.6628620  72.2489500  26.7005050
  86.6527270  70.8091590  20.5426490  86.3640320  71.3794450  21.2551470
  87.3973030  70.3296040  20.9057720  86.8397500  74.7511710  11.7529210
  86.7572170  75.6942470  11.8944200  86.4880560  74.6086620  10.8741560
  98.2018240  76.8096540  22.4147070  97.4699360  77.3183350  22.7637170
  97.8042580  75.9926520  22.1135850  94.6395630  73.4850740  20.8199560
  94.6431690  73.0440690  19.9704100  95.5346750  73.8068070  20.9271380
  90.4898010  73.3677230  19.7793770  90.1498060  73.8452460  20.5360820
  89.7275330  72.9142350  19.4194870  98.6644150  72.2630220  21.8270010
  98.6816890  72.7138870  22.6711860  98.4159730  71.3635860  22.0403450
  93.7137280  76.7963960  13.2089620  93.1454180  76.3482210  12.5825530
  94.4226280  77.1556740  12.6754770  87.8044090  72.2896210  18.6958440
  87.5191010  71.9251880  19.5337060  87.7422950  71.5576670  18.0821580
  91.2584760  80.7922150  15.4816030  90.4847020  80.2519770  15.3214750
  91.9879390  80.2728760  15.1433790 100.1931070  75.5545120  13.7133970
 101.0810690  75.8662350  13.5385310 100.1636160  74.6817370  13.3214550
  96.1891660  81.7268810  14.3922140  96.5307360  82.4711040  13.8965460
  95.3604370  82.0399930  14.7546970 102.4645340  76.8656960  13.1813830
 102.3809060  77.2971180  12.3310270 103.1839530  77.3255310  13.6140650
 103.4932590  83.7199220  15.9095960 102.8508750  83.0654840  16.1839680
 103.1063250  84.1254310  15.1336630  99.0719070  81.0484650  19.7567650
  99.4242890  80.4512780  19.0969020  98.1881400  80.7228880  19.9275900
  87.2974750  77.4255160  12.6555140  88.1669600  77.7079960  12.9391060
  86.8065070  78.2391030  12.5403950  94.4609560  78.8128370  16.7763420
  94.9172340  79.6233620  17.0023610  94.1097770  78.4951510  17.6081910
  90.3621340  69.1566020  17.2485940  90.2335970  69.1483920  18.1970860
  89.5383360  69.4949110  16.8976950  98.0374250  82.3267060  22.7233170
  98.6796480  81.6260220  22.8365340  98.5623600  83.1065500  22.5430060
 101.8829970  82.6115680  12.4472310 101.6567550  81.8946120  13.0396950
 101.4926170  82.3628120  11.6094060  87.6646000  86.6382540  13.2216770
  88.0243640  87.2371880  12.5674040  87.5238340  87.1842430  13.9951800
  87.3615270  70.9157140  26.7092640  86.6473790  71.1154060  27.3145250
  87.7810310  70.1396710  27.0807440 101.4646220  80.5287620  14.1086470
 101.1767920  80.9900310  14.8964350 102.2598390  80.0685390  14.3770690
  87.6487860  84.9037400  27.6959170  87.7578980  83.9632140  27.5554560
  86.9968420  85.1692150  27.0472900  93.6814620  84.0213740  14.0390440
  93.6724720  84.7543430  13.4234950  92.7612980  83.7745320  14.1317400
  89.2821260  79.2428630  14.7837200  88.6749210  79.9827530  14.7932500
  89.7570610  79.3327990  13.9575400  98.8554050  73.4079450  24.4594090
  99.2234870  72.5874660  24.7873660  97.9952250  73.4681340  24.8749740
 102.2216080  72.3636390  15.2681650 101.5929240  72.4682060  14.5539880
 101.7268000  72.5833170  16.0575530  96.6674220  84.0841980  12.7015630
  96.7686200  83.8805970  11.7717610  95.7675960  83.8300260  12.9063410
  95.3092330  86.6028300  17.3963300  95.5633830  86.5649690  16.4742670
  94.3604810  86.4761630  17.3891550 101.3144910  77.5220180  18.9721810
 100.3735050  77.5370410  19.1469500 101.6288980  76.7356140  19.4182110
  91.2926550  79.2039780  12.5325770  92.0589820  79.0921140  13.0951200
  91.3701240  78.5077750  11.8802540  89.9873310  76.6364850  13.2158660
  90.0676900  75.6892360  13.3276060  90.8793060  76.9671730  13.3219320
 103.3170490  84.6929030  20.6476070 103.4417910  85.5160200  21.1199880
 104.1836050  84.4819760  20.3000220  87.6733500  82.8533810  16.1934710
  86.7473280  83.0954950  16.1840120  88.1389930  83.6808070  16.0719460
  89.7946300  85.9706310  29.5078780  90.5959030  86.2918360  29.9214180
  89.2798120  85.6101890  30.2298690  93.8990330  85.9590550  12.1418770
  94.6918940  86.2479380  11.6900560  93.3794680  85.5282720  11.4631250
 102.9520500  85.1860680  13.5655510 102.6662010  84.7725820  12.7509690
 102.7540050  86.1148390  13.4456030  94.4167730  81.1793960  12.0061120
  94.3118370  80.5646310  12.7322500  94.2491950  80.6559850  11.2224130
  97.6570460  80.2413990  12.6103110  97.1080560  80.6883290  13.2545850
  98.2789720  79.7363240  13.1340780  93.3245580  79.2004910  14.5068410
  93.7462000  79.0344780  15.3499800  93.4496420  78.3905140  14.0123550
  95.8373220  78.2242520  11.7545510  96.3578880  77.5091540  11.3886660
  96.4841620  78.8628390  12.0546020  92.2204480  75.2738140  11.4526570
  92.0193540  74.4105500  11.8139910  92.0496530  75.1871500  10.5148170
  91.0187280  72.3738760  11.4404450  91.3213180  72.3806190  10.5323600
  91.7581870  72.0236620  11.9372110  96.4021250  86.3054130  14.0447250
  97.2972040  86.6439100  14.0666010  96.4338880  85.5833540  13.4171530
  90.0417410  81.6781180  12.2734250  90.4792280  82.2210850  12.9291830
  90.5265140  80.8528130  12.2830590  87.2563210  84.4670210  19.7254510
  87.5866220  83.5991270  19.4933150  87.6854210  84.6728730  20.5559470
  87.7453420  85.3340800  22.4636140  87.3084410  85.5141600  23.2960290
  88.3131100  86.0915420  22.3217860 103.3815600  84.8357800  26.7513450
 102.7817590  84.8950360  26.0077370 103.5109500  83.8962780  26.8810300
 104.6217050  82.5775620  12.0883160 103.7910010  82.6452270  12.5590390
 104.7988880  83.4679740  11.7850020 104.0773510  79.3223100  14.5917360
 104.8392420  79.8919750  14.6977050 104.0927880  78.7550300  15.3625670
 104.1292680  79.6157470  11.7489880 104.4041520  80.5236350  11.6209100
 103.9403420  79.5520000  12.6851870 100.5268290  72.6402320  13.0443510
 100.9453170  72.4533300  12.2040170 100.2204350  71.7881370  13.3546440
 104.0258020  77.5526460  16.7419310 103.6501620  76.7854390  16.3100600
 103.2961140  77.9349160  17.2294240  88.1669780  75.1422690  27.2686780
  87.2725830  75.1089450  27.6080490  88.7067330  75.3409480  28.0338030
  86.7915930  75.0559960  14.7650350  85.8880010  75.3190160  14.5902010
  87.2756550  75.3271130  13.9850310  89.3343140  74.1125500  12.6744730
  90.0434840  73.6908720  12.1892010  88.6183080  74.1800730  12.0428080
  88.9817300  70.1664830  11.7147380  89.7045430  70.7073770  12.0328600
  89.2541820  69.8928250  10.8388920 102.7908950  75.0357300  15.9818960
 103.2868070  74.8028170  16.7667840 102.5925020  74.1969140  15.5656600
  88.6709490  69.4171020  21.6170000  89.3185680  68.8668400  21.1765160
  89.0911330  69.6714170  22.4385810 105.1086380  71.5026170  11.7562780
 106.0335690  71.3707350  11.5481070 105.0862170  71.5818990  12.7099230
 105.1824870  72.2736830  14.3819490 104.3876370  72.2081950  14.9112400
 105.3868150  73.2087470  14.3704840 102.1243290  86.3128380  18.3757880
 102.7202360  85.9912950  17.6992300 102.3821440  85.8400200  19.1671150
  88.4241490  69.5726690  24.3595320  88.0756310  70.0290510  25.1253500
  88.0929190  68.6783820  24.4417750 104.9916050  86.3200260  24.9268870
 104.4974330  86.7169130  24.2096000 104.3829340  85.6949470  25.3206150
  89.0962130  69.1002890  27.6346090  89.6445120  68.9190940  26.8712200
  89.1617440  68.3097000  28.1702400 102.6755500  86.9623680  22.2055610
 102.2158470  87.7139490  21.8313630 102.0467960  86.2430150  22.1470410
 101.6144800  70.6033710  20.8318320 102.0552890  70.5478810  19.9839920
 101.3452390  71.5191720  20.9028500 103.4783370  70.2348950  18.8427140
 103.4171770  69.2910170  18.6958160 104.2575400  70.3429040  19.3880600
  87.7836120  86.3741310  17.8051090  87.6158160  85.7411990  18.5032980
  86.9170630  86.5800710  17.4545280  88.4064140  70.2058090  15.3082950
  89.1643500  70.3186970  14.7346980  87.9441310  71.0427290  15.2626380
 102.5937530  69.3861370  14.8108610 102.7888160  70.2844820  15.0776040
 101.8067400  69.1548450  15.3041560  89.3898820  85.0674540  15.2501230
  88.8646440  85.4482570  14.5463190  89.3143400  85.6925310  15.9710940
  90.7789290  70.7322140  13.8484920  91.3082050  69.9451940  13.7192870
  91.4117610  71.4113330  14.0820450 104.1464140  86.6262080  16.5715170
 104.3216330  85.9399820  15.9276090 103.4485710  87.1509130  16.1791840
  91.9891790  87.0156920  14.1250480  92.7210610  86.7316200  13.5774370
  92.2485460  86.7770200  15.0149860  91.1506580  83.1321650  14.1296810
  90.5215460  83.6006750  14.6782640  91.2654410  82.2870870  14.5643000
  96.7374340  78.9606330   2.1607280  95.9616440  78.4806770   2.4505850
  97.3887270  78.2811980   1.9863440  90.7540170  79.2726140   3.0383040
  89.9225050  79.0174850   3.4379550  91.3621150  79.3436910   3.7740960
  90.7341430  83.3066230   3.2341060  91.0369470  82.4163970   3.0551280
  91.4785020  83.8636450   3.0063310  87.1265130  76.8333680   2.7065130
  87.6981240  76.0655880   2.7068770  87.1266670  77.1322440   1.7971740
  96.1783330  81.6363520   2.1677440  96.1091610  80.6953460   2.0066570
  96.9403190  81.7264930   2.7400010  88.3690000  72.2418040   4.4934060
  88.1892840  71.3443790   4.7736820  87.9670080  72.7889910   5.1681010
  88.9876670  74.7378540   3.1016400  89.6686780  75.0016910   3.7203800
  88.6724720  73.8979410   3.4354410  93.1801240  75.7845900   2.1888990
  93.6879460  76.2826870   2.8294010  93.7114480  75.0081100   2.0128350
 105.2812170  73.9551090   5.8918340 104.5764340  74.3432800   5.3733450
 105.5470090  74.6501380   6.4939270  91.4637340  70.4244460   6.4552410
  91.4655780  70.9416850   5.6498310  90.6341650  69.9474640   6.4322340
  92.7140190  80.0639640   4.6325910  92.3809570  80.6908560   5.2746980
  92.8906870  80.5901520   3.8527580 101.2274100  73.8784720   2.1002250
 100.5229670  74.1669610   2.6805360 101.5886260  74.6884830   1.7401810
  91.1452670  72.1354420   4.4622860  91.4869480  72.9796470   4.1676730
  90.2068480  72.2838160   4.5788200  91.9259290  82.0320440   6.4475090
  92.5433290  82.7071520   6.1659540  91.0652410  82.4408420   6.3562590
 102.8436880  83.4959850   4.3629730 102.1600400  84.1658960   4.3546400
 103.3831170  83.6940500   3.5974590 104.2961020  73.3239510   2.4911460
 103.3485930  73.3578490   2.6226890 104.6211010  74.1378460   2.8760820
 100.3795620  85.3403980   3.0774910 100.3922780  84.9366270   2.2097170
  99.8270840  86.1151270   2.9736340  99.7781060  80.2433820   4.4057520
 100.1949850  80.0293930   3.5710980 100.5020880  80.5006610   4.9766140
 103.7243160  78.6421040   4.4973760 102.8961790  78.7114130   4.0223890
 104.3193640  79.2275350   4.0289590 100.6885170  75.4290360   5.4428630
 100.2756350  76.2544070   5.6968620  99.9561120  74.8435400   5.2504990
  93.2899660  81.9017820   2.4686510  92.9927950  81.2963290   1.7894290
  94.2399480  81.9395130   2.3575870  91.5346580  74.9893470   4.0846340
  92.0861170  75.0988810   3.3099590  92.0490090  75.3631070   4.8001570
 101.3785270  85.4749690   6.1309610 100.9015830  86.2821880   5.9382220
 100.6947060  84.8228020   6.2835820  92.3818090  81.6399510   9.1194310
  91.4846620  81.8639480   9.3667710  92.4070960  81.7634450   8.1705710
  91.2089310  78.5112830   7.6951680  91.0697080  79.3835630   8.0639080
  90.3270670  78.1685640   7.5499620  93.0069660  84.4534530   9.9036830
  92.9785090  84.8577480   9.0365260  92.8434630  83.5244890   9.7408430
 104.9584480  85.2361630  11.2001000 105.4344200  85.7144520  11.8790080
 105.5791640  85.1679120  10.4746500  87.1607960  80.2810380   3.6122590
  87.2388380  80.4159150   2.6678310  87.7749640  79.5726270   3.8050710
 104.3617730  82.4274480   8.3601010 104.4880790  82.1886360   7.4418190
 104.4039110  81.5959020   8.8323090  98.2234470  86.1302480   6.9295820
  98.7379140  86.0410490   7.7318250  97.3803550  86.4762180   7.2223730
 104.2141740  74.4806940   9.3250750 103.5986010  74.9886610   8.7966210
 103.8938160  73.5805270   9.2676690  87.2167480  81.3224550   6.1517050
  87.3798520  80.8529910   5.3336420  87.6819930  80.8148110   6.8165890
  96.2756060  73.3198830   6.7912940  95.8135430  73.5281850   7.6032880
  95.8734170  72.5058180   6.4883610 101.2760570  74.5407780   7.9209600
 100.4254160  74.2413530   8.2418670 101.1162360  74.7849790   7.0093420
  98.3710280  76.0409530  10.0208390  98.6963690  75.2073280   9.6810620
  99.1590610  76.5638050  10.1686720  94.0262150  70.9977640   3.0467220
  94.3234480  71.9040470   2.9659240  94.5747710  70.5096420   2.4326790
  94.2199680  76.4749460   9.5819140  94.1243280  75.5344190   9.4319540
  95.0631660  76.6964530   9.1867210  89.3510220  72.8863130   7.7352920
  88.9573610  73.7338340   7.9425700  88.6628620  72.2489500   7.9261560
  95.9255270  72.9698100  10.8049660  95.2353590  72.7770300  11.4395750
  96.6687570  73.2532740  11.3373960  86.6527270  70.8091590   1.7683000
  86.3640320  71.3794450   2.4807980  87.3973030  70.3296040   2.1314230
  98.2018240  76.8096540   3.6403580  97.4699360  77.3183350   3.9893680
  97.8042580  75.9926520   3.3392360  98.6644150  72.2630220   3.0526520
  98.6816890  72.7138870   3.8968370  98.4159730  71.3635860   3.2659960
 102.0914900  69.6762400   8.8912900 102.4160670  68.9452060   9.4170880
 102.1271410  69.3576040   7.9893890  88.7906460  80.6975980   8.3112860
  88.4061250  80.0569650   8.9095820  89.1018650  81.4012100   8.8807590
  94.9403600  77.5452520   3.7921480  95.3073730  77.0711090   4.5382820
  94.7508660  78.4194090   4.1329820  92.7302970  76.5861160   6.1105690
  92.4260040  77.4653140   6.3356050  93.6849430  76.6460950   6.1463130
 102.0172740  79.7887510   2.4998930 102.7371860  80.2842800   2.1095040
 101.8154560  79.1105400   1.8552800  97.3991540  79.8596570   8.3867930
  97.3328850  78.9392240   8.1325520  96.7696680  79.9572010   9.1012570
  88.7866700  77.4263900   7.2577050  88.4281640  78.0917750   7.8450390
  88.4921260  76.5947450   7.6289670  91.9879820  77.8848140  10.1416600
  91.6879960  78.0305320   9.2444420  92.7591060  77.3253430  10.0489990
  97.3308270  82.6817140   8.1371730  97.3452810  81.7498100   7.9190640
  96.6233370  82.7676900   8.7761500 103.5419480  79.3224480   7.4840310
 102.8167670  79.9153260   7.2869700 104.0694940  79.3148020   6.6853680
  96.7642170  84.3234710   5.2312230  97.4084390  84.5294090   5.9085650
  97.1271610  83.5623110   4.7783080  98.0374250  82.3267060   3.9489680
  98.6796480  81.6260220   4.0621850  98.5623600  83.1065500   3.7686570
  99.8111870  83.1261960   7.1525740 100.1468110  83.7128650   7.8303660
  98.8912210  82.9954670   7.3823530  87.3615270  70.9157140   7.9349150
  86.6473790  71.1154060   8.5401760  87.7810310  70.1396710   8.3063950
  87.6487860  84.9037400   8.9215680  87.7578980  83.9632140   8.7811070
  86.9968420  85.1692150   8.2729410  95.6400450  83.1753290  10.3213800
  95.3197320  82.4562530  10.8659490  94.9658810  83.8508360  10.3949860
  98.8554050  73.4079450   5.6850600  99.2234870  72.5874660   6.0130170
  97.9952250  73.4681340   6.1006250  95.8156040  76.0619040   5.9088570
  96.3141290  76.5364860   6.5740420  95.9578990  75.1382560   6.1158600
 103.0222900  72.2787000   6.7516960 102.5196500  73.0192400   7.0910770
 103.8379560  72.6671000   6.4353750  89.7946300  85.9706310  10.7335290
  90.5959030  86.2918360  11.1470690  89.2798120  85.6101890  11.4555200
  98.6310930  82.0786180  10.6810700  98.0249090  82.1017780   9.9406450
  98.3265040  81.3469220  11.2177950 100.0611300  85.8066470   9.2920110
 101.0133050  85.7224490   9.2420350  99.9139520  86.4708180   9.9653900
  87.5144110  78.4579770   9.6771340  88.0183130  77.8787050  10.2487570
  86.7751530  78.7420000  10.2147710  94.5682050  79.8650760   9.2106860
  93.8027720  80.4335760   9.1261530  94.7498010  79.5726970   8.3175090
 101.7105400  81.5956090   9.7681880 102.4514870  81.9331850   9.2649340
 100.9478080  81.7648150   9.2151650  89.5467190  76.6009360  10.5721410
  89.5872530  76.3023230  11.4806640  90.4012690  77.0016970  10.4128930
  91.4873000  75.1801460   8.5395900  90.9569460  74.6892410   7.9119240
  92.1561070  75.6085660   8.0053830 100.3851060  79.6470920   8.3037090
 100.7992080  79.8016000   9.1527510  99.4502060  79.7726140   8.4662870
 100.8573230  76.9867080  10.3076240 101.4394000  76.2319400  10.2196720
 101.0335000  77.5174520   9.5307720  91.9745300  72.1463830   8.6193190
  91.8802170  71.5284580   7.8944060  91.3942690  72.8730120   8.3923100
  94.7406740  70.7037070   5.6520580  94.2924040  70.7261330   4.8066130
  94.1071940  70.3056090   6.2490880  95.1466290  79.5991400   6.2733020
  95.5654400  80.4424130   6.1009260  94.2274920  79.7363440   6.0439800
  97.4830190  77.3307580   7.6570860  97.6026400  76.7348720   8.3965700
  98.3424190  77.3677270   7.2372160  99.8218090  77.8844770   6.2333370
  99.2953310  78.4087390   5.6298510 100.1649430  78.5172160   6.8643100
  92.9973710  85.9044410   7.3890750  92.4594800  86.6290470   7.0699450
  93.2507670  85.4274750   6.5988090  94.2498960  73.8728930   8.9146680
  94.8398650  73.5644780   9.6024500  93.4319200  73.4008680   9.0706580
  99.0692390  73.4894740   9.1479700  98.3807910  72.8276280   9.0829690
  99.7898410  73.0433010   9.5928160  95.8535920  87.1395620   7.6477400
  95.7794620  88.0430760   7.9549770  94.9514760  86.8207520   7.6199470
  87.7453420  85.3340800   3.6892650  87.3084410  85.5141600   4.5216800
  88.3131100  86.0915420   3.5474370 103.3815600  84.8357800   7.9769960
 102.7817590  84.8950360   7.2333880 103.5109500  83.8962780   8.1066810
 102.0667240  81.5609780   6.0746120 101.2527080  81.9906940   6.3371910
 102.4741440  82.1728190   5.4615170  88.6153780  78.2313600   4.5884870
  88.9826820  78.1441000   5.4680890  88.0464600  77.4680150   4.4891730
 103.4157640  76.6997980   7.6015340 103.1843730  76.4710730   6.7013290
 103.6762190  77.6197530   7.5560230  88.1669780  75.1422690   8.4943290
  87.2725830  75.1089450   8.8337000  88.7067330  75.3409480   9.2594540
 101.8545710  71.9254410  10.3795040 102.7315890  71.9337810  10.7629040
 101.8666550  71.1885250   9.7687390 103.4798700  75.8623820   4.7902610
 102.5301410  75.8287360   4.9047600 103.6611710  76.7723930   4.5552380
  88.6709490  69.4171020   2.8426510  89.3185680  68.8668400   2.4021670
  89.0911330  69.6714170   3.6642320 102.5661830  69.6112380   6.1996150
 103.2034050  70.2246520   6.5655340 102.7136720  69.6473040   5.2545380
  88.4241490  69.5726690   5.5851830  88.0756310  70.0290510   6.3510010
  88.0929190  68.6783820   5.6674260  90.0305860  82.7446290   9.7505020
  89.9875490  82.3739200  10.6319480  90.1616870  83.6823860   9.8906840
  93.7311890  84.3005880   5.3514740  93.4903250  84.5680440   4.4645260
  94.6714530  84.4711610   5.4065600  95.9366310  70.7638570   9.1071250
  95.8755200  71.3560400   9.8566660  96.8766690  70.6564530   8.9621510
  98.5740870  70.4208630   8.7463540  99.1881280  70.7387920   8.0844620
  99.1190430  69.9357220   9.3659400 104.9916050  86.3200260   6.1525380
 104.4974330  86.7169130   5.4352510 104.3829340  85.6949470   6.5462660
  89.0962130  69.1002890   8.8602600  89.6445120  68.9190940   8.0968710
  89.1617440  68.3097000   9.3958910  89.8693890  85.6908540   6.8702800
  89.2754210  85.5593240   7.6092840  89.8617730  84.8546680   6.4044900
  99.3148910  68.9840770   5.0732830  98.4408750  69.3175880   4.8705760
  99.2059660  68.5113950   5.8984700 100.2220890  71.1911640   6.4574550
  99.8934250  70.3763400   6.0776280 101.1703190  71.1481450   6.3340240
 102.6755500  86.9623680   3.4312120 102.2158470  87.7139490   3.0570140
 102.0467960  86.2430150   3.3726920  89.5006120  83.0566920   5.8210840
  88.7740180  82.4372210   5.7536790  89.5615270  83.4507530   4.9508920
  93.1051220  85.2711920   2.6060250  93.6216240  84.6599280   2.0808510
  93.7548600  85.7740700   3.0971260  95.8446720  86.1620410   3.4329230
  96.1324530  85.9074710   2.5562240  96.3569940  85.6097770   4.0234800
  97.0623730  69.9010610   4.0125740  96.2795520  70.3756110   4.2922500
  96.7686660  68.9965440   3.9038920  95.9119080  87.0836510  10.7997430
  96.8386390  86.8480780  10.8433390  95.8969510  87.9108510  10.3183460
  93.0982690  69.7481260  10.5639310  92.8166960  70.2514860   9.8000130
  93.4802390  68.9503010  10.1981440  99.6998150  69.1634840  11.1419780
  99.5863600  69.4829450  12.0371300 100.5167890  69.5647350  10.8457060
 102.4796640  86.3106370  10.6238470 103.2721960  85.8155600  10.4164430
 102.7729790  86.9896510  11.2314080  98.6056300  58.4083820 150.4745930
  98.5250350  57.4938430 150.2037640  98.1920720  58.9050890 149.7685640
 100.7581770  64.5923030 151.1354330 100.2963300  63.8210270 151.4641500
 101.5707320  64.6189100 151.6406780  89.1632120  55.4584540 147.0173350
  88.2748820  55.8000510 146.9153230  89.4473310  55.2584860 146.1254180
  96.9845080  66.8781040 150.7558320  96.3656520  67.3338540 150.1852760
  97.8396860  67.0332500 150.3548020  91.3393510  54.0416040 148.0511730
  91.4460260  54.9419770 148.3580490  90.4285870  53.9934010 147.7606380
 100.9912620  53.1640850 149.5222630 101.8122240  52.6737420 149.5648110
 101.0246700  53.7538510 150.2754470  97.8508430  61.7620280 148.1490230
  97.2325700  62.2269730 147.5852950  98.3631680  62.4547760 148.5659740
  87.2191630  62.4476810 145.5229860  86.8419610  62.9363910 144.7914760
  87.4764700  63.1202090 146.1536390  94.8280560  50.8493200 150.9815370
  95.1355540  50.2940090 150.2650870  93.8981260  50.9837660 150.7988360
 101.6741040  63.2876710 148.3613000 101.5637370  62.3451040 148.4862420
 101.6709290  63.6492350 149.2475760  97.2161320  58.9142030 147.7175490
  96.2890600  58.8479410 147.9463960  97.3686140  59.8522160 147.6030730
  97.2030400  55.1859030 144.7142650  96.2634070  55.3472990 144.7995110
  97.5213660  55.9044710 144.1678640 101.2458610  60.4762330 148.2210740
 100.6271030  60.1381880 147.5737040 101.2283060  59.8322090 148.9289930
  92.8217960  59.4406770 150.4995220  92.4174960  58.7284020 150.0041120
  92.9081080  59.0960010 151.3883260  99.4223310  59.7149140 145.2283490
  99.8616590  58.8771570 145.0821310 100.1351730  60.3478540 145.3147630
  97.5318690  64.6545210 149.1964730  97.9714600  65.3969540 148.7820120
  97.4705580  64.8971780 150.1203690 103.0040450  50.9691950 143.5424530
 102.6913110  51.0618780 144.4423600 103.7652920  51.5472980 143.4921960
  89.5222590  58.3351750 148.0001870  89.4020190  59.0613840 147.3883140
  89.2123480  57.5654660 147.5229780  88.4055590  63.2067080 150.2176690
  87.9983670  63.3481670 149.3630290  89.2968600  62.9227240 150.0147900
 100.1988870  67.6414330 146.5527740 100.0390010  67.3517270 147.4509570
 100.0335580  66.8654460 146.0172970  92.6777250  67.4212860 148.3299360
  92.5019730  66.5048400 148.1167160  91.8232990  67.7800150 148.5697160
  99.9015000  65.1501890 145.1125740  99.2080160  65.1479180 144.4528020
 100.6437860  64.7261210 144.6819910  99.4664930  66.7764600 149.1874230
  99.9221880  65.9953980 149.5012850  99.8057450  67.4871420 149.7315410
  91.9886250  51.6786820 151.3825540  91.5454400  52.4596360 151.0510060
  92.5471240  52.0016710 152.0896480  95.1045070  51.2997520 146.2631370
  94.4799250  51.2957390 146.9884680  95.0175190  50.4328480 145.8667340
  91.7800470  56.8020390 149.1106790  91.5541390  56.5857560 150.0153410
  90.9993000  57.2348850 148.7652760  99.0098230  56.8083760 147.7097440
  98.4107120  57.5319560 147.5261060  99.5577840  56.7460540 146.9273890
  97.6163100  55.4447300 149.7400720  98.0092670  55.7619500 148.9269410
  97.9779950  54.5659180 149.8545240  86.8397500  55.9768220 143.1733640
  86.7572170  56.9198980 143.3148630  86.4880560  55.8343130 142.2945990
  94.6395630  54.7107250 152.2403990  94.6431690  54.2697200 151.3908530
  95.5346750  55.0324580 152.3475810  90.4898010  54.5933740 151.1998200
  90.1498060  55.0708970 151.9565250  89.7275330  54.1398860 150.8399300
  94.7015780  55.7119330 145.2310750  94.8228600  55.6705810 146.1796570
  94.3164290  56.5743480 145.0757480  93.7137280  58.0220470 144.6294050
  93.1454180  57.5738720 144.0029960  94.4226280  58.3813250 144.0959200
  87.8044090  53.5152720 150.1162870  87.5191010  53.1508390 150.9541490
  87.7422950  52.7833180 149.5026010  91.2584760  62.0178660 146.9020460
  90.4847020  61.4776280 146.7419180  91.9879390  61.4985270 146.5638220
  97.4782680  52.4081980 146.8376240  96.6647290  51.9095150 146.7621550
  97.2844630  53.2480230 146.4212590 100.1931070  56.7801630 145.1338400
 101.0810690  57.0918860 144.9589740 100.1636160  55.9073880 144.7418980
  91.3022160  61.6859040 150.5399270  91.8200830  60.8827300 150.4856160
  90.8506180  61.6238180 151.3816100  96.1891660  62.9525320 145.8126570
  96.5307360  63.6967550 145.3169890  95.3604370  63.2656440 146.1751400
 102.4645340  58.0913470 144.6018260 102.3809060  58.5227690 143.7514700
 103.1839530  58.5511820 145.0345080 103.4932590  64.9455730 147.3300390
 102.8508750  64.2911350 147.6044110 103.1063250  65.3510820 146.5541060
  99.0719070  62.2741160 151.1772080  99.4242890  61.6769290 150.5173450
  98.1881400  61.9485390 151.3480330  95.1582350  63.0338850 148.5842490
  95.8453480  63.5808060 148.9650080  94.3714770  63.5779580 148.6192100
  87.2974750  58.6511670 144.0759570  88.1669600  58.9336470 144.3595490
  86.8065070  59.4647540 143.9608380  94.4609560  60.0384880 148.1967850
  94.9172340  60.8490130 148.4228040  94.1097770  59.7208020 149.0286340
  90.3621340  50.3822530 148.6690370  90.2335970  50.3740430 149.6175290
  89.5383360  50.7205620 148.3181380 101.8829970  63.8372190 143.8676740
 101.6567550  63.1202630 144.4601380 101.4926170  63.5884630 143.0298490
  87.6646000  67.8639050 144.6421200  88.0243640  68.4628390 143.9878470
  87.5238340  68.4098940 145.4156230 101.4646220  61.7544130 145.5290900
 101.1767920  62.2156820 146.3168780 102.2598390  61.2941900 145.7975120
  93.6814620  65.2470250 145.4594870  93.6724720  65.9799940 144.8439380
  92.7612980  65.0001830 145.5521830  89.2821260  60.4685140 146.2041630
  88.6749210  61.2084040 146.2136930  89.7570610  60.5584500 145.3779830
 102.2216080  53.5892900 146.6886080 101.5929240  53.6938570 145.9744310
 101.7268000  53.8089680 147.4779960  96.6674220  65.3098490 144.1220060
  96.7686200  65.1062480 143.1922040  95.7675960  65.0556770 144.3267840
  94.1900110  55.8678850 148.1043960  93.4816260  56.3365190 148.5457570
  94.4744590  55.2100860 148.7389150  98.2215540  52.5929510 149.5439750
  98.0983320  52.6115640 148.5949260  99.1700100  52.6408450 149.6638150
  95.3092330  67.8284810 148.8167730  95.5633830  67.7906200 147.8947100
  94.3604810  67.7018140 148.8095980  92.3935130  54.1763930 145.4794670
  93.2425660  54.6134080 145.4134860  92.0266400  54.4884190 146.3066730
 101.3144910  58.7476690 150.3926240 100.3735050  58.7626920 150.5673930
 101.6288980  57.9612650 150.8386540  91.2926550  60.4296290 143.9530200
  92.0589820  60.3177650 144.5155630  91.3701240  59.7334260 143.3006970
  89.9873310  57.8621360 144.6363090  90.0676900  56.9148870 144.7480490
  90.8793060  58.1928240 144.7423750  90.7888020  68.0116750 151.7397630
  91.5250500  67.4632210 152.0106200  91.1728940  68.8772760 151.6003620
  87.6733500  64.0790320 147.6139140  86.7473280  64.3211460 147.6044550
  88.1389930  64.9064580 147.4923890  93.8990330  67.1847060 143.5623200
  94.6918940  67.4735890 143.1104990  93.3794680  66.7539230 142.8835680
 102.9520500  66.4117190 144.9859940 102.6662010  65.9982330 144.1714120
 102.7540050  67.3404900 144.8660460  94.4167730  62.4050470 143.4265550
  94.3118370  61.7902820 144.1526930  94.2491950  61.8816360 142.6428560
  97.6570460  61.4670500 144.0307540  97.1080560  61.9139800 144.6750280
  98.2789720  60.9619750 144.5545210  93.3245580  60.4261420 145.9272840
  93.7462000  60.2601290 146.7704230  93.4496420  59.6161650 145.4327980
  95.8373220  59.4499030 143.1749940  96.3578880  58.7348050 142.8091090
  96.4841620  60.0884900 143.4750450  92.2204480  56.4994650 142.8731000
  92.0193540  55.6362010 143.2344340  92.0496530  56.4128010 141.9352600
  99.6992790  51.3102880 145.4017880  99.9795080  50.4670780 145.7577300
  98.9258520  51.5425990 145.9156630  91.0187280  53.5995270 142.8608880
  91.3213180  53.6062700 141.9528030  91.7581870  53.2493130 143.3576540
  94.2372210  52.5429890 143.8465080  93.8894210  51.8653880 143.2667530
  94.4384980  52.0819400 144.6608470  96.4021250  67.5310640 145.4651680
  97.2972040  67.8695610 145.4870440  96.4338880  66.8090050 144.8375960
  90.0417410  62.9037690 143.6938680  90.4792280  63.4467360 144.3496260
  90.5265140  62.0784640 143.7035020  87.2563210  65.6926720 151.1458940
  87.5866220  64.8247780 150.9137580  87.6854210  65.8985240 151.9763900
  91.8525130  64.0235730 148.8060910  91.5520670  63.9000700 149.7064820
  91.7462620  63.1644320 148.3976640 104.6217050  63.8032130 143.5087590
 103.7910010  63.8708780 143.9794820 104.7988880  64.6936250 143.2054450
 104.0773510  60.5479610 146.0121790 104.8392420  61.1176260 146.1181480
 104.0927880  59.9806810 146.7830100  87.5777850  59.0717540 150.2429450
  86.9226690  58.8029180 149.5989150  88.4155800  58.9622020 149.7931430
 105.0833480  61.4029710 150.8563720 105.4542310  60.6197030 150.4499690
 105.7235410  62.0918810 150.6781020 104.1292680  60.8413980 143.1694310
 104.4041520  61.7492860 143.0413530 103.9403420  60.7776510 144.1056300
 100.5268290  53.8658830 144.4647940 100.9453170  53.6789810 143.6244600
 100.2204350  53.0137880 144.7750870 104.0258020  58.7782970 148.1623740
 103.6501620  58.0110900 147.7305030 103.2961140  59.1605670 148.6498670
  86.7915930  56.2816470 146.1854780  85.8880010  56.5446670 146.0106440
  87.2756550  56.5527640 145.4054740 103.3008980  57.0040460 151.4630980
 103.8246460  56.5103110 150.8321150 103.8868400  57.1390820 152.2078550
  89.3343140  55.3382010 144.0949160  90.0434840  54.9165230 143.6096440
  88.6183080  55.4057240 143.4632510  88.9817300  51.3921340 143.1351810
  89.7045430  51.9330280 143.4533030  89.2541820  51.1184760 142.2593350
 102.7908950  56.2613810 147.4023390 103.2868070  56.0284680 148.1872270
 102.5925020  55.4225650 146.9861030 104.2196110  54.8974760 149.9361070
 104.1095390  54.7430800 150.8743340 104.9803700  54.3695700 149.6936480
 105.1086380  52.7282680 143.1767210 106.0335690  52.5963860 142.9685500
 105.0862170  52.8075500 144.1303660 105.1824870  53.4993340 145.8023920
 104.3876370  53.4338460 146.3316830 105.3868150  54.4343980 145.7909270
 102.1243290  67.5384890 149.7962310 102.7202360  67.2169460 149.1196730
 102.3821440  67.0656710 150.5875580 101.6144800  51.8290220 152.2522750
 102.0552890  51.7735320 151.4044350 101.3452390  52.7448230 152.3232930
 103.4783370  51.4605460 150.2631570 103.4171770  50.5166680 150.1162590
 104.2575400  51.5685550 150.8085030  87.7836120  67.5997820 149.2255520
  87.6158160  66.9668500 149.9237410  86.9170630  67.8057220 148.8749710
  88.4064140  51.4314600 146.7287380  89.1643500  51.5443480 146.1551410
  87.9441310  52.2683800 146.6830810  94.9477950  53.5453870 149.7189690
  94.1352460  53.1710760 149.3785570  95.4519590  52.7898950 150.0210880
  99.4502930  50.2096320 150.9572760 100.0532300  50.7816530 151.4321280
  98.7095920  50.7735760 150.7346660 102.5937530  50.6117880 146.2313040
 102.7888160  51.5101330 146.4980470 101.8067400  50.3804960 146.7245990
  89.3898820  66.2931050 146.6705660  88.8646440  66.6739080 145.9667620
  89.3143400  66.9181820 147.3915370  90.7789290  51.9578650 145.2689350
  91.3082050  51.1708450 145.1397300  91.4117610  52.6369840 145.5024880
  92.9727130  51.6953790 148.3234740  92.3429870  50.9941100 148.4904870
  92.4332270  52.4557920 148.1067900 104.1464140  67.8518590 147.9919600
 104.3216330  67.1656330 147.3480520 103.4485710  68.3765640 147.5996270
  91.9891790  68.2413430 145.5454910  92.7210610  67.9572710 144.9978800
  92.2485460  68.0026710 146.4354290  91.1506580  64.3578160 145.5501240
  90.5215460  64.8263260 146.0987070  91.2654410  63.5127380 145.9847430
  96.7374340  60.1862840 133.5811710  95.9616440  59.7063280 133.8710280
  97.3887270  59.5068490 133.4067870  90.7540170  60.4982650 134.4587470
  89.9225050  60.2431360 134.8583980  91.3621150  60.5693420 135.1945390
 100.7581770  64.5923030 132.3610840 100.2963300  63.8210270 132.6898010
 101.5707320  64.6189100 132.8663290  89.1632120  55.4584540 128.2429860
  88.2748820  55.8000510 128.1409740  89.4473310  55.2584860 127.3510690
  87.1265130  58.0590190 134.1269560  87.6981240  57.2912390 134.1273200
  87.1266670  58.3578950 133.2176170  96.9845080  66.8781040 131.9814830
  96.3656520  67.3338540 131.4109270  97.8396860  67.0332500 131.5804530
  96.1783330  62.8620030 133.5881870  96.1091610  61.9209970 133.4271000
  96.9403190  62.9521440 134.1604440  88.3690000  53.4674550 135.9138490
  88.1892840  52.5700300 136.1941250  87.9670080  54.0146420 136.5885440
  97.2088500  55.6690410 133.8150800  97.5853320  54.7962290 133.7024470
  97.1108010  56.0049110 132.9241240  91.3393510  54.0416040 129.2768240
  91.4460260  54.9419770 129.5837000  90.4285870  53.9934010 128.9862890
  88.9876670  55.9635050 134.5220830  89.6686780  56.2273420 135.1408230
  88.6724720  55.1235920 134.8558840  93.1801240  57.0102410 133.6093420
  93.6879460  57.5083380 134.2498440  93.7114480  56.2337610 133.4332780
 105.2812170  55.1807600 137.3122770 104.5764340  55.5689310 136.7937880
 105.5470090  55.8757890 137.9143700  91.4637340  51.6500970 137.8756840
  91.4655780  52.1673360 137.0702740  90.6341650  51.1731150 137.8526770
  92.7140190  61.2896150 136.0530340  92.3809570  61.9165070 136.6951410
  92.8906870  61.8158030 135.2732010 101.2274100  55.1041230 133.5206680
 100.5229670  55.3926120 134.1009790 101.5886260  55.9141340 133.1606240
  91.1452670  53.3610930 135.8827290  91.4869480  54.2052980 135.5881160
  90.2068480  53.5094670 135.9992630 102.8436880  64.7216360 135.7834160
 102.1600400  65.3915470 135.7750830 103.3831170  64.9197010 135.0179020
 104.2961020  54.5496020 133.9115890 103.3485930  54.5835000 134.0431320
 104.6211010  55.3634970 134.2965250  94.8280560  50.8493200 132.2071880
  95.1355540  50.2940090 131.4907380  93.8981260  50.9837660 132.0244870
 100.3795620  66.5660490 134.4979340 100.3922780  66.1622780 133.6301600
  99.8270840  67.3407780 134.3940770  99.7781060  61.4690330 135.8261950
 100.1949850  61.2550440 134.9915410 100.5020880  61.7263120 136.3970570
 103.7243160  59.8677550 135.9178190 102.8961790  59.9370640 135.4428320
 104.3193640  60.4531860 135.4494020 100.6885170  56.6546870 136.8633060
 100.2756350  57.4800580 137.1173050  99.9561120  56.0691910 136.6709420
  92.8217960  59.4406770 131.7251730  92.4174960  58.7284020 131.2297630
  92.9081080  59.0960010 132.6139770  93.2899660  63.1274330 133.8890940
  92.9927950  62.5219800 133.2098720  94.2399480  63.1651640 133.7780300
  91.5346580  56.2149980 135.5050770  92.0861170  56.3245320 134.7304020
  92.0490090  56.5887580 136.2206000 101.3785270  66.7006200 137.5514040
 100.9015830  67.5078390 137.3586650 100.6947060  66.0484530 137.7040250
  92.3818090  62.8656020 140.5398740  91.4846620  63.0895990 140.7872140
  92.4070960  62.9890960 139.5910140  91.2089310  59.7369340 139.1156110
  91.0697080  60.6092140 139.4843510  90.3270670  59.3942150 138.9704050
  93.0069660  65.6791040 141.3241260  92.9785090  66.0833990 140.4569690
  92.8434630  64.7501400 141.1612860  89.5222590  58.3351750 129.2258380
  89.4020190  59.0613840 128.6139650  89.2123480  57.5654660 128.7486290
 104.9584480  66.4618140 142.6205430 105.4344200  66.9401030 143.2994510
 105.5791640  66.3935630 141.8950930 104.3617730  63.6530990 139.7805440
 104.4880790  63.4142870 138.8622620 104.4039110  62.8215530 140.2527520
  98.2234470  67.3558990 138.3500250  98.7379140  67.2667000 139.1522680
  97.3803550  67.7018690 138.6428160 104.2141740  55.7063450 140.7455180
 103.5986010  56.2143120 140.2170640 103.8938160  54.8061780 140.6881120
  91.9886250  51.6786820 132.6082050  91.5454400  52.4596360 132.2766570
  92.5471240  52.0016710 133.3152990  96.2756060  54.5455340 138.2117370
  95.8135430  54.7538360 139.0237310  95.8734170  53.7314690 137.9088040
 101.2760570  55.7664290 139.3414030 100.4254160  55.4670040 139.6623100
 101.1162360  56.0106300 138.4297850  98.3710280  57.2666040 141.4412820
  98.6963690  56.4329790 141.1015050  99.1590610  57.7894560 141.5891150
  94.0262150  52.2234150 134.4671650  94.3234480  53.1296980 134.3863670
  94.5747710  51.7352930 133.8531220  91.7800470  56.8020390 130.3363300
  91.5541390  56.5857560 131.2409920  90.9993000  57.2348850 129.9909270
  94.2199680  57.7005970 141.0023570  94.1243280  56.7600700 140.8523970
  95.0631660  57.9221040 140.6071640  97.6163100  55.4447300 130.9657230
  98.0092670  55.7619500 130.1525920  97.9779950  54.5659180 131.0801750
  89.3510220  54.1119640 139.1557350  88.9573610  54.9594850 139.3630130
  88.6628620  53.4746010 139.3465990  95.9255270  54.1954610 142.2254090
  95.2353590  54.0026810 142.8600180  96.6687570  54.4789250 142.7578390
  86.6527270  52.0348100 133.1887430  86.3640320  52.6050960 133.9012410
  87.3973030  51.5552550 133.5518660  98.2018240  58.0353050 135.0608010
  97.4699360  58.5439860 135.4098110  97.8042580  57.2183030 134.7596790
  94.6395630  54.7107250 133.4660500  94.6431690  54.2697200 132.6165040
  95.5346750  55.0324580 133.5732320  90.4898010  54.5933740 132.4254710
  90.1498060  55.0708970 133.1821760  89.7275330  54.1398860 132.0655810
  94.7015780  55.7119330 126.4567260  94.8228600  55.6705810 127.4053080
  94.3164290  56.5743480 126.3013990  98.6644150  53.4886730 134.4730950
  98.6816890  53.9395380 135.3172800  98.4159730  52.5892370 134.6864390
  93.7137280  58.0220470 125.8550560  93.1454180  57.5738720 125.2286470
  94.4226280  58.3813250 125.3215710 102.0914900  50.9018910 140.3117330
 102.4160670  50.1708570 140.8375310 102.1271410  50.5832550 139.4098320
  94.9403600  58.7709030 135.2125910  95.3073730  58.2967600 135.9587250
  94.7508660  59.6450600 135.5534250  87.8044090  53.5152720 131.3419380
  87.5191010  53.1508390 132.1798000  87.7422950  52.7833180 130.7282520
  92.7302970  57.8117670 137.5310120  92.4260040  58.6909650 137.7560480
  93.6849430  57.8717460 137.5667560  97.3991540  61.0853080 139.8072360
  97.3328850  60.1648750 139.5529950  96.7696680  61.1828520 140.5217000
  88.7866700  58.6520410 138.6781480  88.4281640  59.3174260 139.2654820
  88.4921260  57.8203960 139.0494100  91.9879820  59.1104650 141.5621030
  91.6879960  59.2561830 140.6648850  92.7591060  58.5509940 141.4694420
  97.3308270  63.9073650 139.5576160  97.3452810  62.9754610 139.3395070
  96.6233370  63.9933410 140.1965930 103.5419480  60.5480990 138.9044740
 102.8167670  61.1409770 138.7074130 104.0694940  60.5404530 138.1058110
 103.4932590  64.9455730 128.5556900 102.8508750  64.2911350 128.8300620
 103.1063250  65.3510820 127.7797570  96.7642170  65.5491220 136.6516660
  97.4084390  65.7550600 137.3290080  97.1271610  64.7879620 136.1987510
  90.3621340  50.3822530 129.8946880  90.2335970  50.3740430 130.8431800
  89.5383360  50.7205620 129.5437890  98.0374250  63.5523570 135.3694110
  98.6796480  62.8516730 135.4826280  98.5623600  64.3322010 135.1891000
  99.8111870  64.3518470 138.5730170 100.1468110  64.9385160 139.2508090
  98.8912210  64.2211180 138.8027960  87.3615270  52.1413650 139.3553580
  86.6473790  52.3410570 139.9606190  87.7810310  51.3653220 139.7268380
  95.6400450  64.4009800 141.7418230  95.3197320  63.6819040 142.2863920
  94.9658810  65.0764870 141.8154290  98.8554050  54.6335960 137.1055030
  99.2234870  53.8131170 137.4334600  97.9952250  54.6937850 137.5210680
  94.1900110  55.8678850 129.3300470  93.4816260  56.3365190 129.7714080
  94.4744590  55.2100860 129.9645660  95.8156040  57.2875550 137.3293000
  96.3141290  57.7621370 137.9944850  95.9578990  56.3639070 137.5363030
  92.3935130  54.1763930 126.7051180  93.2425660  54.6134080 126.6391370
  92.0266400  54.4884190 127.5323240 103.0222900  53.5043510 138.1721390
 102.5196500  54.2448910 138.5115200 103.8379560  53.8927510 137.8558180
 103.3170490  65.9185540 133.2937010 103.4417910  66.7416710 133.7660820
 104.1836050  65.7076270 132.9461160  89.7946300  67.1962820 142.1539720
  90.5959030  67.5174870 142.5675120  89.2798120  66.8358400 142.8759630
  98.6310930  63.3042690 142.1015130  98.0249090  63.3274290 141.3610880
  98.3265040  62.5725730 142.6382380 100.0611300  67.0322980 140.7124540
 101.0133050  66.9481000 140.6624780  99.9139520  67.6964690 141.3858330
 102.9520500  66.4117190 126.2116450 102.6662010  65.9982330 125.3970630
 102.7540050  67.3404900 126.0916970  87.5144110  59.6836280 141.0975770
  88.0183130  59.1043560 141.6692000  86.7751530  59.9676510 141.6352140
  94.5682050  61.0907270 140.6311290  93.8027720  61.6592270 140.5465960
  94.7498010  60.7983480 139.7379520 101.7105400  62.8212600 141.1886310
 102.4514870  63.1588360 140.6853770 100.9478080  62.9904660 140.6356080
  89.5467190  57.8265870 141.9925840  89.5872530  57.5279740 142.9011070
  90.4012690  58.2273480 141.8333360  91.4873000  56.4057970 139.9600330
  90.9569460  55.9148920 139.3323670  92.1561070  56.8342170 139.4258260
 100.3851060  60.8727430 139.7241520 100.7992080  61.0272510 140.5731940
  99.4502060  60.9982650 139.8867300 100.8573230  58.2123590 141.7280670
 101.4394000  57.4575910 141.6401150 101.0335000  58.7431030 140.9512150
  91.9745300  53.3720340 140.0397620  91.8802170  52.7541090 139.3148490
  91.3942690  54.0986630 139.8127530  94.7406740  51.9293580 137.0725010
  94.2924040  51.9517840 136.2270560  94.1071940  51.5312600 137.6695310
  95.1466290  60.8247910 137.6937450  95.5654400  61.6680640 137.5213690
  94.2274920  60.9619950 137.4644230  97.4830190  58.5564090 139.0775290
  97.6026400  57.9605230 139.8170130  98.3424190  58.5933780 138.6576590
  99.8218090  59.1101280 137.6537800  99.2953310  59.6343900 137.0502940
 100.1649430  59.7428670 138.2847530  92.9973710  67.1300920 138.8095180
  92.4594800  67.8546980 138.4903880  93.2507670  66.6531260 138.0192520
  94.2498960  55.0985440 140.3351110  94.8398650  54.7901290 141.0228930
  93.4319200  54.6265190 140.4911010  99.0692390  54.7151250 140.5684130
  98.3807910  54.0532790 140.5034120  99.7898410  54.2689520 141.0132590
  91.0187280  53.5995270 124.0865390  91.3213180  53.6062700 123.1784540
  91.7581870  53.2493130 124.5833050  95.8535920  68.3652130 139.0681830
  95.7794620  69.2687270 139.3754200  94.9514760  68.0464030 139.0403900
 103.3815600  66.0614310 139.3974390 102.7817590  66.1206870 138.6538310
 103.5109500  65.1219290 139.5271240 104.6217050  63.8032130 124.7344100
 103.7910010  63.8708780 125.2051330 104.7988880  64.6936250 124.4310960
  87.5777850  59.0717540 131.4685960  86.9226690  58.8029180 130.8245660
  88.4155800  58.9622020 131.0187940 105.0833480  61.4029710 132.0820230
 105.4542310  60.6197030 131.6756200 105.7235410  62.0918810 131.9037530
 102.0667240  62.7866290 137.4950550 101.2527080  63.2163450 137.7576340
 102.4741440  63.3984700 136.8819600  88.6153780  59.4570110 136.0089300
  88.9826820  59.3697510 136.8885320  88.0464600  58.6936660 135.9096160
 103.4157640  57.9254490 139.0219770 103.1843730  57.6967240 138.1217720
 103.6762190  58.8454040 138.9764660  88.1669780  56.3679200 139.9147720
  87.2725830  56.3345960 140.2541430  88.7067330  56.5665990 140.6798970
 101.8545710  53.1510920 141.7999470 102.7315890  53.1594320 142.1833470
 101.8666550  52.4141760 141.1891820  86.7915930  56.2816470 127.4111290
  85.8880010  56.5446670 127.2362950  87.2756550  56.5527640 126.6311250
 103.4798700  57.0880330 136.2107040 102.5301410  57.0543870 136.3252030
 103.6611710  57.9980440 135.9756810  88.6709490  50.6427530 134.2630940
  89.3185680  50.0924910 133.8226100  89.0911330  50.8970680 135.0846750
 102.5661830  50.8368890 137.6200580 103.2034050  51.4503030 137.9859770
 102.7136720  50.8729550 136.6749810 102.1243290  67.5384890 131.0218820
 102.7202360  67.2169460 130.3453240 102.3821440  67.0656710 131.8132090
  88.4241490  50.7983200 137.0056260  88.0756310  51.2547020 137.7714440
  88.0929190  49.9040330 137.0878690  90.0305860  63.9702800 141.1709450
  89.9875490  63.5995710 142.0523910  90.1616870  64.9080370 141.3111270
  95.9366310  51.9895080 140.5275680  95.8755200  52.5816910 141.2771090
  96.8766690  51.8821040 140.3825940  98.5740870  51.6465140 140.1667970
  99.1881280  51.9644430 139.5049050  99.1190430  51.1613730 140.7863830
 104.9916050  67.5456770 137.5729810 104.4974330  67.9425640 136.8556940
 104.3829340  66.9205980 137.9667090  89.0962130  50.3259400 140.2807030
  89.6445120  50.1447450 139.5173140  89.1617440  49.5353510 140.8163340
  99.3148910  50.2097280 136.4937260  98.4408750  50.5432390 136.2910190
  99.2059660  49.7370460 137.3189130 100.2220890  52.4168150 137.8778980
  99.8934250  51.6019910 137.4980710 101.1703190  52.3737960 137.7544670
 102.6755500  68.1880190 134.8516550 102.2158470  68.9396000 134.4774570
 102.0467960  67.4686660 134.7931350  95.8446720  67.3876920 134.8533660
  96.1324530  67.1331220 133.9766670  96.3569940  66.8354280 135.4439230
  97.0623730  51.1267120 135.4330170  96.2795520  51.6012620 135.7126930
  96.7686660  50.2221950 135.3243350 101.6144800  51.8290220 133.4779260
 102.0552890  51.7735320 132.6300860 101.3452390  52.7448230 133.5489440
 103.4783370  51.4605460 131.4888080 103.4171770  50.5166680 131.3419100
 104.2575400  51.5685550 132.0341540  88.4064140  51.4314600 127.9543890
  89.1643500  51.5443480 127.3807920  87.9441310  52.2683800 127.9087320
  94.9477950  53.5453870 130.9446200  94.1352460  53.1710760 130.6042080
  95.4519590  52.7898950 131.2467390  90.7789290  51.9578650 126.4945860
  91.3082050  51.1708450 126.3653810  91.4117610  52.6369840 126.7281390
  92.9727130  51.6953790 129.5491250  92.3429870  50.9941100 129.7161380
  92.4332270  52.4557920 129.3324410  95.9119080  68.3093020 142.2201860
  96.8386390  68.0737290 142.2637820  95.8969510  69.1365020 141.7387890
 104.1464140  67.8518590 129.2176110 104.3216330  67.1656330 128.5737030
 103.4485710  68.3765640 128.8252780  93.0982690  50.9737770 141.9843740
  92.8166960  51.4771370 141.2204560  93.4802390  50.1759520 141.6185870
  99.6998150  50.3891350 142.5624210  99.5863600  50.7085960 143.4575730
 100.5167890  50.7903860 142.2661490 102.4796640  67.5362880 142.0442900
 103.2721960  67.0412110 141.8368860 102.7729790  68.2153020 142.6518510
 100.9912620  53.1640850 111.9735650 101.8122240  52.6737420 112.0161130
 101.0246700  53.7538510 112.7267490 105.2812170  55.1807600 118.5379280
 104.5764340  55.5689310 118.0194390 105.5470090  55.8757890 119.1400210
  92.7140190  61.2896150 117.2786850  92.3809570  61.9165070 117.9207920
  92.8906870  61.8158030 116.4988520 101.2274100  55.1041230 114.7463190
 100.5229670  55.3926120 115.3266300 101.5886260  55.9141340 114.3862750
  91.9259290  63.2576950 119.0936030  92.5433290  63.9328030 118.8120480
  91.0652410  63.6664930 119.0023530  87.2191630  62.4476810 107.9742880
  86.8419610  62.9363910 107.2427780  87.4764700  63.1202090 108.6049410
 102.8436880  64.7216360 117.0090670 102.1600400  65.3915470 117.0007340
 103.3831170  64.9197010 116.2435530 104.2961020  54.5496020 115.1372400
 103.3485930  54.5835000 115.2687830 104.6211010  55.3634970 115.5221760
  99.7781060  61.4690330 117.0518460 100.1949850  61.2550440 116.2171920
 100.5020880  61.7263120 117.6227080 103.7243160  59.8677550 117.1434700
 102.8961790  59.9370640 116.6684830 104.3193640  60.4531860 116.6750530
  92.3818090  62.8656020 121.7655250  91.4846620  63.0895990 122.0128650
  92.4070960  62.9890960 120.8166650  93.0069660  65.6791040 122.5497770
  92.9785090  66.0833990 121.6826200  92.8434630  64.7501400 122.3869370
 104.9584480  66.4618140 123.8461940 105.4344200  66.9401030 124.5251020
 105.5791640  66.3935630 123.1207440 104.3617730  63.6530990 121.0061950
 104.4880790  63.4142870 120.0879130 104.4039110  62.8215530 121.4784030
  98.2234470  67.3558990 119.5756760  98.7379140  67.2667000 120.3779190
  97.3803550  67.7018690 119.8684670  94.2199680  57.7005970 122.2280080
  94.1243280  56.7600700 122.0780480  95.0631660  57.9221040 121.8328150
  95.9255270  54.1954610 123.4510600  95.2353590  54.0026810 124.0856690
  96.6687570  54.4789250 123.9834900  86.6527270  52.0348100 114.4143940
  86.3640320  52.6050960 115.1268920  87.3973030  51.5552550 114.7775170
 102.0914900  50.9018910 121.5373840 102.4160670  50.1708570 122.0631820
 102.1271410  50.5832550 120.6354830 102.0172740  61.0144020 115.1459870
 102.7371860  61.5099310 114.7555980 101.8154560  60.3361910 114.5013740
  97.3308270  63.9073650 120.7832670  97.3452810  62.9754610 120.5651580
  96.6233370  63.9933410 121.4222440 103.5419480  60.5480990 120.1301250
 102.8167670  61.1409770 119.9330640 104.0694940  60.5404530 119.3314620
 103.4932590  64.9455730 109.7813410 102.8508750  64.2911350 110.0557130
 103.1063250  65.3510820 109.0054080  96.7642170  65.5491220 117.8773170
  97.4084390  65.7550600 118.5546590  97.1271610  64.7879620 117.4244020
  98.0374250  63.5523570 116.5950620  98.6796480  62.8516730 116.7082790
  98.5623600  64.3322010 116.4147510  99.8111870  64.3518470 119.7986680
 100.1468110  64.9385160 120.4764600  98.8912210  64.2211180 120.0284470
  87.6646000  67.8639050 107.0934220  88.0243640  68.4628390 106.4391490
  87.5238340  68.4098940 107.8669250  87.6487860  66.1293910 121.5676620
  87.7578980  65.1888650 121.4272010  86.9968420  66.3948660 120.9190350
  93.6814620  65.2470250 107.9107890  93.6724720  65.9799940 107.2952400
  92.7612980  65.0001830 108.0034850 102.2216080  53.5892900 109.1399100
 101.5929240  53.6938570 108.4257330 101.7268000  53.8089680 109.9292980
  96.6674220  65.3098490 106.5733080  96.7686200  65.1062480 105.6435060
  95.7675960  65.0556770 106.7780860 103.0222900  53.5043510 119.3977900
 102.5196500  54.2448910 119.7371710 103.8379560  53.8927510 119.0814690
 101.3144910  58.7476690 112.8439260 100.3735050  58.7626920 113.0186950
 101.6288980  57.9612650 113.2899560 103.3170490  65.9185540 114.5193520
 103.4417910  66.7416710 114.9917330 104.1836050  65.7076270 114.1717670
  89.7946300  67.1962820 123.3796230  90.5959030  67.5174870 123.7931630
  89.2798120  66.8358400 124.1016140  93.8990330  67.1847060 106.0136220
  94.6918940  67.4735890 105.5618010  93.3794680  66.7539230 105.3348700
 102.9520500  66.4117190 107.4372960 102.6662010  65.9982330 106.6227140
 102.7540050  67.3404900 107.3173480  94.4167730  62.4050470 105.8778570
  94.3118370  61.7902820 106.6039950  94.2491950  61.8816360 105.0941580
  94.5682050  61.0907270 121.8567800  93.8027720  61.6592270 121.7722470
  94.7498010  60.7983480 120.9636030  95.8373220  59.4499030 105.6262960
  96.3578880  58.7348050 105.2604110  96.4841620  60.0884900 105.9263470
  95.1466290  60.8247910 118.9193960  95.5654400  61.6680640 118.7470200
  94.2274920  60.9619950 118.6900740  92.9973710  67.1300920 120.0351690
  92.4594800  67.8546980 119.7160390  93.2507670  66.6531260 119.2449030
  94.2498960  55.0985440 121.5607620  94.8398650  54.7901290 122.2485440
  93.4319200  54.6265190 121.7167520  95.8535920  68.3652130 120.2938340
  95.7794620  69.2687270 120.6010710  94.9514760  68.0464030 120.2660410
  96.4021250  67.5310640 107.9164700  97.2972040  67.8695610 107.9383460
  96.4338880  66.8090050 107.2888980  90.0417410  62.9037690 106.1451700
  90.4792280  63.4467360 106.8009280  90.5265140  62.0784640 106.1548040
  87.7453420  66.5597310 116.3353590  87.3084410  66.7398110 117.1677740
  88.3131100  67.3171930 116.1935310 103.3815600  66.0614310 120.6230900
 102.7817590  66.1206870 119.8794820 103.5109500  65.1219290 120.7527750
 105.0833480  61.4029710 113.3076740 105.4542310  60.6197030 112.9012710
 105.7235410  62.0918810 113.1294040 102.0667240  62.7866290 118.7207060
 101.2527080  63.2163450 118.9832850 102.4741440  63.3984700 118.1076110
 104.0258020  58.7782970 110.6136760 103.6501620  58.0110900 110.1818050
 103.2961140  59.1605670 111.1011690 101.8545710  53.1510920 123.0255980
 102.7315890  53.1594320 123.4089980 101.8666550  52.4141760 122.4148330
 103.3008980  57.0040460 113.9144000 103.8246460  56.5103110 113.2834170
 103.8868400  57.1390820 114.6591570 103.4798700  57.0880330 117.4363550
 102.5301410  57.0543870 117.5508540 103.6611710  57.9980440 117.2013320
  88.9817300  51.3921340 105.5864830  89.7045430  51.9330280 105.9046050
  89.2541820  51.1184760 104.7106370 102.7908950  56.2613810 109.8536410
 103.2868070  56.0284680 110.6385290 102.5925020  55.4225650 109.4374050
 104.2196110  54.8974760 112.3874090 104.1095390  54.7430800 113.3256360
 104.9803700  54.3695700 112.1449500 102.5661830  50.8368890 118.8457090
 103.2034050  51.4503030 119.2116280 102.7136720  50.8729550 117.9006320
 105.1824870  53.4993340 108.2536940 104.3876370  53.4338460 108.7829850
 105.3868150  54.4343980 108.2422290  90.0305860  63.9702800 122.3965960
  89.9875490  63.5995710 123.2780420  90.1616870  64.9080370 122.5367780
  93.7311890  65.5262390 117.9975680  93.4903250  65.7936950 117.1106200
  94.6714530  65.6968120 118.0526540  95.9366310  51.9895080 121.7532190
  95.8755200  52.5816910 122.5027600  96.8766690  51.8821040 121.6082450
  89.8693890  66.9165050 119.5163740  89.2754210  66.7849750 120.2553780
  89.8617730  66.0803190 119.0505840 100.2220890  52.4168150 119.1035490
  99.8934250  51.6019910 118.7237220 101.1703190  52.3737960 118.9801180
  89.5006120  64.2823430 118.4671780  88.7740180  63.6628720 118.3997730
  89.5615270  64.6764040 117.5969860 103.4783370  51.4605460 112.7144590
 103.4171770  50.5166680 112.5675610 104.2575400  51.5685550 113.2598050
  88.4064140  51.4314600 109.1800400  89.1643500  51.5443480 108.6064430
  87.9441310  52.2683800 109.1343830  90.7789290  51.9578650 107.7202370
  91.3082050  51.1708450 107.5910320  91.4117610  52.6369840 107.9537900
 104.1464140  67.8518590 110.4432620 104.3216330  67.1656330 109.7993540
 103.4485710  68.3765640 110.0509290  93.0982690  50.9737770 123.2100250
  92.8166960  51.4771370 122.4461070  93.4802390  50.1759520 122.8442380
  91.9891790  68.2413430 107.9967930  92.7210610  67.9572710 107.4491820
  92.2485460  68.0026710 108.8867310  91.1506580  64.3578160 108.0014260
  90.5215460  64.8263260 108.5500090  91.2654410  63.5127380 108.4360450
 102.4796640  67.5362880 123.2699410 103.2721960  67.0412110 123.0625370
 102.7729790  68.2153020 123.8775020  90.7540170  60.4982650  96.9100490
  89.9225050  60.2431360  97.3097000  91.3621150  60.5693420  97.6458410
 100.7581770  64.5923030  94.8123860 100.2963300  63.8210270  95.1411030
 101.5707320  64.6189100  95.3176310  90.7341430  64.5322740  97.1058510
  91.0369470  63.6420480  96.9268730  91.4785020  65.0892960  96.8780760
  89.1632120  55.4584540  90.6942880  88.2748820  55.8000510  90.5922760
  89.4473310  55.2584860  89.8023710  87.1265130  58.0590190  96.5782580
  87.6981240  57.2912390  96.5786220  87.1266670  58.3578950  95.6689190
  96.9845080  66.8781040  94.4327850  96.3656520  67.3338540  93.8622290
  97.8396860  67.0332500  94.0317550  96.1783330  62.8620030  96.0394890
  96.1091610  61.9209970  95.8784020  96.9403190  62.9521440  96.6117460
  88.3690000  53.4674550  98.3651510  88.1892840  52.5700300  98.6454270
  87.9670080  54.0146420  99.0398460  88.9876670  55.9635050  96.9733850
  89.6686780  56.2273420  97.5921250  88.6724720  55.1235920  97.3071860
  93.1801240  57.0102410  96.0606440  93.6879460  57.5083380  96.7011460
  93.7114480  56.2337610  95.8845800 105.2812170  55.1807600  99.7635790
 104.5764340  55.5689310  99.2450900 105.5470090  55.8757890 100.3656720
  91.4637340  51.6500970 100.3269860  91.4655780  52.1673360  99.5215760
  90.6341650  51.1731150 100.3039790  97.8508430  61.7620280  91.8259760
  97.2325700  62.2269730  91.2622480  98.3631680  62.4547760  92.2429270
  92.7140190  61.2896150  98.5043360  92.3809570  61.9165070  99.1464430
  92.8906870  61.8158030  97.7245030  91.1452670  53.3610930  98.3340310
  91.4869480  54.2052980  98.0394180  90.2068480  53.5094670  98.4505650
  91.9259290  63.2576950 100.3192540  92.5433290  63.9328030 100.0376990
  91.0652410  63.6664930 100.2280040 102.8436880  64.7216360  98.2347180
 102.1600400  65.3915470  98.2263850 103.3831170  64.9197010  97.4692040
 104.2961020  54.5496020  96.3628910 103.3485930  54.5835000  96.4944340
 104.6211010  55.3634970  96.7478270 100.3795620  66.5660490  96.9492360
 100.3922780  66.1622780  96.0814620  99.8270840  67.3407780  96.8453790
 101.6741040  63.2876710  92.0382530 101.5637370  62.3451040  92.1631950
 101.6709290  63.6492350  92.9245290  97.2161320  58.9142030  91.3945020
  96.2890600  58.8479410  91.6233490  97.3686140  59.8522160  91.2800260
 101.2458610  60.4762330  91.8980270 100.6271030  60.1381880  91.2506570
 101.2283060  59.8322090  92.6059460  92.8217960  59.4406770  94.1764750
  92.4174960  58.7284020  93.6810650  92.9081080  59.0960010  95.0652790
  93.2899660  63.1274330  96.3403960  92.9927950  62.5219800  95.6611740
  94.2399480  63.1651640  96.2293320  91.5346580  56.2149980  97.9563790
  92.0861170  56.3245320  97.1817040  92.0490090  56.5887580  98.6719020
 101.3785270  66.7006200 100.0027060 100.9015830  67.5078390  99.8099670
 100.6947060  66.0484530 100.1553270  92.3818090  62.8656020 102.9911760
  91.4846620  63.0895990 103.2385160  92.4070960  62.9890960 102.0423160
  99.4223310  59.7149140  88.9053020  99.8616590  58.8771570  88.7590840
 100.1351730  60.3478540  88.9917160  97.5318690  64.6545210  92.8734260
  97.9714600  65.3969540  92.4589650  97.4705580  64.8971780  93.7973220
  93.0069660  65.6791040 103.7754280  92.9785090  66.0833990 102.9082710
  92.8434630  64.7501400 103.6125880  89.5222590  58.3351750  91.6771400
  89.4020190  59.0613840  91.0652670  89.2123480  57.5654660  91.1999310
 104.9584480  66.4618140 105.0718450 105.4344200  66.9401030 105.7507530
 105.5791640  66.3935630 104.3463950  87.1607960  61.5066890  97.4840040
  87.2388380  61.6415660  96.5395760  87.7749640  60.7982780  97.6768160
  88.4055590  63.2067080  93.8946220  87.9983670  63.3481670  93.0399820
  89.2968600  62.9227240  93.6917430  98.2234470  67.3558990 100.8013270
  98.7379140  67.2667000 101.6035700  97.3803550  67.7018690 101.0941180
 100.1988870  67.6414330  90.2297270 100.0390010  67.3517270  91.1279100
 100.0335580  66.8654460  89.6942500  92.6777250  67.4212860  92.0068890
  92.5019730  66.5048400  91.7936690  91.8232990  67.7800150  92.2466690
  99.9015000  65.1501890  88.7895270  99.2080160  65.1479180  88.1297550
 100.6437860  64.7261210  88.3589440  99.4664930  66.7764600  92.8643760
  99.9221880  65.9953980  93.1782380  99.8057450  67.4871420  93.4084940
 104.2141740  55.7063450 103.1968200 103.5986010  56.2143120 102.6683660
 103.8938160  54.8061780 103.1394140  96.2756060  54.5455340 100.6630390
  95.8135430  54.7538360 101.4750330  95.8734170  53.7314690 100.3601060
  94.0262150  52.2234150  96.9184670  94.3234480  53.1296980  96.8376690
  94.5747710  51.7352930  96.3044240  91.7800470  56.8020390  92.7876320
  91.5541390  56.5857560  93.6922940  90.9993000  57.2348850  92.4422290
  94.2199680  57.7005970 103.4536590  94.1243280  56.7600700 103.3036990
  95.0631660  57.9221040 103.0584660  86.6527270  52.0348100  95.6400450
  86.3640320  52.6050960  96.3525430  87.3973030  51.5552550  96.0031680
  94.6395630  54.7107250  95.9173520  94.6431690  54.2697200  95.0678060
  95.5346750  55.0324580  96.0245340  90.4898010  54.5933740  94.8767730
  90.1498060  55.0708970  95.6334780  89.7275330  54.1398860  94.5168830
  93.7137280  58.0220470  88.3063580  93.1454180  57.5738720  87.6799490
  94.4226280  58.3813250  87.7728730 102.0914900  50.9018910 102.7630350
 102.4160670  50.1708570 103.2888330 102.1271410  50.5832550 101.8611340
  94.9403600  58.7709030  97.6638930  95.3073730  58.2967600  98.4100270
  94.7508660  59.6450600  98.0047270  87.8044090  53.5152720  93.7932400
  87.5191010  53.1508390  94.6311020  87.7422950  52.7833180  93.1795540
  92.7302970  57.8117670  99.9823140  92.4260040  58.6909650 100.2073500
  93.6849430  57.8717460 100.0180580  97.3991540  61.0853080 102.2585380
  97.3328850  60.1648750 102.0042970  96.7696680  61.1828520 102.9730020
  91.3022160  61.6859040  94.2168800  91.8200830  60.8827300  94.1625690
  90.8506180  61.6238180  95.0585630  97.3308270  63.9073650 102.0089180
  97.3452810  62.9754610 101.7908090  96.6233370  63.9933410 102.6478950
 102.4645340  58.0913470  88.2787790 102.3809060  58.5227690  87.4284230
 103.1839530  58.5511820  88.7114610 103.4932590  64.9455730  91.0069920
 102.8508750  64.2911350  91.2813640 103.1063250  65.3510820  90.2310590
  99.0719070  62.2741160  94.8541610  99.4242890  61.6769290  94.1942980
  98.1881400  61.9485390  95.0249860  95.1582350  63.0338850  92.2612020
  95.8453480  63.5808060  92.6419610  94.3714770  63.5779580  92.2961630
  94.4609560  60.0384880  91.8737380  94.9172340  60.8490130  92.0997570
  94.1097770  59.7208020  92.7055870  96.7642170  65.5491220  99.1029680
  97.4084390  65.7550600  99.7803100  97.1271610  64.7879620  98.6500530
  98.0374250  63.5523570  97.8207130  98.6796480  62.8516730  97.9339300
  98.5623600  64.3322010  97.6404020 101.8829970  63.8372190  87.5446270
 101.6567550  63.1202630  88.1370910 101.4926170  63.5884630  86.7068020
 101.4646220  61.7544130  89.2060430 101.1767920  62.2156820  89.9938310
 102.2598390  61.2941900  89.4744650  87.6487860  66.1293910 102.7933130
  87.7578980  65.1888650 102.6528520  86.9968420  66.3948660 102.1446860
  95.6400450  64.4009800 104.1931250  95.3197320  63.6819040 104.7376940
  94.9658810  65.0764870 104.2667310  95.3092330  67.8284810  92.4937260
  95.5633830  67.7906200  91.5716630  94.3604810  67.7018140  92.4865510
 103.0222900  53.5043510 100.6234410 102.5196500  54.2448910 100.9628220
 103.8379560  53.8927510 100.3071200 103.3170490  65.9185540  95.7450030
 103.4417910  66.7416710  96.2173840 104.1836050  65.7076270  95.3974180
  90.7888020  68.0116750  95.4167160  91.5250500  67.4632210  95.6875730
  91.1728940  68.8772760  95.2773150  89.7946300  67.1962820 104.6052740
  90.5959030  67.5174870 105.0188140  89.2798120  66.8358400 105.3272650
 100.0611300  67.0322980 103.1637560 101.0133050  66.9481000 103.1137800
  99.9139520  67.6964690 103.8371350  94.5682050  61.0907270 103.0824310
  93.8027720  61.6592270 102.9978980  94.7498010  60.7983480 102.1892540
  93.3245580  60.4261420  89.6042370  93.7462000  60.2601290  90.4473760
  93.4496420  59.6161650  89.1097510  95.8373220  59.4499030  86.8519470
  96.3578880  58.7348050  86.4860620  96.4841620  60.0884900  87.1519980
  91.9745300  53.3720340 102.4910640  91.8802170  52.7541090 101.7661510
  91.3942690  54.0986630 102.2640550  95.1466290  60.8247910 100.1450470
  95.5654400  61.6680640  99.9726710  94.2274920  60.9619950  99.9157250
  92.2204480  56.4994650  86.5500530  92.0193540  55.6362010  86.9113870
  92.0496530  56.4128010  85.6122130  92.9973710  67.1300920 101.2608200
  92.4594800  67.8546980 100.9416900  93.2507670  66.6531260 100.4705540
  95.8535920  68.3652130 101.5194850  95.7794620  69.2687270 101.8267220
  94.9514760  68.0464030 101.4916920  91.8525130  64.0235730  92.4830440
  91.5520670  63.9000700  93.3834350  91.7462620  63.1644320  92.0746170
 103.3815600  66.0614310 101.8487410 102.7817590  66.1206870 101.1051330
 103.5109500  65.1219290 101.9784260 104.0773510  60.5479610  89.6891320
 104.8392420  61.1176260  89.7951010 104.0927880  59.9806810  90.4599630
  87.5777850  59.0717540  93.9198980  86.9226690  58.8029180  93.2758680
  88.4155800  58.9622020  93.4700960 105.0833480  61.4029710  94.5333250
 105.4542310  60.6197030  94.1269220 105.7235410  62.0918810  94.3550550
 104.1292680  60.8413980  86.8463840 104.4041520  61.7492860  86.7183060
 103.9403420  60.7776510  87.7825830 104.0258020  58.7782970  91.8393270
 103.6501620  58.0110900  91.4074560 103.2961140  59.1605670  92.3268200
  88.6153780  59.4570110  98.4602320  88.9826820  59.3697510  99.3398340
  88.0464600  58.6936660  98.3609180 101.8545710  53.1510920 104.2512490
 102.7315890  53.1594320 104.6346490 101.8666550  52.4141760 103.6404840
  86.7915930  56.2816470  89.8624310  85.8880010  56.5446670  89.6875970
  87.2756550  56.5527640  89.0824270 102.7908950  56.2613810  91.0792920
 103.2868070  56.0284680  91.8641800 102.5925020  55.4225650  90.6630560
  88.6709490  50.6427530  96.7143960  89.3185680  50.0924910  96.2739120
  89.0911330  50.8970680  97.5359770 104.2196110  54.8974760  93.6130600
 104.1095390  54.7430800  94.5512870 104.9803700  54.3695700  93.3706010
 102.5661830  50.8368890 100.0713600 103.2034050  51.4503030 100.4372790
 102.7136720  50.8729550  99.1262830 102.1243290  67.5384890  93.4731840
 102.7202360  67.2169460  92.7966260 102.3821440  67.0656710  94.2645110
  93.7311890  65.5262390  99.2232190  93.4903250  65.7936950  98.3362710
  94.6714530  65.6968120  99.2783050 104.9916050  67.5456770 100.0242830
 104.4974330  67.9425640  99.3069960 104.3829340  66.9205980 100.4180110
  89.8693890  66.9165050 100.7420250  89.2754210  66.7849750 101.4810290
  89.8617730  66.0803190 100.2762350 100.2220890  52.4168150 100.3292000
  99.8934250  51.6019910  99.9493730 101.1703190  52.3737960 100.2057690
 102.6755500  68.1880190  97.3029570 102.2158470  68.9396000  96.9287590
 102.0467960  67.4686660  97.2444370  93.1051220  66.4968430  96.4777700
  93.6216240  65.8855790  95.9525960  93.7548600  66.9997210  96.9688710
  95.8446720  67.3876920  97.3046680  96.1324530  67.1331220  96.4279690
  96.3569940  66.8354280  97.8952250 101.6144800  51.8290220  95.9292280
 102.0552890  51.7735320  95.0813880 101.3452390  52.7448230  96.0002460
 103.4783370  51.4605460  93.9401100 103.4171770  50.5166680  93.7932120
 104.2575400  51.5685550  94.4854560  99.4502930  50.2096320  94.6342290
 100.0532300  50.7816530  95.1090810  98.7095920  50.7735760  94.4116190
  95.9119080  68.3093020 104.6714880  96.8386390  68.0737290 104.7150840
  95.8969510  69.1365020 104.1900910 102.4796640  67.5362880 104.4955920
 103.2721960  67.0412110 104.2881880 102.7729790  68.2153020 105.1031530
 100.7581770  64.5923030  76.0380370 100.2963300  63.8210270  76.3667540
 101.5707320  64.6189100  76.5432820  97.2088500  55.6690410  77.4920330
  97.5853320  54.7962290  77.3794000  97.1108010  56.0049110  76.6010770
 100.9912620  53.1640850  74.4248670 101.8122240  52.6737420  74.4674150
 101.0246700  53.7538510  75.1780510  97.8508430  61.7620280  73.0516270
  97.2325700  62.2269730  72.4878990  98.3631680  62.4547760  73.4685780
 101.2274100  55.1041230  77.1976210 100.5229670  55.3926120  77.7779320
 101.5886260  55.9141340  76.8375770 104.2961020  54.5496020  77.5885420
 103.3485930  54.5835000  77.7200850 104.6211010  55.3634970  77.9734780
  94.8280560  50.8493200  75.8841410  95.1355540  50.2940090  75.1676910
  93.8981260  50.9837660  75.7014400 101.6741040  63.2876710  73.2639040
 101.5637370  62.3451040  73.3888460 101.6709290  63.6492350  74.1501800
 101.3785270  66.7006200  81.2283570 100.9015830  67.5078390  81.0356180
 100.6947060  66.0484530  81.3809780  97.5318690  64.6545210  74.0990770
  97.9714600  65.3969540  73.6846160  97.4705580  64.8971780  75.0229730
 103.0040450  50.9691950  68.4450570 102.6913110  51.0618780  69.3449640
 103.7652920  51.5472980  68.3948000 104.3617730  63.6530990  83.4574970
 104.4880790  63.4142870  82.5392150 104.4039110  62.8215530  83.9297050
 100.1988870  67.6414330  71.4553780 100.0390010  67.3517270  72.3535610
 100.0335580  66.8654460  70.9199010  99.4664930  66.7764600  74.0900270
  99.9221880  65.9953980  74.4038890  99.8057450  67.4871420  74.6341450
  96.2756060  54.5455340  81.8886900  95.8135430  54.7538360  82.7006840
  95.8734170  53.7314690  81.5857570  98.3710280  57.2666040  85.1182350
  98.6963690  56.4329790  84.7784580  99.1590610  57.7894560  85.2660680
  94.0262150  52.2234150  78.1441180  94.3234480  53.1296980  78.0633200
  94.5747710  51.7352930  77.5300750  97.6163100  55.4447300  74.6426760
  98.0092670  55.7619500  73.8295450  97.9779950  54.5659180  74.7571280
  95.9255270  54.1954610  85.9023620  95.2353590  54.0026810  86.5369710
  96.6687570  54.4789250  86.4347920  94.6395630  54.7107250  77.1430030
  94.6431690  54.2697200  76.2934570  95.5346750  55.0324580  77.2501850
  98.6644150  53.4886730  78.1500480  98.6816890  53.9395380  78.9942330
  98.4159730  52.5892370  78.3633920 102.4645340  58.0913470  69.5044300
 102.3809060  58.5227690  68.6540740 103.1839530  58.5511820  69.9371120
 103.4932590  64.9455730  72.2326430 102.8508750  64.2911350  72.5070150
 103.1063250  65.3510820  71.4567100  99.8111870  64.3518470  82.2499700
 100.1468110  64.9385160  82.9277620  98.8912210  64.2211180  82.4797490
 101.4646220  61.7544130  70.4316940 101.1767920  62.2156820  71.2194820
 102.2598390  61.2941900  70.7001160  98.8554050  54.6335960  80.7824560
  99.2234870  53.8131170  81.1104130  97.9952250  54.6937850  81.1980210
 102.2216080  53.5892900  71.5912120 101.5929240  53.6938570  70.8770350
 101.7268000  53.8089680  72.3806000  95.8156040  57.2875550  81.0062530
  96.3141290  57.7621370  81.6714380  95.9578990  56.3639070  81.2132560
  98.2215540  52.5929510  74.4465790  98.0983320  52.6115640  73.4975300
  99.1700100  52.6408450  74.5664190  95.3092330  67.8284810  73.7193770
  95.5633830  67.7906200  72.7973140  94.3604810  67.7018140  73.7122020
 100.0611300  67.0322980  84.3894070 101.0133050  66.9481000  84.3394310
  99.9139520  67.6964690  85.0627860 102.9520500  66.4117190  69.8885980
 102.6662010  65.9982330  69.0740160 102.7540050  67.3404900  69.7686500
 101.7105400  62.8212600  84.8655840 102.4514870  63.1588360  84.3623300
 100.9478080  62.9904660  84.3125610 100.3851060  60.8727430  83.4011050
 100.7992080  61.0272510  84.2501470  99.4502060  60.9982650  83.5636830
  91.9745300  53.3720340  83.7167150  91.8802170  52.7541090  82.9918020
  91.3942690  54.0986630  83.4897060  94.7406740  51.9293580  80.7494540
  94.2924040  51.9517840  79.9040090  94.1071940  51.5312600  81.3464840
  94.2498960  55.0985440  84.0120640  94.8398650  54.7901290  84.6998460
  93.4319200  54.6265190  84.1680540  99.6992790  51.3102880  70.3043920
  99.9795080  50.4670780  70.6603340  98.9258520  51.5425990  70.8182670
 104.6217050  63.8032130  68.4113630 103.7910010  63.8708780  68.8820860
 104.7988880  64.6936250  68.1080490 104.1292680  60.8413980  68.0720350
 104.4041520  61.7492860  67.9439570 103.9403420  60.7776510  69.0082340
 100.5268290  53.8658830  69.3673980 100.9453170  53.6789810  68.5270640
 100.2204350  53.0137880  69.6776910 102.7908950  56.2613810  72.3049430
 103.2868070  56.0284680  73.0898310 102.5925020  55.4225650  71.8887070
 104.2196110  54.8974760  74.8387110 104.1095390  54.7430800  75.7769380
 104.9803700  54.3695700  74.5962520 105.1086380  52.7282680  68.0793250
 106.0335690  52.5963860  67.8711540 105.0862170  52.8075500  69.0329700
 105.1824870  53.4993340  70.7049960 104.3876370  53.4338460  71.2342870
 105.3868150  54.4343980  70.6935310  95.9366310  51.9895080  84.2045210
  95.8755200  52.5816910  84.9540620  96.8766690  51.8821040  84.0595470
  98.5740870  51.6465140  83.8437500  99.1881280  51.9644430  83.1818580
  99.1190430  51.1613730  84.4633360  99.3148910  50.2097280  80.1706790
  98.4408750  50.5432390  79.9679720  99.2059660  49.7370460  80.9958660
  97.0623730  51.1267120  79.1099700  96.2795520  51.6012620  79.3896460
  96.7686660  50.2221950  79.0012880 101.6144800  51.8290220  77.1548790
 102.0552890  51.7735320  76.3070390 101.3452390  52.7448230  77.2258970
  99.4502930  50.2096320  75.8598800 100.0532300  50.7816530  76.3347320
  98.7095920  50.7735760  75.6372700 102.4796640  67.5362880  85.7212430
 103.2721960  67.0412110  85.5138390 102.7729790  68.2153020  86.3288040
 100.7581770  64.5923030  57.2636880 100.2963300  63.8210270  57.5924050
 101.5707320  64.6189100  57.7689330  96.9845080  66.8781040  56.8840870
  96.3656520  67.3338540  56.3135310  97.8396860  67.0332500  56.4830570
 100.9912620  53.1640850  55.6505180 101.8122240  52.6737420  55.6930660
 101.0246700  53.7538510  56.4037020 102.8436880  64.7216360  60.6860200
 102.1600400  65.3915470  60.6776870 103.3831170  64.9197010  59.9205060
 104.2961020  54.5496020  58.8141930 103.3485930  54.5835000  58.9457360
 104.6211010  55.3634970  59.1991290 100.3795620  66.5660490  59.4005380
 100.3922780  66.1622780  58.5327640  99.8270840  67.3407780  59.2966810
 101.6741040  63.2876710  54.4895550 101.5637370  62.3451040  54.6144970
 101.6709290  63.6492350  55.3758310 103.7243160  59.8677550  60.8204230
 102.8961790  59.9370640  60.3454360 104.3193640  60.4531860  60.3520060
 101.2458610  60.4762330  54.3493290 100.6271030  60.1381880  53.7019590
 101.2283060  59.8322090  55.0572480 101.3785270  66.7006200  62.4540080
 100.9015830  67.5078390  62.2612690 100.6947060  66.0484530  62.6066290
  99.4223310  59.7149140  51.3566040  99.8616590  58.8771570  51.2103860
 100.1351730  60.3478540  51.4430180 103.0040450  50.9691950  49.6707080
 102.6913110  51.0618780  50.5706150 103.7652920  51.5472980  49.6204510
 104.9584480  66.4618140  67.5231470 105.4344200  66.9401030  68.2020550
 105.5791640  66.3935630  66.7976970 104.3617730  63.6530990  64.6831480
 104.4880790  63.4142870  63.7648660 104.4039110  62.8215530  65.1553560
 100.1988870  67.6414330  52.6810290 100.0390010  67.3517270  53.5792120
 100.0335580  66.8654460  52.1455520  99.9015000  65.1501890  51.2408290
  99.2080160  65.1479180  50.5810570 100.6437860  64.7261210  50.8102460
  99.4664930  66.7764600  55.3156780  99.9221880  65.9953980  55.6295400
  99.8057450  67.4871420  55.8597960 104.2141740  55.7063450  65.6481220
 103.5986010  56.2143120  65.1196680 103.8938160  54.8061780  65.5907160
 102.0172740  61.0144020  58.8229400 102.7371860  61.5099310  58.4325510
 101.8154560  60.3361910  58.1783270 100.1931070  56.7801630  51.2620950
 101.0810690  57.0918860  51.0872290 100.1636160  55.9073880  50.8701530
  96.1891660  62.9525320  51.9409120  96.5307360  63.6967550  51.4452440
  95.3604370  63.2656440  52.3033950 102.4645340  58.0913470  50.7300810
 102.3809060  58.5227690  49.8797250 103.1839530  58.5511820  51.1627630
 103.5419480  60.5480990  63.8070780 102.8167670  61.1409770  63.6100170
 104.0694940  60.5404530  63.0084150 101.8829970  63.8372190  49.9959290
 101.6567550  63.1202630  50.5883930 101.4926170  63.5884630  49.1581040
 101.4646220  61.7544130  51.6573450 101.1767920  62.2156820  52.4451330
 102.2598390  61.2941900  51.9257670 102.2216080  53.5892900  52.8168630
 101.5929240  53.6938570  52.1026860 101.7268000  53.8089680  53.6062510
  96.6674220  65.3098490  50.2502610  96.7686200  65.1062480  49.3204590
  95.7675960  65.0556770  50.4550390  95.3092330  67.8284810  54.9450280
  95.5633830  67.7906200  54.0229650  94.3604810  67.7018140  54.9378530
 103.3170490  65.9185540  58.1963050 103.4417910  66.7416710  58.6686860
 104.1836050  65.7076270  57.8487200  97.6570460  61.4670500  50.1590090
  97.1080560  61.9139800  50.8032830  98.2789720  60.9619750  50.6827760
  99.6992790  51.3102880  51.5300430  99.9795080  50.4670780  51.8859850
  98.9258520  51.5425990  52.0439180  96.4021250  67.5310640  51.5934230
  97.2972040  67.8695610  51.6152990  96.4338880  66.8090050  50.9658510
 103.3815600  66.0614310  64.3000430 102.7817590  66.1206870  63.5564350
 103.5109500  65.1219290  64.4297280 104.0773510  60.5479610  52.1404340
 104.8392420  61.1176260  52.2464030 104.0927880  59.9806810  52.9112650
 105.0833480  61.4029710  56.9846270 105.4542310  60.6197030  56.5782240
 105.7235410  62.0918810  56.8063570 104.1292680  60.8413980  49.2976860
 104.4041520  61.7492860  49.1696080 103.9403420  60.7776510  50.2338850
 100.5268290  53.8658830  50.5930490 100.9453170  53.6789810  49.7527150
 100.2204350  53.0137880  50.9033420 104.0258020  58.7782970  54.2906290
 103.6501620  58.0110900  53.8587580 103.2961140  59.1605670  54.7781220
 103.4157640  57.9254490  63.9245810 103.1843730  57.6967240  63.0243760
 103.6762190  58.8454040  63.8790700 103.3008980  57.0040460  57.5913530
 103.8246460  56.5103110  56.9603700 103.8868400  57.1390820  58.3361100
 102.7908950  56.2613810  53.5305940 103.2868070  56.0284680  54.3154820
 102.5925020  55.4225650  53.1143580 104.2196110  54.8974760  56.0643620
 104.1095390  54.7430800  57.0025890 104.9803700  54.3695700  55.8219030
 105.1086380  52.7282680  49.3049760 106.0335690  52.5963860  49.0968050
 105.0862170  52.8075500  50.2586210 105.1824870  53.4993340  51.9306470
 104.3876370  53.4338460  52.4599380 105.3868150  54.4343980  51.9191820
 102.1243290  67.5384890  55.9244860 102.7202360  67.2169460  55.2479280
 102.3821440  67.0656710  56.7158130 104.9916050  67.5456770  62.4755850
 104.4974330  67.9425640  61.7582980 104.3829340  66.9205980  62.8693130
 102.6755500  68.1880190  59.7542590 102.2158470  68.9396000  59.3800610
 102.0467960  67.4686660  59.6957390 102.5937530  50.6117880  52.3595590
 102.7888160  51.5101330  52.6263020 101.8067400  50.3804960  52.8528540
  99.6998150  50.3891350  67.4650250  99.5863600  50.7085960  68.3601770
 100.5167890  50.7903860  67.1687530 102.4796640  67.5362880  66.9468940
 103.2721960  67.0412110  66.7394900 102.7729790  68.2153020  67.5544550
  98.6056300  58.4083820  37.8284990  98.5250350  57.4938430  37.5576700
  98.1920720  58.9050890  37.1224700  96.7374340  60.1862840  39.7094260
  95.9616440  59.7063280  39.9992830  97.3887270  59.5068490  39.5350420
 100.7581770  64.5923030  38.4893390 100.2963300  63.8210270  38.8180560
 101.5707320  64.6189100  38.9945840  96.1783330  62.8620030  39.7164420
  96.1091610  61.9209970  39.5553550  96.9403190  62.9521440  40.2886990
  88.3690000  53.4674550  42.0421040  88.1892840  52.5700300  42.3223800
  87.9670080  54.0146420  42.7167990  97.2088500  55.6690410  39.9433350
  97.5853320  54.7962290  39.8307020  97.1108010  56.0049110  39.0523790
  91.3393510  54.0416040  35.4050790  91.4460260  54.9419770  35.7119550
  90.4285870  53.9934010  35.1145440 100.9912620  53.1640850  36.8761690
 101.8122240  52.6737420  36.9187170 101.0246700  53.7538510  37.6293530
  88.9876670  55.9635050  40.6503380  89.6686780  56.2273420  41.2690780
  88.6724720  55.1235920  40.9841390  93.1801240  57.0102410  39.7375970
  93.6879460  57.5083380  40.3780990  93.7114480  56.2337610  39.5615330
  91.4637340  51.6500970  44.0039390  91.4655780  52.1673360  43.1985290
  90.6341650  51.1731150  43.9809320  97.8508430  61.7620280  35.5029290
  97.2325700  62.2269730  34.9392010  98.3631680  62.4547760  35.9198800
 101.2274100  55.1041230  39.6489230 100.5229670  55.3926120  40.2292340
 101.5886260  55.9141340  39.2888790  91.1452670  53.3610930  42.0109840
  91.4869480  54.2052980  41.7163710  90.2068480  53.5094670  42.1275180
 104.2961020  54.5496020  40.0398440 103.3485930  54.5835000  40.1713870
 104.6211010  55.3634970  40.4247800  94.8280560  50.8493200  38.3354430
  95.1355540  50.2940090  37.6189930  93.8981260  50.9837660  38.1527420
 100.3795620  66.5660490  40.6261890 100.3922780  66.1622780  39.7584150
  99.8270840  67.3407780  40.5223320 101.6741040  63.2876710  35.7152060
 101.5637370  62.3451040  35.8401480 101.6709290  63.6492350  36.6014820
  97.2161320  58.9142030  35.0714550  96.2890600  58.8479410  35.3003020
  97.3686140  59.8522160  34.9569790  97.2030400  55.1859030  32.0681710
  96.2634070  55.3472990  32.1534170  97.5213660  55.9044710  31.5217700
 101.2458610  60.4762330  35.5749800 100.6271030  60.1381880  34.9276100
 101.2283060  59.8322090  36.2828990 100.6885170  56.6546870  42.9915610
 100.2756350  57.4800580  43.2455600  99.9561120  56.0691910  42.7991970
  92.8217960  59.4406770  37.8534280  92.4174960  58.7284020  37.3580180
  92.9081080  59.0960010  38.7422320  93.2899660  63.1274330  40.0173490
  92.9927950  62.5219800  39.3381270  94.2399480  63.1651640  39.9062850
  99.4223310  59.7149140  32.5822550  99.8616590  58.8771570  32.4360370
 100.1351730  60.3478540  32.6686690  97.5318690  64.6545210  36.5503790
  97.9714600  65.3969540  36.1359180  97.4705580  64.8971780  37.4742750
 103.0040450  50.9691950  30.8963590 102.6913110  51.0618780  31.7962660
 103.7652920  51.5472980  30.8461020  87.1607960  61.5066890  41.1609570
  87.2388380  61.6415660  40.2165290  87.7749640  60.7982780  41.3537690
  88.4055590  63.2067080  37.5715750  87.9983670  63.3481670  36.7169350
  89.2968600  62.9227240  37.3686960  98.2234470  67.3558990  44.4782800
  98.7379140  67.2667000  45.2805230  97.3803550  67.7018690  44.7710710
  92.6777250  67.4212860  35.6838420  92.5019730  66.5048400  35.4706220
  91.8232990  67.7800150  35.9236220  99.9015000  65.1501890  32.4664800
  99.2080160  65.1479180  31.8067080 100.6437860  64.7261210  32.0358970
 104.2141740  55.7063450  46.8737730 103.5986010  56.2143120  46.3453190
 103.8938160  54.8061780  46.8163670  91.9886250  51.6786820  38.7364600
  91.5454400  52.4596360  38.4049120  92.5471240  52.0016710  39.4435540
  96.2756060  54.5455340  44.3399920  95.8135430  54.7538360  45.1519860
  95.8734170  53.7314690  44.0370590 101.2760570  55.7664290  45.4696580
 100.4254160  55.4670040  45.7905650 101.1162360  56.0106300  44.5580400
  98.3710280  57.2666040  47.5695370  98.6963690  56.4329790  47.2297600
  99.1590610  57.7894560  47.7173700  95.1045070  51.2997520  33.6170430
  94.4799250  51.2957390  34.3423740  95.0175190  50.4328480  33.2206400
  94.0262150  52.2234150  40.5954200  94.3234480  53.1296980  40.5146220
  94.5747710  51.7352930  39.9813770  91.7800470  56.8020390  36.4645850
  91.5541390  56.5857560  37.3692470  90.9993000  57.2348850  36.1191820
  99.0098230  56.8083760  35.0636500  98.4107120  57.5319560  34.8800120
  99.5577840  56.7460540  34.2812950  97.6163100  55.4447300  37.0939780
  98.0092670  55.7619500  36.2808470  97.9779950  54.5659180  37.2084300
  89.3510220  54.1119640  45.2839900  88.9573610  54.9594850  45.4912680
  88.6628620  53.4746010  45.4748540  95.9255270  54.1954610  48.3536640
  95.2353590  54.0026810  48.9882730  96.6687570  54.4789250  48.8860940
  86.6527270  52.0348100  39.3169980  86.3640320  52.6050960  40.0294960
  87.3973030  51.5552550  39.6801210  98.2018240  58.0353050  41.1890560
  97.4699360  58.5439860  41.5380660  97.8042580  57.2183030  40.8879340
  94.6395630  54.7107250  39.5943050  94.6431690  54.2697200  38.7447590
  95.5346750  55.0324580  39.7014870  90.4898010  54.5933740  38.5537260
  90.1498060  55.0708970  39.3104310  89.7275330  54.1398860  38.1938360
  98.6644150  53.4886730  40.6013500  98.6816890  53.9395380  41.4455350
  98.4159730  52.5892370  40.8146940 102.0914900  50.9018910  46.4399880
 102.4160670  50.1708570  46.9657860 102.1271410  50.5832550  45.5380870
  87.8044090  53.5152720  37.4701930  87.5191010  53.1508390  38.3080550
  87.7422950  52.7833180  36.8565070  91.2584760  62.0178660  34.2559520
  90.4847020  61.4776280  34.0958240  91.9879390  61.4985270  33.9177280
  97.4782680  52.4081980  34.1915300  96.6647290  51.9095150  34.1160610
  97.2844630  53.2480230  33.7751650 100.1931070  56.7801630  32.4877460
 101.0810690  57.0918860  32.3128800 100.1636160  55.9073880  32.0958040
  91.3022160  61.6859040  37.8938330  91.8200830  60.8827300  37.8395220
  90.8506180  61.6238180  38.7355160  96.1891660  62.9525320  33.1665630
  96.5307360  63.6967550  32.6708950  95.3604370  63.2656440  33.5290460
 102.4645340  58.0913470  31.9557320 102.3809060  58.5227690  31.1053760
 103.1839530  58.5511820  32.3884140 103.4932590  64.9455730  34.6839450
 102.8508750  64.2911350  34.9583170 103.1063250  65.3510820  33.9080120
  99.0719070  62.2741160  38.5311140  99.4242890  61.6769290  37.8712510
  98.1881400  61.9485390  38.7019390  95.1582350  63.0338850  35.9381550
  95.8453480  63.5808060  36.3189140  94.3714770  63.5779580  35.9731160
  94.4609560  60.0384880  35.5506910  94.9172340  60.8490130  35.7767100
  94.1097770  59.7208020  36.3825400  96.7642170  65.5491220  42.7799210
  97.4084390  65.7550600  43.4572630  97.1271610  64.7879620  42.3270060
  90.3621340  50.3822530  36.0229430  90.2335970  50.3740430  36.9714350
  89.5383360  50.7205620  35.6720440 101.8829970  63.8372190  31.2215800
 101.6567550  63.1202630  31.8140440 101.4926170  63.5884630  30.3837550
 101.4646220  61.7544130  32.8829960 101.1767920  62.2156820  33.6707840
 102.2598390  61.2941900  33.1514180  95.6400450  64.4009800  47.8700780
  95.3197320  63.6819040  48.4146470  94.9658810  65.0764870  47.9436840
  93.6814620  65.2470250  32.8133930  93.6724720  65.9799940  32.1978440
  92.7612980  65.0001830  32.9060890  89.2821260  60.4685140  33.5580690
  88.6749210  61.2084040  33.5675990  89.7570610  60.5584500  32.7318890
  98.8554050  54.6335960  43.2337580  99.2234870  53.8131170  43.5617150
  97.9952250  54.6937850  43.6493230 102.2216080  53.5892900  34.0425140
 101.5929240  53.6938570  33.3283370 101.7268000  53.8089680  34.8319020
  96.6674220  65.3098490  31.4759120  96.7686200  65.1062480  30.5461100
  95.7675960  65.0556770  31.6806900  94.1900110  55.8678850  35.4583020
  93.4816260  56.3365190  35.8996630  94.4744590  55.2100860  36.0928210
  98.2215540  52.5929510  36.8978810  98.0983320  52.6115640  35.9488320
  99.1700100  52.6408450  37.0177210 103.0222900  53.5043510  44.3003940
 102.5196500  54.2448910  44.6397750 103.8379560  53.8927510  43.9840730
 101.3144910  58.7476690  37.7465300 100.3735050  58.7626920  37.9212990
 101.6288980  57.9612650  38.1925600  90.7888020  68.0116750  39.0936690
  91.5250500  67.4632210  39.3645260  91.1728940  68.8772760  38.9542680
  87.6733500  64.0790320  34.9678200  86.7473280  64.3211460  34.9583610
  88.1389930  64.9064580  34.8462950  93.8990330  67.1847060  30.9162260
  94.6918940  67.4735890  30.4644050  93.3794680  66.7539230  30.2374740
 102.9520500  66.4117190  32.3399000 102.6662010  65.9982330  31.5253180
 102.7540050  67.3404900  32.2199520  94.4167730  62.4050470  30.7804610
  94.3118370  61.7902820  31.5065990  94.2491950  61.8816360  29.9967620
  97.6570460  61.4670500  31.3846600  97.1080560  61.9139800  32.0289340
  98.2789720  60.9619750  31.9084270  93.3245580  60.4261420  33.2811900
  93.7462000  60.2601290  34.1243290  93.4496420  59.6161650  32.7867040
  95.8373220  59.4499030  30.5289000  96.3578880  58.7348050  30.1630150
  96.4841620  60.0884900  30.8289510 100.8573230  58.2123590  47.8563220
 101.4394000  57.4575910  47.7683700 101.0335000  58.7431030  47.0794700
  91.9745300  53.3720340  46.1680170  91.8802170  52.7541090  45.4431040
  91.3942690  54.0986630  45.9410080  94.7406740  51.9293580  43.2007560
  94.2924040  51.9517840  42.3553110  94.1071940  51.5312600  43.7977860
  97.4830190  58.5564090  45.2057840  97.6026400  57.9605230  45.9452680
  98.3424190  58.5933780  44.7859140  94.2498960  55.0985440  46.4633660
  94.8398650  54.7901290  47.1511480  93.4319200  54.6265190  46.6193560
  99.0692390  54.7151250  46.6966680  98.3807910  54.0532790  46.6316670
  99.7898410  54.2689520  47.1415140  99.6992790  51.3102880  32.7556940
  99.9795080  50.4670780  33.1116360  98.9258520  51.5425990  33.2695690
  95.8535920  68.3652130  45.1964380  95.7794620  69.2687270  45.5036750
  94.9514760  68.0464030  45.1686450  94.2372210  52.5429890  31.2004140
  93.8894210  51.8653880  30.6206590  94.4384980  52.0819400  32.0147530
  96.4021250  67.5310640  32.8190740  97.2972040  67.8695610  32.8409500
  96.4338880  66.8090050  32.1915020  87.2563210  65.6926720  38.4998000
  87.5866220  64.8247780  38.2676640  87.6854210  65.8985240  39.3302960
  91.8525130  64.0235730  36.1599970  91.5520670  63.9000700  37.0603880
  91.7462620  63.1644320  35.7515700 104.6217050  63.8032130  30.8626650
 103.7910010  63.8708780  31.3333880 104.7988880  64.6936250  30.5593510
 104.0773510  60.5479610  33.3660850 104.8392420  61.1176260  33.4720540
 104.0927880  59.9806810  34.1369160 105.0833480  61.4029710  38.2102780
 105.4542310  60.6197030  37.8038750 105.7235410  62.0918810  38.0320080
 104.1292680  60.8413980  30.5233370 104.4041520  61.7492860  30.3952590
 103.9403420  60.7776510  31.4595360 100.5268290  53.8658830  31.8187000
 100.9453170  53.6789810  30.9783660 100.2204350  53.0137880  32.1289930
 104.0258020  58.7782970  35.5162800 103.6501620  58.0110900  35.0844090
 103.2961140  59.1605670  36.0037730 101.8545710  53.1510920  47.9282020
 102.7315890  53.1594320  48.3116020 101.8666550  52.4141760  47.3174370
 103.3008980  57.0040460  38.8170040 103.8246460  56.5103110  38.1860210
 103.8868400  57.1390820  39.5617610 103.4798700  57.0880330  42.3389590
 102.5301410  57.0543870  42.4534580 103.6611710  57.9980440  42.1039360
  88.9817300  51.3921340  30.4890870  89.7045430  51.9330280  30.8072090
  89.2541820  51.1184760  29.6132410 102.7908950  56.2613810  34.7562450
 103.2868070  56.0284680  35.5411330 102.5925020  55.4225650  34.3400090
  88.6709490  50.6427530  40.3913490  89.3185680  50.0924910  39.9508650
  89.0911330  50.8970680  41.2129300 104.2196110  54.8974760  37.2900130
 104.1095390  54.7430800  38.2282400 104.9803700  54.3695700  37.0475540
 102.5661830  50.8368890  43.7483130 103.2034050  51.4503030  44.1142320
 102.7136720  50.8729550  42.8032360 105.1086380  52.7282680  30.5306270
 106.0335690  52.5963860  30.3224560 105.0862170  52.8075500  31.4842720
 105.1824870  53.4993340  33.1562980 104.3876370  53.4338460  33.6855890
 105.3868150  54.4343980  33.1448330  88.4241490  50.7983200  43.1338810
  88.0756310  51.2547020  43.8996990  88.0929190  49.9040330  43.2161240
  95.9366310  51.9895080  46.6558230  95.8755200  52.5816910  47.4053640
  96.8766690  51.8821040  46.5108490  98.5740870  51.6465140  46.2950520
  99.1881280  51.9644430  45.6331600  99.1190430  51.1613730  46.9146380
  99.3148910  50.2097280  42.6219810  98.4408750  50.5432390  42.4192740
  99.2059660  49.7370460  43.4471680 100.2220890  52.4168150  44.0061530
  99.8934250  51.6019910  43.6263260 101.1703190  52.3737960  43.8827220
  93.1051220  66.4968430  40.1547230  93.6216240  65.8855790  39.6295490
  93.7548600  66.9997210  40.6458240  95.8446720  67.3876920  40.9816210
  96.1324530  67.1331220  40.1049220  96.3569940  66.8354280  41.5721780
  97.0623730  51.1267120  41.5612720  96.2795520  51.6012620  41.8409480
  96.7686660  50.2221950  41.4525900 101.6144800  51.8290220  39.6061810
 102.0552890  51.7735320  38.7583410 101.3452390  52.7448230  39.6771990
 103.4783370  51.4605460  37.6170630 103.4171770  50.5166680  37.4701650
 104.2575400  51.5685550  38.1624090  88.4064140  51.4314600  34.0826440
  89.1643500  51.5443480  33.5090470  87.9441310  52.2683800  34.0369870
  94.9477950  53.5453870  37.0728750  94.1352460  53.1710760  36.7324630
  95.4519590  52.7898950  37.3749940  99.4502930  50.2096320  38.3111820
 100.0532300  50.7816530  38.7860340  98.7095920  50.7735760  38.0885720
 102.5937530  50.6117880  33.5852100 102.7888160  51.5101330  33.8519530
 101.8067400  50.3804960  34.0785050  89.3898820  66.2931050  34.0244720
  88.8646440  66.6739080  33.3206680  89.3143400  66.9181820  34.7454430
  90.7789290  51.9578650  32.6228410  91.3082050  51.1708450  32.4936360
  91.4117610  52.6369840  32.8563940  92.9727130  51.6953790  35.6773800
  92.3429870  50.9941100  35.8443930  92.4332270  52.4557920  35.4606960
  95.9119080  68.3093020  48.3484410  96.8386390  68.0737290  48.3920370
  95.8969510  69.1365020  47.8670440 104.1464140  67.8518590  35.3458660
 104.3216330  67.1656330  34.7019580 103.4485710  68.3765640  34.9535330
  91.9891790  68.2413430  32.8993970  92.7210610  67.9572710  32.3517860
  92.2485460  68.0026710  33.7893350  99.6998150  50.3891350  48.6906760
  99.5863600  50.7085960  49.5858280 100.5167890  50.7903860  48.3944040
  98.6056300  58.4083820  19.0541500  98.5250350  57.4938430  18.7833210
  98.1920720  58.9050890  18.3481210  96.7374340  60.1862840  20.9350770
  95.9616440  59.7063280  21.2249340  97.3887270  59.5068490  20.7606930
 100.7581770  64.5923030  19.7149900 100.2963300  63.8210270  20.0437070
 101.5707320  64.6189100  20.2202350  89.1632120  55.4584540  15.5968920
  88.2748820  55.8000510  15.4948800  89.4473310  55.2584860  14.7049750
  96.1783330  62.8620030  20.9420930  96.1091610  61.9209970  20.7810060
  96.9403190  62.9521440  21.5143500  97.2088500  55.6690410  21.1689860
  97.5853320  54.7962290  21.0563530  97.1108010  56.0049110  20.2780300
  91.3393510  54.0416040  16.6307300  91.4460260  54.9419770  16.9376060
  90.4285870  53.9934010  16.3401950 100.9912620  53.1640850  18.1018200
 101.8122240  52.6737420  18.1443680 101.0246700  53.7538510  18.8550040
  88.9876670  55.9635050  21.8759890  89.6686780  56.2273420  22.4947290
  88.6724720  55.1235920  22.2097900  93.1801240  57.0102410  20.9632480
  93.6879460  57.5083380  21.6037500  93.7114480  56.2337610  20.7871840
 105.2812170  55.1807600  24.6661830 104.5764340  55.5689310  24.1476940
 105.5470090  55.8757890  25.2682760  91.4637340  51.6500970  25.2295900
  91.4655780  52.1673360  24.4241800  90.6341650  51.1731150  25.2065830
  97.8508430  61.7620280  16.7285800  97.2325700  62.2269730  16.1648520
  98.3631680  62.4547760  17.1455310  92.7140190  61.2896150  23.4069400
  92.3809570  61.9165070  24.0490470  92.8906870  61.8158030  22.6271070
 101.2274100  55.1041230  20.8745740 100.5229670  55.3926120  21.4548850
 101.5886260  55.9141340  20.5145300  91.1452670  53.3610930  23.2366350
  91.4869480  54.2052980  22.9420220  90.2068480  53.5094670  23.3531690
  87.2191630  62.4476810  14.1025430  86.8419610  62.9363910  13.3710330
  87.4764700  63.1202090  14.7331960 104.2961020  54.5496020  21.2654950
 103.3485930  54.5835000  21.3970380 104.6211010  55.3634970  21.6504310
  94.8280560  50.8493200  19.5610940  95.1355540  50.2940090  18.8446440
  93.8981260  50.9837660  19.3783930 100.3795620  66.5660490  21.8518400
 100.3922780  66.1622780  20.9840660  99.8270840  67.3407780  21.7479830
 101.6741040  63.2876710  16.9408570 101.5637370  62.3451040  17.0657990
 101.6709290  63.6492350  17.8271330  99.7781060  61.4690330  23.1801010
 100.1949850  61.2550440  22.3454470 100.5020880  61.7263120  23.7509630
  97.2161320  58.9142030  16.2971060  96.2890600  58.8479410  16.5259530
  97.3686140  59.8522160  16.1826300  97.2030400  55.1859030  13.2938220
  96.2634070  55.3472990  13.3790680  97.5213660  55.9044710  12.7474210
 103.7243160  59.8677550  23.2717250 102.8961790  59.9370640  22.7967380
 104.3193640  60.4531860  22.8033080 101.2458610  60.4762330  16.8006310
 100.6271030  60.1381880  16.1532610 101.2283060  59.8322090  17.5085500
 100.6885170  56.6546870  24.2172120 100.2756350  57.4800580  24.4712110
  99.9561120  56.0691910  24.0248480  92.8217960  59.4406770  19.0790790
  92.4174960  58.7284020  18.5836690  92.9081080  59.0960010  19.9678830
  91.5346580  56.2149980  22.8589830  92.0861170  56.3245320  22.0843080
  92.0490090  56.5887580  23.5745060  99.4223310  59.7149140  13.8079060
  99.8616590  58.8771570  13.6616880 100.1351730  60.3478540  13.8943200
  97.5318690  64.6545210  17.7760300  97.9714600  65.3969540  17.3615690
  97.4705580  64.8971780  18.6999260 103.0040450  50.9691950  12.1220100
 102.6913110  51.0618780  13.0219170 103.7652920  51.5472980  12.0717530
  89.5222590  58.3351750  16.5797440  89.4020190  59.0613840  15.9678710
  89.2123480  57.5654660  16.1025350 104.9584480  66.4618140  29.9744490
 105.4344200  66.9401030  30.6533570 105.5791640  66.3935630  29.2489990
 104.3617730  63.6530990  27.1344500 104.4880790  63.4142870  26.2161680
 104.4039110  62.8215530  27.6066580  99.9015000  65.1501890  13.6921310
  99.2080160  65.1479180  13.0323590 100.6437860  64.7261210  13.2615480
 104.2141740  55.7063450  28.0994240 103.5986010  56.2143120  27.5709700
 103.8938160  54.8061780  28.0420180  91.9886250  51.6786820  19.9621110
  91.5454400  52.4596360  19.6305630  92.5471240  52.0016710  20.6692050
  96.2756060  54.5455340  25.5656430  95.8135430  54.7538360  26.3776370
  95.8734170  53.7314690  25.2627100 101.2760570  55.7664290  26.6953090
 100.4254160  55.4670040  27.0162160 101.1162360  56.0106300  25.7836910
  98.3710280  57.2666040  28.7951880  98.6963690  56.4329790  28.4554110
  99.1590610  57.7894560  28.9430210  95.1045070  51.2997520  14.8426940
  94.4799250  51.2957390  15.5680250  95.0175190  50.4328480  14.4462910
  94.0262150  52.2234150  21.8210710  94.3234480  53.1296980  21.7402730
  94.5747710  51.7352930  21.2070280  91.7800470  56.8020390  17.6902360
  91.5541390  56.5857560  18.5948980  90.9993000  57.2348850  17.3448330
  99.0098230  56.8083760  16.2893010  98.4107120  57.5319560  16.1056630
  99.5577840  56.7460540  15.5069460  97.6163100  55.4447300  18.3196290
  98.0092670  55.7619500  17.5064980  97.9779950  54.5659180  18.4340810
  89.3510220  54.1119640  26.5096410  88.9573610  54.9594850  26.7169190
  88.6628620  53.4746010  26.7005050  95.9255270  54.1954610  29.5793150
  95.2353590  54.0026810  30.2139240  96.6687570  54.4789250  30.1117450
  86.6527270  52.0348100  20.5426490  86.3640320  52.6050960  21.2551470
  87.3973030  51.5552550  20.9057720  86.8397500  55.9768220  11.7529210
  86.7572170  56.9198980  11.8944200  86.4880560  55.8343130  10.8741560
  98.2018240  58.0353050  22.4147070  97.4699360  58.5439860  22.7637170
  97.8042580  57.2183030  22.1135850  94.6395630  54.7107250  20.8199560
  94.6431690  54.2697200  19.9704100  95.5346750  55.0324580  20.9271380
  90.4898010  54.5933740  19.7793770  90.1498060  55.0708970  20.5360820
  89.7275330  54.1398860  19.4194870  94.7015780  55.7119330  13.8106320
  94.8228600  55.6705810  14.7592140  94.3164290  56.5743480  13.6553050
  98.6644150  53.4886730  21.8270010  98.6816890  53.9395380  22.6711860
  98.4159730  52.5892370  22.0403450  93.7137280  58.0220470  13.2089620
  93.1454180  57.5738720  12.5825530  94.4226280  58.3813250  12.6754770
 102.0914900  50.9018910  27.6656390 102.4160670  50.1708570  28.1914370
 102.1271410  50.5832550  26.7637380  94.9403600  58.7709030  22.5664970
  95.3073730  58.2967600  23.3126310  94.7508660  59.6450600  22.9073310
  87.8044090  53.5152720  18.6958440  87.5191010  53.1508390  19.5337060
  87.7422950  52.7833180  18.0821580  92.7302970  57.8117670  24.8849180
  92.4260040  58.6909650  25.1099540  93.6849430  57.8717460  24.9206620
  91.2584760  62.0178660  15.4816030  90.4847020  61.4776280  15.3214750
  91.9879390  61.4985270  15.1433790 102.0172740  61.0144020  21.2742420
 102.7371860  61.5099310  20.8838530 101.8154560  60.3361910  20.6296290
  97.4782680  52.4081980  15.4171810  96.6647290  51.9095150  15.3417120
  97.2844630  53.2480230  15.0008160  97.3991540  61.0853080  27.1611420
  97.3328850  60.1648750  26.9069010  96.7696680  61.1828520  27.8756060
 100.1931070  56.7801630  13.7133970 101.0810690  57.0918860  13.5385310
 100.1636160  55.9073880  13.3214550  96.1891660  62.9525320  14.3922140
  96.5307360  63.6967550  13.8965460  95.3604370  63.2656440  14.7546970
 102.4645340  58.0913470  13.1813830 102.3809060  58.5227690  12.3310270
 103.1839530  58.5511820  13.6140650 103.5419480  60.5480990  26.2583800
 102.8167670  61.1409770  26.0613190 104.0694940  60.5404530  25.4597170
 103.4932590  64.9455730  15.9095960 102.8508750  64.2911350  16.1839680
 103.1063250  65.3510820  15.1336630  99.0719070  62.2741160  19.7567650
  99.4242890  61.6769290  19.0969020  98.1881400  61.9485390  19.9275900
  95.1582350  63.0338850  17.1638060  95.8453480  63.5808060  17.5445650
  94.3714770  63.5779580  17.1987670  87.2974750  58.6511670  12.6555140
  88.1669600  58.9336470  12.9391060  86.8065070  59.4647540  12.5403950
  94.4609560  60.0384880  16.7763420  94.9172340  60.8490130  17.0023610
  94.1097770  59.7208020  17.6081910  90.3621340  50.3822530  17.2485940
  90.2335970  50.3740430  18.1970860  89.5383360  50.7205620  16.8976950
 101.8829970  63.8372190  12.4472310 101.6567550  63.1202630  13.0396950
 101.4926170  63.5884630  11.6094060  87.6646000  67.8639050  13.2216770
  88.0243640  68.4628390  12.5674040  87.5238340  68.4098940  13.9951800
  87.3615270  52.1413650  26.7092640  86.6473790  52.3410570  27.3145250
  87.7810310  51.3653220  27.0807440 101.4646220  61.7544130  14.1086470
 101.1767920  62.2156820  14.8964350 102.2598390  61.2941900  14.3770690
  93.6814620  65.2470250  14.0390440  93.6724720  65.9799940  13.4234950
  92.7612980  65.0001830  14.1317400  89.2821260  60.4685140  14.7837200
  88.6749210  61.2084040  14.7932500  89.7570610  60.5584500  13.9575400
  98.8554050  54.6335960  24.4594090  99.2234870  53.8131170  24.7873660
  97.9952250  54.6937850  24.8749740 102.2216080  53.5892900  15.2681650
 101.5929240  53.6938570  14.5539880 101.7268000  53.8089680  16.0575530
  96.6674220  65.3098490  12.7015630  96.7686200  65.1062480  11.7717610
  95.7675960  65.0556770  12.9063410  94.1900110  55.8678850  16.6839530
  93.4816260  56.3365190  17.1253140  94.4744590  55.2100860  17.3184720
  95.8156040  57.2875550  24.6832060  96.3141290  57.7621370  25.3483910
  95.9578990  56.3639070  24.8902090  98.2215540  52.5929510  18.1235320
  98.0983320  52.6115640  17.1744830  99.1700100  52.6408450  18.2433720
  92.3935130  54.1763930  14.0590240  93.2425660  54.6134080  13.9930430
  92.0266400  54.4884190  14.8862300 103.0222900  53.5043510  25.5260450
 102.5196500  54.2448910  25.8654260 103.8379560  53.8927510  25.2097240
 101.3144910  58.7476690  18.9721810 100.3735050  58.7626920  19.1469500
 101.6288980  57.9612650  19.4182110  91.2926550  60.4296290  12.5325770
  92.0589820  60.3177650  13.0951200  91.3701240  59.7334260  11.8802540
  89.9873310  57.8621360  13.2158660  90.0676900  56.9148870  13.3276060
  90.8793060  58.1928240  13.3219320  90.7888020  68.0116750  20.3193200
  91.5250500  67.4632210  20.5901770  91.1728940  68.8772760  20.1799190
  98.6310930  63.3042690  29.4554190  98.0249090  63.3274290  28.7149940
  98.3265040  62.5725730  29.9921440 102.9520500  66.4117190  13.5655510
 102.6662010  65.9982330  12.7509690 102.7540050  67.3404900  13.4456030
  94.4167730  62.4050470  12.0061120  94.3118370  61.7902820  12.7322500
  94.2491950  61.8816360  11.2224130  94.5682050  61.0907270  27.9850350
  93.8027720  61.6592270  27.9005020  94.7498010  60.7983480  27.0918580
  97.6570460  61.4670500  12.6103110  97.1080560  61.9139800  13.2545850
  98.2789720  60.9619750  13.1340780 101.7105400  62.8212600  28.5425370
 102.4514870  63.1588360  28.0392830 100.9478080  62.9904660  27.9895140
  93.3245580  60.4261420  14.5068410  93.7462000  60.2601290  15.3499800
  93.4496420  59.6161650  14.0123550  95.8373220  59.4499030  11.7545510
  96.3578880  58.7348050  11.3886660  96.4841620  60.0884900  12.0546020
 100.3851060  60.8727430  27.0780580 100.7992080  61.0272510  27.9271000
  99.4502060  60.9982650  27.2406360 100.8573230  58.2123590  29.0819730
 101.4394000  57.4575910  28.9940210 101.0335000  58.7431030  28.3051210
  91.9745300  53.3720340  27.3936680  91.8802170  52.7541090  26.6687550
  91.3942690  54.0986630  27.1666590  94.7406740  51.9293580  24.4264070
  94.2924040  51.9517840  23.5809620  94.1071940  51.5312600  25.0234370
  95.1466290  60.8247910  25.0476510  95.5654400  61.6680640  24.8752750
  94.2274920  60.9619950  24.8183290  97.4830190  58.5564090  26.4314350
  97.6026400  57.9605230  27.1709190  98.3424190  58.5933780  26.0115650
  99.8218090  59.1101280  25.0076860  99.2953310  59.6343900  24.4042000
 100.1649430  59.7428670  25.6386590  92.2204480  56.4994650  11.4526570
  92.0193540  55.6362010  11.8139910  92.0496530  56.4128010  10.5148170
  99.0692390  54.7151250  27.9223190  98.3807910  54.0532790  27.8573180
  99.7898410  54.2689520  28.3671650  99.6992790  51.3102880  13.9813450
  99.9795080  50.4670780  14.3372870  98.9258520  51.5425990  14.4952200
  91.0187280  53.5995270  11.4404450  91.3213180  53.6062700  10.5323600
  91.7581870  53.2493130  11.9372110  94.2372210  52.5429890  12.4260650
  93.8894210  51.8653880  11.8463100  94.4384980  52.0819400  13.2404040
  90.0417410  62.9037690  12.2734250  90.4792280  63.4467360  12.9291830
  90.5265140  62.0784640  12.2830590  91.8525130  64.0235730  17.3856480
  91.5520670  63.9000700  18.2860390  91.7462620  63.1644320  16.9772210
  87.7453420  66.5597310  22.4636140  87.3084410  66.7398110  23.2960290
  88.3131100  67.3171930  22.3217860 104.6217050  63.8032130  12.0883160
 103.7910010  63.8708780  12.5590390 104.7988880  64.6936250  11.7850020
 104.0773510  60.5479610  14.5917360 104.8392420  61.1176260  14.6977050
 104.0927880  59.9806810  15.3625670 105.0833480  61.4029710  19.4359290
 105.4542310  60.6197030  19.0295260 105.7235410  62.0918810  19.2576590
 102.0667240  62.7866290  24.8489610 101.2527080  63.2163450  25.1115400
 102.4741440  63.3984700  24.2358660 104.1292680  60.8413980  11.7489880
 104.4041520  61.7492860  11.6209100 103.9403420  60.7776510  12.6851870
 100.5268290  53.8658830  13.0443510 100.9453170  53.6789810  12.2040170
 100.2204350  53.0137880  13.3546440 104.0258020  58.7782970  16.7419310
 103.6501620  58.0110900  16.3100600 103.2961140  59.1605670  17.2294240
 103.4157640  57.9254490  26.3758830 103.1843730  57.6967240  25.4756780
 103.6762190  58.8454040  26.3303720 101.8545710  53.1510920  29.1538530
 102.7315890  53.1594320  29.5372530 101.8666550  52.4141760  28.5430880
  86.7915930  56.2816470  14.7650350  85.8880010  56.5446670  14.5902010
  87.2756550  56.5527640  13.9850310 103.3008980  57.0040460  20.0426550
 103.8246460  56.5103110  19.4116720 103.8868400  57.1390820  20.7874120
 103.4798700  57.0880330  23.5646100 102.5301410  57.0543870  23.6791090
 103.6611710  57.9980440  23.3295870  89.3343140  55.3382010  12.6744730
  90.0434840  54.9165230  12.1892010  88.6183080  55.4057240  12.0428080
  88.9817300  51.3921340  11.7147380  89.7045430  51.9330280  12.0328600
  89.2541820  51.1184760  10.8388920 102.7908950  56.2613810  15.9818960
 103.2868070  56.0284680  16.7667840 102.5925020  55.4225650  15.5656600
  88.6709490  50.6427530  21.6170000  89.3185680  50.0924910  21.1765160
  89.0911330  50.8970680  22.4385810 104.2196110  54.8974760  18.5156640
 104.1095390  54.7430800  19.4538910 104.9803700  54.3695700  18.2732050
 102.5661830  50.8368890  24.9739640 103.2034050  51.4503030  25.3398830
 102.7136720  50.8729550  24.0288870 105.1086380  52.7282680  11.7562780
 106.0335690  52.5963860  11.5481070 105.0862170  52.8075500  12.7099230
 105.1824870  53.4993340  14.3819490 104.3876370  53.4338460  14.9112400
 105.3868150  54.4343980  14.3704840 102.1243290  67.5384890  18.3757880
 102.7202360  67.2169460  17.6992300 102.3821440  67.0656710  19.1671150
  88.4241490  50.7983200  24.3595320  88.0756310  51.2547020  25.1253500
  88.0929190  49.9040330  24.4417750  95.9366310  51.9895080  27.8814740
  95.8755200  52.5816910  28.6310150  96.8766690  51.8821040  27.7365000
  98.5740870  51.6465140  27.5207030  99.1881280  51.9644430  26.8588110
  99.1190430  51.1613730  28.1402890  89.0962130  50.3259400  27.6346090
  89.6445120  50.1447450  26.8712200  89.1617440  49.5353510  28.1702400
  89.8693890  66.9165050  25.6446290  89.2754210  66.7849750  26.3836330
  89.8617730  66.0803190  25.1788390  99.3148910  50.2097280  23.8476320
  98.4408750  50.5432390  23.6449250  99.2059660  49.7370460  24.6728190
 100.2220890  52.4168150  25.2318040  99.8934250  51.6019910  24.8519770
 101.1703190  52.3737960  25.1083730  89.5006120  64.2823430  24.5954330
  88.7740180  63.6628720  24.5280280  89.5615270  64.6764040  23.7252410
  97.0623730  51.1267120  22.7869230  96.2795520  51.6012620  23.0665990
  96.7686660  50.2221950  22.6782410 101.6144800  51.8290220  20.8318320
 102.0552890  51.7735320  19.9839920 101.3452390  52.7448230  20.9028500
 103.4783370  51.4605460  18.8427140 103.4171770  50.5166680  18.6958160
 104.2575400  51.5685550  19.3880600  87.7836120  67.5997820  17.8051090
  87.6158160  66.9668500  18.5032980  86.9170630  67.8057220  17.4545280
  88.4064140  51.4314600  15.3082950  89.1643500  51.5443480  14.7346980
  87.9441310  52.2683800  15.2626380  94.9477950  53.5453870  18.2985260
  94.1352460  53.1710760  17.9581140  95.4519590  52.7898950  18.6006450
  99.4502930  50.2096320  19.5368330 100.0532300  50.7816530  20.0116850
  98.7095920  50.7735760  19.3142230 102.5937530  50.6117880  14.8108610
 102.7888160  51.5101330  15.0776040 101.8067400  50.3804960  15.3041560
  89.3898820  66.2931050  15.2501230  88.8646440  66.6739080  14.5463190
  89.3143400  66.9181820  15.9710940  90.7789290  51.9578650  13.8484920
  91.3082050  51.1708450  13.7192870  91.4117610  52.6369840  14.0820450
  92.9727130  51.6953790  16.9030310  92.3429870  50.9941100  17.0700440
  92.4332270  52.4557920  16.6863470 104.1464140  67.8518590  16.5715170
 104.3216330  67.1656330  15.9276090 103.4485710  68.3765640  16.1791840
  93.0982690  50.9737770  29.3382800  92.8166960  51.4771370  28.5743620
  93.4802390  50.1759520  28.9724930  91.1506580  64.3578160  14.1296810
  90.5215460  64.8263260  14.6782640  91.2654410  63.5127380  14.5643000
  99.6998150  50.3891350  29.9163270  99.5863600  50.7085960  30.8114790
 100.5167890  50.7903860  29.6200550  96.7374340  60.1862840   2.1607280
  95.9616440  59.7063280   2.4505850  97.3887270  59.5068490   1.9863440
  90.7540170  60.4982650   3.0383040  89.9225050  60.2431360   3.4379550
  91.3621150  60.5693420   3.7740960  90.7341430  64.5322740   3.2341060
  91.0369470  63.6420480   3.0551280  91.4785020  65.0892960   3.0063310
  87.1265130  58.0590190   2.7065130  87.6981240  57.2912390   2.7068770
  87.1266670  58.3578950   1.7971740  96.1783330  62.8620030   2.1677440
  96.1091610  61.9209970   2.0066570  96.9403190  62.9521440   2.7400010
  88.3690000  53.4674550   4.4934060  88.1892840  52.5700300   4.7736820
  87.9670080  54.0146420   5.1681010  88.9876670  55.9635050   3.1016400
  89.6686780  56.2273420   3.7203800  88.6724720  55.1235920   3.4354410
  93.1801240  57.0102410   2.1888990  93.6879460  57.5083380   2.8294010
  93.7114480  56.2337610   2.0128350 105.2812170  55.1807600   5.8918340
 104.5764340  55.5689310   5.3733450 105.5470090  55.8757890   6.4939270
  91.4637340  51.6500970   6.4552410  91.4655780  52.1673360   5.6498310
  90.6341650  51.1731150   6.4322340  92.7140190  61.2896150   4.6325910
  92.3809570  61.9165070   5.2746980  92.8906870  61.8158030   3.8527580
 101.2274100  55.1041230   2.1002250 100.5229670  55.3926120   2.6805360
 101.5886260  55.9141340   1.7401810  91.1452670  53.3610930   4.4622860
  91.4869480  54.2052980   4.1676730  90.2068480  53.5094670   4.5788200
  91.9259290  63.2576950   6.4475090  92.5433290  63.9328030   6.1659540
  91.0652410  63.6664930   6.3562590 102.8436880  64.7216360   4.3629730
 102.1600400  65.3915470   4.3546400 103.3831170  64.9197010   3.5974590
 104.2961020  54.5496020   2.4911460 103.3485930  54.5835000   2.6226890
 104.6211010  55.3634970   2.8760820 100.3795620  66.5660490   3.0774910
 100.3922780  66.1622780   2.2097170  99.8270840  67.3407780   2.9736340
  99.7781060  61.4690330   4.4057520 100.1949850  61.2550440   3.5710980
 100.5020880  61.7263120   4.9766140 103.7243160  59.8677550   4.4973760
 102.8961790  59.9370640   4.0223890 104.3193640  60.4531860   4.0289590
 100.6885170  56.6546870   5.4428630 100.2756350  57.4800580   5.6968620
  99.9561120  56.0691910   5.2504990  93.2899660  63.1274330   2.4686510
  92.9927950  62.5219800   1.7894290  94.2399480  63.1651640   2.3575870
  91.5346580  56.2149980   4.0846340  92.0861170  56.3245320   3.3099590
  92.0490090  56.5887580   4.8001570 101.3785270  66.7006200   6.1309610
 100.9015830  67.5078390   5.9382220 100.6947060  66.0484530   6.2835820
  92.3818090  62.8656020   9.1194310  91.4846620  63.0895990   9.3667710
  92.4070960  62.9890960   8.1705710  91.2089310  59.7369340   7.6951680
  91.0697080  60.6092140   8.0639080  90.3270670  59.3942150   7.5499620
  93.0069660  65.6791040   9.9036830  92.9785090  66.0833990   9.0365260
  92.8434630  64.7501400   9.7408430 104.9584480  66.4618140  11.2001000
 105.4344200  66.9401030  11.8790080 105.5791640  66.3935630  10.4746500
  87.1607960  61.5066890   3.6122590  87.2388380  61.6415660   2.6678310
  87.7749640  60.7982780   3.8050710 104.3617730  63.6530990   8.3601010
 104.4880790  63.4142870   7.4418190 104.4039110  62.8215530   8.8323090
  98.2234470  67.3558990   6.9295820  98.7379140  67.2667000   7.7318250
  97.3803550  67.7018690   7.2223730 104.2141740  55.7063450   9.3250750
 103.5986010  56.2143120   8.7966210 103.8938160  54.8061780   9.2676690
  87.2167480  62.5481060   6.1517050  87.3798520  62.0786420   5.3336420
  87.6819930  62.0404620   6.8165890  96.2756060  54.5455340   6.7912940
  95.8135430  54.7538360   7.6032880  95.8734170  53.7314690   6.4883610
 101.2760570  55.7664290   7.9209600 100.4254160  55.4670040   8.2418670
 101.1162360  56.0106300   7.0093420  98.3710280  57.2666040  10.0208390
  98.6963690  56.4329790   9.6810620  99.1590610  57.7894560  10.1686720
  94.0262150  52.2234150   3.0467220  94.3234480  53.1296980   2.9659240
  94.5747710  51.7352930   2.4326790  94.2199680  57.7005970   9.5819140
  94.1243280  56.7600700   9.4319540  95.0631660  57.9221040   9.1867210
  89.3510220  54.1119640   7.7352920  88.9573610  54.9594850   7.9425700
  88.6628620  53.4746010   7.9261560  95.9255270  54.1954610  10.8049660
  95.2353590  54.0026810  11.4395750  96.6687570  54.4789250  11.3373960
  86.6527270  52.0348100   1.7683000  86.3640320  52.6050960   2.4807980
  87.3973030  51.5552550   2.1314230  98.2018240  58.0353050   3.6403580
  97.4699360  58.5439860   3.9893680  97.8042580  57.2183030   3.3392360
  98.6644150  53.4886730   3.0526520  98.6816890  53.9395380   3.8968370
  98.4159730  52.5892370   3.2659960 102.0914900  50.9018910   8.8912900
 102.4160670  50.1708570   9.4170880 102.1271410  50.5832550   7.9893890
  88.7906460  61.9232490   8.3112860  88.4061250  61.2826160   8.9095820
  89.1018650  62.6268610   8.8807590  94.9403600  58.7709030   3.7921480
  95.3073730  58.2967600   4.5382820  94.7508660  59.6450600   4.1329820
  92.7302970  57.8117670   6.1105690  92.4260040  58.6909650   6.3356050
  93.6849430  57.8717460   6.1463130 102.0172740  61.0144020   2.4998930
 102.7371860  61.5099310   2.1095040 101.8154560  60.3361910   1.8552800
  97.3991540  61.0853080   8.3867930  97.3328850  60.1648750   8.1325520
  96.7696680  61.1828520   9.1012570  88.7866700  58.6520410   7.2577050
  88.4281640  59.3174260   7.8450390  88.4921260  57.8203960   7.6289670
  91.9879820  59.1104650  10.1416600  91.6879960  59.2561830   9.2444420
  92.7591060  58.5509940  10.0489990  97.3308270  63.9073650   8.1371730
  97.3452810  62.9754610   7.9190640  96.6233370  63.9933410   8.7761500
 103.5419480  60.5480990   7.4840310 102.8167670  61.1409770   7.2869700
 104.0694940  60.5404530   6.6853680  96.7642170  65.5491220   5.2312230
  97.4084390  65.7550600   5.9085650  97.1271610  64.7879620   4.7783080
  98.0374250  63.5523570   3.9489680  98.6796480  62.8516730   4.0621850
  98.5623600  64.3322010   3.7686570  99.8111870  64.3518470   7.1525740
 100.1468110  64.9385160   7.8303660  98.8912210  64.2211180   7.3823530
  87.3615270  52.1413650   7.9349150  86.6473790  52.3410570   8.5401760
  87.7810310  51.3653220   8.3063950  87.6487860  66.1293910   8.9215680
  87.7578980  65.1888650   8.7811070  86.9968420  66.3948660   8.2729410
  95.6400450  64.4009800  10.3213800  95.3197320  63.6819040  10.8659490
  94.9658810  65.0764870  10.3949860  98.8554050  54.6335960   5.6850600
  99.2234870  53.8131170   6.0130170  97.9952250  54.6937850   6.1006250
  95.8156040  57.2875550   5.9088570  96.3141290  57.7621370   6.5740420
  95.9578990  56.3639070   6.1158600 103.0222900  53.5043510   6.7516960
 102.5196500  54.2448910   7.0910770 103.8379560  53.8927510   6.4353750
  89.7946300  67.1962820  10.7335290  90.5959030  67.5174870  11.1470690
  89.2798120  66.8358400  11.4555200  98.6310930  63.3042690  10.6810700
  98.0249090  63.3274290   9.9406450  98.3265040  62.5725730  11.2177950
 100.0611300  67.0322980   9.2920110 101.0133050  66.9481000   9.2420350
  99.9139520  67.6964690   9.9653900  87.5144110  59.6836280   9.6771340
  88.0183130  59.1043560  10.2487570  86.7751530  59.9676510  10.2147710
  94.5682050  61.0907270   9.2106860  93.8027720  61.6592270   9.1261530
  94.7498010  60.7983480   8.3175090 101.7105400  62.8212600   9.7681880
 102.4514870  63.1588360   9.2649340 100.9478080  62.9904660   9.2151650
  89.5467190  57.8265870  10.5721410  89.5872530  57.5279740  11.4806640
  90.4012690  58.2273480  10.4128930  91.4873000  56.4057970   8.5395900
  90.9569460  55.9148920   7.9119240  92.1561070  56.8342170   8.0053830
 100.3851060  60.8727430   8.3037090 100.7992080  61.0272510   9.1527510
  99.4502060  60.9982650   8.4662870 100.8573230  58.2123590  10.3076240
 101.4394000  57.4575910  10.2196720 101.0335000  58.7431030   9.5307720
  91.9745300  53.3720340   8.6193190  91.8802170  52.7541090   7.8944060
  91.3942690  54.0986630   8.3923100  94.7406740  51.9293580   5.6520580
  94.2924040  51.9517840   4.8066130  94.1071940  51.5312600   6.2490880
  95.1466290  60.8247910   6.2733020  95.5654400  61.6680640   6.1009260
  94.2274920  60.9619950   6.0439800  97.4830190  58.5564090   7.6570860
  97.6026400  57.9605230   8.3965700  98.3424190  58.5933780   7.2372160
  99.8218090  59.1101280   6.2333370  99.2953310  59.6343900   5.6298510
 100.1649430  59.7428670   6.8643100  92.9973710  67.1300920   7.3890750
  92.4594800  67.8546980   7.0699450  93.2507670  66.6531260   6.5988090
  94.2498960  55.0985440   8.9146680  94.8398650  54.7901290   9.6024500
  93.4319200  54.6265190   9.0706580  99.0692390  54.7151250   9.1479700
  98.3807910  54.0532790   9.0829690  99.7898410  54.2689520   9.5928160
  95.8535920  68.3652130   7.6477400  95.7794620  69.2687270   7.9549770
  94.9514760  68.0464030   7.6199470  87.7453420  66.5597310   3.6892650
  87.3084410  66.7398110   4.5216800  88.3131100  67.3171930   3.5474370
 103.3815600  66.0614310   7.9769960 102.7817590  66.1206870   7.2333880
 103.5109500  65.1219290   8.1066810 102.0667240  62.7866290   6.0746120
 101.2527080  63.2163450   6.3371910 102.4741440  63.3984700   5.4615170
  88.6153780  59.4570110   4.5884870  88.9826820  59.3697510   5.4680890
  88.0464600  58.6936660   4.4891730 103.4157640  57.9254490   7.6015340
 103.1843730  57.6967240   6.7013290 103.6762190  58.8454040   7.5560230
  88.1669780  56.3679200   8.4943290  87.2725830  56.3345960   8.8337000
  88.7067330  56.5665990   9.2594540 101.8545710  53.1510920  10.3795040
 102.7315890  53.1594320  10.7629040 101.8666550  52.4141760   9.7687390
 103.4798700  57.0880330   4.7902610 102.5301410  57.0543870   4.9047600
 103.6611710  57.9980440   4.5552380  88.6709490  50.6427530   2.8426510
  89.3185680  50.0924910   2.4021670  89.0911330  50.8970680   3.6642320
 102.5661830  50.8368890   6.1996150 103.2034050  51.4503030   6.5655340
 102.7136720  50.8729550   5.2545380  88.4241490  50.7983200   5.5851830
  88.0756310  51.2547020   6.3510010  88.0929190  49.9040330   5.6674260
  90.0305860  63.9702800   9.7505020  89.9875490  63.5995710  10.6319480
  90.1616870  64.9080370   9.8906840  93.7311890  65.5262390   5.3514740
  93.4903250  65.7936950   4.4645260  94.6714530  65.6968120   5.4065600
  95.9366310  51.9895080   9.1071250  95.8755200  52.5816910   9.8566660
  96.8766690  51.8821040   8.9621510  98.5740870  51.6465140   8.7463540
  99.1881280  51.9644430   8.0844620  99.1190430  51.1613730   9.3659400
 104.9916050  67.5456770   6.1525380 104.4974330  67.9425640   5.4352510
 104.3829340  66.9205980   6.5462660  89.0962130  50.3259400   8.8602600
  89.6445120  50.1447450   8.0968710  89.1617440  49.5353510   9.3958910
  89.8693890  66.9165050   6.8702800  89.2754210  66.7849750   7.6092840
  89.8617730  66.0803190   6.4044900  99.3148910  50.2097280   5.0732830
  98.4408750  50.5432390   4.8705760  99.2059660  49.7370460   5.8984700
 100.2220890  52.4168150   6.4574550  99.8934250  51.6019910   6.0776280
 101.1703190  52.3737960   6.3340240 102.6755500  68.1880190   3.4312120
 102.2158470  68.9396000   3.0570140 102.0467960  67.4686660   3.3726920
  89.5006120  64.2823430   5.8210840  88.7740180  63.6628720   5.7536790
  89.5615270  64.6764040   4.9508920  93.1051220  66.4968430   2.6060250
  93.6216240  65.8855790   2.0808510  93.7548600  66.9997210   3.0971260
  95.8446720  67.3876920   3.4329230  96.1324530  67.1331220   2.5562240
  96.3569940  66.8354280   4.0234800  97.0623730  51.1267120   4.0125740
  96.2795520  51.6012620   4.2922500  96.7686660  50.2221950   3.9038920
  95.9119080  68.3093020  10.7997430  96.8386390  68.0737290  10.8433390
  95.8969510  69.1365020  10.3183460  93.0982690  50.9737770  10.5639310
  92.8166960  51.4771370   9.8000130  93.4802390  50.1759520  10.1981440
  99.6998150  50.3891350  11.1419780  99.5863600  50.7085960  12.0371300
 100.5167890  50.7903860  10.8457060 102.4796640  67.5362880  10.6238470
 103.2721960  67.0412110  10.4164430 102.7729790  68.2153020  11.2314080
  98.6056300  39.6340330 150.4745930  98.5250350  38.7194940 150.2037640
  98.1920720  40.1307400 149.7685640 100.7581770  45.8179540 151.1354330
 100.2963300  45.0466780 151.4641500 101.5707320  45.8445610 151.6406780
  89.1632120  36.6841050 147.0173350  88.2748820  37.0257020 146.9153230
  89.4473310  36.4841370 146.1254180  96.9845080  48.1037550 150.7558320
  96.3656520  48.5595050 150.1852760  97.8396860  48.2589010 150.3548020
  91.3393510  35.2672550 148.0511730  91.4460260  36.1676280 148.3580490
  90.4285870  35.2190520 147.7606380 100.9912620  34.3897360 149.5222630
 101.8122240  33.8993930 149.5648110 101.0246700  34.9795020 150.2754470
  97.8508430  42.9876790 148.1490230  97.2325700  43.4526240 147.5852950
  98.3631680  43.6804270 148.5659740  87.2191630  43.6733320 145.5229860
  86.8419610  44.1620420 144.7914760  87.4764700  44.3458600 146.1536390
  94.8280560  32.0749710 150.9815370  95.1355540  31.5196600 150.2650870
  93.8981260  32.2094170 150.7988360 101.6741040  44.5133220 148.3613000
 101.5637370  43.5707550 148.4862420 101.6709290  44.8748860 149.2475760
  97.2161320  40.1398540 147.7175490  96.2890600  40.0735920 147.9463960
  97.3686140  41.0778670 147.6030730  97.2030400  36.4115540 144.7142650
  96.2634070  36.5729500 144.7995110  97.5213660  37.1301220 144.1678640
 101.2458610  41.7018840 148.2210740 100.6271030  41.3638390 147.5737040
 101.2283060  41.0578600 148.9289930  92.8217960  40.6663280 150.4995220
  92.4174960  39.9540530 150.0041120  92.9081080  40.3216520 151.3883260
  99.4223310  40.9405650 145.2283490  99.8616590  40.1028080 145.0821310
 100.1351730  41.5735050 145.3147630  97.5318690  45.8801720 149.1964730
  97.9714600  46.6226050 148.7820120  97.4705580  46.1228290 150.1203690
 103.0040450  32.1948460 143.5424530 102.6913110  32.2875290 144.4423600
 103.7652920  32.7729490 143.4921960  89.5222590  39.5608260 148.0001870
  89.4020190  40.2870350 147.3883140  89.2123480  38.7911170 147.5229780
  88.4055590  44.4323590 150.2176690  87.9983670  44.5738180 149.3630290
  89.2968600  44.1483750 150.0147900 100.1988870  48.8670840 146.5527740
 100.0390010  48.5773780 147.4509570 100.0335580  48.0910970 146.0172970
  92.6777250  48.6469370 148.3299360  92.5019730  47.7304910 148.1167160
  91.8232990  49.0056660 148.5697160  99.9015000  46.3758400 145.1125740
  99.2080160  46.3735690 144.4528020 100.6437860  45.9517720 144.6819910
  99.4664930  48.0021110 149.1874230  99.9221880  47.2210490 149.5012850
  99.8057450  48.7127930 149.7315410  91.9886250  32.9043330 151.3825540
  91.5454400  33.6852870 151.0510060  92.5471240  33.2273220 152.0896480
  95.1045070  32.5254030 146.2631370  94.4799250  32.5213900 146.9884680
  95.0175190  31.6584990 145.8667340  91.7800470  38.0276900 149.1106790
  91.5541390  37.8114070 150.0153410  90.9993000  38.4605360 148.7652760
  99.0098230  38.0340270 147.7097440  98.4107120  38.7576070 147.5261060
  99.5577840  37.9717050 146.9273890  97.6163100  36.6703810 149.7400720
  98.0092670  36.9876010 148.9269410  97.9779950  35.7915690 149.8545240
  86.8397500  37.2024730 143.1733640  86.7572170  38.1455490 143.3148630
  86.4880560  37.0599640 142.2945990  94.6395630  35.9363760 152.2403990
  94.6431690  35.4953710 151.3908530  95.5346750  36.2581090 152.3475810
  90.4898010  35.8190250 151.1998200  90.1498060  36.2965480 151.9565250
  89.7275330  35.3655370 150.8399300  94.7015780  36.9375840 145.2310750
  94.8228600  36.8962320 146.1796570  94.3164290  37.7999990 145.0757480
  93.7137280  39.2476980 144.6294050  93.1454180  38.7995230 144.0029960
  94.4226280  39.6069760 144.0959200  87.8044090  34.7409230 150.1162870
  87.5191010  34.3764900 150.9541490  87.7422950  34.0089690 149.5026010
  91.2584760  43.2435170 146.9020460  90.4847020  42.7032790 146.7419180
  91.9879390  42.7241780 146.5638220  97.4782680  33.6338490 146.8376240
  96.6647290  33.1351660 146.7621550  97.2844630  34.4736740 146.4212590
 100.1931070  38.0058140 145.1338400 101.0810690  38.3175370 144.9589740
 100.1636160  37.1330390 144.7418980  91.3022160  42.9115550 150.5399270
  91.8200830  42.1083810 150.4856160  90.8506180  42.8494690 151.3816100
  96.1891660  44.1781830 145.8126570  96.5307360  44.9224060 145.3169890
  95.3604370  44.4912950 146.1751400 102.4645340  39.3169980 144.6018260
 102.3809060  39.7484200 143.7514700 103.1839530  39.7768330 145.0345080
 103.4932590  46.1712240 147.3300390 102.8508750  45.5167860 147.6044110
 103.1063250  46.5767330 146.5541060  99.0719070  43.4997670 151.1772080
  99.4242890  42.9025800 150.5173450  98.1881400  43.1741900 151.3480330
  95.1582350  44.2595360 148.5842490  95.8453480  44.8064570 148.9650080
  94.3714770  44.8036090 148.6192100  87.2974750  39.8768180 144.0759570
  88.1669600  40.1592980 144.3595490  86.8065070  40.6904050 143.9608380
  94.4609560  41.2641390 148.1967850  94.9172340  42.0746640 148.4228040
  94.1097770  40.9464530 149.0286340  90.3621340  31.6079040 148.6690370
  90.2335970  31.5996940 149.6175290  89.5383360  31.9462130 148.3181380
 101.8829970  45.0628700 143.8676740 101.6567550  44.3459140 144.4601380
 101.4926170  44.8141140 143.0298490  87.6646000  49.0895560 144.6421200
  88.0243640  49.6884900 143.9878470  87.5238340  49.6355450 145.4156230
 101.4646220  42.9800640 145.5290900 101.1767920  43.4413330 146.3168780
 102.2598390  42.5198410 145.7975120  93.6814620  46.4726760 145.4594870
  93.6724720  47.2056450 144.8439380  92.7612980  46.2258340 145.5521830
  89.2821260  41.6941650 146.2041630  88.6749210  42.4340550 146.2136930
  89.7570610  41.7841010 145.3779830 102.2216080  34.8149410 146.6886080
 101.5929240  34.9195080 145.9744310 101.7268000  35.0346190 147.4779960
  96.6674220  46.5355000 144.1220060  96.7686200  46.3318990 143.1922040
  95.7675960  46.2813280 144.3267840  94.1900110  37.0935360 148.1043960
  93.4816260  37.5621700 148.5457570  94.4744590  36.4357370 148.7389150
  98.2215540  33.8186020 149.5439750  98.0983320  33.8372150 148.5949260
  99.1700100  33.8664960 149.6638150  95.3092330  49.0541320 148.8167730
  95.5633830  49.0162710 147.8947100  94.3604810  48.9274650 148.8095980
  92.3935130  35.4020440 145.4794670  93.2425660  35.8390590 145.4134860
  92.0266400  35.7140700 146.3066730 101.3144910  39.9733200 150.3926240
 100.3735050  39.9883430 150.5673930 101.6288980  39.1869160 150.8386540
  91.2926550  41.6552800 143.9530200  92.0589820  41.5434160 144.5155630
  91.3701240  40.9590770 143.3006970  89.9873310  39.0877870 144.6363090
  90.0676900  38.1405380 144.7480490  90.8793060  39.4184750 144.7423750
  90.7888020  49.2373260 151.7397630  91.5250500  48.6888720 152.0106200
  91.1728940  50.1029270 151.6003620  87.6733500  45.3046830 147.6139140
  86.7473280  45.5467970 147.6044550  88.1389930  46.1321090 147.4923890
  93.8990330  48.4103570 143.5623200  94.6918940  48.6992400 143.1104990
  93.3794680  47.9795740 142.8835680 102.9520500  47.6373700 144.9859940
 102.6662010  47.2238840 144.1714120 102.7540050  48.5661410 144.8660460
  94.4167730  43.6306980 143.4265550  94.3118370  43.0159330 144.1526930
  94.2491950  43.1072870 142.6428560  97.6570460  42.6927010 144.0307540
  97.1080560  43.1396310 144.6750280  98.2789720  42.1876260 144.5545210
  93.3245580  41.6517930 145.9272840  93.7462000  41.4857800 146.7704230
  93.4496420  40.8418160 145.4327980  95.8373220  40.6755540 143.1749940
  96.3578880  39.9604560 142.8091090  96.4841620  41.3141410 143.4750450
  92.2204480  37.7251160 142.8731000  92.0193540  36.8618520 143.2344340
  92.0496530  37.6384520 141.9352600  99.6992790  32.5359390 145.4017880
  99.9795080  31.6927290 145.7577300  98.9258520  32.7682500 145.9156630
  91.0187280  34.8251780 142.8608880  91.3213180  34.8319210 141.9528030
  91.7581870  34.4749640 143.3576540  94.2372210  33.7686400 143.8465080
  93.8894210  33.0910390 143.2667530  94.4384980  33.3075910 144.6608470
  96.4021250  48.7567150 145.4651680  97.2972040  49.0952120 145.4870440
  96.4338880  48.0346560 144.8375960  90.0417410  44.1294200 143.6938680
  90.4792280  44.6723870 144.3496260  90.5265140  43.3041150 143.7035020
  87.2563210  46.9183230 151.1458940  87.5866220  46.0504290 150.9137580
  87.6854210  47.1241750 151.9763900  91.8525130  45.2492240 148.8060910
  91.5520670  45.1257210 149.7064820  91.7462620  44.3900830 148.3976640
 104.6217050  45.0288640 143.5087590 103.7910010  45.0965290 143.9794820
 104.7988880  45.9192760 143.2054450 104.0773510  41.7736120 146.0121790
 104.8392420  42.3432770 146.1181480 104.0927880  41.2063320 146.7830100
  87.5777850  40.2974050 150.2429450  86.9226690  40.0285690 149.5989150
  88.4155800  40.1878530 149.7931430 105.0833480  42.6286220 150.8563720
 105.4542310  41.8453540 150.4499690 105.7235410  43.3175320 150.6781020
 104.1292680  42.0670490 143.1694310 104.4041520  42.9749370 143.0413530
 103.9403420  42.0033020 144.1056300 100.5268290  35.0915340 144.4647940
 100.9453170  34.9046320 143.6244600 100.2204350  34.2394390 144.7750870
 104.0258020  40.0039480 148.1623740 103.6501620  39.2367410 147.7305030
 103.2961140  40.3862180 148.6498670  86.7915930  37.5072980 146.1854780
  85.8880010  37.7703180 146.0106440  87.2756550  37.7784150 145.4054740
 103.3008980  38.2296970 151.4630980 103.8246460  37.7359620 150.8321150
 103.8868400  38.3647330 152.2078550  89.3343140  36.5638520 144.0949160
  90.0434840  36.1421740 143.6096440  88.6183080  36.6313750 143.4632510
  88.9817300  32.6177850 143.1351810  89.7045430  33.1586790 143.4533030
  89.2541820  32.3441270 142.2593350 102.7908950  37.4870320 147.4023390
 103.2868070  37.2541190 148.1872270 102.5925020  36.6482160 146.9861030
 104.2196110  36.1231270 149.9361070 104.1095390  35.9687310 150.8743340
 104.9803700  35.5952210 149.6936480 105.1086380  33.9539190 143.1767210
 106.0335690  33.8220370 142.9685500 105.0862170  34.0332010 144.1303660
 105.1824870  34.7249850 145.8023920 104.3876370  34.6594970 146.3316830
 105.3868150  35.6600490 145.7909270 102.1243290  48.7641400 149.7962310
 102.7202360  48.4425970 149.1196730 102.3821440  48.2913220 150.5875580
 101.6144800  33.0546730 152.2522750 102.0552890  32.9991830 151.4044350
 101.3452390  33.9704740 152.3232930 103.4783370  32.6861970 150.2631570
 103.4171770  31.7423190 150.1162590 104.2575400  32.7942060 150.8085030
  87.7836120  48.8254330 149.2255520  87.6158160  48.1925010 149.9237410
  86.9170630  49.0313730 148.8749710  88.4064140  32.6571110 146.7287380
  89.1643500  32.7699990 146.1551410  87.9441310  33.4940310 146.6830810
  94.9477950  34.7710380 149.7189690  94.1352460  34.3967270 149.3785570
  95.4519590  34.0155460 150.0210880  99.4502930  31.4352830 150.9572760
 100.0532300  32.0073040 151.4321280  98.7095920  31.9992270 150.7346660
 102.5937530  31.8374390 146.2313040 102.7888160  32.7357840 146.4980470
 101.8067400  31.6061470 146.7245990  89.3898820  47.5187560 146.6705660
  88.8646440  47.8995590 145.9667620  89.3143400  48.1438330 147.3915370
  90.7789290  33.1835160 145.2689350  91.3082050  32.3964960 145.1397300
  91.4117610  33.8626350 145.5024880  92.9727130  32.9210300 148.3234740
  92.3429870  32.2197610 148.4904870  92.4332270  33.6814430 148.1067900
 104.1464140  49.0775100 147.9919600 104.3216330  48.3912840 147.3480520
 103.4485710  49.6022150 147.5996270  91.9891790  49.4669940 145.5454910
  92.7210610  49.1829220 144.9978800  92.2485460  49.2283220 146.4354290
  91.1506580  45.5834670 145.5501240  90.5215460  46.0519770 146.0987070
  91.2654410  44.7383890 145.9847430  98.6056300  39.6340330 131.7002440
  98.5250350  38.7194940 131.4294150  98.1920720  40.1307400 130.9942150
  96.7374340  41.4119350 133.5811710  95.9616440  40.9319790 133.8710280
  97.3887270  40.7325000 133.4067870  90.7540170  41.7239160 134.4587470
  89.9225050  41.4687870 134.8583980  91.3621150  41.7949930 135.1945390
 100.7581770  45.8179540 132.3610840 100.2963300  45.0466780 132.6898010
 101.5707320  45.8445610 132.8663290  90.7341430  45.7579250 134.6545490
  91.0369470  44.8676990 134.4755710  91.4785020  46.3149470 134.4267740
  89.1632120  36.6841050 128.2429860  88.2748820  37.0257020 128.1409740
  89.4473310  36.4841370 127.3510690  87.1265130  39.2846700 134.1269560
  87.6981240  38.5168900 134.1273200  87.1266670  39.5835460 133.2176170
  96.9845080  48.1037550 131.9814830  96.3656520  48.5595050 131.4109270
  97.8396860  48.2589010 131.5804530  96.1783330  44.0876540 133.5881870
  96.1091610  43.1466480 133.4271000  96.9403190  44.1777950 134.1604440
  88.3690000  34.6931060 135.9138490  88.1892840  33.7956810 136.1941250
  87.9670080  35.2402930 136.5885440  97.2088500  36.8946920 133.8150800
  97.5853320  36.0218800 133.7024470  97.1108010  37.2305620 132.9241240
  91.3393510  35.2672550 129.2768240  91.4460260  36.1676280 129.5837000
  90.4285870  35.2190520 128.9862890 100.9912620  34.3897360 130.7479140
 101.8122240  33.8993930 130.7904620 101.0246700  34.9795020 131.5010980
  88.9876670  37.1891560 134.5220830  89.6686780  37.4529930 135.1408230
  88.6724720  36.3492430 134.8558840  93.1801240  38.2358920 133.6093420
  93.6879460  38.7339890 134.2498440  93.7114480  37.4594120 133.4332780
 105.2812170  36.4064110 137.3122770 104.5764340  36.7945820 136.7937880
 105.5470090  37.1014400 137.9143700  91.4637340  32.8757480 137.8756840
  91.4655780  33.3929870 137.0702740  90.6341650  32.3987660 137.8526770
  97.8508430  42.9876790 129.3746740  97.2325700  43.4526240 128.8109460
  98.3631680  43.6804270 129.7916250  92.7140190  42.5152660 136.0530340
  92.3809570  43.1421580 136.6951410  92.8906870  43.0414540 135.2732010
 101.2274100  36.3297740 133.5206680 100.5229670  36.6182630 134.1009790
 101.5886260  37.1397850 133.1606240  91.1452670  34.5867440 135.8827290
  91.4869480  35.4309490 135.5881160  90.2068480  34.7351180 135.9992630
  91.9259290  44.4833460 137.8679520  92.5433290  45.1584540 137.5863970
  91.0652410  44.8921440 137.7767020  87.2191630  43.6733320 126.7486370
  86.8419610  44.1620420 126.0171270  87.4764700  44.3458600 127.3792900
 102.8436880  45.9472870 135.7834160 102.1600400  46.6171980 135.7750830
 103.3831170  46.1453520 135.0179020 104.2961020  35.7752530 133.9115890
 103.3485930  35.8091510 134.0431320 104.6211010  36.5891480 134.2965250
  94.8280560  32.0749710 132.2071880  95.1355540  31.5196600 131.4907380
  93.8981260  32.2094170 132.0244870 100.3795620  47.7917000 134.4979340
 100.3922780  47.3879290 133.6301600  99.8270840  48.5664290 134.3940770
 101.6741040  44.5133220 129.5869510 101.5637370  43.5707550 129.7118930
 101.6709290  44.8748860 130.4732270  99.7781060  42.6946840 135.8261950
 100.1949850  42.4806950 134.9915410 100.5020880  42.9519630 136.3970570
  97.2161320  40.1398540 128.9432000  96.2890600  40.0735920 129.1720470
  97.3686140  41.0778670 128.8287240  97.2030400  36.4115540 125.9399160
  96.2634070  36.5729500 126.0251620  97.5213660  37.1301220 125.3935150
 103.7243160  41.0934060 135.9178190 102.8961790  41.1627150 135.4428320
 104.3193640  41.6788370 135.4494020 101.2458610  41.7018840 129.4467250
 100.6271030  41.3638390 128.7993550 101.2283060  41.0578600 130.1546440
 100.6885170  37.8803380 136.8633060 100.2756350  38.7057090 137.1173050
  99.9561120  37.2948420 136.6709420  92.8217960  40.6663280 131.7251730
  92.4174960  39.9540530 131.2297630  92.9081080  40.3216520 132.6139770
  93.2899660  44.3530840 133.8890940  92.9927950  43.7476310 133.2098720
  94.2399480  44.3908150 133.7780300  91.5346580  37.4406490 135.5050770
  92.0861170  37.5501830 134.7304020  92.0490090  37.8144090 136.2206000
 101.3785270  47.9262710 137.5514040 100.9015830  48.7334900 137.3586650
 100.6947060  47.2741040 137.7040250  92.3818090  44.0912530 140.5398740
  91.4846620  44.3152500 140.7872140  92.4070960  44.2147470 139.5910140
  99.4223310  40.9405650 126.4540000  99.8616590  40.1028080 126.3077820
 100.1351730  41.5735050 126.5404140  91.2089310  40.9625850 139.1156110
  91.0697080  41.8348650 139.4843510  90.3270670  40.6198660 138.9704050
  97.5318690  45.8801720 130.4221240  97.9714600  46.6226050 130.0076630
  97.4705580  46.1228290 131.3460200  93.0069660  46.9047550 141.3241260
  92.9785090  47.3090500 140.4569690  92.8434630  45.9757910 141.1612860
 103.0040450  32.1948460 124.7681040 102.6913110  32.2875290 125.6680110
 103.7652920  32.7729490 124.7178470  89.5222590  39.5608260 129.2258380
  89.4020190  40.2870350 128.6139650  89.2123480  38.7911170 128.7486290
 104.9584480  47.6874650 142.6205430 105.4344200  48.1657540 143.2994510
 105.5791640  47.6192140 141.8950930  87.1607960  42.7323400 135.0327020
  87.2388380  42.8672170 134.0882740  87.7749640  42.0239290 135.2255140
  88.4055590  44.4323590 131.4433200  87.9983670  44.5738180 130.5886800
  89.2968600  44.1483750 131.2404410 104.3617730  44.8787500 139.7805440
 104.4880790  44.6399380 138.8622620 104.4039110  44.0472040 140.2527520
  98.2234470  48.5815500 138.3500250  98.7379140  48.4923510 139.1522680
  97.3803550  48.9275200 138.6428160  92.6777250  48.6469370 129.5555870
  92.5019730  47.7304910 129.3423670  91.8232990  49.0056660 129.7953670
  99.9015000  46.3758400 126.3382250  99.2080160  46.3735690 125.6784530
 100.6437860  45.9517720 125.9076420 104.2141740  36.9319960 140.7455180
 103.5986010  37.4399630 140.2170640 103.8938160  36.0318290 140.6881120
  87.2167480  43.7737570 137.5721480  87.3798520  43.3042930 136.7540850
  87.6819930  43.2661130 138.2370320  91.9886250  32.9043330 132.6082050
  91.5454400  33.6852870 132.2766570  92.5471240  33.2273220 133.3152990
  96.2756060  35.7711850 138.2117370  95.8135430  35.9794870 139.0237310
  95.8734170  34.9571200 137.9088040 101.2760570  36.9920800 139.3414030
 100.4254160  36.6926550 139.6623100 101.1162360  37.2362810 138.4297850
  98.3710280  38.4922550 141.4412820  98.6963690  37.6586300 141.1015050
  99.1590610  39.0151070 141.5891150  95.1045070  32.5254030 127.4887880
  94.4799250  32.5213900 128.2141190  95.0175190  31.6584990 127.0923850
  94.0262150  33.4490660 134.4671650  94.3234480  34.3553490 134.3863670
  94.5747710  32.9609440 133.8531220  91.7800470  38.0276900 130.3363300
  91.5541390  37.8114070 131.2409920  90.9993000  38.4605360 129.9909270
  99.0098230  38.0340270 128.9353950  98.4107120  38.7576070 128.7517570
  99.5577840  37.9717050 128.1530400  94.2199680  38.9262480 141.0023570
  94.1243280  37.9857210 140.8523970  95.0631660  39.1477550 140.6071640
  97.6163100  36.6703810 130.9657230  98.0092670  36.9876010 130.1525920
  97.9779950  35.7915690 131.0801750  89.3510220  35.3376150 139.1557350
  88.9573610  36.1851360 139.3630130  88.6628620  34.7002520 139.3465990
  95.9255270  35.4211120 142.2254090  95.2353590  35.2283320 142.8600180
  96.6687570  35.7045760 142.7578390  86.6527270  33.2604610 133.1887430
  86.3640320  33.8307470 133.9012410  87.3973030  32.7809060 133.5518660
  98.2018240  39.2609560 135.0608010  97.4699360  39.7696370 135.4098110
  97.8042580  38.4439540 134.7596790  94.6395630  35.9363760 133.4660500
  94.6431690  35.4953710 132.6165040  95.5346750  36.2581090 133.5732320
  90.4898010  35.8190250 132.4254710  90.1498060  36.2965480 133.1821760
  89.7275330  35.3655370 132.0655810  94.7015780  36.9375840 126.4567260
  94.8228600  36.8962320 127.4053080  94.3164290  37.7999990 126.3013990
  98.6644150  34.7143240 134.4730950  98.6816890  35.1651890 135.3172800
  98.4159730  33.8148880 134.6864390  93.7137280  39.2476980 125.8550560
  93.1454180  38.7995230 125.2286470  94.4226280  39.6069760 125.3215710
 102.0914900  32.1275420 140.3117330 102.4160670  31.3965080 140.8375310
 102.1271410  31.8089060 139.4098320  88.7906460  43.1489000 139.7317290
  88.4061250  42.5082670 140.3300250  89.1018650  43.8525120 140.3012020
  94.9403600  39.9965540 135.2125910  95.3073730  39.5224110 135.9587250
  94.7508660  40.8707110 135.5534250  87.8044090  34.7409230 131.3419380
  87.5191010  34.3764900 132.1798000  87.7422950  34.0089690 130.7282520
  92.7302970  39.0374180 137.5310120  92.4260040  39.9166160 137.7560480
  93.6849430  39.0973970 137.5667560  91.2584760  43.2435170 128.1276970
  90.4847020  42.7032790 127.9675690  91.9879390  42.7241780 127.7894730
 102.0172740  42.2400530 133.9203360 102.7371860  42.7355820 133.5299470
 101.8154560  41.5618420 133.2757230  97.4782680  33.6338490 128.0632750
  96.6647290  33.1351660 127.9878060  97.2844630  34.4736740 127.6469100
  97.3991540  42.3109590 139.8072360  97.3328850  41.3905260 139.5529950
  96.7696680  42.4085030 140.5217000 100.1931070  38.0058140 126.3594910
 101.0810690  38.3175370 126.1846250 100.1636160  37.1330390 125.9675490
  91.3022160  42.9115550 131.7655780  91.8200830  42.1083810 131.7112670
  90.8506180  42.8494690 132.6072610  96.1891660  44.1781830 127.0383080
  96.5307360  44.9224060 126.5426400  95.3604370  44.4912950 127.4007910
  88.7866700  39.8776920 138.6781480  88.4281640  40.5430770 139.2654820
  88.4921260  39.0460470 139.0494100  91.9879820  40.3361160 141.5621030
  91.6879960  40.4818340 140.6648850  92.7591060  39.7766450 141.4694420
  97.3308270  45.1330160 139.5576160  97.3452810  44.2011120 139.3395070
  96.6233370  45.2189920 140.1965930 103.5419480  41.7737500 138.9044740
 102.8167670  42.3666280 138.7074130 104.0694940  41.7661040 138.1058110
 103.4932590  46.1712240 128.5556900 102.8508750  45.5167860 128.8300620
 103.1063250  46.5767330 127.7797570  99.0719070  43.4997670 132.4028590
  99.4242890  42.9025800 131.7429960  98.1881400  43.1741900 132.5736840
  95.1582350  44.2595360 129.8099000  95.8453480  44.8064570 130.1906590
  94.3714770  44.8036090 129.8448610  94.4609560  41.2641390 129.4224360
  94.9172340  42.0746640 129.6484550  94.1097770  40.9464530 130.2542850
  96.7642170  46.7747730 136.6516660  97.4084390  46.9807110 137.3290080
  97.1271610  46.0136130 136.1987510  90.3621340  31.6079040 129.8946880
  90.2335970  31.5996940 130.8431800  89.5383360  31.9462130 129.5437890
  98.0374250  44.7780080 135.3694110  98.6796480  44.0773240 135.4826280
  98.5623600  45.5578520 135.1891000  99.8111870  45.5774980 138.5730170
 100.1468110  46.1641670 139.2508090  98.8912210  45.4467690 138.8027960
  87.6646000  49.0895560 125.8677710  88.0243640  49.6884900 125.2134980
  87.5238340  49.6355450 126.6412740  87.3615270  33.3670160 139.3553580
  86.6473790  33.5667080 139.9606190  87.7810310  32.5909730 139.7268380
  87.6487860  47.3550420 140.3420110  87.7578980  46.4145160 140.2015500
  86.9968420  47.6205170 139.6933840  95.6400450  45.6266310 141.7418230
  95.3197320  44.9075550 142.2863920  94.9658810  46.3021380 141.8154290
  93.6814620  46.4726760 126.6851380  93.6724720  47.2056450 126.0695890
  92.7612980  46.2258340 126.7778340  89.2821260  41.6941650 127.4298140
  88.6749210  42.4340550 127.4393440  89.7570610  41.7841010 126.6036340
  98.8554050  35.8592470 137.1055030  99.2234870  35.0387680 137.4334600
  97.9952250  35.9194360 137.5210680 102.2216080  34.8149410 127.9142590
 101.5929240  34.9195080 127.2000820 101.7268000  35.0346190 128.7036470
  96.6674220  46.5355000 125.3476570  96.7686200  46.3318990 124.4178550
  95.7675960  46.2813280 125.5524350  94.1900110  37.0935360 129.3300470
  93.4816260  37.5621700 129.7714080  94.4744590  36.4357370 129.9645660
  95.8156040  38.5132060 137.3293000  96.3141290  38.9877880 137.9944850
  95.9578990  37.5895580 137.5363030  98.2215540  33.8186020 130.7696260
  98.0983320  33.8372150 129.8205770  99.1700100  33.8664960 130.8894660
  92.3935130  35.4020440 126.7051180  93.2425660  35.8390590 126.6391370
  92.0266400  35.7140700 127.5323240 103.0222900  34.7300020 138.1721390
 102.5196500  35.4705420 138.5115200 103.8379560  35.1184020 137.8558180
 101.3144910  39.9733200 131.6182750 100.3735050  39.9883430 131.7930440
 101.6288980  39.1869160 132.0643050  91.2926550  41.6552800 125.1786710
  92.0589820  41.5434160 125.7412140  91.3701240  40.9590770 124.5263480
 103.3170490  47.1442050 133.2937010 103.4417910  47.9673220 133.7660820
 104.1836050  46.9332780 132.9461160  90.7888020  49.2373260 132.9654140
  91.5250500  48.6888720 133.2362710  91.1728940  50.1029270 132.8260130
  87.6733500  45.3046830 128.8395650  86.7473280  45.5467970 128.8301060
  88.1389930  46.1321090 128.7180400  89.7946300  48.4219330 142.1539720
  90.5959030  48.7431380 142.5675120  89.2798120  48.0614910 142.8759630
  93.8990330  48.4103570 124.7879710  94.6918940  48.6992400 124.3361500
  93.3794680  47.9795740 124.1092190  98.6310930  44.5299200 142.1015130
  98.0249090  44.5530800 141.3610880  98.3265040  43.7982240 142.6382380
 100.0611300  48.2579490 140.7124540 101.0133050  48.1737510 140.6624780
  99.9139520  48.9221200 141.3858330 102.9520500  47.6373700 126.2116450
 102.6662010  47.2238840 125.3970630 102.7540050  48.5661410 126.0916970
  87.5144110  40.9092790 141.0975770  88.0183130  40.3300070 141.6692000
  86.7751530  41.1933020 141.6352140  94.4167730  43.6306980 124.6522060
  94.3118370  43.0159330 125.3783440  94.2491950  43.1072870 123.8685070
  94.5682050  42.3163780 140.6311290  93.8027720  42.8848780 140.5465960
  94.7498010  42.0239990 139.7379520  97.6570460  42.6927010 125.2564050
  97.1080560  43.1396310 125.9006790  98.2789720  42.1876260 125.7801720
 101.7105400  44.0469110 141.1886310 102.4514870  44.3844870 140.6853770
 100.9478080  44.2161170 140.6356080  89.5467190  39.0522380 141.9925840
  89.5872530  38.7536250 142.9011070  90.4012690  39.4529990 141.8333360
  93.3245580  41.6517930 127.1529350  93.7462000  41.4857800 127.9960740
  93.4496420  40.8418160 126.6584490  91.4873000  37.6314480 139.9600330
  90.9569460  37.1405430 139.3323670  92.1561070  38.0598680 139.4258260
  95.8373220  40.6755540 124.4006450  96.3578880  39.9604560 124.0347600
  96.4841620  41.3141410 124.7006960 100.3851060  42.0983940 139.7241520
 100.7992080  42.2529020 140.5731940  99.4502060  42.2239160 139.8867300
 100.8573230  39.4380100 141.7280670 101.4394000  38.6832420 141.6401150
 101.0335000  39.9687540 140.9512150  91.9745300  34.5976850 140.0397620
  91.8802170  33.9797600 139.3148490  91.3942690  35.3243140 139.8127530
  94.7406740  33.1550090 137.0725010  94.2924040  33.1774350 136.2270560
  94.1071940  32.7569110 137.6695310  95.1466290  42.0504420 137.6937450
  95.5654400  42.8937150 137.5213690  94.2274920  42.1876460 137.4644230
  97.4830190  39.7820600 139.0775290  97.6026400  39.1861740 139.8170130
  98.3424190  39.8190290 138.6576590  99.8218090  40.3357790 137.6537800
  99.2953310  40.8600410 137.0502940 100.1649430  40.9685180 138.2847530
  92.9973710  48.3557430 138.8095180  92.4594800  49.0803490 138.4903880
  93.2507670  47.8787770 138.0192520  94.2498960  36.3241950 140.3351110
  94.8398650  36.0157800 141.0228930  93.4319200  35.8521700 140.4911010
  99.0692390  35.9407760 140.5684130  98.3807910  35.2789300 140.5034120
  99.7898410  35.4946030 141.0132590  99.6992790  32.5359390 126.6274390
  99.9795080  31.6927290 126.9833810  98.9258520  32.7682500 127.1413140
  95.8535920  49.5908640 139.0681830  95.7794620  50.4943780 139.3754200
  94.9514760  49.2720540 139.0403900  94.2372210  33.7686400 125.0721590
  93.8894210  33.0910390 124.4924040  94.4384980  33.3075910 125.8864980
  90.0417410  44.1294200 124.9195190  90.4792280  44.6723870 125.5752770
  90.5265140  43.3041150 124.9291530  87.2563210  46.9183230 132.3715450
  87.5866220  46.0504290 132.1394090  87.6854210  47.1241750 133.2020410
  91.8525130  45.2492240 130.0317420  91.5520670  45.1257210 130.9321330
  91.7462620  44.3900830 129.6233150  87.7453420  47.7853820 135.1097080
  87.3084410  47.9654620 135.9421230  88.3131100  48.5428440 134.9678800
 103.3815600  47.2870820 139.3974390 102.7817590  47.3463380 138.6538310
 103.5109500  46.3475800 139.5271240  87.5777850  40.2974050 131.4685960
  86.9226690  40.0285690 130.8245660  88.4155800  40.1878530 131.0187940
 105.0833480  42.6286220 132.0820230 105.4542310  41.8453540 131.6756200
 105.7235410  43.3175320 131.9037530 102.0667240  44.0122800 137.4950550
 101.2527080  44.4419960 137.7576340 102.4741440  44.6241210 136.8819600
 100.5268290  35.0915340 125.6904450 100.9453170  34.9046320 124.8501110
 100.2204350  34.2394390 126.0007380 104.0258020  40.0039480 129.3880250
 103.6501620  39.2367410 128.9561540 103.2961140  40.3862180 129.8755180
  88.6153780  40.6826620 136.0089300  88.9826820  40.5954020 136.8885320
  88.0464600  39.9193170 135.9096160 103.4157640  39.1511000 139.0219770
 103.1843730  38.9223750 138.1217720 103.6762190  40.0710550 138.9764660
  88.1669780  37.5935710 139.9147720  87.2725830  37.5602470 140.2541430
  88.7067330  37.7922500 140.6798970 101.8545710  34.3767430 141.7999470
 102.7315890  34.3850830 142.1833470 101.8666550  33.6398270 141.1891820
 103.3008980  38.2296970 132.6887490 103.8246460  37.7359620 132.0577660
 103.8868400  38.3647330 133.4335060 103.4798700  38.3136840 136.2107040
 102.5301410  38.2800380 136.3252030 103.6611710  39.2236950 135.9756810
  88.9817300  32.6177850 124.3608320  89.7045430  33.1586790 124.6789540
  89.2541820  32.3441270 123.4849860 102.7908950  37.4870320 128.6279900
 103.2868070  37.2541190 129.4128780 102.5925020  36.6482160 128.2117540
  88.6709490  31.8684040 134.2630940  89.3185680  31.3181420 133.8226100
  89.0911330  32.1227190 135.0846750 104.2196110  36.1231270 131.1617580
 104.1095390  35.9687310 132.0999850 104.9803700  35.5952210 130.9192990
 102.5661830  32.0625400 137.6200580 103.2034050  32.6759540 137.9859770
 102.7136720  32.0986060 136.6749810 105.1086380  33.9539190 124.4023720
 106.0335690  33.8220370 124.1942010 105.0862170  34.0332010 125.3560170
 105.1824870  34.7249850 127.0280430 104.3876370  34.6594970 127.5573340
 105.3868150  35.6600490 127.0165780 102.1243290  48.7641400 131.0218820
 102.7202360  48.4425970 130.3453240 102.3821440  48.2913220 131.8132090
  88.4241490  32.0239710 137.0056260  88.0756310  32.4803530 137.7714440
  88.0929190  31.1296840 137.0878690  90.0305860  45.1959310 141.1709450
  89.9875490  44.8252220 142.0523910  90.1616870  46.1336880 141.3111270
  93.7311890  46.7518900 136.7719170  93.4903250  47.0193460 135.8849690
  94.6714530  46.9224630 136.8270030  95.9366310  33.2151590 140.5275680
  95.8755200  33.8073420 141.2771090  96.8766690  33.1077550 140.3825940
  98.5740870  32.8721650 140.1667970  99.1881280  33.1900940 139.5049050
  99.1190430  32.3870240 140.7863830 104.9916050  48.7713280 137.5729810
 104.4974330  49.1682150 136.8556940 104.3829340  48.1462490 137.9667090
  89.0962130  31.5515910 140.2807030  89.6445120  31.3703960 139.5173140
  89.1617440  30.7610020 140.8163340  89.8693890  48.1421560 138.2907230
  89.2754210  48.0106260 139.0297270  89.8617730  47.3059700 137.8249330
  99.3148910  31.4353790 136.4937260  98.4408750  31.7688900 136.2910190
  99.2059660  30.9626970 137.3189130 100.2220890  33.6424660 137.8778980
  99.8934250  32.8276420 137.4980710 101.1703190  33.5994470 137.7544670
 102.6755500  49.4136700 134.8516550 102.2158470  50.1652510 134.4774570
 102.0467960  48.6943170 134.7931350  89.5006120  45.5079940 137.2415270
  88.7740180  44.8885230 137.1741220  89.5615270  45.9020550 136.3713350
  93.1051220  47.7224940 134.0264680  93.6216240  47.1112300 133.5012940
  93.7548600  48.2253720 134.5175690  95.8446720  48.6133430 134.8533660
  96.1324530  48.3587730 133.9766670  96.3569940  48.0610790 135.4439230
  97.0623730  32.3523630 135.4330170  96.2795520  32.8269130 135.7126930
  96.7686660  31.4478460 135.3243350 101.6144800  33.0546730 133.4779260
 102.0552890  32.9991830 132.6300860 101.3452390  33.9704740 133.5489440
 103.4783370  32.6861970 131.4888080 103.4171770  31.7423190 131.3419100
 104.2575400  32.7942060 132.0341540  87.7836120  48.8254330 130.4512030
  87.6158160  48.1925010 131.1493920  86.9170630  49.0313730 130.1006220
  88.4064140  32.6571110 127.9543890  89.1643500  32.7699990 127.3807920
  87.9441310  33.4940310 127.9087320  94.9477950  34.7710380 130.9446200
  94.1352460  34.3967270 130.6042080  95.4519590  34.0155460 131.2467390
  99.4502930  31.4352830 132.1829270 100.0532300  32.0073040 132.6577790
  98.7095920  31.9992270 131.9603170 102.5937530  31.8374390 127.4569550
 102.7888160  32.7357840 127.7236980 101.8067400  31.6061470 127.9502500
  89.3898820  47.5187560 127.8962170  88.8646440  47.8995590 127.1924130
  89.3143400  48.1438330 128.6171880  90.7789290  33.1835160 126.4945860
  91.3082050  32.3964960 126.3653810  91.4117610  33.8626350 126.7281390
  92.9727130  32.9210300 129.5491250  92.3429870  32.2197610 129.7161380
  92.4332270  33.6814430 129.3324410  95.9119080  49.5349530 142.2201860
  96.8386390  49.2993800 142.2637820  95.8969510  50.3621530 141.7387890
 104.1464140  49.0775100 129.2176110 104.3216330  48.3912840 128.5737030
 103.4485710  49.6022150 128.8252780  93.0982690  32.1994280 141.9843740
  92.8166960  32.7027880 141.2204560  93.4802390  31.4016030 141.6185870
  91.9891790  49.4669940 126.7711420  92.7210610  49.1829220 126.2235310
  92.2485460  49.2283220 127.6610800  91.1506580  45.5834670 126.7757750
  90.5215460  46.0519770 127.3243580  91.2654410  44.7383890 127.2103940
  99.6998150  31.6147860 142.5624210  99.5863600  31.9342470 143.4575730
 100.5167890  32.0160370 142.2661490 102.4796640  48.7619390 142.0442900
 103.2721960  48.2668620 141.8368860 102.7729790  49.4409530 142.6518510
  98.6056300  39.6340330 112.9258950  98.5250350  38.7194940 112.6550660
  98.1920720  40.1307400 112.2198660  96.7374340  41.4119350 114.8068220
  95.9616440  40.9319790 115.0966790  97.3887270  40.7325000 114.6324380
  90.7540170  41.7239160 115.6843980  89.9225050  41.4687870 116.0840490
  91.3621150  41.7949930 116.4201900  90.7341430  45.7579250 115.8802000
  91.0369470  44.8676990 115.7012220  91.4785020  46.3149470 115.6524250
  89.1632120  36.6841050 109.4686370  88.2748820  37.0257020 109.3666250
  89.4473310  36.4841370 108.5767200  87.1265130  39.2846700 115.3526070
  87.6981240  38.5168900 115.3529710  87.1266670  39.5835460 114.4432680
  97.2088500  36.8946920 115.0407310  97.5853320  36.0218800 114.9280980
  97.1108010  37.2305620 114.1497750  91.3393510  35.2672550 110.5024750
  91.4460260  36.1676280 110.8093510  90.4285870  35.2190520 110.2119400
  93.1801240  38.2358920 114.8349930  93.6879460  38.7339890 115.4754950
  93.7114480  37.4594120 114.6589290  97.8508430  42.9876790 110.6003250
  97.2325700  43.4526240 110.0365970  98.3631680  43.6804270 111.0172760
  92.7140190  42.5152660 117.2786850  92.3809570  43.1421580 117.9207920
  92.8906870  43.0414540 116.4988520 101.2274100  36.3297740 114.7463190
 100.5229670  36.6182630 115.3266300 101.5886260  37.1397850 114.3862750
  91.9259290  44.4833460 119.0936030  92.5433290  45.1584540 118.8120480
  91.0652410  44.8921440 119.0023530 102.8436880  45.9472870 117.0090670
 102.1600400  46.6171980 117.0007340 103.3831170  46.1453520 116.2435530
  94.8280560  32.0749710 113.4328390  95.1355540  31.5196600 112.7163890
  93.8981260  32.2094170 113.2501380  99.7781060  42.6946840 117.0518460
 100.1949850  42.4806950 116.2171920 100.5020880  42.9519630 117.6227080
  97.2161320  40.1398540 110.1688510  96.2890600  40.0735920 110.3976980
  97.3686140  41.0778670 110.0543750 101.2458610  41.7018840 110.6723760
 100.6271030  41.3638390 110.0250060 101.2283060  41.0578600 111.3802950
  92.8217960  40.6663280 112.9508240  92.4174960  39.9540530 112.4554140
  92.9081080  40.3216520 113.8396280 101.3785270  47.9262710 118.7770550
 100.9015830  48.7334900 118.5843160 100.6947060  47.2741040 118.9296760
  92.3818090  44.0912530 121.7655250  91.4846620  44.3152500 122.0128650
  92.4070960  44.2147470 120.8166650  99.4223310  40.9405650 107.6796510
  99.8616590  40.1028080 107.5334330 100.1351730  41.5735050 107.7660650
  93.0069660  46.9047550 122.5497770  92.9785090  47.3090500 121.6826200
  92.8434630  45.9757910 122.3869370 104.9584480  47.6874650 123.8461940
 105.4344200  48.1657540 124.5251020 105.5791640  47.6192140 123.1207440
  87.1607960  42.7323400 116.2583530  87.2388380  42.8672170 115.3139250
  87.7749640  42.0239290 116.4511650 104.2141740  36.9319960 121.9711690
 103.5986010  37.4399630 121.4427150 103.8938160  36.0318290 121.9137630
  87.2167480  43.7737570 118.7977990  87.3798520  43.3042930 117.9797360
  87.6819930  43.2661130 119.4626830  91.9886250  32.9043330 113.8338560
  91.5454400  33.6852870 113.5023080  92.5471240  33.2273220 114.5409500
  96.2756060  35.7711850 119.4373880  95.8135430  35.9794870 120.2493820
  95.8734170  34.9571200 119.1344550 101.2760570  36.9920800 120.5670540
 100.4254160  36.6926550 120.8879610 101.1162360  37.2362810 119.6554360
  98.3710280  38.4922550 122.6669330  98.6963690  37.6586300 122.3271560
  99.1590610  39.0151070 122.8147660  94.0262150  33.4490660 115.6928160
  94.3234480  34.3553490 115.6120180  94.5747710  32.9609440 115.0787730
  91.7800470  38.0276900 111.5619810  91.5541390  37.8114070 112.4666430
  90.9993000  38.4605360 111.2165780  99.0098230  38.0340270 110.1610460
  98.4107120  38.7576070 109.9774080  99.5577840  37.9717050 109.3786910
  97.6163100  36.6703810 112.1913740  98.0092670  36.9876010 111.3782430
  97.9779950  35.7915690 112.3058260  95.9255270  35.4211120 123.4510600
  95.2353590  35.2283320 124.0856690  96.6687570  35.7045760 123.9834900
  86.6527270  33.2604610 114.4143940  86.3640320  33.8307470 115.1268920
  87.3973030  32.7809060 114.7775170  86.8397500  37.2024730 105.6246660
  86.7572170  38.1455490 105.7661650  86.4880560  37.0599640 104.7459010
  98.2018240  39.2609560 116.2864520  97.4699360  39.7696370 116.6354620
  97.8042580  38.4439540 115.9853300  94.6395630  35.9363760 114.6917010
  94.6431690  35.4953710 113.8421550  95.5346750  36.2581090 114.7988830
  90.4898010  35.8190250 113.6511220  90.1498060  36.2965480 114.4078270
  89.7275330  35.3655370 113.2912320  94.7015780  36.9375840 107.6823770
  94.8228600  36.8962320 108.6309590  94.3164290  37.7999990 107.5270500
  98.6644150  34.7143240 115.6987460  98.6816890  35.1651890 116.5429310
  98.4159730  33.8148880 115.9120900  93.7137280  39.2476980 107.0807070
  93.1454180  38.7995230 106.4542980  94.4226280  39.6069760 106.5472220
 102.0914900  32.1275420 121.5373840 102.4160670  31.3965080 122.0631820
 102.1271410  31.8089060 120.6354830  88.7906460  43.1489000 120.9573800
  88.4061250  42.5082670 121.5556760  89.1018650  43.8525120 121.5268530
  94.9403600  39.9965540 116.4382420  95.3073730  39.5224110 117.1843760
  94.7508660  40.8707110 116.7790760  87.8044090  34.7409230 112.5675890
  87.5191010  34.3764900 113.4054510  87.7422950  34.0089690 111.9539030
  97.3991540  42.3109590 121.0328870  97.3328850  41.3905260 120.7786460
  96.7696680  42.4085030 121.7473510  91.3022160  42.9115550 112.9912290
  91.8200830  42.1083810 112.9369180  90.8506180  42.8494690 113.8329120
  97.3308270  45.1330160 120.7832670  97.3452810  44.2011120 120.5651580
  96.6233370  45.2189920 121.4222440 102.4645340  39.3169980 107.0531280
 102.3809060  39.7484200 106.2027720 103.1839530  39.7768330 107.4858100
  99.0719070  43.4997670 113.6285100  99.4242890  42.9025800 112.9686470
  98.1881400  43.1741900 113.7993350  94.4609560  41.2641390 110.6480870
  94.9172340  42.0746640 110.8741060  94.1097770  40.9464530 111.4799360
  90.3621340  31.6079040 111.1203390  90.2335970  31.5996940 112.0688310
  89.5383360  31.9462130 110.7694400  99.8111870  45.5774980 119.7986680
 100.1468110  46.1641670 120.4764600  98.8912210  45.4467690 120.0284470
  87.6487860  47.3550420 121.5676620  87.7578980  46.4145160 121.4272010
  86.9968420  47.6205170 120.9190350  95.6400450  45.6266310 122.9674740
  95.3197320  44.9075550 123.5120430  94.9658810  46.3021380 123.0410800
  98.8554050  35.8592470 118.3311540  99.2234870  35.0387680 118.6591110
  97.9952250  35.9194360 118.7467190  94.1900110  37.0935360 110.5556980
  93.4816260  37.5621700 110.9970590  94.4744590  36.4357370 111.1902170
  95.8156040  38.5132060 118.5549510  96.3141290  38.9877880 119.2201360
  95.9578990  37.5895580 118.7619540  92.3935130  35.4020440 107.9307690
  93.2425660  35.8390590 107.8647880  92.0266400  35.7140700 108.7579750
 103.0222900  34.7300020 119.3977900 102.5196500  35.4705420 119.7371710
 103.8379560  35.1184020 119.0814690 103.3170490  47.1442050 114.5193520
 103.4417910  47.9673220 114.9917330 104.1836050  46.9332780 114.1717670
  89.7946300  48.4219330 123.3796230  90.5959030  48.7431380 123.7931630
  89.2798120  48.0614910 124.1016140  93.8990330  48.4103570 106.0136220
  94.6918940  48.6992400 105.5618010  93.3794680  47.9795740 105.3348700
  98.6310930  44.5299200 123.3271640  98.0249090  44.5530800 122.5867390
  98.3265040  43.7982240 123.8638890 100.0611300  48.2579490 121.9381050
 101.0133050  48.1737510 121.8881290  99.9139520  48.9221200 122.6114840
  94.4167730  43.6306980 105.8778570  94.3118370  43.0159330 106.6039950
  94.2491950  43.1072870 105.0941580  94.5682050  42.3163780 121.8567800
  93.8027720  42.8848780 121.7722470  94.7498010  42.0239990 120.9636030
  97.6570460  42.6927010 106.4820560  97.1080560  43.1396310 107.1263300
  98.2789720  42.1876260 107.0058230  95.8373220  40.6755540 105.6262960
  96.3578880  39.9604560 105.2604110  96.4841620  41.3141410 105.9263470
  94.7406740  33.1550090 118.2981520  94.2924040  33.1774350 117.4527070
  94.1071940  32.7569110 118.8951820  95.1466290  42.0504420 118.9193960
  95.5654400  42.8937150 118.7470200  94.2274920  42.1876460 118.6900740
  97.4830190  39.7820600 120.3031800  97.6026400  39.1861740 121.0426640
  98.3424190  39.8190290 119.8833100  92.9973710  48.3557430 120.0351690
  92.4594800  49.0803490 119.7160390  93.2507670  47.8787770 119.2449030
  99.0692390  35.9407760 121.7940640  98.3807910  35.2789300 121.7290630
  99.7898410  35.4946030 122.2389100  91.0187280  34.8251780 105.3121900
  91.3213180  34.8319210 104.4041050  91.7581870  34.4749640 105.8089560
  87.2563210  46.9183230 113.5971960  87.5866220  46.0504290 113.3650600
  87.6854210  47.1241750 114.4276920  87.7453420  47.7853820 116.3353590
  87.3084410  47.9654620 117.1677740  88.3131100  48.5428440 116.1935310
 103.3815600  47.2870820 120.6230900 102.7817590  47.3463380 119.8794820
 103.5109500  46.3475800 120.7527750 104.0773510  41.7736120 108.4634810
 104.8392420  42.3432770 108.5694500 104.0927880  41.2063320 109.2343120
 104.1292680  42.0670490 105.6207330 104.4041520  42.9749370 105.4926550
 103.9403420  42.0033020 106.5569320 104.0258020  40.0039480 110.6136760
 103.6501620  39.2367410 110.1818050 103.2961140  40.3862180 111.1011690
  88.6153780  40.6826620 117.2345810  88.9826820  40.5954020 118.1141830
  88.0464600  39.9193170 117.1352670 101.8545710  34.3767430 123.0255980
 102.7315890  34.3850830 123.4089980 101.8666550  33.6398270 122.4148330
  89.3343140  36.5638520 106.5462180  90.0434840  36.1421740 106.0609460
  88.6183080  36.6313750 105.9145530  88.9817300  32.6177850 105.5864830
  89.7045430  33.1586790 105.9046050  89.2541820  32.3441270 104.7106370
 102.7908950  37.4870320 109.8536410 103.2868070  37.2541190 110.6385290
 102.5925020  36.6482160 109.4374050  88.6709490  31.8684040 115.4887450
  89.3185680  31.3181420 115.0482610  89.0911330  32.1227190 116.3103260
 102.5661830  32.0625400 118.8457090 103.2034050  32.6759540 119.2116280
 102.7136720  32.0986060 117.9006320 102.1243290  48.7641400 112.2475330
 102.7202360  48.4425970 111.5709750 102.3821440  48.2913220 113.0388600
  88.4241490  32.0239710 118.2312770  88.0756310  32.4803530 118.9970950
  88.0929190  31.1296840 118.3135200  90.0305860  45.1959310 122.3965960
  89.9875490  44.8252220 123.2780420  90.1616870  46.1336880 122.5367780
  95.9366310  33.2151590 121.7532190  95.8755200  33.8073420 122.5027600
  96.8766690  33.1077550 121.6082450  98.5740870  32.8721650 121.3924480
  99.1881280  33.1900940 120.7305560  99.1190430  32.3870240 122.0120340
 104.9916050  48.7713280 118.7986320 104.4974330  49.1682150 118.0813450
 104.3829340  48.1462490 119.1923600  89.0962130  31.5515910 121.5063540
  89.6445120  31.3703960 120.7429650  89.1617440  30.7610020 122.0419850
  89.8693890  48.1421560 119.5163740  89.2754210  48.0106260 120.2553780
  89.8617730  47.3059700 119.0505840  99.3148910  31.4353790 117.7193770
  98.4408750  31.7688900 117.5166700  99.2059660  30.9626970 118.5445640
 100.2220890  33.6424660 119.1035490  99.8934250  32.8276420 118.7237220
 101.1703190  33.5994470 118.9801180 102.6755500  49.4136700 116.0773060
 102.2158470  50.1652510 115.7031080 102.0467960  48.6943170 116.0187860
  89.5006120  45.5079940 118.4671780  88.7740180  44.8885230 118.3997730
  89.5615270  45.9020550 117.5969860  97.0623730  32.3523630 116.6586680
  96.2795520  32.8269130 116.9383440  96.7686660  31.4478460 116.5499860
 101.6144800  33.0546730 114.7035770 102.0552890  32.9991830 113.8557370
 101.3452390  33.9704740 114.7745950 103.4783370  32.6861970 112.7144590
 103.4171770  31.7423190 112.5675610 104.2575400  32.7942060 113.2598050
  87.7836120  48.8254330 111.6768540  87.6158160  48.1925010 112.3750430
  86.9170630  49.0313730 111.3262730  88.4064140  32.6571110 109.1800400
  89.1643500  32.7699990 108.6064430  87.9441310  33.4940310 109.1343830
  94.9477950  34.7710380 112.1702710  94.1352460  34.3967270 111.8298590
  95.4519590  34.0155460 112.4723900  99.4502930  31.4352830 113.4085780
 100.0532300  32.0073040 113.8834300  98.7095920  31.9992270 113.1859680
  90.7789290  33.1835160 107.7202370  91.3082050  32.3964960 107.5910320
  91.4117610  33.8626350 107.9537900  92.9727130  32.9210300 110.7747760
  92.3429870  32.2197610 110.9417890  92.4332270  33.6814430 110.5580920
  93.0982690  32.1994280 123.2100250  92.8166960  32.7027880 122.4461070
  93.4802390  31.4016030 122.8442380  99.6998150  31.6147860 123.7880720
  99.5863600  31.9342470 124.6832240 100.5167890  32.0160370 123.4918000
 102.4796640  48.7619390 123.2699410 103.2721960  48.2668620 123.0625370
 102.7729790  49.4409530 123.8775020  98.6056300  39.6340330  94.1515460
  98.5250350  38.7194940  93.8807170  98.1920720  40.1307400  93.4455170
  96.7374340  41.4119350  96.0324730  95.9616440  40.9319790  96.3223300
  97.3887270  40.7325000  95.8580890 100.7581770  45.8179540  94.8123860
 100.2963300  45.0466780  95.1411030 101.5707320  45.8445610  95.3176310
  87.1265130  39.2846700  96.5782580  87.6981240  38.5168900  96.5786220
  87.1266670  39.5835460  95.6689190  96.9845080  48.1037550  94.4327850
  96.3656520  48.5595050  93.8622290  97.8396860  48.2589010  94.0317550
  96.1783330  44.0876540  96.0394890  96.1091610  43.1466480  95.8784020
  96.9403190  44.1777950  96.6117460  88.3690000  34.6931060  98.3651510
  88.1892840  33.7956810  98.6454270  87.9670080  35.2402930  99.0398460
  97.2088500  36.8946920  96.2663820  97.5853320  36.0218800  96.1537490
  97.1108010  37.2305620  95.3754260 100.9912620  34.3897360  93.1992160
 101.8122240  33.8993930  93.2417640 101.0246700  34.9795020  93.9524000
  88.9876670  37.1891560  96.9733850  89.6686780  37.4529930  97.5921250
  88.6724720  36.3492430  97.3071860  93.1801240  38.2358920  96.0606440
  93.6879460  38.7339890  96.7011460  93.7114480  37.4594120  95.8845800
 105.2812170  36.4064110  99.7635790 104.5764340  36.7945820  99.2450900
 105.5470090  37.1014400 100.3656720  91.4637340  32.8757480 100.3269860
  91.4655780  33.3929870  99.5215760  90.6341650  32.3987660 100.3039790
  97.8508430  42.9876790  91.8259760  97.2325700  43.4526240  91.2622480
  98.3631680  43.6804270  92.2429270 101.2274100  36.3297740  95.9719700
 100.5229670  36.6182630  96.5522810 101.5886260  37.1397850  95.6119260
  91.1452670  34.5867440  98.3340310  91.4869480  35.4309490  98.0394180
  90.2068480  34.7351180  98.4505650  87.2191630  43.6733320  89.1999390
  86.8419610  44.1620420  88.4684290  87.4764700  44.3458600  89.8305920
 102.8436880  45.9472870  98.2347180 102.1600400  46.6171980  98.2263850
 103.3831170  46.1453520  97.4692040 104.2961020  35.7752530  96.3628910
 103.3485930  35.8091510  96.4944340 104.6211010  36.5891480  96.7478270
  94.8280560  32.0749710  94.6584900  95.1355540  31.5196600  93.9420400
  93.8981260  32.2094170  94.4757890 101.6741040  44.5133220  92.0382530
 101.5637370  43.5707550  92.1631950 101.6709290  44.8748860  92.9245290
  99.7781060  42.6946840  98.2774970 100.1949850  42.4806950  97.4428430
 100.5020880  42.9519630  98.8483590  97.2161320  40.1398540  91.3945020
  96.2890600  40.0735920  91.6233490  97.3686140  41.0778670  91.2800260
  97.2030400  36.4115540  88.3912180  96.2634070  36.5729500  88.4764640
  97.5213660  37.1301220  87.8448170 103.7243160  41.0934060  98.3691210
 102.8961790  41.1627150  97.8941340 104.3193640  41.6788370  97.9007040
 101.2458610  41.7018840  91.8980270 100.6271030  41.3638390  91.2506570
 101.2283060  41.0578600  92.6059460 100.6885170  37.8803380  99.3146080
 100.2756350  38.7057090  99.5686070  99.9561120  37.2948420  99.1222440
  92.8217960  40.6663280  94.1764750  92.4174960  39.9540530  93.6810650
  92.9081080  40.3216520  95.0652790  99.4223310  40.9405650  88.9053020
  99.8616590  40.1028080  88.7590840 100.1351730  41.5735050  88.9917160
  97.5318690  45.8801720  92.8734260  97.9714600  46.6226050  92.4589650
  97.4705580  46.1228290  93.7973220 103.0040450  32.1948460  87.2194060
 102.6913110  32.2875290  88.1193130 103.7652920  32.7729490  87.1691490
  89.5222590  39.5608260  91.6771400  89.4020190  40.2870350  91.0652670
  89.2123480  38.7911170  91.1999310 104.3617730  44.8787500 102.2318460
 104.4880790  44.6399380 101.3135640 104.4039110  44.0472040 102.7040540
  99.4664930  48.0021110  92.8643760  99.9221880  47.2210490  93.1782380
  99.8057450  48.7127930  93.4084940 104.2141740  36.9319960 103.1968200
 103.5986010  37.4399630 102.6683660 103.8938160  36.0318290 103.1394140
  96.2756060  35.7711850 100.6630390  95.8135430  35.9794870 101.4750330
  95.8734170  34.9571200 100.3601060 101.2760570  36.9920800 101.7927050
 100.4254160  36.6926550 102.1136120 101.1162360  37.2362810 100.8810870
  98.3710280  38.4922550 103.8925840  98.6963690  37.6586300 103.5528070
  99.1590610  39.0151070 104.0404170  95.1045070  32.5254030  89.9400900
  94.4799250  32.5213900  90.6654210  95.0175190  31.6584990  89.5436870
  94.0262150  33.4490660  96.9184670  94.3234480  34.3553490  96.8376690
  94.5747710  32.9609440  96.3044240  99.0098230  38.0340270  91.3866970
  98.4107120  38.7576070  91.2030590  99.5577840  37.9717050  90.6043420
  97.6163100  36.6703810  93.4170250  98.0092670  36.9876010  92.6038940
  97.9779950  35.7915690  93.5314770  89.3510220  35.3376150 101.6070370
  88.9573610  36.1851360 101.8143150  88.6628620  34.7002520 101.7979010
  95.9255270  35.4211120 104.6767110  95.2353590  35.2283320 105.3113200
  96.6687570  35.7045760 105.2091410  98.2018240  39.2609560  97.5121030
  97.4699360  39.7696370  97.8611130  97.8042580  38.4439540  97.2109810
  94.6395630  35.9363760  95.9173520  94.6431690  35.4953710  95.0678060
  95.5346750  36.2581090  96.0245340  90.4898010  35.8190250  94.8767730
  90.1498060  36.2965480  95.6334780  89.7275330  35.3655370  94.5168830
  94.7015780  36.9375840  88.9080280  94.8228600  36.8962320  89.8566100
  94.3164290  37.7999990  88.7527010  98.6644150  34.7143240  96.9243970
  98.6816890  35.1651890  97.7685820  98.4159730  33.8148880  97.1377410
  93.7137280  39.2476980  88.3063580  93.1454180  38.7995230  87.6799490
  94.4226280  39.6069760  87.7728730  94.9403600  39.9965540  97.6638930
  95.3073730  39.5224110  98.4100270  94.7508660  40.8707110  98.0047270
  91.2584760  43.2435170  90.5789990  90.4847020  42.7032790  90.4188710
  91.9879390  42.7241780  90.2407750 102.0172740  42.2400530  96.3716380
 102.7371860  42.7355820  95.9812490 101.8154560  41.5618420  95.7270250
  97.4782680  33.6338490  90.5145770  96.6647290  33.1351660  90.4391080
  97.2844630  34.4736740  90.0982120  97.3991540  42.3109590 102.2585380
  97.3328850  41.3905260 102.0042970  96.7696680  42.4085030 102.9730020
 100.1931070  38.0058140  88.8107930 101.0810690  38.3175370  88.6359270
 100.1636160  37.1330390  88.4188510  96.1891660  44.1781830  89.4896100
  96.5307360  44.9224060  88.9939420  95.3604370  44.4912950  89.8520930
 102.4645340  39.3169980  88.2787790 102.3809060  39.7484200  87.4284230
 103.1839530  39.7768330  88.7114610 103.5419480  41.7737500 101.3557760
 102.8167670  42.3666280 101.1587150 104.0694940  41.7661040 100.5571130
  99.0719070  43.4997670  94.8541610  99.4242890  42.9025800  94.1942980
  98.1881400  43.1741900  95.0249860  95.1582350  44.2595360  92.2612020
  95.8453480  44.8064570  92.6419610  94.3714770  44.8036090  92.2961630
  87.2974750  39.8768180  87.7529100  88.1669600  40.1592980  88.0365020
  86.8065070  40.6904050  87.6377910  94.4609560  41.2641390  91.8737380
  94.9172340  42.0746640  92.0997570  94.1097770  40.9464530  92.7055870
 101.8829970  45.0628700  87.5446270 101.6567550  44.3459140  88.1370910
 101.4926170  44.8141140  86.7068020  87.6646000  49.0895560  88.3190730
  88.0243640  49.6884900  87.6648000  87.5238340  49.6355450  89.0925760
  87.3615270  33.3670160 101.8066600  86.6473790  33.5667080 102.4119210
  87.7810310  32.5909730 102.1781400 101.4646220  42.9800640  89.2060430
 101.1767920  43.4413330  89.9938310 102.2598390  42.5198410  89.4744650
  93.6814620  46.4726760  89.1364400  93.6724720  47.2056450  88.5208910
  92.7612980  46.2258340  89.2291360  89.2821260  41.6941650  89.8811160
  88.6749210  42.4340550  89.8906460  89.7570610  41.7841010  89.0549360
  98.8554050  35.8592470  99.5568050  99.2234870  35.0387680  99.8847620
  97.9952250  35.9194360  99.9723700 102.2216080  34.8149410  90.3655610
 101.5929240  34.9195080  89.6513840 101.7268000  35.0346190  91.1549490
  96.6674220  46.5355000  87.7989590  96.7686200  46.3318990  86.8691570
  95.7675960  46.2813280  88.0037370  94.1900110  37.0935360  91.7813490
  93.4816260  37.5621700  92.2227100  94.4744590  36.4357370  92.4158680
  98.2215540  33.8186020  93.2209280  98.0983320  33.8372150  92.2718790
  99.1700100  33.8664960  93.3407680 103.0222900  34.7300020 100.6234410
 102.5196500  35.4705420 100.9628220 103.8379560  35.1184020 100.3071200
 101.3144910  39.9733200  94.0695770 100.3735050  39.9883430  94.2443460
 101.6288980  39.1869160  94.5156070  91.2926550  41.6552800  87.6299730
  92.0589820  41.5434160  88.1925160  91.3701240  40.9590770  86.9776500
 103.3170490  47.1442050  95.7450030 103.4417910  47.9673220  96.2173840
 104.1836050  46.9332780  95.3974180  87.6733500  45.3046830  91.2908670
  86.7473280  45.5467970  91.2814080  88.1389930  46.1321090  91.1693420
  93.8990330  48.4103570  87.2392730  94.6918940  48.6992400  86.7874520
  93.3794680  47.9795740  86.5605210  94.4167730  43.6306980  87.1035080
  94.3118370  43.0159330  87.8296460  94.2491950  43.1072870  86.3198090
  97.6570460  42.6927010  87.7077070  97.1080560  43.1396310  88.3519810
  98.2789720  42.1876260  88.2314740 101.7105400  44.0469110 103.6399330
 102.4514870  44.3844870 103.1366790 100.9478080  44.2161170 103.0869100
  93.3245580  41.6517930  89.6042370  93.7462000  41.4857800  90.4473760
  93.4496420  40.8418160  89.1097510  95.8373220  40.6755540  86.8519470
  96.3578880  39.9604560  86.4860620  96.4841620  41.3141410  87.1519980
 100.3851060  42.0983940 102.1754540 100.7992080  42.2529020 103.0244960
  99.4502060  42.2239160 102.3380320 100.8573230  39.4380100 104.1793690
 101.4394000  38.6832420 104.0914170 101.0335000  39.9687540 103.4025170
  91.9745300  34.5976850 102.4910640  91.8802170  33.9797600 101.7661510
  91.3942690  35.3243140 102.2640550  94.7406740  33.1550090  99.5238030
  94.2924040  33.1774350  98.6783580  94.1071940  32.7569110 100.1208330
  97.4830190  39.7820600 101.5288310  97.6026400  39.1861740 102.2683150
  98.3424190  39.8190290 101.1089610  99.8218090  40.3357790 100.1050820
  99.2953310  40.8600410  99.5015960 100.1649430  40.9685180 100.7360550
  92.2204480  37.7251160  86.5500530  92.0193540  36.8618520  86.9113870
  92.0496530  37.6384520  85.6122130  94.2498960  36.3241950 102.7864130
  94.8398650  36.0157800 103.4741950  93.4319200  35.8521700 102.9424030
  99.6992790  32.5359390  89.0787410  99.9795080  31.6927290  89.4346830
  98.9258520  32.7682500  89.5926160  90.0417410  44.1294200  87.3708210
  90.4792280  44.6723870  88.0265790  90.5265140  43.3041150  87.3804550
  87.2563210  46.9183230  94.8228470  87.5866220  46.0504290  94.5907110
  87.6854210  47.1241750  95.6533430  91.8525130  45.2492240  92.4830440
  91.5520670  45.1257210  93.3834350  91.7462620  44.3900830  92.0746170
 103.3815600  47.2870820 101.8487410 102.7817590  47.3463380 101.1051330
 103.5109500  46.3475800 101.9784260 104.6217050  45.0288640  87.1857120
 103.7910010  45.0965290  87.6564350 104.7988880  45.9192760  86.8823980
 104.0773510  41.7736120  89.6891320 104.8392420  42.3432770  89.7951010
 104.0927880  41.2063320  90.4599630  87.5777850  40.2974050  93.9198980
  86.9226690  40.0285690  93.2758680  88.4155800  40.1878530  93.4700960
 105.0833480  42.6286220  94.5333250 105.4542310  41.8453540  94.1269220
 105.7235410  43.3175320  94.3550550 102.0667240  44.0122800  99.9463570
 101.2527080  44.4419960 100.2089360 102.4741440  44.6241210  99.3332620
 104.1292680  42.0670490  86.8463840 104.4041520  42.9749370  86.7183060
 103.9403420  42.0033020  87.7825830 100.5268290  35.0915340  88.1417470
 100.9453170  34.9046320  87.3014130 100.2204350  34.2394390  88.4520400
 104.0258020  40.0039480  91.8393270 103.6501620  39.2367410  91.4074560
 103.2961140  40.3862180  92.3268200 103.4157640  39.1511000 101.4732790
 103.1843730  38.9223750 100.5730740 103.6762190  40.0710550 101.4277680
 103.3008980  38.2296970  95.1400510 103.8246460  37.7359620  94.5090680
 103.8868400  38.3647330  95.8848080 103.4798700  38.3136840  98.6620060
 102.5301410  38.2800380  98.7765050 103.6611710  39.2236950  98.4269830
 102.7908950  37.4870320  91.0792920 103.2868070  37.2541190  91.8641800
 102.5925020  36.6482160  90.6630560 102.5661830  32.0625400 100.0713600
 103.2034050  32.6759540 100.4372790 102.7136720  32.0986060  99.1262830
 105.1086380  33.9539190  86.8536740 106.0335690  33.8220370  86.6455030
 105.0862170  34.0332010  87.8073190 102.1243290  48.7641400  93.4731840
 102.7202360  48.4425970  92.7966260 102.3821440  48.2913220  94.2645110
 104.9916050  48.7713280 100.0242830 104.4974330  49.1682150  99.3069960
 104.3829340  48.1462490 100.4180110  89.0962130  31.5515910 102.7320050
  89.6445120  31.3703960 101.9686160  89.1617440  30.7610020 103.2676360
  99.3148910  31.4353790  98.9450280  98.4408750  31.7688900  98.7423210
  99.2059660  30.9626970  99.7702150 100.2220890  33.6424660 100.3292000
  99.8934250  32.8276420  99.9493730 101.1703190  33.5994470 100.2057690
 102.6755500  49.4136700  97.3029570 102.2158470  50.1652510  96.9287590
 102.0467960  48.6943170  97.2444370  97.0623730  32.3523630  97.8843190
  96.2795520  32.8269130  98.1639950  96.7686660  31.4478460  97.7756370
 101.6144800  33.0546730  95.9292280 102.0552890  32.9991830  95.0813880
 101.3452390  33.9704740  96.0002460  87.7836120  48.8254330  92.9025050
  87.6158160  48.1925010  93.6006940  86.9170630  49.0313730  92.5519240
  94.9477950  34.7710380  93.3959220  94.1352460  34.3967270  93.0555100
  95.4519590  34.0155460  93.6980410  99.4502930  31.4352830  94.6342290
 100.0532300  32.0073040  95.1090810  98.7095920  31.9992270  94.4116190
 102.5937530  31.8374390  89.9082570 102.7888160  32.7357840  90.1750000
 101.8067400  31.6061470  90.4015520  93.0982690  32.1994280 104.4356760
  92.8166960  32.7027880 103.6717580  93.4802390  31.4016030 104.0698890
  91.1506580  45.5834670  89.2270770  90.5215460  46.0519770  89.7756600
  91.2654410  44.7383890  89.6616960  98.6056300  39.6340330  75.3771970
  98.5250350  38.7194940  75.1063680  98.1920720  40.1307400  74.6711680
  96.7374340  41.4119350  77.2581240  95.9616440  40.9319790  77.5479810
  97.3887270  40.7325000  77.0837400  90.7540170  41.7239160  78.1357000
  89.9225050  41.4687870  78.5353510  91.3621150  41.7949930  78.8714920
  96.9845080  48.1037550  75.6584360  96.3656520  48.5595050  75.0878800
  97.8396860  48.2589010  75.2574060  96.1783330  44.0876540  77.2651400
  96.1091610  43.1466480  77.1040530  96.9403190  44.1777950  77.8373970
  97.2088500  36.8946920  77.4920330  97.5853320  36.0218800  77.3794000
  97.1108010  37.2305620  76.6010770 100.9912620  34.3897360  74.4248670
 101.8122240  33.8993930  74.4674150 101.0246700  34.9795020  75.1780510
  93.1801240  38.2358920  77.2862950  93.6879460  38.7339890  77.9267970
  93.7114480  37.4594120  77.1102310  97.8508430  42.9876790  73.0516270
  97.2325700  43.4526240  72.4878990  98.3631680  43.6804270  73.4685780
  92.7140190  42.5152660  79.7299870  92.3809570  43.1421580  80.3720940
  92.8906870  43.0414540  78.9501540 101.2274100  36.3297740  77.1976210
 100.5229670  36.6182630  77.7779320 101.5886260  37.1397850  76.8375770
  91.9259290  44.4833460  81.5449050  92.5433290  45.1584540  81.2633500
  91.0652410  44.8921440  81.4536550 102.8436880  45.9472870  79.4603690
 102.1600400  46.6171980  79.4520360 103.3831170  46.1453520  78.6948550
  94.8280560  32.0749710  75.8841410  95.1355540  31.5196600  75.1676910
  93.8981260  32.2094170  75.7014400 100.3795620  47.7917000  78.1748870
 100.3922780  47.3879290  77.3071130  99.8270840  48.5664290  78.0710300
  99.7781060  42.6946840  79.5031480 100.1949850  42.4806950  78.6684940
 100.5020880  42.9519630  80.0740100  97.2161320  40.1398540  72.6201530
  96.2890600  40.0735920  72.8490000  97.3686140  41.0778670  72.5056770
  97.2030400  36.4115540  69.6168690  96.2634070  36.5729500  69.7021150
  97.5213660  37.1301220  69.0704680 103.7243160  41.0934060  79.5947720
 102.8961790  41.1627150  79.1197850 104.3193640  41.6788370  79.1263550
 101.2458610  41.7018840  73.1236780 100.6271030  41.3638390  72.4763080
 101.2283060  41.0578600  73.8315970 100.6885170  37.8803380  80.5402590
 100.2756350  38.7057090  80.7942580  99.9561120  37.2948420  80.3478950
  92.8217960  40.6663280  75.4021260  92.4174960  39.9540530  74.9067160
  92.9081080  40.3216520  76.2909300  93.2899660  44.3530840  77.5660470
  92.9927950  43.7476310  76.8868250  94.2399480  44.3908150  77.4549830
  91.5346580  37.4406490  79.1820300  92.0861170  37.5501830  78.4073550
  92.0490090  37.8144090  79.8975530 101.3785270  47.9262710  81.2283570
 100.9015830  48.7334900  81.0356180 100.6947060  47.2741040  81.3809780
  92.3818090  44.0912530  84.2168270  91.4846620  44.3152500  84.4641670
  92.4070960  44.2147470  83.2679670  99.4223310  40.9405650  70.1309530
  99.8616590  40.1028080  69.9847350 100.1351730  41.5735050  70.2173670
  91.2089310  40.9625850  82.7925640  91.0697080  41.8348650  83.1613040
  90.3270670  40.6198660  82.6473580  97.5318690  45.8801720  74.0990770
  97.9714600  46.6226050  73.6846160  97.4705580  46.1228290  75.0229730
  93.0069660  46.9047550  85.0010790  92.9785090  47.3090500  84.1339220
  92.8434630  45.9757910  84.8382390 104.3617730  44.8787500  83.4574970
 104.4880790  44.6399380  82.5392150 104.4039110  44.0472040  83.9297050
  98.2234470  48.5815500  82.0269780  98.7379140  48.4923510  82.8292210
  97.3803550  48.9275200  82.3197690  99.9015000  46.3758400  70.0151780
  99.2080160  46.3735690  69.3554060 100.6437860  45.9517720  69.5845950
  99.4664930  48.0021110  74.0900270  99.9221880  47.2210490  74.4038890
  99.8057450  48.7127930  74.6341450  96.2756060  35.7711850  81.8886900
  95.8135430  35.9794870  82.7006840  95.8734170  34.9571200  81.5857570
  98.3710280  38.4922550  85.1182350  98.6963690  37.6586300  84.7784580
  99.1590610  39.0151070  85.2660680  95.1045070  32.5254030  71.1657410
  94.4799250  32.5213900  71.8910720  95.0175190  31.6584990  70.7693380
  94.0262150  33.4490660  78.1441180  94.3234480  34.3553490  78.0633200
  94.5747710  32.9609440  77.5300750  99.0098230  38.0340270  72.6123480
  98.4107120  38.7576070  72.4287100  99.5577840  37.9717050  71.8299930
  94.2199680  38.9262480  84.6793100  94.1243280  37.9857210  84.5293500
  95.0631660  39.1477550  84.2841170  97.6163100  36.6703810  74.6426760
  98.0092670  36.9876010  73.8295450  97.9779950  35.7915690  74.7571280
  95.9255270  35.4211120  85.9023620  95.2353590  35.2283320  86.5369710
  96.6687570  35.7045760  86.4347920  86.8397500  37.2024730  68.0759680
  86.7572170  38.1455490  68.2174670  86.4880560  37.0599640  67.1972030
  98.2018240  39.2609560  78.7377540  97.4699360  39.7696370  79.0867640
  97.8042580  38.4439540  78.4366320  94.6395630  35.9363760  77.1430030
  94.6431690  35.4953710  76.2934570  95.5346750  36.2581090  77.2501850
  94.7015780  36.9375840  70.1336790  94.8228600  36.8962320  71.0822610
  94.3164290  37.7999990  69.9783520  98.6644150  34.7143240  78.1500480
  98.6816890  35.1651890  78.9942330  98.4159730  33.8148880  78.3633920
  93.7137280  39.2476980  69.5320090  93.1454180  38.7995230  68.9056000
  94.4226280  39.6069760  68.9985240 102.0914900  32.1275420  83.9886860
 102.4160670  31.3965080  84.5144840 102.1271410  31.8089060  83.0867850
  94.9403600  39.9965540  78.8895440  95.3073730  39.5224110  79.6356780
  94.7508660  40.8707110  79.2303780  92.7302970  39.0374180  81.2079650
  92.4260040  39.9166160  81.4330010  93.6849430  39.0973970  81.2437090
  91.2584760  43.2435170  71.8046500  90.4847020  42.7032790  71.6445220
  91.9879390  42.7241780  71.4664260 102.0172740  42.2400530  77.5972890
 102.7371860  42.7355820  77.2069000 101.8154560  41.5618420  76.9526760
  97.4782680  33.6338490  71.7402280  96.6647290  33.1351660  71.6647590
  97.2844630  34.4736740  71.3238630  97.3991540  42.3109590  83.4841890
  97.3328850  41.3905260  83.2299480  96.7696680  42.4085030  84.1986530
 100.1931070  38.0058140  70.0364440 101.0810690  38.3175370  69.8615780
 100.1636160  37.1330390  69.6445020  91.3022160  42.9115550  75.4425310
  91.8200830  42.1083810  75.3882200  90.8506180  42.8494690  76.2842140
  96.1891660  44.1781830  70.7152610  96.5307360  44.9224060  70.2195930
  95.3604370  44.4912950  71.0777440  88.7866700  39.8776920  82.3551010
  88.4281640  40.5430770  82.9424350  88.4921260  39.0460470  82.7263630
  91.9879820  40.3361160  85.2390560  91.6879960  40.4818340  84.3418380
  92.7591060  39.7766450  85.1463950  97.3308270  45.1330160  83.2345690
  97.3452810  44.2011120  83.0164600  96.6233370  45.2189920  83.8735460
 102.4645340  39.3169980  69.5044300 102.3809060  39.7484200  68.6540740
 103.1839530  39.7768330  69.9371120 103.5419480  41.7737500  82.5814270
 102.8167670  42.3666280  82.3843660 104.0694940  41.7661040  81.7827640
  99.0719070  43.4997670  76.0798120  99.4242890  42.9025800  75.4199490
  98.1881400  43.1741900  76.2506370  95.1582350  44.2595360  73.4868530
  95.8453480  44.8064570  73.8676120  94.3714770  44.8036090  73.5218140
  94.4609560  41.2641390  73.0993890  94.9172340  42.0746640  73.3254080
  94.1097770  40.9464530  73.9312380  96.7642170  46.7747730  80.3286190
  97.4084390  46.9807110  81.0059610  97.1271610  46.0136130  79.8757040
  98.0374250  44.7780080  79.0463640  98.6796480  44.0773240  79.1595810
  98.5623600  45.5578520  78.8660530 101.8829970  45.0628700  68.7702780
 101.6567550  44.3459140  69.3627420 101.4926170  44.8141140  67.9324530
  99.8111870  45.5774980  82.2499700 100.1468110  46.1641670  82.9277620
  98.8912210  45.4467690  82.4797490 101.4646220  42.9800640  70.4316940
 101.1767920  43.4413330  71.2194820 102.2598390  42.5198410  70.7001160
  95.6400450  45.6266310  85.4187760  95.3197320  44.9075550  85.9633450
  94.9658810  46.3021380  85.4923820  98.8554050  35.8592470  80.7824560
  99.2234870  35.0387680  81.1104130  97.9952250  35.9194360  81.1980210
 102.2216080  34.8149410  71.5912120 101.5929240  34.9195080  70.8770350
 101.7268000  35.0346190  72.3806000  94.1900110  37.0935360  73.0070000
  93.4816260  37.5621700  73.4483610  94.4744590  36.4357370  73.6415190
  95.8156040  38.5132060  81.0062530  96.3141290  38.9877880  81.6714380
  95.9578990  37.5895580  81.2132560  98.2215540  33.8186020  74.4465790
  98.0983320  33.8372150  73.4975300  99.1700100  33.8664960  74.5664190
  95.3092330  49.0541320  73.7193770  95.5633830  49.0162710  72.7973140
  94.3604810  48.9274650  73.7122020 101.3144910  39.9733200  75.2952280
 100.3735050  39.9883430  75.4699970 101.6288980  39.1869160  75.7412580
  89.7946300  48.4219330  85.8309250  90.5959030  48.7431380  86.2444650
  89.2798120  48.0614910  86.5529160  98.6310930  44.5299200  85.7784660
  98.0249090  44.5530800  85.0380410  98.3265040  43.7982240  86.3151910
 100.0611300  48.2579490  84.3894070 101.0133050  48.1737510  84.3394310
  99.9139520  48.9221200  85.0627860  87.5144110  40.9092790  84.7745300
  88.0183130  40.3300070  85.3461530  86.7751530  41.1933020  85.3121670
  94.5682050  42.3163780  84.3080820  93.8027720  42.8848780  84.2235490
  94.7498010  42.0239990  83.4149050  97.6570460  42.6927010  68.9333580
  97.1080560  43.1396310  69.5776320  98.2789720  42.1876260  69.4571250
 101.7105400  44.0469110  84.8655840 102.4514870  44.3844870  84.3623300
 100.9478080  44.2161170  84.3125610  89.5467190  39.0522380  85.6695370
  89.5872530  38.7536250  86.5780600  90.4012690  39.4529990  85.5102890
  93.3245580  41.6517930  70.8298880  93.7462000  41.4857800  71.6730270
  93.4496420  40.8418160  70.3354020  91.4873000  37.6314480  83.6369860
  90.9569460  37.1405430  83.0093200  92.1561070  38.0598680  83.1027790
  95.8373220  40.6755540  68.0775980  96.3578880  39.9604560  67.7117130
  96.4841620  41.3141410  68.3776490 100.3851060  42.0983940  83.4011050
 100.7992080  42.2529020  84.2501470  99.4502060  42.2239160  83.5636830
 100.8573230  39.4380100  85.4050200 101.4394000  38.6832420  85.3170680
 101.0335000  39.9687540  84.6281680  91.9745300  34.5976850  83.7167150
  91.8802170  33.9797600  82.9918020  91.3942690  35.3243140  83.4897060
  94.7406740  33.1550090  80.7494540  94.2924040  33.1774350  79.9040090
  94.1071940  32.7569110  81.3464840  95.1466290  42.0504420  81.3706980
  95.5654400  42.8937150  81.1983220  94.2274920  42.1876460  81.1413760
  97.4830190  39.7820600  82.7544820  97.6026400  39.1861740  83.4939660
  98.3424190  39.8190290  82.3346120  99.8218090  40.3357790  81.3307330
  99.2953310  40.8600410  80.7272470 100.1649430  40.9685180  81.9617060
  92.2204480  37.7251160  67.7757040  92.0193540  36.8618520  68.1370380
  92.0496530  37.6384520  66.8378640  92.9973710  48.3557430  82.4864710
  92.4594800  49.0803490  82.1673410  93.2507670  47.8787770  81.6962050
  94.2498960  36.3241950  84.0120640  94.8398650  36.0157800  84.6998460
  93.4319200  35.8521700  84.1680540  99.0692390  35.9407760  84.2453660
  98.3807910  35.2789300  84.1803650  99.7898410  35.4946030  84.6902120
  99.6992790  32.5359390  70.3043920  99.9795080  31.6927290  70.6603340
  98.9258520  32.7682500  70.8182670  95.8535920  49.5908640  82.7451360
  95.7794620  50.4943780  83.0523730  94.9514760  49.2720540  82.7173430
  94.2372210  33.7686400  68.7491120  93.8894210  33.0910390  68.1693570
  94.4384980  33.3075910  69.5634510  96.4021250  48.7567150  70.3677720
  97.2972040  49.0952120  70.3896480  96.4338880  48.0346560  69.7402000
 103.3815600  47.2870820  83.0743920 102.7817590  47.3463380  82.3307840
 103.5109500  46.3475800  83.2040770 104.6217050  45.0288640  68.4113630
 103.7910010  45.0965290  68.8820860 104.7988880  45.9192760  68.1080490
 102.0667240  44.0122800  81.1720080 101.2527080  44.4419960  81.4345870
 102.4741440  44.6241210  80.5589130 104.1292680  42.0670490  68.0720350
 104.4041520  42.9749370  67.9439570 103.9403420  42.0033020  69.0082340
 100.5268290  35.0915340  69.3673980 100.9453170  34.9046320  68.5270640
 100.2204350  34.2394390  69.6776910  88.6153780  40.6826620  79.6858830
  88.9826820  40.5954020  80.5654850  88.0464600  39.9193170  79.5865690
  88.1669780  37.5935710  83.5917250  87.2725830  37.5602470  83.9310960
  88.7067330  37.7922500  84.3568500 101.8545710  34.3767430  85.4769000
 102.7315890  34.3850830  85.8603000 101.8666550  33.6398270  84.8661350
 103.3008980  38.2296970  76.3657020 103.8246460  37.7359620  75.7347190
 103.8868400  38.3647330  77.1104590 102.7908950  37.4870320  72.3049430
 103.2868070  37.2541190  73.0898310 102.5925020  36.6482160  71.8887070
 104.2196110  36.1231270  74.8387110 104.1095390  35.9687310  75.7769380
 104.9803700  35.5952210  74.5962520 102.5661830  32.0625400  81.2970110
 103.2034050  32.6759540  81.6629300 102.7136720  32.0986060  80.3519340
 105.1824870  34.7249850  70.7049960 104.3876370  34.6594970  71.2342870
 105.3868150  35.6600490  70.6935310  93.7311890  46.7518900  80.4488700
  93.4903250  47.0193460  79.5619220  94.6714530  46.9224630  80.5039560
  95.9366310  33.2151590  84.2045210  95.8755200  33.8073420  84.9540620
  96.8766690  33.1077550  84.0595470  98.5740870  32.8721650  83.8437500
  99.1881280  33.1900940  83.1818580  99.1190430  32.3870240  84.4633360
  99.3148910  31.4353790  80.1706790  98.4408750  31.7688900  79.9679720
  99.2059660  30.9626970  80.9958660 100.2220890  33.6424660  81.5548510
  99.8934250  32.8276420  81.1750240 101.1703190  33.5994470  81.4314200
 102.6755500  49.4136700  78.5286080 102.2158470  50.1652510  78.1544100
 102.0467960  48.6943170  78.4700880  93.1051220  47.7224940  77.7034210
  93.6216240  47.1112300  77.1782470  93.7548600  48.2253720  78.1945220
  95.8446720  48.6133430  78.5303190  96.1324530  48.3587730  77.6536200
  96.3569940  48.0610790  79.1208760  97.0623730  32.3523630  79.1099700
  96.2795520  32.8269130  79.3896460  96.7686660  31.4478460  79.0012880
 101.6144800  33.0546730  77.1548790 102.0552890  32.9991830  76.3070390
 101.3452390  33.9704740  77.2258970 103.4783370  32.6861970  75.1657610
 103.4171770  31.7423190  75.0188630 104.2575400  32.7942060  75.7111070
  94.9477950  34.7710380  74.6215730  94.1352460  34.3967270  74.2811610
  95.4519590  34.0155460  74.9236920  99.4502930  31.4352830  75.8598800
 100.0532300  32.0073040  76.3347320  98.7095920  31.9992270  75.6372700
 102.5937530  31.8374390  71.1339080 102.7888160  32.7357840  71.4006510
 101.8067400  31.6061470  71.6272030  93.0982690  32.1994280  85.6613270
  92.8166960  32.7027880  84.8974090  93.4802390  31.4016030  85.2955400
  99.6998150  31.6147860  86.2393740  99.5863600  31.9342470  87.1345260
 100.5167890  32.0160370  85.9431020  98.6056300  39.6340330  56.6028480
  98.5250350  38.7194940  56.3320190  98.1920720  40.1307400  55.8968190
  96.7374340  41.4119350  58.4837750  95.9616440  40.9319790  58.7736320
  97.3887270  40.7325000  58.3093910  89.1632120  36.6841050  53.1455900
  88.2748820  37.0257020  53.0435780  89.4473310  36.4841370  52.2536730
  97.2088500  36.8946920  58.7176840  97.5853320  36.0218800  58.6050510
  97.1108010  37.2305620  57.8267280  91.3393510  35.2672550  54.1794280
  91.4460260  36.1676280  54.4863040  90.4285870  35.2190520  53.8888930
  93.1801240  38.2358920  58.5119460  93.6879460  38.7339890  59.1524480
  93.7114480  37.4594120  58.3358820 105.2812170  36.4064110  62.2148810
 104.5764340  36.7945820  61.6963920 105.5470090  37.1014400  62.8169740
  97.8508430  42.9876790  54.2772780  97.2325700  43.4526240  53.7135500
  98.3631680  43.6804270  54.6942290 101.2274100  36.3297740  58.4232720
 100.5229670  36.6182630  59.0035830 101.5886260  37.1397850  58.0632280
  91.1452670  34.5867440  60.7853330  91.4869480  35.4309490  60.4907200
  90.2068480  34.7351180  60.9018670  87.2191630  43.6733320  51.6512410
  86.8419610  44.1620420  50.9197310  87.4764700  44.3458600  52.2818940
 102.8436880  45.9472870  60.6860200 102.1600400  46.6171980  60.6776870
 103.3831170  46.1453520  59.9205060 104.2961020  35.7752530  58.8141930
 103.3485930  35.8091510  58.9457360 104.6211010  36.5891480  59.1991290
  94.8280560  32.0749710  57.1097920  95.1355540  31.5196600  56.3933420
  93.8981260  32.2094170  56.9270910 101.6741040  44.5133220  54.4895550
 101.5637370  43.5707550  54.6144970 101.6709290  44.8748860  55.3758310
  99.7781060  42.6946840  60.7287990 100.1949850  42.4806950  59.8941450
 100.5020880  42.9519630  61.2996610 103.7243160  41.0934060  60.8204230
 102.8961790  41.1627150  60.3454360 104.3193640  41.6788370  60.3520060
 101.2458610  41.7018840  54.3493290 100.6271030  41.3638390  53.7019590
 101.2283060  41.0578600  55.0572480 100.6885170  37.8803380  61.7659100
 100.2756350  38.7057090  62.0199090  99.9561120  37.2948420  61.5735460
  92.8217960  40.6663280  56.6277770  92.4174960  39.9540530  56.1323670
  92.9081080  40.3216520  57.5165810  91.5346580  37.4406490  60.4076810
  92.0861170  37.5501830  59.6330060  92.0490090  37.8144090  61.1232040
 101.3785270  47.9262710  62.4540080 100.9015830  48.7334900  62.2612690
 100.6947060  47.2741040  62.6066290  89.5222590  39.5608260  54.1284420
  89.4020190  40.2870350  53.5165690  89.2123480  38.7911170  53.6512330
 104.9584480  47.6874650  67.5231470 105.4344200  48.1657540  68.2020550
 105.5791640  47.6192140  66.7976970  99.9015000  46.3758400  51.2408290
  99.2080160  46.3735690  50.5810570 100.6437860  45.9517720  50.8102460
 104.2141740  36.9319960  65.6481220 103.5986010  37.4399630  65.1196680
 103.8938160  36.0318290  65.5907160  91.9886250  32.9043330  57.5108090
  91.5454400  33.6852870  57.1792610  92.5471240  33.2273220  58.2179030
  96.2756060  35.7711850  63.1143410  95.8135430  35.9794870  63.9263350
  95.8734170  34.9571200  62.8114080 101.2760570  36.9920800  64.2440070
 100.4254160  36.6926550  64.5649140 101.1162360  37.2362810  63.3323890
  98.3710280  38.4922550  66.3438860  98.6963690  37.6586300  66.0041090
  99.1590610  39.0151070  66.4917190  94.0262150  33.4490660  59.3697690
  94.3234480  34.3553490  59.2889710  94.5747710  32.9609440  58.7557260
  94.2199680  38.9262480  65.9049610  94.1243280  37.9857210  65.7550010
  95.0631660  39.1477550  65.5097680  95.9255270  35.4211120  67.1280130
  95.2353590  35.2283320  67.7626220  96.6687570  35.7045760  67.6604430
  86.8397500  37.2024730  49.3016190  86.7572170  38.1455490  49.4431180
  86.4880560  37.0599640  48.4228540  98.2018240  39.2609560  59.9634050
  97.4699360  39.7696370  60.3124150  97.8042580  38.4439540  59.6622830
  94.6395630  35.9363760  58.3686540  94.6431690  35.4953710  57.5191080
  95.5346750  36.2581090  58.4758360  90.4898010  35.8190250  57.3280750
  90.1498060  36.2965480  58.0847800  89.7275330  35.3655370  56.9681850
  98.6644150  34.7143240  59.3756990  98.6816890  35.1651890  60.2198840
  98.4159730  33.8148880  59.5890430 102.0914900  32.1275420  65.2143370
 102.4160670  31.3965080  65.7401350 102.1271410  31.8089060  64.3124360
  94.9403600  39.9965540  60.1151950  95.3073730  39.5224110  60.8613290
  94.7508660  40.8707110  60.4560290  87.8044090  34.7409230  56.2445420
  87.5191010  34.3764900  57.0824040  87.7422950  34.0089690  55.6308560
  91.2584760  43.2435170  53.0303010  90.4847020  42.7032790  52.8701730
  91.9879390  42.7241780  52.6920770 102.0172740  42.2400530  58.8229400
 102.7371860  42.7355820  58.4325510 101.8154560  41.5618420  58.1783270
  97.4782680  33.6338490  52.9658790  96.6647290  33.1351660  52.8904100
  97.2844630  34.4736740  52.5495140  97.3991540  42.3109590  64.7098400
  97.3328850  41.3905260  64.4555990  96.7696680  42.4085030  65.4243040
  91.3022160  42.9115550  56.6681820  91.8200830  42.1083810  56.6138710
  90.8506180  42.8494690  57.5098650 103.5419480  41.7737500  63.8070780
 102.8167670  42.3666280  63.6100170 104.0694940  41.7661040  63.0084150
 103.4932590  46.1712240  53.4582940 102.8508750  45.5167860  53.7326660
 103.1063250  46.5767330  52.6823610  87.2974750  39.8768180  50.2042120
  88.1669600  40.1592980  50.4878040  86.8065070  40.6904050  50.0890930
  90.3621340  31.6079040  54.7972920  90.2335970  31.5996940  55.7457840
  89.5383360  31.9462130  54.4463930 101.8829970  45.0628700  49.9959290
 101.6567550  44.3459140  50.5883930 101.4926170  44.8141140  49.1581040
 101.4646220  42.9800640  51.6573450 101.1767920  43.4413330  52.4451330
 102.2598390  42.5198410  51.9257670  89.2821260  41.6941650  52.3324180
  88.6749210  42.4340550  52.3419480  89.7570610  41.7841010  51.5062380
  98.8554050  35.8592470  62.0081070  99.2234870  35.0387680  62.3360640
  97.9952250  35.9194360  62.4236720  96.6674220  46.5355000  50.2502610
  96.7686200  46.3318990  49.3204590  95.7675960  46.2813280  50.4550390
  95.8156040  38.5132060  62.2319040  96.3141290  38.9877880  62.8970890
  95.9578990  37.5895580  62.4389070 103.0222900  34.7300020  63.0747430
 102.5196500  35.4705420  63.4141240 103.8379560  35.1184020  62.7584220
 101.3144910  39.9733200  56.5208790 100.3735050  39.9883430  56.6956480
 101.6288980  39.1869160  56.9669090 103.3170490  47.1442050  58.1963050
 103.4417910  47.9673220  58.6686860 104.1836050  46.9332780  57.8487200
 102.9520500  47.6373700  51.1142490 102.6662010  47.2238840  50.2996670
 102.7540050  48.5661410  50.9943010 101.7105400  44.0469110  66.0912350
 102.4514870  44.3844870  65.5879810 100.9478080  44.2161170  65.5382120
  89.5467190  39.0522380  66.8951880  89.5872530  38.7536250  67.8037110
  90.4012690  39.4529990  66.7359400  91.4873000  37.6314480  64.8626370
  90.9569460  37.1405430  64.2349710  92.1561070  38.0598680  64.3284300
 100.3851060  42.0983940  64.6267560 100.7992080  42.2529020  65.4757980
  99.4502060  42.2239160  64.7893340 100.8573230  39.4380100  66.6306710
 101.4394000  38.6832420  66.5427190 101.0335000  39.9687540  65.8538190
  94.7406740  33.1550090  61.9751050  94.2924040  33.1774350  61.1296600
  94.1071940  32.7569110  62.5721350  97.4830190  39.7820600  63.9801330
  97.6026400  39.1861740  64.7196170  98.3424190  39.8190290  63.5602630
  99.8218090  40.3357790  62.5563840  99.2953310  40.8600410  61.9528980
 100.1649430  40.9685180  63.1873570  94.2498960  36.3241950  65.2377150
  94.8398650  36.0157800  65.9254970  93.4319200  35.8521700  65.3937050
  99.0692390  35.9407760  65.4710170  98.3807910  35.2789300  65.4060160
  99.7898410  35.4946030  65.9158630  99.6992790  32.5359390  51.5300430
  99.9795080  31.6927290  51.8859850  98.9258520  32.7682500  52.0439180
 104.0773510  41.7736120  52.1404340 104.8392420  42.3432770  52.2464030
 104.0927880  41.2063320  52.9112650 105.0833480  42.6286220  56.9846270
 105.4542310  41.8453540  56.5782240 105.7235410  43.3175320  56.8063570
 102.0667240  44.0122800  62.3976590 101.2527080  44.4419960  62.6602380
 102.4741440  44.6241210  61.7845640 104.1292680  42.0670490  49.2976860
 104.4041520  42.9749370  49.1696080 103.9403420  42.0033020  50.2338850
 100.5268290  35.0915340  50.5930490 100.9453170  34.9046320  49.7527150
 100.2204350  34.2394390  50.9033420 104.0258020  40.0039480  54.2906290
 103.6501620  39.2367410  53.8587580 103.2961140  40.3862180  54.7781220
 103.4157640  39.1511000  63.9245810 103.1843730  38.9223750  63.0243760
 103.6762190  40.0710550  63.8790700 101.8545710  34.3767430  66.7025510
 102.7315890  34.3850830  67.0859510 101.8666550  33.6398270  66.0917860
  86.7915930  37.5072980  52.3137330  85.8880010  37.7703180  52.1388990
  87.2756550  37.7784150  51.5337290 103.3008980  38.2296970  57.5913530
 103.8246460  37.7359620  56.9603700 103.8868400  38.3647330  58.3361100
 103.4798700  38.3136840  61.1133080 102.5301410  38.2800380  61.2278070
 103.6611710  39.2236950  60.8782850  88.9817300  32.6177850  49.2634360
  89.7045430  33.1586790  49.5815580  89.2541820  32.3441270  48.3875900
  88.6709490  31.8684040  59.1656980  89.3185680  31.3181420  58.7252140
  89.0911330  32.1227190  59.9872790 104.2196110  36.1231270  56.0643620
 104.1095390  35.9687310  57.0025890 104.9803700  35.5952210  55.8219030
  95.9366310  33.2151590  65.4301720  95.8755200  33.8073420  66.1797130
  96.8766690  33.1077550  65.2851980  98.5740870  32.8721650  65.0694010
  99.1881280  33.1900940  64.4075090  99.1190430  32.3870240  65.6889870
  99.3148910  31.4353790  61.3963300  98.4408750  31.7688900  61.1936230
  99.2059660  30.9626970  62.2215170 100.2220890  33.6424660  62.7805020
  99.8934250  32.8276420  62.4006750 101.1703190  33.5994470  62.6570710
 102.6755500  49.4136700  59.7542590 102.2158470  50.1652510  59.3800610
 102.0467960  48.6943170  59.6957390  97.0623730  32.3523630  60.3356210
  96.2795520  32.8269130  60.6152970  96.7686660  31.4478460  60.2269390
  94.9477950  34.7710380  55.8472240  94.1352460  34.3967270  55.5068120
  95.4519590  34.0155460  56.1493430  92.9727130  32.9210300  54.4517290
  92.3429870  32.2197610  54.6187420  92.4332270  33.6814430  54.2350450
 104.1464140  49.0775100  54.1202150 104.3216330  48.3912840  53.4763070
 103.4485710  49.6022150  53.7278820 102.4796640  48.7619390  66.9468940
 103.2721960  48.2668620  66.7394900 102.7729790  49.4409530  67.5544550
  98.6056300  39.6340330  37.8284990  98.5250350  38.7194940  37.5576700
  98.1920720  40.1307400  37.1224700 100.7581770  45.8179540  38.4893390
 100.2963300  45.0466780  38.8180560 101.5707320  45.8445610  38.9945840
  89.1632120  36.6841050  34.3712410  88.2748820  37.0257020  34.2692290
  89.4473310  36.4841370  33.4793240  96.9845080  48.1037550  38.1097380
  96.3656520  48.5595050  37.5391820  97.8396860  48.2589010  37.7087080
  96.1783330  44.0876540  39.7164420  96.1091610  43.1466480  39.5553550
  96.9403190  44.1777950  40.2886990  91.3393510  35.2672550  35.4050790
  91.4460260  36.1676280  35.7119550  90.4285870  35.2190520  35.1145440
 100.9912620  34.3897360  36.8761690 101.8122240  33.8993930  36.9187170
 101.0246700  34.9795020  37.6293530  91.4637340  32.8757480  44.0039390
  91.4655780  33.3929870  43.1985290  90.6341650  32.3987660  43.9809320
  97.8508430  42.9876790  35.5029290  97.2325700  43.4526240  34.9392010
  98.3631680  43.6804270  35.9198800 101.2274100  36.3297740  39.6489230
 100.5229670  36.6182630  40.2292340 101.5886260  37.1397850  39.2888790
 104.2961020  35.7752530  40.0398440 103.3485930  35.8091510  40.1713870
 104.6211010  36.5891480  40.4247800  94.8280560  32.0749710  38.3354430
  95.1355540  31.5196600  37.6189930  93.8981260  32.2094170  38.1527420
 100.3795620  47.7917000  40.6261890 100.3922780  47.3879290  39.7584150
  99.8270840  48.5664290  40.5223320  99.7781060  42.6946840  41.9544500
 100.1949850  42.4806950  41.1197960 100.5020880  42.9519630  42.5253120
  97.2161320  40.1398540  35.0714550  96.2890600  40.0735920  35.3003020
  97.3686140  41.0778670  34.9569790 101.3785270  47.9262710  43.6796590
 100.9015830  48.7334900  43.4869200 100.6947060  47.2741040  43.8322800
  97.5318690  45.8801720  36.5503790  97.9714600  46.6226050  36.1359180
  97.4705580  46.1228290  37.4742750 103.0040450  32.1948460  30.8963590
 102.6913110  32.2875290  31.7962660 103.7652920  32.7729490  30.8461020
 104.3617730  44.8787500  45.9087990 104.4880790  44.6399380  44.9905170
 104.4039110  44.0472040  46.3810070  98.2234470  48.5815500  44.4782800
  98.7379140  48.4923510  45.2805230  97.3803550  48.9275200  44.7710710
 100.1988870  48.8670840  33.9066800 100.0390010  48.5773780  34.8048630
 100.0335580  48.0910970  33.3712030  92.6777250  48.6469370  35.6838420
  92.5019730  47.7304910  35.4706220  91.8232990  49.0056660  35.9236220
  99.4664930  48.0021110  36.5413290  99.9221880  47.2210490  36.8551910
  99.8057450  48.7127930  37.0854470 101.2760570  36.9920800  45.4696580
 100.4254160  36.6926550  45.7905650 101.1162360  37.2362810  44.5580400
  95.1045070  32.5254030  33.6170430  94.4799250  32.5213900  34.3423740
  95.0175190  31.6584990  33.2206400  91.7800470  38.0276900  36.4645850
  91.5541390  37.8114070  37.3692470  90.9993000  38.4605360  36.1191820
  99.0098230  38.0340270  35.0636500  98.4107120  38.7576070  34.8800120
  99.5577840  37.9717050  34.2812950  90.4898010  35.8190250  38.5537260
  90.1498060  36.2965480  39.3104310  89.7275330  35.3655370  38.1938360
  94.7015780  36.9375840  32.5849810  94.8228600  36.8962320  33.5335630
  94.3164290  37.7999990  32.4296540 102.0914900  32.1275420  46.4399880
 102.4160670  31.3965080  46.9657860 102.1271410  31.8089060  45.5380870
  88.7906460  43.1489000  45.8599840  88.4061250  42.5082670  46.4582800
  89.1018650  43.8525120  46.4294570  87.8044090  34.7409230  37.4701930
  87.5191010  34.3764900  38.3080550  87.7422950  34.0089690  36.8565070
  97.4782680  33.6338490  34.1915300  96.6647290  33.1351660  34.1160610
  97.2844630  34.4736740  33.7751650 100.1931070  38.0058140  32.4877460
 101.0810690  38.3175370  32.3128800 100.1636160  37.1330390  32.0958040
  96.1891660  44.1781830  33.1665630  96.5307360  44.9224060  32.6708950
  95.3604370  44.4912950  33.5290460  97.3308270  45.1330160  45.6858710
  97.3452810  44.2011120  45.4677620  96.6233370  45.2189920  46.3248480
 103.5419480  41.7737500  45.0327290 102.8167670  42.3666280  44.8356680
 104.0694940  41.7661040  44.2340660  99.0719070  43.4997670  38.5311140
  99.4242890  42.9025800  37.8712510  98.1881400  43.1741900  38.7019390
  95.1582350  44.2595360  35.9381550  95.8453480  44.8064570  36.3189140
  94.3714770  44.8036090  35.9731160  94.4609560  41.2641390  35.5506910
  94.9172340  42.0746640  35.7767100  94.1097770  40.9464530  36.3825400
  96.7642170  46.7747730  42.7799210  97.4084390  46.9807110  43.4572630
  97.1271610  46.0136130  42.3270060  98.0374250  44.7780080  41.4976660
  98.6796480  44.0773240  41.6108830  98.5623600  45.5578520  41.3173550
  99.8111870  45.5774980  44.7012720 100.1468110  46.1641670  45.3790640
  98.8912210  45.4467690  44.9310510  87.6646000  49.0895560  31.9960260
  88.0243640  49.6884900  31.3417530  87.5238340  49.6355450  32.7695290
  95.6400450  45.6266310  47.8700780  95.3197320  44.9075550  48.4146470
  94.9658810  46.3021380  47.9436840  93.6814620  46.4726760  32.8133930
  93.6724720  47.2056450  32.1978440  92.7612980  46.2258340  32.9060890
 102.2216080  34.8149410  34.0425140 101.5929240  34.9195080  33.3283370
 101.7268000  35.0346190  34.8319020  94.1900110  37.0935360  35.4583020
  93.4816260  37.5621700  35.8996630  94.4744590  36.4357370  36.0928210
  98.2215540  33.8186020  36.8978810  98.0983320  33.8372150  35.9488320
  99.1700100  33.8664960  37.0177210  95.3092330  49.0541320  36.1706790
  95.5633830  49.0162710  35.2486160  94.3604810  48.9274650  36.1635040
  92.3935130  35.4020440  32.8333730  93.2425660  35.8390590  32.7673920
  92.0266400  35.7140700  33.6605790 103.3170490  47.1442050  39.4219560
 103.4417910  47.9673220  39.8943370 104.1836050  46.9332780  39.0743710
  90.7888020  49.2373260  39.0936690  91.5250500  48.6888720  39.3645260
  91.1728940  50.1029270  38.9542680  87.6733500  45.3046830  34.9678200
  86.7473280  45.5467970  34.9583610  88.1389930  46.1321090  34.8462950
  93.8990330  48.4103570  30.9162260  94.6918940  48.6992400  30.4644050
  93.3794680  47.9795740  30.2374740  98.6310930  44.5299200  48.2297680
  98.0249090  44.5530800  47.4893430  98.3265040  43.7982240  48.7664930
 100.0611300  48.2579490  46.8407090 101.0133050  48.1737510  46.7907330
  99.9139520  48.9221200  47.5140880 102.9520500  47.6373700  32.3399000
 102.6662010  47.2238840  31.5253180 102.7540050  48.5661410  32.2199520
  87.5144110  40.9092790  47.2258320  88.0183130  40.3300070  47.7974550
  86.7751530  41.1933020  47.7634690 101.7105400  44.0469110  47.3168860
 102.4514870  44.3844870  46.8136320 100.9478080  44.2161170  46.7638630
 100.3851060  42.0983940  45.8524070 100.7992080  42.2529020  46.7014490
  99.4502060  42.2239160  46.0149850 100.8573230  39.4380100  47.8563220
 101.4394000  38.6832420  47.7683700 101.0335000  39.9687540  47.0794700
  99.8218090  40.3357790  43.7820350  99.2953310  40.8600410  43.1785490
 100.1649430  40.9685180  44.4130080  99.6992790  32.5359390  32.7556940
  99.9795080  31.6927290  33.1116360  98.9258520  32.7682500  33.2695690
  91.0187280  34.8251780  30.2147940  91.3213180  34.8319210  29.3067090
  91.7581870  34.4749640  30.7115600  95.8535920  49.5908640  45.1964380
  95.7794620  50.4943780  45.5036750  94.9514760  49.2720540  45.1686450
  94.2372210  33.7686400  31.2004140  93.8894210  33.0910390  30.6206590
  94.4384980  33.3075910  32.0147530  96.4021250  48.7567150  32.8190740
  97.2972040  49.0952120  32.8409500  96.4338880  48.0346560  32.1915020
  87.7453420  47.7853820  41.2379630  87.3084410  47.9654620  42.0703780
  88.3131100  48.5428440  41.0961350 103.3815600  47.2870820  45.5256940
 102.7817590  47.3463380  44.7820860 103.5109500  46.3475800  45.6553790
  87.5777850  40.2974050  37.5968510  86.9226690  40.0285690  36.9528210
  88.4155800  40.1878530  37.1470490 102.0667240  44.0122800  43.6233100
 101.2527080  44.4419960  43.8858890 102.4741440  44.6241210  43.0102150
 100.5268290  35.0915340  31.8187000 100.9453170  34.9046320  30.9783660
 100.2204350  34.2394390  32.1289930 103.4157640  39.1511000  45.1502320
 103.1843730  38.9223750  44.2500270 103.6762190  40.0710550  45.1047210
  86.7915930  37.5072980  33.5393840  85.8880010  37.7703180  33.3645500
  87.2756550  37.7784150  32.7593800  88.9817300  32.6177850  30.4890870
  89.7045430  33.1586790  30.8072090  89.2541820  32.3441270  29.6132410
 104.2196110  36.1231270  37.2900130 104.1095390  35.9687310  38.2282400
 104.9803700  35.5952210  37.0475540 102.5661830  32.0625400  43.7483130
 103.2034050  32.6759540  44.1142320 102.7136720  32.0986060  42.8032360
 105.1086380  33.9539190  30.5306270 106.0335690  33.8220370  30.3224560
 105.0862170  34.0332010  31.4842720 105.1824870  34.7249850  33.1562980
 104.3876370  34.6594970  33.6855890 105.3868150  35.6600490  33.1448330
 102.1243290  48.7641400  37.1501370 102.7202360  48.4425970  36.4735790
 102.3821440  48.2913220  37.9414640  93.7311890  46.7518900  42.9001720
  93.4903250  47.0193460  42.0132240  94.6714530  46.9224630  42.9552580
  98.5740870  32.8721650  46.2950520  99.1881280  33.1900940  45.6331600
  99.1190430  32.3870240  46.9146380 104.9916050  48.7713280  43.7012360
 104.4974330  49.1682150  42.9839490 104.3829340  48.1462490  44.0949640
  99.3148910  31.4353790  42.6219810  98.4408750  31.7688900  42.4192740
  99.2059660  30.9626970  43.4471680 102.6755500  49.4136700  40.9799100
 102.2158470  50.1652510  40.6057120 102.0467960  48.6943170  40.9213900
  93.1051220  47.7224940  40.1547230  93.6216240  47.1112300  39.6295490
  93.7548600  48.2253720  40.6458240  95.8446720  48.6133430  40.9816210
  96.1324530  48.3587730  40.1049220  96.3569940  48.0610790  41.5721780
 101.6144800  33.0546730  39.6061810 102.0552890  32.9991830  38.7583410
 101.3452390  33.9704740  39.6771990 103.4783370  32.6861970  37.6170630
 103.4171770  31.7423190  37.4701650 104.2575400  32.7942060  38.1624090
  87.7836120  48.8254330  36.5794580  87.6158160  48.1925010  37.2776470
  86.9170630  49.0313730  36.2288770  88.4064140  32.6571110  34.0826440
  89.1643500  32.7699990  33.5090470  87.9441310  33.4940310  34.0369870
  99.4502930  31.4352830  38.3111820 100.0532300  32.0073040  38.7860340
  98.7095920  31.9992270  38.0885720 102.5937530  31.8374390  33.5852100
 102.7888160  32.7357840  33.8519530 101.8067400  31.6061470  34.0785050
  89.3898820  47.5187560  34.0244720  88.8646440  47.8995590  33.3206680
  89.3143400  48.1438330  34.7454430  90.7789290  33.1835160  32.6228410
  91.3082050  32.3964960  32.4936360  91.4117610  33.8626350  32.8563940
  95.9119080  49.5349530  48.3484410  96.8386390  49.2993800  48.3920370
  95.8969510  50.3621530  47.8670440 104.1464140  49.0775100  35.3458660
 104.3216330  48.3912840  34.7019580 103.4485710  49.6022150  34.9535330
  91.9891790  49.4669940  32.8993970  92.7210610  49.1829220  32.3517860
  92.2485460  49.2283220  33.7893350  91.1506580  45.5834670  32.9040300
  90.5215460  46.0519770  33.4526130  91.2654410  44.7383890  33.3386490
  99.6998150  31.6147860  48.6906760  99.5863600  31.9342470  49.5858280
 100.5167890  32.0160370  48.3944040 102.4796640  48.7619390  48.1725450
 103.2721960  48.2668620  47.9651410 102.7729790  49.4409530  48.7801060
  98.6056300  39.6340330  19.0541500  98.5250350  38.7194940  18.7833210
  98.1920720  40.1307400  18.3481210  96.7374340  41.4119350  20.9350770
  95.9616440  40.9319790  21.2249340  97.3887270  40.7325000  20.7606930
  90.7540170  41.7239160  21.8126530  89.9225050  41.4687870  22.2123040
  91.3621150  41.7949930  22.5484450 100.7581770  45.8179540  19.7149900
 100.2963300  45.0466780  20.0437070 101.5707320  45.8445610  20.2202350
  90.7341430  45.7579250  22.0084550  91.0369470  44.8676990  21.8294770
  91.4785020  46.3149470  21.7806800  89.1632120  36.6841050  15.5968920
  88.2748820  37.0257020  15.4948800  89.4473310  36.4841370  14.7049750
  87.1265130  39.2846700  21.4808620  87.6981240  38.5168900  21.4812260
  87.1266670  39.5835460  20.5715230  96.9845080  48.1037550  19.3353890
  96.3656520  48.5595050  18.7648330  97.8396860  48.2589010  18.9343590
  96.1783330  44.0876540  20.9420930  96.1091610  43.1466480  20.7810060
  96.9403190  44.1777950  21.5143500  88.3690000  34.6931060  23.2677550
  88.1892840  33.7956810  23.5480310  87.9670080  35.2402930  23.9424500
  97.2088500  36.8946920  21.1689860  97.5853320  36.0218800  21.0563530
  97.1108010  37.2305620  20.2780300  91.3393510  35.2672550  16.6307300
  91.4460260  36.1676280  16.9376060  90.4285870  35.2190520  16.3401950
 100.9912620  34.3897360  18.1018200 101.8122240  33.8993930  18.1443680
 101.0246700  34.9795020  18.8550040  88.9876670  37.1891560  21.8759890
  89.6686780  37.4529930  22.4947290  88.6724720  36.3492430  22.2097900
  93.1801240  38.2358920  20.9632480  93.6879460  38.7339890  21.6037500
  93.7114480  37.4594120  20.7871840 105.2812170  36.4064110  24.6661830
 104.5764340  36.7945820  24.1476940 105.5470090  37.1014400  25.2682760
  91.4637340  32.8757480  25.2295900  91.4655780  33.3929870  24.4241800
  90.6341650  32.3987660  25.2065830  97.8508430  42.9876790  16.7285800
  97.2325700  43.4526240  16.1648520  98.3631680  43.6804270  17.1455310
  92.7140190  42.5152660  23.4069400  92.3809570  43.1421580  24.0490470
  92.8906870  43.0414540  22.6271070 101.2274100  36.3297740  20.8745740
 100.5229670  36.6182630  21.4548850 101.5886260  37.1397850  20.5145300
  91.1452670  34.5867440  23.2366350  91.4869480  35.4309490  22.9420220
  90.2068480  34.7351180  23.3531690  91.9259290  44.4833460  25.2218580
  92.5433290  45.1584540  24.9403030  91.0652410  44.8921440  25.1306080
  87.2191630  43.6733320  14.1025430  86.8419610  44.1620420  13.3710330
  87.4764700  44.3458600  14.7331960 102.8436880  45.9472870  23.1373220
 102.1600400  46.6171980  23.1289890 103.3831170  46.1453520  22.3718080
 104.2961020  35.7752530  21.2654950 103.3485930  35.8091510  21.3970380
 104.6211010  36.5891480  21.6504310  94.8280560  32.0749710  19.5610940
  95.1355540  31.5196600  18.8446440  93.8981260  32.2094170  19.3783930
 100.3795620  47.7917000  21.8518400 100.3922780  47.3879290  20.9840660
  99.8270840  48.5664290  21.7479830 101.6741040  44.5133220  16.9408570
 101.5637370  43.5707550  17.0657990 101.6709290  44.8748860  17.8271330
  99.7781060  42.6946840  23.1801010 100.1949850  42.4806950  22.3454470
 100.5020880  42.9519630  23.7509630  97.2161320  40.1398540  16.2971060
  96.2890600  40.0735920  16.5259530  97.3686140  41.0778670  16.1826300
  97.2030400  36.4115540  13.2938220  96.2634070  36.5729500  13.3790680
  97.5213660  37.1301220  12.7474210 103.7243160  41.0934060  23.2717250
 102.8961790  41.1627150  22.7967380 104.3193640  41.6788370  22.8033080
 101.2458610  41.7018840  16.8006310 100.6271030  41.3638390  16.1532610
 101.2283060  41.0578600  17.5085500 100.6885170  37.8803380  24.2172120
 100.2756350  38.7057090  24.4712110  99.9561120  37.2948420  24.0248480
  92.8217960  40.6663280  19.0790790  92.4174960  39.9540530  18.5836690
  92.9081080  40.3216520  19.9678830  93.2899660  44.3530840  21.2430000
  92.9927950  43.7476310  20.5637780  94.2399480  44.3908150  21.1319360
  91.5346580  37.4406490  22.8589830  92.0861170  37.5501830  22.0843080
  92.0490090  37.8144090  23.5745060 101.3785270  47.9262710  24.9053100
 100.9015830  48.7334900  24.7125710 100.6947060  47.2741040  25.0579310
  99.4223310  40.9405650  13.8079060  99.8616590  40.1028080  13.6616880
 100.1351730  41.5735050  13.8943200  97.5318690  45.8801720  17.7760300
  97.9714600  46.6226050  17.3615690  97.4705580  46.1228290  18.6999260
  93.0069660  46.9047550  28.6780320  92.9785090  47.3090500  27.8108750
  92.8434630  45.9757910  28.5151920 103.0040450  32.1948460  12.1220100
 102.6913110  32.2875290  13.0219170 103.7652920  32.7729490  12.0717530
  89.5222590  39.5608260  16.5797440  89.4020190  40.2870350  15.9678710
  89.2123480  38.7911170  16.1025350 104.9584480  47.6874650  29.9744490
 105.4344200  48.1657540  30.6533570 105.5791640  47.6192140  29.2489990
  87.1607960  42.7323400  22.3866080  87.2388380  42.8672170  21.4421800
  87.7749640  42.0239290  22.5794200  88.4055590  44.4323590  18.7972260
  87.9983670  44.5738180  17.9425860  89.2968600  44.1483750  18.5943470
 104.3617730  44.8787500  27.1344500 104.4880790  44.6399380  26.2161680
 104.4039110  44.0472040  27.6066580 100.1988870  48.8670840  15.1323310
 100.0390010  48.5773780  16.0305140 100.0335580  48.0910970  14.5968540
  92.6777250  48.6469370  16.9094930  92.5019730  47.7304910  16.6962730
  91.8232990  49.0056660  17.1492730  99.9015000  46.3758400  13.6921310
  99.2080160  46.3735690  13.0323590 100.6437860  45.9517720  13.2615480
  99.4664930  48.0021110  17.7669800  99.9221880  47.2210490  18.0808420
  99.8057450  48.7127930  18.3110980 104.2141740  36.9319960  28.0994240
 103.5986010  37.4399630  27.5709700 103.8938160  36.0318290  28.0420180
  87.2167480  43.7737570  24.9260540  87.3798520  43.3042930  24.1079910
  87.6819930  43.2661130  25.5909380  91.9886250  32.9043330  19.9621110
  91.5454400  33.6852870  19.6305630  92.5471240  33.2273220  20.6692050
  96.2756060  35.7711850  25.5656430  95.8135430  35.9794870  26.3776370
  95.8734170  34.9571200  25.2627100 101.2760570  36.9920800  26.6953090
 100.4254160  36.6926550  27.0162160 101.1162360  37.2362810  25.7836910
  95.1045070  32.5254030  14.8426940  94.4799250  32.5213900  15.5680250
  95.0175190  31.6584990  14.4462910  94.0262150  33.4490660  21.8210710
  94.3234480  34.3553490  21.7402730  94.5747710  32.9609440  21.2070280
  91.7800470  38.0276900  17.6902360  91.5541390  37.8114070  18.5948980
  90.9993000  38.4605360  17.3448330  99.0098230  38.0340270  16.2893010
  98.4107120  38.7576070  16.1056630  99.5577840  37.9717050  15.5069460
  97.6163100  36.6703810  18.3196290  98.0092670  36.9876010  17.5064980
  97.9779950  35.7915690  18.4340810  89.3510220  35.3376150  26.5096410
  88.9573610  36.1851360  26.7169190  88.6628620  34.7002520  26.7005050
  86.6527270  33.2604610  20.5426490  86.3640320  33.8307470  21.2551470
  87.3973030  32.7809060  20.9057720  86.8397500  37.2024730  11.7529210
  86.7572170  38.1455490  11.8944200  86.4880560  37.0599640  10.8741560
  98.2018240  39.2609560  22.4147070  97.4699360  39.7696370  22.7637170
  97.8042580  38.4439540  22.1135850  94.6395630  35.9363760  20.8199560
  94.6431690  35.4953710  19.9704100  95.5346750  36.2581090  20.9271380
  90.4898010  35.8190250  19.7793770  90.1498060  36.2965480  20.5360820
  89.7275330  35.3655370  19.4194870  94.7015780  36.9375840  13.8106320
  94.8228600  36.8962320  14.7592140  94.3164290  37.7999990  13.6553050
  98.6644150  34.7143240  21.8270010  98.6816890  35.1651890  22.6711860
  98.4159730  33.8148880  22.0403450  93.7137280  39.2476980  13.2089620
  93.1454180  38.7995230  12.5825530  94.4226280  39.6069760  12.6754770
 102.0914900  32.1275420  27.6656390 102.4160670  31.3965080  28.1914370
 102.1271410  31.8089060  26.7637380  94.9403600  39.9965540  22.5664970
  95.3073730  39.5224110  23.3126310  94.7508660  40.8707110  22.9073310
  87.8044090  34.7409230  18.6958440  87.5191010  34.3764900  19.5337060
  87.7422950  34.0089690  18.0821580  91.2584760  43.2435170  15.4816030
  90.4847020  42.7032790  15.3214750  91.9879390  42.7241780  15.1433790
 102.0172740  42.2400530  21.2742420 102.7371860  42.7355820  20.8838530
 101.8154560  41.5618420  20.6296290  97.4782680  33.6338490  15.4171810
  96.6647290  33.1351660  15.3417120  97.2844630  34.4736740  15.0008160
 100.1931070  38.0058140  13.7133970 101.0810690  38.3175370  13.5385310
 100.1636160  37.1330390  13.3214550  91.3022160  42.9115550  19.1194840
  91.8200830  42.1083810  19.0651730  90.8506180  42.8494690  19.9611670
  96.1891660  44.1781830  14.3922140  96.5307360  44.9224060  13.8965460
  95.3604370  44.4912950  14.7546970  88.7866700  39.8776920  26.0320540
  88.4281640  40.5430770  26.6193880  88.4921260  39.0460470  26.4033160
 102.4645340  39.3169980  13.1813830 102.3809060  39.7484200  12.3310270
 103.1839530  39.7768330  13.6140650 103.5419480  41.7737500  26.2583800
 102.8167670  42.3666280  26.0613190 104.0694940  41.7661040  25.4597170
 103.4932590  46.1712240  15.9095960 102.8508750  45.5167860  16.1839680
 103.1063250  46.5767330  15.1336630  99.0719070  43.4997670  19.7567650
  99.4242890  42.9025800  19.0969020  98.1881400  43.1741900  19.9275900
  95.1582350  44.2595360  17.1638060  95.8453480  44.8064570  17.5445650
  94.3714770  44.8036090  17.1987670  87.2974750  39.8768180  12.6555140
  88.1669600  40.1592980  12.9391060  86.8065070  40.6904050  12.5403950
  94.4609560  41.2641390  16.7763420  94.9172340  42.0746640  17.0023610
  94.1097770  40.9464530  17.6081910  96.7642170  46.7747730  24.0055720
  97.4084390  46.9807110  24.6829140  97.1271610  46.0136130  23.5526570
  90.3621340  31.6079040  17.2485940  90.2335970  31.5996940  18.1970860
  89.5383360  31.9462130  16.8976950  98.0374250  44.7780080  22.7233170
  98.6796480  44.0773240  22.8365340  98.5623600  45.5578520  22.5430060
 101.8829970  45.0628700  12.4472310 101.6567550  44.3459140  13.0396950
 101.4926170  44.8141140  11.6094060  87.6646000  49.0895560  13.2216770
  88.0243640  49.6884900  12.5674040  87.5238340  49.6355450  13.9951800
  87.3615270  33.3670160  26.7092640  86.6473790  33.5667080  27.3145250
  87.7810310  32.5909730  27.0807440 101.4646220  42.9800640  14.1086470
 101.1767920  43.4413330  14.8964350 102.2598390  42.5198410  14.3770690
  87.6487860  47.3550420  27.6959170  87.7578980  46.4145160  27.5554560
  86.9968420  47.6205170  27.0472900  93.6814620  46.4726760  14.0390440
  93.6724720  47.2056450  13.4234950  92.7612980  46.2258340  14.1317400
  89.2821260  41.6941650  14.7837200  88.6749210  42.4340550  14.7932500
  89.7570610  41.7841010  13.9575400  98.8554050  35.8592470  24.4594090
  99.2234870  35.0387680  24.7873660  97.9952250  35.9194360  24.8749740
 102.2216080  34.8149410  15.2681650 101.5929240  34.9195080  14.5539880
 101.7268000  35.0346190  16.0575530  96.6674220  46.5355000  12.7015630
  96.7686200  46.3318990  11.7717610  95.7675960  46.2813280  12.9063410
  94.1900110  37.0935360  16.6839530  93.4816260  37.5621700  17.1253140
  94.4744590  36.4357370  17.3184720  98.2215540  33.8186020  18.1235320
  98.0983320  33.8372150  17.1744830  99.1700100  33.8664960  18.2433720
  95.3092330  49.0541320  17.3963300  95.5633830  49.0162710  16.4742670
  94.3604810  48.9274650  17.3891550  92.3935130  35.4020440  14.0590240
  93.2425660  35.8390590  13.9930430  92.0266400  35.7140700  14.8862300
 103.0222900  34.7300020  25.5260450 102.5196500  35.4705420  25.8654260
 103.8379560  35.1184020  25.2097240 101.3144910  39.9733200  18.9721810
 100.3735050  39.9883430  19.1469500 101.6288980  39.1869160  19.4182110
  91.2926550  41.6552800  12.5325770  92.0589820  41.5434160  13.0951200
  91.3701240  40.9590770  11.8802540  89.9873310  39.0877870  13.2158660
  90.0676900  38.1405380  13.3276060  90.8793060  39.4184750  13.3219320
 103.3170490  47.1442050  20.6476070 103.4417910  47.9673220  21.1199880
 104.1836050  46.9332780  20.3000220  90.7888020  49.2373260  20.3193200
  91.5250500  48.6888720  20.5901770  91.1728940  50.1029270  20.1799190
  87.6733500  45.3046830  16.1934710  86.7473280  45.5467970  16.1840120
  88.1389930  46.1321090  16.0719460  89.7946300  48.4219330  29.5078780
  90.5959030  48.7431380  29.9214180  89.2798120  48.0614910  30.2298690
  93.8990330  48.4103570  12.1418770  94.6918940  48.6992400  11.6900560
  93.3794680  47.9795740  11.4631250 102.9520500  47.6373700  13.5655510
 102.6662010  47.2238840  12.7509690 102.7540050  48.5661410  13.4456030
  94.4167730  43.6306980  12.0061120  94.3118370  43.0159330  12.7322500
  94.2491950  43.1072870  11.2224130  97.6570460  42.6927010  12.6103110
  97.1080560  43.1396310  13.2545850  98.2789720  42.1876260  13.1340780
  93.3245580  41.6517930  14.5068410  93.7462000  41.4857800  15.3499800
  93.4496420  40.8418160  14.0123550  95.8373220  40.6755540  11.7545510
  96.3578880  39.9604560  11.3886660  96.4841620  41.3141410  12.0546020
  91.9745300  34.5976850  27.3936680  91.8802170  33.9797600  26.6687550
  91.3942690  35.3243140  27.1666590  94.7406740  33.1550090  24.4264070
  94.2924040  33.1774350  23.5809620  94.1071940  32.7569110  25.0234370
  99.8218090  40.3357790  25.0076860  99.2953310  40.8600410  24.4042000
 100.1649430  40.9685180  25.6386590  92.2204480  37.7251160  11.4526570
  92.0193540  36.8618520  11.8139910  92.0496530  37.6384520  10.5148170
  92.9973710  48.3557430  26.1634240  92.4594800  49.0803490  25.8442940
  93.2507670  47.8787770  25.3731580  99.0692390  35.9407760  27.9223190
  98.3807910  35.2789300  27.8573180  99.7898410  35.4946030  28.3671650
  99.6992790  32.5359390  13.9813450  99.9795080  31.6927290  14.3372870
  98.9258520  32.7682500  14.4952200  91.0187280  34.8251780  11.4404450
  91.3213180  34.8319210  10.5323600  91.7581870  34.4749640  11.9372110
  95.8535920  49.5908640  26.4220890  95.7794620  50.4943780  26.7293260
  94.9514760  49.2720540  26.3942960  94.2372210  33.7686400  12.4260650
  93.8894210  33.0910390  11.8463100  94.4384980  33.3075910  13.2404040
  96.4021250  48.7567150  14.0447250  97.2972040  49.0952120  14.0666010
  96.4338880  48.0346560  13.4171530  90.0417410  44.1294200  12.2734250
  90.4792280  44.6723870  12.9291830  90.5265140  43.3041150  12.2830590
  87.2563210  46.9183230  19.7254510  87.5866220  46.0504290  19.4933150
  87.6854210  47.1241750  20.5559470  91.8525130  45.2492240  17.3856480
  91.5520670  45.1257210  18.2860390  91.7462620  44.3900830  16.9772210
  87.7453420  47.7853820  22.4636140  87.3084410  47.9654620  23.2960290
  88.3131100  48.5428440  22.3217860 103.3815600  47.2870820  26.7513450
 102.7817590  47.3463380  26.0077370 103.5109500  46.3475800  26.8810300
 104.6217050  45.0288640  12.0883160 103.7910010  45.0965290  12.5590390
 104.7988880  45.9192760  11.7850020 104.0773510  41.7736120  14.5917360
 104.8392420  42.3432770  14.6977050 104.0927880  41.2063320  15.3625670
  87.5777850  40.2974050  18.8225020  86.9226690  40.0285690  18.1784720
  88.4155800  40.1878530  18.3727000 105.0833480  42.6286220  19.4359290
 105.4542310  41.8453540  19.0295260 105.7235410  43.3175320  19.2576590
 102.0667240  44.0122800  24.8489610 101.2527080  44.4419960  25.1115400
 102.4741440  44.6241210  24.2358660 104.1292680  42.0670490  11.7489880
 104.4041520  42.9749370  11.6209100 103.9403420  42.0033020  12.6851870
 100.5268290  35.0915340  13.0443510 100.9453170  34.9046320  12.2040170
 100.2204350  34.2394390  13.3546440 104.0258020  40.0039480  16.7419310
 103.6501620  39.2367410  16.3100600 103.2961140  40.3862180  17.2294240
  88.6153780  40.6826620  23.3628360  88.9826820  40.5954020  24.2424380
  88.0464600  39.9193170  23.2635220 103.4157640  39.1511000  26.3758830
 103.1843730  38.9223750  25.4756780 103.6762190  40.0710550  26.3303720
  88.1669780  37.5935710  27.2686780  87.2725830  37.5602470  27.6080490
  88.7067330  37.7922500  28.0338030 101.8545710  34.3767430  29.1538530
 102.7315890  34.3850830  29.5372530 101.8666550  33.6398270  28.5430880
  86.7915930  37.5072980  14.7650350  85.8880010  37.7703180  14.5902010
  87.2756550  37.7784150  13.9850310 103.3008980  38.2296970  20.0426550
 103.8246460  37.7359620  19.4116720 103.8868400  38.3647330  20.7874120
 103.4798700  38.3136840  23.5646100 102.5301410  38.2800380  23.6791090
 103.6611710  39.2236950  23.3295870  89.3343140  36.5638520  12.6744730
  90.0434840  36.1421740  12.1892010  88.6183080  36.6313750  12.0428080
  88.9817300  32.6177850  11.7147380  89.7045430  33.1586790  12.0328600
  89.2541820  32.3441270  10.8388920 102.7908950  37.4870320  15.9818960
 103.2868070  37.2541190  16.7667840 102.5925020  36.6482160  15.5656600
  88.6709490  31.8684040  21.6170000  89.3185680  31.3181420  21.1765160
  89.0911330  32.1227190  22.4385810 104.2196110  36.1231270  18.5156640
 104.1095390  35.9687310  19.4538910 104.9803700  35.5952210  18.2732050
 102.5661830  32.0625400  24.9739640 103.2034050  32.6759540  25.3398830
 102.7136720  32.0986060  24.0288870 105.1086380  33.9539190  11.7562780
 106.0335690  33.8220370  11.5481070 105.0862170  34.0332010  12.7099230
 105.1824870  34.7249850  14.3819490 104.3876370  34.6594970  14.9112400
 105.3868150  35.6600490  14.3704840 102.1243290  48.7641400  18.3757880
 102.7202360  48.4425970  17.6992300 102.3821440  48.2913220  19.1671150
  88.4241490  32.0239710  24.3595320  88.0756310  32.4803530  25.1253500
  88.0929190  31.1296840  24.4417750  93.7311890  46.7518900  24.1258230
  93.4903250  47.0193460  23.2388750  94.6714530  46.9224630  24.1809090
  95.9366310  33.2151590  27.8814740  95.8755200  33.8073420  28.6310150
  96.8766690  33.1077550  27.7365000  98.5740870  32.8721650  27.5207030
  99.1881280  33.1900940  26.8588110  99.1190430  32.3870240  28.1402890
 104.9916050  48.7713280  24.9268870 104.4974330  49.1682150  24.2096000
 104.3829340  48.1462490  25.3206150  89.0962130  31.5515910  27.6346090
  89.6445120  31.3703960  26.8712200  89.1617440  30.7610020  28.1702400
  89.8693890  48.1421560  25.6446290  89.2754210  48.0106260  26.3836330
  89.8617730  47.3059700  25.1788390  99.3148910  31.4353790  23.8476320
  98.4408750  31.7688900  23.6449250  99.2059660  30.9626970  24.6728190
 100.2220890  33.6424660  25.2318040  99.8934250  32.8276420  24.8519770
 101.1703190  33.5994470  25.1083730 102.6755500  49.4136700  22.2055610
 102.2158470  50.1652510  21.8313630 102.0467960  48.6943170  22.1470410
  89.5006120  45.5079940  24.5954330  88.7740180  44.8885230  24.5280280
  89.5615270  45.9020550  23.7252410  93.1051220  47.7224940  21.3803740
  93.6216240  47.1112300  20.8552000  93.7548600  48.2253720  21.8714750
  95.8446720  48.6133430  22.2072720  96.1324530  48.3587730  21.3305730
  96.3569940  48.0610790  22.7978290  97.0623730  32.3523630  22.7869230
  96.2795520  32.8269130  23.0665990  96.7686660  31.4478460  22.6782410
 101.6144800  33.0546730  20.8318320 102.0552890  32.9991830  19.9839920
 101.3452390  33.9704740  20.9028500 103.4783370  32.6861970  18.8427140
 103.4171770  31.7423190  18.6958160 104.2575400  32.7942060  19.3880600
  87.7836120  48.8254330  17.8051090  87.6158160  48.1925010  18.5032980
  86.9170630  49.0313730  17.4545280  88.4064140  32.6571110  15.3082950
  89.1643500  32.7699990  14.7346980  87.9441310  33.4940310  15.2626380
  94.9477950  34.7710380  18.2985260  94.1352460  34.3967270  17.9581140
  95.4519590  34.0155460  18.6006450  99.4502930  31.4352830  19.5368330
 100.0532300  32.0073040  20.0116850  98.7095920  31.9992270  19.3142230
 102.5937530  31.8374390  14.8108610 102.7888160  32.7357840  15.0776040
 101.8067400  31.6061470  15.3041560  89.3898820  47.5187560  15.2501230
  88.8646440  47.8995590  14.5463190  89.3143400  48.1438330  15.9710940
  90.7789290  33.1835160  13.8484920  91.3082050  32.3964960  13.7192870
  91.4117610  33.8626350  14.0820450  92.9727130  32.9210300  16.9030310
  92.3429870  32.2197610  17.0700440  92.4332270  33.6814430  16.6863470
  95.9119080  49.5349530  29.5740920  96.8386390  49.2993800  29.6176880
  95.8969510  50.3621530  29.0926950 104.1464140  49.0775100  16.5715170
 104.3216330  48.3912840  15.9276090 103.4485710  49.6022150  16.1791840
  93.0982690  32.1994280  29.3382800  92.8166960  32.7027880  28.5743620
  93.4802390  31.4016030  28.9724930  91.9891790  49.4669940  14.1250480
  92.7210610  49.1829220  13.5774370  92.2485460  49.2283220  15.0149860
  91.1506580  45.5834670  14.1296810  90.5215460  46.0519770  14.6782640
  91.2654410  44.7383890  14.5643000  99.6998150  31.6147860  29.9163270
  99.5863600  31.9342470  30.8114790 100.5167890  32.0160370  29.6200550
 102.4796640  48.7619390  29.3981960 103.2721960  48.2668620  29.1907920
 102.7729790  49.4409530  30.0057570  96.7374340  41.4119350   2.1607280
  95.9616440  40.9319790   2.4505850  97.3887270  40.7325000   1.9863440
  90.7540170  41.7239160   3.0383040  89.9225050  41.4687870   3.4379550
  91.3621150  41.7949930   3.7740960  90.7341430  45.7579250   3.2341060
  91.0369470  44.8676990   3.0551280  91.4785020  46.3149470   3.0063310
  87.1265130  39.2846700   2.7065130  87.6981240  38.5168900   2.7068770
  87.1266670  39.5835460   1.7971740  96.1783330  44.0876540   2.1677440
  96.1091610  43.1466480   2.0066570  96.9403190  44.1777950   2.7400010
  88.3690000  34.6931060   4.4934060  88.1892840  33.7956810   4.7736820
  87.9670080  35.2402930   5.1681010  88.9876670  37.1891560   3.1016400
  89.6686780  37.4529930   3.7203800  88.6724720  36.3492430   3.4354410
  93.1801240  38.2358920   2.1888990  93.6879460  38.7339890   2.8294010
  93.7114480  37.4594120   2.0128350 105.2812170  36.4064110   5.8918340
 104.5764340  36.7945820   5.3733450 105.5470090  37.1014400   6.4939270
  91.4637340  32.8757480   6.4552410  91.4655780  33.3929870   5.6498310
  90.6341650  32.3987660   6.4322340  92.7140190  42.5152660   4.6325910
  92.3809570  43.1421580   5.2746980  92.8906870  43.0414540   3.8527580
 101.2274100  36.3297740   2.1002250 100.5229670  36.6182630   2.6805360
 101.5886260  37.1397850   1.7401810  91.1452670  34.5867440   4.4622860
  91.4869480  35.4309490   4.1676730  90.2068480  34.7351180   4.5788200
  91.9259290  44.4833460   6.4475090  92.5433290  45.1584540   6.1659540
  91.0652410  44.8921440   6.3562590 102.8436880  45.9472870   4.3629730
 102.1600400  46.6171980   4.3546400 103.3831170  46.1453520   3.5974590
 104.2961020  35.7752530   2.4911460 103.3485930  35.8091510   2.6226890
 104.6211010  36.5891480   2.8760820 100.3795620  47.7917000   3.0774910
 100.3922780  47.3879290   2.2097170  99.8270840  48.5664290   2.9736340
  99.7781060  42.6946840   4.4057520 100.1949850  42.4806950   3.5710980
 100.5020880  42.9519630   4.9766140 103.7243160  41.0934060   4.4973760
 102.8961790  41.1627150   4.0223890 104.3193640  41.6788370   4.0289590
 100.6885170  37.8803380   5.4428630 100.2756350  38.7057090   5.6968620
  99.9561120  37.2948420   5.2504990  93.2899660  44.3530840   2.4686510
  92.9927950  43.7476310   1.7894290  94.2399480  44.3908150   2.3575870
  91.5346580  37.4406490   4.0846340  92.0861170  37.5501830   3.3099590
  92.0490090  37.8144090   4.8001570 101.3785270  47.9262710   6.1309610
 100.9015830  48.7334900   5.9382220 100.6947060  47.2741040   6.2835820
  92.3818090  44.0912530   9.1194310  91.4846620  44.3152500   9.3667710
  92.4070960  44.2147470   8.1705710  91.2089310  40.9625850   7.6951680
  91.0697080  41.8348650   8.0639080  90.3270670  40.6198660   7.5499620
  93.0069660  46.9047550   9.9036830  92.9785090  47.3090500   9.0365260
  92.8434630  45.9757910   9.7408430 104.9584480  47.6874650  11.2001000
 105.4344200  48.1657540  11.8790080 105.5791640  47.6192140  10.4746500
  87.1607960  42.7323400   3.6122590  87.2388380  42.8672170   2.6678310
  87.7749640  42.0239290   3.8050710 104.3617730  44.8787500   8.3601010
 104.4880790  44.6399380   7.4418190 104.4039110  44.0472040   8.8323090
  98.2234470  48.5815500   6.9295820  98.7379140  48.4923510   7.7318250
  97.3803550  48.9275200   7.2223730 104.2141740  36.9319960   9.3250750
 103.5986010  37.4399630   8.7966210 103.8938160  36.0318290   9.2676690
  87.2167480  43.7737570   6.1517050  87.3798520  43.3042930   5.3336420
  87.6819930  43.2661130   6.8165890  96.2756060  35.7711850   6.7912940
  95.8135430  35.9794870   7.6032880  95.8734170  34.9571200   6.4883610
 101.2760570  36.9920800   7.9209600 100.4254160  36.6926550   8.2418670
 101.1162360  37.2362810   7.0093420  98.3710280  38.4922550  10.0208390
  98.6963690  37.6586300   9.6810620  99.1590610  39.0151070  10.1686720
  94.0262150  33.4490660   3.0467220  94.3234480  34.3553490   2.9659240
  94.5747710  32.9609440   2.4326790  94.2199680  38.9262480   9.5819140
  94.1243280  37.9857210   9.4319540  95.0631660  39.1477550   9.1867210
  89.3510220  35.3376150   7.7352920  88.9573610  36.1851360   7.9425700
  88.6628620  34.7002520   7.9261560  95.9255270  35.4211120  10.8049660
  95.2353590  35.2283320  11.4395750  96.6687570  35.7045760  11.3373960
  86.6527270  33.2604610   1.7683000  86.3640320  33.8307470   2.4807980
  87.3973030  32.7809060   2.1314230  98.2018240  39.2609560   3.6403580
  97.4699360  39.7696370   3.9893680  97.8042580  38.4439540   3.3392360
  98.6644150  34.7143240   3.0526520  98.6816890  35.1651890   3.8968370
  98.4159730  33.8148880   3.2659960 102.0914900  32.1275420   8.8912900
 102.4160670  31.3965080   9.4170880 102.1271410  31.8089060   7.9893890
  88.7906460  43.1489000   8.3112860  88.4061250  42.5082670   8.9095820
  89.1018650  43.8525120   8.8807590  94.9403600  39.9965540   3.7921480
  95.3073730  39.5224110   4.5382820  94.7508660  40.8707110   4.1329820
  92.7302970  39.0374180   6.1105690  92.4260040  39.9166160   6.3356050
  93.6849430  39.0973970   6.1463130 102.0172740  42.2400530   2.4998930
 102.7371860  42.7355820   2.1095040 101.8154560  41.5618420   1.8552800
  97.3991540  42.3109590   8.3867930  97.3328850  41.3905260   8.1325520
  96.7696680  42.4085030   9.1012570  88.7866700  39.8776920   7.2577050
  88.4281640  40.5430770   7.8450390  88.4921260  39.0460470   7.6289670
  91.9879820  40.3361160  10.1416600  91.6879960  40.4818340   9.2444420
  92.7591060  39.7766450  10.0489990  97.3308270  45.1330160   8.1371730
  97.3452810  44.2011120   7.9190640  96.6233370  45.2189920   8.7761500
 103.5419480  41.7737500   7.4840310 102.8167670  42.3666280   7.2869700
 104.0694940  41.7661040   6.6853680  96.7642170  46.7747730   5.2312230
  97.4084390  46.9807110   5.9085650  97.1271610  46.0136130   4.7783080
  98.0374250  44.7780080   3.9489680  98.6796480  44.0773240   4.0621850
  98.5623600  45.5578520   3.7686570  99.8111870  45.5774980   7.1525740
 100.1468110  46.1641670   7.8303660  98.8912210  45.4467690   7.3823530
  87.3615270  33.3670160   7.9349150  86.6473790  33.5667080   8.5401760
  87.7810310  32.5909730   8.3063950  87.6487860  47.3550420   8.9215680
  87.7578980  46.4145160   8.7811070  86.9968420  47.6205170   8.2729410
  95.6400450  45.6266310  10.3213800  95.3197320  44.9075550  10.8659490
  94.9658810  46.3021380  10.3949860  98.8554050  35.8592470   5.6850600
  99.2234870  35.0387680   6.0130170  97.9952250  35.9194360   6.1006250
  95.8156040  38.5132060   5.9088570  96.3141290  38.9877880   6.5740420
  95.9578990  37.5895580   6.1158600 103.0222900  34.7300020   6.7516960
 102.5196500  35.4705420   7.0910770 103.8379560  35.1184020   6.4353750
  89.7946300  48.4219330  10.7335290  90.5959030  48.7431380  11.1470690
  89.2798120  48.0614910  11.4555200  98.6310930  44.5299200  10.6810700
  98.0249090  44.5530800   9.9406450  98.3265040  43.7982240  11.2177950
 100.0611300  48.2579490   9.2920110 101.0133050  48.1737510   9.2420350
  99.9139520  48.9221200   9.9653900  87.5144110  40.9092790   9.6771340
  88.0183130  40.3300070  10.2487570  86.7751530  41.1933020  10.2147710
  94.5682050  42.3163780   9.2106860  93.8027720  42.8848780   9.1261530
  94.7498010  42.0239990   8.3175090 101.7105400  44.0469110   9.7681880
 102.4514870  44.3844870   9.2649340 100.9478080  44.2161170   9.2151650
  89.5467190  39.0522380  10.5721410  89.5872530  38.7536250  11.4806640
  90.4012690  39.4529990  10.4128930  91.4873000  37.6314480   8.5395900
  90.9569460  37.1405430   7.9119240  92.1561070  38.0598680   8.0053830
 100.3851060  42.0983940   8.3037090 100.7992080  42.2529020   9.1527510
  99.4502060  42.2239160   8.4662870 100.8573230  39.4380100  10.3076240
 101.4394000  38.6832420  10.2196720 101.0335000  39.9687540   9.5307720
  91.9745300  34.5976850   8.6193190  91.8802170  33.9797600   7.8944060
  91.3942690  35.3243140   8.3923100  94.7406740  33.1550090   5.6520580
  94.2924040  33.1774350   4.8066130  94.1071940  32.7569110   6.2490880
  95.1466290  42.0504420   6.2733020  95.5654400  42.8937150   6.1009260
  94.2274920  42.1876460   6.0439800  97.4830190  39.7820600   7.6570860
  97.6026400  39.1861740   8.3965700  98.3424190  39.8190290   7.2372160
  99.8218090  40.3357790   6.2333370  99.2953310  40.8600410   5.6298510
 100.1649430  40.9685180   6.8643100  92.9973710  48.3557430   7.3890750
  92.4594800  49.0803490   7.0699450  93.2507670  47.8787770   6.5988090
  94.2498960  36.3241950   8.9146680  94.8398650  36.0157800   9.6024500
  93.4319200  35.8521700   9.0706580  99.0692390  35.9407760   9.1479700
  98.3807910  35.2789300   9.0829690  99.7898410  35.4946030   9.5928160
  95.8535920  49.5908640   7.6477400  95.7794620  50.4943780   7.9549770
  94.9514760  49.2720540   7.6199470  87.7453420  47.7853820   3.6892650
  87.3084410  47.9654620   4.5216800  88.3131100  48.5428440   3.5474370
 103.3815600  47.2870820   7.9769960 102.7817590  47.3463380   7.2333880
 103.5109500  46.3475800   8.1066810 102.0667240  44.0122800   6.0746120
 101.2527080  44.4419960   6.3371910 102.4741440  44.6241210   5.4615170
  88.6153780  40.6826620   4.5884870  88.9826820  40.5954020   5.4680890
  88.0464600  39.9193170   4.4891730 103.4157640  39.1511000   7.6015340
 103.1843730  38.9223750   6.7013290 103.6762190  40.0710550   7.5560230
  88.1669780  37.5935710   8.4943290  87.2725830  37.5602470   8.8337000
  88.7067330  37.7922500   9.2594540 101.8545710  34.3767430  10.3795040
 102.7315890  34.3850830  10.7629040 101.8666550  33.6398270   9.7687390
 103.4798700  38.3136840   4.7902610 102.5301410  38.2800380   4.9047600
 103.6611710  39.2236950   4.5552380  88.6709490  31.8684040   2.8426510
  89.3185680  31.3181420   2.4021670  89.0911330  32.1227190   3.6642320
 102.5661830  32.0625400   6.1996150 103.2034050  32.6759540   6.5655340
 102.7136720  32.0986060   5.2545380  88.4241490  32.0239710   5.5851830
  88.0756310  32.4803530   6.3510010  88.0929190  31.1296840   5.6674260
  90.0305860  45.1959310   9.7505020  89.9875490  44.8252220  10.6319480
  90.1616870  46.1336880   9.8906840  93.7311890  46.7518900   5.3514740
  93.4903250  47.0193460   4.4645260  94.6714530  46.9224630   5.4065600
  95.9366310  33.2151590   9.1071250  95.8755200  33.8073420   9.8566660
  96.8766690  33.1077550   8.9621510  98.5740870  32.8721650   8.7463540
  99.1881280  33.1900940   8.0844620  99.1190430  32.3870240   9.3659400
 104.9916050  48.7713280   6.1525380 104.4974330  49.1682150   5.4352510
 104.3829340  48.1462490   6.5462660  89.0962130  31.5515910   8.8602600
  89.6445120  31.3703960   8.0968710  89.1617440  30.7610020   9.3958910
  89.8693890  48.1421560   6.8702800  89.2754210  48.0106260   7.6092840
  89.8617730  47.3059700   6.4044900  99.3148910  31.4353790   5.0732830
  98.4408750  31.7688900   4.8705760  99.2059660  30.9626970   5.8984700
 100.2220890  33.6424660   6.4574550  99.8934250  32.8276420   6.0776280
 101.1703190  33.5994470   6.3340240 102.6755500  49.4136700   3.4312120
 102.2158470  50.1652510   3.0570140 102.0467960  48.6943170   3.3726920
  89.5006120  45.5079940   5.8210840  88.7740180  44.8885230   5.7536790
  89.5615270  45.9020550   4.9508920  93.1051220  47.7224940   2.6060250
  93.6216240  47.1112300   2.0808510  93.7548600  48.2253720   3.0971260
  95.8446720  48.6133430   3.4329230  96.1324530  48.3587730   2.5562240
  96.3569940  48.0610790   4.0234800  97.0623730  32.3523630   4.0125740
  96.2795520  32.8269130   4.2922500  96.7686660  31.4478460   3.9038920
  95.9119080  49.5349530  10.7997430  96.8386390  49.2993800  10.8433390
  95.8969510  50.3621530  10.3183460  93.0982690  32.1994280  10.5639310
  92.8166960  32.7027880   9.8000130  93.4802390  31.4016030  10.1981440
  99.6998150  31.6147860  11.1419780  99.5863600  31.9342470  12.0371300
 100.5167890  32.0160370  10.8457060 102.4796640  48.7619390  10.6238470
 103.2721960  48.2668620  10.4164430 102.7729790  49.4409530  11.2314080
  98.6056300  20.8596840 150.4745930  98.5250350  19.9451450 150.2037640
  98.1920720  21.3563910 149.7685640 100.7581770  27.0436050 151.1354330
 100.2963300  26.2723290 151.4641500 101.5707320  27.0702120 151.6406780
  89.1632120  17.9097560 147.0173350  88.2748820  18.2513530 146.9153230
  89.4473310  17.7097880 146.1254180  96.9845080  29.3294060 150.7558320
  96.3656520  29.7851560 150.1852760  97.8396860  29.4845520 150.3548020
  91.3393510  16.4929060 148.0511730  91.4460260  17.3932790 148.3580490
  90.4285870  16.4447030 147.7606380 100.9912620  15.6153870 149.5222630
 101.8122240  15.1250440 149.5648110 101.0246700  16.2051530 150.2754470
  97.8508430  24.2133300 148.1490230  97.2325700  24.6782750 147.5852950
  98.3631680  24.9060780 148.5659740  87.2191630  24.8989830 145.5229860
  86.8419610  25.3876930 144.7914760  87.4764700  25.5715110 146.1536390
  94.8280560  13.3006220 150.9815370  95.1355540  12.7453110 150.2650870
  93.8981260  13.4350680 150.7988360 101.6741040  25.7389730 148.3613000
 101.5637370  24.7964060 148.4862420 101.6709290  26.1005370 149.2475760
  97.2161320  21.3655050 147.7175490  96.2890600  21.2992430 147.9463960
  97.3686140  22.3035180 147.6030730  97.2030400  17.6372050 144.7142650
  96.2634070  17.7986010 144.7995110  97.5213660  18.3557730 144.1678640
 101.2458610  22.9275350 148.2210740 100.6271030  22.5894900 147.5737040
 101.2283060  22.2835110 148.9289930  92.8217960  21.8919790 150.4995220
  92.4174960  21.1797040 150.0041120  92.9081080  21.5473030 151.3883260
  99.4223310  22.1662160 145.2283490  99.8616590  21.3284590 145.0821310
 100.1351730  22.7991560 145.3147630  97.5318690  27.1058230 149.1964730
  97.9714600  27.8482560 148.7820120  97.4705580  27.3484800 150.1203690
 103.0040450  13.4204970 143.5424530 102.6913110  13.5131800 144.4423600
 103.7652920  13.9986000 143.4921960  89.5222590  20.7864770 148.0001870
  89.4020190  21.5126860 147.3883140  89.2123480  20.0167680 147.5229780
  88.4055590  25.6580100 150.2176690  87.9983670  25.7994690 149.3630290
  89.2968600  25.3740260 150.0147900 100.1988870  30.0927350 146.5527740
 100.0390010  29.8030290 147.4509570 100.0335580  29.3167480 146.0172970
  92.6777250  29.8725880 148.3299360  92.5019730  28.9561420 148.1167160
  91.8232990  30.2313170 148.5697160  99.9015000  27.6014910 145.1125740
  99.2080160  27.5992200 144.4528020 100.6437860  27.1774230 144.6819910
  99.4664930  29.2277620 149.1874230  99.9221880  28.4467000 149.5012850
  99.8057450  29.9384440 149.7315410  91.9886250  14.1299840 151.3825540
  91.5454400  14.9109380 151.0510060  92.5471240  14.4529730 152.0896480
  95.1045070  13.7510540 146.2631370  94.4799250  13.7470410 146.9884680
  95.0175190  12.8841500 145.8667340  91.7800470  19.2533410 149.1106790
  91.5541390  19.0370580 150.0153410  90.9993000  19.6861870 148.7652760
  99.0098230  19.2596780 147.7097440  98.4107120  19.9832580 147.5261060
  99.5577840  19.1973560 146.9273890  97.6163100  17.8960320 149.7400720
  98.0092670  18.2132520 148.9269410  97.9779950  17.0172200 149.8545240
  86.8397500  18.4281240 143.1733640  86.7572170  19.3712000 143.3148630
  86.4880560  18.2856150 142.2945990  94.6395630  17.1620270 152.2403990
  94.6431690  16.7210220 151.3908530  95.5346750  17.4837600 152.3475810
  90.4898010  17.0446760 151.1998200  90.1498060  17.5221990 151.9565250
  89.7275330  16.5911880 150.8399300  94.7015780  18.1632350 145.2310750
  94.8228600  18.1218830 146.1796570  94.3164290  19.0256500 145.0757480
  93.7137280  20.4733490 144.6294050  93.1454180  20.0251740 144.0029960
  94.4226280  20.8326270 144.0959200  87.8044090  15.9665740 150.1162870
  87.5191010  15.6021410 150.9541490  87.7422950  15.2346200 149.5026010
  91.2584760  24.4691680 146.9020460  90.4847020  23.9289300 146.7419180
  91.9879390  23.9498290 146.5638220  97.4782680  14.8595000 146.8376240
  96.6647290  14.3608170 146.7621550  97.2844630  15.6993250 146.4212590
 100.1931070  19.2314650 145.1338400 101.0810690  19.5431880 144.9589740
 100.1636160  18.3586900 144.7418980  91.3022160  24.1372060 150.5399270
  91.8200830  23.3340320 150.4856160  90.8506180  24.0751200 151.3816100
  96.1891660  25.4038340 145.8126570  96.5307360  26.1480570 145.3169890
  95.3604370  25.7169460 146.1751400 102.4645340  20.5426490 144.6018260
 102.3809060  20.9740710 143.7514700 103.1839530  21.0024840 145.0345080
 103.4932590  27.3968750 147.3300390 102.8508750  26.7424370 147.6044110
 103.1063250  27.8023840 146.5541060  99.0719070  24.7254180 151.1772080
  99.4242890  24.1282310 150.5173450  98.1881400  24.3998410 151.3480330
  95.1582350  25.4851870 148.5842490  95.8453480  26.0321080 148.9650080
  94.3714770  26.0292600 148.6192100  87.2974750  21.1024690 144.0759570
  88.1669600  21.3849490 144.3595490  86.8065070  21.9160560 143.9608380
  94.4609560  22.4897900 148.1967850  94.9172340  23.3003150 148.4228040
  94.1097770  22.1721040 149.0286340  90.3621340  12.8335550 148.6690370
  90.2335970  12.8253450 149.6175290  89.5383360  13.1718640 148.3181380
 101.8829970  26.2885210 143.8676740 101.6567550  25.5715650 144.4601380
 101.4926170  26.0397650 143.0298490  87.6646000  30.3152070 144.6421200
  88.0243640  30.9141410 143.9878470  87.5238340  30.8611960 145.4156230
 101.4646220  24.2057150 145.5290900 101.1767920  24.6669840 146.3168780
 102.2598390  23.7454920 145.7975120  93.6814620  27.6983270 145.4594870
  93.6724720  28.4312960 144.8439380  92.7612980  27.4514850 145.5521830
  89.2821260  22.9198160 146.2041630  88.6749210  23.6597060 146.2136930
  89.7570610  23.0097520 145.3779830 102.2216080  16.0405920 146.6886080
 101.5929240  16.1451590 145.9744310 101.7268000  16.2602700 147.4779960
  96.6674220  27.7611510 144.1220060  96.7686200  27.5575500 143.1922040
  95.7675960  27.5069790 144.3267840  94.1900110  18.3191870 148.1043960
  93.4816260  18.7878210 148.5457570  94.4744590  17.6613880 148.7389150
  98.2215540  15.0442530 149.5439750  98.0983320  15.0628660 148.5949260
  99.1700100  15.0921470 149.6638150  95.3092330  30.2797830 148.8167730
  95.5633830  30.2419220 147.8947100  94.3604810  30.1531160 148.8095980
  92.3935130  16.6276950 145.4794670  93.2425660  17.0647100 145.4134860
  92.0266400  16.9397210 146.3066730 101.3144910  21.1989710 150.3926240
 100.3735050  21.2139940 150.5673930 101.6288980  20.4125670 150.8386540
  91.2926550  22.8809310 143.9530200  92.0589820  22.7690670 144.5155630
  91.3701240  22.1847280 143.3006970  89.9873310  20.3134380 144.6363090
  90.0676900  19.3661890 144.7480490  90.8793060  20.6441260 144.7423750
  90.7888020  30.4629770 151.7397630  91.5250500  29.9145230 152.0106200
  91.1728940  31.3285780 151.6003620  87.6733500  26.5303340 147.6139140
  86.7473280  26.7724480 147.6044550  88.1389930  27.3577600 147.4923890
  93.8990330  29.6360080 143.5623200  94.6918940  29.9248910 143.1104990
  93.3794680  29.2052250 142.8835680 102.9520500  28.8630210 144.9859940
 102.6662010  28.4495350 144.1714120 102.7540050  29.7917920 144.8660460
  94.4167730  24.8563490 143.4265550  94.3118370  24.2415840 144.1526930
  94.2491950  24.3329380 142.6428560  97.6570460  23.9183520 144.0307540
  97.1080560  24.3652820 144.6750280  98.2789720  23.4132770 144.5545210
  93.3245580  22.8774440 145.9272840  93.7462000  22.7114310 146.7704230
  93.4496420  22.0674670 145.4327980  95.8373220  21.9012050 143.1749940
  96.3578880  21.1861070 142.8091090  96.4841620  22.5397920 143.4750450
  92.2204480  18.9507670 142.8731000  92.0193540  18.0875030 143.2344340
  92.0496530  18.8641030 141.9352600  99.6992790  13.7615900 145.4017880
  99.9795080  12.9183800 145.7577300  98.9258520  13.9939010 145.9156630
  91.0187280  16.0508290 142.8608880  91.3213180  16.0575720 141.9528030
  91.7581870  15.7006150 143.3576540  94.2372210  14.9942910 143.8465080
  93.8894210  14.3166900 143.2667530  94.4384980  14.5332420 144.6608470
  96.4021250  29.9823660 145.4651680  97.2972040  30.3208630 145.4870440
  96.4338880  29.2603070 144.8375960  90.0417410  25.3550710 143.6938680
  90.4792280  25.8980380 144.3496260  90.5265140  24.5297660 143.7035020
  87.2563210  28.1439740 151.1458940  87.5866220  27.2760800 150.9137580
  87.6854210  28.3498260 151.9763900  91.8525130  26.4748750 148.8060910
  91.5520670  26.3513720 149.7064820  91.7462620  25.6157340 148.3976640
 104.6217050  26.2545150 143.5087590 103.7910010  26.3221800 143.9794820
 104.7988880  27.1449270 143.2054450 104.0773510  22.9992630 146.0121790
 104.8392420  23.5689280 146.1181480 104.0927880  22.4319830 146.7830100
  87.5777850  21.5230560 150.2429450  86.9226690  21.2542200 149.5989150
  88.4155800  21.4135040 149.7931430 105.0833480  23.8542730 150.8563720
 105.4542310  23.0710050 150.4499690 105.7235410  24.5431830 150.6781020
 104.1292680  23.2927000 143.1694310 104.4041520  24.2005880 143.0413530
 103.9403420  23.2289530 144.1056300 100.5268290  16.3171850 144.4647940
 100.9453170  16.1302830 143.6244600 100.2204350  15.4650900 144.7750870
 104.0258020  21.2295990 148.1623740 103.6501620  20.4623920 147.7305030
 103.2961140  21.6118690 148.6498670  86.7915930  18.7329490 146.1854780
  85.8880010  18.9959690 146.0106440  87.2756550  19.0040660 145.4054740
 103.3008980  19.4553480 151.4630980 103.8246460  18.9616130 150.8321150
 103.8868400  19.5903840 152.2078550  89.3343140  17.7895030 144.0949160
  90.0434840  17.3678250 143.6096440  88.6183080  17.8570260 143.4632510
  88.9817300  13.8434360 143.1351810  89.7045430  14.3843300 143.4533030
  89.2541820  13.5697780 142.2593350 102.7908950  18.7126830 147.4023390
 103.2868070  18.4797700 148.1872270 102.5925020  17.8738670 146.9861030
 104.2196110  17.3487780 149.9361070 104.1095390  17.1943820 150.8743340
 104.9803700  16.8208720 149.6936480 105.1086380  15.1795700 143.1767210
 106.0335690  15.0476880 142.9685500 105.0862170  15.2588520 144.1303660
 105.1824870  15.9506360 145.8023920 104.3876370  15.8851480 146.3316830
 105.3868150  16.8857000 145.7909270 102.1243290  29.9897910 149.7962310
 102.7202360  29.6682480 149.1196730 102.3821440  29.5169730 150.5875580
 101.6144800  14.2803240 152.2522750 102.0552890  14.2248340 151.4044350
 101.3452390  15.1961250 152.3232930 103.4783370  13.9118480 150.2631570
 103.4171770  12.9679700 150.1162590 104.2575400  14.0198570 150.8085030
  87.7836120  30.0510840 149.2255520  87.6158160  29.4181520 149.9237410
  86.9170630  30.2570240 148.8749710  88.4064140  13.8827620 146.7287380
  89.1643500  13.9956500 146.1551410  87.9441310  14.7196820 146.6830810
  94.9477950  15.9966890 149.7189690  94.1352460  15.6223780 149.3785570
  95.4519590  15.2411970 150.0210880  99.4502930  12.6609340 150.9572760
 100.0532300  13.2329550 151.4321280  98.7095920  13.2248780 150.7346660
 102.5937530  13.0630900 146.2313040 102.7888160  13.9614350 146.4980470
 101.8067400  12.8317980 146.7245990  89.3898820  28.7444070 146.6705660
  88.8646440  29.1252100 145.9667620  89.3143400  29.3694840 147.3915370
  90.7789290  14.4091670 145.2689350  91.3082050  13.6221470 145.1397300
  91.4117610  15.0882860 145.5024880  92.9727130  14.1466810 148.3234740
  92.3429870  13.4454120 148.4904870  92.4332270  14.9070940 148.1067900
 104.1464140  30.3031610 147.9919600 104.3216330  29.6169350 147.3480520
 103.4485710  30.8278660 147.5996270  91.9891790  30.6926450 145.5454910
  92.7210610  30.4085730 144.9978800  92.2485460  30.4539730 146.4354290
  91.1506580  26.8091180 145.5501240  90.5215460  27.2776280 146.0987070
  91.2654410  25.9640400 145.9847430  98.6056300  20.8596840 131.7002440
  98.5250350  19.9451450 131.4294150  98.1920720  21.3563910 130.9942150
  96.7374340  22.6375860 133.5811710  95.9616440  22.1576300 133.8710280
  97.3887270  21.9581510 133.4067870  90.7540170  22.9495670 134.4587470
  89.9225050  22.6944380 134.8583980  91.3621150  23.0206440 135.1945390
 100.7581770  27.0436050 132.3610840 100.2963300  26.2723290 132.6898010
 101.5707320  27.0702120 132.8663290  90.7341430  26.9835760 134.6545490
  91.0369470  26.0933500 134.4755710  91.4785020  27.5405980 134.4267740
  89.1632120  17.9097560 128.2429860  88.2748820  18.2513530 128.1409740
  89.4473310  17.7097880 127.3510690  87.1265130  20.5103210 134.1269560
  87.6981240  19.7425410 134.1273200  87.1266670  20.8091970 133.2176170
  96.9845080  29.3294060 131.9814830  96.3656520  29.7851560 131.4109270
  97.8396860  29.4845520 131.5804530  96.1783330  25.3133050 133.5881870
  96.1091610  24.3722990 133.4271000  96.9403190  25.4034460 134.1604440
  88.3690000  15.9187570 135.9138490  88.1892840  15.0213320 136.1941250
  87.9670080  16.4659440 136.5885440  97.2088500  18.1203430 133.8150800
  97.5853320  17.2475310 133.7024470  97.1108010  18.4562130 132.9241240
  91.3393510  16.4929060 129.2768240  91.4460260  17.3932790 129.5837000
  90.4285870  16.4447030 128.9862890 100.9912620  15.6153870 130.7479140
 101.8122240  15.1250440 130.7904620 101.0246700  16.2051530 131.5010980
  88.9876670  18.4148070 134.5220830  89.6686780  18.6786440 135.1408230
  88.6724720  17.5748940 134.8558840  93.1801240  19.4615430 133.6093420
  93.6879460  19.9596400 134.2498440  93.7114480  18.6850630 133.4332780
 105.2812170  17.6320620 137.3122770 104.5764340  18.0202330 136.7937880
 105.5470090  18.3270910 137.9143700  91.4637340  14.1013990 137.8756840
  91.4655780  14.6186380 137.0702740  90.6341650  13.6244170 137.8526770
  97.8508430  24.2133300 129.3746740  97.2325700  24.6782750 128.8109460
  98.3631680  24.9060780 129.7916250  92.7140190  23.7409170 136.0530340
  92.3809570  24.3678090 136.6951410  92.8906870  24.2671050 135.2732010
 101.2274100  17.5554250 133.5206680 100.5229670  17.8439140 134.1009790
 101.5886260  18.3654360 133.1606240  91.1452670  15.8123950 135.8827290
  91.4869480  16.6566000 135.5881160  90.2068480  15.9607690 135.9992630
  91.9259290  25.7089970 137.8679520  92.5433290  26.3841050 137.5863970
  91.0652410  26.1177950 137.7767020  87.2191630  24.8989830 126.7486370
  86.8419610  25.3876930 126.0171270  87.4764700  25.5715110 127.3792900
 102.8436880  27.1729380 135.7834160 102.1600400  27.8428490 135.7750830
 103.3831170  27.3710030 135.0179020 104.2961020  17.0009040 133.9115890
 103.3485930  17.0348020 134.0431320 104.6211010  17.8147990 134.2965250
  94.8280560  13.3006220 132.2071880  95.1355540  12.7453110 131.4907380
  93.8981260  13.4350680 132.0244870 100.3795620  29.0173510 134.4979340
 100.3922780  28.6135800 133.6301600  99.8270840  29.7920800 134.3940770
 101.6741040  25.7389730 129.5869510 101.5637370  24.7964060 129.7118930
 101.6709290  26.1005370 130.4732270  99.7781060  23.9203350 135.8261950
 100.1949850  23.7063460 134.9915410 100.5020880  24.1776140 136.3970570
  97.2161320  21.3655050 128.9432000  96.2890600  21.2992430 129.1720470
  97.3686140  22.3035180 128.8287240  97.2030400  17.6372050 125.9399160
  96.2634070  17.7986010 126.0251620  97.5213660  18.3557730 125.3935150
 103.7243160  22.3190570 135.9178190 102.8961790  22.3883660 135.4428320
 104.3193640  22.9044880 135.4494020 101.2458610  22.9275350 129.4467250
 100.6271030  22.5894900 128.7993550 101.2283060  22.2835110 130.1546440
 100.6885170  19.1059890 136.8633060 100.2756350  19.9313600 137.1173050
  99.9561120  18.5204930 136.6709420  92.8217960  21.8919790 131.7251730
  92.4174960  21.1797040 131.2297630  92.9081080  21.5473030 132.6139770
  93.2899660  25.5787350 133.8890940  92.9927950  24.9732820 133.2098720
  94.2399480  25.6164660 133.7780300  91.5346580  18.6663000 135.5050770
  92.0861170  18.7758340 134.7304020  92.0490090  19.0400600 136.2206000
 101.3785270  29.1519220 137.5514040 100.9015830  29.9591410 137.3586650
 100.6947060  28.4997550 137.7040250  92.3818090  25.3169040 140.5398740
  91.4846620  25.5409010 140.7872140  92.4070960  25.4403980 139.5910140
  99.4223310  22.1662160 126.4540000  99.8616590  21.3284590 126.3077820
 100.1351730  22.7991560 126.5404140  91.2089310  22.1882360 139.1156110
  91.0697080  23.0605160 139.4843510  90.3270670  21.8455170 138.9704050
  97.5318690  27.1058230 130.4221240  97.9714600  27.8482560 130.0076630
  97.4705580  27.3484800 131.3460200  93.0069660  28.1304060 141.3241260
  92.9785090  28.5347010 140.4569690  92.8434630  27.2014420 141.1612860
 103.0040450  13.4204970 124.7681040 102.6913110  13.5131800 125.6680110
 103.7652920  13.9986000 124.7178470  89.5222590  20.7864770 129.2258380
  89.4020190  21.5126860 128.6139650  89.2123480  20.0167680 128.7486290
 104.9584480  28.9131160 142.6205430 105.4344200  29.3914050 143.2994510
 105.5791640  28.8448650 141.8950930  87.1607960  23.9579910 135.0327020
  87.2388380  24.0928680 134.0882740  87.7749640  23.2495800 135.2255140
  88.4055590  25.6580100 131.4433200  87.9983670  25.7994690 130.5886800
  89.2968600  25.3740260 131.2404410 104.3617730  26.1044010 139.7805440
 104.4880790  25.8655890 138.8622620 104.4039110  25.2728550 140.2527520
  98.2234470  29.8072010 138.3500250  98.7379140  29.7180020 139.1522680
  97.3803550  30.1531710 138.6428160 100.1988870  30.0927350 127.7784250
 100.0390010  29.8030290 128.6766080 100.0335580  29.3167480 127.2429480
  92.6777250  29.8725880 129.5555870  92.5019730  28.9561420 129.3423670
  91.8232990  30.2313170 129.7953670  99.9015000  27.6014910 126.3382250
  99.2080160  27.5992200 125.6784530 100.6437860  27.1774230 125.9076420
  99.4664930  29.2277620 130.4130740  99.9221880  28.4467000 130.7269360
  99.8057450  29.9384440 130.9571920 104.2141740  18.1576470 140.7455180
 103.5986010  18.6656140 140.2170640 103.8938160  17.2574800 140.6881120
  87.2167480  24.9994080 137.5721480  87.3798520  24.5299440 136.7540850
  87.6819930  24.4917640 138.2370320  91.9886250  14.1299840 132.6082050
  91.5454400  14.9109380 132.2766570  92.5471240  14.4529730 133.3152990
  96.2756060  16.9968360 138.2117370  95.8135430  17.2051380 139.0237310
  95.8734170  16.1827710 137.9088040 101.2760570  18.2177310 139.3414030
 100.4254160  17.9183060 139.6623100 101.1162360  18.4619320 138.4297850
  98.3710280  19.7179060 141.4412820  98.6963690  18.8842810 141.1015050
  99.1590610  20.2407580 141.5891150  95.1045070  13.7510540 127.4887880
  94.4799250  13.7470410 128.2141190  95.0175190  12.8841500 127.0923850
  94.0262150  14.6747170 134.4671650  94.3234480  15.5810000 134.3863670
  94.5747710  14.1865950 133.8531220  91.7800470  19.2533410 130.3363300
  91.5541390  19.0370580 131.2409920  90.9993000  19.6861870 129.9909270
  99.0098230  19.2596780 128.9353950  98.4107120  19.9832580 128.7517570
  99.5577840  19.1973560 128.1530400  94.2199680  20.1518990 141.0023570
  94.1243280  19.2113720 140.8523970  95.0631660  20.3734060 140.6071640
  97.6163100  17.8960320 130.9657230  98.0092670  18.2132520 130.1525920
  97.9779950  17.0172200 131.0801750  89.3510220  16.5632660 139.1557350
  88.9573610  17.4107870 139.3630130  88.6628620  15.9259030 139.3465990
  95.9255270  16.6467630 142.2254090  95.2353590  16.4539830 142.8600180
  96.6687570  16.9302270 142.7578390  86.6527270  14.4861120 133.1887430
  86.3640320  15.0563980 133.9012410  87.3973030  14.0065570 133.5518660
  86.8397500  18.4281240 124.3990150  86.7572170  19.3712000 124.5405140
  86.4880560  18.2856150 123.5202500  98.2018240  20.4866070 135.0608010
  97.4699360  20.9952880 135.4098110  97.8042580  19.6696050 134.7596790
  94.6395630  17.1620270 133.4660500  94.6431690  16.7210220 132.6165040
  95.5346750  17.4837600 133.5732320  90.4898010  17.0446760 132.4254710
  90.1498060  17.5221990 133.1821760  89.7275330  16.5911880 132.0655810
  94.7015780  18.1632350 126.4567260  94.8228600  18.1218830 127.4053080
  94.3164290  19.0256500 126.3013990  98.6644150  15.9399750 134.4730950
  98.6816890  16.3908400 135.3172800  98.4159730  15.0405390 134.6864390
  93.7137280  20.4733490 125.8550560  93.1454180  20.0251740 125.2286470
  94.4226280  20.8326270 125.3215710 102.0914900  13.3531930 140.3117330
 102.4160670  12.6221590 140.8375310 102.1271410  13.0345570 139.4098320
  88.7906460  24.3745510 139.7317290  88.4061250  23.7339180 140.3300250
  89.1018650  25.0781630 140.3012020  94.9403600  21.2222050 135.2125910
  95.3073730  20.7480620 135.9587250  94.7508660  22.0963620 135.5534250
  87.8044090  15.9665740 131.3419380  87.5191010  15.6021410 132.1798000
  87.7422950  15.2346200 130.7282520  92.7302970  20.2630690 137.5310120
  92.4260040  21.1422670 137.7560480  93.6849430  20.3230480 137.5667560
  91.2584760  24.4691680 128.1276970  90.4847020  23.9289300 127.9675690
  91.9879390  23.9498290 127.7894730 102.0172740  23.4657040 133.9203360
 102.7371860  23.9612330 133.5299470 101.8154560  22.7874930 133.2757230
  97.4782680  14.8595000 128.0632750  96.6647290  14.3608170 127.9878060
  97.2844630  15.6993250 127.6469100  97.3991540  23.5366100 139.8072360
  97.3328850  22.6161770 139.5529950  96.7696680  23.6341540 140.5217000
 100.1931070  19.2314650 126.3594910 101.0810690  19.5431880 126.1846250
 100.1636160  18.3586900 125.9675490  91.3022160  24.1372060 131.7655780
  91.8200830  23.3340320 131.7112670  90.8506180  24.0751200 132.6072610
  96.1891660  25.4038340 127.0383080  96.5307360  26.1480570 126.5426400
  95.3604370  25.7169460 127.4007910  88.7866700  21.1033430 138.6781480
  88.4281640  21.7687280 139.2654820  88.4921260  20.2716980 139.0494100
  91.9879820  21.5617670 141.5621030  91.6879960  21.7074850 140.6648850
  92.7591060  21.0022960 141.4694420  97.3308270  26.3586670 139.5576160
  97.3452810  25.4267630 139.3395070  96.6233370  26.4446430 140.1965930
 102.4645340  20.5426490 125.8274770 102.3809060  20.9740710 124.9771210
 103.1839530  21.0024840 126.2601590 103.5419480  22.9994010 138.9044740
 102.8167670  23.5922790 138.7074130 104.0694940  22.9917550 138.1058110
 103.4932590  27.3968750 128.5556900 102.8508750  26.7424370 128.8300620
 103.1063250  27.8023840 127.7797570  99.0719070  24.7254180 132.4028590
  99.4242890  24.1282310 131.7429960  98.1881400  24.3998410 132.5736840
  95.1582350  25.4851870 129.8099000  95.8453480  26.0321080 130.1906590
  94.3714770  26.0292600 129.8448610  87.2974750  21.1024690 125.3016080
  88.1669600  21.3849490 125.5852000  86.8065070  21.9160560 125.1864890
  94.4609560  22.4897900 129.4224360  94.9172340  23.3003150 129.6484550
  94.1097770  22.1721040 130.2542850  96.7642170  28.0004240 136.6516660
  97.4084390  28.2063620 137.3290080  97.1271610  27.2392640 136.1987510
  90.3621340  12.8335550 129.8946880  90.2335970  12.8253450 130.8431800
  89.5383360  13.1718640 129.5437890  98.0374250  26.0036590 135.3694110
  98.6796480  25.3029750 135.4826280  98.5623600  26.7835030 135.1891000
 101.8829970  26.2885210 125.0933250 101.6567550  25.5715650 125.6857890
 101.4926170  26.0397650 124.2555000  99.8111870  26.8031490 138.5730170
 100.1468110  27.3898180 139.2508090  98.8912210  26.6724200 138.8027960
  87.6646000  30.3152070 125.8677710  88.0243640  30.9141410 125.2134980
  87.5238340  30.8611960 126.6412740  87.3615270  14.5926670 139.3553580
  86.6473790  14.7923590 139.9606190  87.7810310  13.8166240 139.7268380
 101.4646220  24.2057150 126.7547410 101.1767920  24.6669840 127.5425290
 102.2598390  23.7454920 127.0231630  87.6487860  28.5806930 140.3420110
  87.7578980  27.6401670 140.2015500  86.9968420  28.8461680 139.6933840
  95.6400450  26.8522820 141.7418230  95.3197320  26.1332060 142.2863920
  94.9658810  27.5277890 141.8154290  93.6814620  27.6983270 126.6851380
  93.6724720  28.4312960 126.0695890  92.7612980  27.4514850 126.7778340
  89.2821260  22.9198160 127.4298140  88.6749210  23.6597060 127.4393440
  89.7570610  23.0097520 126.6036340  98.8554050  17.0848980 137.1055030
  99.2234870  16.2644190 137.4334600  97.9952250  17.1450870 137.5210680
 102.2216080  16.0405920 127.9142590 101.5929240  16.1451590 127.2000820
 101.7268000  16.2602700 128.7036470  96.6674220  27.7611510 125.3476570
  96.7686200  27.5575500 124.4178550  95.7675960  27.5069790 125.5524350
  94.1900110  18.3191870 129.3300470  93.4816260  18.7878210 129.7714080
  94.4744590  17.6613880 129.9645660  95.8156040  19.7388570 137.3293000
  96.3141290  20.2134390 137.9944850  95.9578990  18.8152090 137.5363030
  98.2215540  15.0442530 130.7696260  98.0983320  15.0628660 129.8205770
  99.1700100  15.0921470 130.8894660  95.3092330  30.2797830 130.0424240
  95.5633830  30.2419220 129.1203610  94.3604810  30.1531160 130.0352490
  92.3935130  16.6276950 126.7051180  93.2425660  17.0647100 126.6391370
  92.0266400  16.9397210 127.5323240 103.0222900  15.9556530 138.1721390
 102.5196500  16.6961930 138.5115200 103.8379560  16.3440530 137.8558180
 101.3144910  21.1989710 131.6182750 100.3735050  21.2139940 131.7930440
 101.6288980  20.4125670 132.0643050  91.2926550  22.8809310 125.1786710
  92.0589820  22.7690670 125.7412140  91.3701240  22.1847280 124.5263480
  89.9873310  20.3134380 125.8619600  90.0676900  19.3661890 125.9737000
  90.8793060  20.6441260 125.9680260 103.3170490  28.3698560 133.2937010
 103.4417910  29.1929730 133.7660820 104.1836050  28.1589290 132.9461160
  90.7888020  30.4629770 132.9654140  91.5250500  29.9145230 133.2362710
  91.1728940  31.3285780 132.8260130  87.6733500  26.5303340 128.8395650
  86.7473280  26.7724480 128.8301060  88.1389930  27.3577600 128.7180400
  89.7946300  29.6475840 142.1539720  90.5959030  29.9687890 142.5675120
  89.2798120  29.2871420 142.8759630  93.8990330  29.6360080 124.7879710
  94.6918940  29.9248910 124.3361500  93.3794680  29.2052250 124.1092190
  98.6310930  25.7555710 142.1015130  98.0249090  25.7787310 141.3610880
  98.3265040  25.0238750 142.6382380 100.0611300  29.4836000 140.7124540
 101.0133050  29.3994020 140.6624780  99.9139520  30.1477710 141.3858330
 102.9520500  28.8630210 126.2116450 102.6662010  28.4495350 125.3970630
 102.7540050  29.7917920 126.0916970  87.5144110  22.1349300 141.0975770
  88.0183130  21.5556580 141.6692000  86.7751530  22.4189530 141.6352140
  94.4167730  24.8563490 124.6522060  94.3118370  24.2415840 125.3783440
  94.2491950  24.3329380 123.8685070  94.5682050  23.5420290 140.6311290
  93.8027720  24.1105290 140.5465960  94.7498010  23.2496500 139.7379520
  97.6570460  23.9183520 125.2564050  97.1080560  24.3652820 125.9006790
  98.2789720  23.4132770 125.7801720 101.7105400  25.2725620 141.1886310
 102.4514870  25.6101380 140.6853770 100.9478080  25.4417680 140.6356080
  89.5467190  20.2778890 141.9925840  89.5872530  19.9792760 142.9011070
  90.4012690  20.6786500 141.8333360  93.3245580  22.8774440 127.1529350
  93.7462000  22.7114310 127.9960740  93.4496420  22.0674670 126.6584490
  91.4873000  18.8570990 139.9600330  90.9569460  18.3661940 139.3323670
  92.1561070  19.2855190 139.4258260  95.8373220  21.9012050 124.4006450
  96.3578880  21.1861070 124.0347600  96.4841620  22.5397920 124.7006960
 100.3851060  23.3240450 139.7241520 100.7992080  23.4785530 140.5731940
  99.4502060  23.4495670 139.8867300 100.8573230  20.6636610 141.7280670
 101.4394000  19.9088930 141.6401150 101.0335000  21.1944050 140.9512150
  91.9745300  15.8233360 140.0397620  91.8802170  15.2054110 139.3148490
  91.3942690  16.5499650 139.8127530  94.7406740  14.3806600 137.0725010
  94.2924040  14.4030860 136.2270560  94.1071940  13.9825620 137.6695310
  95.1466290  23.2760930 137.6937450  95.5654400  24.1193660 137.5213690
  94.2274920  23.4132970 137.4644230  97.4830190  21.0077110 139.0775290
  97.6026400  20.4118250 139.8170130  98.3424190  21.0446800 138.6576590
  99.8218090  21.5614300 137.6537800  99.2953310  22.0856920 137.0502940
 100.1649430  22.1941690 138.2847530  92.2204480  18.9507670 124.0987510
  92.0193540  18.0875030 124.4600850  92.0496530  18.8641030 123.1609110
  92.9973710  29.5813940 138.8095180  92.4594800  30.3060000 138.4903880
  93.2507670  29.1044280 138.0192520  94.2498960  17.5498460 140.3351110
  94.8398650  17.2414310 141.0228930  93.4319200  17.0778210 140.4911010
  99.0692390  17.1664270 140.5684130  98.3807910  16.5045810 140.5034120
  99.7898410  16.7202540 141.0132590  99.6992790  13.7615900 126.6274390
  99.9795080  12.9183800 126.9833810  98.9258520  13.9939010 127.1413140
  91.0187280  16.0508290 124.0865390  91.3213180  16.0575720 123.1784540
  91.7581870  15.7006150 124.5833050  95.8535920  30.8165150 139.0681830
  95.7794620  31.7200290 139.3754200  94.9514760  30.4977050 139.0403900
  94.2372210  14.9942910 125.0721590  93.8894210  14.3166900 124.4924040
  94.4384980  14.5332420 125.8864980  96.4021250  29.9823660 126.6908190
  97.2972040  30.3208630 126.7126950  96.4338880  29.2603070 126.0632470
  90.0417410  25.3550710 124.9195190  90.4792280  25.8980380 125.5752770
  90.5265140  24.5297660 124.9291530  87.2563210  28.1439740 132.3715450
  87.5866220  27.2760800 132.1394090  87.6854210  28.3498260 133.2020410
  91.8525130  26.4748750 130.0317420  91.5520670  26.3513720 130.9321330
  91.7462620  25.6157340 129.6233150  87.7453420  29.0110330 135.1097080
  87.3084410  29.1911130 135.9421230  88.3131100  29.7684950 134.9678800
 103.3815600  28.5127330 139.3974390 102.7817590  28.5719890 138.6538310
 103.5109500  27.5732310 139.5271240 104.6217050  26.2545150 124.7344100
 103.7910010  26.3221800 125.2051330 104.7988880  27.1449270 124.4310960
 104.0773510  22.9992630 127.2378300 104.8392420  23.5689280 127.3437990
 104.0927880  22.4319830 128.0086610  87.5777850  21.5230560 131.4685960
  86.9226690  21.2542200 130.8245660  88.4155800  21.4135040 131.0187940
 105.0833480  23.8542730 132.0820230 105.4542310  23.0710050 131.6756200
 105.7235410  24.5431830 131.9037530 102.0667240  25.2379310 137.4950550
 101.2527080  25.6676470 137.7576340 102.4741440  25.8497720 136.8819600
 104.1292680  23.2927000 124.3950820 104.4041520  24.2005880 124.2670040
 103.9403420  23.2289530 125.3312810 100.5268290  16.3171850 125.6904450
 100.9453170  16.1302830 124.8501110 100.2204350  15.4650900 126.0007380
 104.0258020  21.2295990 129.3880250 103.6501620  20.4623920 128.9561540
 103.2961140  21.6118690 129.8755180  88.6153780  21.9083130 136.0089300
  88.9826820  21.8210530 136.8885320  88.0464600  21.1449680 135.9096160
 103.4157640  20.3767510 139.0219770 103.1843730  20.1480260 138.1217720
 103.6762190  21.2967060 138.9764660  88.1669780  18.8192220 139.9147720
  87.2725830  18.7858980 140.2541430  88.7067330  19.0179010 140.6798970
 101.8545710  15.6023940 141.7999470 102.7315890  15.6107340 142.1833470
 101.8666550  14.8654780 141.1891820  86.7915930  18.7329490 127.4111290
  85.8880010  18.9959690 127.2362950  87.2756550  19.0040660 126.6311250
 103.3008980  19.4553480 132.6887490 103.8246460  18.9616130 132.0577660
 103.8868400  19.5903840 133.4335060 103.4798700  19.5393350 136.2107040
 102.5301410  19.5056890 136.3252030 103.6611710  20.4493460 135.9756810
  89.3343140  17.7895030 125.3205670  90.0434840  17.3678250 124.8352950
  88.6183080  17.8570260 124.6889020  88.9817300  13.8434360 124.3608320
  89.7045430  14.3843300 124.6789540  89.2541820  13.5697780 123.4849860
 102.7908950  18.7126830 128.6279900 103.2868070  18.4797700 129.4128780
 102.5925020  17.8738670 128.2117540  88.6709490  13.0940550 134.2630940
  89.3185680  12.5437930 133.8226100  89.0911330  13.3483700 135.0846750
 104.2196110  17.3487780 131.1617580 104.1095390  17.1943820 132.0999850
 104.9803700  16.8208720 130.9192990 102.5661830  13.2881910 137.6200580
 103.2034050  13.9016050 137.9859770 102.7136720  13.3242570 136.6749810
 105.1086380  15.1795700 124.4023720 106.0335690  15.0476880 124.1942010
 105.0862170  15.2588520 125.3560170 105.1824870  15.9506360 127.0280430
 104.3876370  15.8851480 127.5573340 105.3868150  16.8857000 127.0165780
 102.1243290  29.9897910 131.0218820 102.7202360  29.6682480 130.3453240
 102.3821440  29.5169730 131.8132090  88.4241490  13.2496220 137.0056260
  88.0756310  13.7060040 137.7714440  88.0929190  12.3553350 137.0878690
  90.0305860  26.4215820 141.1709450  89.9875490  26.0508730 142.0523910
  90.1616870  27.3593390 141.3111270  93.7311890  27.9775410 136.7719170
  93.4903250  28.2449970 135.8849690  94.6714530  28.1481140 136.8270030
  95.9366310  14.4408100 140.5275680  95.8755200  15.0329930 141.2771090
  96.8766690  14.3334060 140.3825940  98.5740870  14.0978160 140.1667970
  99.1881280  14.4157450 139.5049050  99.1190430  13.6126750 140.7863830
 104.9916050  29.9969790 137.5729810 104.4974330  30.3938660 136.8556940
 104.3829340  29.3719000 137.9667090  89.0962130  12.7772420 140.2807030
  89.6445120  12.5960470 139.5173140  89.1617440  11.9866530 140.8163340
  89.8693890  29.3678070 138.2907230  89.2754210  29.2362770 139.0297270
  89.8617730  28.5316210 137.8249330  99.3148910  12.6610300 136.4937260
  98.4408750  12.9945410 136.2910190  99.2059660  12.1883480 137.3189130
 100.2220890  14.8681170 137.8778980  99.8934250  14.0532930 137.4980710
 101.1703190  14.8250980 137.7544670 102.6755500  30.6393210 134.8516550
 102.2158470  31.3909020 134.4774570 102.0467960  29.9199680 134.7931350
  89.5006120  26.7336450 137.2415270  88.7740180  26.1141740 137.1741220
  89.5615270  27.1277060 136.3713350  93.1051220  28.9481450 134.0264680
  93.6216240  28.3368810 133.5012940  93.7548600  29.4510230 134.5175690
  95.8446720  29.8389940 134.8533660  96.1324530  29.5844240 133.9766670
  96.3569940  29.2867300 135.4439230  97.0623730  13.5780140 135.4330170
  96.2795520  14.0525640 135.7126930  96.7686660  12.6734970 135.3243350
 101.6144800  14.2803240 133.4779260 102.0552890  14.2248340 132.6300860
 101.3452390  15.1961250 133.5489440 103.4783370  13.9118480 131.4888080
 103.4171770  12.9679700 131.3419100 104.2575400  14.0198570 132.0341540
  87.7836120  30.0510840 130.4512030  87.6158160  29.4181520 131.1493920
  86.9170630  30.2570240 130.1006220  88.4064140  13.8827620 127.9543890
  89.1643500  13.9956500 127.3807920  87.9441310  14.7196820 127.9087320
  94.9477950  15.9966890 130.9446200  94.1352460  15.6223780 130.6042080
  95.4519590  15.2411970 131.2467390  99.4502930  12.6609340 132.1829270
 100.0532300  13.2329550 132.6577790  98.7095920  13.2248780 131.9603170
 102.5937530  13.0630900 127.4569550 102.7888160  13.9614350 127.7236980
 101.8067400  12.8317980 127.9502500  89.3898820  28.7444070 127.8962170
  88.8646440  29.1252100 127.1924130  89.3143400  29.3694840 128.6171880
  90.7789290  14.4091670 126.4945860  91.3082050  13.6221470 126.3653810
  91.4117610  15.0882860 126.7281390  92.9727130  14.1466810 129.5491250
  92.3429870  13.4454120 129.7161380  92.4332270  14.9070940 129.3324410
  95.9119080  30.7606040 142.2201860  96.8386390  30.5250310 142.2637820
  95.8969510  31.5878040 141.7387890 104.1464140  30.3031610 129.2176110
 104.3216330  29.6169350 128.5737030 103.4485710  30.8278660 128.8252780
  93.0982690  13.4250790 141.9843740  92.8166960  13.9284390 141.2204560
  93.4802390  12.6272540 141.6185870  91.9891790  30.6926450 126.7711420
  92.7210610  30.4085730 126.2235310  92.2485460  30.4539730 127.6610800
  91.1506580  26.8091180 126.7757750  90.5215460  27.2776280 127.3243580
  91.2654410  25.9640400 127.2103940  99.6998150  12.8404370 142.5624210
  99.5863600  13.1598980 143.4575730 100.5167890  13.2416880 142.2661490
 102.4796640  29.9875900 142.0442900 103.2721960  29.4925130 141.8368860
 102.7729790  30.6666040 142.6518510  98.6056300  20.8596840 112.9258950
  98.5250350  19.9451450 112.6550660  98.1920720  21.3563910 112.2198660
  96.7374340  22.6375860 114.8068220  95.9616440  22.1576300 115.0966790
  97.3887270  21.9581510 114.6324380  90.7540170  22.9495670 115.6843980
  89.9225050  22.6944380 116.0840490  91.3621150  23.0206440 116.4201900
 100.7581770  27.0436050 113.5867350 100.2963300  26.2723290 113.9154520
 101.5707320  27.0702120 114.0919800  90.7341430  26.9835760 115.8802000
  91.0369470  26.0933500 115.7012220  91.4785020  27.5405980 115.6524250
  89.1632120  17.9097560 109.4686370  88.2748820  18.2513530 109.3666250
  89.4473310  17.7097880 108.5767200  87.1265130  20.5103210 115.3526070
  87.6981240  19.7425410 115.3529710  87.1266670  20.8091970 114.4432680
  96.1783330  25.3133050 114.8138380  96.1091610  24.3722990 114.6527510
  96.9403190  25.4034460 115.3860950  88.3690000  15.9187570 117.1395000
  88.1892840  15.0213320 117.4197760  87.9670080  16.4659440 117.8141950
  97.2088500  18.1203430 115.0407310  97.5853320  17.2475310 114.9280980
  97.1108010  18.4562130 114.1497750  91.3393510  16.4929060 110.5024750
  91.4460260  17.3932790 110.8093510  90.4285870  16.4447030 110.2119400
 100.9912620  15.6153870 111.9735650 101.8122240  15.1250440 112.0161130
 101.0246700  16.2051530 112.7267490  88.9876670  18.4148070 115.7477340
  89.6686780  18.6786440 116.3664740  88.6724720  17.5748940 116.0815350
  93.1801240  19.4615430 114.8349930  93.6879460  19.9596400 115.4754950
  93.7114480  18.6850630 114.6589290 105.2812170  17.6320620 118.5379280
 104.5764340  18.0202330 118.0194390 105.5470090  18.3270910 119.1400210
  91.4637340  14.1013990 119.1013350  91.4655780  14.6186380 118.2959250
  90.6341650  13.6244170 119.0783280  97.8508430  24.2133300 110.6003250
  97.2325700  24.6782750 110.0365970  98.3631680  24.9060780 111.0172760
  92.7140190  23.7409170 117.2786850  92.3809570  24.3678090 117.9207920
  92.8906870  24.2671050 116.4988520 101.2274100  17.5554250 114.7463190
 100.5229670  17.8439140 115.3266300 101.5886260  18.3654360 114.3862750
  91.1452670  15.8123950 117.1083800  91.4869480  16.6566000 116.8137670
  90.2068480  15.9607690 117.2249140  91.9259290  25.7089970 119.0936030
  92.5433290  26.3841050 118.8120480  91.0652410  26.1177950 119.0023530
  87.2191630  24.8989830 107.9742880  86.8419610  25.3876930 107.2427780
  87.4764700  25.5715110 108.6049410 102.8436880  27.1729380 117.0090670
 102.1600400  27.8428490 117.0007340 103.3831170  27.3710030 116.2435530
 104.2961020  17.0009040 115.1372400 103.3485930  17.0348020 115.2687830
 104.6211010  17.8147990 115.5221760  94.8280560  13.3006220 113.4328390
  95.1355540  12.7453110 112.7163890  93.8981260  13.4350680 113.2501380
 100.3795620  29.0173510 115.7235850 100.3922780  28.6135800 114.8558110
  99.8270840  29.7920800 115.6197280 101.6741040  25.7389730 110.8126020
 101.5637370  24.7964060 110.9375440 101.6709290  26.1005370 111.6988780
  99.7781060  23.9203350 117.0518460 100.1949850  23.7063460 116.2171920
 100.5020880  24.1776140 117.6227080  97.2161320  21.3655050 110.1688510
  96.2890600  21.2992430 110.3976980  97.3686140  22.3035180 110.0543750
  97.2030400  17.6372050 107.1655670  96.2634070  17.7986010 107.2508130
  97.5213660  18.3557730 106.6191660 103.7243160  22.3190570 117.1434700
 102.8961790  22.3883660 116.6684830 104.3193640  22.9044880 116.6750530
 101.2458610  22.9275350 110.6723760 100.6271030  22.5894900 110.0250060
 101.2283060  22.2835110 111.3802950 100.6885170  19.1059890 118.0889570
 100.2756350  19.9313600 118.3429560  99.9561120  18.5204930 117.8965930
  92.8217960  21.8919790 112.9508240  92.4174960  21.1797040 112.4554140
  92.9081080  21.5473030 113.8396280  93.2899660  25.5787350 115.1147450
  92.9927950  24.9732820 114.4355230  94.2399480  25.6164660 115.0036810
  91.5346580  18.6663000 116.7307280  92.0861170  18.7758340 115.9560530
  92.0490090  19.0400600 117.4462510 101.3785270  29.1519220 118.7770550
 100.9015830  29.9591410 118.5843160 100.6947060  28.4997550 118.9296760
  92.3818090  25.3169040 121.7655250  91.4846620  25.5409010 122.0128650
  92.4070960  25.4403980 120.8166650  99.4223310  22.1662160 107.6796510
  99.8616590  21.3284590 107.5334330 100.1351730  22.7991560 107.7660650
  91.2089310  22.1882360 120.3412620  91.0697080  23.0605160 120.7100020
  90.3270670  21.8455170 120.1960560  93.0069660  28.1304060 122.5497770
  92.9785090  28.5347010 121.6826200  92.8434630  27.2014420 122.3869370
 103.0040450  13.4204970 105.9937550 102.6913110  13.5131800 106.8936620
 103.7652920  13.9986000 105.9434980  89.5222590  20.7864770 110.4514890
  89.4020190  21.5126860 109.8396160  89.2123480  20.0167680 109.9742800
 104.9584480  28.9131160 123.8461940 105.4344200  29.3914050 124.5251020
 105.5791640  28.8448650 123.1207440  87.1607960  23.9579910 116.2583530
  87.2388380  24.0928680 115.3139250  87.7749640  23.2495800 116.4511650
  88.4055590  25.6580100 112.6689710  87.9983670  25.7994690 111.8143310
  89.2968600  25.3740260 112.4660920 104.3617730  26.1044010 121.0061950
 104.4880790  25.8655890 120.0879130 104.4039110  25.2728550 121.4784030
  98.2234470  29.8072010 119.5756760  98.7379140  29.7180020 120.3779190
  97.3803550  30.1531710 119.8684670  99.9015000  27.6014910 107.5638760
  99.2080160  27.5992200 106.9041040 100.6437860  27.1774230 107.1332930
 104.2141740  18.1576470 121.9711690 103.5986010  18.6656140 121.4427150
 103.8938160  17.2574800 121.9137630  87.2167480  24.9994080 118.7977990
  87.3798520  24.5299440 117.9797360  87.6819930  24.4917640 119.4626830
  91.9886250  14.1299840 113.8338560  91.5454400  14.9109380 113.5023080
  92.5471240  14.4529730 114.5409500  96.2756060  16.9968360 119.4373880
  95.8135430  17.2051380 120.2493820  95.8734170  16.1827710 119.1344550
 101.2760570  18.2177310 120.5670540 100.4254160  17.9183060 120.8879610
 101.1162360  18.4619320 119.6554360  98.3710280  19.7179060 122.6669330
  98.6963690  18.8842810 122.3271560  99.1590610  20.2407580 122.8147660
  95.1045070  13.7510540 108.7144390  94.4799250  13.7470410 109.4397700
  95.0175190  12.8841500 108.3180360  94.0262150  14.6747170 115.6928160
  94.3234480  15.5810000 115.6120180  94.5747710  14.1865950 115.0787730
  91.7800470  19.2533410 111.5619810  91.5541390  19.0370580 112.4666430
  90.9993000  19.6861870 111.2165780  99.0098230  19.2596780 110.1610460
  98.4107120  19.9832580 109.9774080  99.5577840  19.1973560 109.3786910
  94.2199680  20.1518990 122.2280080  94.1243280  19.2113720 122.0780480
  95.0631660  20.3734060 121.8328150  97.6163100  17.8960320 112.1913740
  98.0092670  18.2132520 111.3782430  97.9779950  17.0172200 112.3058260
  89.3510220  16.5632660 120.3813860  88.9573610  17.4107870 120.5886640
  88.6628620  15.9259030 120.5722500  95.9255270  16.6467630 123.4510600
  95.2353590  16.4539830 124.0856690  96.6687570  16.9302270 123.9834900
  86.6527270  14.4861120 114.4143940  86.3640320  15.0563980 115.1268920
  87.3973030  14.0065570 114.7775170  86.8397500  18.4281240 105.6246660
  86.7572170  19.3712000 105.7661650  86.4880560  18.2856150 104.7459010
  98.2018240  20.4866070 116.2864520  97.4699360  20.9952880 116.6354620
  97.8042580  19.6696050 115.9853300  94.6395630  17.1620270 114.6917010
  94.6431690  16.7210220 113.8421550  95.5346750  17.4837600 114.7988830
  90.4898010  17.0446760 113.6511220  90.1498060  17.5221990 114.4078270
  89.7275330  16.5911880 113.2912320  94.7015780  18.1632350 107.6823770
  94.8228600  18.1218830 108.6309590  94.3164290  19.0256500 107.5270500
  98.6644150  15.9399750 115.6987460  98.6816890  16.3908400 116.5429310
  98.4159730  15.0405390 115.9120900 102.0914900  13.3531930 121.5373840
 102.4160670  12.6221590 122.0631820 102.1271410  13.0345570 120.6354830
  88.7906460  24.3745510 120.9573800  88.4061250  23.7339180 121.5556760
  89.1018650  25.0781630 121.5268530  94.9403600  21.2222050 116.4382420
  95.3073730  20.7480620 117.1843760  94.7508660  22.0963620 116.7790760
  87.8044090  15.9665740 112.5675890  87.5191010  15.6021410 113.4054510
  87.7422950  15.2346200 111.9539030  92.7302970  20.2630690 118.7566630
  92.4260040  21.1422670 118.9816990  93.6849430  20.3230480 118.7924070
  91.2584760  24.4691680 109.3533480  90.4847020  23.9289300 109.1932200
  91.9879390  23.9498290 109.0151240 102.0172740  23.4657040 115.1459870
 102.7371860  23.9612330 114.7555980 101.8154560  22.7874930 114.5013740
  97.4782680  14.8595000 109.2889260  96.6647290  14.3608170 109.2134570
  97.2844630  15.6993250 108.8725610  97.3991540  23.5366100 121.0328870
  97.3328850  22.6161770 120.7786460  96.7696680  23.6341540 121.7473510
 100.1931070  19.2314650 107.5851420 101.0810690  19.5431880 107.4102760
 100.1636160  18.3586900 107.1932000  91.3022160  24.1372060 112.9912290
  91.8200830  23.3340320 112.9369180  90.8506180  24.0751200 113.8329120
  88.7866700  21.1033430 119.9037990  88.4281640  21.7687280 120.4911330
  88.4921260  20.2716980 120.2750610  91.9879820  21.5617670 122.7877540
  91.6879960  21.7074850 121.8905360  92.7591060  21.0022960 122.6950930
  97.3308270  26.3586670 120.7832670  97.3452810  25.4267630 120.5651580
  96.6233370  26.4446430 121.4222440 102.4645340  20.5426490 107.0531280
 102.3809060  20.9740710 106.2027720 103.1839530  21.0024840 107.4858100
 103.5419480  22.9994010 120.1301250 102.8167670  23.5922790 119.9330640
 104.0694940  22.9917550 119.3314620 103.4932590  27.3968750 109.7813410
 102.8508750  26.7424370 110.0557130 103.1063250  27.8023840 109.0054080
  99.0719070  24.7254180 113.6285100  99.4242890  24.1282310 112.9686470
  98.1881400  24.3998410 113.7993350  87.2974750  21.1024690 106.5272590
  88.1669600  21.3849490 106.8108510  86.8065070  21.9160560 106.4121400
  94.4609560  22.4897900 110.6480870  94.9172340  23.3003150 110.8741060
  94.1097770  22.1721040 111.4799360  96.7642170  28.0004240 117.8773170
  97.4084390  28.2063620 118.5546590  97.1271610  27.2392640 117.4244020
  90.3621340  12.8335550 111.1203390  90.2335970  12.8253450 112.0688310
  89.5383360  13.1718640 110.7694400  98.0374250  26.0036590 116.5950620
  98.6796480  25.3029750 116.7082790  98.5623600  26.7835030 116.4147510
 101.8829970  26.2885210 106.3189760 101.6567550  25.5715650 106.9114400
 101.4926170  26.0397650 105.4811510  99.8111870  26.8031490 119.7986680
 100.1468110  27.3898180 120.4764600  98.8912210  26.6724200 120.0284470
  87.6646000  30.3152070 107.0934220  88.0243640  30.9141410 106.4391490
  87.5238340  30.8611960 107.8669250  87.3615270  14.5926670 120.5810090
  86.6473790  14.7923590 121.1862700  87.7810310  13.8166240 120.9524890
 101.4646220  24.2057150 107.9803920 101.1767920  24.6669840 108.7681800
 102.2598390  23.7454920 108.2488140  87.6487860  28.5806930 121.5676620
  87.7578980  27.6401670 121.4272010  86.9968420  28.8461680 120.9190350
  95.6400450  26.8522820 122.9674740  95.3197320  26.1332060 123.5120430
  94.9658810  27.5277890 123.0410800  89.2821260  22.9198160 108.6554650
  88.6749210  23.6597060 108.6649950  89.7570610  23.0097520 107.8292850
  98.8554050  17.0848980 118.3311540  99.2234870  16.2644190 118.6591110
  97.9952250  17.1450870 118.7467190 102.2216080  16.0405920 109.1399100
 101.5929240  16.1451590 108.4257330 101.7268000  16.2602700 109.9292980
  94.1900110  18.3191870 110.5556980  93.4816260  18.7878210 110.9970590
  94.4744590  17.6613880 111.1902170  95.8156040  19.7388570 118.5549510
  96.3141290  20.2134390 119.2201360  95.9578990  18.8152090 118.7619540
  98.2215540  15.0442530 111.9952770  98.0983320  15.0628660 111.0462280
  99.1700100  15.0921470 112.1151170  92.3935130  16.6276950 107.9307690
  93.2425660  17.0647100 107.8647880  92.0266400  16.9397210 108.7579750
 103.0222900  15.9556530 119.3977900 102.5196500  16.6961930 119.7371710
 103.8379560  16.3440530 119.0814690 101.3144910  21.1989710 112.8439260
 100.3735050  21.2139940 113.0186950 101.6288980  20.4125670 113.2899560
  89.9873310  20.3134380 107.0876110  90.0676900  19.3661890 107.1993510
  90.8793060  20.6441260 107.1936770 103.3170490  28.3698560 114.5193520
 103.4417910  29.1929730 114.9917330 104.1836050  28.1589290 114.1717670
  90.7888020  30.4629770 114.1910650  91.5250500  29.9145230 114.4619220
  91.1728940  31.3285780 114.0516640  87.6733500  26.5303340 110.0652160
  86.7473280  26.7724480 110.0557570  88.1389930  27.3577600 109.9436910
  89.7946300  29.6475840 123.3796230  90.5959030  29.9687890 123.7931630
  89.2798120  29.2871420 124.1016140  98.6310930  25.7555710 123.3271640
  98.0249090  25.7787310 122.5867390  98.3265040  25.0238750 123.8638890
 100.0611300  29.4836000 121.9381050 101.0133050  29.3994020 121.8881290
  99.9139520  30.1477710 122.6114840  87.5144110  22.1349300 122.3232280
  88.0183130  21.5556580 122.8948510  86.7751530  22.4189530 122.8608650
  94.5682050  23.5420290 121.8567800  93.8027720  24.1105290 121.7722470
  94.7498010  23.2496500 120.9636030 101.7105400  25.2725620 122.4142820
 102.4514870  25.6101380 121.9110280 100.9478080  25.4417680 121.8612590
  89.5467190  20.2778890 123.2182350  89.5872530  19.9792760 124.1267580
  90.4012690  20.6786500 123.0589870  91.4873000  18.8570990 121.1856840
  90.9569460  18.3661940 120.5580180  92.1561070  19.2855190 120.6514770
 100.3851060  23.3240450 120.9498030 100.7992080  23.4785530 121.7988450
  99.4502060  23.4495670 121.1123810 100.8573230  20.6636610 122.9537180
 101.4394000  19.9088930 122.8657660 101.0335000  21.1944050 122.1768660
  91.9745300  15.8233360 121.2654130  91.8802170  15.2054110 120.5405000
  91.3942690  16.5499650 121.0384040  94.7406740  14.3806600 118.2981520
  94.2924040  14.4030860 117.4527070  94.1071940  13.9825620 118.8951820
  95.1466290  23.2760930 118.9193960  95.5654400  24.1193660 118.7470200
  94.2274920  23.4132970 118.6900740  97.4830190  21.0077110 120.3031800
  97.6026400  20.4118250 121.0426640  98.3424190  21.0446800 119.8833100
  99.8218090  21.5614300 118.8794310  99.2953310  22.0856920 118.2759450
 100.1649430  22.1941690 119.5104040  92.2204480  18.9507670 105.3244020
  92.0193540  18.0875030 105.6857360  92.0496530  18.8641030 104.3865620
  92.9973710  29.5813940 120.0351690  92.4594800  30.3060000 119.7160390
  93.2507670  29.1044280 119.2449030  94.2498960  17.5498460 121.5607620
  94.8398650  17.2414310 122.2485440  93.4319200  17.0778210 121.7167520
  99.0692390  17.1664270 121.7940640  98.3807910  16.5045810 121.7290630
  99.7898410  16.7202540 122.2389100  99.6992790  13.7615900 107.8530900
  99.9795080  12.9183800 108.2090320  98.9258520  13.9939010 108.3669650
  91.0187280  16.0508290 105.3121900  91.3213180  16.0575720 104.4041050
  91.7581870  15.7006150 105.8089560  95.8535920  30.8165150 120.2938340
  95.7794620  31.7200290 120.6010710  94.9514760  30.4977050 120.2660410
  94.2372210  14.9942910 106.2978100  93.8894210  14.3166900 105.7180550
  94.4384980  14.5332420 107.1121490  87.2563210  28.1439740 113.5971960
  87.5866220  27.2760800 113.3650600  87.6854210  28.3498260 114.4276920
  91.8525130  26.4748750 111.2573930  91.5520670  26.3513720 112.1577840
  91.7462620  25.6157340 110.8489660  87.7453420  29.0110330 116.3353590
  87.3084410  29.1911130 117.1677740  88.3131100  29.7684950 116.1935310
 103.3815600  28.5127330 120.6230900 102.7817590  28.5719890 119.8794820
 103.5109500  27.5732310 120.7527750 104.6217050  26.2545150 105.9600610
 103.7910010  26.3221800 106.4307840 104.7988880  27.1449270 105.6567470
 104.0773510  22.9992630 108.4634810 104.8392420  23.5689280 108.5694500
 104.0927880  22.4319830 109.2343120  87.5777850  21.5230560 112.6942470
  86.9226690  21.2542200 112.0502170  88.4155800  21.4135040 112.2444450
 105.0833480  23.8542730 113.3076740 105.4542310  23.0710050 112.9012710
 105.7235410  24.5431830 113.1294040 102.0667240  25.2379310 118.7207060
 101.2527080  25.6676470 118.9832850 102.4741440  25.8497720 118.1076110
 104.1292680  23.2927000 105.6207330 104.4041520  24.2005880 105.4926550
 103.9403420  23.2289530 106.5569320 100.5268290  16.3171850 106.9160960
 100.9453170  16.1302830 106.0757620 100.2204350  15.4650900 107.2263890
 104.0258020  21.2295990 110.6136760 103.6501620  20.4623920 110.1818050
 103.2961140  21.6118690 111.1011690  88.6153780  21.9083130 117.2345810
  88.9826820  21.8210530 118.1141830  88.0464600  21.1449680 117.1352670
 103.4157640  20.3767510 120.2476280 103.1843730  20.1480260 119.3474230
 103.6762190  21.2967060 120.2021170  88.1669780  18.8192220 121.1404230
  87.2725830  18.7858980 121.4797940  88.7067330  19.0179010 121.9055480
 101.8545710  15.6023940 123.0255980 102.7315890  15.6107340 123.4089980
 101.8666550  14.8654780 122.4148330  86.7915930  18.7329490 108.6367800
  85.8880010  18.9959690 108.4619460  87.2756550  19.0040660 107.8567760
 103.3008980  19.4553480 113.9144000 103.8246460  18.9616130 113.2834170
 103.8868400  19.5903840 114.6591570 103.4798700  19.5393350 117.4363550
 102.5301410  19.5056890 117.5508540 103.6611710  20.4493460 117.2013320
  89.3343140  17.7895030 106.5462180  90.0434840  17.3678250 106.0609460
  88.6183080  17.8570260 105.9145530  88.9817300  13.8434360 105.5864830
  89.7045430  14.3843300 105.9046050  89.2541820  13.5697780 104.7106370
 102.7908950  18.7126830 109.8536410 103.2868070  18.4797700 110.6385290
 102.5925020  17.8738670 109.4374050  88.6709490  13.0940550 115.4887450
  89.3185680  12.5437930 115.0482610  89.0911330  13.3483700 116.3103260
 104.2196110  17.3487780 112.3874090 104.1095390  17.1943820 113.3256360
 104.9803700  16.8208720 112.1449500 102.5661830  13.2881910 118.8457090
 103.2034050  13.9016050 119.2116280 102.7136720  13.3242570 117.9006320
 105.1086380  15.1795700 105.6280230 106.0335690  15.0476880 105.4198520
 105.0862170  15.2588520 106.5816680 105.1824870  15.9506360 108.2536940
 104.3876370  15.8851480 108.7829850 105.3868150  16.8857000 108.2422290
 102.1243290  29.9897910 112.2475330 102.7202360  29.6682480 111.5709750
 102.3821440  29.5169730 113.0388600  88.4241490  13.2496220 118.2312770
  88.0756310  13.7060040 118.9970950  88.0929190  12.3553350 118.3135200
  90.0305860  26.4215820 122.3965960  89.9875490  26.0508730 123.2780420
  90.1616870  27.3593390 122.5367780  93.7311890  27.9775410 117.9975680
  93.4903250  28.2449970 117.1106200  94.6714530  28.1481140 118.0526540
  95.9366310  14.4408100 121.7532190  95.8755200  15.0329930 122.5027600
  96.8766690  14.3334060 121.6082450  98.5740870  14.0978160 121.3924480
  99.1881280  14.4157450 120.7305560  99.1190430  13.6126750 122.0120340
 104.9916050  29.9969790 118.7986320 104.4974330  30.3938660 118.0813450
 104.3829340  29.3719000 119.1923600  89.0962130  12.7772420 121.5063540
  89.6445120  12.5960470 120.7429650  89.1617440  11.9866530 122.0419850
  89.8693890  29.3678070 119.5163740  89.2754210  29.2362770 120.2553780
  89.8617730  28.5316210 119.0505840  99.3148910  12.6610300 117.7193770
  98.4408750  12.9945410 117.5166700  99.2059660  12.1883480 118.5445640
 100.2220890  14.8681170 119.1035490  99.8934250  14.0532930 118.7237220
 101.1703190  14.8250980 118.9801180 102.6755500  30.6393210 116.0773060
 102.2158470  31.3909020 115.7031080 102.0467960  29.9199680 116.0187860
  89.5006120  26.7336450 118.4671780  88.7740180  26.1141740 118.3997730
  89.5615270  27.1277060 117.5969860  93.1051220  28.9481450 115.2521190
  93.6216240  28.3368810 114.7269450  93.7548600  29.4510230 115.7432200
  95.8446720  29.8389940 116.0790170  96.1324530  29.5844240 115.2023180
  96.3569940  29.2867300 116.6695740  97.0623730  13.5780140 116.6586680
  96.2795520  14.0525640 116.9383440  96.7686660  12.6734970 116.5499860
 101.6144800  14.2803240 114.7035770 102.0552890  14.2248340 113.8557370
 101.3452390  15.1961250 114.7745950 103.4783370  13.9118480 112.7144590
 103.4171770  12.9679700 112.5675610 104.2575400  14.0198570 113.2598050
  87.7836120  30.0510840 111.6768540  87.6158160  29.4181520 112.3750430
  86.9170630  30.2570240 111.3262730  88.4064140  13.8827620 109.1800400
  89.1643500  13.9956500 108.6064430  87.9441310  14.7196820 109.1343830
  94.9477950  15.9966890 112.1702710  94.1352460  15.6223780 111.8298590
  95.4519590  15.2411970 112.4723900  99.4502930  12.6609340 113.4085780
 100.0532300  13.2329550 113.8834300  98.7095920  13.2248780 113.1859680
 102.5937530  13.0630900 108.6826060 102.7888160  13.9614350 108.9493490
 101.8067400  12.8317980 109.1759010  89.3898820  28.7444070 109.1218680
  88.8646440  29.1252100 108.4180640  89.3143400  29.3694840 109.8428390
  90.7789290  14.4091670 107.7202370  91.3082050  13.6221470 107.5910320
  91.4117610  15.0882860 107.9537900  92.9727130  14.1466810 110.7747760
  92.3429870  13.4454120 110.9417890  92.4332270  14.9070940 110.5580920
  95.9119080  30.7606040 123.4458370  96.8386390  30.5250310 123.4894330
  95.8969510  31.5878040 122.9644400 104.1464140  30.3031610 110.4432620
 104.3216330  29.6169350 109.7993540 103.4485710  30.8278660 110.0509290
  93.0982690  13.4250790 123.2100250  92.8166960  13.9284390 122.4461070
  93.4802390  12.6272540 122.8442380  91.1506580  26.8091180 108.0014260
  90.5215460  27.2776280 108.5500090  91.2654410  25.9640400 108.4360450
  99.6998150  12.8404370 123.7880720  99.5863600  13.1598980 124.6832240
 100.5167890  13.2416880 123.4918000 102.4796640  29.9875900 123.2699410
 103.2721960  29.4925130 123.0625370 102.7729790  30.6666040 123.8775020
  98.6056300  20.8596840  94.1515460  98.5250350  19.9451450  93.8807170
  98.1920720  21.3563910  93.4455170  96.7374340  22.6375860  96.0324730
  95.9616440  22.1576300  96.3223300  97.3887270  21.9581510  95.8580890
 100.7581770  27.0436050  94.8123860 100.2963300  26.2723290  95.1411030
 101.5707320  27.0702120  95.3176310  89.1632120  17.9097560  90.6942880
  88.2748820  18.2513530  90.5922760  89.4473310  17.7097880  89.8023710
  87.1265130  20.5103210  96.5782580  87.6981240  19.7425410  96.5786220
  87.1266670  20.8091970  95.6689190  96.9845080  29.3294060  94.4327850
  96.3656520  29.7851560  93.8622290  97.8396860  29.4845520  94.0317550
  96.1783330  25.3133050  96.0394890  96.1091610  24.3722990  95.8784020
  96.9403190  25.4034460  96.6117460  88.3690000  15.9187570  98.3651510
  88.1892840  15.0213320  98.6454270  87.9670080  16.4659440  99.0398460
  97.2088500  18.1203430  96.2663820  97.5853320  17.2475310  96.1537490
  97.1108010  18.4562130  95.3754260  91.3393510  16.4929060  91.7281260
  91.4460260  17.3932790  92.0350020  90.4285870  16.4447030  91.4375910
 100.9912620  15.6153870  93.1992160 101.8122240  15.1250440  93.2417640
 101.0246700  16.2051530  93.9524000  88.9876670  18.4148070  96.9733850
  89.6686780  18.6786440  97.5921250  88.6724720  17.5748940  97.3071860
  93.1801240  19.4615430  96.0606440  93.6879460  19.9596400  96.7011460
  93.7114480  18.6850630  95.8845800 105.2812170  17.6320620  99.7635790
 104.5764340  18.0202330  99.2450900 105.5470090  18.3270910 100.3656720
  91.4637340  14.1013990 100.3269860  91.4655780  14.6186380  99.5215760
  90.6341650  13.6244170 100.3039790  97.8508430  24.2133300  91.8259760
  97.2325700  24.6782750  91.2622480  98.3631680  24.9060780  92.2429270
 101.2274100  17.5554250  95.9719700 100.5229670  17.8439140  96.5522810
 101.5886260  18.3654360  95.6119260  91.1452670  15.8123950  98.3340310
  91.4869480  16.6566000  98.0394180  90.2068480  15.9607690  98.4505650
 104.2961020  17.0009040  96.3628910 103.3485930  17.0348020  96.4944340
 104.6211010  17.8147990  96.7478270  94.8280560  13.3006220  94.6584900
  95.1355540  12.7453110  93.9420400  93.8981260  13.4350680  94.4757890
 100.3795620  29.0173510  96.9492360 100.3922780  28.6135800  96.0814620
  99.8270840  29.7920800  96.8453790 101.6741040  25.7389730  92.0382530
 101.5637370  24.7964060  92.1631950 101.6709290  26.1005370  92.9245290
  99.7781060  23.9203350  98.2774970 100.1949850  23.7063460  97.4428430
 100.5020880  24.1776140  98.8483590  97.2161320  21.3655050  91.3945020
  96.2890600  21.2992430  91.6233490  97.3686140  22.3035180  91.2800260
 101.2458610  22.9275350  91.8980270 100.6271030  22.5894900  91.2506570
 101.2283060  22.2835110  92.6059460 100.6885170  19.1059890  99.3146080
 100.2756350  19.9313600  99.5686070  99.9561120  18.5204930  99.1222440
  92.8217960  21.8919790  94.1764750  92.4174960  21.1797040  93.6810650
  92.9081080  21.5473030  95.0652790  91.5346580  18.6663000  97.9563790
  92.0861170  18.7758340  97.1817040  92.0490090  19.0400600  98.6719020
  99.4223310  22.1662160  88.9053020  99.8616590  21.3284590  88.7590840
 100.1351730  22.7991560  88.9917160  97.5318690  27.1058230  92.8734260
  97.9714600  27.8482560  92.4589650  97.4705580  27.3484800  93.7973220
 103.0040450  13.4204970  87.2194060 102.6913110  13.5131800  88.1193130
 103.7652920  13.9986000  87.1691490  89.5222590  20.7864770  91.6771400
  89.4020190  21.5126860  91.0652670  89.2123480  20.0167680  91.1999310
 104.9584480  28.9131160 105.0718450 105.4344200  29.3914050 105.7507530
 105.5791640  28.8448650 104.3463950 100.1988870  30.0927350  90.2297270
 100.0390010  29.8030290  91.1279100 100.0335580  29.3167480  89.6942500
  99.9015000  27.6014910  88.7895270  99.2080160  27.5992200  88.1297550
 100.6437860  27.1774230  88.3589440  99.4664930  29.2277620  92.8643760
  99.9221880  28.4467000  93.1782380  99.8057450  29.9384440  93.4084940
 104.2141740  18.1576470 103.1968200 103.5986010  18.6656140 102.6683660
 103.8938160  17.2574800 103.1394140  91.9886250  14.1299840  95.0595070
  91.5454400  14.9109380  94.7279590  92.5471240  14.4529730  95.7666010
  96.2756060  16.9968360 100.6630390  95.8135430  17.2051380 101.4750330
  95.8734170  16.1827710 100.3601060 101.2760570  18.2177310 101.7927050
 100.4254160  17.9183060 102.1136120 101.1162360  18.4619320 100.8810870
  98.3710280  19.7179060 103.8925840  98.6963690  18.8842810 103.5528070
  99.1590610  20.2407580 104.0404170  95.1045070  13.7510540  89.9400900
  94.4799250  13.7470410  90.6654210  95.0175190  12.8841500  89.5436870
  94.0262150  14.6747170  96.9184670  94.3234480  15.5810000  96.8376690
  94.5747710  14.1865950  96.3044240  91.7800470  19.2533410  92.7876320
  91.5541390  19.0370580  93.6922940  90.9993000  19.6861870  92.4422290
  99.0098230  19.2596780  91.3866970  98.4107120  19.9832580  91.2030590
  99.5577840  19.1973560  90.6043420  97.6163100  17.8960320  93.4170250
  98.0092670  18.2132520  92.6038940  97.9779950  17.0172200  93.5314770
  89.3510220  16.5632660 101.6070370  88.9573610  17.4107870 101.8143150
  88.6628620  15.9259030 101.7979010  95.9255270  16.6467630 104.6767110
  95.2353590  16.4539830 105.3113200  96.6687570  16.9302270 105.2091410
  86.6527270  14.4861120  95.6400450  86.3640320  15.0563980  96.3525430
  87.3973030  14.0065570  96.0031680  86.8397500  18.4281240  86.8503170
  86.7572170  19.3712000  86.9918160  86.4880560  18.2856150  85.9715520
  98.2018240  20.4866070  97.5121030  97.4699360  20.9952880  97.8611130
  97.8042580  19.6696050  97.2109810  94.6395630  17.1620270  95.9173520
  94.6431690  16.7210220  95.0678060  95.5346750  17.4837600  96.0245340
  90.4898010  17.0446760  94.8767730  90.1498060  17.5221990  95.6334780
  89.7275330  16.5911880  94.5168830  94.7015780  18.1632350  88.9080280
  94.8228600  18.1218830  89.8566100  94.3164290  19.0256500  88.7527010
  98.6644150  15.9399750  96.9243970  98.6816890  16.3908400  97.7685820
  98.4159730  15.0405390  97.1377410  93.7137280  20.4733490  88.3063580
  93.1454180  20.0251740  87.6799490  94.4226280  20.8326270  87.7728730
 102.0914900  13.3531930 102.7630350 102.4160670  12.6221590 103.2888330
 102.1271410  13.0345570 101.8611340  87.8044090  15.9665740  93.7932400
  87.5191010  15.6021410  94.6311020  87.7422950  15.2346200  93.1795540
  91.2584760  24.4691680  90.5789990  90.4847020  23.9289300  90.4188710
  91.9879390  23.9498290  90.2407750  97.4782680  14.8595000  90.5145770
  96.6647290  14.3608170  90.4391080  97.2844630  15.6993250  90.0982120
  96.1891660  25.4038340  89.4896100  96.5307360  26.1480570  88.9939420
  95.3604370  25.7169460  89.8520930 102.4645340  20.5426490  88.2787790
 102.3809060  20.9740710  87.4284230 103.1839530  21.0024840  88.7114610
  99.0719070  24.7254180  94.8541610  99.4242890  24.1282310  94.1942980
  98.1881400  24.3998410  95.0249860  95.1582350  25.4851870  92.2612020
  95.8453480  26.0321080  92.6419610  94.3714770  26.0292600  92.2961630
  94.4609560  22.4897900  91.8737380  94.9172340  23.3003150  92.0997570
  94.1097770  22.1721040  92.7055870  90.3621340  12.8335550  92.3459900
  90.2335970  12.8253450  93.2944820  89.5383360  13.1718640  91.9950910
  98.0374250  26.0036590  97.8207130  98.6796480  25.3029750  97.9339300
  98.5623600  26.7835030  97.6404020  87.3615270  14.5926670 101.8066600
  86.6473790  14.7923590 102.4119210  87.7810310  13.8166240 102.1781400
  87.6487860  28.5806930 102.7933130  87.7578980  27.6401670 102.6528520
  86.9968420  28.8461680 102.1446860  93.6814620  27.6983270  89.1364400
  93.6724720  28.4312960  88.5208910  92.7612980  27.4514850  89.2291360
  89.2821260  22.9198160  89.8811160  88.6749210  23.6597060  89.8906460
  89.7570610  23.0097520  89.0549360  98.8554050  17.0848980  99.5568050
  99.2234870  16.2644190  99.8847620  97.9952250  17.1450870  99.9723700
 102.2216080  16.0405920  90.3655610 101.5929240  16.1451590  89.6513840
 101.7268000  16.2602700  91.1549490  96.6674220  27.7611510  87.7989590
  96.7686200  27.5575500  86.8691570  95.7675960  27.5069790  88.0037370
  94.1900110  18.3191870  91.7813490  93.4816260  18.7878210  92.2227100
  94.4744590  17.6613880  92.4158680  95.8156040  19.7388570  99.7806020
  96.3141290  20.2134390 100.4457870  95.9578990  18.8152090  99.9876050
  98.2215540  15.0442530  93.2209280  98.0983320  15.0628660  92.2718790
  99.1700100  15.0921470  93.3407680  95.3092330  30.2797830  92.4937260
  95.5633830  30.2419220  91.5716630  94.3604810  30.1531160  92.4865510
  92.3935130  16.6276950  89.1564200  93.2425660  17.0647100  89.0904390
  92.0266400  16.9397210  89.9836260 103.0222900  15.9556530 100.6234410
 102.5196500  16.6961930 100.9628220 103.8379560  16.3440530 100.3071200
 101.3144910  21.1989710  94.0695770 100.3735050  21.2139940  94.2443460
 101.6288980  20.4125670  94.5156070  91.2926550  22.8809310  87.6299730
  92.0589820  22.7690670  88.1925160  91.3701240  22.1847280  86.9776500
  89.9873310  20.3134380  88.3132620  90.0676900  19.3661890  88.4250020
  90.8793060  20.6441260  88.4193280  87.6733500  26.5303340  91.2908670
  86.7473280  26.7724480  91.2814080  88.1389930  27.3577600  91.1693420
  89.7946300  29.6475840 104.6052740  90.5959030  29.9687890 105.0188140
  89.2798120  29.2871420 105.3272650  93.8990330  29.6360080  87.2392730
  94.6918940  29.9248910  86.7874520  93.3794680  29.2052250  86.5605210
  87.5144110  22.1349300 103.5488790  88.0183130  21.5556580 104.1205020
  86.7751530  22.4189530 104.0865160  94.4167730  24.8563490  87.1035080
  94.3118370  24.2415840  87.8296460  94.2491950  24.3329380  86.3198090
  97.6570460  23.9183520  87.7077070  97.1080560  24.3652820  88.3519810
  98.2789720  23.4132770  88.2314740  89.5467190  20.2778890 104.4438860
  89.5872530  19.9792760 105.3524090  90.4012690  20.6786500 104.2846380
  93.3245580  22.8774440  89.6042370  93.7462000  22.7114310  90.4473760
  93.4496420  22.0674670  89.1097510 100.3851060  23.3240450 102.1754540
 100.7992080  23.4785530 103.0244960  99.4502060  23.4495670 102.3380320
 100.8573230  20.6636610 104.1793690 101.4394000  19.9088930 104.0914170
 101.0335000  21.1944050 103.4025170  91.9745300  15.8233360 102.4910640
  91.8802170  15.2054110 101.7661510  91.3942690  16.5499650 102.2640550
  94.7406740  14.3806600  99.5238030  94.2924040  14.4030860  98.6783580
  94.1071940  13.9825620 100.1208330  99.8218090  21.5614300 100.1050820
  99.2953310  22.0856920  99.5015960 100.1649430  22.1941690 100.7360550
  92.9973710  29.5813940 101.2608200  92.4594800  30.3060000 100.9416900
  93.2507670  29.1044280 100.4705540  94.2498960  17.5498460 102.7864130
  94.8398650  17.2414310 103.4741950  93.4319200  17.0778210 102.9424030
  99.0692390  17.1664270 103.0197150  98.3807910  16.5045810 102.9547140
  99.7898410  16.7202540 103.4645610  99.6992790  13.7615900  89.0787410
  99.9795080  12.9183800  89.4346830  98.9258520  13.9939010  89.5926160
  91.0187280  16.0508290  86.5378410  91.3213180  16.0575720  85.6297560
  91.7581870  15.7006150  87.0346070  96.4021250  29.9823660  89.1421210
  97.2972040  30.3208630  89.1639970  96.4338880  29.2603070  88.5145490
  90.0417410  25.3550710  87.3708210  90.4792280  25.8980380  88.0265790
  90.5265140  24.5297660  87.3804550 104.0258020  21.2295990  91.8393270
 103.6501620  20.4623920  91.4074560 103.2961140  21.6118690  92.3268200
 103.4157640  20.3767510 101.4732790 103.1843730  20.1480260 100.5730740
 103.6762190  21.2967060 101.4277680  88.1669780  18.8192220 102.3660740
  87.2725830  18.7858980 102.7054450  88.7067330  19.0179010 103.1311990
 101.8545710  15.6023940 104.2512490 102.7315890  15.6107340 104.6346490
 101.8666550  14.8654780 103.6404840 103.3008980  19.4553480  95.1400510
 103.8246460  18.9616130  94.5090680 103.8868400  19.5903840  95.8848080
 103.4798700  19.5393350  98.6620060 102.5301410  19.5056890  98.7765050
 103.6611710  20.4493460  98.4269830  89.3343140  17.7895030  87.7718690
  90.0434840  17.3678250  87.2865970  88.6183080  17.8570260  87.1402040
  88.9817300  13.8434360  86.8121340  89.7045430  14.3843300  87.1302560
  89.2541820  13.5697780  85.9362880 102.7908950  18.7126830  91.0792920
 103.2868070  18.4797700  91.8641800 102.5925020  17.8738670  90.6630560
  88.6709490  13.0940550  96.7143960  89.3185680  12.5437930  96.2739120
  89.0911330  13.3483700  97.5359770 104.2196110  17.3487780  93.6130600
 104.1095390  17.1943820  94.5512870 104.9803700  16.8208720  93.3706010
 102.5661830  13.2881910 100.0713600 103.2034050  13.9016050 100.4372790
 102.7136720  13.3242570  99.1262830 105.1086380  15.1795700  86.8536740
 106.0335690  15.0476880  86.6455030 105.0862170  15.2588520  87.8073190
 105.1824870  15.9506360  89.4793450 104.3876370  15.8851480  90.0086360
 105.3868150  16.8857000  89.4678800 102.1243290  29.9897910  93.4731840
 102.7202360  29.6682480  92.7966260 102.3821440  29.5169730  94.2645110
  88.4241490  13.2496220  99.4569280  88.0756310  13.7060040 100.2227460
  88.0929190  12.3553350  99.5391710  95.9366310  14.4408100 102.9788700
  95.8755200  15.0329930 103.7284110  96.8766690  14.3334060 102.8338960
  98.5740870  14.0978160 102.6180990  99.1881280  14.4157450 101.9562070
  99.1190430  13.6126750 103.2376850  89.0962130  12.7772420 102.7320050
  89.6445120  12.5960470 101.9686160  89.1617440  11.9866530 103.2676360
  99.3148910  12.6610300  98.9450280  98.4408750  12.9945410  98.7423210
  99.2059660  12.1883480  99.7702150 100.2220890  14.8681170 100.3292000
  99.8934250  14.0532930  99.9493730 101.1703190  14.8250980 100.2057690
 102.6755500  30.6393210  97.3029570 102.2158470  31.3909020  96.9287590
 102.0467960  29.9199680  97.2444370  95.8446720  29.8389940  97.3046680
  96.1324530  29.5844240  96.4279690  96.3569940  29.2867300  97.8952250
  97.0623730  13.5780140  97.8843190  96.2795520  14.0525640  98.1639950
  96.7686660  12.6734970  97.7756370 101.6144800  14.2803240  95.9292280
 102.0552890  14.2248340  95.0813880 101.3452390  15.1961250  96.0002460
 103.4783370  13.9118480  93.9401100 103.4171770  12.9679700  93.7932120
 104.2575400  14.0198570  94.4854560  88.4064140  13.8827620  90.4056910
  89.1643500  13.9956500  89.8320940  87.9441310  14.7196820  90.3600340
  94.9477950  15.9966890  93.3959220  94.1352460  15.6223780  93.0555100
  95.4519590  15.2411970  93.6980410  99.4502930  12.6609340  94.6342290
 100.0532300  13.2329550  95.1090810  98.7095920  13.2248780  94.4116190
 102.5937530  13.0630900  89.9082570 102.7888160  13.9614350  90.1750000
 101.8067400  12.8317980  90.4015520  90.7789290  14.4091670  88.9458880
  91.3082050  13.6221470  88.8166830  91.4117610  15.0882860  89.1794410
  92.9727130  14.1466810  92.0004270  92.3429870  13.4454120  92.1674400
  92.4332270  14.9070940  91.7837430 104.1464140  30.3031610  91.6689130
 104.3216330  29.6169350  91.0250050 103.4485710  30.8278660  91.2765800
  93.0982690  13.4250790 104.4356760  92.8166960  13.9284390 103.6717580
  93.4802390  12.6272540 104.0698890  91.1506580  26.8091180  89.2270770
  90.5215460  27.2776280  89.7756600  91.2654410  25.9640400  89.6616960
  99.6998150  12.8404370 105.0137230  99.5863600  13.1598980 105.9088750
 100.5167890  13.2416880 104.7174510  89.1632120  17.9097560  71.9199390
  88.2748820  18.2513530  71.8179270  89.4473310  17.7097880  71.0280220
  88.3690000  15.9187570  79.5908020  88.1892840  15.0213320  79.8710780
  87.9670080  16.4659440  80.2654970  91.3393510  16.4929060  72.9537770
  91.4460260  17.3932790  73.2606530  90.4285870  16.4447030  72.6632420
 100.9912620  15.6153870  74.4248670 101.8122240  15.1250440  74.4674150
 101.0246700  16.2051530  75.1780510  88.9876670  18.4148070  78.1990360
  89.6686780  18.6786440  78.8177760  88.6724720  17.5748940  78.5328370
 105.2812170  17.6320620  80.9892300 104.5764340  18.0202330  80.4707410
 105.5470090  18.3270910  81.5913230  91.4637340  14.1013990  81.5526370
  91.4655780  14.6186380  80.7472270  90.6341650  13.6244170  81.5296300
 101.2274100  17.5554250  77.1976210 100.5229670  17.8439140  77.7779320
 101.5886260  18.3654360  76.8375770  87.2191630  24.8989830  70.4255900
  86.8419610  25.3876930  69.6940800  87.4764700  25.5715110  71.0562430
 102.8436880  27.1729380  79.4603690 102.1600400  27.8428490  79.4520360
 103.3831170  27.3710030  78.6948550 104.2961020  17.0009040  77.5885420
 103.3485930  17.0348020  77.7200850 104.6211010  17.8147990  77.9734780
 100.3795620  29.0173510  78.1748870 100.3922780  28.6135800  77.3071130
  99.8270840  29.7920800  78.0710300  99.7781060  23.9203350  79.5031480
 100.1949850  23.7063460  78.6684940 100.5020880  24.1776140  80.0740100
  97.2030400  17.6372050  69.6168690  96.2634070  17.7986010  69.7021150
  97.5213660  18.3557730  69.0704680 100.6885170  19.1059890  80.5402590
 100.2756350  19.9313600  80.7942580  99.9561120  18.5204930  80.3478950
 101.3785270  29.1519220  81.2283570 100.9015830  29.9591410  81.0356180
 100.6947060  28.4997550  81.3809780  93.0069660  28.1304060  85.0010790
  92.9785090  28.5347010  84.1339220  92.8434630  27.2014420  84.8382390
 103.0040450  13.4204970  68.4450570 102.6913110  13.5131800  69.3449640
 103.7652920  13.9986000  68.3948000  89.5222590  20.7864770  72.9027910
  89.4020190  21.5126860  72.2909180  89.2123480  20.0167680  72.4255820
  98.2234470  29.8072010  82.0269780  98.7379140  29.7180020  82.8292210
  97.3803550  30.1531710  82.3197690 100.1988870  30.0927350  71.4553780
 100.0390010  29.8030290  72.3535610 100.0335580  29.3167480  70.9199010
 104.2141740  18.1576470  84.4224710 103.5986010  18.6656140  83.8940170
 103.8938160  17.2574800  84.3650650  95.1045070  13.7510540  71.1657410
  94.4799250  13.7470410  71.8910720  95.0175190  12.8841500  70.7693380
  91.7800470  19.2533410  74.0132830  91.5541390  19.0370580  74.9179450
  90.9993000  19.6861870  73.6678800  99.0098230  19.2596780  72.6123480
  98.4107120  19.9832580  72.4287100  99.5577840  19.1973560  71.8299930
  89.3510220  16.5632660  82.8326880  88.9573610  17.4107870  83.0399660
  88.6628620  15.9259030  83.0235520  86.6527270  14.4861120  76.8656960
  86.3640320  15.0563980  77.5781940  87.3973030  14.0065570  77.2288190
  86.8397500  18.4281240  68.0759680  86.7572170  19.3712000  68.2174670
  86.4880560  18.2856150  67.1972030  90.4898010  17.0446760  76.1024240
  90.1498060  17.5221990  76.8591290  89.7275330  16.5911880  75.7425340
  94.7015780  18.1632350  70.1336790  94.8228600  18.1218830  71.0822610
  94.3164290  19.0256500  69.9783520  93.7137280  20.4733490  69.5320090
  93.1454180  20.0251740  68.9056000  94.4226280  20.8326270  68.9985240
 102.0914900  13.3531930  83.9886860 102.4160670  12.6221590  84.5144840
 102.1271410  13.0345570  83.0867850  87.8044090  15.9665740  75.0188910
  87.5191010  15.6021410  75.8567530  87.7422950  15.2346200  74.4052050
 102.0172740  23.4657040  77.5972890 102.7371860  23.9612330  77.2069000
 101.8154560  22.7874930  76.9526760  97.4782680  14.8595000  71.7402280
  96.6647290  14.3608170  71.6647590  97.2844630  15.6993250  71.3238630
 100.1931070  19.2314650  70.0364440 101.0810690  19.5431880  69.8615780
 100.1636160  18.3586900  69.6445020  97.3308270  26.3586670  83.2345690
  97.3452810  25.4267630  83.0164600  96.6233370  26.4446430  83.8735460
 103.5419480  22.9994010  82.5814270 102.8167670  23.5922790  82.3843660
 104.0694940  22.9917550  81.7827640 103.4932590  27.3968750  72.2326430
 102.8508750  26.7424370  72.5070150 103.1063250  27.8023840  71.4567100
  87.2974750  21.1024690  68.9785610  88.1669600  21.3849490  69.2621530
  86.8065070  21.9160560  68.8634420  96.7642170  28.0004240  80.3286190
  97.4084390  28.2063620  81.0059610  97.1271610  27.2392640  79.8757040
  90.3621340  12.8335550  73.5716410  90.2335970  12.8253450  74.5201330
  89.5383360  13.1718640  73.2207420  99.8111870  26.8031490  82.2499700
 100.1468110  27.3898180  82.9277620  98.8912210  26.6724200  82.4797490
  87.6646000  30.3152070  69.5447240  88.0243640  30.9141410  68.8904510
  87.5238340  30.8611960  70.3182270  87.3615270  14.5926670  83.0323110
  86.6473790  14.7923590  83.6375720  87.7810310  13.8166240  83.4037910
  95.6400450  26.8522820  85.4187760  95.3197320  26.1332060  85.9633450
  94.9658810  27.5277890  85.4923820 102.2216080  16.0405920  71.5912120
 101.5929240  16.1451590  70.8770350 101.7268000  16.2602700  72.3806000
  94.1900110  18.3191870  73.0070000  93.4816260  18.7878210  73.4483610
  94.4744590  17.6613880  73.6415190  98.2215540  15.0442530  74.4465790
  98.0983320  15.0628660  73.4975300  99.1700100  15.0921470  74.5664190
  92.3935130  16.6276950  70.3820710  93.2425660  17.0647100  70.3160900
  92.0266400  16.9397210  71.2092770 103.0222900  15.9556530  81.8490920
 102.5196500  16.6961930  82.1884730 103.8379560  16.3440530  81.5327710
 101.3144910  21.1989710  75.2952280 100.3735050  21.2139940  75.4699970
 101.6288980  20.4125670  75.7412580  89.9873310  20.3134380  69.5389130
  90.0676900  19.3661890  69.6506530  90.8793060  20.6441260  69.6449790
 103.3170490  28.3698560  76.9706540 103.4417910  29.1929730  77.4430350
 104.1836050  28.1589290  76.6230690  87.6733500  26.5303340  72.5165180
  86.7473280  26.7724480  72.5070590  88.1389930  27.3577600  72.3949930
  89.7946300  29.6475840  85.8309250  90.5959030  29.9687890  86.2444650
  89.2798120  29.2871420  86.5529160  98.6310930  25.7555710  85.7784660
  98.0249090  25.7787310  85.0380410  98.3265040  25.0238750  86.3151910
 100.0611300  29.4836000  84.3894070 101.0133050  29.3994020  84.3394310
  99.9139520  30.1477710  85.0627860  87.5144110  22.1349300  84.7745300
  88.0183130  21.5556580  85.3461530  86.7751530  22.4189530  85.3121670
 100.3851060  23.3240450  83.4011050 100.7992080  23.4785530  84.2501470
  99.4502060  23.4495670  83.5636830  91.9745300  15.8233360  83.7167150
  91.8802170  15.2054110  82.9918020  91.3942690  16.5499650  83.4897060
  99.8218090  21.5614300  81.3307330  99.2953310  22.0856920  80.7272470
 100.1649430  22.1941690  81.9617060  92.2204480  18.9507670  67.7757040
  92.0193540  18.0875030  68.1370380  92.0496530  18.8641030  66.8378640
  99.6992790  13.7615900  70.3043920  99.9795080  12.9183800  70.6603340
  98.9258520  13.9939010  70.8182670  91.0187280  16.0508290  67.7634920
  91.3213180  16.0575720  66.8554070  91.7581870  15.7006150  68.2602580
  95.8535920  30.8165150  82.7451360  95.7794620  31.7200290  83.0523730
  94.9514760  30.4977050  82.7173430  94.2372210  14.9942910  68.7491120
  93.8894210  14.3166900  68.1693570  94.4384980  14.5332420  69.5634510
  87.2563210  28.1439740  76.0484980  87.5866220  27.2760800  75.8163620
  87.6854210  28.3498260  76.8789940 104.0773510  22.9992630  70.9147830
 104.8392420  23.5689280  71.0207520 104.0927880  22.4319830  71.6856140
  87.5777850  21.5230560  75.1455490  86.9226690  21.2542200  74.5015190
  88.4155800  21.4135040  74.6957470 102.0667240  25.2379310  81.1720080
 101.2527080  25.6676470  81.4345870 102.4741440  25.8497720  80.5589130
 100.5268290  16.3171850  69.3673980 100.9453170  16.1302830  68.5270640
 100.2204350  15.4650900  69.6776910 104.0258020  21.2295990  73.0649780
 103.6501620  20.4623920  72.6331070 103.2961140  21.6118690  73.5524710
 103.4157640  20.3767510  82.6989300 103.1843730  20.1480260  81.7987250
 103.6762190  21.2967060  82.6534190 101.8545710  15.6023940  85.4769000
 102.7315890  15.6107340  85.8603000 101.8666550  14.8654780  84.8661350
  86.7915930  18.7329490  71.0880820  85.8880010  18.9959690  70.9132480
  87.2756550  19.0040660  70.3080780 103.3008980  19.4553480  76.3657020
 103.8246460  18.9616130  75.7347190 103.8868400  19.5903840  77.1104590
 103.4798700  19.5393350  79.8876570 102.5301410  19.5056890  80.0021560
 103.6611710  20.4493460  79.6526340  89.3343140  17.7895030  68.9975200
  90.0434840  17.3678250  68.5122480  88.6183080  17.8570260  68.3658550
  88.9817300  13.8434360  68.0377850  89.7045430  14.3843300  68.3559070
  89.2541820  13.5697780  67.1619390 102.7908950  18.7126830  72.3049430
 103.2868070  18.4797700  73.0898310 102.5925020  17.8738670  71.8887070
  88.6709490  13.0940550  77.9400470  89.3185680  12.5437930  77.4995630
  89.0911330  13.3483700  78.7616280 104.2196110  17.3487780  74.8387110
 104.1095390  17.1943820  75.7769380 104.9803700  16.8208720  74.5962520
 102.5661830  13.2881910  81.2970110 103.2034050  13.9016050  81.6629300
 102.7136720  13.3242570  80.3519340 105.1086380  15.1795700  68.0793250
 106.0335690  15.0476880  67.8711540 105.0862170  15.2588520  69.0329700
 105.1824870  15.9506360  70.7049960 104.3876370  15.8851480  71.2342870
 105.3868150  16.8857000  70.6935310 102.1243290  29.9897910  74.6988350
 102.7202360  29.6682480  74.0222770 102.3821440  29.5169730  75.4901620
  88.4241490  13.2496220  80.6825790  88.0756310  13.7060040  81.4483970
  88.0929190  12.3553350  80.7648220 104.9916050  29.9969790  81.2499340
 104.4974330  30.3938660  80.5326470 104.3829340  29.3719000  81.6436620
  89.0962130  12.7772420  83.9576560  89.6445120  12.5960470  83.1942670
  89.1617440  11.9866530  84.4932870  99.3148910  12.6610300  80.1706790
  98.4408750  12.9945410  79.9679720  99.2059660  12.1883480  80.9958660
 100.2220890  14.8681170  81.5548510  99.8934250  14.0532930  81.1750240
 101.1703190  14.8250980  81.4314200 102.6755500  30.6393210  78.5286080
 102.2158470  31.3909020  78.1544100 102.0467960  29.9199680  78.4700880
  95.8446720  29.8389940  78.5303190  96.1324530  29.5844240  77.6536200
  96.3569940  29.2867300  79.1208760 101.6144800  14.2803240  77.1548790
 102.0552890  14.2248340  76.3070390 101.3452390  15.1961250  77.2258970
 103.4783370  13.9118480  75.1657610 103.4171770  12.9679700  75.0188630
 104.2575400  14.0198570  75.7111070  88.4064140  13.8827620  71.6313420
  89.1643500  13.9956500  71.0577450  87.9441310  14.7196820  71.5856850
  99.4502930  12.6609340  75.8598800 100.0532300  13.2329550  76.3347320
  98.7095920  13.2248780  75.6372700 102.5937530  13.0630900  71.1339080
 102.7888160  13.9614350  71.4006510 101.8067400  12.8317980  71.6272030
  89.3898820  28.7444070  71.5731700  88.8646440  29.1252100  70.8693660
  89.3143400  29.3694840  72.2941410  90.7789290  14.4091670  70.1715390
  91.3082050  13.6221470  70.0423340  91.4117610  15.0882860  70.4050920
  92.9727130  14.1466810  73.2260780  92.3429870  13.4454120  73.3930910
  92.4332270  14.9070940  73.0093940  95.9119080  30.7606040  85.8971390
  96.8386390  30.5250310  85.9407350  95.8969510  31.5878040  85.4157420
 104.1464140  30.3031610  72.8945640 104.3216330  29.6169350  72.2506560
 103.4485710  30.8278660  72.5022310  93.0982690  13.4250790  85.6613270
  92.8166960  13.9284390  84.8974090  93.4802390  12.6272540  85.2955400
  99.6998150  12.8404370  86.2393740  99.5863600  13.1598980  87.1345260
 100.5167890  13.2416880  85.9431020 102.4796640  29.9875900  85.7212430
 103.2721960  29.4925130  85.5138390 102.7729790  30.6666040  86.3288040
  98.6056300  20.8596840  56.6028480  98.5250350  19.9451450  56.3320190
  98.1920720  21.3563910  55.8968190  90.7341430  26.9835760  59.5571530
  91.0369470  26.0933500  59.3781750  91.4785020  27.5405980  59.3293780
  89.1632120  17.9097560  53.1455900  88.2748820  18.2513530  53.0435780
  89.4473310  17.7097880  52.2536730  97.2088500  18.1203430  58.7176840
  97.5853320  17.2475310  58.6050510  97.1108010  18.4562130  57.8267280
  91.3393510  16.4929060  54.1794280  91.4460260  17.3932790  54.4863040
  90.4285870  16.4447030  53.8888930 100.9912620  15.6153870  55.6505180
 101.8122240  15.1250440  55.6930660 101.0246700  16.2051530  56.4037020
 105.2812170  17.6320620  62.2148810 104.5764340  18.0202330  61.6963920
 105.5470090  18.3270910  62.8169740  91.4637340  14.1013990  62.7782880
  91.4655780  14.6186380  61.9728780  90.6341650  13.6244170  62.7552810
  97.8508430  24.2133300  54.2772780  97.2325700  24.6782750  53.7135500
  98.3631680  24.9060780  54.6942290 101.2274100  17.5554250  58.4232720
 100.5229670  17.8439140  59.0035830 101.5886260  18.3654360  58.0632280
  91.1452670  15.8123950  60.7853330  91.4869480  16.6566000  60.4907200
  90.2068480  15.9607690  60.9018670 104.2961020  17.0009040  58.8141930
 103.3485930  17.0348020  58.9457360 104.6211010  17.8147990  59.1991290
  94.8280560  13.3006220  57.1097920  95.1355540  12.7453110  56.3933420
  93.8981260  13.4350680  56.9270910  99.7781060  23.9203350  60.7287990
 100.1949850  23.7063460  59.8941450 100.5020880  24.1776140  61.2996610
  97.2030400  17.6372050  50.8425200  96.2634070  17.7986010  50.9277660
  97.5213660  18.3557730  50.2961190 101.2458610  22.9275350  54.3493290
 100.6271030  22.5894900  53.7019590 101.2283060  22.2835110  55.0572480
 100.6885170  19.1059890  61.7659100 100.2756350  19.9313600  62.0199090
  99.9561120  18.5204930  61.5735460  92.8217960  21.8919790  56.6277770
  92.4174960  21.1797040  56.1323670  92.9081080  21.5473030  57.5165810
  93.2899660  25.5787350  58.7916980  92.9927950  24.9732820  58.1124760
  94.2399480  25.6164660  58.6806340 103.0040450  13.4204970  49.6707080
 102.6913110  13.5131800  50.5706150 103.7652920  13.9986000  49.6204510
  89.5222590  20.7864770  54.1284420  89.4020190  21.5126860  53.5165690
  89.2123480  20.0167680  53.6512330  88.4055590  25.6580100  56.3459240
  87.9983670  25.7994690  55.4912840  89.2968600  25.3740260  56.1430450
  92.6777250  29.8725880  54.4581910  92.5019730  28.9561420  54.2449710
  91.8232990  30.2313170  54.6979710  99.9015000  27.6014910  51.2408290
  99.2080160  27.5992200  50.5810570 100.6437860  27.1774230  50.8102460
  91.9886250  14.1299840  57.5108090  91.5454400  14.9109380  57.1792610
  92.5471240  14.4529730  58.2179030  96.2756060  16.9968360  63.1143410
  95.8135430  17.2051380  63.9263350  95.8734170  16.1827710  62.8114080
  98.3710280  19.7179060  66.3438860  98.6963690  18.8842810  66.0041090
  99.1590610  20.2407580  66.4917190  95.1045070  13.7510540  52.3913920
  94.4799250  13.7470410  53.1167230  95.0175190  12.8841500  51.9949890
  94.0262150  14.6747170  59.3697690  94.3234480  15.5810000  59.2889710
  94.5747710  14.1865950  58.7557260  91.7800470  19.2533410  55.2389340
  91.5541390  19.0370580  56.1435960  90.9993000  19.6861870  54.8935310
  99.0098230  19.2596780  53.8379990  98.4107120  19.9832580  53.6543610
  99.5577840  19.1973560  53.0556440  97.6163100  17.8960320  55.8683270
  98.0092670  18.2132520  55.0551960  97.9779950  17.0172200  55.9827790
  95.9255270  16.6467630  67.1280130  95.2353590  16.4539830  67.7626220
  96.6687570  16.9302270  67.6604430  86.6527270  14.4861120  58.0913470
  86.3640320  15.0563980  58.8038450  87.3973030  14.0065570  58.4544700
  86.8397500  18.4281240  49.3016190  86.7572170  19.3712000  49.4431180
  86.4880560  18.2856150  48.4228540  94.6395630  17.1620270  58.3686540
  94.6431690  16.7210220  57.5191080  95.5346750  17.4837600  58.4758360
  90.4898010  17.0446760  57.3280750  90.1498060  17.5221990  58.0847800
  89.7275330  16.5911880  56.9681850  98.6644150  15.9399750  59.3756990
  98.6816890  16.3908400  60.2198840  98.4159730  15.0405390  59.5890430
 102.0914900  13.3531930  65.2143370 102.4160670  12.6221590  65.7401350
 102.1271410  13.0345570  64.3124360  88.7906460  24.3745510  64.6343330
  88.4061250  23.7339180  65.2326290  89.1018650  25.0781630  65.2038060
  87.8044090  15.9665740  56.2445420  87.5191010  15.6021410  57.0824040
  87.7422950  15.2346200  55.6308560 102.0172740  23.4657040  58.8229400
 102.7371860  23.9612330  58.4325510 101.8154560  22.7874930  58.1783270
  97.4782680  14.8595000  52.9658790  96.6647290  14.3608170  52.8904100
  97.2844630  15.6993250  52.5495140 100.1931070  19.2314650  51.2620950
 101.0810690  19.5431880  51.0872290 100.1636160  18.3586900  50.8701530
  91.3022160  24.1372060  56.6681820  91.8200830  23.3340320  56.6138710
  90.8506180  24.0751200  57.5098650 102.4645340  20.5426490  50.7300810
 102.3809060  20.9740710  49.8797250 103.1839530  21.0024840  51.1627630
  95.1582350  25.4851870  54.7125040  95.8453480  26.0321080  55.0932630
  94.3714770  26.0292600  54.7474650  90.3621340  12.8335550  54.7972920
  90.2335970  12.8253450  55.7457840  89.5383360  13.1718640  54.4463930
 101.8829970  26.2885210  49.9959290 101.6567550  25.5715650  50.5883930
 101.4926170  26.0397650  49.1581040  87.3615270  14.5926670  64.2579620
  86.6473790  14.7923590  64.8632230  87.7810310  13.8166240  64.6294420
 101.4646220  24.2057150  51.6573450 101.1767920  24.6669840  52.4451330
 102.2598390  23.7454920  51.9257670  93.6814620  27.6983270  51.5877420
  93.6724720  28.4312960  50.9721930  92.7612980  27.4514850  51.6804380
  98.8554050  17.0848980  62.0081070  99.2234870  16.2644190  62.3360640
  97.9952250  17.1450870  62.4236720 102.2216080  16.0405920  52.8168630
 101.5929240  16.1451590  52.1026860 101.7268000  16.2602700  53.6062510
  96.6674220  27.7611510  50.2502610  96.7686200  27.5575500  49.3204590
  95.7675960  27.5069790  50.4550390  94.1900110  18.3191870  54.2326510
  93.4816260  18.7878210  54.6740120  94.4744590  17.6613880  54.8671700
  98.2215540  15.0442530  55.6722300  98.0983320  15.0628660  54.7231810
  99.1700100  15.0921470  55.7920700  92.3935130  16.6276950  51.6077220
  93.2425660  17.0647100  51.5417410  92.0266400  16.9397210  52.4349280
 103.0222900  15.9556530  63.0747430 102.5196500  16.6961930  63.4141240
 103.8379560  16.3440530  62.7584220 101.3144910  21.1989710  56.5208790
 100.3735050  21.2139940  56.6956480 101.6288980  20.4125670  56.9669090
  90.7888020  30.4629770  57.8680180  91.5250500  29.9145230  58.1388750
  91.1728940  31.3285780  57.7286170  87.6733500  26.5303340  53.7421690
  86.7473280  26.7724480  53.7327100  88.1389930  27.3577600  53.6206440
 102.9520500  28.8630210  51.1142490 102.6662010  28.4495350  50.2996670
 102.7540050  29.7917920  50.9943010  89.5467190  20.2778890  66.8951880
  89.5872530  19.9792760  67.8037110  90.4012690  20.6786500  66.7359400
  91.9745300  15.8233360  64.9423660  91.8802170  15.2054110  64.2174530
  91.3942690  16.5499650  64.7153570  94.7406740  14.3806600  61.9751050
  94.2924040  14.4030860  61.1296600  94.1071940  13.9825620  62.5721350
  99.0692390  17.1664270  65.4710170  98.3807910  16.5045810  65.4060160
  99.7898410  16.7202540  65.9158630  99.6992790  13.7615900  51.5300430
  99.9795080  12.9183800  51.8859850  98.9258520  13.9939010  52.0439180
  91.0187280  16.0508290  48.9891430  91.3213180  16.0575720  48.0810580
  91.7581870  15.7006150  49.4859090  95.8535920  30.8165150  63.9707870
  95.7794620  31.7200290  64.2780240  94.9514760  30.4977050  63.9429940
  94.2372210  14.9942910  49.9747630  93.8894210  14.3166900  49.3950080
  94.4384980  14.5332420  50.7891020  96.4021250  29.9823660  51.5934230
  97.2972040  30.3208630  51.6152990  96.4338880  29.2603070  50.9658510
  87.2563210  28.1439740  57.2741490  87.5866220  27.2760800  57.0420130
  87.6854210  28.3498260  58.1046450  91.8525130  26.4748750  54.9343460
  91.5520670  26.3513720  55.8347370  91.7462620  25.6157340  54.5259190
  87.7453420  29.0110330  60.0123120  87.3084410  29.1911130  60.8447270
  88.3131100  29.7684950  59.8704840 104.6217050  26.2545150  49.6370140
 103.7910010  26.3221800  50.1077370 104.7988880  27.1449270  49.3337000
 104.0773510  22.9992630  52.1404340 104.8392420  23.5689280  52.2464030
 104.0927880  22.4319830  52.9112650 104.1292680  23.2927000  49.2976860
 104.4041520  24.2005880  49.1696080 103.9403420  23.2289530  50.2338850
 100.5268290  16.3171850  50.5930490 100.9453170  16.1302830  49.7527150
 100.2204350  15.4650900  50.9033420 104.0258020  21.2295990  54.2906290
 103.6501620  20.4623920  53.8587580 103.2961140  21.6118690  54.7781220
 101.8545710  15.6023940  66.7025510 102.7315890  15.6107340  67.0859510
 101.8666550  14.8654780  66.0917860  86.7915930  18.7329490  52.3137330
  85.8880010  18.9959690  52.1388990  87.2756550  19.0040660  51.5337290
 103.3008980  19.4553480  57.5913530 103.8246460  18.9616130  56.9603700
 103.8868400  19.5903840  58.3361100  89.3343140  17.7895030  50.2231710
  90.0434840  17.3678250  49.7378990  88.6183080  17.8570260  49.5915060
  88.9817300  13.8434360  49.2634360  89.7045430  14.3843300  49.5815580
  89.2541820  13.5697780  48.3875900 102.7908950  18.7126830  53.5305940
 103.2868070  18.4797700  54.3154820 102.5925020  17.8738670  53.1143580
  88.6709490  13.0940550  59.1656980  89.3185680  12.5437930  58.7252140
  89.0911330  13.3483700  59.9872790 104.2196110  17.3487780  56.0643620
 104.1095390  17.1943820  57.0025890 104.9803700  16.8208720  55.8219030
 102.5661830  13.2881910  62.5226620 103.2034050  13.9016050  62.8885810
 102.7136720  13.3242570  61.5775850 105.1086380  15.1795700  49.3049760
 106.0335690  15.0476880  49.0968050 105.0862170  15.2588520  50.2586210
 105.1824870  15.9506360  51.9306470 104.3876370  15.8851480  52.4599380
 105.3868150  16.8857000  51.9191820  88.4241490  13.2496220  61.9082300
  88.0756310  13.7060040  62.6740480  88.0929190  12.3553350  61.9904730
  93.7311890  27.9775410  61.6745210  93.4903250  28.2449970  60.7875730
  94.6714530  28.1481140  61.7296070  95.9366310  14.4408100  65.4301720
  95.8755200  15.0329930  66.1797130  96.8766690  14.3334060  65.2851980
  98.5740870  14.0978160  65.0694010  99.1881280  14.4157450  64.4075090
  99.1190430  13.6126750  65.6889870  89.0962130  12.7772420  65.1833070
  89.6445120  12.5960470  64.4199180  89.1617440  11.9866530  65.7189380
  99.3148910  12.6610300  61.3963300  98.4408750  12.9945410  61.1936230
  99.2059660  12.1883480  62.2215170 100.2220890  14.8681170  62.7805020
  99.8934250  14.0532930  62.4006750 101.1703190  14.8250980  62.6570710
  89.5006120  26.7336450  62.1441310  88.7740180  26.1141740  62.0767260
  89.5615270  27.1277060  61.2739390  93.1051220  28.9481450  58.9290720
  93.6216240  28.3368810  58.4038980  93.7548600  29.4510230  59.4201730
  95.8446720  29.8389940  59.7559700  96.1324530  29.5844240  58.8792710
  96.3569940  29.2867300  60.3465270  97.0623730  13.5780140  60.3356210
  96.2795520  14.0525640  60.6152970  96.7686660  12.6734970  60.2269390
 101.6144800  14.2803240  58.3805300 102.0552890  14.2248340  57.5326900
 101.3452390  15.1961250  58.4515480 103.4783370  13.9118480  56.3914120
 103.4171770  12.9679700  56.2445140 104.2575400  14.0198570  56.9367580
  88.4064140  13.8827620  52.8569930  89.1643500  13.9956500  52.2833960
  87.9441310  14.7196820  52.8113360  94.9477950  15.9966890  55.8472240
  94.1352460  15.6223780  55.5068120  95.4519590  15.2411970  56.1493430
  99.4502930  12.6609340  57.0855310 100.0532300  13.2329550  57.5603830
  98.7095920  13.2248780  56.8629210 102.5937530  13.0630900  52.3595590
 102.7888160  13.9614350  52.6263020 101.8067400  12.8317980  52.8528540
  90.7789290  14.4091670  51.3971900  91.3082050  13.6221470  51.2679850
  91.4117610  15.0882860  51.6307430  92.9727130  14.1466810  54.4517290
  92.3429870  13.4454120  54.6187420  92.4332270  14.9070940  54.2350450
  93.0982690  13.4250790  66.8869780  92.8166960  13.9284390  66.1230600
  93.4802390  12.6272540  66.5211910  91.9891790  30.6926450  51.6737460
  92.7210610  30.4085730  51.1261350  92.2485460  30.4539730  52.5636840
  91.1506580  26.8091180  51.6783790  90.5215460  27.2776280  52.2269620
  91.2654410  25.9640400  52.1129980  99.6998150  12.8404370  67.4650250
  99.5863600  13.1598980  68.3601770 100.5167890  13.2416880  67.1687530
  98.6056300  20.8596840  37.8284990  98.5250350  19.9451450  37.5576700
  98.1920720  21.3563910  37.1224700  96.7374340  22.6375860  39.7094260
  95.9616440  22.1576300  39.9992830  97.3887270  21.9581510  39.5350420
  90.7540170  22.9495670  40.5870020  89.9225050  22.6944380  40.9866530
  91.3621150  23.0206440  41.3227940 100.7581770  27.0436050  38.4893390
 100.2963300  26.2723290  38.8180560 101.5707320  27.0702120  38.9945840
  89.1632120  17.9097560  34.3712410  88.2748820  18.2513530  34.2692290
  89.4473310  17.7097880  33.4793240  87.1265130  20.5103210  40.2552110
  87.6981240  19.7425410  40.2555750  87.1266670  20.8091970  39.3458720
  96.9845080  29.3294060  38.1097380  96.3656520  29.7851560  37.5391820
  97.8396860  29.4845520  37.7087080  96.1783330  25.3133050  39.7164420
  96.1091610  24.3722990  39.5553550  96.9403190  25.4034460  40.2886990
  88.3690000  15.9187570  42.0421040  88.1892840  15.0213320  42.3223800
  87.9670080  16.4659440  42.7167990  97.2088500  18.1203430  39.9433350
  97.5853320  17.2475310  39.8307020  97.1108010  18.4562130  39.0523790
  91.3393510  16.4929060  35.4050790  91.4460260  17.3932790  35.7119550
  90.4285870  16.4447030  35.1145440 100.9912620  15.6153870  36.8761690
 101.8122240  15.1250440  36.9187170 101.0246700  16.2051530  37.6293530
  88.9876670  18.4148070  40.6503380  89.6686780  18.6786440  41.2690780
  88.6724720  17.5748940  40.9841390  93.1801240  19.4615430  39.7375970
  93.6879460  19.9596400  40.3780990  93.7114480  18.6850630  39.5615330
 105.2812170  17.6320620  43.4405320 104.5764340  18.0202330  42.9220430
 105.5470090  18.3270910  44.0426250  91.4637340  14.1013990  44.0039390
  91.4655780  14.6186380  43.1985290  90.6341650  13.6244170  43.9809320
  97.8508430  24.2133300  35.5029290  97.2325700  24.6782750  34.9392010
  98.3631680  24.9060780  35.9198800  92.7140190  23.7409170  42.1812890
  92.3809570  24.3678090  42.8233960  92.8906870  24.2671050  41.4014560
 101.2274100  17.5554250  39.6489230 100.5229670  17.8439140  40.2292340
 101.5886260  18.3654360  39.2888790  91.1452670  15.8123950  42.0109840
  91.4869480  16.6566000  41.7163710  90.2068480  15.9607690  42.1275180
  87.2191630  24.8989830  32.8768920  86.8419610  25.3876930  32.1453820
  87.4764700  25.5715110  33.5075450 102.8436880  27.1729380  41.9116710
 102.1600400  27.8428490  41.9033380 103.3831170  27.3710030  41.1461570
 104.2961020  17.0009040  40.0398440 103.3485930  17.0348020  40.1713870
 104.6211010  17.8147990  40.4247800  94.8280560  13.3006220  38.3354430
  95.1355540  12.7453110  37.6189930  93.8981260  13.4350680  38.1527420
 100.3795620  29.0173510  40.6261890 100.3922780  28.6135800  39.7584150
  99.8270840  29.7920800  40.5223320 101.6741040  25.7389730  35.7152060
 101.5637370  24.7964060  35.8401480 101.6709290  26.1005370  36.6014820
  99.7781060  23.9203350  41.9544500 100.1949850  23.7063460  41.1197960
 100.5020880  24.1776140  42.5253120  97.2161320  21.3655050  35.0714550
  96.2890600  21.2992430  35.3003020  97.3686140  22.3035180  34.9569790
  97.2030400  17.6372050  32.0681710  96.2634070  17.7986010  32.1534170
  97.5213660  18.3557730  31.5217700 103.7243160  22.3190570  42.0460740
 102.8961790  22.3883660  41.5710870 104.3193640  22.9044880  41.5776570
 101.2458610  22.9275350  35.5749800 100.6271030  22.5894900  34.9276100
 101.2283060  22.2835110  36.2828990 100.6885170  19.1059890  42.9915610
 100.2756350  19.9313600  43.2455600  99.9561120  18.5204930  42.7991970
  92.8217960  21.8919790  37.8534280  92.4174960  21.1797040  37.3580180
  92.9081080  21.5473030  38.7422320  93.2899660  25.5787350  40.0173490
  92.9927950  24.9732820  39.3381270  94.2399480  25.6164660  39.9062850
  91.5346580  18.6663000  41.6333320  92.0861170  18.7758340  40.8586570
  92.0490090  19.0400600  42.3488550 101.3785270  29.1519220  43.6796590
 100.9015830  29.9591410  43.4869200 100.6947060  28.4997550  43.8322800
  99.4223310  22.1662160  32.5822550  99.8616590  21.3284590  32.4360370
 100.1351730  22.7991560  32.6686690  97.5318690  27.1058230  36.5503790
  97.9714600  27.8482560  36.1359180  97.4705580  27.3484800  37.4742750
 103.0040450  13.4204970  30.8963590 102.6913110  13.5131800  31.7962660
 103.7652920  13.9986000  30.8461020  89.5222590  20.7864770  35.3540930
  89.4020190  21.5126860  34.7422200  89.2123480  20.0167680  34.8768840
 104.9584480  28.9131160  48.7487980 105.4344200  29.3914050  49.4277060
 105.5791640  28.8448650  48.0233480 104.3617730  26.1044010  45.9087990
 104.4880790  25.8655890  44.9905170 104.4039110  25.2728550  46.3810070
  98.2234470  29.8072010  44.4782800  98.7379140  29.7180020  45.2805230
  97.3803550  30.1531710  44.7710710 100.1988870  30.0927350  33.9066800
 100.0390010  29.8030290  34.8048630 100.0335580  29.3167480  33.3712030
  99.9015000  27.6014910  32.4664800  99.2080160  27.5992200  31.8067080
 100.6437860  27.1774230  32.0358970  99.4664930  29.2277620  36.5413290
  99.9221880  28.4467000  36.8551910  99.8057450  29.9384440  37.0854470
 104.2141740  18.1576470  46.8737730 103.5986010  18.6656140  46.3453190
 103.8938160  17.2574800  46.8163670  91.9886250  14.1299840  38.7364600
  91.5454400  14.9109380  38.4049120  92.5471240  14.4529730  39.4435540
  96.2756060  16.9968360  44.3399920  95.8135430  17.2051380  45.1519860
  95.8734170  16.1827710  44.0370590 101.2760570  18.2177310  45.4696580
 100.4254160  17.9183060  45.7905650 101.1162360  18.4619320  44.5580400
  95.1045070  13.7510540  33.6170430  94.4799250  13.7470410  34.3423740
  95.0175190  12.8841500  33.2206400  94.0262150  14.6747170  40.5954200
  94.3234480  15.5810000  40.5146220  94.5747710  14.1865950  39.9813770
  91.7800470  19.2533410  36.4645850  91.5541390  19.0370580  37.3692470
  90.9993000  19.6861870  36.1191820  99.0098230  19.2596780  35.0636500
  98.4107120  19.9832580  34.8800120  99.5577840  19.1973560  34.2812950
  97.6163100  17.8960320  37.0939780  98.0092670  18.2132520  36.2808470
  97.9779950  17.0172200  37.2084300  89.3510220  16.5632660  45.2839900
  88.9573610  17.4107870  45.4912680  88.6628620  15.9259030  45.4748540
  95.9255270  16.6467630  48.3536640  95.2353590  16.4539830  48.9882730
  96.6687570  16.9302270  48.8860940  86.6527270  14.4861120  39.3169980
  86.3640320  15.0563980  40.0294960  87.3973030  14.0065570  39.6801210
  86.8397500  18.4281240  30.5272700  86.7572170  19.3712000  30.6687690
  86.4880560  18.2856150  29.6485050  98.2018240  20.4866070  41.1890560
  97.4699360  20.9952880  41.5380660  97.8042580  19.6696050  40.8879340
  94.6395630  17.1620270  39.5943050  94.6431690  16.7210220  38.7447590
  95.5346750  17.4837600  39.7014870  90.4898010  17.0446760  38.5537260
  90.1498060  17.5221990  39.3104310  89.7275330  16.5911880  38.1938360
  94.7015780  18.1632350  32.5849810  94.8228600  18.1218830  33.5335630
  94.3164290  19.0256500  32.4296540  98.6644150  15.9399750  40.6013500
  98.6816890  16.3908400  41.4455350  98.4159730  15.0405390  40.8146940
  93.7137280  20.4733490  31.9833110  93.1454180  20.0251740  31.3569020
  94.4226280  20.8326270  31.4498260 102.0914900  13.3531930  46.4399880
 102.4160670  12.6221590  46.9657860 102.1271410  13.0345570  45.5380870
  94.9403600  21.2222050  41.3408460  95.3073730  20.7480620  42.0869800
  94.7508660  22.0963620  41.6816800  87.8044090  15.9665740  37.4701930
  87.5191010  15.6021410  38.3080550  87.7422950  15.2346200  36.8565070
  92.7302970  20.2630690  43.6592670  92.4260040  21.1422670  43.8843030
  93.6849430  20.3230480  43.6950110  91.2584760  24.4691680  34.2559520
  90.4847020  23.9289300  34.0958240  91.9879390  23.9498290  33.9177280
 102.0172740  23.4657040  40.0485910 102.7371860  23.9612330  39.6582020
 101.8154560  22.7874930  39.4039780  97.4782680  14.8595000  34.1915300
  96.6647290  14.3608170  34.1160610  97.2844630  15.6993250  33.7751650
 100.1931070  19.2314650  32.4877460 101.0810690  19.5431880  32.3128800
 100.1636160  18.3586900  32.0958040  91.3022160  24.1372060  37.8938330
  91.8200830  23.3340320  37.8395220  90.8506180  24.0751200  38.7355160
  96.1891660  25.4038340  33.1665630  96.5307360  26.1480570  32.6708950
  95.3604370  25.7169460  33.5290460  97.3308270  26.3586670  45.6858710
  97.3452810  25.4267630  45.4677620  96.6233370  26.4446430  46.3248480
 102.4645340  20.5426490  31.9557320 102.3809060  20.9740710  31.1053760
 103.1839530  21.0024840  32.3884140 103.5419480  22.9994010  45.0327290
 102.8167670  23.5922790  44.8356680 104.0694940  22.9917550  44.2340660
 103.4932590  27.3968750  34.6839450 102.8508750  26.7424370  34.9583170
 103.1063250  27.8023840  33.9080120  99.0719070  24.7254180  38.5311140
  99.4242890  24.1282310  37.8712510  98.1881400  24.3998410  38.7019390
  95.1582350  25.4851870  35.9381550  95.8453480  26.0321080  36.3189140
  94.3714770  26.0292600  35.9731160  87.2974750  21.1024690  31.4298630
  88.1669600  21.3849490  31.7134550  86.8065070  21.9160560  31.3147440
  94.4609560  22.4897900  35.5506910  94.9172340  23.3003150  35.7767100
  94.1097770  22.1721040  36.3825400  96.7642170  28.0004240  42.7799210
  97.4084390  28.2063620  43.4572630  97.1271610  27.2392640  42.3270060
  90.3621340  12.8335550  36.0229430  90.2335970  12.8253450  36.9714350
  89.5383360  13.1718640  35.6720440  98.0374250  26.0036590  41.4976660
  98.6796480  25.3029750  41.6108830  98.5623600  26.7835030  41.3173550
 101.8829970  26.2885210  31.2215800 101.6567550  25.5715650  31.8140440
 101.4926170  26.0397650  30.3837550  99.8111870  26.8031490  44.7012720
 100.1468110  27.3898180  45.3790640  98.8912210  26.6724200  44.9310510
  87.6646000  30.3152070  31.9960260  88.0243640  30.9141410  31.3417530
  87.5238340  30.8611960  32.7695290  87.3615270  14.5926670  45.4836130
  86.6473790  14.7923590  46.0888740  87.7810310  13.8166240  45.8550930
 101.4646220  24.2057150  32.8829960 101.1767920  24.6669840  33.6707840
 102.2598390  23.7454920  33.1514180  95.6400450  26.8522820  47.8700780
  95.3197320  26.1332060  48.4146470  94.9658810  27.5277890  47.9436840
  93.6814620  27.6983270  32.8133930  93.6724720  28.4312960  32.1978440
  92.7612980  27.4514850  32.9060890  89.2821260  22.9198160  33.5580690
  88.6749210  23.6597060  33.5675990  89.7570610  23.0097520  32.7318890
  98.8554050  17.0848980  43.2337580  99.2234870  16.2644190  43.5617150
  97.9952250  17.1450870  43.6493230 102.2216080  16.0405920  34.0425140
 101.5929240  16.1451590  33.3283370 101.7268000  16.2602700  34.8319020
  96.6674220  27.7611510  31.4759120  96.7686200  27.5575500  30.5461100
  95.7675960  27.5069790  31.6806900  94.1900110  18.3191870  35.4583020
  93.4816260  18.7878210  35.8996630  94.4744590  17.6613880  36.0928210
  95.8156040  19.7388570  43.4575550  96.3141290  20.2134390  44.1227400
  95.9578990  18.8152090  43.6645580  98.2215540  15.0442530  36.8978810
  98.0983320  15.0628660  35.9488320  99.1700100  15.0921470  37.0177210
  95.3092330  30.2797830  36.1706790  95.5633830  30.2419220  35.2486160
  94.3604810  30.1531160  36.1635040  92.3935130  16.6276950  32.8333730
  93.2425660  17.0647100  32.7673920  92.0266400  16.9397210  33.6605790
 103.0222900  15.9556530  44.3003940 102.5196500  16.6961930  44.6397750
 103.8379560  16.3440530  43.9840730 101.3144910  21.1989710  37.7465300
 100.3735050  21.2139940  37.9212990 101.6288980  20.4125670  38.1925600
  91.2926550  22.8809310  31.3069260  92.0589820  22.7690670  31.8694690
  91.3701240  22.1847280  30.6546030  89.9873310  20.3134380  31.9902150
  90.0676900  19.3661890  32.1019550  90.8793060  20.6441260  32.0962810
 103.3170490  28.3698560  39.4219560 103.4417910  29.1929730  39.8943370
 104.1836050  28.1589290  39.0743710  93.8990330  29.6360080  30.9162260
  94.6918940  29.9248910  30.4644050  93.3794680  29.2052250  30.2374740
  98.6310930  25.7555710  48.2297680  98.0249090  25.7787310  47.4893430
  98.3265040  25.0238750  48.7664930 100.0611300  29.4836000  46.8407090
 101.0133050  29.3994020  46.7907330  99.9139520  30.1477710  47.5140880
 102.9520500  28.8630210  32.3399000 102.6662010  28.4495350  31.5253180
 102.7540050  29.7917920  32.2199520  94.4167730  24.8563490  30.7804610
  94.3118370  24.2415840  31.5065990  94.2491950  24.3329380  29.9967620
  97.6570460  23.9183520  31.3846600  97.1080560  24.3652820  32.0289340
  98.2789720  23.4132770  31.9084270 101.7105400  25.2725620  47.3168860
 102.4514870  25.6101380  46.8136320 100.9478080  25.4417680  46.7638630
  93.3245580  22.8774440  33.2811900  93.7462000  22.7114310  34.1243290
  93.4496420  22.0674670  32.7867040  91.4873000  18.8570990  46.0882880
  90.9569460  18.3661940  45.4606220  92.1561070  19.2855190  45.5540810
  95.8373220  21.9012050  30.5289000  96.3578880  21.1861070  30.1630150
  96.4841620  22.5397920  30.8289510 100.3851060  23.3240450  45.8524070
 100.7992080  23.4785530  46.7014490  99.4502060  23.4495670  46.0149850
 100.8573230  20.6636610  47.8563220 101.4394000  19.9088930  47.7683700
 101.0335000  21.1944050  47.0794700  91.9745300  15.8233360  46.1680170
  91.8802170  15.2054110  45.4431040  91.3942690  16.5499650  45.9410080
  94.7406740  14.3806600  43.2007560  94.2924040  14.4030860  42.3553110
  94.1071940  13.9825620  43.7977860  95.1466290  23.2760930  43.8220000
  95.5654400  24.1193660  43.6496240  94.2274920  23.4132970  43.5926780
  99.8218090  21.5614300  43.7820350  99.2953310  22.0856920  43.1785490
 100.1649430  22.1941690  44.4130080  92.2204480  18.9507670  30.2270060
  92.0193540  18.0875030  30.5883400  92.0496530  18.8641030  29.2891660
  92.9973710  29.5813940  44.9377730  92.4594800  30.3060000  44.6186430
  93.2507670  29.1044280  44.1475070  94.2498960  17.5498460  46.4633660
  94.8398650  17.2414310  47.1511480  93.4319200  17.0778210  46.6193560
  99.0692390  17.1664270  46.6966680  98.3807910  16.5045810  46.6316670
  99.7898410  16.7202540  47.1415140  99.6992790  13.7615900  32.7556940
  99.9795080  12.9183800  33.1116360  98.9258520  13.9939010  33.2695690
  91.0187280  16.0508290  30.2147940  91.3213180  16.0575720  29.3067090
  91.7581870  15.7006150  30.7115600  95.8535920  30.8165150  45.1964380
  95.7794620  31.7200290  45.5036750  94.9514760  30.4977050  45.1686450
  94.2372210  14.9942910  31.2004140  93.8894210  14.3166900  30.6206590
  94.4384980  14.5332420  32.0147530  96.4021250  29.9823660  32.8190740
  97.2972040  30.3208630  32.8409500  96.4338880  29.2603070  32.1915020
  90.0417410  25.3550710  31.0477740  90.4792280  25.8980380  31.7035320
  90.5265140  24.5297660  31.0574080 103.3815600  28.5127330  45.5256940
 102.7817590  28.5719890  44.7820860 103.5109500  27.5732310  45.6553790
 104.6217050  26.2545150  30.8626650 103.7910010  26.3221800  31.3333880
 104.7988880  27.1449270  30.5593510 104.0773510  22.9992630  33.3660850
 104.8392420  23.5689280  33.4720540 104.0927880  22.4319830  34.1369160
  87.5777850  21.5230560  37.5968510  86.9226690  21.2542200  36.9528210
  88.4155800  21.4135040  37.1470490 105.0833480  23.8542730  38.2102780
 105.4542310  23.0710050  37.8038750 105.7235410  24.5431830  38.0320080
 102.0667240  25.2379310  43.6233100 101.2527080  25.6676470  43.8858890
 102.4741440  25.8497720  43.0102150 104.1292680  23.2927000  30.5233370
 104.4041520  24.2005880  30.3952590 103.9403420  23.2289530  31.4595360
 100.5268290  16.3171850  31.8187000 100.9453170  16.1302830  30.9783660
 100.2204350  15.4650900  32.1289930 104.0258020  21.2295990  35.5162800
 103.6501620  20.4623920  35.0844090 103.2961140  21.6118690  36.0037730
  88.6153780  21.9083130  42.1371850  88.9826820  21.8210530  43.0167870
  88.0464600  21.1449680  42.0378710 103.4157640  20.3767510  45.1502320
 103.1843730  20.1480260  44.2500270 103.6762190  21.2967060  45.1047210
  88.1669780  18.8192220  46.0430270  87.2725830  18.7858980  46.3823980
  88.7067330  19.0179010  46.8081520 101.8545710  15.6023940  47.9282020
 102.7315890  15.6107340  48.3116020 101.8666550  14.8654780  47.3174370
  86.7915930  18.7329490  33.5393840  85.8880010  18.9959690  33.3645500
  87.2756550  19.0040660  32.7593800 103.3008980  19.4553480  38.8170040
 103.8246460  18.9616130  38.1860210 103.8868400  19.5903840  39.5617610
 103.4798700  19.5393350  42.3389590 102.5301410  19.5056890  42.4534580
 103.6611710  20.4493460  42.1039360  89.3343140  17.7895030  31.4488220
  90.0434840  17.3678250  30.9635500  88.6183080  17.8570260  30.8171570
  88.9817300  13.8434360  30.4890870  89.7045430  14.3843300  30.8072090
  89.2541820  13.5697780  29.6132410 102.7908950  18.7126830  34.7562450
 103.2868070  18.4797700  35.5411330 102.5925020  17.8738670  34.3400090
  88.6709490  13.0940550  40.3913490  89.3185680  12.5437930  39.9508650
  89.0911330  13.3483700  41.2129300 104.2196110  17.3487780  37.2900130
 104.1095390  17.1943820  38.2282400 104.9803700  16.8208720  37.0475540
 102.5661830  13.2881910  43.7483130 103.2034050  13.9016050  44.1142320
 102.7136720  13.3242570  42.8032360 105.1086380  15.1795700  30.5306270
 106.0335690  15.0476880  30.3224560 105.0862170  15.2588520  31.4842720
 105.1824870  15.9506360  33.1562980 104.3876370  15.8851480  33.6855890
 105.3868150  16.8857000  33.1448330 102.1243290  29.9897910  37.1501370
 102.7202360  29.6682480  36.4735790 102.3821440  29.5169730  37.9414640
  88.4241490  13.2496220  43.1338810  88.0756310  13.7060040  43.8996990
  88.0929190  12.3553350  43.2161240  93.7311890  27.9775410  42.9001720
  93.4903250  28.2449970  42.0132240  94.6714530  28.1481140  42.9552580
  95.9366310  14.4408100  46.6558230  95.8755200  15.0329930  47.4053640
  96.8766690  14.3334060  46.5108490  98.5740870  14.0978160  46.2950520
  99.1881280  14.4157450  45.6331600  99.1190430  13.6126750  46.9146380
  89.0962130  12.7772420  46.4089580  89.6445120  12.5960470  45.6455690
  89.1617440  11.9866530  46.9445890  99.3148910  12.6610300  42.6219810
  98.4408750  12.9945410  42.4192740  99.2059660  12.1883480  43.4471680
 100.2220890  14.8681170  44.0061530  99.8934250  14.0532930  43.6263260
 101.1703190  14.8250980  43.8827220 102.6755500  30.6393210  40.9799100
 102.2158470  31.3909020  40.6057120 102.0467960  29.9199680  40.9213900
  95.8446720  29.8389940  40.9816210  96.1324530  29.5844240  40.1049220
  96.3569940  29.2867300  41.5721780  97.0623730  13.5780140  41.5612720
  96.2795520  14.0525640  41.8409480  96.7686660  12.6734970  41.4525900
 101.6144800  14.2803240  39.6061810 102.0552890  14.2248340  38.7583410
 101.3452390  15.1961250  39.6771990 103.4783370  13.9118480  37.6170630
 103.4171770  12.9679700  37.4701650 104.2575400  14.0198570  38.1624090
  88.4064140  13.8827620  34.0826440  89.1643500  13.9956500  33.5090470
  87.9441310  14.7196820  34.0369870  94.9477950  15.9966890  37.0728750
  94.1352460  15.6223780  36.7324630  95.4519590  15.2411970  37.3749940
  99.4502930  12.6609340  38.3111820 100.0532300  13.2329550  38.7860340
  98.7095920  13.2248780  38.0885720 102.5937530  13.0630900  33.5852100
 102.7888160  13.9614350  33.8519530 101.8067400  12.8317980  34.0785050
  90.7789290  14.4091670  32.6228410  91.3082050  13.6221470  32.4936360
  91.4117610  15.0882860  32.8563940  92.9727130  14.1466810  35.6773800
  92.3429870  13.4454120  35.8443930  92.4332270  14.9070940  35.4606960
 104.1464140  30.3031610  35.3458660 104.3216330  29.6169350  34.7019580
 103.4485710  30.8278660  34.9535330  93.0982690  13.4250790  48.1126290
  92.8166960  13.9284390  47.3487110  93.4802390  12.6272540  47.7468420
  91.9891790  30.6926450  32.8993970  92.7210610  30.4085730  32.3517860
  92.2485460  30.4539730  33.7893350  91.1506580  26.8091180  32.9040300
  90.5215460  27.2776280  33.4526130  91.2654410  25.9640400  33.3386490
  99.6998150  12.8404370  48.6906760  99.5863600  13.1598980  49.5858280
 100.5167890  13.2416880  48.3944040 102.4796640  29.9875900  48.1725450
 103.2721960  29.4925130  47.9651410 102.7729790  30.6666040  48.7801060
  98.6056300  20.8596840  19.0541500  98.5250350  19.9451450  18.7833210
  98.1920720  21.3563910  18.3481210  96.7374340  22.6375860  20.9350770
  95.9616440  22.1576300  21.2249340  97.3887270  21.9581510  20.7606930
  90.7540170  22.9495670  21.8126530  89.9225050  22.6944380  22.2123040
  91.3621150  23.0206440  22.5484450 100.7581770  27.0436050  19.7149900
 100.2963300  26.2723290  20.0437070 101.5707320  27.0702120  20.2202350
  90.7341430  26.9835760  22.0084550  91.0369470  26.0933500  21.8294770
  91.4785020  27.5405980  21.7806800  89.1632120  17.9097560  15.5968920
  88.2748820  18.2513530  15.4948800  89.4473310  17.7097880  14.7049750
  87.1265130  20.5103210  21.4808620  87.6981240  19.7425410  21.4812260
  87.1266670  20.8091970  20.5715230  96.9845080  29.3294060  19.3353890
  96.3656520  29.7851560  18.7648330  97.8396860  29.4845520  18.9343590
  96.1783330  25.3133050  20.9420930  96.1091610  24.3722990  20.7810060
  96.9403190  25.4034460  21.5143500  88.3690000  15.9187570  23.2677550
  88.1892840  15.0213320  23.5480310  87.9670080  16.4659440  23.9424500
  97.2088500  18.1203430  21.1689860  97.5853320  17.2475310  21.0563530
  97.1108010  18.4562130  20.2780300  91.3393510  16.4929060  16.6307300
  91.4460260  17.3932790  16.9376060  90.4285870  16.4447030  16.3401950
 100.9912620  15.6153870  18.1018200 101.8122240  15.1250440  18.1443680
 101.0246700  16.2051530  18.8550040  88.9876670  18.4148070  21.8759890
  89.6686780  18.6786440  22.4947290  88.6724720  17.5748940  22.2097900
  93.1801240  19.4615430  20.9632480  93.6879460  19.9596400  21.6037500
  93.7114480  18.6850630  20.7871840 105.2812170  17.6320620  24.6661830
 104.5764340  18.0202330  24.1476940 105.5470090  18.3270910  25.2682760
  91.4637340  14.1013990  25.2295900  91.4655780  14.6186380  24.4241800
  90.6341650  13.6244170  25.2065830  97.8508430  24.2133300  16.7285800
  97.2325700  24.6782750  16.1648520  98.3631680  24.9060780  17.1455310
  92.7140190  23.7409170  23.4069400  92.3809570  24.3678090  24.0490470
  92.8906870  24.2671050  22.6271070 101.2274100  17.5554250  20.8745740
 100.5229670  17.8439140  21.4548850 101.5886260  18.3654360  20.5145300
  91.1452670  15.8123950  23.2366350  91.4869480  16.6566000  22.9420220
  90.2068480  15.9607690  23.3531690  91.9259290  25.7089970  25.2218580
  92.5433290  26.3841050  24.9403030  91.0652410  26.1177950  25.1306080
  87.2191630  24.8989830  14.1025430  86.8419610  25.3876930  13.3710330
  87.4764700  25.5715110  14.7331960 102.8436880  27.1729380  23.1373220
 102.1600400  27.8428490  23.1289890 103.3831170  27.3710030  22.3718080
 104.2961020  17.0009040  21.2654950 103.3485930  17.0348020  21.3970380
 104.6211010  17.8147990  21.6504310  94.8280560  13.3006220  19.5610940
  95.1355540  12.7453110  18.8446440  93.8981260  13.4350680  19.3783930
 100.3795620  29.0173510  21.8518400 100.3922780  28.6135800  20.9840660
  99.8270840  29.7920800  21.7479830 101.6741040  25.7389730  16.9408570
 101.5637370  24.7964060  17.0657990 101.6709290  26.1005370  17.8271330
  99.7781060  23.9203350  23.1801010 100.1949850  23.7063460  22.3454470
 100.5020880  24.1776140  23.7509630  97.2161320  21.3655050  16.2971060
  96.2890600  21.2992430  16.5259530  97.3686140  22.3035180  16.1826300
  97.2030400  17.6372050  13.2938220  96.2634070  17.7986010  13.3790680
  97.5213660  18.3557730  12.7474210 103.7243160  22.3190570  23.2717250
 102.8961790  22.3883660  22.7967380 104.3193640  22.9044880  22.8033080
 101.2458610  22.9275350  16.8006310 100.6271030  22.5894900  16.1532610
 101.2283060  22.2835110  17.5085500 100.6885170  19.1059890  24.2172120
 100.2756350  19.9313600  24.4712110  99.9561120  18.5204930  24.0248480
  92.8217960  21.8919790  19.0790790  92.4174960  21.1797040  18.5836690
  92.9081080  21.5473030  19.9678830  93.2899660  25.5787350  21.2430000
  92.9927950  24.9732820  20.5637780  94.2399480  25.6164660  21.1319360
  91.5346580  18.6663000  22.8589830  92.0861170  18.7758340  22.0843080
  92.0490090  19.0400600  23.5745060 101.3785270  29.1519220  24.9053100
 100.9015830  29.9591410  24.7125710 100.6947060  28.4997550  25.0579310
  92.3818090  25.3169040  27.8937800  91.4846620  25.5409010  28.1411200
  92.4070960  25.4403980  26.9449200  99.4223310  22.1662160  13.8079060
  99.8616590  21.3284590  13.6616880 100.1351730  22.7991560  13.8943200
  91.2089310  22.1882360  26.4695170  91.0697080  23.0605160  26.8382570
  90.3270670  21.8455170  26.3243110  97.5318690  27.1058230  17.7760300
  97.9714600  27.8482560  17.3615690  97.4705580  27.3484800  18.6999260
  93.0069660  28.1304060  28.6780320  92.9785090  28.5347010  27.8108750
  92.8434630  27.2014420  28.5151920 103.0040450  13.4204970  12.1220100
 102.6913110  13.5131800  13.0219170 103.7652920  13.9986000  12.0717530
  89.5222590  20.7864770  16.5797440  89.4020190  21.5126860  15.9678710
  89.2123480  20.0167680  16.1025350 104.9584480  28.9131160  29.9744490
 105.4344200  29.3914050  30.6533570 105.5791640  28.8448650  29.2489990
  87.1607960  23.9579910  22.3866080  87.2388380  24.0928680  21.4421800
  87.7749640  23.2495800  22.5794200  88.4055590  25.6580100  18.7972260
  87.9983670  25.7994690  17.9425860  89.2968600  25.3740260  18.5943470
 104.3617730  26.1044010  27.1344500 104.4880790  25.8655890  26.2161680
 104.4039110  25.2728550  27.6066580  98.2234470  29.8072010  25.7039310
  98.7379140  29.7180020  26.5061740  97.3803550  30.1531710  25.9967220
 100.1988870  30.0927350  15.1323310 100.0390010  29.8030290  16.0305140
 100.0335580  29.3167480  14.5968540  92.6777250  29.8725880  16.9094930
  92.5019730  28.9561420  16.6962730  91.8232990  30.2313170  17.1492730
  99.9015000  27.6014910  13.6921310  99.2080160  27.5992200  13.0323590
 100.6437860  27.1774230  13.2615480  99.4664930  29.2277620  17.7669800
  99.9221880  28.4467000  18.0808420  99.8057450  29.9384440  18.3110980
 104.2141740  18.1576470  28.0994240 103.5986010  18.6656140  27.5709700
 103.8938160  17.2574800  28.0420180  87.2167480  24.9994080  24.9260540
  87.3798520  24.5299440  24.1079910  87.6819930  24.4917640  25.5909380
  91.9886250  14.1299840  19.9621110  91.5454400  14.9109380  19.6305630
  92.5471240  14.4529730  20.6692050  96.2756060  16.9968360  25.5656430
  95.8135430  17.2051380  26.3776370  95.8734170  16.1827710  25.2627100
 101.2760570  18.2177310  26.6953090 100.4254160  17.9183060  27.0162160
 101.1162360  18.4619320  25.7836910  98.3710280  19.7179060  28.7951880
  98.6963690  18.8842810  28.4554110  99.1590610  20.2407580  28.9430210
  95.1045070  13.7510540  14.8426940  94.4799250  13.7470410  15.5680250
  95.0175190  12.8841500  14.4462910  94.0262150  14.6747170  21.8210710
  94.3234480  15.5810000  21.7402730  94.5747710  14.1865950  21.2070280
  91.7800470  19.2533410  17.6902360  91.5541390  19.0370580  18.5948980
  90.9993000  19.6861870  17.3448330  99.0098230  19.2596780  16.2893010
  98.4107120  19.9832580  16.1056630  99.5577840  19.1973560  15.5069460
  94.2199680  20.1518990  28.3562630  94.1243280  19.2113720  28.2063030
  95.0631660  20.3734060  27.9610700  97.6163100  17.8960320  18.3196290
  98.0092670  18.2132520  17.5064980  97.9779950  17.0172200  18.4340810
  89.3510220  16.5632660  26.5096410  88.9573610  17.4107870  26.7169190
  88.6628620  15.9259030  26.7005050  95.9255270  16.6467630  29.5793150
  95.2353590  16.4539830  30.2139240  96.6687570  16.9302270  30.1117450
  86.6527270  14.4861120  20.5426490  86.3640320  15.0563980  21.2551470
  87.3973030  14.0065570  20.9057720  86.8397500  18.4281240  11.7529210
  86.7572170  19.3712000  11.8944200  86.4880560  18.2856150  10.8741560
  98.2018240  20.4866070  22.4147070  97.4699360  20.9952880  22.7637170
  97.8042580  19.6696050  22.1135850  94.6395630  17.1620270  20.8199560
  94.6431690  16.7210220  19.9704100  95.5346750  17.4837600  20.9271380
  90.4898010  17.0446760  19.7793770  90.1498060  17.5221990  20.5360820
  89.7275330  16.5911880  19.4194870  94.7015780  18.1632350  13.8106320
  94.8228600  18.1218830  14.7592140  94.3164290  19.0256500  13.6553050
  98.6644150  15.9399750  21.8270010  98.6816890  16.3908400  22.6711860
  98.4159730  15.0405390  22.0403450  93.7137280  20.4733490  13.2089620
  93.1454180  20.0251740  12.5825530  94.4226280  20.8326270  12.6754770
 102.0914900  13.3531930  27.6656390 102.4160670  12.6221590  28.1914370
 102.1271410  13.0345570  26.7637380  88.7906460  24.3745510  27.0856350
  88.4061250  23.7339180  27.6839310  89.1018650  25.0781630  27.6551080
  94.9403600  21.2222050  22.5664970  95.3073730  20.7480620  23.3126310
  94.7508660  22.0963620  22.9073310  87.8044090  15.9665740  18.6958440
  87.5191010  15.6021410  19.5337060  87.7422950  15.2346200  18.0821580
  92.7302970  20.2630690  24.8849180  92.4260040  21.1422670  25.1099540
  93.6849430  20.3230480  24.9206620  91.2584760  24.4691680  15.4816030
  90.4847020  23.9289300  15.3214750  91.9879390  23.9498290  15.1433790
 102.0172740  23.4657040  21.2742420 102.7371860  23.9612330  20.8838530
 101.8154560  22.7874930  20.6296290  97.4782680  14.8595000  15.4171810
  96.6647290  14.3608170  15.3417120  97.2844630  15.6993250  15.0008160
  97.3991540  23.5366100  27.1611420  97.3328850  22.6161770  26.9069010
  96.7696680  23.6341540  27.8756060 100.1931070  19.2314650  13.7133970
 101.0810690  19.5431880  13.5385310 100.1636160  18.3586900  13.3214550
  91.3022160  24.1372060  19.1194840  91.8200830  23.3340320  19.0651730
  90.8506180  24.0751200  19.9611670  96.1891660  25.4038340  14.3922140
  96.5307360  26.1480570  13.8965460  95.3604370  25.7169460  14.7546970
  88.7866700  21.1033430  26.0320540  88.4281640  21.7687280  26.6193880
  88.4921260  20.2716980  26.4033160  91.9879820  21.5617670  28.9160090
  91.6879960  21.7074850  28.0187910  92.7591060  21.0022960  28.8233480
  97.3308270  26.3586670  26.9115220  97.3452810  25.4267630  26.6934130
  96.6233370  26.4446430  27.5504990 102.4645340  20.5426490  13.1813830
 102.3809060  20.9740710  12.3310270 103.1839530  21.0024840  13.6140650
 103.5419480  22.9994010  26.2583800 102.8167670  23.5922790  26.0613190
 104.0694940  22.9917550  25.4597170 103.4932590  27.3968750  15.9095960
 102.8508750  26.7424370  16.1839680 103.1063250  27.8023840  15.1336630
  99.0719070  24.7254180  19.7567650  99.4242890  24.1282310  19.0969020
  98.1881400  24.3998410  19.9275900  95.1582350  25.4851870  17.1638060
  95.8453480  26.0321080  17.5445650  94.3714770  26.0292600  17.1987670
  87.2974750  21.1024690  12.6555140  88.1669600  21.3849490  12.9391060
  86.8065070  21.9160560  12.5403950  94.4609560  22.4897900  16.7763420
  94.9172340  23.3003150  17.0023610  94.1097770  22.1721040  17.6081910
  96.7642170  28.0004240  24.0055720  97.4084390  28.2063620  24.6829140
  97.1271610  27.2392640  23.5526570  90.3621340  12.8335550  17.2485940
  90.2335970  12.8253450  18.1970860  89.5383360  13.1718640  16.8976950
  98.0374250  26.0036590  22.7233170  98.6796480  25.3029750  22.8365340
  98.5623600  26.7835030  22.5430060 101.8829970  26.2885210  12.4472310
 101.6567550  25.5715650  13.0396950 101.4926170  26.0397650  11.6094060
  99.8111870  26.8031490  25.9269230 100.1468110  27.3898180  26.6047150
  98.8912210  26.6724200  26.1567020  87.6646000  30.3152070  13.2216770
  88.0243640  30.9141410  12.5674040  87.5238340  30.8611960  13.9951800
  87.3615270  14.5926670  26.7092640  86.6473790  14.7923590  27.3145250
  87.7810310  13.8166240  27.0807440 101.4646220  24.2057150  14.1086470
 101.1767920  24.6669840  14.8964350 102.2598390  23.7454920  14.3770690
  87.6487860  28.5806930  27.6959170  87.7578980  27.6401670  27.5554560
  86.9968420  28.8461680  27.0472900  95.6400450  26.8522820  29.0957290
  95.3197320  26.1332060  29.6402980  94.9658810  27.5277890  29.1693350
  93.6814620  27.6983270  14.0390440  93.6724720  28.4312960  13.4234950
  92.7612980  27.4514850  14.1317400  89.2821260  22.9198160  14.7837200
  88.6749210  23.6597060  14.7932500  89.7570610  23.0097520  13.9575400
  98.8554050  17.0848980  24.4594090  99.2234870  16.2644190  24.7873660
  97.9952250  17.1450870  24.8749740 102.2216080  16.0405920  15.2681650
 101.5929240  16.1451590  14.5539880 101.7268000  16.2602700  16.0575530
  96.6674220  27.7611510  12.7015630  96.7686200  27.5575500  11.7717610
  95.7675960  27.5069790  12.9063410  94.1900110  18.3191870  16.6839530
  93.4816260  18.7878210  17.1253140  94.4744590  17.6613880  17.3184720
  95.8156040  19.7388570  24.6832060  96.3141290  20.2134390  25.3483910
  95.9578990  18.8152090  24.8902090  98.2215540  15.0442530  18.1235320
  98.0983320  15.0628660  17.1744830  99.1700100  15.0921470  18.2433720
  95.3092330  30.2797830  17.3963300  95.5633830  30.2419220  16.4742670
  94.3604810  30.1531160  17.3891550  92.3935130  16.6276950  14.0590240
  93.2425660  17.0647100  13.9930430  92.0266400  16.9397210  14.8862300
 103.0222900  15.9556530  25.5260450 102.5196500  16.6961930  25.8654260
 103.8379560  16.3440530  25.2097240 101.3144910  21.1989710  18.9721810
 100.3735050  21.2139940  19.1469500 101.6288980  20.4125670  19.4182110
  91.2926550  22.8809310  12.5325770  92.0589820  22.7690670  13.0951200
  91.3701240  22.1847280  11.8802540  89.9873310  20.3134380  13.2158660
  90.0676900  19.3661890  13.3276060  90.8793060  20.6441260  13.3219320
 103.3170490  28.3698560  20.6476070 103.4417910  29.1929730  21.1199880
 104.1836050  28.1589290  20.3000220  90.7888020  30.4629770  20.3193200
  91.5250500  29.9145230  20.5901770  91.1728940  31.3285780  20.1799190
  87.6733500  26.5303340  16.1934710  86.7473280  26.7724480  16.1840120
  88.1389930  27.3577600  16.0719460  89.7946300  29.6475840  29.5078780
  90.5959030  29.9687890  29.9214180  89.2798120  29.2871420  30.2298690
  93.8990330  29.6360080  12.1418770  94.6918940  29.9248910  11.6900560
  93.3794680  29.2052250  11.4631250  98.6310930  25.7555710  29.4554190
  98.0249090  25.7787310  28.7149940  98.3265040  25.0238750  29.9921440
 100.0611300  29.4836000  28.0663600 101.0133050  29.3994020  28.0163840
  99.9139520  30.1477710  28.7397390 102.9520500  28.8630210  13.5655510
 102.6662010  28.4495350  12.7509690 102.7540050  29.7917920  13.4456030
  87.5144110  22.1349300  28.4514830  88.0183130  21.5556580  29.0231060
  86.7751530  22.4189530  28.9891200  94.4167730  24.8563490  12.0061120
  94.3118370  24.2415840  12.7322500  94.2491950  24.3329380  11.2224130
  94.5682050  23.5420290  27.9850350  93.8027720  24.1105290  27.9005020
  94.7498010  23.2496500  27.0918580  97.6570460  23.9183520  12.6103110
  97.1080560  24.3652820  13.2545850  98.2789720  23.4132770  13.1340780
 101.7105400  25.2725620  28.5425370 102.4514870  25.6101380  28.0392830
 100.9478080  25.4417680  27.9895140  89.5467190  20.2778890  29.3464900
  89.5872530  19.9792760  30.2550130  90.4012690  20.6786500  29.1872420
  93.3245580  22.8774440  14.5068410  93.7462000  22.7114310  15.3499800
  93.4496420  22.0674670  14.0123550  91.4873000  18.8570990  27.3139390
  90.9569460  18.3661940  26.6862730  92.1561070  19.2855190  26.7797320
  95.8373220  21.9012050  11.7545510  96.3578880  21.1861070  11.3886660
  96.4841620  22.5397920  12.0546020 100.3851060  23.3240450  27.0780580
 100.7992080  23.4785530  27.9271000  99.4502060  23.4495670  27.2406360
 100.8573230  20.6636610  29.0819730 101.4394000  19.9088930  28.9940210
 101.0335000  21.1944050  28.3051210  91.9745300  15.8233360  27.3936680
  91.8802170  15.2054110  26.6687550  91.3942690  16.5499650  27.1666590
  94.7406740  14.3806600  24.4264070  94.2924040  14.4030860  23.5809620
  94.1071940  13.9825620  25.0234370  95.1466290  23.2760930  25.0476510
  95.5654400  24.1193660  24.8752750  94.2274920  23.4132970  24.8183290
  97.4830190  21.0077110  26.4314350  97.6026400  20.4118250  27.1709190
  98.3424190  21.0446800  26.0115650  99.8218090  21.5614300  25.0076860
  99.2953310  22.0856920  24.4042000 100.1649430  22.1941690  25.6386590
  92.2204480  18.9507670  11.4526570  92.0193540  18.0875030  11.8139910
  92.0496530  18.8641030  10.5148170  92.9973710  29.5813940  26.1634240
  92.4594800  30.3060000  25.8442940  93.2507670  29.1044280  25.3731580
  94.2498960  17.5498460  27.6890170  94.8398650  17.2414310  28.3767990
  93.4319200  17.0778210  27.8450070  99.0692390  17.1664270  27.9223190
  98.3807910  16.5045810  27.8573180  99.7898410  16.7202540  28.3671650
  99.6992790  13.7615900  13.9813450  99.9795080  12.9183800  14.3372870
  98.9258520  13.9939010  14.4952200  91.0187280  16.0508290  11.4404450
  91.3213180  16.0575720  10.5323600  91.7581870  15.7006150  11.9372110
  95.8535920  30.8165150  26.4220890  95.7794620  31.7200290  26.7293260
  94.9514760  30.4977050  26.3942960  94.2372210  14.9942910  12.4260650
  93.8894210  14.3166900  11.8463100  94.4384980  14.5332420  13.2404040
  96.4021250  29.9823660  14.0447250  97.2972040  30.3208630  14.0666010
  96.4338880  29.2603070  13.4171530  90.0417410  25.3550710  12.2734250
  90.4792280  25.8980380  12.9291830  90.5265140  24.5297660  12.2830590
  87.2563210  28.1439740  19.7254510  87.5866220  27.2760800  19.4933150
  87.6854210  28.3498260  20.5559470  91.8525130  26.4748750  17.3856480
  91.5520670  26.3513720  18.2860390  91.7462620  25.6157340  16.9772210
  87.7453420  29.0110330  22.4636140  87.3084410  29.1911130  23.2960290
  88.3131100  29.7684950  22.3217860 103.3815600  28.5127330  26.7513450
 102.7817590  28.5719890  26.0077370 103.5109500  27.5732310  26.8810300
 104.6217050  26.2545150  12.0883160 103.7910010  26.3221800  12.5590390
 104.7988880  27.1449270  11.7850020 104.0773510  22.9992630  14.5917360
 104.8392420  23.5689280  14.6977050 104.0927880  22.4319830  15.3625670
  87.5777850  21.5230560  18.8225020  86.9226690  21.2542200  18.1784720
  88.4155800  21.4135040  18.3727000 105.0833480  23.8542730  19.4359290
 105.4542310  23.0710050  19.0295260 105.7235410  24.5431830  19.2576590
 102.0667240  25.2379310  24.8489610 101.2527080  25.6676470  25.1115400
 102.4741440  25.8497720  24.2358660 104.1292680  23.2927000  11.7489880
 104.4041520  24.2005880  11.6209100 103.9403420  23.2289530  12.6851870
 100.5268290  16.3171850  13.0443510 100.9453170  16.1302830  12.2040170
 100.2204350  15.4650900  13.3546440 104.0258020  21.2295990  16.7419310
 103.6501620  20.4623920  16.3100600 103.2961140  21.6118690  17.2294240
  88.6153780  21.9083130  23.3628360  88.9826820  21.8210530  24.2424380
  88.0464600  21.1449680  23.2635220 103.4157640  20.3767510  26.3758830
 103.1843730  20.1480260  25.4756780 103.6762190  21.2967060  26.3303720
  88.1669780  18.8192220  27.2686780  87.2725830  18.7858980  27.6080490
  88.7067330  19.0179010  28.0338030 101.8545710  15.6023940  29.1538530
 102.7315890  15.6107340  29.5372530 101.8666550  14.8654780  28.5430880
  86.7915930  18.7329490  14.7650350  85.8880010  18.9959690  14.5902010
  87.2756550  19.0040660  13.9850310 103.3008980  19.4553480  20.0426550
 103.8246460  18.9616130  19.4116720 103.8868400  19.5903840  20.7874120
 103.4798700  19.5393350  23.5646100 102.5301410  19.5056890  23.6791090
 103.6611710  20.4493460  23.3295870  89.3343140  17.7895030  12.6744730
  90.0434840  17.3678250  12.1892010  88.6183080  17.8570260  12.0428080
  88.9817300  13.8434360  11.7147380  89.7045430  14.3843300  12.0328600
  89.2541820  13.5697780  10.8388920 102.7908950  18.7126830  15.9818960
 103.2868070  18.4797700  16.7667840 102.5925020  17.8738670  15.5656600
  88.6709490  13.0940550  21.6170000  89.3185680  12.5437930  21.1765160
  89.0911330  13.3483700  22.4385810 104.2196110  17.3487780  18.5156640
 104.1095390  17.1943820  19.4538910 104.9803700  16.8208720  18.2732050
 102.5661830  13.2881910  24.9739640 103.2034050  13.9016050  25.3398830
 102.7136720  13.3242570  24.0288870 105.1086380  15.1795700  11.7562780
 106.0335690  15.0476880  11.5481070 105.0862170  15.2588520  12.7099230
 105.1824870  15.9506360  14.3819490 104.3876370  15.8851480  14.9112400
 105.3868150  16.8857000  14.3704840 102.1243290  29.9897910  18.3757880
 102.7202360  29.6682480  17.6992300 102.3821440  29.5169730  19.1671150
  88.4241490  13.2496220  24.3595320  88.0756310  13.7060040  25.1253500
  88.0929190  12.3553350  24.4417750  90.0305860  26.4215820  28.5248510
  89.9875490  26.0508730  29.4062970  90.1616870  27.3593390  28.6650330
  93.7311890  27.9775410  24.1258230  93.4903250  28.2449970  23.2388750
  94.6714530  28.1481140  24.1809090  95.9366310  14.4408100  27.8814740
  95.8755200  15.0329930  28.6310150  96.8766690  14.3334060  27.7365000
  98.5740870  14.0978160  27.5207030  99.1881280  14.4157450  26.8588110
  99.1190430  13.6126750  28.1402890 104.9916050  29.9969790  24.9268870
 104.4974330  30.3938660  24.2096000 104.3829340  29.3719000  25.3206150
  89.0962130  12.7772420  27.6346090  89.6445120  12.5960470  26.8712200
  89.1617440  11.9866530  28.1702400  89.8693890  29.3678070  25.6446290
  89.2754210  29.2362770  26.3836330  89.8617730  28.5316210  25.1788390
  99.3148910  12.6610300  23.8476320  98.4408750  12.9945410  23.6449250
  99.2059660  12.1883480  24.6728190 100.2220890  14.8681170  25.2318040
  99.8934250  14.0532930  24.8519770 101.1703190  14.8250980  25.1083730
 102.6755500  30.6393210  22.2055610 102.2158470  31.3909020  21.8313630
 102.0467960  29.9199680  22.1470410  89.5006120  26.7336450  24.5954330
  88.7740180  26.1141740  24.5280280  89.5615270  27.1277060  23.7252410
  93.1051220  28.9481450  21.3803740  93.6216240  28.3368810  20.8552000
  93.7548600  29.4510230  21.8714750  95.8446720  29.8389940  22.2072720
  96.1324530  29.5844240  21.3305730  96.3569940  29.2867300  22.7978290
  97.0623730  13.5780140  22.7869230  96.2795520  14.0525640  23.0665990
  96.7686660  12.6734970  22.6782410 101.6144800  14.2803240  20.8318320
 102.0552890  14.2248340  19.9839920 101.3452390  15.1961250  20.9028500
 103.4783370  13.9118480  18.8427140 103.4171770  12.9679700  18.6958160
 104.2575400  14.0198570  19.3880600  87.7836120  30.0510840  17.8051090
  87.6158160  29.4181520  18.5032980  86.9170630  30.2570240  17.4545280
  88.4064140  13.8827620  15.3082950  89.1643500  13.9956500  14.7346980
  87.9441310  14.7196820  15.2626380  94.9477950  15.9966890  18.2985260
  94.1352460  15.6223780  17.9581140  95.4519590  15.2411970  18.6006450
  99.4502930  12.6609340  19.5368330 100.0532300  13.2329550  20.0116850
  98.7095920  13.2248780  19.3142230 102.5937530  13.0630900  14.8108610
 102.7888160  13.9614350  15.0776040 101.8067400  12.8317980  15.3041560
  89.3898820  28.7444070  15.2501230  88.8646440  29.1252100  14.5463190
  89.3143400  29.3694840  15.9710940  90.7789290  14.4091670  13.8484920
  91.3082050  13.6221470  13.7192870  91.4117610  15.0882860  14.0820450
  92.9727130  14.1466810  16.9030310  92.3429870  13.4454120  17.0700440
  92.4332270  14.9070940  16.6863470  95.9119080  30.7606040  29.5740920
  96.8386390  30.5250310  29.6176880  95.8969510  31.5878040  29.0926950
 104.1464140  30.3031610  16.5715170 104.3216330  29.6169350  15.9276090
 103.4485710  30.8278660  16.1791840  93.0982690  13.4250790  29.3382800
  92.8166960  13.9284390  28.5743620  93.4802390  12.6272540  28.9724930
  91.9891790  30.6926450  14.1250480  92.7210610  30.4085730  13.5774370
  92.2485460  30.4539730  15.0149860  91.1506580  26.8091180  14.1296810
  90.5215460  27.2776280  14.6782640  91.2654410  25.9640400  14.5643000
  99.6998150  12.8404370  29.9163270  99.5863600  13.1598980  30.8114790
 100.5167890  13.2416880  29.6200550 102.4796640  29.9875900  29.3981960
 103.2721960  29.4925130  29.1907920 102.7729790  30.6666040  30.0057570
  96.7374340  22.6375860   2.1607280  95.9616440  22.1576300   2.4505850
  97.3887270  21.9581510   1.9863440  90.7540170  22.9495670   3.0383040
  89.9225050  22.6944380   3.4379550  91.3621150  23.0206440   3.7740960
  90.7341430  26.9835760   3.2341060  91.0369470  26.0933500   3.0551280
  91.4785020  27.5405980   3.0063310  87.1265130  20.5103210   2.7065130
  87.6981240  19.7425410   2.7068770  87.1266670  20.8091970   1.7971740
  96.1783330  25.3133050   2.1677440  96.1091610  24.3722990   2.0066570
  96.9403190  25.4034460   2.7400010  88.3690000  15.9187570   4.4934060
  88.1892840  15.0213320   4.7736820  87.9670080  16.4659440   5.1681010
  88.9876670  18.4148070   3.1016400  89.6686780  18.6786440   3.7203800
  88.6724720  17.5748940   3.4354410  93.1801240  19.4615430   2.1888990
  93.6879460  19.9596400   2.8294010  93.7114480  18.6850630   2.0128350
 105.2812170  17.6320620   5.8918340 104.5764340  18.0202330   5.3733450
 105.5470090  18.3270910   6.4939270  91.4637340  14.1013990   6.4552410
  91.4655780  14.6186380   5.6498310  90.6341650  13.6244170   6.4322340
  92.7140190  23.7409170   4.6325910  92.3809570  24.3678090   5.2746980
  92.8906870  24.2671050   3.8527580 101.2274100  17.5554250   2.1002250
 100.5229670  17.8439140   2.6805360 101.5886260  18.3654360   1.7401810
  91.1452670  15.8123950   4.4622860  91.4869480  16.6566000   4.1676730
  90.2068480  15.9607690   4.5788200  91.9259290  25.7089970   6.4475090
  92.5433290  26.3841050   6.1659540  91.0652410  26.1177950   6.3562590
 102.8436880  27.1729380   4.3629730 102.1600400  27.8428490   4.3546400
 103.3831170  27.3710030   3.5974590 104.2961020  17.0009040   2.4911460
 103.3485930  17.0348020   2.6226890 104.6211010  17.8147990   2.8760820
 100.3795620  29.0173510   3.0774910 100.3922780  28.6135800   2.2097170
  99.8270840  29.7920800   2.9736340  99.7781060  23.9203350   4.4057520
 100.1949850  23.7063460   3.5710980 100.5020880  24.1776140   4.9766140
 103.7243160  22.3190570   4.4973760 102.8961790  22.3883660   4.0223890
 104.3193640  22.9044880   4.0289590 100.6885170  19.1059890   5.4428630
 100.2756350  19.9313600   5.6968620  99.9561120  18.5204930   5.2504990
  93.2899660  25.5787350   2.4686510  92.9927950  24.9732820   1.7894290
  94.2399480  25.6164660   2.3575870  91.5346580  18.6663000   4.0846340
  92.0861170  18.7758340   3.3099590  92.0490090  19.0400600   4.8001570
 101.3785270  29.1519220   6.1309610 100.9015830  29.9591410   5.9382220
 100.6947060  28.4997550   6.2835820  92.3818090  25.3169040   9.1194310
  91.4846620  25.5409010   9.3667710  92.4070960  25.4403980   8.1705710
  91.2089310  22.1882360   7.6951680  91.0697080  23.0605160   8.0639080
  90.3270670  21.8455170   7.5499620  93.0069660  28.1304060   9.9036830
  92.9785090  28.5347010   9.0365260  92.8434630  27.2014420   9.7408430
 104.9584480  28.9131160  11.2001000 105.4344200  29.3914050  11.8790080
 105.5791640  28.8448650  10.4746500  87.1607960  23.9579910   3.6122590
  87.2388380  24.0928680   2.6678310  87.7749640  23.2495800   3.8050710
 104.3617730  26.1044010   8.3601010 104.4880790  25.8655890   7.4418190
 104.4039110  25.2728550   8.8323090  98.2234470  29.8072010   6.9295820
  98.7379140  29.7180020   7.7318250  97.3803550  30.1531710   7.2223730
 104.2141740  18.1576470   9.3250750 103.5986010  18.6656140   8.7966210
 103.8938160  17.2574800   9.2676690  87.2167480  24.9994080   6.1517050
  87.3798520  24.5299440   5.3336420  87.6819930  24.4917640   6.8165890
  96.2756060  16.9968360   6.7912940  95.8135430  17.2051380   7.6032880
  95.8734170  16.1827710   6.4883610 101.2760570  18.2177310   7.9209600
 100.4254160  17.9183060   8.2418670 101.1162360  18.4619320   7.0093420
  98.3710280  19.7179060  10.0208390  98.6963690  18.8842810   9.6810620
  99.1590610  20.2407580  10.1686720  94.0262150  14.6747170   3.0467220
  94.3234480  15.5810000   2.9659240  94.5747710  14.1865950   2.4326790
  94.2199680  20.1518990   9.5819140  94.1243280  19.2113720   9.4319540
  95.0631660  20.3734060   9.1867210  89.3510220  16.5632660   7.7352920
  88.9573610  17.4107870   7.9425700  88.6628620  15.9259030   7.9261560
  95.9255270  16.6467630  10.8049660  95.2353590  16.4539830  11.4395750
  96.6687570  16.9302270  11.3373960  86.6527270  14.4861120   1.7683000
  86.3640320  15.0563980   2.4807980  87.3973030  14.0065570   2.1314230
  98.2018240  20.4866070   3.6403580  97.4699360  20.9952880   3.9893680
  97.8042580  19.6696050   3.3392360  98.6644150  15.9399750   3.0526520
  98.6816890  16.3908400   3.8968370  98.4159730  15.0405390   3.2659960
 102.0914900  13.3531930   8.8912900 102.4160670  12.6221590   9.4170880
 102.1271410  13.0345570   7.9893890  88.7906460  24.3745510   8.3112860
  88.4061250  23.7339180   8.9095820  89.1018650  25.0781630   8.8807590
  94.9403600  21.2222050   3.7921480  95.3073730  20.7480620   4.5382820
  94.7508660  22.0963620   4.1329820  92.7302970  20.2630690   6.1105690
  92.4260040  21.1422670   6.3356050  93.6849430  20.3230480   6.1463130
 102.0172740  23.4657040   2.4998930 102.7371860  23.9612330   2.1095040
 101.8154560  22.7874930   1.8552800  97.3991540  23.5366100   8.3867930
  97.3328850  22.6161770   8.1325520  96.7696680  23.6341540   9.1012570
  88.7866700  21.1033430   7.2577050  88.4281640  21.7687280   7.8450390
  88.4921260  20.2716980   7.6289670  91.9879820  21.5617670  10.1416600
  91.6879960  21.7074850   9.2444420  92.7591060  21.0022960  10.0489990
  97.3308270  26.3586670   8.1371730  97.3452810  25.4267630   7.9190640
  96.6233370  26.4446430   8.7761500 103.5419480  22.9994010   7.4840310
 102.8167670  23.5922790   7.2869700 104.0694940  22.9917550   6.6853680
  96.7642170  28.0004240   5.2312230  97.4084390  28.2063620   5.9085650
  97.1271610  27.2392640   4.7783080  98.0374250  26.0036590   3.9489680
  98.6796480  25.3029750   4.0621850  98.5623600  26.7835030   3.7686570
  99.8111870  26.8031490   7.1525740 100.1468110  27.3898180   7.8303660
  98.8912210  26.6724200   7.3823530  87.3615270  14.5926670   7.9349150
  86.6473790  14.7923590   8.5401760  87.7810310  13.8166240   8.3063950
  87.6487860  28.5806930   8.9215680  87.7578980  27.6401670   8.7811070
  86.9968420  28.8461680   8.2729410  95.6400450  26.8522820  10.3213800
  95.3197320  26.1332060  10.8659490  94.9658810  27.5277890  10.3949860
  98.8554050  17.0848980   5.6850600  99.2234870  16.2644190   6.0130170
  97.9952250  17.1450870   6.1006250  95.8156040  19.7388570   5.9088570
  96.3141290  20.2134390   6.5740420  95.9578990  18.8152090   6.1158600
 103.0222900  15.9556530   6.7516960 102.5196500  16.6961930   7.0910770
 103.8379560  16.3440530   6.4353750  89.7946300  29.6475840  10.7335290
  90.5959030  29.9687890  11.1470690  89.2798120  29.2871420  11.4555200
  98.6310930  25.7555710  10.6810700  98.0249090  25.7787310   9.9406450
  98.3265040  25.0238750  11.2177950 100.0611300  29.4836000   9.2920110
 101.0133050  29.3994020   9.2420350  99.9139520  30.1477710   9.9653900
  87.5144110  22.1349300   9.6771340  88.0183130  21.5556580  10.2487570
  86.7751530  22.4189530  10.2147710  94.5682050  23.5420290   9.2106860
  93.8027720  24.1105290   9.1261530  94.7498010  23.2496500   8.3175090
 101.7105400  25.2725620   9.7681880 102.4514870  25.6101380   9.2649340
 100.9478080  25.4417680   9.2151650  89.5467190  20.2778890  10.5721410
  89.5872530  19.9792760  11.4806640  90.4012690  20.6786500  10.4128930
  91.4873000  18.8570990   8.5395900  90.9569460  18.3661940   7.9119240
  92.1561070  19.2855190   8.0053830 100.3851060  23.3240450   8.3037090
 100.7992080  23.4785530   9.1527510  99.4502060  23.4495670   8.4662870
 100.8573230  20.6636610  10.3076240 101.4394000  19.9088930  10.2196720
 101.0335000  21.1944050   9.5307720  91.9745300  15.8233360   8.6193190
  91.8802170  15.2054110   7.8944060  91.3942690  16.5499650   8.3923100
  94.7406740  14.3806600   5.6520580  94.2924040  14.4030860   4.8066130
  94.1071940  13.9825620   6.2490880  95.1466290  23.2760930   6.2733020
  95.5654400  24.1193660   6.1009260  94.2274920  23.4132970   6.0439800
  97.4830190  21.0077110   7.6570860  97.6026400  20.4118250   8.3965700
  98.3424190  21.0446800   7.2372160  99.8218090  21.5614300   6.2333370
  99.2953310  22.0856920   5.6298510 100.1649430  22.1941690   6.8643100
  92.9973710  29.5813940   7.3890750  92.4594800  30.3060000   7.0699450
  93.2507670  29.1044280   6.5988090  94.2498960  17.5498460   8.9146680
  94.8398650  17.2414310   9.6024500  93.4319200  17.0778210   9.0706580
  99.0692390  17.1664270   9.1479700  98.3807910  16.5045810   9.0829690
  99.7898410  16.7202540   9.5928160  95.8535920  30.8165150   7.6477400
  95.7794620  31.7200290   7.9549770  94.9514760  30.4977050   7.6199470
  87.7453420  29.0110330   3.6892650  87.3084410  29.1911130   4.5216800
  88.3131100  29.7684950   3.5474370 103.3815600  28.5127330   7.9769960
 102.7817590  28.5719890   7.2333880 103.5109500  27.5732310   8.1066810
 102.0667240  25.2379310   6.0746120 101.2527080  25.6676470   6.3371910
 102.4741440  25.8497720   5.4615170  88.6153780  21.9083130   4.5884870
  88.9826820  21.8210530   5.4680890  88.0464600  21.1449680   4.4891730
 103.4157640  20.3767510   7.6015340 103.1843730  20.1480260   6.7013290
 103.6762190  21.2967060   7.5560230  88.1669780  18.8192220   8.4943290
  87.2725830  18.7858980   8.8337000  88.7067330  19.0179010   9.2594540
 101.8545710  15.6023940  10.3795040 102.7315890  15.6107340  10.7629040
 101.8666550  14.8654780   9.7687390 103.4798700  19.5393350   4.7902610
 102.5301410  19.5056890   4.9047600 103.6611710  20.4493460   4.5552380
  88.6709490  13.0940550   2.8426510  89.3185680  12.5437930   2.4021670
  89.0911330  13.3483700   3.6642320 102.5661830  13.2881910   6.1996150
 103.2034050  13.9016050   6.5655340 102.7136720  13.3242570   5.2545380
  88.4241490  13.2496220   5.5851830  88.0756310  13.7060040   6.3510010
  88.0929190  12.3553350   5.6674260  90.0305860  26.4215820   9.7505020
  89.9875490  26.0508730  10.6319480  90.1616870  27.3593390   9.8906840
  93.7311890  27.9775410   5.3514740  93.4903250  28.2449970   4.4645260
  94.6714530  28.1481140   5.4065600  95.9366310  14.4408100   9.1071250
  95.8755200  15.0329930   9.8566660  96.8766690  14.3334060   8.9621510
  98.5740870  14.0978160   8.7463540  99.1881280  14.4157450   8.0844620
  99.1190430  13.6126750   9.3659400 104.9916050  29.9969790   6.1525380
 104.4974330  30.3938660   5.4352510 104.3829340  29.3719000   6.5462660
  89.0962130  12.7772420   8.8602600  89.6445120  12.5960470   8.0968710
  89.1617440  11.9866530   9.3958910  89.8693890  29.3678070   6.8702800
  89.2754210  29.2362770   7.6092840  89.8617730  28.5316210   6.4044900
  99.3148910  12.6610300   5.0732830  98.4408750  12.9945410   4.8705760
  99.2059660  12.1883480   5.8984700 100.2220890  14.8681170   6.4574550
  99.8934250  14.0532930   6.0776280 101.1703190  14.8250980   6.3340240
 102.6755500  30.6393210   3.4312120 102.2158470  31.3909020   3.0570140
 102.0467960  29.9199680   3.3726920  89.5006120  26.7336450   5.8210840
  88.7740180  26.1141740   5.7536790  89.5615270  27.1277060   4.9508920
  93.1051220  28.9481450   2.6060250  93.6216240  28.3368810   2.0808510
  93.7548600  29.4510230   3.0971260  95.8446720  29.8389940   3.4329230
  96.1324530  29.5844240   2.5562240  96.3569940  29.2867300   4.0234800
  97.0623730  13.5780140   4.0125740  96.2795520  14.0525640   4.2922500
  96.7686660  12.6734970   3.9038920  95.9119080  30.7606040  10.7997430
  96.8386390  30.5250310  10.8433390  95.8969510  31.5878040  10.3183460
  93.0982690  13.4250790  10.5639310  92.8166960  13.9284390   9.8000130
  93.4802390  12.6272540  10.1981440  99.6998150  12.8404370  11.1419780
  99.5863600  13.1598980  12.0371300 100.5167890  13.2416880  10.8457060
 102.4796640  29.9875900  10.6238470 103.2721960  29.4925130  10.4164430
 102.7729790  30.6666040  11.2314080 100.7581770   8.2692560 151.1354330
 100.2963300   7.4979800 151.4641500 101.5707320   8.2958630 151.6406780
  96.9845080  10.5550570 150.7558320  96.3656520  11.0108070 150.1852760
  97.8396860  10.7102030 150.3548020  97.8508430   5.4389810 148.1490230
  97.2325700   5.9039260 147.5852950  98.3631680   6.1317290 148.5659740
  87.2191630   6.1246340 145.5229860  86.8419610   6.6133440 144.7914760
  87.4764700   6.7971620 146.1536390 101.6741040   6.9646240 148.3613000
 101.5637370   6.0220570 148.4862420 101.6709290   7.3261880 149.2475760
  97.2161320   2.5911560 147.7175490  96.2890600   2.5248940 147.9463960
  97.3686140   3.5291690 147.6030730 101.2458610   4.1531860 148.2210740
 100.6271030   3.8151410 147.5737040 101.2283060   3.5091620 148.9289930
  92.8217960   3.1176300 150.4995220  92.4174960   2.4053550 150.0041120
  92.9081080   2.7729540 151.3883260  99.4223310   3.3918670 145.2283490
  99.8616590   2.5541100 145.0821310 100.1351730   4.0248070 145.3147630
  97.5318690   8.3314740 149.1964730  97.9714600   9.0739070 148.7820120
  97.4705580   8.5741310 150.1203690  88.4055590   6.8836610 150.2176690
  87.9983670   7.0251200 149.3630290  89.2968600   6.5996770 150.0147900
 100.1988870  11.3183860 146.5527740 100.0390010  11.0286800 147.4509570
 100.0335580  10.5423990 146.0172970  92.6777250  11.0982390 148.3299360
  92.5019730  10.1817930 148.1167160  91.8232990  11.4569680 148.5697160
  99.9015000   8.8271420 145.1125740  99.2080160   8.8248710 144.4528020
 100.6437860   8.4030740 144.6819910  99.4664930  10.4534130 149.1874230
  99.9221880   9.6723510 149.5012850  99.8057450  11.1640950 149.7315410
  91.2584760   5.6948190 146.9020460  90.4847020   5.1545810 146.7419180
  91.9879390   5.1754800 146.5638220  91.3022160   5.3628570 150.5399270
  91.8200830   4.5596830 150.4856160  90.8506180   5.3007710 151.3816100
  96.1891660   6.6294850 145.8126570  96.5307360   7.3737080 145.3169890
  95.3604370   6.9425970 146.1751400 102.4645340   1.7683000 144.6018260
 102.3809060   2.1997220 143.7514700 103.1839530   2.2281350 145.0345080
 103.4932590   8.6225260 147.3300390 102.8508750   7.9680880 147.6044110
 103.1063250   9.0280350 146.5541060  99.0719070   5.9510690 151.1772080
  99.4242890   5.3538820 150.5173450  98.1881400   5.6254920 151.3480330
  95.1582350   6.7108380 148.5842490  95.8453480   7.2577590 148.9650080
  94.3714770   7.2549110 148.6192100  87.2974750   2.3281200 144.0759570
  88.1669600   2.6106000 144.3595490  86.8065070   3.1417070 143.9608380
  94.4609560   3.7154410 148.1967850  94.9172340   4.5259660 148.4228040
  94.1097770   3.3977550 149.0286340 101.8829970   7.5141720 143.8676740
 101.6567550   6.7972160 144.4601380 101.4926170   7.2654160 143.0298490
  87.6646000  11.5408580 144.6421200  88.0243640  12.1397920 143.9878470
  87.5238340  12.0868470 145.4156230 101.4646220   5.4313660 145.5290900
 101.1767920   5.8926350 146.3168780 102.2598390   4.9711430 145.7975120
  93.6814620   8.9239780 145.4594870  93.6724720   9.6569470 144.8439380
  92.7612980   8.6771360 145.5521830  89.2821260   4.1454670 146.2041630
  88.6749210   4.8853570 146.2136930  89.7570610   4.2354030 145.3779830
  96.6674220   8.9868020 144.1220060  96.7686200   8.7832010 143.1922040
  95.7675960   8.7326300 144.3267840  95.3092330  11.5054340 148.8167730
  95.5633830  11.4675730 147.8947100  94.3604810  11.3787670 148.8095980
  91.2926550   4.1065820 143.9530200  92.0589820   3.9947180 144.5155630
  91.3701240   3.4103790 143.3006970  90.7888020  11.6886280 151.7397630
  91.5250500  11.1401740 152.0106200  91.1728940  12.5542290 151.6003620
  87.6733500   7.7559850 147.6139140  86.7473280   7.9980990 147.6044550
  88.1389930   8.5834110 147.4923890  93.8990330  10.8616590 143.5623200
  94.6918940  11.1505420 143.1104990  93.3794680  10.4308760 142.8835680
 102.9520500  10.0886720 144.9859940 102.6662010   9.6751860 144.1714120
 102.7540050  11.0174430 144.8660460  94.4167730   6.0820000 143.4265550
  94.3118370   5.4672350 144.1526930  94.2491950   5.5585890 142.6428560
  97.6570460   5.1440030 144.0307540  97.1080560   5.5909330 144.6750280
  98.2789720   4.6389280 144.5545210  93.3245580   4.1030950 145.9272840
  93.7462000   3.9370820 146.7704230  93.4496420   3.2931180 145.4327980
  95.8373220   3.1268560 143.1749940  96.3578880   2.4117580 142.8091090
  96.4841620   3.7654430 143.4750450  96.4021250  11.2080170 145.4651680
  97.2972040  11.5465140 145.4870440  96.4338880  10.4859580 144.8375960
  90.0417410   6.5807220 143.6938680  90.4792280   7.1236890 144.3496260
  90.5265140   5.7554170 143.7035020  87.2563210   9.3696250 151.1458940
  87.5866220   8.5017310 150.9137580  87.6854210   9.5754770 151.9763900
  91.8525130   7.7005260 148.8060910  91.5520670   7.5770230 149.7064820
  91.7462620   6.8413850 148.3976640 104.6217050   7.4801660 143.5087590
 103.7910010   7.5478310 143.9794820 104.7988880   8.3705780 143.2054450
 104.0773510   4.2249140 146.0121790 104.8392420   4.7945790 146.1181480
 104.0927880   3.6576340 146.7830100  87.5777850   2.7487070 150.2429450
  86.9226690   2.4798710 149.5989150  88.4155800   2.6391550 149.7931430
 105.0833480   5.0799240 150.8563720 105.4542310   4.2966560 150.4499690
 105.7235410   5.7688340 150.6781020 104.1292680   4.5183510 143.1694310
 104.4041520   5.4262390 143.0413530 103.9403420   4.4546040 144.1056300
 104.0258020   2.4552500 148.1623740 103.6501620   1.6880430 147.7305030
 103.2961140   2.8375200 148.6498670 102.1243290  11.2154420 149.7962310
 102.7202360  10.8938990 149.1196730 102.3821440  10.7426240 150.5875580
  87.7836120  11.2767350 149.2255520  87.6158160  10.6438030 149.9237410
  86.9170630  11.4826750 148.8749710  89.3898820   9.9700580 146.6705660
  88.8646440  10.3508610 145.9667620  89.3143400  10.5951350 147.3915370
 104.1464140  11.5288120 147.9919600 104.3216330  10.8425860 147.3480520
 103.4485710  12.0535170 147.5996270  91.9891790  11.9182960 145.5454910
  92.7210610  11.6342240 144.9978800  92.2485460  11.6796240 146.4354290
  91.1506580   8.0347690 145.5501240  90.5215460   8.5032790 146.0987070
  91.2654410   7.1896910 145.9847430  96.7374340   3.8632370 133.5811710
  95.9616440   3.3832810 133.8710280  97.3887270   3.1838020 133.4067870
  90.7540170   4.1752180 134.4587470  89.9225050   3.9200890 134.8583980
  91.3621150   4.2462950 135.1945390 100.7581770   8.2692560 132.3610840
 100.2963300   7.4979800 132.6898010 101.5707320   8.2958630 132.8663290
  90.7341430   8.2092270 134.6545490  91.0369470   7.3190010 134.4755710
  91.4785020   8.7662490 134.4267740  96.9845080  10.5550570 131.9814830
  96.3656520  11.0108070 131.4109270  97.8396860  10.7102030 131.5804530
  96.1783330   6.5389560 133.5881870  96.1091610   5.5979500 133.4271000
  96.9403190   6.6290970 134.1604440  97.8508430   5.4389810 129.3746740
  97.2325700   5.9039260 128.8109460  98.3631680   6.1317290 129.7916250
  92.7140190   4.9665680 136.0530340  92.3809570   5.5934600 136.6951410
  92.8906870   5.4927560 135.2732010  91.9259290   6.9346480 137.8679520
  92.5433290   7.6097560 137.5863970  91.0652410   7.3434460 137.7767020
  87.2191630   6.1246340 126.7486370  86.8419610   6.6133440 126.0171270
  87.4764700   6.7971620 127.3792900 102.8436880   8.3985890 135.7834160
 102.1600400   9.0685000 135.7750830 103.3831170   8.5966540 135.0179020
 100.3795620  10.2430020 134.4979340 100.3922780   9.8392310 133.6301600
  99.8270840  11.0177310 134.3940770 101.6741040   6.9646240 129.5869510
 101.5637370   6.0220570 129.7118930 101.6709290   7.3261880 130.4732270
  99.7781060   5.1459860 135.8261950 100.1949850   4.9319970 134.9915410
 100.5020880   5.4032650 136.3970570  97.2161320   2.5911560 128.9432000
  96.2890600   2.5248940 129.1720470  97.3686140   3.5291690 128.8287240
 103.7243160   3.5447080 135.9178190 102.8961790   3.6140170 135.4428320
 104.3193640   4.1301390 135.4494020 101.2458610   4.1531860 129.4467250
 100.6271030   3.8151410 128.7993550 101.2283060   3.5091620 130.1546440
  92.8217960   3.1176300 131.7251730  92.4174960   2.4053550 131.2297630
  92.9081080   2.7729540 132.6139770  93.2899660   6.8043860 133.8890940
  92.9927950   6.1989330 133.2098720  94.2399480   6.8421170 133.7780300
 101.3785270  10.3775730 137.5514040 100.9015830  11.1847920 137.3586650
 100.6947060   9.7254060 137.7040250  92.3818090   6.5425550 140.5398740
  91.4846620   6.7665520 140.7872140  92.4070960   6.6660490 139.5910140
  99.4223310   3.3918670 126.4540000  99.8616590   2.5541100 126.3077820
 100.1351730   4.0248070 126.5404140  91.2089310   3.4138870 139.1156110
  91.0697080   4.2861670 139.4843510  90.3270670   3.0711680 138.9704050
  97.5318690   8.3314740 130.4221240  97.9714600   9.0739070 130.0076630
  97.4705580   8.5741310 131.3460200  93.0069660   9.3560570 141.3241260
  92.9785090   9.7603520 140.4569690  92.8434630   8.4270930 141.1612860
 104.9584480  10.1387670 142.6205430 105.4344200  10.6170560 143.2994510
 105.5791640  10.0705160 141.8950930  87.1607960   5.1836420 135.0327020
  87.2388380   5.3185190 134.0882740  87.7749640   4.4752310 135.2255140
  88.4055590   6.8836610 131.4433200  87.9983670   7.0251200 130.5886800
  89.2968600   6.5996770 131.2404410 104.3617730   7.3300520 139.7805440
 104.4880790   7.0912400 138.8622620 104.4039110   6.4985060 140.2527520
  98.2234470  11.0328520 138.3500250  98.7379140  10.9436530 139.1522680
  97.3803550  11.3788220 138.6428160 100.1988870  11.3183860 127.7784250
 100.0390010  11.0286800 128.6766080 100.0335580  10.5423990 127.2429480
  92.6777250  11.0982390 129.5555870  92.5019730  10.1817930 129.3423670
  91.8232990  11.4569680 129.7953670  99.9015000   8.8271420 126.3382250
  99.2080160   8.8248710 125.6784530 100.6437860   8.4030740 125.9076420
  99.4664930  10.4534130 130.4130740  99.9221880   9.6723510 130.7269360
  99.8057450  11.1640950 130.9571920  87.2167480   6.2250590 137.5721480
  87.3798520   5.7555950 136.7540850  87.6819930   5.7174150 138.2370320
  88.7906460   5.6002020 139.7317290  88.4061250   4.9595690 140.3300250
  89.1018650   6.3038140 140.3012020  94.9403600   2.4478560 135.2125910
  95.3073730   1.9737130 135.9587250  94.7508660   3.3220130 135.5534250
  91.2584760   5.6948190 128.1276970  90.4847020   5.1545810 127.9675690
  91.9879390   5.1754800 127.7894730 102.0172740   4.6913550 133.9203360
 102.7371860   5.1868840 133.5299470 101.8154560   4.0131440 133.2757230
  97.3991540   4.7622610 139.8072360  97.3328850   3.8418280 139.5529950
  96.7696680   4.8598050 140.5217000  91.3022160   5.3628570 131.7655780
  91.8200830   4.5596830 131.7112670  90.8506180   5.3007710 132.6072610
  96.1891660   6.6294850 127.0383080  96.5307360   7.3737080 126.5426400
  95.3604370   6.9425970 127.4007910  91.9879820   2.7874180 141.5621030
  91.6879960   2.9331360 140.6648850  92.7591060   2.2279470 141.4694420
  97.3308270   7.5843180 139.5576160  97.3452810   6.6524140 139.3395070
  96.6233370   7.6702940 140.1965930 102.4645340   1.7683000 125.8274770
 102.3809060   2.1997220 124.9771210 103.1839530   2.2281350 126.2601590
 103.5419480   4.2250520 138.9044740 102.8167670   4.8179300 138.7074130
 104.0694940   4.2174060 138.1058110 103.4932590   8.6225260 128.5556900
 102.8508750   7.9680880 128.8300620 103.1063250   9.0280350 127.7797570
  99.0719070   5.9510690 132.4028590  99.4242890   5.3538820 131.7429960
  98.1881400   5.6254920 132.5736840  95.1582350   6.7108380 129.8099000
  95.8453480   7.2577590 130.1906590  94.3714770   7.2549110 129.8448610
  87.2974750   2.3281200 125.3016080  88.1669600   2.6106000 125.5852000
  86.8065070   3.1417070 125.1864890  94.4609560   3.7154410 129.4224360
  94.9172340   4.5259660 129.6484550  94.1097770   3.3977550 130.2542850
  96.7642170   9.2260750 136.6516660  97.4084390   9.4320130 137.3290080
  97.1271610   8.4649150 136.1987510  98.0374250   7.2293100 135.3694110
  98.6796480   6.5286260 135.4826280  98.5623600   8.0091540 135.1891000
 101.8829970   7.5141720 125.0933250 101.6567550   6.7972160 125.6857890
 101.4926170   7.2654160 124.2555000  99.8111870   8.0288000 138.5730170
 100.1468110   8.6154690 139.2508090  98.8912210   7.8980710 138.8027960
  87.6646000  11.5408580 125.8677710  88.0243640  12.1397920 125.2134980
  87.5238340  12.0868470 126.6412740 101.4646220   5.4313660 126.7547410
 101.1767920   5.8926350 127.5425290 102.2598390   4.9711430 127.0231630
  87.6487860   9.8063440 140.3420110  87.7578980   8.8658180 140.2015500
  86.9968420  10.0718190 139.6933840  95.6400450   8.0779330 141.7418230
  95.3197320   7.3588570 142.2863920  94.9658810   8.7534400 141.8154290
  93.6814620   8.9239780 126.6851380  93.6724720   9.6569470 126.0695890
  92.7612980   8.6771360 126.7778340  89.2821260   4.1454670 127.4298140
  88.6749210   4.8853570 127.4393440  89.7570610   4.2354030 126.6036340
  96.6674220   8.9868020 125.3476570  96.7686200   8.7832010 124.4178550
  95.7675960   8.7326300 125.5524350  95.3092330  11.5054340 130.0424240
  95.5633830  11.4675730 129.1203610  94.3604810  11.3787670 130.0352490
  91.2926550   4.1065820 125.1786710  92.0589820   3.9947180 125.7412140
  91.3701240   3.4103790 124.5263480 103.3170490   9.5955070 133.2937010
 103.4417910  10.4186240 133.7660820 104.1836050   9.3845800 132.9461160
  90.7888020  11.6886280 132.9654140  91.5250500  11.1401740 133.2362710
  91.1728940  12.5542290 132.8260130  87.6733500   7.7559850 128.8395650
  86.7473280   7.9980990 128.8301060  88.1389930   8.5834110 128.7180400
  89.7946300  10.8732350 142.1539720  90.5959030  11.1944400 142.5675120
  89.2798120  10.5127930 142.8759630  93.8990330  10.8616590 124.7879710
  94.6918940  11.1505420 124.3361500  93.3794680  10.4308760 124.1092190
  98.6310930   6.9812220 142.1015130  98.0249090   7.0043820 141.3610880
  98.3265040   6.2495260 142.6382380 100.0611300  10.7092510 140.7124540
 101.0133050  10.6250530 140.6624780  99.9139520  11.3734220 141.3858330
 102.9520500  10.0886720 126.2116450 102.6662010   9.6751860 125.3970630
 102.7540050  11.0174430 126.0916970  87.5144110   3.3605810 141.0975770
  88.0183130   2.7813090 141.6692000  86.7751530   3.6446040 141.6352140
  94.4167730   6.0820000 124.6522060  94.3118370   5.4672350 125.3783440
  94.2491950   5.5585890 123.8685070  94.5682050   4.7676800 140.6311290
  93.8027720   5.3361800 140.5465960  94.7498010   4.4753010 139.7379520
  97.6570460   5.1440030 125.2564050  97.1080560   5.5909330 125.9006790
  98.2789720   4.6389280 125.7801720 101.7105400   6.4982130 141.1886310
 102.4514870   6.8357890 140.6853770 100.9478080   6.6674190 140.6356080
  93.3245580   4.1030950 127.1529350  93.7462000   3.9370820 127.9960740
  93.4496420   3.2931180 126.6584490  95.8373220   3.1268560 124.4006450
  96.3578880   2.4117580 124.0347600  96.4841620   3.7654430 124.7006960
 100.3851060   4.5496960 139.7241520 100.7992080   4.7042040 140.5731940
  99.4502060   4.6752180 139.8867300  95.1466290   4.5017440 137.6937450
  95.5654400   5.3450170 137.5213690  94.2274920   4.6389480 137.4644230
  99.8218090   2.7870810 137.6537800  99.2953310   3.3113430 137.0502940
 100.1649430   3.4198200 138.2847530  92.9973710  10.8070450 138.8095180
  92.4594800  11.5316510 138.4903880  93.2507670  10.3300790 138.0192520
  95.8535920  12.0421660 139.0681830  95.7794620  12.9456800 139.3754200
  94.9514760  11.7233560 139.0403900  96.4021250  11.2080170 126.6908190
  97.2972040  11.5465140 126.7126950  96.4338880  10.4859580 126.0632470
  90.0417410   6.5807220 124.9195190  90.4792280   7.1236890 125.5752770
  90.5265140   5.7554170 124.9291530  87.2563210   9.3696250 132.3715450
  87.5866220   8.5017310 132.1394090  87.6854210   9.5754770 133.2020410
  91.8525130   7.7005260 130.0317420  91.5520670   7.5770230 130.9321330
  91.7462620   6.8413850 129.6233150  87.7453420  10.2366840 135.1097080
  87.3084410  10.4167640 135.9421230  88.3131100  10.9941460 134.9678800
 103.3815600   9.7383840 139.3974390 102.7817590   9.7976400 138.6538310
 103.5109500   8.7988820 139.5271240 104.6217050   7.4801660 124.7344100
 103.7910010   7.5478310 125.2051330 104.7988880   8.3705780 124.4310960
 104.0773510   4.2249140 127.2378300 104.8392420   4.7945790 127.3437990
 104.0927880   3.6576340 128.0086610  87.5777850   2.7487070 131.4685960
  86.9226690   2.4798710 130.8245660  88.4155800   2.6391550 131.0187940
 105.0833480   5.0799240 132.0820230 105.4542310   4.2966560 131.6756200
 105.7235410   5.7688340 131.9037530 102.0667240   6.4635820 137.4950550
 101.2527080   6.8932980 137.7576340 102.4741440   7.0754230 136.8819600
 104.1292680   4.5183510 124.3950820 104.4041520   5.4262390 124.2670040
 103.9403420   4.4546040 125.3312810 104.0258020   2.4552500 129.3880250
 103.6501620   1.6880430 128.9561540 103.2961140   2.8375200 129.8755180
  88.6153780   3.1339640 136.0089300  88.9826820   3.0467040 136.8885320
  88.0464600   2.3706190 135.9096160 102.1243290  11.2154420 131.0218820
 102.7202360  10.8938990 130.3453240 102.3821440  10.7426240 131.8132090
  90.0305860   7.6472330 141.1709450  89.9875490   7.2765240 142.0523910
  90.1616870   8.5849900 141.3111270  93.7311890   9.2031920 136.7719170
  93.4903250   9.4706480 135.8849690  94.6714530   9.3737650 136.8270030
 104.9916050  11.2226300 137.5729810 104.4974330  11.6195170 136.8556940
 104.3829340  10.5975510 137.9667090  89.8693890  10.5934580 138.2907230
  89.2754210  10.4619280 139.0297270  89.8617730   9.7572720 137.8249330
 102.6755500  11.8649720 134.8516550 102.2158470  12.6165530 134.4774570
 102.0467960  11.1456190 134.7931350  89.5006120   7.9592960 137.2415270
  88.7740180   7.3398250 137.1741220  89.5615270   8.3533570 136.3713350
  93.1051220  10.1737960 134.0264680  93.6216240   9.5625320 133.5012940
  93.7548600  10.6766740 134.5175690  95.8446720  11.0646450 134.8533660
  96.1324530  10.8100750 133.9766670  96.3569940  10.5123810 135.4439230
  87.7836120  11.2767350 130.4512030  87.6158160  10.6438030 131.1493920
  86.9170630  11.4826750 130.1006220  89.3898820   9.9700580 127.8962170
  88.8646440  10.3508610 127.1924130  89.3143400  10.5951350 128.6171880
  95.9119080  11.9862550 142.2201860  96.8386390  11.7506820 142.2637820
  95.8969510  12.8134550 141.7387890 104.1464140  11.5288120 129.2176110
 104.3216330  10.8425860 128.5737030 103.4485710  12.0535170 128.8252780
  91.9891790  11.9182960 126.7711420  92.7210610  11.6342240 126.2235310
  92.2485460  11.6796240 127.6610800  91.1506580   8.0347690 126.7757750
  90.5215460   8.5032790 127.3243580  91.2654410   7.1896910 127.2103940
 102.4796640  11.2132410 142.0442900 103.2721960  10.7181640 141.8368860
 102.7729790  11.8922550 142.6518510  96.7374340   3.8632370 114.8068220
  95.9616440   3.3832810 115.0966790  97.3887270   3.1838020 114.6324380
  90.7540170   4.1752180 115.6843980  89.9225050   3.9200890 116.0840490
  91.3621150   4.2462950 116.4201900 100.7581770   8.2692560 113.5867350
 100.2963300   7.4979800 113.9154520 101.5707320   8.2958630 114.0919800
  90.7341430   8.2092270 115.8802000  91.0369470   7.3190010 115.7012220
  91.4785020   8.7662490 115.6524250  96.9845080  10.5550570 113.2071340
  96.3656520  11.0108070 112.6365780  97.8396860  10.7102030 112.8061040
  96.1783330   6.5389560 114.8138380  96.1091610   5.5979500 114.6527510
  96.9403190   6.6290970 115.3860950  97.8508430   5.4389810 110.6003250
  97.2325700   5.9039260 110.0365970  98.3631680   6.1317290 111.0172760
  92.7140190   4.9665680 117.2786850  92.3809570   5.5934600 117.9207920
  92.8906870   5.4927560 116.4988520  91.9259290   6.9346480 119.0936030
  92.5433290   7.6097560 118.8120480  91.0652410   7.3434460 119.0023530
  87.2191630   6.1246340 107.9742880  86.8419610   6.6133440 107.2427780
  87.4764700   6.7971620 108.6049410 102.8436880   8.3985890 117.0090670
 102.1600400   9.0685000 117.0007340 103.3831170   8.5966540 116.2435530
 100.3795620  10.2430020 115.7235850 100.3922780   9.8392310 114.8558110
  99.8270840  11.0177310 115.6197280 101.6741040   6.9646240 110.8126020
 101.5637370   6.0220570 110.9375440 101.6709290   7.3261880 111.6988780
  99.7781060   5.1459860 117.0518460 100.1949850   4.9319970 116.2171920
 100.5020880   5.4032650 117.6227080  97.2161320   2.5911560 110.1688510
  96.2890600   2.5248940 110.3976980  97.3686140   3.5291690 110.0543750
 103.7243160   3.5447080 117.1434700 102.8961790   3.6140170 116.6684830
 104.3193640   4.1301390 116.6750530 101.2458610   4.1531860 110.6723760
 100.6271030   3.8151410 110.0250060 101.2283060   3.5091620 111.3802950
  92.8217960   3.1176300 112.9508240  92.4174960   2.4053550 112.4554140
  92.9081080   2.7729540 113.8396280  93.2899660   6.8043860 115.1147450
  92.9927950   6.1989330 114.4355230  94.2399480   6.8421170 115.0036810
 101.3785270  10.3775730 118.7770550 100.9015830  11.1847920 118.5843160
 100.6947060   9.7254060 118.9296760  92.3818090   6.5425550 121.7655250
  91.4846620   6.7665520 122.0128650  92.4070960   6.6660490 120.8166650
  99.4223310   3.3918670 107.6796510  99.8616590   2.5541100 107.5334330
 100.1351730   4.0248070 107.7660650  91.2089310   3.4138870 120.3412620
  91.0697080   4.2861670 120.7100020  90.3270670   3.0711680 120.1960560
  97.5318690   8.3314740 111.6477750  97.9714600   9.0739070 111.2333140
  97.4705580   8.5741310 112.5716710  93.0069660   9.3560570 122.5497770
  92.9785090   9.7603520 121.6826200  92.8434630   8.4270930 122.3869370
 104.9584480  10.1387670 123.8461940 105.4344200  10.6170560 124.5251020
 105.5791640  10.0705160 123.1207440  87.1607960   5.1836420 116.2583530
  87.2388380   5.3185190 115.3139250  87.7749640   4.4752310 116.4511650
  88.4055590   6.8836610 112.6689710  87.9983670   7.0251200 111.8143310
  89.2968600   6.5996770 112.4660920 104.3617730   7.3300520 121.0061950
 104.4880790   7.0912400 120.0879130 104.4039110   6.4985060 121.4784030
  98.2234470  11.0328520 119.5756760  98.7379140  10.9436530 120.3779190
  97.3803550  11.3788220 119.8684670 100.1988870  11.3183860 109.0040760
 100.0390010  11.0286800 109.9022590 100.0335580  10.5423990 108.4685990
  92.6777250  11.0982390 110.7812380  92.5019730  10.1817930 110.5680180
  91.8232990  11.4569680 111.0210180  99.9015000   8.8271420 107.5638760
  99.2080160   8.8248710 106.9041040 100.6437860   8.4030740 107.1332930
  99.4664930  10.4534130 111.6387250  99.9221880   9.6723510 111.9525870
  99.8057450  11.1640950 112.1828430  87.2167480   6.2250590 118.7977990
  87.3798520   5.7555950 117.9797360  87.6819930   5.7174150 119.4626830
  88.7906460   5.6002020 120.9573800  88.4061250   4.9595690 121.5556760
  89.1018650   6.3038140 121.5268530  94.9403600   2.4478560 116.4382420
  95.3073730   1.9737130 117.1843760  94.7508660   3.3220130 116.7790760
  91.2584760   5.6948190 109.3533480  90.4847020   5.1545810 109.1932200
  91.9879390   5.1754800 109.0151240 102.0172740   4.6913550 115.1459870
 102.7371860   5.1868840 114.7555980 101.8154560   4.0131440 114.5013740
  97.3991540   4.7622610 121.0328870  97.3328850   3.8418280 120.7786460
  96.7696680   4.8598050 121.7473510  91.3022160   5.3628570 112.9912290
  91.8200830   4.5596830 112.9369180  90.8506180   5.3007710 113.8329120
  96.1891660   6.6294850 108.2639590  96.5307360   7.3737080 107.7682910
  95.3604370   6.9425970 108.6264420  91.9879820   2.7874180 122.7877540
  91.6879960   2.9331360 121.8905360  92.7591060   2.2279470 122.6950930
  97.3308270   7.5843180 120.7832670  97.3452810   6.6524140 120.5651580
  96.6233370   7.6702940 121.4222440 102.4645340   1.7683000 107.0531280
 102.3809060   2.1997220 106.2027720 103.1839530   2.2281350 107.4858100
 103.5419480   4.2250520 120.1301250 102.8167670   4.8179300 119.9330640
 104.0694940   4.2174060 119.3314620 103.4932590   8.6225260 109.7813410
 102.8508750   7.9680880 110.0557130 103.1063250   9.0280350 109.0054080
  99.0719070   5.9510690 113.6285100  99.4242890   5.3538820 112.9686470
  98.1881400   5.6254920 113.7993350  95.1582350   6.7108380 111.0355510
  95.8453480   7.2577590 111.4163100  94.3714770   7.2549110 111.0705120
  87.2974750   2.3281200 106.5272590  88.1669600   2.6106000 106.8108510
  86.8065070   3.1417070 106.4121400  94.4609560   3.7154410 110.6480870
  94.9172340   4.5259660 110.8741060  94.1097770   3.3977550 111.4799360
  96.7642170   9.2260750 117.8773170  97.4084390   9.4320130 118.5546590
  97.1271610   8.4649150 117.4244020  98.0374250   7.2293100 116.5950620
  98.6796480   6.5286260 116.7082790  98.5623600   8.0091540 116.4147510
 101.8829970   7.5141720 106.3189760 101.6567550   6.7972160 106.9114400
 101.4926170   7.2654160 105.4811510  99.8111870   8.0288000 119.7986680
 100.1468110   8.6154690 120.4764600  98.8912210   7.8980710 120.0284470
  87.6646000  11.5408580 107.0934220  88.0243640  12.1397920 106.4391490
  87.5238340  12.0868470 107.8669250 101.4646220   5.4313660 107.9803920
 101.1767920   5.8926350 108.7681800 102.2598390   4.9711430 108.2488140
  87.6487860   9.8063440 121.5676620  87.7578980   8.8658180 121.4272010
  86.9968420  10.0718190 120.9190350  95.6400450   8.0779330 122.9674740
  95.3197320   7.3588570 123.5120430  94.9658810   8.7534400 123.0410800
  93.6814620   8.9239780 107.9107890  93.6724720   9.6569470 107.2952400
  92.7612980   8.6771360 108.0034850  89.2821260   4.1454670 108.6554650
  88.6749210   4.8853570 108.6649950  89.7570610   4.2354030 107.8292850
  96.6674220   8.9868020 106.5733080  96.7686200   8.7832010 105.6435060
  95.7675960   8.7326300 106.7780860  95.3092330  11.5054340 111.2680750
  95.5633830  11.4675730 110.3460120  94.3604810  11.3787670 111.2609000
  91.2926550   4.1065820 106.4043220  92.0589820   3.9947180 106.9668650
  91.3701240   3.4103790 105.7519990 103.3170490   9.5955070 114.5193520
 103.4417910  10.4186240 114.9917330 104.1836050   9.3845800 114.1717670
  90.7888020  11.6886280 114.1910650  91.5250500  11.1401740 114.4619220
  91.1728940  12.5542290 114.0516640  87.6733500   7.7559850 110.0652160
  86.7473280   7.9980990 110.0557570  88.1389930   8.5834110 109.9436910
  89.7946300  10.8732350 123.3796230  90.5959030  11.1944400 123.7931630
  89.2798120  10.5127930 124.1016140  93.8990330  10.8616590 106.0136220
  94.6918940  11.1505420 105.5618010  93.3794680  10.4308760 105.3348700
  98.6310930   6.9812220 123.3271640  98.0249090   7.0043820 122.5867390
  98.3265040   6.2495260 123.8638890 100.0611300  10.7092510 121.9381050
 101.0133050  10.6250530 121.8881290  99.9139520  11.3734220 122.6114840
 102.9520500  10.0886720 107.4372960 102.6662010   9.6751860 106.6227140
 102.7540050  11.0174430 107.3173480  87.5144110   3.3605810 122.3232280
  88.0183130   2.7813090 122.8948510  86.7751530   3.6446040 122.8608650
  94.4167730   6.0820000 105.8778570  94.3118370   5.4672350 106.6039950
  94.2491950   5.5585890 105.0941580  94.5682050   4.7676800 121.8567800
  93.8027720   5.3361800 121.7722470  94.7498010   4.4753010 120.9636030
  97.6570460   5.1440030 106.4820560  97.1080560   5.5909330 107.1263300
  98.2789720   4.6389280 107.0058230 101.7105400   6.4982130 122.4142820
 102.4514870   6.8357890 121.9110280 100.9478080   6.6674190 121.8612590
  93.3245580   4.1030950 108.3785860  93.7462000   3.9370820 109.2217250
  93.4496420   3.2931180 107.8841000  95.8373220   3.1268560 105.6262960
  96.3578880   2.4117580 105.2604110  96.4841620   3.7654430 105.9263470
 100.3851060   4.5496960 120.9498030 100.7992080   4.7042040 121.7988450
  99.4502060   4.6752180 121.1123810  95.1466290   4.5017440 118.9193960
  95.5654400   5.3450170 118.7470200  94.2274920   4.6389480 118.6900740
  99.8218090   2.7870810 118.8794310  99.2953310   3.3113430 118.2759450
 100.1649430   3.4198200 119.5104040  92.9973710  10.8070450 120.0351690
  92.4594800  11.5316510 119.7160390  93.2507670  10.3300790 119.2449030
  95.8535920  12.0421660 120.2938340  95.7794620  12.9456800 120.6010710
  94.9514760  11.7233560 120.2660410  96.4021250  11.2080170 107.9164700
  97.2972040  11.5465140 107.9383460  96.4338880  10.4859580 107.2888980
  90.0417410   6.5807220 106.1451700  90.4792280   7.1236890 106.8009280
  90.5265140   5.7554170 106.1548040  87.2563210   9.3696250 113.5971960
  87.5866220   8.5017310 113.3650600  87.6854210   9.5754770 114.4276920
  91.8525130   7.7005260 111.2573930  91.5520670   7.5770230 112.1577840
  91.7462620   6.8413850 110.8489660  87.7453420  10.2366840 116.3353590
  87.3084410  10.4167640 117.1677740  88.3131100  10.9941460 116.1935310
 103.3815600   9.7383840 120.6230900 102.7817590   9.7976400 119.8794820
 103.5109500   8.7988820 120.7527750 104.6217050   7.4801660 105.9600610
 103.7910010   7.5478310 106.4307840 104.7988880   8.3705780 105.6567470
 104.0773510   4.2249140 108.4634810 104.8392420   4.7945790 108.5694500
 104.0927880   3.6576340 109.2343120  87.5777850   2.7487070 112.6942470
  86.9226690   2.4798710 112.0502170  88.4155800   2.6391550 112.2444450
 105.0833480   5.0799240 113.3076740 105.4542310   4.2966560 112.9012710
 105.7235410   5.7688340 113.1294040 102.0667240   6.4635820 118.7207060
 101.2527080   6.8932980 118.9832850 102.4741440   7.0754230 118.1076110
 104.1292680   4.5183510 105.6207330 104.4041520   5.4262390 105.4926550
 103.9403420   4.4546040 106.5569320 104.0258020   2.4552500 110.6136760
 103.6501620   1.6880430 110.1818050 103.2961140   2.8375200 111.1011690
  88.6153780   3.1339640 117.2345810  88.9826820   3.0467040 118.1141830
  88.0464600   2.3706190 117.1352670 102.1243290  11.2154420 112.2475330
 102.7202360  10.8938990 111.5709750 102.3821440  10.7426240 113.0388600
  90.0305860   7.6472330 122.3965960  89.9875490   7.2765240 123.2780420
  90.1616870   8.5849900 122.5367780  93.7311890   9.2031920 117.9975680
  93.4903250   9.4706480 117.1106200  94.6714530   9.3737650 118.0526540
 104.9916050  11.2226300 118.7986320 104.4974330  11.6195170 118.0813450
 104.3829340  10.5975510 119.1923600  89.8693890  10.5934580 119.5163740
  89.2754210  10.4619280 120.2553780  89.8617730   9.7572720 119.0505840
 102.6755500  11.8649720 116.0773060 102.2158470  12.6165530 115.7031080
 102.0467960  11.1456190 116.0187860  89.5006120   7.9592960 118.4671780
  88.7740180   7.3398250 118.3997730  89.5615270   8.3533570 117.5969860
  93.1051220  10.1737960 115.2521190  93.6216240   9.5625320 114.7269450
  93.7548600  10.6766740 115.7432200  95.8446720  11.0646450 116.0790170
  96.1324530  10.8100750 115.2023180  96.3569940  10.5123810 116.6695740
  87.7836120  11.2767350 111.6768540  87.6158160  10.6438030 112.3750430
  86.9170630  11.4826750 111.3262730  89.3898820   9.9700580 109.1218680
  88.8646440  10.3508610 108.4180640  89.3143400  10.5951350 109.8428390
  95.9119080  11.9862550 123.4458370  96.8386390  11.7506820 123.4894330
  95.8969510  12.8134550 122.9644400 104.1464140  11.5288120 110.4432620
 104.3216330  10.8425860 109.7993540 103.4485710  12.0535170 110.0509290
  91.9891790  11.9182960 107.9967930  92.7210610  11.6342240 107.4491820
  92.2485460  11.6796240 108.8867310  91.1506580   8.0347690 108.0014260
  90.5215460   8.5032790 108.5500090  91.2654410   7.1896910 108.4360450
 102.4796640  11.2132410 123.2699410 103.2721960  10.7181640 123.0625370
 102.7729790  11.8922550 123.8775020  96.7374340   3.8632370  96.0324730
  95.9616440   3.3832810  96.3223300  97.3887270   3.1838020  95.8580890
  90.7540170   4.1752180  96.9100490  89.9225050   3.9200890  97.3097000
  91.3621150   4.2462950  97.6458410 100.7581770   8.2692560  94.8123860
 100.2963300   7.4979800  95.1411030 101.5707320   8.2958630  95.3176310
  90.7341430   8.2092270  97.1058510  91.0369470   7.3190010  96.9268730
  91.4785020   8.7662490  96.8780760  96.9845080  10.5550570  94.4327850
  96.3656520  11.0108070  93.8622290  97.8396860  10.7102030  94.0317550
  96.1783330   6.5389560  96.0394890  96.1091610   5.5979500  95.8784020
  96.9403190   6.6290970  96.6117460  97.8508430   5.4389810  91.8259760
  97.2325700   5.9039260  91.2622480  98.3631680   6.1317290  92.2429270
  92.7140190   4.9665680  98.5043360  92.3809570   5.5934600  99.1464430
  92.8906870   5.4927560  97.7245030  91.9259290   6.9346480 100.3192540
  92.5433290   7.6097560 100.0376990  91.0652410   7.3434460 100.2280040
  87.2191630   6.1246340  89.1999390  86.8419610   6.6133440  88.4684290
  87.4764700   6.7971620  89.8305920 102.8436880   8.3985890  98.2347180
 102.1600400   9.0685000  98.2263850 103.3831170   8.5966540  97.4692040
 100.3795620  10.2430020  96.9492360 100.3922780   9.8392310  96.0814620
  99.8270840  11.0177310  96.8453790 101.6741040   6.9646240  92.0382530
 101.5637370   6.0220570  92.1631950 101.6709290   7.3261880  92.9245290
  99.7781060   5.1459860  98.2774970 100.1949850   4.9319970  97.4428430
 100.5020880   5.4032650  98.8483590  97.2161320   2.5911560  91.3945020
  96.2890600   2.5248940  91.6233490  97.3686140   3.5291690  91.2800260
 103.7243160   3.5447080  98.3691210 102.8961790   3.6140170  97.8941340
 104.3193640   4.1301390  97.9007040 101.2458610   4.1531860  91.8980270
 100.6271030   3.8151410  91.2506570 101.2283060   3.5091620  92.6059460
  92.8217960   3.1176300  94.1764750  92.4174960   2.4053550  93.6810650
  92.9081080   2.7729540  95.0652790  93.2899660   6.8043860  96.3403960
  92.9927950   6.1989330  95.6611740  94.2399480   6.8421170  96.2293320
 101.3785270  10.3775730 100.0027060 100.9015830  11.1847920  99.8099670
 100.6947060   9.7254060 100.1553270  92.3818090   6.5425550 102.9911760
  91.4846620   6.7665520 103.2385160  92.4070960   6.6660490 102.0423160
  99.4223310   3.3918670  88.9053020  99.8616590   2.5541100  88.7590840
 100.1351730   4.0248070  88.9917160  91.2089310   3.4138870 101.5669130
  91.0697080   4.2861670 101.9356530  90.3270670   3.0711680 101.4217070
  97.5318690   8.3314740  92.8734260  97.9714600   9.0739070  92.4589650
  97.4705580   8.5741310  93.7973220  93.0069660   9.3560570 103.7754280
  92.9785090   9.7603520 102.9082710  92.8434630   8.4270930 103.6125880
 104.9584480  10.1387670 105.0718450 105.4344200  10.6170560 105.7507530
 105.5791640  10.0705160 104.3463950  87.1607960   5.1836420  97.4840040
  87.2388380   5.3185190  96.5395760  87.7749640   4.4752310  97.6768160
  88.4055590   6.8836610  93.8946220  87.9983670   7.0251200  93.0399820
  89.2968600   6.5996770  93.6917430 104.3617730   7.3300520 102.2318460
 104.4880790   7.0912400 101.3135640 104.4039110   6.4985060 102.7040540
  98.2234470  11.0328520 100.8013270  98.7379140  10.9436530 101.6035700
  97.3803550  11.3788220 101.0941180 100.1988870  11.3183860  90.2297270
 100.0390010  11.0286800  91.1279100 100.0335580  10.5423990  89.6942500
  92.6777250  11.0982390  92.0068890  92.5019730  10.1817930  91.7936690
  91.8232990  11.4569680  92.2466690  99.9015000   8.8271420  88.7895270
  99.2080160   8.8248710  88.1297550 100.6437860   8.4030740  88.3589440
  99.4664930  10.4534130  92.8643760  99.9221880   9.6723510  93.1782380
  99.8057450  11.1640950  93.4084940  87.2167480   6.2250590 100.0234500
  87.3798520   5.7555950  99.2053870  87.6819930   5.7174150 100.6883340
  88.7906460   5.6002020 102.1830310  88.4061250   4.9595690 102.7813270
  89.1018650   6.3038140 102.7525040  94.9403600   2.4478560  97.6638930
  95.3073730   1.9737130  98.4100270  94.7508660   3.3220130  98.0047270
  91.2584760   5.6948190  90.5789990  90.4847020   5.1545810  90.4188710
  91.9879390   5.1754800  90.2407750 102.0172740   4.6913550  96.3716380
 102.7371860   5.1868840  95.9812490 101.8154560   4.0131440  95.7270250
  97.3991540   4.7622610 102.2585380  97.3328850   3.8418280 102.0042970
  96.7696680   4.8598050 102.9730020  91.3022160   5.3628570  94.2168800
  91.8200830   4.5596830  94.1625690  90.8506180   5.3007710  95.0585630
  96.1891660   6.6294850  89.4896100  96.5307360   7.3737080  88.9939420
  95.3604370   6.9425970  89.8520930  91.9879820   2.7874180 104.0134050
  91.6879960   2.9331360 103.1161870  92.7591060   2.2279470 103.9207440
  97.3308270   7.5843180 102.0089180  97.3452810   6.6524140 101.7908090
  96.6233370   7.6702940 102.6478950 102.4645340   1.7683000  88.2787790
 102.3809060   2.1997220  87.4284230 103.1839530   2.2281350  88.7114610
 103.5419480   4.2250520 101.3557760 102.8167670   4.8179300 101.1587150
 104.0694940   4.2174060 100.5571130 103.4932590   8.6225260  91.0069920
 102.8508750   7.9680880  91.2813640 103.1063250   9.0280350  90.2310590
  99.0719070   5.9510690  94.8541610  99.4242890   5.3538820  94.1942980
  98.1881400   5.6254920  95.0249860  95.1582350   6.7108380  92.2612020
  95.8453480   7.2577590  92.6419610  94.3714770   7.2549110  92.2961630
  87.2974750   2.3281200  87.7529100  88.1669600   2.6106000  88.0365020
  86.8065070   3.1417070  87.6377910  94.4609560   3.7154410  91.8737380
  94.9172340   4.5259660  92.0997570  94.1097770   3.3977550  92.7055870
  96.7642170   9.2260750  99.1029680  97.4084390   9.4320130  99.7803100
  97.1271610   8.4649150  98.6500530  98.0374250   7.2293100  97.8207130
  98.6796480   6.5286260  97.9339300  98.5623600   8.0091540  97.6404020
 101.8829970   7.5141720  87.5446270 101.6567550   6.7972160  88.1370910
 101.4926170   7.2654160  86.7068020  99.8111870   8.0288000 101.0243190
 100.1468110   8.6154690 101.7021110  98.8912210   7.8980710 101.2540980
  87.6646000  11.5408580  88.3190730  88.0243640  12.1397920  87.6648000
  87.5238340  12.0868470  89.0925760 101.4646220   5.4313660  89.2060430
 101.1767920   5.8926350  89.9938310 102.2598390   4.9711430  89.4744650
  87.6487860   9.8063440 102.7933130  87.7578980   8.8658180 102.6528520
  86.9968420  10.0718190 102.1446860  95.6400450   8.0779330 104.1931250
  95.3197320   7.3588570 104.7376940  94.9658810   8.7534400 104.2667310
  93.6814620   8.9239780  89.1364400  93.6724720   9.6569470  88.5208910
  92.7612980   8.6771360  89.2291360  89.2821260   4.1454670  89.8811160
  88.6749210   4.8853570  89.8906460  89.7570610   4.2354030  89.0549360
  96.6674220   8.9868020  87.7989590  96.7686200   8.7832010  86.8691570
  95.7675960   8.7326300  88.0037370  95.3092330  11.5054340  92.4937260
  95.5633830  11.4675730  91.5716630  94.3604810  11.3787670  92.4865510
  91.2926550   4.1065820  87.6299730  92.0589820   3.9947180  88.1925160
  91.3701240   3.4103790  86.9776500 103.3170490   9.5955070  95.7450030
 103.4417910  10.4186240  96.2173840 104.1836050   9.3845800  95.3974180
  90.7888020  11.6886280  95.4167160  91.5250500  11.1401740  95.6875730
  91.1728940  12.5542290  95.2773150  87.6733500   7.7559850  91.2908670
  86.7473280   7.9980990  91.2814080  88.1389930   8.5834110  91.1693420
  89.7946300  10.8732350 104.6052740  90.5959030  11.1944400 105.0188140
  89.2798120  10.5127930 105.3272650  93.8990330  10.8616590  87.2392730
  94.6918940  11.1505420  86.7874520  93.3794680  10.4308760  86.5605210
  98.6310930   6.9812220 104.5528150  98.0249090   7.0043820 103.8123900
  98.3265040   6.2495260 105.0895400 100.0611300  10.7092510 103.1637560
 101.0133050  10.6250530 103.1137800  99.9139520  11.3734220 103.8371350
 102.9520500  10.0886720  88.6629470 102.6662010   9.6751860  87.8483650
 102.7540050  11.0174430  88.5429990  87.5144110   3.3605810 103.5488790
  88.0183130   2.7813090 104.1205020  86.7751530   3.6446040 104.0865160
  94.4167730   6.0820000  87.1035080  94.3118370   5.4672350  87.8296460
  94.2491950   5.5585890  86.3198090  94.5682050   4.7676800 103.0824310
  93.8027720   5.3361800 102.9978980  94.7498010   4.4753010 102.1892540
  97.6570460   5.1440030  87.7077070  97.1080560   5.5909330  88.3519810
  98.2789720   4.6389280  88.2314740 101.7105400   6.4982130 103.6399330
 102.4514870   6.8357890 103.1366790 100.9478080   6.6674190 103.0869100
  93.3245580   4.1030950  89.6042370  93.7462000   3.9370820  90.4473760
  93.4496420   3.2931180  89.1097510  95.8373220   3.1268560  86.8519470
  96.3578880   2.4117580  86.4860620  96.4841620   3.7654430  87.1519980
 100.3851060   4.5496960 102.1754540 100.7992080   4.7042040 103.0244960
  99.4502060   4.6752180 102.3380320  95.1466290   4.5017440 100.1450470
  95.5654400   5.3450170  99.9726710  94.2274920   4.6389480  99.9157250
  99.8218090   2.7870810 100.1050820  99.2953310   3.3113430  99.5015960
 100.1649430   3.4198200 100.7360550  92.9973710  10.8070450 101.2608200
  92.4594800  11.5316510 100.9416900  93.2507670  10.3300790 100.4705540
  95.8535920  12.0421660 101.5194850  95.7794620  12.9456800 101.8267220
  94.9514760  11.7233560 101.4916920  96.4021250  11.2080170  89.1421210
  97.2972040  11.5465140  89.1639970  96.4338880  10.4859580  88.5145490
  90.0417410   6.5807220  87.3708210  90.4792280   7.1236890  88.0265790
  90.5265140   5.7554170  87.3804550  87.2563210   9.3696250  94.8228470
  87.5866220   8.5017310  94.5907110  87.6854210   9.5754770  95.6533430
  91.8525130   7.7005260  92.4830440  91.5520670   7.5770230  93.3834350
  91.7462620   6.8413850  92.0746170  87.7453420  10.2366840  97.5610100
  87.3084410  10.4167640  98.3934250  88.3131100  10.9941460  97.4191820
 103.3815600   9.7383840 101.8487410 102.7817590   9.7976400 101.1051330
 103.5109500   8.7988820 101.9784260 104.6217050   7.4801660  87.1857120
 103.7910010   7.5478310  87.6564350 104.7988880   8.3705780  86.8823980
 104.0773510   4.2249140  89.6891320 104.8392420   4.7945790  89.7951010
 104.0927880   3.6576340  90.4599630  87.5777850   2.7487070  93.9198980
  86.9226690   2.4798710  93.2758680  88.4155800   2.6391550  93.4700960
 105.0833480   5.0799240  94.5333250 105.4542310   4.2966560  94.1269220
 105.7235410   5.7688340  94.3550550 102.0667240   6.4635820  99.9463570
 101.2527080   6.8932980 100.2089360 102.4741440   7.0754230  99.3332620
 104.1292680   4.5183510  86.8463840 104.4041520   5.4262390  86.7183060
 103.9403420   4.4546040  87.7825830 104.0258020   2.4552500  91.8393270
 103.6501620   1.6880430  91.4074560 103.2961140   2.8375200  92.3268200
  88.6153780   3.1339640  98.4602320  88.9826820   3.0467040  99.3398340
  88.0464600   2.3706190  98.3609180 102.1243290  11.2154420  93.4731840
 102.7202360  10.8938990  92.7966260 102.3821440  10.7426240  94.2645110
  90.0305860   7.6472330 103.6222470  89.9875490   7.2765240 104.5036930
  90.1616870   8.5849900 103.7624290  93.7311890   9.2031920  99.2232190
  93.4903250   9.4706480  98.3362710  94.6714530   9.3737650  99.2783050
 104.9916050  11.2226300 100.0242830 104.4974330  11.6195170  99.3069960
 104.3829340  10.5975510 100.4180110  89.8693890  10.5934580 100.7420250
  89.2754210  10.4619280 101.4810290  89.8617730   9.7572720 100.2762350
 102.6755500  11.8649720  97.3029570 102.2158470  12.6165530  96.9287590
 102.0467960  11.1456190  97.2444370  89.5006120   7.9592960  99.6928290
  88.7740180   7.3398250  99.6254240  89.5615270   8.3533570  98.8226370
  93.1051220  10.1737960  96.4777700  93.6216240   9.5625320  95.9525960
  93.7548600  10.6766740  96.9688710  95.8446720  11.0646450  97.3046680
  96.1324530  10.8100750  96.4279690  96.3569940  10.5123810  97.8952250
  87.7836120  11.2767350  92.9025050  87.6158160  10.6438030  93.6006940
  86.9170630  11.4826750  92.5519240  89.3898820   9.9700580  90.3475190
  88.8646440  10.3508610  89.6437150  89.3143400  10.5951350  91.0684900
  95.9119080  11.9862550 104.6714880  96.8386390  11.7506820 104.7150840
  95.8969510  12.8134550 104.1900910 104.1464140  11.5288120  91.6689130
 104.3216330  10.8425860  91.0250050 103.4485710  12.0535170  91.2765800
  91.9891790  11.9182960  89.2224440  92.7210610  11.6342240  88.6748330
  92.2485460  11.6796240  90.1123820  91.1506580   8.0347690  89.2270770
  90.5215460   8.5032790  89.7756600  91.2654410   7.1896910  89.6616960
 102.4796640  11.2132410 104.4955920 103.2721960  10.7181640 104.2881880
 102.7729790  11.8922550 105.1031530  96.7374340   3.8632370  77.2581240
  95.9616440   3.3832810  77.5479810  97.3887270   3.1838020  77.0837400
  90.7540170   4.1752180  78.1357000  89.9225050   3.9200890  78.5353510
  91.3621150   4.2462950  78.8714920 100.7581770   8.2692560  76.0380370
 100.2963300   7.4979800  76.3667540 101.5707320   8.2958630  76.5432820
  90.7341430   8.2092270  78.3315020  91.0369470   7.3190010  78.1525240
  91.4785020   8.7662490  78.1037270  96.9845080  10.5550570  75.6584360
  96.3656520  11.0108070  75.0878800  97.8396860  10.7102030  75.2574060
  96.1783330   6.5389560  77.2651400  96.1091610   5.5979500  77.1040530
  96.9403190   6.6290970  77.8373970  97.8508430   5.4389810  73.0516270
  97.2325700   5.9039260  72.4878990  98.3631680   6.1317290  73.4685780
  92.7140190   4.9665680  79.7299870  92.3809570   5.5934600  80.3720940
  92.8906870   5.4927560  78.9501540  91.9259290   6.9346480  81.5449050
  92.5433290   7.6097560  81.2633500  91.0652410   7.3434460  81.4536550
  87.2191630   6.1246340  70.4255900  86.8419610   6.6133440  69.6940800
  87.4764700   6.7971620  71.0562430 102.8436880   8.3985890  79.4603690
 102.1600400   9.0685000  79.4520360 103.3831170   8.5966540  78.6948550
 100.3795620  10.2430020  78.1748870 100.3922780   9.8392310  77.3071130
  99.8270840  11.0177310  78.0710300 101.6741040   6.9646240  73.2639040
 101.5637370   6.0220570  73.3888460 101.6709290   7.3261880  74.1501800
  99.7781060   5.1459860  79.5031480 100.1949850   4.9319970  78.6684940
 100.5020880   5.4032650  80.0740100  97.2161320   2.5911560  72.6201530
  96.2890600   2.5248940  72.8490000  97.3686140   3.5291690  72.5056770
 103.7243160   3.5447080  79.5947720 102.8961790   3.6140170  79.1197850
 104.3193640   4.1301390  79.1263550 101.2458610   4.1531860  73.1236780
 100.6271030   3.8151410  72.4763080 101.2283060   3.5091620  73.8315970
  92.8217960   3.1176300  75.4021260  92.4174960   2.4053550  74.9067160
  92.9081080   2.7729540  76.2909300  93.2899660   6.8043860  77.5660470
  92.9927950   6.1989330  76.8868250  94.2399480   6.8421170  77.4549830
 101.3785270  10.3775730  81.2283570 100.9015830  11.1847920  81.0356180
 100.6947060   9.7254060  81.3809780  92.3818090   6.5425550  84.2168270
  91.4846620   6.7665520  84.4641670  92.4070960   6.6660490  83.2679670
  99.4223310   3.3918670  70.1309530  99.8616590   2.5541100  69.9847350
 100.1351730   4.0248070  70.2173670  91.2089310   3.4138870  82.7925640
  91.0697080   4.2861670  83.1613040  90.3270670   3.0711680  82.6473580
  97.5318690   8.3314740  74.0990770  97.9714600   9.0739070  73.6846160
  97.4705580   8.5741310  75.0229730  93.0069660   9.3560570  85.0010790
  92.9785090   9.7603520  84.1339220  92.8434630   8.4270930  84.8382390
 104.9584480  10.1387670  86.2974960 105.4344200  10.6170560  86.9764040
 105.5791640  10.0705160  85.5720460  87.1607960   5.1836420  78.7096550
  87.2388380   5.3185190  77.7652270  87.7749640   4.4752310  78.9024670
  88.4055590   6.8836610  75.1202730  87.9983670   7.0251200  74.2656330
  89.2968600   6.5996770  74.9173940 104.3617730   7.3300520  83.4574970
 104.4880790   7.0912400  82.5392150 104.4039110   6.4985060  83.9297050
  98.2234470  11.0328520  82.0269780  98.7379140  10.9436530  82.8292210
  97.3803550  11.3788220  82.3197690 100.1988870  11.3183860  71.4553780
 100.0390010  11.0286800  72.3535610 100.0335580  10.5423990  70.9199010
  92.6777250  11.0982390  73.2325400  92.5019730  10.1817930  73.0193200
  91.8232990  11.4569680  73.4723200  99.9015000   8.8271420  70.0151780
  99.2080160   8.8248710  69.3554060 100.6437860   8.4030740  69.5845950
  99.4664930  10.4534130  74.0900270  99.9221880   9.6723510  74.4038890
  99.8057450  11.1640950  74.6341450  87.2167480   6.2250590  81.2491010
  87.3798520   5.7555950  80.4310380  87.6819930   5.7174150  81.9139850
  88.7906460   5.6002020  83.4086820  88.4061250   4.9595690  84.0069780
  89.1018650   6.3038140  83.9781550  94.9403600   2.4478560  78.8895440
  95.3073730   1.9737130  79.6356780  94.7508660   3.3220130  79.2303780
  91.2584760   5.6948190  71.8046500  90.4847020   5.1545810  71.6445220
  91.9879390   5.1754800  71.4664260 102.0172740   4.6913550  77.5972890
 102.7371860   5.1868840  77.2069000 101.8154560   4.0131440  76.9526760
  97.3991540   4.7622610  83.4841890  97.3328850   3.8418280  83.2299480
  96.7696680   4.8598050  84.1986530  91.3022160   5.3628570  75.4425310
  91.8200830   4.5596830  75.3882200  90.8506180   5.3007710  76.2842140
  96.1891660   6.6294850  70.7152610  96.5307360   7.3737080  70.2195930
  95.3604370   6.9425970  71.0777440  91.9879820   2.7874180  85.2390560
  91.6879960   2.9331360  84.3418380  92.7591060   2.2279470  85.1463950
  97.3308270   7.5843180  83.2345690  97.3452810   6.6524140  83.0164600
  96.6233370   7.6702940  83.8735460 102.4645340   1.7683000  69.5044300
 102.3809060   2.1997220  68.6540740 103.1839530   2.2281350  69.9371120
 103.5419480   4.2250520  82.5814270 102.8167670   4.8179300  82.3843660
 104.0694940   4.2174060  81.7827640 103.4932590   8.6225260  72.2326430
 102.8508750   7.9680880  72.5070150 103.1063250   9.0280350  71.4567100
  99.0719070   5.9510690  76.0798120  99.4242890   5.3538820  75.4199490
  98.1881400   5.6254920  76.2506370  95.1582350   6.7108380  73.4868530
  95.8453480   7.2577590  73.8676120  94.3714770   7.2549110  73.5218140
  87.2974750   2.3281200  68.9785610  88.1669600   2.6106000  69.2621530
  86.8065070   3.1417070  68.8634420  94.4609560   3.7154410  73.0993890
  94.9172340   4.5259660  73.3254080  94.1097770   3.3977550  73.9312380
  96.7642170   9.2260750  80.3286190  97.4084390   9.4320130  81.0059610
  97.1271610   8.4649150  79.8757040  98.0374250   7.2293100  79.0463640
  98.6796480   6.5286260  79.1595810  98.5623600   8.0091540  78.8660530
 101.8829970   7.5141720  68.7702780 101.6567550   6.7972160  69.3627420
 101.4926170   7.2654160  67.9324530  99.8111870   8.0288000  82.2499700
 100.1468110   8.6154690  82.9277620  98.8912210   7.8980710  82.4797490
  87.6646000  11.5408580  69.5447240  88.0243640  12.1397920  68.8904510
  87.5238340  12.0868470  70.3182270 101.4646220   5.4313660  70.4316940
 101.1767920   5.8926350  71.2194820 102.2598390   4.9711430  70.7001160
  87.6487860   9.8063440  84.0189640  87.7578980   8.8658180  83.8785030
  86.9968420  10.0718190  83.3703370  95.6400450   8.0779330  85.4187760
  95.3197320   7.3588570  85.9633450  94.9658810   8.7534400  85.4923820
  93.6814620   8.9239780  70.3620910  93.6724720   9.6569470  69.7465420
  92.7612980   8.6771360  70.4547870  89.2821260   4.1454670  71.1067670
  88.6749210   4.8853570  71.1162970  89.7570610   4.2354030  70.2805870
  96.6674220   8.9868020  69.0246100  96.7686200   8.7832010  68.0948080
  95.7675960   8.7326300  69.2293880  95.3092330  11.5054340  73.7193770
  95.5633830  11.4675730  72.7973140  94.3604810  11.3787670  73.7122020
  91.2926550   4.1065820  68.8556240  92.0589820   3.9947180  69.4181670
  91.3701240   3.4103790  68.2033010 103.3170490   9.5955070  76.9706540
 103.4417910  10.4186240  77.4430350 104.1836050   9.3845800  76.6230690
  90.7888020  11.6886280  76.6423670  91.5250500  11.1401740  76.9132240
  91.1728940  12.5542290  76.5029660  87.6733500   7.7559850  72.5165180
  86.7473280   7.9980990  72.5070590  88.1389930   8.5834110  72.3949930
  89.7946300  10.8732350  85.8309250  90.5959030  11.1944400  86.2444650
  89.2798120  10.5127930  86.5529160  93.8990330  10.8616590  68.4649240
  94.6918940  11.1505420  68.0131030  93.3794680  10.4308760  67.7861720
  98.6310930   6.9812220  85.7784660  98.0249090   7.0043820  85.0380410
  98.3265040   6.2495260  86.3151910 100.0611300  10.7092510  84.3894070
 101.0133050  10.6250530  84.3394310  99.9139520  11.3734220  85.0627860
 102.9520500  10.0886720  69.8885980 102.6662010   9.6751860  69.0740160
 102.7540050  11.0174430  69.7686500  87.5144110   3.3605810  84.7745300
  88.0183130   2.7813090  85.3461530  86.7751530   3.6446040  85.3121670
  94.4167730   6.0820000  68.3291590  94.3118370   5.4672350  69.0552970
  94.2491950   5.5585890  67.5454600  94.5682050   4.7676800  84.3080820
  93.8027720   5.3361800  84.2235490  94.7498010   4.4753010  83.4149050
  97.6570460   5.1440030  68.9333580  97.1080560   5.5909330  69.5776320
  98.2789720   4.6389280  69.4571250 101.7105400   6.4982130  84.8655840
 102.4514870   6.8357890  84.3623300 100.9478080   6.6674190  84.3125610
  93.3245580   4.1030950  70.8298880  93.7462000   3.9370820  71.6730270
  93.4496420   3.2931180  70.3354020  95.8373220   3.1268560  68.0775980
  96.3578880   2.4117580  67.7117130  96.4841620   3.7654430  68.3776490
 100.3851060   4.5496960  83.4011050 100.7992080   4.7042040  84.2501470
  99.4502060   4.6752180  83.5636830  95.1466290   4.5017440  81.3706980
  95.5654400   5.3450170  81.1983220  94.2274920   4.6389480  81.1413760
  99.8218090   2.7870810  81.3307330  99.2953310   3.3113430  80.7272470
 100.1649430   3.4198200  81.9617060  92.9973710  10.8070450  82.4864710
  92.4594800  11.5316510  82.1673410  93.2507670  10.3300790  81.6962050
  95.8535920  12.0421660  82.7451360  95.7794620  12.9456800  83.0523730
  94.9514760  11.7233560  82.7173430  96.4021250  11.2080170  70.3677720
  97.2972040  11.5465140  70.3896480  96.4338880  10.4859580  69.7402000
  90.0417410   6.5807220  68.5964720  90.4792280   7.1236890  69.2522300
  90.5265140   5.7554170  68.6061060  87.2563210   9.3696250  76.0484980
  87.5866220   8.5017310  75.8163620  87.6854210   9.5754770  76.8789940
  91.8525130   7.7005260  73.7086950  91.5520670   7.5770230  74.6090860
  91.7462620   6.8413850  73.3002680  87.7453420  10.2366840  78.7866610
  87.3084410  10.4167640  79.6190760  88.3131100  10.9941460  78.6448330
 103.3815600   9.7383840  83.0743920 102.7817590   9.7976400  82.3307840
 103.5109500   8.7988820  83.2040770 104.6217050   7.4801660  68.4113630
 103.7910010   7.5478310  68.8820860 104.7988880   8.3705780  68.1080490
 104.0773510   4.2249140  70.9147830 104.8392420   4.7945790  71.0207520
 104.0927880   3.6576340  71.6856140  87.5777850   2.7487070  75.1455490
  86.9226690   2.4798710  74.5015190  88.4155800   2.6391550  74.6957470
 105.0833480   5.0799240  75.7589760 105.4542310   4.2966560  75.3525730
 105.7235410   5.7688340  75.5807060 102.0667240   6.4635820  81.1720080
 101.2527080   6.8932980  81.4345870 102.4741440   7.0754230  80.5589130
 104.1292680   4.5183510  68.0720350 104.4041520   5.4262390  67.9439570
 103.9403420   4.4546040  69.0082340 104.0258020   2.4552500  73.0649780
 103.6501620   1.6880430  72.6331070 103.2961140   2.8375200  73.5524710
  88.6153780   3.1339640  79.6858830  88.9826820   3.0467040  80.5654850
  88.0464600   2.3706190  79.5865690 102.1243290  11.2154420  74.6988350
 102.7202360  10.8938990  74.0222770 102.3821440  10.7426240  75.4901620
  90.0305860   7.6472330  84.8478980  89.9875490   7.2765240  85.7293440
  90.1616870   8.5849900  84.9880800  93.7311890   9.2031920  80.4488700
  93.4903250   9.4706480  79.5619220  94.6714530   9.3737650  80.5039560
 104.9916050  11.2226300  81.2499340 104.4974330  11.6195170  80.5326470
 104.3829340  10.5975510  81.6436620  89.8693890  10.5934580  81.9676760
  89.2754210  10.4619280  82.7066800  89.8617730   9.7572720  81.5018860
 102.6755500  11.8649720  78.5286080 102.2158470  12.6165530  78.1544100
 102.0467960  11.1456190  78.4700880  89.5006120   7.9592960  80.9184800
  88.7740180   7.3398250  80.8510750  89.5615270   8.3533570  80.0482880
  93.1051220  10.1737960  77.7034210  93.6216240   9.5625320  77.1782470
  93.7548600  10.6766740  78.1945220  95.8446720  11.0646450  78.5303190
  96.1324530  10.8100750  77.6536200  96.3569940  10.5123810  79.1208760
  87.7836120  11.2767350  74.1281560  87.6158160  10.6438030  74.8263450
  86.9170630  11.4826750  73.7775750  89.3898820   9.9700580  71.5731700
  88.8646440  10.3508610  70.8693660  89.3143400  10.5951350  72.2941410
  95.9119080  11.9862550  85.8971390  96.8386390  11.7506820  85.9407350
  95.8969510  12.8134550  85.4157420 104.1464140  11.5288120  72.8945640
 104.3216330  10.8425860  72.2506560 103.4485710  12.0535170  72.5022310
  91.9891790  11.9182960  70.4480950  92.7210610  11.6342240  69.9004840
  92.2485460  11.6796240  71.3380330  91.1506580   8.0347690  70.4527280
  90.5215460   8.5032790  71.0013110  91.2654410   7.1896910  70.8873470
 102.4796640  11.2132410  85.7212430 103.2721960  10.7181640  85.5138390
 102.7729790  11.8922550  86.3288040  96.7374340   3.8632370  58.4837750
  95.9616440   3.3832810  58.7736320  97.3887270   3.1838020  58.3093910
  90.7540170   4.1752180  59.3613510  89.9225050   3.9200890  59.7610020
  91.3621150   4.2462950  60.0971430 100.7581770   8.2692560  57.2636880
 100.2963300   7.4979800  57.5924050 101.5707320   8.2958630  57.7689330
  90.7341430   8.2092270  59.5571530  91.0369470   7.3190010  59.3781750
  91.4785020   8.7662490  59.3293780  96.9845080  10.5550570  56.8840870
  96.3656520  11.0108070  56.3135310  97.8396860  10.7102030  56.4830570
  96.1783330   6.5389560  58.4907910  96.1091610   5.5979500  58.3297040
  96.9403190   6.6290970  59.0630480  97.8508430   5.4389810  54.2772780
  97.2325700   5.9039260  53.7135500  98.3631680   6.1317290  54.6942290
  92.7140190   4.9665680  60.9556380  92.3809570   5.5934600  61.5977450
  92.8906870   5.4927560  60.1758050  91.9259290   6.9346480  62.7705560
  92.5433290   7.6097560  62.4890010  91.0652410   7.3434460  62.6793060
  87.2191630   6.1246340  51.6512410  86.8419610   6.6133440  50.9197310
  87.4764700   6.7971620  52.2818940 102.8436880   8.3985890  60.6860200
 102.1600400   9.0685000  60.6776870 103.3831170   8.5966540  59.9205060
 100.3795620  10.2430020  59.4005380 100.3922780   9.8392310  58.5327640
  99.8270840  11.0177310  59.2966810 101.6741040   6.9646240  54.4895550
 101.5637370   6.0220570  54.6144970 101.6709290   7.3261880  55.3758310
  99.7781060   5.1459860  60.7287990 100.1949850   4.9319970  59.8941450
 100.5020880   5.4032650  61.2996610  97.2161320   2.5911560  53.8458040
  96.2890600   2.5248940  54.0746510  97.3686140   3.5291690  53.7313280
 103.7243160   3.5447080  60.8204230 102.8961790   3.6140170  60.3454360
 104.3193640   4.1301390  60.3520060 101.2458610   4.1531860  54.3493290
 100.6271030   3.8151410  53.7019590 101.2283060   3.5091620  55.0572480
  92.8217960   3.1176300  56.6277770  92.4174960   2.4053550  56.1323670
  92.9081080   2.7729540  57.5165810  93.2899660   6.8043860  58.7916980
  92.9927950   6.1989330  58.1124760  94.2399480   6.8421170  58.6806340
 101.3785270  10.3775730  62.4540080 100.9015830  11.1847920  62.2612690
 100.6947060   9.7254060  62.6066290  92.3818090   6.5425550  65.4424780
  91.4846620   6.7665520  65.6898180  92.4070960   6.6660490  64.4936180
  99.4223310   3.3918670  51.3566040  99.8616590   2.5541100  51.2103860
 100.1351730   4.0248070  51.4430180  91.2089310   3.4138870  64.0182150
  91.0697080   4.2861670  64.3869550  90.3270670   3.0711680  63.8730090
  97.5318690   8.3314740  55.3247280  97.9714600   9.0739070  54.9102670
  97.4705580   8.5741310  56.2486240  93.0069660   9.3560570  66.2267300
  92.9785090   9.7603520  65.3595730  92.8434630   8.4270930  66.0638900
 104.9584480  10.1387670  67.5231470 105.4344200  10.6170560  68.2020550
 105.5791640  10.0705160  66.7976970  87.1607960   5.1836420  59.9353060
  87.2388380   5.3185190  58.9908780  87.7749640   4.4752310  60.1281180
  88.4055590   6.8836610  56.3459240  87.9983670   7.0251200  55.4912840
  89.2968600   6.5996770  56.1430450 104.3617730   7.3300520  64.6831480
 104.4880790   7.0912400  63.7648660 104.4039110   6.4985060  65.1553560
  98.2234470  11.0328520  63.2526290  98.7379140  10.9436530  64.0548720
  97.3803550  11.3788220  63.5454200 100.1988870  11.3183860  52.6810290
 100.0390010  11.0286800  53.5792120 100.0335580  10.5423990  52.1455520
  92.6777250  11.0982390  54.4581910  92.5019730  10.1817930  54.2449710
  91.8232990  11.4569680  54.6979710  99.9015000   8.8271420  51.2408290
  99.2080160   8.8248710  50.5810570 100.6437860   8.4030740  50.8102460
  99.4664930  10.4534130  55.3156780  99.9221880   9.6723510  55.6295400
  99.8057450  11.1640950  55.8597960  87.2167480   6.2250590  62.4747520
  87.3798520   5.7555950  61.6566890  87.6819930   5.7174150  63.1396360
  88.7906460   5.6002020  64.6343330  88.4061250   4.9595690  65.2326290
  89.1018650   6.3038140  65.2038060  94.9403600   2.4478560  60.1151950
  95.3073730   1.9737130  60.8613290  94.7508660   3.3220130  60.4560290
  91.2584760   5.6948190  53.0303010  90.4847020   5.1545810  52.8701730
  91.9879390   5.1754800  52.6920770 102.0172740   4.6913550  58.8229400
 102.7371860   5.1868840  58.4325510 101.8154560   4.0131440  58.1783270
  97.3991540   4.7622610  64.7098400  97.3328850   3.8418280  64.4555990
  96.7696680   4.8598050  65.4243040  91.3022160   5.3628570  56.6681820
  91.8200830   4.5596830  56.6138710  90.8506180   5.3007710  57.5098650
  96.1891660   6.6294850  51.9409120  96.5307360   7.3737080  51.4452440
  95.3604370   6.9425970  52.3033950  91.9879820   2.7874180  66.4647070
  91.6879960   2.9331360  65.5674890  92.7591060   2.2279470  66.3720460
  97.3308270   7.5843180  64.4602200  97.3452810   6.6524140  64.2421110
  96.6233370   7.6702940  65.0991970 102.4645340   1.7683000  50.7300810
 102.3809060   2.1997220  49.8797250 103.1839530   2.2281350  51.1627630
 103.5419480   4.2250520  63.8070780 102.8167670   4.8179300  63.6100170
 104.0694940   4.2174060  63.0084150 103.4932590   8.6225260  53.4582940
 102.8508750   7.9680880  53.7326660 103.1063250   9.0280350  52.6823610
  99.0719070   5.9510690  57.3054630  99.4242890   5.3538820  56.6456000
  98.1881400   5.6254920  57.4762880  95.1582350   6.7108380  54.7125040
  95.8453480   7.2577590  55.0932630  94.3714770   7.2549110  54.7474650
  87.2974750   2.3281200  50.2042120  88.1669600   2.6106000  50.4878040
  86.8065070   3.1417070  50.0890930  94.4609560   3.7154410  54.3250400
  94.9172340   4.5259660  54.5510590  94.1097770   3.3977550  55.1568890
  96.7642170   9.2260750  61.5542700  97.4084390   9.4320130  62.2316120
  97.1271610   8.4649150  61.1013550  98.0374250   7.2293100  60.2720150
  98.6796480   6.5286260  60.3852320  98.5623600   8.0091540  60.0917040
 101.8829970   7.5141720  49.9959290 101.6567550   6.7972160  50.5883930
 101.4926170   7.2654160  49.1581040  99.8111870   8.0288000  63.4756210
 100.1468110   8.6154690  64.1534130  98.8912210   7.8980710  63.7054000
  87.6646000  11.5408580  50.7703750  88.0243640  12.1397920  50.1161020
  87.5238340  12.0868470  51.5438780 101.4646220   5.4313660  51.6573450
 101.1767920   5.8926350  52.4451330 102.2598390   4.9711430  51.9257670
  87.6487860   9.8063440  65.2446150  87.7578980   8.8658180  65.1041540
  86.9968420  10.0718190  64.5959880  95.6400450   8.0779330  66.6444270
  95.3197320   7.3588570  67.1889960  94.9658810   8.7534400  66.7180330
  93.6814620   8.9239780  51.5877420  93.6724720   9.6569470  50.9721930
  92.7612980   8.6771360  51.6804380  89.2821260   4.1454670  52.3324180
  88.6749210   4.8853570  52.3419480  89.7570610   4.2354030  51.5062380
  96.6674220   8.9868020  50.2502610  96.7686200   8.7832010  49.3204590
  95.7675960   8.7326300  50.4550390  95.3092330  11.5054340  54.9450280
  95.5633830  11.4675730  54.0229650  94.3604810  11.3787670  54.9378530
  91.2926550   4.1065820  50.0812750  92.0589820   3.9947180  50.6438180
  91.3701240   3.4103790  49.4289520 103.3170490   9.5955070  58.1963050
 103.4417910  10.4186240  58.6686860 104.1836050   9.3845800  57.8487200
  90.7888020  11.6886280  57.8680180  91.5250500  11.1401740  58.1388750
  91.1728940  12.5542290  57.7286170  87.6733500   7.7559850  53.7421690
  86.7473280   7.9980990  53.7327100  88.1389930   8.5834110  53.6206440
  89.7946300  10.8732350  67.0565760  90.5959030  11.1944400  67.4701160
  89.2798120  10.5127930  67.7785670  93.8990330  10.8616590  49.6905750
  94.6918940  11.1505420  49.2387540  93.3794680  10.4308760  49.0118230
  98.6310930   6.9812220  67.0041170  98.0249090   7.0043820  66.2636920
  98.3265040   6.2495260  67.5408420 100.0611300  10.7092510  65.6150580
 101.0133050  10.6250530  65.5650820  99.9139520  11.3734220  66.2884370
 102.9520500  10.0886720  51.1142490 102.6662010   9.6751860  50.2996670
 102.7540050  11.0174430  50.9943010  87.5144110   3.3605810  66.0001810
  88.0183130   2.7813090  66.5718040  86.7751530   3.6446040  66.5378180
  94.4167730   6.0820000  49.5548100  94.3118370   5.4672350  50.2809480
  94.2491950   5.5585890  48.7711110  94.5682050   4.7676800  65.5337330
  93.8027720   5.3361800  65.4492000  94.7498010   4.4753010  64.6405560
  97.6570460   5.1440030  50.1590090  97.1080560   5.5909330  50.8032830
  98.2789720   4.6389280  50.6827760 101.7105400   6.4982130  66.0912350
 102.4514870   6.8357890  65.5879810 100.9478080   6.6674190  65.5382120
  93.3245580   4.1030950  52.0555390  93.7462000   3.9370820  52.8986780
  93.4496420   3.2931180  51.5610530  95.8373220   3.1268560  49.3032490
  96.3578880   2.4117580  48.9373640  96.4841620   3.7654430  49.6033000
 100.3851060   4.5496960  64.6267560 100.7992080   4.7042040  65.4757980
  99.4502060   4.6752180  64.7893340  95.1466290   4.5017440  62.5963490
  95.5654400   5.3450170  62.4239730  94.2274920   4.6389480  62.3670270
  99.8218090   2.7870810  62.5563840  99.2953310   3.3113430  61.9528980
 100.1649430   3.4198200  63.1873570  92.9973710  10.8070450  63.7121220
  92.4594800  11.5316510  63.3929920  93.2507670  10.3300790  62.9218560
  95.8535920  12.0421660  63.9707870  95.7794620  12.9456800  64.2780240
  94.9514760  11.7233560  63.9429940  96.4021250  11.2080170  51.5934230
  97.2972040  11.5465140  51.6152990  96.4338880  10.4859580  50.9658510
  90.0417410   6.5807220  49.8221230  90.4792280   7.1236890  50.4778810
  90.5265140   5.7554170  49.8317570  87.2563210   9.3696250  57.2741490
  87.5866220   8.5017310  57.0420130  87.6854210   9.5754770  58.1046450
  91.8525130   7.7005260  54.9343460  91.5520670   7.5770230  55.8347370
  91.7462620   6.8413850  54.5259190  87.7453420  10.2366840  60.0123120
  87.3084410  10.4167640  60.8447270  88.3131100  10.9941460  59.8704840
 103.3815600   9.7383840  64.3000430 102.7817590   9.7976400  63.5564350
 103.5109500   8.7988820  64.4297280 104.6217050   7.4801660  49.6370140
 103.7910010   7.5478310  50.1077370 104.7988880   8.3705780  49.3337000
 104.0773510   4.2249140  52.1404340 104.8392420   4.7945790  52.2464030
 104.0927880   3.6576340  52.9112650  87.5777850   2.7487070  56.3712000
  86.9226690   2.4798710  55.7271700  88.4155800   2.6391550  55.9213980
 105.0833480   5.0799240  56.9846270 105.4542310   4.2966560  56.5782240
 105.7235410   5.7688340  56.8063570 102.0667240   6.4635820  62.3976590
 101.2527080   6.8932980  62.6602380 102.4741440   7.0754230  61.7845640
 104.1292680   4.5183510  49.2976860 104.4041520   5.4262390  49.1696080
 103.9403420   4.4546040  50.2338850 104.0258020   2.4552500  54.2906290
 103.6501620   1.6880430  53.8587580 103.2961140   2.8375200  54.7781220
  88.6153780   3.1339640  60.9115340  88.9826820   3.0467040  61.7911360
  88.0464600   2.3706190  60.8122200 102.1243290  11.2154420  55.9244860
 102.7202360  10.8938990  55.2479280 102.3821440  10.7426240  56.7158130
  90.0305860   7.6472330  66.0735490  89.9875490   7.2765240  66.9549950
  90.1616870   8.5849900  66.2137310  93.7311890   9.2031920  61.6745210
  93.4903250   9.4706480  60.7875730  94.6714530   9.3737650  61.7296070
 104.9916050  11.2226300  62.4755850 104.4974330  11.6195170  61.7582980
 104.3829340  10.5975510  62.8693130  89.8693890  10.5934580  63.1933270
  89.2754210  10.4619280  63.9323310  89.8617730   9.7572720  62.7275370
 102.6755500  11.8649720  59.7542590 102.2158470  12.6165530  59.3800610
 102.0467960  11.1456190  59.6957390  89.5006120   7.9592960  62.1441310
  88.7740180   7.3398250  62.0767260  89.5615270   8.3533570  61.2739390
  93.1051220  10.1737960  58.9290720  93.6216240   9.5625320  58.4038980
  93.7548600  10.6766740  59.4201730  95.8446720  11.0646450  59.7559700
  96.1324530  10.8100750  58.8792710  96.3569940  10.5123810  60.3465270
  87.7836120  11.2767350  55.3538070  87.6158160  10.6438030  56.0519960
  86.9170630  11.4826750  55.0032260  89.3898820   9.9700580  52.7988210
  88.8646440  10.3508610  52.0950170  89.3143400  10.5951350  53.5197920
  95.9119080  11.9862550  67.1227900  96.8386390  11.7506820  67.1663860
  95.8969510  12.8134550  66.6413930 104.1464140  11.5288120  54.1202150
 104.3216330  10.8425860  53.4763070 103.4485710  12.0535170  53.7278820
  91.9891790  11.9182960  51.6737460  92.7210610  11.6342240  51.1261350
  92.2485460  11.6796240  52.5636840  91.1506580   8.0347690  51.6783790
  90.5215460   8.5032790  52.2269620  91.2654410   7.1896910  52.1129980
 102.4796640  11.2132410  66.9468940 103.2721960  10.7181640  66.7394900
 102.7729790  11.8922550  67.5544550  96.7374340   3.8632370  39.7094260
  95.9616440   3.3832810  39.9992830  97.3887270   3.1838020  39.5350420
  90.7540170   4.1752180  40.5870020  89.9225050   3.9200890  40.9866530
  91.3621150   4.2462950  41.3227940 100.7581770   8.2692560  38.4893390
 100.2963300   7.4979800  38.8180560 101.5707320   8.2958630  38.9945840
  90.7341430   8.2092270  40.7828040  91.0369470   7.3190010  40.6038260
  91.4785020   8.7662490  40.5550290  96.9845080  10.5550570  38.1097380
  96.3656520  11.0108070  37.5391820  97.8396860  10.7102030  37.7087080
  96.1783330   6.5389560  39.7164420  96.1091610   5.5979500  39.5553550
  96.9403190   6.6290970  40.2886990  97.8508430   5.4389810  35.5029290
  97.2325700   5.9039260  34.9392010  98.3631680   6.1317290  35.9198800
  92.7140190   4.9665680  42.1812890  92.3809570   5.5934600  42.8233960
  92.8906870   5.4927560  41.4014560  91.9259290   6.9346480  43.9962070
  92.5433290   7.6097560  43.7146520  91.0652410   7.3434460  43.9049570
  87.2191630   6.1246340  32.8768920  86.8419610   6.6133440  32.1453820
  87.4764700   6.7971620  33.5075450 102.8436880   8.3985890  41.9116710
 102.1600400   9.0685000  41.9033380 103.3831170   8.5966540  41.1461570
 100.3795620  10.2430020  40.6261890 100.3922780   9.8392310  39.7584150
  99.8270840  11.0177310  40.5223320 101.6741040   6.9646240  35.7152060
 101.5637370   6.0220570  35.8401480 101.6709290   7.3261880  36.6014820
  99.7781060   5.1459860  41.9544500 100.1949850   4.9319970  41.1197960
 100.5020880   5.4032650  42.5253120  97.2161320   2.5911560  35.0714550
  96.2890600   2.5248940  35.3003020  97.3686140   3.5291690  34.9569790
 103.7243160   3.5447080  42.0460740 102.8961790   3.6140170  41.5710870
 104.3193640   4.1301390  41.5776570 101.2458610   4.1531860  35.5749800
 100.6271030   3.8151410  34.9276100 101.2283060   3.5091620  36.2828990
  92.8217960   3.1176300  37.8534280  92.4174960   2.4053550  37.3580180
  92.9081080   2.7729540  38.7422320  93.2899660   6.8043860  40.0173490
  92.9927950   6.1989330  39.3381270  94.2399480   6.8421170  39.9062850
 101.3785270  10.3775730  43.6796590 100.9015830  11.1847920  43.4869200
 100.6947060   9.7254060  43.8322800  92.3818090   6.5425550  46.6681290
  91.4846620   6.7665520  46.9154690  92.4070960   6.6660490  45.7192690
  99.4223310   3.3918670  32.5822550  99.8616590   2.5541100  32.4360370
 100.1351730   4.0248070  32.6686690  91.2089310   3.4138870  45.2438660
  91.0697080   4.2861670  45.6126060  90.3270670   3.0711680  45.0986600
  97.5318690   8.3314740  36.5503790  97.9714600   9.0739070  36.1359180
  97.4705580   8.5741310  37.4742750  93.0069660   9.3560570  47.4523810
  92.9785090   9.7603520  46.5852240  92.8434630   8.4270930  47.2895410
 104.9584480  10.1387670  48.7487980 105.4344200  10.6170560  49.4277060
 105.5791640  10.0705160  48.0233480  87.1607960   5.1836420  41.1609570
  87.2388380   5.3185190  40.2165290  87.7749640   4.4752310  41.3537690
  88.4055590   6.8836610  37.5715750  87.9983670   7.0251200  36.7169350
  89.2968600   6.5996770  37.3686960 104.3617730   7.3300520  45.9087990
 104.4880790   7.0912400  44.9905170 104.4039110   6.4985060  46.3810070
  98.2234470  11.0328520  44.4782800  98.7379140  10.9436530  45.2805230
  97.3803550  11.3788220  44.7710710 100.1988870  11.3183860  33.9066800
 100.0390010  11.0286800  34.8048630 100.0335580  10.5423990  33.3712030
  92.6777250  11.0982390  35.6838420  92.5019730  10.1817930  35.4706220
  91.8232990  11.4569680  35.9236220  99.9015000   8.8271420  32.4664800
  99.2080160   8.8248710  31.8067080 100.6437860   8.4030740  32.0358970
  99.4664930  10.4534130  36.5413290  99.9221880   9.6723510  36.8551910
  99.8057450  11.1640950  37.0854470  87.2167480   6.2250590  43.7004030
  87.3798520   5.7555950  42.8823400  87.6819930   5.7174150  44.3652870
  88.7906460   5.6002020  45.8599840  88.4061250   4.9595690  46.4582800
  89.1018650   6.3038140  46.4294570  94.9403600   2.4478560  41.3408460
  95.3073730   1.9737130  42.0869800  94.7508660   3.3220130  41.6816800
  91.2584760   5.6948190  34.2559520  90.4847020   5.1545810  34.0958240
  91.9879390   5.1754800  33.9177280 102.0172740   4.6913550  40.0485910
 102.7371860   5.1868840  39.6582020 101.8154560   4.0131440  39.4039780
  97.3991540   4.7622610  45.9354910  97.3328850   3.8418280  45.6812500
  96.7696680   4.8598050  46.6499550  91.3022160   5.3628570  37.8938330
  91.8200830   4.5596830  37.8395220  90.8506180   5.3007710  38.7355160
  96.1891660   6.6294850  33.1665630  96.5307360   7.3737080  32.6708950
  95.3604370   6.9425970  33.5290460  91.9879820   2.7874180  47.6903580
  91.6879960   2.9331360  46.7931400  92.7591060   2.2279470  47.5976970
  97.3308270   7.5843180  45.6858710  97.3452810   6.6524140  45.4677620
  96.6233370   7.6702940  46.3248480 102.4645340   1.7683000  31.9557320
 102.3809060   2.1997220  31.1053760 103.1839530   2.2281350  32.3884140
 103.5419480   4.2250520  45.0327290 102.8167670   4.8179300  44.8356680
 104.0694940   4.2174060  44.2340660 103.4932590   8.6225260  34.6839450
 102.8508750   7.9680880  34.9583170 103.1063250   9.0280350  33.9080120
  99.0719070   5.9510690  38.5311140  99.4242890   5.3538820  37.8712510
  98.1881400   5.6254920  38.7019390  95.1582350   6.7108380  35.9381550
  95.8453480   7.2577590  36.3189140  94.3714770   7.2549110  35.9731160
  87.2974750   2.3281200  31.4298630  88.1669600   2.6106000  31.7134550
  86.8065070   3.1417070  31.3147440  94.4609560   3.7154410  35.5506910
  94.9172340   4.5259660  35.7767100  94.1097770   3.3977550  36.3825400
  96.7642170   9.2260750  42.7799210  97.4084390   9.4320130  43.4572630
  97.1271610   8.4649150  42.3270060  98.0374250   7.2293100  41.4976660
  98.6796480   6.5286260  41.6108830  98.5623600   8.0091540  41.3173550
 101.8829970   7.5141720  31.2215800 101.6567550   6.7972160  31.8140440
 101.4926170   7.2654160  30.3837550  99.8111870   8.0288000  44.7012720
 100.1468110   8.6154690  45.3790640  98.8912210   7.8980710  44.9310510
  87.6646000  11.5408580  31.9960260  88.0243640  12.1397920  31.3417530
  87.5238340  12.0868470  32.7695290 101.4646220   5.4313660  32.8829960
 101.1767920   5.8926350  33.6707840 102.2598390   4.9711430  33.1514180
  87.6487860   9.8063440  46.4702660  87.7578980   8.8658180  46.3298050
  86.9968420  10.0718190  45.8216390  95.6400450   8.0779330  47.8700780
  95.3197320   7.3588570  48.4146470  94.9658810   8.7534400  47.9436840
  93.6814620   8.9239780  32.8133930  93.6724720   9.6569470  32.1978440
  92.7612980   8.6771360  32.9060890  89.2821260   4.1454670  33.5580690
  88.6749210   4.8853570  33.5675990  89.7570610   4.2354030  32.7318890
  96.6674220   8.9868020  31.4759120  96.7686200   8.7832010  30.5461100
  95.7675960   8.7326300  31.6806900  95.3092330  11.5054340  36.1706790
  95.5633830  11.4675730  35.2486160  94.3604810  11.3787670  36.1635040
  91.2926550   4.1065820  31.3069260  92.0589820   3.9947180  31.8694690
  91.3701240   3.4103790  30.6546030 103.3170490   9.5955070  39.4219560
 103.4417910  10.4186240  39.8943370 104.1836050   9.3845800  39.0743710
  90.7888020  11.6886280  39.0936690  91.5250500  11.1401740  39.3645260
  91.1728940  12.5542290  38.9542680  87.6733500   7.7559850  34.9678200
  86.7473280   7.9980990  34.9583610  88.1389930   8.5834110  34.8462950
  89.7946300  10.8732350  48.2822270  90.5959030  11.1944400  48.6957670
  89.2798120  10.5127930  49.0042180  93.8990330  10.8616590  30.9162260
  94.6918940  11.1505420  30.4644050  93.3794680  10.4308760  30.2374740
  98.6310930   6.9812220  48.2297680  98.0249090   7.0043820  47.4893430
  98.3265040   6.2495260  48.7664930 100.0611300  10.7092510  46.8407090
 101.0133050  10.6250530  46.7907330  99.9139520  11.3734220  47.5140880
 102.9520500  10.0886720  32.3399000 102.6662010   9.6751860  31.5253180
 102.7540050  11.0174430  32.2199520  87.5144110   3.3605810  47.2258320
  88.0183130   2.7813090  47.7974550  86.7751530   3.6446040  47.7634690
  94.4167730   6.0820000  30.7804610  94.3118370   5.4672350  31.5065990
  94.2491950   5.5585890  29.9967620  94.5682050   4.7676800  46.7593840
  93.8027720   5.3361800  46.6748510  94.7498010   4.4753010  45.8662070
  97.6570460   5.1440030  31.3846600  97.1080560   5.5909330  32.0289340
  98.2789720   4.6389280  31.9084270 101.7105400   6.4982130  47.3168860
 102.4514870   6.8357890  46.8136320 100.9478080   6.6674190  46.7638630
  93.3245580   4.1030950  33.2811900  93.7462000   3.9370820  34.1243290
  93.4496420   3.2931180  32.7867040  95.8373220   3.1268560  30.5289000
  96.3578880   2.4117580  30.1630150  96.4841620   3.7654430  30.8289510
 100.3851060   4.5496960  45.8524070 100.7992080   4.7042040  46.7014490
  99.4502060   4.6752180  46.0149850  95.1466290   4.5017440  43.8220000
  95.5654400   5.3450170  43.6496240  94.2274920   4.6389480  43.5926780
  99.8218090   2.7870810  43.7820350  99.2953310   3.3113430  43.1785490
 100.1649430   3.4198200  44.4130080  92.9973710  10.8070450  44.9377730
  92.4594800  11.5316510  44.6186430  93.2507670  10.3300790  44.1475070
  95.8535920  12.0421660  45.1964380  95.7794620  12.9456800  45.5036750
  94.9514760  11.7233560  45.1686450  96.4021250  11.2080170  32.8190740
  97.2972040  11.5465140  32.8409500  96.4338880  10.4859580  32.1915020
  90.0417410   6.5807220  31.0477740  90.4792280   7.1236890  31.7035320
  90.5265140   5.7554170  31.0574080  87.2563210   9.3696250  38.4998000
  87.5866220   8.5017310  38.2676640  87.6854210   9.5754770  39.3302960
  91.8525130   7.7005260  36.1599970  91.5520670   7.5770230  37.0603880
  91.7462620   6.8413850  35.7515700  87.7453420  10.2366840  41.2379630
  87.3084410  10.4167640  42.0703780  88.3131100  10.9941460  41.0961350
 103.3815600   9.7383840  45.5256940 102.7817590   9.7976400  44.7820860
 103.5109500   8.7988820  45.6553790 104.6217050   7.4801660  30.8626650
 103.7910010   7.5478310  31.3333880 104.7988880   8.3705780  30.5593510
 104.0773510   4.2249140  33.3660850 104.8392420   4.7945790  33.4720540
 104.0927880   3.6576340  34.1369160  87.5777850   2.7487070  37.5968510
  86.9226690   2.4798710  36.9528210  88.4155800   2.6391550  37.1470490
 105.0833480   5.0799240  38.2102780 105.4542310   4.2966560  37.8038750
 105.7235410   5.7688340  38.0320080 102.0667240   6.4635820  43.6233100
 101.2527080   6.8932980  43.8858890 102.4741440   7.0754230  43.0102150
 104.1292680   4.5183510  30.5233370 104.4041520   5.4262390  30.3952590
 103.9403420   4.4546040  31.4595360 104.0258020   2.4552500  35.5162800
 103.6501620   1.6880430  35.0844090 103.2961140   2.8375200  36.0037730
  88.6153780   3.1339640  42.1371850  88.9826820   3.0467040  43.0167870
  88.0464600   2.3706190  42.0378710 102.1243290  11.2154420  37.1501370
 102.7202360  10.8938990  36.4735790 102.3821440  10.7426240  37.9414640
  90.0305860   7.6472330  47.2992000  89.9875490   7.2765240  48.1806460
  90.1616870   8.5849900  47.4393820  93.7311890   9.2031920  42.9001720
  93.4903250   9.4706480  42.0132240  94.6714530   9.3737650  42.9552580
 104.9916050  11.2226300  43.7012360 104.4974330  11.6195170  42.9839490
 104.3829340  10.5975510  44.0949640  89.8693890  10.5934580  44.4189780
  89.2754210  10.4619280  45.1579820  89.8617730   9.7572720  43.9531880
 102.6755500  11.8649720  40.9799100 102.2158470  12.6165530  40.6057120
 102.0467960  11.1456190  40.9213900  89.5006120   7.9592960  43.3697820
  88.7740180   7.3398250  43.3023770  89.5615270   8.3533570  42.4995900
  93.1051220  10.1737960  40.1547230  93.6216240   9.5625320  39.6295490
  93.7548600  10.6766740  40.6458240  95.8446720  11.0646450  40.9816210
  96.1324530  10.8100750  40.1049220  96.3569940  10.5123810  41.5721780
  87.7836120  11.2767350  36.5794580  87.6158160  10.6438030  37.2776470
  86.9170630  11.4826750  36.2288770  89.3898820   9.9700580  34.0244720
  88.8646440  10.3508610  33.3206680  89.3143400  10.5951350  34.7454430
  95.9119080  11.9862550  48.3484410  96.8386390  11.7506820  48.3920370
  95.8969510  12.8134550  47.8670440 104.1464140  11.5288120  35.3458660
 104.3216330  10.8425860  34.7019580 103.4485710  12.0535170  34.9535330
  91.9891790  11.9182960  32.8993970  92.7210610  11.6342240  32.3517860
  92.2485460  11.6796240  33.7893350  91.1506580   8.0347690  32.9040300
  90.5215460   8.5032790  33.4526130  91.2654410   7.1896910  33.3386490
 102.4796640  11.2132410  48.1725450 103.2721960  10.7181640  47.9651410
 102.7729790  11.8922550  48.7801060  96.7374340   3.8632370  20.9350770
  95.9616440   3.3832810  21.2249340  97.3887270   3.1838020  20.7606930
  90.7540170   4.1752180  21.8126530  89.9225050   3.9200890  22.2123040
  91.3621150   4.2462950  22.5484450 100.7581770   8.2692560  19.7149900
 100.2963300   7.4979800  20.0437070 101.5707320   8.2958630  20.2202350
  90.7341430   8.2092270  22.0084550  91.0369470   7.3190010  21.8294770
  91.4785020   8.7662490  21.7806800  96.9845080  10.5550570  19.3353890
  96.3656520  11.0108070  18.7648330  97.8396860  10.7102030  18.9343590
  96.1783330   6.5389560  20.9420930  96.1091610   5.5979500  20.7810060
  96.9403190   6.6290970  21.5143500  97.8508430   5.4389810  16.7285800
  97.2325700   5.9039260  16.1648520  98.3631680   6.1317290  17.1455310
  92.7140190   4.9665680  23.4069400  92.3809570   5.5934600  24.0490470
  92.8906870   5.4927560  22.6271070  91.9259290   6.9346480  25.2218580
  92.5433290   7.6097560  24.9403030  91.0652410   7.3434460  25.1306080
  87.2191630   6.1246340  14.1025430  86.8419610   6.6133440  13.3710330
  87.4764700   6.7971620  14.7331960 102.8436880   8.3985890  23.1373220
 102.1600400   9.0685000  23.1289890 103.3831170   8.5966540  22.3718080
 100.3795620  10.2430020  21.8518400 100.3922780   9.8392310  20.9840660
  99.8270840  11.0177310  21.7479830 101.6741040   6.9646240  16.9408570
 101.5637370   6.0220570  17.0657990 101.6709290   7.3261880  17.8271330
  99.7781060   5.1459860  23.1801010 100.1949850   4.9319970  22.3454470
 100.5020880   5.4032650  23.7509630  97.2161320   2.5911560  16.2971060
  96.2890600   2.5248940  16.5259530  97.3686140   3.5291690  16.1826300
 103.7243160   3.5447080  23.2717250 102.8961790   3.6140170  22.7967380
 104.3193640   4.1301390  22.8033080 101.2458610   4.1531860  16.8006310
 100.6271030   3.8151410  16.1532610 101.2283060   3.5091620  17.5085500
  92.8217960   3.1176300  19.0790790  92.4174960   2.4053550  18.5836690
  92.9081080   2.7729540  19.9678830  93.2899660   6.8043860  21.2430000
  92.9927950   6.1989330  20.5637780  94.2399480   6.8421170  21.1319360
 101.3785270  10.3775730  24.9053100 100.9015830  11.1847920  24.7125710
 100.6947060   9.7254060  25.0579310  92.3818090   6.5425550  27.8937800
  91.4846620   6.7665520  28.1411200  92.4070960   6.6660490  26.9449200
  99.4223310   3.3918670  13.8079060  99.8616590   2.5541100  13.6616880
 100.1351730   4.0248070  13.8943200  91.2089310   3.4138870  26.4695170
  91.0697080   4.2861670  26.8382570  90.3270670   3.0711680  26.3243110
  97.5318690   8.3314740  17.7760300  97.9714600   9.0739070  17.3615690
  97.4705580   8.5741310  18.6999260  93.0069660   9.3560570  28.6780320
  92.9785090   9.7603520  27.8108750  92.8434630   8.4270930  28.5151920
 104.9584480  10.1387670  29.9744490 105.4344200  10.6170560  30.6533570
 105.5791640  10.0705160  29.2489990  87.1607960   5.1836420  22.3866080
  87.2388380   5.3185190  21.4421800  87.7749640   4.4752310  22.5794200
  88.4055590   6.8836610  18.7972260  87.9983670   7.0251200  17.9425860
  89.2968600   6.5996770  18.5943470 104.3617730   7.3300520  27.1344500
 104.4880790   7.0912400  26.2161680 104.4039110   6.4985060  27.6066580
  98.2234470  11.0328520  25.7039310  98.7379140  10.9436530  26.5061740
  97.3803550  11.3788220  25.9967220 100.1988870  11.3183860  15.1323310
 100.0390010  11.0286800  16.0305140 100.0335580  10.5423990  14.5968540
  92.6777250  11.0982390  16.9094930  92.5019730  10.1817930  16.6962730
  91.8232990  11.4569680  17.1492730  99.9015000   8.8271420  13.6921310
  99.2080160   8.8248710  13.0323590 100.6437860   8.4030740  13.2615480
  99.4664930  10.4534130  17.7669800  99.9221880   9.6723510  18.0808420
  99.8057450  11.1640950  18.3110980  87.2167480   6.2250590  24.9260540
  87.3798520   5.7555950  24.1079910  87.6819930   5.7174150  25.5909380
  88.7906460   5.6002020  27.0856350  88.4061250   4.9595690  27.6839310
  89.1018650   6.3038140  27.6551080  94.9403600   2.4478560  22.5664970
  95.3073730   1.9737130  23.3126310  94.7508660   3.3220130  22.9073310
  91.2584760   5.6948190  15.4816030  90.4847020   5.1545810  15.3214750
  91.9879390   5.1754800  15.1433790 102.0172740   4.6913550  21.2742420
 102.7371860   5.1868840  20.8838530 101.8154560   4.0131440  20.6296290
  97.3991540   4.7622610  27.1611420  97.3328850   3.8418280  26.9069010
  96.7696680   4.8598050  27.8756060  91.3022160   5.3628570  19.1194840
  91.8200830   4.5596830  19.0651730  90.8506180   5.3007710  19.9611670
  96.1891660   6.6294850  14.3922140  96.5307360   7.3737080  13.8965460
  95.3604370   6.9425970  14.7546970  91.9879820   2.7874180  28.9160090
  91.6879960   2.9331360  28.0187910  92.7591060   2.2279470  28.8233480
  97.3308270   7.5843180  26.9115220  97.3452810   6.6524140  26.6934130
  96.6233370   7.6702940  27.5504990 102.4645340   1.7683000  13.1813830
 102.3809060   2.1997220  12.3310270 103.1839530   2.2281350  13.6140650
 103.5419480   4.2250520  26.2583800 102.8167670   4.8179300  26.0613190
 104.0694940   4.2174060  25.4597170 103.4932590   8.6225260  15.9095960
 102.8508750   7.9680880  16.1839680 103.1063250   9.0280350  15.1336630
  99.0719070   5.9510690  19.7567650  99.4242890   5.3538820  19.0969020
  98.1881400   5.6254920  19.9275900  95.1582350   6.7108380  17.1638060
  95.8453480   7.2577590  17.5445650  94.3714770   7.2549110  17.1987670
  87.2974750   2.3281200  12.6555140  88.1669600   2.6106000  12.9391060
  86.8065070   3.1417070  12.5403950  94.4609560   3.7154410  16.7763420
  94.9172340   4.5259660  17.0023610  94.1097770   3.3977550  17.6081910
  96.7642170   9.2260750  24.0055720  97.4084390   9.4320130  24.6829140
  97.1271610   8.4649150  23.5526570  98.0374250   7.2293100  22.7233170
  98.6796480   6.5286260  22.8365340  98.5623600   8.0091540  22.5430060
 101.8829970   7.5141720  12.4472310 101.6567550   6.7972160  13.0396950
 101.4926170   7.2654160  11.6094060  99.8111870   8.0288000  25.9269230
 100.1468110   8.6154690  26.6047150  98.8912210   7.8980710  26.1567020
  87.6646000  11.5408580  13.2216770  88.0243640  12.1397920  12.5674040
  87.5238340  12.0868470  13.9951800 101.4646220   5.4313660  14.1086470
 101.1767920   5.8926350  14.8964350 102.2598390   4.9711430  14.3770690
  87.6487860   9.8063440  27.6959170  87.7578980   8.8658180  27.5554560
  86.9968420  10.0718190  27.0472900  95.6400450   8.0779330  29.0957290
  95.3197320   7.3588570  29.6402980  94.9658810   8.7534400  29.1693350
  93.6814620   8.9239780  14.0390440  93.6724720   9.6569470  13.4234950
  92.7612980   8.6771360  14.1317400  89.2821260   4.1454670  14.7837200
  88.6749210   4.8853570  14.7932500  89.7570610   4.2354030  13.9575400
  96.6674220   8.9868020  12.7015630  96.7686200   8.7832010  11.7717610
  95.7675960   8.7326300  12.9063410  95.3092330  11.5054340  17.3963300
  95.5633830  11.4675730  16.4742670  94.3604810  11.3787670  17.3891550
  91.2926550   4.1065820  12.5325770  92.0589820   3.9947180  13.0951200
  91.3701240   3.4103790  11.8802540 103.3170490   9.5955070  20.6476070
 103.4417910  10.4186240  21.1199880 104.1836050   9.3845800  20.3000220
  90.7888020  11.6886280  20.3193200  91.5250500  11.1401740  20.5901770
  91.1728940  12.5542290  20.1799190  87.6733500   7.7559850  16.1934710
  86.7473280   7.9980990  16.1840120  88.1389930   8.5834110  16.0719460
  89.7946300  10.8732350  29.5078780  90.5959030  11.1944400  29.9214180
  89.2798120  10.5127930  30.2298690  93.8990330  10.8616590  12.1418770
  94.6918940  11.1505420  11.6900560  93.3794680  10.4308760  11.4631250
  98.6310930   6.9812220  29.4554190  98.0249090   7.0043820  28.7149940
  98.3265040   6.2495260  29.9921440 100.0611300  10.7092510  28.0663600
 101.0133050  10.6250530  28.0163840  99.9139520  11.3734220  28.7397390
 102.9520500  10.0886720  13.5655510 102.6662010   9.6751860  12.7509690
 102.7540050  11.0174430  13.4456030  87.5144110   3.3605810  28.4514830
  88.0183130   2.7813090  29.0231060  86.7751530   3.6446040  28.9891200
  94.4167730   6.0820000  12.0061120  94.3118370   5.4672350  12.7322500
  94.2491950   5.5585890  11.2224130  94.5682050   4.7676800  27.9850350
  93.8027720   5.3361800  27.9005020  94.7498010   4.4753010  27.0918580
  97.6570460   5.1440030  12.6103110  97.1080560   5.5909330  13.2545850
  98.2789720   4.6389280  13.1340780 101.7105400   6.4982130  28.5425370
 102.4514870   6.8357890  28.0392830 100.9478080   6.6674190  27.9895140
  93.3245580   4.1030950  14.5068410  93.7462000   3.9370820  15.3499800
  93.4496420   3.2931180  14.0123550  95.8373220   3.1268560  11.7545510
  96.3578880   2.4117580  11.3886660  96.4841620   3.7654430  12.0546020
 100.3851060   4.5496960  27.0780580 100.7992080   4.7042040  27.9271000
  99.4502060   4.6752180  27.2406360  95.1466290   4.5017440  25.0476510
  95.5654400   5.3450170  24.8752750  94.2274920   4.6389480  24.8183290
  99.8218090   2.7870810  25.0076860  99.2953310   3.3113430  24.4042000
 100.1649430   3.4198200  25.6386590  92.9973710  10.8070450  26.1634240
  92.4594800  11.5316510  25.8442940  93.2507670  10.3300790  25.3731580
  95.8535920  12.0421660  26.4220890  95.7794620  12.9456800  26.7293260
  94.9514760  11.7233560  26.3942960  96.4021250  11.2080170  14.0447250
  97.2972040  11.5465140  14.0666010  96.4338880  10.4859580  13.4171530
  90.0417410   6.5807220  12.2734250  90.4792280   7.1236890  12.9291830
  90.5265140   5.7554170  12.2830590  87.2563210   9.3696250  19.7254510
  87.5866220   8.5017310  19.4933150  87.6854210   9.5754770  20.5559470
  91.8525130   7.7005260  17.3856480  91.5520670   7.5770230  18.2860390
  91.7462620   6.8413850  16.9772210  87.7453420  10.2366840  22.4636140
  87.3084410  10.4167640  23.2960290  88.3131100  10.9941460  22.3217860
 103.3815600   9.7383840  26.7513450 102.7817590   9.7976400  26.0077370
 103.5109500   8.7988820  26.8810300 104.6217050   7.4801660  12.0883160
 103.7910010   7.5478310  12.5590390 104.7988880   8.3705780  11.7850020
 104.0773510   4.2249140  14.5917360 104.8392420   4.7945790  14.6977050
 104.0927880   3.6576340  15.3625670  87.5777850   2.7487070  18.8225020
  86.9226690   2.4798710  18.1784720  88.4155800   2.6391550  18.3727000
 105.0833480   5.0799240  19.4359290 105.4542310   4.2966560  19.0295260
 105.7235410   5.7688340  19.2576590 102.0667240   6.4635820  24.8489610
 101.2527080   6.8932980  25.1115400 102.4741440   7.0754230  24.2358660
 104.1292680   4.5183510  11.7489880 104.4041520   5.4262390  11.6209100
 103.9403420   4.4546040  12.6851870 104.0258020   2.4552500  16.7419310
 103.6501620   1.6880430  16.3100600 103.2961140   2.8375200  17.2294240
  88.6153780   3.1339640  23.3628360  88.9826820   3.0467040  24.2424380
  88.0464600   2.3706190  23.2635220 102.1243290  11.2154420  18.3757880
 102.7202360  10.8938990  17.6992300 102.3821440  10.7426240  19.1671150
  90.0305860   7.6472330  28.5248510  89.9875490   7.2765240  29.4062970
  90.1616870   8.5849900  28.6650330  93.7311890   9.2031920  24.1258230
  93.4903250   9.4706480  23.2388750  94.6714530   9.3737650  24.1809090
 104.9916050  11.2226300  24.9268870 104.4974330  11.6195170  24.2096000
 104.3829340  10.5975510  25.3206150  89.8693890  10.5934580  25.6446290
  89.2754210  10.4619280  26.3836330  89.8617730   9.7572720  25.1788390
 102.6755500  11.8649720  22.2055610 102.2158470  12.6165530  21.8313630
 102.0467960  11.1456190  22.1470410  89.5006120   7.9592960  24.5954330
  88.7740180   7.3398250  24.5280280  89.5615270   8.3533570  23.7252410
  93.1051220  10.1737960  21.3803740  93.6216240   9.5625320  20.8552000
  93.7548600  10.6766740  21.8714750  95.8446720  11.0646450  22.2072720
  96.1324530  10.8100750  21.3305730  96.3569940  10.5123810  22.7978290
  87.7836120  11.2767350  17.8051090  87.6158160  10.6438030  18.5032980
  86.9170630  11.4826750  17.4545280  89.3898820   9.9700580  15.2501230
  88.8646440  10.3508610  14.5463190  89.3143400  10.5951350  15.9710940
  95.9119080  11.9862550  29.5740920  96.8386390  11.7506820  29.6176880
  95.8969510  12.8134550  29.0926950 104.1464140  11.5288120  16.5715170
 104.3216330  10.8425860  15.9276090 103.4485710  12.0535170  16.1791840
  91.9891790  11.9182960  14.1250480  92.7210610  11.6342240  13.5774370
  92.2485460  11.6796240  15.0149860  91.1506580   8.0347690  14.1296810
  90.5215460   8.5032790  14.6782640  91.2654410   7.1896910  14.5643000
 102.4796640  11.2132410  29.3981960 103.2721960  10.7181640  29.1907920
 102.7729790  11.8922550  30.0057570  96.7374340   3.8632370   2.1607280
  95.9616440   3.3832810   2.4505850  97.3887270   3.1838020   1.9863440
  90.7540170   4.1752180   3.0383040  89.9225050   3.9200890   3.4379550
  91.3621150   4.2462950   3.7740960  90.7341430   8.2092270   3.2341060
  91.0369470   7.3190010   3.0551280  91.4785020   8.7662490   3.0063310
  96.1783330   6.5389560   2.1677440  96.1091610   5.5979500   2.0066570
  96.9403190   6.6290970   2.7400010  92.7140190   4.9665680   4.6325910
  92.3809570   5.5934600   5.2746980  92.8906870   5.4927560   3.8527580
  91.9259290   6.9346480   6.4475090  92.5433290   7.6097560   6.1659540
  91.0652410   7.3434460   6.3562590 102.8436880   8.3985890   4.3629730
 102.1600400   9.0685000   4.3546400 103.3831170   8.5966540   3.5974590
 100.3795620  10.2430020   3.0774910 100.3922780   9.8392310   2.2097170
  99.8270840  11.0177310   2.9736340  99.7781060   5.1459860   4.4057520
 100.1949850   4.9319970   3.5710980 100.5020880   5.4032650   4.9766140
 103.7243160   3.5447080   4.4973760 102.8961790   3.6140170   4.0223890
 104.3193640   4.1301390   4.0289590  93.2899660   6.8043860   2.4686510
  92.9927950   6.1989330   1.7894290  94.2399480   6.8421170   2.3575870
 101.3785270  10.3775730   6.1309610 100.9015830  11.1847920   5.9382220
 100.6947060   9.7254060   6.2835820  92.3818090   6.5425550   9.1194310
  91.4846620   6.7665520   9.3667710  92.4070960   6.6660490   8.1705710
  91.2089310   3.4138870   7.6951680  91.0697080   4.2861670   8.0639080
  90.3270670   3.0711680   7.5499620  93.0069660   9.3560570   9.9036830
  92.9785090   9.7603520   9.0365260  92.8434630   8.4270930   9.7408430
 104.9584480  10.1387670  11.2001000 105.4344200  10.6170560  11.8790080
 105.5791640  10.0705160  10.4746500  87.1607960   5.1836420   3.6122590
  87.2388380   5.3185190   2.6678310  87.7749640   4.4752310   3.8050710
 104.3617730   7.3300520   8.3601010 104.4880790   7.0912400   7.4418190
 104.4039110   6.4985060   8.8323090  98.2234470  11.0328520   6.9295820
  98.7379140  10.9436530   7.7318250  97.3803550  11.3788220   7.2223730
  87.2167480   6.2250590   6.1517050  87.3798520   5.7555950   5.3336420
  87.6819930   5.7174150   6.8165890  88.7906460   5.6002020   8.3112860
  88.4061250   4.9595690   8.9095820  89.1018650   6.3038140   8.8807590
  94.9403600   2.4478560   3.7921480  95.3073730   1.9737130   4.5382820
  94.7508660   3.3220130   4.1329820 102.0172740   4.6913550   2.4998930
 102.7371860   5.1868840   2.1095040 101.8154560   4.0131440   1.8552800
  97.3991540   4.7622610   8.3867930  97.3328850   3.8418280   8.1325520
  96.7696680   4.8598050   9.1012570  91.9879820   2.7874180  10.1416600
  91.6879960   2.9331360   9.2444420  92.7591060   2.2279470  10.0489990
  97.3308270   7.5843180   8.1371730  97.3452810   6.6524140   7.9190640
  96.6233370   7.6702940   8.7761500 103.5419480   4.2250520   7.4840310
 102.8167670   4.8179300   7.2869700 104.0694940   4.2174060   6.6853680
  96.7642170   9.2260750   5.2312230  97.4084390   9.4320130   5.9085650
  97.1271610   8.4649150   4.7783080  98.0374250   7.2293100   3.9489680
  98.6796480   6.5286260   4.0621850  98.5623600   8.0091540   3.7686570
  99.8111870   8.0288000   7.1525740 100.1468110   8.6154690   7.8303660
  98.8912210   7.8980710   7.3823530  87.6487860   9.8063440   8.9215680
  87.7578980   8.8658180   8.7811070  86.9968420  10.0718190   8.2729410
  95.6400450   8.0779330  10.3213800  95.3197320   7.3588570  10.8659490
  94.9658810   8.7534400  10.3949860  89.7946300  10.8732350  10.7335290
  90.5959030  11.1944400  11.1470690  89.2798120  10.5127930  11.4555200
  98.6310930   6.9812220  10.6810700  98.0249090   7.0043820   9.9406450
  98.3265040   6.2495260  11.2177950 100.0611300  10.7092510   9.2920110
 101.0133050  10.6250530   9.2420350  99.9139520  11.3734220   9.9653900
  87.5144110   3.3605810   9.6771340  88.0183130   2.7813090  10.2487570
  86.7751530   3.6446040  10.2147710  94.5682050   4.7676800   9.2106860
  93.8027720   5.3361800   9.1261530  94.7498010   4.4753010   8.3175090
 101.7105400   6.4982130   9.7681880 102.4514870   6.8357890   9.2649340
 100.9478080   6.6674190   9.2151650 100.3851060   4.5496960   8.3037090
 100.7992080   4.7042040   9.1527510  99.4502060   4.6752180   8.4662870
  95.1466290   4.5017440   6.2733020  95.5654400   5.3450170   6.1009260
  94.2274920   4.6389480   6.0439800  99.8218090   2.7870810   6.2333370
  99.2953310   3.3113430   5.6298510 100.1649430   3.4198200   6.8643100
  92.9973710  10.8070450   7.3890750  92.4594800  11.5316510   7.0699450
  93.2507670  10.3300790   6.5988090  95.8535920  12.0421660   7.6477400
  95.7794620  12.9456800   7.9549770  94.9514760  11.7233560   7.6199470
  87.7453420  10.2366840   3.6892650  87.3084410  10.4167640   4.5216800
  88.3131100  10.9941460   3.5474370 103.3815600   9.7383840   7.9769960
 102.7817590   9.7976400   7.2333880 103.5109500   8.7988820   8.1066810
 102.0667240   6.4635820   6.0746120 101.2527080   6.8932980   6.3371910
 102.4741440   7.0754230   5.4615170  88.6153780   3.1339640   4.5884870
  88.9826820   3.0467040   5.4680890  88.0464600   2.3706190   4.4891730
  90.0305860   7.6472330   9.7505020  89.9875490   7.2765240  10.6319480
  90.1616870   8.5849900   9.8906840  93.7311890   9.2031920   5.3514740
  93.4903250   9.4706480   4.4645260  94.6714530   9.3737650   5.4065600
 104.9916050  11.2226300   6.1525380 104.4974330  11.6195170   5.4352510
 104.3829340  10.5975510   6.5462660  89.8693890  10.5934580   6.8702800
  89.2754210  10.4619280   7.6092840  89.8617730   9.7572720   6.4044900
 102.6755500  11.8649720   3.4312120 102.2158470  12.6165530   3.0570140
 102.0467960  11.1456190   3.3726920  89.5006120   7.9592960   5.8210840
  88.7740180   7.3398250   5.7536790  89.5615270   8.3533570   4.9508920
  93.1051220  10.1737960   2.6060250  93.6216240   9.5625320   2.0808510
  93.7548600  10.6766740   3.0971260  95.8446720  11.0646450   3.4329230
  96.1324530  10.8100750   2.5562240  96.3569940  10.5123810   4.0234800
  95.9119080  11.9862550  10.7997430  96.8386390  11.7506820  10.8433390
  95.8969510  12.8134550  10.3183460 102.4796640  11.2132410  10.6238470
 103.2721960  10.7181640  10.4164430 102.7729790  11.8922550  11.2314080
  79.8312810 152.2801270 150.4745930  79.7506860 151.3655880 150.2037640
  79.4177230 152.7768340 149.7685640  70.3888630 149.3301990 147.0173350
  69.5005330 149.6717960 146.9153230  70.6729820 149.1302310 146.1254180
  72.5650020 147.9133490 148.0511730  72.6716770 148.8137220 148.3580490
  71.6542380 147.8651460 147.7606380  82.2169130 147.0358300 149.5222630
  83.0378750 146.5454870 149.5648110  82.2503210 147.6255960 150.2754470
  76.0537070 144.7210650 150.9815370  76.3612050 144.1657540 150.2650870
  75.1237770 144.8555110 150.7988360  78.4417830 152.7859480 147.7175490
  77.5147110 152.7196860 147.9463960  78.5942650 153.7239610 147.6030730
  78.4286910 149.0576480 144.7142650  77.4890580 149.2190440 144.7995110
  78.7470170 149.7762160 144.1678640  74.0474470 153.3124220 150.4995220
  73.6431470 152.6001470 150.0041120  74.1337590 152.9677460 151.3883260
  80.6479820 153.5866590 145.2283490  81.0873100 152.7489020 145.0821310
  81.3608240 154.2195990 145.3147630  84.2296960 144.8409400 143.5424530
  83.9169620 144.9336230 144.4423600  84.9909430 145.4190430 143.4921960
  70.7479100 152.2069200 148.0001870  70.6276700 152.9331290 147.3883140
  70.4379990 151.4372110 147.5229780  73.2142760 145.5504270 151.3825540
  72.7710910 146.3313810 151.0510060  73.7727750 145.8734160 152.0896480
  76.3301580 145.1714970 146.2631370  75.7055760 145.1674840 146.9884680
  76.2431700 144.3045930 145.8667340  73.0056980 150.6737840 149.1106790
  72.7797900 150.4575010 150.0153410  72.2249510 151.1066300 148.7652760
  80.2354740 150.6801210 147.7097440  79.6363630 151.4037010 147.5261060
  80.7834350 150.6177990 146.9273890  78.8419610 149.3164750 149.7400720
  79.2349180 149.6336950 148.9269410  79.2036460 148.4376630 149.8545240
  68.0654010 149.8485670 143.1733640  67.9828680 150.7916430 143.3148630
  67.7137070 149.7060580 142.2945990  75.8652140 148.5824700 152.2403990
  75.8688200 148.1414650 151.3908530  76.7603260 148.9042030 152.3475810
  71.7154520 148.4651190 151.1998200  71.3754570 148.9426420 151.9565250
  70.9531840 148.0116310 150.8399300  75.9272290 149.5836780 145.2310750
  76.0485110 149.5423260 146.1796570  75.5420800 150.4460930 145.0757480
  74.9393790 151.8937920 144.6294050  74.3710690 151.4456170 144.0029960
  75.6482790 152.2530700 144.0959200  69.0300600 147.3870170 150.1162870
  68.7447520 147.0225840 150.9541490  68.9679460 146.6550630 149.5026010
  78.7039190 146.2799430 146.8376240  77.8903800 145.7812600 146.7621550
  78.5101140 147.1197680 146.4212590  81.4187580 150.6519080 145.1338400
  82.3067200 150.9636310 144.9589740  81.3892670 149.7791330 144.7418980
  83.6901850 151.9630920 144.6018260  83.6065570 152.3945140 143.7514700
  84.4096040 152.4229270 145.0345080  68.5231260 152.5229120 144.0759570
  69.3926110 152.8053920 144.3595490  68.0321580 153.3364990 143.9608380
  71.5877850 144.2539980 148.6690370  71.4592480 144.2457880 149.6175290
  70.7639870 144.5923070 148.3181380  83.4472590 147.4610350 146.6886080
  82.8185750 147.5656020 145.9744310  82.9524510 147.6807130 147.4779960
  75.4156620 149.7396300 148.1043960  74.7072770 150.2082640 148.5457570
  75.7001100 149.0818310 148.7389150  79.4472050 146.4646960 149.5439750
  79.3239830 146.4833090 148.5949260  80.3956610 146.5125900 149.6638150
  73.6191640 148.0481380 145.4794670  74.4682170 148.4851530 145.4134860
  73.2522910 148.3601640 146.3066730  82.5401420 152.6194140 150.3926240
  81.5991560 152.6344370 150.5673930  82.8545490 151.8330100 150.8386540
  72.5183060 154.3013740 143.9530200  73.2846330 154.1895100 144.5155630
  72.5957750 153.6051710 143.3006970  71.2129820 151.7338810 144.6363090
  71.2933410 150.7866320 144.7480490  72.1049570 152.0645690 144.7423750
  74.5502090 154.2978870 145.9272840  74.9718510 154.1318740 146.7704230
  74.6752930 153.4879100 145.4327980  77.0629730 153.3216480 143.1749940
  77.5835390 152.6065500 142.8091090  77.7098130 153.9602350 143.4750450
  73.4460990 150.3712100 142.8731000  73.2450050 149.5079460 143.2344340
  73.2753040 150.2845460 141.9352600  80.9249300 145.1820330 145.4017880
  81.2051590 144.3388230 145.7577300  80.1515030 145.4143440 145.9156630
  72.2443790 147.4712720 142.8608880  72.5469690 147.4780150 141.9528030
  72.9838380 147.1210580 143.3576540  75.4628720 146.4147340 143.8465080
  75.1150720 145.7371330 143.2667530  75.6641490 145.9536850 144.6608470
  68.8034360 152.9434990 150.2429450  68.1483200 152.6746630 149.5989150
  69.6412310 152.8339470 149.7931430  81.7524800 147.7376280 144.4647940
  82.1709680 147.5507260 143.6244600  81.4460860 146.8855330 144.7750870
  85.2514530 152.6500420 148.1623740  84.8758130 151.8828350 147.7305030
  84.5217650 153.0323120 148.6498670  68.0172440 150.1533920 146.1854780
  67.1136520 150.4164120 146.0106440  68.5013060 150.4245090 145.4054740
  84.5265490 150.8757910 151.4630980  85.0502970 150.3820560 150.8321150
  85.1124910 151.0108270 152.2078550  70.5599650 149.2099460 144.0949160
  71.2691350 148.7882680 143.6096440  69.8439590 149.2774690 143.4632510
  70.2073810 145.2638790 143.1351810  70.9301940 145.8047730 143.4533030
  70.4798330 144.9902210 142.2593350  84.0165460 150.1331260 147.4023390
  84.5124580 149.9002130 148.1872270  83.8181530 149.2943100 146.9861030
  85.4452620 148.7692210 149.9361070  85.3351900 148.6148250 150.8743340
  86.2060210 148.2413150 149.6936480  86.3342890 146.6000130 143.1767210
  87.2592200 146.4681310 142.9685500  86.3118680 146.6792950 144.1303660
  86.4081380 147.3710790 145.8023920  85.6132880 147.3055910 146.3316830
  86.6124660 148.3061430 145.7909270  82.8401310 145.7007670 152.2522750
  83.2809400 145.6452770 151.4044350  82.5708900 146.6165680 152.3232930
  84.7039880 145.3322910 150.2631570  84.6428280 144.3884130 150.1162590
  85.4831910 145.4403000 150.8085030  69.6320650 145.3032050 146.7287380
  70.3900010 145.4160930 146.1551410  69.1697820 146.1401250 146.6830810
  76.1734460 147.4171320 149.7189690  75.3608970 147.0428210 149.3785570
  76.6776100 146.6616400 150.0210880  80.6759440 144.0813770 150.9572760
  81.2788810 144.6533980 151.4321280  79.9352430 144.6453210 150.7346660
  83.8194040 144.4835330 146.2313040  84.0144670 145.3818780 146.4980470
  83.0323910 144.2522410 146.7245990  72.0045800 145.8296100 145.2689350
  72.5338560 145.0425900 145.1397300  72.6374120 146.5087290 145.5024880
  74.1983640 145.5671240 148.3234740  73.5686380 144.8658550 148.4904870
  73.6588780 146.3275370 148.1067900  79.8312810 152.2801270 131.7002440
  79.7506860 151.3655880 131.4294150  79.4177230 152.7768340 130.9942150
  77.9630850 154.0580290 133.5811710  77.1872950 153.5780730 133.8710280
  78.6143780 153.3785940 133.4067870  70.3888630 149.3301990 128.2429860
  69.5005330 149.6717960 128.1409740  70.6729820 149.1302310 127.3510690
  68.3521640 151.9307640 134.1269560  68.9237750 151.1629840 134.1273200
  68.3523180 152.2296400 133.2176170  69.5946510 147.3392000 135.9138490
  69.4149350 146.4417750 136.1941250  69.1926590 147.8863870 136.5885440
  78.4345010 149.5407860 133.8150800  78.8109830 148.6679740 133.7024470
  78.3364520 149.8766560 132.9241240  72.5650020 147.9133490 129.2768240
  72.6716770 148.8137220 129.5837000  71.6542380 147.8651460 128.9862890
  82.2169130 147.0358300 130.7479140  83.0378750 146.5454870 130.7904620
  82.2503210 147.6255960 131.5010980  70.2133180 149.8352500 134.5220830
  70.8943290 150.0990870 135.1408230  69.8981230 148.9953370 134.8558840
  74.4057750 150.8819860 133.6093420  74.9135970 151.3800830 134.2498440
  74.9370990 150.1055060 133.4332780  86.5068680 149.0525050 137.3122770
  85.8020850 149.4406760 136.7937880  86.7726600 149.7475340 137.9143700
  72.6893850 145.5218420 137.8756840  72.6912290 146.0390810 137.0702740
  71.8598160 145.0448600 137.8526770  82.4530610 148.9758680 133.5206680
  81.7486180 149.2643570 134.1009790  82.8142770 149.7858790 133.1606240
  72.3709180 147.2328380 135.8827290  72.7125990 148.0770430 135.5881160
  71.4324990 147.3812120 135.9992630  85.5217530 148.4213470 133.9115890
  84.5742440 148.4552450 134.0431320  85.8467520 149.2352420 134.2965250
  76.0537070 144.7210650 132.2071880  76.3612050 144.1657540 131.4907380
  75.1237770 144.8555110 132.0244870  78.4417830 152.7859480 128.9432000
  77.5147110 152.7196860 129.1720470  78.5942650 153.7239610 128.8287240
  78.4286910 149.0576480 125.9399160  77.4890580 149.2190440 126.0251620
  78.7470170 149.7762160 125.3935150  81.9141680 150.5264320 136.8633060
  81.5012860 151.3518030 137.1173050  81.1817630 149.9409360 136.6709420
  74.0474470 153.3124220 131.7251730  73.6431470 152.6001470 131.2297630
  74.1337590 152.9677460 132.6139770  72.7603090 150.0867430 135.5050770
  73.3117680 150.1962770 134.7304020  73.2746600 150.4605030 136.2206000
  80.6479820 153.5866590 126.4540000  81.0873100 152.7489020 126.3077820
  81.3608240 154.2195990 126.5404140  84.2296960 144.8409400 124.7681040
  83.9169620 144.9336230 125.6680110  84.9909430 145.4190430 124.7178470
  70.7479100 152.2069200 129.2258380  70.6276700 152.9331290 128.6139650
  70.4379990 151.4372110 128.7486290  85.4398250 149.5780900 140.7455180
  84.8242520 150.0860570 140.2170640  85.1194670 148.6779230 140.6881120
  73.2142760 145.5504270 132.6082050  72.7710910 146.3313810 132.2766570
  73.7727750 145.8734160 133.3152990  77.5012570 148.4172790 138.2117370
  77.0391940 148.6255810 139.0237310  77.0990680 147.6032140 137.9088040
  82.5017080 149.6381740 139.3414030  81.6510670 149.3387490 139.6623100
  82.3418870 149.8823750 138.4297850  79.5966790 151.1383490 141.4412820
  79.9220200 150.3047240 141.1015050  80.3847120 151.6612010 141.5891150
  76.3301580 145.1714970 127.4887880  75.7055760 145.1674840 128.2141190
  76.2431700 144.3045930 127.0923850  75.2518660 146.0951600 134.4671650
  75.5490990 147.0014430 134.3863670  75.8004220 145.6070380 133.8531220
  73.0056980 150.6737840 130.3363300  72.7797900 150.4575010 131.2409920
  72.2249510 151.1066300 129.9909270  80.2354740 150.6801210 128.9353950
  79.6363630 151.4037010 128.7517570  80.7834350 150.6177990 128.1530400
  75.4456190 151.5723420 141.0023570  75.3499790 150.6318150 140.8523970
  76.2888170 151.7938490 140.6071640  78.8419610 149.3164750 130.9657230
  79.2349180 149.6336950 130.1525920  79.2036460 148.4376630 131.0801750
  70.5766730 147.9837090 139.1557350  70.1830120 148.8312300 139.3630130
  69.8885130 147.3463460 139.3465990  77.1511780 148.0672060 142.2254090
  76.4610100 147.8744260 142.8600180  77.8944080 148.3506700 142.7578390
  67.8783780 145.9065550 133.1887430  67.5896830 146.4768410 133.9012410
  68.6229540 145.4270000 133.5518660  68.0654010 149.8485670 124.3990150
  67.9828680 150.7916430 124.5405140  67.7137070 149.7060580 123.5202500
  79.4274750 151.9070500 135.0608010  78.6955870 152.4157310 135.4098110
  79.0299090 151.0900480 134.7596790  75.8652140 148.5824700 133.4660500
  75.8688200 148.1414650 132.6165040  76.7603260 148.9042030 133.5732320
  71.7154520 148.4651190 132.4254710  71.3754570 148.9426420 133.1821760
  70.9531840 148.0116310 132.0655810  75.9272290 149.5836780 126.4567260
  76.0485110 149.5423260 127.4053080  75.5420800 150.4460930 126.3013990
  79.8900660 147.3604180 134.4730950  79.9073400 147.8112830 135.3172800
  79.6416240 146.4609820 134.6864390  74.9393790 151.8937920 125.8550560
  74.3710690 151.4456170 125.2286470  75.6482790 152.2530700 125.3215710
  83.3171410 144.7736360 140.3117330  83.6417180 144.0426020 140.8375310
  83.3527920 144.4550000 139.4098320  76.1660110 152.6426480 135.2125910
  76.5330240 152.1685050 135.9587250  75.9765170 153.5168050 135.5534250
  69.0300600 147.3870170 131.3419380  68.7447520 147.0225840 132.1798000
  68.9679460 146.6550630 130.7282520  73.9559480 151.6835120 137.5310120
  73.6516550 152.5627100 137.7560480  74.9105940 151.7434910 137.5667560
  78.7039190 146.2799430 128.0632750  77.8903800 145.7812600 127.9878060
  78.5101140 147.1197680 127.6469100  81.4187580 150.6519080 126.3594910
  82.3067200 150.9636310 126.1846250  81.3892670 149.7791330 125.9675490
  70.0123210 152.5237860 138.6781480  69.6538150 153.1891710 139.2654820
  69.7177770 151.6921410 139.0494100  73.2136330 152.9822100 141.5621030
  72.9136470 153.1279280 140.6648850  73.9847570 152.4227390 141.4694420
  83.6901850 151.9630920 125.8274770  83.6065570 152.3945140 124.9771210
  84.4096040 152.4229270 126.2601590  68.5231260 152.5229120 125.3016080
  69.3926110 152.8053920 125.5852000  68.0321580 153.3364990 125.1864890
  71.5877850 144.2539980 129.8946880  71.4592480 144.2457880 130.8431800
  70.7639870 144.5923070 129.5437890  68.5871780 146.0131100 139.3553580
  67.8730300 146.2128020 139.9606190  69.0066820 145.2370670 139.7268380
  80.0810560 148.5053410 137.1055030  80.4491380 147.6848620 137.4334600
  79.2208760 148.5655300 137.5210680  83.4472590 147.4610350 127.9142590
  82.8185750 147.5656020 127.2000820  82.9524510 147.6807130 128.7036470
  75.4156620 149.7396300 129.3300470  74.7072770 150.2082640 129.7714080
  75.7001100 149.0818310 129.9645660  77.0412550 151.1593000 137.3293000
  77.5397800 151.6338820 137.9944850  77.1835500 150.2356520 137.5363030
  79.4472050 146.4646960 130.7696260  79.3239830 146.4833090 129.8205770
  80.3956610 146.5125900 130.8894660  73.6191640 148.0481380 126.7051180
  74.4682170 148.4851530 126.6391370  73.2522910 148.3601640 127.5323240
  84.2479410 147.3760960 138.1721390  83.7453010 148.1166360 138.5115200
  85.0636070 147.7644960 137.8558180  82.5401420 152.6194140 131.6182750
  81.5991560 152.6344370 131.7930440  82.8545490 151.8330100 132.0643050
  72.5183060 154.3013740 125.1786710  73.2846330 154.1895100 125.7412140
  72.5957750 153.6051710 124.5263480  71.2129820 151.7338810 125.8619600
  71.2933410 150.7866320 125.9737000  72.1049570 152.0645690 125.9680260
  68.7400620 153.5553730 141.0975770  69.2439640 152.9761010 141.6692000
  68.0008040 153.8393960 141.6352140  70.7723700 151.6983320 141.9925840
  70.8129040 151.3997190 142.9011070  71.6269200 152.0990930 141.8333360
  74.5502090 154.2978870 127.1529350  74.9718510 154.1318740 127.9960740
  74.6752930 153.4879100 126.6584490  72.7129510 150.2775420 139.9600330
  72.1825970 149.7866370 139.3323670  73.3817580 150.7059620 139.4258260
  77.0629730 153.3216480 124.4006450  77.5835390 152.6065500 124.0347600
  77.7098130 153.9602350 124.7006960  82.0829740 152.0841040 141.7280670
  82.6650510 151.3293360 141.6401150  82.2591510 152.6148480 140.9512150
  73.2001810 147.2437790 140.0397620  73.1058680 146.6258540 139.3148490
  72.6199200 147.9704080 139.8127530  75.9663250 145.8011030 137.0725010
  75.5180550 145.8235290 136.2270560  75.3328450 145.4030050 137.6695310
  78.7086700 152.4281540 139.0775290  78.8282910 151.8322680 139.8170130
  79.5680700 152.4651230 138.6576590  81.0474600 152.9818730 137.6537800
  80.5209820 153.5061350 137.0502940  81.3905940 153.6146120 138.2847530
  73.4460990 150.3712100 124.0987510  73.2450050 149.5079460 124.4600850
  73.2753040 150.2845460 123.1609110  75.4755470 148.9702890 140.3351110
  76.0655160 148.6618740 141.0228930  74.6575710 148.4982640 140.4911010
  80.2948900 148.5868700 140.5684130  79.6064420 147.9250240 140.5034120
  81.0154920 148.1406970 141.0132590  80.9249300 145.1820330 126.6274390
  81.2051590 144.3388230 126.9833810  80.1515030 145.4143440 127.1413140
  72.2443790 147.4712720 124.0865390  72.5469690 147.4780150 123.1784540
  72.9838380 147.1210580 124.5833050  75.4628720 146.4147340 125.0721590
  75.1150720 145.7371330 124.4924040  75.6641490 145.9536850 125.8864980
  68.8034360 152.9434990 131.4685960  68.1483200 152.6746630 130.8245660
  69.6412310 152.8339470 131.0187940  81.7524800 147.7376280 125.6904450
  82.1709680 147.5507260 124.8501110  81.4460860 146.8855330 126.0007380
  85.2514530 152.6500420 129.3880250  84.8758130 151.8828350 128.9561540
  84.5217650 153.0323120 129.8755180  69.8410290 153.3287560 136.0089300
  70.2083330 153.2414960 136.8885320  69.2721110 152.5654110 135.9096160
  84.6414150 151.7971940 139.0219770  84.4100240 151.5684690 138.1217720
  84.9018700 152.7171490 138.9764660  69.3926290 150.2396650 139.9147720
  68.4982340 150.2063410 140.2541430  69.9323840 150.4383440 140.6798970
  83.0802220 147.0228370 141.7999470  83.9572400 147.0311770 142.1833470
  83.0923060 146.2859210 141.1891820  68.0172440 150.1533920 127.4111290
  67.1136520 150.4164120 127.2362950  68.5013060 150.4245090 126.6311250
  84.5265490 150.8757910 132.6887490  85.0502970 150.3820560 132.0577660
  85.1124910 151.0108270 133.4335060  84.7055210 150.9597780 136.2107040
  83.7557920 150.9261320 136.3252030  84.8868220 151.8697890 135.9756810
  70.5599650 149.2099460 125.3205670  71.2691350 148.7882680 124.8352950
  69.8439590 149.2774690 124.6889020  70.2073810 145.2638790 124.3608320
  70.9301940 145.8047730 124.6789540  70.4798330 144.9902210 123.4849860
  84.0165460 150.1331260 128.6279900  84.5124580 149.9002130 129.4128780
  83.8181530 149.2943100 128.2117540  69.8966000 144.5144980 134.2630940
  70.5442190 143.9642360 133.8226100  70.3167840 144.7688130 135.0846750
  85.4452620 148.7692210 131.1617580  85.3351900 148.6148250 132.0999850
  86.2060210 148.2413150 130.9192990  83.7918340 144.7086340 137.6200580
  84.4290560 145.3220480 137.9859770  83.9393230 144.7447000 136.6749810
  86.3342890 146.6000130 124.4023720  87.2592200 146.4681310 124.1942010
  86.3118680 146.6792950 125.3560170  86.4081380 147.3710790 127.0280430
  85.6132880 147.3055910 127.5573340  86.6124660 148.3061430 127.0165780
  69.6498000 144.6700650 137.0056260  69.3012820 145.1264470 137.7714440
  69.3185700 143.7757780 137.0878690  77.1622820 145.8612530 140.5275680
  77.1011710 146.4534360 141.2771090  78.1023200 145.7538490 140.3825940
  79.7997380 145.5182590 140.1667970  80.4137790 145.8361880 139.5049050
  80.3446940 145.0331180 140.7863830  70.3218640 144.1976850 140.2807030
  70.8701630 144.0164900 139.5173140  70.3873950 143.4070960 140.8163340
  80.5405420 144.0814730 136.4937260  79.6665260 144.4149840 136.2910190
  80.4316170 143.6087910 137.3189130  81.4477400 146.2885600 137.8778980
  81.1190760 145.4737360 137.4980710  82.3959700 146.2455410 137.7544670
  78.2880240 144.9984570 135.4330170  77.5052030 145.4730070 135.7126930
  77.9943170 144.0939400 135.3243350  82.8401310 145.7007670 133.4779260
  83.2809400 145.6452770 132.6300860  82.5708900 146.6165680 133.5489440
  84.7039880 145.3322910 131.4888080  84.6428280 144.3884130 131.3419100
  85.4831910 145.4403000 132.0341540  69.6320650 145.3032050 127.9543890
  70.3900010 145.4160930 127.3807920  69.1697820 146.1401250 127.9087320
  76.1734460 147.4171320 130.9446200  75.3608970 147.0428210 130.6042080
  76.6776100 146.6616400 131.2467390  80.6759440 144.0813770 132.1829270
  81.2788810 144.6533980 132.6577790  79.9352430 144.6453210 131.9603170
  83.8194040 144.4835330 127.4569550  84.0144670 145.3818780 127.7236980
  83.0323910 144.2522410 127.9502500  72.0045800 145.8296100 126.4945860
  72.5338560 145.0425900 126.3653810  72.6374120 146.5087290 126.7281390
  74.1983640 145.5671240 129.5491250  73.5686380 144.8658550 129.7161380
  73.6588780 146.3275370 129.3324410  74.3239200 144.8455220 141.9843740
  74.0423470 145.3488820 141.2204560  74.7058900 144.0476970 141.6185870
  80.9254660 144.2608800 142.5624210  80.8120110 144.5803410 143.4575730
  81.7424400 144.6621310 142.2661490  79.8312810 152.2801270 112.9258950
  79.7506860 151.3655880 112.6550660  79.4177230 152.7768340 112.2198660
  77.9630850 154.0580290 114.8068220  77.1872950 153.5780730 115.0966790
  78.6143780 153.3785940 114.6324380  70.3888630 149.3301990 109.4686370
  69.5005330 149.6717960 109.3666250  70.6729820 149.1302310 108.5767200
  68.3521640 151.9307640 115.3526070  68.9237750 151.1629840 115.3529710
  68.3523180 152.2296400 114.4432680  69.5946510 147.3392000 117.1395000
  69.4149350 146.4417750 117.4197760  69.1926590 147.8863870 117.8141950
  78.4345010 149.5407860 115.0407310  78.8109830 148.6679740 114.9280980
  78.3364520 149.8766560 114.1497750  72.5650020 147.9133490 110.5024750
  72.6716770 148.8137220 110.8093510  71.6542380 147.8651460 110.2119400
  82.2169130 147.0358300 111.9735650  83.0378750 146.5454870 112.0161130
  82.2503210 147.6255960 112.7267490  70.2133180 149.8352500 115.7477340
  70.8943290 150.0990870 116.3664740  69.8981230 148.9953370 116.0815350
  74.4057750 150.8819860 114.8349930  74.9135970 151.3800830 115.4754950
  74.9370990 150.1055060 114.6589290  86.5068680 149.0525050 118.5379280
  85.8020850 149.4406760 118.0194390  86.7726600 149.7475340 119.1400210
  72.6893850 145.5218420 119.1013350  72.6912290 146.0390810 118.2959250
  71.8598160 145.0448600 119.0783280  82.4530610 148.9758680 114.7463190
  81.7486180 149.2643570 115.3266300  82.8142770 149.7858790 114.3862750
  72.3709180 147.2328380 117.1083800  72.7125990 148.0770430 116.8137670
  71.4324990 147.3812120 117.2249140  85.5217530 148.4213470 115.1372400
  84.5742440 148.4552450 115.2687830  85.8467520 149.2352420 115.5221760
  76.0537070 144.7210650 113.4328390  76.3612050 144.1657540 112.7163890
  75.1237770 144.8555110 113.2501380  78.4417830 152.7859480 110.1688510
  77.5147110 152.7196860 110.3976980  78.5942650 153.7239610 110.0543750
  78.4286910 149.0576480 107.1655670  77.4890580 149.2190440 107.2508130
  78.7470170 149.7762160 106.6191660  81.9141680 150.5264320 118.0889570
  81.5012860 151.3518030 118.3429560  81.1817630 149.9409360 117.8965930
  74.0474470 153.3124220 112.9508240  73.6431470 152.6001470 112.4554140
  74.1337590 152.9677460 113.8396280  72.7603090 150.0867430 116.7307280
  73.3117680 150.1962770 115.9560530  73.2746600 150.4605030 117.4462510
  80.6479820 153.5866590 107.6796510  81.0873100 152.7489020 107.5334330
  81.3608240 154.2195990 107.7660650  84.2296960 144.8409400 105.9937550
  83.9169620 144.9336230 106.8936620  84.9909430 145.4190430 105.9434980
  70.7479100 152.2069200 110.4514890  70.6276700 152.9331290 109.8396160
  70.4379990 151.4372110 109.9742800  85.4398250 149.5780900 121.9711690
  84.8242520 150.0860570 121.4427150  85.1194670 148.6779230 121.9137630
  73.2142760 145.5504270 113.8338560  72.7710910 146.3313810 113.5023080
  73.7727750 145.8734160 114.5409500  77.5012570 148.4172790 119.4373880
  77.0391940 148.6255810 120.2493820  77.0990680 147.6032140 119.1344550
  82.5017080 149.6381740 120.5670540  81.6510670 149.3387490 120.8879610
  82.3418870 149.8823750 119.6554360  79.5966790 151.1383490 122.6669330
  79.9220200 150.3047240 122.3271560  80.3847120 151.6612010 122.8147660
  76.3301580 145.1714970 108.7144390  75.7055760 145.1674840 109.4397700
  76.2431700 144.3045930 108.3180360  75.2518660 146.0951600 115.6928160
  75.5490990 147.0014430 115.6120180  75.8004220 145.6070380 115.0787730
  73.0056980 150.6737840 111.5619810  72.7797900 150.4575010 112.4666430
  72.2249510 151.1066300 111.2165780  80.2354740 150.6801210 110.1610460
  79.6363630 151.4037010 109.9774080  80.7834350 150.6177990 109.3786910
  75.4456190 151.5723420 122.2280080  75.3499790 150.6318150 122.0780480
  76.2888170 151.7938490 121.8328150  78.8419610 149.3164750 112.1913740
  79.2349180 149.6336950 111.3782430  79.2036460 148.4376630 112.3058260
  70.5766730 147.9837090 120.3813860  70.1830120 148.8312300 120.5886640
  69.8885130 147.3463460 120.5722500  77.1511780 148.0672060 123.4510600
  76.4610100 147.8744260 124.0856690  77.8944080 148.3506700 123.9834900
  67.8783780 145.9065550 114.4143940  67.5896830 146.4768410 115.1268920
  68.6229540 145.4270000 114.7775170  68.0654010 149.8485670 105.6246660
  67.9828680 150.7916430 105.7661650  67.7137070 149.7060580 104.7459010
  79.4274750 151.9070500 116.2864520  78.6955870 152.4157310 116.6354620
  79.0299090 151.0900480 115.9853300  75.8652140 148.5824700 114.6917010
  75.8688200 148.1414650 113.8421550  76.7603260 148.9042030 114.7988830
  71.7154520 148.4651190 113.6511220  71.3754570 148.9426420 114.4078270
  70.9531840 148.0116310 113.2912320  75.9272290 149.5836780 107.6823770
  76.0485110 149.5423260 108.6309590  75.5420800 150.4460930 107.5270500
  79.8900660 147.3604180 115.6987460  79.9073400 147.8112830 116.5429310
  79.6416240 146.4609820 115.9120900  74.9393790 151.8937920 107.0807070
  74.3710690 151.4456170 106.4542980  75.6482790 152.2530700 106.5472220
  83.3171410 144.7736360 121.5373840  83.6417180 144.0426020 122.0631820
  83.3527920 144.4550000 120.6354830  76.1660110 152.6426480 116.4382420
  76.5330240 152.1685050 117.1843760  75.9765170 153.5168050 116.7790760
  69.0300600 147.3870170 112.5675890  68.7447520 147.0225840 113.4054510
  68.9679460 146.6550630 111.9539030  73.9559480 151.6835120 118.7566630
  73.6516550 152.5627100 118.9816990  74.9105940 151.7434910 118.7924070
  78.7039190 146.2799430 109.2889260  77.8903800 145.7812600 109.2134570
  78.5101140 147.1197680 108.8725610  81.4187580 150.6519080 107.5851420
  82.3067200 150.9636310 107.4102760  81.3892670 149.7791330 107.1932000
  70.0123210 152.5237860 119.9037990  69.6538150 153.1891710 120.4911330
  69.7177770 151.6921410 120.2750610  73.2136330 152.9822100 122.7877540
  72.9136470 153.1279280 121.8905360  73.9847570 152.4227390 122.6950930
  83.6901850 151.9630920 107.0531280  83.6065570 152.3945140 106.2027720
  84.4096040 152.4229270 107.4858100  68.5231260 152.5229120 106.5272590
  69.3926110 152.8053920 106.8108510  68.0321580 153.3364990 106.4121400
  71.5877850 144.2539980 111.1203390  71.4592480 144.2457880 112.0688310
  70.7639870 144.5923070 110.7694400  68.5871780 146.0131100 120.5810090
  67.8730300 146.2128020 121.1862700  69.0066820 145.2370670 120.9524890
  80.0810560 148.5053410 118.3311540  80.4491380 147.6848620 118.6591110
  79.2208760 148.5655300 118.7467190  83.4472590 147.4610350 109.1399100
  82.8185750 147.5656020 108.4257330  82.9524510 147.6807130 109.9292980
  75.4156620 149.7396300 110.5556980  74.7072770 150.2082640 110.9970590
  75.7001100 149.0818310 111.1902170  77.0412550 151.1593000 118.5549510
  77.5397800 151.6338820 119.2201360  77.1835500 150.2356520 118.7619540
  79.4472050 146.4646960 111.9952770  79.3239830 146.4833090 111.0462280
  80.3956610 146.5125900 112.1151170  73.6191640 148.0481380 107.9307690
  74.4682170 148.4851530 107.8647880  73.2522910 148.3601640 108.7579750
  84.2479410 147.3760960 119.3977900  83.7453010 148.1166360 119.7371710
  85.0636070 147.7644960 119.0814690  82.5401420 152.6194140 112.8439260
  81.5991560 152.6344370 113.0186950  82.8545490 151.8330100 113.2899560
  72.5183060 154.3013740 106.4043220  73.2846330 154.1895100 106.9668650
  72.5957750 153.6051710 105.7519990  71.2129820 151.7338810 107.0876110
  71.2933410 150.7866320 107.1993510  72.1049570 152.0645690 107.1936770
  68.7400620 153.5553730 122.3232280  69.2439640 152.9761010 122.8948510
  68.0008040 153.8393960 122.8608650  70.7723700 151.6983320 123.2182350
  70.8129040 151.3997190 124.1267580  71.6269200 152.0990930 123.0589870
  74.5502090 154.2978870 108.3785860  74.9718510 154.1318740 109.2217250
  74.6752930 153.4879100 107.8841000  72.7129510 150.2775420 121.1856840
  72.1825970 149.7866370 120.5580180  73.3817580 150.7059620 120.6514770
  77.0629730 153.3216480 105.6262960  77.5835390 152.6065500 105.2604110
  77.7098130 153.9602350 105.9263470  82.0829740 152.0841040 122.9537180
  82.6650510 151.3293360 122.8657660  82.2591510 152.6148480 122.1768660
  73.2001810 147.2437790 121.2654130  73.1058680 146.6258540 120.5405000
  72.6199200 147.9704080 121.0384040  75.9663250 145.8011030 118.2981520
  75.5180550 145.8235290 117.4527070  75.3328450 145.4030050 118.8951820
  78.7086700 152.4281540 120.3031800  78.8282910 151.8322680 121.0426640
  79.5680700 152.4651230 119.8833100  81.0474600 152.9818730 118.8794310
  80.5209820 153.5061350 118.2759450  81.3905940 153.6146120 119.5104040
  73.4460990 150.3712100 105.3244020  73.2450050 149.5079460 105.6857360
  73.2753040 150.2845460 104.3865620  75.4755470 148.9702890 121.5607620
  76.0655160 148.6618740 122.2485440  74.6575710 148.4982640 121.7167520
  80.2948900 148.5868700 121.7940640  79.6064420 147.9250240 121.7290630
  81.0154920 148.1406970 122.2389100  80.9249300 145.1820330 107.8530900
  81.2051590 144.3388230 108.2090320  80.1515030 145.4143440 108.3669650
  72.2443790 147.4712720 105.3121900  72.5469690 147.4780150 104.4041050
  72.9838380 147.1210580 105.8089560  75.4628720 146.4147340 106.2978100
  75.1150720 145.7371330 105.7180550  75.6641490 145.9536850 107.1121490
  68.8034360 152.9434990 112.6942470  68.1483200 152.6746630 112.0502170
  69.6412310 152.8339470 112.2444450  81.7524800 147.7376280 106.9160960
  82.1709680 147.5507260 106.0757620  81.4460860 146.8855330 107.2263890
  85.2514530 152.6500420 110.6136760  84.8758130 151.8828350 110.1818050
  84.5217650 153.0323120 111.1011690  69.8410290 153.3287560 117.2345810
  70.2083330 153.2414960 118.1141830  69.2721110 152.5654110 117.1352670
  84.6414150 151.7971940 120.2476280  84.4100240 151.5684690 119.3474230
  84.9018700 152.7171490 120.2021170  69.3926290 150.2396650 121.1404230
  68.4982340 150.2063410 121.4797940  69.9323840 150.4383440 121.9055480
  83.0802220 147.0228370 123.0255980  83.9572400 147.0311770 123.4089980
  83.0923060 146.2859210 122.4148330  68.0172440 150.1533920 108.6367800
  67.1136520 150.4164120 108.4619460  68.5013060 150.4245090 107.8567760
  84.5265490 150.8757910 113.9144000  85.0502970 150.3820560 113.2834170
  85.1124910 151.0108270 114.6591570  84.7055210 150.9597780 117.4363550
  83.7557920 150.9261320 117.5508540  84.8868220 151.8697890 117.2013320
  70.5599650 149.2099460 106.5462180  71.2691350 148.7882680 106.0609460
  69.8439590 149.2774690 105.9145530  70.2073810 145.2638790 105.5864830
  70.9301940 145.8047730 105.9046050  70.4798330 144.9902210 104.7106370
  84.0165460 150.1331260 109.8536410  84.5124580 149.9002130 110.6385290
  83.8181530 149.2943100 109.4374050  69.8966000 144.5144980 115.4887450
  70.5442190 143.9642360 115.0482610  70.3167840 144.7688130 116.3103260
  85.4452620 148.7692210 112.3874090  85.3351900 148.6148250 113.3256360
  86.2060210 148.2413150 112.1449500  83.7918340 144.7086340 118.8457090
  84.4290560 145.3220480 119.2116280  83.9393230 144.7447000 117.9006320
  86.3342890 146.6000130 105.6280230  87.2592200 146.4681310 105.4198520
  86.3118680 146.6792950 106.5816680  86.4081380 147.3710790 108.2536940
  85.6132880 147.3055910 108.7829850  86.6124660 148.3061430 108.2422290
  69.6498000 144.6700650 118.2312770  69.3012820 145.1264470 118.9970950
  69.3185700 143.7757780 118.3135200  77.1622820 145.8612530 121.7532190
  77.1011710 146.4534360 122.5027600  78.1023200 145.7538490 121.6082450
  79.7997380 145.5182590 121.3924480  80.4137790 145.8361880 120.7305560
  80.3446940 145.0331180 122.0120340  70.3218640 144.1976850 121.5063540
  70.8701630 144.0164900 120.7429650  70.3873950 143.4070960 122.0419850
  80.5405420 144.0814730 117.7193770  79.6665260 144.4149840 117.5166700
  80.4316170 143.6087910 118.5445640  81.4477400 146.2885600 119.1035490
  81.1190760 145.4737360 118.7237220  82.3959700 146.2455410 118.9801180
  78.2880240 144.9984570 116.6586680  77.5052030 145.4730070 116.9383440
  77.9943170 144.0939400 116.5499860  82.8401310 145.7007670 114.7035770
  83.2809400 145.6452770 113.8557370  82.5708900 146.6165680 114.7745950
  84.7039880 145.3322910 112.7144590  84.6428280 144.3884130 112.5675610
  85.4831910 145.4403000 113.2598050  69.6320650 145.3032050 109.1800400
  70.3900010 145.4160930 108.6064430  69.1697820 146.1401250 109.1343830
  76.1734460 147.4171320 112.1702710  75.3608970 147.0428210 111.8298590
  76.6776100 146.6616400 112.4723900  80.6759440 144.0813770 113.4085780
  81.2788810 144.6533980 113.8834300  79.9352430 144.6453210 113.1859680
  83.8194040 144.4835330 108.6826060  84.0144670 145.3818780 108.9493490
  83.0323910 144.2522410 109.1759010  72.0045800 145.8296100 107.7202370
  72.5338560 145.0425900 107.5910320  72.6374120 146.5087290 107.9537900
  74.1983640 145.5671240 110.7747760  73.5686380 144.8658550 110.9417890
  73.6588780 146.3275370 110.5580920  74.3239200 144.8455220 123.2100250
  74.0423470 145.3488820 122.4461070  74.7058900 144.0476970 122.8442380
  80.9254660 144.2608800 123.7880720  80.8120110 144.5803410 124.6832240
  81.7424400 144.6621310 123.4918000  79.8312810 152.2801270  94.1515460
  79.7506860 151.3655880  93.8807170  79.4177230 152.7768340  93.4455170
  77.9630850 154.0580290  96.0324730  77.1872950 153.5780730  96.3223300
  78.6143780 153.3785940  95.8580890  70.3888630 149.3301990  90.6942880
  69.5005330 149.6717960  90.5922760  70.6729820 149.1302310  89.8023710
  68.3521640 151.9307640  96.5782580  68.9237750 151.1629840  96.5786220
  68.3523180 152.2296400  95.6689190  69.5946510 147.3392000  98.3651510
  69.4149350 146.4417750  98.6454270  69.1926590 147.8863870  99.0398460
  78.4345010 149.5407860  96.2663820  78.8109830 148.6679740  96.1537490
  78.3364520 149.8766560  95.3754260  72.5650020 147.9133490  91.7281260
  72.6716770 148.8137220  92.0350020  71.6542380 147.8651460  91.4375910
  82.2169130 147.0358300  93.1992160  83.0378750 146.5454870  93.2417640
  82.2503210 147.6255960  93.9524000  70.2133180 149.8352500  96.9733850
  70.8943290 150.0990870  97.5921250  69.8981230 148.9953370  97.3071860
  74.4057750 150.8819860  96.0606440  74.9135970 151.3800830  96.7011460
  74.9370990 150.1055060  95.8845800  86.5068680 149.0525050  99.7635790
  85.8020850 149.4406760  99.2450900  86.7726600 149.7475340 100.3656720
  72.6893850 145.5218420 100.3269860  72.6912290 146.0390810  99.5215760
  71.8598160 145.0448600 100.3039790  82.4530610 148.9758680  95.9719700
  81.7486180 149.2643570  96.5522810  82.8142770 149.7858790  95.6119260
  72.3709180 147.2328380  98.3340310  72.7125990 148.0770430  98.0394180
  71.4324990 147.3812120  98.4505650  85.5217530 148.4213470  96.3628910
  84.5742440 148.4552450  96.4944340  85.8467520 149.2352420  96.7478270
  76.0537070 144.7210650  94.6584900  76.3612050 144.1657540  93.9420400
  75.1237770 144.8555110  94.4757890  78.4417830 152.7859480  91.3945020
  77.5147110 152.7196860  91.6233490  78.5942650 153.7239610  91.2800260
  78.4286910 149.0576480  88.3912180  77.4890580 149.2190440  88.4764640
  78.7470170 149.7762160  87.8448170  81.9141680 150.5264320  99.3146080
  81.5012860 151.3518030  99.5686070  81.1817630 149.9409360  99.1222440
  74.0474470 153.3124220  94.1764750  73.6431470 152.6001470  93.6810650
  74.1337590 152.9677460  95.0652790  72.7603090 150.0867430  97.9563790
  73.3117680 150.1962770  97.1817040  73.2746600 150.4605030  98.6719020
  80.6479820 153.5866590  88.9053020  81.0873100 152.7489020  88.7590840
  81.3608240 154.2195990  88.9917160  84.2296960 144.8409400  87.2194060
  83.9169620 144.9336230  88.1193130  84.9909430 145.4190430  87.1691490
  70.7479100 152.2069200  91.6771400  70.6276700 152.9331290  91.0652670
  70.4379990 151.4372110  91.1999310  85.4398250 149.5780900 103.1968200
  84.8242520 150.0860570 102.6683660  85.1194670 148.6779230 103.1394140
  73.2142760 145.5504270  95.0595070  72.7710910 146.3313810  94.7279590
  73.7727750 145.8734160  95.7666010  77.5012570 148.4172790 100.6630390
  77.0391940 148.6255810 101.4750330  77.0990680 147.6032140 100.3601060
  82.5017080 149.6381740 101.7927050  81.6510670 149.3387490 102.1136120
  82.3418870 149.8823750 100.8810870  79.5966790 151.1383490 103.8925840
  79.9220200 150.3047240 103.5528070  80.3847120 151.6612010 104.0404170
  76.3301580 145.1714970  89.9400900  75.7055760 145.1674840  90.6654210
  76.2431700 144.3045930  89.5436870  75.2518660 146.0951600  96.9184670
  75.5490990 147.0014430  96.8376690  75.8004220 145.6070380  96.3044240
  73.0056980 150.6737840  92.7876320  72.7797900 150.4575010  93.6922940
  72.2249510 151.1066300  92.4422290  80.2354740 150.6801210  91.3866970
  79.6363630 151.4037010  91.2030590  80.7834350 150.6177990  90.6043420
  75.4456190 151.5723420 103.4536590  75.3499790 150.6318150 103.3036990
  76.2888170 151.7938490 103.0584660  78.8419610 149.3164750  93.4170250
  79.2349180 149.6336950  92.6038940  79.2036460 148.4376630  93.5314770
  70.5766730 147.9837090 101.6070370  70.1830120 148.8312300 101.8143150
  69.8885130 147.3463460 101.7979010  77.1511780 148.0672060 104.6767110
  76.4610100 147.8744260 105.3113200  77.8944080 148.3506700 105.2091410
  67.8783780 145.9065550  95.6400450  67.5896830 146.4768410  96.3525430
  68.6229540 145.4270000  96.0031680  68.0654010 149.8485670  86.8503170
  67.9828680 150.7916430  86.9918160  67.7137070 149.7060580  85.9715520
  79.4274750 151.9070500  97.5121030  78.6955870 152.4157310  97.8611130
  79.0299090 151.0900480  97.2109810  75.8652140 148.5824700  95.9173520
  75.8688200 148.1414650  95.0678060  76.7603260 148.9042030  96.0245340
  71.7154520 148.4651190  94.8767730  71.3754570 148.9426420  95.6334780
  70.9531840 148.0116310  94.5168830  75.9272290 149.5836780  88.9080280
  76.0485110 149.5423260  89.8566100  75.5420800 150.4460930  88.7527010
  79.8900660 147.3604180  96.9243970  79.9073400 147.8112830  97.7685820
  79.6416240 146.4609820  97.1377410  74.9393790 151.8937920  88.3063580
  74.3710690 151.4456170  87.6799490  75.6482790 152.2530700  87.7728730
  83.3171410 144.7736360 102.7630350  83.6417180 144.0426020 103.2888330
  83.3527920 144.4550000 101.8611340  76.1660110 152.6426480  97.6638930
  76.5330240 152.1685050  98.4100270  75.9765170 153.5168050  98.0047270
  69.0300600 147.3870170  93.7932400  68.7447520 147.0225840  94.6311020
  68.9679460 146.6550630  93.1795540  73.9559480 151.6835120  99.9823140
  73.6516550 152.5627100 100.2073500  74.9105940 151.7434910 100.0180580
  78.7039190 146.2799430  90.5145770  77.8903800 145.7812600  90.4391080
  78.5101140 147.1197680  90.0982120  81.4187580 150.6519080  88.8107930
  82.3067200 150.9636310  88.6359270  81.3892670 149.7791330  88.4188510
  70.0123210 152.5237860 101.1294500  69.6538150 153.1891710 101.7167840
  69.7177770 151.6921410 101.5007120  73.2136330 152.9822100 104.0134050
  72.9136470 153.1279280 103.1161870  73.9847570 152.4227390 103.9207440
  83.6901850 151.9630920  88.2787790  83.6065570 152.3945140  87.4284230
  84.4096040 152.4229270  88.7114610  68.5231260 152.5229120  87.7529100
  69.3926110 152.8053920  88.0365020  68.0321580 153.3364990  87.6377910
  71.5877850 144.2539980  92.3459900  71.4592480 144.2457880  93.2944820
  70.7639870 144.5923070  91.9950910  68.5871780 146.0131100 101.8066600
  67.8730300 146.2128020 102.4119210  69.0066820 145.2370670 102.1781400
  80.0810560 148.5053410  99.5568050  80.4491380 147.6848620  99.8847620
  79.2208760 148.5655300  99.9723700  83.4472590 147.4610350  90.3655610
  82.8185750 147.5656020  89.6513840  82.9524510 147.6807130  91.1549490
  75.4156620 149.7396300  91.7813490  74.7072770 150.2082640  92.2227100
  75.7001100 149.0818310  92.4158680  77.0412550 151.1593000  99.7806020
  77.5397800 151.6338820 100.4457870  77.1835500 150.2356520  99.9876050
  79.4472050 146.4646960  93.2209280  79.3239830 146.4833090  92.2718790
  80.3956610 146.5125900  93.3407680  73.6191640 148.0481380  89.1564200
  74.4682170 148.4851530  89.0904390  73.2522910 148.3601640  89.9836260
  84.2479410 147.3760960 100.6234410  83.7453010 148.1166360 100.9628220
  85.0636070 147.7644960 100.3071200  82.5401420 152.6194140  94.0695770
  81.5991560 152.6344370  94.2443460  82.8545490 151.8330100  94.5156070
  72.5183060 154.3013740  87.6299730  73.2846330 154.1895100  88.1925160
  72.5957750 153.6051710  86.9776500  71.2129820 151.7338810  88.3132620
  71.2933410 150.7866320  88.4250020  72.1049570 152.0645690  88.4193280
  68.7400620 153.5553730 103.5488790  69.2439640 152.9761010 104.1205020
  68.0008040 153.8393960 104.0865160  70.7723700 151.6983320 104.4438860
  70.8129040 151.3997190 105.3524090  71.6269200 152.0990930 104.2846380
  74.5502090 154.2978870  89.6042370  74.9718510 154.1318740  90.4473760
  74.6752930 153.4879100  89.1097510  72.7129510 150.2775420 102.4113350
  72.1825970 149.7866370 101.7836690  73.3817580 150.7059620 101.8771280
  77.0629730 153.3216480  86.8519470  77.5835390 152.6065500  86.4860620
  77.7098130 153.9602350  87.1519980  82.0829740 152.0841040 104.1793690
  82.6650510 151.3293360 104.0914170  82.2591510 152.6148480 103.4025170
  73.2001810 147.2437790 102.4910640  73.1058680 146.6258540 101.7661510
  72.6199200 147.9704080 102.2640550  75.9663250 145.8011030  99.5238030
  75.5180550 145.8235290  98.6783580  75.3328450 145.4030050 100.1208330
  78.7086700 152.4281540 101.5288310  78.8282910 151.8322680 102.2683150
  79.5680700 152.4651230 101.1089610  81.0474600 152.9818730 100.1050820
  80.5209820 153.5061350  99.5015960  81.3905940 153.6146120 100.7360550
  73.4460990 150.3712100  86.5500530  73.2450050 149.5079460  86.9113870
  73.2753040 150.2845460  85.6122130  75.4755470 148.9702890 102.7864130
  76.0655160 148.6618740 103.4741950  74.6575710 148.4982640 102.9424030
  80.2948900 148.5868700 103.0197150  79.6064420 147.9250240 102.9547140
  81.0154920 148.1406970 103.4645610  80.9249300 145.1820330  89.0787410
  81.2051590 144.3388230  89.4346830  80.1515030 145.4143440  89.5926160
  72.2443790 147.4712720  86.5378410  72.5469690 147.4780150  85.6297560
  72.9838380 147.1210580  87.0346070  75.4628720 146.4147340  87.5234610
  75.1150720 145.7371330  86.9437060  75.6641490 145.9536850  88.3378000
  68.8034360 152.9434990  93.9198980  68.1483200 152.6746630  93.2758680
  69.6412310 152.8339470  93.4700960  81.7524800 147.7376280  88.1417470
  82.1709680 147.5507260  87.3014130  81.4460860 146.8855330  88.4520400
  85.2514530 152.6500420  91.8393270  84.8758130 151.8828350  91.4074560
  84.5217650 153.0323120  92.3268200  69.8410290 153.3287560  98.4602320
  70.2083330 153.2414960  99.3398340  69.2721110 152.5654110  98.3609180
  84.6414150 151.7971940 101.4732790  84.4100240 151.5684690 100.5730740
  84.9018700 152.7171490 101.4277680  69.3926290 150.2396650 102.3660740
  68.4982340 150.2063410 102.7054450  69.9323840 150.4383440 103.1311990
  83.0802220 147.0228370 104.2512490  83.9572400 147.0311770 104.6346490
  83.0923060 146.2859210 103.6404840  68.0172440 150.1533920  89.8624310
  67.1136520 150.4164120  89.6875970  68.5013060 150.4245090  89.0824270
  84.5265490 150.8757910  95.1400510  85.0502970 150.3820560  94.5090680
  85.1124910 151.0108270  95.8848080  84.7055210 150.9597780  98.6620060
  83.7557920 150.9261320  98.7765050  84.8868220 151.8697890  98.4269830
  70.5599650 149.2099460  87.7718690  71.2691350 148.7882680  87.2865970
  69.8439590 149.2774690  87.1402040  70.2073810 145.2638790  86.8121340
  70.9301940 145.8047730  87.1302560  70.4798330 144.9902210  85.9362880
  84.0165460 150.1331260  91.0792920  84.5124580 149.9002130  91.8641800
  83.8181530 149.2943100  90.6630560  69.8966000 144.5144980  96.7143960
  70.5442190 143.9642360  96.2739120  70.3167840 144.7688130  97.5359770
  85.4452620 148.7692210  93.6130600  85.3351900 148.6148250  94.5512870
  86.2060210 148.2413150  93.3706010  83.7918340 144.7086340 100.0713600
  84.4290560 145.3220480 100.4372790  83.9393230 144.7447000  99.1262830
  86.3342890 146.6000130  86.8536740  87.2592200 146.4681310  86.6455030
  86.3118680 146.6792950  87.8073190  86.4081380 147.3710790  89.4793450
  85.6132880 147.3055910  90.0086360  86.6124660 148.3061430  89.4678800
  69.6498000 144.6700650  99.4569280  69.3012820 145.1264470 100.2227460
  69.3185700 143.7757780  99.5391710  77.1622820 145.8612530 102.9788700
  77.1011710 146.4534360 103.7284110  78.1023200 145.7538490 102.8338960
  79.7997380 145.5182590 102.6180990  80.4137790 145.8361880 101.9562070
  80.3446940 145.0331180 103.2376850  70.3218640 144.1976850 102.7320050
  70.8701630 144.0164900 101.9686160  70.3873950 143.4070960 103.2676360
  80.5405420 144.0814730  98.9450280  79.6665260 144.4149840  98.7423210
  80.4316170 143.6087910  99.7702150  81.4477400 146.2885600 100.3292000
  81.1190760 145.4737360  99.9493730  82.3959700 146.2455410 100.2057690
  78.2880240 144.9984570  97.8843190  77.5052030 145.4730070  98.1639950
  77.9943170 144.0939400  97.7756370  82.8401310 145.7007670  95.9292280
  83.2809400 145.6452770  95.0813880  82.5708900 146.6165680  96.0002460
  84.7039880 145.3322910  93.9401100  84.6428280 144.3884130  93.7932120
  85.4831910 145.4403000  94.4854560  69.6320650 145.3032050  90.4056910
  70.3900010 145.4160930  89.8320940  69.1697820 146.1401250  90.3600340
  76.1734460 147.4171320  93.3959220  75.3608970 147.0428210  93.0555100
  76.6776100 146.6616400  93.6980410  80.6759440 144.0813770  94.6342290
  81.2788810 144.6533980  95.1090810  79.9352430 144.6453210  94.4116190
  83.8194040 144.4835330  89.9082570  84.0144670 145.3818780  90.1750000
  83.0323910 144.2522410  90.4015520  72.0045800 145.8296100  88.9458880
  72.5338560 145.0425900  88.8166830  72.6374120 146.5087290  89.1794410
  74.1983640 145.5671240  92.0004270  73.5686380 144.8658550  92.1674400
  73.6588780 146.3275370  91.7837430  74.3239200 144.8455220 104.4356760
  74.0423470 145.3488820 103.6717580  74.7058900 144.0476970 104.0698890
  80.9254660 144.2608800 105.0137230  80.8120110 144.5803410 105.9088750
  81.7424400 144.6621310 104.7174510  79.8312810 152.2801270  75.3771970
  79.7506860 151.3655880  75.1063680  79.4177230 152.7768340  74.6711680
  77.9630850 154.0580290  77.2581240  77.1872950 153.5780730  77.5479810
  78.6143780 153.3785940  77.0837400  70.3888630 149.3301990  71.9199390
  69.5005330 149.6717960  71.8179270  70.6729820 149.1302310  71.0280220
  68.3521640 151.9307640  77.8039090  68.9237750 151.1629840  77.8042730
  68.3523180 152.2296400  76.8945700  69.5946510 147.3392000  79.5908020
  69.4149350 146.4417750  79.8710780  69.1926590 147.8863870  80.2654970
  78.4345010 149.5407860  77.4920330  78.8109830 148.6679740  77.3794000
  78.3364520 149.8766560  76.6010770  72.5650020 147.9133490  72.9537770
  72.6716770 148.8137220  73.2606530  71.6542380 147.8651460  72.6632420
  82.2169130 147.0358300  74.4248670  83.0378750 146.5454870  74.4674150
  82.2503210 147.6255960  75.1780510  70.2133180 149.8352500  78.1990360
  70.8943290 150.0990870  78.8177760  69.8981230 148.9953370  78.5328370
  74.4057750 150.8819860  77.2862950  74.9135970 151.3800830  77.9267970
  74.9370990 150.1055060  77.1102310  86.5068680 149.0525050  80.9892300
  85.8020850 149.4406760  80.4707410  86.7726600 149.7475340  81.5913230
  72.6893850 145.5218420  81.5526370  72.6912290 146.0390810  80.7472270
  71.8598160 145.0448600  81.5296300  82.4530610 148.9758680  77.1976210
  81.7486180 149.2643570  77.7779320  82.8142770 149.7858790  76.8375770
  72.3709180 147.2328380  79.5596820  72.7125990 148.0770430  79.2650690
  71.4324990 147.3812120  79.6762160  85.5217530 148.4213470  77.5885420
  84.5742440 148.4552450  77.7200850  85.8467520 149.2352420  77.9734780
  78.4417830 152.7859480  72.6201530  77.5147110 152.7196860  72.8490000
  78.5942650 153.7239610  72.5056770  78.4286910 149.0576480  69.6168690
  77.4890580 149.2190440  69.7021150  78.7470170 149.7762160  69.0704680
  81.9141680 150.5264320  80.5402590  81.5012860 151.3518030  80.7942580
  81.1817630 149.9409360  80.3478950  74.0474470 153.3124220  75.4021260
  73.6431470 152.6001470  74.9067160  74.1337590 152.9677460  76.2909300
  72.7603090 150.0867430  79.1820300  73.3117680 150.1962770  78.4073550
  73.2746600 150.4605030  79.8975530  80.6479820 153.5866590  70.1309530
  81.0873100 152.7489020  69.9847350  81.3608240 154.2195990  70.2173670
  84.2296960 144.8409400  68.4450570  83.9169620 144.9336230  69.3449640
  84.9909430 145.4190430  68.3948000  70.7479100 152.2069200  72.9027910
  70.6276700 152.9331290  72.2909180  70.4379990 151.4372110  72.4255820
  85.4398250 149.5780900  84.4224710  84.8242520 150.0860570  83.8940170
  85.1194670 148.6779230  84.3650650  73.2142760 145.5504270  76.2851580
  72.7710910 146.3313810  75.9536100  73.7727750 145.8734160  76.9922520
  77.5012570 148.4172790  81.8886900  77.0391940 148.6255810  82.7006840
  77.0990680 147.6032140  81.5857570  82.5017080 149.6381740  83.0183560
  81.6510670 149.3387490  83.3392630  82.3418870 149.8823750  82.1067380
  79.5966790 151.1383490  85.1182350  79.9220200 150.3047240  84.7784580
  80.3847120 151.6612010  85.2660680  76.3301580 145.1714970  71.1657410
  75.7055760 145.1674840  71.8910720  76.2431700 144.3045930  70.7693380
  75.2518660 146.0951600  78.1441180  75.5490990 147.0014430  78.0633200
  75.8004220 145.6070380  77.5300750  73.0056980 150.6737840  74.0132830
  72.7797900 150.4575010  74.9179450  72.2249510 151.1066300  73.6678800
  80.2354740 150.6801210  72.6123480  79.6363630 151.4037010  72.4287100
  80.7834350 150.6177990  71.8299930  75.4456190 151.5723420  84.6793100
  75.3499790 150.6318150  84.5293500  76.2888170 151.7938490  84.2841170
  78.8419610 149.3164750  74.6426760  79.2349180 149.6336950  73.8295450
  79.2036460 148.4376630  74.7571280  70.5766730 147.9837090  82.8326880
  70.1830120 148.8312300  83.0399660  69.8885130 147.3463460  83.0235520
  77.1511780 148.0672060  85.9023620  76.4610100 147.8744260  86.5369710
  77.8944080 148.3506700  86.4347920  67.8783780 145.9065550  76.8656960
  67.5896830 146.4768410  77.5781940  68.6229540 145.4270000  77.2288190
  68.0654010 149.8485670  68.0759680  67.9828680 150.7916430  68.2174670
  67.7137070 149.7060580  67.1972030  79.4274750 151.9070500  78.7377540
  78.6955870 152.4157310  79.0867640  79.0299090 151.0900480  78.4366320
  75.8652140 148.5824700  77.1430030  75.8688200 148.1414650  76.2934570
  76.7603260 148.9042030  77.2501850  71.7154520 148.4651190  76.1024240
  71.3754570 148.9426420  76.8591290  70.9531840 148.0116310  75.7425340
  75.9272290 149.5836780  70.1336790  76.0485110 149.5423260  71.0822610
  75.5420800 150.4460930  69.9783520  79.8900660 147.3604180  78.1500480
  79.9073400 147.8112830  78.9942330  79.6416240 146.4609820  78.3633920
  74.9393790 151.8937920  69.5320090  74.3710690 151.4456170  68.9056000
  75.6482790 152.2530700  68.9985240  83.3171410 144.7736360  83.9886860
  83.6417180 144.0426020  84.5144840  83.3527920 144.4550000  83.0867850
  76.1660110 152.6426480  78.8895440  76.5330240 152.1685050  79.6356780
  75.9765170 153.5168050  79.2303780  69.0300600 147.3870170  75.0188910
  68.7447520 147.0225840  75.8567530  68.9679460 146.6550630  74.4052050
  73.9559480 151.6835120  81.2079650  73.6516550 152.5627100  81.4330010
  74.9105940 151.7434910  81.2437090  78.7039190 146.2799430  71.7402280
  77.8903800 145.7812600  71.6647590  78.5101140 147.1197680  71.3238630
  81.4187580 150.6519080  70.0364440  82.3067200 150.9636310  69.8615780
  81.3892670 149.7791330  69.6445020  70.0123210 152.5237860  82.3551010
  69.6538150 153.1891710  82.9424350  69.7177770 151.6921410  82.7263630
  73.2136330 152.9822100  85.2390560  72.9136470 153.1279280  84.3418380
  73.9847570 152.4227390  85.1463950  83.6901850 151.9630920  69.5044300
  83.6065570 152.3945140  68.6540740  84.4096040 152.4229270  69.9371120
  68.5231260 152.5229120  68.9785610  69.3926110 152.8053920  69.2621530
  68.0321580 153.3364990  68.8634420  71.5877850 144.2539980  73.5716410
  71.4592480 144.2457880  74.5201330  70.7639870 144.5923070  73.2207420
  68.5871780 146.0131100  83.0323110  67.8730300 146.2128020  83.6375720
  69.0066820 145.2370670  83.4037910  80.0810560 148.5053410  80.7824560
  80.4491380 147.6848620  81.1104130  79.2208760 148.5655300  81.1980210
  83.4472590 147.4610350  71.5912120  82.8185750 147.5656020  70.8770350
  82.9524510 147.6807130  72.3806000  75.4156620 149.7396300  73.0070000
  74.7072770 150.2082640  73.4483610  75.7001100 149.0818310  73.6415190
  77.0412550 151.1593000  81.0062530  77.5397800 151.6338820  81.6714380
  77.1835500 150.2356520  81.2132560  79.4472050 146.4646960  74.4465790
  79.3239830 146.4833090  73.4975300  80.3956610 146.5125900  74.5664190
  73.6191640 148.0481380  70.3820710  74.4682170 148.4851530  70.3160900
  73.2522910 148.3601640  71.2092770  84.2479410 147.3760960  81.8490920
  83.7453010 148.1166360  82.1884730  85.0636070 147.7644960  81.5327710
  82.5401420 152.6194140  75.2952280  81.5991560 152.6344370  75.4699970
  82.8545490 151.8330100  75.7412580  72.5183060 154.3013740  68.8556240
  73.2846330 154.1895100  69.4181670  72.5957750 153.6051710  68.2033010
  71.2129820 151.7338810  69.5389130  71.2933410 150.7866320  69.6506530
  72.1049570 152.0645690  69.6449790  68.7400620 153.5553730  84.7745300
  69.2439640 152.9761010  85.3461530  68.0008040 153.8393960  85.3121670
  70.7723700 151.6983320  85.6695370  70.8129040 151.3997190  86.5780600
  71.6269200 152.0990930  85.5102890  74.5502090 154.2978870  70.8298880
  74.9718510 154.1318740  71.6730270  74.6752930 153.4879100  70.3354020
  72.7129510 150.2775420  83.6369860  72.1825970 149.7866370  83.0093200
  73.3817580 150.7059620  83.1027790  77.0629730 153.3216480  68.0775980
  77.5835390 152.6065500  67.7117130  77.7098130 153.9602350  68.3776490
  82.0829740 152.0841040  85.4050200  82.6650510 151.3293360  85.3170680
  82.2591510 152.6148480  84.6281680  73.2001810 147.2437790  83.7167150
  73.1058680 146.6258540  82.9918020  72.6199200 147.9704080  83.4897060
  75.9663250 145.8011030  80.7494540  75.5180550 145.8235290  79.9040090
  75.3328450 145.4030050  81.3464840  78.7086700 152.4281540  82.7544820
  78.8282910 151.8322680  83.4939660  79.5680700 152.4651230  82.3346120
  81.0474600 152.9818730  81.3307330  80.5209820 153.5061350  80.7272470
  81.3905940 153.6146120  81.9617060  73.4460990 150.3712100  67.7757040
  73.2450050 149.5079460  68.1370380  73.2753040 150.2845460  66.8378640
  75.4755470 148.9702890  84.0120640  76.0655160 148.6618740  84.6998460
  74.6575710 148.4982640  84.1680540  80.2948900 148.5868700  84.2453660
  79.6064420 147.9250240  84.1803650  81.0154920 148.1406970  84.6902120
  80.9249300 145.1820330  70.3043920  81.2051590 144.3388230  70.6603340
  80.1515030 145.4143440  70.8182670  72.2443790 147.4712720  67.7634920
  72.5469690 147.4780150  66.8554070  72.9838380 147.1210580  68.2602580
  75.4628720 146.4147340  68.7491120  75.1150720 145.7371330  68.1693570
  75.6641490 145.9536850  69.5634510  68.8034360 152.9434990  75.1455490
  68.1483200 152.6746630  74.5015190  69.6412310 152.8339470  74.6957470
  81.7524800 147.7376280  69.3673980  82.1709680 147.5507260  68.5270640
  81.4460860 146.8855330  69.6776910  85.2514530 152.6500420  73.0649780
  84.8758130 151.8828350  72.6331070  84.5217650 153.0323120  73.5524710
  69.8410290 153.3287560  79.6858830  70.2083330 153.2414960  80.5654850
  69.2721110 152.5654110  79.5865690  84.6414150 151.7971940  82.6989300
  84.4100240 151.5684690  81.7987250  84.9018700 152.7171490  82.6534190
  69.3926290 150.2396650  83.5917250  68.4982340 150.2063410  83.9310960
  69.9323840 150.4383440  84.3568500  83.0802220 147.0228370  85.4769000
  83.9572400 147.0311770  85.8603000  83.0923060 146.2859210  84.8661350
  68.0172440 150.1533920  71.0880820  67.1136520 150.4164120  70.9132480
  68.5013060 150.4245090  70.3080780  84.5265490 150.8757910  76.3657020
  85.0502970 150.3820560  75.7347190  85.1124910 151.0108270  77.1104590
  84.7055210 150.9597780  79.8876570  83.7557920 150.9261320  80.0021560
  84.8868220 151.8697890  79.6526340  70.5599650 149.2099460  68.9975200
  71.2691350 148.7882680  68.5122480  69.8439590 149.2774690  68.3658550
  70.2073810 145.2638790  68.0377850  70.9301940 145.8047730  68.3559070
  70.4798330 144.9902210  67.1619390  84.0165460 150.1331260  72.3049430
  84.5124580 149.9002130  73.0898310  83.8181530 149.2943100  71.8887070
  69.8966000 144.5144980  77.9400470  70.5442190 143.9642360  77.4995630
  70.3167840 144.7688130  78.7616280  85.4452620 148.7692210  74.8387110
  85.3351900 148.6148250  75.7769380  86.2060210 148.2413150  74.5962520
  83.7918340 144.7086340  81.2970110  84.4290560 145.3220480  81.6629300
  83.9393230 144.7447000  80.3519340  86.3342890 146.6000130  68.0793250
  87.2592200 146.4681310  67.8711540  86.3118680 146.6792950  69.0329700
  86.4081380 147.3710790  70.7049960  85.6132880 147.3055910  71.2342870
  86.6124660 148.3061430  70.6935310  69.6498000 144.6700650  80.6825790
  69.3012820 145.1264470  81.4483970  69.3185700 143.7757780  80.7648220
  77.1622820 145.8612530  84.2045210  77.1011710 146.4534360  84.9540620
  78.1023200 145.7538490  84.0595470  79.7997380 145.5182590  83.8437500
  80.4137790 145.8361880  83.1818580  80.3446940 145.0331180  84.4633360
  70.3218640 144.1976850  83.9576560  70.8701630 144.0164900  83.1942670
  70.3873950 143.4070960  84.4932870  80.5405420 144.0814730  80.1706790
  79.6665260 144.4149840  79.9679720  80.4316170 143.6087910  80.9958660
  81.4477400 146.2885600  81.5548510  81.1190760 145.4737360  81.1750240
  82.3959700 146.2455410  81.4314200  78.2880240 144.9984570  79.1099700
  77.5052030 145.4730070  79.3896460  77.9943170 144.0939400  79.0012880
  82.8401310 145.7007670  77.1548790  83.2809400 145.6452770  76.3070390
  82.5708900 146.6165680  77.2258970  84.7039880 145.3322910  75.1657610
  84.6428280 144.3884130  75.0188630  85.4831910 145.4403000  75.7111070
  69.6320650 145.3032050  71.6313420  70.3900010 145.4160930  71.0577450
  69.1697820 146.1401250  71.5856850  76.1734460 147.4171320  74.6215730
  75.3608970 147.0428210  74.2811610  76.6776100 146.6616400  74.9236920
  80.6759440 144.0813770  75.8598800  81.2788810 144.6533980  76.3347320
  79.9352430 144.6453210  75.6372700  83.8194040 144.4835330  71.1339080
  84.0144670 145.3818780  71.4006510  83.0323910 144.2522410  71.6272030
  72.0045800 145.8296100  70.1715390  72.5338560 145.0425900  70.0423340
  72.6374120 146.5087290  70.4050920  74.1983640 145.5671240  73.2260780
  73.5686380 144.8658550  73.3930910  73.6588780 146.3275370  73.0093940
  74.3239200 144.8455220  85.6613270  74.0423470 145.3488820  84.8974090
  74.7058900 144.0476970  85.2955400  80.9254660 144.2608800  86.2393740
  80.8120110 144.5803410  87.1345260  81.7424400 144.6621310  85.9431020
  79.8312810 152.2801270  56.6028480  79.7506860 151.3655880  56.3320190
  79.4177230 152.7768340  55.8968190  77.9630850 154.0580290  58.4837750
  77.1872950 153.5780730  58.7736320  78.6143780 153.3785940  58.3093910
  70.3888630 149.3301990  53.1455900  69.5005330 149.6717960  53.0435780
  70.6729820 149.1302310  52.2536730  68.3521640 151.9307640  59.0295600
  68.9237750 151.1629840  59.0299240  68.3523180 152.2296400  58.1202210
  69.5946510 147.3392000  60.8164530  69.4149350 146.4417750  61.0967290
  69.1926590 147.8863870  61.4911480  78.4345010 149.5407860  58.7176840
  78.8109830 148.6679740  58.6050510  78.3364520 149.8766560  57.8267280
  72.5650020 147.9133490  54.1794280  72.6716770 148.8137220  54.4863040
  71.6542380 147.8651460  53.8888930  82.2169130 147.0358300  55.6505180
  83.0378750 146.5454870  55.6930660  82.2503210 147.6255960  56.4037020
  70.2133180 149.8352500  59.4246870  70.8943290 150.0990870  60.0434270
  69.8981230 148.9953370  59.7584880  74.4057750 150.8819860  58.5119460
  74.9135970 151.3800830  59.1524480  74.9370990 150.1055060  58.3358820
  86.5068680 149.0525050  62.2148810  85.8020850 149.4406760  61.6963920
  86.7726600 149.7475340  62.8169740  72.6893850 145.5218420  62.7782880
  72.6912290 146.0390810  61.9728780  71.8598160 145.0448600  62.7552810
  82.4530610 148.9758680  58.4232720  81.7486180 149.2643570  59.0035830
  82.8142770 149.7858790  58.0632280  72.3709180 147.2328380  60.7853330
  72.7125990 148.0770430  60.4907200  71.4324990 147.3812120  60.9018670
  85.5217530 148.4213470  58.8141930  84.5742440 148.4552450  58.9457360
  85.8467520 149.2352420  59.1991290  76.0537070 144.7210650  57.1097920
  76.3612050 144.1657540  56.3933420  75.1237770 144.8555110  56.9270910
  78.4417830 152.7859480  53.8458040  77.5147110 152.7196860  54.0746510
  78.5942650 153.7239610  53.7313280  78.4286910 149.0576480  50.8425200
  77.4890580 149.2190440  50.9277660  78.7470170 149.7762160  50.2961190
  81.9141680 150.5264320  61.7659100  81.5012860 151.3518030  62.0199090
  81.1817630 149.9409360  61.5735460  74.0474470 153.3124220  56.6277770
  73.6431470 152.6001470  56.1323670  74.1337590 152.9677460  57.5165810
  72.7603090 150.0867430  60.4076810  73.3117680 150.1962770  59.6330060
  73.2746600 150.4605030  61.1232040  80.6479820 153.5866590  51.3566040
  81.0873100 152.7489020  51.2103860  81.3608240 154.2195990  51.4430180
  84.2296960 144.8409400  49.6707080  83.9169620 144.9336230  50.5706150
  84.9909430 145.4190430  49.6204510  70.7479100 152.2069200  54.1284420
  70.6276700 152.9331290  53.5165690  70.4379990 151.4372110  53.6512330
  85.4398250 149.5780900  65.6481220  84.8242520 150.0860570  65.1196680
  85.1194670 148.6779230  65.5907160  73.2142760 145.5504270  57.5108090
  72.7710910 146.3313810  57.1792610  73.7727750 145.8734160  58.2179030
  77.5012570 148.4172790  63.1143410  77.0391940 148.6255810  63.9263350
  77.0990680 147.6032140  62.8114080  82.5017080 149.6381740  64.2440070
  81.6510670 149.3387490  64.5649140  82.3418870 149.8823750  63.3323890
  79.5966790 151.1383490  66.3438860  79.9220200 150.3047240  66.0041090
  80.3847120 151.6612010  66.4917190  76.3301580 145.1714970  52.3913920
  75.7055760 145.1674840  53.1167230  76.2431700 144.3045930  51.9949890
  75.2518660 146.0951600  59.3697690  75.5490990 147.0014430  59.2889710
  75.8004220 145.6070380  58.7557260  73.0056980 150.6737840  55.2389340
  72.7797900 150.4575010  56.1435960  72.2249510 151.1066300  54.8935310
  80.2354740 150.6801210  53.8379990  79.6363630 151.4037010  53.6543610
  80.7834350 150.6177990  53.0556440  75.4456190 151.5723420  65.9049610
  75.3499790 150.6318150  65.7550010  76.2888170 151.7938490  65.5097680
  78.8419610 149.3164750  55.8683270  79.2349180 149.6336950  55.0551960
  79.2036460 148.4376630  55.9827790  70.5766730 147.9837090  64.0583390
  70.1830120 148.8312300  64.2656170  69.8885130 147.3463460  64.2492030
  77.1511780 148.0672060  67.1280130  76.4610100 147.8744260  67.7626220
  77.8944080 148.3506700  67.6604430  67.8783780 145.9065550  58.0913470
  67.5896830 146.4768410  58.8038450  68.6229540 145.4270000  58.4544700
  68.0654010 149.8485670  49.3016190  67.9828680 150.7916430  49.4431180
  67.7137070 149.7060580  48.4228540  79.4274750 151.9070500  59.9634050
  78.6955870 152.4157310  60.3124150  79.0299090 151.0900480  59.6622830
  75.8652140 148.5824700  58.3686540  75.8688200 148.1414650  57.5191080
  76.7603260 148.9042030  58.4758360  71.7154520 148.4651190  57.3280750
  71.3754570 148.9426420  58.0847800  70.9531840 148.0116310  56.9681850
  75.9272290 149.5836780  51.3593300  76.0485110 149.5423260  52.3079120
  75.5420800 150.4460930  51.2040030  79.8900660 147.3604180  59.3756990
  79.9073400 147.8112830  60.2198840  79.6416240 146.4609820  59.5890430
  74.9393790 151.8937920  50.7576600  74.3710690 151.4456170  50.1312510
  75.6482790 152.2530700  50.2241750  83.3171410 144.7736360  65.2143370
  83.6417180 144.0426020  65.7401350  83.3527920 144.4550000  64.3124360
  76.1660110 152.6426480  60.1151950  76.5330240 152.1685050  60.8613290
  75.9765170 153.5168050  60.4560290  69.0300600 147.3870170  56.2445420
  68.7447520 147.0225840  57.0824040  68.9679460 146.6550630  55.6308560
  73.9559480 151.6835120  62.4336160  73.6516550 152.5627100  62.6586520
  74.9105940 151.7434910  62.4693600  78.7039190 146.2799430  52.9658790
  77.8903800 145.7812600  52.8904100  78.5101140 147.1197680  52.5495140
  81.4187580 150.6519080  51.2620950  82.3067200 150.9636310  51.0872290
  81.3892670 149.7791330  50.8701530  70.0123210 152.5237860  63.5807520
  69.6538150 153.1891710  64.1680860  69.7177770 151.6921410  63.9520140
  73.2136330 152.9822100  66.4647070  72.9136470 153.1279280  65.5674890
  73.9847570 152.4227390  66.3720460  83.6901850 151.9630920  50.7300810
  83.6065570 152.3945140  49.8797250  84.4096040 152.4229270  51.1627630
  68.5231260 152.5229120  50.2042120  69.3926110 152.8053920  50.4878040
  68.0321580 153.3364990  50.0890930  71.5877850 144.2539980  54.7972920
  71.4592480 144.2457880  55.7457840  70.7639870 144.5923070  54.4463930
  68.5871780 146.0131100  64.2579620  67.8730300 146.2128020  64.8632230
  69.0066820 145.2370670  64.6294420  80.0810560 148.5053410  62.0081070
  80.4491380 147.6848620  62.3360640  79.2208760 148.5655300  62.4236720
  83.4472590 147.4610350  52.8168630  82.8185750 147.5656020  52.1026860
  82.9524510 147.6807130  53.6062510  75.4156620 149.7396300  54.2326510
  74.7072770 150.2082640  54.6740120  75.7001100 149.0818310  54.8671700
  77.0412550 151.1593000  62.2319040  77.5397800 151.6338820  62.8970890
  77.1835500 150.2356520  62.4389070  79.4472050 146.4646960  55.6722300
  79.3239830 146.4833090  54.7231810  80.3956610 146.5125900  55.7920700
  73.6191640 148.0481380  51.6077220  74.4682170 148.4851530  51.5417410
  73.2522910 148.3601640  52.4349280  84.2479410 147.3760960  63.0747430
  83.7453010 148.1166360  63.4141240  85.0636070 147.7644960  62.7584220
  82.5401420 152.6194140  56.5208790  81.5991560 152.6344370  56.6956480
  82.8545490 151.8330100  56.9669090  72.5183060 154.3013740  50.0812750
  73.2846330 154.1895100  50.6438180  72.5957750 153.6051710  49.4289520
  71.2129820 151.7338810  50.7645640  71.2933410 150.7866320  50.8763040
  72.1049570 152.0645690  50.8706300  68.7400620 153.5553730  66.0001810
  69.2439640 152.9761010  66.5718040  68.0008040 153.8393960  66.5378180
  70.7723700 151.6983320  66.8951880  70.8129040 151.3997190  67.8037110
  71.6269200 152.0990930  66.7359400  74.5502090 154.2978870  52.0555390
  74.9718510 154.1318740  52.8986780  74.6752930 153.4879100  51.5610530
  72.7129510 150.2775420  64.8626370  72.1825970 149.7866370  64.2349710
  73.3817580 150.7059620  64.3284300  77.0629730 153.3216480  49.3032490
  77.5835390 152.6065500  48.9373640  77.7098130 153.9602350  49.6033000
  82.0829740 152.0841040  66.6306710  82.6650510 151.3293360  66.5427190
  82.2591510 152.6148480  65.8538190  73.2001810 147.2437790  64.9423660
  73.1058680 146.6258540  64.2174530  72.6199200 147.9704080  64.7153570
  75.9663250 145.8011030  61.9751050  75.5180550 145.8235290  61.1296600
  75.3328450 145.4030050  62.5721350  78.7086700 152.4281540  63.9801330
  78.8282910 151.8322680  64.7196170  79.5680700 152.4651230  63.5602630
  81.0474600 152.9818730  62.5563840  80.5209820 153.5061350  61.9528980
  81.3905940 153.6146120  63.1873570  73.4460990 150.3712100  49.0013550
  73.2450050 149.5079460  49.3626890  73.2753040 150.2845460  48.0635150
  75.4755470 148.9702890  65.2377150  76.0655160 148.6618740  65.9254970
  74.6575710 148.4982640  65.3937050  80.2948900 148.5868700  65.4710170
  79.6064420 147.9250240  65.4060160  81.0154920 148.1406970  65.9158630
  80.9249300 145.1820330  51.5300430  81.2051590 144.3388230  51.8859850
  80.1515030 145.4143440  52.0439180  72.2443790 147.4712720  48.9891430
  72.5469690 147.4780150  48.0810580  72.9838380 147.1210580  49.4859090
  75.4628720 146.4147340  49.9747630  75.1150720 145.7371330  49.3950080
  75.6641490 145.9536850  50.7891020  68.8034360 152.9434990  56.3712000
  68.1483200 152.6746630  55.7271700  69.6412310 152.8339470  55.9213980
  81.7524800 147.7376280  50.5930490  82.1709680 147.5507260  49.7527150
  81.4460860 146.8855330  50.9033420  85.2514530 152.6500420  54.2906290
  84.8758130 151.8828350  53.8587580  84.5217650 153.0323120  54.7781220
  69.8410290 153.3287560  60.9115340  70.2083330 153.2414960  61.7911360
  69.2721110 152.5654110  60.8122200  84.6414150 151.7971940  63.9245810
  84.4100240 151.5684690  63.0243760  84.9018700 152.7171490  63.8790700
  69.3926290 150.2396650  64.8173760  68.4982340 150.2063410  65.1567470
  69.9323840 150.4383440  65.5825010  83.0802220 147.0228370  66.7025510
  83.9572400 147.0311770  67.0859510  83.0923060 146.2859210  66.0917860
  68.0172440 150.1533920  52.3137330  67.1136520 150.4164120  52.1388990
  68.5013060 150.4245090  51.5337290  84.5265490 150.8757910  57.5913530
  85.0502970 150.3820560  56.9603700  85.1124910 151.0108270  58.3361100
  84.7055210 150.9597780  61.1133080  83.7557920 150.9261320  61.2278070
  84.8868220 151.8697890  60.8782850  70.5599650 149.2099460  50.2231710
  71.2691350 148.7882680  49.7378990  69.8439590 149.2774690  49.5915060
  70.2073810 145.2638790  49.2634360  70.9301940 145.8047730  49.5815580
  70.4798330 144.9902210  48.3875900  84.0165460 150.1331260  53.5305940
  84.5124580 149.9002130  54.3154820  83.8181530 149.2943100  53.1143580
  69.8966000 144.5144980  59.1656980  70.5442190 143.9642360  58.7252140
  70.3167840 144.7688130  59.9872790  85.4452620 148.7692210  56.0643620
  85.3351900 148.6148250  57.0025890  86.2060210 148.2413150  55.8219030
  83.7918340 144.7086340  62.5226620  84.4290560 145.3220480  62.8885810
  83.9393230 144.7447000  61.5775850  86.3342890 146.6000130  49.3049760
  87.2592200 146.4681310  49.0968050  86.3118680 146.6792950  50.2586210
  86.4081380 147.3710790  51.9306470  85.6132880 147.3055910  52.4599380
  86.6124660 148.3061430  51.9191820  69.6498000 144.6700650  61.9082300
  69.3012820 145.1264470  62.6740480  69.3185700 143.7757780  61.9904730
  77.1622820 145.8612530  65.4301720  77.1011710 146.4534360  66.1797130
  78.1023200 145.7538490  65.2851980  79.7997380 145.5182590  65.0694010
  80.4137790 145.8361880  64.4075090  80.3446940 145.0331180  65.6889870
  70.3218640 144.1976850  65.1833070  70.8701630 144.0164900  64.4199180
  70.3873950 143.4070960  65.7189380  80.5405420 144.0814730  61.3963300
  79.6665260 144.4149840  61.1936230  80.4316170 143.6087910  62.2215170
  81.4477400 146.2885600  62.7805020  81.1190760 145.4737360  62.4006750
  82.3959700 146.2455410  62.6570710  78.2880240 144.9984570  60.3356210
  77.5052030 145.4730070  60.6152970  77.9943170 144.0939400  60.2269390
  82.8401310 145.7007670  58.3805300  83.2809400 145.6452770  57.5326900
  82.5708900 146.6165680  58.4515480  84.7039880 145.3322910  56.3914120
  84.6428280 144.3884130  56.2445140  85.4831910 145.4403000  56.9367580
  69.6320650 145.3032050  52.8569930  70.3900010 145.4160930  52.2833960
  69.1697820 146.1401250  52.8113360  76.1734460 147.4171320  55.8472240
  75.3608970 147.0428210  55.5068120  76.6776100 146.6616400  56.1493430
  80.6759440 144.0813770  57.0855310  81.2788810 144.6533980  57.5603830
  79.9352430 144.6453210  56.8629210  83.8194040 144.4835330  52.3595590
  84.0144670 145.3818780  52.6263020  83.0323910 144.2522410  52.8528540
  72.0045800 145.8296100  51.3971900  72.5338560 145.0425900  51.2679850
  72.6374120 146.5087290  51.6307430  74.1983640 145.5671240  54.4517290
  73.5686380 144.8658550  54.6187420  73.6588780 146.3275370  54.2350450
  74.3239200 144.8455220  66.8869780  74.0423470 145.3488820  66.1230600
  74.7058900 144.0476970  66.5211910  80.9254660 144.2608800  67.4650250
  80.8120110 144.5803410  68.3601770  81.7424400 144.6621310  67.1687530
  79.8312810 152.2801270  37.8284990  79.7506860 151.3655880  37.5576700
  79.4177230 152.7768340  37.1224700  77.9630850 154.0580290  39.7094260
  77.1872950 153.5780730  39.9992830  78.6143780 153.3785940  39.5350420
  70.3888630 149.3301990  34.3712410  69.5005330 149.6717960  34.2692290
  70.6729820 149.1302310  33.4793240  68.3521640 151.9307640  40.2552110
  68.9237750 151.1629840  40.2555750  68.3523180 152.2296400  39.3458720
  69.5946510 147.3392000  42.0421040  69.4149350 146.4417750  42.3223800
  69.1926590 147.8863870  42.7167990  78.4345010 149.5407860  39.9433350
  78.8109830 148.6679740  39.8307020  78.3364520 149.8766560  39.0523790
  72.5650020 147.9133490  35.4050790  72.6716770 148.8137220  35.7119550
  71.6542380 147.8651460  35.1145440  82.2169130 147.0358300  36.8761690
  83.0378750 146.5454870  36.9187170  82.2503210 147.6255960  37.6293530
  70.2133180 149.8352500  40.6503380  70.8943290 150.0990870  41.2690780
  69.8981230 148.9953370  40.9841390  74.4057750 150.8819860  39.7375970
  74.9135970 151.3800830  40.3780990  74.9370990 150.1055060  39.5615330
  86.5068680 149.0525050  43.4405320  85.8020850 149.4406760  42.9220430
  86.7726600 149.7475340  44.0426250  72.6893850 145.5218420  44.0039390
  72.6912290 146.0390810  43.1985290  71.8598160 145.0448600  43.9809320
  82.4530610 148.9758680  39.6489230  81.7486180 149.2643570  40.2292340
  82.8142770 149.7858790  39.2888790  72.3709180 147.2328380  42.0109840
  72.7125990 148.0770430  41.7163710  71.4324990 147.3812120  42.1275180
  85.5217530 148.4213470  40.0398440  84.5742440 148.4552450  40.1713870
  85.8467520 149.2352420  40.4247800  76.0537070 144.7210650  38.3354430
  76.3612050 144.1657540  37.6189930  75.1237770 144.8555110  38.1527420
  78.4417830 152.7859480  35.0714550  77.5147110 152.7196860  35.3003020
  78.5942650 153.7239610  34.9569790  78.4286910 149.0576480  32.0681710
  77.4890580 149.2190440  32.1534170  78.7470170 149.7762160  31.5217700
  81.9141680 150.5264320  42.9915610  81.5012860 151.3518030  43.2455600
  81.1817630 149.9409360  42.7991970  74.0474470 153.3124220  37.8534280
  73.6431470 152.6001470  37.3580180  74.1337590 152.9677460  38.7422320
  72.7603090 150.0867430  41.6333320  73.3117680 150.1962770  40.8586570
  73.2746600 150.4605030  42.3488550  80.6479820 153.5866590  32.5822550
  81.0873100 152.7489020  32.4360370  81.3608240 154.2195990  32.6686690
  84.2296960 144.8409400  30.8963590  83.9169620 144.9336230  31.7962660
  84.9909430 145.4190430  30.8461020  70.7479100 152.2069200  35.3540930
  70.6276700 152.9331290  34.7422200  70.4379990 151.4372110  34.8768840
  85.4398250 149.5780900  46.8737730  84.8242520 150.0860570  46.3453190
  85.1194670 148.6779230  46.8163670  73.2142760 145.5504270  38.7364600
  72.7710910 146.3313810  38.4049120  73.7727750 145.8734160  39.4435540
  77.5012570 148.4172790  44.3399920  77.0391940 148.6255810  45.1519860
  77.0990680 147.6032140  44.0370590  82.5017080 149.6381740  45.4696580
  81.6510670 149.3387490  45.7905650  82.3418870 149.8823750  44.5580400
  79.5966790 151.1383490  47.5695370  79.9220200 150.3047240  47.2297600
  80.3847120 151.6612010  47.7173700  76.3301580 145.1714970  33.6170430
  75.7055760 145.1674840  34.3423740  76.2431700 144.3045930  33.2206400
  75.2518660 146.0951600  40.5954200  75.5490990 147.0014430  40.5146220
  75.8004220 145.6070380  39.9813770  73.0056980 150.6737840  36.4645850
  72.7797900 150.4575010  37.3692470  72.2249510 151.1066300  36.1191820
  80.2354740 150.6801210  35.0636500  79.6363630 151.4037010  34.8800120
  80.7834350 150.6177990  34.2812950  75.4456190 151.5723420  47.1306120
  75.3499790 150.6318150  46.9806520  76.2888170 151.7938490  46.7354190
  78.8419610 149.3164750  37.0939780  79.2349180 149.6336950  36.2808470
  79.2036460 148.4376630  37.2084300  70.5766730 147.9837090  45.2839900
  70.1830120 148.8312300  45.4912680  69.8885130 147.3463460  45.4748540
  77.1511780 148.0672060  48.3536640  76.4610100 147.8744260  48.9882730
  77.8944080 148.3506700  48.8860940  67.8783780 145.9065550  39.3169980
  67.5896830 146.4768410  40.0294960  68.6229540 145.4270000  39.6801210
  68.0654010 149.8485670  30.5272700  67.9828680 150.7916430  30.6687690
  67.7137070 149.7060580  29.6485050  79.4274750 151.9070500  41.1890560
  78.6955870 152.4157310  41.5380660  79.0299090 151.0900480  40.8879340
  75.8652140 148.5824700  39.5943050  75.8688200 148.1414650  38.7447590
  76.7603260 148.9042030  39.7014870  71.7154520 148.4651190  38.5537260
  71.3754570 148.9426420  39.3104310  70.9531840 148.0116310  38.1938360
  75.9272290 149.5836780  32.5849810  76.0485110 149.5423260  33.5335630
  75.5420800 150.4460930  32.4296540  79.8900660 147.3604180  40.6013500
  79.9073400 147.8112830  41.4455350  79.6416240 146.4609820  40.8146940
  74.9393790 151.8937920  31.9833110  74.3710690 151.4456170  31.3569020
  75.6482790 152.2530700  31.4498260  83.3171410 144.7736360  46.4399880
  83.6417180 144.0426020  46.9657860  83.3527920 144.4550000  45.5380870
  76.1660110 152.6426480  41.3408460  76.5330240 152.1685050  42.0869800
  75.9765170 153.5168050  41.6816800  69.0300600 147.3870170  37.4701930
  68.7447520 147.0225840  38.3080550  68.9679460 146.6550630  36.8565070
  73.9559480 151.6835120  43.6592670  73.6516550 152.5627100  43.8843030
  74.9105940 151.7434910  43.6950110  78.7039190 146.2799430  34.1915300
  77.8903800 145.7812600  34.1160610  78.5101140 147.1197680  33.7751650
  81.4187580 150.6519080  32.4877460  82.3067200 150.9636310  32.3128800
  81.3892670 149.7791330  32.0958040  70.0123210 152.5237860  44.8064030
  69.6538150 153.1891710  45.3937370  69.7177770 151.6921410  45.1776650
  73.2136330 152.9822100  47.6903580  72.9136470 153.1279280  46.7931400
  73.9847570 152.4227390  47.5976970  83.6901850 151.9630920  31.9557320
  83.6065570 152.3945140  31.1053760  84.4096040 152.4229270  32.3884140
  68.5231260 152.5229120  31.4298630  69.3926110 152.8053920  31.7134550
  68.0321580 153.3364990  31.3147440  71.5877850 144.2539980  36.0229430
  71.4592480 144.2457880  36.9714350  70.7639870 144.5923070  35.6720440
  68.5871780 146.0131100  45.4836130  67.8730300 146.2128020  46.0888740
  69.0066820 145.2370670  45.8550930  80.0810560 148.5053410  43.2337580
  80.4491380 147.6848620  43.5617150  79.2208760 148.5655300  43.6493230
  83.4472590 147.4610350  34.0425140  82.8185750 147.5656020  33.3283370
  82.9524510 147.6807130  34.8319020  75.4156620 149.7396300  35.4583020
  74.7072770 150.2082640  35.8996630  75.7001100 149.0818310  36.0928210
  77.0412550 151.1593000  43.4575550  77.5397800 151.6338820  44.1227400
  77.1835500 150.2356520  43.6645580  79.4472050 146.4646960  36.8978810
  79.3239830 146.4833090  35.9488320  80.3956610 146.5125900  37.0177210
  73.6191640 148.0481380  32.8333730  74.4682170 148.4851530  32.7673920
  73.2522910 148.3601640  33.6605790  84.2479410 147.3760960  44.3003940
  83.7453010 148.1166360  44.6397750  85.0636070 147.7644960  43.9840730
  82.5401420 152.6194140  37.7465300  81.5991560 152.6344370  37.9212990
  82.8545490 151.8330100  38.1925600  72.5183060 154.3013740  31.3069260
  73.2846330 154.1895100  31.8694690  72.5957750 153.6051710  30.6546030
  71.2129820 151.7338810  31.9902150  71.2933410 150.7866320  32.1019550
  72.1049570 152.0645690  32.0962810  68.7400620 153.5553730  47.2258320
  69.2439640 152.9761010  47.7974550  68.0008040 153.8393960  47.7634690
  70.7723700 151.6983320  48.1208390  70.8129040 151.3997190  49.0293620
  71.6269200 152.0990930  47.9615910  74.5502090 154.2978870  33.2811900
  74.9718510 154.1318740  34.1243290  74.6752930 153.4879100  32.7867040
  72.7129510 150.2775420  46.0882880  72.1825970 149.7866370  45.4606220
  73.3817580 150.7059620  45.5540810  77.0629730 153.3216480  30.5289000
  77.5835390 152.6065500  30.1630150  77.7098130 153.9602350  30.8289510
  82.0829740 152.0841040  47.8563220  82.6650510 151.3293360  47.7683700
  82.2591510 152.6148480  47.0794700  73.2001810 147.2437790  46.1680170
  73.1058680 146.6258540  45.4431040  72.6199200 147.9704080  45.9410080
  75.9663250 145.8011030  43.2007560  75.5180550 145.8235290  42.3553110
  75.3328450 145.4030050  43.7977860  78.7086700 152.4281540  45.2057840
  78.8282910 151.8322680  45.9452680  79.5680700 152.4651230  44.7859140
  81.0474600 152.9818730  43.7820350  80.5209820 153.5061350  43.1785490
  81.3905940 153.6146120  44.4130080  73.4460990 150.3712100  30.2270060
  73.2450050 149.5079460  30.5883400  73.2753040 150.2845460  29.2891660
  75.4755470 148.9702890  46.4633660  76.0655160 148.6618740  47.1511480
  74.6575710 148.4982640  46.6193560  80.2948900 148.5868700  46.6966680
  79.6064420 147.9250240  46.6316670  81.0154920 148.1406970  47.1415140
  80.9249300 145.1820330  32.7556940  81.2051590 144.3388230  33.1116360
  80.1515030 145.4143440  33.2695690  72.2443790 147.4712720  30.2147940
  72.5469690 147.4780150  29.3067090  72.9838380 147.1210580  30.7115600
  75.4628720 146.4147340  31.2004140  75.1150720 145.7371330  30.6206590
  75.6641490 145.9536850  32.0147530  68.8034360 152.9434990  37.5968510
  68.1483200 152.6746630  36.9528210  69.6412310 152.8339470  37.1470490
  81.7524800 147.7376280  31.8187000  82.1709680 147.5507260  30.9783660
  81.4460860 146.8855330  32.1289930  85.2514530 152.6500420  35.5162800
  84.8758130 151.8828350  35.0844090  84.5217650 153.0323120  36.0037730
  69.8410290 153.3287560  42.1371850  70.2083330 153.2414960  43.0167870
  69.2721110 152.5654110  42.0378710  84.6414150 151.7971940  45.1502320
  84.4100240 151.5684690  44.2500270  84.9018700 152.7171490  45.1047210
  69.3926290 150.2396650  46.0430270  68.4982340 150.2063410  46.3823980
  69.9323840 150.4383440  46.8081520  83.0802220 147.0228370  47.9282020
  83.9572400 147.0311770  48.3116020  83.0923060 146.2859210  47.3174370
  68.0172440 150.1533920  33.5393840  67.1136520 150.4164120  33.3645500
  68.5013060 150.4245090  32.7593800  84.5265490 150.8757910  38.8170040
  85.0502970 150.3820560  38.1860210  85.1124910 151.0108270  39.5617610
  84.7055210 150.9597780  42.3389590  83.7557920 150.9261320  42.4534580
  84.8868220 151.8697890  42.1039360  70.5599650 149.2099460  31.4488220
  71.2691350 148.7882680  30.9635500  69.8439590 149.2774690  30.8171570
  70.2073810 145.2638790  30.4890870  70.9301940 145.8047730  30.8072090
  70.4798330 144.9902210  29.6132410  84.0165460 150.1331260  34.7562450
  84.5124580 149.9002130  35.5411330  83.8181530 149.2943100  34.3400090
  69.8966000 144.5144980  40.3913490  70.5442190 143.9642360  39.9508650
  70.3167840 144.7688130  41.2129300  85.4452620 148.7692210  37.2900130
  85.3351900 148.6148250  38.2282400  86.2060210 148.2413150  37.0475540
  83.7918340 144.7086340  43.7483130  84.4290560 145.3220480  44.1142320
  83.9393230 144.7447000  42.8032360  86.3342890 146.6000130  30.5306270
  87.2592200 146.4681310  30.3224560  86.3118680 146.6792950  31.4842720
  86.4081380 147.3710790  33.1562980  85.6132880 147.3055910  33.6855890
  86.6124660 148.3061430  33.1448330  69.6498000 144.6700650  43.1338810
  69.3012820 145.1264470  43.8996990  69.3185700 143.7757780  43.2161240
  77.1622820 145.8612530  46.6558230  77.1011710 146.4534360  47.4053640
  78.1023200 145.7538490  46.5108490  79.7997380 145.5182590  46.2950520
  80.4137790 145.8361880  45.6331600  80.3446940 145.0331180  46.9146380
  70.3218640 144.1976850  46.4089580  70.8701630 144.0164900  45.6455690
  70.3873950 143.4070960  46.9445890  80.5405420 144.0814730  42.6219810
  79.6665260 144.4149840  42.4192740  80.4316170 143.6087910  43.4471680
  81.4477400 146.2885600  44.0061530  81.1190760 145.4737360  43.6263260
  82.3959700 146.2455410  43.8827220  78.2880240 144.9984570  41.5612720
  77.5052030 145.4730070  41.8409480  77.9943170 144.0939400  41.4525900
  82.8401310 145.7007670  39.6061810  83.2809400 145.6452770  38.7583410
  82.5708900 146.6165680  39.6771990  84.7039880 145.3322910  37.6170630
  84.6428280 144.3884130  37.4701650  85.4831910 145.4403000  38.1624090
  69.6320650 145.3032050  34.0826440  70.3900010 145.4160930  33.5090470
  69.1697820 146.1401250  34.0369870  76.1734460 147.4171320  37.0728750
  75.3608970 147.0428210  36.7324630  76.6776100 146.6616400  37.3749940
  80.6759440 144.0813770  38.3111820  81.2788810 144.6533980  38.7860340
  79.9352430 144.6453210  38.0885720  83.8194040 144.4835330  33.5852100
  84.0144670 145.3818780  33.8519530  83.0323910 144.2522410  34.0785050
  72.0045800 145.8296100  32.6228410  72.5338560 145.0425900  32.4936360
  72.6374120 146.5087290  32.8563940  74.1983640 145.5671240  35.6773800
  73.5686380 144.8658550  35.8443930  73.6588780 146.3275370  35.4606960
  74.3239200 144.8455220  48.1126290  74.0423470 145.3488820  47.3487110
  74.7058900 144.0476970  47.7468420  80.9254660 144.2608800  48.6906760
  80.8120110 144.5803410  49.5858280  81.7424400 144.6621310  48.3944040
  79.8312810 152.2801270  19.0541500  79.7506860 151.3655880  18.7833210
  79.4177230 152.7768340  18.3481210  77.9630850 154.0580290  20.9350770
  77.1872950 153.5780730  21.2249340  78.6143780 153.3785940  20.7606930
  70.3888630 149.3301990  15.5968920  69.5005330 149.6717960  15.4948800
  70.6729820 149.1302310  14.7049750  68.3521640 151.9307640  21.4808620
  68.9237750 151.1629840  21.4812260  68.3523180 152.2296400  20.5715230
  69.5946510 147.3392000  23.2677550  69.4149350 146.4417750  23.5480310
  69.1926590 147.8863870  23.9424500  78.4345010 149.5407860  21.1689860
  78.8109830 148.6679740  21.0563530  78.3364520 149.8766560  20.2780300
  72.5650020 147.9133490  16.6307300  72.6716770 148.8137220  16.9376060
  71.6542380 147.8651460  16.3401950  82.2169130 147.0358300  18.1018200
  83.0378750 146.5454870  18.1443680  82.2503210 147.6255960  18.8550040
  70.2133180 149.8352500  21.8759890  70.8943290 150.0990870  22.4947290
  69.8981230 148.9953370  22.2097900  74.4057750 150.8819860  20.9632480
  74.9135970 151.3800830  21.6037500  74.9370990 150.1055060  20.7871840
  86.5068680 149.0525050  24.6661830  85.8020850 149.4406760  24.1476940
  86.7726600 149.7475340  25.2682760  72.6893850 145.5218420  25.2295900
  72.6912290 146.0390810  24.4241800  71.8598160 145.0448600  25.2065830
  82.4530610 148.9758680  20.8745740  81.7486180 149.2643570  21.4548850
  82.8142770 149.7858790  20.5145300  72.3709180 147.2328380  23.2366350
  72.7125990 148.0770430  22.9420220  71.4324990 147.3812120  23.3531690
  85.5217530 148.4213470  21.2654950  84.5742440 148.4552450  21.3970380
  85.8467520 149.2352420  21.6504310  76.0537070 144.7210650  19.5610940
  76.3612050 144.1657540  18.8446440  75.1237770 144.8555110  19.3783930
  78.4417830 152.7859480  16.2971060  77.5147110 152.7196860  16.5259530
  78.5942650 153.7239610  16.1826300  78.4286910 149.0576480  13.2938220
  77.4890580 149.2190440  13.3790680  78.7470170 149.7762160  12.7474210
  81.9141680 150.5264320  24.2172120  81.5012860 151.3518030  24.4712110
  81.1817630 149.9409360  24.0248480  74.0474470 153.3124220  19.0790790
  73.6431470 152.6001470  18.5836690  74.1337590 152.9677460  19.9678830
  72.7603090 150.0867430  22.8589830  73.3117680 150.1962770  22.0843080
  73.2746600 150.4605030  23.5745060  80.6479820 153.5866590  13.8079060
  81.0873100 152.7489020  13.6616880  81.3608240 154.2195990  13.8943200
  84.2296960 144.8409400  12.1220100  83.9169620 144.9336230  13.0219170
  84.9909430 145.4190430  12.0717530  70.7479100 152.2069200  16.5797440
  70.6276700 152.9331290  15.9678710  70.4379990 151.4372110  16.1025350
  85.4398250 149.5780900  28.0994240  84.8242520 150.0860570  27.5709700
  85.1194670 148.6779230  28.0420180  73.2142760 145.5504270  19.9621110
  72.7710910 146.3313810  19.6305630  73.7727750 145.8734160  20.6692050
  77.5012570 148.4172790  25.5656430  77.0391940 148.6255810  26.3776370
  77.0990680 147.6032140  25.2627100  82.5017080 149.6381740  26.6953090
  81.6510670 149.3387490  27.0162160  82.3418870 149.8823750  25.7836910
  79.5966790 151.1383490  28.7951880  79.9220200 150.3047240  28.4554110
  80.3847120 151.6612010  28.9430210  76.3301580 145.1714970  14.8426940
  75.7055760 145.1674840  15.5680250  76.2431700 144.3045930  14.4462910
  75.2518660 146.0951600  21.8210710  75.5490990 147.0014430  21.7402730
  75.8004220 145.6070380  21.2070280  73.0056980 150.6737840  17.6902360
  72.7797900 150.4575010  18.5948980  72.2249510 151.1066300  17.3448330
  80.2354740 150.6801210  16.2893010  79.6363630 151.4037010  16.1056630
  80.7834350 150.6177990  15.5069460  75.4456190 151.5723420  28.3562630
  75.3499790 150.6318150  28.2063030  76.2888170 151.7938490  27.9610700
  78.8419610 149.3164750  18.3196290  79.2349180 149.6336950  17.5064980
  79.2036460 148.4376630  18.4340810  70.5766730 147.9837090  26.5096410
  70.1830120 148.8312300  26.7169190  69.8885130 147.3463460  26.7005050
  77.1511780 148.0672060  29.5793150  76.4610100 147.8744260  30.2139240
  77.8944080 148.3506700  30.1117450  67.8783780 145.9065550  20.5426490
  67.5896830 146.4768410  21.2551470  68.6229540 145.4270000  20.9057720
  68.0654010 149.8485670  11.7529210  67.9828680 150.7916430  11.8944200
  67.7137070 149.7060580  10.8741560  79.4274750 151.9070500  22.4147070
  78.6955870 152.4157310  22.7637170  79.0299090 151.0900480  22.1135850
  75.8652140 148.5824700  20.8199560  75.8688200 148.1414650  19.9704100
  76.7603260 148.9042030  20.9271380  71.7154520 148.4651190  19.7793770
  71.3754570 148.9426420  20.5360820  70.9531840 148.0116310  19.4194870
  75.9272290 149.5836780  13.8106320  76.0485110 149.5423260  14.7592140
  75.5420800 150.4460930  13.6553050  79.8900660 147.3604180  21.8270010
  79.9073400 147.8112830  22.6711860  79.6416240 146.4609820  22.0403450
  74.9393790 151.8937920  13.2089620  74.3710690 151.4456170  12.5825530
  75.6482790 152.2530700  12.6754770  83.3171410 144.7736360  27.6656390
  83.6417180 144.0426020  28.1914370  83.3527920 144.4550000  26.7637380
  76.1660110 152.6426480  22.5664970  76.5330240 152.1685050  23.3126310
  75.9765170 153.5168050  22.9073310  69.0300600 147.3870170  18.6958440
  68.7447520 147.0225840  19.5337060  68.9679460 146.6550630  18.0821580
  73.9559480 151.6835120  24.8849180  73.6516550 152.5627100  25.1099540
  74.9105940 151.7434910  24.9206620  78.7039190 146.2799430  15.4171810
  77.8903800 145.7812600  15.3417120  78.5101140 147.1197680  15.0008160
  81.4187580 150.6519080  13.7133970  82.3067200 150.9636310  13.5385310
  81.3892670 149.7791330  13.3214550  70.0123210 152.5237860  26.0320540
  69.6538150 153.1891710  26.6193880  69.7177770 151.6921410  26.4033160
  73.2136330 152.9822100  28.9160090  72.9136470 153.1279280  28.0187910
  73.9847570 152.4227390  28.8233480  83.6901850 151.9630920  13.1813830
  83.6065570 152.3945140  12.3310270  84.4096040 152.4229270  13.6140650
  68.5231260 152.5229120  12.6555140  69.3926110 152.8053920  12.9391060
  68.0321580 153.3364990  12.5403950  71.5877850 144.2539980  17.2485940
  71.4592480 144.2457880  18.1970860  70.7639870 144.5923070  16.8976950
  68.5871780 146.0131100  26.7092640  67.8730300 146.2128020  27.3145250
  69.0066820 145.2370670  27.0807440  80.0810560 148.5053410  24.4594090
  80.4491380 147.6848620  24.7873660  79.2208760 148.5655300  24.8749740
  83.4472590 147.4610350  15.2681650  82.8185750 147.5656020  14.5539880
  82.9524510 147.6807130  16.0575530  75.4156620 149.7396300  16.6839530
  74.7072770 150.2082640  17.1253140  75.7001100 149.0818310  17.3184720
  77.0412550 151.1593000  24.6832060  77.5397800 151.6338820  25.3483910
  77.1835500 150.2356520  24.8902090  79.4472050 146.4646960  18.1235320
  79.3239830 146.4833090  17.1744830  80.3956610 146.5125900  18.2433720
  73.6191640 148.0481380  14.0590240  74.4682170 148.4851530  13.9930430
  73.2522910 148.3601640  14.8862300  84.2479410 147.3760960  25.5260450
  83.7453010 148.1166360  25.8654260  85.0636070 147.7644960  25.2097240
  82.5401420 152.6194140  18.9721810  81.5991560 152.6344370  19.1469500
  82.8545490 151.8330100  19.4182110  72.5183060 154.3013740  12.5325770
  73.2846330 154.1895100  13.0951200  72.5957750 153.6051710  11.8802540
  71.2129820 151.7338810  13.2158660  71.2933410 150.7866320  13.3276060
  72.1049570 152.0645690  13.3219320  68.7400620 153.5553730  28.4514830
  69.2439640 152.9761010  29.0231060  68.0008040 153.8393960  28.9891200
  70.7723700 151.6983320  29.3464900  70.8129040 151.3997190  30.2550130
  71.6269200 152.0990930  29.1872420  74.5502090 154.2978870  14.5068410
  74.9718510 154.1318740  15.3499800  74.6752930 153.4879100  14.0123550
  72.7129510 150.2775420  27.3139390  72.1825970 149.7866370  26.6862730
  73.3817580 150.7059620  26.7797320  77.0629730 153.3216480  11.7545510
  77.5835390 152.6065500  11.3886660  77.7098130 153.9602350  12.0546020
  82.0829740 152.0841040  29.0819730  82.6650510 151.3293360  28.9940210
  82.2591510 152.6148480  28.3051210  73.2001810 147.2437790  27.3936680
  73.1058680 146.6258540  26.6687550  72.6199200 147.9704080  27.1666590
  75.9663250 145.8011030  24.4264070  75.5180550 145.8235290  23.5809620
  75.3328450 145.4030050  25.0234370  78.7086700 152.4281540  26.4314350
  78.8282910 151.8322680  27.1709190  79.5680700 152.4651230  26.0115650
  81.0474600 152.9818730  25.0076860  80.5209820 153.5061350  24.4042000
  81.3905940 153.6146120  25.6386590  73.4460990 150.3712100  11.4526570
  73.2450050 149.5079460  11.8139910  73.2753040 150.2845460  10.5148170
  75.4755470 148.9702890  27.6890170  76.0655160 148.6618740  28.3767990
  74.6575710 148.4982640  27.8450070  80.2948900 148.5868700  27.9223190
  79.6064420 147.9250240  27.8573180  81.0154920 148.1406970  28.3671650
  80.9249300 145.1820330  13.9813450  81.2051590 144.3388230  14.3372870
  80.1515030 145.4143440  14.4952200  72.2443790 147.4712720  11.4404450
  72.5469690 147.4780150  10.5323600  72.9838380 147.1210580  11.9372110
  75.4628720 146.4147340  12.4260650  75.1150720 145.7371330  11.8463100
  75.6641490 145.9536850  13.2404040  68.8034360 152.9434990  18.8225020
  68.1483200 152.6746630  18.1784720  69.6412310 152.8339470  18.3727000
  81.7524800 147.7376280  13.0443510  82.1709680 147.5507260  12.2040170
  81.4460860 146.8855330  13.3546440  85.2514530 152.6500420  16.7419310
  84.8758130 151.8828350  16.3100600  84.5217650 153.0323120  17.2294240
  69.8410290 153.3287560  23.3628360  70.2083330 153.2414960  24.2424380
  69.2721110 152.5654110  23.2635220  84.6414150 151.7971940  26.3758830
  84.4100240 151.5684690  25.4756780  84.9018700 152.7171490  26.3303720
  69.3926290 150.2396650  27.2686780  68.4982340 150.2063410  27.6080490
  69.9323840 150.4383440  28.0338030  83.0802220 147.0228370  29.1538530
  83.9572400 147.0311770  29.5372530  83.0923060 146.2859210  28.5430880
  68.0172440 150.1533920  14.7650350  67.1136520 150.4164120  14.5902010
  68.5013060 150.4245090  13.9850310  84.5265490 150.8757910  20.0426550
  85.0502970 150.3820560  19.4116720  85.1124910 151.0108270  20.7874120
  84.7055210 150.9597780  23.5646100  83.7557920 150.9261320  23.6791090
  84.8868220 151.8697890  23.3295870  70.5599650 149.2099460  12.6744730
  71.2691350 148.7882680  12.1892010  69.8439590 149.2774690  12.0428080
  70.2073810 145.2638790  11.7147380  70.9301940 145.8047730  12.0328600
  70.4798330 144.9902210  10.8388920  84.0165460 150.1331260  15.9818960
  84.5124580 149.9002130  16.7667840  83.8181530 149.2943100  15.5656600
  69.8966000 144.5144980  21.6170000  70.5442190 143.9642360  21.1765160
  70.3167840 144.7688130  22.4385810  85.4452620 148.7692210  18.5156640
  85.3351900 148.6148250  19.4538910  86.2060210 148.2413150  18.2732050
  83.7918340 144.7086340  24.9739640  84.4290560 145.3220480  25.3398830
  83.9393230 144.7447000  24.0288870  86.3342890 146.6000130  11.7562780
  87.2592200 146.4681310  11.5481070  86.3118680 146.6792950  12.7099230
  86.4081380 147.3710790  14.3819490  85.6132880 147.3055910  14.9112400
  86.6124660 148.3061430  14.3704840  69.6498000 144.6700650  24.3595320
  69.3012820 145.1264470  25.1253500  69.3185700 143.7757780  24.4417750
  77.1622820 145.8612530  27.8814740  77.1011710 146.4534360  28.6310150
  78.1023200 145.7538490  27.7365000  79.7997380 145.5182590  27.5207030
  80.4137790 145.8361880  26.8588110  80.3446940 145.0331180  28.1402890
  70.3218640 144.1976850  27.6346090  70.8701630 144.0164900  26.8712200
  70.3873950 143.4070960  28.1702400  80.5405420 144.0814730  23.8476320
  79.6665260 144.4149840  23.6449250  80.4316170 143.6087910  24.6728190
  81.4477400 146.2885600  25.2318040  81.1190760 145.4737360  24.8519770
  82.3959700 146.2455410  25.1083730  78.2880240 144.9984570  22.7869230
  77.5052030 145.4730070  23.0665990  77.9943170 144.0939400  22.6782410
  82.8401310 145.7007670  20.8318320  83.2809400 145.6452770  19.9839920
  82.5708900 146.6165680  20.9028500  84.7039880 145.3322910  18.8427140
  84.6428280 144.3884130  18.6958160  85.4831910 145.4403000  19.3880600
  69.6320650 145.3032050  15.3082950  70.3900010 145.4160930  14.7346980
  69.1697820 146.1401250  15.2626380  76.1734460 147.4171320  18.2985260
  75.3608970 147.0428210  17.9581140  76.6776100 146.6616400  18.6006450
  80.6759440 144.0813770  19.5368330  81.2788810 144.6533980  20.0116850
  79.9352430 144.6453210  19.3142230  83.8194040 144.4835330  14.8108610
  84.0144670 145.3818780  15.0776040  83.0323910 144.2522410  15.3041560
  72.0045800 145.8296100  13.8484920  72.5338560 145.0425900  13.7192870
  72.6374120 146.5087290  14.0820450  74.1983640 145.5671240  16.9030310
  73.5686380 144.8658550  17.0700440  73.6588780 146.3275370  16.6863470
  74.3239200 144.8455220  29.3382800  74.0423470 145.3488820  28.5743620
  74.7058900 144.0476970  28.9724930  80.9254660 144.2608800  29.9163270
  80.8120110 144.5803410  30.8114790  81.7424400 144.6621310  29.6200550
  77.9630850 154.0580290   2.1607280  77.1872950 153.5780730   2.4505850
  78.6143780 153.3785940   1.9863440  68.3521640 151.9307640   2.7065130
  68.9237750 151.1629840   2.7068770  68.3523180 152.2296400   1.7971740
  69.5946510 147.3392000   4.4934060  69.4149350 146.4417750   4.7736820
  69.1926590 147.8863870   5.1681010  70.2133180 149.8352500   3.1016400
  70.8943290 150.0990870   3.7203800  69.8981230 148.9953370   3.4354410
  74.4057750 150.8819860   2.1888990  74.9135970 151.3800830   2.8294010
  74.9370990 150.1055060   2.0128350  86.5068680 149.0525050   5.8918340
  85.8020850 149.4406760   5.3733450  86.7726600 149.7475340   6.4939270
  72.6893850 145.5218420   6.4552410  72.6912290 146.0390810   5.6498310
  71.8598160 145.0448600   6.4322340  82.4530610 148.9758680   2.1002250
  81.7486180 149.2643570   2.6805360  82.8142770 149.7858790   1.7401810
  72.3709180 147.2328380   4.4622860  72.7125990 148.0770430   4.1676730
  71.4324990 147.3812120   4.5788200  85.5217530 148.4213470   2.4911460
  84.5742440 148.4552450   2.6226890  85.8467520 149.2352420   2.8760820
  81.9141680 150.5264320   5.4428630  81.5012860 151.3518030   5.6968620
  81.1817630 149.9409360   5.2504990  72.7603090 150.0867430   4.0846340
  73.3117680 150.1962770   3.3099590  73.2746600 150.4605030   4.8001570
  85.4398250 149.5780900   9.3250750  84.8242520 150.0860570   8.7966210
  85.1194670 148.6779230   9.2676690  77.5012570 148.4172790   6.7912940
  77.0391940 148.6255810   7.6032880  77.0990680 147.6032140   6.4883610
  82.5017080 149.6381740   7.9209600  81.6510670 149.3387490   8.2418670
  82.3418870 149.8823750   7.0093420  79.5966790 151.1383490  10.0208390
  79.9220200 150.3047240   9.6810620  80.3847120 151.6612010  10.1686720
  75.2518660 146.0951600   3.0467220  75.5490990 147.0014430   2.9659240
  75.8004220 145.6070380   2.4326790  75.4456190 151.5723420   9.5819140
  75.3499790 150.6318150   9.4319540  76.2888170 151.7938490   9.1867210
  70.5766730 147.9837090   7.7352920  70.1830120 148.8312300   7.9425700
  69.8885130 147.3463460   7.9261560  77.1511780 148.0672060  10.8049660
  76.4610100 147.8744260  11.4395750  77.8944080 148.3506700  11.3373960
  67.8783780 145.9065550   1.7683000  67.5896830 146.4768410   2.4807980
  68.6229540 145.4270000   2.1314230  79.4274750 151.9070500   3.6403580
  78.6955870 152.4157310   3.9893680  79.0299090 151.0900480   3.3392360
  79.8900660 147.3604180   3.0526520  79.9073400 147.8112830   3.8968370
  79.6416240 146.4609820   3.2659960  83.3171410 144.7736360   8.8912900
  83.6417180 144.0426020   9.4170880  83.3527920 144.4550000   7.9893890
  76.1660110 152.6426480   3.7921480  76.5330240 152.1685050   4.5382820
  75.9765170 153.5168050   4.1329820  73.9559480 151.6835120   6.1105690
  73.6516550 152.5627100   6.3356050  74.9105940 151.7434910   6.1463130
  70.0123210 152.5237860   7.2577050  69.6538150 153.1891710   7.8450390
  69.7177770 151.6921410   7.6289670  73.2136330 152.9822100  10.1416600
  72.9136470 153.1279280   9.2444420  73.9847570 152.4227390  10.0489990
  68.5871780 146.0131100   7.9349150  67.8730300 146.2128020   8.5401760
  69.0066820 145.2370670   8.3063950  80.0810560 148.5053410   5.6850600
  80.4491380 147.6848620   6.0130170  79.2208760 148.5655300   6.1006250
  77.0412550 151.1593000   5.9088570  77.5397800 151.6338820   6.5740420
  77.1835500 150.2356520   6.1158600  84.2479410 147.3760960   6.7516960
  83.7453010 148.1166360   7.0910770  85.0636070 147.7644960   6.4353750
  68.7400620 153.5553730   9.6771340  69.2439640 152.9761010  10.2487570
  68.0008040 153.8393960  10.2147710  70.7723700 151.6983320  10.5721410
  70.8129040 151.3997190  11.4806640  71.6269200 152.0990930  10.4128930
  72.7129510 150.2775420   8.5395900  72.1825970 149.7866370   7.9119240
  73.3817580 150.7059620   8.0053830  82.0829740 152.0841040  10.3076240
  82.6650510 151.3293360  10.2196720  82.2591510 152.6148480   9.5307720
  73.2001810 147.2437790   8.6193190  73.1058680 146.6258540   7.8944060
  72.6199200 147.9704080   8.3923100  75.9663250 145.8011030   5.6520580
  75.5180550 145.8235290   4.8066130  75.3328450 145.4030050   6.2490880
  78.7086700 152.4281540   7.6570860  78.8282910 151.8322680   8.3965700
  79.5680700 152.4651230   7.2372160  81.0474600 152.9818730   6.2333370
  80.5209820 153.5061350   5.6298510  81.3905940 153.6146120   6.8643100
  75.4755470 148.9702890   8.9146680  76.0655160 148.6618740   9.6024500
  74.6575710 148.4982640   9.0706580  80.2948900 148.5868700   9.1479700
  79.6064420 147.9250240   9.0829690  81.0154920 148.1406970   9.5928160
  69.8410290 153.3287560   4.5884870  70.2083330 153.2414960   5.4680890
  69.2721110 152.5654110   4.4891730  84.6414150 151.7971940   7.6015340
  84.4100240 151.5684690   6.7013290  84.9018700 152.7171490   7.5560230
  69.3926290 150.2396650   8.4943290  68.4982340 150.2063410   8.8337000
  69.9323840 150.4383440   9.2594540  83.0802220 147.0228370  10.3795040
  83.9572400 147.0311770  10.7629040  83.0923060 146.2859210   9.7687390
  84.7055210 150.9597780   4.7902610  83.7557920 150.9261320   4.9047600
  84.8868220 151.8697890   4.5552380  69.8966000 144.5144980   2.8426510
  70.5442190 143.9642360   2.4021670  70.3167840 144.7688130   3.6642320
  83.7918340 144.7086340   6.1996150  84.4290560 145.3220480   6.5655340
  83.9393230 144.7447000   5.2545380  69.6498000 144.6700650   5.5851830
  69.3012820 145.1264470   6.3510010  69.3185700 143.7757780   5.6674260
  77.1622820 145.8612530   9.1071250  77.1011710 146.4534360   9.8566660
  78.1023200 145.7538490   8.9621510  79.7997380 145.5182590   8.7463540
  80.4137790 145.8361880   8.0844620  80.3446940 145.0331180   9.3659400
  70.3218640 144.1976850   8.8602600  70.8701630 144.0164900   8.0968710
  70.3873950 143.4070960   9.3958910  80.5405420 144.0814730   5.0732830
  79.6665260 144.4149840   4.8705760  80.4316170 143.6087910   5.8984700
  81.4477400 146.2885600   6.4574550  81.1190760 145.4737360   6.0776280
  82.3959700 146.2455410   6.3340240  78.2880240 144.9984570   4.0125740
  77.5052030 145.4730070   4.2922500  77.9943170 144.0939400   3.9038920
  74.3239200 144.8455220  10.5639310  74.0423470 145.3488820   9.8000130
  74.7058900 144.0476970  10.1981440  80.9254660 144.2608800  11.1419780
  80.8120110 144.5803410  12.0371300  81.7424400 144.6621310  10.8457060
  79.8312810 133.5057780 150.4745930  79.7506860 132.5912390 150.2037640
  79.4177230 134.0024850 149.7685640  81.9838280 139.6896990 151.1354330
  81.5219810 138.9184230 151.4641500  82.7963830 139.7163060 151.6406780
  70.3888630 130.5558500 147.0173350  69.5005330 130.8974470 146.9153230
  70.6729820 130.3558820 146.1254180  78.2101590 141.9755000 150.7558320
  77.5913030 142.4312500 150.1852760  79.0653370 142.1306460 150.3548020
  72.5650020 129.1390000 148.0511730  72.6716770 130.0393730 148.3580490
  71.6542380 129.0907970 147.7606380  82.2169130 128.2614810 149.5222630
  83.0378750 127.7711380 149.5648110  82.2503210 128.8512470 150.2754470
  79.0764940 136.8594240 148.1490230  78.4582210 137.3243690 147.5852950
  79.5888190 137.5521720 148.5659740  68.4448140 137.5450770 145.5229860
  68.0676120 138.0337870 144.7914760  68.7021210 138.2176050 146.1536390
  76.0537070 125.9467160 150.9815370  76.3612050 125.3914050 150.2650870
  75.1237770 126.0811620 150.7988360  82.8997550 138.3850670 148.3613000
  82.7893880 137.4425000 148.4862420  82.8965800 138.7466310 149.2475760
  78.4417830 134.0115990 147.7175490  77.5147110 133.9453370 147.9463960
  78.5942650 134.9496120 147.6030730  78.4286910 130.2832990 144.7142650
  77.4890580 130.4446950 144.7995110  78.7470170 131.0018670 144.1678640
  82.4715120 135.5736290 148.2210740  81.8527540 135.2355840 147.5737040
  82.4539570 134.9296050 148.9289930  74.0474470 134.5380730 150.4995220
  73.6431470 133.8257980 150.0041120  74.1337590 134.1933970 151.3883260
  80.6479820 134.8123100 145.2283490  81.0873100 133.9745530 145.0821310
  81.3608240 135.4452500 145.3147630  78.7575200 139.7519170 149.1964730
  79.1971110 140.4943500 148.7820120  78.6962090 139.9945740 150.1203690
  84.2296960 126.0665910 143.5424530  83.9169620 126.1592740 144.4423600
  84.9909430 126.6446940 143.4921960  70.7479100 133.4325710 148.0001870
  70.6276700 134.1587800 147.3883140  70.4379990 132.6628620 147.5229780
  69.6312100 138.3041040 150.2176690  69.2240180 138.4455630 149.3630290
  70.5225110 138.0201200 150.0147900  81.4245380 142.7388290 146.5527740
  81.2646520 142.4491230 147.4509570  81.2592090 141.9628420 146.0172970
  73.9033760 142.5186820 148.3299360  73.7276240 141.6022360 148.1167160
  73.0489500 142.8774110 148.5697160  81.1271510 140.2475850 145.1125740
  80.4336670 140.2453140 144.4528020  81.8694370 139.8235170 144.6819910
  80.6921440 141.8738560 149.1874230  81.1478390 141.0927940 149.5012850
  81.0313960 142.5845380 149.7315410  73.2142760 126.7760780 151.3825540
  72.7710910 127.5570320 151.0510060  73.7727750 127.0990670 152.0896480
  76.3301580 126.3971480 146.2631370  75.7055760 126.3931350 146.9884680
  76.2431700 125.5302440 145.8667340  73.0056980 131.8994350 149.1106790
  72.7797900 131.6831520 150.0153410  72.2249510 132.3322810 148.7652760
  80.2354740 131.9057720 147.7097440  79.6363630 132.6293520 147.5261060
  80.7834350 131.8434500 146.9273890  78.8419610 130.5421260 149.7400720
  79.2349180 130.8593460 148.9269410  79.2036460 129.6633140 149.8545240
  68.0654010 131.0742180 143.1733640  67.9828680 132.0172940 143.3148630
  67.7137070 130.9317090 142.2945990  75.8652140 129.8081210 152.2403990
  75.8688200 129.3671160 151.3908530  76.7603260 130.1298540 152.3475810
  71.7154520 129.6907700 151.1998200  71.3754570 130.1682930 151.9565250
  70.9531840 129.2372820 150.8399300  75.9272290 130.8093290 145.2310750
  76.0485110 130.7679770 146.1796570  75.5420800 131.6717440 145.0757480
  74.9393790 133.1194430 144.6294050  74.3710690 132.6712680 144.0029960
  75.6482790 133.4787210 144.0959200  69.0300600 128.6126680 150.1162870
  68.7447520 128.2482350 150.9541490  68.9679460 127.8807140 149.5026010
  72.4841270 137.1152620 146.9020460  71.7103530 136.5750240 146.7419180
  73.2135900 136.5959230 146.5638220  78.7039190 127.5055940 146.8376240
  77.8903800 127.0069110 146.7621550  78.5101140 128.3454190 146.4212590
  81.4187580 131.8775590 145.1338400  82.3067200 132.1892820 144.9589740
  81.3892670 131.0047840 144.7418980  72.5278670 136.7833000 150.5399270
  73.0457340 135.9801260 150.4856160  72.0762690 136.7212140 151.3816100
  77.4148170 138.0499280 145.8126570  77.7563870 138.7941510 145.3169890
  76.5860880 138.3630400 146.1751400  83.6901850 133.1887430 144.6018260
  83.6065570 133.6201650 143.7514700  84.4096040 133.6485780 145.0345080
  84.7189100 140.0429690 147.3300390  84.0765260 139.3885310 147.6044110
  84.3319760 140.4484780 146.5541060  80.2975580 137.3715120 151.1772080
  80.6499400 136.7743250 150.5173450  79.4137910 137.0459350 151.3480330
  76.3838860 138.1312810 148.5842490  77.0709990 138.6782020 148.9650080
  75.5971280 138.6753540 148.6192100  68.5231260 133.7485630 144.0759570
  69.3926110 134.0310430 144.3595490  68.0321580 134.5621500 143.9608380
  75.6866070 135.1358840 148.1967850  76.1428850 135.9464090 148.4228040
  75.3354280 134.8181980 149.0286340  71.5877850 125.4796490 148.6690370
  71.4592480 125.4714390 149.6175290  70.7639870 125.8179580 148.3181380
  83.1086480 138.9346150 143.8676740  82.8824060 138.2176590 144.4601380
  82.7182680 138.6858590 143.0298490  68.8902510 142.9613010 144.6421200
  69.2500150 143.5602350 143.9878470  68.7494850 143.5072900 145.4156230
  82.6902730 136.8518090 145.5290900  82.4024430 137.3130780 146.3168780
  83.4854900 136.3915860 145.7975120  74.9071130 140.3444210 145.4594870
  74.8981230 141.0773900 144.8439380  73.9869490 140.0975790 145.5521830
  70.5077770 135.5659100 146.2041630  69.9005720 136.3058000 146.2136930
  70.9827120 135.6558460 145.3779830  83.4472590 128.6866860 146.6886080
  82.8185750 128.7912530 145.9744310  82.9524510 128.9063640 147.4779960
  77.8930730 140.4072450 144.1220060  77.9942710 140.2036440 143.1922040
  76.9932470 140.1530730 144.3267840  75.4156620 130.9652810 148.1043960
  74.7072770 131.4339150 148.5457570  75.7001100 130.3074820 148.7389150
  79.4472050 127.6903470 149.5439750  79.3239830 127.7089600 148.5949260
  80.3956610 127.7382410 149.6638150  76.5348840 142.9258770 148.8167730
  76.7890340 142.8880160 147.8947100  75.5861320 142.7992100 148.8095980
  73.6191640 129.2737890 145.4794670  74.4682170 129.7108040 145.4134860
  73.2522910 129.5858150 146.3066730  82.5401420 133.8450650 150.3926240
  81.5991560 133.8600880 150.5673930  82.8545490 133.0586610 150.8386540
  72.5183060 135.5270250 143.9530200  73.2846330 135.4151610 144.5155630
  72.5957750 134.8308220 143.3006970  71.2129820 132.9595320 144.6363090
  71.2933410 132.0122830 144.7480490  72.1049570 133.2902200 144.7423750
  72.0144530 143.1090710 151.7397630  72.7507010 142.5606170 152.0106200
  72.3985450 143.9746720 151.6003620  68.8990010 139.1764280 147.6139140
  67.9729790 139.4185420 147.6044550  69.3646440 140.0038540 147.4923890
  75.1246840 142.2821020 143.5623200  75.9175450 142.5709850 143.1104990
  74.6051190 141.8513190 142.8835680  84.1777010 141.5091150 144.9859940
  83.8918520 141.0956290 144.1714120  83.9796560 142.4378860 144.8660460
  75.6424240 137.5024430 143.4265550  75.5374880 136.8876780 144.1526930
  75.4748460 136.9790320 142.6428560  78.8826970 136.5644460 144.0307540
  78.3337070 137.0113760 144.6750280  79.5046230 136.0593710 144.5545210
  74.5502090 135.5235380 145.9272840  74.9718510 135.3575250 146.7704230
  74.6752930 134.7135610 145.4327980  77.0629730 134.5472990 143.1749940
  77.5835390 133.8322010 142.8091090  77.7098130 135.1858860 143.4750450
  73.4460990 131.5968610 142.8731000  73.2450050 130.7335970 143.2344340
  73.2753040 131.5101970 141.9352600  80.9249300 126.4076840 145.4017880
  81.2051590 125.5644740 145.7577300  80.1515030 126.6399950 145.9156630
  72.2443790 128.6969230 142.8608880  72.5469690 128.7036660 141.9528030
  72.9838380 128.3467090 143.3576540  75.4628720 127.6403850 143.8465080
  75.1150720 126.9627840 143.2667530  75.6641490 127.1793360 144.6608470
  77.6277760 142.6284600 145.4651680  78.5228550 142.9669570 145.4870440
  77.6595390 141.9064010 144.8375960  71.2673920 138.0011650 143.6938680
  71.7048790 138.5441320 144.3496260  71.7521650 137.1758600 143.7035020
  68.4819720 140.7900680 151.1458940  68.8122730 139.9221740 150.9137580
  68.9110720 140.9959200 151.9763900  73.0781640 139.1209690 148.8060910
  72.7777180 138.9974660 149.7064820  72.9719130 138.2618280 148.3976640
  85.8473560 138.9006090 143.5087590  85.0166520 138.9682740 143.9794820
  86.0245390 139.7910210 143.2054450  85.3030020 135.6453570 146.0121790
  86.0648930 136.2150220 146.1181480  85.3184390 135.0780770 146.7830100
  68.8034360 134.1691500 150.2429450  68.1483200 133.9003140 149.5989150
  69.6412310 134.0595980 149.7931430  86.3089990 136.5003670 150.8563720
  86.6798820 135.7170990 150.4499690  86.9491920 137.1892770 150.6781020
  85.3549190 135.9387940 143.1694310  85.6298030 136.8466820 143.0413530
  85.1659930 135.8750470 144.1056300  81.7524800 128.9632790 144.4647940
  82.1709680 128.7763770 143.6244600  81.4460860 128.1111840 144.7750870
  85.2514530 133.8756930 148.1623740  84.8758130 133.1084860 147.7305030
  84.5217650 134.2579630 148.6498670  68.0172440 131.3790430 146.1854780
  67.1136520 131.6420630 146.0106440  68.5013060 131.6501600 145.4054740
  84.5265490 132.1014420 151.4630980  85.0502970 131.6077070 150.8321150
  85.1124910 132.2364780 152.2078550  70.5599650 130.4355970 144.0949160
  71.2691350 130.0139190 143.6096440  69.8439590 130.5031200 143.4632510
  70.2073810 126.4895300 143.1351810  70.9301940 127.0304240 143.4533030
  70.4798330 126.2158720 142.2593350  84.0165460 131.3587770 147.4023390
  84.5124580 131.1258640 148.1872270  83.8181530 130.5199610 146.9861030
  85.4452620 129.9948720 149.9361070  85.3351900 129.8404760 150.8743340
  86.2060210 129.4669660 149.6936480  86.3342890 127.8256640 143.1767210
  87.2592200 127.6937820 142.9685500  86.3118680 127.9049460 144.1303660
  86.4081380 128.5967300 145.8023920  85.6132880 128.5312420 146.3316830
  86.6124660 129.5317940 145.7909270  83.3499800 142.6358850 149.7962310
  83.9458870 142.3143420 149.1196730  83.6077950 142.1630670 150.5875580
  82.8401310 126.9264180 152.2522750  83.2809400 126.8709280 151.4044350
  82.5708900 127.8422190 152.3232930  84.7039880 126.5579420 150.2631570
  84.6428280 125.6140640 150.1162590  85.4831910 126.6659510 150.8085030
  69.0092630 142.6971780 149.2255520  68.8414670 142.0642460 149.9237410
  68.1427140 142.9031180 148.8749710  69.6320650 126.5288560 146.7287380
  70.3900010 126.6417440 146.1551410  69.1697820 127.3657760 146.6830810
  76.1734460 128.6427830 149.7189690  75.3608970 128.2684720 149.3785570
  76.6776100 127.8872910 150.0210880  80.6759440 125.3070280 150.9572760
  81.2788810 125.8790490 151.4321280  79.9352430 125.8709720 150.7346660
  83.8194040 125.7091840 146.2313040  84.0144670 126.6075290 146.4980470
  83.0323910 125.4778920 146.7245990  70.6155330 141.3905010 146.6705660
  70.0902950 141.7713040 145.9667620  70.5399910 142.0155780 147.3915370
  72.0045800 127.0552610 145.2689350  72.5338560 126.2682410 145.1397300
  72.6374120 127.7343800 145.5024880  74.1983640 126.7927750 148.3234740
  73.5686380 126.0915060 148.4904870  73.6588780 127.5531880 148.1067900
  85.3720650 142.9492550 147.9919600  85.5472840 142.2630290 147.3480520
  84.6742220 143.4739600 147.5996270  73.2148300 143.3387390 145.5454910
  73.9467120 143.0546670 144.9978800  73.4741970 143.1000670 146.4354290
  72.3763090 139.4552120 145.5501240  71.7471970 139.9237220 146.0987070
  72.4910920 138.6101340 145.9847430  79.8312810 133.5057780 131.7002440
  79.7506860 132.5912390 131.4294150  79.4177230 134.0024850 130.9942150
  77.9630850 135.2836800 133.5811710  77.1872950 134.8037240 133.8710280
  78.6143780 134.6042450 133.4067870  71.9796680 135.5956610 134.4587470
  71.1481560 135.3405320 134.8583980  72.5877660 135.6667380 135.1945390
  81.9838280 139.6896990 132.3610840  81.5219810 138.9184230 132.6898010
  82.7963830 139.7163060 132.8663290  71.9597940 139.6296700 134.6545490
  72.2625980 138.7394440 134.4755710  72.7041530 140.1866920 134.4267740
  70.3888630 130.5558500 128.2429860  69.5005330 130.8974470 128.1409740
  70.6729820 130.3558820 127.3510690  68.3521640 133.1564150 134.1269560
  68.9237750 132.3886350 134.1273200  68.3523180 133.4552910 133.2176170
  78.2101590 141.9755000 131.9814830  77.5913030 142.4312500 131.4109270
  79.0653370 142.1306460 131.5804530  77.4039840 137.9593990 133.5881870
  77.3348120 137.0183930 133.4271000  78.1659700 138.0495400 134.1604440
  69.5946510 128.5648510 135.9138490  69.4149350 127.6674260 136.1941250
  69.1926590 129.1120380 136.5885440  78.4345010 130.7664370 133.8150800
  78.8109830 129.8936250 133.7024470  78.3364520 131.1023070 132.9241240
  72.5650020 129.1390000 129.2768240  72.6716770 130.0393730 129.5837000
  71.6542380 129.0907970 128.9862890  82.2169130 128.2614810 130.7479140
  83.0378750 127.7711380 130.7904620  82.2503210 128.8512470 131.5010980
  70.2133180 131.0609010 134.5220830  70.8943290 131.3247380 135.1408230
  69.8981230 130.2209880 134.8558840  74.4057750 132.1076370 133.6093420
  74.9135970 132.6057340 134.2498440  74.9370990 131.3311570 133.4332780
  86.5068680 130.2781560 137.3122770  85.8020850 130.6663270 136.7937880
  86.7726600 130.9731850 137.9143700  72.6893850 126.7474930 137.8756840
  72.6912290 127.2647320 137.0702740  71.8598160 126.2705110 137.8526770
  79.0764940 136.8594240 129.3746740  78.4582210 137.3243690 128.8109460
  79.5888190 137.5521720 129.7916250  73.9396700 136.3870110 136.0530340
  73.6066080 137.0139030 136.6951410  74.1163380 136.9131990 135.2732010
  82.4530610 130.2015190 133.5206680  81.7486180 130.4900080 134.1009790
  82.8142770 131.0115300 133.1606240  72.3709180 128.4584890 135.8827290
  72.7125990 129.3026940 135.5881160  71.4324990 128.6068630 135.9992630
  73.1515800 138.3550910 137.8679520  73.7689800 139.0301990 137.5863970
  72.2908920 138.7638890 137.7767020  68.4448140 137.5450770 126.7486370
  68.0676120 138.0337870 126.0171270  68.7021210 138.2176050 127.3792900
  84.0693390 139.8190320 135.7834160  83.3856910 140.4889430 135.7750830
  84.6087680 140.0170970 135.0179020  85.5217530 129.6469980 133.9115890
  84.5742440 129.6808960 134.0431320  85.8467520 130.4608930 134.2965250
  76.0537070 125.9467160 132.2071880  76.3612050 125.3914050 131.4907380
  75.1237770 126.0811620 132.0244870  81.6052130 141.6634450 134.4979340
  81.6179290 141.2596740 133.6301600  81.0527350 142.4381740 134.3940770
  82.8997550 138.3850670 129.5869510  82.7893880 137.4425000 129.7118930
  82.8965800 138.7466310 130.4732270  81.0037570 136.5664290 135.8261950
  81.4206360 136.3524400 134.9915410  81.7277390 136.8237080 136.3970570
  78.4417830 134.0115990 128.9432000  77.5147110 133.9453370 129.1720470
  78.5942650 134.9496120 128.8287240  78.4286910 130.2832990 125.9399160
  77.4890580 130.4446950 126.0251620  78.7470170 131.0018670 125.3935150
  84.9499670 134.9651510 135.9178190  84.1218300 135.0344600 135.4428320
  85.5450150 135.5505820 135.4494020  82.4715120 135.5736290 129.4467250
  81.8527540 135.2355840 128.7993550  82.4539570 134.9296050 130.1546440
  81.9141680 131.7520830 136.8633060  81.5012860 132.5774540 137.1173050
  81.1817630 131.1665870 136.6709420  74.0474470 134.5380730 131.7251730
  73.6431470 133.8257980 131.2297630  74.1337590 134.1933970 132.6139770
  74.5156170 138.2248290 133.8890940  74.2184460 137.6193760 133.2098720
  75.4655990 138.2625600 133.7780300  72.7603090 131.3123940 135.5050770
  73.3117680 131.4219280 134.7304020  73.2746600 131.6861540 136.2206000
  82.6041780 141.7980160 137.5514040  82.1272340 142.6052350 137.3586650
  81.9203570 141.1458490 137.7040250  73.6074600 137.9629980 140.5398740
  72.7103130 138.1869950 140.7872140  73.6327470 138.0864920 139.5910140
  80.6479820 134.8123100 126.4540000  81.0873100 133.9745530 126.3077820
  81.3608240 135.4452500 126.5404140  72.4345820 134.8343300 139.1156110
  72.2953590 135.7066100 139.4843510  71.5527180 134.4916110 138.9704050
  78.7575200 139.7519170 130.4221240  79.1971110 140.4943500 130.0076630
  78.6962090 139.9945740 131.3460200  74.2326170 140.7765000 141.3241260
  74.2041600 141.1807950 140.4569690  74.0691140 139.8475360 141.1612860
  84.2296960 126.0665910 124.7681040  83.9169620 126.1592740 125.6680110
  84.9909430 126.6446940 124.7178470  70.7479100 133.4325710 129.2258380
  70.6276700 134.1587800 128.6139650  70.4379990 132.6628620 128.7486290
  86.1840990 141.5592100 142.6205430  86.6600710 142.0374990 143.2994510
  86.8048150 141.4909590 141.8950930  68.3864470 136.6040850 135.0327020
  68.4644890 136.7389620 134.0882740  69.0006150 135.8956740 135.2255140
  69.6312100 138.3041040 131.4433200  69.2240180 138.4455630 130.5886800
  70.5225110 138.0201200 131.2404410  85.5874240 138.7504950 139.7805440
  85.7137300 138.5116830 138.8622620  85.6295620 137.9189490 140.2527520
  79.4490980 142.4532950 138.3500250  79.9635650 142.3640960 139.1522680
  78.6060060 142.7992650 138.6428160  81.4245380 142.7388290 127.7784250
  81.2646520 142.4491230 128.6766080  81.2592090 141.9628420 127.2429480
  73.9033760 142.5186820 129.5555870  73.7276240 141.6022360 129.3423670
  73.0489500 142.8774110 129.7953670  81.1271510 140.2475850 126.3382250
  80.4336670 140.2453140 125.6784530  81.8694370 139.8235170 125.9076420
  80.6921440 141.8738560 130.4130740  81.1478390 141.0927940 130.7269360
  81.0313960 142.5845380 130.9571920  85.4398250 130.8037410 140.7455180
  84.8242520 131.3117080 140.2170640  85.1194670 129.9035740 140.6881120
  68.4423990 137.6455020 137.5721480  68.6055030 137.1760380 136.7540850
  68.9076440 137.1378580 138.2370320  73.2142760 126.7760780 132.6082050
  72.7710910 127.5570320 132.2766570  73.7727750 127.0990670 133.3152990
  77.5012570 129.6429300 138.2117370  77.0391940 129.8512320 139.0237310
  77.0990680 128.8288650 137.9088040  82.5017080 130.8638250 139.3414030
  81.6510670 130.5644000 139.6623100  82.3418870 131.1080260 138.4297850
  79.5966790 132.3640000 141.4412820  79.9220200 131.5303750 141.1015050
  80.3847120 132.8868520 141.5891150  76.3301580 126.3971480 127.4887880
  75.7055760 126.3931350 128.2141190  76.2431700 125.5302440 127.0923850
  75.2518660 127.3208110 134.4671650  75.5490990 128.2270940 134.3863670
  75.8004220 126.8326890 133.8531220  73.0056980 131.8994350 130.3363300
  72.7797900 131.6831520 131.2409920  72.2249510 132.3322810 129.9909270
  80.2354740 131.9057720 128.9353950  79.6363630 132.6293520 128.7517570
  80.7834350 131.8434500 128.1530400  75.4456190 132.7979930 141.0023570
  75.3499790 131.8574660 140.8523970  76.2888170 133.0195000 140.6071640
  78.8419610 130.5421260 130.9657230  79.2349180 130.8593460 130.1525920
  79.2036460 129.6633140 131.0801750  70.5766730 129.2093600 139.1557350
  70.1830120 130.0568810 139.3630130  69.8885130 128.5719970 139.3465990
  77.1511780 129.2928570 142.2254090  76.4610100 129.1000770 142.8600180
  77.8944080 129.5763210 142.7578390  67.8783780 127.1322060 133.1887430
  67.5896830 127.7024920 133.9012410  68.6229540 126.6526510 133.5518660
  68.0654010 131.0742180 124.3990150  67.9828680 132.0172940 124.5405140
  67.7137070 130.9317090 123.5202500  79.4274750 133.1327010 135.0608010
  78.6955870 133.6413820 135.4098110  79.0299090 132.3156990 134.7596790
  75.8652140 129.8081210 133.4660500  75.8688200 129.3671160 132.6165040
  76.7603260 130.1298540 133.5732320  71.7154520 129.6907700 132.4254710
  71.3754570 130.1682930 133.1821760  70.9531840 129.2372820 132.0655810
  75.9272290 130.8093290 126.4567260  76.0485110 130.7679770 127.4053080
  75.5420800 131.6717440 126.3013990  79.8900660 128.5860690 134.4730950
  79.9073400 129.0369340 135.3172800  79.6416240 127.6866330 134.6864390
  74.9393790 133.1194430 125.8550560  74.3710690 132.6712680 125.2286470
  75.6482790 133.4787210 125.3215710  83.3171410 125.9992870 140.3117330
  83.6417180 125.2682530 140.8375310  83.3527920 125.6806510 139.4098320
  70.0162970 137.0206450 139.7317290  69.6317760 136.3800120 140.3300250
  70.3275160 137.7242570 140.3012020  76.1660110 133.8682990 135.2125910
  76.5330240 133.3941560 135.9587250  75.9765170 134.7424560 135.5534250
  69.0300600 128.6126680 131.3419380  68.7447520 128.2482350 132.1798000
  68.9679460 127.8807140 130.7282520  73.9559480 132.9091630 137.5310120
  73.6516550 133.7883610 137.7560480  74.9105940 132.9691420 137.5667560
  72.4841270 137.1152620 128.1276970  71.7103530 136.5750240 127.9675690
  73.2135900 136.5959230 127.7894730  83.2429250 136.1117980 133.9203360
  83.9628370 136.6073270 133.5299470  83.0411070 135.4335870 133.2757230
  78.7039190 127.5055940 128.0632750  77.8903800 127.0069110 127.9878060
  78.5101140 128.3454190 127.6469100  78.6248050 136.1827040 139.8072360
  78.5585360 135.2622710 139.5529950  77.9953190 136.2802480 140.5217000
  81.4187580 131.8775590 126.3594910  82.3067200 132.1892820 126.1846250
  81.3892670 131.0047840 125.9675490  72.5278670 136.7833000 131.7655780
  73.0457340 135.9801260 131.7112670  72.0762690 136.7212140 132.6072610
  77.4148170 138.0499280 127.0383080  77.7563870 138.7941510 126.5426400
  76.5860880 138.3630400 127.4007910  70.0123210 133.7494370 138.6781480
  69.6538150 134.4148220 139.2654820  69.7177770 132.9177920 139.0494100
  73.2136330 134.2078610 141.5621030  72.9136470 134.3535790 140.6648850
  73.9847570 133.6483900 141.4694420  78.5564780 139.0047610 139.5576160
  78.5709320 138.0728570 139.3395070  77.8489880 139.0907370 140.1965930
  83.6901850 133.1887430 125.8274770  83.6065570 133.6201650 124.9771210
  84.4096040 133.6485780 126.2601590  84.7675990 135.6454950 138.9044740
  84.0424180 136.2383730 138.7074130  85.2951450 135.6378490 138.1058110
  84.7189100 140.0429690 128.5556900  84.0765260 139.3885310 128.8300620
  84.3319760 140.4484780 127.7797570  80.2975580 137.3715120 132.4028590
  80.6499400 136.7743250 131.7429960  79.4137910 137.0459350 132.5736840
  76.3838860 138.1312810 129.8099000  77.0709990 138.6782020 130.1906590
  75.5971280 138.6753540 129.8448610  68.5231260 133.7485630 125.3016080
  69.3926110 134.0310430 125.5852000  68.0321580 134.5621500 125.1864890
  75.6866070 135.1358840 129.4224360  76.1428850 135.9464090 129.6484550
  75.3354280 134.8181980 130.2542850  77.9898680 140.6465180 136.6516660
  78.6340900 140.8524560 137.3290080  78.3528120 139.8853580 136.1987510
  71.5877850 125.4796490 129.8946880  71.4592480 125.4714390 130.8431800
  70.7639870 125.8179580 129.5437890  79.2630760 138.6497530 135.3694110
  79.9052990 137.9490690 135.4826280  79.7880110 139.4295970 135.1891000
  83.1086480 138.9346150 125.0933250  82.8824060 138.2176590 125.6857890
  82.7182680 138.6858590 124.2555000  81.0368380 139.4492430 138.5730170
  81.3724620 140.0359120 139.2508090  80.1168720 139.3185140 138.8027960
  68.8902510 142.9613010 125.8677710  69.2500150 143.5602350 125.2134980
  68.7494850 143.5072900 126.6412740  68.5871780 127.2387610 139.3553580
  67.8730300 127.4384530 139.9606190  69.0066820 126.4627180 139.7268380
  82.6902730 136.8518090 126.7547410  82.4024430 137.3130780 127.5425290
  83.4854900 136.3915860 127.0231630  68.8744370 141.2267870 140.3420110
  68.9835490 140.2862610 140.2015500  68.2224930 141.4922620 139.6933840
  76.8656960 139.4983760 141.7418230  76.5453830 138.7793000 142.2863920
  76.1915320 140.1738830 141.8154290  74.9071130 140.3444210 126.6851380
  74.8981230 141.0773900 126.0695890  73.9869490 140.0975790 126.7778340
  70.5077770 135.5659100 127.4298140  69.9005720 136.3058000 127.4393440
  70.9827120 135.6558460 126.6036340  80.0810560 129.7309920 137.1055030
  80.4491380 128.9105130 137.4334600  79.2208760 129.7911810 137.5210680
  83.4472590 128.6866860 127.9142590  82.8185750 128.7912530 127.2000820
  82.9524510 128.9063640 128.7036470  77.8930730 140.4072450 125.3476570
  77.9942710 140.2036440 124.4178550  76.9932470 140.1530730 125.5524350
  75.4156620 130.9652810 129.3300470  74.7072770 131.4339150 129.7714080
  75.7001100 130.3074820 129.9645660  77.0412550 132.3849510 137.3293000
  77.5397800 132.8595330 137.9944850  77.1835500 131.4613030 137.5363030
  79.4472050 127.6903470 130.7696260  79.3239830 127.7089600 129.8205770
  80.3956610 127.7382410 130.8894660  76.5348840 142.9258770 130.0424240
  76.7890340 142.8880160 129.1203610  75.5861320 142.7992100 130.0352490
  73.6191640 129.2737890 126.7051180  74.4682170 129.7108040 126.6391370
  73.2522910 129.5858150 127.5323240  84.2479410 128.6017470 138.1721390
  83.7453010 129.3422870 138.5115200  85.0636070 128.9901470 137.8558180
  82.5401420 133.8450650 131.6182750  81.5991560 133.8600880 131.7930440
  82.8545490 133.0586610 132.0643050  72.5183060 135.5270250 125.1786710
  73.2846330 135.4151610 125.7412140  72.5957750 134.8308220 124.5263480
  71.2129820 132.9595320 125.8619600  71.2933410 132.0122830 125.9737000
  72.1049570 133.2902200 125.9680260  84.5427000 141.0159500 133.2937010
  84.6674420 141.8390670 133.7660820  85.4092560 140.8050230 132.9461160
  72.0144530 143.1090710 132.9654140  72.7507010 142.5606170 133.2362710
  72.3985450 143.9746720 132.8260130  68.8990010 139.1764280 128.8395650
  67.9729790 139.4185420 128.8301060  69.3646440 140.0038540 128.7180400
  71.0202810 142.2936780 142.1539720  71.8215540 142.6148830 142.5675120
  70.5054630 141.9332360 142.8759630  75.1246840 142.2821020 124.7879710
  75.9175450 142.5709850 124.3361500  74.6051190 141.8513190 124.1092190
  79.8567440 138.4016650 142.1015130  79.2505600 138.4248250 141.3610880
  79.5521550 137.6699690 142.6382380  81.2867810 142.1296940 140.7124540
  82.2389560 142.0454960 140.6624780  81.1396030 142.7938650 141.3858330
  84.1777010 141.5091150 126.2116450  83.8918520 141.0956290 125.3970630
  83.9796560 142.4378860 126.0916970  68.7400620 134.7810240 141.0975770
  69.2439640 134.2017520 141.6692000  68.0008040 135.0650470 141.6352140
  75.6424240 137.5024430 124.6522060  75.5374880 136.8876780 125.3783440
  75.4748460 136.9790320 123.8685070  75.7938560 136.1881230 140.6311290
  75.0284230 136.7566230 140.5465960  75.9754520 135.8957440 139.7379520
  78.8826970 136.5644460 125.2564050  78.3337070 137.0113760 125.9006790
  79.5046230 136.0593710 125.7801720  82.9361910 137.9186560 141.1886310
  83.6771380 138.2562320 140.6853770  82.1734590 138.0878620 140.6356080
  70.7723700 132.9239830 141.9925840  70.8129040 132.6253700 142.9011070
  71.6269200 133.3247440 141.8333360  74.5502090 135.5235380 127.1529350
  74.9718510 135.3575250 127.9960740  74.6752930 134.7135610 126.6584490
  72.7129510 131.5031930 139.9600330  72.1825970 131.0122880 139.3323670
  73.3817580 131.9316130 139.4258260  77.0629730 134.5472990 124.4006450
  77.5835390 133.8322010 124.0347600  77.7098130 135.1858860 124.7006960
  81.6107570 135.9701390 139.7241520  82.0248590 136.1246470 140.5731940
  80.6758570 136.0956610 139.8867300  82.0829740 133.3097550 141.7280670
  82.6650510 132.5549870 141.6401150  82.2591510 133.8404990 140.9512150
  73.2001810 128.4694300 140.0397620  73.1058680 127.8515050 139.3148490
  72.6199200 129.1960590 139.8127530  75.9663250 127.0267540 137.0725010
  75.5180550 127.0491800 136.2270560  75.3328450 126.6286560 137.6695310
  76.3722800 135.9221870 137.6937450  76.7910910 136.7654600 137.5213690
  75.4531430 136.0593910 137.4644230  78.7086700 133.6538050 139.0775290
  78.8282910 133.0579190 139.8170130  79.5680700 133.6907740 138.6576590
  81.0474600 134.2075240 137.6537800  80.5209820 134.7317860 137.0502940
  81.3905940 134.8402630 138.2847530  73.4460990 131.5968610 124.0987510
  73.2450050 130.7335970 124.4600850  73.2753040 131.5101970 123.1609110
  74.2230220 142.2274880 138.8095180  73.6851310 142.9520940 138.4903880
  74.4764180 141.7505220 138.0192520  75.4755470 130.1959400 140.3351110
  76.0655160 129.8875250 141.0228930  74.6575710 129.7239150 140.4911010
  80.2948900 129.8125210 140.5684130  79.6064420 129.1506750 140.5034120
  81.0154920 129.3663480 141.0132590  80.9249300 126.4076840 126.6274390
  81.2051590 125.5644740 126.9833810  80.1515030 126.6399950 127.1413140
  72.2443790 128.6969230 124.0865390  72.5469690 128.7036660 123.1784540
  72.9838380 128.3467090 124.5833050  77.0792430 143.4626090 139.0681830
  77.0051130 144.3661230 139.3754200  76.1771270 143.1437990 139.0403900
  75.4628720 127.6403850 125.0721590  75.1150720 126.9627840 124.4924040
  75.6641490 127.1793360 125.8864980  77.6277760 142.6284600 126.6908190
  78.5228550 142.9669570 126.7126950  77.6595390 141.9064010 126.0632470
  71.2673920 138.0011650 124.9195190  71.7048790 138.5441320 125.5752770
  71.7521650 137.1758600 124.9291530  68.4819720 140.7900680 132.3715450
  68.8122730 139.9221740 132.1394090  68.9110720 140.9959200 133.2020410
  73.0781640 139.1209690 130.0317420  72.7777180 138.9974660 130.9321330
  72.9719130 138.2618280 129.6233150  68.9709930 141.6571270 135.1097080
  68.5340920 141.8372070 135.9421230  69.5387610 142.4145890 134.9678800
  84.6072110 141.1588270 139.3974390  84.0074100 141.2180830 138.6538310
  84.7366010 140.2193250 139.5271240  85.8473560 138.9006090 124.7344100
  85.0166520 138.9682740 125.2051330  86.0245390 139.7910210 124.4310960
  85.3030020 135.6453570 127.2378300  86.0648930 136.2150220 127.3437990
  85.3184390 135.0780770 128.0086610  68.8034360 134.1691500 131.4685960
  68.1483200 133.9003140 130.8245660  69.6412310 134.0595980 131.0187940
  86.3089990 136.5003670 132.0820230  86.6798820 135.7170990 131.6756200
  86.9491920 137.1892770 131.9037530  83.2923750 137.8840250 137.4950550
  82.4783590 138.3137410 137.7576340  83.6997950 138.4958660 136.8819600
  85.3549190 135.9387940 124.3950820  85.6298030 136.8466820 124.2670040
  85.1659930 135.8750470 125.3312810  81.7524800 128.9632790 125.6904450
  82.1709680 128.7763770 124.8501110  81.4460860 128.1111840 126.0007380
  85.2514530 133.8756930 129.3880250  84.8758130 133.1084860 128.9561540
  84.5217650 134.2579630 129.8755180  69.8410290 134.5544070 136.0089300
  70.2083330 134.4671470 136.8885320  69.2721110 133.7910620 135.9096160
  84.6414150 133.0228450 139.0219770  84.4100240 132.7941200 138.1217720
  84.9018700 133.9428000 138.9764660  69.3926290 131.4653160 139.9147720
  68.4982340 131.4319920 140.2541430  69.9323840 131.6639950 140.6798970
  83.0802220 128.2484880 141.7999470  83.9572400 128.2568280 142.1833470
  83.0923060 127.5115720 141.1891820  68.0172440 131.3790430 127.4111290
  67.1136520 131.6420630 127.2362950  68.5013060 131.6501600 126.6311250
  84.5265490 132.1014420 132.6887490  85.0502970 131.6077070 132.0577660
  85.1124910 132.2364780 133.4335060  84.7055210 132.1854290 136.2107040
  83.7557920 132.1517830 136.3252030  84.8868220 133.0954400 135.9756810
  70.5599650 130.4355970 125.3205670  71.2691350 130.0139190 124.8352950
  69.8439590 130.5031200 124.6889020  70.2073810 126.4895300 124.3608320
  70.9301940 127.0304240 124.6789540  70.4798330 126.2158720 123.4849860
  84.0165460 131.3587770 128.6279900  84.5124580 131.1258640 129.4128780
  83.8181530 130.5199610 128.2117540  69.8966000 125.7401490 134.2630940
  70.5442190 125.1898870 133.8226100  70.3167840 125.9944640 135.0846750
  85.4452620 129.9948720 131.1617580  85.3351900 129.8404760 132.0999850
  86.2060210 129.4669660 130.9192990  83.7918340 125.9342850 137.6200580
  84.4290560 126.5476990 137.9859770  83.9393230 125.9703510 136.6749810
  86.3342890 127.8256640 124.4023720  87.2592200 127.6937820 124.1942010
  86.3118680 127.9049460 125.3560170  86.4081380 128.5967300 127.0280430
  85.6132880 128.5312420 127.5573340  86.6124660 129.5317940 127.0165780
  83.3499800 142.6358850 131.0218820  83.9458870 142.3143420 130.3453240
  83.6077950 142.1630670 131.8132090  69.6498000 125.8957160 137.0056260
  69.3012820 126.3520980 137.7714440  69.3185700 125.0014290 137.0878690
  71.2562370 139.0676760 141.1709450  71.2132000 138.6969670 142.0523910
  71.3873380 140.0054330 141.3111270  74.9568400 140.6236350 136.7719170
  74.7159760 140.8910910 135.8849690  75.8971040 140.7942080 136.8270030
  77.1622820 127.0869040 140.5275680  77.1011710 127.6790870 141.2771090
  78.1023200 126.9795000 140.3825940  79.7997380 126.7439100 140.1667970
  80.4137790 127.0618390 139.5049050  80.3446940 126.2587690 140.7863830
  86.2172560 142.6430730 137.5729810  85.7230840 143.0399600 136.8556940
  85.6085850 142.0179940 137.9667090  70.3218640 125.4233360 140.2807030
  70.8701630 125.2421410 139.5173140  70.3873950 124.6327470 140.8163340
  71.0950400 142.0139010 138.2907230  70.5010720 141.8823710 139.0297270
  71.0874240 141.1777150 137.8249330  80.5405420 125.3071240 136.4937260
  79.6665260 125.6406350 136.2910190  80.4316170 124.8344420 137.3189130
  81.4477400 127.5142110 137.8778980  81.1190760 126.6993870 137.4980710
  82.3959700 127.4711920 137.7544670  83.9012010 143.2854150 134.8516550
  83.4414980 144.0369960 134.4774570  83.2724470 142.5660620 134.7931350
  70.7262630 139.3797390 137.2415270  69.9996690 138.7602680 137.1741220
  70.7871780 139.7738000 136.3713350  74.3307730 141.5942390 134.0264680
  74.8472750 140.9829750 133.5012940  74.9805110 142.0971170 134.5175690
  77.0703230 142.4850880 134.8533660  77.3581040 142.2305180 133.9766670
  77.5826450 141.9328240 135.4439230  78.2880240 126.2241080 135.4330170
  77.5052030 126.6986580 135.7126930  77.9943170 125.3195910 135.3243350
  82.8401310 126.9264180 133.4779260  83.2809400 126.8709280 132.6300860
  82.5708900 127.8422190 133.5489440  84.7039880 126.5579420 131.4888080
  84.6428280 125.6140640 131.3419100  85.4831910 126.6659510 132.0341540
  69.0092630 142.6971780 130.4512030  68.8414670 142.0642460 131.1493920
  68.1427140 142.9031180 130.1006220  69.6320650 126.5288560 127.9543890
  70.3900010 126.6417440 127.3807920  69.1697820 127.3657760 127.9087320
  76.1734460 128.6427830 130.9446200  75.3608970 128.2684720 130.6042080
  76.6776100 127.8872910 131.2467390  80.6759440 125.3070280 132.1829270
  81.2788810 125.8790490 132.6577790  79.9352430 125.8709720 131.9603170
  83.8194040 125.7091840 127.4569550  84.0144670 126.6075290 127.7236980
  83.0323910 125.4778920 127.9502500  70.6155330 141.3905010 127.8962170
  70.0902950 141.7713040 127.1924130  70.5399910 142.0155780 128.6171880
  72.0045800 127.0552610 126.4945860  72.5338560 126.2682410 126.3653810
  72.6374120 127.7343800 126.7281390  74.1983640 126.7927750 129.5491250
  73.5686380 126.0915060 129.7161380  73.6588780 127.5531880 129.3324410
  77.1375590 143.4066980 142.2201860  78.0642900 143.1711250 142.2637820
  77.1226020 144.2338980 141.7387890  85.3720650 142.9492550 129.2176110
  85.5472840 142.2630290 128.5737030  84.6742220 143.4739600 128.8252780
  74.3239200 126.0711730 141.9843740  74.0423470 126.5745330 141.2204560
  74.7058900 125.2733480 141.6185870  73.2148300 143.3387390 126.7711420
  73.9467120 143.0546670 126.2235310  73.4741970 143.1000670 127.6610800
  72.3763090 139.4552120 126.7757750  71.7471970 139.9237220 127.3243580
  72.4910920 138.6101340 127.2103940  80.9254660 125.4865310 142.5624210
  80.8120110 125.8059920 143.4575730  81.7424400 125.8877820 142.2661490
  83.7053150 142.6336840 142.0442900  84.4978470 142.1386070 141.8368860
  83.9986300 143.3126980 142.6518510  77.9630850 135.2836800 114.8068220
  77.1872950 134.8037240 115.0966790  78.6143780 134.6042450 114.6324380
  71.9796680 135.5956610 115.6843980  71.1481560 135.3405320 116.0840490
  72.5877660 135.6667380 116.4201900  81.9838280 139.6896990 113.5867350
  81.5219810 138.9184230 113.9154520  82.7963830 139.7163060 114.0919800
  71.9597940 139.6296700 115.8802000  72.2625980 138.7394440 115.7012220
  72.7041530 140.1866920 115.6524250  68.3521640 133.1564150 115.3526070
  68.9237750 132.3886350 115.3529710  68.3523180 133.4552910 114.4432680
  78.2101590 141.9755000 113.2071340  77.5913030 142.4312500 112.6365780
  79.0653370 142.1306460 112.8061040  77.4039840 137.9593990 114.8138380
  77.3348120 137.0183930 114.6527510  78.1659700 138.0495400 115.3860950
  70.2133180 131.0609010 115.7477340  70.8943290 131.3247380 116.3664740
  69.8981230 130.2209880 116.0815350  74.4057750 132.1076370 114.8349930
  74.9135970 132.6057340 115.4754950  74.9370990 131.3311570 114.6589290
  86.5068680 130.2781560 118.5379280  85.8020850 130.6663270 118.0194390
  86.7726600 130.9731850 119.1400210  72.6893850 126.7474930 119.1013350
  72.6912290 127.2647320 118.2959250  71.8598160 126.2705110 119.0783280
  79.0764940 136.8594240 110.6003250  78.4582210 137.3243690 110.0365970
  79.5888190 137.5521720 111.0172760  73.9396700 136.3870110 117.2786850
  73.6066080 137.0139030 117.9207920  74.1163380 136.9131990 116.4988520
  72.3709180 128.4584890 117.1083800  72.7125990 129.3026940 116.8137670
  71.4324990 128.6068630 117.2249140  73.1515800 138.3550910 119.0936030
  73.7689800 139.0301990 118.8120480  72.2908920 138.7638890 119.0023530
  68.4448140 137.5450770 107.9742880  68.0676120 138.0337870 107.2427780
  68.7021210 138.2176050 108.6049410  84.0693390 139.8190320 117.0090670
  83.3856910 140.4889430 117.0007340  84.6087680 140.0170970 116.2435530
  76.0537070 125.9467160 113.4328390  76.3612050 125.3914050 112.7163890
  75.1237770 126.0811620 113.2501380  81.6052130 141.6634450 115.7235850
  81.6179290 141.2596740 114.8558110  81.0527350 142.4381740 115.6197280
  82.8997550 138.3850670 110.8126020  82.7893880 137.4425000 110.9375440
  82.8965800 138.7466310 111.6988780  81.0037570 136.5664290 117.0518460
  81.4206360 136.3524400 116.2171920  81.7277390 136.8237080 117.6227080
  84.9499670 134.9651510 117.1434700  84.1218300 135.0344600 116.6684830
  85.5450150 135.5505820 116.6750530  82.4715120 135.5736290 110.6723760
  81.8527540 135.2355840 110.0250060  82.4539570 134.9296050 111.3802950
  74.0474470 134.5380730 112.9508240  73.6431470 133.8257980 112.4554140
  74.1337590 134.1933970 113.8396280  74.5156170 138.2248290 115.1147450
  74.2184460 137.6193760 114.4355230  75.4655990 138.2625600 115.0036810
  72.7603090 131.3123940 116.7307280  73.3117680 131.4219280 115.9560530
  73.2746600 131.6861540 117.4462510  82.6041780 141.7980160 118.7770550
  82.1272340 142.6052350 118.5843160  81.9203570 141.1458490 118.9296760
  73.6074600 137.9629980 121.7655250  72.7103130 138.1869950 122.0128650
  73.6327470 138.0864920 120.8166650  72.4345820 134.8343300 120.3412620
  72.2953590 135.7066100 120.7100020  71.5527180 134.4916110 120.1960560
  78.7575200 139.7519170 111.6477750  79.1971110 140.4943500 111.2333140
  78.6962090 139.9945740 112.5716710  74.2326170 140.7765000 122.5497770
  74.2041600 141.1807950 121.6826200  74.0691140 139.8475360 122.3869370
  86.1840990 141.5592100 123.8461940  86.6600710 142.0374990 124.5251020
  86.8048150 141.4909590 123.1207440  68.3864470 136.6040850 116.2583530
  68.4644890 136.7389620 115.3139250  69.0006150 135.8956740 116.4511650
  69.6312100 138.3041040 112.6689710  69.2240180 138.4455630 111.8143310
  70.5225110 138.0201200 112.4660920  85.5874240 138.7504950 121.0061950
  85.7137300 138.5116830 120.0879130  85.6295620 137.9189490 121.4784030
  79.4490980 142.4532950 119.5756760  79.9635650 142.3640960 120.3779190
  78.6060060 142.7992650 119.8684670  81.4245380 142.7388290 109.0040760
  81.2646520 142.4491230 109.9022590  81.2592090 141.9628420 108.4685990
  73.9033760 142.5186820 110.7812380  73.7276240 141.6022360 110.5680180
  73.0489500 142.8774110 111.0210180  81.1271510 140.2475850 107.5638760
  80.4336670 140.2453140 106.9041040  81.8694370 139.8235170 107.1332930
  80.6921440 141.8738560 111.6387250  81.1478390 141.0927940 111.9525870
  81.0313960 142.5845380 112.1828430  85.4398250 130.8037410 121.9711690
  84.8242520 131.3117080 121.4427150  85.1194670 129.9035740 121.9137630
  68.4423990 137.6455020 118.7977990  68.6055030 137.1760380 117.9797360
  68.9076440 137.1378580 119.4626830  77.5012570 129.6429300 119.4373880
  77.0391940 129.8512320 120.2493820  77.0990680 128.8288650 119.1344550
  82.5017080 130.8638250 120.5670540  81.6510670 130.5644000 120.8879610
  82.3418870 131.1080260 119.6554360  79.5966790 132.3640000 122.6669330
  79.9220200 131.5303750 122.3271560  80.3847120 132.8868520 122.8147660
  76.3301580 126.3971480 108.7144390  75.7055760 126.3931350 109.4397700
  76.2431700 125.5302440 108.3180360  75.2518660 127.3208110 115.6928160
  75.5490990 128.2270940 115.6120180  75.8004220 126.8326890 115.0787730
  75.4456190 132.7979930 122.2280080  75.3499790 131.8574660 122.0780480
  76.2888170 133.0195000 121.8328150  70.5766730 129.2093600 120.3813860
  70.1830120 130.0568810 120.5886640  69.8885130 128.5719970 120.5722500
  77.1511780 129.2928570 123.4510600  76.4610100 129.1000770 124.0856690
  77.8944080 129.5763210 123.9834900  68.0654010 131.0742180 105.6246660
  67.9828680 132.0172940 105.7661650  67.7137070 130.9317090 104.7459010
  79.4274750 133.1327010 116.2864520  78.6955870 133.6413820 116.6354620
  79.0299090 132.3156990 115.9853300  75.8652140 129.8081210 114.6917010
  75.8688200 129.3671160 113.8421550  76.7603260 130.1298540 114.7988830
  83.3171410 125.9992870 121.5373840  83.6417180 125.2682530 122.0631820
  83.3527920 125.6806510 120.6354830  70.0162970 137.0206450 120.9573800
  69.6317760 136.3800120 121.5556760  70.3275160 137.7242570 121.5268530
  76.1660110 133.8682990 116.4382420  76.5330240 133.3941560 117.1843760
  75.9765170 134.7424560 116.7790760  73.9559480 132.9091630 118.7566630
  73.6516550 133.7883610 118.9816990  74.9105940 132.9691420 118.7924070
  72.4841270 137.1152620 109.3533480  71.7103530 136.5750240 109.1932200
  73.2135900 136.5959230 109.0151240  83.2429250 136.1117980 115.1459870
  83.9628370 136.6073270 114.7555980  83.0411070 135.4335870 114.5013740
  78.6248050 136.1827040 121.0328870  78.5585360 135.2622710 120.7786460
  77.9953190 136.2802480 121.7473510  72.5278670 136.7833000 112.9912290
  73.0457340 135.9801260 112.9369180  72.0762690 136.7212140 113.8329120
  77.4148170 138.0499280 108.2639590  77.7563870 138.7941510 107.7682910
  76.5860880 138.3630400 108.6264420  70.0123210 133.7494370 119.9037990
  69.6538150 134.4148220 120.4911330  69.7177770 132.9177920 120.2750610
  73.2136330 134.2078610 122.7877540  72.9136470 134.3535790 121.8905360
  73.9847570 133.6483900 122.6950930  78.5564780 139.0047610 120.7832670
  78.5709320 138.0728570 120.5651580  77.8489880 139.0907370 121.4222440
  83.6901850 133.1887430 107.0531280  83.6065570 133.6201650 106.2027720
  84.4096040 133.6485780 107.4858100  84.7675990 135.6454950 120.1301250
  84.0424180 136.2383730 119.9330640  85.2951450 135.6378490 119.3314620
  84.7189100 140.0429690 109.7813410  84.0765260 139.3885310 110.0557130
  84.3319760 140.4484780 109.0054080  80.2975580 137.3715120 113.6285100
  80.6499400 136.7743250 112.9686470  79.4137910 137.0459350 113.7993350
  76.3838860 138.1312810 111.0355510  77.0709990 138.6782020 111.4163100
  75.5971280 138.6753540 111.0705120  68.5231260 133.7485630 106.5272590
  69.3926110 134.0310430 106.8108510  68.0321580 134.5621500 106.4121400
  77.9898680 140.6465180 117.8773170  78.6340900 140.8524560 118.5546590
  78.3528120 139.8853580 117.4244020  79.2630760 138.6497530 116.5950620
  79.9052990 137.9490690 116.7082790  79.7880110 139.4295970 116.4147510
  83.1086480 138.9346150 106.3189760  82.8824060 138.2176590 106.9114400
  82.7182680 138.6858590 105.4811510  81.0368380 139.4492430 119.7986680
  81.3724620 140.0359120 120.4764600  80.1168720 139.3185140 120.0284470
  68.8902510 142.9613010 107.0934220  69.2500150 143.5602350 106.4391490
  68.7494850 143.5072900 107.8669250  68.5871780 127.2387610 120.5810090
  67.8730300 127.4384530 121.1862700  69.0066820 126.4627180 120.9524890
  82.6902730 136.8518090 107.9803920  82.4024430 137.3130780 108.7681800
  83.4854900 136.3915860 108.2488140  68.8744370 141.2267870 121.5676620
  68.9835490 140.2862610 121.4272010  68.2224930 141.4922620 120.9190350
  76.8656960 139.4983760 122.9674740  76.5453830 138.7793000 123.5120430
  76.1915320 140.1738830 123.0410800  74.9071130 140.3444210 107.9107890
  74.8981230 141.0773900 107.2952400  73.9869490 140.0975790 108.0034850
  70.5077770 135.5659100 108.6554650  69.9005720 136.3058000 108.6649950
  70.9827120 135.6558460 107.8292850  83.4472590 128.6866860 109.1399100
  82.8185750 128.7912530 108.4257330  82.9524510 128.9063640 109.9292980
  77.8930730 140.4072450 106.5733080  77.9942710 140.2036440 105.6435060
  76.9932470 140.1530730 106.7780860  77.0412550 132.3849510 118.5549510
  77.5397800 132.8595330 119.2201360  77.1835500 131.4613030 118.7619540
  76.5348840 142.9258770 111.2680750  76.7890340 142.8880160 110.3460120
  75.5861320 142.7992100 111.2609000  84.2479410 128.6017470 119.3977900
  83.7453010 129.3422870 119.7371710  85.0636070 128.9901470 119.0814690
  82.5401420 133.8450650 112.8439260  81.5991560 133.8600880 113.0186950
  82.8545490 133.0586610 113.2899560  84.5427000 141.0159500 114.5193520
  84.6674420 141.8390670 114.9917330  85.4092560 140.8050230 114.1717670
  72.0144530 143.1090710 114.1910650  72.7507010 142.5606170 114.4619220
  72.3985450 143.9746720 114.0516640  68.8990010 139.1764280 110.0652160
  67.9729790 139.4185420 110.0557570  69.3646440 140.0038540 109.9436910
  71.0202810 142.2936780 123.3796230  71.8215540 142.6148830 123.7931630
  70.5054630 141.9332360 124.1016140  75.1246840 142.2821020 106.0136220
  75.9175450 142.5709850 105.5618010  74.6051190 141.8513190 105.3348700
  79.8567440 138.4016650 123.3271640  79.2505600 138.4248250 122.5867390
  79.5521550 137.6699690 123.8638890  81.2867810 142.1296940 121.9381050
  82.2389560 142.0454960 121.8881290  81.1396030 142.7938650 122.6114840
  84.1777010 141.5091150 107.4372960  83.8918520 141.0956290 106.6227140
  83.9796560 142.4378860 107.3173480  68.7400620 134.7810240 122.3232280
  69.2439640 134.2017520 122.8948510  68.0008040 135.0650470 122.8608650
  75.6424240 137.5024430 105.8778570  75.5374880 136.8876780 106.6039950
  75.4748460 136.9790320 105.0941580  75.7938560 136.1881230 121.8567800
  75.0284230 136.7566230 121.7722470  75.9754520 135.8957440 120.9636030
  82.9361910 137.9186560 122.4142820  83.6771380 138.2562320 121.9110280
  82.1734590 138.0878620 121.8612590  70.7723700 132.9239830 123.2182350
  70.8129040 132.6253700 124.1267580  71.6269200 133.3247440 123.0589870
  74.5502090 135.5235380 108.3785860  74.9718510 135.3575250 109.2217250
  74.6752930 134.7135610 107.8841000  72.7129510 131.5031930 121.1856840
  72.1825970 131.0122880 120.5580180  73.3817580 131.9316130 120.6514770
  81.6107570 135.9701390 120.9498030  82.0248590 136.1246470 121.7988450
  80.6758570 136.0956610 121.1123810  82.0829740 133.3097550 122.9537180
  82.6650510 132.5549870 122.8657660  82.2591510 133.8404990 122.1768660
  73.2001810 128.4694300 121.2654130  73.1058680 127.8515050 120.5405000
  72.6199200 129.1960590 121.0384040  75.9663250 127.0267540 118.2981520
  75.5180550 127.0491800 117.4527070  75.3328450 126.6286560 118.8951820
  76.3722800 135.9221870 118.9193960  76.7910910 136.7654600 118.7470200
  75.4531430 136.0593910 118.6900740  78.7086700 133.6538050 120.3031800
  78.8282910 133.0579190 121.0426640  79.5680700 133.6907740 119.8833100
  81.0474600 134.2075240 118.8794310  80.5209820 134.7317860 118.2759450
  81.3905940 134.8402630 119.5104040  73.4460990 131.5968610 105.3244020
  73.2450050 130.7335970 105.6857360  73.2753040 131.5101970 104.3865620
  74.2230220 142.2274880 120.0351690  73.6851310 142.9520940 119.7160390
  74.4764180 141.7505220 119.2449030  75.4755470 130.1959400 121.5607620
  76.0655160 129.8875250 122.2485440  74.6575710 129.7239150 121.7167520
  80.2948900 129.8125210 121.7940640  79.6064420 129.1506750 121.7290630
  81.0154920 129.3663480 122.2389100  80.9249300 126.4076840 107.8530900
  81.2051590 125.5644740 108.2090320  80.1515030 126.6399950 108.3669650
  77.0792430 143.4626090 120.2938340  77.0051130 144.3661230 120.6010710
  76.1771270 143.1437990 120.2660410  75.4628720 127.6403850 106.2978100
  75.1150720 126.9627840 105.7180550  75.6641490 127.1793360 107.1121490
  77.6277760 142.6284600 107.9164700  78.5228550 142.9669570 107.9383460
  77.6595390 141.9064010 107.2888980  71.2673920 138.0011650 106.1451700
  71.7048790 138.5441320 106.8009280  71.7521650 137.1758600 106.1548040
  68.4819720 140.7900680 113.5971960  68.8122730 139.9221740 113.3650600
  68.9110720 140.9959200 114.4276920  73.0781640 139.1209690 111.2573930
  72.7777180 138.9974660 112.1577840  72.9719130 138.2618280 110.8489660
  68.9709930 141.6571270 116.3353590  68.5340920 141.8372070 117.1677740
  69.5387610 142.4145890 116.1935310  84.6072110 141.1588270 120.6230900
  84.0074100 141.2180830 119.8794820  84.7366010 140.2193250 120.7527750
  85.8473560 138.9006090 105.9600610  85.0166520 138.9682740 106.4307840
  86.0245390 139.7910210 105.6567470  85.3030020 135.6453570 108.4634810
  86.0648930 136.2150220 108.5694500  85.3184390 135.0780770 109.2343120
  68.8034360 134.1691500 112.6942470  68.1483200 133.9003140 112.0502170
  69.6412310 134.0595980 112.2444450  86.3089990 136.5003670 113.3076740
  86.6798820 135.7170990 112.9012710  86.9491920 137.1892770 113.1294040
  83.2923750 137.8840250 118.7207060  82.4783590 138.3137410 118.9832850
  83.6997950 138.4958660 118.1076110  85.3549190 135.9387940 105.6207330
  85.6298030 136.8466820 105.4926550  85.1659930 135.8750470 106.5569320
  81.7524800 128.9632790 106.9160960  82.1709680 128.7763770 106.0757620
  81.4460860 128.1111840 107.2263890  85.2514530 133.8756930 110.6136760
  84.8758130 133.1084860 110.1818050  84.5217650 134.2579630 111.1011690
  69.8410290 134.5544070 117.2345810  70.2083330 134.4671470 118.1141830
  69.2721110 133.7910620 117.1352670  84.6414150 133.0228450 120.2476280
  84.4100240 132.7941200 119.3474230  84.9018700 133.9428000 120.2021170
  69.3926290 131.4653160 121.1404230  68.4982340 131.4319920 121.4797940
  69.9323840 131.6639950 121.9055480  83.0802220 128.2484880 123.0255980
  83.9572400 128.2568280 123.4089980  83.0923060 127.5115720 122.4148330
  84.7055210 132.1854290 117.4363550  83.7557920 132.1517830 117.5508540
  84.8868220 133.0954400 117.2013320  70.2073810 126.4895300 105.5864830
  70.9301940 127.0304240 105.9046050  70.4798330 126.2158720 104.7106370
  84.0165460 131.3587770 109.8536410  84.5124580 131.1258640 110.6385290
  83.8181530 130.5199610 109.4374050  85.4452620 129.9948720 112.3874090
  85.3351900 129.8404760 113.3256360  86.2060210 129.4669660 112.1449500
  83.3499800 142.6358850 112.2475330  83.9458870 142.3143420 111.5709750
  83.6077950 142.1630670 113.0388600  69.6498000 125.8957160 118.2312770
  69.3012820 126.3520980 118.9970950  69.3185700 125.0014290 118.3135200
  71.2562370 139.0676760 122.3965960  71.2132000 138.6969670 123.2780420
  71.3873380 140.0054330 122.5367780  74.9568400 140.6236350 117.9975680
  74.7159760 140.8910910 117.1106200  75.8971040 140.7942080 118.0526540
  77.1622820 127.0869040 121.7532190  77.1011710 127.6790870 122.5027600
  78.1023200 126.9795000 121.6082450  79.7997380 126.7439100 121.3924480
  80.4137790 127.0618390 120.7305560  80.3446940 126.2587690 122.0120340
  86.2172560 142.6430730 118.7986320  85.7230840 143.0399600 118.0813450
  85.6085850 142.0179940 119.1923600  70.3218640 125.4233360 121.5063540
  70.8701630 125.2421410 120.7429650  70.3873950 124.6327470 122.0419850
  71.0950400 142.0139010 119.5163740  70.5010720 141.8823710 120.2553780
  71.0874240 141.1777150 119.0505840  83.9012010 143.2854150 116.0773060
  83.4414980 144.0369960 115.7031080  83.2724470 142.5660620 116.0187860
  70.7262630 139.3797390 118.4671780  69.9996690 138.7602680 118.3997730
  70.7871780 139.7738000 117.5969860  74.3307730 141.5942390 115.2521190
  74.8472750 140.9829750 114.7269450  74.9805110 142.0971170 115.7432200
  77.0703230 142.4850880 116.0790170  77.3581040 142.2305180 115.2023180
  77.5826450 141.9328240 116.6695740  69.0092630 142.6971780 111.6768540
  68.8414670 142.0642460 112.3750430  68.1427140 142.9031180 111.3262730
  83.8194040 125.7091840 108.6826060  84.0144670 126.6075290 108.9493490
  83.0323910 125.4778920 109.1759010  70.6155330 141.3905010 109.1218680
  70.0902950 141.7713040 108.4180640  70.5399910 142.0155780 109.8428390
  77.1375590 143.4066980 123.4458370  78.0642900 143.1711250 123.4894330
  77.1226020 144.2338980 122.9644400  85.3720650 142.9492550 110.4432620
  85.5472840 142.2630290 109.7993540  84.6742220 143.4739600 110.0509290
  74.3239200 126.0711730 123.2100250  74.0423470 126.5745330 122.4461070
  74.7058900 125.2733480 122.8442380  73.2148300 143.3387390 107.9967930
  73.9467120 143.0546670 107.4491820  73.4741970 143.1000670 108.8867310
  72.3763090 139.4552120 108.0014260  71.7471970 139.9237220 108.5500090
  72.4910920 138.6101340 108.4360450  80.9254660 125.4865310 123.7880720
  80.8120110 125.8059920 124.6832240  81.7424400 125.8877820 123.4918000
  83.7053150 142.6336840 123.2699410  84.4978470 142.1386070 123.0625370
  83.9986300 143.3126980 123.8775020  81.9838280 139.6896990  94.8123860
  81.5219810 138.9184230  95.1411030  82.7963830 139.7163060  95.3176310
  71.9597940 139.6296700  97.1058510  72.2625980 138.7394440  96.9268730
  72.7041530 140.1866920  96.8780760  68.3521640 133.1564150  96.5782580
  68.9237750 132.3886350  96.5786220  68.3523180 133.4552910  95.6689190
  78.2101590 141.9755000  94.4327850  77.5913030 142.4312500  93.8622290
  79.0653370 142.1306460  94.0317550  69.5946510 128.5648510  98.3651510
  69.4149350 127.6674260  98.6454270  69.1926590 129.1120380  99.0398460
  72.5650020 129.1390000  91.7281260  72.6716770 130.0393730  92.0350020
  71.6542380 129.0907970  91.4375910  70.2133180 131.0609010  96.9733850
  70.8943290 131.3247380  97.5921250  69.8981230 130.2209880  97.3071860
  72.6893850 126.7474930 100.3269860  72.6912290 127.2647320  99.5215760
  71.8598160 126.2705110 100.3039790  72.3709180 128.4584890  98.3340310
  72.7125990 129.3026940  98.0394180  71.4324990 128.6068630  98.4505650
  84.0693390 139.8190320  98.2347180  83.3856910 140.4889430  98.2263850
  84.6087680 140.0170970  97.4692040  81.6052130 141.6634450  96.9492360
  81.6179290 141.2596740  96.0814620  81.0527350 142.4381740  96.8453790
  82.8997550 138.3850670  92.0382530  82.7893880 137.4425000  92.1631950
  82.8965800 138.7466310  92.9245290  78.4286910 130.2832990  88.3912180
  77.4890580 130.4446950  88.4764640  78.7470170 131.0018670  87.8448170
  82.4715120 135.5736290  91.8980270  81.8527540 135.2355840  91.2506570
  82.4539570 134.9296050  92.6059460  82.6041780 141.7980160 100.0027060
  82.1272340 142.6052350  99.8099670  81.9203570 141.1458490 100.1553270
  80.6479820 134.8123100  88.9053020  81.0873100 133.9745530  88.7590840
  81.3608240 135.4452500  88.9917160  78.7575200 139.7519170  92.8734260
  79.1971110 140.4943500  92.4589650  78.6962090 139.9945740  93.7973220
  74.2326170 140.7765000 103.7754280  74.2041600 141.1807950 102.9082710
  74.0691140 139.8475360 103.6125880  70.7479100 133.4325710  91.6771400
  70.6276700 134.1587800  91.0652670  70.4379990 132.6628620  91.1999310
  86.1840990 141.5592100 105.0718450  86.6600710 142.0374990 105.7507530
  86.8048150 141.4909590 104.3463950  68.3864470 136.6040850  97.4840040
  68.4644890 136.7389620  96.5395760  69.0006150 135.8956740  97.6768160
  85.5874240 138.7504950 102.2318460  85.7137300 138.5116830 101.3135640
  85.6295620 137.9189490 102.7040540  79.4490980 142.4532950 100.8013270
  79.9635650 142.3640960 101.6035700  78.6060060 142.7992650 101.0941180
  81.4245380 142.7388290  90.2297270  81.2646520 142.4491230  91.1279100
  81.2592090 141.9628420  89.6942500  81.1271510 140.2475850  88.7895270
  80.4336670 140.2453140  88.1297550  81.8694370 139.8235170  88.3589440
  80.6921440 141.8738560  92.8643760  81.1478390 141.0927940  93.1782380
  81.0313960 142.5845380  93.4084940  68.4423990 137.6455020 100.0234500
  68.6055030 137.1760380  99.2053870  68.9076440 137.1378580 100.6883340
  73.2142760 126.7760780  95.0595070  72.7710910 127.5570320  94.7279590
  73.7727750 127.0990670  95.7666010  76.3301580 126.3971480  89.9400900
  75.7055760 126.3931350  90.6654210  76.2431700 125.5302440  89.5436870
  70.5766730 129.2093600 101.6070370  70.1830120 130.0568810 101.8143150
  69.8885130 128.5719970 101.7979010  77.1511780 129.2928570 104.6767110
  76.4610100 129.1000770 105.3113200  77.8944080 129.5763210 105.2091410
  67.8783780 127.1322060  95.6400450  67.5896830 127.7024920  96.3525430
  68.6229540 126.6526510  96.0031680  71.7154520 129.6907700  94.8767730
  71.3754570 130.1682930  95.6334780  70.9531840 129.2372820  94.5168830
  69.0300600 128.6126680  93.7932400  68.7447520 128.2482350  94.6311020
  68.9679460 127.8807140  93.1795540  78.7039190 127.5055940  90.5145770
  77.8903800 127.0069110  90.4391080  78.5101140 128.3454190  90.0982120
  81.4187580 131.8775590  88.8107930  82.3067200 132.1892820  88.6359270
  81.3892670 131.0047840  88.4188510  77.4148170 138.0499280  89.4896100
  77.7563870 138.7941510  88.9939420  76.5860880 138.3630400  89.8520930
  83.6901850 133.1887430  88.2787790  83.6065570 133.6201650  87.4284230
  84.4096040 133.6485780  88.7114610  84.7189100 140.0429690  91.0069920
  84.0765260 139.3885310  91.2813640  84.3319760 140.4484780  90.2310590
  77.9898680 140.6465180  99.1029680  78.6340900 140.8524560  99.7803100
  78.3528120 139.8853580  98.6500530  71.5877850 125.4796490  92.3459900
  71.4592480 125.4714390  93.2944820  70.7639870 125.8179580  91.9950910
  79.2630760 138.6497530  97.8207130  79.9052990 137.9490690  97.9339300
  79.7880110 139.4295970  97.6404020  83.1086480 138.9346150  87.5446270
  82.8824060 138.2176590  88.1370910  82.7182680 138.6858590  86.7068020
  81.0368380 139.4492430 101.0243190  81.3724620 140.0359120 101.7021110
  80.1168720 139.3185140 101.2540980  68.5871780 127.2387610 101.8066600
  67.8730300 127.4384530 102.4119210  69.0066820 126.4627180 102.1781400
  82.6902730 136.8518090  89.2060430  82.4024430 137.3130780  89.9938310
  83.4854900 136.3915860  89.4744650  68.8744370 141.2267870 102.7933130
  68.9835490 140.2862610 102.6528520  68.2224930 141.4922620 102.1446860
  76.8656960 139.4983760 104.1931250  76.5453830 138.7793000 104.7376940
  76.1915320 140.1738830 104.2667310  83.4472590 128.6866860  90.3655610
  82.8185750 128.7912530  89.6513840  82.9524510 128.9063640  91.1549490
  77.8930730 140.4072450  87.7989590  77.9942710 140.2036440  86.8691570
  76.9932470 140.1530730  88.0037370  76.5348840 142.9258770  92.4937260
  76.7890340 142.8880160  91.5716630  75.5861320 142.7992100  92.4865510
  84.2479410 128.6017470 100.6234410  83.7453010 129.3422870 100.9628220
  85.0636070 128.9901470 100.3071200  82.5401420 133.8450650  94.0695770
  81.5991560 133.8600880  94.2443460  82.8545490 133.0586610  94.5156070
  84.5427000 141.0159500  95.7450030  84.6674420 141.8390670  96.2173840
  85.4092560 140.8050230  95.3974180  72.0144530 143.1090710  95.4167160
  72.7507010 142.5606170  95.6875730  72.3985450 143.9746720  95.2773150
  71.0202810 142.2936780 104.6052740  71.8215540 142.6148830 105.0188140
  70.5054630 141.9332360 105.3272650  75.1246840 142.2821020  87.2392730
  75.9175450 142.5709850  86.7874520  74.6051190 141.8513190  86.5605210
  81.2867810 142.1296940 103.1637560  82.2389560 142.0454960 103.1137800
  81.1396030 142.7938650 103.8371350  84.1777010 141.5091150  88.6629470
  83.8918520 141.0956290  87.8483650  83.9796560 142.4378860  88.5429990
  78.8826970 136.5644460  87.7077070  78.3337070 137.0113760  88.3519810
  79.5046230 136.0593710  88.2314740  82.9361910 137.9186560 103.6399330
  83.6771380 138.2562320 103.1366790  82.1734590 138.0878620 103.0869100
  77.0629730 134.5472990  86.8519470  77.5835390 133.8322010  86.4860620
  77.7098130 135.1858860  87.1519980  73.2001810 128.4694300 102.4910640
  73.1058680 127.8515050 101.7661510  72.6199200 129.1960590 102.2640550
  74.2230220 142.2274880 101.2608200  73.6851310 142.9520940 100.9416900
  74.4764180 141.7505220 100.4705540  75.4755470 130.1959400 102.7864130
  76.0655160 129.8875250 103.4741950  74.6575710 129.7239150 102.9424030
  77.0792430 143.4626090 101.5194850  77.0051130 144.3661230 101.8267220
  76.1771270 143.1437990 101.4916920  77.6277760 142.6284600  89.1421210
  78.5228550 142.9669570  89.1639970  77.6595390 141.9064010  88.5145490
  68.4819720 140.7900680  94.8228470  68.8122730 139.9221740  94.5907110
  68.9110720 140.9959200  95.6533430  68.9709930 141.6571270  97.5610100
  68.5340920 141.8372070  98.3934250  69.5387610 142.4145890  97.4191820
  84.6072110 141.1588270 101.8487410  84.0074100 141.2180830 101.1051330
  84.7366010 140.2193250 101.9784260  85.8473560 138.9006090  87.1857120
  85.0166520 138.9682740  87.6564350  86.0245390 139.7910210  86.8823980
  85.3030020 135.6453570  89.6891320  86.0648930 136.2150220  89.7951010
  85.3184390 135.0780770  90.4599630  68.8034360 134.1691500  93.9198980
  68.1483200 133.9003140  93.2758680  69.6412310 134.0595980  93.4700960
  86.3089990 136.5003670  94.5333250  86.6798820 135.7170990  94.1269220
  86.9491920 137.1892770  94.3550550  85.3549190 135.9387940  86.8463840
  85.6298030 136.8466820  86.7183060  85.1659930 135.8750470  87.7825830
  81.7524800 128.9632790  88.1417470  82.1709680 128.7763770  87.3014130
  81.4460860 128.1111840  88.4520400  85.2514530 133.8756930  91.8393270
  84.8758130 133.1084860  91.4074560  84.5217650 134.2579630  92.3268200
  83.0802220 128.2484880 104.2512490  83.9572400 128.2568280 104.6346490
  83.0923060 127.5115720 103.6404840  68.0172440 131.3790430  89.8624310
  67.1136520 131.6420630  89.6875970  68.5013060 131.6501600  89.0824270
  84.0165460 131.3587770  91.0792920  84.5124580 131.1258640  91.8641800
  83.8181530 130.5199610  90.6630560  69.8966000 125.7401490  96.7143960
  70.5442190 125.1898870  96.2739120  70.3167840 125.9944640  97.5359770
  85.4452620 129.9948720  93.6130600  85.3351900 129.8404760  94.5512870
  86.2060210 129.4669660  93.3706010  83.7918340 125.9342850 100.0713600
  84.4290560 126.5476990 100.4372790  83.9393230 125.9703510  99.1262830
  86.3342890 127.8256640  86.8536740  87.2592200 127.6937820  86.6455030
  86.3118680 127.9049460  87.8073190  86.4081380 128.5967300  89.4793450
  85.6132880 128.5312420  90.0086360  86.6124660 129.5317940  89.4678800
  83.3499800 142.6358850  93.4731840  83.9458870 142.3143420  92.7966260
  83.6077950 142.1630670  94.2645110  69.6498000 125.8957160  99.4569280
  69.3012820 126.3520980 100.2227460  69.3185700 125.0014290  99.5391710
  71.2562370 139.0676760 103.6222470  71.2132000 138.6969670 104.5036930
  71.3873380 140.0054330 103.7624290  74.9568400 140.6236350  99.2232190
  74.7159760 140.8910910  98.3362710  75.8971040 140.7942080  99.2783050
  86.2172560 142.6430730 100.0242830  85.7230840 143.0399600  99.3069960
  85.6085850 142.0179940 100.4180110  70.3218640 125.4233360 102.7320050
  70.8701630 125.2421410 101.9686160  70.3873950 124.6327470 103.2676360
  71.0950400 142.0139010 100.7420250  70.5010720 141.8823710 101.4810290
  71.0874240 141.1777150 100.2762350  83.9012010 143.2854150  97.3029570
  83.4414980 144.0369960  96.9287590  83.2724470 142.5660620  97.2444370
  70.7262630 139.3797390  99.6928290  69.9996690 138.7602680  99.6254240
  70.7871780 139.7738000  98.8226370  74.3307730 141.5942390  96.4777700
  74.8472750 140.9829750  95.9525960  74.9805110 142.0971170  96.9688710
  77.0703230 142.4850880  97.3046680  77.3581040 142.2305180  96.4279690
  77.5826450 141.9328240  97.8952250  84.7039880 126.5579420  93.9401100
  84.6428280 125.6140640  93.7932120  85.4831910 126.6659510  94.4854560
  74.1983640 126.7927750  92.0004270  73.5686380 126.0915060  92.1674400
  73.6588780 127.5531880  91.7837430  77.1375590 143.4066980 104.6714880
  78.0642900 143.1711250 104.7150840  77.1226020 144.2338980 104.1900910
  85.3720650 142.9492550  91.6689130  85.5472840 142.2630290  91.0250050
  84.6742220 143.4739600  91.2765800  74.3239200 126.0711730 104.4356760
  74.0423470 126.5745330 103.6717580  74.7058900 125.2733480 104.0698890
  83.7053150 142.6336840 104.4955920  84.4978470 142.1386070 104.2881880
  83.9986300 143.3126980 105.1031530  81.9838280 139.6896990  76.0380370
  81.5219810 138.9184230  76.3667540  82.7963830 139.7163060  76.5432820
  70.3888630 130.5558500  71.9199390  69.5005330 130.8974470  71.8179270
  70.6729820 130.3558820  71.0280220  69.5946510 128.5648510  79.5908020
  69.4149350 127.6674260  79.8710780  69.1926590 129.1120380  80.2654970
  72.5650020 129.1390000  72.9537770  72.6716770 130.0393730  73.2606530
  71.6542380 129.0907970  72.6632420  82.2169130 128.2614810  74.4248670
  83.0378750 127.7711380  74.4674150  82.2503210 128.8512470  75.1780510
  72.3709180 128.4584890  79.5596820  72.7125990 129.3026940  79.2650690
  71.4324990 128.6068630  79.6762160  73.1515800 138.3550910  81.5449050
  73.7689800 139.0301990  81.2633500  72.2908920 138.7638890  81.4536550
  68.4448140 137.5450770  70.4255900  68.0676120 138.0337870  69.6940800
  68.7021210 138.2176050  71.0562430  76.0537070 125.9467160  75.8841410
  76.3612050 125.3914050  75.1676910  75.1237770 126.0811620  75.7014400
  81.6052130 141.6634450  78.1748870  81.6179290 141.2596740  77.3071130
  81.0527350 142.4381740  78.0710300  82.8997550 138.3850670  73.2639040
  82.7893880 137.4425000  73.3888460  82.8965800 138.7466310  74.1501800
  81.0037570 136.5664290  79.5031480  81.4206360 136.3524400  78.6684940
  81.7277390 136.8237080  80.0740100  78.4286910 130.2832990  69.6168690
  77.4890580 130.4446950  69.7021150  78.7470170 131.0018670  69.0704680
  82.6041780 141.7980160  81.2283570  82.1272340 142.6052350  81.0356180
  81.9203570 141.1458490  81.3809780  80.6479820 134.8123100  70.1309530
  81.0873100 133.9745530  69.9847350  81.3608240 135.4452500  70.2173670
  86.1840990 141.5592100  86.2974960  86.6600710 142.0374990  86.9764040
  86.8048150 141.4909590  85.5720460  79.4490980 142.4532950  82.0269780
  79.9635650 142.3640960  82.8292210  78.6060060 142.7992650  82.3197690
  81.4245380 142.7388290  71.4553780  81.2646520 142.4491230  72.3535610
  81.2592090 141.9628420  70.9199010  81.1271510 140.2475850  70.0151780
  80.4336670 140.2453140  69.3554060  81.8694370 139.8235170  69.5845950
  80.6921440 141.8738560  74.0900270  81.1478390 141.0927940  74.4038890
  81.0313960 142.5845380  74.6341450  85.4398250 130.8037410  84.4224710
  84.8242520 131.3117080  83.8940170  85.1194670 129.9035740  84.3650650
  77.5012570 129.6429300  81.8886900  77.0391940 129.8512320  82.7006840
  77.0990680 128.8288650  81.5857570  82.5017080 130.8638250  83.0183560
  81.6510670 130.5644000  83.3392630  82.3418870 131.1080260  82.1067380
  79.5966790 132.3640000  85.1182350  79.9220200 131.5303750  84.7784580
  80.3847120 132.8868520  85.2660680  76.3301580 126.3971480  71.1657410
  75.7055760 126.3931350  71.8910720  76.2431700 125.5302440  70.7693380
  80.2354740 131.9057720  72.6123480  79.6363630 132.6293520  72.4287100
  80.7834350 131.8434500  71.8299930  78.8419610 130.5421260  74.6426760
  79.2349180 130.8593460  73.8295450  79.2036460 129.6633140  74.7571280
  67.8783780 127.1322060  76.8656960  67.5896830 127.7024920  77.5781940
  68.6229540 126.6526510  77.2288190  68.0654010 131.0742180  68.0759680
  67.9828680 132.0172940  68.2174670  67.7137070 130.9317090  67.1972030
  75.8652140 129.8081210  77.1430030  75.8688200 129.3671160  76.2934570
  76.7603260 130.1298540  77.2501850  75.9272290 130.8093290  70.1336790
  76.0485110 130.7679770  71.0822610  75.5420800 131.6717440  69.9783520
  69.0300600 128.6126680  75.0188910  68.7447520 128.2482350  75.8567530
  68.9679460 127.8807140  74.4052050  78.7039190 127.5055940  71.7402280
  77.8903800 127.0069110  71.6647590  78.5101140 128.3454190  71.3238630
  78.6248050 136.1827040  83.4841890  78.5585360 135.2622710  83.2299480
  77.9953190 136.2802480  84.1986530  81.4187580 131.8775590  70.0364440
  82.3067200 132.1892820  69.8615780  81.3892670 131.0047840  69.6445020
  78.5564780 139.0047610  83.2345690  78.5709320 138.0728570  83.0164600
  77.8489880 139.0907370  83.8735460  83.6901850 133.1887430  69.5044300
  83.6065570 133.6201650  68.6540740  84.4096040 133.6485780  69.9371120
  84.7189100 140.0429690  72.2326430  84.0765260 139.3885310  72.5070150
  84.3319760 140.4484780  71.4567100  80.2975580 137.3715120  76.0798120
  80.6499400 136.7743250  75.4199490  79.4137910 137.0459350  76.2506370
  68.5231260 133.7485630  68.9785610  69.3926110 134.0310430  69.2621530
  68.0321580 134.5621500  68.8634420  83.1086480 138.9346150  68.7702780
  82.8824060 138.2176590  69.3627420  82.7182680 138.6858590  67.9324530
  81.0368380 139.4492430  82.2499700  81.3724620 140.0359120  82.9277620
  80.1168720 139.3185140  82.4797490  68.8902510 142.9613010  69.5447240
  69.2500150 143.5602350  68.8904510  68.7494850 143.5072900  70.3182270
  82.6902730 136.8518090  70.4316940  82.4024430 137.3130780  71.2194820
  83.4854900 136.3915860  70.7001160  68.8744370 141.2267870  84.0189640
  68.9835490 140.2862610  83.8785030  68.2224930 141.4922620  83.3703370
  76.8656960 139.4983760  85.4187760  76.5453830 138.7793000  85.9633450
  76.1915320 140.1738830  85.4923820  74.9071130 140.3444210  70.3620910
  74.8981230 141.0773900  69.7465420  73.9869490 140.0975790  70.4547870
  77.8930730 140.4072450  69.0246100  77.9942710 140.2036440  68.0948080
  76.9932470 140.1530730  69.2293880  75.4156620 130.9652810  73.0070000
  74.7072770 131.4339150  73.4483610  75.7001100 130.3074820  73.6415190
  77.0412550 132.3849510  81.0062530  77.5397800 132.8595330  81.6714380
  77.1835500 131.4613030  81.2132560  79.4472050 127.6903470  74.4465790
  79.3239830 127.7089600  73.4975300  80.3956610 127.7382410  74.5664190
  73.6191640 129.2737890  70.3820710  74.4682170 129.7108040  70.3160900
  73.2522910 129.5858150  71.2092770  84.2479410 128.6017470  81.8490920
  83.7453010 129.3422870  82.1884730  85.0636070 128.9901470  81.5327710
  84.5427000 141.0159500  76.9706540  84.6674420 141.8390670  77.4430350
  85.4092560 140.8050230  76.6230690  68.8990010 139.1764280  72.5165180
  67.9729790 139.4185420  72.5070590  69.3646440 140.0038540  72.3949930
  75.1246840 142.2821020  68.4649240  75.9175450 142.5709850  68.0131030
  74.6051190 141.8513190  67.7861720  79.8567440 138.4016650  85.7784660
  79.2505600 138.4248250  85.0380410  79.5521550 137.6699690  86.3151910
  81.2867810 142.1296940  84.3894070  82.2389560 142.0454960  84.3394310
  81.1396030 142.7938650  85.0627860  84.1777010 141.5091150  69.8885980
  83.8918520 141.0956290  69.0740160  83.9796560 142.4378860  69.7686500
  75.7938560 136.1881230  84.3080820  75.0284230 136.7566230  84.2235490
  75.9754520 135.8957440  83.4149050  78.8826970 136.5644460  68.9333580
  78.3337070 137.0113760  69.5776320  79.5046230 136.0593710  69.4571250
  82.0829740 133.3097550  85.4050200  82.6650510 132.5549870  85.3170680
  82.2591510 133.8404990  84.6281680  76.3722800 135.9221870  81.3706980
  76.7910910 136.7654600  81.1983220  75.4531430 136.0593910  81.1413760
  78.7086700 133.6538050  82.7544820  78.8282910 133.0579190  83.4939660
  79.5680700 133.6907740  82.3346120  73.4460990 131.5968610  67.7757040
  73.2450050 130.7335970  68.1370380  73.2753040 131.5101970  66.8378640
  74.2230220 142.2274880  82.4864710  73.6851310 142.9520940  82.1673410
  74.4764180 141.7505220  81.6962050  80.2948900 129.8125210  84.2453660
  79.6064420 129.1506750  84.1803650  81.0154920 129.3663480  84.6902120
  72.2443790 128.6969230  67.7634920  72.5469690 128.7036660  66.8554070
  72.9838380 128.3467090  68.2602580  77.0792430 143.4626090  82.7451360
  77.0051130 144.3661230  83.0523730  76.1771270 143.1437990  82.7173430
  75.4628720 127.6403850  68.7491120  75.1150720 126.9627840  68.1693570
  75.6641490 127.1793360  69.5634510  77.6277760 142.6284600  70.3677720
  78.5228550 142.9669570  70.3896480  77.6595390 141.9064010  69.7402000
  68.4819720 140.7900680  76.0484980  68.8122730 139.9221740  75.8163620
  68.9110720 140.9959200  76.8789940  68.9709930 141.6571270  78.7866610
  68.5340920 141.8372070  79.6190760  69.5387610 142.4145890  78.6448330
  85.8473560 138.9006090  68.4113630  85.0166520 138.9682740  68.8820860
  86.0245390 139.7910210  68.1080490  85.3030020 135.6453570  70.9147830
  86.0648930 136.2150220  71.0207520  85.3184390 135.0780770  71.6856140
  86.3089990 136.5003670  75.7589760  86.6798820 135.7170990  75.3525730
  86.9491920 137.1892770  75.5807060  68.0172440 131.3790430  71.0880820
  67.1136520 131.6420630  70.9132480  68.5013060 131.6501600  70.3080780
  70.5599650 130.4355970  68.9975200  71.2691350 130.0139190  68.5122480
  69.8439590 130.5031200  68.3658550  70.2073810 126.4895300  68.0377850
  70.9301940 127.0304240  68.3559070  70.4798330 126.2158720  67.1619390
  84.0165460 131.3587770  72.3049430  84.5124580 131.1258640  73.0898310
  83.8181530 130.5199610  71.8887070  83.7918340 125.9342850  81.2970110
  84.4290560 126.5476990  81.6629300  83.9393230 125.9703510  80.3519340
  83.3499800 142.6358850  74.6988350  83.9458870 142.3143420  74.0222770
  83.6077950 142.1630670  75.4901620  69.6498000 125.8957160  80.6825790
  69.3012820 126.3520980  81.4483970  69.3185700 125.0014290  80.7648220
  86.2172560 142.6430730  81.2499340  85.7230840 143.0399600  80.5326470
  85.6085850 142.0179940  81.6436620  71.0950400 142.0139010  81.9676760
  70.5010720 141.8823710  82.7066800  71.0874240 141.1777150  81.5018860
  83.9012010 143.2854150  78.5286080  83.4414980 144.0369960  78.1544100
  83.2724470 142.5660620  78.4700880  84.7039880 126.5579420  75.1657610
  84.6428280 125.6140640  75.0188630  85.4831910 126.6659510  75.7111070
  69.0092630 142.6971780  74.1281560  68.8414670 142.0642460  74.8263450
  68.1427140 142.9031180  73.7775750  76.1734460 128.6427830  74.6215730
  75.3608970 128.2684720  74.2811610  76.6776100 127.8872910  74.9236920
  70.6155330 141.3905010  71.5731700  70.0902950 141.7713040  70.8693660
  70.5399910 142.0155780  72.2941410  72.0045800 127.0552610  70.1715390
  72.5338560 126.2682410  70.0423340  72.6374120 127.7343800  70.4050920
  77.1375590 143.4066980  85.8971390  78.0642900 143.1711250  85.9407350
  77.1226020 144.2338980  85.4157420  85.3720650 142.9492550  72.8945640
  85.5472840 142.2630290  72.2506560  84.6742220 143.4739600  72.5022310
  73.2148300 143.3387390  70.4480950  73.9467120 143.0546670  69.9004840
  73.4741970 143.1000670  71.3380330  83.7053150 142.6336840  85.7212430
  84.4978470 142.1386070  85.5138390  83.9986300 143.3126980  86.3288040
  79.8312810 133.5057780  56.6028480  79.7506860 132.5912390  56.3320190
  79.4177230 134.0024850  55.8968190  77.9630850 135.2836800  58.4837750
  77.1872950 134.8037240  58.7736320  78.6143780 134.6042450  58.3093910
  71.9796680 135.5956610  59.3613510  71.1481560 135.3405320  59.7610020
  72.5877660 135.6667380  60.0971430  81.9838280 139.6896990  57.2636880
  81.5219810 138.9184230  57.5924050  82.7963830 139.7163060  57.7689330
  71.9597940 139.6296700  59.5571530  72.2625980 138.7394440  59.3781750
  72.7041530 140.1866920  59.3293780  70.3888630 130.5558500  53.1455900
  69.5005330 130.8974470  53.0435780  70.6729820 130.3558820  52.2536730
  68.3521640 133.1564150  59.0295600  68.9237750 132.3886350  59.0299240
  68.3523180 133.4552910  58.1202210  78.2101590 141.9755000  56.8840870
  77.5913030 142.4312500  56.3135310  79.0653370 142.1306460  56.4830570
  77.4039840 137.9593990  58.4907910  77.3348120 137.0183930  58.3297040
  78.1659700 138.0495400  59.0630480  69.5946510 128.5648510  60.8164530
  69.4149350 127.6674260  61.0967290  69.1926590 129.1120380  61.4911480
  78.4345010 130.7664370  58.7176840  78.8109830 129.8936250  58.6050510
  78.3364520 131.1023070  57.8267280  72.5650020 129.1390000  54.1794280
  72.6716770 130.0393730  54.4863040  71.6542380 129.0907970  53.8888930
  82.2169130 128.2614810  55.6505180  83.0378750 127.7711380  55.6930660
  82.2503210 128.8512470  56.4037020  70.2133180 131.0609010  59.4246870
  70.8943290 131.3247380  60.0434270  69.8981230 130.2209880  59.7584880
  74.4057750 132.1076370  58.5119460  74.9135970 132.6057340  59.1524480
  74.9370990 131.3311570  58.3358820  72.6893850 126.7474930  62.7782880
  72.6912290 127.2647320  61.9728780  71.8598160 126.2705110  62.7552810
  79.0764940 136.8594240  54.2772780  78.4582210 137.3243690  53.7135500
  79.5888190 137.5521720  54.6942290  73.9396700 136.3870110  60.9556380
  73.6066080 137.0139030  61.5977450  74.1163380 136.9131990  60.1758050
  82.4530610 130.2015190  58.4232720  81.7486180 130.4900080  59.0035830
  82.8142770 131.0115300  58.0632280  72.3709180 128.4584890  60.7853330
  72.7125990 129.3026940  60.4907200  71.4324990 128.6068630  60.9018670
  73.1515800 138.3550910  62.7705560  73.7689800 139.0301990  62.4890010
  72.2908920 138.7638890  62.6793060  68.4448140 137.5450770  51.6512410
  68.0676120 138.0337870  50.9197310  68.7021210 138.2176050  52.2818940
  84.0693390 139.8190320  60.6860200  83.3856910 140.4889430  60.6776870
  84.6087680 140.0170970  59.9205060  76.0537070 125.9467160  57.1097920
  76.3612050 125.3914050  56.3933420  75.1237770 126.0811620  56.9270910
  81.6052130 141.6634450  59.4005380  81.6179290 141.2596740  58.5327640
  81.0527350 142.4381740  59.2966810  82.8997550 138.3850670  54.4895550
  82.7893880 137.4425000  54.6144970  82.8965800 138.7466310  55.3758310
  81.0037570 136.5664290  60.7287990  81.4206360 136.3524400  59.8941450
  81.7277390 136.8237080  61.2996610  78.4417830 134.0115990  53.8458040
  77.5147110 133.9453370  54.0746510  78.5942650 134.9496120  53.7313280
  78.4286910 130.2832990  50.8425200  77.4890580 130.4446950  50.9277660
  78.7470170 131.0018670  50.2961190  82.4715120 135.5736290  54.3493290
  81.8527540 135.2355840  53.7019590  82.4539570 134.9296050  55.0572480
  81.9141680 131.7520830  61.7659100  81.5012860 132.5774540  62.0199090
  81.1817630 131.1665870  61.5735460  74.0474470 134.5380730  56.6277770
  73.6431470 133.8257980  56.1323670  74.1337590 134.1933970  57.5165810
  74.5156170 138.2248290  58.7916980  74.2184460 137.6193760  58.1124760
  75.4655990 138.2625600  58.6806340  72.7603090 131.3123940  60.4076810
  73.3117680 131.4219280  59.6330060  73.2746600 131.6861540  61.1232040
  82.6041780 141.7980160  62.4540080  82.1272340 142.6052350  62.2612690
  81.9203570 141.1458490  62.6066290  73.6074600 137.9629980  65.4424780
  72.7103130 138.1869950  65.6898180  73.6327470 138.0864920  64.4936180
  80.6479820 134.8123100  51.3566040  81.0873100 133.9745530  51.2103860
  81.3608240 135.4452500  51.4430180  72.4345820 134.8343300  64.0182150
  72.2953590 135.7066100  64.3869550  71.5527180 134.4916110  63.8730090
  78.7575200 139.7519170  55.3247280  79.1971110 140.4943500  54.9102670
  78.6962090 139.9945740  56.2486240  74.2326170 140.7765000  66.2267300
  74.2041600 141.1807950  65.3595730  74.0691140 139.8475360  66.0638900
  84.2296960 126.0665910  49.6707080  83.9169620 126.1592740  50.5706150
  84.9909430 126.6446940  49.6204510  70.7479100 133.4325710  54.1284420
  70.6276700 134.1587800  53.5165690  70.4379990 132.6628620  53.6512330
  86.1840990 141.5592100  67.5231470  86.6600710 142.0374990  68.2020550
  86.8048150 141.4909590  66.7976970  68.3864470 136.6040850  59.9353060
  68.4644890 136.7389620  58.9908780  69.0006150 135.8956740  60.1281180
  69.6312100 138.3041040  56.3459240  69.2240180 138.4455630  55.4912840
  70.5225110 138.0201200  56.1430450  85.5874240 138.7504950  64.6831480
  85.7137300 138.5116830  63.7648660  85.6295620 137.9189490  65.1553560
  79.4490980 142.4532950  63.2526290  79.9635650 142.3640960  64.0548720
  78.6060060 142.7992650  63.5454200  81.4245380 142.7388290  52.6810290
  81.2646520 142.4491230  53.5792120  81.2592090 141.9628420  52.1455520
  73.9033760 142.5186820  54.4581910  73.7276240 141.6022360  54.2449710
  73.0489500 142.8774110  54.6979710  81.1271510 140.2475850  51.2408290
  80.4336670 140.2453140  50.5810570  81.8694370 139.8235170  50.8102460
  80.6921440 141.8738560  55.3156780  81.1478390 141.0927940  55.6295400
  81.0313960 142.5845380  55.8597960  85.4398250 130.8037410  65.6481220
  84.8242520 131.3117080  65.1196680  85.1194670 129.9035740  65.5907160
  68.4423990 137.6455020  62.4747520  68.6055030 137.1760380  61.6566890
  68.9076440 137.1378580  63.1396360  73.2142760 126.7760780  57.5108090
  72.7710910 127.5570320  57.1792610  73.7727750 127.0990670  58.2179030
  77.5012570 129.6429300  63.1143410  77.0391940 129.8512320  63.9263350
  77.0990680 128.8288650  62.8114080  82.5017080 130.8638250  64.2440070
  81.6510670 130.5644000  64.5649140  82.3418870 131.1080260  63.3323890
  79.5966790 132.3640000  66.3438860  79.9220200 131.5303750  66.0041090
  80.3847120 132.8868520  66.4917190  76.3301580 126.3971480  52.3913920
  75.7055760 126.3931350  53.1167230  76.2431700 125.5302440  51.9949890
  75.2518660 127.3208110  59.3697690  75.5490990 128.2270940  59.2889710
  75.8004220 126.8326890  58.7557260  73.0056980 131.8994350  55.2389340
  72.7797900 131.6831520  56.1435960  72.2249510 132.3322810  54.8935310
  80.2354740 131.9057720  53.8379990  79.6363630 132.6293520  53.6543610
  80.7834350 131.8434500  53.0556440  75.4456190 132.7979930  65.9049610
  75.3499790 131.8574660  65.7550010  76.2888170 133.0195000  65.5097680
  78.8419610 130.5421260  55.8683270  79.2349180 130.8593460  55.0551960
  79.2036460 129.6633140  55.9827790  70.5766730 129.2093600  64.0583390
  70.1830120 130.0568810  64.2656170  69.8885130 128.5719970  64.2492030
  77.1511780 129.2928570  67.1280130  76.4610100 129.1000770  67.7626220
  77.8944080 129.5763210  67.6604430  67.8783780 127.1322060  58.0913470
  67.5896830 127.7024920  58.8038450  68.6229540 126.6526510  58.4544700
  68.0654010 131.0742180  49.3016190  67.9828680 132.0172940  49.4431180
  67.7137070 130.9317090  48.4228540  79.4274750 133.1327010  59.9634050
  78.6955870 133.6413820  60.3124150  79.0299090 132.3156990  59.6622830
  75.8652140 129.8081210  58.3686540  75.8688200 129.3671160  57.5191080
  76.7603260 130.1298540  58.4758360  71.7154520 129.6907700  57.3280750
  71.3754570 130.1682930  58.0847800  70.9531840 129.2372820  56.9681850
  75.9272290 130.8093290  51.3593300  76.0485110 130.7679770  52.3079120
  75.5420800 131.6717440  51.2040030  79.8900660 128.5860690  59.3756990
  79.9073400 129.0369340  60.2198840  79.6416240 127.6866330  59.5890430
  74.9393790 133.1194430  50.7576600  74.3710690 132.6712680  50.1312510
  75.6482790 133.4787210  50.2241750  70.0162970 137.0206450  64.6343330
  69.6317760 136.3800120  65.2326290  70.3275160 137.7242570  65.2038060
  76.1660110 133.8682990  60.1151950  76.5330240 133.3941560  60.8613290
  75.9765170 134.7424560  60.4560290  69.0300600 128.6126680  56.2445420
  68.7447520 128.2482350  57.0824040  68.9679460 127.8807140  55.6308560
  73.9559480 132.9091630  62.4336160  73.6516550 133.7883610  62.6586520
  74.9105940 132.9691420  62.4693600  72.4841270 137.1152620  53.0303010
  71.7103530 136.5750240  52.8701730  73.2135900 136.5959230  52.6920770
  83.2429250 136.1117980  58.8229400  83.9628370 136.6073270  58.4325510
  83.0411070 135.4335870  58.1783270  78.7039190 127.5055940  52.9658790
  77.8903800 127.0069110  52.8904100  78.5101140 128.3454190  52.5495140
  78.6248050 136.1827040  64.7098400  78.5585360 135.2622710  64.4555990
  77.9953190 136.2802480  65.4243040  81.4187580 131.8775590  51.2620950
  82.3067200 132.1892820  51.0872290  81.3892670 131.0047840  50.8701530
  72.5278670 136.7833000  56.6681820  73.0457340 135.9801260  56.6138710
  72.0762690 136.7212140  57.5098650  77.4148170 138.0499280  51.9409120
  77.7563870 138.7941510  51.4452440  76.5860880 138.3630400  52.3033950
  70.0123210 133.7494370  63.5807520  69.6538150 134.4148220  64.1680860
  69.7177770 132.9177920  63.9520140  73.2136330 134.2078610  66.4647070
  72.9136470 134.3535790  65.5674890  73.9847570 133.6483900  66.3720460
  78.5564780 139.0047610  64.4602200  78.5709320 138.0728570  64.2421110
  77.8489880 139.0907370  65.0991970  83.6901850 133.1887430  50.7300810
  83.6065570 133.6201650  49.8797250  84.4096040 133.6485780  51.1627630
  84.7675990 135.6454950  63.8070780  84.0424180 136.2383730  63.6100170
  85.2951450 135.6378490  63.0084150  84.7189100 140.0429690  53.4582940
  84.0765260 139.3885310  53.7326660  84.3319760 140.4484780  52.6823610
  80.2975580 137.3715120  57.3054630  80.6499400 136.7743250  56.6456000
  79.4137910 137.0459350  57.4762880  76.3838860 138.1312810  54.7125040
  77.0709990 138.6782020  55.0932630  75.5971280 138.6753540  54.7474650
  68.5231260 133.7485630  50.2042120  69.3926110 134.0310430  50.4878040
  68.0321580 134.5621500  50.0890930  75.6866070 135.1358840  54.3250400
  76.1428850 135.9464090  54.5510590  75.3354280 134.8181980  55.1568890
  77.9898680 140.6465180  61.5542700  78.6340900 140.8524560  62.2316120
  78.3528120 139.8853580  61.1013550  71.5877850 125.4796490  54.7972920
  71.4592480 125.4714390  55.7457840  70.7639870 125.8179580  54.4463930
  79.2630760 138.6497530  60.2720150  79.9052990 137.9490690  60.3852320
  79.7880110 139.4295970  60.0917040  83.1086480 138.9346150  49.9959290
  82.8824060 138.2176590  50.5883930  82.7182680 138.6858590  49.1581040
  81.0368380 139.4492430  63.4756210  81.3724620 140.0359120  64.1534130
  80.1168720 139.3185140  63.7054000  68.8902510 142.9613010  50.7703750
  69.2500150 143.5602350  50.1161020  68.7494850 143.5072900  51.5438780
  68.5871780 127.2387610  64.2579620  67.8730300 127.4384530  64.8632230
  69.0066820 126.4627180  64.6294420  82.6902730 136.8518090  51.6573450
  82.4024430 137.3130780  52.4451330  83.4854900 136.3915860  51.9257670
  68.8744370 141.2267870  65.2446150  68.9835490 140.2862610  65.1041540
  68.2224930 141.4922620  64.5959880  76.8656960 139.4983760  66.6444270
  76.5453830 138.7793000  67.1889960  76.1915320 140.1738830  66.7180330
  74.9071130 140.3444210  51.5877420  74.8981230 141.0773900  50.9721930
  73.9869490 140.0975790  51.6804380  70.5077770 135.5659100  52.3324180
  69.9005720 136.3058000  52.3419480  70.9827120 135.6558460  51.5062380
  80.0810560 129.7309920  62.0081070  80.4491380 128.9105130  62.3360640
  79.2208760 129.7911810  62.4236720  83.4472590 128.6866860  52.8168630
  82.8185750 128.7912530  52.1026860  82.9524510 128.9063640  53.6062510
  77.8930730 140.4072450  50.2502610  77.9942710 140.2036440  49.3204590
  76.9932470 140.1530730  50.4550390  75.4156620 130.9652810  54.2326510
  74.7072770 131.4339150  54.6740120  75.7001100 130.3074820  54.8671700
  77.0412550 132.3849510  62.2319040  77.5397800 132.8595330  62.8970890
  77.1835500 131.4613030  62.4389070  79.4472050 127.6903470  55.6722300
  79.3239830 127.7089600  54.7231810  80.3956610 127.7382410  55.7920700
  76.5348840 142.9258770  54.9450280  76.7890340 142.8880160  54.0229650
  75.5861320 142.7992100  54.9378530  73.6191640 129.2737890  51.6077220
  74.4682170 129.7108040  51.5417410  73.2522910 129.5858150  52.4349280
  82.5401420 133.8450650  56.5208790  81.5991560 133.8600880  56.6956480
  82.8545490 133.0586610  56.9669090  72.5183060 135.5270250  50.0812750
  73.2846330 135.4151610  50.6438180  72.5957750 134.8308220  49.4289520
  71.2129820 132.9595320  50.7645640  71.2933410 132.0122830  50.8763040
  72.1049570 133.2902200  50.8706300  84.5427000 141.0159500  58.1963050
  84.6674420 141.8390670  58.6686860  85.4092560 140.8050230  57.8487200
  72.0144530 143.1090710  57.8680180  72.7507010 142.5606170  58.1388750
  72.3985450 143.9746720  57.7286170  68.8990010 139.1764280  53.7421690
  67.9729790 139.4185420  53.7327100  69.3646440 140.0038540  53.6206440
  71.0202810 142.2936780  67.0565760  71.8215540 142.6148830  67.4701160
  70.5054630 141.9332360  67.7785670  75.1246840 142.2821020  49.6905750
  75.9175450 142.5709850  49.2387540  74.6051190 141.8513190  49.0118230
  79.8567440 138.4016650  67.0041170  79.2505600 138.4248250  66.2636920
  79.5521550 137.6699690  67.5408420  81.2867810 142.1296940  65.6150580
  82.2389560 142.0454960  65.5650820  81.1396030 142.7938650  66.2884370
  84.1777010 141.5091150  51.1142490  83.8918520 141.0956290  50.2996670
  83.9796560 142.4378860  50.9943010  68.7400620 134.7810240  66.0001810
  69.2439640 134.2017520  66.5718040  68.0008040 135.0650470  66.5378180
  75.6424240 137.5024430  49.5548100  75.5374880 136.8876780  50.2809480
  75.4748460 136.9790320  48.7711110  75.7938560 136.1881230  65.5337330
  75.0284230 136.7566230  65.4492000  75.9754520 135.8957440  64.6405560
  78.8826970 136.5644460  50.1590090  78.3337070 137.0113760  50.8032830
  79.5046230 136.0593710  50.6827760  82.9361910 137.9186560  66.0912350
  83.6771380 138.2562320  65.5879810  82.1734590 138.0878620  65.5382120
  70.7723700 132.9239830  66.8951880  70.8129040 132.6253700  67.8037110
  71.6269200 133.3247440  66.7359400  74.5502090 135.5235380  52.0555390
  74.9718510 135.3575250  52.8986780  74.6752930 134.7135610  51.5610530
  72.7129510 131.5031930  64.8626370  72.1825970 131.0122880  64.2349710
  73.3817580 131.9316130  64.3284300  77.0629730 134.5472990  49.3032490
  77.5835390 133.8322010  48.9373640  77.7098130 135.1858860  49.6033000
  81.6107570 135.9701390  64.6267560  82.0248590 136.1246470  65.4757980
  80.6758570 136.0956610  64.7893340  82.0829740 133.3097550  66.6306710
  82.6650510 132.5549870  66.5427190  82.2591510 133.8404990  65.8538190
  73.2001810 128.4694300  64.9423660  73.1058680 127.8515050  64.2174530
  72.6199200 129.1960590  64.7153570  75.9663250 127.0267540  61.9751050
  75.5180550 127.0491800  61.1296600  75.3328450 126.6286560  62.5721350
  76.3722800 135.9221870  62.5963490  76.7910910 136.7654600  62.4239730
  75.4531430 136.0593910  62.3670270  78.7086700 133.6538050  63.9801330
  78.8282910 133.0579190  64.7196170  79.5680700 133.6907740  63.5602630
  81.0474600 134.2075240  62.5563840  80.5209820 134.7317860  61.9528980
  81.3905940 134.8402630  63.1873570  73.4460990 131.5968610  49.0013550
  73.2450050 130.7335970  49.3626890  73.2753040 131.5101970  48.0635150
  74.2230220 142.2274880  63.7121220  73.6851310 142.9520940  63.3929920
  74.4764180 141.7505220  62.9218560  75.4755470 130.1959400  65.2377150
  76.0655160 129.8875250  65.9254970  74.6575710 129.7239150  65.3937050
  80.2948900 129.8125210  65.4710170  79.6064420 129.1506750  65.4060160
  81.0154920 129.3663480  65.9158630  80.9249300 126.4076840  51.5300430
  81.2051590 125.5644740  51.8859850  80.1515030 126.6399950  52.0439180
  72.2443790 128.6969230  48.9891430  72.5469690 128.7036660  48.0810580
  72.9838380 128.3467090  49.4859090  77.0792430 143.4626090  63.9707870
  77.0051130 144.3661230  64.2780240  76.1771270 143.1437990  63.9429940
  75.4628720 127.6403850  49.9747630  75.1150720 126.9627840  49.3950080
  75.6641490 127.1793360  50.7891020  77.6277760 142.6284600  51.5934230
  78.5228550 142.9669570  51.6152990  77.6595390 141.9064010  50.9658510
  71.2673920 138.0011650  49.8221230  71.7048790 138.5441320  50.4778810
  71.7521650 137.1758600  49.8317570  68.4819720 140.7900680  57.2741490
  68.8122730 139.9221740  57.0420130  68.9110720 140.9959200  58.1046450
  73.0781640 139.1209690  54.9343460  72.7777180 138.9974660  55.8347370
  72.9719130 138.2618280  54.5259190  68.9709930 141.6571270  60.0123120
  68.5340920 141.8372070  60.8447270  69.5387610 142.4145890  59.8704840
  84.6072110 141.1588270  64.3000430  84.0074100 141.2180830  63.5564350
  84.7366010 140.2193250  64.4297280  85.8473560 138.9006090  49.6370140
  85.0166520 138.9682740  50.1077370  86.0245390 139.7910210  49.3337000
  85.3030020 135.6453570  52.1404340  86.0648930 136.2150220  52.2464030
  85.3184390 135.0780770  52.9112650  68.8034360 134.1691500  56.3712000
  68.1483200 133.9003140  55.7271700  69.6412310 134.0595980  55.9213980
  83.2923750 137.8840250  62.3976590  82.4783590 138.3137410  62.6602380
  83.6997950 138.4958660  61.7845640  85.3549190 135.9387940  49.2976860
  85.6298030 136.8466820  49.1696080  85.1659930 135.8750470  50.2338850
  81.7524800 128.9632790  50.5930490  82.1709680 128.7763770  49.7527150
  81.4460860 128.1111840  50.9033420  85.2514530 133.8756930  54.2906290
  84.8758130 133.1084860  53.8587580  84.5217650 134.2579630  54.7781220
  69.8410290 134.5544070  60.9115340  70.2083330 134.4671470  61.7911360
  69.2721110 133.7910620  60.8122200  84.6414150 133.0228450  63.9245810
  84.4100240 132.7941200  63.0243760  84.9018700 133.9428000  63.8790700
  69.3926290 131.4653160  64.8173760  68.4982340 131.4319920  65.1567470
  69.9323840 131.6639950  65.5825010  68.0172440 131.3790430  52.3137330
  67.1136520 131.6420630  52.1388990  68.5013060 131.6501600  51.5337290
  70.5599650 130.4355970  50.2231710  71.2691350 130.0139190  49.7378990
  69.8439590 130.5031200  49.5915060  70.2073810 126.4895300  49.2634360
  70.9301940 127.0304240  49.5815580  70.4798330 126.2158720  48.3875900
  84.0165460 131.3587770  53.5305940  84.5124580 131.1258640  54.3154820
  83.8181530 130.5199610  53.1143580  69.8966000 125.7401490  59.1656980
  70.5442190 125.1898870  58.7252140  70.3167840 125.9944640  59.9872790
  86.3342890 127.8256640  49.3049760  87.2592200 127.6937820  49.0968050
  86.3118680 127.9049460  50.2586210  86.4081380 128.5967300  51.9306470
  85.6132880 128.5312420  52.4599380  86.6124660 129.5317940  51.9191820
  83.3499800 142.6358850  55.9244860  83.9458870 142.3143420  55.2479280
  83.6077950 142.1630670  56.7158130  69.6498000 125.8957160  61.9082300
  69.3012820 126.3520980  62.6740480  69.3185700 125.0014290  61.9904730
  71.2562370 139.0676760  66.0735490  71.2132000 138.6969670  66.9549950
  71.3873380 140.0054330  66.2137310  74.9568400 140.6236350  61.6745210
  74.7159760 140.8910910  60.7875730  75.8971040 140.7942080  61.7296070
  77.1622820 127.0869040  65.4301720  77.1011710 127.6790870  66.1797130
  78.1023200 126.9795000  65.2851980  79.7997380 126.7439100  65.0694010
  80.4137790 127.0618390  64.4075090  80.3446940 126.2587690  65.6889870
  86.2172560 142.6430730  62.4755850  85.7230840 143.0399600  61.7582980
  85.6085850 142.0179940  62.8693130  70.3218640 125.4233360  65.1833070
  70.8701630 125.2421410  64.4199180  70.3873950 124.6327470  65.7189380
  71.0950400 142.0139010  63.1933270  70.5010720 141.8823710  63.9323310
  71.0874240 141.1777150  62.7275370  81.4477400 127.5142110  62.7805020
  81.1190760 126.6993870  62.4006750  82.3959700 127.4711920  62.6570710
  83.9012010 143.2854150  59.7542590  83.4414980 144.0369960  59.3800610
  83.2724470 142.5660620  59.6957390  70.7262630 139.3797390  62.1441310
  69.9996690 138.7602680  62.0767260  70.7871780 139.7738000  61.2739390
  74.3307730 141.5942390  58.9290720  74.8472750 140.9829750  58.4038980
  74.9805110 142.0971170  59.4201730  77.0703230 142.4850880  59.7559700
  77.3581040 142.2305180  58.8792710  77.5826450 141.9328240  60.3465270
  78.2880240 126.2241080  60.3356210  77.5052030 126.6986580  60.6152970
  77.9943170 125.3195910  60.2269390  84.7039880 126.5579420  56.3914120
  84.6428280 125.6140640  56.2445140  85.4831910 126.6659510  56.9367580
  69.0092630 142.6971780  55.3538070  68.8414670 142.0642460  56.0519960
  68.1427140 142.9031180  55.0032260  69.6320650 126.5288560  52.8569930
  70.3900010 126.6417440  52.2833960  69.1697820 127.3657760  52.8113360
  76.1734460 128.6427830  55.8472240  75.3608970 128.2684720  55.5068120
  76.6776100 127.8872910  56.1493430  80.6759440 125.3070280  57.0855310
  81.2788810 125.8790490  57.5603830  79.9352430 125.8709720  56.8629210
  83.8194040 125.7091840  52.3595590  84.0144670 126.6075290  52.6263020
  83.0323910 125.4778920  52.8528540  70.6155330 141.3905010  52.7988210
  70.0902950 141.7713040  52.0950170  70.5399910 142.0155780  53.5197920
  72.0045800 127.0552610  51.3971900  72.5338560 126.2682410  51.2679850
  72.6374120 127.7343800  51.6307430  74.1983640 126.7927750  54.4517290
  73.5686380 126.0915060  54.6187420  73.6588780 127.5531880  54.2350450
  77.1375590 143.4066980  67.1227900  78.0642900 143.1711250  67.1663860
  77.1226020 144.2338980  66.6413930  85.3720650 142.9492550  54.1202150
  85.5472840 142.2630290  53.4763070  84.6742220 143.4739600  53.7278820
  74.3239200 126.0711730  66.8869780  74.0423470 126.5745330  66.1230600
  74.7058900 125.2733480  66.5211910  73.2148300 143.3387390  51.6737460
  73.9467120 143.0546670  51.1261350  73.4741970 143.1000670  52.5636840
  72.3763090 139.4552120  51.6783790  71.7471970 139.9237220  52.2269620
  72.4910920 138.6101340  52.1129980  83.7053150 142.6336840  66.9468940
  84.4978470 142.1386070  66.7394900  83.9986300 143.3126980  67.5544550
  79.8312810 133.5057780  37.8284990  79.7506860 132.5912390  37.5576700
  79.4177230 134.0024850  37.1224700  77.9630850 135.2836800  39.7094260
  77.1872950 134.8037240  39.9992830  78.6143780 134.6042450  39.5350420
  71.9796680 135.5956610  40.5870020  71.1481560 135.3405320  40.9866530
  72.5877660 135.6667380  41.3227940  81.9838280 139.6896990  38.4893390
  81.5219810 138.9184230  38.8180560  82.7963830 139.7163060  38.9945840
  71.9597940 139.6296700  40.7828040  72.2625980 138.7394440  40.6038260
  72.7041530 140.1866920  40.5550290  70.3888630 130.5558500  34.3712410
  69.5005330 130.8974470  34.2692290  70.6729820 130.3558820  33.4793240
  68.3521640 133.1564150  40.2552110  68.9237750 132.3886350  40.2555750
  68.3523180 133.4552910  39.3458720  78.2101590 141.9755000  38.1097380
  77.5913030 142.4312500  37.5391820  79.0653370 142.1306460  37.7087080
  77.4039840 137.9593990  39.7164420  77.3348120 137.0183930  39.5553550
  78.1659700 138.0495400  40.2886990  69.5946510 128.5648510  42.0421040
  69.4149350 127.6674260  42.3223800  69.1926590 129.1120380  42.7167990
  78.4345010 130.7664370  39.9433350  78.8109830 129.8936250  39.8307020
  78.3364520 131.1023070  39.0523790  72.5650020 129.1390000  35.4050790
  72.6716770 130.0393730  35.7119550  71.6542380 129.0907970  35.1145440
  82.2169130 128.2614810  36.8761690  83.0378750 127.7711380  36.9187170
  82.2503210 128.8512470  37.6293530  70.2133180 131.0609010  40.6503380
  70.8943290 131.3247380  41.2690780  69.8981230 130.2209880  40.9841390
  74.4057750 132.1076370  39.7375970  74.9135970 132.6057340  40.3780990
  74.9370990 131.3311570  39.5615330  86.5068680 130.2781560  43.4405320
  85.8020850 130.6663270  42.9220430  86.7726600 130.9731850  44.0426250
  72.6893850 126.7474930  44.0039390  72.6912290 127.2647320  43.1985290
  71.8598160 126.2705110  43.9809320  79.0764940 136.8594240  35.5029290
  78.4582210 137.3243690  34.9392010  79.5888190 137.5521720  35.9198800
  73.9396700 136.3870110  42.1812890  73.6066080 137.0139030  42.8233960
  74.1163380 136.9131990  41.4014560  82.4530610 130.2015190  39.6489230
  81.7486180 130.4900080  40.2292340  82.8142770 131.0115300  39.2888790
  72.3709180 128.4584890  42.0109840  72.7125990 129.3026940  41.7163710
  71.4324990 128.6068630  42.1275180  73.1515800 138.3550910  43.9962070
  73.7689800 139.0301990  43.7146520  72.2908920 138.7638890  43.9049570
  68.4448140 137.5450770  32.8768920  68.0676120 138.0337870  32.1453820
  68.7021210 138.2176050  33.5075450  84.0693390 139.8190320  41.9116710
  83.3856910 140.4889430  41.9033380  84.6087680 140.0170970  41.1461570
  85.5217530 129.6469980  40.0398440  84.5742440 129.6808960  40.1713870
  85.8467520 130.4608930  40.4247800  81.6052130 141.6634450  40.6261890
  81.6179290 141.2596740  39.7584150  81.0527350 142.4381740  40.5223320
  82.8997550 138.3850670  35.7152060  82.7893880 137.4425000  35.8401480
  82.8965800 138.7466310  36.6014820  81.0037570 136.5664290  41.9544500
  81.4206360 136.3524400  41.1197960  81.7277390 136.8237080  42.5253120
  78.4417830 134.0115990  35.0714550  77.5147110 133.9453370  35.3003020
  78.5942650 134.9496120  34.9569790  78.4286910 130.2832990  32.0681710
  77.4890580 130.4446950  32.1534170  78.7470170 131.0018670  31.5217700
  84.9499670 134.9651510  42.0460740  84.1218300 135.0344600  41.5710870
  85.5450150 135.5505820  41.5776570  82.4715120 135.5736290  35.5749800
  81.8527540 135.2355840  34.9276100  82.4539570 134.9296050  36.2828990
  81.9141680 131.7520830  42.9915610  81.5012860 132.5774540  43.2455600
  81.1817630 131.1665870  42.7991970  74.0474470 134.5380730  37.8534280
  73.6431470 133.8257980  37.3580180  74.1337590 134.1933970  38.7422320
  74.5156170 138.2248290  40.0173490  74.2184460 137.6193760  39.3381270
  75.4655990 138.2625600  39.9062850  72.7603090 131.3123940  41.6333320
  73.3117680 131.4219280  40.8586570  73.2746600 131.6861540  42.3488550
  82.6041780 141.7980160  43.6796590  82.1272340 142.6052350  43.4869200
  81.9203570 141.1458490  43.8322800  73.6074600 137.9629980  46.6681290
  72.7103130 138.1869950  46.9154690  73.6327470 138.0864920  45.7192690
  80.6479820 134.8123100  32.5822550  81.0873100 133.9745530  32.4360370
  81.3608240 135.4452500  32.6686690  72.4345820 134.8343300  45.2438660
  72.2953590 135.7066100  45.6126060  71.5527180 134.4916110  45.0986600
  78.7575200 139.7519170  36.5503790  79.1971110 140.4943500  36.1359180
  78.6962090 139.9945740  37.4742750  74.2326170 140.7765000  47.4523810
  74.2041600 141.1807950  46.5852240  74.0691140 139.8475360  47.2895410
  84.2296960 126.0665910  30.8963590  83.9169620 126.1592740  31.7962660
  84.9909430 126.6446940  30.8461020  70.7479100 133.4325710  35.3540930
  70.6276700 134.1587800  34.7422200  70.4379990 132.6628620  34.8768840
  86.1840990 141.5592100  48.7487980  86.6600710 142.0374990  49.4277060
  86.8048150 141.4909590  48.0233480  68.3864470 136.6040850  41.1609570
  68.4644890 136.7389620  40.2165290  69.0006150 135.8956740  41.3537690
  69.6312100 138.3041040  37.5715750  69.2240180 138.4455630  36.7169350
  70.5225110 138.0201200  37.3686960  85.5874240 138.7504950  45.9087990
  85.7137300 138.5116830  44.9905170  85.6295620 137.9189490  46.3810070
  79.4490980 142.4532950  44.4782800  79.9635650 142.3640960  45.2805230
  78.6060060 142.7992650  44.7710710  81.4245380 142.7388290  33.9066800
  81.2646520 142.4491230  34.8048630  81.2592090 141.9628420  33.3712030
  73.9033760 142.5186820  35.6838420  73.7276240 141.6022360  35.4706220
  73.0489500 142.8774110  35.9236220  81.1271510 140.2475850  32.4664800
  80.4336670 140.2453140  31.8067080  81.8694370 139.8235170  32.0358970
  80.6921440 141.8738560  36.5413290  81.1478390 141.0927940  36.8551910
  81.0313960 142.5845380  37.0854470  85.4398250 130.8037410  46.8737730
  84.8242520 131.3117080  46.3453190  85.1194670 129.9035740  46.8163670
  68.4423990 137.6455020  43.7004030  68.6055030 137.1760380  42.8823400
  68.9076440 137.1378580  44.3652870  73.2142760 126.7760780  38.7364600
  72.7710910 127.5570320  38.4049120  73.7727750 127.0990670  39.4435540
  77.5012570 129.6429300  44.3399920  77.0391940 129.8512320  45.1519860
  77.0990680 128.8288650  44.0370590  82.5017080 130.8638250  45.4696580
  81.6510670 130.5644000  45.7905650  82.3418870 131.1080260  44.5580400
  79.5966790 132.3640000  47.5695370  79.9220200 131.5303750  47.2297600
  80.3847120 132.8868520  47.7173700  76.3301580 126.3971480  33.6170430
  75.7055760 126.3931350  34.3423740  76.2431700 125.5302440  33.2206400
  75.2518660 127.3208110  40.5954200  75.5490990 128.2270940  40.5146220
  75.8004220 126.8326890  39.9813770  73.0056980 131.8994350  36.4645850
  72.7797900 131.6831520  37.3692470  72.2249510 132.3322810  36.1191820
  80.2354740 131.9057720  35.0636500  79.6363630 132.6293520  34.8800120
  80.7834350 131.8434500  34.2812950  75.4456190 132.7979930  47.1306120
  75.3499790 131.8574660  46.9806520  76.2888170 133.0195000  46.7354190
  78.8419610 130.5421260  37.0939780  79.2349180 130.8593460  36.2808470
  79.2036460 129.6633140  37.2084300  70.5766730 129.2093600  45.2839900
  70.1830120 130.0568810  45.4912680  69.8885130 128.5719970  45.4748540
  77.1511780 129.2928570  48.3536640  76.4610100 129.1000770  48.9882730
  77.8944080 129.5763210  48.8860940  67.8783780 127.1322060  39.3169980
  67.5896830 127.7024920  40.0294960  68.6229540 126.6526510  39.6801210
  68.0654010 131.0742180  30.5272700  67.9828680 132.0172940  30.6687690
  67.7137070 130.9317090  29.6485050  79.4274750 133.1327010  41.1890560
  78.6955870 133.6413820  41.5380660  79.0299090 132.3156990  40.8879340
  75.8652140 129.8081210  39.5943050  75.8688200 129.3671160  38.7447590
  76.7603260 130.1298540  39.7014870  71.7154520 129.6907700  38.5537260
  71.3754570 130.1682930  39.3104310  70.9531840 129.2372820  38.1938360
  75.9272290 130.8093290  32.5849810  76.0485110 130.7679770  33.5335630
  75.5420800 131.6717440  32.4296540  79.8900660 128.5860690  40.6013500
  79.9073400 129.0369340  41.4455350  79.6416240 127.6866330  40.8146940
  74.9393790 133.1194430  31.9833110  74.3710690 132.6712680  31.3569020
  75.6482790 133.4787210  31.4498260  83.3171410 125.9992870  46.4399880
  83.6417180 125.2682530  46.9657860  83.3527920 125.6806510  45.5380870
  70.0162970 137.0206450  45.8599840  69.6317760 136.3800120  46.4582800
  70.3275160 137.7242570  46.4294570  76.1660110 133.8682990  41.3408460
  76.5330240 133.3941560  42.0869800  75.9765170 134.7424560  41.6816800
  69.0300600 128.6126680  37.4701930  68.7447520 128.2482350  38.3080550
  68.9679460 127.8807140  36.8565070  73.9559480 132.9091630  43.6592670
  73.6516550 133.7883610  43.8843030  74.9105940 132.9691420  43.6950110
  72.4841270 137.1152620  34.2559520  71.7103530 136.5750240  34.0958240
  73.2135900 136.5959230  33.9177280  83.2429250 136.1117980  40.0485910
  83.9628370 136.6073270  39.6582020  83.0411070 135.4335870  39.4039780
  78.7039190 127.5055940  34.1915300  77.8903800 127.0069110  34.1160610
  78.5101140 128.3454190  33.7751650  78.6248050 136.1827040  45.9354910
  78.5585360 135.2622710  45.6812500  77.9953190 136.2802480  46.6499550
  81.4187580 131.8775590  32.4877460  82.3067200 132.1892820  32.3128800
  81.3892670 131.0047840  32.0958040  72.5278670 136.7833000  37.8938330
  73.0457340 135.9801260  37.8395220  72.0762690 136.7212140  38.7355160
  77.4148170 138.0499280  33.1665630  77.7563870 138.7941510  32.6708950
  76.5860880 138.3630400  33.5290460  70.0123210 133.7494370  44.8064030
  69.6538150 134.4148220  45.3937370  69.7177770 132.9177920  45.1776650
  73.2136330 134.2078610  47.6903580  72.9136470 134.3535790  46.7931400
  73.9847570 133.6483900  47.5976970  78.5564780 139.0047610  45.6858710
  78.5709320 138.0728570  45.4677620  77.8489880 139.0907370  46.3248480
  83.6901850 133.1887430  31.9557320  83.6065570 133.6201650  31.1053760
  84.4096040 133.6485780  32.3884140  84.7675990 135.6454950  45.0327290
  84.0424180 136.2383730  44.8356680  85.2951450 135.6378490  44.2340660
  84.7189100 140.0429690  34.6839450  84.0765260 139.3885310  34.9583170
  84.3319760 140.4484780  33.9080120  80.2975580 137.3715120  38.5311140
  80.6499400 136.7743250  37.8712510  79.4137910 137.0459350  38.7019390
  76.3838860 138.1312810  35.9381550  77.0709990 138.6782020  36.3189140
  75.5971280 138.6753540  35.9731160  68.5231260 133.7485630  31.4298630
  69.3926110 134.0310430  31.7134550  68.0321580 134.5621500  31.3147440
  75.6866070 135.1358840  35.5506910  76.1428850 135.9464090  35.7767100
  75.3354280 134.8181980  36.3825400  77.9898680 140.6465180  42.7799210
  78.6340900 140.8524560  43.4572630  78.3528120 139.8853580  42.3270060
  71.5877850 125.4796490  36.0229430  71.4592480 125.4714390  36.9714350
  70.7639870 125.8179580  35.6720440  79.2630760 138.6497530  41.4976660
  79.9052990 137.9490690  41.6108830  79.7880110 139.4295970  41.3173550
  83.1086480 138.9346150  31.2215800  82.8824060 138.2176590  31.8140440
  82.7182680 138.6858590  30.3837550  81.0368380 139.4492430  44.7012720
  81.3724620 140.0359120  45.3790640  80.1168720 139.3185140  44.9310510
  68.8902510 142.9613010  31.9960260  69.2500150 143.5602350  31.3417530
  68.7494850 143.5072900  32.7695290  68.5871780 127.2387610  45.4836130
  67.8730300 127.4384530  46.0888740  69.0066820 126.4627180  45.8550930
  82.6902730 136.8518090  32.8829960  82.4024430 137.3130780  33.6707840
  83.4854900 136.3915860  33.1514180  68.8744370 141.2267870  46.4702660
  68.9835490 140.2862610  46.3298050  68.2224930 141.4922620  45.8216390
  76.8656960 139.4983760  47.8700780  76.5453830 138.7793000  48.4146470
  76.1915320 140.1738830  47.9436840  74.9071130 140.3444210  32.8133930
  74.8981230 141.0773900  32.1978440  73.9869490 140.0975790  32.9060890
  70.5077770 135.5659100  33.5580690  69.9005720 136.3058000  33.5675990
  70.9827120 135.6558460  32.7318890  80.0810560 129.7309920  43.2337580
  80.4491380 128.9105130  43.5617150  79.2208760 129.7911810  43.6493230
  83.4472590 128.6866860  34.0425140  82.8185750 128.7912530  33.3283370
  82.9524510 128.9063640  34.8319020  77.8930730 140.4072450  31.4759120
  77.9942710 140.2036440  30.5461100  76.9932470 140.1530730  31.6806900
  75.4156620 130.9652810  35.4583020  74.7072770 131.4339150  35.8996630
  75.7001100 130.3074820  36.0928210  77.0412550 132.3849510  43.4575550
  77.5397800 132.8595330  44.1227400  77.1835500 131.4613030  43.6645580
  79.4472050 127.6903470  36.8978810  79.3239830 127.7089600  35.9488320
  80.3956610 127.7382410  37.0177210  76.5348840 142.9258770  36.1706790
  76.7890340 142.8880160  35.2486160  75.5861320 142.7992100  36.1635040
  73.6191640 129.2737890  32.8333730  74.4682170 129.7108040  32.7673920
  73.2522910 129.5858150  33.6605790  84.2479410 128.6017470  44.3003940
  83.7453010 129.3422870  44.6397750  85.0636070 128.9901470  43.9840730
  82.5401420 133.8450650  37.7465300  81.5991560 133.8600880  37.9212990
  82.8545490 133.0586610  38.1925600  72.5183060 135.5270250  31.3069260
  73.2846330 135.4151610  31.8694690  72.5957750 134.8308220  30.6546030
  71.2129820 132.9595320  31.9902150  71.2933410 132.0122830  32.1019550
  72.1049570 133.2902200  32.0962810  84.5427000 141.0159500  39.4219560
  84.6674420 141.8390670  39.8943370  85.4092560 140.8050230  39.0743710
  72.0144530 143.1090710  39.0936690  72.7507010 142.5606170  39.3645260
  72.3985450 143.9746720  38.9542680  68.8990010 139.1764280  34.9678200
  67.9729790 139.4185420  34.9583610  69.3646440 140.0038540  34.8462950
  71.0202810 142.2936780  48.2822270  71.8215540 142.6148830  48.6957670
  70.5054630 141.9332360  49.0042180  75.1246840 142.2821020  30.9162260
  75.9175450 142.5709850  30.4644050  74.6051190 141.8513190  30.2374740
  79.8567440 138.4016650  48.2297680  79.2505600 138.4248250  47.4893430
  79.5521550 137.6699690  48.7664930  81.2867810 142.1296940  46.8407090
  82.2389560 142.0454960  46.7907330  81.1396030 142.7938650  47.5140880
  84.1777010 141.5091150  32.3399000  83.8918520 141.0956290  31.5253180
  83.9796560 142.4378860  32.2199520  68.7400620 134.7810240  47.2258320
  69.2439640 134.2017520  47.7974550  68.0008040 135.0650470  47.7634690
  75.6424240 137.5024430  30.7804610  75.5374880 136.8876780  31.5065990
  75.4748460 136.9790320  29.9967620  75.7938560 136.1881230  46.7593840
  75.0284230 136.7566230  46.6748510  75.9754520 135.8957440  45.8662070
  78.8826970 136.5644460  31.3846600  78.3337070 137.0113760  32.0289340
  79.5046230 136.0593710  31.9084270  82.9361910 137.9186560  47.3168860
  83.6771380 138.2562320  46.8136320  82.1734590 138.0878620  46.7638630
  70.7723700 132.9239830  48.1208390  70.8129040 132.6253700  49.0293620
  71.6269200 133.3247440  47.9615910  74.5502090 135.5235380  33.2811900
  74.9718510 135.3575250  34.1243290  74.6752930 134.7135610  32.7867040
  72.7129510 131.5031930  46.0882880  72.1825970 131.0122880  45.4606220
  73.3817580 131.9316130  45.5540810  77.0629730 134.5472990  30.5289000
  77.5835390 133.8322010  30.1630150  77.7098130 135.1858860  30.8289510
  81.6107570 135.9701390  45.8524070  82.0248590 136.1246470  46.7014490
  80.6758570 136.0956610  46.0149850  82.0829740 133.3097550  47.8563220
  82.6650510 132.5549870  47.7683700  82.2591510 133.8404990  47.0794700
  73.2001810 128.4694300  46.1680170  73.1058680 127.8515050  45.4431040
  72.6199200 129.1960590  45.9410080  75.9663250 127.0267540  43.2007560
  75.5180550 127.0491800  42.3553110  75.3328450 126.6286560  43.7977860
  76.3722800 135.9221870  43.8220000  76.7910910 136.7654600  43.6496240
  75.4531430 136.0593910  43.5926780  78.7086700 133.6538050  45.2057840
  78.8282910 133.0579190  45.9452680  79.5680700 133.6907740  44.7859140
  81.0474600 134.2075240  43.7820350  80.5209820 134.7317860  43.1785490
  81.3905940 134.8402630  44.4130080  73.4460990 131.5968610  30.2270060
  73.2450050 130.7335970  30.5883400  73.2753040 131.5101970  29.2891660
  74.2230220 142.2274880  44.9377730  73.6851310 142.9520940  44.6186430
  74.4764180 141.7505220  44.1475070  75.4755470 130.1959400  46.4633660
  76.0655160 129.8875250  47.1511480  74.6575710 129.7239150  46.6193560
  80.2948900 129.8125210  46.6966680  79.6064420 129.1506750  46.6316670
  81.0154920 129.3663480  47.1415140  80.9249300 126.4076840  32.7556940
  81.2051590 125.5644740  33.1116360  80.1515030 126.6399950  33.2695690
  72.2443790 128.6969230  30.2147940  72.5469690 128.7036660  29.3067090
  72.9838380 128.3467090  30.7115600  77.0792430 143.4626090  45.1964380
  77.0051130 144.3661230  45.5036750  76.1771270 143.1437990  45.1686450
  75.4628720 127.6403850  31.2004140  75.1150720 126.9627840  30.6206590
  75.6641490 127.1793360  32.0147530  77.6277760 142.6284600  32.8190740
  78.5228550 142.9669570  32.8409500  77.6595390 141.9064010  32.1915020
  71.2673920 138.0011650  31.0477740  71.7048790 138.5441320  31.7035320
  71.7521650 137.1758600  31.0574080  68.4819720 140.7900680  38.4998000
  68.8122730 139.9221740  38.2676640  68.9110720 140.9959200  39.3302960
  73.0781640 139.1209690  36.1599970  72.7777180 138.9974660  37.0603880
  72.9719130 138.2618280  35.7515700  68.9709930 141.6571270  41.2379630
  68.5340920 141.8372070  42.0703780  69.5387610 142.4145890  41.0961350
  84.6072110 141.1588270  45.5256940  84.0074100 141.2180830  44.7820860
  84.7366010 140.2193250  45.6553790  85.8473560 138.9006090  30.8626650
  85.0166520 138.9682740  31.3333880  86.0245390 139.7910210  30.5593510
  85.3030020 135.6453570  33.3660850  86.0648930 136.2150220  33.4720540
  85.3184390 135.0780770  34.1369160  68.8034360 134.1691500  37.5968510
  68.1483200 133.9003140  36.9528210  69.6412310 134.0595980  37.1470490
  86.3089990 136.5003670  38.2102780  86.6798820 135.7170990  37.8038750
  86.9491920 137.1892770  38.0320080  83.2923750 137.8840250  43.6233100
  82.4783590 138.3137410  43.8858890  83.6997950 138.4958660  43.0102150
  85.3549190 135.9387940  30.5233370  85.6298030 136.8466820  30.3952590
  85.1659930 135.8750470  31.4595360  81.7524800 128.9632790  31.8187000
  82.1709680 128.7763770  30.9783660  81.4460860 128.1111840  32.1289930
  85.2514530 133.8756930  35.5162800  84.8758130 133.1084860  35.0844090
  84.5217650 134.2579630  36.0037730  69.8410290 134.5544070  42.1371850
  70.2083330 134.4671470  43.0167870  69.2721110 133.7910620  42.0378710
  84.6414150 133.0228450  45.1502320  84.4100240 132.7941200  44.2500270
  84.9018700 133.9428000  45.1047210  69.3926290 131.4653160  46.0430270
  68.4982340 131.4319920  46.3823980  69.9323840 131.6639950  46.8081520
  83.0802220 128.2484880  47.9282020  83.9572400 128.2568280  48.3116020
  83.0923060 127.5115720  47.3174370  68.0172440 131.3790430  33.5393840
  67.1136520 131.6420630  33.3645500  68.5013060 131.6501600  32.7593800
  84.5265490 132.1014420  38.8170040  85.0502970 131.6077070  38.1860210
  85.1124910 132.2364780  39.5617610  84.7055210 132.1854290  42.3389590
  83.7557920 132.1517830  42.4534580  84.8868220 133.0954400  42.1039360
  70.5599650 130.4355970  31.4488220  71.2691350 130.0139190  30.9635500
  69.8439590 130.5031200  30.8171570  70.2073810 126.4895300  30.4890870
  70.9301940 127.0304240  30.8072090  70.4798330 126.2158720  29.6132410
  84.0165460 131.3587770  34.7562450  84.5124580 131.1258640  35.5411330
  83.8181530 130.5199610  34.3400090  69.8966000 125.7401490  40.3913490
  70.5442190 125.1898870  39.9508650  70.3167840 125.9944640  41.2129300
  85.4452620 129.9948720  37.2900130  85.3351900 129.8404760  38.2282400
  86.2060210 129.4669660  37.0475540  83.7918340 125.9342850  43.7483130
  84.4290560 126.5476990  44.1142320  83.9393230 125.9703510  42.8032360
  86.3342890 127.8256640  30.5306270  87.2592200 127.6937820  30.3224560
  86.3118680 127.9049460  31.4842720  86.4081380 128.5967300  33.1562980
  85.6132880 128.5312420  33.6855890  86.6124660 129.5317940  33.1448330
  83.3499800 142.6358850  37.1501370  83.9458870 142.3143420  36.4735790
  83.6077950 142.1630670  37.9414640  69.6498000 125.8957160  43.1338810
  69.3012820 126.3520980  43.8996990  69.3185700 125.0014290  43.2161240
  71.2562370 139.0676760  47.2992000  71.2132000 138.6969670  48.1806460
  71.3873380 140.0054330  47.4393820  74.9568400 140.6236350  42.9001720
  74.7159760 140.8910910  42.0132240  75.8971040 140.7942080  42.9552580
  77.1622820 127.0869040  46.6558230  77.1011710 127.6790870  47.4053640
  78.1023200 126.9795000  46.5108490  79.7997380 126.7439100  46.2950520
  80.4137790 127.0618390  45.6331600  80.3446940 126.2587690  46.9146380
  86.2172560 142.6430730  43.7012360  85.7230840 143.0399600  42.9839490
  85.6085850 142.0179940  44.0949640  70.3218640 125.4233360  46.4089580
  70.8701630 125.2421410  45.6455690  70.3873950 124.6327470  46.9445890
  71.0950400 142.0139010  44.4189780  70.5010720 141.8823710  45.1579820
  71.0874240 141.1777150  43.9531880  81.4477400 127.5142110  44.0061530
  81.1190760 126.6993870  43.6263260  82.3959700 127.4711920  43.8827220
  83.9012010 143.2854150  40.9799100  83.4414980 144.0369960  40.6057120
  83.2724470 142.5660620  40.9213900  70.7262630 139.3797390  43.3697820
  69.9996690 138.7602680  43.3023770  70.7871780 139.7738000  42.4995900
  74.3307730 141.5942390  40.1547230  74.8472750 140.9829750  39.6295490
  74.9805110 142.0971170  40.6458240  77.0703230 142.4850880  40.9816210
  77.3581040 142.2305180  40.1049220  77.5826450 141.9328240  41.5721780
  82.8401310 126.9264180  39.6061810  83.2809400 126.8709280  38.7583410
  82.5708900 127.8422190  39.6771990  84.7039880 126.5579420  37.6170630
  84.6428280 125.6140640  37.4701650  85.4831910 126.6659510  38.1624090
  69.0092630 142.6971780  36.5794580  68.8414670 142.0642460  37.2776470
  68.1427140 142.9031180  36.2288770  69.6320650 126.5288560  34.0826440
  70.3900010 126.6417440  33.5090470  69.1697820 127.3657760  34.0369870
  76.1734460 128.6427830  37.0728750  75.3608970 128.2684720  36.7324630
  76.6776100 127.8872910  37.3749940  83.8194040 125.7091840  33.5852100
  84.0144670 126.6075290  33.8519530  83.0323910 125.4778920  34.0785050
  70.6155330 141.3905010  34.0244720  70.0902950 141.7713040  33.3206680
  70.5399910 142.0155780  34.7454430  72.0045800 127.0552610  32.6228410
  72.5338560 126.2682410  32.4936360  72.6374120 127.7343800  32.8563940
  74.1983640 126.7927750  35.6773800  73.5686380 126.0915060  35.8443930
  73.6588780 127.5531880  35.4606960  77.1375590 143.4066980  48.3484410
  78.0642900 143.1711250  48.3920370  77.1226020 144.2338980  47.8670440
  85.3720650 142.9492550  35.3458660  85.5472840 142.2630290  34.7019580
  84.6742220 143.4739600  34.9535330  74.3239200 126.0711730  48.1126290
  74.0423470 126.5745330  47.3487110  74.7058900 125.2733480  47.7468420
  73.2148300 143.3387390  32.8993970  73.9467120 143.0546670  32.3517860
  73.4741970 143.1000670  33.7893350  72.3763090 139.4552120  32.9040300
  71.7471970 139.9237220  33.4526130  72.4910920 138.6101340  33.3386490
  80.9254660 125.4865310  48.6906760  80.8120110 125.8059920  49.5858280
  81.7424400 125.8877820  48.3944040  83.7053150 142.6336840  48.1725450
  84.4978470 142.1386070  47.9651410  83.9986300 143.3126980  48.7801060
  79.8312810 133.5057780  19.0541500  79.7506860 132.5912390  18.7833210
  79.4177230 134.0024850  18.3481210  77.9630850 135.2836800  20.9350770
  77.1872950 134.8037240  21.2249340  78.6143780 134.6042450  20.7606930
  71.9796680 135.5956610  21.8126530  71.1481560 135.3405320  22.2123040
  72.5877660 135.6667380  22.5484450  81.9838280 139.6896990  19.7149900
  81.5219810 138.9184230  20.0437070  82.7963830 139.7163060  20.2202350
  71.9597940 139.6296700  22.0084550  72.2625980 138.7394440  21.8294770
  72.7041530 140.1866920  21.7806800  70.3888630 130.5558500  15.5968920
  69.5005330 130.8974470  15.4948800  70.6729820 130.3558820  14.7049750
  68.3521640 133.1564150  21.4808620  68.9237750 132.3886350  21.4812260
  68.3523180 133.4552910  20.5715230  78.2101590 141.9755000  19.3353890
  77.5913030 142.4312500  18.7648330  79.0653370 142.1306460  18.9343590
  77.4039840 137.9593990  20.9420930  77.3348120 137.0183930  20.7810060
  78.1659700 138.0495400  21.5143500  69.5946510 128.5648510  23.2677550
  69.4149350 127.6674260  23.5480310  69.1926590 129.1120380  23.9424500
  78.4345010 130.7664370  21.1689860  78.8109830 129.8936250  21.0563530
  78.3364520 131.1023070  20.2780300  72.5650020 129.1390000  16.6307300
  72.6716770 130.0393730  16.9376060  71.6542380 129.0907970  16.3401950
  82.2169130 128.2614810  18.1018200  83.0378750 127.7711380  18.1443680
  82.2503210 128.8512470  18.8550040  70.2133180 131.0609010  21.8759890
  70.8943290 131.3247380  22.4947290  69.8981230 130.2209880  22.2097900
  74.4057750 132.1076370  20.9632480  74.9135970 132.6057340  21.6037500
  74.9370990 131.3311570  20.7871840  86.5068680 130.2781560  24.6661830
  85.8020850 130.6663270  24.1476940  86.7726600 130.9731850  25.2682760
  72.6893850 126.7474930  25.2295900  72.6912290 127.2647320  24.4241800
  71.8598160 126.2705110  25.2065830  79.0764940 136.8594240  16.7285800
  78.4582210 137.3243690  16.1648520  79.5888190 137.5521720  17.1455310
  73.9396700 136.3870110  23.4069400  73.6066080 137.0139030  24.0490470
  74.1163380 136.9131990  22.6271070  82.4530610 130.2015190  20.8745740
  81.7486180 130.4900080  21.4548850  82.8142770 131.0115300  20.5145300
  72.3709180 128.4584890  23.2366350  72.7125990 129.3026940  22.9420220
  71.4324990 128.6068630  23.3531690  73.1515800 138.3550910  25.2218580
  73.7689800 139.0301990  24.9403030  72.2908920 138.7638890  25.1306080
  68.4448140 137.5450770  14.1025430  68.0676120 138.0337870  13.3710330
  68.7021210 138.2176050  14.7331960  84.0693390 139.8190320  23.1373220
  83.3856910 140.4889430  23.1289890  84.6087680 140.0170970  22.3718080
  85.5217530 129.6469980  21.2654950  84.5742440 129.6808960  21.3970380
  85.8467520 130.4608930  21.6504310  76.0537070 125.9467160  19.5610940
  76.3612050 125.3914050  18.8446440  75.1237770 126.0811620  19.3783930
  81.6052130 141.6634450  21.8518400  81.6179290 141.2596740  20.9840660
  81.0527350 142.4381740  21.7479830  82.8997550 138.3850670  16.9408570
  82.7893880 137.4425000  17.0657990  82.8965800 138.7466310  17.8271330
  81.0037570 136.5664290  23.1801010  81.4206360 136.3524400  22.3454470
  81.7277390 136.8237080  23.7509630  78.4417830 134.0115990  16.2971060
  77.5147110 133.9453370  16.5259530  78.5942650 134.9496120  16.1826300
  78.4286910 130.2832990  13.2938220  77.4890580 130.4446950  13.3790680
  78.7470170 131.0018670  12.7474210  84.9499670 134.9651510  23.2717250
  84.1218300 135.0344600  22.7967380  85.5450150 135.5505820  22.8033080
  82.4715120 135.5736290  16.8006310  81.8527540 135.2355840  16.1532610
  82.4539570 134.9296050  17.5085500  81.9141680 131.7520830  24.2172120
  81.5012860 132.5774540  24.4712110  81.1817630 131.1665870  24.0248480
  74.0474470 134.5380730  19.0790790  73.6431470 133.8257980  18.5836690
  74.1337590 134.1933970  19.9678830  74.5156170 138.2248290  21.2430000
  74.2184460 137.6193760  20.5637780  75.4655990 138.2625600  21.1319360
  72.7603090 131.3123940  22.8589830  73.3117680 131.4219280  22.0843080
  73.2746600 131.6861540  23.5745060  82.6041780 141.7980160  24.9053100
  82.1272340 142.6052350  24.7125710  81.9203570 141.1458490  25.0579310
  73.6074600 137.9629980  27.8937800  72.7103130 138.1869950  28.1411200
  73.6327470 138.0864920  26.9449200  80.6479820 134.8123100  13.8079060
  81.0873100 133.9745530  13.6616880  81.3608240 135.4452500  13.8943200
  72.4345820 134.8343300  26.4695170  72.2953590 135.7066100  26.8382570
  71.5527180 134.4916110  26.3243110  78.7575200 139.7519170  17.7760300
  79.1971110 140.4943500  17.3615690  78.6962090 139.9945740  18.6999260
  74.2326170 140.7765000  28.6780320  74.2041600 141.1807950  27.8108750
  74.0691140 139.8475360  28.5151920  84.2296960 126.0665910  12.1220100
  83.9169620 126.1592740  13.0219170  84.9909430 126.6446940  12.0717530
  70.7479100 133.4325710  16.5797440  70.6276700 134.1587800  15.9678710
  70.4379990 132.6628620  16.1025350  86.1840990 141.5592100  29.9744490
  86.6600710 142.0374990  30.6533570  86.8048150 141.4909590  29.2489990
  68.3864470 136.6040850  22.3866080  68.4644890 136.7389620  21.4421800
  69.0006150 135.8956740  22.5794200  69.6312100 138.3041040  18.7972260
  69.2240180 138.4455630  17.9425860  70.5225110 138.0201200  18.5943470
  85.5874240 138.7504950  27.1344500  85.7137300 138.5116830  26.2161680
  85.6295620 137.9189490  27.6066580  79.4490980 142.4532950  25.7039310
  79.9635650 142.3640960  26.5061740  78.6060060 142.7992650  25.9967220
  81.4245380 142.7388290  15.1323310  81.2646520 142.4491230  16.0305140
  81.2592090 141.9628420  14.5968540  73.9033760 142.5186820  16.9094930
  73.7276240 141.6022360  16.6962730  73.0489500 142.8774110  17.1492730
  81.1271510 140.2475850  13.6921310  80.4336670 140.2453140  13.0323590
  81.8694370 139.8235170  13.2615480  80.6921440 141.8738560  17.7669800
  81.1478390 141.0927940  18.0808420  81.0313960 142.5845380  18.3110980
  85.4398250 130.8037410  28.0994240  84.8242520 131.3117080  27.5709700
  85.1194670 129.9035740  28.0420180  68.4423990 137.6455020  24.9260540
  68.6055030 137.1760380  24.1079910  68.9076440 137.1378580  25.5909380
  73.2142760 126.7760780  19.9621110  72.7710910 127.5570320  19.6305630
  73.7727750 127.0990670  20.6692050  77.5012570 129.6429300  25.5656430
  77.0391940 129.8512320  26.3776370  77.0990680 128.8288650  25.2627100
  82.5017080 130.8638250  26.6953090  81.6510670 130.5644000  27.0162160
  82.3418870 131.1080260  25.7836910  79.5966790 132.3640000  28.7951880
  79.9220200 131.5303750  28.4554110  80.3847120 132.8868520  28.9430210
  76.3301580 126.3971480  14.8426940  75.7055760 126.3931350  15.5680250
  76.2431700 125.5302440  14.4462910  75.2518660 127.3208110  21.8210710
  75.5490990 128.2270940  21.7402730  75.8004220 126.8326890  21.2070280
  73.0056980 131.8994350  17.6902360  72.7797900 131.6831520  18.5948980
  72.2249510 132.3322810  17.3448330  80.2354740 131.9057720  16.2893010
  79.6363630 132.6293520  16.1056630  80.7834350 131.8434500  15.5069460
  75.4456190 132.7979930  28.3562630  75.3499790 131.8574660  28.2063030
  76.2888170 133.0195000  27.9610700  78.8419610 130.5421260  18.3196290
  79.2349180 130.8593460  17.5064980  79.2036460 129.6633140  18.4340810
  70.5766730 129.2093600  26.5096410  70.1830120 130.0568810  26.7169190
  69.8885130 128.5719970  26.7005050  77.1511780 129.2928570  29.5793150
  76.4610100 129.1000770  30.2139240  77.8944080 129.5763210  30.1117450
  67.8783780 127.1322060  20.5426490  67.5896830 127.7024920  21.2551470
  68.6229540 126.6526510  20.9057720  68.0654010 131.0742180  11.7529210
  67.9828680 132.0172940  11.8944200  67.7137070 130.9317090  10.8741560
  79.4274750 133.1327010  22.4147070  78.6955870 133.6413820  22.7637170
  79.0299090 132.3156990  22.1135850  75.8652140 129.8081210  20.8199560
  75.8688200 129.3671160  19.9704100  76.7603260 130.1298540  20.9271380
  71.7154520 129.6907700  19.7793770  71.3754570 130.1682930  20.5360820
  70.9531840 129.2372820  19.4194870  75.9272290 130.8093290  13.8106320
  76.0485110 130.7679770  14.7592140  75.5420800 131.6717440  13.6553050
  79.8900660 128.5860690  21.8270010  79.9073400 129.0369340  22.6711860
  79.6416240 127.6866330  22.0403450  74.9393790 133.1194430  13.2089620
  74.3710690 132.6712680  12.5825530  75.6482790 133.4787210  12.6754770
  83.3171410 125.9992870  27.6656390  83.6417180 125.2682530  28.1914370
  83.3527920 125.6806510  26.7637380  70.0162970 137.0206450  27.0856350
  69.6317760 136.3800120  27.6839310  70.3275160 137.7242570  27.6551080
  76.1660110 133.8682990  22.5664970  76.5330240 133.3941560  23.3126310
  75.9765170 134.7424560  22.9073310  69.0300600 128.6126680  18.6958440
  68.7447520 128.2482350  19.5337060  68.9679460 127.8807140  18.0821580
  73.9559480 132.9091630  24.8849180  73.6516550 133.7883610  25.1099540
  74.9105940 132.9691420  24.9206620  72.4841270 137.1152620  15.4816030
  71.7103530 136.5750240  15.3214750  73.2135900 136.5959230  15.1433790
  83.2429250 136.1117980  21.2742420  83.9628370 136.6073270  20.8838530
  83.0411070 135.4335870  20.6296290  78.7039190 127.5055940  15.4171810
  77.8903800 127.0069110  15.3417120  78.5101140 128.3454190  15.0008160
  78.6248050 136.1827040  27.1611420  78.5585360 135.2622710  26.9069010
  77.9953190 136.2802480  27.8756060  81.4187580 131.8775590  13.7133970
  82.3067200 132.1892820  13.5385310  81.3892670 131.0047840  13.3214550
  72.5278670 136.7833000  19.1194840  73.0457340 135.9801260  19.0651730
  72.0762690 136.7212140  19.9611670  77.4148170 138.0499280  14.3922140
  77.7563870 138.7941510  13.8965460  76.5860880 138.3630400  14.7546970
  70.0123210 133.7494370  26.0320540  69.6538150 134.4148220  26.6193880
  69.7177770 132.9177920  26.4033160  73.2136330 134.2078610  28.9160090
  72.9136470 134.3535790  28.0187910  73.9847570 133.6483900  28.8233480
  78.5564780 139.0047610  26.9115220  78.5709320 138.0728570  26.6934130
  77.8489880 139.0907370  27.5504990  83.6901850 133.1887430  13.1813830
  83.6065570 133.6201650  12.3310270  84.4096040 133.6485780  13.6140650
  84.7675990 135.6454950  26.2583800  84.0424180 136.2383730  26.0613190
  85.2951450 135.6378490  25.4597170  84.7189100 140.0429690  15.9095960
  84.0765260 139.3885310  16.1839680  84.3319760 140.4484780  15.1336630
  80.2975580 137.3715120  19.7567650  80.6499400 136.7743250  19.0969020
  79.4137910 137.0459350  19.9275900  76.3838860 138.1312810  17.1638060
  77.0709990 138.6782020  17.5445650  75.5971280 138.6753540  17.1987670
  68.5231260 133.7485630  12.6555140  69.3926110 134.0310430  12.9391060
  68.0321580 134.5621500  12.5403950  75.6866070 135.1358840  16.7763420
  76.1428850 135.9464090  17.0023610  75.3354280 134.8181980  17.6081910
  77.9898680 140.6465180  24.0055720  78.6340900 140.8524560  24.6829140
  78.3528120 139.8853580  23.5526570  71.5877850 125.4796490  17.2485940
  71.4592480 125.4714390  18.1970860  70.7639870 125.8179580  16.8976950
  79.2630760 138.6497530  22.7233170  79.9052990 137.9490690  22.8365340
  79.7880110 139.4295970  22.5430060  83.1086480 138.9346150  12.4472310
  82.8824060 138.2176590  13.0396950  82.7182680 138.6858590  11.6094060
  81.0368380 139.4492430  25.9269230  81.3724620 140.0359120  26.6047150
  80.1168720 139.3185140  26.1567020  68.8902510 142.9613010  13.2216770
  69.2500150 143.5602350  12.5674040  68.7494850 143.5072900  13.9951800
  68.5871780 127.2387610  26.7092640  67.8730300 127.4384530  27.3145250
  69.0066820 126.4627180  27.0807440  82.6902730 136.8518090  14.1086470
  82.4024430 137.3130780  14.8964350  83.4854900 136.3915860  14.3770690
  68.8744370 141.2267870  27.6959170  68.9835490 140.2862610  27.5554560
  68.2224930 141.4922620  27.0472900  76.8656960 139.4983760  29.0957290
  76.5453830 138.7793000  29.6402980  76.1915320 140.1738830  29.1693350
  74.9071130 140.3444210  14.0390440  74.8981230 141.0773900  13.4234950
  73.9869490 140.0975790  14.1317400  70.5077770 135.5659100  14.7837200
  69.9005720 136.3058000  14.7932500  70.9827120 135.6558460  13.9575400
  80.0810560 129.7309920  24.4594090  80.4491380 128.9105130  24.7873660
  79.2208760 129.7911810  24.8749740  83.4472590 128.6866860  15.2681650
  82.8185750 128.7912530  14.5539880  82.9524510 128.9063640  16.0575530
  77.8930730 140.4072450  12.7015630  77.9942710 140.2036440  11.7717610
  76.9932470 140.1530730  12.9063410  75.4156620 130.9652810  16.6839530
  74.7072770 131.4339150  17.1253140  75.7001100 130.3074820  17.3184720
  77.0412550 132.3849510  24.6832060  77.5397800 132.8595330  25.3483910
  77.1835500 131.4613030  24.8902090  79.4472050 127.6903470  18.1235320
  79.3239830 127.7089600  17.1744830  80.3956610 127.7382410  18.2433720
  76.5348840 142.9258770  17.3963300  76.7890340 142.8880160  16.4742670
  75.5861320 142.7992100  17.3891550  73.6191640 129.2737890  14.0590240
  74.4682170 129.7108040  13.9930430  73.2522910 129.5858150  14.8862300
  84.2479410 128.6017470  25.5260450  83.7453010 129.3422870  25.8654260
  85.0636070 128.9901470  25.2097240  82.5401420 133.8450650  18.9721810
  81.5991560 133.8600880  19.1469500  82.8545490 133.0586610  19.4182110
  72.5183060 135.5270250  12.5325770  73.2846330 135.4151610  13.0951200
  72.5957750 134.8308220  11.8802540  71.2129820 132.9595320  13.2158660
  71.2933410 132.0122830  13.3276060  72.1049570 133.2902200  13.3219320
  84.5427000 141.0159500  20.6476070  84.6674420 141.8390670  21.1199880
  85.4092560 140.8050230  20.3000220  72.0144530 143.1090710  20.3193200
  72.7507010 142.5606170  20.5901770  72.3985450 143.9746720  20.1799190
  68.8990010 139.1764280  16.1934710  67.9729790 139.4185420  16.1840120
  69.3646440 140.0038540  16.0719460  71.0202810 142.2936780  29.5078780
  71.8215540 142.6148830  29.9214180  70.5054630 141.9332360  30.2298690
  75.1246840 142.2821020  12.1418770  75.9175450 142.5709850  11.6900560
  74.6051190 141.8513190  11.4631250  79.8567440 138.4016650  29.4554190
  79.2505600 138.4248250  28.7149940  79.5521550 137.6699690  29.9921440
  81.2867810 142.1296940  28.0663600  82.2389560 142.0454960  28.0163840
  81.1396030 142.7938650  28.7397390  84.1777010 141.5091150  13.5655510
  83.8918520 141.0956290  12.7509690  83.9796560 142.4378860  13.4456030
  68.7400620 134.7810240  28.4514830  69.2439640 134.2017520  29.0231060
  68.0008040 135.0650470  28.9891200  75.6424240 137.5024430  12.0061120
  75.5374880 136.8876780  12.7322500  75.4748460 136.9790320  11.2224130
  75.7938560 136.1881230  27.9850350  75.0284230 136.7566230  27.9005020
  75.9754520 135.8957440  27.0918580  78.8826970 136.5644460  12.6103110
  78.3337070 137.0113760  13.2545850  79.5046230 136.0593710  13.1340780
  82.9361910 137.9186560  28.5425370  83.6771380 138.2562320  28.0392830
  82.1734590 138.0878620  27.9895140  70.7723700 132.9239830  29.3464900
  70.8129040 132.6253700  30.2550130  71.6269200 133.3247440  29.1872420
  74.5502090 135.5235380  14.5068410  74.9718510 135.3575250  15.3499800
  74.6752930 134.7135610  14.0123550  72.7129510 131.5031930  27.3139390
  72.1825970 131.0122880  26.6862730  73.3817580 131.9316130  26.7797320
  77.0629730 134.5472990  11.7545510  77.5835390 133.8322010  11.3886660
  77.7098130 135.1858860  12.0546020  81.6107570 135.9701390  27.0780580
  82.0248590 136.1246470  27.9271000  80.6758570 136.0956610  27.2406360
  82.0829740 133.3097550  29.0819730  82.6650510 132.5549870  28.9940210
  82.2591510 133.8404990  28.3051210  73.2001810 128.4694300  27.3936680
  73.1058680 127.8515050  26.6687550  72.6199200 129.1960590  27.1666590
  75.9663250 127.0267540  24.4264070  75.5180550 127.0491800  23.5809620
  75.3328450 126.6286560  25.0234370  76.3722800 135.9221870  25.0476510
  76.7910910 136.7654600  24.8752750  75.4531430 136.0593910  24.8183290
  78.7086700 133.6538050  26.4314350  78.8282910 133.0579190  27.1709190
  79.5680700 133.6907740  26.0115650  81.0474600 134.2075240  25.0076860
  80.5209820 134.7317860  24.4042000  81.3905940 134.8402630  25.6386590
  73.4460990 131.5968610  11.4526570  73.2450050 130.7335970  11.8139910
  73.2753040 131.5101970  10.5148170  74.2230220 142.2274880  26.1634240
  73.6851310 142.9520940  25.8442940  74.4764180 141.7505220  25.3731580
  75.4755470 130.1959400  27.6890170  76.0655160 129.8875250  28.3767990
  74.6575710 129.7239150  27.8450070  80.2948900 129.8125210  27.9223190
  79.6064420 129.1506750  27.8573180  81.0154920 129.3663480  28.3671650
  80.9249300 126.4076840  13.9813450  81.2051590 125.5644740  14.3372870
  80.1515030 126.6399950  14.4952200  72.2443790 128.6969230  11.4404450
  72.5469690 128.7036660  10.5323600  72.9838380 128.3467090  11.9372110
  77.0792430 143.4626090  26.4220890  77.0051130 144.3661230  26.7293260
  76.1771270 143.1437990  26.3942960  75.4628720 127.6403850  12.4260650
  75.1150720 126.9627840  11.8463100  75.6641490 127.1793360  13.2404040
  77.6277760 142.6284600  14.0447250  78.5228550 142.9669570  14.0666010
  77.6595390 141.9064010  13.4171530  71.2673920 138.0011650  12.2734250
  71.7048790 138.5441320  12.9291830  71.7521650 137.1758600  12.2830590
  68.4819720 140.7900680  19.7254510  68.8122730 139.9221740  19.4933150
  68.9110720 140.9959200  20.5559470  73.0781640 139.1209690  17.3856480
  72.7777180 138.9974660  18.2860390  72.9719130 138.2618280  16.9772210
  68.9709930 141.6571270  22.4636140  68.5340920 141.8372070  23.2960290
  69.5387610 142.4145890  22.3217860  84.6072110 141.1588270  26.7513450
  84.0074100 141.2180830  26.0077370  84.7366010 140.2193250  26.8810300
  85.8473560 138.9006090  12.0883160  85.0166520 138.9682740  12.5590390
  86.0245390 139.7910210  11.7850020  85.3030020 135.6453570  14.5917360
  86.0648930 136.2150220  14.6977050  85.3184390 135.0780770  15.3625670
  68.8034360 134.1691500  18.8225020  68.1483200 133.9003140  18.1784720
  69.6412310 134.0595980  18.3727000  86.3089990 136.5003670  19.4359290
  86.6798820 135.7170990  19.0295260  86.9491920 137.1892770  19.2576590
  83.2923750 137.8840250  24.8489610  82.4783590 138.3137410  25.1115400
  83.6997950 138.4958660  24.2358660  85.3549190 135.9387940  11.7489880
  85.6298030 136.8466820  11.6209100  85.1659930 135.8750470  12.6851870
  81.7524800 128.9632790  13.0443510  82.1709680 128.7763770  12.2040170
  81.4460860 128.1111840  13.3546440  85.2514530 133.8756930  16.7419310
  84.8758130 133.1084860  16.3100600  84.5217650 134.2579630  17.2294240
  69.8410290 134.5544070  23.3628360  70.2083330 134.4671470  24.2424380
  69.2721110 133.7910620  23.2635220  84.6414150 133.0228450  26.3758830
  84.4100240 132.7941200  25.4756780  84.9018700 133.9428000  26.3303720
  69.3926290 131.4653160  27.2686780  68.4982340 131.4319920  27.6080490
  69.9323840 131.6639950  28.0338030  83.0802220 128.2484880  29.1538530
  83.9572400 128.2568280  29.5372530  83.0923060 127.5115720  28.5430880
  68.0172440 131.3790430  14.7650350  67.1136520 131.6420630  14.5902010
  68.5013060 131.6501600  13.9850310  84.5265490 132.1014420  20.0426550
  85.0502970 131.6077070  19.4116720  85.1124910 132.2364780  20.7874120
  84.7055210 132.1854290  23.5646100  83.7557920 132.1517830  23.6791090
  84.8868220 133.0954400  23.3295870  70.5599650 130.4355970  12.6744730
  71.2691350 130.0139190  12.1892010  69.8439590 130.5031200  12.0428080
  70.2073810 126.4895300  11.7147380  70.9301940 127.0304240  12.0328600
  70.4798330 126.2158720  10.8388920  84.0165460 131.3587770  15.9818960
  84.5124580 131.1258640  16.7667840  83.8181530 130.5199610  15.5656600
  69.8966000 125.7401490  21.6170000  70.5442190 125.1898870  21.1765160
  70.3167840 125.9944640  22.4385810  85.4452620 129.9948720  18.5156640
  85.3351900 129.8404760  19.4538910  86.2060210 129.4669660  18.2732050
  83.7918340 125.9342850  24.9739640  84.4290560 126.5476990  25.3398830
  83.9393230 125.9703510  24.0288870  86.3342890 127.8256640  11.7562780
  87.2592200 127.6937820  11.5481070  86.3118680 127.9049460  12.7099230
  86.4081380 128.5967300  14.3819490  85.6132880 128.5312420  14.9112400
  86.6124660 129.5317940  14.3704840  83.3499800 142.6358850  18.3757880
  83.9458870 142.3143420  17.6992300  83.6077950 142.1630670  19.1671150
  69.6498000 125.8957160  24.3595320  69.3012820 126.3520980  25.1253500
  69.3185700 125.0014290  24.4417750  71.2562370 139.0676760  28.5248510
  71.2132000 138.6969670  29.4062970  71.3873380 140.0054330  28.6650330
  74.9568400 140.6236350  24.1258230  74.7159760 140.8910910  23.2388750
  75.8971040 140.7942080  24.1809090  77.1622820 127.0869040  27.8814740
  77.1011710 127.6790870  28.6310150  78.1023200 126.9795000  27.7365000
  79.7997380 126.7439100  27.5207030  80.4137790 127.0618390  26.8588110
  80.3446940 126.2587690  28.1402890  86.2172560 142.6430730  24.9268870
  85.7230840 143.0399600  24.2096000  85.6085850 142.0179940  25.3206150
  70.3218640 125.4233360  27.6346090  70.8701630 125.2421410  26.8712200
  70.3873950 124.6327470  28.1702400  71.0950400 142.0139010  25.6446290
  70.5010720 141.8823710  26.3836330  71.0874240 141.1777150  25.1788390
  80.5405420 125.3071240  23.8476320  79.6665260 125.6406350  23.6449250
  80.4316170 124.8344420  24.6728190  81.4477400 127.5142110  25.2318040
  81.1190760 126.6993870  24.8519770  82.3959700 127.4711920  25.1083730
  83.9012010 143.2854150  22.2055610  83.4414980 144.0369960  21.8313630
  83.2724470 142.5660620  22.1470410  70.7262630 139.3797390  24.5954330
  69.9996690 138.7602680  24.5280280  70.7871780 139.7738000  23.7252410
  74.3307730 141.5942390  21.3803740  74.8472750 140.9829750  20.8552000
  74.9805110 142.0971170  21.8714750  77.0703230 142.4850880  22.2072720
  77.3581040 142.2305180  21.3305730  77.5826450 141.9328240  22.7978290
  78.2880240 126.2241080  22.7869230  77.5052030 126.6986580  23.0665990
  77.9943170 125.3195910  22.6782410  82.8401310 126.9264180  20.8318320
  83.2809400 126.8709280  19.9839920  82.5708900 127.8422190  20.9028500
  84.7039880 126.5579420  18.8427140  84.6428280 125.6140640  18.6958160
  85.4831910 126.6659510  19.3880600  69.0092630 142.6971780  17.8051090
  68.8414670 142.0642460  18.5032980  68.1427140 142.9031180  17.4545280
  69.6320650 126.5288560  15.3082950  70.3900010 126.6417440  14.7346980
  69.1697820 127.3657760  15.2626380  76.1734460 128.6427830  18.2985260
  75.3608970 128.2684720  17.9581140  76.6776100 127.8872910  18.6006450
  80.6759440 125.3070280  19.5368330  81.2788810 125.8790490  20.0116850
  79.9352430 125.8709720  19.3142230  83.8194040 125.7091840  14.8108610
  84.0144670 126.6075290  15.0776040  83.0323910 125.4778920  15.3041560
  70.6155330 141.3905010  15.2501230  70.0902950 141.7713040  14.5463190
  70.5399910 142.0155780  15.9710940  72.0045800 127.0552610  13.8484920
  72.5338560 126.2682410  13.7192870  72.6374120 127.7343800  14.0820450
  74.1983640 126.7927750  16.9030310  73.5686380 126.0915060  17.0700440
  73.6588780 127.5531880  16.6863470  77.1375590 143.4066980  29.5740920
  78.0642900 143.1711250  29.6176880  77.1226020 144.2338980  29.0926950
  85.3720650 142.9492550  16.5715170  85.5472840 142.2630290  15.9276090
  84.6742220 143.4739600  16.1791840  74.3239200 126.0711730  29.3382800
  74.0423470 126.5745330  28.5743620  74.7058900 125.2733480  28.9724930
  73.2148300 143.3387390  14.1250480  73.9467120 143.0546670  13.5774370
  73.4741970 143.1000670  15.0149860  72.3763090 139.4552120  14.1296810
  71.7471970 139.9237220  14.6782640  72.4910920 138.6101340  14.5643000
  80.9254660 125.4865310  29.9163270  80.8120110 125.8059920  30.8114790
  81.7424400 125.8877820  29.6200550  83.7053150 142.6336840  29.3981960
  84.4978470 142.1386070  29.1907920  83.9986300 143.3126980  30.0057570
  77.9630850 135.2836800   2.1607280  77.1872950 134.8037240   2.4505850
  78.6143780 134.6042450   1.9863440  71.9796680 135.5956610   3.0383040
  71.1481560 135.3405320   3.4379550  72.5877660 135.6667380   3.7740960
  71.9597940 139.6296700   3.2341060  72.2625980 138.7394440   3.0551280
  72.7041530 140.1866920   3.0063310  68.3521640 133.1564150   2.7065130
  68.9237750 132.3886350   2.7068770  68.3523180 133.4552910   1.7971740
  77.4039840 137.9593990   2.1677440  77.3348120 137.0183930   2.0066570
  78.1659700 138.0495400   2.7400010  69.5946510 128.5648510   4.4934060
  69.4149350 127.6674260   4.7736820  69.1926590 129.1120380   5.1681010
  70.2133180 131.0609010   3.1016400  70.8943290 131.3247380   3.7203800
  69.8981230 130.2209880   3.4354410  74.4057750 132.1076370   2.1888990
  74.9135970 132.6057340   2.8294010  74.9370990 131.3311570   2.0128350
  86.5068680 130.2781560   5.8918340  85.8020850 130.6663270   5.3733450
  86.7726600 130.9731850   6.4939270  72.6893850 126.7474930   6.4552410
  72.6912290 127.2647320   5.6498310  71.8598160 126.2705110   6.4322340
  73.9396700 136.3870110   4.6325910  73.6066080 137.0139030   5.2746980
  74.1163380 136.9131990   3.8527580  82.4530610 130.2015190   2.1002250
  81.7486180 130.4900080   2.6805360  82.8142770 131.0115300   1.7401810
  72.3709180 128.4584890   4.4622860  72.7125990 129.3026940   4.1676730
  71.4324990 128.6068630   4.5788200  73.1515800 138.3550910   6.4475090
  73.7689800 139.0301990   6.1659540  72.2908920 138.7638890   6.3562590
  84.0693390 139.8190320   4.3629730  83.3856910 140.4889430   4.3546400
  84.6087680 140.0170970   3.5974590  85.5217530 129.6469980   2.4911460
  84.5742440 129.6808960   2.6226890  85.8467520 130.4608930   2.8760820
  81.6052130 141.6634450   3.0774910  81.6179290 141.2596740   2.2097170
  81.0527350 142.4381740   2.9736340  81.0037570 136.5664290   4.4057520
  81.4206360 136.3524400   3.5710980  81.7277390 136.8237080   4.9766140
  84.9499670 134.9651510   4.4973760  84.1218300 135.0344600   4.0223890
  85.5450150 135.5505820   4.0289590  81.9141680 131.7520830   5.4428630
  81.5012860 132.5774540   5.6968620  81.1817630 131.1665870   5.2504990
  74.5156170 138.2248290   2.4686510  74.2184460 137.6193760   1.7894290
  75.4655990 138.2625600   2.3575870  72.7603090 131.3123940   4.0846340
  73.3117680 131.4219280   3.3099590  73.2746600 131.6861540   4.8001570
  82.6041780 141.7980160   6.1309610  82.1272340 142.6052350   5.9382220
  81.9203570 141.1458490   6.2835820  73.6074600 137.9629980   9.1194310
  72.7103130 138.1869950   9.3667710  73.6327470 138.0864920   8.1705710
  72.4345820 134.8343300   7.6951680  72.2953590 135.7066100   8.0639080
  71.5527180 134.4916110   7.5499620  74.2326170 140.7765000   9.9036830
  74.2041600 141.1807950   9.0365260  74.0691140 139.8475360   9.7408430
  86.1840990 141.5592100  11.2001000  86.6600710 142.0374990  11.8790080
  86.8048150 141.4909590  10.4746500  68.3864470 136.6040850   3.6122590
  68.4644890 136.7389620   2.6678310  69.0006150 135.8956740   3.8050710
  85.5874240 138.7504950   8.3601010  85.7137300 138.5116830   7.4418190
  85.6295620 137.9189490   8.8323090  79.4490980 142.4532950   6.9295820
  79.9635650 142.3640960   7.7318250  78.6060060 142.7992650   7.2223730
  85.4398250 130.8037410   9.3250750  84.8242520 131.3117080   8.7966210
  85.1194670 129.9035740   9.2676690  68.4423990 137.6455020   6.1517050
  68.6055030 137.1760380   5.3336420  68.9076440 137.1378580   6.8165890
  77.5012570 129.6429300   6.7912940  77.0391940 129.8512320   7.6032880
  77.0990680 128.8288650   6.4883610  82.5017080 130.8638250   7.9209600
  81.6510670 130.5644000   8.2418670  82.3418870 131.1080260   7.0093420
  79.5966790 132.3640000  10.0208390  79.9220200 131.5303750   9.6810620
  80.3847120 132.8868520  10.1686720  75.2518660 127.3208110   3.0467220
  75.5490990 128.2270940   2.9659240  75.8004220 126.8326890   2.4326790
  75.4456190 132.7979930   9.5819140  75.3499790 131.8574660   9.4319540
  76.2888170 133.0195000   9.1867210  70.5766730 129.2093600   7.7352920
  70.1830120 130.0568810   7.9425700  69.8885130 128.5719970   7.9261560
  77.1511780 129.2928570  10.8049660  76.4610100 129.1000770  11.4395750
  77.8944080 129.5763210  11.3373960  67.8783780 127.1322060   1.7683000
  67.5896830 127.7024920   2.4807980  68.6229540 126.6526510   2.1314230
  79.4274750 133.1327010   3.6403580  78.6955870 133.6413820   3.9893680
  79.0299090 132.3156990   3.3392360  79.8900660 128.5860690   3.0526520
  79.9073400 129.0369340   3.8968370  79.6416240 127.6866330   3.2659960
  83.3171410 125.9992870   8.8912900  83.6417180 125.2682530   9.4170880
  83.3527920 125.6806510   7.9893890  70.0162970 137.0206450   8.3112860
  69.6317760 136.3800120   8.9095820  70.3275160 137.7242570   8.8807590
  76.1660110 133.8682990   3.7921480  76.5330240 133.3941560   4.5382820
  75.9765170 134.7424560   4.1329820  73.9559480 132.9091630   6.1105690
  73.6516550 133.7883610   6.3356050  74.9105940 132.9691420   6.1463130
  83.2429250 136.1117980   2.4998930  83.9628370 136.6073270   2.1095040
  83.0411070 135.4335870   1.8552800  78.6248050 136.1827040   8.3867930
  78.5585360 135.2622710   8.1325520  77.9953190 136.2802480   9.1012570
  70.0123210 133.7494370   7.2577050  69.6538150 134.4148220   7.8450390
  69.7177770 132.9177920   7.6289670  73.2136330 134.2078610  10.1416600
  72.9136470 134.3535790   9.2444420  73.9847570 133.6483900  10.0489990
  78.5564780 139.0047610   8.1371730  78.5709320 138.0728570   7.9190640
  77.8489880 139.0907370   8.7761500  84.7675990 135.6454950   7.4840310
  84.0424180 136.2383730   7.2869700  85.2951450 135.6378490   6.6853680
  77.9898680 140.6465180   5.2312230  78.6340900 140.8524560   5.9085650
  78.3528120 139.8853580   4.7783080  79.2630760 138.6497530   3.9489680
  79.9052990 137.9490690   4.0621850  79.7880110 139.4295970   3.7686570
  81.0368380 139.4492430   7.1525740  81.3724620 140.0359120   7.8303660
  80.1168720 139.3185140   7.3823530  68.5871780 127.2387610   7.9349150
  67.8730300 127.4384530   8.5401760  69.0066820 126.4627180   8.3063950
  68.8744370 141.2267870   8.9215680  68.9835490 140.2862610   8.7811070
  68.2224930 141.4922620   8.2729410  76.8656960 139.4983760  10.3213800
  76.5453830 138.7793000  10.8659490  76.1915320 140.1738830  10.3949860
  80.0810560 129.7309920   5.6850600  80.4491380 128.9105130   6.0130170
  79.2208760 129.7911810   6.1006250  77.0412550 132.3849510   5.9088570
  77.5397800 132.8595330   6.5740420  77.1835500 131.4613030   6.1158600
  84.2479410 128.6017470   6.7516960  83.7453010 129.3422870   7.0910770
  85.0636070 128.9901470   6.4353750  71.0202810 142.2936780  10.7335290
  71.8215540 142.6148830  11.1470690  70.5054630 141.9332360  11.4555200
  79.8567440 138.4016650  10.6810700  79.2505600 138.4248250   9.9406450
  79.5521550 137.6699690  11.2177950  81.2867810 142.1296940   9.2920110
  82.2389560 142.0454960   9.2420350  81.1396030 142.7938650   9.9653900
  68.7400620 134.7810240   9.6771340  69.2439640 134.2017520  10.2487570
  68.0008040 135.0650470  10.2147710  75.7938560 136.1881230   9.2106860
  75.0284230 136.7566230   9.1261530  75.9754520 135.8957440   8.3175090
  82.9361910 137.9186560   9.7681880  83.6771380 138.2562320   9.2649340
  82.1734590 138.0878620   9.2151650  70.7723700 132.9239830  10.5721410
  70.8129040 132.6253700  11.4806640  71.6269200 133.3247440  10.4128930
  72.7129510 131.5031930   8.5395900  72.1825970 131.0122880   7.9119240
  73.3817580 131.9316130   8.0053830  81.6107570 135.9701390   8.3037090
  82.0248590 136.1246470   9.1527510  80.6758570 136.0956610   8.4662870
  82.0829740 133.3097550  10.3076240  82.6650510 132.5549870  10.2196720
  82.2591510 133.8404990   9.5307720  73.2001810 128.4694300   8.6193190
  73.1058680 127.8515050   7.8944060  72.6199200 129.1960590   8.3923100
  75.9663250 127.0267540   5.6520580  75.5180550 127.0491800   4.8066130
  75.3328450 126.6286560   6.2490880  76.3722800 135.9221870   6.2733020
  76.7910910 136.7654600   6.1009260  75.4531430 136.0593910   6.0439800
  78.7086700 133.6538050   7.6570860  78.8282910 133.0579190   8.3965700
  79.5680700 133.6907740   7.2372160  81.0474600 134.2075240   6.2333370
  80.5209820 134.7317860   5.6298510  81.3905940 134.8402630   6.8643100
  74.2230220 142.2274880   7.3890750  73.6851310 142.9520940   7.0699450
  74.4764180 141.7505220   6.5988090  75.4755470 130.1959400   8.9146680
  76.0655160 129.8875250   9.6024500  74.6575710 129.7239150   9.0706580
  80.2948900 129.8125210   9.1479700  79.6064420 129.1506750   9.0829690
  81.0154920 129.3663480   9.5928160  77.0792430 143.4626090   7.6477400
  77.0051130 144.3661230   7.9549770  76.1771270 143.1437990   7.6199470
  68.9709930 141.6571270   3.6892650  68.5340920 141.8372070   4.5216800
  69.5387610 142.4145890   3.5474370  84.6072110 141.1588270   7.9769960
  84.0074100 141.2180830   7.2333880  84.7366010 140.2193250   8.1066810
  83.2923750 137.8840250   6.0746120  82.4783590 138.3137410   6.3371910
  83.6997950 138.4958660   5.4615170  69.8410290 134.5544070   4.5884870
  70.2083330 134.4671470   5.4680890  69.2721110 133.7910620   4.4891730
  84.6414150 133.0228450   7.6015340  84.4100240 132.7941200   6.7013290
  84.9018700 133.9428000   7.5560230  69.3926290 131.4653160   8.4943290
  68.4982340 131.4319920   8.8337000  69.9323840 131.6639950   9.2594540
  83.0802220 128.2484880  10.3795040  83.9572400 128.2568280  10.7629040
  83.0923060 127.5115720   9.7687390  84.7055210 132.1854290   4.7902610
  83.7557920 132.1517830   4.9047600  84.8868220 133.0954400   4.5552380
  69.8966000 125.7401490   2.8426510  70.5442190 125.1898870   2.4021670
  70.3167840 125.9944640   3.6642320  83.7918340 125.9342850   6.1996150
  84.4290560 126.5476990   6.5655340  83.9393230 125.9703510   5.2545380
  69.6498000 125.8957160   5.5851830  69.3012820 126.3520980   6.3510010
  69.3185700 125.0014290   5.6674260  71.2562370 139.0676760   9.7505020
  71.2132000 138.6969670  10.6319480  71.3873380 140.0054330   9.8906840
  74.9568400 140.6236350   5.3514740  74.7159760 140.8910910   4.4645260
  75.8971040 140.7942080   5.4065600  77.1622820 127.0869040   9.1071250
  77.1011710 127.6790870   9.8566660  78.1023200 126.9795000   8.9621510
  79.7997380 126.7439100   8.7463540  80.4137790 127.0618390   8.0844620
  80.3446940 126.2587690   9.3659400  86.2172560 142.6430730   6.1525380
  85.7230840 143.0399600   5.4352510  85.6085850 142.0179940   6.5462660
  70.3218640 125.4233360   8.8602600  70.8701630 125.2421410   8.0968710
  70.3873950 124.6327470   9.3958910  71.0950400 142.0139010   6.8702800
  70.5010720 141.8823710   7.6092840  71.0874240 141.1777150   6.4044900
  80.5405420 125.3071240   5.0732830  79.6665260 125.6406350   4.8705760
  80.4316170 124.8344420   5.8984700  81.4477400 127.5142110   6.4574550
  81.1190760 126.6993870   6.0776280  82.3959700 127.4711920   6.3340240
  83.9012010 143.2854150   3.4312120  83.4414980 144.0369960   3.0570140
  83.2724470 142.5660620   3.3726920  70.7262630 139.3797390   5.8210840
  69.9996690 138.7602680   5.7536790  70.7871780 139.7738000   4.9508920
  74.3307730 141.5942390   2.6060250  74.8472750 140.9829750   2.0808510
  74.9805110 142.0971170   3.0971260  77.0703230 142.4850880   3.4329230
  77.3581040 142.2305180   2.5562240  77.5826450 141.9328240   4.0234800
  78.2880240 126.2241080   4.0125740  77.5052030 126.6986580   4.2922500
  77.9943170 125.3195910   3.9038920  77.1375590 143.4066980  10.7997430
  78.0642900 143.1711250  10.8433390  77.1226020 144.2338980  10.3183460
  74.3239200 126.0711730  10.5639310  74.0423470 126.5745330   9.8000130
  74.7058900 125.2733480  10.1981440  80.9254660 125.4865310  11.1419780
  80.8120110 125.8059920  12.0371300  81.7424400 125.8877820  10.8457060
  83.7053150 142.6336840  10.6238470  84.4978470 142.1386070  10.4164430
  83.9986300 143.3126980  11.2314080  79.8312810 114.7314290 150.4745930
  79.7506860 113.8168900 150.2037640  79.4177230 115.2281360 149.7685640
  81.9838280 120.9153500 151.1354330  81.5219810 120.1440740 151.4641500
  82.7963830 120.9419570 151.6406780  70.3888630 111.7815010 147.0173350
  69.5005330 112.1230980 146.9153230  70.6729820 111.5815330 146.1254180
  78.2101590 123.2011510 150.7558320  77.5913030 123.6569010 150.1852760
  79.0653370 123.3562970 150.3548020  72.5650020 110.3646510 148.0511730
  72.6716770 111.2650240 148.3580490  71.6542380 110.3164480 147.7606380
  82.2169130 109.4871320 149.5222630  83.0378750 108.9967890 149.5648110
  82.2503210 110.0768980 150.2754470  79.0764940 118.0850750 148.1490230
  78.4582210 118.5500200 147.5852950  79.5888190 118.7778230 148.5659740
  68.4448140 118.7707280 145.5229860  68.0676120 119.2594380 144.7914760
  68.7021210 119.4432560 146.1536390  76.0537070 107.1723670 150.9815370
  76.3612050 106.6170560 150.2650870  75.1237770 107.3068130 150.7988360
  82.8997550 119.6107180 148.3613000  82.7893880 118.6681510 148.4862420
  82.8965800 119.9722820 149.2475760  78.4417830 115.2372500 147.7175490
  77.5147110 115.1709880 147.9463960  78.5942650 116.1752630 147.6030730
  78.4286910 111.5089500 144.7142650  77.4890580 111.6703460 144.7995110
  78.7470170 112.2275180 144.1678640  82.4715120 116.7992800 148.2210740
  81.8527540 116.4612350 147.5737040  82.4539570 116.1552560 148.9289930
  74.0474470 115.7637240 150.4995220  73.6431470 115.0514490 150.0041120
  74.1337590 115.4190480 151.3883260  80.6479820 116.0379610 145.2283490
  81.0873100 115.2002040 145.0821310  81.3608240 116.6709010 145.3147630
  78.7575200 120.9775680 149.1964730  79.1971110 121.7200010 148.7820120
  78.6962090 121.2202250 150.1203690  84.2296960 107.2922420 143.5424530
  83.9169620 107.3849250 144.4423600  84.9909430 107.8703450 143.4921960
  70.7479100 114.6582220 148.0001870  70.6276700 115.3844310 147.3883140
  70.4379990 113.8885130 147.5229780  69.6312100 119.5297550 150.2176690
  69.2240180 119.6712140 149.3630290  70.5225110 119.2457710 150.0147900
  81.4245380 123.9644800 146.5527740  81.2646520 123.6747740 147.4509570
  81.2592090 123.1884930 146.0172970  73.9033760 123.7443330 148.3299360
  73.7276240 122.8278870 148.1167160  73.0489500 124.1030620 148.5697160
  81.1271510 121.4732360 145.1125740  80.4336670 121.4709650 144.4528020
  81.8694370 121.0491680 144.6819910  80.6921440 123.0995070 149.1874230
  81.1478390 122.3184450 149.5012850  81.0313960 123.8101890 149.7315410
  73.2142760 108.0017290 151.3825540  72.7710910 108.7826830 151.0510060
  73.7727750 108.3247180 152.0896480  76.3301580 107.6227990 146.2631370
  75.7055760 107.6187860 146.9884680  76.2431700 106.7558950 145.8667340
  73.0056980 113.1250860 149.1106790  72.7797900 112.9088030 150.0153410
  72.2249510 113.5579320 148.7652760  80.2354740 113.1314230 147.7097440
  79.6363630 113.8550030 147.5261060  80.7834350 113.0691010 146.9273890
  78.8419610 111.7677770 149.7400720  79.2349180 112.0849970 148.9269410
  79.2036460 110.8889650 149.8545240  68.0654010 112.2998690 143.1733640
  67.9828680 113.2429450 143.3148630  67.7137070 112.1573600 142.2945990
  75.8652140 111.0337720 152.2403990  75.8688200 110.5927670 151.3908530
  76.7603260 111.3555050 152.3475810  71.7154520 110.9164210 151.1998200
  71.3754570 111.3939440 151.9565250  70.9531840 110.4629330 150.8399300
  75.9272290 112.0349800 145.2310750  76.0485110 111.9936280 146.1796570
  75.5420800 112.8973950 145.0757480  74.9393790 114.3450940 144.6294050
  74.3710690 113.8969190 144.0029960  75.6482790 114.7043720 144.0959200
  69.0300600 109.8383190 150.1162870  68.7447520 109.4738860 150.9541490
  68.9679460 109.1063650 149.5026010  72.4841270 118.3409130 146.9020460
  71.7103530 117.8006750 146.7419180  73.2135900 117.8215740 146.5638220
  78.7039190 108.7312450 146.8376240  77.8903800 108.2325620 146.7621550
  78.5101140 109.5710700 146.4212590  81.4187580 113.1032100 145.1338400
  82.3067200 113.4149330 144.9589740  81.3892670 112.2304350 144.7418980
  72.5278670 118.0089510 150.5399270  73.0457340 117.2057770 150.4856160
  72.0762690 117.9468650 151.3816100  77.4148170 119.2755790 145.8126570
  77.7563870 120.0198020 145.3169890  76.5860880 119.5886910 146.1751400
  83.6901850 114.4143940 144.6018260  83.6065570 114.8458160 143.7514700
  84.4096040 114.8742290 145.0345080  84.7189100 121.2686200 147.3300390
  84.0765260 120.6141820 147.6044110  84.3319760 121.6741290 146.5541060
  80.2975580 118.5971630 151.1772080  80.6499400 117.9999760 150.5173450
  79.4137910 118.2715860 151.3480330  76.3838860 119.3569320 148.5842490
  77.0709990 119.9038530 148.9650080  75.5971280 119.9010050 148.6192100
  68.5231260 114.9742140 144.0759570  69.3926110 115.2566940 144.3595490
  68.0321580 115.7878010 143.9608380  75.6866070 116.3615350 148.1967850
  76.1428850 117.1720600 148.4228040  75.3354280 116.0438490 149.0286340
  71.5877850 106.7053000 148.6690370  71.4592480 106.6970900 149.6175290
  70.7639870 107.0436090 148.3181380  83.1086480 120.1602660 143.8676740
  82.8824060 119.4433100 144.4601380  82.7182680 119.9115100 143.0298490
  68.8902510 124.1869520 144.6421200  69.2500150 124.7858860 143.9878470
  68.7494850 124.7329410 145.4156230  82.6902730 118.0774600 145.5290900
  82.4024430 118.5387290 146.3168780  83.4854900 117.6172370 145.7975120
  74.9071130 121.5700720 145.4594870  74.8981230 122.3030410 144.8439380
  73.9869490 121.3232300 145.5521830  70.5077770 116.7915610 146.2041630
  69.9005720 117.5314510 146.2136930  70.9827120 116.8814970 145.3779830
  83.4472590 109.9123370 146.6886080  82.8185750 110.0169040 145.9744310
  82.9524510 110.1320150 147.4779960  77.8930730 121.6328960 144.1220060
  77.9942710 121.4292950 143.1922040  76.9932470 121.3787240 144.3267840
  75.4156620 112.1909320 148.1043960  74.7072770 112.6595660 148.5457570
  75.7001100 111.5331330 148.7389150  79.4472050 108.9159980 149.5439750
  79.3239830 108.9346110 148.5949260  80.3956610 108.9638920 149.6638150
  76.5348840 124.1515280 148.8167730  76.7890340 124.1136670 147.8947100
  75.5861320 124.0248610 148.8095980  73.6191640 110.4994400 145.4794670
  74.4682170 110.9364550 145.4134860  73.2522910 110.8114660 146.3066730
  82.5401420 115.0707160 150.3926240  81.5991560 115.0857390 150.5673930
  82.8545490 114.2843120 150.8386540  72.5183060 116.7526760 143.9530200
  73.2846330 116.6408120 144.5155630  72.5957750 116.0564730 143.3006970
  71.2129820 114.1851830 144.6363090  71.2933410 113.2379340 144.7480490
  72.1049570 114.5158710 144.7423750  72.0144530 124.3347220 151.7397630
  72.7507010 123.7862680 152.0106200  72.3985450 125.2003230 151.6003620
  68.8990010 120.4020790 147.6139140  67.9729790 120.6441930 147.6044550
  69.3646440 121.2295050 147.4923890  75.1246840 123.5077530 143.5623200
  75.9175450 123.7966360 143.1104990  74.6051190 123.0769700 142.8835680
  84.1777010 122.7347660 144.9859940  83.8918520 122.3212800 144.1714120
  83.9796560 123.6635370 144.8660460  75.6424240 118.7280940 143.4265550
  75.5374880 118.1133290 144.1526930  75.4748460 118.2046830 142.6428560
  78.8826970 117.7900970 144.0307540  78.3337070 118.2370270 144.6750280
  79.5046230 117.2850220 144.5545210  74.5502090 116.7491890 145.9272840
  74.9718510 116.5831760 146.7704230  74.6752930 115.9392120 145.4327980
  77.0629730 115.7729500 143.1749940  77.5835390 115.0578520 142.8091090
  77.7098130 116.4115370 143.4750450  73.4460990 112.8225120 142.8731000
  73.2450050 111.9592480 143.2344340  73.2753040 112.7358480 141.9352600
  80.9249300 107.6333350 145.4017880  81.2051590 106.7901250 145.7577300
  80.1515030 107.8656460 145.9156630  72.2443790 109.9225740 142.8608880
  72.5469690 109.9293170 141.9528030  72.9838380 109.5723600 143.3576540
  75.4628720 108.8660360 143.8465080  75.1150720 108.1884350 143.2667530
  75.6641490 108.4049870 144.6608470  77.6277760 123.8541110 145.4651680
  78.5228550 124.1926080 145.4870440  77.6595390 123.1320520 144.8375960
  71.2673920 119.2268160 143.6938680  71.7048790 119.7697830 144.3496260
  71.7521650 118.4015110 143.7035020  68.4819720 122.0157190 151.1458940
  68.8122730 121.1478250 150.9137580  68.9110720 122.2215710 151.9763900
  73.0781640 120.3466200 148.8060910  72.7777180 120.2231170 149.7064820
  72.9719130 119.4874790 148.3976640  85.8473560 120.1262600 143.5087590
  85.0166520 120.1939250 143.9794820  86.0245390 121.0166720 143.2054450
  85.3030020 116.8710080 146.0121790  86.0648930 117.4406730 146.1181480
  85.3184390 116.3037280 146.7830100  68.8034360 115.3948010 150.2429450
  68.1483200 115.1259650 149.5989150  69.6412310 115.2852490 149.7931430
  86.3089990 117.7260180 150.8563720  86.6798820 116.9427500 150.4499690
  86.9491920 118.4149280 150.6781020  85.3549190 117.1644450 143.1694310
  85.6298030 118.0723330 143.0413530  85.1659930 117.1006980 144.1056300
  81.7524800 110.1889300 144.4647940  82.1709680 110.0020280 143.6244600
  81.4460860 109.3368350 144.7750870  85.2514530 115.1013440 148.1623740
  84.8758130 114.3341370 147.7305030  84.5217650 115.4836140 148.6498670
  68.0172440 112.6046940 146.1854780  67.1136520 112.8677140 146.0106440
  68.5013060 112.8758110 145.4054740  84.5265490 113.3270930 151.4630980
  85.0502970 112.8333580 150.8321150  85.1124910 113.4621290 152.2078550
  70.5599650 111.6612480 144.0949160  71.2691350 111.2395700 143.6096440
  69.8439590 111.7287710 143.4632510  70.2073810 107.7151810 143.1351810
  70.9301940 108.2560750 143.4533030  70.4798330 107.4415230 142.2593350
  84.0165460 112.5844280 147.4023390  84.5124580 112.3515150 148.1872270
  83.8181530 111.7456120 146.9861030  85.4452620 111.2205230 149.9361070
  85.3351900 111.0661270 150.8743340  86.2060210 110.6926170 149.6936480
  86.3342890 109.0513150 143.1767210  87.2592200 108.9194330 142.9685500
  86.3118680 109.1305970 144.1303660  86.4081380 109.8223810 145.8023920
  85.6132880 109.7568930 146.3316830  86.6124660 110.7574450 145.7909270
  83.3499800 123.8615360 149.7962310  83.9458870 123.5399930 149.1196730
  83.6077950 123.3887180 150.5875580  82.8401310 108.1520690 152.2522750
  83.2809400 108.0965790 151.4044350  82.5708900 109.0678700 152.3232930
  84.7039880 107.7835930 150.2631570  84.6428280 106.8397150 150.1162590
  85.4831910 107.8916020 150.8085030  69.0092630 123.9228290 149.2255520
  68.8414670 123.2898970 149.9237410  68.1427140 124.1287690 148.8749710
  69.6320650 107.7545070 146.7287380  70.3900010 107.8673950 146.1551410
  69.1697820 108.5914270 146.6830810  76.1734460 109.8684340 149.7189690
  75.3608970 109.4941230 149.3785570  76.6776100 109.1129420 150.0210880
  80.6759440 106.5326790 150.9572760  81.2788810 107.1047000 151.4321280
  79.9352430 107.0966230 150.7346660  83.8194040 106.9348350 146.2313040
  84.0144670 107.8331800 146.4980470  83.0323910 106.7035430 146.7245990
  70.6155330 122.6161520 146.6705660  70.0902950 122.9969550 145.9667620
  70.5399910 123.2412290 147.3915370  72.0045800 108.2809120 145.2689350
  72.5338560 107.4938920 145.1397300  72.6374120 108.9600310 145.5024880
  74.1983640 108.0184260 148.3234740  73.5686380 107.3171570 148.4904870
  73.6588780 108.7788390 148.1067900  85.3720650 124.1749060 147.9919600
  85.5472840 123.4886800 147.3480520  84.6742220 124.6996110 147.5996270
  73.2148300 124.5643900 145.5454910  73.9467120 124.2803180 144.9978800
  73.4741970 124.3257180 146.4354290  72.3763090 120.6808630 145.5501240
  71.7471970 121.1493730 146.0987070  72.4910920 119.8357850 145.9847430
  79.8312810 114.7314290 131.7002440  79.7506860 113.8168900 131.4294150
  79.4177230 115.2281360 130.9942150  77.9630850 116.5093310 133.5811710
  77.1872950 116.0293750 133.8710280  78.6143780 115.8298960 133.4067870
  71.9796680 116.8213120 134.4587470  71.1481560 116.5661830 134.8583980
  72.5877660 116.8923890 135.1945390  81.9838280 120.9153500 132.3610840
  81.5219810 120.1440740 132.6898010  82.7963830 120.9419570 132.8663290
  71.9597940 120.8553210 134.6545490  72.2625980 119.9650950 134.4755710
  72.7041530 121.4123430 134.4267740  68.3521640 114.3820660 134.1269560
  68.9237750 113.6142860 134.1273200  68.3523180 114.6809420 133.2176170
  78.2101590 123.2011510 131.9814830  77.5913030 123.6569010 131.4109270
  79.0653370 123.3562970 131.5804530  77.4039840 119.1850500 133.5881870
  77.3348120 118.2440440 133.4271000  78.1659700 119.2751910 134.1604440
  69.5946510 109.7905020 135.9138490  69.4149350 108.8930770 136.1941250
  69.1926590 110.3376890 136.5885440  78.4345010 111.9920880 133.8150800
  78.8109830 111.1192760 133.7024470  78.3364520 112.3279580 132.9241240
  70.2133180 112.2865520 134.5220830  70.8943290 112.5503890 135.1408230
  69.8981230 111.4466390 134.8558840  74.4057750 113.3332880 133.6093420
  74.9135970 113.8313850 134.2498440  74.9370990 112.5568080 133.4332780
  86.5068680 111.5038070 137.3122770  85.8020850 111.8919780 136.7937880
  86.7726600 112.1988360 137.9143700  72.6893850 107.9731440 137.8756840
  72.6912290 108.4903830 137.0702740  71.8598160 107.4961620 137.8526770
  79.0764940 118.0850750 129.3746740  78.4582210 118.5500200 128.8109460
  79.5888190 118.7778230 129.7916250  73.9396700 117.6126620 136.0530340
  73.6066080 118.2395540 136.6951410  74.1163380 118.1388500 135.2732010
  82.4530610 111.4271700 133.5206680  81.7486180 111.7156590 134.1009790
  82.8142770 112.2371810 133.1606240  72.3709180 109.6841400 135.8827290
  72.7125990 110.5283450 135.5881160  71.4324990 109.8325140 135.9992630
  73.1515800 119.5807420 137.8679520  73.7689800 120.2558500 137.5863970
  72.2908920 119.9895400 137.7767020  68.4448140 118.7707280 126.7486370
  68.0676120 119.2594380 126.0171270  68.7021210 119.4432560 127.3792900
  84.0693390 121.0446830 135.7834160  83.3856910 121.7145940 135.7750830
  84.6087680 121.2427480 135.0179020  85.5217530 110.8726490 133.9115890
  84.5742440 110.9065470 134.0431320  85.8467520 111.6865440 134.2965250
  76.0537070 107.1723670 132.2071880  76.3612050 106.6170560 131.4907380
  75.1237770 107.3068130 132.0244870  81.6052130 122.8890960 134.4979340
  81.6179290 122.4853250 133.6301600  81.0527350 123.6638250 134.3940770
  82.8997550 119.6107180 129.5869510  82.7893880 118.6681510 129.7118930
  82.8965800 119.9722820 130.4732270  81.0037570 117.7920800 135.8261950
  81.4206360 117.5780910 134.9915410  81.7277390 118.0493590 136.3970570
  78.4417830 115.2372500 128.9432000  77.5147110 115.1709880 129.1720470
  78.5942650 116.1752630 128.8287240  84.9499670 116.1908020 135.9178190
  84.1218300 116.2601110 135.4428320  85.5450150 116.7762330 135.4494020
  81.9141680 112.9777340 136.8633060  81.5012860 113.8031050 137.1173050
  81.1817630 112.3922380 136.6709420  74.0474470 115.7637240 131.7251730
  73.6431470 115.0514490 131.2297630  74.1337590 115.4190480 132.6139770
  74.5156170 119.4504800 133.8890940  74.2184460 118.8450270 133.2098720
  75.4655990 119.4882110 133.7780300  72.7603090 112.5380450 135.5050770
  73.3117680 112.6475790 134.7304020  73.2746600 112.9118050 136.2206000
  82.6041780 123.0236670 137.5514040  82.1272340 123.8308860 137.3586650
  81.9203570 122.3715000 137.7040250  73.6074600 119.1886490 140.5398740
  72.7103130 119.4126460 140.7872140  73.6327470 119.3121430 139.5910140
  72.4345820 116.0599810 139.1156110  72.2953590 116.9322610 139.4843510
  71.5527180 115.7172620 138.9704050  78.7575200 120.9775680 130.4221240
  79.1971110 121.7200010 130.0076630  78.6962090 121.2202250 131.3460200
  74.2326170 122.0021510 141.3241260  74.2041600 122.4064460 140.4569690
  74.0691140 121.0731870 141.1612860  86.1840990 122.7848610 142.6205430
  86.6600710 123.2631500 143.2994510  86.8048150 122.7166100 141.8950930
  68.3864470 117.8297360 135.0327020  68.4644890 117.9646130 134.0882740
  69.0006150 117.1213250 135.2255140  69.6312100 119.5297550 131.4433200
  69.2240180 119.6712140 130.5886800  70.5225110 119.2457710 131.2404410
  85.5874240 119.9761460 139.7805440  85.7137300 119.7373340 138.8622620
  85.6295620 119.1446000 140.2527520  79.4490980 123.6789460 138.3500250
  79.9635650 123.5897470 139.1522680  78.6060060 124.0249160 138.6428160
  81.4245380 123.9644800 127.7784250  81.2646520 123.6747740 128.6766080
  81.2592090 123.1884930 127.2429480  73.9033760 123.7443330 129.5555870
  73.7276240 122.8278870 129.3423670  73.0489500 124.1030620 129.7953670
  81.1271510 121.4732360 126.3382250  80.4336670 121.4709650 125.6784530
  81.8694370 121.0491680 125.9076420  80.6921440 123.0995070 130.4130740
  81.1478390 122.3184450 130.7269360  81.0313960 123.8101890 130.9571920
  85.4398250 112.0293920 140.7455180  84.8242520 112.5373590 140.2170640
  85.1194670 111.1292250 140.6881120  68.4423990 118.8711530 137.5721480
  68.6055030 118.4016890 136.7540850  68.9076440 118.3635090 138.2370320
  73.2142760 108.0017290 132.6082050  72.7710910 108.7826830 132.2766570
  73.7727750 108.3247180 133.3152990  77.5012570 110.8685810 138.2117370
  77.0391940 111.0768830 139.0237310  77.0990680 110.0545160 137.9088040
  82.5017080 112.0894760 139.3414030  81.6510670 111.7900510 139.6623100
  82.3418870 112.3336770 138.4297850  79.5966790 113.5896510 141.4412820
  79.9220200 112.7560260 141.1015050  80.3847120 114.1125030 141.5891150
  76.3301580 107.6227990 127.4887880  75.7055760 107.6187860 128.2141190
  76.2431700 106.7558950 127.0923850  75.2518660 108.5464620 134.4671650
  75.5490990 109.4527450 134.3863670  75.8004220 108.0583400 133.8531220
  73.0056980 113.1250860 130.3363300  72.7797900 112.9088030 131.2409920
  72.2249510 113.5579320 129.9909270  75.4456190 114.0236440 141.0023570
  75.3499790 113.0831170 140.8523970  76.2888170 114.2451510 140.6071640
  78.8419610 111.7677770 130.9657230  79.2349180 112.0849970 130.1525920
  79.2036460 110.8889650 131.0801750  70.5766730 110.4350110 139.1557350
  70.1830120 111.2825320 139.3630130  69.8885130 109.7976480 139.3465990
  77.1511780 110.5185080 142.2254090  76.4610100 110.3257280 142.8600180
  77.8944080 110.8019720 142.7578390  67.8783780 108.3578570 133.1887430
  67.5896830 108.9281430 133.9012410  68.6229540 107.8783020 133.5518660
  79.4274750 114.3583520 135.0608010  78.6955870 114.8670330 135.4098110
  79.0299090 113.5413500 134.7596790  75.8652140 111.0337720 133.4660500
  75.8688200 110.5927670 132.6165040  76.7603260 111.3555050 133.5732320
  71.7154520 110.9164210 132.4254710  71.3754570 111.3939440 133.1821760
  70.9531840 110.4629330 132.0655810  79.8900660 109.8117200 134.4730950
  79.9073400 110.2625850 135.3172800  79.6416240 108.9122840 134.6864390
  83.3171410 107.2249380 140.3117330  83.6417180 106.4939040 140.8375310
  83.3527920 106.9063020 139.4098320  70.0162970 118.2462960 139.7317290
  69.6317760 117.6056630 140.3300250  70.3275160 118.9499080 140.3012020
  76.1660110 115.0939500 135.2125910  76.5330240 114.6198070 135.9587250
  75.9765170 115.9681070 135.5534250  69.0300600 109.8383190 131.3419380
  68.7447520 109.4738860 132.1798000  68.9679460 109.1063650 130.7282520
  73.9559480 114.1348140 137.5310120  73.6516550 115.0140120 137.7560480
  74.9105940 114.1947930 137.5667560  72.4841270 118.3409130 128.1276970
  71.7103530 117.8006750 127.9675690  73.2135900 117.8215740 127.7894730
  83.2429250 117.3374490 133.9203360  83.9628370 117.8329780 133.5299470
  83.0411070 116.6592380 133.2757230  78.6248050 117.4083550 139.8072360
  78.5585360 116.4879220 139.5529950  77.9953190 117.5058990 140.5217000
  72.5278670 118.0089510 131.7655780  73.0457340 117.2057770 131.7112670
  72.0762690 117.9468650 132.6072610  77.4148170 119.2755790 127.0383080
  77.7563870 120.0198020 126.5426400  76.5860880 119.5886910 127.4007910
  70.0123210 114.9750880 138.6781480  69.6538150 115.6404730 139.2654820
  69.7177770 114.1434430 139.0494100  73.2136330 115.4335120 141.5621030
  72.9136470 115.5792300 140.6648850  73.9847570 114.8740410 141.4694420
  78.5564780 120.2304120 139.5576160  78.5709320 119.2985080 139.3395070
  77.8489880 120.3163880 140.1965930  84.7675990 116.8711460 138.9044740
  84.0424180 117.4640240 138.7074130  85.2951450 116.8635000 138.1058110
  84.7189100 121.2686200 128.5556900  84.0765260 120.6141820 128.8300620
  84.3319760 121.6741290 127.7797570  80.2975580 118.5971630 132.4028590
  80.6499400 117.9999760 131.7429960  79.4137910 118.2715860 132.5736840
  76.3838860 119.3569320 129.8099000  77.0709990 119.9038530 130.1906590
  75.5971280 119.9010050 129.8448610  75.6866070 116.3615350 129.4224360
  76.1428850 117.1720600 129.6484550  75.3354280 116.0438490 130.2542850
  77.9898680 121.8721690 136.6516660  78.6340900 122.0781070 137.3290080
  78.3528120 121.1110090 136.1987510  71.5877850 106.7053000 129.8946880
  71.4592480 106.6970900 130.8431800  70.7639870 107.0436090 129.5437890
  79.2630760 119.8754040 135.3694110  79.9052990 119.1747200 135.4826280
  79.7880110 120.6552480 135.1891000  83.1086480 120.1602660 125.0933250
  82.8824060 119.4433100 125.6857890  82.7182680 119.9115100 124.2555000
  81.0368380 120.6748940 138.5730170  81.3724620 121.2615630 139.2508090
  80.1168720 120.5441650 138.8027960  68.8902510 124.1869520 125.8677710
  69.2500150 124.7858860 125.2134980  68.7494850 124.7329410 126.6412740
  68.5871780 108.4644120 139.3553580  67.8730300 108.6641040 139.9606190
  69.0066820 107.6883690 139.7268380  68.8744370 122.4524380 140.3420110
  68.9835490 121.5119120 140.2015500  68.2224930 122.7179130 139.6933840
  76.8656960 120.7240270 141.7418230  76.5453830 120.0049510 142.2863920
  76.1915320 121.3995340 141.8154290  74.9071130 121.5700720 126.6851380
  74.8981230 122.3030410 126.0695890  73.9869490 121.3232300 126.7778340
  80.0810560 110.9566430 137.1055030  80.4491380 110.1361640 137.4334600
  79.2208760 111.0168320 137.5210680  77.8930730 121.6328960 125.3476570
  77.9942710 121.4292950 124.4178550  76.9932470 121.3787240 125.5524350
  75.4156620 112.1909320 129.3300470  74.7072770 112.6595660 129.7714080
  75.7001100 111.5331330 129.9645660  77.0412550 113.6106020 137.3293000
  77.5397800 114.0851840 137.9944850  77.1835500 112.6869540 137.5363030
  76.5348840 124.1515280 130.0424240  76.7890340 124.1136670 129.1203610
  75.5861320 124.0248610 130.0352490  73.6191640 110.4994400 126.7051180
  74.4682170 110.9364550 126.6391370  73.2522910 110.8114660 127.5323240
  84.2479410 109.8273980 138.1721390  83.7453010 110.5679380 138.5115200
  85.0636070 110.2157980 137.8558180  84.5427000 122.2416010 133.2937010
  84.6674420 123.0647180 133.7660820  85.4092560 122.0306740 132.9461160
  72.0144530 124.3347220 132.9654140  72.7507010 123.7862680 133.2362710
  72.3985450 125.2003230 132.8260130  68.8990010 120.4020790 128.8395650
  67.9729790 120.6441930 128.8301060  69.3646440 121.2295050 128.7180400
  71.0202810 123.5193290 142.1539720  71.8215540 123.8405340 142.5675120
  70.5054630 123.1588870 142.8759630  75.1246840 123.5077530 124.7879710
  75.9175450 123.7966360 124.3361500  74.6051190 123.0769700 124.1092190
  79.8567440 119.6273160 142.1015130  79.2505600 119.6504760 141.3610880
  79.5521550 118.8956200 142.6382380  81.2867810 123.3553450 140.7124540
  82.2389560 123.2711470 140.6624780  81.1396030 124.0195160 141.3858330
  84.1777010 122.7347660 126.2116450  83.8918520 122.3212800 125.3970630
  83.9796560 123.6635370 126.0916970  68.7400620 116.0066750 141.0975770
  69.2439640 115.4274030 141.6692000  68.0008040 116.2906980 141.6352140
  75.7938560 117.4137740 140.6311290  75.0284230 117.9822740 140.5465960
  75.9754520 117.1213950 139.7379520  82.9361910 119.1443070 141.1886310
  83.6771380 119.4818830 140.6853770  82.1734590 119.3135130 140.6356080
  70.7723700 114.1496340 141.9925840  70.8129040 113.8510210 142.9011070
  71.6269200 114.5503950 141.8333360  72.7129510 112.7288440 139.9600330
  72.1825970 112.2379390 139.3323670  73.3817580 113.1572640 139.4258260
  81.6107570 117.1957900 139.7241520  82.0248590 117.3502980 140.5731940
  80.6758570 117.3213120 139.8867300  82.0829740 114.5354060 141.7280670
  82.6650510 113.7806380 141.6401150  82.2591510 115.0661500 140.9512150
  73.2001810 109.6950810 140.0397620  73.1058680 109.0771560 139.3148490
  72.6199200 110.4217100 139.8127530  75.9663250 108.2524050 137.0725010
  75.5180550 108.2748310 136.2270560  75.3328450 107.8543070 137.6695310
  76.3722800 117.1478380 137.6937450  76.7910910 117.9911110 137.5213690
  75.4531430 117.2850420 137.4644230  78.7086700 114.8794560 139.0775290
  78.8282910 114.2835700 139.8170130  79.5680700 114.9164250 138.6576590
  81.0474600 115.4331750 137.6537800  80.5209820 115.9574370 137.0502940
  81.3905940 116.0659140 138.2847530  74.2230220 123.4531390 138.8095180
  73.6851310 124.1777450 138.4903880  74.4764180 122.9761730 138.0192520
  75.4755470 111.4215910 140.3351110  76.0655160 111.1131760 141.0228930
  74.6575710 110.9495660 140.4911010  80.2948900 111.0381720 140.5684130
  79.6064420 110.3763260 140.5034120  81.0154920 110.5919990 141.0132590
  77.0792430 124.6882600 139.0681830  77.0051130 125.5917740 139.3754200
  76.1771270 124.3694500 139.0403900  77.6277760 123.8541110 126.6908190
  78.5228550 124.1926080 126.7126950  77.6595390 123.1320520 126.0632470
  71.2673920 119.2268160 124.9195190  71.7048790 119.7697830 125.5752770
  71.7521650 118.4015110 124.9291530  68.4819720 122.0157190 132.3715450
  68.8122730 121.1478250 132.1394090  68.9110720 122.2215710 133.2020410
  73.0781640 120.3466200 130.0317420  72.7777180 120.2231170 130.9321330
  72.9719130 119.4874790 129.6233150  68.9709930 122.8827780 135.1097080
  68.5340920 123.0628580 135.9421230  69.5387610 123.6402400 134.9678800
  84.6072110 122.3844780 139.3974390  84.0074100 122.4437340 138.6538310
  84.7366010 121.4449760 139.5271240  85.8473560 120.1262600 124.7344100
  85.0166520 120.1939250 125.2051330  86.0245390 121.0166720 124.4310960
  68.8034360 115.3948010 131.4685960  68.1483200 115.1259650 130.8245660
  69.6412310 115.2852490 131.0187940  86.3089990 117.7260180 132.0820230
  86.6798820 116.9427500 131.6756200  86.9491920 118.4149280 131.9037530
  83.2923750 119.1096760 137.4950550  82.4783590 119.5393920 137.7576340
  83.6997950 119.7215170 136.8819600  69.8410290 115.7800580 136.0089300
  70.2083330 115.6927980 136.8885320  69.2721110 115.0167130 135.9096160
  84.6414150 114.2484960 139.0219770  84.4100240 114.0197710 138.1217720
  84.9018700 115.1684510 138.9764660  69.3926290 112.6909670 139.9147720
  68.4982340 112.6576430 140.2541430  69.9323840 112.8896460 140.6798970
  83.0802220 109.4741390 141.7999470  83.9572400 109.4824790 142.1833470
  83.0923060 108.7372230 141.1891820  84.7055210 113.4110800 136.2107040
  83.7557920 113.3774340 136.3252030  84.8868220 114.3210910 135.9756810
  70.2073810 107.7151810 124.3608320  70.9301940 108.2560750 124.6789540
  70.4798330 107.4415230 123.4849860  69.8966000 106.9658000 134.2630940
  70.5442190 106.4155380 133.8226100  70.3167840 107.2201150 135.0846750
  83.7918340 107.1599360 137.6200580  84.4290560 107.7733500 137.9859770
  83.9393230 107.1960020 136.6749810  83.3499800 123.8615360 131.0218820
  83.9458870 123.5399930 130.3453240  83.6077950 123.3887180 131.8132090
  69.6498000 107.1213670 137.0056260  69.3012820 107.5777490 137.7714440
  69.3185700 106.2270800 137.0878690  71.2562370 120.2933270 141.1709450
  71.2132000 119.9226180 142.0523910  71.3873380 121.2310840 141.3111270
  74.9568400 121.8492860 136.7719170  74.7159760 122.1167420 135.8849690
  75.8971040 122.0198590 136.8270030  77.1622820 108.3125550 140.5275680
  77.1011710 108.9047380 141.2771090  78.1023200 108.2051510 140.3825940
  79.7997380 107.9695610 140.1667970  80.4137790 108.2874900 139.5049050
  80.3446940 107.4844200 140.7863830  86.2172560 123.8687240 137.5729810
  85.7230840 124.2656110 136.8556940  85.6085850 123.2436450 137.9667090
  70.3218640 106.6489870 140.2807030  70.8701630 106.4677920 139.5173140
  70.3873950 105.8583980 140.8163340  71.0950400 123.2395520 138.2907230
  70.5010720 123.1080220 139.0297270  71.0874240 122.4033660 137.8249330
  80.5405420 106.5327750 136.4937260  79.6665260 106.8662860 136.2910190
  80.4316170 106.0600930 137.3189130  81.4477400 108.7398620 137.8778980
  81.1190760 107.9250380 137.4980710  82.3959700 108.6968430 137.7544670
  83.9012010 124.5110660 134.8516550  83.4414980 125.2626470 134.4774570
  83.2724470 123.7917130 134.7931350  70.7262630 120.6053900 137.2415270
  69.9996690 119.9859190 137.1741220  70.7871780 120.9994510 136.3713350
  74.3307730 122.8198900 134.0264680  74.8472750 122.2086260 133.5012940
  74.9805110 123.3227680 134.5175690  77.0703230 123.7107390 134.8533660
  77.3581040 123.4561690 133.9766670  77.5826450 123.1584750 135.4439230
  78.2880240 107.4497590 135.4330170  77.5052030 107.9243090 135.7126930
  77.9943170 106.5452420 135.3243350  82.8401310 108.1520690 133.4779260
  83.2809400 108.0965790 132.6300860  82.5708900 109.0678700 133.5489440
  69.0092630 123.9228290 130.4512030  68.8414670 123.2898970 131.1493920
  68.1427140 124.1287690 130.1006220  76.1734460 109.8684340 130.9446200
  75.3608970 109.4941230 130.6042080  76.6776100 109.1129420 131.2467390
  80.6759440 106.5326790 132.1829270  81.2788810 107.1047000 132.6577790
  79.9352430 107.0966230 131.9603170  70.6155330 122.6161520 127.8962170
  70.0902950 122.9969550 127.1924130  70.5399910 123.2412290 128.6171880
  72.0045800 108.2809120 126.4945860  72.5338560 107.4938920 126.3653810
  72.6374120 108.9600310 126.7281390  74.1983640 108.0184260 129.5491250
  73.5686380 107.3171570 129.7161380  73.6588780 108.7788390 129.3324410
  77.1375590 124.6323490 142.2201860  78.0642900 124.3967760 142.2637820
  77.1226020 125.4595490 141.7387890  85.3720650 124.1749060 129.2176110
  85.5472840 123.4886800 128.5737030  84.6742220 124.6996110 128.8252780
  74.3239200 107.2968240 141.9843740  74.0423470 107.8001840 141.2204560
  74.7058900 106.4989990 141.6185870  73.2148300 124.5643900 126.7711420
  73.9467120 124.2803180 126.2235310  73.4741970 124.3257180 127.6610800
  72.3763090 120.6808630 126.7757750  71.7471970 121.1493730 127.3243580
  72.4910920 119.8357850 127.2103940  80.9254660 106.7121820 142.5624210
  80.8120110 107.0316430 143.4575730  81.7424400 107.1134330 142.2661490
  83.7053150 123.8593350 142.0442900  84.4978470 123.3642580 141.8368860
  83.9986300 124.5383490 142.6518510  71.9796680 116.8213120 115.6843980
  71.1481560 116.5661830 116.0840490  72.5877660 116.8923890 116.4201900
  70.3888630 111.7815010 109.4686370  69.5005330 112.1230980 109.3666250
  70.6729820 111.5815330 108.5767200  68.3521640 114.3820660 115.3526070
  68.9237750 113.6142860 115.3529710  68.3523180 114.6809420 114.4432680
  69.5946510 109.7905020 117.1395000  69.4149350 108.8930770 117.4197760
  69.1926590 110.3376890 117.8141950  72.5650020 110.3646510 110.5024750
  72.6716770 111.2650240 110.8093510  71.6542380 110.3164480 110.2119400
  82.2169130 109.4871320 111.9735650  83.0378750 108.9967890 112.0161130
  82.2503210 110.0768980 112.7267490  70.2133180 112.2865520 115.7477340
  70.8943290 112.5503890 116.3664740  69.8981230 111.4466390 116.0815350
  73.9396700 117.6126620 117.2786850  73.6066080 118.2395540 117.9207920
  74.1163380 118.1388500 116.4988520  72.3709180 109.6841400 117.1083800
  72.7125990 110.5283450 116.8137670  71.4324990 109.8325140 117.2249140
  73.1515800 119.5807420 119.0936030  73.7689800 120.2558500 118.8120480
  72.2908920 119.9895400 119.0023530  68.4448140 118.7707280 107.9742880
  68.0676120 119.2594380 107.2427780  68.7021210 119.4432560 108.6049410
  78.4286910 111.5089500 107.1655670  77.4890580 111.6703460 107.2508130
  78.7470170 112.2275180 106.6191660  72.7603090 112.5380450 116.7307280
  73.3117680 112.6475790 115.9560530  73.2746600 112.9118050 117.4462510
  82.6041780 123.0236670 118.7770550  82.1272340 123.8308860 118.5843160
  81.9203570 122.3715000 118.9296760  80.6479820 116.0379610 107.6796510
  81.0873100 115.2002040 107.5334330  81.3608240 116.6709010 107.7660650
  74.2326170 122.0021510 122.5497770  74.2041600 122.4064460 121.6826200
  74.0691140 121.0731870 122.3869370  70.7479100 114.6582220 110.4514890
  70.6276700 115.3844310 109.8396160  70.4379990 113.8885130 109.9742800
  86.1840990 122.7848610 123.8461940  86.6600710 123.2631500 124.5251020
  86.8048150 122.7166100 123.1207440  68.3864470 117.8297360 116.2583530
  68.4644890 117.9646130 115.3139250  69.0006150 117.1213250 116.4511650
  79.4490980 123.6789460 119.5756760  79.9635650 123.5897470 120.3779190
  78.6060060 124.0249160 119.8684670  81.4245380 123.9644800 109.0040760
  81.2646520 123.6747740 109.9022590  81.2592090 123.1884930 108.4685990
  81.1271510 121.4732360 107.5638760  80.4336670 121.4709650 106.9041040
  81.8694370 121.0491680 107.1332930  68.4423990 118.8711530 118.7977990
  68.6055030 118.4016890 117.9797360  68.9076440 118.3635090 119.4626830
  73.2142760 108.0017290 113.8338560  72.7710910 108.7826830 113.5023080
  73.7727750 108.3247180 114.5409500  76.3301580 107.6227990 108.7144390
  75.7055760 107.6187860 109.4397700  76.2431700 106.7558950 108.3180360
  73.0056980 113.1250860 111.5619810  72.7797900 112.9088030 112.4666430
  72.2249510 113.5579320 111.2165780  80.2354740 113.1314230 110.1610460
  79.6363630 113.8550030 109.9774080  80.7834350 113.0691010 109.3786910
  68.0654010 112.2998690 105.6246660  67.9828680 113.2429450 105.7661650
  67.7137070 112.1573600 104.7459010  71.7154520 110.9164210 113.6511220
  71.3754570 111.3939440 114.4078270  70.9531840 110.4629330 113.2912320
  75.9272290 112.0349800 107.6823770  76.0485110 111.9936280 108.6309590
  75.5420800 112.8973950 107.5270500  74.9393790 114.3450940 107.0807070
  74.3710690 113.8969190 106.4542980  75.6482790 114.7043720 106.5472220
  70.0162970 118.2462960 120.9573800  69.6317760 117.6056630 121.5556760
  70.3275160 118.9499080 121.5268530  69.0300600 109.8383190 112.5675890
  68.7447520 109.4738860 113.4054510  68.9679460 109.1063650 111.9539030
  78.7039190 108.7312450 109.2889260  77.8903800 108.2325620 109.2134570
  78.5101140 109.5710700 108.8725610  81.4187580 113.1032100 107.5851420
  82.3067200 113.4149330 107.4102760  81.3892670 112.2304350 107.1932000
  83.6901850 114.4143940 107.0531280  83.6065570 114.8458160 106.2027720
  84.4096040 114.8742290 107.4858100  84.7675990 116.8711460 120.1301250
  84.0424180 117.4640240 119.9330640  85.2951450 116.8635000 119.3314620
  68.5231260 114.9742140 106.5272590  69.3926110 115.2566940 106.8108510
  68.0321580 115.7878010 106.4121400  77.9898680 121.8721690 117.8773170
  78.6340900 122.0781070 118.5546590  78.3528120 121.1110090 117.4244020
  71.5877850 106.7053000 111.1203390  71.4592480 106.6970900 112.0688310
  70.7639870 107.0436090 110.7694400  83.1086480 120.1602660 106.3189760
  82.8824060 119.4433100 106.9114400  82.7182680 119.9115100 105.4811510
  81.0368380 120.6748940 119.7986680  81.3724620 121.2615630 120.4764600
  80.1168720 120.5441650 120.0284470  68.8902510 124.1869520 107.0934220
  69.2500150 124.7858860 106.4391490  68.7494850 124.7329410 107.8669250
  68.8744370 122.4524380 121.5676620  68.9835490 121.5119120 121.4272010
  68.2224930 122.7179130 120.9190350  70.5077770 116.7915610 108.6554650
  69.9005720 117.5314510 108.6649950  70.9827120 116.8814970 107.8292850
  83.4472590 109.9123370 109.1399100  82.8185750 110.0169040 108.4257330
  82.9524510 110.1320150 109.9292980  77.8930730 121.6328960 106.5733080
  77.9942710 121.4292950 105.6435060  76.9932470 121.3787240 106.7780860
  75.4156620 112.1909320 110.5556980  74.7072770 112.6595660 110.9970590
  75.7001100 111.5331330 111.1902170  73.6191640 110.4994400 107.9307690
  74.4682170 110.9364550 107.8647880  73.2522910 110.8114660 108.7579750
  72.5183060 116.7526760 106.4043220  73.2846330 116.6408120 106.9668650
  72.5957750 116.0564730 105.7519990  71.2129820 114.1851830 107.0876110
  71.2933410 113.2379340 107.1993510  72.1049570 114.5158710 107.1936770
  68.8990010 120.4020790 110.0652160  67.9729790 120.6441930 110.0557570
  69.3646440 121.2295050 109.9436910  71.0202810 123.5193290 123.3796230
  71.8215540 123.8405340 123.7931630  70.5054630 123.1588870 124.1016140
  75.1246840 123.5077530 106.0136220  75.9175450 123.7966360 105.5618010
  74.6051190 123.0769700 105.3348700  81.2867810 123.3553450 121.9381050
  82.2389560 123.2711470 121.8881290  81.1396030 124.0195160 122.6114840
  84.1777010 122.7347660 107.4372960  83.8918520 122.3212800 106.6227140
  83.9796560 123.6635370 107.3173480  75.6424240 118.7280940 105.8778570
  75.5374880 118.1133290 106.6039950  75.4748460 118.2046830 105.0941580
  78.8826970 117.7900970 106.4820560  78.3337070 118.2370270 107.1263300
  79.5046230 117.2850220 107.0058230  82.9361910 119.1443070 122.4142820
  83.6771380 119.4818830 121.9110280  82.1734590 119.3135130 121.8612590
  74.5502090 116.7491890 108.3785860  74.9718510 116.5831760 109.2217250
  74.6752930 115.9392120 107.8841000  77.0629730 115.7729500 105.6262960
  77.5835390 115.0578520 105.2604110  77.7098130 116.4115370 105.9263470
  81.6107570 117.1957900 120.9498030  82.0248590 117.3502980 121.7988450
  80.6758570 117.3213120 121.1123810  81.0474600 115.4331750 118.8794310
  80.5209820 115.9574370 118.2759450  81.3905940 116.0659140 119.5104040
  73.4460990 112.8225120 105.3244020  73.2450050 111.9592480 105.6857360
  73.2753040 112.7358480 104.3865620  74.2230220 123.4531390 120.0351690
  73.6851310 124.1777450 119.7160390  74.4764180 122.9761730 119.2449030
  80.9249300 107.6333350 107.8530900  81.2051590 106.7901250 108.2090320
  80.1515030 107.8656460 108.3669650  72.2443790 109.9225740 105.3121900
  72.5469690 109.9293170 104.4041050  72.9838380 109.5723600 105.8089560
  77.0792430 124.6882600 120.2938340  77.0051130 125.5917740 120.6010710
  76.1771270 124.3694500 120.2660410  75.4628720 108.8660360 106.2978100
  75.1150720 108.1884350 105.7180550  75.6641490 108.4049870 107.1121490
  77.6277760 123.8541110 107.9164700  78.5228550 124.1926080 107.9383460
  77.6595390 123.1320520 107.2888980  71.2673920 119.2268160 106.1451700
  71.7048790 119.7697830 106.8009280  71.7521650 118.4015110 106.1548040
  68.9709930 122.8827780 116.3353590  68.5340920 123.0628580 117.1677740
  69.5387610 123.6402400 116.1935310  84.6072110 122.3844780 120.6230900
  84.0074100 122.4437340 119.8794820  84.7366010 121.4449760 120.7527750
  85.8473560 120.1262600 105.9600610  85.0166520 120.1939250 106.4307840
  86.0245390 121.0166720 105.6567470  68.8034360 115.3948010 112.6942470
  68.1483200 115.1259650 112.0502170  69.6412310 115.2852490 112.2444450
  83.2923750 119.1096760 118.7207060  82.4783590 119.5393920 118.9832850
  83.6997950 119.7215170 118.1076110  85.3549190 117.1644450 105.6207330
  85.6298030 118.0723330 105.4926550  85.1659930 117.1006980 106.5569320
  81.7524800 110.1889300 106.9160960  82.1709680 110.0020280 106.0757620
  81.4460860 109.3368350 107.2263890  84.6414150 114.2484960 120.2476280
  84.4100240 114.0197710 119.3474230  84.9018700 115.1684510 120.2021170
  68.0172440 112.6046940 108.6367800  67.1136520 112.8677140 108.4619460
  68.5013060 112.8758110 107.8567760  70.5599650 111.6612480 106.5462180
  71.2691350 111.2395700 106.0609460  69.8439590 111.7287710 105.9145530
  84.0165460 112.5844280 109.8536410  84.5124580 112.3515150 110.6385290
  83.8181530 111.7456120 109.4374050  69.8966000 106.9658000 115.4887450
  70.5442190 106.4155380 115.0482610  70.3167840 107.2201150 116.3103260
  85.4452620 111.2205230 112.3874090  85.3351900 111.0661270 113.3256360
  86.2060210 110.6926170 112.1449500  71.2562370 120.2933270 122.3965960
  71.2132000 119.9226180 123.2780420  71.3873380 121.2310840 122.5367780
  74.9568400 121.8492860 117.9975680  74.7159760 122.1167420 117.1106200
  75.8971040 122.0198590 118.0526540  86.2172560 123.8687240 118.7986320
  85.7230840 124.2656110 118.0813450  85.6085850 123.2436450 119.1923600
  70.3218640 106.6489870 121.5063540  70.8701630 106.4677920 120.7429650
  70.3873950 105.8583980 122.0419850  71.0950400 123.2395520 119.5163740
  70.5010720 123.1080220 120.2553780  71.0874240 122.4033660 119.0505840
  70.7262630 120.6053900 118.4671780  69.9996690 119.9859190 118.3997730
  70.7871780 120.9994510 117.5969860  84.7039880 107.7835930 112.7144590
  84.6428280 106.8397150 112.5675610  85.4831910 107.8916020 113.2598050
  69.6320650 107.7545070 109.1800400  70.3900010 107.8673950 108.6064430
  69.1697820 108.5914270 109.1343830  80.6759440 106.5326790 113.4085780
  81.2788810 107.1047000 113.8834300  79.9352430 107.0966230 113.1859680
  72.0045800 108.2809120 107.7202370  72.5338560 107.4938920 107.5910320
  72.6374120 108.9600310 107.9537900  74.1983640 108.0184260 110.7747760
  73.5686380 107.3171570 110.9417890  73.6588780 108.7788390 110.5580920
  77.1375590 124.6323490 123.4458370  78.0642900 124.3967760 123.4894330
  77.1226020 125.4595490 122.9644400  85.3720650 124.1749060 110.4432620
  85.5472840 123.4886800 109.7993540  84.6742220 124.6996110 110.0509290
  73.2148300 124.5643900 107.9967930  73.9467120 124.2803180 107.4491820
  73.4741970 124.3257180 108.8867310  83.7053150 123.8593350 123.2699410
  84.4978470 123.3642580 123.0625370  83.9986300 124.5383490 123.8775020
  71.9796680 116.8213120  96.9100490  71.1481560 116.5661830  97.3097000
  72.5877660 116.8923890  97.6458410  71.9597940 120.8553210  97.1058510
  72.2625980 119.9650950  96.9268730  72.7041530 121.4123430  96.8780760
  73.9396700 117.6126620  98.5043360  73.6066080 118.2395540  99.1464430
  74.1163380 118.1388500  97.7245030  73.1515800 119.5807420 100.3192540
  73.7689800 120.2558500 100.0376990  72.2908920 119.9895400 100.2280040
  68.4448140 118.7707280  89.1999390  68.0676120 119.2594380  88.4684290
  68.7021210 119.4432560  89.8305920  84.0693390 121.0446830  98.2347180
  83.3856910 121.7145940  98.2263850  84.6087680 121.2427480  97.4692040
  81.0037570 117.7920800  98.2774970  81.4206360 117.5780910  97.4428430
  81.7277390 118.0493590  98.8483590  84.9499670 116.1908020  98.3691210
  84.1218300 116.2601110  97.8941340  85.5450150 116.7762330  97.9007040
  74.5156170 119.4504800  96.3403960  74.2184460 118.8450270  95.6611740
  75.4655990 119.4882110  96.2293320  73.6074600 119.1886490 102.9911760
  72.7103130 119.4126460 103.2385160  73.6327470 119.3121430 102.0423160
  72.4345820 116.0599810 101.5669130  72.2953590 116.9322610 101.9356530
  71.5527180 115.7172620 101.4217070  74.2326170 122.0021510 103.7754280
  74.2041600 122.4064460 102.9082710  74.0691140 121.0731870 103.6125880
  69.6312100 119.5297550  93.8946220  69.2240180 119.6712140  93.0399820
  70.5225110 119.2457710  93.6917430  85.5874240 119.9761460 102.2318460
  85.7137300 119.7373340 101.3135640  85.6295620 119.1446000 102.7040540
  73.9033760 123.7443330  92.0068890  73.7276240 122.8278870  91.7936690
  73.0489500 124.1030620  92.2466690  85.4398250 112.0293920 103.1968200
  84.8242520 112.5373590 102.6683660  85.1194670 111.1292250 103.1394140
  68.4423990 118.8711530 100.0234500  68.6055030 118.4016890  99.2053870
  68.9076440 118.3635090 100.6883340  79.5966790 113.5896510 103.8925840
  79.9220200 112.7560260 103.5528070  80.3847120 114.1125030 104.0404170
  75.4456190 114.0236440 103.4536590  75.3499790 113.0831170 103.3036990
  76.2888170 114.2451510 103.0584660  77.1511780 110.5185080 104.6767110
  76.4610100 110.3257280 105.3113200  77.8944080 110.8019720 105.2091410
  70.0162970 118.2462960 102.1830310  69.6317760 117.6056630 102.7813270
  70.3275160 118.9499080 102.7525040  72.4841270 118.3409130  90.5789990
  71.7103530 117.8006750  90.4188710  73.2135900 117.8215740  90.2407750
  78.6248050 117.4083550 102.2585380  78.5585360 116.4879220 102.0042970
  77.9953190 117.5058990 102.9730020  72.5278670 118.0089510  94.2168800
  73.0457340 117.2057770  94.1625690  72.0762690 117.9468650  95.0585630
  70.0123210 114.9750880 101.1294500  69.6538150 115.6404730 101.7167840
  69.7177770 114.1434430 101.5007120  73.2136330 115.4335120 104.0134050
  72.9136470 115.5792300 103.1161870  73.9847570 114.8740410 103.9207440
  84.7675990 116.8711460 101.3557760  84.0424180 117.4640240 101.1587150
  85.2951450 116.8635000 100.5571130  84.7189100 121.2686200  91.0069920
  84.0765260 120.6141820  91.2813640  84.3319760 121.6741290  90.2310590
  68.5231260 114.9742140  87.7529100  69.3926110 115.2566940  88.0365020
  68.0321580 115.7878010  87.6377910  79.2630760 119.8754040  97.8207130
  79.9052990 119.1747200  97.9339300  79.7880110 120.6552480  97.6404020
  68.8744370 122.4524380 102.7933130  68.9835490 121.5119120 102.6528520
  68.2224930 122.7179130 102.1446860  76.8656960 120.7240270 104.1931250
  76.5453830 120.0049510 104.7376940  76.1915320 121.3995340 104.2667310
  74.9071130 121.5700720  89.1364400  74.8981230 122.3030410  88.5208910
  73.9869490 121.3232300  89.2291360  70.5077770 116.7915610  89.8811160
  69.9005720 117.5314510  89.8906460  70.9827120 116.8814970  89.0549360
  76.5348840 124.1515280  92.4937260  76.7890340 124.1136670  91.5716630
  75.5861320 124.0248610  92.4865510  72.5183060 116.7526760  87.6299730
  73.2846330 116.6408120  88.1925160  72.5957750 116.0564730  86.9776500
  84.5427000 122.2416010  95.7450030  84.6674420 123.0647180  96.2173840
  85.4092560 122.0306740  95.3974180  72.0144530 124.3347220  95.4167160
  72.7507010 123.7862680  95.6875730  72.3985450 125.2003230  95.2773150
  68.8990010 120.4020790  91.2908670  67.9729790 120.6441930  91.2814080
  69.3646440 121.2295050  91.1693420  71.0202810 123.5193290 104.6052740
  71.8215540 123.8405340 105.0188140  70.5054630 123.1588870 105.3272650
  75.1246840 123.5077530  87.2392730  75.9175450 123.7966360  86.7874520
  74.6051190 123.0769700  86.5605210  79.8567440 119.6273160 104.5528150
  79.2505600 119.6504760 103.8123900  79.5521550 118.8956200 105.0895400
  68.7400620 116.0066750 103.5488790  69.2439640 115.4274030 104.1205020
  68.0008040 116.2906980 104.0865160  75.6424240 118.7280940  87.1035080
  75.5374880 118.1133290  87.8296460  75.4748460 118.2046830  86.3198090
  75.7938560 117.4137740 103.0824310  75.0284230 117.9822740 102.9978980
  75.9754520 117.1213950 102.1892540  82.9361910 119.1443070 103.6399330
  83.6771380 119.4818830 103.1366790  82.1734590 119.3135130 103.0869100
  70.7723700 114.1496340 104.4438860  70.8129040 113.8510210 105.3524090
  71.6269200 114.5503950 104.2846380  74.5502090 116.7491890  89.6042370
  74.9718510 116.5831760  90.4473760  74.6752930 115.9392120  89.1097510
  81.6107570 117.1957900 102.1754540  82.0248590 117.3502980 103.0244960
  80.6758570 117.3213120 102.3380320  82.0829740 114.5354060 104.1793690
  82.6650510 113.7806380 104.0914170  82.2591510 115.0661500 103.4025170
  76.3722800 117.1478380 100.1450470  76.7910910 117.9911110  99.9726710
  75.4531430 117.2850420  99.9157250  78.7086700 114.8794560 101.5288310
  78.8282910 114.2835700 102.2683150  79.5680700 114.9164250 101.1089610
  81.0474600 115.4331750 100.1050820  80.5209820 115.9574370  99.5015960
  81.3905940 116.0659140 100.7360550  74.2230220 123.4531390 101.2608200
  73.6851310 124.1777450 100.9416900  74.4764180 122.9761730 100.4705540
  80.2948900 111.0381720 103.0197150  79.6064420 110.3763260 102.9547140
  81.0154920 110.5919990 103.4645610  77.6277760 123.8541110  89.1421210
  78.5228550 124.1926080  89.1639970  77.6595390 123.1320520  88.5145490
  71.2673920 119.2268160  87.3708210  71.7048790 119.7697830  88.0265790
  71.7521650 118.4015110  87.3804550  68.4819720 122.0157190  94.8228470
  68.8122730 121.1478250  94.5907110  68.9110720 122.2215710  95.6533430
  73.0781640 120.3466200  92.4830440  72.7777180 120.2231170  93.3834350
  72.9719130 119.4874790  92.0746170  68.9709930 122.8827780  97.5610100
  68.5340920 123.0628580  98.3934250  69.5387610 123.6402400  97.4191820
  84.6072110 122.3844780 101.8487410  84.0074100 122.4437340 101.1051330
  84.7366010 121.4449760 101.9784260  83.2923750 119.1096760  99.9463570
  82.4783590 119.5393920 100.2089360  83.6997950 119.7215170  99.3332620
  69.3926290 112.6909670 102.3660740  68.4982340 112.6576430 102.7054450
  69.9323840 112.8896460 103.1311990  83.0802220 109.4741390 104.2512490
  83.9572400 109.4824790 104.6346490  83.0923060 108.7372230 103.6404840
  83.3499800 123.8615360  93.4731840  83.9458870 123.5399930  92.7966260
  83.6077950 123.3887180  94.2645110  71.2562370 120.2933270 103.6222470
  71.2132000 119.9226180 104.5036930  71.3873380 121.2310840 103.7624290
  74.9568400 121.8492860  99.2232190  74.7159760 122.1167420  98.3362710
  75.8971040 122.0198590  99.2783050  86.2172560 123.8687240 100.0242830
  85.7230840 124.2656110  99.3069960  85.6085850 123.2436450 100.4180110
  71.0950400 123.2395520 100.7420250  70.5010720 123.1080220 101.4810290
  71.0874240 122.4033660 100.2762350  83.9012010 124.5110660  97.3029570
  83.4414980 125.2626470  96.9287590  83.2724470 123.7917130  97.2444370
  70.7262630 120.6053900  99.6928290  69.9996690 119.9859190  99.6254240
  70.7871780 120.9994510  98.8226370  74.3307730 122.8198900  96.4777700
  74.8472750 122.2086260  95.9525960  74.9805110 123.3227680  96.9688710
  69.0092630 123.9228290  92.9025050  68.8414670 123.2898970  93.6006940
  68.1427140 124.1287690  92.5519240  70.6155330 122.6161520  90.3475190
  70.0902950 122.9969550  89.6437150  70.5399910 123.2412290  91.0684900
  85.3720650 124.1749060  91.6689130  85.5472840 123.4886800  91.0250050
  84.6742220 124.6996110  91.2765800  74.3239200 107.2968240 104.4356760
  74.0423470 107.8001840 103.6717580  74.7058900 106.4989990 104.0698890
  73.2148300 124.5643900  89.2224440  73.9467120 124.2803180  88.6748330
  73.4741970 124.3257180  90.1123820  72.3763090 120.6808630  89.2270770
  71.7471970 121.1493730  89.7756600  72.4910920 119.8357850  89.6616960
  80.9254660 106.7121820 105.0137230  80.8120110 107.0316430 105.9088750
  81.7424400 107.1134330 104.7174510  83.7053150 123.8593350 104.4955920
  84.4978470 123.3642580 104.2881880  83.9986300 124.5383490 105.1031530
  77.9630850 116.5093310  77.2581240  77.1872950 116.0293750  77.5479810
  78.6143780 115.8298960  77.0837400  71.9796680 116.8213120  78.1357000
  71.1481560 116.5661830  78.5353510  72.5877660 116.8923890  78.8714920
  70.3888630 111.7815010  71.9199390  69.5005330 112.1230980  71.8179270
  70.6729820 111.5815330  71.0280220  68.3521640 114.3820660  77.8039090
  68.9237750 113.6142860  77.8042730  68.3523180 114.6809420  76.8945700
  77.4039840 119.1850500  77.2651400  77.3348120 118.2440440  77.1040530
  78.1659700 119.2751910  77.8373970  69.5946510 109.7905020  79.5908020
  69.4149350 108.8930770  79.8710780  69.1926590 110.3376890  80.2654970
  72.5650020 110.3646510  72.9537770  72.6716770 111.2650240  73.2606530
  71.6542380 110.3164480  72.6632420  70.2133180 112.2865520  78.1990360
  70.8943290 112.5503890  78.8177760  69.8981230 111.4466390  78.5328370
  73.9396700 117.6126620  79.7299870  73.6066080 118.2395540  80.3720940
  74.1163380 118.1388500  78.9501540  73.1515800 119.5807420  81.5449050
  73.7689800 120.2558500  81.2633500  72.2908920 119.9895400  81.4536550
  68.4448140 118.7707280  70.4255900  68.0676120 119.2594380  69.6940800
  68.7021210 119.4432560  71.0562430  81.0037570 117.7920800  79.5031480
  81.4206360 117.5780910  78.6684940  81.7277390 118.0493590  80.0740100
  74.0474470 115.7637240  75.4021260  73.6431470 115.0514490  74.9067160
  74.1337590 115.4190480  76.2909300  74.5156170 119.4504800  77.5660470
  74.2184460 118.8450270  76.8868250  75.4655990 119.4882110  77.4549830
  73.6074600 119.1886490  84.2168270  72.7103130 119.4126460  84.4641670
  73.6327470 119.3121430  83.2679670  72.4345820 116.0599810  82.7925640
  72.2953590 116.9322610  83.1613040  71.5527180 115.7172620  82.6473580
  74.2326170 122.0021510  85.0010790  74.2041600 122.4064460  84.1339220
  74.0691140 121.0731870  84.8382390  68.3864470 117.8297360  78.7096550
  68.4644890 117.9646130  77.7652270  69.0006150 117.1213250  78.9024670
  68.4423990 118.8711530  81.2491010  68.6055030 118.4016890  80.4310380
  68.9076440 118.3635090  81.9139850  73.0056980 113.1250860  74.0132830
  72.7797900 112.9088030  74.9179450  72.2249510 113.5579320  73.6678800
  67.8783780 108.3578570  76.8656960  67.5896830 108.9281430  77.5781940
  68.6229540 107.8783020  77.2288190  71.7154520 110.9164210  76.1024240
  71.3754570 111.3939440  76.8591290  70.9531840 110.4629330  75.7425340
  70.0162970 118.2462960  83.4086820  69.6317760 117.6056630  84.0069780
  70.3275160 118.9499080  83.9781550  76.1660110 115.0939500  78.8895440
  76.5330240 114.6198070  79.6356780  75.9765170 115.9681070  79.2303780
  69.0300600 109.8383190  75.0188910  68.7447520 109.4738860  75.8567530
  68.9679460 109.1063650  74.4052050  72.4841270 118.3409130  71.8046500
  71.7103530 117.8006750  71.6445220  73.2135900 117.8215740  71.4664260
  78.6248050 117.4083550  83.4841890  78.5585360 116.4879220  83.2299480
  77.9953190 117.5058990  84.1986530  70.0123210 114.9750880  82.3551010
  69.6538150 115.6404730  82.9424350  69.7177770 114.1434430  82.7263630
  73.2136330 115.4335120  85.2390560  72.9136470 115.5792300  84.3418380
  73.9847570 114.8740410  85.1463950  78.5564780 120.2304120  83.2345690
  78.5709320 119.2985080  83.0164600  77.8489880 120.3163880  83.8735460
  83.6901850 114.4143940  69.5044300  83.6065570 114.8458160  68.6540740
  84.4096040 114.8742290  69.9371120  76.3838860 119.3569320  73.4868530
  77.0709990 119.9038530  73.8676120  75.5971280 119.9010050  73.5218140
  79.2630760 119.8754040  79.0463640  79.9052990 119.1747200  79.1595810
  79.7880110 120.6552480  78.8660530  68.8902510 124.1869520  69.5447240
  69.2500150 124.7858860  68.8904510  68.7494850 124.7329410  70.3182270
  68.8744370 122.4524380  84.0189640  68.9835490 121.5119120  83.8785030
  68.2224930 122.7179130  83.3703370  76.8656960 120.7240270  85.4187760
  76.5453830 120.0049510  85.9633450  76.1915320 121.3995340  85.4923820
  74.9071130 121.5700720  70.3620910  74.8981230 122.3030410  69.7465420
  73.9869490 121.3232300  70.4547870  70.5077770 116.7915610  71.1067670
  69.9005720 117.5314510  71.1162970  70.9827120 116.8814970  70.2805870
  76.5348840 124.1515280  73.7193770  76.7890340 124.1136670  72.7973140
  75.5861320 124.0248610  73.7122020  73.6191640 110.4994400  70.3820710
  74.4682170 110.9364550  70.3160900  73.2522910 110.8114660  71.2092770
  72.5183060 116.7526760  68.8556240  73.2846330 116.6408120  69.4181670
  72.5957750 116.0564730  68.2033010  71.2129820 114.1851830  69.5389130
  71.2933410 113.2379340  69.6506530  72.1049570 114.5158710  69.6449790
  71.0202810 123.5193290  85.8309250  71.8215540 123.8405340  86.2444650
  70.5054630 123.1588870  86.5529160  75.1246840 123.5077530  68.4649240
  75.9175450 123.7966360  68.0131030  74.6051190 123.0769700  67.7861720
  68.7400620 116.0066750  84.7745300  69.2439640 115.4274030  85.3461530
  68.0008040 116.2906980  85.3121670  75.6424240 118.7280940  68.3291590
  75.5374880 118.1133290  69.0552970  75.4748460 118.2046830  67.5454600
  75.7938560 117.4137740  84.3080820  75.0284230 117.9822740  84.2235490
  75.9754520 117.1213950  83.4149050  78.8826970 117.7900970  68.9333580
  78.3337070 118.2370270  69.5776320  79.5046230 117.2850220  69.4571250
  70.7723700 114.1496340  85.6695370  70.8129040 113.8510210  86.5780600
  71.6269200 114.5503950  85.5102890  81.6107570 117.1957900  83.4011050
  82.0248590 117.3502980  84.2501470  80.6758570 117.3213120  83.5636830
  76.3722800 117.1478380  81.3706980  76.7910910 117.9911110  81.1983220
  75.4531430 117.2850420  81.1413760  78.7086700 114.8794560  82.7544820
  78.8282910 114.2835700  83.4939660  79.5680700 114.9164250  82.3346120
  73.4460990 112.8225120  67.7757040  73.2450050 111.9592480  68.1370380
  73.2753040 112.7358480  66.8378640  72.2443790 109.9225740  67.7634920
  72.5469690 109.9293170  66.8554070  72.9838380 109.5723600  68.2602580
  75.4628720 108.8660360  68.7491120  75.1150720 108.1884350  68.1693570
  75.6641490 108.4049870  69.5634510  71.2673920 119.2268160  68.5964720
  71.7048790 119.7697830  69.2522300  71.7521650 118.4015110  68.6061060
  85.8473560 120.1262600  68.4113630  85.0166520 120.1939250  68.8820860
  86.0245390 121.0166720  68.1080490  85.3030020 116.8710080  70.9147830
  86.0648930 117.4406730  71.0207520  85.3184390 116.3037280  71.6856140
  85.3549190 117.1644450  68.0720350  85.6298030 118.0723330  67.9439570
  85.1659930 117.1006980  69.0082340  69.8410290 115.7800580  79.6858830
  70.2083330 115.6927980  80.5654850  69.2721110 115.0167130  79.5865690
  69.3926290 112.6909670  83.5917250  68.4982340 112.6576430  83.9310960
  69.9323840 112.8896460  84.3568500  70.5599650 111.6612480  68.9975200
  71.2691350 111.2395700  68.5122480  69.8439590 111.7287710  68.3658550
  70.2073810 107.7151810  68.0377850  70.9301940 108.2560750  68.3559070
  70.4798330 107.4415230  67.1619390  69.6498000 107.1213670  80.6825790
  69.3012820 107.5777490  81.4483970  69.3185700 106.2270800  80.7648220
  71.2562370 120.2933270  84.8478980  71.2132000 119.9226180  85.7293440
  71.3873380 121.2310840  84.9880800  71.0950400 123.2395520  81.9676760
  70.5010720 123.1080220  82.7066800  71.0874240 122.4033660  81.5018860
  70.7262630 120.6053900  80.9184800  69.9996690 119.9859190  80.8510750
  70.7871780 120.9994510  80.0482880  69.6320650 107.7545070  71.6313420
  70.3900010 107.8673950  71.0577450  69.1697820 108.5914270  71.5856850
  72.0045800 108.2809120  70.1715390  72.5338560 107.4938920  70.0423340
  72.6374120 108.9600310  70.4050920  73.2148300 124.5643900  70.4480950
  73.9467120 124.2803180  69.9004840  73.4741970 124.3257180  71.3380330
  72.3763090 120.6808630  70.4527280  71.7471970 121.1493730  71.0013110
  72.4910920 119.8357850  70.8873470  71.9796680 116.8213120  59.3613510
  71.1481560 116.5661830  59.7610020  72.5877660 116.8923890  60.0971430
  71.9597940 120.8553210  59.5571530  72.2625980 119.9650950  59.3781750
  72.7041530 121.4123430  59.3293780  68.3521640 114.3820660  59.0295600
  68.9237750 113.6142860  59.0299240  68.3523180 114.6809420  58.1202210
  78.2101590 123.2011510  56.8840870  77.5913030 123.6569010  56.3135310
  79.0653370 123.3562970  56.4830570  77.4039840 119.1850500  58.4907910
  77.3348120 118.2440440  58.3297040  78.1659700 119.2751910  59.0630480
  82.2169130 109.4871320  55.6505180  83.0378750 108.9967890  55.6930660
  82.2503210 110.0768980  56.4037020  70.2133180 112.2865520  59.4246870
  70.8943290 112.5503890  60.0434270  69.8981230 111.4466390  59.7584880
  86.5068680 111.5038070  62.2148810  85.8020850 111.8919780  61.6963920
  86.7726600 112.1988360  62.8169740  73.9396700 117.6126620  60.9556380
  73.6066080 118.2395540  61.5977450  74.1163380 118.1388500  60.1758050
  73.1515800 119.5807420  62.7705560  73.7689800 120.2558500  62.4890010
  72.2908920 119.9895400  62.6793060  76.0537070 107.1723670  57.1097920
  76.3612050 106.6170560  56.3933420  75.1237770 107.3068130  56.9270910
  81.0037570 117.7920800  60.7287990  81.4206360 117.5780910  59.8941450
  81.7277390 118.0493590  61.2996610  78.4286910 111.5089500  50.8425200
  77.4890580 111.6703460  50.9277660  78.7470170 112.2275180  50.2961190
  84.9499670 116.1908020  60.8204230  84.1218300 116.2601110  60.3454360
  85.5450150 116.7762330  60.3520060  74.5156170 119.4504800  58.7916980
  74.2184460 118.8450270  58.1124760  75.4655990 119.4882110  58.6806340
  72.7603090 112.5380450  60.4076810  73.3117680 112.6475790  59.6330060
  73.2746600 112.9118050  61.1232040  73.6074600 119.1886490  65.4424780
  72.7103130 119.4126460  65.6898180  73.6327470 119.3121430  64.4936180
  72.4345820 116.0599810  64.0182150  72.2953590 116.9322610  64.3869550
  71.5527180 115.7172620  63.8730090  74.2326170 122.0021510  66.2267300
  74.2041600 122.4064460  65.3595730  74.0691140 121.0731870  66.0638900
  84.2296960 107.2922420  49.6707080  83.9169620 107.3849250  50.5706150
  84.9909430 107.8703450  49.6204510  70.7479100 114.6582220  54.1284420
  70.6276700 115.3844310  53.5165690  70.4379990 113.8885130  53.6512330
  68.3864470 117.8297360  59.9353060  68.4644890 117.9646130  58.9908780
  69.0006150 117.1213250  60.1281180  69.6312100 119.5297550  56.3459240
  69.2240180 119.6712140  55.4912840  70.5225110 119.2457710  56.1430450
  79.4490980 123.6789460  63.2526290  79.9635650 123.5897470  64.0548720
  78.6060060 124.0249160  63.5454200  81.4245380 123.9644800  52.6810290
  81.2646520 123.6747740  53.5792120  81.2592090 123.1884930  52.1455520
  73.9033760 123.7443330  54.4581910  73.7276240 122.8278870  54.2449710
  73.0489500 124.1030620  54.6979710  81.1271510 121.4732360  51.2408290
  80.4336670 121.4709650  50.5810570  81.8694370 121.0491680  50.8102460
  85.4398250 112.0293920  65.6481220  84.8242520 112.5373590  65.1196680
  85.1194670 111.1292250  65.5907160  68.4423990 118.8711530  62.4747520
  68.6055030 118.4016890  61.6566890  68.9076440 118.3635090  63.1396360
  82.5017080 112.0894760  64.2440070  81.6510670 111.7900510  64.5649140
  82.3418870 112.3336770  63.3323890  79.5966790 113.5896510  66.3438860
  79.9220200 112.7560260  66.0041090  80.3847120 114.1125030  66.4917190
  76.3301580 107.6227990  52.3913920  75.7055760 107.6187860  53.1167230
  76.2431700 106.7558950  51.9949890  75.4456190 114.0236440  65.9049610
  75.3499790 113.0831170  65.7550010  76.2888170 114.2451510  65.5097680
  77.1511780 110.5185080  67.1280130  76.4610100 110.3257280  67.7626220
  77.8944080 110.8019720  67.6604430  67.8783780 108.3578570  58.0913470
  67.5896830 108.9281430  58.8038450  68.6229540 107.8783020  58.4544700
  83.3171410 107.2249380  65.2143370  83.6417180 106.4939040  65.7401350
  83.3527920 106.9063020  64.3124360  70.0162970 118.2462960  64.6343330
  69.6317760 117.6056630  65.2326290  70.3275160 118.9499080  65.2038060
  69.0300600 109.8383190  56.2445420  68.7447520 109.4738860  57.0824040
  68.9679460 109.1063650  55.6308560  73.9559480 114.1348140  62.4336160
  73.6516550 115.0140120  62.6586520  74.9105940 114.1947930  62.4693600
  72.4841270 118.3409130  53.0303010  71.7103530 117.8006750  52.8701730
  73.2135900 117.8215740  52.6920770  78.7039190 108.7312450  52.9658790
  77.8903800 108.2325620  52.8904100  78.5101140 109.5710700  52.5495140
  78.6248050 117.4083550  64.7098400  78.5585360 116.4879220  64.4555990
  77.9953190 117.5058990  65.4243040  72.5278670 118.0089510  56.6681820
  73.0457340 117.2057770  56.6138710  72.0762690 117.9468650  57.5098650
  77.4148170 119.2755790  51.9409120  77.7563870 120.0198020  51.4452440
  76.5860880 119.5886910  52.3033950  70.0123210 114.9750880  63.5807520
  69.6538150 115.6404730  64.1680860  69.7177770 114.1434430  63.9520140
  73.2136330 115.4335120  66.4647070  72.9136470 115.5792300  65.5674890
  73.9847570 114.8740410  66.3720460  78.5564780 120.2304120  64.4602200
  78.5709320 119.2985080  64.2421110  77.8489880 120.3163880  65.0991970
  84.7675990 116.8711460  63.8070780  84.0424180 117.4640240  63.6100170
  85.2951450 116.8635000  63.0084150  76.3838860 119.3569320  54.7125040
  77.0709990 119.9038530  55.0932630  75.5971280 119.9010050  54.7474650
  77.9898680 121.8721690  61.5542700  78.6340900 122.0781070  62.2316120
  78.3528120 121.1110090  61.1013550  79.2630760 119.8754040  60.2720150
  79.9052990 119.1747200  60.3852320  79.7880110 120.6552480  60.0917040
  81.0368380 120.6748940  63.4756210  81.3724620 121.2615630  64.1534130
  80.1168720 120.5441650  63.7054000  68.8902510 124.1869520  50.7703750
  69.2500150 124.7858860  50.1161020  68.7494850 124.7329410  51.5438780
  68.8744370 122.4524380  65.2446150  68.9835490 121.5119120  65.1041540
  68.2224930 122.7179130  64.5959880  76.8656960 120.7240270  66.6444270
  76.5453830 120.0049510  67.1889960  76.1915320 121.3995340  66.7180330
  74.9071130 121.5700720  51.5877420  74.8981230 122.3030410  50.9721930
  73.9869490 121.3232300  51.6804380  70.5077770 116.7915610  52.3324180
  69.9005720 117.5314510  52.3419480  70.9827120 116.8814970  51.5062380
  77.8930730 121.6328960  50.2502610  77.9942710 121.4292950  49.3204590
  76.9932470 121.3787240  50.4550390  76.5348840 124.1515280  54.9450280
  76.7890340 124.1136670  54.0229650  75.5861320 124.0248610  54.9378530
  84.2479410 109.8273980  63.0747430  83.7453010 110.5679380  63.4141240
  85.0636070 110.2157980  62.7584220  72.0144530 124.3347220  57.8680180
  72.7507010 123.7862680  58.1388750  72.3985450 125.2003230  57.7286170
  71.0202810 123.5193290  67.0565760  71.8215540 123.8405340  67.4701160
  70.5054630 123.1588870  67.7785670  75.1246840 123.5077530  49.6905750
  75.9175450 123.7966360  49.2387540  74.6051190 123.0769700  49.0118230
  79.8567440 119.6273160  67.0041170  79.2505600 119.6504760  66.2636920
  79.5521550 118.8956200  67.5408420  81.2867810 123.3553450  65.6150580
  82.2389560 123.2711470  65.5650820  81.1396030 124.0195160  66.2884370
  68.7400620 116.0066750  66.0001810  69.2439640 115.4274030  66.5718040
  68.0008040 116.2906980  66.5378180  75.6424240 118.7280940  49.5548100
  75.5374880 118.1133290  50.2809480  75.4748460 118.2046830  48.7711110
  75.7938560 117.4137740  65.5337330  75.0284230 117.9822740  65.4492000
  75.9754520 117.1213950  64.6405560  78.8826970 117.7900970  50.1590090
  78.3337070 118.2370270  50.8032830  79.5046230 117.2850220  50.6827760
  82.9361910 119.1443070  66.0912350  83.6771380 119.4818830  65.5879810
  82.1734590 119.3135130  65.5382120  70.7723700 114.1496340  66.8951880
  70.8129040 113.8510210  67.8037110  71.6269200 114.5503950  66.7359400
  72.7129510 112.7288440  64.8626370  72.1825970 112.2379390  64.2349710
  73.3817580 113.1572640  64.3284300  77.0629730 115.7729500  49.3032490
  77.5835390 115.0578520  48.9373640  77.7098130 116.4115370  49.6033000
  81.6107570 117.1957900  64.6267560  82.0248590 117.3502980  65.4757980
  80.6758570 117.3213120  64.7893340  82.0829740 114.5354060  66.6306710
  82.6650510 113.7806380  66.5427190  82.2591510 115.0661500  65.8538190
  76.3722800 117.1478380  62.5963490  76.7910910 117.9911110  62.4239730
  75.4531430 117.2850420  62.3670270  74.2230220 123.4531390  63.7121220
  73.6851310 124.1777450  63.3929920  74.4764180 122.9761730  62.9218560
  75.4755470 111.4215910  65.2377150  76.0655160 111.1131760  65.9254970
  74.6575710 110.9495660  65.3937050  80.2948900 111.0381720  65.4710170
  79.6064420 110.3763260  65.4060160  81.0154920 110.5919990  65.9158630
  80.9249300 107.6333350  51.5300430  81.2051590 106.7901250  51.8859850
  80.1515030 107.8656460  52.0439180  77.0792430 124.6882600  63.9707870
  77.0051130 125.5917740  64.2780240  76.1771270 124.3694500  63.9429940
  77.6277760 123.8541110  51.5934230  78.5228550 124.1926080  51.6152990
  77.6595390 123.1320520  50.9658510  71.2673920 119.2268160  49.8221230
  71.7048790 119.7697830  50.4778810  71.7521650 118.4015110  49.8317570
  68.4819720 122.0157190  57.2741490  68.8122730 121.1478250  57.0420130
  68.9110720 122.2215710  58.1046450  73.0781640 120.3466200  54.9343460
  72.7777180 120.2231170  55.8347370  72.9719130 119.4874790  54.5259190
  68.9709930 122.8827780  60.0123120  68.5340920 123.0628580  60.8447270
  69.5387610 123.6402400  59.8704840  85.8473560 120.1262600  49.6370140
  85.0166520 120.1939250  50.1077370  86.0245390 121.0166720  49.3337000
  68.8034360 115.3948010  56.3712000  68.1483200 115.1259650  55.7271700
  69.6412310 115.2852490  55.9213980  83.2923750 119.1096760  62.3976590
  82.4783590 119.5393920  62.6602380  83.6997950 119.7215170  61.7845640
  69.8410290 115.7800580  60.9115340  70.2083330 115.6927980  61.7911360
  69.2721110 115.0167130  60.8122200  84.6414150 114.2484960  63.9245810
  84.4100240 114.0197710  63.0243760  84.9018700 115.1684510  63.8790700
  69.3926290 112.6909670  64.8173760  68.4982340 112.6576430  65.1567470
  69.9323840 112.8896460  65.5825010  83.0802220 109.4741390  66.7025510
  83.9572400 109.4824790  67.0859510  83.0923060 108.7372230  66.0917860
  83.7918340 107.1599360  62.5226620  84.4290560 107.7733500  62.8885810
  83.9393230 107.1960020  61.5775850  71.2562370 120.2933270  66.0735490
  71.2132000 119.9226180  66.9549950  71.3873380 121.2310840  66.2137310
  74.9568400 121.8492860  61.6745210  74.7159760 122.1167420  60.7875730
  75.8971040 122.0198590  61.7296070  77.1622820 108.3125550  65.4301720
  77.1011710 108.9047380  66.1797130  78.1023200 108.2051510  65.2851980
  79.7997380 107.9695610  65.0694010  80.4137790 108.2874900  64.4075090
  80.3446940 107.4844200  65.6889870  71.0950400 123.2395520  63.1933270
  70.5010720 123.1080220  63.9323310  71.0874240 122.4033660  62.7275370
  80.5405420 106.5327750  61.3963300  79.6665260 106.8662860  61.1936230
  80.4316170 106.0600930  62.2215170  70.7262630 120.6053900  62.1441310
  69.9996690 119.9859190  62.0767260  70.7871780 120.9994510  61.2739390
  74.3307730 122.8198900  58.9290720  74.8472750 122.2086260  58.4038980
  74.9805110 123.3227680  59.4201730  77.0703230 123.7107390  59.7559700
  77.3581040 123.4561690  58.8792710  77.5826450 123.1584750  60.3465270
  84.7039880 107.7835930  56.3914120  84.6428280 106.8397150  56.2445140
  85.4831910 107.8916020  56.9367580  69.0092630 123.9228290  55.3538070
  68.8414670 123.2898970  56.0519960  68.1427140 124.1287690  55.0032260
  80.6759440 106.5326790  57.0855310  81.2788810 107.1047000  57.5603830
  79.9352430 107.0966230  56.8629210  83.8194040 106.9348350  52.3595590
  84.0144670 107.8331800  52.6263020  83.0323910 106.7035430  52.8528540
  70.6155330 122.6161520  52.7988210  70.0902950 122.9969550  52.0950170
  70.5399910 123.2412290  53.5197920  77.1375590 124.6323490  67.1227900
  78.0642900 124.3967760  67.1663860  77.1226020 125.4595490  66.6413930
  85.3720650 124.1749060  54.1202150  85.5472840 123.4886800  53.4763070
  84.6742220 124.6996110  53.7278820  73.2148300 124.5643900  51.6737460
  73.9467120 124.2803180  51.1261350  73.4741970 124.3257180  52.5636840
  72.3763090 120.6808630  51.6783790  71.7471970 121.1493730  52.2269620
  72.4910920 119.8357850  52.1129980  79.8312810 114.7314290  37.8284990
  79.7506860 113.8168900  37.5576700  79.4177230 115.2281360  37.1224700
  71.9796680 116.8213120  40.5870020  71.1481560 116.5661830  40.9866530
  72.5877660 116.8923890  41.3227940  71.9597940 120.8553210  40.7828040
  72.2625980 119.9650950  40.6038260  72.7041530 121.4123430  40.5550290
  70.3888630 111.7815010  34.3712410  69.5005330 112.1230980  34.2692290
  70.6729820 111.5815330  33.4793240  68.3521640 114.3820660  40.2552110
  68.9237750 113.6142860  40.2555750  68.3523180 114.6809420  39.3458720
  69.5946510 109.7905020  42.0421040  69.4149350 108.8930770  42.3223800
  69.1926590 110.3376890  42.7167990  72.5650020 110.3646510  35.4050790
  72.6716770 111.2650240  35.7119550  71.6542380 110.3164480  35.1145440
  82.2169130 109.4871320  36.8761690  83.0378750 108.9967890  36.9187170
  82.2503210 110.0768980  37.6293530  70.2133180 112.2865520  40.6503380
  70.8943290 112.5503890  41.2690780  69.8981230 111.4466390  40.9841390
  86.5068680 111.5038070  43.4405320  85.8020850 111.8919780  42.9220430
  86.7726600 112.1988360  44.0426250  72.6893850 107.9731440  44.0039390
  72.6912290 108.4903830  43.1985290  71.8598160 107.4961620  43.9809320
  73.9396700 117.6126620  42.1812890  73.6066080 118.2395540  42.8233960
  74.1163380 118.1388500  41.4014560  82.4530610 111.4271700  39.6489230
  81.7486180 111.7156590  40.2292340  82.8142770 112.2371810  39.2888790
  72.3709180 109.6841400  42.0109840  72.7125990 110.5283450  41.7163710
  71.4324990 109.8325140  42.1275180  73.1515800 119.5807420  43.9962070
  73.7689800 120.2558500  43.7146520  72.2908920 119.9895400  43.9049570
  68.4448140 118.7707280  32.8768920  68.0676120 119.2594380  32.1453820
  68.7021210 119.4432560  33.5075450  84.0693390 121.0446830  41.9116710
  83.3856910 121.7145940  41.9033380  84.6087680 121.2427480  41.1461570
  85.5217530 110.8726490  40.0398440  84.5742440 110.9065470  40.1713870
  85.8467520 111.6865440  40.4247800  81.0037570 117.7920800  41.9544500
  81.4206360 117.5780910  41.1197960  81.7277390 118.0493590  42.5253120
  84.9499670 116.1908020  42.0460740  84.1218300 116.2601110  41.5710870
  85.5450150 116.7762330  41.5776570  82.4715120 116.7992800  35.5749800
  81.8527540 116.4612350  34.9276100  82.4539570 116.1552560  36.2828990
  81.9141680 112.9777340  42.9915610  81.5012860 113.8031050  43.2455600
  81.1817630 112.3922380  42.7991970  74.5156170 119.4504800  40.0173490
  74.2184460 118.8450270  39.3381270  75.4655990 119.4882110  39.9062850
  82.6041780 123.0236670  43.6796590  82.1272340 123.8308860  43.4869200
  81.9203570 122.3715000  43.8322800  74.2326170 122.0021510  47.4523810
  74.2041600 122.4064460  46.5852240  74.0691140 121.0731870  47.2895410
  84.2296960 107.2922420  30.8963590  83.9169620 107.3849250  31.7962660
  84.9909430 107.8703450  30.8461020  86.1840990 122.7848610  48.7487980
  86.6600710 123.2631500  49.4277060  86.8048150 122.7166100  48.0233480
  68.3864470 117.8297360  41.1609570  68.4644890 117.9646130  40.2165290
  69.0006150 117.1213250  41.3537690  69.6312100 119.5297550  37.5715750
  69.2240180 119.6712140  36.7169350  70.5225110 119.2457710  37.3686960
  85.5874240 119.9761460  45.9087990  85.7137300 119.7373340  44.9905170
  85.6295620 119.1446000  46.3810070  79.4490980 123.6789460  44.4782800
  79.9635650 123.5897470  45.2805230  78.6060060 124.0249160  44.7710710
  81.4245380 123.9644800  33.9066800  81.2646520 123.6747740  34.8048630
  81.2592090 123.1884930  33.3712030  73.9033760 123.7443330  35.6838420
  73.7276240 122.8278870  35.4706220  73.0489500 124.1030620  35.9236220
  81.1271510 121.4732360  32.4664800  80.4336670 121.4709650  31.8067080
  81.8694370 121.0491680  32.0358970  85.4398250 112.0293920  46.8737730
  84.8242520 112.5373590  46.3453190  85.1194670 111.1292250  46.8163670
  68.4423990 118.8711530  43.7004030  68.6055030 118.4016890  42.8823400
  68.9076440 118.3635090  44.3652870  73.2142760 108.0017290  38.7364600
  72.7710910 108.7826830  38.4049120  73.7727750 108.3247180  39.4435540
  82.5017080 112.0894760  45.4696580  81.6510670 111.7900510  45.7905650
  82.3418870 112.3336770  44.5580400  79.5966790 113.5896510  47.5695370
  79.9220200 112.7560260  47.2297600  80.3847120 114.1125030  47.7173700
  76.3301580 107.6227990  33.6170430  75.7055760 107.6187860  34.3423740
  76.2431700 106.7558950  33.2206400  77.1511780 110.5185080  48.3536640
  76.4610100 110.3257280  48.9882730  77.8944080 110.8019720  48.8860940
  67.8783780 108.3578570  39.3169980  67.5896830 108.9281430  40.0294960
  68.6229540 107.8783020  39.6801210  68.0654010 112.2998690  30.5272700
  67.9828680 113.2429450  30.6687690  67.7137070 112.1573600  29.6485050
  83.3171410 107.2249380  46.4399880  83.6417180 106.4939040  46.9657860
  83.3527920 106.9063020  45.5380870  69.0300600 109.8383190  37.4701930
  68.7447520 109.4738860  38.3080550  68.9679460 109.1063650  36.8565070
  83.2429250 117.3374490  40.0485910  83.9628370 117.8329780  39.6582020
  83.0411070 116.6592380  39.4039780  78.7039190 108.7312450  34.1915300
  77.8903800 108.2325620  34.1160610  78.5101140 109.5710700  33.7751650
  78.6248050 117.4083550  45.9354910  78.5585360 116.4879220  45.6812500
  77.9953190 117.5058990  46.6499550  72.5278670 118.0089510  37.8938330
  73.0457340 117.2057770  37.8395220  72.0762690 117.9468650  38.7355160
  78.5564780 120.2304120  45.6858710  78.5709320 119.2985080  45.4677620
  77.8489880 120.3163880  46.3248480  83.6901850 114.4143940  31.9557320
  83.6065570 114.8458160  31.1053760  84.4096040 114.8742290  32.3884140
  84.7675990 116.8711460  45.0327290  84.0424180 117.4640240  44.8356680
  85.2951450 116.8635000  44.2340660  71.5877850 106.7053000  36.0229430
  71.4592480 106.6970900  36.9714350  70.7639870 107.0436090  35.6720440
  83.1086480 120.1602660  31.2215800  82.8824060 119.4433100  31.8140440
  82.7182680 119.9115100  30.3837550  81.0368380 120.6748940  44.7012720
  81.3724620 121.2615630  45.3790640  80.1168720 120.5441650  44.9310510
  68.8902510 124.1869520  31.9960260  69.2500150 124.7858860  31.3417530
  68.7494850 124.7329410  32.7695290  68.5871780 108.4644120  45.4836130
  67.8730300 108.6641040  46.0888740  69.0066820 107.6883690  45.8550930
  82.6902730 118.0774600  32.8829960  82.4024430 118.5387290  33.6707840
  83.4854900 117.6172370  33.1514180  68.8744370 122.4524380  46.4702660
  68.9835490 121.5119120  46.3298050  68.2224930 122.7179130  45.8216390
  76.8656960 120.7240270  47.8700780  76.5453830 120.0049510  48.4146470
  76.1915320 121.3995340  47.9436840  74.9071130 121.5700720  32.8133930
  74.8981230 122.3030410  32.1978440  73.9869490 121.3232300  32.9060890
  83.4472590 109.9123370  34.0425140  82.8185750 110.0169040  33.3283370
  82.9524510 110.1320150  34.8319020  77.8930730 121.6328960  31.4759120
  77.9942710 121.4292950  30.5461100  76.9932470 121.3787240  31.6806900
  79.4472050 108.9159980  36.8978810  79.3239830 108.9346110  35.9488320
  80.3956610 108.9638920  37.0177210  84.2479410 109.8273980  44.3003940
  83.7453010 110.5679380  44.6397750  85.0636070 110.2157980  43.9840730
  82.5401420 115.0707160  37.7465300  81.5991560 115.0857390  37.9212990
  82.8545490 114.2843120  38.1925600  72.0144530 124.3347220  39.0936690
  72.7507010 123.7862680  39.3645260  72.3985450 125.2003230  38.9542680
  68.8990010 120.4020790  34.9678200  67.9729790 120.6441930  34.9583610
  69.3646440 121.2295050  34.8462950  71.0202810 123.5193290  48.2822270
  71.8215540 123.8405340  48.6957670  70.5054630 123.1588870  49.0042180
  75.1246840 123.5077530  30.9162260  75.9175450 123.7966360  30.4644050
  74.6051190 123.0769700  30.2374740  79.8567440 119.6273160  48.2297680
  79.2505600 119.6504760  47.4893430  79.5521550 118.8956200  48.7664930
  81.2867810 123.3553450  46.8407090  82.2389560 123.2711470  46.7907330
  81.1396030 124.0195160  47.5140880  84.1777010 122.7347660  32.3399000
  83.8918520 122.3212800  31.5253180  83.9796560 123.6635370  32.2199520
  82.9361910 119.1443070  47.3168860  83.6771380 119.4818830  46.8136320
  82.1734590 119.3135130  46.7638630  81.6107570 117.1957900  45.8524070
  82.0248590 117.3502980  46.7014490  80.6758570 117.3213120  46.0149850
  75.9663250 108.2524050  43.2007560  75.5180550 108.2748310  42.3553110
  75.3328450 107.8543070  43.7977860  78.7086700 114.8794560  45.2057840
  78.8282910 114.2835700  45.9452680  79.5680700 114.9164250  44.7859140
  81.0474600 115.4331750  43.7820350  80.5209820 115.9574370  43.1785490
  81.3905940 116.0659140  44.4130080  74.2230220 123.4531390  44.9377730
  73.6851310 124.1777450  44.6186430  74.4764180 122.9761730  44.1475070
  75.4755470 111.4215910  46.4633660  76.0655160 111.1131760  47.1511480
  74.6575710 110.9495660  46.6193560  80.2948900 111.0381720  46.6966680
  79.6064420 110.3763260  46.6316670  81.0154920 110.5919990  47.1415140
  80.9249300 107.6333350  32.7556940  81.2051590 106.7901250  33.1116360
  80.1515030 107.8656460  33.2695690  77.0792430 124.6882600  45.1964380
  77.0051130 125.5917740  45.5036750  76.1771270 124.3694500  45.1686450
  77.6277760 123.8541110  32.8190740  78.5228550 124.1926080  32.8409500
  77.6595390 123.1320520  32.1915020  68.4819720 122.0157190  38.4998000
  68.8122730 121.1478250  38.2676640  68.9110720 122.2215710  39.3302960
  73.0781640 120.3466200  36.1599970  72.7777180 120.2231170  37.0603880
  72.9719130 119.4874790  35.7515700  68.9709930 122.8827780  41.2379630
  68.5340920 123.0628580  42.0703780  69.5387610 123.6402400  41.0961350
  84.6072110 122.3844780  45.5256940  84.0074100 122.4437340  44.7820860
  84.7366010 121.4449760  45.6553790  85.8473560 120.1262600  30.8626650
  85.0166520 120.1939250  31.3333880  86.0245390 121.0166720  30.5593510
  68.8034360 115.3948010  37.5968510  68.1483200 115.1259650  36.9528210
  69.6412310 115.2852490  37.1470490  83.2923750 119.1096760  43.6233100
  82.4783590 119.5393920  43.8858890  83.6997950 119.7215170  43.0102150
  85.3549190 117.1644450  30.5233370  85.6298030 118.0723330  30.3952590
  85.1659930 117.1006980  31.4595360  81.7524800 110.1889300  31.8187000
  82.1709680 110.0020280  30.9783660  81.4460860 109.3368350  32.1289930
  84.6414150 114.2484960  45.1502320  84.4100240 114.0197710  44.2500270
  84.9018700 115.1684510  45.1047210  83.0802220 109.4741390  47.9282020
  83.9572400 109.4824790  48.3116020  83.0923060 108.7372230  47.3174370
  68.0172440 112.6046940  33.5393840  67.1136520 112.8677140  33.3645500
  68.5013060 112.8758110  32.7593800  84.5265490 113.3270930  38.8170040
  85.0502970 112.8333580  38.1860210  85.1124910 113.4621290  39.5617610
  84.7055210 113.4110800  42.3389590  83.7557920 113.3774340  42.4534580
  84.8868220 114.3210910  42.1039360  84.0165460 112.5844280  34.7562450
  84.5124580 112.3515150  35.5411330  83.8181530 111.7456120  34.3400090
  69.8966000 106.9658000  40.3913490  70.5442190 106.4155380  39.9508650
  70.3167840 107.2201150  41.2129300  85.4452620 111.2205230  37.2900130
  85.3351900 111.0661270  38.2282400  86.2060210 110.6926170  37.0475540
  83.7918340 107.1599360  43.7483130  84.4290560 107.7733500  44.1142320
  83.9393230 107.1960020  42.8032360  86.3342890 109.0513150  30.5306270
  87.2592200 108.9194330  30.3224560  86.3118680 109.1305970  31.4842720
  86.4081380 109.8223810  33.1562980  85.6132880 109.7568930  33.6855890
  86.6124660 110.7574450  33.1448330  69.6498000 107.1213670  43.1338810
  69.3012820 107.5777490  43.8996990  69.3185700 106.2270800  43.2161240
  71.2562370 120.2933270  47.2992000  71.2132000 119.9226180  48.1806460
  71.3873380 121.2310840  47.4393820  74.9568400 121.8492860  42.9001720
  74.7159760 122.1167420  42.0132240  75.8971040 122.0198590  42.9552580
  77.1622820 108.3125550  46.6558230  77.1011710 108.9047380  47.4053640
  78.1023200 108.2051510  46.5108490  79.7997380 107.9695610  46.2950520
  80.4137790 108.2874900  45.6331600  80.3446940 107.4844200  46.9146380
  70.3218640 106.6489870  46.4089580  70.8701630 106.4677920  45.6455690
  70.3873950 105.8583980  46.9445890  71.0950400 123.2395520  44.4189780
  70.5010720 123.1080220  45.1579820  71.0874240 122.4033660  43.9531880
  80.5405420 106.5327750  42.6219810  79.6665260 106.8662860  42.4192740
  80.4316170 106.0600930  43.4471680  81.4477400 108.7398620  44.0061530
  81.1190760 107.9250380  43.6263260  82.3959700 108.6968430  43.8827220
  83.9012010 124.5110660  40.9799100  83.4414980 125.2626470  40.6057120
  83.2724470 123.7917130  40.9213900  70.7262630 120.6053900  43.3697820
  69.9996690 119.9859190  43.3023770  70.7871780 120.9994510  42.4995900
  78.2880240 107.4497590  41.5612720  77.5052030 107.9243090  41.8409480
  77.9943170 106.5452420  41.4525900  82.8401310 108.1520690  39.6061810
  83.2809400 108.0965790  38.7583410  82.5708900 109.0678700  39.6771990
  84.7039880 107.7835930  37.6170630  84.6428280 106.8397150  37.4701650
  85.4831910 107.8916020  38.1624090  69.0092630 123.9228290  36.5794580
  68.8414670 123.2898970  37.2776470  68.1427140 124.1287690  36.2288770
  80.6759440 106.5326790  38.3111820  81.2788810 107.1047000  38.7860340
  79.9352430 107.0966230  38.0885720  83.8194040 106.9348350  33.5852100
  84.0144670 107.8331800  33.8519530  83.0323910 106.7035430  34.0785050
  70.6155330 122.6161520  34.0244720  70.0902950 122.9969550  33.3206680
  70.5399910 123.2412290  34.7454430  74.1983640 108.0184260  35.6773800
  73.5686380 107.3171570  35.8443930  73.6588780 108.7788390  35.4606960
  77.1375590 124.6323490  48.3484410  78.0642900 124.3967760  48.3920370
  77.1226020 125.4595490  47.8670440  73.2148300 124.5643900  32.8993970
  73.9467120 124.2803180  32.3517860  73.4741970 124.3257180  33.7893350
  72.3763090 120.6808630  32.9040300  71.7471970 121.1493730  33.4526130
  72.4910920 119.8357850  33.3386490  80.9254660 106.7121820  48.6906760
  80.8120110 107.0316430  49.5858280  81.7424400 107.1134330  48.3944040
  83.7053150 123.8593350  48.1725450  84.4978470 123.3642580  47.9651410
  83.9986300 124.5383490  48.7801060  79.8312810 114.7314290  19.0541500
  79.7506860 113.8168900  18.7833210  79.4177230 115.2281360  18.3481210
  77.9630850 116.5093310  20.9350770  77.1872950 116.0293750  21.2249340
  78.6143780 115.8298960  20.7606930  71.9796680 116.8213120  21.8126530
  71.1481560 116.5661830  22.2123040  72.5877660 116.8923890  22.5484450
  81.9838280 120.9153500  19.7149900  81.5219810 120.1440740  20.0437070
  82.7963830 120.9419570  20.2202350  71.9597940 120.8553210  22.0084550
  72.2625980 119.9650950  21.8294770  72.7041530 121.4123430  21.7806800
  70.3888630 111.7815010  15.5968920  69.5005330 112.1230980  15.4948800
  70.6729820 111.5815330  14.7049750  68.3521640 114.3820660  21.4808620
  68.9237750 113.6142860  21.4812260  68.3523180 114.6809420  20.5715230
  78.2101590 123.2011510  19.3353890  77.5913030 123.6569010  18.7648330
  79.0653370 123.3562970  18.9343590  77.4039840 119.1850500  20.9420930
  77.3348120 118.2440440  20.7810060  78.1659700 119.2751910  21.5143500
  72.5650020 110.3646510  16.6307300  72.6716770 111.2650240  16.9376060
  71.6542380 110.3164480  16.3401950  82.2169130 109.4871320  18.1018200
  83.0378750 108.9967890  18.1443680  82.2503210 110.0768980  18.8550040
  70.2133180 112.2865520  21.8759890  70.8943290 112.5503890  22.4947290
  69.8981230 111.4466390  22.2097900  86.5068680 111.5038070  24.6661830
  85.8020850 111.8919780  24.1476940  86.7726600 112.1988360  25.2682760
  79.0764940 118.0850750  16.7285800  78.4582210 118.5500200  16.1648520
  79.5888190 118.7778230  17.1455310  73.9396700 117.6126620  23.4069400
  73.6066080 118.2395540  24.0490470  74.1163380 118.1388500  22.6271070
  82.4530610 111.4271700  20.8745740  81.7486180 111.7156590  21.4548850
  82.8142770 112.2371810  20.5145300  73.1515800 119.5807420  25.2218580
  73.7689800 120.2558500  24.9403030  72.2908920 119.9895400  25.1306080
  68.4448140 118.7707280  14.1025430  68.0676120 119.2594380  13.3710330
  68.7021210 119.4432560  14.7331960  84.0693390 121.0446830  23.1373220
  83.3856910 121.7145940  23.1289890  84.6087680 121.2427480  22.3718080
  85.5217530 110.8726490  21.2654950  84.5742440 110.9065470  21.3970380
  85.8467520 111.6865440  21.6504310  81.6052130 122.8890960  21.8518400
  81.6179290 122.4853250  20.9840660  81.0527350 123.6638250  21.7479830
  82.8997550 119.6107180  16.9408570  82.7893880 118.6681510  17.0657990
  82.8965800 119.9722820  17.8271330  81.0037570 117.7920800  23.1801010
  81.4206360 117.5780910  22.3454470  81.7277390 118.0493590  23.7509630
  78.4417830 115.2372500  16.2971060  77.5147110 115.1709880  16.5259530
  78.5942650 116.1752630  16.1826300  78.4286910 111.5089500  13.2938220
  77.4890580 111.6703460  13.3790680  78.7470170 112.2275180  12.7474210
  84.9499670 116.1908020  23.2717250  84.1218300 116.2601110  22.7967380
  85.5450150 116.7762330  22.8033080  82.4715120 116.7992800  16.8006310
  81.8527540 116.4612350  16.1532610  82.4539570 116.1552560  17.5085500
  81.9141680 112.9777340  24.2172120  81.5012860 113.8031050  24.4712110
  81.1817630 112.3922380  24.0248480  74.0474470 115.7637240  19.0790790
  73.6431470 115.0514490  18.5836690  74.1337590 115.4190480  19.9678830
  74.5156170 119.4504800  21.2430000  74.2184460 118.8450270  20.5637780
  75.4655990 119.4882110  21.1319360  82.6041780 123.0236670  24.9053100
  82.1272340 123.8308860  24.7125710  81.9203570 122.3715000  25.0579310
  73.6074600 119.1886490  27.8937800  72.7103130 119.4126460  28.1411200
  73.6327470 119.3121430  26.9449200  80.6479820 116.0379610  13.8079060
  81.0873100 115.2002040  13.6616880  81.3608240 116.6709010  13.8943200
  78.7575200 120.9775680  17.7760300  79.1971110 121.7200010  17.3615690
  78.6962090 121.2202250  18.6999260  74.2326170 122.0021510  28.6780320
  74.2041600 122.4064460  27.8108750  74.0691140 121.0731870  28.5151920
  84.2296960 107.2922420  12.1220100  83.9169620 107.3849250  13.0219170
  84.9909430 107.8703450  12.0717530  70.7479100 114.6582220  16.5797440
  70.6276700 115.3844310  15.9678710  70.4379990 113.8885130  16.1025350
  86.1840990 122.7848610  29.9744490  86.6600710 123.2631500  30.6533570
  86.8048150 122.7166100  29.2489990  68.3864470 117.8297360  22.3866080
  68.4644890 117.9646130  21.4421800  69.0006150 117.1213250  22.5794200
  69.6312100 119.5297550  18.7972260  69.2240180 119.6712140  17.9425860
  70.5225110 119.2457710  18.5943470  85.5874240 119.9761460  27.1344500
  85.7137300 119.7373340  26.2161680  85.6295620 119.1446000  27.6066580
  79.4490980 123.6789460  25.7039310  79.9635650 123.5897470  26.5061740
  78.6060060 124.0249160  25.9967220  81.4245380 123.9644800  15.1323310
  81.2646520 123.6747740  16.0305140  81.2592090 123.1884930  14.5968540
  73.9033760 123.7443330  16.9094930  73.7276240 122.8278870  16.6962730
  73.0489500 124.1030620  17.1492730  81.1271510 121.4732360  13.6921310
  80.4336670 121.4709650  13.0323590  81.8694370 121.0491680  13.2615480
  80.6921440 123.0995070  17.7669800  81.1478390 122.3184450  18.0808420
  81.0313960 123.8101890  18.3110980  85.4398250 112.0293920  28.0994240
  84.8242520 112.5373590  27.5709700  85.1194670 111.1292250  28.0420180
  68.4423990 118.8711530  24.9260540  68.6055030 118.4016890  24.1079910
  68.9076440 118.3635090  25.5909380  82.5017080 112.0894760  26.6953090
  81.6510670 111.7900510  27.0162160  82.3418870 112.3336770  25.7836910
  76.3301580 107.6227990  14.8426940  75.7055760 107.6187860  15.5680250
  76.2431700 106.7558950  14.4462910  73.0056980 113.1250860  17.6902360
  72.7797900 112.9088030  18.5948980  72.2249510 113.5579320  17.3448330
  80.2354740 113.1314230  16.2893010  79.6363630 113.8550030  16.1056630
  80.7834350 113.0691010  15.5069460  78.8419610 111.7677770  18.3196290
  79.2349180 112.0849970  17.5064980  79.2036460 110.8889650  18.4340810
  70.5766730 110.4350110  26.5096410  70.1830120 111.2825320  26.7169190
  69.8885130 109.7976480  26.7005050  67.8783780 108.3578570  20.5426490
  67.5896830 108.9281430  21.2551470  68.6229540 107.8783020  20.9057720
  68.0654010 112.2998690  11.7529210  67.9828680 113.2429450  11.8944200
  67.7137070 112.1573600  10.8741560  79.4274750 114.3583520  22.4147070
  78.6955870 114.8670330  22.7637170  79.0299090 113.5413500  22.1135850
  75.9272290 112.0349800  13.8106320  76.0485110 111.9936280  14.7592140
  75.5420800 112.8973950  13.6553050  74.9393790 114.3450940  13.2089620
  74.3710690 113.8969190  12.5825530  75.6482790 114.7043720  12.6754770
  70.0162970 118.2462960  27.0856350  69.6317760 117.6056630  27.6839310
  70.3275160 118.9499080  27.6551080  76.1660110 115.0939500  22.5664970
  76.5330240 114.6198070  23.3126310  75.9765170 115.9681070  22.9073310
  69.0300600 109.8383190  18.6958440  68.7447520 109.4738860  19.5337060
  68.9679460 109.1063650  18.0821580  73.9559480 114.1348140  24.8849180
  73.6516550 115.0140120  25.1099540  74.9105940 114.1947930  24.9206620
  72.4841270 118.3409130  15.4816030  71.7103530 117.8006750  15.3214750
  73.2135900 117.8215740  15.1433790  83.2429250 117.3374490  21.2742420
  83.9628370 117.8329780  20.8838530  83.0411070 116.6592380  20.6296290
  78.7039190 108.7312450  15.4171810  77.8903800 108.2325620  15.3417120
  78.5101140 109.5710700  15.0008160  81.4187580 113.1032100  13.7133970
  82.3067200 113.4149330  13.5385310  81.3892670 112.2304350  13.3214550
  72.5278670 118.0089510  19.1194840  73.0457340 117.2057770  19.0651730
  72.0762690 117.9468650  19.9611670  77.4148170 119.2755790  14.3922140
  77.7563870 120.0198020  13.8965460  76.5860880 119.5886910  14.7546970
  70.0123210 114.9750880  26.0320540  69.6538150 115.6404730  26.6193880
  69.7177770 114.1434430  26.4033160  78.5564780 120.2304120  26.9115220
  78.5709320 119.2985080  26.6934130  77.8489880 120.3163880  27.5504990
  83.6901850 114.4143940  13.1813830  83.6065570 114.8458160  12.3310270
  84.4096040 114.8742290  13.6140650  84.7675990 116.8711460  26.2583800
  84.0424180 117.4640240  26.0613190  85.2951450 116.8635000  25.4597170
  84.7189100 121.2686200  15.9095960  84.0765260 120.6141820  16.1839680
  84.3319760 121.6741290  15.1336630  80.2975580 118.5971630  19.7567650
  80.6499400 117.9999760  19.0969020  79.4137910 118.2715860  19.9275900
  76.3838860 119.3569320  17.1638060  77.0709990 119.9038530  17.5445650
  75.5971280 119.9010050  17.1987670  68.5231260 114.9742140  12.6555140
  69.3926110 115.2566940  12.9391060  68.0321580 115.7878010  12.5403950
  75.6866070 116.3615350  16.7763420  76.1428850 117.1720600  17.0023610
  75.3354280 116.0438490  17.6081910  77.9898680 121.8721690  24.0055720
  78.6340900 122.0781070  24.6829140  78.3528120 121.1110090  23.5526570
  71.5877850 106.7053000  17.2485940  71.4592480 106.6970900  18.1970860
  70.7639870 107.0436090  16.8976950  79.2630760 119.8754040  22.7233170
  79.9052990 119.1747200  22.8365340  79.7880110 120.6552480  22.5430060
  83.1086480 120.1602660  12.4472310  82.8824060 119.4433100  13.0396950
  82.7182680 119.9115100  11.6094060  81.0368380 120.6748940  25.9269230
  81.3724620 121.2615630  26.6047150  80.1168720 120.5441650  26.1567020
  68.8902510 124.1869520  13.2216770  69.2500150 124.7858860  12.5674040
  68.7494850 124.7329410  13.9951800  82.6902730 118.0774600  14.1086470
  82.4024430 118.5387290  14.8964350  83.4854900 117.6172370  14.3770690
  68.8744370 122.4524380  27.6959170  68.9835490 121.5119120  27.5554560
  68.2224930 122.7179130  27.0472900  74.9071130 121.5700720  14.0390440
  74.8981230 122.3030410  13.4234950  73.9869490 121.3232300  14.1317400
  70.5077770 116.7915610  14.7837200  69.9005720 117.5314510  14.7932500
  70.9827120 116.8814970  13.9575400  80.0810560 110.9566430  24.4594090
  80.4491380 110.1361640  24.7873660  79.2208760 111.0168320  24.8749740
  83.4472590 109.9123370  15.2681650  82.8185750 110.0169040  14.5539880
  82.9524510 110.1320150  16.0575530  77.8930730 121.6328960  12.7015630
  77.9942710 121.4292950  11.7717610  76.9932470 121.3787240  12.9063410
  75.4156620 112.1909320  16.6839530  74.7072770 112.6595660  17.1253140
  75.7001100 111.5331330  17.3184720  79.4472050 108.9159980  18.1235320
  79.3239830 108.9346110  17.1744830  80.3956610 108.9638920  18.2433720
  76.5348840 124.1515280  17.3963300  76.7890340 124.1136670  16.4742670
  75.5861320 124.0248610  17.3891550  73.6191640 110.4994400  14.0590240
  74.4682170 110.9364550  13.9930430  73.2522910 110.8114660  14.8862300
  84.2479410 109.8273980  25.5260450  83.7453010 110.5679380  25.8654260
  85.0636070 110.2157980  25.2097240  82.5401420 115.0707160  18.9721810
  81.5991560 115.0857390  19.1469500  82.8545490 114.2843120  19.4182110
  72.5183060 116.7526760  12.5325770  73.2846330 116.6408120  13.0951200
  72.5957750 116.0564730  11.8802540  71.2129820 114.1851830  13.2158660
  71.2933410 113.2379340  13.3276060  72.1049570 114.5158710  13.3219320
  84.5427000 122.2416010  20.6476070  84.6674420 123.0647180  21.1199880
  85.4092560 122.0306740  20.3000220  72.0144530 124.3347220  20.3193200
  72.7507010 123.7862680  20.5901770  72.3985450 125.2003230  20.1799190
  68.8990010 120.4020790  16.1934710  67.9729790 120.6441930  16.1840120
  69.3646440 121.2295050  16.0719460  71.0202810 123.5193290  29.5078780
  71.8215540 123.8405340  29.9214180  70.5054630 123.1588870  30.2298690
  75.1246840 123.5077530  12.1418770  75.9175450 123.7966360  11.6900560
  74.6051190 123.0769700  11.4631250  81.2867810 123.3553450  28.0663600
  82.2389560 123.2711470  28.0163840  81.1396030 124.0195160  28.7397390
  84.1777010 122.7347660  13.5655510  83.8918520 122.3212800  12.7509690
  83.9796560 123.6635370  13.4456030  75.6424240 118.7280940  12.0061120
  75.5374880 118.1133290  12.7322500  75.4748460 118.2046830  11.2224130
  78.8826970 117.7900970  12.6103110  78.3337070 118.2370270  13.2545850
  79.5046230 117.2850220  13.1340780  82.9361910 119.1443070  28.5425370
  83.6771380 119.4818830  28.0392830  82.1734590 119.3135130  27.9895140
  74.5502090 116.7491890  14.5068410  74.9718510 116.5831760  15.3499800
  74.6752930 115.9392120  14.0123550  77.0629730 115.7729500  11.7545510
  77.5835390 115.0578520  11.3886660  77.7098130 116.4115370  12.0546020
  81.6107570 117.1957900  27.0780580  82.0248590 117.3502980  27.9271000
  80.6758570 117.3213120  27.2406360  76.3722800 117.1478380  25.0476510
  76.7910910 117.9911110  24.8752750  75.4531430 117.2850420  24.8183290
  81.0474600 115.4331750  25.0076860  80.5209820 115.9574370  24.4042000
  81.3905940 116.0659140  25.6386590  73.4460990 112.8225120  11.4526570
  73.2450050 111.9592480  11.8139910  73.2753040 112.7358480  10.5148170
  74.2230220 123.4531390  26.1634240  73.6851310 124.1777450  25.8442940
  74.4764180 122.9761730  25.3731580  80.9249300 107.6333350  13.9813450
  81.2051590 106.7901250  14.3372870  80.1515030 107.8656460  14.4952200
  72.2443790 109.9225740  11.4404450  72.5469690 109.9293170  10.5323600
  72.9838380 109.5723600  11.9372110  77.0792430 124.6882600  26.4220890
  77.0051130 125.5917740  26.7293260  76.1771270 124.3694500  26.3942960
  75.4628720 108.8660360  12.4260650  75.1150720 108.1884350  11.8463100
  75.6641490 108.4049870  13.2404040  77.6277760 123.8541110  14.0447250
  78.5228550 124.1926080  14.0666010  77.6595390 123.1320520  13.4171530
  71.2673920 119.2268160  12.2734250  71.7048790 119.7697830  12.9291830
  71.7521650 118.4015110  12.2830590  68.4819720 122.0157190  19.7254510
  68.8122730 121.1478250  19.4933150  68.9110720 122.2215710  20.5559470
  73.0781640 120.3466200  17.3856480  72.7777180 120.2231170  18.2860390
  72.9719130 119.4874790  16.9772210  68.9709930 122.8827780  22.4636140
  68.5340920 123.0628580  23.2960290  69.5387610 123.6402400  22.3217860
  84.6072110 122.3844780  26.7513450  84.0074100 122.4437340  26.0077370
  84.7366010 121.4449760  26.8810300  85.8473560 120.1262600  12.0883160
  85.0166520 120.1939250  12.5590390  86.0245390 121.0166720  11.7850020
  85.3030020 116.8710080  14.5917360  86.0648930 117.4406730  14.6977050
  85.3184390 116.3037280  15.3625670  68.8034360 115.3948010  18.8225020
  68.1483200 115.1259650  18.1784720  69.6412310 115.2852490  18.3727000
  86.3089990 117.7260180  19.4359290  86.6798820 116.9427500  19.0295260
  86.9491920 118.4149280  19.2576590  83.2923750 119.1096760  24.8489610
  82.4783590 119.5393920  25.1115400  83.6997950 119.7215170  24.2358660
  85.3549190 117.1644450  11.7489880  85.6298030 118.0723330  11.6209100
  85.1659930 117.1006980  12.6851870  81.7524800 110.1889300  13.0443510
  82.1709680 110.0020280  12.2040170  81.4460860 109.3368350  13.3546440
  85.2514530 115.1013440  16.7419310  84.8758130 114.3341370  16.3100600
  84.5217650 115.4836140  17.2294240  69.8410290 115.7800580  23.3628360
  70.2083330 115.6927980  24.2424380  69.2721110 115.0167130  23.2635220
  84.6414150 114.2484960  26.3758830  84.4100240 114.0197710  25.4756780
  84.9018700 115.1684510  26.3303720  69.3926290 112.6909670  27.2686780
  68.4982340 112.6576430  27.6080490  69.9323840 112.8896460  28.0338030
  83.0802220 109.4741390  29.1538530  83.9572400 109.4824790  29.5372530
  83.0923060 108.7372230  28.5430880  68.0172440 112.6046940  14.7650350
  67.1136520 112.8677140  14.5902010  68.5013060 112.8758110  13.9850310
  84.5265490 113.3270930  20.0426550  85.0502970 112.8333580  19.4116720
  85.1124910 113.4621290  20.7874120  84.7055210 113.4110800  23.5646100
  83.7557920 113.3774340  23.6791090  84.8868220 114.3210910  23.3295870
  70.5599650 111.6612480  12.6744730  71.2691350 111.2395700  12.1892010
  69.8439590 111.7287710  12.0428080  70.2073810 107.7151810  11.7147380
  70.9301940 108.2560750  12.0328600  70.4798330 107.4415230  10.8388920
  84.0165460 112.5844280  15.9818960  84.5124580 112.3515150  16.7667840
  83.8181530 111.7456120  15.5656600  69.8966000 106.9658000  21.6170000
  70.5442190 106.4155380  21.1765160  70.3167840 107.2201150  22.4385810
  85.4452620 111.2205230  18.5156640  85.3351900 111.0661270  19.4538910
  86.2060210 110.6926170  18.2732050  83.7918340 107.1599360  24.9739640
  84.4290560 107.7733500  25.3398830  83.9393230 107.1960020  24.0288870
  86.3342890 109.0513150  11.7562780  87.2592200 108.9194330  11.5481070
  86.3118680 109.1305970  12.7099230  86.4081380 109.8223810  14.3819490
  85.6132880 109.7568930  14.9112400  86.6124660 110.7574450  14.3704840
  83.3499800 123.8615360  18.3757880  83.9458870 123.5399930  17.6992300
  83.6077950 123.3887180  19.1671150  71.2562370 120.2933270  28.5248510
  71.2132000 119.9226180  29.4062970  71.3873380 121.2310840  28.6650330
  74.9568400 121.8492860  24.1258230  74.7159760 122.1167420  23.2388750
  75.8971040 122.0198590  24.1809090  86.2172560 123.8687240  24.9268870
  85.7230840 124.2656110  24.2096000  85.6085850 123.2436450  25.3206150
  71.0950400 123.2395520  25.6446290  70.5010720 123.1080220  26.3836330
  71.0874240 122.4033660  25.1788390  81.4477400 108.7398620  25.2318040
  81.1190760 107.9250380  24.8519770  82.3959700 108.6968430  25.1083730
  83.9012010 124.5110660  22.2055610  83.4414980 125.2626470  21.8313630
  83.2724470 123.7917130  22.1470410  70.7262630 120.6053900  24.5954330
  69.9996690 119.9859190  24.5280280  70.7871780 120.9994510  23.7252410
  74.3307730 122.8198900  21.3803740  74.8472750 122.2086260  20.8552000
  74.9805110 123.3227680  21.8714750  77.0703230 123.7107390  22.2072720
  77.3581040 123.4561690  21.3305730  77.5826450 123.1584750  22.7978290
  82.8401310 108.1520690  20.8318320  83.2809400 108.0965790  19.9839920
  82.5708900 109.0678700  20.9028500  69.0092630 123.9228290  17.8051090
  68.8414670 123.2898970  18.5032980  68.1427140 124.1287690  17.4545280
  69.6320650 107.7545070  15.3082950  70.3900010 107.8673950  14.7346980
  69.1697820 108.5914270  15.2626380  80.6759440 106.5326790  19.5368330
  81.2788810 107.1047000  20.0116850  79.9352430 107.0966230  19.3142230
  83.8194040 106.9348350  14.8108610  84.0144670 107.8331800  15.0776040
  83.0323910 106.7035430  15.3041560  70.6155330 122.6161520  15.2501230
  70.0902950 122.9969550  14.5463190  70.5399910 123.2412290  15.9710940
  72.0045800 108.2809120  13.8484920  72.5338560 107.4938920  13.7192870
  72.6374120 108.9600310  14.0820450  74.1983640 108.0184260  16.9030310
  73.5686380 107.3171570  17.0700440  73.6588780 108.7788390  16.6863470
  77.1375590 124.6323490  29.5740920  78.0642900 124.3967760  29.6176880
  77.1226020 125.4595490  29.0926950  85.3720650 124.1749060  16.5715170
  85.5472840 123.4886800  15.9276090  84.6742220 124.6996110  16.1791840
  73.2148300 124.5643900  14.1250480  73.9467120 124.2803180  13.5774370
  73.4741970 124.3257180  15.0149860  72.3763090 120.6808630  14.1296810
  71.7471970 121.1493730  14.6782640  72.4910920 119.8357850  14.5643000
  80.9254660 106.7121820  29.9163270  80.8120110 107.0316430  30.8114790
  81.7424400 107.1134330  29.6200550  83.7053150 123.8593350  29.3981960
  84.4978470 123.3642580  29.1907920  83.9986300 124.5383490  30.0057570
  77.9630850 116.5093310   2.1607280  77.1872950 116.0293750   2.4505850
  78.6143780 115.8298960   1.9863440  71.9796680 116.8213120   3.0383040
  71.1481560 116.5661830   3.4379550  72.5877660 116.8923890   3.7740960
  71.9597940 120.8553210   3.2341060  72.2625980 119.9650950   3.0551280
  72.7041530 121.4123430   3.0063310  68.3521640 114.3820660   2.7065130
  68.9237750 113.6142860   2.7068770  68.3523180 114.6809420   1.7971740
  77.4039840 119.1850500   2.1677440  77.3348120 118.2440440   2.0066570
  78.1659700 119.2751910   2.7400010  69.5946510 109.7905020   4.4934060
  69.4149350 108.8930770   4.7736820  69.1926590 110.3376890   5.1681010
  70.2133180 112.2865520   3.1016400  70.8943290 112.5503890   3.7203800
  69.8981230 111.4466390   3.4354410  74.4057750 113.3332880   2.1888990
  74.9135970 113.8313850   2.8294010  74.9370990 112.5568080   2.0128350
  86.5068680 111.5038070   5.8918340  85.8020850 111.8919780   5.3733450
  86.7726600 112.1988360   6.4939270  72.6893850 107.9731440   6.4552410
  72.6912290 108.4903830   5.6498310  71.8598160 107.4961620   6.4322340
  73.9396700 117.6126620   4.6325910  73.6066080 118.2395540   5.2746980
  74.1163380 118.1388500   3.8527580  82.4530610 111.4271700   2.1002250
  81.7486180 111.7156590   2.6805360  82.8142770 112.2371810   1.7401810
  72.3709180 109.6841400   4.4622860  72.7125990 110.5283450   4.1676730
  71.4324990 109.8325140   4.5788200  73.1515800 119.5807420   6.4475090
  73.7689800 120.2558500   6.1659540  72.2908920 119.9895400   6.3562590
  84.0693390 121.0446830   4.3629730  83.3856910 121.7145940   4.3546400
  84.6087680 121.2427480   3.5974590  85.5217530 110.8726490   2.4911460
  84.5742440 110.9065470   2.6226890  85.8467520 111.6865440   2.8760820
  81.6052130 122.8890960   3.0774910  81.6179290 122.4853250   2.2097170
  81.0527350 123.6638250   2.9736340  81.0037570 117.7920800   4.4057520
  81.4206360 117.5780910   3.5710980  81.7277390 118.0493590   4.9766140
  84.9499670 116.1908020   4.4973760  84.1218300 116.2601110   4.0223890
  85.5450150 116.7762330   4.0289590  81.9141680 112.9777340   5.4428630
  81.5012860 113.8031050   5.6968620  81.1817630 112.3922380   5.2504990
  74.5156170 119.4504800   2.4686510  74.2184460 118.8450270   1.7894290
  75.4655990 119.4882110   2.3575870  72.7603090 112.5380450   4.0846340
  73.3117680 112.6475790   3.3099590  73.2746600 112.9118050   4.8001570
  82.6041780 123.0236670   6.1309610  82.1272340 123.8308860   5.9382220
  81.9203570 122.3715000   6.2835820  73.6074600 119.1886490   9.1194310
  72.7103130 119.4126460   9.3667710  73.6327470 119.3121430   8.1705710
  72.4345820 116.0599810   7.6951680  72.2953590 116.9322610   8.0639080
  71.5527180 115.7172620   7.5499620  74.2326170 122.0021510   9.9036830
  74.2041600 122.4064460   9.0365260  74.0691140 121.0731870   9.7408430
  86.1840990 122.7848610  11.2001000  86.6600710 123.2631500  11.8790080
  86.8048150 122.7166100  10.4746500  68.3864470 117.8297360   3.6122590
  68.4644890 117.9646130   2.6678310  69.0006150 117.1213250   3.8050710
  85.5874240 119.9761460   8.3601010  85.7137300 119.7373340   7.4418190
  85.6295620 119.1446000   8.8323090  79.4490980 123.6789460   6.9295820
  79.9635650 123.5897470   7.7318250  78.6060060 124.0249160   7.2223730
  85.4398250 112.0293920   9.3250750  84.8242520 112.5373590   8.7966210
  85.1194670 111.1292250   9.2676690  68.4423990 118.8711530   6.1517050
  68.6055030 118.4016890   5.3336420  68.9076440 118.3635090   6.8165890
  77.5012570 110.8685810   6.7912940  77.0391940 111.0768830   7.6032880
  77.0990680 110.0545160   6.4883610  82.5017080 112.0894760   7.9209600
  81.6510670 111.7900510   8.2418670  82.3418870 112.3336770   7.0093420
  79.5966790 113.5896510  10.0208390  79.9220200 112.7560260   9.6810620
  80.3847120 114.1125030  10.1686720  75.2518660 108.5464620   3.0467220
  75.5490990 109.4527450   2.9659240  75.8004220 108.0583400   2.4326790
  75.4456190 114.0236440   9.5819140  75.3499790 113.0831170   9.4319540
  76.2888170 114.2451510   9.1867210  70.5766730 110.4350110   7.7352920
  70.1830120 111.2825320   7.9425700  69.8885130 109.7976480   7.9261560
  77.1511780 110.5185080  10.8049660  76.4610100 110.3257280  11.4395750
  77.8944080 110.8019720  11.3373960  67.8783780 108.3578570   1.7683000
  67.5896830 108.9281430   2.4807980  68.6229540 107.8783020   2.1314230
  79.4274750 114.3583520   3.6403580  78.6955870 114.8670330   3.9893680
  79.0299090 113.5413500   3.3392360  79.8900660 109.8117200   3.0526520
  79.9073400 110.2625850   3.8968370  79.6416240 108.9122840   3.2659960
  83.3171410 107.2249380   8.8912900  83.6417180 106.4939040   9.4170880
  83.3527920 106.9063020   7.9893890  70.0162970 118.2462960   8.3112860
  69.6317760 117.6056630   8.9095820  70.3275160 118.9499080   8.8807590
  76.1660110 115.0939500   3.7921480  76.5330240 114.6198070   4.5382820
  75.9765170 115.9681070   4.1329820  73.9559480 114.1348140   6.1105690
  73.6516550 115.0140120   6.3356050  74.9105940 114.1947930   6.1463130
  83.2429250 117.3374490   2.4998930  83.9628370 117.8329780   2.1095040
  83.0411070 116.6592380   1.8552800  78.6248050 117.4083550   8.3867930
  78.5585360 116.4879220   8.1325520  77.9953190 117.5058990   9.1012570
  70.0123210 114.9750880   7.2577050  69.6538150 115.6404730   7.8450390
  69.7177770 114.1434430   7.6289670  73.2136330 115.4335120  10.1416600
  72.9136470 115.5792300   9.2444420  73.9847570 114.8740410  10.0489990
  78.5564780 120.2304120   8.1371730  78.5709320 119.2985080   7.9190640
  77.8489880 120.3163880   8.7761500  84.7675990 116.8711460   7.4840310
  84.0424180 117.4640240   7.2869700  85.2951450 116.8635000   6.6853680
  77.9898680 121.8721690   5.2312230  78.6340900 122.0781070   5.9085650
  78.3528120 121.1110090   4.7783080  79.2630760 119.8754040   3.9489680
  79.9052990 119.1747200   4.0621850  79.7880110 120.6552480   3.7686570
  81.0368380 120.6748940   7.1525740  81.3724620 121.2615630   7.8303660
  80.1168720 120.5441650   7.3823530  68.5871780 108.4644120   7.9349150
  67.8730300 108.6641040   8.5401760  69.0066820 107.6883690   8.3063950
  68.8744370 122.4524380   8.9215680  68.9835490 121.5119120   8.7811070
  68.2224930 122.7179130   8.2729410  76.8656960 120.7240270  10.3213800
  76.5453830 120.0049510  10.8659490  76.1915320 121.3995340  10.3949860
  80.0810560 110.9566430   5.6850600  80.4491380 110.1361640   6.0130170
  79.2208760 111.0168320   6.1006250  77.0412550 113.6106020   5.9088570
  77.5397800 114.0851840   6.5740420  77.1835500 112.6869540   6.1158600
  84.2479410 109.8273980   6.7516960  83.7453010 110.5679380   7.0910770
  85.0636070 110.2157980   6.4353750  71.0202810 123.5193290  10.7335290
  71.8215540 123.8405340  11.1470690  70.5054630 123.1588870  11.4555200
  79.8567440 119.6273160  10.6810700  79.2505600 119.6504760   9.9406450
  79.5521550 118.8956200  11.2177950  81.2867810 123.3553450   9.2920110
  82.2389560 123.2711470   9.2420350  81.1396030 124.0195160   9.9653900
  68.7400620 116.0066750   9.6771340  69.2439640 115.4274030  10.2487570
  68.0008040 116.2906980  10.2147710  75.7938560 117.4137740   9.2106860
  75.0284230 117.9822740   9.1261530  75.9754520 117.1213950   8.3175090
  82.9361910 119.1443070   9.7681880  83.6771380 119.4818830   9.2649340
  82.1734590 119.3135130   9.2151650  70.7723700 114.1496340  10.5721410
  70.8129040 113.8510210  11.4806640  71.6269200 114.5503950  10.4128930
  72.7129510 112.7288440   8.5395900  72.1825970 112.2379390   7.9119240
  73.3817580 113.1572640   8.0053830  81.6107570 117.1957900   8.3037090
  82.0248590 117.3502980   9.1527510  80.6758570 117.3213120   8.4662870
  82.0829740 114.5354060  10.3076240  82.6650510 113.7806380  10.2196720
  82.2591510 115.0661500   9.5307720  73.2001810 109.6950810   8.6193190
  73.1058680 109.0771560   7.8944060  72.6199200 110.4217100   8.3923100
  75.9663250 108.2524050   5.6520580  75.5180550 108.2748310   4.8066130
  75.3328450 107.8543070   6.2490880  76.3722800 117.1478380   6.2733020
  76.7910910 117.9911110   6.1009260  75.4531430 117.2850420   6.0439800
  78.7086700 114.8794560   7.6570860  78.8282910 114.2835700   8.3965700
  79.5680700 114.9164250   7.2372160  81.0474600 115.4331750   6.2333370
  80.5209820 115.9574370   5.6298510  81.3905940 116.0659140   6.8643100
  74.2230220 123.4531390   7.3890750  73.6851310 124.1777450   7.0699450
  74.4764180 122.9761730   6.5988090  75.4755470 111.4215910   8.9146680
  76.0655160 111.1131760   9.6024500  74.6575710 110.9495660   9.0706580
  80.2948900 111.0381720   9.1479700  79.6064420 110.3763260   9.0829690
  81.0154920 110.5919990   9.5928160  77.0792430 124.6882600   7.6477400
  77.0051130 125.5917740   7.9549770  76.1771270 124.3694500   7.6199470
  68.9709930 122.8827780   3.6892650  68.5340920 123.0628580   4.5216800
  69.5387610 123.6402400   3.5474370  84.6072110 122.3844780   7.9769960
  84.0074100 122.4437340   7.2333880  84.7366010 121.4449760   8.1066810
  83.2923750 119.1096760   6.0746120  82.4783590 119.5393920   6.3371910
  83.6997950 119.7215170   5.4615170  69.8410290 115.7800580   4.5884870
  70.2083330 115.6927980   5.4680890  69.2721110 115.0167130   4.4891730
  84.6414150 114.2484960   7.6015340  84.4100240 114.0197710   6.7013290
  84.9018700 115.1684510   7.5560230  69.3926290 112.6909670   8.4943290
  68.4982340 112.6576430   8.8337000  69.9323840 112.8896460   9.2594540
  83.0802220 109.4741390  10.3795040  83.9572400 109.4824790  10.7629040
  83.0923060 108.7372230   9.7687390  84.7055210 113.4110800   4.7902610
  83.7557920 113.3774340   4.9047600  84.8868220 114.3210910   4.5552380
  69.8966000 106.9658000   2.8426510  70.5442190 106.4155380   2.4021670
  70.3167840 107.2201150   3.6642320  83.7918340 107.1599360   6.1996150
  84.4290560 107.7733500   6.5655340  83.9393230 107.1960020   5.2545380
  69.6498000 107.1213670   5.5851830  69.3012820 107.5777490   6.3510010
  69.3185700 106.2270800   5.6674260  71.2562370 120.2933270   9.7505020
  71.2132000 119.9226180  10.6319480  71.3873380 121.2310840   9.8906840
  74.9568400 121.8492860   5.3514740  74.7159760 122.1167420   4.4645260
  75.8971040 122.0198590   5.4065600  77.1622820 108.3125550   9.1071250
  77.1011710 108.9047380   9.8566660  78.1023200 108.2051510   8.9621510
  79.7997380 107.9695610   8.7463540  80.4137790 108.2874900   8.0844620
  80.3446940 107.4844200   9.3659400  86.2172560 123.8687240   6.1525380
  85.7230840 124.2656110   5.4352510  85.6085850 123.2436450   6.5462660
  70.3218640 106.6489870   8.8602600  70.8701630 106.4677920   8.0968710
  70.3873950 105.8583980   9.3958910  71.0950400 123.2395520   6.8702800
  70.5010720 123.1080220   7.6092840  71.0874240 122.4033660   6.4044900
  80.5405420 106.5327750   5.0732830  79.6665260 106.8662860   4.8705760
  80.4316170 106.0600930   5.8984700  81.4477400 108.7398620   6.4574550
  81.1190760 107.9250380   6.0776280  82.3959700 108.6968430   6.3340240
  83.9012010 124.5110660   3.4312120  83.4414980 125.2626470   3.0570140
  83.2724470 123.7917130   3.3726920  70.7262630 120.6053900   5.8210840
  69.9996690 119.9859190   5.7536790  70.7871780 120.9994510   4.9508920
  74.3307730 122.8198900   2.6060250  74.8472750 122.2086260   2.0808510
  74.9805110 123.3227680   3.0971260  77.0703230 123.7107390   3.4329230
  77.3581040 123.4561690   2.5562240  77.5826450 123.1584750   4.0234800
  78.2880240 107.4497590   4.0125740  77.5052030 107.9243090   4.2922500
  77.9943170 106.5452420   3.9038920  77.1375590 124.6323490  10.7997430
  78.0642900 124.3967760  10.8433390  77.1226020 125.4595490  10.3183460
  74.3239200 107.2968240  10.5639310  74.0423470 107.8001840   9.8000130
  74.7058900 106.4989990  10.1981440  80.9254660 106.7121820  11.1419780
  80.8120110 107.0316430  12.0371300  81.7424400 107.1134330  10.8457060
  83.7053150 123.8593350  10.6238470  84.4978470 123.3642580  10.4164430
  83.9986300 124.5383490  11.2314080  79.8312810  95.9570800 150.4745930
  79.7506860  95.0425410 150.2037640  79.4177230  96.4537870 149.7685640
  81.9838280 102.1410010 151.1354330  81.5219810 101.3697250 151.4641500
  82.7963830 102.1676080 151.6406780  70.3888630  93.0071520 147.0173350
  69.5005330  93.3487490 146.9153230  70.6729820  92.8071840 146.1254180
  78.2101590 104.4268020 150.7558320  77.5913030 104.8825520 150.1852760
  79.0653370 104.5819480 150.3548020  72.5650020  91.5903020 148.0511730
  72.6716770  92.4906750 148.3580490  71.6542380  91.5420990 147.7606380
  82.2169130  90.7127830 149.5222630  83.0378750  90.2224400 149.5648110
  82.2503210  91.3025490 150.2754470  79.0764940  99.3107260 148.1490230
  78.4582210  99.7756710 147.5852950  79.5888190 100.0034740 148.5659740
  68.4448140  99.9963790 145.5229860  68.0676120 100.4850890 144.7914760
  68.7021210 100.6689070 146.1536390  76.0537070  88.3980180 150.9815370
  76.3612050  87.8427070 150.2650870  75.1237770  88.5324640 150.7988360
  82.8997550 100.8363690 148.3613000  82.7893880  99.8938020 148.4862420
  82.8965800 101.1979330 149.2475760  78.4417830  96.4629010 147.7175490
  77.5147110  96.3966390 147.9463960  78.5942650  97.4009140 147.6030730
  78.4286910  92.7346010 144.7142650  77.4890580  92.8959970 144.7995110
  78.7470170  93.4531690 144.1678640  82.4715120  98.0249310 148.2210740
  81.8527540  97.6868860 147.5737040  82.4539570  97.3809070 148.9289930
  74.0474470  96.9893750 150.4995220  73.6431470  96.2771000 150.0041120
  74.1337590  96.6446990 151.3883260  80.6479820  97.2636120 145.2283490
  81.0873100  96.4258550 145.0821310  81.3608240  97.8965520 145.3147630
  78.7575200 102.2032190 149.1964730  79.1971110 102.9456520 148.7820120
  78.6962090 102.4458760 150.1203690  84.2296960  88.5178930 143.5424530
  83.9169620  88.6105760 144.4423600  84.9909430  89.0959960 143.4921960
  70.7479100  95.8838730 148.0001870  70.6276700  96.6100820 147.3883140
  70.4379990  95.1141640 147.5229780  69.6312100 100.7554060 150.2176690
  69.2240180 100.8968650 149.3630290  70.5225110 100.4714220 150.0147900
  81.4245380 105.1901310 146.5527740  81.2646520 104.9004250 147.4509570
  81.2592090 104.4141440 146.0172970  73.9033760 104.9699840 148.3299360
  73.7276240 104.0535380 148.1167160  73.0489500 105.3287130 148.5697160
  81.1271510 102.6988870 145.1125740  80.4336670 102.6966160 144.4528020
  81.8694370 102.2748190 144.6819910  80.6921440 104.3251580 149.1874230
  81.1478390 103.5440960 149.5012850  81.0313960 105.0358400 149.7315410
  73.2142760  89.2273800 151.3825540  72.7710910  90.0083340 151.0510060
  73.7727750  89.5503690 152.0896480  76.3301580  88.8484500 146.2631370
  75.7055760  88.8444370 146.9884680  76.2431700  87.9815460 145.8667340
  73.0056980  94.3507370 149.1106790  72.7797900  94.1344540 150.0153410
  72.2249510  94.7835830 148.7652760  80.2354740  94.3570740 147.7097440
  79.6363630  95.0806540 147.5261060  80.7834350  94.2947520 146.9273890
  78.8419610  92.9934280 149.7400720  79.2349180  93.3106480 148.9269410
  79.2036460  92.1146160 149.8545240  68.0654010  93.5255200 143.1733640
  67.9828680  94.4685960 143.3148630  67.7137070  93.3830110 142.2945990
  75.8652140  92.2594230 152.2403990  75.8688200  91.8184180 151.3908530
  76.7603260  92.5811560 152.3475810  71.7154520  92.1420720 151.1998200
  71.3754570  92.6195950 151.9565250  70.9531840  91.6885840 150.8399300
  75.9272290  93.2606310 145.2310750  76.0485110  93.2192790 146.1796570
  75.5420800  94.1230460 145.0757480  74.9393790  95.5707450 144.6294050
  74.3710690  95.1225700 144.0029960  75.6482790  95.9300230 144.0959200
  69.0300600  91.0639700 150.1162870  68.7447520  90.6995370 150.9541490
  68.9679460  90.3320160 149.5026010  72.4841270  99.5665640 146.9020460
  71.7103530  99.0263260 146.7419180  73.2135900  99.0472250 146.5638220
  78.7039190  89.9568960 146.8376240  77.8903800  89.4582130 146.7621550
  78.5101140  90.7967210 146.4212590  81.4187580  94.3288610 145.1338400
  82.3067200  94.6405840 144.9589740  81.3892670  93.4560860 144.7418980
  72.5278670  99.2346020 150.5399270  73.0457340  98.4314280 150.4856160
  72.0762690  99.1725160 151.3816100  77.4148170 100.5012300 145.8126570
  77.7563870 101.2454530 145.3169890  76.5860880 100.8143420 146.1751400
  83.6901850  95.6400450 144.6018260  83.6065570  96.0714670 143.7514700
  84.4096040  96.0998800 145.0345080  84.7189100 102.4942710 147.3300390
  84.0765260 101.8398330 147.6044110  84.3319760 102.8997800 146.5541060
  80.2975580  99.8228140 151.1772080  80.6499400  99.2256270 150.5173450
  79.4137910  99.4972370 151.3480330  76.3838860 100.5825830 148.5842490
  77.0709990 101.1295040 148.9650080  75.5971280 101.1266560 148.6192100
  68.5231260  96.1998650 144.0759570  69.3926110  96.4823450 144.3595490
  68.0321580  97.0134520 143.9608380  75.6866070  97.5871860 148.1967850
  76.1428850  98.3977110 148.4228040  75.3354280  97.2695000 149.0286340
  71.5877850  87.9309510 148.6690370  71.4592480  87.9227410 149.6175290
  70.7639870  88.2692600 148.3181380  83.1086480 101.3859170 143.8676740
  82.8824060 100.6689610 144.4601380  82.7182680 101.1371610 143.0298490
  68.8902510 105.4126030 144.6421200  69.2500150 106.0115370 143.9878470
  68.7494850 105.9585920 145.4156230  82.6902730  99.3031110 145.5290900
  82.4024430  99.7643800 146.3168780  83.4854900  98.8428880 145.7975120
  74.9071130 102.7957230 145.4594870  74.8981230 103.5286920 144.8439380
  73.9869490 102.5488810 145.5521830  70.5077770  98.0172120 146.2041630
  69.9005720  98.7571020 146.2136930  70.9827120  98.1071480 145.3779830
  83.4472590  91.1379880 146.6886080  82.8185750  91.2425550 145.9744310
  82.9524510  91.3576660 147.4779960  77.8930730 102.8585470 144.1220060
  77.9942710 102.6549460 143.1922040  76.9932470 102.6043750 144.3267840
  75.4156620  93.4165830 148.1043960  74.7072770  93.8852170 148.5457570
  75.7001100  92.7587840 148.7389150  79.4472050  90.1416490 149.5439750
  79.3239830  90.1602620 148.5949260  80.3956610  90.1895430 149.6638150
  76.5348840 105.3771790 148.8167730  76.7890340 105.3393180 147.8947100
  75.5861320 105.2505120 148.8095980  73.6191640  91.7250910 145.4794670
  74.4682170  92.1621060 145.4134860  73.2522910  92.0371170 146.3066730
  82.5401420  96.2963670 150.3926240  81.5991560  96.3113900 150.5673930
  82.8545490  95.5099630 150.8386540  72.5183060  97.9783270 143.9530200
  73.2846330  97.8664630 144.5155630  72.5957750  97.2821240 143.3006970
  71.2129820  95.4108340 144.6363090  71.2933410  94.4635850 144.7480490
  72.1049570  95.7415220 144.7423750  72.0144530 105.5603730 151.7397630
  72.7507010 105.0119190 152.0106200  72.3985450 106.4259740 151.6003620
  68.8990010 101.6277300 147.6139140  67.9729790 101.8698440 147.6044550
  69.3646440 102.4551560 147.4923890  75.1246840 104.7334040 143.5623200
  75.9175450 105.0222870 143.1104990  74.6051190 104.3026210 142.8835680
  84.1777010 103.9604170 144.9859940  83.8918520 103.5469310 144.1714120
  83.9796560 104.8891880 144.8660460  75.6424240  99.9537450 143.4265550
  75.5374880  99.3389800 144.1526930  75.4748460  99.4303340 142.6428560
  78.8826970  99.0157480 144.0307540  78.3337070  99.4626780 144.6750280
  79.5046230  98.5106730 144.5545210  74.5502090  97.9748400 145.9272840
  74.9718510  97.8088270 146.7704230  74.6752930  97.1648630 145.4327980
  77.0629730  96.9986010 143.1749940  77.5835390  96.2835030 142.8091090
  77.7098130  97.6371880 143.4750450  80.9249300  88.8589860 145.4017880
  81.2051590  88.0157760 145.7577300  80.1515030  89.0912970 145.9156630
  72.2443790  91.1482250 142.8608880  72.5469690  91.1549680 141.9528030
  72.9838380  90.7980110 143.3576540  75.4628720  90.0916870 143.8465080
  75.1150720  89.4140860 143.2667530  75.6641490  89.6306380 144.6608470
  77.6277760 105.0797620 145.4651680  78.5228550 105.4182590 145.4870440
  77.6595390 104.3577030 144.8375960  71.2673920 100.4524670 143.6938680
  71.7048790 100.9954340 144.3496260  71.7521650  99.6271620 143.7035020
  68.4819720 103.2413700 151.1458940  68.8122730 102.3734760 150.9137580
  68.9110720 103.4472220 151.9763900  73.0781640 101.5722710 148.8060910
  72.7777180 101.4487680 149.7064820  72.9719130 100.7131300 148.3976640
  85.8473560 101.3519110 143.5087590  85.0166520 101.4195760 143.9794820
  86.0245390 102.2423230 143.2054450  85.3030020  98.0966590 146.0121790
  86.0648930  98.6663240 146.1181480  85.3184390  97.5293790 146.7830100
  68.8034360  96.6204520 150.2429450  68.1483200  96.3516160 149.5989150
  69.6412310  96.5109000 149.7931430  86.3089990  98.9516690 150.8563720
  86.6798820  98.1684010 150.4499690  86.9491920  99.6405790 150.6781020
  85.3549190  98.3900960 143.1694310  85.6298030  99.2979840 143.0413530
  85.1659930  98.3263490 144.1056300  81.7524800  91.4145810 144.4647940
  82.1709680  91.2276790 143.6244600  81.4460860  90.5624860 144.7750870
  85.2514530  96.3269950 148.1623740  84.8758130  95.5597880 147.7305030
  84.5217650  96.7092650 148.6498670  68.0172440  93.8303450 146.1854780
  67.1136520  94.0933650 146.0106440  68.5013060  94.1014620 145.4054740
  84.5265490  94.5527440 151.4630980  85.0502970  94.0590090 150.8321150
  85.1124910  94.6877800 152.2078550  70.5599650  92.8868990 144.0949160
  71.2691350  92.4652210 143.6096440  69.8439590  92.9544220 143.4632510
  70.2073810  88.9408320 143.1351810  70.9301940  89.4817260 143.4533030
  70.4798330  88.6671740 142.2593350  84.0165460  93.8100790 147.4023390
  84.5124580  93.5771660 148.1872270  83.8181530  92.9712630 146.9861030
  85.4452620  92.4461740 149.9361070  85.3351900  92.2917780 150.8743340
  86.2060210  91.9182680 149.6936480  86.3342890  90.2769660 143.1767210
  87.2592200  90.1450840 142.9685500  86.3118680  90.3562480 144.1303660
  86.4081380  91.0480320 145.8023920  85.6132880  90.9825440 146.3316830
  86.6124660  91.9830960 145.7909270  83.3499800 105.0871870 149.7962310
  83.9458870 104.7656440 149.1196730  83.6077950 104.6143690 150.5875580
  82.8401310  89.3777200 152.2522750  83.2809400  89.3222300 151.4044350
  82.5708900  90.2935210 152.3232930  84.7039880  89.0092440 150.2631570
  84.6428280  88.0653660 150.1162590  85.4831910  89.1172530 150.8085030
  69.0092630 105.1484800 149.2255520  68.8414670 104.5155480 149.9237410
  68.1427140 105.3544200 148.8749710  69.6320650  88.9801580 146.7287380
  70.3900010  89.0930460 146.1551410  69.1697820  89.8170780 146.6830810
  76.1734460  91.0940850 149.7189690  75.3608970  90.7197740 149.3785570
  76.6776100  90.3385930 150.0210880  80.6759440  87.7583300 150.9572760
  81.2788810  88.3303510 151.4321280  79.9352430  88.3222740 150.7346660
  83.8194040  88.1604860 146.2313040  84.0144670  89.0588310 146.4980470
  83.0323910  87.9291940 146.7245990  70.6155330 103.8418030 146.6705660
  70.0902950 104.2226060 145.9667620  70.5399910 104.4668800 147.3915370
  72.0045800  89.5065630 145.2689350  72.5338560  88.7195430 145.1397300
  72.6374120  90.1856820 145.5024880  74.1983640  89.2440770 148.3234740
  73.5686380  88.5428080 148.4904870  73.6588780  90.0044900 148.1067900
  85.3720650 105.4005570 147.9919600  85.5472840 104.7143310 147.3480520
  84.6742220 105.9252620 147.5996270  73.2148300 105.7900410 145.5454910
  73.9467120 105.5059690 144.9978800  73.4741970 105.5513690 146.4354290
  72.3763090 101.9065140 145.5501240  71.7471970 102.3750240 146.0987070
  72.4910920 101.0614360 145.9847430  81.9838280 102.1410010 132.3610840
  81.5219810 101.3697250 132.6898010  82.7963830 102.1676080 132.8663290
  71.9597940 102.0809720 134.6545490  72.2625980 101.1907460 134.4755710
  72.7041530 102.6379940 134.4267740  78.2101590 104.4268020 131.9814830
  77.5913030 104.8825520 131.4109270  79.0653370 104.5819480 131.5804530
  82.2169130  90.7127830 130.7479140  83.0378750  90.2224400 130.7904620
  82.2503210  91.3025490 131.5010980  86.5068680  92.7294580 137.3122770
  85.8020850  93.1176290 136.7937880  86.7726600  93.4244870 137.9143700
  82.4530610  92.6528210 133.5206680  81.7486180  92.9413100 134.1009790
  82.8142770  93.4628320 133.1606240  73.1515800 100.8063930 137.8679520
  73.7689800 101.4815010 137.5863970  72.2908920 101.2151910 137.7767020
  68.4448140  99.9963790 126.7486370  68.0676120 100.4850890 126.0171270
  68.7021210 100.6689070 127.3792900  84.0693390 102.2703340 135.7834160
  83.3856910 102.9402450 135.7750830  84.6087680 102.4683990 135.0179020
  85.5217530  92.0983000 133.9115890  84.5742440  92.1321980 134.0431320
  85.8467520  92.9121950 134.2965250  81.6052130 104.1147470 134.4979340
  81.6179290 103.7109760 133.6301600  81.0527350 104.8894760 134.3940770
  81.0037570  99.0177310 135.8261950  81.4206360  98.8037420 134.9915410
  81.7277390  99.2750100 136.3970570  84.9499670  97.4164530 135.9178190
  84.1218300  97.4857620 135.4428320  85.5450150  98.0018840 135.4494020
  81.9141680  94.2033850 136.8633060  81.5012860  95.0287560 137.1173050
  81.1817630  93.6178890 136.6709420  74.5156170 100.6761310 133.8890940
  74.2184460 100.0706780 133.2098720  75.4655990 100.7138620 133.7780300
  82.6041780 104.2493180 137.5514040  82.1272340 105.0565370 137.3586650
  81.9203570 103.5971510 137.7040250  73.6074600 100.4143000 140.5398740
  72.7103130 100.6382970 140.7872140  73.6327470 100.5377940 139.5910140
  78.7575200 102.2032190 130.4221240  79.1971110 102.9456520 130.0076630
  78.6962090 102.4458760 131.3460200  74.2326170 103.2278020 141.3241260
  74.2041600 103.6320970 140.4569690  74.0691140 102.2988380 141.1612860
  86.1840990 104.0105120 142.6205430  86.6600710 104.4888010 143.2994510
  86.8048150 103.9422610 141.8950930  85.5874240 101.2017970 139.7805440
  85.7137300 100.9629850 138.8622620  85.6295620 100.3702510 140.2527520
  79.4490980 104.9045970 138.3500250  79.9635650 104.8153980 139.1522680
  78.6060060 105.2505670 138.6428160  73.9033760 104.9699840 129.5555870
  73.7276240 104.0535380 129.3423670  73.0489500 105.3287130 129.7953670
  85.4398250  93.2550430 140.7455180  84.8242520  93.7630100 140.2170640
  85.1194670  92.3548760 140.6881120  68.4423990 100.0968040 137.5721480
  68.6055030  99.6273400 136.7540850  68.9076440  99.5891600 138.2370320
  82.5017080  93.3151270 139.3414030  81.6510670  93.0157020 139.6623100
  82.3418870  93.5593280 138.4297850  79.5966790  94.8153020 141.4412820
  79.9220200  93.9816770 141.1015050  80.3847120  95.3381540 141.5891150
  77.1511780  91.7441590 142.2254090  76.4610100  91.5513790 142.8600180
  77.8944080  92.0276230 142.7578390  79.8900660  91.0373710 134.4730950
  79.9073400  91.4882360 135.3172800  79.6416240  90.1379350 134.6864390
  83.3171410  88.4505890 140.3117330  83.6417180  87.7195550 140.8375310
  83.3527920  88.1319530 139.4098320  70.0162970  99.4719470 139.7317290
  69.6317760  98.8313140 140.3300250  70.3275160 100.1755590 140.3012020
  83.2429250  98.5631000 133.9203360  83.9628370  99.0586290 133.5299470
  83.0411070  97.8848890 133.2757230  78.6248050  98.6340060 139.8072360
  78.5585360  97.7135730 139.5529950  77.9953190  98.7315500 140.5217000
  73.2136330  96.6591630 141.5621030  72.9136470  96.8048810 140.6648850
  73.9847570  96.0996920 141.4694420  78.5564780 101.4560630 139.5576160
  78.5709320 100.5241590 139.3395070  77.8489880 101.5420390 140.1965930
  84.7675990  98.0967970 138.9044740  84.0424180  98.6896750 138.7074130
  85.2951450  98.0891510 138.1058110  76.3838860 100.5825830 129.8099000
  77.0709990 101.1295040 130.1906590  75.5971280 101.1266560 129.8448610
  77.9898680 103.0978200 136.6516660  78.6340900 103.3037580 137.3290080
  78.3528120 102.3366600 136.1987510  79.2630760 101.1010550 135.3694110
  79.9052990 100.4003710 135.4826280  79.7880110 101.8808990 135.1891000
  81.0368380 101.9005450 138.5730170  81.3724620 102.4872140 139.2508090
  80.1168720 101.7698160 138.8027960  68.8902510 105.4126030 125.8677710
  69.2500150 106.0115370 125.2134980  68.7494850 105.9585920 126.6412740
  68.5871780  89.6900630 139.3553580  67.8730300  89.8897550 139.9606190
  69.0066820  88.9140200 139.7268380  68.8744370 103.6780890 140.3420110
  68.9835490 102.7375630 140.2015500  68.2224930 103.9435640 139.6933840
  76.8656960 101.9496780 141.7418230  76.5453830 101.2306020 142.2863920
  76.1915320 102.6251850 141.8154290  74.9071130 102.7957230 126.6851380
  74.8981230 103.5286920 126.0695890  73.9869490 102.5488810 126.7778340
  80.0810560  92.1822940 137.1055030  80.4491380  91.3618150 137.4334600
  79.2208760  92.2424830 137.5210680  79.4472050  90.1416490 130.7696260
  79.3239830  90.1602620 129.8205770  80.3956610  90.1895430 130.8894660
  76.5348840 105.3771790 130.0424240  76.7890340 105.3393180 129.1203610
  75.5861320 105.2505120 130.0352490  84.2479410  91.0530490 138.1721390
  83.7453010  91.7935890 138.5115200  85.0636070  91.4414490 137.8558180
  72.5183060  97.9783270 125.1786710  73.2846330  97.8664630 125.7412140
  72.5957750  97.2821240 124.5263480  84.5427000 103.4672520 133.2937010
  84.6674420 104.2903690 133.7660820  85.4092560 103.2563250 132.9461160
  72.0144530 105.5603730 132.9654140  72.7507010 105.0119190 133.2362710
  72.3985450 106.4259740 132.8260130  71.0202810 104.7449800 142.1539720
  71.8215540 105.0661850 142.5675120  70.5054630 104.3845380 142.8759630
  79.8567440 100.8529670 142.1015130  79.2505600 100.8761270 141.3610880
  79.5521550 100.1212710 142.6382380  81.2867810 104.5809960 140.7124540
  82.2389560 104.4967980 140.6624780  81.1396030 105.2451670 141.3858330
  68.7400620  97.2323260 141.0975770  69.2439640  96.6530540 141.6692000
  68.0008040  97.5163490 141.6352140  75.7938560  98.6394250 140.6311290
  75.0284230  99.2079250 140.5465960  75.9754520  98.3470460 139.7379520
  82.9361910 100.3699580 141.1886310  83.6771380 100.7075340 140.6853770
  82.1734590 100.5391640 140.6356080  70.7723700  95.3752850 141.9925840
  70.8129040  95.0766720 142.9011070  71.6269200  95.7760460 141.8333360
  81.6107570  98.4214410 139.7241520  82.0248590  98.5759490 140.5731940
  80.6758570  98.5469630 139.8867300  82.0829740  95.7610570 141.7280670
  82.6650510  95.0062890 141.6401150  82.2591510  96.2918010 140.9512150
  75.9663250  89.4780560 137.0725010  75.5180550  89.5004820 136.2270560
  75.3328450  89.0799580 137.6695310  78.7086700  96.1051070 139.0775290
  78.8282910  95.5092210 139.8170130  79.5680700  96.1420760 138.6576590
  81.0474600  96.6588260 137.6537800  80.5209820  97.1830880 137.0502940
  81.3905940  97.2915650 138.2847530  73.4460990  94.0481630 124.0987510
  73.2450050  93.1848990 124.4600850  73.2753040  93.9614990 123.1609110
  74.2230220 104.6787900 138.8095180  73.6851310 105.4033960 138.4903880
  74.4764180 104.2018240 138.0192520  80.2948900  92.2638230 140.5684130
  79.6064420  91.6019770 140.5034120  81.0154920  91.8176500 141.0132590
  77.0792430 105.9139110 139.0681830  77.0051130 106.8174250 139.3754200
  76.1771270 105.5951010 139.0403900  71.2673920 100.4524670 124.9195190
  71.7048790 100.9954340 125.5752770  71.7521650  99.6271620 124.9291530
  73.0781640 101.5722710 130.0317420  72.7777180 101.4487680 130.9321330
  72.9719130 100.7131300 129.6233150  68.9709930 104.1084290 135.1097080
  68.5340920 104.2885090 135.9421230  69.5387610 104.8658910 134.9678800
  84.6072110 103.6101290 139.3974390  84.0074100 103.6693850 138.6538310
  84.7366010 102.6706270 139.5271240  83.2923750 100.3353270 137.4950550
  82.4783590 100.7650430 137.7576340  83.6997950 100.9471680 136.8819600
  84.6414150  95.4741470 139.0219770  84.4100240  95.2454220 138.1217720
  84.9018700  96.3941020 138.9764660  83.0802220  90.6997900 141.7999470
  83.9572400  90.7081300 142.1833470  83.0923060  89.9628740 141.1891820
  84.5265490  94.5527440 132.6887490  85.0502970  94.0590090 132.0577660
  85.1124910  94.6877800 133.4335060  84.7055210  94.6367310 136.2107040
  83.7557920  94.6030850 136.3252030  84.8868220  95.5467420 135.9756810
  85.4452620  92.4461740 131.1617580  85.3351900  92.2917780 132.0999850
  86.2060210  91.9182680 130.9192990  83.7918340  88.3855870 137.6200580
  84.4290560  88.9990010 137.9859770  83.9393230  88.4216530 136.6749810
  71.2562370 101.5189780 141.1709450  71.2132000 101.1482690 142.0523910
  71.3873380 102.4567350 141.3111270  74.9568400 103.0749370 136.7719170
  74.7159760 103.3423930 135.8849690  75.8971040 103.2455100 136.8270030
  77.1622820  89.5382060 140.5275680  77.1011710  90.1303890 141.2771090
  78.1023200  89.4308020 140.3825940  79.7997380  89.1952120 140.1667970
  80.4137790  89.5131410 139.5049050  80.3446940  88.7100710 140.7863830
  86.2172560 105.0943750 137.5729810  85.7230840 105.4912620 136.8556940
  85.6085850 104.4692960 137.9667090  71.0950400 104.4652030 138.2907230
  70.5010720 104.3336730 139.0297270  71.0874240 103.6290170 137.8249330
  80.5405420  87.7584260 136.4937260  79.6665260  88.0919370 136.2910190
  80.4316170  87.2857440 137.3189130  81.4477400  89.9655130 137.8778980
  81.1190760  89.1506890 137.4980710  82.3959700  89.9224940 137.7544670
  83.9012010 105.7367170 134.8516550  83.4414980 106.4882980 134.4774570
  83.2724470 105.0173640 134.7931350  70.7262630 101.8310410 137.2415270
  69.9996690 101.2115700 137.1741220  70.7871780 102.2251020 136.3713350
  74.3307730 104.0455410 134.0264680  74.8472750 103.4342770 133.5012940
  74.9805110 104.5484190 134.5175690  77.0703230 104.9363900 134.8533660
  77.3581040 104.6818200 133.9766670  77.5826450 104.3841260 135.4439230
  78.2880240  88.6754100 135.4330170  77.5052030  89.1499600 135.7126930
  77.9943170  87.7708930 135.3243350  82.8401310  89.3777200 133.4779260
  83.2809400  89.3222300 132.6300860  82.5708900  90.2935210 133.5489440
  69.0092630 105.1484800 130.4512030  68.8414670 104.5155480 131.1493920
  68.1427140 105.3544200 130.1006220  80.6759440  87.7583300 132.1829270
  81.2788810  88.3303510 132.6577790  79.9352430  88.3222740 131.9603170
  70.6155330 103.8418030 127.8962170  70.0902950 104.2226060 127.1924130
  70.5399910 104.4668800 128.6171880  77.1375590 105.8580000 142.2201860
  78.0642900 105.6224270 142.2637820  77.1226020 106.6852000 141.7387890
  74.3239200  88.5224750 141.9843740  74.0423470  89.0258350 141.2204560
  74.7058900  87.7246500 141.6185870  73.2148300 105.7900410 126.7711420
  73.9467120 105.5059690 126.2235310  73.4741970 105.5513690 127.6610800
  72.3763090 101.9065140 126.7757750  71.7471970 102.3750240 127.3243580
  72.4910920 101.0614360 127.2103940  80.9254660  87.9378330 142.5624210
  80.8120110  88.2572940 143.4575730  81.7424400  88.3390840 142.2661490
  83.7053150 105.0849860 142.0442900  84.4978470 104.5899090 141.8368860
  83.9986300 105.7640000 142.6518510  79.8312810  95.9570800 112.9258950
  79.7506860  95.0425410 112.6550660  79.4177230  96.4537870 112.2198660
  81.9838280 102.1410010 113.5867350  81.5219810 101.3697250 113.9154520
  82.7963830 102.1676080 114.0919800  71.9597940 102.0809720 115.8802000
  72.2625980 101.1907460 115.7012220  72.7041530 102.6379940 115.6524250
  70.3888630  93.0071520 109.4686370  69.5005330  93.3487490 109.3666250
  70.6729820  92.8071840 108.5767200  68.3521640  95.6077170 115.3526070
  68.9237750  94.8399370 115.3529710  68.3523180  95.9065930 114.4432680
  78.2101590 104.4268020 113.2071340  77.5913030 104.8825520 112.6365780
  79.0653370 104.5819480 112.8061040  69.5946510  91.0161530 117.1395000
  69.4149350  90.1187280 117.4197760  69.1926590  91.5633400 117.8141950
  72.5650020  91.5903020 110.5024750  72.6716770  92.4906750 110.8093510
  71.6542380  91.5420990 110.2119400  82.2169130  90.7127830 111.9735650
  83.0378750  90.2224400 112.0161130  82.2503210  91.3025490 112.7267490
  70.2133180  93.5122030 115.7477340  70.8943290  93.7760400 116.3664740
  69.8981230  92.6722900 116.0815350  86.5068680  92.7294580 118.5379280
  85.8020850  93.1176290 118.0194390  86.7726600  93.4244870 119.1400210
  72.6893850  89.1987950 119.1013350  72.6912290  89.7160340 118.2959250
  71.8598160  88.7218130 119.0783280  79.0764940  99.3107260 110.6003250
  78.4582210  99.7756710 110.0365970  79.5888190 100.0034740 111.0172760
  72.3709180  90.9097910 117.1083800  72.7125990  91.7539960 116.8137670
  71.4324990  91.0581650 117.2249140  73.1515800 100.8063930 119.0936030
  73.7689800 101.4815010 118.8120480  72.2908920 101.2151910 119.0023530
  68.4448140  99.9963790 107.9742880  68.0676120 100.4850890 107.2427780
  68.7021210 100.6689070 108.6049410  84.0693390 102.2703340 117.0090670
  83.3856910 102.9402450 117.0007340  84.6087680 102.4683990 116.2435530
  85.5217530  92.0983000 115.1372400  84.5742440  92.1321980 115.2687830
  85.8467520  92.9121950 115.5221760  76.0537070  88.3980180 113.4328390
  76.3612050  87.8427070 112.7163890  75.1237770  88.5324640 113.2501380
  82.8997550 100.8363690 110.8126020  82.7893880  99.8938020 110.9375440
  82.8965800 101.1979330 111.6988780  81.0037570  99.0177310 117.0518460
  81.4206360  98.8037420 116.2171920  81.7277390  99.2750100 117.6227080
  78.4417830  96.4629010 110.1688510  77.5147110  96.3966390 110.3976980
  78.5942650  97.4009140 110.0543750  84.9499670  97.4164530 117.1434700
  84.1218300  97.4857620 116.6684830  85.5450150  98.0018840 116.6750530
  82.4715120  98.0249310 110.6723760  81.8527540  97.6868860 110.0250060
  82.4539570  97.3809070 111.3802950  72.4345820  97.2856320 120.3412620
  72.2953590  98.1579120 120.7100020  71.5527180  96.9429130 120.1960560
  78.7575200 102.2032190 111.6477750  79.1971110 102.9456520 111.2333140
  78.6962090 102.4458760 112.5716710  70.7479100  95.8838730 110.4514890
  70.6276700  96.6100820 109.8396160  70.4379990  95.1141640 109.9742800
  68.3864470  99.0553870 116.2583530  68.4644890  99.1902640 115.3139250
  69.0006150  98.3469760 116.4511650  69.6312100 100.7554060 112.6689710
  69.2240180 100.8968650 111.8143310  70.5225110 100.4714220 112.4660920
  85.5874240 101.2017970 121.0061950  85.7137300 100.9629850 120.0879130
  85.6295620 100.3702510 121.4784030  81.4245380 105.1901310 109.0040760
  81.2646520 104.9004250 109.9022590  81.2592090 104.4141440 108.4685990
  73.9033760 104.9699840 110.7812380  73.7276240 104.0535380 110.5680180
  73.0489500 105.3287130 111.0210180  80.6921440 104.3251580 111.6387250
  81.1478390 103.5440960 111.9525870  81.0313960 105.0358400 112.1828430
  68.4423990 100.0968040 118.7977990  68.6055030  99.6273400 117.9797360
  68.9076440  99.5891600 119.4626830  73.2142760  89.2273800 113.8338560
  72.7710910  90.0083340 113.5023080  73.7727750  89.5503690 114.5409500
  75.2518660  89.7721130 115.6928160  75.5490990  90.6783960 115.6120180
  75.8004220  89.2839910 115.0787730  73.0056980  94.3507370 111.5619810
  72.7797900  94.1344540 112.4666430  72.2249510  94.7835830 111.2165780
  80.2354740  94.3570740 110.1610460  79.6363630  95.0806540 109.9774080
  80.7834350  94.2947520 109.3786910  78.8419610  92.9934280 112.1913740
  79.2349180  93.3106480 111.3782430  79.2036460  92.1146160 112.3058260
  70.5766730  91.6606620 120.3813860  70.1830120  92.5081830 120.5886640
  69.8885130  91.0232990 120.5722500  77.1511780  91.7441590 123.4510600
  76.4610100  91.5513790 124.0856690  77.8944080  92.0276230 123.9834900
  67.8783780  89.5835080 114.4143940  67.5896830  90.1537940 115.1268920
  68.6229540  89.1039530 114.7775170  68.0654010  93.5255200 105.6246660
  67.9828680  94.4685960 105.7661650  67.7137070  93.3830110 104.7459010
  71.7154520  92.1420720 113.6511220  71.3754570  92.6195950 114.4078270
  70.9531840  91.6885840 113.2912320  70.0162970  99.4719470 120.9573800
  69.6317760  98.8313140 121.5556760  70.3275160 100.1755590 121.5268530
  69.0300600  91.0639700 112.5675890  68.7447520  90.6995370 113.4054510
  68.9679460  90.3320160 111.9539030  72.4841270  99.5665640 109.3533480
  71.7103530  99.0263260 109.1932200  73.2135900  99.0472250 109.0151240
  83.2429250  98.5631000 115.1459870  83.9628370  99.0586290 114.7555980
  83.0411070  97.8848890 114.5013740  70.0123210  96.2007390 119.9037990
  69.6538150  96.8661240 120.4911330  69.7177770  95.3690940 120.2750610
  73.2136330  96.6591630 122.7877540  72.9136470  96.8048810 121.8905360
  73.9847570  96.0996920 122.6950930  84.7675990  98.0967970 120.1301250
  84.0424180  98.6896750 119.9330640  85.2951450  98.0891510 119.3314620
  84.7189100 102.4942710 109.7813410  84.0765260 101.8398330 110.0557130
  84.3319760 102.8997800 109.0054080  80.2975580  99.8228140 113.6285100
  80.6499400  99.2256270 112.9686470  79.4137910  99.4972370 113.7993350
  68.5231260  96.1998650 106.5272590  69.3926110  96.4823450 106.8108510
  68.0321580  97.0134520 106.4121400  71.5877850  87.9309510 111.1203390
  71.4592480  87.9227410 112.0688310  70.7639870  88.2692600 110.7694400
  68.8902510 105.4126030 107.0934220  69.2500150 106.0115370 106.4391490
  68.7494850 105.9585920 107.8669250  68.5871780  89.6900630 120.5810090
  67.8730300  89.8897550 121.1862700  69.0066820  88.9140200 120.9524890
  82.6902730  99.3031110 107.9803920  82.4024430  99.7643800 108.7681800
  83.4854900  98.8428880 108.2488140  74.9071130 102.7957230 107.9107890
  74.8981230 103.5286920 107.2952400  73.9869490 102.5488810 108.0034850
  70.5077770  98.0172120 108.6554650  69.9005720  98.7571020 108.6649950
  70.9827120  98.1071480 107.8292850  75.4156620  93.4165830 110.5556980
  74.7072770  93.8852170 110.9970590  75.7001100  92.7587840 111.1902170
  79.4472050  90.1416490 111.9952770  79.3239830  90.1602620 111.0462280
  80.3956610  90.1895430 112.1151170  76.5348840 105.3771790 111.2680750
  76.7890340 105.3393180 110.3460120  75.5861320 105.2505120 111.2609000
  84.2479410  91.0530490 119.3977900  83.7453010  91.7935890 119.7371710
  85.0636070  91.4414490 119.0814690  82.5401420  96.2963670 112.8439260
  81.5991560  96.3113900 113.0186950  82.8545490  95.5099630 113.2899560
  71.2129820  95.4108340 107.0876110  71.2933410  94.4635850 107.1993510
  72.1049570  95.7415220 107.1936770  84.5427000 103.4672520 114.5193520
  84.6674420 104.2903690 114.9917330  85.4092560 103.2563250 114.1717670
  72.0144530 105.5603730 114.1910650  72.7507010 105.0119190 114.4619220
  72.3985450 106.4259740 114.0516640  68.8990010 101.6277300 110.0652160
  67.9729790 101.8698440 110.0557570  69.3646440 102.4551560 109.9436910
  71.0202810 104.7449800 123.3796230  71.8215540 105.0661850 123.7931630
  70.5054630 104.3845380 124.1016140  75.1246840 104.7334040 106.0136220
  75.9175450 105.0222870 105.5618010  74.6051190 104.3026210 105.3348700
  84.1777010 103.9604170 107.4372960  83.8918520 103.5469310 106.6227140
  83.9796560 104.8891880 107.3173480  74.5502090  97.9748400 108.3785860
  74.9718510  97.8088270 109.2217250  74.6752930  97.1648630 107.8841000
  72.7129510  93.9544950 121.1856840  72.1825970  93.4635900 120.5580180
  73.3817580  94.3829150 120.6514770  73.2001810  90.9207320 121.2654130
  73.1058680  90.3028070 120.5405000  72.6199200  91.6473610 121.0384040
  75.4755470  92.6472420 121.5607620  76.0655160  92.3388270 122.2485440
  74.6575710  92.1752170 121.7167520  71.2673920 100.4524670 106.1451700
  71.7048790 100.9954340 106.8009280  71.7521650  99.6271620 106.1548040
  73.0781640 101.5722710 111.2573930  72.7777180 101.4487680 112.1577840
  72.9719130 100.7131300 110.8489660  84.6072110 103.6101290 120.6230900
  84.0074100 103.6693850 119.8794820  84.7366010 102.6706270 120.7527750
  68.8034360  96.6204520 112.6942470  68.1483200  96.3516160 112.0502170
  69.6412310  96.5109000 112.2444450  86.3089990  98.9516690 113.3076740
  86.6798820  98.1684010 112.9012710  86.9491920  99.6405790 113.1294040
  83.2923750 100.3353270 118.7207060  82.4783590 100.7650430 118.9832850
  83.6997950 100.9471680 118.1076110  69.8410290  97.0057090 117.2345810
  70.2083330  96.9184490 118.1141830  69.2721110  96.2423640 117.1352670
  84.6414150  95.4741470 120.2476280  84.4100240  95.2454220 119.3474230
  84.9018700  96.3941020 120.2021170  69.3926290  93.9166180 121.1404230
  68.4982340  93.8832940 121.4797940  69.9323840  94.1152970 121.9055480
  68.0172440  93.8303450 108.6367800  67.1136520  94.0933650 108.4619460
  68.5013060  94.1014620 107.8567760  84.5265490  94.5527440 113.9144000
  85.0502970  94.0590090 113.2834170  85.1124910  94.6877800 114.6591570
  70.5599650  92.8868990 106.5462180  71.2691350  92.4652210 106.0609460
  69.8439590  92.9544220 105.9145530  69.8966000  88.1914510 115.4887450
  70.5442190  87.6411890 115.0482610  70.3167840  88.4457660 116.3103260
  85.4452620  92.4461740 112.3874090  85.3351900  92.2917780 113.3256360
  86.2060210  91.9182680 112.1449500  83.3499800 105.0871870 112.2475330
  83.9458870 104.7656440 111.5709750  83.6077950 104.6143690 113.0388600
  69.6498000  88.3470180 118.2312770  69.3012820  88.8034000 118.9970950
  69.3185700  87.4527310 118.3135200  71.2562370 101.5189780 122.3965960
  71.2132000 101.1482690 123.2780420  71.3873380 102.4567350 122.5367780
  74.9568400 103.0749370 117.9975680  74.7159760 103.3423930 117.1106200
  75.8971040 103.2455100 118.0526540  70.3218640  87.8746380 121.5063540
  70.8701630  87.6934430 120.7429650  70.3873950  87.0840490 122.0419850
  71.0950400 104.4652030 119.5163740  70.5010720 104.3336730 120.2553780
  71.0874240 103.6290170 119.0505840  70.7262630 101.8310410 118.4671780
  69.9996690 101.2115700 118.3997730  70.7871780 102.2251020 117.5969860
  74.3307730 104.0455410 115.2521190  74.8472750 103.4342770 114.7269450
  74.9805110 104.5484190 115.7432200  82.8401310  89.3777200 114.7035770
  83.2809400  89.3222300 113.8557370  82.5708900  90.2935210 114.7745950
  84.7039880  89.0092440 112.7144590  84.6428280  88.0653660 112.5675610
  85.4831910  89.1172530 113.2598050  69.6320650  88.9801580 109.1800400
  70.3900010  89.0930460 108.6064430  69.1697820  89.8170780 109.1343830
  76.1734460  91.0940850 112.1702710  75.3608970  90.7197740 111.8298590
  76.6776100  90.3385930 112.4723900  80.6759440  87.7583300 113.4085780
  81.2788810  88.3303510 113.8834300  79.9352430  88.3222740 113.1859680
  83.8194040  88.1604860 108.6826060  84.0144670  89.0588310 108.9493490
  83.0323910  87.9291940 109.1759010  70.6155330 103.8418030 109.1218680
  70.0902950 104.2226060 108.4180640  70.5399910 104.4668800 109.8428390
  74.1983640  89.2440770 110.7747760  73.5686380  88.5428080 110.9417890
  73.6588780  90.0044900 110.5580920  85.3720650 105.4005570 110.4432620
  85.5472840 104.7143310 109.7993540  84.6742220 105.9252620 110.0509290
  74.3239200  88.5224750 123.2100250  74.0423470  89.0258350 122.4461070
  74.7058900  87.7246500 122.8442380  73.2148300 105.7900410 107.9967930
  73.9467120 105.5059690 107.4491820  73.4741970 105.5513690 108.8867310
  72.3763090 101.9065140 108.0014260  71.7471970 102.3750240 108.5500090
  72.4910920 101.0614360 108.4360450  68.8902510 105.4126030  69.5447240
  69.2500150 106.0115370  68.8904510  68.7494850 105.9585920  70.3182270
  77.9630850  97.7349820  58.4837750  77.1872950  97.2550260  58.7736320
  78.6143780  97.0555470  58.3093910  71.9597940 102.0809720  59.5571530
  72.2625980 101.1907460  59.3781750  72.7041530 102.6379940  59.3293780
  78.2101590 104.4268020  56.8840870  77.5913030 104.8825520  56.3135310
  79.0653370 104.5819480  56.4830570  77.4039840 100.4107010  58.4907910
  77.3348120  99.4696950  58.3297040  78.1659700 100.5008420  59.0630480
  79.0764940  99.3107260  54.2772780  78.4582210  99.7756710  53.7135500
  79.5888190 100.0034740  54.6942290  68.4448140  99.9963790  51.6512410
  68.0676120 100.4850890  50.9197310  68.7021210 100.6689070  52.2818940
  85.5217530  92.0983000  58.8141930  84.5742440  92.1321980  58.9457360
  85.8467520  92.9121950  59.1991290  81.6052130 104.1147470  59.4005380
  81.6179290 103.7109760  58.5327640  81.0527350 104.8894760  59.2966810
  78.4417830  96.4629010  53.8458040  77.5147110  96.3966390  54.0746510
  78.5942650  97.4009140  53.7313280  82.4715120  98.0249310  54.3493290
  81.8527540  97.6868860  53.7019590  82.4539570  97.3809070  55.0572480
  82.6041780 104.2493180  62.4540080  82.1272340 105.0565370  62.2612690
  81.9203570 103.5971510  62.6066290  80.6479820  97.2636120  51.3566040
  81.0873100  96.4258550  51.2103860  81.3608240  97.8965520  51.4430180
  78.7575200 102.2032190  55.3247280  79.1971110 102.9456520  54.9102670
  78.6962090 102.4458760  56.2486240  79.4490980 104.9045970  63.2526290
  79.9635650 104.8153980  64.0548720  78.6060060 105.2505670  63.5454200
  81.4245380 105.1901310  52.6810290  81.2646520 104.9004250  53.5792120
  81.2592090 104.4141440  52.1455520  73.9033760 104.9699840  54.4581910
  73.7276240 104.0535380  54.2449710  73.0489500 105.3287130  54.6979710
  81.1271510 102.6988870  51.2408290  80.4336670 102.6966160  50.5810570
  81.8694370 102.2748190  50.8102460  80.6921440 104.3251580  55.3156780
  81.1478390 103.5440960  55.6295400  81.0313960 105.0358400  55.8597960
  77.4148170 100.5012300  51.9409120  77.7563870 101.2454530  51.4452440
  76.5860880 100.8143420  52.3033950  83.6901850  95.6400450  50.7300810
  83.6065570  96.0714670  49.8797250  84.4096040  96.0998800  51.1627630
  84.7675990  98.0967970  63.8070780  84.0424180  98.6896750  63.6100170
  85.2951450  98.0891510  63.0084150  77.9898680 103.0978200  61.5542700
  78.6340900 103.3037580  62.2316120  78.3528120 102.3366600  61.1013550
  79.2630760 101.1010550  60.2720150  79.9052990 100.4003710  60.3852320
  79.7880110 101.8808990  60.0917040  83.1086480 101.3859170  49.9959290
  82.8824060 100.6689610  50.5883930  82.7182680 101.1371610  49.1581040
  82.6902730  99.3031110  51.6573450  82.4024430  99.7643800  52.4451330
  83.4854900  98.8428880  51.9257670  74.9071130 102.7957230  51.5877420
  74.8981230 103.5286920  50.9721930  73.9869490 102.5488810  51.6804380
  77.8930730 102.8585470  50.2502610  77.9942710 102.6549460  49.3204590
  76.9932470 102.6043750  50.4550390  76.5348840 105.3771790  54.9450280
  76.7890340 105.3393180  54.0229650  75.5861320 105.2505120  54.9378530
  82.5401420  96.2963670  56.5208790  81.5991560  96.3113900  56.6956480
  82.8545490  95.5099630  56.9669090  75.1246840 104.7334040  49.6905750
  75.9175450 105.0222870  49.2387540  74.6051190 104.3026210  49.0118230
  81.2867810 104.5809960  65.6150580  82.2389560 104.4967980  65.5650820
  81.1396030 105.2451670  66.2884370  84.1777010 103.9604170  51.1142490
  83.8918520 103.5469310  50.2996670  83.9796560 104.8891880  50.9943010
  75.6424240  99.9537450  49.5548100  75.5374880  99.3389800  50.2809480
  75.4748460  99.4303340  48.7711110  78.8826970  99.0157480  50.1590090
  78.3337070  99.4626780  50.8032830  79.5046230  98.5106730  50.6827760
  74.5502090  97.9748400  52.0555390  74.9718510  97.8088270  52.8986780
  74.6752930  97.1648630  51.5610530  77.0792430 105.9139110  63.9707870
  77.0051130 106.8174250  64.2780240  76.1771270 105.5951010  63.9429940
  77.6277760 105.0797620  51.5934230  78.5228550 105.4182590  51.6152990
  77.6595390 104.3577030  50.9658510  71.2673920 100.4524670  49.8221230
  71.7048790 100.9954340  50.4778810  71.7521650  99.6271620  49.8317570
  68.4819720 103.2413700  57.2741490  68.8122730 102.3734760  57.0420130
  68.9110720 103.4472220  58.1046450  84.6072110 103.6101290  64.3000430
  84.0074100 103.6693850  63.5564350  84.7366010 102.6706270  64.4297280
  85.2514530  96.3269950  54.2906290  84.8758130  95.5597880  53.8587580
  84.5217650  96.7092650  54.7781220  84.5265490  94.5527440  57.5913530
  85.0502970  94.0590090  56.9603700  85.1124910  94.6877800  58.3361100
  84.7055210  94.6367310  61.1133080  83.7557920  94.6030850  61.2278070
  84.8868220  95.5467420  60.8782850  84.0165460  93.8100790  53.5305940
  84.5124580  93.5771660  54.3154820  83.8181530  92.9712630  53.1143580
  86.3342890  90.2769660  49.3049760  87.2592200  90.1450840  49.0968050
  86.3118680  90.3562480  50.2586210  83.3499800 105.0871870  55.9244860
  83.9458870 104.7656440  55.2479280  83.6077950 104.6143690  56.7158130
  86.2172560 105.0943750  62.4755850  85.7230840 105.4912620  61.7582980
  85.6085850 104.4692960  62.8693130  83.9012010 105.7367170  59.7542590
  83.4414980 106.4882980  59.3800610  83.2724470 105.0173640  59.6957390
  77.0703230 104.9363900  59.7559700  77.3581040 104.6818200  58.8792710
  77.5826450 104.3841260  60.3465270  69.0092630 105.1484800  55.3538070
  68.8414670 104.5155480  56.0519960  68.1427140 105.3544200  55.0032260
  70.6155330 103.8418030  52.7988210  70.0902950 104.2226060  52.0950170
  70.5399910 104.4668800  53.5197920  85.3720650 105.4005570  54.1202150
  85.5472840 104.7143310  53.4763070  84.6742220 105.9252620  53.7278820
  72.3763090 101.9065140  51.6783790  71.7471970 102.3750240  52.2269620
  72.4910920 101.0614360  52.1129980  83.7053150 105.0849860  66.9468940
  84.4978470 104.5899090  66.7394900  83.9986300 105.7640000  67.5544550
  79.8312810  95.9570800  37.8284990  79.7506860  95.0425410  37.5576700
  79.4177230  96.4537870  37.1224700  71.9796680  98.0469630  40.5870020
  71.1481560  97.7918340  40.9866530  72.5877660  98.1180400  41.3227940
  71.9597940 102.0809720  40.7828040  72.2625980 101.1907460  40.6038260
  72.7041530 102.6379940  40.5550290  78.4345010  93.2177390  39.9433350
  78.8109830  92.3449270  39.8307020  78.3364520  93.5536090  39.0523790
  72.5650020  91.5903020  35.4050790  72.6716770  92.4906750  35.7119550
  71.6542380  91.5420990  35.1145440  82.2169130  90.7127830  36.8761690
  83.0378750  90.2224400  36.9187170  82.2503210  91.3025490  37.6293530
  74.4057750  94.5589390  39.7375970  74.9135970  95.0570360  40.3780990
  74.9370990  93.7824590  39.5615330  86.5068680  92.7294580  43.4405320
  85.8020850  93.1176290  42.9220430  86.7726600  93.4244870  44.0426250
  73.9396700  98.8383130  42.1812890  73.6066080  99.4652050  42.8233960
  74.1163380  99.3645010  41.4014560  82.4530610  92.6528210  39.6489230
  81.7486180  92.9413100  40.2292340  82.8142770  93.4628320  39.2888790
  73.1515800 100.8063930  43.9962070  73.7689800 101.4815010  43.7146520
  72.2908920 101.2151910  43.9049570  68.4448140  99.9963790  32.8768920
  68.0676120 100.4850890  32.1453820  68.7021210 100.6689070  33.5075450
  84.0693390 102.2703340  41.9116710  83.3856910 102.9402450  41.9033380
  84.6087680 102.4683990  41.1461570  85.5217530  92.0983000  40.0398440
  84.5742440  92.1321980  40.1713870  85.8467520  92.9121950  40.4247800
  76.0537070  88.3980180  38.3354430  76.3612050  87.8427070  37.6189930
  75.1237770  88.5324640  38.1527420  78.4417830  96.4629010  35.0714550
  77.5147110  96.3966390  35.3003020  78.5942650  97.4009140  34.9569790
  74.0474470  96.9893750  37.8534280  73.6431470  96.2771000  37.3580180
  74.1337590  96.6446990  38.7422320  74.5156170 100.6761310  40.0173490
  74.2184460 100.0706780  39.3381270  75.4655990 100.7138620  39.9062850
  82.6041780 104.2493180  43.6796590  82.1272340 105.0565370  43.4869200
  81.9203570 103.5971510  43.8322800  73.6074600 100.4143000  46.6681290
  72.7103130 100.6382970  46.9154690  73.6327470 100.5377940  45.7192690
  74.2326170 103.2278020  47.4523810  74.2041600 103.6320970  46.5852240
  74.0691140 102.2988380  47.2895410  70.7479100  95.8838730  35.3540930
  70.6276700  96.6100820  34.7422200  70.4379990  95.1141640  34.8768840
  86.1840990 104.0105120  48.7487980  86.6600710 104.4888010  49.4277060
  86.8048150 103.9422610  48.0233480  69.6312100 100.7554060  37.5715750
  69.2240180 100.8968650  36.7169350  70.5225110 100.4714220  37.3686960
  85.5874240 101.2017970  45.9087990  85.7137300 100.9629850  44.9905170
  85.6295620 100.3702510  46.3810070  79.4490980 104.9045970  44.4782800
  79.9635650 104.8153980  45.2805230  78.6060060 105.2505670  44.7710710
  73.9033760 104.9699840  35.6838420  73.7276240 104.0535380  35.4706220
  73.0489500 105.3287130  35.9236220  85.4398250  93.2550430  46.8737730
  84.8242520  93.7630100  46.3453190  85.1194670  92.3548760  46.8163670
  73.0056980  94.3507370  36.4645850  72.7797900  94.1344540  37.3692470
  72.2249510  94.7835830  36.1191820  78.8419610  92.9934280  37.0939780
  79.2349180  93.3106480  36.2808470  79.2036460  92.1146160  37.2084300
  75.8652140  92.2594230  39.5943050  75.8688200  91.8184180  38.7447590
  76.7603260  92.5811560  39.7014870  79.8900660  91.0373710  40.6013500
  79.9073400  91.4882360  41.4455350  79.6416240  90.1379350  40.8146940
  83.3171410  88.4505890  46.4399880  83.6417180  87.7195550  46.9657860
  83.3527920  88.1319530  45.5380870  70.0162970  99.4719470  45.8599840
  69.6317760  98.8313140  46.4582800  70.3275160 100.1755590  46.4294570
  72.4841270  99.5665640  34.2559520  71.7103530  99.0263260  34.0958240
  73.2135900  99.0472250  33.9177280  72.5278670  99.2346020  37.8938330
  73.0457340  98.4314280  37.8395220  72.0762690  99.1725160  38.7355160
  78.5564780 101.4560630  45.6858710  78.5709320 100.5241590  45.4677620
  77.8489880 101.5420390  46.3248480  84.7675990  98.0967970  45.0327290
  84.0424180  98.6896750  44.8356680  85.2951450  98.0891510  44.2340660
  75.6866070  97.5871860  35.5506910  76.1428850  98.3977110  35.7767100
  75.3354280  97.2695000  36.3825400  77.9898680 103.0978200  42.7799210
  78.6340900 103.3037580  43.4572630  78.3528120 102.3366600  42.3270060
  71.5877850  87.9309510  36.0229430  71.4592480  87.9227410  36.9714350
  70.7639870  88.2692600  35.6720440  83.1086480 101.3859170  31.2215800
  82.8824060 100.6689610  31.8140440  82.7182680 101.1371610  30.3837550
  81.0368380 101.9005450  44.7012720  81.3724620 102.4872140  45.3790640
  80.1168720 101.7698160  44.9310510  68.8744370 103.6780890  46.4702660
  68.9835490 102.7375630  46.3298050  68.2224930 103.9435640  45.8216390
  76.8656960 101.9496780  47.8700780  76.5453830 101.2306020  48.4146470
  76.1915320 102.6251850  47.9436840  70.5077770  98.0172120  33.5580690
  69.9005720  98.7571020  33.5675990  70.9827120  98.1071480  32.7318890
  76.5348840 105.3771790  36.1706790  76.7890340 105.3393180  35.2486160
  75.5861320 105.2505120  36.1635040  84.2479410  91.0530490  44.3003940
  83.7453010  91.7935890  44.6397750  85.0636070  91.4414490  43.9840730
  72.0144530 105.5603730  39.0936690  72.7507010 105.0119190  39.3645260
  72.3985450 106.4259740  38.9542680  79.8567440 100.8529670  48.2297680
  79.2505600 100.8761270  47.4893430  79.5521550 100.1212710  48.7664930
  81.2867810 104.5809960  46.8407090  82.2389560 104.4967980  46.7907330
  81.1396030 105.2451670  47.5140880  84.1777010 103.9604170  32.3399000
  83.8918520 103.5469310  31.5253180  83.9796560 104.8891880  32.2199520
  75.7938560  98.6394250  46.7593840  75.0284230  99.2079250  46.6748510
  75.9754520  98.3470460  45.8662070  82.9361910 100.3699580  47.3168860
  83.6771380 100.7075340  46.8136320  82.1734590 100.5391640  46.7638630
  74.2230220 104.6787900  44.9377730  73.6851310 105.4033960  44.6186430
  74.4764180 104.2018240  44.1475070  77.0792430 105.9139110  45.1964380
  77.0051130 106.8174250  45.5036750  76.1771270 105.5951010  45.1686450
  77.6277760 105.0797620  32.8190740  78.5228550 105.4182590  32.8409500
  77.6595390 104.3577030  32.1915020  68.4819720 103.2413700  38.4998000
  68.8122730 102.3734760  38.2676640  68.9110720 103.4472220  39.3302960
  73.0781640 101.5722710  36.1599970  72.7777180 101.4487680  37.0603880
  72.9719130 100.7131300  35.7515700  68.9709930 104.1084290  41.2379630
  68.5340920 104.2885090  42.0703780  69.5387610 104.8658910  41.0961350
  84.6072110 103.6101290  45.5256940  84.0074100 103.6693850  44.7820860
  84.7366010 102.6706270  45.6553790  85.8473560 101.3519110  30.8626650
  85.0166520 101.4195760  31.3333880  86.0245390 102.2423230  30.5593510
  85.3030020  98.0966590  33.3660850  86.0648930  98.6663240  33.4720540
  85.3184390  97.5293790  34.1369160  68.8034360  96.6204520  37.5968510
  68.1483200  96.3516160  36.9528210  69.6412310  96.5109000  37.1470490
  86.3089990  98.9516690  38.2102780  86.6798820  98.1684010  37.8038750
  86.9491920  99.6405790  38.0320080  83.2923750 100.3353270  43.6233100
  82.4783590 100.7650430  43.8858890  83.6997950 100.9471680  43.0102150
  85.2514530  96.3269950  35.5162800  84.8758130  95.5597880  35.0844090
  84.5217650  96.7092650  36.0037730  84.5265490  94.5527440  38.8170040
  85.0502970  94.0590090  38.1860210  85.1124910  94.6877800  39.5617610
  85.4452620  92.4461740  37.2900130  85.3351900  92.2917780  38.2282400
  86.2060210  91.9182680  37.0475540  83.7918340  88.3855870  43.7483130
  84.4290560  88.9990010  44.1142320  83.9393230  88.4216530  42.8032360
  71.2562370 101.5189780  47.2992000  71.2132000 101.1482690  48.1806460
  71.3873380 102.4567350  47.4393820  74.9568400 103.0749370  42.9001720
  74.7159760 103.3423930  42.0132240  75.8971040 103.2455100  42.9552580
  86.2172560 105.0943750  43.7012360  85.7230840 105.4912620  42.9839490
  85.6085850 104.4692960  44.0949640  71.0950400 104.4652030  44.4189780
  70.5010720 104.3336730  45.1579820  71.0874240 103.6290170  43.9531880
  80.5405420  87.7584260  42.6219810  79.6665260  88.0919370  42.4192740
  80.4316170  87.2857440  43.4471680  83.9012010 105.7367170  40.9799100
  83.4414980 106.4882980  40.6057120  83.2724470 105.0173640  40.9213900
  70.7262630 101.8310410  43.3697820  69.9996690 101.2115700  43.3023770
  70.7871780 102.2251020  42.4995900  74.3307730 104.0455410  40.1547230
  74.8472750 103.4342770  39.6295490  74.9805110 104.5484190  40.6458240
  77.0703230 104.9363900  40.9816210  77.3581040 104.6818200  40.1049220
  77.5826450 104.3841260  41.5721780  82.8401310  89.3777200  39.6061810
  83.2809400  89.3222300  38.7583410  82.5708900  90.2935210  39.6771990
  84.7039880  89.0092440  37.6170630  84.6428280  88.0653660  37.4701650
  85.4831910  89.1172530  38.1624090  69.0092630 105.1484800  36.5794580
  68.8414670 104.5155480  37.2776470  68.1427140 105.3544200  36.2288770
  69.6320650  88.9801580  34.0826440  70.3900010  89.0930460  33.5090470
  69.1697820  89.8170780  34.0369870  76.1734460  91.0940850  37.0728750
  75.3608970  90.7197740  36.7324630  76.6776100  90.3385930  37.3749940
  80.6759440  87.7583300  38.3111820  81.2788810  88.3303510  38.7860340
  79.9352430  88.3222740  38.0885720  74.1983640  89.2440770  35.6773800
  73.5686380  88.5428080  35.8443930  73.6588780  90.0044900  35.4606960
  77.1375590 105.8580000  48.3484410  78.0642900 105.6224270  48.3920370
  77.1226020 106.6852000  47.8670440  85.3720650 105.4005570  35.3458660
  85.5472840 104.7143310  34.7019580  84.6742220 105.9252620  34.9535330
  83.7053150 105.0849860  48.1725450  84.4978470 104.5899090  47.9651410
  83.9986300 105.7640000  48.7801060  71.9796680  98.0469630  21.8126530
  71.1481560  97.7918340  22.2123040  72.5877660  98.1180400  22.5484450
  74.4057750  94.5589390  20.9632480  74.9135970  95.0570360  21.6037500
  74.9370990  93.7824590  20.7871840  73.9396700  98.8383130  23.4069400
  73.6066080  99.4652050  24.0490470  74.1163380  99.3645010  22.6271070
  82.4530610  92.6528210  20.8745740  81.7486180  92.9413100  21.4548850
  82.8142770  93.4628320  20.5145300  68.4448140  99.9963790  14.1025430
  68.0676120 100.4850890  13.3710330  68.7021210 100.6689070  14.7331960
  85.5217530  92.0983000  21.2654950  84.5742440  92.1321980  21.3970380
  85.8467520  92.9121950  21.6504310  82.8997550 100.8363690  16.9408570
  82.7893880  99.8938020  17.0657990  82.8965800 101.1979330  17.8271330
  84.9499670  97.4164530  23.2717250  84.1218300  97.4857620  22.7967380
  85.5450150  98.0018840  22.8033080  74.0474470  96.9893750  19.0790790
  73.6431470  96.2771000  18.5836690  74.1337590  96.6446990  19.9678830
  72.4345820  97.2856320  26.4695170  72.2953590  98.1579120  26.8382570
  71.5527180  96.9429130  26.3243110  70.7479100  95.8838730  16.5797440
  70.6276700  96.6100820  15.9678710  70.4379990  95.1141640  16.1025350
  86.1840990 104.0105120  29.9744490  86.6600710 104.4888010  30.6533570
  86.8048150 103.9422610  29.2489990  68.3864470  99.0553870  22.3866080
  68.4644890  99.1902640  21.4421800  69.0006150  98.3469760  22.5794200
  69.6312100 100.7554060  18.7972260  69.2240180 100.8968650  17.9425860
  70.5225110 100.4714220  18.5943470  81.4245380 105.1901310  15.1323310
  81.2646520 104.9004250  16.0305140  81.2592090 104.4141440  14.5968540
  73.9033760 104.9699840  16.9094930  73.7276240 104.0535380  16.6962730
  73.0489500 105.3287130  17.1492730  81.1271510 102.6988870  13.6921310
  80.4336670 102.6966160  13.0323590  81.8694370 102.2748190  13.2615480
  80.6921440 104.3251580  17.7669800  81.1478390 103.5440960  18.0808420
  81.0313960 105.0358400  18.3110980  68.4423990 100.0968040  24.9260540
  68.6055030  99.6273400  24.1079910  68.9076440  99.5891600  25.5909380
  73.2142760  89.2273800  19.9621110  72.7710910  90.0083340  19.6305630
  73.7727750  89.5503690  20.6692050  76.3301580  88.8484500  14.8426940
  75.7055760  88.8444370  15.5680250  76.2431700  87.9815460  14.4462910
  73.0056980  94.3507370  17.6902360  72.7797900  94.1344540  18.5948980
  72.2249510  94.7835830  17.3448330  68.0654010  93.5255200  11.7529210
  67.9828680  94.4685960  11.8944200  67.7137070  93.3830110  10.8741560
  70.0162970  99.4719470  27.0856350  69.6317760  98.8313140  27.6839310
  70.3275160 100.1755590  27.6551080  73.9559480  95.3604650  24.8849180
  73.6516550  96.2396630  25.1099540  74.9105940  95.4204440  24.9206620
  72.4841270  99.5665640  15.4816030  71.7103530  99.0263260  15.3214750
  73.2135900  99.0472250  15.1433790  78.6248050  98.6340060  27.1611420
  78.5585360  97.7135730  26.9069010  77.9953190  98.7315500  27.8756060
  72.5278670  99.2346020  19.1194840  73.0457340  98.4314280  19.0651730
  72.0762690  99.1725160  19.9611670  77.4148170 100.5012300  14.3922140
  77.7563870 101.2454530  13.8965460  76.5860880 100.8143420  14.7546970
  70.0123210  96.2007390  26.0320540  69.6538150  96.8661240  26.6193880
  69.7177770  95.3690940  26.4033160  73.2136330  96.6591630  28.9160090
  72.9136470  96.8048810  28.0187910  73.9847570  96.0996920  28.8233480
  83.6901850  95.6400450  13.1813830  83.6065570  96.0714670  12.3310270
  84.4096040  96.0998800  13.6140650  84.7189100 102.4942710  15.9095960
  84.0765260 101.8398330  16.1839680  84.3319760 102.8997800  15.1336630
  76.3838860 100.5825830  17.1638060  77.0709990 101.1295040  17.5445650
  75.5971280 101.1266560  17.1987670  68.5231260  96.1998650  12.6555140
  69.3926110  96.4823450  12.9391060  68.0321580  97.0134520  12.5403950
  83.1086480 101.3859170  12.4472310  82.8824060 100.6689610  13.0396950
  82.7182680 101.1371610  11.6094060  68.8902510 105.4126030  13.2216770
  69.2500150 106.0115370  12.5674040  68.7494850 105.9585920  13.9951800
  82.6902730  99.3031110  14.1086470  82.4024430  99.7643800  14.8964350
  83.4854900  98.8428880  14.3770690  74.9071130 102.7957230  14.0390440
  74.8981230 103.5286920  13.4234950  73.9869490 102.5488810  14.1317400
  70.5077770  98.0172120  14.7837200  69.9005720  98.7571020  14.7932500
  70.9827120  98.1071480  13.9575400  77.8930730 102.8585470  12.7015630
  77.9942710 102.6549460  11.7717610  76.9932470 102.6043750  12.9063410
  76.5348840 105.3771790  17.3963300  76.7890340 105.3393180  16.4742670
  75.5861320 105.2505120  17.3891550  73.6191640  91.7250910  14.0590240
  74.4682170  92.1621060  13.9930430  73.2522910  92.0371170  14.8862300
  84.2479410  91.0530490  25.5260450  83.7453010  91.7935890  25.8654260
  85.0636070  91.4414490  25.2097240  72.5183060  97.9783270  12.5325770
  73.2846330  97.8664630  13.0951200  72.5957750  97.2821240  11.8802540
  71.2129820  95.4108340  13.2158660  71.2933410  94.4635850  13.3276060
  72.1049570  95.7415220  13.3219320  68.8990010 101.6277300  16.1934710
  67.9729790 101.8698440  16.1840120  69.3646440 102.4551560  16.0719460
  75.1246840 104.7334040  12.1418770  75.9175450 105.0222870  11.6900560
  74.6051190 104.3026210  11.4631250  84.1777010 103.9604170  13.5655510
  83.8918520 103.5469310  12.7509690  83.9796560 104.8891880  13.4456030
  75.6424240  99.9537450  12.0061120  75.5374880  99.3389800  12.7322500
  75.4748460  99.4303340  11.2224130  76.3722800  98.3734890  25.0476510
  76.7910910  99.2167620  24.8752750  75.4531430  98.5106930  24.8183290
  78.7086700  96.1051070  26.4314350  78.8282910  95.5092210  27.1709190
  79.5680700  96.1420760  26.0115650  73.4460990  94.0481630  11.4526570
  73.2450050  93.1848990  11.8139910  73.2753040  93.9614990  10.5148170
  72.2443790  91.1482250  11.4404450  72.5469690  91.1549680  10.5323600
  72.9838380  90.7980110  11.9372110  75.4628720  90.0916870  12.4260650
  75.1150720  89.4140860  11.8463100  75.6641490  89.6306380  13.2404040
  77.6277760 105.0797620  14.0447250  78.5228550 105.4182590  14.0666010
  77.6595390 104.3577030  13.4171530  71.2673920 100.4524670  12.2734250
  71.7048790 100.9954340  12.9291830  71.7521650  99.6271620  12.2830590
  68.4819720 103.2413700  19.7254510  68.8122730 102.3734760  19.4933150
  68.9110720 103.4472220  20.5559470  73.0781640 101.5722710  17.3856480
  72.7777180 101.4487680  18.2860390  72.9719130 100.7131300  16.9772210
  68.9709930 104.1084290  22.4636140  68.5340920 104.2885090  23.2960290
  69.5387610 104.8658910  22.3217860  85.8473560 101.3519110  12.0883160
  85.0166520 101.4195760  12.5590390  86.0245390 102.2423230  11.7850020
  85.3030020  98.0966590  14.5917360  86.0648930  98.6663240  14.6977050
  85.3184390  97.5293790  15.3625670  86.3089990  98.9516690  19.4359290
  86.6798820  98.1684010  19.0295260  86.9491920  99.6405790  19.2576590
  85.3549190  98.3900960  11.7489880  85.6298030  99.2979840  11.6209100
  85.1659930  98.3263490  12.6851870  85.2514530  96.3269950  16.7419310
  84.8758130  95.5597880  16.3100600  84.5217650  96.7092650  17.2294240
  69.8410290  97.0057090  23.3628360  70.2083330  96.9184490  24.2424380
  69.2721110  96.2423640  23.2635220  84.5265490  94.5527440  20.0426550
  85.0502970  94.0590090  19.4116720  85.1124910  94.6877800  20.7874120
  84.7055210  94.6367310  23.5646100  83.7557920  94.6030850  23.6791090
  84.8868220  95.5467420  23.3295870  70.5599650  92.8868990  12.6744730
  71.2691350  92.4652210  12.1892010  69.8439590  92.9544220  12.0428080
  70.2073810  88.9408320  11.7147380  70.9301940  89.4817260  12.0328600
  70.4798330  88.6671740  10.8388920  84.0165460  93.8100790  15.9818960
  84.5124580  93.5771660  16.7667840  83.8181530  92.9712630  15.5656600
  83.7918340  88.3855870  24.9739640  84.4290560  88.9990010  25.3398830
  83.9393230  88.4216530  24.0288870  86.3342890  90.2769660  11.7562780
  87.2592200  90.1450840  11.5481070  86.3118680  90.3562480  12.7099230
  86.4081380  91.0480320  14.3819490  85.6132880  90.9825440  14.9112400
  86.6124660  91.9830960  14.3704840  80.5405420  87.7584260  23.8476320
  79.6665260  88.0919370  23.6449250  80.4316170  87.2857440  24.6728190
  81.4477400  89.9655130  25.2318040  81.1190760  89.1506890  24.8519770
  82.3959700  89.9224940  25.1083730  69.0092630 105.1484800  17.8051090
  68.8414670 104.5155480  18.5032980  68.1427140 105.3544200  17.4545280
  70.6155330 103.8418030  15.2501230  70.0902950 104.2226060  14.5463190
  70.5399910 104.4668800  15.9710940  72.0045800  89.5065630  13.8484920
  72.5338560  88.7195430  13.7192870  72.6374120  90.1856820  14.0820450
  74.1983640  89.2440770  16.9030310  73.5686380  88.5428080  17.0700440
  73.6588780  90.0044900  16.6863470  77.1375590 105.8580000  29.5740920
  78.0642900 105.6224270  29.6176880  77.1226020 106.6852000  29.0926950
  73.2148300 105.7900410  14.1250480  73.9467120 105.5059690  13.5774370
  73.4741970 105.5513690  15.0149860  72.3763090 101.9065140  14.1296810
  71.7471970 102.3750240  14.6782640  72.4910920 101.0614360  14.5643000
  83.7053150 105.0849860  29.3981960  84.4978470 104.5899090  29.1907920
  83.9986300 105.7640000  30.0057570  77.9630850  97.7349820   2.1607280
  77.1872950  97.2550260   2.4505850  78.6143780  97.0555470   1.9863440
  71.9796680  98.0469630   3.0383040  71.1481560  97.7918340   3.4379550
  72.5877660  98.1180400   3.7740960  71.9597940 102.0809720   3.2341060
  72.2625980 101.1907460   3.0551280  72.7041530 102.6379940   3.0063310
  68.3521640  95.6077170   2.7065130  68.9237750  94.8399370   2.7068770
  68.3523180  95.9065930   1.7971740  77.4039840 100.4107010   2.1677440
  77.3348120  99.4696950   2.0066570  78.1659700 100.5008420   2.7400010
  69.5946510  91.0161530   4.4934060  69.4149350  90.1187280   4.7736820
  69.1926590  91.5633400   5.1681010  70.2133180  93.5122030   3.1016400
  70.8943290  93.7760400   3.7203800  69.8981230  92.6722900   3.4354410
  74.4057750  94.5589390   2.1888990  74.9135970  95.0570360   2.8294010
  74.9370990  93.7824590   2.0128350  86.5068680  92.7294580   5.8918340
  85.8020850  93.1176290   5.3733450  86.7726600  93.4244870   6.4939270
  72.6893850  89.1987950   6.4552410  72.6912290  89.7160340   5.6498310
  71.8598160  88.7218130   6.4322340  73.9396700  98.8383130   4.6325910
  73.6066080  99.4652050   5.2746980  74.1163380  99.3645010   3.8527580
  82.4530610  92.6528210   2.1002250  81.7486180  92.9413100   2.6805360
  82.8142770  93.4628320   1.7401810  72.3709180  90.9097910   4.4622860
  72.7125990  91.7539960   4.1676730  71.4324990  91.0581650   4.5788200
  73.1515800 100.8063930   6.4475090  73.7689800 101.4815010   6.1659540
  72.2908920 101.2151910   6.3562590  84.0693390 102.2703340   4.3629730
  83.3856910 102.9402450   4.3546400  84.6087680 102.4683990   3.5974590
  85.5217530  92.0983000   2.4911460  84.5742440  92.1321980   2.6226890
  85.8467520  92.9121950   2.8760820  81.6052130 104.1147470   3.0774910
  81.6179290 103.7109760   2.2097170  81.0527350 104.8894760   2.9736340
  81.0037570  99.0177310   4.4057520  81.4206360  98.8037420   3.5710980
  81.7277390  99.2750100   4.9766140  84.9499670  97.4164530   4.4973760
  84.1218300  97.4857620   4.0223890  85.5450150  98.0018840   4.0289590
  81.9141680  94.2033850   5.4428630  81.5012860  95.0287560   5.6968620
  81.1817630  93.6178890   5.2504990  74.5156170 100.6761310   2.4686510
  74.2184460 100.0706780   1.7894290  75.4655990 100.7138620   2.3575870
  72.7603090  93.7636960   4.0846340  73.3117680  93.8732300   3.3099590
  73.2746600  94.1374560   4.8001570  82.6041780 104.2493180   6.1309610
  82.1272340 105.0565370   5.9382220  81.9203570 103.5971510   6.2835820
  73.6074600 100.4143000   9.1194310  72.7103130 100.6382970   9.3667710
  73.6327470 100.5377940   8.1705710  72.4345820  97.2856320   7.6951680
  72.2953590  98.1579120   8.0639080  71.5527180  96.9429130   7.5499620
  74.2326170 103.2278020   9.9036830  74.2041600 103.6320970   9.0365260
  74.0691140 102.2988380   9.7408430  86.1840990 104.0105120  11.2001000
  86.6600710 104.4888010  11.8790080  86.8048150 103.9422610  10.4746500
  68.3864470  99.0553870   3.6122590  68.4644890  99.1902640   2.6678310
  69.0006150  98.3469760   3.8050710  85.5874240 101.2017970   8.3601010
  85.7137300 100.9629850   7.4418190  85.6295620 100.3702510   8.8323090
  79.4490980 104.9045970   6.9295820  79.9635650 104.8153980   7.7318250
  78.6060060 105.2505670   7.2223730  85.4398250  93.2550430   9.3250750
  84.8242520  93.7630100   8.7966210  85.1194670  92.3548760   9.2676690
  68.4423990 100.0968040   6.1517050  68.6055030  99.6273400   5.3336420
  68.9076440  99.5891600   6.8165890  77.5012570  92.0942320   6.7912940
  77.0391940  92.3025340   7.6032880  77.0990680  91.2801670   6.4883610
  82.5017080  93.3151270   7.9209600  81.6510670  93.0157020   8.2418670
  82.3418870  93.5593280   7.0093420  79.5966790  94.8153020  10.0208390
  79.9220200  93.9816770   9.6810620  80.3847120  95.3381540  10.1686720
  75.2518660  89.7721130   3.0467220  75.5490990  90.6783960   2.9659240
  75.8004220  89.2839910   2.4326790  75.4456190  95.2492950   9.5819140
  75.3499790  94.3087680   9.4319540  76.2888170  95.4708020   9.1867210
  70.5766730  91.6606620   7.7352920  70.1830120  92.5081830   7.9425700
  69.8885130  91.0232990   7.9261560  77.1511780  91.7441590  10.8049660
  76.4610100  91.5513790  11.4395750  77.8944080  92.0276230  11.3373960
  67.8783780  89.5835080   1.7683000  67.5896830  90.1537940   2.4807980
  68.6229540  89.1039530   2.1314230  79.4274750  95.5840030   3.6403580
  78.6955870  96.0926840   3.9893680  79.0299090  94.7670010   3.3392360
  79.8900660  91.0373710   3.0526520  79.9073400  91.4882360   3.8968370
  79.6416240  90.1379350   3.2659960  83.3171410  88.4505890   8.8912900
  83.6417180  87.7195550   9.4170880  83.3527920  88.1319530   7.9893890
  70.0162970  99.4719470   8.3112860  69.6317760  98.8313140   8.9095820
  70.3275160 100.1755590   8.8807590  76.1660110  96.3196010   3.7921480
  76.5330240  95.8454580   4.5382820  75.9765170  97.1937580   4.1329820
  73.9559480  95.3604650   6.1105690  73.6516550  96.2396630   6.3356050
  74.9105940  95.4204440   6.1463130  83.2429250  98.5631000   2.4998930
  83.9628370  99.0586290   2.1095040  83.0411070  97.8848890   1.8552800
  78.6248050  98.6340060   8.3867930  78.5585360  97.7135730   8.1325520
  77.9953190  98.7315500   9.1012570  70.0123210  96.2007390   7.2577050
  69.6538150  96.8661240   7.8450390  69.7177770  95.3690940   7.6289670
  73.2136330  96.6591630  10.1416600  72.9136470  96.8048810   9.2444420
  73.9847570  96.0996920  10.0489990  78.5564780 101.4560630   8.1371730
  78.5709320 100.5241590   7.9190640  77.8489880 101.5420390   8.7761500
  84.7675990  98.0967970   7.4840310  84.0424180  98.6896750   7.2869700
  85.2951450  98.0891510   6.6853680  77.9898680 103.0978200   5.2312230
  78.6340900 103.3037580   5.9085650  78.3528120 102.3366600   4.7783080
  79.2630760 101.1010550   3.9489680  79.9052990 100.4003710   4.0621850
  79.7880110 101.8808990   3.7686570  81.0368380 101.9005450   7.1525740
  81.3724620 102.4872140   7.8303660  80.1168720 101.7698160   7.3823530
  68.5871780  89.6900630   7.9349150  67.8730300  89.8897550   8.5401760
  69.0066820  88.9140200   8.3063950  68.8744370 103.6780890   8.9215680
  68.9835490 102.7375630   8.7811070  68.2224930 103.9435640   8.2729410
  76.8656960 101.9496780  10.3213800  76.5453830 101.2306020  10.8659490
  76.1915320 102.6251850  10.3949860  80.0810560  92.1822940   5.6850600
  80.4491380  91.3618150   6.0130170  79.2208760  92.2424830   6.1006250
  77.0412550  94.8362530   5.9088570  77.5397800  95.3108350   6.5740420
  77.1835500  93.9126050   6.1158600  84.2479410  91.0530490   6.7516960
  83.7453010  91.7935890   7.0910770  85.0636070  91.4414490   6.4353750
  71.0202810 104.7449800  10.7335290  71.8215540 105.0661850  11.1470690
  70.5054630 104.3845380  11.4555200  79.8567440 100.8529670  10.6810700
  79.2505600 100.8761270   9.9406450  79.5521550 100.1212710  11.2177950
  81.2867810 104.5809960   9.2920110  82.2389560 104.4967980   9.2420350
  81.1396030 105.2451670   9.9653900  68.7400620  97.2323260   9.6771340
  69.2439640  96.6530540  10.2487570  68.0008040  97.5163490  10.2147710
  75.7938560  98.6394250   9.2106860  75.0284230  99.2079250   9.1261530
  75.9754520  98.3470460   8.3175090  82.9361910 100.3699580   9.7681880
  83.6771380 100.7075340   9.2649340  82.1734590 100.5391640   9.2151650
  70.7723700  95.3752850  10.5721410  70.8129040  95.0766720  11.4806640
  71.6269200  95.7760460  10.4128930  72.7129510  93.9544950   8.5395900
  72.1825970  93.4635900   7.9119240  73.3817580  94.3829150   8.0053830
  81.6107570  98.4214410   8.3037090  82.0248590  98.5759490   9.1527510
  80.6758570  98.5469630   8.4662870  82.0829740  95.7610570  10.3076240
  82.6650510  95.0062890  10.2196720  82.2591510  96.2918010   9.5307720
  73.2001810  90.9207320   8.6193190  73.1058680  90.3028070   7.8944060
  72.6199200  91.6473610   8.3923100  75.9663250  89.4780560   5.6520580
  75.5180550  89.5004820   4.8066130  75.3328450  89.0799580   6.2490880
  76.3722800  98.3734890   6.2733020  76.7910910  99.2167620   6.1009260
  75.4531430  98.5106930   6.0439800  78.7086700  96.1051070   7.6570860
  78.8282910  95.5092210   8.3965700  79.5680700  96.1420760   7.2372160
  81.0474600  96.6588260   6.2333370  80.5209820  97.1830880   5.6298510
  81.3905940  97.2915650   6.8643100  74.2230220 104.6787900   7.3890750
  73.6851310 105.4033960   7.0699450  74.4764180 104.2018240   6.5988090
  75.4755470  92.6472420   8.9146680  76.0655160  92.3388270   9.6024500
  74.6575710  92.1752170   9.0706580  80.2948900  92.2638230   9.1479700
  79.6064420  91.6019770   9.0829690  81.0154920  91.8176500   9.5928160
  77.0792430 105.9139110   7.6477400  77.0051130 106.8174250   7.9549770
  76.1771270 105.5951010   7.6199470  68.9709930 104.1084290   3.6892650
  68.5340920 104.2885090   4.5216800  69.5387610 104.8658910   3.5474370
  84.6072110 103.6101290   7.9769960  84.0074100 103.6693850   7.2333880
  84.7366010 102.6706270   8.1066810  83.2923750 100.3353270   6.0746120
  82.4783590 100.7650430   6.3371910  83.6997950 100.9471680   5.4615170
  69.8410290  97.0057090   4.5884870  70.2083330  96.9184490   5.4680890
  69.2721110  96.2423640   4.4891730  84.6414150  95.4741470   7.6015340
  84.4100240  95.2454220   6.7013290  84.9018700  96.3941020   7.5560230
  69.3926290  93.9166180   8.4943290  68.4982340  93.8832940   8.8337000
  69.9323840  94.1152970   9.2594540  83.0802220  90.6997900  10.3795040
  83.9572400  90.7081300  10.7629040  83.0923060  89.9628740   9.7687390
  84.7055210  94.6367310   4.7902610  83.7557920  94.6030850   4.9047600
  84.8868220  95.5467420   4.5552380  69.8966000  88.1914510   2.8426510
  70.5442190  87.6411890   2.4021670  70.3167840  88.4457660   3.6642320
  83.7918340  88.3855870   6.1996150  84.4290560  88.9990010   6.5655340
  83.9393230  88.4216530   5.2545380  69.6498000  88.3470180   5.5851830
  69.3012820  88.8034000   6.3510010  69.3185700  87.4527310   5.6674260
  71.2562370 101.5189780   9.7505020  71.2132000 101.1482690  10.6319480
  71.3873380 102.4567350   9.8906840  74.9568400 103.0749370   5.3514740
  74.7159760 103.3423930   4.4645260  75.8971040 103.2455100   5.4065600
  77.1622820  89.5382060   9.1071250  77.1011710  90.1303890   9.8566660
  78.1023200  89.4308020   8.9621510  79.7997380  89.1952120   8.7463540
  80.4137790  89.5131410   8.0844620  80.3446940  88.7100710   9.3659400
  86.2172560 105.0943750   6.1525380  85.7230840 105.4912620   5.4352510
  85.6085850 104.4692960   6.5462660  70.3218640  87.8746380   8.8602600
  70.8701630  87.6934430   8.0968710  70.3873950  87.0840490   9.3958910
  71.0950400 104.4652030   6.8702800  70.5010720 104.3336730   7.6092840
  71.0874240 103.6290170   6.4044900  80.5405420  87.7584260   5.0732830
  79.6665260  88.0919370   4.8705760  80.4316170  87.2857440   5.8984700
  81.4477400  89.9655130   6.4574550  81.1190760  89.1506890   6.0776280
  82.3959700  89.9224940   6.3340240  83.9012010 105.7367170   3.4312120
  83.4414980 106.4882980   3.0570140  83.2724470 105.0173640   3.3726920
  70.7262630 101.8310410   5.8210840  69.9996690 101.2115700   5.7536790
  70.7871780 102.2251020   4.9508920  74.3307730 104.0455410   2.6060250
  74.8472750 103.4342770   2.0808510  74.9805110 104.5484190   3.0971260
  77.0703230 104.9363900   3.4329230  77.3581040 104.6818200   2.5562240
  77.5826450 104.3841260   4.0234800  78.2880240  88.6754100   4.0125740
  77.5052030  89.1499600   4.2922500  77.9943170  87.7708930   3.9038920
  77.1375590 105.8580000  10.7997430  78.0642900 105.6224270  10.8433390
  77.1226020 106.6852000  10.3183460  74.3239200  88.5224750  10.5639310
  74.0423470  89.0258350   9.8000130  74.7058900  87.7246500  10.1981440
  80.9254660  87.9378330  11.1419780  80.8120110  88.2572940  12.0371300
  81.7424400  88.3390840  10.8457060  83.7053150 105.0849860  10.6238470
  84.4978470 104.5899090  10.4164430  83.9986300 105.7640000  11.2314080
  79.8312810  77.1827310 150.4745930  79.7506860  76.2681920 150.2037640
  79.4177230  77.6794380 149.7685640  81.9838280  83.3666520 151.1354330
  81.5219810  82.5953760 151.4641500  82.7963830  83.3932590 151.6406780
  70.3888630  74.2328030 147.0173350  69.5005330  74.5744000 146.9153230
  70.6729820  74.0328350 146.1254180  78.2101590  85.6524530 150.7558320
  77.5913030  86.1082030 150.1852760  79.0653370  85.8075990 150.3548020
  72.5650020  72.8159530 148.0511730  72.6716770  73.7163260 148.3580490
  71.6542380  72.7677500 147.7606380  82.2169130  71.9384340 149.5222630
  83.0378750  71.4480910 149.5648110  82.2503210  72.5282000 150.2754470
  79.0764940  80.5363770 148.1490230  78.4582210  81.0013220 147.5852950
  79.5888190  81.2291250 148.5659740  68.4448140  81.2220300 145.5229860
  68.0676120  81.7107400 144.7914760  68.7021210  81.8945580 146.1536390
  76.0537070  69.6236690 150.9815370  76.3612050  69.0683580 150.2650870
  75.1237770  69.7581150 150.7988360  82.8997550  82.0620200 148.3613000
  82.7893880  81.1194530 148.4862420  82.8965800  82.4235840 149.2475760
  78.4417830  77.6885520 147.7175490  77.5147110  77.6222900 147.9463960
  78.5942650  78.6265650 147.6030730  78.4286910  73.9602520 144.7142650
  77.4890580  74.1216480 144.7995110  78.7470170  74.6788200 144.1678640
  82.4715120  79.2505820 148.2210740  81.8527540  78.9125370 147.5737040
  82.4539570  78.6065580 148.9289930  74.0474470  78.2150260 150.4995220
  73.6431470  77.5027510 150.0041120  74.1337590  77.8703500 151.3883260
  80.6479820  78.4892630 145.2283490  81.0873100  77.6515060 145.0821310
  81.3608240  79.1222030 145.3147630  78.7575200  83.4288700 149.1964730
  79.1971110  84.1713030 148.7820120  78.6962090  83.6715270 150.1203690
  84.2296960  69.7435440 143.5424530  83.9169620  69.8362270 144.4423600
  84.9909430  70.3216470 143.4921960  70.7479100  77.1095240 148.0001870
  70.6276700  77.8357330 147.3883140  70.4379990  76.3398150 147.5229780
  69.6312100  81.9810570 150.2176690  69.2240180  82.1225160 149.3630290
  70.5225110  81.6970730 150.0147900  81.4245380  86.4157820 146.5527740
  81.2646520  86.1260760 147.4509570  81.2592090  85.6397950 146.0172970
  73.9033760  86.1956350 148.3299360  73.7276240  85.2791890 148.1167160
  73.0489500  86.5543640 148.5697160  81.1271510  83.9245380 145.1125740
  80.4336670  83.9222670 144.4528020  81.8694370  83.5004700 144.6819910
  80.6921440  85.5508090 149.1874230  81.1478390  84.7697470 149.5012850
  81.0313960  86.2614910 149.7315410  73.2142760  70.4530310 151.3825540
  72.7710910  71.2339850 151.0510060  73.7727750  70.7760200 152.0896480
  76.3301580  70.0741010 146.2631370  75.7055760  70.0700880 146.9884680
  76.2431700  69.2071970 145.8667340  73.0056980  75.5763880 149.1106790
  72.7797900  75.3601050 150.0153410  72.2249510  76.0092340 148.7652760
  80.2354740  75.5827250 147.7097440  79.6363630  76.3063050 147.5261060
  80.7834350  75.5204030 146.9273890  78.8419610  74.2190790 149.7400720
  79.2349180  74.5362990 148.9269410  79.2036460  73.3402670 149.8545240
  68.0654010  74.7511710 143.1733640  67.9828680  75.6942470 143.3148630
  67.7137070  74.6086620 142.2945990  75.8652140  73.4850740 152.2403990
  75.8688200  73.0440690 151.3908530  76.7603260  73.8068070 152.3475810
  71.7154520  73.3677230 151.1998200  71.3754570  73.8452460 151.9565250
  70.9531840  72.9142350 150.8399300  75.9272290  74.4862820 145.2310750
  76.0485110  74.4449300 146.1796570  75.5420800  75.3486970 145.0757480
  74.9393790  76.7963960 144.6294050  74.3710690  76.3482210 144.0029960
  75.6482790  77.1556740 144.0959200  69.0300600  72.2896210 150.1162870
  68.7447520  71.9251880 150.9541490  68.9679460  71.5576670 149.5026010
  72.4841270  80.7922150 146.9020460  71.7103530  80.2519770 146.7419180
  73.2135900  80.2728760 146.5638220  78.7039190  71.1825470 146.8376240
  77.8903800  70.6838640 146.7621550  78.5101140  72.0223720 146.4212590
  81.4187580  75.5545120 145.1338400  82.3067200  75.8662350 144.9589740
  81.3892670  74.6817370 144.7418980  72.5278670  80.4602530 150.5399270
  73.0457340  79.6570790 150.4856160  72.0762690  80.3981670 151.3816100
  77.4148170  81.7268810 145.8126570  77.7563870  82.4711040 145.3169890
  76.5860880  82.0399930 146.1751400  83.6901850  76.8656960 144.6018260
  83.6065570  77.2971180 143.7514700  84.4096040  77.3255310 145.0345080
  84.7189100  83.7199220 147.3300390  84.0765260  83.0654840 147.6044110
  84.3319760  84.1254310 146.5541060  80.2975580  81.0484650 151.1772080
  80.6499400  80.4512780 150.5173450  79.4137910  80.7228880 151.3480330
  76.3838860  81.8082340 148.5842490  77.0709990  82.3551550 148.9650080
  75.5971280  82.3523070 148.6192100  68.5231260  77.4255160 144.0759570
  69.3926110  77.7079960 144.3595490  68.0321580  78.2391030 143.9608380
  75.6866070  78.8128370 148.1967850  76.1428850  79.6233620 148.4228040
  75.3354280  78.4951510 149.0286340  71.5877850  69.1566020 148.6690370
  71.4592480  69.1483920 149.6175290  70.7639870  69.4949110 148.3181380
  83.1086480  82.6115680 143.8676740  82.8824060  81.8946120 144.4601380
  82.7182680  82.3628120 143.0298490  68.8902510  86.6382540 144.6421200
  69.2500150  87.2371880 143.9878470  68.7494850  87.1842430 145.4156230
  82.6902730  80.5287620 145.5290900  82.4024430  80.9900310 146.3168780
  83.4854900  80.0685390 145.7975120  74.9071130  84.0213740 145.4594870
  74.8981230  84.7543430 144.8439380  73.9869490  83.7745320 145.5521830
  70.5077770  79.2428630 146.2041630  69.9005720  79.9827530 146.2136930
  70.9827120  79.3327990 145.3779830  83.4472590  72.3636390 146.6886080
  82.8185750  72.4682060 145.9744310  82.9524510  72.5833170 147.4779960
  77.8930730  84.0841980 144.1220060  77.9942710  83.8805970 143.1922040
  76.9932470  83.8300260 144.3267840  75.4156620  74.6422340 148.1043960
  74.7072770  75.1108680 148.5457570  75.7001100  73.9844350 148.7389150
  79.4472050  71.3673000 149.5439750  79.3239830  71.3859130 148.5949260
  80.3956610  71.4151940 149.6638150  76.5348840  86.6028300 148.8167730
  76.7890340  86.5649690 147.8947100  75.5861320  86.4761630 148.8095980
  73.6191640  72.9507420 145.4794670  74.4682170  73.3877570 145.4134860
  73.2522910  73.2627680 146.3066730  82.5401420  77.5220180 150.3926240
  81.5991560  77.5370410 150.5673930  82.8545490  76.7356140 150.8386540
  72.5183060  79.2039780 143.9530200  73.2846330  79.0921140 144.5155630
  72.5957750  78.5077750 143.3006970  71.2129820  76.6364850 144.6363090
  71.2933410  75.6892360 144.7480490  72.1049570  76.9671730 144.7423750
  72.0144530  86.7860240 151.7397630  72.7507010  86.2375700 152.0106200
  72.3985450  87.6516250 151.6003620  68.8990010  82.8533810 147.6139140
  67.9729790  83.0954950 147.6044550  69.3646440  83.6808070 147.4923890
  75.1246840  85.9590550 143.5623200  75.9175450  86.2479380 143.1104990
  74.6051190  85.5282720 142.8835680  84.1777010  85.1860680 144.9859940
  83.8918520  84.7725820 144.1714120  83.9796560  86.1148390 144.8660460
  75.6424240  81.1793960 143.4265550  75.5374880  80.5646310 144.1526930
  75.4748460  80.6559850 142.6428560  78.8826970  80.2413990 144.0307540
  78.3337070  80.6883290 144.6750280  79.5046230  79.7363240 144.5545210
  74.5502090  79.2004910 145.9272840  74.9718510  79.0344780 146.7704230
  74.6752930  78.3905140 145.4327980  77.0629730  78.2242520 143.1749940
  77.5835390  77.5091540 142.8091090  77.7098130  78.8628390 143.4750450
  73.4460990  75.2738140 142.8731000  73.2450050  74.4105500 143.2344340
  73.2753040  75.1871500 141.9352600  80.9249300  70.0846370 145.4017880
  81.2051590  69.2414270 145.7577300  80.1515030  70.3169480 145.9156630
  72.2443790  72.3738760 142.8608880  72.5469690  72.3806190 141.9528030
  72.9838380  72.0236620 143.3576540  75.4628720  71.3173380 143.8465080
  75.1150720  70.6397370 143.2667530  75.6641490  70.8562890 144.6608470
  77.6277760  86.3054130 145.4651680  78.5228550  86.6439100 145.4870440
  77.6595390  85.5833540 144.8375960  71.2673920  81.6781180 143.6938680
  71.7048790  82.2210850 144.3496260  71.7521650  80.8528130 143.7035020
  68.4819720  84.4670210 151.1458940  68.8122730  83.5991270 150.9137580
  68.9110720  84.6728730 151.9763900  73.0781640  82.7979220 148.8060910
  72.7777180  82.6744190 149.7064820  72.9719130  81.9387810 148.3976640
  85.8473560  82.5775620 143.5087590  85.0166520  82.6452270 143.9794820
  86.0245390  83.4679740 143.2054450  85.3030020  79.3223100 146.0121790
  86.0648930  79.8919750 146.1181480  85.3184390  78.7550300 146.7830100
  68.8034360  77.8461030 150.2429450  68.1483200  77.5772670 149.5989150
  69.6412310  77.7365510 149.7931430  86.3089990  80.1773200 150.8563720
  86.6798820  79.3940520 150.4499690  86.9491920  80.8662300 150.6781020
  85.3549190  79.6157470 143.1694310  85.6298030  80.5236350 143.0413530
  85.1659930  79.5520000 144.1056300  81.7524800  72.6402320 144.4647940
  82.1709680  72.4533300 143.6244600  81.4460860  71.7881370 144.7750870
  85.2514530  77.5526460 148.1623740  84.8758130  76.7854390 147.7305030
  84.5217650  77.9349160 148.6498670  68.0172440  75.0559960 146.1854780
  67.1136520  75.3190160 146.0106440  68.5013060  75.3271130 145.4054740
  84.5265490  75.7783950 151.4630980  85.0502970  75.2846600 150.8321150
  85.1124910  75.9134310 152.2078550  70.5599650  74.1125500 144.0949160
  71.2691350  73.6908720 143.6096440  69.8439590  74.1800730 143.4632510
  70.2073810  70.1664830 143.1351810  70.9301940  70.7073770 143.4533030
  70.4798330  69.8928250 142.2593350  84.0165460  75.0357300 147.4023390
  84.5124580  74.8028170 148.1872270  83.8181530  74.1969140 146.9861030
  85.4452620  73.6718250 149.9361070  85.3351900  73.5174290 150.8743340
  86.2060210  73.1439190 149.6936480  86.3342890  71.5026170 143.1767210
  87.2592200  71.3707350 142.9685500  86.3118680  71.5818990 144.1303660
  86.4081380  72.2736830 145.8023920  85.6132880  72.2081950 146.3316830
  86.6124660  73.2087470 145.7909270  83.3499800  86.3128380 149.7962310
  83.9458870  85.9912950 149.1196730  83.6077950  85.8400200 150.5875580
  82.8401310  70.6033710 152.2522750  83.2809400  70.5478810 151.4044350
  82.5708900  71.5191720 152.3232930  84.7039880  70.2348950 150.2631570
  84.6428280  69.2910170 150.1162590  85.4831910  70.3429040 150.8085030
  69.0092630  86.3741310 149.2255520  68.8414670  85.7411990 149.9237410
  68.1427140  86.5800710 148.8749710  69.6320650  70.2058090 146.7287380
  70.3900010  70.3186970 146.1551410  69.1697820  71.0427290 146.6830810
  76.1734460  72.3197360 149.7189690  75.3608970  71.9454250 149.3785570
  76.6776100  71.5642440 150.0210880  80.6759440  68.9839810 150.9572760
  81.2788810  69.5560020 151.4321280  79.9352430  69.5479250 150.7346660
  83.8194040  69.3861370 146.2313040  84.0144670  70.2844820 146.4980470
  83.0323910  69.1548450 146.7245990  70.6155330  85.0674540 146.6705660
  70.0902950  85.4482570 145.9667620  70.5399910  85.6925310 147.3915370
  72.0045800  70.7322140 145.2689350  72.5338560  69.9451940 145.1397300
  72.6374120  71.4113330 145.5024880  74.1983640  70.4697280 148.3234740
  73.5686380  69.7684590 148.4904870  73.6588780  71.2301410 148.1067900
  85.3720650  86.6262080 147.9919600  85.5472840  85.9399820 147.3480520
  84.6742220  87.1509130 147.5996270  73.2148300  87.0156920 145.5454910
  73.9467120  86.7316200 144.9978800  73.4741970  86.7770200 146.4354290
  72.3763090  83.1321650 145.5501240  71.7471970  83.6006750 146.0987070
  72.4910920  82.2870870 145.9847430  77.9630850  78.9606330 133.5811710
  77.1872950  78.4806770 133.8710280  78.6143780  78.2811980 133.4067870
  71.9796680  79.2726140 134.4587470  71.1481560  79.0174850 134.8583980
  72.5877660  79.3436910 135.1945390  81.9838280  83.3666520 132.3610840
  81.5219810  82.5953760 132.6898010  82.7963830  83.3932590 132.8663290
  71.9597940  83.3066230 134.6545490  72.2625980  82.4163970 134.4755710
  72.7041530  83.8636450 134.4267740  68.3521640  76.8333680 134.1269560
  68.9237750  76.0655880 134.1273200  68.3523180  77.1322440 133.2176170
  78.2101590  85.6524530 131.9814830  77.5913030  86.1082030 131.4109270
  79.0653370  85.8075990 131.5804530  77.4039840  81.6363520 133.5881870
  77.3348120  80.6953460 133.4271000  78.1659700  81.7264930 134.1604440
  69.5946510  72.2418040 135.9138490  69.4149350  71.3443790 136.1941250
  69.1926590  72.7889910 136.5885440  78.4345010  74.4433900 133.8150800
  78.8109830  73.5705780 133.7024470  78.3364520  74.7792600 132.9241240
  82.2169130  71.9384340 130.7479140  83.0378750  71.4480910 130.7904620
  82.2503210  72.5282000 131.5010980  70.2133180  74.7378540 134.5220830
  70.8943290  75.0016910 135.1408230  69.8981230  73.8979410 134.8558840
  74.4057750  75.7845900 133.6093420  74.9135970  76.2826870 134.2498440
  74.9370990  75.0081100 133.4332780  72.6893850  70.4244460 137.8756840
  72.6912290  70.9416850 137.0702740  71.8598160  69.9474640 137.8526770
  73.9396700  80.0639640 136.0530340  73.6066080  80.6908560 136.6951410
  74.1163380  80.5901520 135.2732010  82.4530610  73.8784720 133.5206680
  81.7486180  74.1669610 134.1009790  82.8142770  74.6884830 133.1606240
  72.3709180  72.1354420 135.8827290  72.7125990  72.9796470 135.5881160
  71.4324990  72.2838160 135.9992630  73.1515800  82.0320440 137.8679520
  73.7689800  82.7071520 137.5863970  72.2908920  82.4408420 137.7767020
  68.4448140  81.2220300 126.7486370  68.0676120  81.7107400 126.0171270
  68.7021210  81.8945580 127.3792900  84.0693390  83.4959850 135.7834160
  83.3856910  84.1658960 135.7750830  84.6087680  83.6940500 135.0179020
  85.5217530  73.3239510 133.9115890  84.5742440  73.3578490 134.0431320
  85.8467520  74.1378460 134.2965250  81.6052130  85.3403980 134.4979340
  81.6179290  84.9366270 133.6301600  81.0527350  86.1151270 134.3940770
  74.0474470  78.2150260 131.7251730  73.6431470  77.5027510 131.2297630
  74.1337590  77.8703500 132.6139770  74.5156170  81.9017820 133.8890940
  74.2184460  81.2963290 133.2098720  75.4655990  81.9395130 133.7780300
  72.7603090  74.9893470 135.5050770  73.3117680  75.0988810 134.7304020
  73.2746600  75.3631070 136.2206000  82.6041780  85.4749690 137.5514040
  82.1272340  86.2821880 137.3586650  81.9203570  84.8228020 137.7040250
  73.6074600  81.6399510 140.5398740  72.7103130  81.8639480 140.7872140
  73.6327470  81.7634450 139.5910140  72.4345820  78.5112830 139.1156110
  72.2953590  79.3835630 139.4843510  71.5527180  78.1685640 138.9704050
  78.7575200  83.4288700 130.4221240  79.1971110  84.1713030 130.0076630
  78.6962090  83.6715270 131.3460200  74.2326170  84.4534530 141.3241260
  74.2041600  84.8577480 140.4569690  74.0691140  83.5244890 141.1612860
  86.1840990  85.2361630 142.6205430  86.6600710  85.7144520 143.2994510
  86.8048150  85.1679120 141.8950930  68.3864470  80.2810380 135.0327020
  68.4644890  80.4159150 134.0882740  69.0006150  79.5726270 135.2255140
  69.6312100  81.9810570 131.4433200  69.2240180  82.1225160 130.5886800
  70.5225110  81.6970730 131.2404410  85.5874240  82.4274480 139.7805440
  85.7137300  82.1886360 138.8622620  85.6295620  81.5959020 140.2527520
  79.4490980  86.1302480 138.3500250  79.9635650  86.0410490 139.1522680
  78.6060060  86.4762180 138.6428160  80.6921440  85.5508090 130.4130740
  81.1478390  84.7697470 130.7269360  81.0313960  86.2614910 130.9571920
  73.2142760  70.4530310 132.6082050  72.7710910  71.2339850 132.2766570
  73.7727750  70.7760200 133.3152990  77.5012570  73.3198830 138.2117370
  77.0391940  73.5281850 139.0237310  77.0990680  72.5058180 137.9088040
  79.5966790  76.0409530 141.4412820  79.9220200  75.2073280 141.1015050
  80.3847120  76.5638050 141.5891150  75.2518660  70.9977640 134.4671650
  75.5490990  71.9040470 134.3863670  75.8004220  70.5096420 133.8531220
  75.4456190  76.4749460 141.0023570  75.3499790  75.5344190 140.8523970
  76.2888170  76.6964530 140.6071640  78.8419610  74.2190790 130.9657230
  79.2349180  74.5362990 130.1525920  79.2036460  73.3402670 131.0801750
  70.5766730  72.8863130 139.1557350  70.1830120  73.7338340 139.3630130
  69.8885130  72.2489500 139.3465990  77.1511780  72.9698100 142.2254090
  76.4610100  72.7770300 142.8600180  77.8944080  73.2532740 142.7578390
  75.8652140  73.4850740 133.4660500  75.8688200  73.0440690 132.6165040
  76.7603260  73.8068070 133.5732320  75.9272290  74.4862820 126.4567260
  76.0485110  74.4449300 127.4053080  75.5420800  75.3486970 126.3013990
  79.8900660  72.2630220 134.4730950  79.9073400  72.7138870 135.3172800
  79.6416240  71.3635860 134.6864390  74.9393790  76.7963960 125.8550560
  74.3710690  76.3482210 125.2286470  75.6482790  77.1556740 125.3215710
  83.3171410  69.6762400 140.3117330  83.6417180  68.9452060 140.8375310
  83.3527920  69.3576040 139.4098320  70.0162970  80.6975980 139.7317290
  69.6317760  80.0569650 140.3300250  70.3275160  81.4012100 140.3012020
  76.1660110  77.5452520 135.2125910  76.5330240  77.0711090 135.9587250
  75.9765170  78.4194090 135.5534250  73.9559480  76.5861160 137.5310120
  73.6516550  77.4653140 137.7560480  74.9105940  76.6460950 137.5667560
  72.4841270  80.7922150 128.1276970  71.7103530  80.2519770 127.9675690
  73.2135900  80.2728760 127.7894730  83.2429250  79.7887510 133.9203360
  83.9628370  80.2842800 133.5299470  83.0411070  79.1105400 133.2757230
  78.6248050  79.8596570 139.8072360  78.5585360  78.9392240 139.5529950
  77.9953190  79.9572010 140.5217000  72.5278670  80.4602530 131.7655780
  73.0457340  79.6570790 131.7112670  72.0762690  80.3981670 132.6072610
  70.0123210  77.4263900 138.6781480  69.6538150  78.0917750 139.2654820
  69.7177770  76.5947450 139.0494100  73.2136330  77.8848140 141.5621030
  72.9136470  78.0305320 140.6648850  73.9847570  77.3253430 141.4694420
  78.5564780  82.6817140 139.5576160  78.5709320  81.7498100 139.3395070
  77.8489880  82.7676900 140.1965930  80.2975580  81.0484650 132.4028590
  80.6499400  80.4512780 131.7429960  79.4137910  80.7228880 132.5736840
  76.3838860  81.8082340 129.8099000  77.0709990  82.3551550 130.1906590
  75.5971280  82.3523070 129.8448610  77.9898680  84.3234710 136.6516660
  78.6340900  84.5294090 137.3290080  78.3528120  83.5623110 136.1987510
  79.2630760  82.3267060 135.3694110  79.9052990  81.6260220 135.4826280
  79.7880110  83.1065500 135.1891000  81.0368380  83.1261960 138.5730170
  81.3724620  83.7128650 139.2508090  80.1168720  82.9954670 138.8027960
  68.5871780  70.9157140 139.3553580  67.8730300  71.1154060 139.9606190
  69.0066820  70.1396710 139.7268380  76.8656960  83.1753290 141.7418230
  76.5453830  82.4562530 142.2863920  76.1915320  83.8508360 141.8154290
  74.9071130  84.0213740 126.6851380  74.8981230  84.7543430 126.0695890
  73.9869490  83.7745320 126.7778340  83.4472590  72.3636390 127.9142590
  82.8185750  72.4682060 127.2000820  82.9524510  72.5833170 128.7036470
  77.8930730  84.0841980 125.3476570  77.9942710  83.8805970 124.4178550
  76.9932470  83.8300260 125.5524350  75.4156620  74.6422340 129.3300470
  74.7072770  75.1108680 129.7714080  75.7001100  73.9844350 129.9645660
  77.0412550  76.0619040 137.3293000  77.5397800  76.5364860 137.9944850
  77.1835500  75.1382560 137.5363030  76.5348840  86.6028300 130.0424240
  76.7890340  86.5649690 129.1203610  75.5861320  86.4761630 130.0352490
  84.2479410  72.2787000 138.1721390  83.7453010  73.0192400 138.5115200
  85.0636070  72.6671000 137.8558180  72.5183060  79.2039780 125.1786710
  73.2846330  79.0921140 125.7412140  72.5957750  78.5077750 124.5263480
  68.8990010  82.8533810 128.8395650  67.9729790  83.0954950 128.8301060
  69.3646440  83.6808070 128.7180400  75.1246840  85.9590550 124.7879710
  75.9175450  86.2479380 124.3361500  74.6051190  85.5282720 124.1092190
  79.8567440  82.0786180 142.1015130  79.2505600  82.1017780 141.3610880
  79.5521550  81.3469220 142.6382380  81.2867810  85.8066470 140.7124540
  82.2389560  85.7224490 140.6624780  81.1396030  86.4708180 141.3858330
  68.7400620  78.4579770 141.0975770  69.2439640  77.8787050 141.6692000
  68.0008040  78.7420000 141.6352140  75.6424240  81.1793960 124.6522060
  75.5374880  80.5646310 125.3783440  75.4748460  80.6559850 123.8685070
  75.7938560  79.8650760 140.6311290  75.0284230  80.4335760 140.5465960
  75.9754520  79.5726970 139.7379520  82.9361910  81.5956090 141.1886310
  83.6771380  81.9331850 140.6853770  82.1734590  81.7648150 140.6356080
  70.7723700  76.6009360 141.9925840  70.8129040  76.3023230 142.9011070
  71.6269200  77.0016970 141.8333360  72.7129510  75.1801460 139.9600330
  72.1825970  74.6892410 139.3323670  73.3817580  75.6085660 139.4258260
  73.2001810  72.1463830 140.0397620  73.1058680  71.5284580 139.3148490
  72.6199200  72.8730120 139.8127530  75.9663250  70.7037070 137.0725010
  75.5180550  70.7261330 136.2270560  75.3328450  70.3056090 137.6695310
  76.3722800  79.5991400 137.6937450  76.7910910  80.4424130 137.5213690
  75.4531430  79.7363440 137.4644230  73.4460990  75.2738140 124.0987510
  73.2450050  74.4105500 124.4600850  73.2753040  75.1871500 123.1609110
  74.2230220  85.9044410 138.8095180  73.6851310  86.6290470 138.4903880
  74.4764180  85.4274750 138.0192520  75.4755470  73.8728930 140.3351110
  76.0655160  73.5644780 141.0228930  74.6575710  73.4008680 140.4911010
  80.2948900  73.4894740 140.5684130  79.6064420  72.8276280 140.5034120
  81.0154920  73.0433010 141.0132590  72.2443790  72.3738760 124.0865390
  72.5469690  72.3806190 123.1784540  72.9838380  72.0236620 124.5833050
  77.0792430  87.1395620 139.0681830  77.0051130  88.0430760 139.3754200
  76.1771270  86.8207520 139.0403900  75.4628720  71.3173380 125.0721590
  75.1150720  70.6397370 124.4924040  75.6641490  70.8562890 125.8864980
  77.6277760  86.3054130 126.6908190  78.5228550  86.6439100 126.7126950
  77.6595390  85.5833540 126.0632470  71.2673920  81.6781180 124.9195190
  71.7048790  82.2210850 125.5752770  71.7521650  80.8528130 124.9291530
  68.4819720  84.4670210 132.3715450  68.8122730  83.5991270 132.1394090
  68.9110720  84.6728730 133.2020410  73.0781640  82.7979220 130.0317420
  72.7777180  82.6744190 130.9321330  72.9719130  81.9387810 129.6233150
  84.6072110  84.8357800 139.3974390  84.0074100  84.8950360 138.6538310
  84.7366010  83.8962780 139.5271240  86.3089990  80.1773200 132.0820230
  86.6798820  79.3940520 131.6756200  86.9491920  80.8662300 131.9037530
  85.2514530  77.5526460 129.3880250  84.8758130  76.7854390 128.9561540
  84.5217650  77.9349160 129.8755180  69.8410290  78.2313600 136.0089300
  70.2083330  78.1441000 136.8885320  69.2721110  77.4680150 135.9096160
  69.3926290  75.1422690 139.9147720  68.4982340  75.1089450 140.2541430
  69.9323840  75.3409480 140.6798970  83.0802220  71.9254410 141.7999470
  83.9572400  71.9337810 142.1833470  83.0923060  71.1885250 141.1891820
  70.2073810  70.1664830 124.3608320  70.9301940  70.7073770 124.6789540
  70.4798330  69.8928250 123.4849860  84.0165460  75.0357300 128.6279900
  84.5124580  74.8028170 129.4128780  83.8181530  74.1969140 128.2117540
  69.8966000  69.4171020 134.2630940  70.5442190  68.8668400 133.8226100
  70.3167840  69.6714170 135.0846750  85.4452620  73.6718250 131.1617580
  85.3351900  73.5174290 132.0999850  86.2060210  73.1439190 130.9192990
  83.7918340  69.6112380 137.6200580  84.4290560  70.2246520 137.9859770
  83.9393230  69.6473040 136.6749810  86.3342890  71.5026170 124.4023720
  87.2592200  71.3707350 124.1942010  86.3118680  71.5818990 125.3560170
  69.6498000  69.5726690 137.0056260  69.3012820  70.0290510 137.7714440
  69.3185700  68.6783820 137.0878690  74.9568400  84.3005880 136.7719170
  74.7159760  84.5680440 135.8849690  75.8971040  84.4711610 136.8270030
  77.1622820  70.7638570 140.5275680  77.1011710  71.3560400 141.2771090
  78.1023200  70.6564530 140.3825940  79.7997380  70.4208630 140.1667970
  80.4137790  70.7387920 139.5049050  80.3446940  69.9357220 140.7863830
  86.2172560  86.3200260 137.5729810  85.7230840  86.7169130 136.8556940
  85.6085850  85.6949470 137.9667090  70.3218640  69.1002890 140.2807030
  70.8701630  68.9190940 139.5173140  70.3873950  68.3097000 140.8163340
  80.5405420  68.9840770 136.4937260  79.6665260  69.3175880 136.2910190
  80.4316170  68.5113950 137.3189130  81.4477400  71.1911640 137.8778980
  81.1190760  70.3763400 137.4980710  82.3959700  71.1481450 137.7544670
  83.9012010  86.9623680 134.8516550  83.4414980  87.7139490 134.4774570
  83.2724470  86.2430150 134.7931350  74.3307730  85.2711920 134.0264680
  74.8472750  84.6599280 133.5012940  74.9805110  85.7740700 134.5175690
  77.0703230  86.1620410 134.8533660  77.3581040  85.9074710 133.9766670
  77.5826450  85.6097770 135.4439230  78.2880240  69.9010610 135.4330170
  77.5052030  70.3756110 135.7126930  77.9943170  68.9965440 135.3243350
  82.8401310  70.6033710 133.4779260  83.2809400  70.5478810 132.6300860
  82.5708900  71.5191720 133.5489440  77.1375590  87.0836510 142.2201860
  78.0642900  86.8480780 142.2637820  77.1226020  87.9108510 141.7387890
  74.3239200  69.7481260 141.9843740  74.0423470  70.2514860 141.2204560
  74.7058900  68.9503010 141.6185870  72.3763090  83.1321650 126.7757750
  71.7471970  83.6006750 127.3243580  72.4910920  82.2870870 127.2103940
  80.9254660  69.1634840 142.5624210  80.8120110  69.4829450 143.4575730
  81.7424400  69.5647350 142.2661490  83.7053150  86.3106370 142.0442900
  84.4978470  85.8155600 141.8368860  83.9986300  86.9896510 142.6518510
  77.9630850  78.9606330 114.8068220  77.1872950  78.4806770 115.0966790
  78.6143780  78.2811980 114.6324380  71.9796680  79.2726140 115.6843980
  71.1481560  79.0174850 116.0840490  72.5877660  79.3436910 116.4201900
  81.9838280  83.3666520 113.5867350  81.5219810  82.5953760 113.9154520
  82.7963830  83.3932590 114.0919800  71.9597940  83.3066230 115.8802000
  72.2625980  82.4163970 115.7012220  72.7041530  83.8636450 115.6524250
  68.3521640  76.8333680 115.3526070  68.9237750  76.0655880 115.3529710
  68.3523180  77.1322440 114.4432680  78.2101590  85.6524530 113.2071340
  77.5913030  86.1082030 112.6365780  79.0653370  85.8075990 112.8061040
  77.4039840  81.6363520 114.8138380  77.3348120  80.6953460 114.6527510
  78.1659700  81.7264930 115.3860950  70.2133180  74.7378540 115.7477340
  70.8943290  75.0016910 116.3664740  69.8981230  73.8979410 116.0815350
  72.6893850  70.4244460 119.1013350  72.6912290  70.9416850 118.2959250
  71.8598160  69.9474640 119.0783280  73.9396700  80.0639640 117.2786850
  73.6066080  80.6908560 117.9207920  74.1163380  80.5901520 116.4988520
  82.4530610  73.8784720 114.7463190  81.7486180  74.1669610 115.3266300
  82.8142770  74.6884830 114.3862750  72.3709180  72.1354420 117.1083800
  72.7125990  72.9796470 116.8137670  71.4324990  72.2838160 117.2249140
  73.1515800  82.0320440 119.0936030  73.7689800  82.7071520 118.8120480
  72.2908920  82.4408420 119.0023530  85.5217530  73.3239510 115.1372400
  84.5742440  73.3578490 115.2687830  85.8467520  74.1378460 115.5221760
  81.6052130  85.3403980 115.7235850  81.6179290  84.9366270 114.8558110
  81.0527350  86.1151270 115.6197280  82.8997550  82.0620200 110.8126020
  82.7893880  81.1194530 110.9375440  82.8965800  82.4235840 111.6988780
  81.0037570  80.2433820 117.0518460  81.4206360  80.0293930 116.2171920
  81.7277390  80.5006610 117.6227080  84.9499670  78.6421040 117.1434700
  84.1218300  78.7114130 116.6684830  85.5450150  79.2275350 116.6750530
  81.9141680  75.4290360 118.0889570  81.5012860  76.2544070 118.3429560
  81.1817630  74.8435400 117.8965930  74.0474470  78.2150260 112.9508240
  73.6431470  77.5027510 112.4554140  74.1337590  77.8703500 113.8396280
  74.5156170  81.9017820 115.1147450  74.2184460  81.2963290 114.4355230
  75.4655990  81.9395130 115.0036810  72.7603090  74.9893470 116.7307280
  73.3117680  75.0988810 115.9560530  73.2746600  75.3631070 117.4462510
  73.6074600  81.6399510 121.7655250  72.7103130  81.8639480 122.0128650
  73.6327470  81.7634450 120.8166650  72.4345820  78.5112830 120.3412620
  72.2953590  79.3835630 120.7100020  71.5527180  78.1685640 120.1960560
  78.7575200  83.4288700 111.6477750  79.1971110  84.1713030 111.2333140
  78.6962090  83.6715270 112.5716710  74.2326170  84.4534530 122.5497770
  74.2041600  84.8577480 121.6826200  74.0691140  83.5244890 122.3869370
  84.2296960  69.7435440 105.9937550  83.9169620  69.8362270 106.8936620
  84.9909430  70.3216470 105.9434980  68.3864470  80.2810380 116.2583530
  68.4644890  80.4159150 115.3139250  69.0006150  79.5726270 116.4511650
  69.6312100  81.9810570 112.6689710  69.2240180  82.1225160 111.8143310
  70.5225110  81.6970730 112.4660920  80.6921440  85.5508090 111.6387250
  81.1478390  84.7697470 111.9525870  81.0313960  86.2614910 112.1828430
  85.4398250  74.4806940 121.9711690  84.8242520  74.9886610 121.4427150
  85.1194670  73.5805270 121.9137630  68.4423990  81.3224550 118.7977990
  68.6055030  80.8529910 117.9797360  68.9076440  80.8148110 119.4626830
  75.2518660  70.9977640 115.6928160  75.5490990  71.9040470 115.6120180
  75.8004220  70.5096420 115.0787730  70.5766730  72.8863130 120.3813860
  70.1830120  73.7338340 120.5886640  69.8885130  72.2489500 120.5722500
  79.4274750  76.8096540 116.2864520  78.6955870  77.3183350 116.6354620
  79.0299090  75.9926520 115.9853300  75.8652140  73.4850740 114.6917010
  75.8688200  73.0440690 113.8421550  76.7603260  73.8068070 114.7988830
  79.8900660  72.2630220 115.6987460  79.9073400  72.7138870 116.5429310
  79.6416240  71.3635860 115.9120900  83.3171410  69.6762400 121.5373840
  83.6417180  68.9452060 122.0631820  83.3527920  69.3576040 120.6354830
  70.0162970  80.6975980 120.9573800  69.6317760  80.0569650 121.5556760
  70.3275160  81.4012100 121.5268530  76.1660110  77.5452520 116.4382420
  76.5330240  77.0711090 117.1843760  75.9765170  78.4194090 116.7790760
  73.9559480  76.5861160 118.7566630  73.6516550  77.4653140 118.9816990
  74.9105940  76.6460950 118.7924070  83.2429250  79.7887510 115.1459870
  83.9628370  80.2842800 114.7555980  83.0411070  79.1105400 114.5013740
  78.6248050  79.8596570 121.0328870  78.5585360  78.9392240 120.7786460
  77.9953190  79.9572010 121.7473510  72.5278670  80.4602530 112.9912290
  73.0457340  79.6570790 112.9369180  72.0762690  80.3981670 113.8329120
  70.0123210  77.4263900 119.9037990  69.6538150  78.0917750 120.4911330
  69.7177770  76.5947450 120.2750610  73.2136330  77.8848140 122.7877540
  72.9136470  78.0305320 121.8905360  73.9847570  77.3253430 122.6950930
  78.5564780  82.6817140 120.7832670  78.5709320  81.7498100 120.5651580
  77.8489880  82.7676900 121.4222440  84.7675990  79.3224480 120.1301250
  84.0424180  79.9153260 119.9330640  85.2951450  79.3148020 119.3314620
  84.7189100  83.7199220 109.7813410  84.0765260  83.0654840 110.0557130
  84.3319760  84.1254310 109.0054080  80.2975580  81.0484650 113.6285100
  80.6499400  80.4512780 112.9686470  79.4137910  80.7228880 113.7993350
  76.3838860  81.8082340 111.0355510  77.0709990  82.3551550 111.4163100
  75.5971280  82.3523070 111.0705120  77.9898680  84.3234710 117.8773170
  78.6340900  84.5294090 118.5546590  78.3528120  83.5623110 117.4244020
  79.2630760  82.3267060 116.5950620  79.9052990  81.6260220 116.7082790
  79.7880110  83.1065500 116.4147510  68.8902510  86.6382540 107.0934220
  69.2500150  87.2371880 106.4391490  68.7494850  87.1842430 107.8669250
  68.5871780  70.9157140 120.5810090  67.8730300  71.1154060 121.1862700
  69.0066820  70.1396710 120.9524890  68.8744370  84.9037400 121.5676620
  68.9835490  83.9632140 121.4272010  68.2224930  85.1692150 120.9190350
  76.8656960  83.1753290 122.9674740  76.5453830  82.4562530 123.5120430
  76.1915320  83.8508360 123.0410800  77.0412550  76.0619040 118.5549510
  77.5397800  76.5364860 119.2201360  77.1835500  75.1382560 118.7619540
  82.5401420  77.5220180 112.8439260  81.5991560  77.5370410 113.0186950
  82.8545490  76.7356140 113.2899560  84.5427000  84.6929030 114.5193520
  84.6674420  85.5160200 114.9917330  85.4092560  84.4819760 114.1717670
  72.0144530  86.7860240 114.1910650  72.7507010  86.2375700 114.4619220
  72.3985450  87.6516250 114.0516640  68.8990010  82.8533810 110.0652160
  67.9729790  83.0954950 110.0557570  69.3646440  83.6808070 109.9436910
  71.0202810  85.9706310 123.3796230  71.8215540  86.2918360 123.7931630
  70.5054630  85.6101890 124.1016140  68.7400620  78.4579770 122.3232280
  69.2439640  77.8787050 122.8948510  68.0008040  78.7420000 122.8608650
  75.7938560  79.8650760 121.8567800  75.0284230  80.4335760 121.7722470
  75.9754520  79.5726970 120.9636030  70.7723700  76.6009360 123.2182350
  70.8129040  76.3023230 124.1267580  71.6269200  77.0016970 123.0589870
  72.7129510  75.1801460 121.1856840  72.1825970  74.6892410 120.5580180
  73.3817580  75.6085660 120.6514770  81.6107570  79.6470920 120.9498030
  82.0248590  79.8016000 121.7988450  80.6758570  79.7726140 121.1123810
  73.2001810  72.1463830 121.2654130  73.1058680  71.5284580 120.5405000
  72.6199200  72.8730120 121.0384040  75.9663250  70.7037070 118.2981520
  75.5180550  70.7261330 117.4527070  75.3328450  70.3056090 118.8951820
  76.3722800  79.5991400 118.9193960  76.7910910  80.4424130 118.7470200
  75.4531430  79.7363440 118.6900740  81.0474600  77.8844770 118.8794310
  80.5209820  78.4087390 118.2759450  81.3905940  78.5172160 119.5104040
  74.2230220  85.9044410 120.0351690  73.6851310  86.6290470 119.7160390
  74.4764180  85.4274750 119.2449030  68.4819720  84.4670210 113.5971960
  68.8122730  83.5991270 113.3650600  68.9110720  84.6728730 114.4276920
  73.0781640  82.7979220 111.2573930  72.7777180  82.6744190 112.1577840
  72.9719130  81.9387810 110.8489660  68.9709930  85.3340800 116.3353590
  68.5340920  85.5141600 117.1677740  69.5387610  86.0915420 116.1935310
  86.3089990  80.1773200 113.3076740  86.6798820  79.3940520 112.9012710
  86.9491920  80.8662300 113.1294040  83.2923750  81.5609780 118.7207060
  82.4783590  81.9906940 118.9832850  83.6997950  82.1728190 118.1076110
  69.8410290  78.2313600 117.2345810  70.2083330  78.1441000 118.1141830
  69.2721110  77.4680150 117.1352670  84.6414150  76.6997980 120.2476280
  84.4100240  76.4710730 119.3474230  84.9018700  77.6197530 120.2021170
  69.3926290  75.1422690 121.1404230  68.4982340  75.1089450 121.4797940
  69.9323840  75.3409480 121.9055480  84.5265490  75.7783950 113.9144000
  85.0502970  75.2846600 113.2834170  85.1124910  75.9134310 114.6591570
  84.7055210  75.8623820 117.4363550  83.7557920  75.8287360 117.5508540
  84.8868220  76.7723930 117.2013320  85.4452620  73.6718250 112.3874090
  85.3351900  73.5174290 113.3256360  86.2060210  73.1439190 112.1449500
  83.7918340  69.6112380 118.8457090  84.4290560  70.2246520 119.2116280
  83.9393230  69.6473040 117.9006320  83.3499800  86.3128380 112.2475330
  83.9458870  85.9912950 111.5709750  83.6077950  85.8400200 113.0388600
  69.6498000  69.5726690 118.2312770  69.3012820  70.0290510 118.9970950
  69.3185700  68.6783820 118.3135200  71.2562370  82.7446290 122.3965960
  71.2132000  82.3739200 123.2780420  71.3873380  83.6823860 122.5367780
  74.9568400  84.3005880 117.9975680  74.7159760  84.5680440 117.1106200
  75.8971040  84.4711610 118.0526540  77.1622820  70.7638570 121.7532190
  77.1011710  71.3560400 122.5027600  78.1023200  70.6564530 121.6082450
  70.3218640  69.1002890 121.5063540  70.8701630  68.9190940 120.7429650
  70.3873950  68.3097000 122.0419850  71.0950400  85.6908540 119.5163740
  70.5010720  85.5593240 120.2553780  71.0874240  84.8546680 119.0505840
  80.5405420  68.9840770 117.7193770  79.6665260  69.3175880 117.5166700
  80.4316170  68.5113950 118.5445640  81.4477400  71.1911640 119.1035490
  81.1190760  70.3763400 118.7237220  82.3959700  71.1481450 118.9801180
  70.7262630  83.0566920 118.4671780  69.9996690  82.4372210 118.3997730
  70.7871780  83.4507530 117.5969860  74.3307730  85.2711920 115.2521190
  74.8472750  84.6599280 114.7269450  74.9805110  85.7740700 115.7432200
  77.0703230  86.1620410 116.0790170  77.3581040  85.9074710 115.2023180
  77.5826450  85.6097770 116.6695740  78.2880240  69.9010610 116.6586680
  77.5052030  70.3756110 116.9383440  77.9943170  68.9965440 116.5499860
  82.8401310  70.6033710 114.7035770  83.2809400  70.5478810 113.8557370
  82.5708900  71.5191720 114.7745950  84.7039880  70.2348950 112.7144590
  84.6428280  69.2910170 112.5675610  85.4831910  70.3429040 113.2598050
  69.0092630  86.3741310 111.6768540  68.8414670  85.7411990 112.3750430
  68.1427140  86.5800710 111.3262730  80.6759440  68.9839810 113.4085780
  81.2788810  69.5560020 113.8834300  79.9352430  69.5479250 113.1859680
  85.3720650  86.6262080 110.4432620  85.5472840  85.9399820 109.7993540
  84.6742220  87.1509130 110.0509290  74.3239200  69.7481260 123.2100250
  74.0423470  70.2514860 122.4461070  74.7058900  68.9503010 122.8442380
  80.9254660  69.1634840 123.7880720  80.8120110  69.4829450 124.6832240
  81.7424400  69.5647350 123.4918000  79.8312810  77.1827310  75.3771970
  79.7506860  76.2681920  75.1063680  79.4177230  77.6794380  74.6711680
  77.9630850  78.9606330  77.2581240  77.1872950  78.4806770  77.5479810
  78.6143780  78.2811980  77.0837400  71.9796680  79.2726140  78.1357000
  71.1481560  79.0174850  78.5353510  72.5877660  79.3436910  78.8714920
  68.3521640  76.8333680  77.8039090  68.9237750  76.0655880  77.8042730
  68.3523180  77.1322440  76.8945700  69.5946510  72.2418040  79.5908020
  69.4149350  71.3443790  79.8710780  69.1926590  72.7889910  80.2654970
  78.4345010  74.4433900  77.4920330  78.8109830  73.5705780  77.3794000
  78.3364520  74.7792600  76.6010770  70.2133180  74.7378540  78.1990360
  70.8943290  75.0016910  78.8177760  69.8981230  73.8979410  78.5328370
  74.4057750  75.7845900  77.2862950  74.9135970  76.2826870  77.9267970
  74.9370990  75.0081100  77.1102310  79.0764940  80.5363770  73.0516270
  78.4582210  81.0013220  72.4878990  79.5888190  81.2291250  73.4685780
  73.9396700  80.0639640  79.7299870  73.6066080  80.6908560  80.3720940
  74.1163380  80.5901520  78.9501540  72.3709180  72.1354420  79.5596820
  72.7125990  72.9796470  79.2650690  71.4324990  72.2838160  79.6762160
  81.0037570  80.2433820  79.5031480  81.4206360  80.0293930  78.6684940
  81.7277390  80.5006610  80.0740100  78.4417830  77.6885520  72.6201530
  77.5147110  77.6222900  72.8490000  78.5942650  78.6265650  72.5056770
  82.4715120  79.2505820  73.1236780  81.8527540  78.9125370  72.4763080
  82.4539570  78.6065580  73.8315970  81.9141680  75.4290360  80.5402590
  81.5012860  76.2544070  80.7942580  81.1817630  74.8435400  80.3478950
  74.0474470  78.2150260  75.4021260  73.6431470  77.5027510  74.9067160
  74.1337590  77.8703500  76.2909300  72.7603090  74.9893470  79.1820300
  73.3117680  75.0988810  78.4073550  73.2746600  75.3631070  79.8975530
  80.6479820  78.4892630  70.1309530  81.0873100  77.6515060  69.9847350
  81.3608240  79.1222030  70.2173670  68.3864470  80.2810380  78.7096550
  68.4644890  80.4159150  77.7652270  69.0006150  79.5726270  78.9024670
  69.6312100  81.9810570  75.1202730  69.2240180  82.1225160  74.2656330
  70.5225110  81.6970730  74.9173940  77.5012570  73.3198830  81.8886900
  77.0391940  73.5281850  82.7006840  77.0990680  72.5058180  81.5857570
  79.5966790  76.0409530  85.1182350  79.9220200  75.2073280  84.7784580
  80.3847120  76.5638050  85.2660680  75.2518660  70.9977640  78.1441180
  75.5490990  71.9040470  78.0633200  75.8004220  70.5096420  77.5300750
  73.0056980  75.5763880  74.0132830  72.7797900  75.3601050  74.9179450
  72.2249510  76.0092340  73.6678800  80.2354740  75.5827250  72.6123480
  79.6363630  76.3063050  72.4287100  80.7834350  75.5204030  71.8299930
  67.8783780  70.8091590  76.8656960  67.5896830  71.3794450  77.5781940
  68.6229540  70.3296040  77.2288190  79.4274750  76.8096540  78.7377540
  78.6955870  77.3183350  79.0867640  79.0299090  75.9926520  78.4366320
  75.8652140  73.4850740  77.1430030  75.8688200  73.0440690  76.2934570
  76.7603260  73.8068070  77.2501850  71.7154520  73.3677230  76.1024240
  71.3754570  73.8452460  76.8591290  70.9531840  72.9142350  75.7425340
  76.1660110  77.5452520  78.8895440  76.5330240  77.0711090  79.6356780
  75.9765170  78.4194090  79.2303780  69.0300600  72.2896210  75.0188910
  68.7447520  71.9251880  75.8567530  68.9679460  71.5576670  74.4052050
  73.9559480  76.5861160  81.2079650  73.6516550  77.4653140  81.4330010
  74.9105940  76.6460950  81.2437090  72.4841270  80.7922150  71.8046500
  71.7103530  80.2519770  71.6445220  73.2135900  80.2728760  71.4664260
  81.4187580  75.5545120  70.0364440  82.3067200  75.8662350  69.8615780
  81.3892670  74.6817370  69.6445020  72.5278670  80.4602530  75.4425310
  73.0457340  79.6570790  75.3882200  72.0762690  80.3981670  76.2842140
  77.4148170  81.7268810  70.7152610  77.7563870  82.4711040  70.2195930
  76.5860880  82.0399930  71.0777440  84.7675990  79.3224480  82.5814270
  84.0424180  79.9153260  82.3843660  85.2951450  79.3148020  81.7827640
  76.3838860  81.8082340  73.4868530  77.0709990  82.3551550  73.8676120
  75.5971280  82.3523070  73.5218140  75.6866070  78.8128370  73.0993890
  76.1428850  79.6233620  73.3254080  75.3354280  78.4951510  73.9312380
  81.0368380  83.1261960  82.2499700  81.3724620  83.7128650  82.9277620
  80.1168720  82.9954670  82.4797490  74.9071130  84.0213740  70.3620910
  74.8981230  84.7543430  69.7465420  73.9869490  83.7745320  70.4547870
  80.0810560  73.4079450  80.7824560  80.4491380  72.5874660  81.1104130
  79.2208760  73.4681340  81.1980210  75.4156620  74.6422340  73.0070000
  74.7072770  75.1108680  73.4483610  75.7001100  73.9844350  73.6415190
  77.0412550  76.0619040  81.0062530  77.5397800  76.5364860  81.6714380
  77.1835500  75.1382560  81.2132560  78.8826970  80.2413990  68.9333580
  78.3337070  80.6883290  69.5776320  79.5046230  79.7363240  69.4571250
  74.5502090  79.2004910  70.8298880  74.9718510  79.0344780  71.6730270
  74.6752930  78.3905140  70.3354020  78.7086700  77.3307580  82.7544820
  78.8282910  76.7348720  83.4939660  79.5680700  77.3677270  82.3346120
  81.0474600  77.8844770  81.3307330  80.5209820  78.4087390  80.7272470
  81.3905940  78.5172160  81.9617060  75.4755470  73.8728930  84.0120640
  76.0655160  73.5644780  84.6998460  74.6575710  73.4008680  84.1680540
  68.4819720  84.4670210  76.0484980  68.8122730  83.5991270  75.8163620
  68.9110720  84.6728730  76.8789940  73.0781640  82.7979220  73.7086950
  72.7777180  82.6744190  74.6090860  72.9719130  81.9387810  73.3002680
  68.9709930  85.3340800  78.7866610  68.5340920  85.5141600  79.6190760
  69.5387610  86.0915420  78.6448330  68.8034360  77.8461030  75.1455490
  68.1483200  77.5772670  74.5015190  69.6412310  77.7365510  74.6957470
  83.2923750  81.5609780  81.1720080  82.4783590  81.9906940  81.4345870
  83.6997950  82.1728190  80.5589130  81.7524800  72.6402320  69.3673980
  82.1709680  72.4533300  68.5270640  81.4460860  71.7881370  69.6776910
  69.8966000  69.4171020  77.9400470  70.5442190  68.8668400  77.4995630
  70.3167840  69.6714170  78.7616280  77.1622820  70.7638570  84.2045210
  77.1011710  71.3560400  84.9540620  78.1023200  70.6564530  84.0595470
  79.8312810  77.1827310  37.8284990  79.7506860  76.2681920  37.5576700
  79.4177230  77.6794380  37.1224700  81.9838280  83.3666520  38.4893390
  81.5219810  82.5953760  38.8180560  82.7963830  83.3932590  38.9945840
  70.3888630  74.2328030  34.3712410  69.5005330  74.5744000  34.2692290
  70.6729820  74.0328350  33.4793240  68.3521640  76.8333680  40.2552110
  68.9237750  76.0655880  40.2555750  68.3523180  77.1322440  39.3458720
  78.2101590  85.6524530  38.1097380  77.5913030  86.1082030  37.5391820
  79.0653370  85.8075990  37.7087080  69.5946510  72.2418040  42.0421040
  69.4149350  71.3443790  42.3223800  69.1926590  72.7889910  42.7167990
  78.4345010  74.4433900  39.9433350  78.8109830  73.5705780  39.8307020
  78.3364520  74.7792600  39.0523790  72.5650020  72.8159530  35.4050790
  72.6716770  73.7163260  35.7119550  71.6542380  72.7677500  35.1145440
  70.2133180  74.7378540  40.6503380  70.8943290  75.0016910  41.2690780
  69.8981230  73.8979410  40.9841390  86.5068680  73.9551090  43.4405320
  85.8020850  74.3432800  42.9220430  86.7726600  74.6501380  44.0426250
  79.0764940  80.5363770  35.5029290  78.4582210  81.0013220  34.9392010
  79.5888190  81.2291250  35.9198800  82.4530610  73.8784720  39.6489230
  81.7486180  74.1669610  40.2292340  82.8142770  74.6884830  39.2888790
  72.3709180  72.1354420  42.0109840  72.7125990  72.9796470  41.7163710
  71.4324990  72.2838160  42.1275180  68.4448140  81.2220300  32.8768920
  68.0676120  81.7107400  32.1453820  68.7021210  81.8945580  33.5075450
  84.0693390  83.4959850  41.9116710  83.3856910  84.1658960  41.9033380
  84.6087680  83.6940500  41.1461570  85.5217530  73.3239510  40.0398440
  84.5742440  73.3578490  40.1713870  85.8467520  74.1378460  40.4247800
  76.0537070  69.6236690  38.3354430  76.3612050  69.0683580  37.6189930
  75.1237770  69.7581150  38.1527420  81.6052130  85.3403980  40.6261890
  81.6179290  84.9366270  39.7584150  81.0527350  86.1151270  40.5223320
  82.8997550  82.0620200  35.7152060  82.7893880  81.1194530  35.8401480
  82.8965800  82.4235840  36.6014820  78.4417830  77.6885520  35.0714550
  77.5147110  77.6222900  35.3003020  78.5942650  78.6265650  34.9569790
  78.4286910  73.9602520  32.0681710  77.4890580  74.1216480  32.1534170
  78.7470170  74.6788200  31.5217700  84.9499670  78.6421040  42.0460740
  84.1218300  78.7114130  41.5710870  85.5450150  79.2275350  41.5776570
  82.4715120  79.2505820  35.5749800  81.8527540  78.9125370  34.9276100
  82.4539570  78.6065580  36.2828990  74.0474470  78.2150260  37.8534280
  73.6431470  77.5027510  37.3580180  74.1337590  77.8703500  38.7422320
  72.7603090  74.9893470  41.6333320  73.3117680  75.0988810  40.8586570
  73.2746600  75.3631070  42.3488550  82.6041780  85.4749690  43.6796590
  82.1272340  86.2821880  43.4869200  81.9203570  84.8228020  43.8322800
  80.6479820  78.4892630  32.5822550  81.0873100  77.6515060  32.4360370
  81.3608240  79.1222030  32.6686690  78.7575200  83.4288700  36.5503790
  79.1971110  84.1713030  36.1359180  78.6962090  83.6715270  37.4742750
  70.7479100  77.1095240  35.3540930  70.6276700  77.8357330  34.7422200
  70.4379990  76.3398150  34.8768840  69.6312100  81.9810570  37.5715750
  69.2240180  82.1225160  36.7169350  70.5225110  81.6970730  37.3686960
  73.9033760  86.1956350  35.6838420  73.7276240  85.2791890  35.4706220
  73.0489500  86.5543640  35.9236220  81.1271510  83.9245380  32.4664800
  80.4336670  83.9222670  31.8067080  81.8694370  83.5004700  32.0358970
  73.2142760  70.4530310  38.7364600  72.7710910  71.2339850  38.4049120
  73.7727750  70.7760200  39.4435540  76.3301580  70.0741010  33.6170430
  75.7055760  70.0700880  34.3423740  76.2431700  69.2071970  33.2206400
  75.2518660  70.9977640  40.5954200  75.5490990  71.9040470  40.5146220
  75.8004220  70.5096420  39.9813770  73.0056980  75.5763880  36.4645850
  72.7797900  75.3601050  37.3692470  72.2249510  76.0092340  36.1191820
  80.2354740  75.5827250  35.0636500  79.6363630  76.3063050  34.8800120
  80.7834350  75.5204030  34.2812950  78.8419610  74.2190790  37.0939780
  79.2349180  74.5362990  36.2808470  79.2036460  73.3402670  37.2084300
  67.8783780  70.8091590  39.3169980  67.5896830  71.3794450  40.0294960
  68.6229540  70.3296040  39.6801210  68.0654010  74.7511710  30.5272700
  67.9828680  75.6942470  30.6687690  67.7137070  74.6086620  29.6485050
  75.8652140  73.4850740  39.5943050  75.8688200  73.0440690  38.7447590
  76.7603260  73.8068070  39.7014870  71.7154520  73.3677230  38.5537260
  71.3754570  73.8452460  39.3104310  70.9531840  72.9142350  38.1938360
  75.9272290  74.4862820  32.5849810  76.0485110  74.4449300  33.5335630
  75.5420800  75.3486970  32.4296540  79.8900660  72.2630220  40.6013500
  79.9073400  72.7138870  41.4455350  79.6416240  71.3635860  40.8146940
  74.9393790  76.7963960  31.9833110  74.3710690  76.3482210  31.3569020
  75.6482790  77.1556740  31.4498260  69.0300600  72.2896210  37.4701930
  68.7447520  71.9251880  38.3080550  68.9679460  71.5576670  36.8565070
  72.4841270  80.7922150  34.2559520  71.7103530  80.2519770  34.0958240
  73.2135900  80.2728760  33.9177280  83.2429250  79.7887510  40.0485910
  83.9628370  80.2842800  39.6582020  83.0411070  79.1105400  39.4039780
  78.7039190  71.1825470  34.1915300  77.8903800  70.6838640  34.1160610
  78.5101140  72.0223720  33.7751650  81.4187580  75.5545120  32.4877460
  82.3067200  75.8662350  32.3128800  81.3892670  74.6817370  32.0958040
  72.5278670  80.4602530  37.8938330  73.0457340  79.6570790  37.8395220
  72.0762690  80.3981670  38.7355160  77.4148170  81.7268810  33.1665630
  77.7563870  82.4711040  32.6708950  76.5860880  82.0399930  33.5290460
  83.6901850  76.8656960  31.9557320  83.6065570  77.2971180  31.1053760
  84.4096040  77.3255310  32.3884140  84.7189100  83.7199220  34.6839450
  84.0765260  83.0654840  34.9583170  84.3319760  84.1254310  33.9080120
  80.2975580  81.0484650  38.5311140  80.6499400  80.4512780  37.8712510
  79.4137910  80.7228880  38.7019390  76.3838860  81.8082340  35.9381550
  77.0709990  82.3551550  36.3189140  75.5971280  82.3523070  35.9731160
  68.5231260  77.4255160  31.4298630  69.3926110  77.7079960  31.7134550
  68.0321580  78.2391030  31.3147440  75.6866070  78.8128370  35.5506910
  76.1428850  79.6233620  35.7767100  75.3354280  78.4951510  36.3825400
  71.5877850  69.1566020  36.0229430  71.4592480  69.1483920  36.9714350
  70.7639870  69.4949110  35.6720440  83.1086480  82.6115680  31.2215800
  82.8824060  81.8946120  31.8140440  82.7182680  82.3628120  30.3837550
  82.6902730  80.5287620  32.8829960  82.4024430  80.9900310  33.6707840
  83.4854900  80.0685390  33.1514180  74.9071130  84.0213740  32.8133930
  74.8981230  84.7543430  32.1978440  73.9869490  83.7745320  32.9060890
  70.5077770  79.2428630  33.5580690  69.9005720  79.9827530  33.5675990
  70.9827120  79.3327990  32.7318890  80.0810560  73.4079450  43.2337580
  80.4491380  72.5874660  43.5617150  79.2208760  73.4681340  43.6493230
  77.8930730  84.0841980  31.4759120  77.9942710  83.8805970  30.5461100
  76.9932470  83.8300260  31.6806900  75.4156620  74.6422340  35.4583020
  74.7072770  75.1108680  35.8996630  75.7001100  73.9844350  36.0928210
  79.4472050  71.3673000  36.8978810  79.3239830  71.3859130  35.9488320
  80.3956610  71.4151940  37.0177210  76.5348840  86.6028300  36.1706790
  76.7890340  86.5649690  35.2486160  75.5861320  86.4761630  36.1635040
  73.6191640  72.9507420  32.8333730  74.4682170  73.3877570  32.7673920
  73.2522910  73.2627680  33.6605790  84.2479410  72.2787000  44.3003940
  83.7453010  73.0192400  44.6397750  85.0636070  72.6671000  43.9840730
  82.5401420  77.5220180  37.7465300  81.5991560  77.5370410  37.9212990
  82.8545490  76.7356140  38.1925600  72.5183060  79.2039780  31.3069260
  73.2846330  79.0921140  31.8694690  72.5957750  78.5077750  30.6546030
  71.2129820  76.6364850  31.9902150  71.2933410  75.6892360  32.1019550
  72.1049570  76.9671730  32.0962810  84.5427000  84.6929030  39.4219560
  84.6674420  85.5160200  39.8943370  85.4092560  84.4819760  39.0743710
  68.8990010  82.8533810  34.9678200  67.9729790  83.0954950  34.9583610
  69.3646440  83.6808070  34.8462950  75.6424240  81.1793960  30.7804610
  75.5374880  80.5646310  31.5065990  75.4748460  80.6559850  29.9967620
  78.8826970  80.2413990  31.3846600  78.3337070  80.6883290  32.0289340
  79.5046230  79.7363240  31.9084270  74.5502090  79.2004910  33.2811900
  74.9718510  79.0344780  34.1243290  74.6752930  78.3905140  32.7867040
  77.0629730  78.2242520  30.5289000  77.5835390  77.5091540  30.1630150
  77.7098130  78.8628390  30.8289510  73.4460990  75.2738140  30.2270060
  73.2450050  74.4105500  30.5883400  73.2753040  75.1871500  29.2891660
  72.2443790  72.3738760  30.2147940  72.5469690  72.3806190  29.3067090
  72.9838380  72.0236620  30.7115600  75.4628720  71.3173380  31.2004140
  75.1150720  70.6397370  30.6206590  75.6641490  70.8562890  32.0147530
  68.4819720  84.4670210  38.4998000  68.8122730  83.5991270  38.2676640
  68.9110720  84.6728730  39.3302960  73.0781640  82.7979220  36.1599970
  72.7777180  82.6744190  37.0603880  72.9719130  81.9387810  35.7515700
  84.6072110  84.8357800  45.5256940  84.0074100  84.8950360  44.7820860
  84.7366010  83.8962780  45.6553790  85.8473560  82.5775620  30.8626650
  85.0166520  82.6452270  31.3333880  86.0245390  83.4679740  30.5593510
  85.3030020  79.3223100  33.3660850  86.0648930  79.8919750  33.4720540
  85.3184390  78.7550300  34.1369160  68.8034360  77.8461030  37.5968510
  68.1483200  77.5772670  36.9528210  69.6412310  77.7365510  37.1470490
  86.3089990  80.1773200  38.2102780  86.6798820  79.3940520  37.8038750
  86.9491920  80.8662300  38.0320080  85.3549190  79.6157470  30.5233370
  85.6298030  80.5236350  30.3952590  85.1659930  79.5520000  31.4595360
  85.2514530  77.5526460  35.5162800  84.8758130  76.7854390  35.0844090
  84.5217650  77.9349160  36.0037730  68.0172440  75.0559960  33.5393840
  67.1136520  75.3190160  33.3645500  68.5013060  75.3271130  32.7593800
  84.5265490  75.7783950  38.8170040  85.0502970  75.2846600  38.1860210
  85.1124910  75.9134310  39.5617610  84.7055210  75.8623820  42.3389590
  83.7557920  75.8287360  42.4534580  84.8868220  76.7723930  42.1039360
  70.5599650  74.1125500  31.4488220  71.2691350  73.6908720  30.9635500
  69.8439590  74.1800730  30.8171570  70.2073810  70.1664830  30.4890870
  70.9301940  70.7073770  30.8072090  70.4798330  69.8928250  29.6132410
  69.8966000  69.4171020  40.3913490  70.5442190  68.8668400  39.9508650
  70.3167840  69.6714170  41.2129300  83.3499800  86.3128380  37.1501370
  83.9458870  85.9912950  36.4735790  83.6077950  85.8400200  37.9414640
  86.2172560  86.3200260  43.7012360  85.7230840  86.7169130  42.9839490
  85.6085850  85.6949470  44.0949640  80.5405420  68.9840770  42.6219810
  79.6665260  69.3175880  42.4192740  80.4316170  68.5113950  43.4471680
  83.9012010  86.9623680  40.9799100  83.4414980  87.7139490  40.6057120
  83.2724470  86.2430150  40.9213900  78.2880240  69.9010610  41.5612720
  77.5052030  70.3756110  41.8409480  77.9943170  68.9965440  41.4525900
  82.8401310  70.6033710  39.6061810  83.2809400  70.5478810  38.7583410
  82.5708900  71.5191720  39.6771990  69.0092630  86.3741310  36.5794580
  68.8414670  85.7411990  37.2776470  68.1427140  86.5800710  36.2288770
  69.6320650  70.2058090  34.0826440  70.3900010  70.3186970  33.5090470
  69.1697820  71.0427290  34.0369870  76.1734460  72.3197360  37.0728750
  75.3608970  71.9454250  36.7324630  76.6776100  71.5642440  37.3749940
  80.6759440  68.9839810  38.3111820  81.2788810  69.5560020  38.7860340
  79.9352430  69.5479250  38.0885720  70.6155330  85.0674540  34.0244720
  70.0902950  85.4482570  33.3206680  70.5399910  85.6925310  34.7454430
  72.0045800  70.7322140  32.6228410  72.5338560  69.9451940  32.4936360
  72.6374120  71.4113330  32.8563940  74.1983640  70.4697280  35.6773800
  73.5686380  69.7684590  35.8443930  73.6588780  71.2301410  35.4606960
  72.3763090  83.1321650  32.9040300  71.7471970  83.6006750  33.4526130
  72.4910920  82.2870870  33.3386490  70.3888630  74.2328030  15.5968920
  69.5005330  74.5744000  15.4948800  70.6729820  74.0328350  14.7049750
  68.3521640  76.8333680  21.4808620  68.9237750  76.0655880  21.4812260
  68.3523180  77.1322440  20.5715230  69.5946510  72.2418040  23.2677550
  69.4149350  71.3443790  23.5480310  69.1926590  72.7889910  23.9424500
  72.5650020  72.8159530  16.6307300  72.6716770  73.7163260  16.9376060
  71.6542380  72.7677500  16.3401950  70.2133180  74.7378540  21.8759890
  70.8943290  75.0016910  22.4947290  69.8981230  73.8979410  22.2097900
  74.4057750  75.7845900  20.9632480  74.9135970  76.2826870  21.6037500
  74.9370990  75.0081100  20.7871840  82.4530610  73.8784720  20.8745740
  81.7486180  74.1669610  21.4548850  82.8142770  74.6884830  20.5145300
  84.0693390  83.4959850  23.1373220  83.3856910  84.1658960  23.1289890
  84.6087680  83.6940500  22.3718080  85.5217530  73.3239510  21.2654950
  84.5742440  73.3578490  21.3970380  85.8467520  74.1378460  21.6504310
  78.4417830  77.6885520  16.2971060  77.5147110  77.6222900  16.5259530
  78.5942650  78.6265650  16.1826300  78.4286910  73.9602520  13.2938220
  77.4890580  74.1216480  13.3790680  78.7470170  74.6788200  12.7474210
  82.4715120  79.2505820  16.8006310  81.8527540  78.9125370  16.1532610
  82.4539570  78.6065580  17.5085500  74.0474470  78.2150260  19.0790790
  73.6431470  77.5027510  18.5836690  74.1337590  77.8703500  19.9678830
  72.7603090  74.9893470  22.8589830  73.3117680  75.0988810  22.0843080
  73.2746600  75.3631070  23.5745060  82.6041780  85.4749690  24.9053100
  82.1272340  86.2821880  24.7125710  81.9203570  84.8228020  25.0579310
  80.6479820  78.4892630  13.8079060  81.0873100  77.6515060  13.6616880
  81.3608240  79.1222030  13.8943200  72.4345820  78.5112830  26.4695170
  72.2953590  79.3835630  26.8382570  71.5527180  78.1685640  26.3243110
  84.2296960  69.7435440  12.1220100  83.9169620  69.8362270  13.0219170
  84.9909430  70.3216470  12.0717530  70.7479100  77.1095240  16.5797440
  70.6276700  77.8357330  15.9678710  70.4379990  76.3398150  16.1025350
  85.5874240  82.4274480  27.1344500  85.7137300  82.1886360  26.2161680
  85.6295620  81.5959020  27.6066580  79.4490980  86.1302480  25.7039310
  79.9635650  86.0410490  26.5061740  78.6060060  86.4762180  25.9967220
  73.9033760  86.1956350  16.9094930  73.7276240  85.2791890  16.6962730
  73.0489500  86.5543640  17.1492730  85.4398250  74.4806940  28.0994240
  84.8242520  74.9886610  27.5709700  85.1194670  73.5805270  28.0420180
  82.5017080  74.5407780  26.6953090  81.6510670  74.2413530  27.0162160
  82.3418870  74.7849790  25.7836910  79.5966790  76.0409530  28.7951880
  79.9220200  75.2073280  28.4554110  80.3847120  76.5638050  28.9430210
  73.0056980  75.5763880  17.6902360  72.7797900  75.3601050  18.5948980
  72.2249510  76.0092340  17.3448330  80.2354740  75.5827250  16.2893010
  79.6363630  76.3063050  16.1056630  80.7834350  75.5204030  15.5069460
  75.4456190  76.4749460  28.3562630  75.3499790  75.5344190  28.2063030
  76.2888170  76.6964530  27.9610700  70.5766730  72.8863130  26.5096410
  70.1830120  73.7338340  26.7169190  69.8885130  72.2489500  26.7005050
  77.1511780  72.9698100  29.5793150  76.4610100  72.7770300  30.2139240
  77.8944080  73.2532740  30.1117450  67.8783780  70.8091590  20.5426490
  67.5896830  71.3794450  21.2551470  68.6229540  70.3296040  20.9057720
  68.0654010  74.7511710  11.7529210  67.9828680  75.6942470  11.8944200
  67.7137070  74.6086620  10.8741560  71.7154520  73.3677230  19.7793770
  71.3754570  73.8452460  20.5360820  70.9531840  72.9142350  19.4194870
  75.9272290  74.4862820  13.8106320  76.0485110  74.4449300  14.7592140
  75.5420800  75.3486970  13.6553050  74.9393790  76.7963960  13.2089620
  74.3710690  76.3482210  12.5825530  75.6482790  77.1556740  12.6754770
  69.0300600  72.2896210  18.6958440  68.7447520  71.9251880  19.5337060
  68.9679460  71.5576670  18.0821580  73.9559480  76.5861160  24.8849180
  73.6516550  77.4653140  25.1099540  74.9105940  76.6460950  24.9206620
  72.4841270  80.7922150  15.4816030  71.7103530  80.2519770  15.3214750
  73.2135900  80.2728760  15.1433790  78.6248050  79.8596570  27.1611420
  78.5585360  78.9392240  26.9069010  77.9953190  79.9572010  27.8756060
  81.4187580  75.5545120  13.7133970  82.3067200  75.8662350  13.5385310
  81.3892670  74.6817370  13.3214550  70.0123210  77.4263900  26.0320540
  69.6538150  78.0917750  26.6193880  69.7177770  76.5947450  26.4033160
  73.2136330  77.8848140  28.9160090  72.9136470  78.0305320  28.0187910
  73.9847570  77.3253430  28.8233480  78.5564780  82.6817140  26.9115220
  78.5709320  81.7498100  26.6934130  77.8489880  82.7676900  27.5504990
  83.6901850  76.8656960  13.1813830  83.6065570  77.2971180  12.3310270
  84.4096040  77.3255310  13.6140650  84.7189100  83.7199220  15.9095960
  84.0765260  83.0654840  16.1839680  84.3319760  84.1254310  15.1336630
  68.5231260  77.4255160  12.6555140  69.3926110  77.7079960  12.9391060
  68.0321580  78.2391030  12.5403950  75.6866070  78.8128370  16.7763420
  76.1428850  79.6233620  17.0023610  75.3354280  78.4951510  17.6081910
  77.9898680  84.3234710  24.0055720  78.6340900  84.5294090  24.6829140
  78.3528120  83.5623110  23.5526570  83.1086480  82.6115680  12.4472310
  82.8824060  81.8946120  13.0396950  82.7182680  82.3628120  11.6094060
  81.0368380  83.1261960  25.9269230  81.3724620  83.7128650  26.6047150
  80.1168720  82.9954670  26.1567020  68.5871780  70.9157140  26.7092640
  67.8730300  71.1154060  27.3145250  69.0066820  70.1396710  27.0807440
  82.6902730  80.5287620  14.1086470  82.4024430  80.9900310  14.8964350
  83.4854900  80.0685390  14.3770690  76.8656960  83.1753290  29.0957290
  76.5453830  82.4562530  29.6402980  76.1915320  83.8508360  29.1693350
  70.5077770  79.2428630  14.7837200  69.9005720  79.9827530  14.7932500
  70.9827120  79.3327990  13.9575400  80.0810560  73.4079450  24.4594090
  80.4491380  72.5874660  24.7873660  79.2208760  73.4681340  24.8749740
  83.4472590  72.3636390  15.2681650  82.8185750  72.4682060  14.5539880
  82.9524510  72.5833170  16.0575530  73.6191640  72.9507420  14.0590240
  74.4682170  73.3877570  13.9930430  73.2522910  73.2627680  14.8862300
  84.2479410  72.2787000  25.5260450  83.7453010  73.0192400  25.8654260
  85.0636070  72.6671000  25.2097240  72.5183060  79.2039780  12.5325770
  73.2846330  79.0921140  13.0951200  72.5957750  78.5077750  11.8802540
  71.2129820  76.6364850  13.2158660  71.2933410  75.6892360  13.3276060
  72.1049570  76.9671730  13.3219320  84.5427000  84.6929030  20.6476070
  84.6674420  85.5160200  21.1199880  85.4092560  84.4819760  20.3000220
  75.1246840  85.9590550  12.1418770  75.9175450  86.2479380  11.6900560
  74.6051190  85.5282720  11.4631250  79.8567440  82.0786180  29.4554190
  79.2505600  82.1017780  28.7149940  79.5521550  81.3469220  29.9921440
  81.2867810  85.8066470  28.0663600  82.2389560  85.7224490  28.0163840
  81.1396030  86.4708180  28.7397390  68.7400620  78.4579770  28.4514830
  69.2439640  77.8787050  29.0231060  68.0008040  78.7420000  28.9891200
  75.6424240  81.1793960  12.0061120  75.5374880  80.5646310  12.7322500
  75.4748460  80.6559850  11.2224130  75.7938560  79.8650760  27.9850350
  75.0284230  80.4335760  27.9005020  75.9754520  79.5726970  27.0918580
  78.8826970  80.2413990  12.6103110  78.3337070  80.6883290  13.2545850
  79.5046230  79.7363240  13.1340780  82.9361910  81.5956090  28.5425370
  83.6771380  81.9331850  28.0392830  82.1734590  81.7648150  27.9895140
  70.7723700  76.6009360  29.3464900  70.8129040  76.3023230  30.2550130
  71.6269200  77.0016970  29.1872420  74.5502090  79.2004910  14.5068410
  74.9718510  79.0344780  15.3499800  74.6752930  78.3905140  14.0123550
  72.7129510  75.1801460  27.3139390  72.1825970  74.6892410  26.6862730
  73.3817580  75.6085660  26.7797320  77.0629730  78.2242520  11.7545510
  77.5835390  77.5091540  11.3886660  77.7098130  78.8628390  12.0546020
  82.0829740  76.9867080  29.0819730  82.6650510  76.2319400  28.9940210
  82.2591510  77.5174520  28.3051210  73.4460990  75.2738140  11.4526570
  73.2450050  74.4105500  11.8139910  73.2753040  75.1871500  10.5148170
  75.4755470  73.8728930  27.6890170  76.0655160  73.5644780  28.3767990
  74.6575710  73.4008680  27.8450070  80.2948900  73.4894740  27.9223190
  79.6064420  72.8276280  27.8573180  81.0154920  73.0433010  28.3671650
  72.2443790  72.3738760  11.4404450  72.5469690  72.3806190  10.5323600
  72.9838380  72.0236620  11.9372110  75.4628720  71.3173380  12.4260650
  75.1150720  70.6397370  11.8463100  75.6641490  70.8562890  13.2404040
  71.2673920  81.6781180  12.2734250  71.7048790  82.2210850  12.9291830
  71.7521650  80.8528130  12.2830590  84.6072110  84.8357800  26.7513450
  84.0074100  84.8950360  26.0077370  84.7366010  83.8962780  26.8810300
  85.8473560  82.5775620  12.0883160  85.0166520  82.6452270  12.5590390
  86.0245390  83.4679740  11.7850020  85.3030020  79.3223100  14.5917360
  86.0648930  79.8919750  14.6977050  85.3184390  78.7550300  15.3625670
  83.2923750  81.5609780  24.8489610  82.4783590  81.9906940  25.1115400
  83.6997950  82.1728190  24.2358660  85.3549190  79.6157470  11.7489880
  85.6298030  80.5236350  11.6209100  85.1659930  79.5520000  12.6851870
  81.7524800  72.6402320  13.0443510  82.1709680  72.4533300  12.2040170
  81.4460860  71.7881370  13.3546440  85.2514530  77.5526460  16.7419310
  84.8758130  76.7854390  16.3100600  84.5217650  77.9349160  17.2294240
  84.6414150  76.6997980  26.3758830  84.4100240  76.4710730  25.4756780
  84.9018700  77.6197530  26.3303720  69.3926290  75.1422690  27.2686780
  68.4982340  75.1089450  27.6080490  69.9323840  75.3409480  28.0338030
  68.0172440  75.0559960  14.7650350  67.1136520  75.3190160  14.5902010
  68.5013060  75.3271130  13.9850310  70.5599650  74.1125500  12.6744730
  71.2691350  73.6908720  12.1892010  69.8439590  74.1800730  12.0428080
  70.2073810  70.1664830  11.7147380  70.9301940  70.7073770  12.0328600
  70.4798330  69.8928250  10.8388920  84.0165460  75.0357300  15.9818960
  84.5124580  74.8028170  16.7667840  83.8181530  74.1969140  15.5656600
  85.4452620  73.6718250  18.5156640  85.3351900  73.5174290  19.4538910
  86.2060210  73.1439190  18.2732050  83.7918340  69.6112380  24.9739640
  84.4290560  70.2246520  25.3398830  83.9393230  69.6473040  24.0288870
  86.3342890  71.5026170  11.7562780  87.2592200  71.3707350  11.5481070
  86.3118680  71.5818990  12.7099230  86.4081380  72.2736830  14.3819490
  85.6132880  72.2081950  14.9112400  86.6124660  73.2087470  14.3704840
  69.6498000  69.5726690  24.3595320  69.3012820  70.0290510  25.1253500
  69.3185700  68.6783820  24.4417750  77.1622820  70.7638570  27.8814740
  77.1011710  71.3560400  28.6310150  78.1023200  70.6564530  27.7365000
  79.7997380  70.4208630  27.5207030  80.4137790  70.7387920  26.8588110
  80.3446940  69.9357220  28.1402890  86.2172560  86.3200260  24.9268870
  85.7230840  86.7169130  24.2096000  85.6085850  85.6949470  25.3206150
  70.3218640  69.1002890  27.6346090  70.8701630  68.9190940  26.8712200
  70.3873950  68.3097000  28.1702400  80.5405420  68.9840770  23.8476320
  79.6665260  69.3175880  23.6449250  80.4316170  68.5113950  24.6728190
  81.4477400  71.1911640  25.2318040  81.1190760  70.3763400  24.8519770
  82.3959700  71.1481450  25.1083730  83.9012010  86.9623680  22.2055610
  83.4414980  87.7139490  21.8313630  83.2724470  86.2430150  22.1470410
  82.8401310  70.6033710  20.8318320  83.2809400  70.5478810  19.9839920
  82.5708900  71.5191720  20.9028500  84.7039880  70.2348950  18.8427140
  84.6428280  69.2910170  18.6958160  85.4831910  70.3429040  19.3880600
  69.6320650  70.2058090  15.3082950  70.3900010  70.3186970  14.7346980
  69.1697820  71.0427290  15.2626380  83.8194040  69.3861370  14.8108610
  84.0144670  70.2844820  15.0776040  83.0323910  69.1548450  15.3041560
  72.0045800  70.7322140  13.8484920  72.5338560  69.9451940  13.7192870
  72.6374120  71.4113330  14.0820450  74.3239200  69.7481260  29.3382800
  74.0423470  70.2514860  28.5743620  74.7058900  68.9503010  28.9724930
  73.2148300  87.0156920  14.1250480  73.9467120  86.7316200  13.5774370
  73.4741970  86.7770200  15.0149860  72.3763090  83.1321650  14.1296810
  71.7471970  83.6006750  14.6782640  72.4910920  82.2870870  14.5643000
  77.9630850  78.9606330   2.1607280  77.1872950  78.4806770   2.4505850
  78.6143780  78.2811980   1.9863440  71.9796680  79.2726140   3.0383040
  71.1481560  79.0174850   3.4379550  72.5877660  79.3436910   3.7740960
  71.9597940  83.3066230   3.2341060  72.2625980  82.4163970   3.0551280
  72.7041530  83.8636450   3.0063310  68.3521640  76.8333680   2.7065130
  68.9237750  76.0655880   2.7068770  68.3523180  77.1322440   1.7971740
  77.4039840  81.6363520   2.1677440  77.3348120  80.6953460   2.0066570
  78.1659700  81.7264930   2.7400010  69.5946510  72.2418040   4.4934060
  69.4149350  71.3443790   4.7736820  69.1926590  72.7889910   5.1681010
  70.2133180  74.7378540   3.1016400  70.8943290  75.0016910   3.7203800
  69.8981230  73.8979410   3.4354410  74.4057750  75.7845900   2.1888990
  74.9135970  76.2826870   2.8294010  74.9370990  75.0081100   2.0128350
  86.5068680  73.9551090   5.8918340  85.8020850  74.3432800   5.3733450
  86.7726600  74.6501380   6.4939270  72.6893850  70.4244460   6.4552410
  72.6912290  70.9416850   5.6498310  71.8598160  69.9474640   6.4322340
  73.9396700  80.0639640   4.6325910  73.6066080  80.6908560   5.2746980
  74.1163380  80.5901520   3.8527580  82.4530610  73.8784720   2.1002250
  81.7486180  74.1669610   2.6805360  82.8142770  74.6884830   1.7401810
  72.3709180  72.1354420   4.4622860  72.7125990  72.9796470   4.1676730
  71.4324990  72.2838160   4.5788200  73.1515800  82.0320440   6.4475090
  73.7689800  82.7071520   6.1659540  72.2908920  82.4408420   6.3562590
  84.0693390  83.4959850   4.3629730  83.3856910  84.1658960   4.3546400
  84.6087680  83.6940500   3.5974590  85.5217530  73.3239510   2.4911460
  84.5742440  73.3578490   2.6226890  85.8467520  74.1378460   2.8760820
  81.6052130  85.3403980   3.0774910  81.6179290  84.9366270   2.2097170
  81.0527350  86.1151270   2.9736340  81.0037570  80.2433820   4.4057520
  81.4206360  80.0293930   3.5710980  81.7277390  80.5006610   4.9766140
  84.9499670  78.6421040   4.4973760  84.1218300  78.7114130   4.0223890
  85.5450150  79.2275350   4.0289590  81.9141680  75.4290360   5.4428630
  81.5012860  76.2544070   5.6968620  81.1817630  74.8435400   5.2504990
  74.5156170  81.9017820   2.4686510  74.2184460  81.2963290   1.7894290
  75.4655990  81.9395130   2.3575870  72.7603090  74.9893470   4.0846340
  73.3117680  75.0988810   3.3099590  73.2746600  75.3631070   4.8001570
  82.6041780  85.4749690   6.1309610  82.1272340  86.2821880   5.9382220
  81.9203570  84.8228020   6.2835820  73.6074600  81.6399510   9.1194310
  72.7103130  81.8639480   9.3667710  73.6327470  81.7634450   8.1705710
  72.4345820  78.5112830   7.6951680  72.2953590  79.3835630   8.0639080
  71.5527180  78.1685640   7.5499620  74.2326170  84.4534530   9.9036830
  74.2041600  84.8577480   9.0365260  74.0691140  83.5244890   9.7408430
  86.1840990  85.2361630  11.2001000  86.6600710  85.7144520  11.8790080
  86.8048150  85.1679120  10.4746500  68.3864470  80.2810380   3.6122590
  68.4644890  80.4159150   2.6678310  69.0006150  79.5726270   3.8050710
  85.5874240  82.4274480   8.3601010  85.7137300  82.1886360   7.4418190
  85.6295620  81.5959020   8.8323090  79.4490980  86.1302480   6.9295820
  79.9635650  86.0410490   7.7318250  78.6060060  86.4762180   7.2223730
  85.4398250  74.4806940   9.3250750  84.8242520  74.9886610   8.7966210
  85.1194670  73.5805270   9.2676690  68.4423990  81.3224550   6.1517050
  68.6055030  80.8529910   5.3336420  68.9076440  80.8148110   6.8165890
  77.5012570  73.3198830   6.7912940  77.0391940  73.5281850   7.6032880
  77.0990680  72.5058180   6.4883610  82.5017080  74.5407780   7.9209600
  81.6510670  74.2413530   8.2418670  82.3418870  74.7849790   7.0093420
  79.5966790  76.0409530  10.0208390  79.9220200  75.2073280   9.6810620
  80.3847120  76.5638050  10.1686720  75.2518660  70.9977640   3.0467220
  75.5490990  71.9040470   2.9659240  75.8004220  70.5096420   2.4326790
  75.4456190  76.4749460   9.5819140  75.3499790  75.5344190   9.4319540
  76.2888170  76.6964530   9.1867210  70.5766730  72.8863130   7.7352920
  70.1830120  73.7338340   7.9425700  69.8885130  72.2489500   7.9261560
  77.1511780  72.9698100  10.8049660  76.4610100  72.7770300  11.4395750
  77.8944080  73.2532740  11.3373960  67.8783780  70.8091590   1.7683000
  67.5896830  71.3794450   2.4807980  68.6229540  70.3296040   2.1314230
  79.4274750  76.8096540   3.6403580  78.6955870  77.3183350   3.9893680
  79.0299090  75.9926520   3.3392360  79.8900660  72.2630220   3.0526520
  79.9073400  72.7138870   3.8968370  79.6416240  71.3635860   3.2659960
  83.3171410  69.6762400   8.8912900  83.6417180  68.9452060   9.4170880
  83.3527920  69.3576040   7.9893890  70.0162970  80.6975980   8.3112860
  69.6317760  80.0569650   8.9095820  70.3275160  81.4012100   8.8807590
  76.1660110  77.5452520   3.7921480  76.5330240  77.0711090   4.5382820
  75.9765170  78.4194090   4.1329820  73.9559480  76.5861160   6.1105690
  73.6516550  77.4653140   6.3356050  74.9105940  76.6460950   6.1463130
  83.2429250  79.7887510   2.4998930  83.9628370  80.2842800   2.1095040
  83.0411070  79.1105400   1.8552800  78.6248050  79.8596570   8.3867930
  78.5585360  78.9392240   8.1325520  77.9953190  79.9572010   9.1012570
  70.0123210  77.4263900   7.2577050  69.6538150  78.0917750   7.8450390
  69.7177770  76.5947450   7.6289670  73.2136330  77.8848140  10.1416600
  72.9136470  78.0305320   9.2444420  73.9847570  77.3253430  10.0489990
  78.5564780  82.6817140   8.1371730  78.5709320  81.7498100   7.9190640
  77.8489880  82.7676900   8.7761500  84.7675990  79.3224480   7.4840310
  84.0424180  79.9153260   7.2869700  85.2951450  79.3148020   6.6853680
  77.9898680  84.3234710   5.2312230  78.6340900  84.5294090   5.9085650
  78.3528120  83.5623110   4.7783080  79.2630760  82.3267060   3.9489680
  79.9052990  81.6260220   4.0621850  79.7880110  83.1065500   3.7686570
  81.0368380  83.1261960   7.1525740  81.3724620  83.7128650   7.8303660
  80.1168720  82.9954670   7.3823530  68.5871780  70.9157140   7.9349150
  67.8730300  71.1154060   8.5401760  69.0066820  70.1396710   8.3063950
  68.8744370  84.9037400   8.9215680  68.9835490  83.9632140   8.7811070
  68.2224930  85.1692150   8.2729410  76.8656960  83.1753290  10.3213800
  76.5453830  82.4562530  10.8659490  76.1915320  83.8508360  10.3949860
  80.0810560  73.4079450   5.6850600  80.4491380  72.5874660   6.0130170
  79.2208760  73.4681340   6.1006250  77.0412550  76.0619040   5.9088570
  77.5397800  76.5364860   6.5740420  77.1835500  75.1382560   6.1158600
  84.2479410  72.2787000   6.7516960  83.7453010  73.0192400   7.0910770
  85.0636070  72.6671000   6.4353750  71.0202810  85.9706310  10.7335290
  71.8215540  86.2918360  11.1470690  70.5054630  85.6101890  11.4555200
  79.8567440  82.0786180  10.6810700  79.2505600  82.1017780   9.9406450
  79.5521550  81.3469220  11.2177950  81.2867810  85.8066470   9.2920110
  82.2389560  85.7224490   9.2420350  81.1396030  86.4708180   9.9653900
  68.7400620  78.4579770   9.6771340  69.2439640  77.8787050  10.2487570
  68.0008040  78.7420000  10.2147710  75.7938560  79.8650760   9.2106860
  75.0284230  80.4335760   9.1261530  75.9754520  79.5726970   8.3175090
  82.9361910  81.5956090   9.7681880  83.6771380  81.9331850   9.2649340
  82.1734590  81.7648150   9.2151650  70.7723700  76.6009360  10.5721410
  70.8129040  76.3023230  11.4806640  71.6269200  77.0016970  10.4128930
  72.7129510  75.1801460   8.5395900  72.1825970  74.6892410   7.9119240
  73.3817580  75.6085660   8.0053830  81.6107570  79.6470920   8.3037090
  82.0248590  79.8016000   9.1527510  80.6758570  79.7726140   8.4662870
  82.0829740  76.9867080  10.3076240  82.6650510  76.2319400  10.2196720
  82.2591510  77.5174520   9.5307720  73.2001810  72.1463830   8.6193190
  73.1058680  71.5284580   7.8944060  72.6199200  72.8730120   8.3923100
  75.9663250  70.7037070   5.6520580  75.5180550  70.7261330   4.8066130
  75.3328450  70.3056090   6.2490880  76.3722800  79.5991400   6.2733020
  76.7910910  80.4424130   6.1009260  75.4531430  79.7363440   6.0439800
  78.7086700  77.3307580   7.6570860  78.8282910  76.7348720   8.3965700
  79.5680700  77.3677270   7.2372160  81.0474600  77.8844770   6.2333370
  80.5209820  78.4087390   5.6298510  81.3905940  78.5172160   6.8643100
  74.2230220  85.9044410   7.3890750  73.6851310  86.6290470   7.0699450
  74.4764180  85.4274750   6.5988090  75.4755470  73.8728930   8.9146680
  76.0655160  73.5644780   9.6024500  74.6575710  73.4008680   9.0706580
  80.2948900  73.4894740   9.1479700  79.6064420  72.8276280   9.0829690
  81.0154920  73.0433010   9.5928160  77.0792430  87.1395620   7.6477400
  77.0051130  88.0430760   7.9549770  76.1771270  86.8207520   7.6199470
  68.9709930  85.3340800   3.6892650  68.5340920  85.5141600   4.5216800
  69.5387610  86.0915420   3.5474370  84.6072110  84.8357800   7.9769960
  84.0074100  84.8950360   7.2333880  84.7366010  83.8962780   8.1066810
  83.2923750  81.5609780   6.0746120  82.4783590  81.9906940   6.3371910
  83.6997950  82.1728190   5.4615170  69.8410290  78.2313600   4.5884870
  70.2083330  78.1441000   5.4680890  69.2721110  77.4680150   4.4891730
  84.6414150  76.6997980   7.6015340  84.4100240  76.4710730   6.7013290
  84.9018700  77.6197530   7.5560230  69.3926290  75.1422690   8.4943290
  68.4982340  75.1089450   8.8337000  69.9323840  75.3409480   9.2594540
  83.0802220  71.9254410  10.3795040  83.9572400  71.9337810  10.7629040
  83.0923060  71.1885250   9.7687390  84.7055210  75.8623820   4.7902610
  83.7557920  75.8287360   4.9047600  84.8868220  76.7723930   4.5552380
  69.8966000  69.4171020   2.8426510  70.5442190  68.8668400   2.4021670
  70.3167840  69.6714170   3.6642320  83.7918340  69.6112380   6.1996150
  84.4290560  70.2246520   6.5655340  83.9393230  69.6473040   5.2545380
  69.6498000  69.5726690   5.5851830  69.3012820  70.0290510   6.3510010
  69.3185700  68.6783820   5.6674260  71.2562370  82.7446290   9.7505020
  71.2132000  82.3739200  10.6319480  71.3873380  83.6823860   9.8906840
  74.9568400  84.3005880   5.3514740  74.7159760  84.5680440   4.4645260
  75.8971040  84.4711610   5.4065600  77.1622820  70.7638570   9.1071250
  77.1011710  71.3560400   9.8566660  78.1023200  70.6564530   8.9621510
  79.7997380  70.4208630   8.7463540  80.4137790  70.7387920   8.0844620
  80.3446940  69.9357220   9.3659400  86.2172560  86.3200260   6.1525380
  85.7230840  86.7169130   5.4352510  85.6085850  85.6949470   6.5462660
  70.3218640  69.1002890   8.8602600  70.8701630  68.9190940   8.0968710
  70.3873950  68.3097000   9.3958910  71.0950400  85.6908540   6.8702800
  70.5010720  85.5593240   7.6092840  71.0874240  84.8546680   6.4044900
  80.5405420  68.9840770   5.0732830  79.6665260  69.3175880   4.8705760
  80.4316170  68.5113950   5.8984700  81.4477400  71.1911640   6.4574550
  81.1190760  70.3763400   6.0776280  82.3959700  71.1481450   6.3340240
  83.9012010  86.9623680   3.4312120  83.4414980  87.7139490   3.0570140
  83.2724470  86.2430150   3.3726920  70.7262630  83.0566920   5.8210840
  69.9996690  82.4372210   5.7536790  70.7871780  83.4507530   4.9508920
  74.3307730  85.2711920   2.6060250  74.8472750  84.6599280   2.0808510
  74.9805110  85.7740700   3.0971260  77.0703230  86.1620410   3.4329230
  77.3581040  85.9074710   2.5562240  77.5826450  85.6097770   4.0234800
  78.2880240  69.9010610   4.0125740  77.5052030  70.3756110   4.2922500
  77.9943170  68.9965440   3.9038920  77.1375590  87.0836510  10.7997430
  78.0642900  86.8480780  10.8433390  77.1226020  87.9108510  10.3183460
  74.3239200  69.7481260  10.5639310  74.0423470  70.2514860   9.8000130
  74.7058900  68.9503010  10.1981440  80.9254660  69.1634840  11.1419780
  80.8120110  69.4829450  12.0371300  81.7424400  69.5647350  10.8457060
  83.7053150  86.3106370  10.6238470  84.4978470  85.8155600  10.4164430
  83.9986300  86.9896510  11.2314080  79.8312810  58.4083820 150.4745930
  79.7506860  57.4938430 150.2037640  79.4177230  58.9050890 149.7685640
  81.9838280  64.5923030 151.1354330  81.5219810  63.8210270 151.4641500
  82.7963830  64.6189100 151.6406780  70.3888630  55.4584540 147.0173350
  69.5005330  55.8000510 146.9153230  70.6729820  55.2584860 146.1254180
  78.2101590  66.8781040 150.7558320  77.5913030  67.3338540 150.1852760
  79.0653370  67.0332500 150.3548020  72.5650020  54.0416040 148.0511730
  72.6716770  54.9419770 148.3580490  71.6542380  53.9934010 147.7606380
  82.2169130  53.1640850 149.5222630  83.0378750  52.6737420 149.5648110
  82.2503210  53.7538510 150.2754470  79.0764940  61.7620280 148.1490230
  78.4582210  62.2269730 147.5852950  79.5888190  62.4547760 148.5659740
  68.4448140  62.4476810 145.5229860  68.0676120  62.9363910 144.7914760
  68.7021210  63.1202090 146.1536390  76.0537070  50.8493200 150.9815370
  76.3612050  50.2940090 150.2650870  75.1237770  50.9837660 150.7988360
  82.8997550  63.2876710 148.3613000  82.7893880  62.3451040 148.4862420
  82.8965800  63.6492350 149.2475760  78.4417830  58.9142030 147.7175490
  77.5147110  58.8479410 147.9463960  78.5942650  59.8522160 147.6030730
  78.4286910  55.1859030 144.7142650  77.4890580  55.3472990 144.7995110
  78.7470170  55.9044710 144.1678640  82.4715120  60.4762330 148.2210740
  81.8527540  60.1381880 147.5737040  82.4539570  59.8322090 148.9289930
  74.0474470  59.4406770 150.4995220  73.6431470  58.7284020 150.0041120
  74.1337590  59.0960010 151.3883260  80.6479820  59.7149140 145.2283490
  81.0873100  58.8771570 145.0821310  81.3608240  60.3478540 145.3147630
  78.7575200  64.6545210 149.1964730  79.1971110  65.3969540 148.7820120
  78.6962090  64.8971780 150.1203690  84.2296960  50.9691950 143.5424530
  83.9169620  51.0618780 144.4423600  84.9909430  51.5472980 143.4921960
  70.7479100  58.3351750 148.0001870  70.6276700  59.0613840 147.3883140
  70.4379990  57.5654660 147.5229780  69.6312100  63.2067080 150.2176690
  69.2240180  63.3481670 149.3630290  70.5225110  62.9227240 150.0147900
  81.4245380  67.6414330 146.5527740  81.2646520  67.3517270 147.4509570
  81.2592090  66.8654460 146.0172970  73.9033760  67.4212860 148.3299360
  73.7276240  66.5048400 148.1167160  73.0489500  67.7800150 148.5697160
  81.1271510  65.1501890 145.1125740  80.4336670  65.1479180 144.4528020
  81.8694370  64.7261210 144.6819910  80.6921440  66.7764600 149.1874230
  81.1478390  65.9953980 149.5012850  81.0313960  67.4871420 149.7315410
  73.2142760  51.6786820 151.3825540  72.7710910  52.4596360 151.0510060
  73.7727750  52.0016710 152.0896480  76.3301580  51.2997520 146.2631370
  75.7055760  51.2957390 146.9884680  76.2431700  50.4328480 145.8667340
  73.0056980  56.8020390 149.1106790  72.7797900  56.5857560 150.0153410
  72.2249510  57.2348850 148.7652760  80.2354740  56.8083760 147.7097440
  79.6363630  57.5319560 147.5261060  80.7834350  56.7460540 146.9273890
  78.8419610  55.4447300 149.7400720  79.2349180  55.7619500 148.9269410
  79.2036460  54.5659180 149.8545240  68.0654010  55.9768220 143.1733640
  67.9828680  56.9198980 143.3148630  67.7137070  55.8343130 142.2945990
  75.8652140  54.7107250 152.2403990  75.8688200  54.2697200 151.3908530
  76.7603260  55.0324580 152.3475810  71.7154520  54.5933740 151.1998200
  71.3754570  55.0708970 151.9565250  70.9531840  54.1398860 150.8399300
  75.9272290  55.7119330 145.2310750  76.0485110  55.6705810 146.1796570
  75.5420800  56.5743480 145.0757480  74.9393790  58.0220470 144.6294050
  74.3710690  57.5738720 144.0029960  75.6482790  58.3813250 144.0959200
  69.0300600  53.5152720 150.1162870  68.7447520  53.1508390 150.9541490
  68.9679460  52.7833180 149.5026010  72.4841270  62.0178660 146.9020460
  71.7103530  61.4776280 146.7419180  73.2135900  61.4985270 146.5638220
  78.7039190  52.4081980 146.8376240  77.8903800  51.9095150 146.7621550
  78.5101140  53.2480230 146.4212590  81.4187580  56.7801630 145.1338400
  82.3067200  57.0918860 144.9589740  81.3892670  55.9073880 144.7418980
  72.5278670  61.6859040 150.5399270  73.0457340  60.8827300 150.4856160
  72.0762690  61.6238180 151.3816100  77.4148170  62.9525320 145.8126570
  77.7563870  63.6967550 145.3169890  76.5860880  63.2656440 146.1751400
  83.6901850  58.0913470 144.6018260  83.6065570  58.5227690 143.7514700
  84.4096040  58.5511820 145.0345080  84.7189100  64.9455730 147.3300390
  84.0765260  64.2911350 147.6044110  84.3319760  65.3510820 146.5541060
  80.2975580  62.2741160 151.1772080  80.6499400  61.6769290 150.5173450
  79.4137910  61.9485390 151.3480330  76.3838860  63.0338850 148.5842490
  77.0709990  63.5808060 148.9650080  75.5971280  63.5779580 148.6192100
  68.5231260  58.6511670 144.0759570  69.3926110  58.9336470 144.3595490
  68.0321580  59.4647540 143.9608380  75.6866070  60.0384880 148.1967850
  76.1428850  60.8490130 148.4228040  75.3354280  59.7208020 149.0286340
  71.5877850  50.3822530 148.6690370  71.4592480  50.3740430 149.6175290
  70.7639870  50.7205620 148.3181380  83.1086480  63.8372190 143.8676740
  82.8824060  63.1202630 144.4601380  82.7182680  63.5884630 143.0298490
  68.8902510  67.8639050 144.6421200  69.2500150  68.4628390 143.9878470
  68.7494850  68.4098940 145.4156230  82.6902730  61.7544130 145.5290900
  82.4024430  62.2156820 146.3168780  83.4854900  61.2941900 145.7975120
  74.9071130  65.2470250 145.4594870  74.8981230  65.9799940 144.8439380
  73.9869490  65.0001830 145.5521830  70.5077770  60.4685140 146.2041630
  69.9005720  61.2084040 146.2136930  70.9827120  60.5584500 145.3779830
  83.4472590  53.5892900 146.6886080  82.8185750  53.6938570 145.9744310
  82.9524510  53.8089680 147.4779960  77.8930730  65.3098490 144.1220060
  77.9942710  65.1062480 143.1922040  76.9932470  65.0556770 144.3267840
  75.4156620  55.8678850 148.1043960  74.7072770  56.3365190 148.5457570
  75.7001100  55.2100860 148.7389150  79.4472050  52.5929510 149.5439750
  79.3239830  52.6115640 148.5949260  80.3956610  52.6408450 149.6638150
  76.5348840  67.8284810 148.8167730  76.7890340  67.7906200 147.8947100
  75.5861320  67.7018140 148.8095980  73.6191640  54.1763930 145.4794670
  74.4682170  54.6134080 145.4134860  73.2522910  54.4884190 146.3066730
  82.5401420  58.7476690 150.3926240  81.5991560  58.7626920 150.5673930
  82.8545490  57.9612650 150.8386540  72.5183060  60.4296290 143.9530200
  73.2846330  60.3177650 144.5155630  72.5957750  59.7334260 143.3006970
  71.2129820  57.8621360 144.6363090  71.2933410  56.9148870 144.7480490
  72.1049570  58.1928240 144.7423750  72.0144530  68.0116750 151.7397630
  72.7507010  67.4632210 152.0106200  72.3985450  68.8772760 151.6003620
  68.8990010  64.0790320 147.6139140  67.9729790  64.3211460 147.6044550
  69.3646440  64.9064580 147.4923890  75.1246840  67.1847060 143.5623200
  75.9175450  67.4735890 143.1104990  74.6051190  66.7539230 142.8835680
  84.1777010  66.4117190 144.9859940  83.8918520  65.9982330 144.1714120
  83.9796560  67.3404900 144.8660460  75.6424240  62.4050470 143.4265550
  75.5374880  61.7902820 144.1526930  75.4748460  61.8816360 142.6428560
  78.8826970  61.4670500 144.0307540  78.3337070  61.9139800 144.6750280
  79.5046230  60.9619750 144.5545210  74.5502090  60.4261420 145.9272840
  74.9718510  60.2601290 146.7704230  74.6752930  59.6161650 145.4327980
  77.0629730  59.4499030 143.1749940  77.5835390  58.7348050 142.8091090
  77.7098130  60.0884900 143.4750450  73.4460990  56.4994650 142.8731000
  73.2450050  55.6362010 143.2344340  73.2753040  56.4128010 141.9352600
  80.9249300  51.3102880 145.4017880  81.2051590  50.4670780 145.7577300
  80.1515030  51.5425990 145.9156630  72.2443790  53.5995270 142.8608880
  72.5469690  53.6062700 141.9528030  72.9838380  53.2493130 143.3576540
  75.4628720  52.5429890 143.8465080  75.1150720  51.8653880 143.2667530
  75.6641490  52.0819400 144.6608470  77.6277760  67.5310640 145.4651680
  78.5228550  67.8695610 145.4870440  77.6595390  66.8090050 144.8375960
  71.2673920  62.9037690 143.6938680  71.7048790  63.4467360 144.3496260
  71.7521650  62.0784640 143.7035020  68.4819720  65.6926720 151.1458940
  68.8122730  64.8247780 150.9137580  68.9110720  65.8985240 151.9763900
  73.0781640  64.0235730 148.8060910  72.7777180  63.9000700 149.7064820
  72.9719130  63.1644320 148.3976640  85.8473560  63.8032130 143.5087590
  85.0166520  63.8708780 143.9794820  86.0245390  64.6936250 143.2054450
  85.3030020  60.5479610 146.0121790  86.0648930  61.1176260 146.1181480
  85.3184390  59.9806810 146.7830100  68.8034360  59.0717540 150.2429450
  68.1483200  58.8029180 149.5989150  69.6412310  58.9622020 149.7931430
  86.3089990  61.4029710 150.8563720  86.6798820  60.6197030 150.4499690
  86.9491920  62.0918810 150.6781020  85.3549190  60.8413980 143.1694310
  85.6298030  61.7492860 143.0413530  85.1659930  60.7776510 144.1056300
  81.7524800  53.8658830 144.4647940  82.1709680  53.6789810 143.6244600
  81.4460860  53.0137880 144.7750870  85.2514530  58.7782970 148.1623740
  84.8758130  58.0110900 147.7305030  84.5217650  59.1605670 148.6498670
  68.0172440  56.2816470 146.1854780  67.1136520  56.5446670 146.0106440
  68.5013060  56.5527640 145.4054740  84.5265490  57.0040460 151.4630980
  85.0502970  56.5103110 150.8321150  85.1124910  57.1390820 152.2078550
  70.5599650  55.3382010 144.0949160  71.2691350  54.9165230 143.6096440
  69.8439590  55.4057240 143.4632510  70.2073810  51.3921340 143.1351810
  70.9301940  51.9330280 143.4533030  70.4798330  51.1184760 142.2593350
  84.0165460  56.2613810 147.4023390  84.5124580  56.0284680 148.1872270
  83.8181530  55.4225650 146.9861030  85.4452620  54.8974760 149.9361070
  85.3351900  54.7430800 150.8743340  86.2060210  54.3695700 149.6936480
  86.3342890  52.7282680 143.1767210  87.2592200  52.5963860 142.9685500
  86.3118680  52.8075500 144.1303660  86.4081380  53.4993340 145.8023920
  85.6132880  53.4338460 146.3316830  86.6124660  54.4343980 145.7909270
  83.3499800  67.5384890 149.7962310  83.9458870  67.2169460 149.1196730
  83.6077950  67.0656710 150.5875580  82.8401310  51.8290220 152.2522750
  83.2809400  51.7735320 151.4044350  82.5708900  52.7448230 152.3232930
  84.7039880  51.4605460 150.2631570  84.6428280  50.5166680 150.1162590
  85.4831910  51.5685550 150.8085030  69.0092630  67.5997820 149.2255520
  68.8414670  66.9668500 149.9237410  68.1427140  67.8057220 148.8749710
  69.6320650  51.4314600 146.7287380  70.3900010  51.5443480 146.1551410
  69.1697820  52.2683800 146.6830810  76.1734460  53.5453870 149.7189690
  75.3608970  53.1710760 149.3785570  76.6776100  52.7898950 150.0210880
  80.6759440  50.2096320 150.9572760  81.2788810  50.7816530 151.4321280
  79.9352430  50.7735760 150.7346660  83.8194040  50.6117880 146.2313040
  84.0144670  51.5101330 146.4980470  83.0323910  50.3804960 146.7245990
  70.6155330  66.2931050 146.6705660  70.0902950  66.6739080 145.9667620
  70.5399910  66.9181820 147.3915370  72.0045800  51.9578650 145.2689350
  72.5338560  51.1708450 145.1397300  72.6374120  52.6369840 145.5024880
  74.1983640  51.6953790 148.3234740  73.5686380  50.9941100 148.4904870
  73.6588780  52.4557920 148.1067900  85.3720650  67.8518590 147.9919600
  85.5472840  67.1656330 147.3480520  84.6742220  68.3765640 147.5996270
  73.2148300  68.2413430 145.5454910  73.9467120  67.9572710 144.9978800
  73.4741970  68.0026710 146.4354290  72.3763090  64.3578160 145.5501240
  71.7471970  64.8263260 146.0987070  72.4910920  63.5127380 145.9847430
  79.8312810  58.4083820 131.7002440  79.7506860  57.4938430 131.4294150
  79.4177230  58.9050890 130.9942150  77.9630850  60.1862840 133.5811710
  77.1872950  59.7063280 133.8710280  78.6143780  59.5068490 133.4067870
  71.9796680  60.4982650 134.4587470  71.1481560  60.2431360 134.8583980
  72.5877660  60.5693420 135.1945390  71.9597940  64.5322740 134.6545490
  72.2625980  63.6420480 134.4755710  72.7041530  65.0892960 134.4267740
  70.3888630  55.4584540 128.2429860  69.5005330  55.8000510 128.1409740
  70.6729820  55.2584860 127.3510690  68.3521640  58.0590190 134.1269560
  68.9237750  57.2912390 134.1273200  68.3523180  58.3578950 133.2176170
  77.4039840  62.8620030 133.5881870  77.3348120  61.9209970 133.4271000
  78.1659700  62.9521440 134.1604440  69.5946510  53.4674550 135.9138490
  69.4149350  52.5700300 136.1941250  69.1926590  54.0146420 136.5885440
  78.4345010  55.6690410 133.8150800  78.8109830  54.7962290 133.7024470
  78.3364520  56.0049110 132.9241240  72.5650020  54.0416040 129.2768240
  72.6716770  54.9419770 129.5837000  71.6542380  53.9934010 128.9862890
  82.2169130  53.1640850 130.7479140  83.0378750  52.6737420 130.7904620
  82.2503210  53.7538510 131.5010980  70.2133180  55.9635050 134.5220830
  70.8943290  56.2273420 135.1408230  69.8981230  55.1235920 134.8558840
  74.4057750  57.0102410 133.6093420  74.9135970  57.5083380 134.2498440
  74.9370990  56.2337610 133.4332780  86.5068680  55.1807600 137.3122770
  85.8020850  55.5689310 136.7937880  86.7726600  55.8757890 137.9143700
  72.6893850  51.6500970 137.8756840  72.6912290  52.1673360 137.0702740
  71.8598160  51.1731150 137.8526770  79.0764940  61.7620280 129.3746740
  78.4582210  62.2269730 128.8109460  79.5888190  62.4547760 129.7916250
  73.9396700  61.2896150 136.0530340  73.6066080  61.9165070 136.6951410
  74.1163380  61.8158030 135.2732010  82.4530610  55.1041230 133.5206680
  81.7486180  55.3926120 134.1009790  82.8142770  55.9141340 133.1606240
  72.3709180  53.3610930 135.8827290  72.7125990  54.2052980 135.5881160
  71.4324990  53.5094670 135.9992630  73.1515800  63.2576950 137.8679520
  73.7689800  63.9328030 137.5863970  72.2908920  63.6664930 137.7767020
  85.5217530  54.5496020 133.9115890  84.5742440  54.5835000 134.0431320
  85.8467520  55.3634970 134.2965250  81.6052130  66.5660490 134.4979340
  81.6179290  66.1622780 133.6301600  81.0527350  67.3407780 134.3940770
  81.0037570  61.4690330 135.8261950  81.4206360  61.2550440 134.9915410
  81.7277390  61.7263120 136.3970570  84.9499670  59.8677550 135.9178190
  84.1218300  59.9370640 135.4428320  85.5450150  60.4531860 135.4494020
  82.4715120  60.4762330 129.4467250  81.8527540  60.1381880 128.7993550
  82.4539570  59.8322090 130.1546440  81.9141680  56.6546870 136.8633060
  81.5012860  57.4800580 137.1173050  81.1817630  56.0691910 136.6709420
  74.0474470  59.4406770 131.7251730  73.6431470  58.7284020 131.2297630
  74.1337590  59.0960010 132.6139770  74.5156170  63.1274330 133.8890940
  74.2184460  62.5219800 133.2098720  75.4655990  63.1651640 133.7780300
  72.7603090  56.2149980 135.5050770  73.3117680  56.3245320 134.7304020
  73.2746600  56.5887580 136.2206000  82.6041780  66.7006200 137.5514040
  82.1272340  67.5078390 137.3586650  81.9203570  66.0484530 137.7040250
  73.6074600  62.8656020 140.5398740  72.7103130  63.0895990 140.7872140
  73.6327470  62.9890960 139.5910140  72.4345820  59.7369340 139.1156110
  72.2953590  60.6092140 139.4843510  71.5527180  59.3942150 138.9704050
  74.2326170  65.6791040 141.3241260  74.2041600  66.0833990 140.4569690
  74.0691140  64.7501400 141.1612860  84.2296960  50.9691950 124.7681040
  83.9169620  51.0618780 125.6680110  84.9909430  51.5472980 124.7178470
  70.7479100  58.3351750 129.2258380  70.6276700  59.0613840 128.6139650
  70.4379990  57.5654660 128.7486290  86.1840990  66.4618140 142.6205430
  86.6600710  66.9401030 143.2994510  86.8048150  66.3935630 141.8950930
  68.3864470  61.5066890 135.0327020  68.4644890  61.6415660 134.0882740
  69.0006150  60.7982780 135.2255140  69.6312100  63.2067080 131.4433200
  69.2240180  63.3481670 130.5886800  70.5225110  62.9227240 131.2404410
  79.4490980  67.3558990 138.3500250  79.9635650  67.2667000 139.1522680
  78.6060060  67.7018690 138.6428160  85.4398250  55.7063450 140.7455180
  84.8242520  56.2143120 140.2170640  85.1194670  54.8061780 140.6881120
  68.4423990  62.5481060 137.5721480  68.6055030  62.0786420 136.7540850
  68.9076440  62.0404620 138.2370320  73.2142760  51.6786820 132.6082050
  72.7710910  52.4596360 132.2766570  73.7727750  52.0016710 133.3152990
  77.5012570  54.5455340 138.2117370  77.0391940  54.7538360 139.0237310
  77.0990680  53.7314690 137.9088040  82.5017080  55.7664290 139.3414030
  81.6510670  55.4670040 139.6623100  82.3418870  56.0106300 138.4297850
  79.5966790  57.2666040 141.4412820  79.9220200  56.4329790 141.1015050
  80.3847120  57.7894560 141.5891150  75.2518660  52.2234150 134.4671650
  75.5490990  53.1296980 134.3863670  75.8004220  51.7352930 133.8531220
  73.0056980  56.8020390 130.3363300  72.7797900  56.5857560 131.2409920
  72.2249510  57.2348850 129.9909270  80.2354740  56.8083760 128.9353950
  79.6363630  57.5319560 128.7517570  80.7834350  56.7460540 128.1530400
  75.4456190  57.7005970 141.0023570  75.3499790  56.7600700 140.8523970
  76.2888170  57.9221040 140.6071640  78.8419610  55.4447300 130.9657230
  79.2349180  55.7619500 130.1525920  79.2036460  54.5659180 131.0801750
  70.5766730  54.1119640 139.1557350  70.1830120  54.9594850 139.3630130
  69.8885130  53.4746010 139.3465990  77.1511780  54.1954610 142.2254090
  76.4610100  54.0026810 142.8600180  77.8944080  54.4789250 142.7578390
  67.8783780  52.0348100 133.1887430  67.5896830  52.6050960 133.9012410
  68.6229540  51.5552550 133.5518660  68.0654010  55.9768220 124.3990150
  67.9828680  56.9198980 124.5405140  67.7137070  55.8343130 123.5202500
  79.4274750  58.0353050 135.0608010  78.6955870  58.5439860 135.4098110
  79.0299090  57.2183030 134.7596790  75.8652140  54.7107250 133.4660500
  75.8688200  54.2697200 132.6165040  76.7603260  55.0324580 133.5732320
  71.7154520  54.5933740 132.4254710  71.3754570  55.0708970 133.1821760
  70.9531840  54.1398860 132.0655810  79.8900660  53.4886730 134.4730950
  79.9073400  53.9395380 135.3172800  79.6416240  52.5892370 134.6864390
  83.3171410  50.9018910 140.3117330  83.6417180  50.1708570 140.8375310
  83.3527920  50.5832550 139.4098320  70.0162970  61.9232490 139.7317290
  69.6317760  61.2826160 140.3300250  70.3275160  62.6268610 140.3012020
  76.1660110  58.7709030 135.2125910  76.5330240  58.2967600 135.9587250
  75.9765170  59.6450600 135.5534250  69.0300600  53.5152720 131.3419380
  68.7447520  53.1508390 132.1798000  68.9679460  52.7833180 130.7282520
  73.9559480  57.8117670 137.5310120  73.6516550  58.6909650 137.7560480
  74.9105940  57.8717460 137.5667560  72.4841270  62.0178660 128.1276970
  71.7103530  61.4776280 127.9675690  73.2135900  61.4985270 127.7894730
  83.2429250  61.0144020 133.9203360  83.9628370  61.5099310 133.5299470
  83.0411070  60.3361910 133.2757230  78.6248050  61.0853080 139.8072360
  78.5585360  60.1648750 139.5529950  77.9953190  61.1828520 140.5217000
  81.4187580  56.7801630 126.3594910  82.3067200  57.0918860 126.1846250
  81.3892670  55.9073880 125.9675490  72.5278670  61.6859040 131.7655780
  73.0457340  60.8827300 131.7112670  72.0762690  61.6238180 132.6072610
  70.0123210  58.6520410 138.6781480  69.6538150  59.3174260 139.2654820
  69.7177770  57.8203960 139.0494100  73.2136330  59.1104650 141.5621030
  72.9136470  59.2561830 140.6648850  73.9847570  58.5509940 141.4694420
  78.5564780  63.9073650 139.5576160  78.5709320  62.9754610 139.3395070
  77.8489880  63.9933410 140.1965930  83.6901850  58.0913470 125.8274770
  83.6065570  58.5227690 124.9771210  84.4096040  58.5511820 126.2601590
  84.7675990  60.5480990 138.9044740  84.0424180  61.1409770 138.7074130
  85.2951450  60.5404530 138.1058110  80.2975580  62.2741160 132.4028590
  80.6499400  61.6769290 131.7429960  79.4137910  61.9485390 132.5736840
  68.5231260  58.6511670 125.3016080  69.3926110  58.9336470 125.5852000
  68.0321580  59.4647540 125.1864890  77.9898680  65.5491220 136.6516660
  78.6340900  65.7550600 137.3290080  78.3528120  64.7879620 136.1987510
  79.2630760  63.5523570 135.3694110  79.9052990  62.8516730 135.4826280
  79.7880110  64.3322010 135.1891000  83.1086480  63.8372190 125.0933250
  82.8824060  63.1202630 125.6857890  82.7182680  63.5884630 124.2555000
  81.0368380  64.3518470 138.5730170  81.3724620  64.9385160 139.2508090
  80.1168720  64.2211180 138.8027960  68.8902510  67.8639050 125.8677710
  69.2500150  68.4628390 125.2134980  68.7494850  68.4098940 126.6412740
  68.5871780  52.1413650 139.3553580  67.8730300  52.3410570 139.9606190
  69.0066820  51.3653220 139.7268380  82.6902730  61.7544130 126.7547410
  82.4024430  62.2156820 127.5425290  83.4854900  61.2941900 127.0231630
  68.8744370  66.1293910 140.3420110  68.9835490  65.1888650 140.2015500
  68.2224930  66.3948660 139.6933840  76.8656960  64.4009800 141.7418230
  76.5453830  63.6819040 142.2863920  76.1915320  65.0764870 141.8154290
  70.5077770  60.4685140 127.4298140  69.9005720  61.2084040 127.4393440
  70.9827120  60.5584500 126.6036340  80.0810560  54.6335960 137.1055030
  80.4491380  53.8131170 137.4334600  79.2208760  54.6937850 137.5210680
  83.4472590  53.5892900 127.9142590  82.8185750  53.6938570 127.2000820
  82.9524510  53.8089680 128.7036470  75.4156620  55.8678850 129.3300470
  74.7072770  56.3365190 129.7714080  75.7001100  55.2100860 129.9645660
  77.0412550  57.2875550 137.3293000  77.5397800  57.7621370 137.9944850
  77.1835500  56.3639070 137.5363030  73.6191640  54.1763930 126.7051180
  74.4682170  54.6134080 126.6391370  73.2522910  54.4884190 127.5323240
  84.2479410  53.5043510 138.1721390  83.7453010  54.2448910 138.5115200
  85.0636070  53.8927510 137.8558180  82.5401420  58.7476690 131.6182750
  81.5991560  58.7626920 131.7930440  82.8545490  57.9612650 132.0643050
  72.5183060  60.4296290 125.1786710  73.2846330  60.3177650 125.7412140
  72.5957750  59.7334260 124.5263480  71.2129820  57.8621360 125.8619600
  71.2933410  56.9148870 125.9737000  72.1049570  58.1928240 125.9680260
  72.0144530  68.0116750 132.9654140  72.7507010  67.4632210 133.2362710
  72.3985450  68.8772760 132.8260130  68.8990010  64.0790320 128.8395650
  67.9729790  64.3211460 128.8301060  69.3646440  64.9064580 128.7180400
  71.0202810  67.1962820 142.1539720  71.8215540  67.5174870 142.5675120
  70.5054630  66.8358400 142.8759630  79.8567440  63.3042690 142.1015130
  79.2505600  63.3274290 141.3610880  79.5521550  62.5725730 142.6382380
  81.2867810  67.0322980 140.7124540  82.2389560  66.9481000 140.6624780
  81.1396030  67.6964690 141.3858330  68.7400620  59.6836280 141.0975770
  69.2439640  59.1043560 141.6692000  68.0008040  59.9676510 141.6352140
  75.7938560  61.0907270 140.6311290  75.0284230  61.6592270 140.5465960
  75.9754520  60.7983480 139.7379520  82.9361910  62.8212600 141.1886310
  83.6771380  63.1588360 140.6853770  82.1734590  62.9904660 140.6356080
  70.7723700  57.8265870 141.9925840  70.8129040  57.5279740 142.9011070
  71.6269200  58.2273480 141.8333360  72.7129510  56.4057970 139.9600330
  72.1825970  55.9148920 139.3323670  73.3817580  56.8342170 139.4258260
  81.6107570  60.8727430 139.7241520  82.0248590  61.0272510 140.5731940
  80.6758570  60.9982650 139.8867300  82.0829740  58.2123590 141.7280670
  82.6650510  57.4575910 141.6401150  82.2591510  58.7431030 140.9512150
  73.2001810  53.3720340 140.0397620  73.1058680  52.7541090 139.3148490
  72.6199200  54.0986630 139.8127530  75.9663250  51.9293580 137.0725010
  75.5180550  51.9517840 136.2270560  75.3328450  51.5312600 137.6695310
  76.3722800  60.8247910 137.6937450  76.7910910  61.6680640 137.5213690
  75.4531430  60.9619950 137.4644230  78.7086700  58.5564090 139.0775290
  78.8282910  57.9605230 139.8170130  79.5680700  58.5933780 138.6576590
  81.0474600  59.1101280 137.6537800  80.5209820  59.6343900 137.0502940
  81.3905940  59.7428670 138.2847530  74.2230220  67.1300920 138.8095180
  73.6851310  67.8546980 138.4903880  74.4764180  66.6531260 138.0192520
  75.4755470  55.0985440 140.3351110  76.0655160  54.7901290 141.0228930
  74.6575710  54.6265190 140.4911010  80.2948900  54.7151250 140.5684130
  79.6064420  54.0532790 140.5034120  81.0154920  54.2689520 141.0132590
  72.2443790  53.5995270 124.0865390  72.5469690  53.6062700 123.1784540
  72.9838380  53.2493130 124.5833050  77.0792430  68.3652130 139.0681830
  77.0051130  69.2687270 139.3754200  76.1771270  68.0464030 139.0403900
  68.4819720  65.6926720 132.3715450  68.8122730  64.8247780 132.1394090
  68.9110720  65.8985240 133.2020410  68.9709930  66.5597310 135.1097080
  68.5340920  66.7398110 135.9421230  69.5387610  67.3171930 134.9678800
  85.8473560  63.8032130 124.7344100  85.0166520  63.8708780 125.2051330
  86.0245390  64.6936250 124.4310960  85.3030020  60.5479610 127.2378300
  86.0648930  61.1176260 127.3437990  85.3184390  59.9806810 128.0086610
  68.8034360  59.0717540 131.4685960  68.1483200  58.8029180 130.8245660
  69.6412310  58.9622020 131.0187940  86.3089990  61.4029710 132.0820230
  86.6798820  60.6197030 131.6756200  86.9491920  62.0918810 131.9037530
  81.7524800  53.8658830 125.6904450  82.1709680  53.6789810 124.8501110
  81.4460860  53.0137880 126.0007380  85.2514530  58.7782970 129.3880250
  84.8758130  58.0110900 128.9561540  84.5217650  59.1605670 129.8755180
  69.8410290  59.4570110 136.0089300  70.2083330  59.3697510 136.8885320
  69.2721110  58.6936660 135.9096160  84.6414150  57.9254490 139.0219770
  84.4100240  57.6967240 138.1217720  84.9018700  58.8454040 138.9764660
  69.3926290  56.3679200 139.9147720  68.4982340  56.3345960 140.2541430
  69.9323840  56.5665990 140.6798970  83.0802220  53.1510920 141.7999470
  83.9572400  53.1594320 142.1833470  83.0923060  52.4141760 141.1891820
  68.0172440  56.2816470 127.4111290  67.1136520  56.5446670 127.2362950
  68.5013060  56.5527640 126.6311250  84.5265490  57.0040460 132.6887490
  85.0502970  56.5103110 132.0577660  85.1124910  57.1390820 133.4335060
  84.7055210  57.0880330 136.2107040  83.7557920  57.0543870 136.3252030
  84.8868220  57.9980440 135.9756810  70.5599650  55.3382010 125.3205670
  71.2691350  54.9165230 124.8352950  69.8439590  55.4057240 124.6889020
  70.2073810  51.3921340 124.3608320  70.9301940  51.9330280 124.6789540
  70.4798330  51.1184760 123.4849860  84.0165460  56.2613810 128.6279900
  84.5124580  56.0284680 129.4128780  83.8181530  55.4225650 128.2117540
  69.8966000  50.6427530 134.2630940  70.5442190  50.0924910 133.8226100
  70.3167840  50.8970680 135.0846750  85.4452620  54.8974760 131.1617580
  85.3351900  54.7430800 132.0999850  86.2060210  54.3695700 130.9192990
  83.7918340  50.8368890 137.6200580  84.4290560  51.4503030 137.9859770
  83.9393230  50.8729550 136.6749810  86.4081380  53.4993340 127.0280430
  85.6132880  53.4338460 127.5573340  86.6124660  54.4343980 127.0165780
  69.6498000  50.7983200 137.0056260  69.3012820  51.2547020 137.7714440
  69.3185700  49.9040330 137.0878690  71.2562370  63.9702800 141.1709450
  71.2132000  63.5995710 142.0523910  71.3873380  64.9080370 141.3111270
  74.9568400  65.5262390 136.7719170  74.7159760  65.7936950 135.8849690
  75.8971040  65.6968120 136.8270030  77.1622820  51.9895080 140.5275680
  77.1011710  52.5816910 141.2771090  78.1023200  51.8821040 140.3825940
  79.7997380  51.6465140 140.1667970  80.4137790  51.9644430 139.5049050
  80.3446940  51.1613730 140.7863830  70.3218640  50.3259400 140.2807030
  70.8701630  50.1447450 139.5173140  70.3873950  49.5353510 140.8163340
  71.0950400  66.9165050 138.2907230  70.5010720  66.7849750 139.0297270
  71.0874240  66.0803190 137.8249330  80.5405420  50.2097280 136.4937260
  79.6665260  50.5432390 136.2910190  80.4316170  49.7370460 137.3189130
  81.4477400  52.4168150 137.8778980  81.1190760  51.6019910 137.4980710
  82.3959700  52.3737960 137.7544670  83.9012010  68.1880190 134.8516550
  83.4414980  68.9396000 134.4774570  83.2724470  67.4686660 134.7931350
  70.7262630  64.2823430 137.2415270  69.9996690  63.6628720 137.1741220
  70.7871780  64.6764040 136.3713350  74.3307730  66.4968430 134.0264680
  74.8472750  65.8855790 133.5012940  74.9805110  66.9997210 134.5175690
  77.0703230  67.3876920 134.8533660  77.3581040  67.1331220 133.9766670
  77.5826450  66.8354280 135.4439230  78.2880240  51.1267120 135.4330170
  77.5052030  51.6012620 135.7126930  77.9943170  50.2221950 135.3243350
  82.8401310  51.8290220 133.4779260  83.2809400  51.7735320 132.6300860
  82.5708900  52.7448230 133.5489440  84.7039880  51.4605460 131.4888080
  84.6428280  50.5166680 131.3419100  85.4831910  51.5685550 132.0341540
  69.0092630  67.5997820 130.4512030  68.8414670  66.9668500 131.1493920
  68.1427140  67.8057220 130.1006220  69.6320650  51.4314600 127.9543890
  70.3900010  51.5443480 127.3807920  69.1697820  52.2683800 127.9087320
  83.8194040  50.6117880 127.4569550  84.0144670  51.5101330 127.7236980
  83.0323910  50.3804960 127.9502500  70.6155330  66.2931050 127.8962170
  70.0902950  66.6739080 127.1924130  70.5399910  66.9181820 128.6171880
  72.0045800  51.9578650 126.4945860  72.5338560  51.1708450 126.3653810
  72.6374120  52.6369840 126.7281390  77.1375590  68.3093020 142.2201860
  78.0642900  68.0737290 142.2637820  77.1226020  69.1365020 141.7387890
  74.3239200  50.9737770 141.9843740  74.0423470  51.4771370 141.2204560
  74.7058900  50.1759520 141.6185870  80.9254660  50.3891350 142.5624210
  80.8120110  50.7085960 143.4575730  81.7424400  50.7903860 142.2661490
  83.7053150  67.5362880 142.0442900  84.4978470  67.0412110 141.8368860
  83.9986300  68.2153020 142.6518510  79.8312810  58.4083820 112.9258950
  79.7506860  57.4938430 112.6550660  79.4177230  58.9050890 112.2198660
  77.9630850  60.1862840 114.8068220  77.1872950  59.7063280 115.0966790
  78.6143780  59.5068490 114.6324380  81.9838280  64.5923030 113.5867350
  81.5219810  63.8210270 113.9154520  82.7963830  64.6189100 114.0919800
  78.2101590  66.8781040 113.2071340  77.5913030  67.3338540 112.6365780
  79.0653370  67.0332500 112.8061040  77.4039840  62.8620030 114.8138380
  77.3348120  61.9209970 114.6527510  78.1659700  62.9521440 115.3860950
  69.5946510  53.4674550 117.1395000  69.4149350  52.5700300 117.4197760
  69.1926590  54.0146420 117.8141950  72.5650020  54.0416040 110.5024750
  72.6716770  54.9419770 110.8093510  71.6542380  53.9934010 110.2119400
  82.2169130  53.1640850 111.9735650  83.0378750  52.6737420 112.0161130
  82.2503210  53.7538510 112.7267490  74.4057750  57.0102410 114.8349930
  74.9135970  57.5083380 115.4754950  74.9370990  56.2337610 114.6589290
  72.6893850  51.6500970 119.1013350  72.6912290  52.1673360 118.2959250
  71.8598160  51.1731150 119.0783280  73.9396700  61.2896150 117.2786850
  73.6066080  61.9165070 117.9207920  74.1163380  61.8158030 116.4988520
  72.3709180  53.3610930 117.1083800  72.7125990  54.2052980 116.8137670
  71.4324990  53.5094670 117.2249140  76.0537070  50.8493200 113.4328390
  76.3612050  50.2940090 112.7163890  75.1237770  50.9837660 113.2501380
  82.8997550  63.2876710 110.8126020  82.7893880  62.3451040 110.9375440
  82.8965800  63.6492350 111.6988780  78.4286910  55.1859030 107.1655670
  77.4890580  55.3472990 107.2508130  78.7470170  55.9044710 106.6191660
  82.4715120  60.4762330 110.6723760  81.8527540  60.1381880 110.0250060
  82.4539570  59.8322090 111.3802950  72.7603090  56.2149980 116.7307280
  73.3117680  56.3245320 115.9560530  73.2746600  56.5887580 117.4462510
  80.6479820  59.7149140 107.6796510  81.0873100  58.8771570 107.5334330
  81.3608240  60.3478540 107.7660650  72.4345820  59.7369340 120.3412620
  72.2953590  60.6092140 120.7100020  71.5527180  59.3942150 120.1960560
  84.2296960  50.9691950 105.9937550  83.9169620  51.0618780 106.8936620
  84.9909430  51.5472980 105.9434980  86.1840990  66.4618140 123.8461940
  86.6600710  66.9401030 124.5251020  86.8048150  66.3935630 123.1207440
  79.4490980  67.3558990 119.5756760  79.9635650  67.2667000 120.3779190
  78.6060060  67.7018690 119.8684670  80.6921440  66.7764600 111.6387250
  81.1478390  65.9953980 111.9525870  81.0313960  67.4871420 112.1828430
  68.4423990  62.5481060 118.7977990  68.6055030  62.0786420 117.9797360
  68.9076440  62.0404620 119.4626830  73.2142760  51.6786820 113.8338560
  72.7710910  52.4596360 113.5023080  73.7727750  52.0016710 114.5409500
  76.3301580  51.2997520 108.7144390  75.7055760  51.2957390 109.4397700
  76.2431700  50.4328480 108.3180360  75.2518660  52.2234150 115.6928160
  75.5490990  53.1296980 115.6120180  75.8004220  51.7352930 115.0787730
  80.2354740  56.8083760 110.1610460  79.6363630  57.5319560 109.9774080
  80.7834350  56.7460540 109.3786910  78.8419610  55.4447300 112.1913740
  79.2349180  55.7619500 111.3782430  79.2036460  54.5659180 112.3058260
  70.5766730  54.1119640 120.3813860  70.1830120  54.9594850 120.5886640
  69.8885130  53.4746010 120.5722500  67.8783780  52.0348100 114.4143940
  67.5896830  52.6050960 115.1268920  68.6229540  51.5552550 114.7775170
  75.8652140  54.7107250 114.6917010  75.8688200  54.2697200 113.8421550
  76.7603260  55.0324580 114.7988830  75.9272290  55.7119330 107.6823770
  76.0485110  55.6705810 108.6309590  75.5420800  56.5743480 107.5270500
  76.1660110  58.7709030 116.4382420  76.5330240  58.2967600 117.1843760
  75.9765170  59.6450600 116.7790760  73.9559480  57.8117670 118.7566630
  73.6516550  58.6909650 118.9816990  74.9105940  57.8717460 118.7924070
  78.7039190  52.4081980 109.2889260  77.8903800  51.9095150 109.2134570
  78.5101140  53.2480230 108.8725610  81.4187580  56.7801630 107.5851420
  82.3067200  57.0918860 107.4102760  81.3892670  55.9073880 107.1932000
  70.0123210  58.6520410 119.9037990  69.6538150  59.3174260 120.4911330
  69.7177770  57.8203960 120.2750610  84.7189100  64.9455730 109.7813410
  84.0765260  64.2911350 110.0557130  84.3319760  65.3510820 109.0054080
  80.2975580  62.2741160 113.6285100  80.6499400  61.6769290 112.9686470
  79.4137910  61.9485390 113.7993350  77.9898680  65.5491220 117.8773170
  78.6340900  65.7550600 118.5546590  78.3528120  64.7879620 117.4244020
  71.5877850  50.3822530 111.1203390  71.4592480  50.3740430 112.0688310
  70.7639870  50.7205620 110.7694400  79.2630760  63.5523570 116.5950620
  79.9052990  62.8516730 116.7082790  79.7880110  64.3322010 116.4147510
  68.5871780  52.1413650 120.5810090  67.8730300  52.3410570 121.1862700
  69.0066820  51.3653220 120.9524890  82.6902730  61.7544130 107.9803920
  82.4024430  62.2156820 108.7681800  83.4854900  61.2941900 108.2488140
  83.4472590  53.5892900 109.1399100  82.8185750  53.6938570 108.4257330
  82.9524510  53.8089680 109.9292980  75.4156620  55.8678850 110.5556980
  74.7072770  56.3365190 110.9970590  75.7001100  55.2100860 111.1902170
  79.4472050  52.5929510 111.9952770  79.3239830  52.6115640 111.0462280
  80.3956610  52.6408450 112.1151170  73.6191640  54.1763930 107.9307690
  74.4682170  54.6134080 107.8647880  73.2522910  54.4884190 108.7579750
  82.5401420  58.7476690 112.8439260  81.5991560  58.7626920 113.0186950
  82.8545490  57.9612650 113.2899560  71.0202810  67.1962820 123.3796230
  71.8215540  67.5174870 123.7931630  70.5054630  66.8358400 124.1016140
  81.2867810  67.0322980 121.9381050  82.2389560  66.9481000 121.8881290
  81.1396030  67.6964690 122.6114840  70.7723700  57.8265870 123.2182350
  70.8129040  57.5279740 124.1267580  71.6269200  58.2273480 123.0589870
  72.7129510  56.4057970 121.1856840  72.1825970  55.9148920 120.5580180
  73.3817580  56.8342170 120.6514770  73.2001810  53.3720340 121.2654130
  73.1058680  52.7541090 120.5405000  72.6199200  54.0986630 121.0384040
  75.9663250  51.9293580 118.2981520  75.5180550  51.9517840 117.4527070
  75.3328450  51.5312600 118.8951820  76.3722800  60.8247910 118.9193960
  76.7910910  61.6680640 118.7470200  75.4531430  60.9619950 118.6900740
  80.9249300  51.3102880 107.8530900  81.2051590  50.4670780 108.2090320
  80.1515030  51.5425990 108.3669650  72.2443790  53.5995270 105.3121900
  72.5469690  53.6062700 104.4041050  72.9838380  53.2493130 105.8089560
  75.4628720  52.5429890 106.2978100  75.1150720  51.8653880 105.7180550
  75.6641490  52.0819400 107.1121490  85.8473560  63.8032130 105.9600610
  85.0166520  63.8708780 106.4307840  86.0245390  64.6936250 105.6567470
  81.7524800  53.8658830 106.9160960  82.1709680  53.6789810 106.0757620
  81.4460860  53.0137880 107.2263890  69.3926290  56.3679200 121.1404230
  68.4982340  56.3345960 121.4797940  69.9323840  56.5665990 121.9055480
  70.2073810  51.3921340 105.5864830  70.9301940  51.9330280 105.9046050
  70.4798330  51.1184760 104.7106370  84.0165460  56.2613810 109.8536410
  84.5124580  56.0284680 110.6385290  83.8181530  55.4225650 109.4374050
  69.8966000  50.6427530 115.4887450  70.5442190  50.0924910 115.0482610
  70.3167840  50.8970680 116.3103260  85.4452620  54.8974760 112.3874090
  85.3351900  54.7430800 113.3256360  86.2060210  54.3695700 112.1449500
  86.4081380  53.4993340 108.2536940  85.6132880  53.4338460 108.7829850
  86.6124660  54.4343980 108.2422290  83.3499800  67.5384890 112.2475330
  83.9458870  67.2169460 111.5709750  83.6077950  67.0656710 113.0388600
  69.6498000  50.7983200 118.2312770  69.3012820  51.2547020 118.9970950
  69.3185700  49.9040330 118.3135200  77.1622820  51.9895080 121.7532190
  77.1011710  52.5816910 122.5027600  78.1023200  51.8821040 121.6082450
  70.3218640  50.3259400 121.5063540  70.8701630  50.1447450 120.7429650
  70.3873950  49.5353510 122.0419850  71.0950400  66.9165050 119.5163740
  70.5010720  66.7849750 120.2553780  71.0874240  66.0803190 119.0505840
  70.7262630  64.2823430 118.4671780  69.9996690  63.6628720 118.3997730
  70.7871780  64.6764040 117.5969860  74.3307730  66.4968430 115.2521190
  74.8472750  65.8855790 114.7269450  74.9805110  66.9997210 115.7432200
  77.0703230  67.3876920 116.0790170  77.3581040  67.1331220 115.2023180
  77.5826450  66.8354280 116.6695740  84.7039880  51.4605460 112.7144590
  84.6428280  50.5166680 112.5675610  85.4831910  51.5685550 113.2598050
  69.6320650  51.4314600 109.1800400  70.3900010  51.5443480 108.6064430
  69.1697820  52.2683800 109.1343830  76.1734460  53.5453870 112.1702710
  75.3608970  53.1710760 111.8298590  76.6776100  52.7898950 112.4723900
  80.6759440  50.2096320 113.4085780  81.2788810  50.7816530 113.8834300
  79.9352430  50.7735760 113.1859680  83.8194040  50.6117880 108.6826060
  84.0144670  51.5101330 108.9493490  83.0323910  50.3804960 109.1759010
  72.0045800  51.9578650 107.7202370  72.5338560  51.1708450 107.5910320
  72.6374120  52.6369840 107.9537900  74.1983640  51.6953790 110.7747760
  73.5686380  50.9941100 110.9417890  73.6588780  52.4557920 110.5580920
  85.3720650  67.8518590 110.4432620  85.5472840  67.1656330 109.7993540
  84.6742220  68.3765640 110.0509290  74.3239200  50.9737770 123.2100250
  74.0423470  51.4771370 122.4461070  74.7058900  50.1759520 122.8442380
  80.9254660  50.3891350 123.7880720  80.8120110  50.7085960 124.6832240
  81.7424400  50.7903860 123.4918000  83.7053150  67.5362880 123.2699410
  84.4978470  67.0412110 123.0625370  83.9986300  68.2153020 123.8775020
  69.5946510  53.4674550  98.3651510  69.4149350  52.5700300  98.6454270
  69.1926590  54.0146420  99.0398460  82.2169130  53.1640850  93.1992160
  83.0378750  52.6737420  93.2417640  82.2503210  53.7538510  93.9524000
  86.5068680  55.1807600  99.7635790  85.8020850  55.5689310  99.2450900
  86.7726600  55.8757890 100.3656720  72.6893850  51.6500970 100.3269860
  72.6912290  52.1673360  99.5215760  71.8598160  51.1731150 100.3039790
  82.4530610  55.1041230  95.9719700  81.7486180  55.3926120  96.5522810
  82.8142770  55.9141340  95.6119260  85.5217530  54.5496020  96.3628910
  84.5742440  54.5835000  96.4944340  85.8467520  55.3634970  96.7478270
  76.0537070  50.8493200  94.6584900  76.3612050  50.2940090  93.9420400
  75.1237770  50.9837660  94.4757890  84.9499670  59.8677550  98.3691210
  84.1218300  59.9370640  97.8941340  85.5450150  60.4531860  97.9007040
  81.9141680  56.6546870  99.3146080  81.5012860  57.4800580  99.5686070
  81.1817630  56.0691910  99.1222440  84.2296960  50.9691950  87.2194060
  83.9169620  51.0618780  88.1193130  84.9909430  51.5472980  87.1691490
  73.2142760  51.6786820  95.0595070  72.7710910  52.4596360  94.7279590
  73.7727750  52.0016710  95.7666010  77.5012570  54.5455340 100.6630390
  77.0391940  54.7538360 101.4750330  77.0990680  53.7314690 100.3601060
  82.5017080  55.7664290 101.7927050  81.6510670  55.4670040 102.1136120
  82.3418870  56.0106300 100.8810870  79.5966790  57.2666040 103.8925840
  79.9220200  56.4329790 103.5528070  80.3847120  57.7894560 104.0404170
  76.3301580  51.2997520  89.9400900  75.7055760  51.2957390  90.6654210
  76.2431700  50.4328480  89.5436870  75.2518660  52.2234150  96.9184670
  75.5490990  53.1296980  96.8376690  75.8004220  51.7352930  96.3044240
  70.5766730  54.1119640 101.6070370  70.1830120  54.9594850 101.8143150
  69.8885130  53.4746010 101.7979010  77.1511780  54.1954610 104.6767110
  76.4610100  54.0026810 105.3113200  77.8944080  54.4789250 105.2091410
  71.7154520  54.5933740  94.8767730  71.3754570  55.0708970  95.6334780
  70.9531840  54.1398860  94.5168830  79.8900660  53.4886730  96.9243970
  79.9073400  53.9395380  97.7685820  79.6416240  52.5892370  97.1377410
  83.3171410  50.9018910 102.7630350  83.6417180  50.1708570 103.2888330
  83.3527920  50.5832550 101.8611340  78.7039190  52.4081980  90.5145770
  77.8903800  51.9095150  90.4391080  78.5101140  53.2480230  90.0982120
  84.7675990  60.5480990 101.3557760  84.0424180  61.1409770 101.1587150
  85.2951450  60.5404530 100.5571130  68.5871780  52.1413650 101.8066600
  67.8730300  52.3410570 102.4119210  69.0066820  51.3653220 102.1781400
  80.0810560  54.6335960  99.5568050  80.4491380  53.8131170  99.8847620
  79.2208760  54.6937850  99.9723700  83.4472590  53.5892900  90.3655610
  82.8185750  53.6938570  89.6513840  82.9524510  53.8089680  91.1549490
  79.4472050  52.5929510  93.2209280  79.3239830  52.6115640  92.2718790
  80.3956610  52.6408450  93.3407680  84.2479410  53.5043510 100.6234410
  83.7453010  54.2448910 100.9628220  85.0636070  53.8927510 100.3071200
  82.0829740  58.2123590 104.1793690  82.6650510  57.4575910 104.0914170
  82.2591510  58.7431030 103.4025170  73.2001810  53.3720340 102.4910640
  73.1058680  52.7541090 101.7661510  72.6199200  54.0986630 102.2640550
  75.4755470  55.0985440 102.7864130  76.0655160  54.7901290 103.4741950
  74.6575710  54.6265190 102.9424030  80.2948900  54.7151250 103.0197150
  79.6064420  54.0532790 102.9547140  81.0154920  54.2689520 103.4645610
  80.9249300  51.3102880  89.0787410  81.2051590  50.4670780  89.4346830
  80.1515030  51.5425990  89.5926160  86.3089990  61.4029710  94.5333250
  86.6798820  60.6197030  94.1269220  86.9491920  62.0918810  94.3550550
  85.2514530  58.7782970  91.8393270  84.8758130  58.0110900  91.4074560
  84.5217650  59.1605670  92.3268200  84.6414150  57.9254490 101.4732790
  84.4100240  57.6967240 100.5730740  84.9018700  58.8454040 101.4277680
  83.0802220  53.1510920 104.2512490  83.9572400  53.1594320 104.6346490
  83.0923060  52.4141760 103.6404840  84.5265490  57.0040460  95.1400510
  85.0502970  56.5103110  94.5090680  85.1124910  57.1390820  95.8848080
  84.7055210  57.0880330  98.6620060  83.7557920  57.0543870  98.7765050
  84.8868220  57.9980440  98.4269830  85.4452620  54.8974760  93.6130600
  85.3351900  54.7430800  94.5512870  86.2060210  54.3695700  93.3706010
  86.4081380  53.4993340  89.4793450  85.6132880  53.4338460  90.0086360
  86.6124660  54.4343980  89.4678800  77.1622820  51.9895080 102.9788700
  77.1011710  52.5816910 103.7284110  78.1023200  51.8821040 102.8338960
  79.7997380  51.6465140 102.6180990  80.4137790  51.9644430 101.9562070
  80.3446940  51.1613730 103.2376850  70.3218640  50.3259400 102.7320050
  70.8701630  50.1447450 101.9686160  70.3873950  49.5353510 103.2676360
  80.5405420  50.2097280  98.9450280  79.6665260  50.5432390  98.7423210
  80.4316170  49.7370460  99.7702150  81.4477400  52.4168150 100.3292000
  81.1190760  51.6019910  99.9493730  82.3959700  52.3737960 100.2057690
  78.2880240  51.1267120  97.8843190  77.5052030  51.6012620  98.1639950
  77.9943170  50.2221950  97.7756370  82.8401310  51.8290220  95.9292280
  83.2809400  51.7735320  95.0813880  82.5708900  52.7448230  96.0002460
  84.7039880  51.4605460  93.9401100  84.6428280  50.5166680  93.7932120
  85.4831910  51.5685550  94.4854560  69.6320650  51.4314600  90.4056910
  70.3900010  51.5443480  89.8320940  69.1697820  52.2683800  90.3600340
  76.1734460  53.5453870  93.3959220  75.3608970  53.1710760  93.0555100
  76.6776100  52.7898950  93.6980410  80.6759440  50.2096320  94.6342290
  81.2788810  50.7816530  95.1090810  79.9352430  50.7735760  94.4116190
  83.8194040  50.6117880  89.9082570  84.0144670  51.5101330  90.1750000
  83.0323910  50.3804960  90.4015520  74.1983640  51.6953790  92.0004270
  73.5686380  50.9941100  92.1674400  73.6588780  52.4557920  91.7837430
  74.3239200  50.9737770 104.4356760  74.0423470  51.4771370 103.6717580
  74.7058900  50.1759520 104.0698890  80.9254660  50.3891350 105.0137230
  80.8120110  50.7085960 105.9088750  81.7424400  50.7903860 104.7174510
  69.0092630  67.5997820  74.1281560  68.8414670  66.9668500  74.8263450
  68.1427140  67.8057220  73.7775750  80.9254660  50.3891350  86.2393740
  80.8120110  50.7085960  87.1345260  81.7424400  50.7903860  85.9431020
  81.9838280  64.5923030  38.4893390  81.5219810  63.8210270  38.8180560
  82.7963830  64.6189100  38.9945840  71.9597940  64.5322740  40.7828040
  72.2625980  63.6420480  40.6038260  72.7041530  65.0892960  40.5550290
  70.3888630  55.4584540  34.3712410  69.5005330  55.8000510  34.2692290
  70.6729820  55.2584860  33.4793240  68.3521640  58.0590190  40.2552110
  68.9237750  57.2912390  40.2555750  68.3523180  58.3578950  39.3458720
  78.2101590  66.8781040  38.1097380  77.5913030  67.3338540  37.5391820
  79.0653370  67.0332500  37.7087080  69.5946510  53.4674550  42.0421040
  69.4149350  52.5700300  42.3223800  69.1926590  54.0146420  42.7167990
  72.5650020  54.0416040  35.4050790  72.6716770  54.9419770  35.7119550
  71.6542380  53.9934010  35.1145440  70.2133180  55.9635050  40.6503380
  70.8943290  56.2273420  41.2690780  69.8981230  55.1235920  40.9841390
  86.5068680  55.1807600  43.4405320  85.8020850  55.5689310  42.9220430
  86.7726600  55.8757890  44.0426250  72.6893850  51.6500970  44.0039390
  72.6912290  52.1673360  43.1985290  71.8598160  51.1731150  43.9809320
  73.9396700  61.2896150  42.1812890  73.6066080  61.9165070  42.8233960
  74.1163380  61.8158030  41.4014560  72.3709180  53.3610930  42.0109840
  72.7125990  54.2052980  41.7163710  71.4324990  53.5094670  42.1275180
  68.4448140  62.4476810  32.8768920  68.0676120  62.9363910  32.1453820
  68.7021210  63.1202090  33.5075450  84.0693390  64.7216360  41.9116710
  83.3856910  65.3915470  41.9033380  84.6087680  64.9197010  41.1461570
  85.5217530  54.5496020  40.0398440  84.5742440  54.5835000  40.1713870
  85.8467520  55.3634970  40.4247800  81.6052130  66.5660490  40.6261890
  81.6179290  66.1622780  39.7584150  81.0527350  67.3407780  40.5223320
  81.0037570  61.4690330  41.9544500  81.4206360  61.2550440  41.1197960
  81.7277390  61.7263120  42.5253120  82.6041780  66.7006200  43.6796590
  82.1272340  67.5078390  43.4869200  81.9203570  66.0484530  43.8322800
  72.4345820  59.7369340  45.2438660  72.2953590  60.6092140  45.6126060
  71.5527180  59.3942150  45.0986600  78.7575200  64.6545210  36.5503790
  79.1971110  65.3969540  36.1359180  78.6962090  64.8971780  37.4742750
  84.2296960  50.9691950  30.8963590  83.9169620  51.0618780  31.7962660
  84.9909430  51.5472980  30.8461020  70.7479100  58.3351750  35.3540930
  70.6276700  59.0613840  34.7422200  70.4379990  57.5654660  34.8768840
  68.3864470  61.5066890  41.1609570  68.4644890  61.6415660  40.2165290
  69.0006150  60.7982780  41.3537690  80.6921440  66.7764600  36.5413290
  81.1478390  65.9953980  36.8551910  81.0313960  67.4871420  37.0854470
  68.4423990  62.5481060  43.7004030  68.6055030  62.0786420  42.8823400
  68.9076440  62.0404620  44.3652870  73.2142760  51.6786820  38.7364600
  72.7710910  52.4596360  38.4049120  73.7727750  52.0016710  39.4435540
  73.0056980  56.8020390  36.4645850  72.7797900  56.5857560  37.3692470
  72.2249510  57.2348850  36.1191820  70.5766730  54.1119640  45.2839900
  70.1830120  54.9594850  45.4912680  69.8885130  53.4746010  45.4748540
  67.8783780  52.0348100  39.3169980  67.5896830  52.6050960  40.0294960
  68.6229540  51.5552550  39.6801210  71.7154520  54.5933740  38.5537260
  71.3754570  55.0708970  39.3104310  70.9531840  54.1398860  38.1938360
  70.0162970  61.9232490  45.8599840  69.6317760  61.2826160  46.4582800
  70.3275160  62.6268610  46.4294570  69.0300600  53.5152720  37.4701930
  68.7447520  53.1508390  38.3080550  68.9679460  52.7833180  36.8565070
  73.9559480  57.8117670  43.6592670  73.6516550  58.6909650  43.8843030
  74.9105940  57.8717460  43.6950110  70.0123210  58.6520410  44.8064030
  69.6538150  59.3174260  45.3937370  69.7177770  57.8203960  45.1776650
  80.2975580  62.2741160  38.5311140  80.6499400  61.6769290  37.8712510
  79.4137910  61.9485390  38.7019390  68.5231260  58.6511670  31.4298630
  69.3926110  58.9336470  31.7134550  68.0321580  59.4647540  31.3147440
  77.9898680  65.5491220  42.7799210  78.6340900  65.7550600  43.4572630
  78.3528120  64.7879620  42.3270060  71.5877850  50.3822530  36.0229430
  71.4592480  50.3740430  36.9714350  70.7639870  50.7205620  35.6720440
  79.2630760  63.5523570  41.4976660  79.9052990  62.8516730  41.6108830
  79.7880110  64.3322010  41.3173550  68.8902510  67.8639050  31.9960260
  69.2500150  68.4628390  31.3417530  68.7494850  68.4098940  32.7695290
  68.5871780  52.1413650  45.4836130  67.8730300  52.3410570  46.0888740
  69.0066820  51.3653220  45.8550930  68.8744370  66.1293910  46.4702660
  68.9835490  65.1888650  46.3298050  68.2224930  66.3948660  45.8216390
  83.4472590  53.5892900  34.0425140  82.8185750  53.6938570  33.3283370
  82.9524510  53.8089680  34.8319020  76.5348840  67.8284810  36.1706790
  76.7890340  67.7906200  35.2486160  75.5861320  67.7018140  36.1635040
  84.2479410  53.5043510  44.3003940  83.7453010  54.2448910  44.6397750
  85.0636070  53.8927510  43.9840730  72.5183060  60.4296290  31.3069260
  73.2846330  60.3177650  31.8694690  72.5957750  59.7334260  30.6546030
  71.2129820  57.8621360  31.9902150  71.2933410  56.9148870  32.1019550
  72.1049570  58.1928240  32.0962810  84.5427000  65.9185540  39.4219560
  84.6674420  66.7416710  39.8943370  85.4092560  65.7076270  39.0743710
  72.0144530  68.0116750  39.0936690  72.7507010  67.4632210  39.3645260
  72.3985450  68.8772760  38.9542680  75.1246840  67.1847060  30.9162260
  75.9175450  67.4735890  30.4644050  74.6051190  66.7539230  30.2374740
  68.7400620  59.6836280  47.2258320  69.2439640  59.1043560  47.7974550
  68.0008040  59.9676510  47.7634690  76.3722800  60.8247910  43.8220000
  76.7910910  61.6680640  43.6496240  75.4531430  60.9619950  43.5926780
  73.4460990  56.4994650  30.2270060  73.2450050  55.6362010  30.5883400
  73.2753040  56.4128010  29.2891660  80.9249300  51.3102880  32.7556940
  81.2051590  50.4670780  33.1116360  80.1515030  51.5425990  33.2695690
  72.2443790  53.5995270  30.2147940  72.5469690  53.6062700  29.3067090
  72.9838380  53.2493130  30.7115600  77.6277760  67.5310640  32.8190740
  78.5228550  67.8695610  32.8409500  77.6595390  66.8090050  32.1915020
  71.2673920  62.9037690  31.0477740  71.7048790  63.4467360  31.7035320
  71.7521650  62.0784640  31.0574080  68.9709930  66.5597310  41.2379630
  68.5340920  66.7398110  42.0703780  69.5387610  67.3171930  41.0961350
  68.8034360  59.0717540  37.5968510  68.1483200  58.8029180  36.9528210
  69.6412310  58.9622020  37.1470490  81.7524800  53.8658830  31.8187000
  82.1709680  53.6789810  30.9783660  81.4460860  53.0137880  32.1289930
  69.8410290  59.4570110  42.1371850  70.2083330  59.3697510  43.0167870
  69.2721110  58.6936660  42.0378710  69.3926290  56.3679200  46.0430270
  68.4982340  56.3345960  46.3823980  69.9323840  56.5665990  46.8081520
  70.5599650  55.3382010  31.4488220  71.2691350  54.9165230  30.9635500
  69.8439590  55.4057240  30.8171570  69.8966000  50.6427530  40.3913490
  70.5442190  50.0924910  39.9508650  70.3167840  50.8970680  41.2129300
  86.3342890  52.7282680  30.5306270  87.2592200  52.5963860  30.3224560
  86.3118680  52.8075500  31.4842720  86.4081380  53.4993340  33.1562980
  85.6132880  53.4338460  33.6855890  86.6124660  54.4343980  33.1448330
  69.6498000  50.7983200  43.1338810  69.3012820  51.2547020  43.8996990
  69.3185700  49.9040330  43.2161240  70.3218640  50.3259400  46.4089580
  70.8701630  50.1447450  45.6455690  70.3873950  49.5353510  46.9445890
  83.9012010  68.1880190  40.9799100  83.4414980  68.9396000  40.6057120
  83.2724470  67.4686660  40.9213900  70.7262630  64.2823430  43.3697820
  69.9996690  63.6628720  43.3023770  70.7871780  64.6764040  42.4995900
  74.3307730  66.4968430  40.1547230  74.8472750  65.8855790  39.6295490
  74.9805110  66.9997210  40.6458240  77.0703230  67.3876920  40.9816210
  77.3581040  67.1331220  40.1049220  77.5826450  66.8354280  41.5721780
  84.7039880  51.4605460  37.6170630  84.6428280  50.5166680  37.4701650
  85.4831910  51.5685550  38.1624090  69.0092630  67.5997820  36.5794580
  68.8414670  66.9668500  37.2776470  68.1427140  67.8057220  36.2288770
  83.8194040  50.6117880  33.5852100  84.0144670  51.5101330  33.8519530
  83.0323910  50.3804960  34.0785050  70.6155330  66.2931050  34.0244720
  70.0902950  66.6739080  33.3206680  70.5399910  66.9181820  34.7454430
  73.2148300  68.2413430  32.8993970  73.9467120  67.9572710  32.3517860
  73.4741970  68.0026710  33.7893350  71.9796680  60.4982650  21.8126530
  71.1481560  60.2431360  22.2123040  72.5877660  60.5693420  22.5484450
  70.3888630  55.4584540  15.5968920  69.5005330  55.8000510  15.4948800
  70.6729820  55.2584860  14.7049750  68.3521640  58.0590190  21.4808620
  68.9237750  57.2912390  21.4812260  68.3523180  58.3578950  20.5715230
  69.5946510  53.4674550  23.2677550  69.4149350  52.5700300  23.5480310
  69.1926590  54.0146420  23.9424500  72.5650020  54.0416040  16.6307300
  72.6716770  54.9419770  16.9376060  71.6542380  53.9934010  16.3401950
  82.2169130  53.1640850  18.1018200  83.0378750  52.6737420  18.1443680
  82.2503210  53.7538510  18.8550040  70.2133180  55.9635050  21.8759890
  70.8943290  56.2273420  22.4947290  69.8981230  55.1235920  22.2097900
  74.4057750  57.0102410  20.9632480  74.9135970  57.5083380  21.6037500
  74.9370990  56.2337610  20.7871840  72.6893850  51.6500970  25.2295900
  72.6912290  52.1673360  24.4241800  71.8598160  51.1731150  25.2065830
  72.3709180  53.3610930  23.2366350  72.7125990  54.2052980  22.9420220
  71.4324990  53.5094670  23.3531690  73.1515800  63.2576950  25.2218580
  73.7689800  63.9328030  24.9403030  72.2908920  63.6664930  25.1306080
  68.4448140  62.4476810  14.1025430  68.0676120  62.9363910  13.3710330
  68.7021210  63.1202090  14.7331960  85.5217530  54.5496020  21.2654950
  84.5742440  54.5835000  21.3970380  85.8467520  55.3634970  21.6504310
  76.0537070  50.8493200  19.5610940  76.3612050  50.2940090  18.8446440
  75.1237770  50.9837660  19.3783930  81.6052130  66.5660490  21.8518400
  81.6179290  66.1622780  20.9840660  81.0527350  67.3407780  21.7479830
  78.4417830  58.9142030  16.2971060  77.5147110  58.8479410  16.5259530
  78.5942650  59.8522160  16.1826300  78.4286910  55.1859030  13.2938220
  77.4890580  55.3472990  13.3790680  78.7470170  55.9044710  12.7474210
  74.0474470  59.4406770  19.0790790  73.6431470  58.7284020  18.5836690
  74.1337590  59.0960010  19.9678830  72.7603090  56.2149980  22.8589830
  73.3117680  56.3245320  22.0843080  73.2746600  56.5887580  23.5745060
  82.6041780  66.7006200  24.9053100  82.1272340  67.5078390  24.7125710
  81.9203570  66.0484530  25.0579310  73.6074600  62.8656020  27.8937800
  72.7103130  63.0895990  28.1411200  73.6327470  62.9890960  26.9449200
  80.6479820  59.7149140  13.8079060  81.0873100  58.8771570  13.6616880
  81.3608240  60.3478540  13.8943200  72.4345820  59.7369340  26.4695170
  72.2953590  60.6092140  26.8382570  71.5527180  59.3942150  26.3243110
  74.2326170  65.6791040  28.6780320  74.2041600  66.0833990  27.8108750
  74.0691140  64.7501400  28.5151920  84.2296960  50.9691950  12.1220100
  83.9169620  51.0618780  13.0219170  84.9909430  51.5472980  12.0717530
  70.7479100  58.3351750  16.5797440  70.6276700  59.0613840  15.9678710
  70.4379990  57.5654660  16.1025350  68.3864470  61.5066890  22.3866080
  68.4644890  61.6415660  21.4421800  69.0006150  60.7982780  22.5794200
  68.4423990  62.5481060  24.9260540  68.6055030  62.0786420  24.1079910
  68.9076440  62.0404620  25.5909380  73.2142760  51.6786820  19.9621110
  72.7710910  52.4596360  19.6305630  73.7727750  52.0016710  20.6692050
  79.5966790  57.2666040  28.7951880  79.9220200  56.4329790  28.4554110
  80.3847120  57.7894560  28.9430210  76.3301580  51.2997520  14.8426940
  75.7055760  51.2957390  15.5680250  76.2431700  50.4328480  14.4462910
  75.2518660  52.2234150  21.8210710  75.5490990  53.1296980  21.7402730
  75.8004220  51.7352930  21.2070280  73.0056980  56.8020390  17.6902360
  72.7797900  56.5857560  18.5948980  72.2249510  57.2348850  17.3448330
  80.2354740  56.8083760  16.2893010  79.6363630  57.5319560  16.1056630
  80.7834350  56.7460540  15.5069460  75.4456190  57.7005970  28.3562630
  75.3499790  56.7600700  28.2063030  76.2888170  57.9221040  27.9610700
  78.8419610  55.4447300  18.3196290  79.2349180  55.7619500  17.5064980
  79.2036460  54.5659180  18.4340810  70.5766730  54.1119640  26.5096410
  70.1830120  54.9594850  26.7169190  69.8885130  53.4746010  26.7005050
  77.1511780  54.1954610  29.5793150  76.4610100  54.0026810  30.2139240
  77.8944080  54.4789250  30.1117450  67.8783780  52.0348100  20.5426490
  67.5896830  52.6050960  21.2551470  68.6229540  51.5552550  20.9057720
  68.0654010  55.9768220  11.7529210  67.9828680  56.9198980  11.8944200
  67.7137070  55.8343130  10.8741560  75.8652140  54.7107250  20.8199560
  75.8688200  54.2697200  19.9704100  76.7603260  55.0324580  20.9271380
  71.7154520  54.5933740  19.7793770  71.3754570  55.0708970  20.5360820
  70.9531840  54.1398860  19.4194870  75.9272290  55.7119330  13.8106320
  76.0485110  55.6705810  14.7592140  75.5420800  56.5743480  13.6553050
  74.9393790  58.0220470  13.2089620  74.3710690  57.5738720  12.5825530
  75.6482790  58.3813250  12.6754770  83.3171410  50.9018910  27.6656390
  83.6417180  50.1708570  28.1914370  83.3527920  50.5832550  26.7637380
  70.0162970  61.9232490  27.0856350  69.6317760  61.2826160  27.6839310
  70.3275160  62.6268610  27.6551080  76.1660110  58.7709030  22.5664970
  76.5330240  58.2967600  23.3126310  75.9765170  59.6450600  22.9073310
  69.0300600  53.5152720  18.6958440  68.7447520  53.1508390  19.5337060
  68.9679460  52.7833180  18.0821580  73.9559480  57.8117670  24.8849180
  73.6516550  58.6909650  25.1099540  74.9105940  57.8717460  24.9206620
  72.4841270  62.0178660  15.4816030  71.7103530  61.4776280  15.3214750
  73.2135900  61.4985270  15.1433790  78.7039190  52.4081980  15.4171810
  77.8903800  51.9095150  15.3417120  78.5101140  53.2480230  15.0008160
  81.4187580  56.7801630  13.7133970  82.3067200  57.0918860  13.5385310
  81.3892670  55.9073880  13.3214550  77.4148170  62.9525320  14.3922140
  77.7563870  63.6967550  13.8965460  76.5860880  63.2656440  14.7546970
  70.0123210  58.6520410  26.0320540  69.6538150  59.3174260  26.6193880
  69.7177770  57.8203960  26.4033160  73.2136330  59.1104650  28.9160090
  72.9136470  59.2561830  28.0187910  73.9847570  58.5509940  28.8233480
  83.6901850  58.0913470  13.1813830  83.6065570  58.5227690  12.3310270
  84.4096040  58.5511820  13.6140650  68.5231260  58.6511670  12.6555140
  69.3926110  58.9336470  12.9391060  68.0321580  59.4647540  12.5403950
  75.6866070  60.0384880  16.7763420  76.1428850  60.8490130  17.0023610
  75.3354280  59.7208020  17.6081910  71.5877850  50.3822530  17.2485940
  71.4592480  50.3740430  18.1970860  70.7639870  50.7205620  16.8976950
  68.8902510  67.8639050  13.2216770  69.2500150  68.4628390  12.5674040
  68.7494850  68.4098940  13.9951800  68.5871780  52.1413650  26.7092640
  67.8730300  52.3410570  27.3145250  69.0066820  51.3653220  27.0807440
  68.8744370  66.1293910  27.6959170  68.9835490  65.1888650  27.5554560
  68.2224930  66.3948660  27.0472900  74.9071130  65.2470250  14.0390440
  74.8981230  65.9799940  13.4234950  73.9869490  65.0001830  14.1317400
  70.5077770  60.4685140  14.7837200  69.9005720  61.2084040  14.7932500
  70.9827120  60.5584500  13.9575400  83.4472590  53.5892900  15.2681650
  82.8185750  53.6938570  14.5539880  82.9524510  53.8089680  16.0575530
  77.8930730  65.3098490  12.7015630  77.9942710  65.1062480  11.7717610
  76.9932470  65.0556770  12.9063410  75.4156620  55.8678850  16.6839530
  74.7072770  56.3365190  17.1253140  75.7001100  55.2100860  17.3184720
  79.4472050  52.5929510  18.1235320  79.3239830  52.6115640  17.1744830
  80.3956610  52.6408450  18.2433720  73.6191640  54.1763930  14.0590240
  74.4682170  54.6134080  13.9930430  73.2522910  54.4884190  14.8862300
  72.5183060  60.4296290  12.5325770  73.2846330  60.3177650  13.0951200
  72.5957750  59.7334260  11.8802540  71.2129820  57.8621360  13.2158660
  71.2933410  56.9148870  13.3276060  72.1049570  58.1928240  13.3219320
  68.8990010  64.0790320  16.1934710  67.9729790  64.3211460  16.1840120
  69.3646440  64.9064580  16.0719460  71.0202810  67.1962820  29.5078780
  71.8215540  67.5174870  29.9214180  70.5054630  66.8358400  30.2298690
  75.1246840  67.1847060  12.1418770  75.9175450  67.4735890  11.6900560
  74.6051190  66.7539230  11.4631250  68.7400620  59.6836280  28.4514830
  69.2439640  59.1043560  29.0231060  68.0008040  59.9676510  28.9891200
  75.6424240  62.4050470  12.0061120  75.5374880  61.7902820  12.7322500
  75.4748460  61.8816360  11.2224130  78.8826970  61.4670500  12.6103110
  78.3337070  61.9139800  13.2545850  79.5046230  60.9619750  13.1340780
  70.7723700  57.8265870  29.3464900  70.8129040  57.5279740  30.2550130
  71.6269200  58.2273480  29.1872420  74.5502090  60.4261420  14.5068410
  74.9718510  60.2601290  15.3499800  74.6752930  59.6161650  14.0123550
  72.7129510  56.4057970  27.3139390  72.1825970  55.9148920  26.6862730
  73.3817580  56.8342170  26.7797320  77.0629730  59.4499030  11.7545510
  77.5835390  58.7348050  11.3886660  77.7098130  60.0884900  12.0546020
  73.2001810  53.3720340  27.3936680  73.1058680  52.7541090  26.6687550
  72.6199200  54.0986630  27.1666590  75.9663250  51.9293580  24.4264070
  75.5180550  51.9517840  23.5809620  75.3328450  51.5312600  25.0234370
  73.4460990  56.4994650  11.4526570  73.2450050  55.6362010  11.8139910
  73.2753040  56.4128010  10.5148170  75.4755470  55.0985440  27.6890170
  76.0655160  54.7901290  28.3767990  74.6575710  54.6265190  27.8450070
  80.2948900  54.7151250  27.9223190  79.6064420  54.0532790  27.8573180
  81.0154920  54.2689520  28.3671650  80.9249300  51.3102880  13.9813450
  81.2051590  50.4670780  14.3372870  80.1515030  51.5425990  14.4952200
  72.2443790  53.5995270  11.4404450  72.5469690  53.6062700  10.5323600
  72.9838380  53.2493130  11.9372110  75.4628720  52.5429890  12.4260650
  75.1150720  51.8653880  11.8463100  75.6641490  52.0819400  13.2404040
  71.2673920  62.9037690  12.2734250  71.7048790  63.4467360  12.9291830
  71.7521650  62.0784640  12.2830590  84.6072110  66.0614310  26.7513450
  84.0074100  66.1206870  26.0077370  84.7366010  65.1219290  26.8810300
  85.8473560  63.8032130  12.0883160  85.0166520  63.8708780  12.5590390
  86.0245390  64.6936250  11.7850020  68.8034360  59.0717540  18.8225020
  68.1483200  58.8029180  18.1784720  69.6412310  58.9622020  18.3727000
  85.3549190  60.8413980  11.7489880  85.6298030  61.7492860  11.6209100
  85.1659930  60.7776510  12.6851870  81.7524800  53.8658830  13.0443510
  82.1709680  53.6789810  12.2040170  81.4460860  53.0137880  13.3546440
  85.2514530  58.7782970  16.7419310  84.8758130  58.0110900  16.3100600
  84.5217650  59.1605670  17.2294240  69.8410290  59.4570110  23.3628360
  70.2083330  59.3697510  24.2424380  69.2721110  58.6936660  23.2635220
  69.3926290  56.3679200  27.2686780  68.4982340  56.3345960  27.6080490
  69.9323840  56.5665990  28.0338030  83.0802220  53.1510920  29.1538530
  83.9572400  53.1594320  29.5372530  83.0923060  52.4141760  28.5430880
  68.0172440  56.2816470  14.7650350  67.1136520  56.5446670  14.5902010
  68.5013060  56.5527640  13.9850310  70.5599650  55.3382010  12.6744730
  71.2691350  54.9165230  12.1892010  69.8439590  55.4057240  12.0428080
  70.2073810  51.3921340  11.7147380  70.9301940  51.9330280  12.0328600
  70.4798330  51.1184760  10.8388920  84.0165460  56.2613810  15.9818960
  84.5124580  56.0284680  16.7667840  83.8181530  55.4225650  15.5656600
  69.8966000  50.6427530  21.6170000  70.5442190  50.0924910  21.1765160
  70.3167840  50.8970680  22.4385810  85.4452620  54.8974760  18.5156640
  85.3351900  54.7430800  19.4538910  86.2060210  54.3695700  18.2732050
  83.7918340  50.8368890  24.9739640  84.4290560  51.4503030  25.3398830
  83.9393230  50.8729550  24.0288870  86.3342890  52.7282680  11.7562780
  87.2592200  52.5963860  11.5481070  86.3118680  52.8075500  12.7099230
  86.4081380  53.4993340  14.3819490  85.6132880  53.4338460  14.9112400
  86.6124660  54.4343980  14.3704840  69.6498000  50.7983200  24.3595320
  69.3012820  51.2547020  25.1253500  69.3185700  49.9040330  24.4417750
  71.2562370  63.9702800  28.5248510  71.2132000  63.5995710  29.4062970
  71.3873380  64.9080370  28.6650330  77.1622820  51.9895080  27.8814740
  77.1011710  52.5816910  28.6310150  78.1023200  51.8821040  27.7365000
  79.7997380  51.6465140  27.5207030  80.4137790  51.9644430  26.8588110
  80.3446940  51.1613730  28.1402890  86.2172560  67.5456770  24.9268870
  85.7230840  67.9425640  24.2096000  85.6085850  66.9205980  25.3206150
  70.3218640  50.3259400  27.6346090  70.8701630  50.1447450  26.8712200
  70.3873950  49.5353510  28.1702400  80.5405420  50.2097280  23.8476320
  79.6665260  50.5432390  23.6449250  80.4316170  49.7370460  24.6728190
  83.9012010  68.1880190  22.2055610  83.4414980  68.9396000  21.8313630
  83.2724470  67.4686660  22.1470410  78.2880240  51.1267120  22.7869230
  77.5052030  51.6012620  23.0665990  77.9943170  50.2221950  22.6782410
  82.8401310  51.8290220  20.8318320  83.2809400  51.7735320  19.9839920
  82.5708900  52.7448230  20.9028500  84.7039880  51.4605460  18.8427140
  84.6428280  50.5166680  18.6958160  85.4831910  51.5685550  19.3880600
  69.0092630  67.5997820  17.8051090  68.8414670  66.9668500  18.5032980
  68.1427140  67.8057220  17.4545280  69.6320650  51.4314600  15.3082950
  70.3900010  51.5443480  14.7346980  69.1697820  52.2683800  15.2626380
  76.1734460  53.5453870  18.2985260  75.3608970  53.1710760  17.9581140
  76.6776100  52.7898950  18.6006450  80.6759440  50.2096320  19.5368330
  81.2788810  50.7816530  20.0116850  79.9352430  50.7735760  19.3142230
  83.8194040  50.6117880  14.8108610  84.0144670  51.5101330  15.0776040
  83.0323910  50.3804960  15.3041560  70.6155330  66.2931050  15.2501230
  70.0902950  66.6739080  14.5463190  70.5399910  66.9181820  15.9710940
  72.0045800  51.9578650  13.8484920  72.5338560  51.1708450  13.7192870
  72.6374120  52.6369840  14.0820450  74.1983640  51.6953790  16.9030310
  73.5686380  50.9941100  17.0700440  73.6588780  52.4557920  16.6863470
  77.1375590  68.3093020  29.5740920  78.0642900  68.0737290  29.6176880
  77.1226020  69.1365020  29.0926950  73.2148300  68.2413430  14.1250480
  73.9467120  67.9572710  13.5774370  73.4741970  68.0026710  15.0149860
  72.3763090  64.3578160  14.1296810  71.7471970  64.8263260  14.6782640
  72.4910920  63.5127380  14.5643000  80.9254660  50.3891350  29.9163270
  80.8120110  50.7085960  30.8114790  81.7424400  50.7903860  29.6200550
  77.9630850  60.1862840   2.1607280  77.1872950  59.7063280   2.4505850
  78.6143780  59.5068490   1.9863440  71.9796680  60.4982650   3.0383040
  71.1481560  60.2431360   3.4379550  72.5877660  60.5693420   3.7740960
  71.9597940  64.5322740   3.2341060  72.2625980  63.6420480   3.0551280
  72.7041530  65.0892960   3.0063310  68.3521640  58.0590190   2.7065130
  68.9237750  57.2912390   2.7068770  68.3523180  58.3578950   1.7971740
  77.4039840  62.8620030   2.1677440  77.3348120  61.9209970   2.0066570
  78.1659700  62.9521440   2.7400010  69.5946510  53.4674550   4.4934060
  69.4149350  52.5700300   4.7736820  69.1926590  54.0146420   5.1681010
  70.2133180  55.9635050   3.1016400  70.8943290  56.2273420   3.7203800
  69.8981230  55.1235920   3.4354410  74.4057750  57.0102410   2.1888990
  74.9135970  57.5083380   2.8294010  74.9370990  56.2337610   2.0128350
  86.5068680  55.1807600   5.8918340  85.8020850  55.5689310   5.3733450
  86.7726600  55.8757890   6.4939270  72.6893850  51.6500970   6.4552410
  72.6912290  52.1673360   5.6498310  71.8598160  51.1731150   6.4322340
  73.9396700  61.2896150   4.6325910  73.6066080  61.9165070   5.2746980
  74.1163380  61.8158030   3.8527580  82.4530610  55.1041230   2.1002250
  81.7486180  55.3926120   2.6805360  82.8142770  55.9141340   1.7401810
  72.3709180  53.3610930   4.4622860  72.7125990  54.2052980   4.1676730
  71.4324990  53.5094670   4.5788200  73.1515800  63.2576950   6.4475090
  73.7689800  63.9328030   6.1659540  72.2908920  63.6664930   6.3562590
  84.0693390  64.7216360   4.3629730  83.3856910  65.3915470   4.3546400
  84.6087680  64.9197010   3.5974590  85.5217530  54.5496020   2.4911460
  84.5742440  54.5835000   2.6226890  85.8467520  55.3634970   2.8760820
  81.6052130  66.5660490   3.0774910  81.6179290  66.1622780   2.2097170
  81.0527350  67.3407780   2.9736340  81.0037570  61.4690330   4.4057520
  81.4206360  61.2550440   3.5710980  81.7277390  61.7263120   4.9766140
  84.9499670  59.8677550   4.4973760  84.1218300  59.9370640   4.0223890
  85.5450150  60.4531860   4.0289590  81.9141680  56.6546870   5.4428630
  81.5012860  57.4800580   5.6968620  81.1817630  56.0691910   5.2504990
  74.5156170  63.1274330   2.4686510  74.2184460  62.5219800   1.7894290
  75.4655990  63.1651640   2.3575870  72.7603090  56.2149980   4.0846340
  73.3117680  56.3245320   3.3099590  73.2746600  56.5887580   4.8001570
  82.6041780  66.7006200   6.1309610  82.1272340  67.5078390   5.9382220
  81.9203570  66.0484530   6.2835820  73.6074600  62.8656020   9.1194310
  72.7103130  63.0895990   9.3667710  73.6327470  62.9890960   8.1705710
  72.4345820  59.7369340   7.6951680  72.2953590  60.6092140   8.0639080
  71.5527180  59.3942150   7.5499620  74.2326170  65.6791040   9.9036830
  74.2041600  66.0833990   9.0365260  74.0691140  64.7501400   9.7408430
  86.1840990  66.4618140  11.2001000  86.6600710  66.9401030  11.8790080
  86.8048150  66.3935630  10.4746500  68.3864470  61.5066890   3.6122590
  68.4644890  61.6415660   2.6678310  69.0006150  60.7982780   3.8050710
  85.5874240  63.6530990   8.3601010  85.7137300  63.4142870   7.4418190
  85.6295620  62.8215530   8.8323090  79.4490980  67.3558990   6.9295820
  79.9635650  67.2667000   7.7318250  78.6060060  67.7018690   7.2223730
  85.4398250  55.7063450   9.3250750  84.8242520  56.2143120   8.7966210
  85.1194670  54.8061780   9.2676690  68.4423990  62.5481060   6.1517050
  68.6055030  62.0786420   5.3336420  68.9076440  62.0404620   6.8165890
  77.5012570  54.5455340   6.7912940  77.0391940  54.7538360   7.6032880
  77.0990680  53.7314690   6.4883610  82.5017080  55.7664290   7.9209600
  81.6510670  55.4670040   8.2418670  82.3418870  56.0106300   7.0093420
  79.5966790  57.2666040  10.0208390  79.9220200  56.4329790   9.6810620
  80.3847120  57.7894560  10.1686720  75.2518660  52.2234150   3.0467220
  75.5490990  53.1296980   2.9659240  75.8004220  51.7352930   2.4326790
  75.4456190  57.7005970   9.5819140  75.3499790  56.7600700   9.4319540
  76.2888170  57.9221040   9.1867210  70.5766730  54.1119640   7.7352920
  70.1830120  54.9594850   7.9425700  69.8885130  53.4746010   7.9261560
  77.1511780  54.1954610  10.8049660  76.4610100  54.0026810  11.4395750
  77.8944080  54.4789250  11.3373960  67.8783780  52.0348100   1.7683000
  67.5896830  52.6050960   2.4807980  68.6229540  51.5552550   2.1314230
  79.4274750  58.0353050   3.6403580  78.6955870  58.5439860   3.9893680
  79.0299090  57.2183030   3.3392360  79.8900660  53.4886730   3.0526520
  79.9073400  53.9395380   3.8968370  79.6416240  52.5892370   3.2659960
  83.3171410  50.9018910   8.8912900  83.6417180  50.1708570   9.4170880
  83.3527920  50.5832550   7.9893890  70.0162970  61.9232490   8.3112860
  69.6317760  61.2826160   8.9095820  70.3275160  62.6268610   8.8807590
  76.1660110  58.7709030   3.7921480  76.5330240  58.2967600   4.5382820
  75.9765170  59.6450600   4.1329820  73.9559480  57.8117670   6.1105690
  73.6516550  58.6909650   6.3356050  74.9105940  57.8717460   6.1463130
  83.2429250  61.0144020   2.4998930  83.9628370  61.5099310   2.1095040
  83.0411070  60.3361910   1.8552800  78.6248050  61.0853080   8.3867930
  78.5585360  60.1648750   8.1325520  77.9953190  61.1828520   9.1012570
  70.0123210  58.6520410   7.2577050  69.6538150  59.3174260   7.8450390
  69.7177770  57.8203960   7.6289670  73.2136330  59.1104650  10.1416600
  72.9136470  59.2561830   9.2444420  73.9847570  58.5509940  10.0489990
  78.5564780  63.9073650   8.1371730  78.5709320  62.9754610   7.9190640
  77.8489880  63.9933410   8.7761500  84.7675990  60.5480990   7.4840310
  84.0424180  61.1409770   7.2869700  85.2951450  60.5404530   6.6853680
  77.9898680  65.5491220   5.2312230  78.6340900  65.7550600   5.9085650
  78.3528120  64.7879620   4.7783080  79.2630760  63.5523570   3.9489680
  79.9052990  62.8516730   4.0621850  79.7880110  64.3322010   3.7686570
  81.0368380  64.3518470   7.1525740  81.3724620  64.9385160   7.8303660
  80.1168720  64.2211180   7.3823530  68.5871780  52.1413650   7.9349150
  67.8730300  52.3410570   8.5401760  69.0066820  51.3653220   8.3063950
  68.8744370  66.1293910   8.9215680  68.9835490  65.1888650   8.7811070
  68.2224930  66.3948660   8.2729410  76.8656960  64.4009800  10.3213800
  76.5453830  63.6819040  10.8659490  76.1915320  65.0764870  10.3949860
  80.0810560  54.6335960   5.6850600  80.4491380  53.8131170   6.0130170
  79.2208760  54.6937850   6.1006250  77.0412550  57.2875550   5.9088570
  77.5397800  57.7621370   6.5740420  77.1835500  56.3639070   6.1158600
  84.2479410  53.5043510   6.7516960  83.7453010  54.2448910   7.0910770
  85.0636070  53.8927510   6.4353750  71.0202810  67.1962820  10.7335290
  71.8215540  67.5174870  11.1470690  70.5054630  66.8358400  11.4555200
  79.8567440  63.3042690  10.6810700  79.2505600  63.3274290   9.9406450
  79.5521550  62.5725730  11.2177950  81.2867810  67.0322980   9.2920110
  82.2389560  66.9481000   9.2420350  81.1396030  67.6964690   9.9653900
  68.7400620  59.6836280   9.6771340  69.2439640  59.1043560  10.2487570
  68.0008040  59.9676510  10.2147710  75.7938560  61.0907270   9.2106860
  75.0284230  61.6592270   9.1261530  75.9754520  60.7983480   8.3175090
  82.9361910  62.8212600   9.7681880  83.6771380  63.1588360   9.2649340
  82.1734590  62.9904660   9.2151650  70.7723700  57.8265870  10.5721410
  70.8129040  57.5279740  11.4806640  71.6269200  58.2273480  10.4128930
  72.7129510  56.4057970   8.5395900  72.1825970  55.9148920   7.9119240
  73.3817580  56.8342170   8.0053830  81.6107570  60.8727430   8.3037090
  82.0248590  61.0272510   9.1527510  80.6758570  60.9982650   8.4662870
  82.0829740  58.2123590  10.3076240  82.6650510  57.4575910  10.2196720
  82.2591510  58.7431030   9.5307720  73.2001810  53.3720340   8.6193190
  73.1058680  52.7541090   7.8944060  72.6199200  54.0986630   8.3923100
  75.9663250  51.9293580   5.6520580  75.5180550  51.9517840   4.8066130
  75.3328450  51.5312600   6.2490880  76.3722800  60.8247910   6.2733020
  76.7910910  61.6680640   6.1009260  75.4531430  60.9619950   6.0439800
  78.7086700  58.5564090   7.6570860  78.8282910  57.9605230   8.3965700
  79.5680700  58.5933780   7.2372160  81.0474600  59.1101280   6.2333370
  80.5209820  59.6343900   5.6298510  81.3905940  59.7428670   6.8643100
  74.2230220  67.1300920   7.3890750  73.6851310  67.8546980   7.0699450
  74.4764180  66.6531260   6.5988090  75.4755470  55.0985440   8.9146680
  76.0655160  54.7901290   9.6024500  74.6575710  54.6265190   9.0706580
  80.2948900  54.7151250   9.1479700  79.6064420  54.0532790   9.0829690
  81.0154920  54.2689520   9.5928160  77.0792430  68.3652130   7.6477400
  77.0051130  69.2687270   7.9549770  76.1771270  68.0464030   7.6199470
  68.9709930  66.5597310   3.6892650  68.5340920  66.7398110   4.5216800
  69.5387610  67.3171930   3.5474370  84.6072110  66.0614310   7.9769960
  84.0074100  66.1206870   7.2333880  84.7366010  65.1219290   8.1066810
  83.2923750  62.7866290   6.0746120  82.4783590  63.2163450   6.3371910
  83.6997950  63.3984700   5.4615170  69.8410290  59.4570110   4.5884870
  70.2083330  59.3697510   5.4680890  69.2721110  58.6936660   4.4891730
  84.6414150  57.9254490   7.6015340  84.4100240  57.6967240   6.7013290
  84.9018700  58.8454040   7.5560230  69.3926290  56.3679200   8.4943290
  68.4982340  56.3345960   8.8337000  69.9323840  56.5665990   9.2594540
  83.0802220  53.1510920  10.3795040  83.9572400  53.1594320  10.7629040
  83.0923060  52.4141760   9.7687390  84.7055210  57.0880330   4.7902610
  83.7557920  57.0543870   4.9047600  84.8868220  57.9980440   4.5552380
  69.8966000  50.6427530   2.8426510  70.5442190  50.0924910   2.4021670
  70.3167840  50.8970680   3.6642320  83.7918340  50.8368890   6.1996150
  84.4290560  51.4503030   6.5655340  83.9393230  50.8729550   5.2545380
  69.6498000  50.7983200   5.5851830  69.3012820  51.2547020   6.3510010
  69.3185700  49.9040330   5.6674260  71.2562370  63.9702800   9.7505020
  71.2132000  63.5995710  10.6319480  71.3873380  64.9080370   9.8906840
  74.9568400  65.5262390   5.3514740  74.7159760  65.7936950   4.4645260
  75.8971040  65.6968120   5.4065600  77.1622820  51.9895080   9.1071250
  77.1011710  52.5816910   9.8566660  78.1023200  51.8821040   8.9621510
  79.7997380  51.6465140   8.7463540  80.4137790  51.9644430   8.0844620
  80.3446940  51.1613730   9.3659400  86.2172560  67.5456770   6.1525380
  85.7230840  67.9425640   5.4352510  85.6085850  66.9205980   6.5462660
  70.3218640  50.3259400   8.8602600  70.8701630  50.1447450   8.0968710
  70.3873950  49.5353510   9.3958910  71.0950400  66.9165050   6.8702800
  70.5010720  66.7849750   7.6092840  71.0874240  66.0803190   6.4044900
  80.5405420  50.2097280   5.0732830  79.6665260  50.5432390   4.8705760
  80.4316170  49.7370460   5.8984700  81.4477400  52.4168150   6.4574550
  81.1190760  51.6019910   6.0776280  82.3959700  52.3737960   6.3340240
  83.9012010  68.1880190   3.4312120  83.4414980  68.9396000   3.0570140
  83.2724470  67.4686660   3.3726920  70.7262630  64.2823430   5.8210840
  69.9996690  63.6628720   5.7536790  70.7871780  64.6764040   4.9508920
  74.3307730  66.4968430   2.6060250  74.8472750  65.8855790   2.0808510
  74.9805110  66.9997210   3.0971260  77.0703230  67.3876920   3.4329230
  77.3581040  67.1331220   2.5562240  77.5826450  66.8354280   4.0234800
  78.2880240  51.1267120   4.0125740  77.5052030  51.6012620   4.2922500
  77.9943170  50.2221950   3.9038920  77.1375590  68.3093020  10.7997430
  78.0642900  68.0737290  10.8433390  77.1226020  69.1365020  10.3183460
  74.3239200  50.9737770  10.5639310  74.0423470  51.4771370   9.8000130
  74.7058900  50.1759520  10.1981440  80.9254660  50.3891350  11.1419780
  80.8120110  50.7085960  12.0371300  81.7424400  50.7903860  10.8457060
  83.7053150  67.5362880  10.6238470  84.4978470  67.0412110  10.4164430
  83.9986300  68.2153020  11.2314080  79.8312810  39.6340330 150.4745930
  79.7506860  38.7194940 150.2037640  79.4177230  40.1307400 149.7685640
  81.9838280  45.8179540 151.1354330  81.5219810  45.0466780 151.4641500
  82.7963830  45.8445610 151.6406780  70.3888630  36.6841050 147.0173350
  69.5005330  37.0257020 146.9153230  70.6729820  36.4841370 146.1254180
  78.2101590  48.1037550 150.7558320  77.5913030  48.5595050 150.1852760
  79.0653370  48.2589010 150.3548020  72.5650020  35.2672550 148.0511730
  72.6716770  36.1676280 148.3580490  71.6542380  35.2190520 147.7606380
  82.2169130  34.3897360 149.5222630  83.0378750  33.8993930 149.5648110
  82.2503210  34.9795020 150.2754470  79.0764940  42.9876790 148.1490230
  78.4582210  43.4526240 147.5852950  79.5888190  43.6804270 148.5659740
  68.4448140  43.6733320 145.5229860  68.0676120  44.1620420 144.7914760
  68.7021210  44.3458600 146.1536390  76.0537070  32.0749710 150.9815370
  76.3612050  31.5196600 150.2650870  75.1237770  32.2094170 150.7988360
  82.8997550  44.5133220 148.3613000  82.7893880  43.5707550 148.4862420
  82.8965800  44.8748860 149.2475760  78.4417830  40.1398540 147.7175490
  77.5147110  40.0735920 147.9463960  78.5942650  41.0778670 147.6030730
  78.4286910  36.4115540 144.7142650  77.4890580  36.5729500 144.7995110
  78.7470170  37.1301220 144.1678640  82.4715120  41.7018840 148.2210740
  81.8527540  41.3638390 147.5737040  82.4539570  41.0578600 148.9289930
  74.0474470  40.6663280 150.4995220  73.6431470  39.9540530 150.0041120
  74.1337590  40.3216520 151.3883260  80.6479820  40.9405650 145.2283490
  81.0873100  40.1028080 145.0821310  81.3608240  41.5735050 145.3147630
  78.7575200  45.8801720 149.1964730  79.1971110  46.6226050 148.7820120
  78.6962090  46.1228290 150.1203690  84.2296960  32.1948460 143.5424530
  83.9169620  32.2875290 144.4423600  84.9909430  32.7729490 143.4921960
  70.7479100  39.5608260 148.0001870  70.6276700  40.2870350 147.3883140
  70.4379990  38.7911170 147.5229780  69.6312100  44.4323590 150.2176690
  69.2240180  44.5738180 149.3630290  70.5225110  44.1483750 150.0147900
  81.4245380  48.8670840 146.5527740  81.2646520  48.5773780 147.4509570
  81.2592090  48.0910970 146.0172970  73.9033760  48.6469370 148.3299360
  73.7276240  47.7304910 148.1167160  73.0489500  49.0056660 148.5697160
  81.1271510  46.3758400 145.1125740  80.4336670  46.3735690 144.4528020
  81.8694370  45.9517720 144.6819910  80.6921440  48.0021110 149.1874230
  81.1478390  47.2210490 149.5012850  81.0313960  48.7127930 149.7315410
  73.2142760  32.9043330 151.3825540  72.7710910  33.6852870 151.0510060
  73.7727750  33.2273220 152.0896480  76.3301580  32.5254030 146.2631370
  75.7055760  32.5213900 146.9884680  76.2431700  31.6584990 145.8667340
  73.0056980  38.0276900 149.1106790  72.7797900  37.8114070 150.0153410
  72.2249510  38.4605360 148.7652760  80.2354740  38.0340270 147.7097440
  79.6363630  38.7576070 147.5261060  80.7834350  37.9717050 146.9273890
  78.8419610  36.6703810 149.7400720  79.2349180  36.9876010 148.9269410
  79.2036460  35.7915690 149.8545240  68.0654010  37.2024730 143.1733640
  67.9828680  38.1455490 143.3148630  67.7137070  37.0599640 142.2945990
  75.8652140  35.9363760 152.2403990  75.8688200  35.4953710 151.3908530
  76.7603260  36.2581090 152.3475810  71.7154520  35.8190250 151.1998200
  71.3754570  36.2965480 151.9565250  70.9531840  35.3655370 150.8399300
  75.9272290  36.9375840 145.2310750  76.0485110  36.8962320 146.1796570
  75.5420800  37.7999990 145.0757480  74.9393790  39.2476980 144.6294050
  74.3710690  38.7995230 144.0029960  75.6482790  39.6069760 144.0959200
  69.0300600  34.7409230 150.1162870  68.7447520  34.3764900 150.9541490
  68.9679460  34.0089690 149.5026010  72.4841270  43.2435170 146.9020460
  71.7103530  42.7032790 146.7419180  73.2135900  42.7241780 146.5638220
  78.7039190  33.6338490 146.8376240  77.8903800  33.1351660 146.7621550
  78.5101140  34.4736740 146.4212590  81.4187580  38.0058140 145.1338400
  82.3067200  38.3175370 144.9589740  81.3892670  37.1330390 144.7418980
  72.5278670  42.9115550 150.5399270  73.0457340  42.1083810 150.4856160
  72.0762690  42.8494690 151.3816100  77.4148170  44.1781830 145.8126570
  77.7563870  44.9224060 145.3169890  76.5860880  44.4912950 146.1751400
  83.6901850  39.3169980 144.6018260  83.6065570  39.7484200 143.7514700
  84.4096040  39.7768330 145.0345080  84.7189100  46.1712240 147.3300390
  84.0765260  45.5167860 147.6044110  84.3319760  46.5767330 146.5541060
  80.2975580  43.4997670 151.1772080  80.6499400  42.9025800 150.5173450
  79.4137910  43.1741900 151.3480330  76.3838860  44.2595360 148.5842490
  77.0709990  44.8064570 148.9650080  75.5971280  44.8036090 148.6192100
  68.5231260  39.8768180 144.0759570  69.3926110  40.1592980 144.3595490
  68.0321580  40.6904050 143.9608380  75.6866070  41.2641390 148.1967850
  76.1428850  42.0746640 148.4228040  75.3354280  40.9464530 149.0286340
  71.5877850  31.6079040 148.6690370  71.4592480  31.5996940 149.6175290
  70.7639870  31.9462130 148.3181380  83.1086480  45.0628700 143.8676740
  82.8824060  44.3459140 144.4601380  82.7182680  44.8141140 143.0298490
  68.8902510  49.0895560 144.6421200  69.2500150  49.6884900 143.9878470
  68.7494850  49.6355450 145.4156230  82.6902730  42.9800640 145.5290900
  82.4024430  43.4413330 146.3168780  83.4854900  42.5198410 145.7975120
  74.9071130  46.4726760 145.4594870  74.8981230  47.2056450 144.8439380
  73.9869490  46.2258340 145.5521830  70.5077770  41.6941650 146.2041630
  69.9005720  42.4340550 146.2136930  70.9827120  41.7841010 145.3779830
  83.4472590  34.8149410 146.6886080  82.8185750  34.9195080 145.9744310
  82.9524510  35.0346190 147.4779960  77.8930730  46.5355000 144.1220060
  77.9942710  46.3318990 143.1922040  76.9932470  46.2813280 144.3267840
  75.4156620  37.0935360 148.1043960  74.7072770  37.5621700 148.5457570
  75.7001100  36.4357370 148.7389150  79.4472050  33.8186020 149.5439750
  79.3239830  33.8372150 148.5949260  80.3956610  33.8664960 149.6638150
  76.5348840  49.0541320 148.8167730  76.7890340  49.0162710 147.8947100
  75.5861320  48.9274650 148.8095980  73.6191640  35.4020440 145.4794670
  74.4682170  35.8390590 145.4134860  73.2522910  35.7140700 146.3066730
  82.5401420  39.9733200 150.3926240  81.5991560  39.9883430 150.5673930
  82.8545490  39.1869160 150.8386540  72.5183060  41.6552800 143.9530200
  73.2846330  41.5434160 144.5155630  72.5957750  40.9590770 143.3006970
  71.2129820  39.0877870 144.6363090  71.2933410  38.1405380 144.7480490
  72.1049570  39.4184750 144.7423750  72.0144530  49.2373260 151.7397630
  72.7507010  48.6888720 152.0106200  72.3985450  50.1029270 151.6003620
  68.8990010  45.3046830 147.6139140  67.9729790  45.5467970 147.6044550
  69.3646440  46.1321090 147.4923890  75.1246840  48.4103570 143.5623200
  75.9175450  48.6992400 143.1104990  74.6051190  47.9795740 142.8835680
  84.1777010  47.6373700 144.9859940  83.8918520  47.2238840 144.1714120
  83.9796560  48.5661410 144.8660460  75.6424240  43.6306980 143.4265550
  75.5374880  43.0159330 144.1526930  75.4748460  43.1072870 142.6428560
  78.8826970  42.6927010 144.0307540  78.3337070  43.1396310 144.6750280
  79.5046230  42.1876260 144.5545210  74.5502090  41.6517930 145.9272840
  74.9718510  41.4857800 146.7704230  74.6752930  40.8418160 145.4327980
  77.0629730  40.6755540 143.1749940  77.5835390  39.9604560 142.8091090
  77.7098130  41.3141410 143.4750450  73.4460990  37.7251160 142.8731000
  73.2450050  36.8618520 143.2344340  73.2753040  37.6384520 141.9352600
  80.9249300  32.5359390 145.4017880  81.2051590  31.6927290 145.7577300
  80.1515030  32.7682500 145.9156630  72.2443790  34.8251780 142.8608880
  72.5469690  34.8319210 141.9528030  72.9838380  34.4749640 143.3576540
  75.4628720  33.7686400 143.8465080  75.1150720  33.0910390 143.2667530
  75.6641490  33.3075910 144.6608470  77.6277760  48.7567150 145.4651680
  78.5228550  49.0952120 145.4870440  77.6595390  48.0346560 144.8375960
  71.2673920  44.1294200 143.6938680  71.7048790  44.6723870 144.3496260
  71.7521650  43.3041150 143.7035020  68.4819720  46.9183230 151.1458940
  68.8122730  46.0504290 150.9137580  68.9110720  47.1241750 151.9763900
  73.0781640  45.2492240 148.8060910  72.7777180  45.1257210 149.7064820
  72.9719130  44.3900830 148.3976640  85.8473560  45.0288640 143.5087590
  85.0166520  45.0965290 143.9794820  86.0245390  45.9192760 143.2054450
  85.3030020  41.7736120 146.0121790  86.0648930  42.3432770 146.1181480
  85.3184390  41.2063320 146.7830100  68.8034360  40.2974050 150.2429450
  68.1483200  40.0285690 149.5989150  69.6412310  40.1878530 149.7931430
  86.3089990  42.6286220 150.8563720  86.6798820  41.8453540 150.4499690
  86.9491920  43.3175320 150.6781020  85.3549190  42.0670490 143.1694310
  85.6298030  42.9749370 143.0413530  85.1659930  42.0033020 144.1056300
  81.7524800  35.0915340 144.4647940  82.1709680  34.9046320 143.6244600
  81.4460860  34.2394390 144.7750870  85.2514530  40.0039480 148.1623740
  84.8758130  39.2367410 147.7305030  84.5217650  40.3862180 148.6498670
  68.0172440  37.5072980 146.1854780  67.1136520  37.7703180 146.0106440
  68.5013060  37.7784150 145.4054740  84.5265490  38.2296970 151.4630980
  85.0502970  37.7359620 150.8321150  85.1124910  38.3647330 152.2078550
  70.5599650  36.5638520 144.0949160  71.2691350  36.1421740 143.6096440
  69.8439590  36.6313750 143.4632510  70.2073810  32.6177850 143.1351810
  70.9301940  33.1586790 143.4533030  70.4798330  32.3441270 142.2593350
  84.0165460  37.4870320 147.4023390  84.5124580  37.2541190 148.1872270
  83.8181530  36.6482160 146.9861030  85.4452620  36.1231270 149.9361070
  85.3351900  35.9687310 150.8743340  86.2060210  35.5952210 149.6936480
  86.3342890  33.9539190 143.1767210  87.2592200  33.8220370 142.9685500
  86.3118680  34.0332010 144.1303660  86.4081380  34.7249850 145.8023920
  85.6132880  34.6594970 146.3316830  86.6124660  35.6600490 145.7909270
  83.3499800  48.7641400 149.7962310  83.9458870  48.4425970 149.1196730
  83.6077950  48.2913220 150.5875580  82.8401310  33.0546730 152.2522750
  83.2809400  32.9991830 151.4044350  82.5708900  33.9704740 152.3232930
  84.7039880  32.6861970 150.2631570  84.6428280  31.7423190 150.1162590
  85.4831910  32.7942060 150.8085030  69.0092630  48.8254330 149.2255520
  68.8414670  48.1925010 149.9237410  68.1427140  49.0313730 148.8749710
  69.6320650  32.6571110 146.7287380  70.3900010  32.7699990 146.1551410
  69.1697820  33.4940310 146.6830810  76.1734460  34.7710380 149.7189690
  75.3608970  34.3967270 149.3785570  76.6776100  34.0155460 150.0210880
  80.6759440  31.4352830 150.9572760  81.2788810  32.0073040 151.4321280
  79.9352430  31.9992270 150.7346660  83.8194040  31.8374390 146.2313040
  84.0144670  32.7357840 146.4980470  83.0323910  31.6061470 146.7245990
  70.6155330  47.5187560 146.6705660  70.0902950  47.8995590 145.9667620
  70.5399910  48.1438330 147.3915370  72.0045800  33.1835160 145.2689350
  72.5338560  32.3964960 145.1397300  72.6374120  33.8626350 145.5024880
  74.1983640  32.9210300 148.3234740  73.5686380  32.2197610 148.4904870
  73.6588780  33.6814430 148.1067900  85.3720650  49.0775100 147.9919600
  85.5472840  48.3912840 147.3480520  84.6742220  49.6022150 147.5996270
  73.2148300  49.4669940 145.5454910  73.9467120  49.1829220 144.9978800
  73.4741970  49.2283220 146.4354290  72.3763090  45.5834670 145.5501240
  71.7471970  46.0519770 146.0987070  72.4910920  44.7383890 145.9847430
  79.8312810  39.6340330 131.7002440  79.7506860  38.7194940 131.4294150
  79.4177230  40.1307400 130.9942150  77.9630850  41.4119350 133.5811710
  77.1872950  40.9319790 133.8710280  78.6143780  40.7325000 133.4067870
  81.9838280  45.8179540 132.3610840  81.5219810  45.0466780 132.6898010
  82.7963830  45.8445610 132.8663290  70.3888630  36.6841050 128.2429860
  69.5005330  37.0257020 128.1409740  70.6729820  36.4841370 127.3510690
  68.3521640  39.2846700 134.1269560  68.9237750  38.5168900 134.1273200
  68.3523180  39.5835460 133.2176170  77.4039840  44.0876540 133.5881870
  77.3348120  43.1466480 133.4271000  78.1659700  44.1777950 134.1604440
  69.5946510  34.6931060 135.9138490  69.4149350  33.7956810 136.1941250
  69.1926590  35.2402930 136.5885440  78.4345010  36.8946920 133.8150800
  78.8109830  36.0218800 133.7024470  78.3364520  37.2305620 132.9241240
  72.5650020  35.2672550 129.2768240  72.6716770  36.1676280 129.5837000
  71.6542380  35.2190520 128.9862890  82.2169130  34.3897360 130.7479140
  83.0378750  33.8993930 130.7904620  82.2503210  34.9795020 131.5010980
  70.2133180  37.1891560 134.5220830  70.8943290  37.4529930 135.1408230
  69.8981230  36.3492430 134.8558840  74.4057750  38.2358920 133.6093420
  74.9135970  38.7339890 134.2498440  74.9370990  37.4594120 133.4332780
  86.5068680  36.4064110 137.3122770  85.8020850  36.7945820 136.7937880
  86.7726600  37.1014400 137.9143700  72.6893850  32.8757480 137.8756840
  72.6912290  33.3929870 137.0702740  71.8598160  32.3987660 137.8526770
  79.0764940  42.9876790 129.3746740  78.4582210  43.4526240 128.8109460
  79.5888190  43.6804270 129.7916250  73.9396700  42.5152660 136.0530340
  73.6066080  43.1421580 136.6951410  74.1163380  43.0414540 135.2732010
  82.4530610  36.3297740 133.5206680  81.7486180  36.6182630 134.1009790
  82.8142770  37.1397850 133.1606240  72.3709180  34.5867440 135.8827290
  72.7125990  35.4309490 135.5881160  71.4324990  34.7351180 135.9992630
  73.1515800  44.4833460 137.8679520  73.7689800  45.1584540 137.5863970
  72.2908920  44.8921440 137.7767020  84.0693390  45.9472870 135.7834160
  83.3856910  46.6171980 135.7750830  84.6087680  46.1453520 135.0179020
  85.5217530  35.7752530 133.9115890  84.5742440  35.8091510 134.0431320
  85.8467520  36.5891480 134.2965250  76.0537070  32.0749710 132.2071880
  76.3612050  31.5196600 131.4907380  75.1237770  32.2094170 132.0244870
  81.6052130  47.7917000 134.4979340  81.6179290  47.3879290 133.6301600
  81.0527350  48.5664290 134.3940770  82.8997550  44.5133220 129.5869510
  82.7893880  43.5707550 129.7118930  82.8965800  44.8748860 130.4732270
  81.0037570  42.6946840 135.8261950  81.4206360  42.4806950 134.9915410
  81.7277390  42.9519630 136.3970570  78.4417830  40.1398540 128.9432000
  77.5147110  40.0735920 129.1720470  78.5942650  41.0778670 128.8287240
  78.4286910  36.4115540 125.9399160  77.4890580  36.5729500 126.0251620
  78.7470170  37.1301220 125.3935150  84.9499670  41.0934060 135.9178190
  84.1218300  41.1627150 135.4428320  85.5450150  41.6788370 135.4494020
  82.4715120  41.7018840 129.4467250  81.8527540  41.3638390 128.7993550
  82.4539570  41.0578600 130.1546440  81.9141680  37.8803380 136.8633060
  81.5012860  38.7057090 137.1173050  81.1817630  37.2948420 136.6709420
  74.0474470  40.6663280 131.7251730  73.6431470  39.9540530 131.2297630
  74.1337590  40.3216520 132.6139770  72.7603090  37.4406490 135.5050770
  73.3117680  37.5501830 134.7304020  73.2746600  37.8144090 136.2206000
  82.6041780  47.9262710 137.5514040  82.1272340  48.7334900 137.3586650
  81.9203570  47.2741040 137.7040250  73.6074600  44.0912530 140.5398740
  72.7103130  44.3152500 140.7872140  73.6327470  44.2147470 139.5910140
  80.6479820  40.9405650 126.4540000  81.0873100  40.1028080 126.3077820
  81.3608240  41.5735050 126.5404140  72.4345820  40.9625850 139.1156110
  72.2953590  41.8348650 139.4843510  71.5527180  40.6198660 138.9704050
  74.2326170  46.9047550 141.3241260  74.2041600  47.3090500 140.4569690
  74.0691140  45.9757910 141.1612860  84.2296960  32.1948460 124.7681040
  83.9169620  32.2875290 125.6680110  84.9909430  32.7729490 124.7178470
  86.1840990  47.6874650 142.6205430  86.6600710  48.1657540 143.2994510
  86.8048150  47.6192140 141.8950930  68.3864470  42.7323400 135.0327020
  68.4644890  42.8672170 134.0882740  69.0006150  42.0239290 135.2255140
  85.5874240  44.8787500 139.7805440  85.7137300  44.6399380 138.8622620
  85.6295620  44.0472040 140.2527520  79.4490980  48.5815500 138.3500250
  79.9635650  48.4923510 139.1522680  78.6060060  48.9275200 138.6428160
  81.1271510  46.3758400 126.3382250  80.4336670  46.3735690 125.6784530
  81.8694370  45.9517720 125.9076420  85.4398250  36.9319960 140.7455180
  84.8242520  37.4399630 140.2170640  85.1194670  36.0318290 140.6881120
  68.4423990  43.7737570 137.5721480  68.6055030  43.3042930 136.7540850
  68.9076440  43.2661130 138.2370320  73.2142760  32.9043330 132.6082050
  72.7710910  33.6852870 132.2766570  73.7727750  33.2273220 133.3152990
  77.5012570  35.7711850 138.2117370  77.0391940  35.9794870 139.0237310
  77.0990680  34.9571200 137.9088040  82.5017080  36.9920800 139.3414030
  81.6510670  36.6926550 139.6623100  82.3418870  37.2362810 138.4297850
  79.5966790  38.4922550 141.4412820  79.9220200  37.6586300 141.1015050
  80.3847120  39.0151070 141.5891150  76.3301580  32.5254030 127.4887880
  75.7055760  32.5213900 128.2141190  76.2431700  31.6584990 127.0923850
  75.2518660  33.4490660 134.4671650  75.5490990  34.3553490 134.3863670
  75.8004220  32.9609440 133.8531220  73.0056980  38.0276900 130.3363300
  72.7797900  37.8114070 131.2409920  72.2249510  38.4605360 129.9909270
  80.2354740  38.0340270 128.9353950  79.6363630  38.7576070 128.7517570
  80.7834350  37.9717050 128.1530400  75.4456190  38.9262480 141.0023570
  75.3499790  37.9857210 140.8523970  76.2888170  39.1477550 140.6071640
  78.8419610  36.6703810 130.9657230  79.2349180  36.9876010 130.1525920
  79.2036460  35.7915690 131.0801750  70.5766730  35.3376150 139.1557350
  70.1830120  36.1851360 139.3630130  69.8885130  34.7002520 139.3465990
  77.1511780  35.4211120 142.2254090  76.4610100  35.2283320 142.8600180
  77.8944080  35.7045760 142.7578390  67.8783780  33.2604610 133.1887430
  67.5896830  33.8307470 133.9012410  68.6229540  32.7809060 133.5518660
  79.4274750  39.2609560 135.0608010  78.6955870  39.7696370 135.4098110
  79.0299090  38.4439540 134.7596790  75.8652140  35.9363760 133.4660500
  75.8688200  35.4953710 132.6165040  76.7603260  36.2581090 133.5732320
  71.7154520  35.8190250 132.4254710  71.3754570  36.2965480 133.1821760
  70.9531840  35.3655370 132.0655810  75.9272290  36.9375840 126.4567260
  76.0485110  36.8962320 127.4053080  75.5420800  37.7999990 126.3013990
  79.8900660  34.7143240 134.4730950  79.9073400  35.1651890 135.3172800
  79.6416240  33.8148880 134.6864390  74.9393790  39.2476980 125.8550560
  74.3710690  38.7995230 125.2286470  75.6482790  39.6069760 125.3215710
  83.3171410  32.1275420 140.3117330  83.6417180  31.3965080 140.8375310
  83.3527920  31.8089060 139.4098320  70.0162970  43.1489000 139.7317290
  69.6317760  42.5082670 140.3300250  70.3275160  43.8525120 140.3012020
  76.1660110  39.9965540 135.2125910  76.5330240  39.5224110 135.9587250
  75.9765170  40.8707110 135.5534250  69.0300600  34.7409230 131.3419380
  68.7447520  34.3764900 132.1798000  68.9679460  34.0089690 130.7282520
  73.9559480  39.0374180 137.5310120  73.6516550  39.9166160 137.7560480
  74.9105940  39.0973970 137.5667560  83.2429250  42.2400530 133.9203360
  83.9628370  42.7355820 133.5299470  83.0411070  41.5618420 133.2757230
  78.7039190  33.6338490 128.0632750  77.8903800  33.1351660 127.9878060
  78.5101140  34.4736740 127.6469100  78.6248050  42.3109590 139.8072360
  78.5585360  41.3905260 139.5529950  77.9953190  42.4085030 140.5217000
  77.4148170  44.1781830 127.0383080  77.7563870  44.9224060 126.5426400
  76.5860880  44.4912950 127.4007910  70.0123210  39.8776920 138.6781480
  69.6538150  40.5430770 139.2654820  69.7177770  39.0460470 139.0494100
  73.2136330  40.3361160 141.5621030  72.9136470  40.4818340 140.6648850
  73.9847570  39.7766450 141.4694420  78.5564780  45.1330160 139.5576160
  78.5709320  44.2011120 139.3395070  77.8489880  45.2189920 140.1965930
  84.7675990  41.7737500 138.9044740  84.0424180  42.3666280 138.7074130
  85.2951450  41.7661040 138.1058110  84.7189100  46.1712240 128.5556900
  84.0765260  45.5167860 128.8300620  84.3319760  46.5767330 127.7797570
  80.2975580  43.4997670 132.4028590  80.6499400  42.9025800 131.7429960
  79.4137910  43.1741900 132.5736840  76.3838860  44.2595360 129.8099000
  77.0709990  44.8064570 130.1906590  75.5971280  44.8036090 129.8448610
  75.6866070  41.2641390 129.4224360  76.1428850  42.0746640 129.6484550
  75.3354280  40.9464530 130.2542850  77.9898680  46.7747730 136.6516660
  78.6340900  46.9807110 137.3290080  78.3528120  46.0136130 136.1987510
  71.5877850  31.6079040 129.8946880  71.4592480  31.5996940 130.8431800
  70.7639870  31.9462130 129.5437890  79.2630760  44.7780080 135.3694110
  79.9052990  44.0773240 135.4826280  79.7880110  45.5578520 135.1891000
  83.1086480  45.0628700 125.0933250  82.8824060  44.3459140 125.6857890
  82.7182680  44.8141140 124.2555000  81.0368380  45.5774980 138.5730170
  81.3724620  46.1641670 139.2508090  80.1168720  45.4467690 138.8027960
  68.8902510  49.0895560 125.8677710  69.2500150  49.6884900 125.2134980
  68.7494850  49.6355450 126.6412740  68.5871780  33.3670160 139.3553580
  67.8730300  33.5667080 139.9606190  69.0066820  32.5909730 139.7268380
  82.6902730  42.9800640 126.7547410  82.4024430  43.4413330 127.5425290
  83.4854900  42.5198410 127.0231630  68.8744370  47.3550420 140.3420110
  68.9835490  46.4145160 140.2015500  68.2224930  47.6205170 139.6933840
  76.8656960  45.6266310 141.7418230  76.5453830  44.9075550 142.2863920
  76.1915320  46.3021380 141.8154290  74.9071130  46.4726760 126.6851380
  74.8981230  47.2056450 126.0695890  73.9869490  46.2258340 126.7778340
  80.0810560  35.8592470 137.1055030  80.4491380  35.0387680 137.4334600
  79.2208760  35.9194360 137.5210680  77.8930730  46.5355000 125.3476570
  77.9942710  46.3318990 124.4178550  76.9932470  46.2813280 125.5524350
  75.4156620  37.0935360 129.3300470  74.7072770  37.5621700 129.7714080
  75.7001100  36.4357370 129.9645660  77.0412550  38.5132060 137.3293000
  77.5397800  38.9877880 137.9944850  77.1835500  37.5895580 137.5363030
  79.4472050  33.8186020 130.7696260  79.3239830  33.8372150 129.8205770
  80.3956610  33.8664960 130.8894660  73.6191640  35.4020440 126.7051180
  74.4682170  35.8390590 126.6391370  73.2522910  35.7140700 127.5323240
  84.2479410  34.7300020 138.1721390  83.7453010  35.4705420 138.5115200
  85.0636070  35.1184020 137.8558180  82.5401420  39.9733200 131.6182750
  81.5991560  39.9883430 131.7930440  82.8545490  39.1869160 132.0643050
  71.2129820  39.0877870 125.8619600  71.2933410  38.1405380 125.9737000
  72.1049570  39.4184750 125.9680260  84.5427000  47.1442050 133.2937010
  84.6674420  47.9673220 133.7660820  85.4092560  46.9332780 132.9461160
  71.0202810  48.4219330 142.1539720  71.8215540  48.7431380 142.5675120
  70.5054630  48.0614910 142.8759630  75.1246840  48.4103570 124.7879710
  75.9175450  48.6992400 124.3361500  74.6051190  47.9795740 124.1092190
  79.8567440  44.5299200 142.1015130  79.2505600  44.5530800 141.3610880
  79.5521550  43.7982240 142.6382380  81.2867810  48.2579490 140.7124540
  82.2389560  48.1737510 140.6624780  81.1396030  48.9221200 141.3858330
  84.1777010  47.6373700 126.2116450  83.8918520  47.2238840 125.3970630
  83.9796560  48.5661410 126.0916970  68.7400620  40.9092790 141.0975770
  69.2439640  40.3300070 141.6692000  68.0008040  41.1933020 141.6352140
  75.6424240  43.6306980 124.6522060  75.5374880  43.0159330 125.3783440
  75.4748460  43.1072870 123.8685070  75.7938560  42.3163780 140.6311290
  75.0284230  42.8848780 140.5465960  75.9754520  42.0239990 139.7379520
  78.8826970  42.6927010 125.2564050  78.3337070  43.1396310 125.9006790
  79.5046230  42.1876260 125.7801720  82.9361910  44.0469110 141.1886310
  83.6771380  44.3844870 140.6853770  82.1734590  44.2161170 140.6356080
  70.7723700  39.0522380 141.9925840  70.8129040  38.7536250 142.9011070
  71.6269200  39.4529990 141.8333360  74.5502090  41.6517930 127.1529350
  74.9718510  41.4857800 127.9960740  74.6752930  40.8418160 126.6584490
  72.7129510  37.6314480 139.9600330  72.1825970  37.1405430 139.3323670
  73.3817580  38.0598680 139.4258260  77.0629730  40.6755540 124.4006450
  77.5835390  39.9604560 124.0347600  77.7098130  41.3141410 124.7006960
  81.6107570  42.0983940 139.7241520  82.0248590  42.2529020 140.5731940
  80.6758570  42.2239160 139.8867300  82.0829740  39.4380100 141.7280670
  82.6650510  38.6832420 141.6401150  82.2591510  39.9687540 140.9512150
  73.2001810  34.5976850 140.0397620  73.1058680  33.9797600 139.3148490
  72.6199200  35.3243140 139.8127530  75.9663250  33.1550090 137.0725010
  75.5180550  33.1774350 136.2270560  75.3328450  32.7569110 137.6695310
  76.3722800  42.0504420 137.6937450  76.7910910  42.8937150 137.5213690
  75.4531430  42.1876460 137.4644230  78.7086700  39.7820600 139.0775290
  78.8282910  39.1861740 139.8170130  79.5680700  39.8190290 138.6576590
  81.0474600  40.3357790 137.6537800  80.5209820  40.8600410 137.0502940
  81.3905940  40.9685180 138.2847530  73.4460990  37.7251160 124.0987510
  73.2450050  36.8618520 124.4600850  73.2753040  37.6384520 123.1609110
  74.2230220  48.3557430 138.8095180  73.6851310  49.0803490 138.4903880
  74.4764180  47.8787770 138.0192520  75.4755470  36.3241950 140.3351110
  76.0655160  36.0157800 141.0228930  74.6575710  35.8521700 140.4911010
  80.2948900  35.9407760 140.5684130  79.6064420  35.2789300 140.5034120
  81.0154920  35.4946030 141.0132590  80.9249300  32.5359390 126.6274390
  81.2051590  31.6927290 126.9833810  80.1515030  32.7682500 127.1413140
  77.0792430  49.5908640 139.0681830  77.0051130  50.4943780 139.3754200
  76.1771270  49.2720540 139.0403900  75.4628720  33.7686400 125.0721590
  75.1150720  33.0910390 124.4924040  75.6641490  33.3075910 125.8864980
  84.6072110  47.2870820 139.3974390  84.0074100  47.3463380 138.6538310
  84.7366010  46.3475800 139.5271240  85.8473560  45.0288640 124.7344100
  85.0166520  45.0965290 125.2051330  86.0245390  45.9192760 124.4310960
  86.3089990  42.6286220 132.0820230  86.6798820  41.8453540 131.6756200
  86.9491920  43.3175320 131.9037530  83.2923750  44.0122800 137.4950550
  82.4783590  44.4419960 137.7576340  83.6997950  44.6241210 136.8819600
  69.8410290  40.6826620 136.0089300  70.2083330  40.5954020 136.8885320
  69.2721110  39.9193170 135.9096160  84.6414150  39.1511000 139.0219770
  84.4100240  38.9223750 138.1217720  84.9018700  40.0710550 138.9764660
  69.3926290  37.5935710 139.9147720  68.4982340  37.5602470 140.2541430
  69.9323840  37.7922500 140.6798970  83.0802220  34.3767430 141.7999470
  83.9572400  34.3850830 142.1833470  83.0923060  33.6398270 141.1891820
  84.5265490  38.2296970 132.6887490  85.0502970  37.7359620 132.0577660
  85.1124910  38.3647330 133.4335060  84.7055210  38.3136840 136.2107040
  83.7557920  38.2800380 136.3252030  84.8868220  39.2236950 135.9756810
  70.5599650  36.5638520 125.3205670  71.2691350  36.1421740 124.8352950
  69.8439590  36.6313750 124.6889020  69.8966000  31.8684040 134.2630940
  70.5442190  31.3181420 133.8226100  70.3167840  32.1227190 135.0846750
  85.4452620  36.1231270 131.1617580  85.3351900  35.9687310 132.0999850
  86.2060210  35.5952210 130.9192990  83.7918340  32.0625400 137.6200580
  84.4290560  32.6759540 137.9859770  83.9393230  32.0986060 136.6749810
  83.3499800  48.7641400 131.0218820  83.9458870  48.4425970 130.3453240
  83.6077950  48.2913220 131.8132090  69.6498000  32.0239710 137.0056260
  69.3012820  32.4803530 137.7714440  69.3185700  31.1296840 137.0878690
  71.2562370  45.1959310 141.1709450  71.2132000  44.8252220 142.0523910
  71.3873380  46.1336880 141.3111270  74.9568400  46.7518900 136.7719170
  74.7159760  47.0193460 135.8849690  75.8971040  46.9224630 136.8270030
  77.1622820  33.2151590 140.5275680  77.1011710  33.8073420 141.2771090
  78.1023200  33.1077550 140.3825940  79.7997380  32.8721650 140.1667970
  80.4137790  33.1900940 139.5049050  80.3446940  32.3870240 140.7863830
  86.2172560  48.7713280 137.5729810  85.7230840  49.1682150 136.8556940
  85.6085850  48.1462490 137.9667090  70.3218640  31.5515910 140.2807030
  70.8701630  31.3703960 139.5173140  70.3873950  30.7610020 140.8163340
  71.0950400  48.1421560 138.2907230  70.5010720  48.0106260 139.0297270
  71.0874240  47.3059700 137.8249330  80.5405420  31.4353790 136.4937260
  79.6665260  31.7688900 136.2910190  80.4316170  30.9626970 137.3189130
  81.4477400  33.6424660 137.8778980  81.1190760  32.8276420 137.4980710
  82.3959700  33.5994470 137.7544670  83.9012010  49.4136700 134.8516550
  83.4414980  50.1652510 134.4774570  83.2724470  48.6943170 134.7931350
  70.7262630  45.5079940 137.2415270  69.9996690  44.8885230 137.1741220
  70.7871780  45.9020550 136.3713350  77.0703230  48.6133430 134.8533660
  77.3581040  48.3587730 133.9766670  77.5826450  48.0610790 135.4439230
  78.2880240  32.3523630 135.4330170  77.5052030  32.8269130 135.7126930
  77.9943170  31.4478460 135.3243350  82.8401310  33.0546730 133.4779260
  83.2809400  32.9991830 132.6300860  82.5708900  33.9704740 133.5489440
  84.7039880  32.6861970 131.4888080  84.6428280  31.7423190 131.3419100
  85.4831910  32.7942060 132.0341540  69.6320650  32.6571110 127.9543890
  70.3900010  32.7699990 127.3807920  69.1697820  33.4940310 127.9087320
  76.1734460  34.7710380 130.9446200  75.3608970  34.3967270 130.6042080
  76.6776100  34.0155460 131.2467390  80.6759440  31.4352830 132.1829270
  81.2788810  32.0073040 132.6577790  79.9352430  31.9992270 131.9603170
  83.8194040  31.8374390 127.4569550  84.0144670  32.7357840 127.7236980
  83.0323910  31.6061470 127.9502500  72.0045800  33.1835160 126.4945860
  72.5338560  32.3964960 126.3653810  72.6374120  33.8626350 126.7281390
  74.1983640  32.9210300 129.5491250  73.5686380  32.2197610 129.7161380
  73.6588780  33.6814430 129.3324410  77.1375590  49.5349530 142.2201860
  78.0642900  49.2993800 142.2637820  77.1226020  50.3621530 141.7387890
  85.3720650  49.0775100 129.2176110  85.5472840  48.3912840 128.5737030
  84.6742220  49.6022150 128.8252780  74.3239200  32.1994280 141.9843740
  74.0423470  32.7027880 141.2204560  74.7058900  31.4016030 141.6185870
  73.2148300  49.4669940 126.7711420  73.9467120  49.1829220 126.2235310
  73.4741970  49.2283220 127.6610800  72.3763090  45.5834670 126.7757750
  71.7471970  46.0519770 127.3243580  72.4910920  44.7383890 127.2103940
  80.9254660  31.6147860 142.5624210  80.8120110  31.9342470 143.4575730
  81.7424400  32.0160370 142.2661490  83.7053150  48.7619390 142.0442900
  84.4978470  48.2668620 141.8368860  83.9986300  49.4409530 142.6518510
  79.8312810  39.6340330 112.9258950  79.7506860  38.7194940 112.6550660
  79.4177230  40.1307400 112.2198660  77.9630850  41.4119350 114.8068220
  77.1872950  40.9319790 115.0966790  78.6143780  40.7325000 114.6324380
  71.9796680  41.7239160 115.6843980  71.1481560  41.4687870 116.0840490
  72.5877660  41.7949930 116.4201900  81.9838280  45.8179540 113.5867350
  81.5219810  45.0466780 113.9154520  82.7963830  45.8445610 114.0919800
  71.9597940  45.7579250 115.8802000  72.2625980  44.8676990 115.7012220
  72.7041530  46.3149470 115.6524250  70.3888630  36.6841050 109.4686370
  69.5005330  37.0257020 109.3666250  70.6729820  36.4841370 108.5767200
  68.3521640  39.2846700 115.3526070  68.9237750  38.5168900 115.3529710
  68.3523180  39.5835460 114.4432680  78.2101590  48.1037550 113.2071340
  77.5913030  48.5595050 112.6365780  79.0653370  48.2589010 112.8061040
  77.4039840  44.0876540 114.8138380  77.3348120  43.1466480 114.6527510
  78.1659700  44.1777950 115.3860950  78.4345010  36.8946920 115.0407310
  78.8109830  36.0218800 114.9280980  78.3364520  37.2305620 114.1497750
  82.2169130  34.3897360 111.9735650  83.0378750  33.8993930 112.0161130
  82.2503210  34.9795020 112.7267490  70.2133180  37.1891560 115.7477340
  70.8943290  37.4529930 116.3664740  69.8981230  36.3492430 116.0815350
  74.4057750  38.2358920 114.8349930  74.9135970  38.7339890 115.4754950
  74.9370990  37.4594120 114.6589290  79.0764940  42.9876790 110.6003250
  78.4582210  43.4526240 110.0365970  79.5888190  43.6804270 111.0172760
  73.9396700  42.5152660 117.2786850  73.6066080  43.1421580 117.9207920
  74.1163380  43.0414540 116.4988520  82.4530610  36.3297740 114.7463190
  81.7486180  36.6182630 115.3266300  82.8142770  37.1397850 114.3862750
  73.1515800  44.4833460 119.0936030  73.7689800  45.1584540 118.8120480
  72.2908920  44.8921440 119.0023530  84.0693390  45.9472870 117.0090670
  83.3856910  46.6171980 117.0007340  84.6087680  46.1453520 116.2435530
  85.5217530  35.7752530 115.1372400  84.5742440  35.8091510 115.2687830
  85.8467520  36.5891480 115.5221760  81.6052130  47.7917000 115.7235850
  81.6179290  47.3879290 114.8558110  81.0527350  48.5664290 115.6197280
  82.8997550  44.5133220 110.8126020  82.7893880  43.5707550 110.9375440
  82.8965800  44.8748860 111.6988780  81.0037570  42.6946840 117.0518460
  81.4206360  42.4806950 116.2171920  81.7277390  42.9519630 117.6227080
  78.4417830  40.1398540 110.1688510  77.5147110  40.0735920 110.3976980
  78.5942650  41.0778670 110.0543750  78.4286910  36.4115540 107.1655670
  77.4890580  36.5729500 107.2508130  78.7470170  37.1301220 106.6191660
  84.9499670  41.0934060 117.1434700  84.1218300  41.1627150 116.6684830
  85.5450150  41.6788370 116.6750530  82.4715120  41.7018840 110.6723760
  81.8527540  41.3638390 110.0250060  82.4539570  41.0578600 111.3802950
  81.9141680  37.8803380 118.0889570  81.5012860  38.7057090 118.3429560
  81.1817630  37.2948420 117.8965930  74.0474470  40.6663280 112.9508240
  73.6431470  39.9540530 112.4554140  74.1337590  40.3216520 113.8396280
  74.5156170  44.3530840 115.1147450  74.2184460  43.7476310 114.4355230
  75.4655990  44.3908150 115.0036810  82.6041780  47.9262710 118.7770550
  82.1272340  48.7334900 118.5843160  81.9203570  47.2741040 118.9296760
  73.6074600  44.0912530 121.7655250  72.7103130  44.3152500 122.0128650
  73.6327470  44.2147470 120.8166650  80.6479820  40.9405650 107.6796510
  81.0873100  40.1028080 107.5334330  81.3608240  41.5735050 107.7660650
  72.4345820  40.9625850 120.3412620  72.2953590  41.8348650 120.7100020
  71.5527180  40.6198660 120.1960560  78.7575200  45.8801720 111.6477750
  79.1971110  46.6226050 111.2333140  78.6962090  46.1228290 112.5716710
  74.2326170  46.9047550 122.5497770  74.2041600  47.3090500 121.6826200
  74.0691140  45.9757910 122.3869370  84.2296960  32.1948460 105.9937550
  83.9169620  32.2875290 106.8936620  84.9909430  32.7729490 105.9434980
  70.7479100  39.5608260 110.4514890  70.6276700  40.2870350 109.8396160
  70.4379990  38.7911170 109.9742800  86.1840990  47.6874650 123.8461940
  86.6600710  48.1657540 124.5251020  86.8048150  47.6192140 123.1207440
  68.3864470  42.7323400 116.2583530  68.4644890  42.8672170 115.3139250
  69.0006150  42.0239290 116.4511650  69.6312100  44.4323590 112.6689710
  69.2240180  44.5738180 111.8143310  70.5225110  44.1483750 112.4660920
  85.5874240  44.8787500 121.0061950  85.7137300  44.6399380 120.0879130
  85.6295620  44.0472040 121.4784030  79.4490980  48.5815500 119.5756760
  79.9635650  48.4923510 120.3779190  78.6060060  48.9275200 119.8684670
  81.4245380  48.8670840 109.0040760  81.2646520  48.5773780 109.9022590
  81.2592090  48.0910970 108.4685990  73.9033760  48.6469370 110.7812380
  73.7276240  47.7304910 110.5680180  73.0489500  49.0056660 111.0210180
  81.1271510  46.3758400 107.5638760  80.4336670  46.3735690 106.9041040
  81.8694370  45.9517720 107.1332930  80.6921440  48.0021110 111.6387250
  81.1478390  47.2210490 111.9525870  81.0313960  48.7127930 112.1828430
  68.4423990  43.7737570 118.7977990  68.6055030  43.3042930 117.9797360
  68.9076440  43.2661130 119.4626830  77.5012570  35.7711850 119.4373880
  77.0391940  35.9794870 120.2493820  77.0990680  34.9571200 119.1344550
  79.5966790  38.4922550 122.6669330  79.9220200  37.6586300 122.3271560
  80.3847120  39.0151070 122.8147660  75.2518660  33.4490660 115.6928160
  75.5490990  34.3553490 115.6120180  75.8004220  32.9609440 115.0787730
  73.0056980  38.0276900 111.5619810  72.7797900  37.8114070 112.4666430
  72.2249510  38.4605360 111.2165780  80.2354740  38.0340270 110.1610460
  79.6363630  38.7576070 109.9774080  80.7834350  37.9717050 109.3786910
  75.4456190  38.9262480 122.2280080  75.3499790  37.9857210 122.0780480
  76.2888170  39.1477550 121.8328150  78.8419610  36.6703810 112.1913740
  79.2349180  36.9876010 111.3782430  79.2036460  35.7915690 112.3058260
  77.1511780  35.4211120 123.4510600  76.4610100  35.2283320 124.0856690
  77.8944080  35.7045760 123.9834900  67.8783780  33.2604610 114.4143940
  67.5896830  33.8307470 115.1268920  68.6229540  32.7809060 114.7775170
  68.0654010  37.2024730 105.6246660  67.9828680  38.1455490 105.7661650
  67.7137070  37.0599640 104.7459010  79.4274750  39.2609560 116.2864520
  78.6955870  39.7696370 116.6354620  79.0299090  38.4439540 115.9853300
  75.8652140  35.9363760 114.6917010  75.8688200  35.4953710 113.8421550
  76.7603260  36.2581090 114.7988830  71.7154520  35.8190250 113.6511220
  71.3754570  36.2965480 114.4078270  70.9531840  35.3655370 113.2912320
  75.9272290  36.9375840 107.6823770  76.0485110  36.8962320 108.6309590
  75.5420800  37.7999990 107.5270500  79.8900660  34.7143240 115.6987460
  79.9073400  35.1651890 116.5429310  79.6416240  33.8148880 115.9120900
  74.9393790  39.2476980 107.0807070  74.3710690  38.7995230 106.4542980
  75.6482790  39.6069760 106.5472220  83.3171410  32.1275420 121.5373840
  83.6417180  31.3965080 122.0631820  83.3527920  31.8089060 120.6354830
  70.0162970  43.1489000 120.9573800  69.6317760  42.5082670 121.5556760
  70.3275160  43.8525120 121.5268530  76.1660110  39.9965540 116.4382420
  76.5330240  39.5224110 117.1843760  75.9765170  40.8707110 116.7790760
  69.0300600  34.7409230 112.5675890  68.7447520  34.3764900 113.4054510
  68.9679460  34.0089690 111.9539030  73.9559480  39.0374180 118.7566630
  73.6516550  39.9166160 118.9816990  74.9105940  39.0973970 118.7924070
  72.4841270  43.2435170 109.3533480  71.7103530  42.7032790 109.1932200
  73.2135900  42.7241780 109.0151240  83.2429250  42.2400530 115.1459870
  83.9628370  42.7355820 114.7555980  83.0411070  41.5618420 114.5013740
  78.7039190  33.6338490 109.2889260  77.8903800  33.1351660 109.2134570
  78.5101140  34.4736740 108.8725610  78.6248050  42.3109590 121.0328870
  78.5585360  41.3905260 120.7786460  77.9953190  42.4085030 121.7473510
  81.4187580  38.0058140 107.5851420  82.3067200  38.3175370 107.4102760
  81.3892670  37.1330390 107.1932000  72.5278670  42.9115550 112.9912290
  73.0457340  42.1083810 112.9369180  72.0762690  42.8494690 113.8329120
  77.4148170  44.1781830 108.2639590  77.7563870  44.9224060 107.7682910
  76.5860880  44.4912950 108.6264420  73.2136330  40.3361160 122.7877540
  72.9136470  40.4818340 121.8905360  73.9847570  39.7766450 122.6950930
  78.5564780  45.1330160 120.7832670  78.5709320  44.2011120 120.5651580
  77.8489880  45.2189920 121.4222440  84.7675990  41.7737500 120.1301250
  84.0424180  42.3666280 119.9330640  85.2951450  41.7661040 119.3314620
  84.7189100  46.1712240 109.7813410  84.0765260  45.5167860 110.0557130
  84.3319760  46.5767330 109.0054080  80.2975580  43.4997670 113.6285100
  80.6499400  42.9025800 112.9686470  79.4137910  43.1741900 113.7993350
  76.3838860  44.2595360 111.0355510  77.0709990  44.8064570 111.4163100
  75.5971280  44.8036090 111.0705120  75.6866070  41.2641390 110.6480870
  76.1428850  42.0746640 110.8741060  75.3354280  40.9464530 111.4799360
  77.9898680  46.7747730 117.8773170  78.6340900  46.9807110 118.5546590
  78.3528120  46.0136130 117.4244020  79.2630760  44.7780080 116.5950620
  79.9052990  44.0773240 116.7082790  79.7880110  45.5578520 116.4147510
  81.0368380  45.5774980 119.7986680  81.3724620  46.1641670 120.4764600
  80.1168720  45.4467690 120.0284470  82.6902730  42.9800640 107.9803920
  82.4024430  43.4413330 108.7681800  83.4854900  42.5198410 108.2488140
  68.8744370  47.3550420 121.5676620  68.9835490  46.4145160 121.4272010
  68.2224930  47.6205170 120.9190350  76.8656960  45.6266310 122.9674740
  76.5453830  44.9075550 123.5120430  76.1915320  46.3021380 123.0410800
  74.9071130  46.4726760 107.9107890  74.8981230  47.2056450 107.2952400
  73.9869490  46.2258340 108.0034850  80.0810560  35.8592470 118.3311540
  80.4491380  35.0387680 118.6591110  79.2208760  35.9194360 118.7467190
  83.4472590  34.8149410 109.1399100  82.8185750  34.9195080 108.4257330
  82.9524510  35.0346190 109.9292980  77.8930730  46.5355000 106.5733080
  77.9942710  46.3318990 105.6435060  76.9932470  46.2813280 106.7780860
  75.4156620  37.0935360 110.5556980  74.7072770  37.5621700 110.9970590
  75.7001100  36.4357370 111.1902170  77.0412550  38.5132060 118.5549510
  77.5397800  38.9877880 119.2201360  77.1835500  37.5895580 118.7619540
  79.4472050  33.8186020 111.9952770  79.3239830  33.8372150 111.0462280
  80.3956610  33.8664960 112.1151170  76.5348840  49.0541320 111.2680750
  76.7890340  49.0162710 110.3460120  75.5861320  48.9274650 111.2609000
  73.6191640  35.4020440 107.9307690  74.4682170  35.8390590 107.8647880
  73.2522910  35.7140700 108.7579750  84.2479410  34.7300020 119.3977900
  83.7453010  35.4705420 119.7371710  85.0636070  35.1184020 119.0814690
  82.5401420  39.9733200 112.8439260  81.5991560  39.9883430 113.0186950
  82.8545490  39.1869160 113.2899560  71.2129820  39.0877870 107.0876110
  71.2933410  38.1405380 107.1993510  72.1049570  39.4184750 107.1936770
  84.5427000  47.1442050 114.5193520  84.6674420  47.9673220 114.9917330
  85.4092560  46.9332780 114.1717670  72.0144530  49.2373260 114.1910650
  72.7507010  48.6888720 114.4619220  72.3985450  50.1029270 114.0516640
  71.0202810  48.4219330 123.3796230  71.8215540  48.7431380 123.7931630
  70.5054630  48.0614910 124.1016140  75.1246840  48.4103570 106.0136220
  75.9175450  48.6992400 105.5618010  74.6051190  47.9795740 105.3348700
  79.8567440  44.5299200 123.3271640  79.2505600  44.5530800 122.5867390
  79.5521550  43.7982240 123.8638890  81.2867810  48.2579490 121.9381050
  82.2389560  48.1737510 121.8881290  81.1396030  48.9221200 122.6114840
  68.7400620  40.9092790 122.3232280  69.2439640  40.3300070 122.8948510
  68.0008040  41.1933020 122.8608650  75.6424240  43.6306980 105.8778570
  75.5374880  43.0159330 106.6039950  75.4748460  43.1072870 105.0941580
  75.7938560  42.3163780 121.8567800  75.0284230  42.8848780 121.7722470
  75.9754520  42.0239990 120.9636030  82.9361910  44.0469110 122.4142820
  83.6771380  44.3844870 121.9110280  82.1734590  44.2161170 121.8612590
  74.5502090  41.6517930 108.3785860  74.9718510  41.4857800 109.2217250
  74.6752930  40.8418160 107.8841000  77.0629730  40.6755540 105.6262960
  77.5835390  39.9604560 105.2604110  77.7098130  41.3141410 105.9263470
  81.6107570  42.0983940 120.9498030  82.0248590  42.2529020 121.7988450
  80.6758570  42.2239160 121.1123810  76.3722800  42.0504420 118.9193960
  76.7910910  42.8937150 118.7470200  75.4531430  42.1876460 118.6900740
  78.7086700  39.7820600 120.3031800  78.8282910  39.1861740 121.0426640
  79.5680700  39.8190290 119.8833100  81.0474600  40.3357790 118.8794310
  80.5209820  40.8600410 118.2759450  81.3905940  40.9685180 119.5104040
  73.4460990  37.7251160 105.3244020  73.2450050  36.8618520 105.6857360
  73.2753040  37.6384520 104.3865620  74.2230220  48.3557430 120.0351690
  73.6851310  49.0803490 119.7160390  74.4764180  47.8787770 119.2449030
  75.4755470  36.3241950 121.5607620  76.0655160  36.0157800 122.2485440
  74.6575710  35.8521700 121.7167520  80.2948900  35.9407760 121.7940640
  79.6064420  35.2789300 121.7290630  81.0154920  35.4946030 122.2389100
  80.9249300  32.5359390 107.8530900  81.2051590  31.6927290 108.2090320
  80.1515030  32.7682500 108.3669650  77.0792430  49.5908640 120.2938340
  77.0051130  50.4943780 120.6010710  76.1771270  49.2720540 120.2660410
  77.6277760  48.7567150 107.9164700  78.5228550  49.0952120 107.9383460
  77.6595390  48.0346560 107.2888980  68.4819720  46.9183230 113.5971960
  68.8122730  46.0504290 113.3650600  68.9110720  47.1241750 114.4276920
  73.0781640  45.2492240 111.2573930  72.7777180  45.1257210 112.1577840
  72.9719130  44.3900830 110.8489660  68.9709930  47.7853820 116.3353590
  68.5340920  47.9654620 117.1677740  69.5387610  48.5428440 116.1935310
  84.6072110  47.2870820 120.6230900  84.0074100  47.3463380 119.8794820
  84.7366010  46.3475800 120.7527750  68.8034360  40.2974050 112.6942470
  68.1483200  40.0285690 112.0502170  69.6412310  40.1878530 112.2444450
  83.2923750  44.0122800 118.7207060  82.4783590  44.4419960 118.9832850
  83.6997950  44.6241210 118.1076110  81.7524800  35.0915340 106.9160960
  82.1709680  34.9046320 106.0757620  81.4460860  34.2394390 107.2263890
  69.8410290  40.6826620 117.2345810  70.2083330  40.5954020 118.1141830
  69.2721110  39.9193170 117.1352670  84.6414150  39.1511000 120.2476280
  84.4100240  38.9223750 119.3474230  84.9018700  40.0710550 120.2021170
  68.0172440  37.5072980 108.6367800  67.1136520  37.7703180 108.4619460
  68.5013060  37.7784150 107.8567760  84.5265490  38.2296970 113.9144000
  85.0502970  37.7359620 113.2834170  85.1124910  38.3647330 114.6591570
  84.7055210  38.3136840 117.4363550  83.7557920  38.2800380 117.5508540
  84.8868220  39.2236950 117.2013320  70.5599650  36.5638520 106.5462180
  71.2691350  36.1421740 106.0609460  69.8439590  36.6313750 105.9145530
  70.2073810  32.6177850 105.5864830  70.9301940  33.1586790 105.9046050
  70.4798330  32.3441270 104.7106370  84.0165460  37.4870320 109.8536410
  84.5124580  37.2541190 110.6385290  83.8181530  36.6482160 109.4374050
  85.4452620  36.1231270 112.3874090  85.3351900  35.9687310 113.3256360
  86.2060210  35.5952210 112.1449500  83.7918340  32.0625400 118.8457090
  84.4290560  32.6759540 119.2116280  83.9393230  32.0986060 117.9006320
  86.3342890  33.9539190 105.6280230  87.2592200  33.8220370 105.4198520
  86.3118680  34.0332010 106.5816680  86.4081380  34.7249850 108.2536940
  85.6132880  34.6594970 108.7829850  86.6124660  35.6600490 108.2422290
  83.3499800  48.7641400 112.2475330  83.9458870  48.4425970 111.5709750
  83.6077950  48.2913220 113.0388600  71.2562370  45.1959310 122.3965960
  71.2132000  44.8252220 123.2780420  71.3873380  46.1336880 122.5367780
  74.9568400  46.7518900 117.9975680  74.7159760  47.0193460 117.1106200
  75.8971040  46.9224630 118.0526540  77.1622820  33.2151590 121.7532190
  77.1011710  33.8073420 122.5027600  78.1023200  33.1077550 121.6082450
  79.7997380  32.8721650 121.3924480  80.4137790  33.1900940 120.7305560
  80.3446940  32.3870240 122.0120340  71.0950400  48.1421560 119.5163740
  70.5010720  48.0106260 120.2553780  71.0874240  47.3059700 119.0505840
  80.5405420  31.4353790 117.7193770  79.6665260  31.7688900 117.5166700
  80.4316170  30.9626970 118.5445640  81.4477400  33.6424660 119.1035490
  81.1190760  32.8276420 118.7237220  82.3959700  33.5994470 118.9801180
  83.9012010  49.4136700 116.0773060  83.4414980  50.1652510 115.7031080
  83.2724470  48.6943170 116.0187860  70.7262630  45.5079940 118.4671780
  69.9996690  44.8885230 118.3997730  70.7871780  45.9020550 117.5969860
  74.3307730  47.7224940 115.2521190  74.8472750  47.1112300 114.7269450
  74.9805110  48.2253720 115.7432200  77.0703230  48.6133430 116.0790170
  77.3581040  48.3587730 115.2023180  77.5826450  48.0610790 116.6695740
  78.2880240  32.3523630 116.6586680  77.5052030  32.8269130 116.9383440
  77.9943170  31.4478460 116.5499860  82.8401310  33.0546730 114.7035770
  83.2809400  32.9991830 113.8557370  82.5708900  33.9704740 114.7745950
  84.7039880  32.6861970 112.7144590  84.6428280  31.7423190 112.5675610
  85.4831910  32.7942060 113.2598050  69.0092630  48.8254330 111.6768540
  68.8414670  48.1925010 112.3750430  68.1427140  49.0313730 111.3262730
  76.1734460  34.7710380 112.1702710  75.3608970  34.3967270 111.8298590
  76.6776100  34.0155460 112.4723900  80.6759440  31.4352830 113.4085780
  81.2788810  32.0073040 113.8834300  79.9352430  31.9992270 113.1859680
  83.8194040  31.8374390 108.6826060  84.0144670  32.7357840 108.9493490
  83.0323910  31.6061470 109.1759010  77.1375590  49.5349530 123.4458370
  78.0642900  49.2993800 123.4894330  77.1226020  50.3621530 122.9644400
  85.3720650  49.0775100 110.4432620  85.5472840  48.3912840 109.7993540
  84.6742220  49.6022150 110.0509290  73.2148300  49.4669940 107.9967930
  73.9467120  49.1829220 107.4491820  73.4741970  49.2283220 108.8867310
  80.9254660  31.6147860 123.7880720  80.8120110  31.9342470 124.6832240
  81.7424400  32.0160370 123.4918000  83.7053150  48.7619390 123.2699410
  84.4978470  48.2668620 123.0625370  83.9986300  49.4409530 123.8775020
  81.9838280  45.8179540  94.8123860  81.5219810  45.0466780  95.1411030
  82.7963830  45.8445610  95.3176310  68.3521640  39.2846700  96.5782580
  68.9237750  38.5168900  96.5786220  68.3523180  39.5835460  95.6689190
  78.2101590  48.1037550  94.4327850  77.5913030  48.5595050  93.8622290
  79.0653370  48.2589010  94.0317550  69.5946510  34.6931060  98.3651510
  69.4149350  33.7956810  98.6454270  69.1926590  35.2402930  99.0398460
  78.4345010  36.8946920  96.2663820  78.8109830  36.0218800  96.1537490
  78.3364520  37.2305620  95.3754260  82.2169130  34.3897360  93.1992160
  83.0378750  33.8993930  93.2417640  82.2503210  34.9795020  93.9524000
  70.2133180  37.1891560  96.9733850  70.8943290  37.4529930  97.5921250
  69.8981230  36.3492430  97.3071860  74.4057750  38.2358920  96.0606440
  74.9135970  38.7339890  96.7011460  74.9370990  37.4594120  95.8845800
  86.5068680  36.4064110  99.7635790  85.8020850  36.7945820  99.2450900
  86.7726600  37.1014400 100.3656720  73.9396700  42.5152660  98.5043360
  73.6066080  43.1421580  99.1464430  74.1163380  43.0414540  97.7245030
  82.4530610  36.3297740  95.9719700  81.7486180  36.6182630  96.5522810
  82.8142770  37.1397850  95.6119260  72.3709180  34.5867440  98.3340310
  72.7125990  35.4309490  98.0394180  71.4324990  34.7351180  98.4505650
  73.1515800  44.4833460 100.3192540  73.7689800  45.1584540 100.0376990
  72.2908920  44.8921440 100.2280040  85.5217530  35.7752530  96.3628910
  84.5742440  35.8091510  96.4944340  85.8467520  36.5891480  96.7478270
  76.0537070  32.0749710  94.6584900  76.3612050  31.5196600  93.9420400
  75.1237770  32.2094170  94.4757890  81.6052130  47.7917000  96.9492360
  81.6179290  47.3879290  96.0814620  81.0527350  48.5664290  96.8453790
  81.0037570  42.6946840  98.2774970  81.4206360  42.4806950  97.4428430
  81.7277390  42.9519630  98.8483590  78.4286910  36.4115540  88.3912180
  77.4890580  36.5729500  88.4764640  78.7470170  37.1301220  87.8448170
  84.9499670  41.0934060  98.3691210  84.1218300  41.1627150  97.8941340
  85.5450150  41.6788370  97.9007040  81.9141680  37.8803380  99.3146080
  81.5012860  38.7057090  99.5686070  81.1817630  37.2948420  99.1222440
  72.7603090  37.4406490  97.9563790  73.3117680  37.5501830  97.1817040
  73.2746600  37.8144090  98.6719020  72.4345820  40.9625850 101.5669130
  72.2953590  41.8348650 101.9356530  71.5527180  40.6198660 101.4217070
  84.2296960  32.1948460  87.2194060  83.9169620  32.2875290  88.1193130
  84.9909430  32.7729490  87.1691490  70.7479100  39.5608260  91.6771400
  70.6276700  40.2870350  91.0652670  70.4379990  38.7911170  91.1999310
  79.4490980  48.5815500 100.8013270  79.9635650  48.4923510 101.6035700
  78.6060060  48.9275200 101.0941180  81.4245380  48.8670840  90.2297270
  81.2646520  48.5773780  91.1279100  81.2592090  48.0910970  89.6942500
  80.6921440  48.0021110  92.8643760  81.1478390  47.2210490  93.1782380
  81.0313960  48.7127930  93.4084940  85.4398250  36.9319960 103.1968200
  84.8242520  37.4399630 102.6683660  85.1194670  36.0318290 103.1394140
  82.5017080  36.9920800 101.7927050  81.6510670  36.6926550 102.1136120
  82.3418870  37.2362810 100.8810870  76.3301580  32.5254030  89.9400900
  75.7055760  32.5213900  90.6654210  76.2431700  31.6584990  89.5436870
  75.2518660  33.4490660  96.9184670  75.5490990  34.3553490  96.8376690
  75.8004220  32.9609440  96.3044240  73.0056980  38.0276900  92.7876320
  72.7797900  37.8114070  93.6922940  72.2249510  38.4605360  92.4422290
  80.2354740  38.0340270  91.3866970  79.6363630  38.7576070  91.2030590
  80.7834350  37.9717050  90.6043420  75.4456190  38.9262480 103.4536590
  75.3499790  37.9857210 103.3036990  76.2888170  39.1477550 103.0584660
  78.8419610  36.6703810  93.4170250  79.2349180  36.9876010  92.6038940
  79.2036460  35.7915690  93.5314770  70.5766730  35.3376150 101.6070370
  70.1830120  36.1851360 101.8143150  69.8885130  34.7002520 101.7979010
  79.4274750  39.2609560  97.5121030  78.6955870  39.7696370  97.8611130
  79.0299090  38.4439540  97.2109810  75.8652140  35.9363760  95.9173520
  75.8688200  35.4953710  95.0678060  76.7603260  36.2581090  96.0245340
  75.9272290  36.9375840  88.9080280  76.0485110  36.8962320  89.8566100
  75.5420800  37.7999990  88.7527010  79.8900660  34.7143240  96.9243970
  79.9073400  35.1651890  97.7685820  79.6416240  33.8148880  97.1377410
  74.9393790  39.2476980  88.3063580  74.3710690  38.7995230  87.6799490
  75.6482790  39.6069760  87.7728730  76.1660110  39.9965540  97.6638930
  76.5330240  39.5224110  98.4100270  75.9765170  40.8707110  98.0047270
  73.9559480  39.0374180  99.9823140  73.6516550  39.9166160 100.2073500
  74.9105940  39.0973970 100.0180580  83.2429250  42.2400530  96.3716380
  83.9628370  42.7355820  95.9812490  83.0411070  41.5618420  95.7270250
  78.7039190  33.6338490  90.5145770  77.8903800  33.1351660  90.4391080
  78.5101140  34.4736740  90.0982120  81.4187580  38.0058140  88.8107930
  82.3067200  38.3175370  88.6359270  81.3892670  37.1330390  88.4188510
  70.0123210  39.8776920 101.1294500  69.6538150  40.5430770 101.7167840
  69.7177770  39.0460470 101.5007120  73.2136330  40.3361160 104.0134050
  72.9136470  40.4818340 103.1161870  73.9847570  39.7766450 103.9207440
  83.6901850  39.3169980  88.2787790  83.6065570  39.7484200  87.4284230
  84.4096040  39.7768330  88.7114610  84.7189100  46.1712240  91.0069920
  84.0765260  45.5167860  91.2813640  84.3319760  46.5767330  90.2310590
  77.9898680  46.7747730  99.1029680  78.6340900  46.9807110  99.7803100
  78.3528120  46.0136130  98.6500530  79.2630760  44.7780080  97.8207130
  79.9052990  44.0773240  97.9339300  79.7880110  45.5578520  97.6404020
  83.1086480  45.0628700  87.5446270  82.8824060  44.3459140  88.1370910
  82.7182680  44.8141140  86.7068020  68.5871780  33.3670160 101.8066600
  67.8730300  33.5667080 102.4119210  69.0066820  32.5909730 102.1781400
  80.0810560  35.8592470  99.5568050  80.4491380  35.0387680  99.8847620
  79.2208760  35.9194360  99.9723700  75.4156620  37.0935360  91.7813490
  74.7072770  37.5621700  92.2227100  75.7001100  36.4357370  92.4158680
  77.0412550  38.5132060  99.7806020  77.5397800  38.9877880 100.4457870
  77.1835500  37.5895580  99.9876050  79.4472050  33.8186020  93.2209280
  79.3239830  33.8372150  92.2718790  80.3956610  33.8664960  93.3407680
  76.5348840  49.0541320  92.4937260  76.7890340  49.0162710  91.5716630
  75.5861320  48.9274650  92.4865510  73.6191640  35.4020440  89.1564200
  74.4682170  35.8390590  89.0904390  73.2522910  35.7140700  89.9836260
  84.2479410  34.7300020 100.6234410  83.7453010  35.4705420 100.9628220
  85.0636070  35.1184020 100.3071200  82.5401420  39.9733200  94.0695770
  81.5991560  39.9883430  94.2443460  82.8545490  39.1869160  94.5156070
  84.1777010  47.6373700  88.6629470  83.8918520  47.2238840  87.8483650
  83.9796560  48.5661410  88.5429990  75.7938560  42.3163780 103.0824310
  75.0284230  42.8848780 102.9978980  75.9754520  42.0239990 102.1892540
  70.7723700  39.0522380 104.4438860  70.8129040  38.7536250 105.3524090
  71.6269200  39.4529990 104.2846380  72.7129510  37.6314480 102.4113350
  72.1825970  37.1405430 101.7836690  73.3817580  38.0598680 101.8771280
  76.3722800  42.0504420 100.1450470  76.7910910  42.8937150  99.9726710
  75.4531430  42.1876460  99.9157250  73.4460990  37.7251160  86.5500530
  73.2450050  36.8618520  86.9113870  73.2753040  37.6384520  85.6122130
  74.2230220  48.3557430 101.2608200  73.6851310  49.0803490 100.9416900
  74.4764180  47.8787770 100.4705540  80.2948900  35.9407760 103.0197150
  79.6064420  35.2789300 102.9547140  81.0154920  35.4946030 103.4645610
  80.9249300  32.5359390  89.0787410  81.2051590  31.6927290  89.4346830
  80.1515030  32.7682500  89.5926160  72.2443790  34.8251780  86.5378410
  72.5469690  34.8319210  85.6297560  72.9838380  34.4749640  87.0346070
  77.0792430  49.5908640 101.5194850  77.0051130  50.4943780 101.8267220
  76.1771270  49.2720540 101.4916920  75.4628720  33.7686400  87.5234610
  75.1150720  33.0910390  86.9437060  75.6641490  33.3075910  88.3378000
  85.8473560  45.0288640  87.1857120  85.0166520  45.0965290  87.6564350
  86.0245390  45.9192760  86.8823980  85.3030020  41.7736120  89.6891320
  86.0648930  42.3432770  89.7951010  85.3184390  41.2063320  90.4599630
  86.3089990  42.6286220  94.5333250  86.6798820  41.8453540  94.1269220
  86.9491920  43.3175320  94.3550550  85.3549190  42.0670490  86.8463840
  85.6298030  42.9749370  86.7183060  85.1659930  42.0033020  87.7825830
  81.7524800  35.0915340  88.1417470  82.1709680  34.9046320  87.3014130
  81.4460860  34.2394390  88.4520400  85.2514530  40.0039480  91.8393270
  84.8758130  39.2367410  91.4074560  84.5217650  40.3862180  92.3268200
  69.8410290  40.6826620  98.4602320  70.2083330  40.5954020  99.3398340
  69.2721110  39.9193170  98.3609180  84.6414150  39.1511000 101.4732790
  84.4100240  38.9223750 100.5730740  84.9018700  40.0710550 101.4277680
  69.3926290  37.5935710 102.3660740  68.4982340  37.5602470 102.7054450
  69.9323840  37.7922500 103.1311990  83.0802220  34.3767430 104.2512490
  83.9572400  34.3850830 104.6346490  83.0923060  33.6398270 103.6404840
  68.0172440  37.5072980  89.8624310  67.1136520  37.7703180  89.6875970
  68.5013060  37.7784150  89.0824270  84.5265490  38.2296970  95.1400510
  85.0502970  37.7359620  94.5090680  85.1124910  38.3647330  95.8848080
  84.7055210  38.3136840  98.6620060  83.7557920  38.2800380  98.7765050
  84.8868220  39.2236950  98.4269830  70.5599650  36.5638520  87.7718690
  71.2691350  36.1421740  87.2865970  69.8439590  36.6313750  87.1402040
  84.0165460  37.4870320  91.0792920  84.5124580  37.2541190  91.8641800
  83.8181530  36.6482160  90.6630560  69.8966000  31.8684040  96.7143960
  70.5442190  31.3181420  96.2739120  70.3167840  32.1227190  97.5359770
  85.4452620  36.1231270  93.6130600  85.3351900  35.9687310  94.5512870
  86.2060210  35.5952210  93.3706010  83.3499800  48.7641400  93.4731840
  83.9458870  48.4425970  92.7966260  83.6077950  48.2913220  94.2645110
  69.6498000  32.0239710  99.4569280  69.3012820  32.4803530 100.2227460
  69.3185700  31.1296840  99.5391710  74.9568400  46.7518900  99.2232190
  74.7159760  47.0193460  98.3362710  75.8971040  46.9224630  99.2783050
  70.3218640  31.5515910 102.7320050  70.8701630  31.3703960 101.9686160
  70.3873950  30.7610020 103.2676360  71.0950400  48.1421560 100.7420250
  70.5010720  48.0106260 101.4810290  71.0874240  47.3059700 100.2762350
  70.7262630  45.5079940  99.6928290  69.9996690  44.8885230  99.6254240
  70.7871780  45.9020550  98.8226370  77.0703230  48.6133430  97.3046680
  77.3581040  48.3587730  96.4279690  77.5826450  48.0610790  97.8952250
  78.2880240  32.3523630  97.8843190  77.5052030  32.8269130  98.1639950
  77.9943170  31.4478460  97.7756370  82.8401310  33.0546730  95.9292280
  83.2809400  32.9991830  95.0813880  82.5708900  33.9704740  96.0002460
  84.7039880  32.6861970  93.9401100  84.6428280  31.7423190  93.7932120
  85.4831910  32.7942060  94.4854560  76.1734460  34.7710380  93.3959220
  75.3608970  34.3967270  93.0555100  76.6776100  34.0155460  93.6980410
  80.6759440  31.4352830  94.6342290  81.2788810  32.0073040  95.1090810
  79.9352430  31.9992270  94.4116190  83.8194040  31.8374390  89.9082570
  84.0144670  32.7357840  90.1750000  83.0323910  31.6061470  90.4015520
  74.1983640  32.9210300  92.0004270  73.5686380  32.2197610  92.1674400
  73.6588780  33.6814430  91.7837430  77.1375590  49.5349530 104.6714880
  78.0642900  49.2993800 104.7150840  77.1226020  50.3621530 104.1900910
  85.3720650  49.0775100  91.6689130  85.5472840  48.3912840  91.0250050
  84.6742220  49.6022150  91.2765800  80.9254660  31.6147860 105.0137230
  80.8120110  31.9342470 105.9088750  81.7424400  32.0160370 104.7174510
  78.4345010  36.8946920  77.4920330  78.8109830  36.0218800  77.3794000
  78.3364520  37.2305620  76.6010770  72.5650020  35.2672550  72.9537770
  72.6716770  36.1676280  73.2606530  71.6542380  35.2190520  72.6632420
  82.2169130  34.3897360  74.4248670  83.0378750  33.8993930  74.4674150
  82.2503210  34.9795020  75.1780510  74.4057750  38.2358920  77.2862950
  74.9135970  38.7339890  77.9267970  74.9370990  37.4594120  77.1102310
  82.4530610  36.3297740  77.1976210  81.7486180  36.6182630  77.7779320
  82.8142770  37.1397850  76.8375770  68.4448140  43.6733320  70.4255900
  68.0676120  44.1620420  69.6940800  68.7021210  44.3458600  71.0562430
  74.0474470  40.6663280  75.4021260  73.6431470  39.9540530  74.9067160
  74.1337590  40.3216520  76.2909300  74.5156170  44.3530840  77.5660470
  74.2184460  43.7476310  76.8868250  75.4655990  44.3908150  77.4549830
  84.2296960  32.1948460  68.4450570  83.9169620  32.2875290  69.3449640
  84.9909430  32.7729490  68.3948000  70.7479100  39.5608260  72.9027910
  70.6276700  40.2870350  72.2909180  70.4379990  38.7911170  72.4255820
  69.6312100  44.4323590  75.1202730  69.2240180  44.5738180  74.2656330
  70.5225110  44.1483750  74.9173940  85.4398250  36.9319960  84.4224710
  84.8242520  37.4399630  83.8940170  85.1194670  36.0318290  84.3650650
  77.5012570  35.7711850  81.8886900  77.0391940  35.9794870  82.7006840
  77.0990680  34.9571200  81.5857570  82.5017080  36.9920800  83.0183560
  81.6510670  36.6926550  83.3392630  82.3418870  37.2362810  82.1067380
  79.5966790  38.4922550  85.1182350  79.9220200  37.6586300  84.7784580
  80.3847120  39.0151070  85.2660680  75.2518660  33.4490660  78.1441180
  75.5490990  34.3553490  78.0633200  75.8004220  32.9609440  77.5300750
  73.0056980  38.0276900  74.0132830  72.7797900  37.8114070  74.9179450
  72.2249510  38.4605360  73.6678800  75.4456190  38.9262480  84.6793100
  75.3499790  37.9857210  84.5293500  76.2888170  39.1477550  84.2841170
  78.8419610  36.6703810  74.6426760  79.2349180  36.9876010  73.8295450
  79.2036460  35.7915690  74.7571280  77.1511780  35.4211120  85.9023620
  76.4610100  35.2283320  86.5369710  77.8944080  35.7045760  86.4347920
  75.8652140  35.9363760  77.1430030  75.8688200  35.4953710  76.2934570
  76.7603260  36.2581090  77.2501850  79.8900660  34.7143240  78.1500480
  79.9073400  35.1651890  78.9942330  79.6416240  33.8148880  78.3633920
  76.1660110  39.9965540  78.8895440  76.5330240  39.5224110  79.6356780
  75.9765170  40.8707110  79.2303780  69.0300600  34.7409230  75.0188910
  68.7447520  34.3764900  75.8567530  68.9679460  34.0089690  74.4052050
  73.9559480  39.0374180  81.2079650  73.6516550  39.9166160  81.4330010
  74.9105940  39.0973970  81.2437090  72.5278670  42.9115550  75.4425310
  73.0457340  42.1083810  75.3882200  72.0762690  42.8494690  76.2842140
  84.7675990  41.7737500  82.5814270  84.0424180  42.3666280  82.3843660
  85.2951450  41.7661040  81.7827640  68.5231260  39.8768180  68.9785610
  69.3926110  40.1592980  69.2621530  68.0321580  40.6904050  68.8634420
  76.8656960  45.6266310  85.4187760  76.5453830  44.9075550  85.9633450
  76.1915320  46.3021380  85.4923820  70.5077770  41.6941650  71.1067670
  69.9005720  42.4340550  71.1162970  70.9827120  41.7841010  70.2805870
  80.0810560  35.8592470  80.7824560  80.4491380  35.0387680  81.1104130
  79.2208760  35.9194360  81.1980210  83.4472590  34.8149410  71.5912120
  82.8185750  34.9195080  70.8770350  82.9524510  35.0346190  72.3806000
  84.2479410  34.7300020  81.8490920  83.7453010  35.4705420  82.1884730
  85.0636070  35.1184020  81.5327710  72.5183060  41.6552800  68.8556240
  73.2846330  41.5434160  69.4181670  72.5957750  40.9590770  68.2033010
  71.2129820  39.0877870  69.5389130  71.2933410  38.1405380  69.6506530
  72.1049570  39.4184750  69.6449790  68.8990010  45.3046830  72.5165180
  67.9729790  45.5467970  72.5070590  69.3646440  46.1321090  72.3949930
  79.8567440  44.5299200  85.7784660  79.2505600  44.5530800  85.0380410
  79.5521550  43.7982240  86.3151910  75.7938560  42.3163780  84.3080820
  75.0284230  42.8848780  84.2235490  75.9754520  42.0239990  83.4149050
  82.9361910  44.0469110  84.8655840  83.6771380  44.3844870  84.3623300
  82.1734590  44.2161170  84.3125610  72.7129510  37.6314480  83.6369860
  72.1825970  37.1405430  83.0093200  73.3817580  38.0598680  83.1027790
  82.0829740  39.4380100  85.4050200  82.6650510  38.6832420  85.3170680
  82.2591510  39.9687540  84.6281680  73.2001810  34.5976850  83.7167150
  73.1058680  33.9797600  82.9918020  72.6199200  35.3243140  83.4897060
  75.9663250  33.1550090  80.7494540  75.5180550  33.1774350  79.9040090
  75.3328450  32.7569110  81.3464840  75.4755470  36.3241950  84.0120640
  76.0655160  36.0157800  84.6998460  74.6575710  35.8521700  84.1680540
  80.2948900  35.9407760  84.2453660  79.6064420  35.2789300  84.1803650
  81.0154920  35.4946030  84.6902120  68.4819720  46.9183230  76.0484980
  68.8122730  46.0504290  75.8163620  68.9110720  47.1241750  76.8789940
  68.8034360  40.2974050  75.1455490  68.1483200  40.0285690  74.5015190
  69.6412310  40.1878530  74.6957470  84.6414150  39.1511000  82.6989300
  84.4100240  38.9223750  81.7987250  84.9018700  40.0710550  82.6534190
  83.0802220  34.3767430  85.4769000  83.9572400  34.3850830  85.8603000
  83.0923060  33.6398270  84.8661350  68.0172440  37.5072980  71.0880820
  67.1136520  37.7703180  70.9132480  68.5013060  37.7784150  70.3080780
  84.5265490  38.2296970  76.3657020  85.0502970  37.7359620  75.7347190
  85.1124910  38.3647330  77.1104590  84.7055210  38.3136840  79.8876570
  83.7557920  38.2800380  80.0021560  84.8868220  39.2236950  79.6526340
  85.4452620  36.1231270  74.8387110  85.3351900  35.9687310  75.7769380
  86.2060210  35.5952210  74.5962520  77.1622820  33.2151590  84.2045210
  77.1011710  33.8073420  84.9540620  78.1023200  33.1077550  84.0595470
  79.7997380  32.8721650  83.8437500  80.4137790  33.1900940  83.1818580
  80.3446940  32.3870240  84.4633360  80.5405420  31.4353790  80.1706790
  79.6665260  31.7688900  79.9679720  80.4316170  30.9626970  80.9958660
  81.4477400  33.6424660  81.5548510  81.1190760  32.8276420  81.1750240
  82.3959700  33.5994470  81.4314200  78.2880240  32.3523630  79.1099700
  77.5052030  32.8269130  79.3896460  77.9943170  31.4478460  79.0012880
  82.8401310  33.0546730  77.1548790  83.2809400  32.9991830  76.3070390
  82.5708900  33.9704740  77.2258970  80.6759440  31.4352830  75.8598800
  81.2788810  32.0073040  76.3347320  79.9352430  31.9992270  75.6372700
  83.8194040  31.8374390  71.1339080  84.0144670  32.7357840  71.4006510
  83.0323910  31.6061470  71.6272030  80.9254660  31.6147860  86.2393740
  80.8120110  31.9342470  87.1345260  81.7424400  32.0160370  85.9431020
  83.7053150  48.7619390  85.7212430  84.4978470  48.2668620  85.5138390
  83.9986300  49.4409530  86.3288040  68.3521640  39.2846700  59.0295600
  68.9237750  38.5168900  59.0299240  68.3523180  39.5835460  58.1202210
  69.5946510  34.6931060  60.8164530  69.4149350  33.7956810  61.0967290
  69.1926590  35.2402930  61.4911480  72.5650020  35.2672550  54.1794280
  72.6716770  36.1676280  54.4863040  71.6542380  35.2190520  53.8888930
  70.2133180  37.1891560  59.4246870  70.8943290  37.4529930  60.0434270
  69.8981230  36.3492430  59.7584880  72.3709180  34.5867440  60.7853330
  72.7125990  35.4309490  60.4907200  71.4324990  34.7351180  60.9018670
  76.0537070  32.0749710  57.1097920  76.3612050  31.5196600  56.3933420
  75.1237770  32.2094170  56.9270910  78.4286910  36.4115540  50.8425200
  77.4890580  36.5729500  50.9277660  78.7470170  37.1301220  50.2961190
  80.6479820  40.9405650  51.3566040  81.0873100  40.1028080  51.2103860
  81.3608240  41.5735050  51.4430180  70.7479100  39.5608260  54.1284420
  70.6276700  40.2870350  53.5165690  70.4379990  38.7911170  53.6512330
  68.3864470  42.7323400  59.9353060  68.4644890  42.8672170  58.9908780
  69.0006150  42.0239290  60.1281180  73.2142760  32.9043330  57.5108090
  72.7710910  33.6852870  57.1792610  73.7727750  33.2273220  58.2179030
  76.3301580  32.5254030  52.3913920  75.7055760  32.5213900  53.1167230
  76.2431700  31.6584990  51.9949890  75.2518660  33.4490660  59.3697690
  75.5490990  34.3553490  59.2889710  75.8004220  32.9609440  58.7557260
  80.2354740  38.0340270  53.8379990  79.6363630  38.7576070  53.6543610
  80.7834350  37.9717050  53.0556440  78.8419610  36.6703810  55.8683270
  79.2349180  36.9876010  55.0551960  79.2036460  35.7915690  55.9827790
  67.8783780  33.2604610  58.0913470  67.5896830  33.8307470  58.8038450
  68.6229540  32.7809060  58.4544700  71.7154520  35.8190250  57.3280750
  71.3754570  36.2965480  58.0847800  70.9531840  35.3655370  56.9681850
  75.9272290  36.9375840  51.3593300  76.0485110  36.8962320  52.3079120
  75.5420800  37.7999990  51.2040030  83.3171410  32.1275420  65.2143370
  83.6417180  31.3965080  65.7401350  83.3527920  31.8089060  64.3124360
  69.0300600  34.7409230  56.2445420  68.7447520  34.3764900  57.0824040
  68.9679460  34.0089690  55.6308560  78.7039190  33.6338490  52.9658790
  77.8903800  33.1351660  52.8904100  78.5101140  34.4736740  52.5495140
  81.4187580  38.0058140  51.2620950  82.3067200  38.3175370  51.0872290
  81.3892670  37.1330390  50.8701530  83.6901850  39.3169980  50.7300810
  83.6065570  39.7484200  49.8797250  84.4096040  39.7768330  51.1627630
  71.5877850  31.6079040  54.7972920  71.4592480  31.5996940  55.7457840
  70.7639870  31.9462130  54.4463930  83.1086480  45.0628700  49.9959290
  82.8824060  44.3459140  50.5883930  82.7182680  44.8141140  49.1581040
  75.4156620  37.0935360  54.2326510  74.7072770  37.5621700  54.6740120
  75.7001100  36.4357370  54.8671700  79.4472050  33.8186020  55.6722300
  79.3239830  33.8372150  54.7231810  80.3956610  33.8664960  55.7920700
  73.6191640  35.4020440  51.6077220  74.4682170  35.8390590  51.5417410
  73.2522910  35.7140700  52.4349280  68.7400620  40.9092790  66.0001810
  69.2439640  40.3300070  66.5718040  68.0008040  41.1933020  66.5378180
  70.7723700  39.0522380  66.8951880  70.8129040  38.7536250  67.8037110
  71.6269200  39.4529990  66.7359400  80.2948900  35.9407760  65.4710170
  79.6064420  35.2789300  65.4060160  81.0154920  35.4946030  65.9158630
  75.4628720  33.7686400  49.9747630  75.1150720  33.0910390  49.3950080
  75.6641490  33.3075910  50.7891020  68.8034360  40.2974050  56.3712000
  68.1483200  40.0285690  55.7271700  69.6412310  40.1878530  55.9213980
  85.3549190  42.0670490  49.2976860  85.6298030  42.9749370  49.1696080
  85.1659930  42.0033020  50.2338850  81.7524800  35.0915340  50.5930490
  82.1709680  34.9046320  49.7527150  81.4460860  34.2394390  50.9033420
  69.3926290  37.5935710  64.8173760  68.4982340  37.5602470  65.1567470
  69.9323840  37.7922500  65.5825010  83.0802220  34.3767430  66.7025510
  83.9572400  34.3850830  67.0859510  83.0923060  33.6398270  66.0917860
  84.0165460  37.4870320  53.5305940  84.5124580  37.2541190  54.3154820
  83.8181530  36.6482160  53.1143580  69.8966000  31.8684040  59.1656980
  70.5442190  31.3181420  58.7252140  70.3167840  32.1227190  59.9872790
  85.4452620  36.1231270  56.0643620  85.3351900  35.9687310  57.0025890
  86.2060210  35.5952210  55.8219030  86.3342890  33.9539190  49.3049760
  87.2592200  33.8220370  49.0968050  86.3118680  34.0332010  50.2586210
  69.6498000  32.0239710  61.9082300  69.3012820  32.4803530  62.6740480
  69.3185700  31.1296840  61.9904730  79.7997380  32.8721650  65.0694010
  80.4137790  33.1900940  64.4075090  80.3446940  32.3870240  65.6889870
  80.5405420  31.4353790  61.3963300  79.6665260  31.7688900  61.1936230
  80.4316170  30.9626970  62.2215170  81.4477400  33.6424660  62.7805020
  81.1190760  32.8276420  62.4006750  82.3959700  33.5994470  62.6570710
  78.2880240  32.3523630  60.3356210  77.5052030  32.8269130  60.6152970
  77.9943170  31.4478460  60.2269390  76.1734460  34.7710380  55.8472240
  75.3608970  34.3967270  55.5068120  76.6776100  34.0155460  56.1493430
  74.1983640  32.9210300  54.4517290  73.5686380  32.2197610  54.6187420
  73.6588780  33.6814430  54.2350450  80.9254660  31.6147860  67.4650250
  80.8120110  31.9342470  68.3601770  81.7424400  32.0160370  67.1687530
  71.9597940  45.7579250  40.7828040  72.2625980  44.8676990  40.6038260
  72.7041530  46.3149470  40.5550290  70.3888630  36.6841050  34.3712410
  69.5005330  37.0257020  34.2692290  70.6729820  36.4841370  33.4793240
  68.3521640  39.2846700  40.2552110  68.9237750  38.5168900  40.2555750
  68.3523180  39.5835460  39.3458720  72.5650020  35.2672550  35.4050790
  72.6716770  36.1676280  35.7119550  71.6542380  35.2190520  35.1145440
  82.2169130  34.3897360  36.8761690  83.0378750  33.8993930  36.9187170
  82.2503210  34.9795020  37.6293530  70.2133180  37.1891560  40.6503380
  70.8943290  37.4529930  41.2690780  69.8981230  36.3492430  40.9841390
  73.1515800  44.4833460  43.9962070  73.7689800  45.1584540  43.7146520
  72.2908920  44.8921440  43.9049570  68.4448140  43.6733320  32.8768920
  68.0676120  44.1620420  32.1453820  68.7021210  44.3458600  33.5075450
  84.0693390  45.9472870  41.9116710  83.3856910  46.6171980  41.9033380
  84.6087680  46.1453520  41.1461570  76.0537070  32.0749710  38.3354430
  76.3612050  31.5196600  37.6189930  75.1237770  32.2094170  38.1527420
  78.4286910  36.4115540  32.0681710  77.4890580  36.5729500  32.1534170
  78.7470170  37.1301220  31.5217700  74.2326170  46.9047550  47.4523810
  74.2041600  47.3090500  46.5852240  74.0691140  45.9757910  47.2895410
  84.2296960  32.1948460  30.8963590  83.9169620  32.2875290  31.7962660
  84.9909430  32.7729490  30.8461020  70.7479100  39.5608260  35.3540930
  70.6276700  40.2870350  34.7422200  70.4379990  38.7911170  34.8768840
  68.3864470  42.7323400  41.1609570  68.4644890  42.8672170  40.2165290
  69.0006150  42.0239290  41.3537690  69.6312100  44.4323590  37.5715750
  69.2240180  44.5738180  36.7169350  70.5225110  44.1483750  37.3686960
  81.4245380  48.8670840  33.9066800  81.2646520  48.5773780  34.8048630
  81.2592090  48.0910970  33.3712030  81.1271510  46.3758400  32.4664800
  80.4336670  46.3735690  31.8067080  81.8694370  45.9517720  32.0358970
  68.4423990  43.7737570  43.7004030  68.6055030  43.3042930  42.8823400
  68.9076440  43.2661130  44.3652870  76.3301580  32.5254030  33.6170430
  75.7055760  32.5213900  34.3423740  76.2431700  31.6584990  33.2206400
  73.0056980  38.0276900  36.4645850  72.7797900  37.8114070  37.3692470
  72.2249510  38.4605360  36.1191820  80.2354740  38.0340270  35.0636500
  79.6363630  38.7576070  34.8800120  80.7834350  37.9717050  34.2812950
  77.1511780  35.4211120  48.3536640  76.4610100  35.2283320  48.9882730
  77.8944080  35.7045760  48.8860940  67.8783780  33.2604610  39.3169980
  67.5896830  33.8307470  40.0294960  68.6229540  32.7809060  39.6801210
  68.0654010  37.2024730  30.5272700  67.9828680  38.1455490  30.6687690
  67.7137070  37.0599640  29.6485050  71.7154520  35.8190250  38.5537260
  71.3754570  36.2965480  39.3104310  70.9531840  35.3655370  38.1938360
  75.9272290  36.9375840  32.5849810  76.0485110  36.8962320  33.5335630
  75.5420800  37.7999990  32.4296540  83.3171410  32.1275420  46.4399880
  83.6417180  31.3965080  46.9657860  83.3527920  31.8089060  45.5380870
  69.0300600  34.7409230  37.4701930  68.7447520  34.3764900  38.3080550
  68.9679460  34.0089690  36.8565070  78.7039190  33.6338490  34.1915300
  77.8903800  33.1351660  34.1160610  78.5101140  34.4736740  33.7751650
  81.4187580  38.0058140  32.4877460  82.3067200  38.3175370  32.3128800
  81.3892670  37.1330390  32.0958040  72.5278670  42.9115550  37.8938330
  73.0457340  42.1083810  37.8395220  72.0762690  42.8494690  38.7355160
  83.6901850  39.3169980  31.9557320  83.6065570  39.7484200  31.1053760
  84.4096040  39.7768330  32.3884140  84.7675990  41.7737500  45.0327290
  84.0424180  42.3666280  44.8356680  85.2951450  41.7661040  44.2340660
  76.3838860  44.2595360  35.9381550  77.0709990  44.8064570  36.3189140
  75.5971280  44.8036090  35.9731160  68.5231260  39.8768180  31.4298630
  69.3926110  40.1592980  31.7134550  68.0321580  40.6904050  31.3147440
  75.6866070  41.2641390  35.5506910  76.1428850  42.0746640  35.7767100
  75.3354280  40.9464530  36.3825400  71.5877850  31.6079040  36.0229430
  71.4592480  31.5996940  36.9714350  70.7639870  31.9462130  35.6720440
  83.1086480  45.0628700  31.2215800  82.8824060  44.3459140  31.8140440
  82.7182680  44.8141140  30.3837550  81.0368380  45.5774980  44.7012720
  81.3724620  46.1641670  45.3790640  80.1168720  45.4467690  44.9310510
  68.8744370  47.3550420  46.4702660  68.9835490  46.4145160  46.3298050
  68.2224930  47.6205170  45.8216390  70.5077770  41.6941650  33.5580690
  69.9005720  42.4340550  33.5675990  70.9827120  41.7841010  32.7318890
  83.4472590  34.8149410  34.0425140  82.8185750  34.9195080  33.3283370
  82.9524510  35.0346190  34.8319020  75.4156620  37.0935360  35.4583020
  74.7072770  37.5621700  35.8996630  75.7001100  36.4357370  36.0928210
  73.6191640  35.4020440  32.8333730  74.4682170  35.8390590  32.7673920
  73.2522910  35.7140700  33.6605790  84.5427000  47.1442050  39.4219560
  84.6674420  47.9673220  39.8943370  85.4092560  46.9332780  39.0743710
  72.0144530  49.2373260  39.0936690  72.7507010  48.6888720  39.3645260
  72.3985450  50.1029270  38.9542680  68.8990010  45.3046830  34.9678200
  67.9729790  45.5467970  34.9583610  69.3646440  46.1321090  34.8462950
  84.1777010  47.6373700  32.3399000  83.8918520  47.2238840  31.5253180
  83.9796560  48.5661410  32.2199520  82.9361910  44.0469110  47.3168860
  83.6771380  44.3844870  46.8136320  82.1734590  44.2161170  46.7638630
  74.2230220  48.3557430  44.9377730  73.6851310  49.0803490  44.6186430
  74.4764180  47.8787770  44.1475070  80.2948900  35.9407760  46.6966680
  79.6064420  35.2789300  46.6316670  81.0154920  35.4946030  47.1415140
  80.9249300  32.5359390  32.7556940  81.2051590  31.6927290  33.1116360
  80.1515030  32.7682500  33.2695690  72.2443790  34.8251780  30.2147940
  72.5469690  34.8319210  29.3067090  72.9838380  34.4749640  30.7115600
  77.0792430  49.5908640  45.1964380  77.0051130  50.4943780  45.5036750
  76.1771270  49.2720540  45.1686450  75.4628720  33.7686400  31.2004140
  75.1150720  33.0910390  30.6206590  75.6641490  33.3075910  32.0147530
  68.4819720  46.9183230  38.4998000  68.8122730  46.0504290  38.2676640
  68.9110720  47.1241750  39.3302960  73.0781640  45.2492240  36.1599970
  72.7777180  45.1257210  37.0603880  72.9719130  44.3900830  35.7515700
  68.9709930  47.7853820  41.2379630  68.5340920  47.9654620  42.0703780
  69.5387610  48.5428440  41.0961350  85.8473560  45.0288640  30.8626650
  85.0166520  45.0965290  31.3333880  86.0245390  45.9192760  30.5593510
  85.3030020  41.7736120  33.3660850  86.0648930  42.3432770  33.4720540
  85.3184390  41.2063320  34.1369160  68.8034360  40.2974050  37.5968510
  68.1483200  40.0285690  36.9528210  69.6412310  40.1878530  37.1470490
  83.2923750  44.0122800  43.6233100  82.4783590  44.4419960  43.8858890
  83.6997950  44.6241210  43.0102150  85.3549190  42.0670490  30.5233370
  85.6298030  42.9749370  30.3952590  85.1659930  42.0033020  31.4595360
  81.7524800  35.0915340  31.8187000  82.1709680  34.9046320  30.9783660
  81.4460860  34.2394390  32.1289930  85.2514530  40.0039480  35.5162800
  84.8758130  39.2367410  35.0844090  84.5217650  40.3862180  36.0037730
  69.8410290  40.6826620  42.1371850  70.2083330  40.5954020  43.0167870
  69.2721110  39.9193170  42.0378710  83.0802220  34.3767430  47.9282020
  83.9572400  34.3850830  48.3116020  83.0923060  33.6398270  47.3174370
  68.0172440  37.5072980  33.5393840  67.1136520  37.7703180  33.3645500
  68.5013060  37.7784150  32.7593800  70.5599650  36.5638520  31.4488220
  71.2691350  36.1421740  30.9635500  69.8439590  36.6313750  30.8171570
  70.2073810  32.6177850  30.4890870  70.9301940  33.1586790  30.8072090
  70.4798330  32.3441270  29.6132410  84.0165460  37.4870320  34.7562450
  84.5124580  37.2541190  35.5411330  83.8181530  36.6482160  34.3400090
  85.4452620  36.1231270  37.2900130  85.3351900  35.9687310  38.2282400
  86.2060210  35.5952210  37.0475540  86.3342890  33.9539190  30.5306270
  87.2592200  33.8220370  30.3224560  86.3118680  34.0332010  31.4842720
  86.4081380  34.7249850  33.1562980  85.6132880  34.6594970  33.6855890
  86.6124660  35.6600490  33.1448330  74.9568400  46.7518900  42.9001720
  74.7159760  47.0193460  42.0132240  75.8971040  46.9224630  42.9552580
  77.1622820  33.2151590  46.6558230  77.1011710  33.8073420  47.4053640
  78.1023200  33.1077550  46.5108490  79.7997380  32.8721650  46.2950520
  80.4137790  33.1900940  45.6331600  80.3446940  32.3870240  46.9146380
  71.0950400  48.1421560  44.4189780  70.5010720  48.0106260  45.1579820
  71.0874240  47.3059700  43.9531880  80.5405420  31.4353790  42.6219810
  79.6665260  31.7688900  42.4192740  80.4316170  30.9626970  43.4471680
  70.7262630  45.5079940  43.3697820  69.9996690  44.8885230  43.3023770
  70.7871780  45.9020550  42.4995900  74.3307730  47.7224940  40.1547230
  74.8472750  47.1112300  39.6295490  74.9805110  48.2253720  40.6458240
  69.0092630  48.8254330  36.5794580  68.8414670  48.1925010  37.2776470
  68.1427140  49.0313730  36.2288770  69.6320650  32.6571110  34.0826440
  70.3900010  32.7699990  33.5090470  69.1697820  33.4940310  34.0369870
  76.1734460  34.7710380  37.0728750  75.3608970  34.3967270  36.7324630
  76.6776100  34.0155460  37.3749940  80.6759440  31.4352830  38.3111820
  81.2788810  32.0073040  38.7860340  79.9352430  31.9992270  38.0885720
  83.8194040  31.8374390  33.5852100  84.0144670  32.7357840  33.8519530
  83.0323910  31.6061470  34.0785050  72.0045800  33.1835160  32.6228410
  72.5338560  32.3964960  32.4936360  72.6374120  33.8626350  32.8563940
  74.1983640  32.9210300  35.6773800  73.5686380  32.2197610  35.8443930
  73.6588780  33.6814430  35.4606960  85.3720650  49.0775100  35.3458660
  85.5472840  48.3912840  34.7019580  84.6742220  49.6022150  34.9535330
  80.9254660  31.6147860  48.6906760  80.8120110  31.9342470  49.5858280
  81.7424400  32.0160370  48.3944040  79.8312810  39.6340330  19.0541500
  79.7506860  38.7194940  18.7833210  79.4177230  40.1307400  18.3481210
  77.9630850  41.4119350  20.9350770  77.1872950  40.9319790  21.2249340
  78.6143780  40.7325000  20.7606930  71.9796680  41.7239160  21.8126530
  71.1481560  41.4687870  22.2123040  72.5877660  41.7949930  22.5484450
  81.9838280  45.8179540  19.7149900  81.5219810  45.0466780  20.0437070
  82.7963830  45.8445610  20.2202350  71.9597940  45.7579250  22.0084550
  72.2625980  44.8676990  21.8294770  72.7041530  46.3149470  21.7806800
  70.3888630  36.6841050  15.5968920  69.5005330  37.0257020  15.4948800
  70.6729820  36.4841370  14.7049750  68.3521640  39.2846700  21.4808620
  68.9237750  38.5168900  21.4812260  68.3523180  39.5835460  20.5715230
  78.2101590  48.1037550  19.3353890  77.5913030  48.5595050  18.7648330
  79.0653370  48.2589010  18.9343590  77.4039840  44.0876540  20.9420930
  77.3348120  43.1466480  20.7810060  78.1659700  44.1777950  21.5143500
  69.5946510  34.6931060  23.2677550  69.4149350  33.7956810  23.5480310
  69.1926590  35.2402930  23.9424500  78.4345010  36.8946920  21.1689860
  78.8109830  36.0218800  21.0563530  78.3364520  37.2305620  20.2780300
  72.5650020  35.2672550  16.6307300  72.6716770  36.1676280  16.9376060
  71.6542380  35.2190520  16.3401950  82.2169130  34.3897360  18.1018200
  83.0378750  33.8993930  18.1443680  82.2503210  34.9795020  18.8550040
  70.2133180  37.1891560  21.8759890  70.8943290  37.4529930  22.4947290
  69.8981230  36.3492430  22.2097900  74.4057750  38.2358920  20.9632480
  74.9135970  38.7339890  21.6037500  74.9370990  37.4594120  20.7871840
  86.5068680  36.4064110  24.6661830  85.8020850  36.7945820  24.1476940
  86.7726600  37.1014400  25.2682760  72.6893850  32.8757480  25.2295900
  72.6912290  33.3929870  24.4241800  71.8598160  32.3987660  25.2065830
  79.0764940  42.9876790  16.7285800  78.4582210  43.4526240  16.1648520
  79.5888190  43.6804270  17.1455310  73.9396700  42.5152660  23.4069400
  73.6066080  43.1421580  24.0490470  74.1163380  43.0414540  22.6271070
  82.4530610  36.3297740  20.8745740  81.7486180  36.6182630  21.4548850
  82.8142770  37.1397850  20.5145300  72.3709180  34.5867440  23.2366350
  72.7125990  35.4309490  22.9420220  71.4324990  34.7351180  23.3531690
  68.4448140  43.6733320  14.1025430  68.0676120  44.1620420  13.3710330
  68.7021210  44.3458600  14.7331960  84.0693390  45.9472870  23.1373220
  83.3856910  46.6171980  23.1289890  84.6087680  46.1453520  22.3718080
  85.5217530  35.7752530  21.2654950  84.5742440  35.8091510  21.3970380
  85.8467520  36.5891480  21.6504310  76.0537070  32.0749710  19.5610940
  76.3612050  31.5196600  18.8446440  75.1237770  32.2094170  19.3783930
  81.6052130  47.7917000  21.8518400  81.6179290  47.3879290  20.9840660
  81.0527350  48.5664290  21.7479830  82.8997550  44.5133220  16.9408570
  82.7893880  43.5707550  17.0657990  82.8965800  44.8748860  17.8271330
  78.4417830  40.1398540  16.2971060  77.5147110  40.0735920  16.5259530
  78.5942650  41.0778670  16.1826300  78.4286910  36.4115540  13.2938220
  77.4890580  36.5729500  13.3790680  78.7470170  37.1301220  12.7474210
  84.9499670  41.0934060  23.2717250  84.1218300  41.1627150  22.7967380
  85.5450150  41.6788370  22.8033080  82.4715120  41.7018840  16.8006310
  81.8527540  41.3638390  16.1532610  82.4539570  41.0578600  17.5085500
  81.9141680  37.8803380  24.2172120  81.5012860  38.7057090  24.4712110
  81.1817630  37.2948420  24.0248480  74.0474470  40.6663280  19.0790790
  73.6431470  39.9540530  18.5836690  74.1337590  40.3216520  19.9678830
  74.5156170  44.3530840  21.2430000  74.2184460  43.7476310  20.5637780
  75.4655990  44.3908150  21.1319360  72.7603090  37.4406490  22.8589830
  73.3117680  37.5501830  22.0843080  73.2746600  37.8144090  23.5745060
  80.6479820  40.9405650  13.8079060  81.0873100  40.1028080  13.6616880
  81.3608240  41.5735050  13.8943200  78.7575200  45.8801720  17.7760300
  79.1971110  46.6226050  17.3615690  78.6962090  46.1228290  18.6999260
  84.2296960  32.1948460  12.1220100  83.9169620  32.2875290  13.0219170
  84.9909430  32.7729490  12.0717530  70.7479100  39.5608260  16.5797440
  70.6276700  40.2870350  15.9678710  70.4379990  38.7911170  16.1025350
  86.1840990  47.6874650  29.9744490  86.6600710  48.1657540  30.6533570
  86.8048150  47.6192140  29.2489990  68.3864470  42.7323400  22.3866080
  68.4644890  42.8672170  21.4421800  69.0006150  42.0239290  22.5794200
  69.6312100  44.4323590  18.7972260  69.2240180  44.5738180  17.9425860
  70.5225110  44.1483750  18.5943470  85.5874240  44.8787500  27.1344500
  85.7137300  44.6399380  26.2161680  85.6295620  44.0472040  27.6066580
  81.4245380  48.8670840  15.1323310  81.2646520  48.5773780  16.0305140
  81.2592090  48.0910970  14.5968540  73.9033760  48.6469370  16.9094930
  73.7276240  47.7304910  16.6962730  73.0489500  49.0056660  17.1492730
  81.1271510  46.3758400  13.6921310  80.4336670  46.3735690  13.0323590
  81.8694370  45.9517720  13.2615480  80.6921440  48.0021110  17.7669800
  81.1478390  47.2210490  18.0808420  81.0313960  48.7127930  18.3110980
  85.4398250  36.9319960  28.0994240  84.8242520  37.4399630  27.5709700
  85.1194670  36.0318290  28.0420180  68.4423990  43.7737570  24.9260540
  68.6055030  43.3042930  24.1079910  68.9076440  43.2661130  25.5909380
  73.2142760  32.9043330  19.9621110  72.7710910  33.6852870  19.6305630
  73.7727750  33.2273220  20.6692050  77.5012570  35.7711850  25.5656430
  77.0391940  35.9794870  26.3776370  77.0990680  34.9571200  25.2627100
  82.5017080  36.9920800  26.6953090  81.6510670  36.6926550  27.0162160
  82.3418870  37.2362810  25.7836910  79.5966790  38.4922550  28.7951880
  79.9220200  37.6586300  28.4554110  80.3847120  39.0151070  28.9430210
  76.3301580  32.5254030  14.8426940  75.7055760  32.5213900  15.5680250
  76.2431700  31.6584990  14.4462910  75.2518660  33.4490660  21.8210710
  75.5490990  34.3553490  21.7402730  75.8004220  32.9609440  21.2070280
  73.0056980  38.0276900  17.6902360  72.7797900  37.8114070  18.5948980
  72.2249510  38.4605360  17.3448330  80.2354740  38.0340270  16.2893010
  79.6363630  38.7576070  16.1056630  80.7834350  37.9717050  15.5069460
  78.8419610  36.6703810  18.3196290  79.2349180  36.9876010  17.5064980
  79.2036460  35.7915690  18.4340810  70.5766730  35.3376150  26.5096410
  70.1830120  36.1851360  26.7169190  69.8885130  34.7002520  26.7005050
  77.1511780  35.4211120  29.5793150  76.4610100  35.2283320  30.2139240
  77.8944080  35.7045760  30.1117450  67.8783780  33.2604610  20.5426490
  67.5896830  33.8307470  21.2551470  68.6229540  32.7809060  20.9057720
  68.0654010  37.2024730  11.7529210  67.9828680  38.1455490  11.8944200
  67.7137070  37.0599640  10.8741560  79.4274750  39.2609560  22.4147070
  78.6955870  39.7696370  22.7637170  79.0299090  38.4439540  22.1135850
  75.8652140  35.9363760  20.8199560  75.8688200  35.4953710  19.9704100
  76.7603260  36.2581090  20.9271380  71.7154520  35.8190250  19.7793770
  71.3754570  36.2965480  20.5360820  70.9531840  35.3655370  19.4194870
  75.9272290  36.9375840  13.8106320  76.0485110  36.8962320  14.7592140
  75.5420800  37.7999990  13.6553050  79.8900660  34.7143240  21.8270010
  79.9073400  35.1651890  22.6711860  79.6416240  33.8148880  22.0403450
  74.9393790  39.2476980  13.2089620  74.3710690  38.7995230  12.5825530
  75.6482790  39.6069760  12.6754770  83.3171410  32.1275420  27.6656390
  83.6417180  31.3965080  28.1914370  83.3527920  31.8089060  26.7637380
  70.0162970  43.1489000  27.0856350  69.6317760  42.5082670  27.6839310
  70.3275160  43.8525120  27.6551080  76.1660110  39.9965540  22.5664970
  76.5330240  39.5224110  23.3126310  75.9765170  40.8707110  22.9073310
  69.0300600  34.7409230  18.6958440  68.7447520  34.3764900  19.5337060
  68.9679460  34.0089690  18.0821580  73.9559480  39.0374180  24.8849180
  73.6516550  39.9166160  25.1099540  74.9105940  39.0973970  24.9206620
  72.4841270  43.2435170  15.4816030  71.7103530  42.7032790  15.3214750
  73.2135900  42.7241780  15.1433790  83.2429250  42.2400530  21.2742420
  83.9628370  42.7355820  20.8838530  83.0411070  41.5618420  20.6296290
  78.7039190  33.6338490  15.4171810  77.8903800  33.1351660  15.3417120
  78.5101140  34.4736740  15.0008160  81.4187580  38.0058140  13.7133970
  82.3067200  38.3175370  13.5385310  81.3892670  37.1330390  13.3214550
  72.5278670  42.9115550  19.1194840  73.0457340  42.1083810  19.0651730
  72.0762690  42.8494690  19.9611670  77.4148170  44.1781830  14.3922140
  77.7563870  44.9224060  13.8965460  76.5860880  44.4912950  14.7546970
  70.0123210  39.8776920  26.0320540  69.6538150  40.5430770  26.6193880
  69.7177770  39.0460470  26.4033160  83.6901850  39.3169980  13.1813830
  83.6065570  39.7484200  12.3310270  84.4096040  39.7768330  13.6140650
  84.7675990  41.7737500  26.2583800  84.0424180  42.3666280  26.0613190
  85.2951450  41.7661040  25.4597170  84.7189100  46.1712240  15.9095960
  84.0765260  45.5167860  16.1839680  84.3319760  46.5767330  15.1336630
  80.2975580  43.4997670  19.7567650  80.6499400  42.9025800  19.0969020
  79.4137910  43.1741900  19.9275900  76.3838860  44.2595360  17.1638060
  77.0709990  44.8064570  17.5445650  75.5971280  44.8036090  17.1987670
  68.5231260  39.8768180  12.6555140  69.3926110  40.1592980  12.9391060
  68.0321580  40.6904050  12.5403950  75.6866070  41.2641390  16.7763420
  76.1428850  42.0746640  17.0023610  75.3354280  40.9464530  17.6081910
  71.5877850  31.6079040  17.2485940  71.4592480  31.5996940  18.1970860
  70.7639870  31.9462130  16.8976950  83.1086480  45.0628700  12.4472310
  82.8824060  44.3459140  13.0396950  82.7182680  44.8141140  11.6094060
  68.8902510  49.0895560  13.2216770  69.2500150  49.6884900  12.5674040
  68.7494850  49.6355450  13.9951800  68.5871780  33.3670160  26.7092640
  67.8730300  33.5667080  27.3145250  69.0066820  32.5909730  27.0807440
  82.6902730  42.9800640  14.1086470  82.4024430  43.4413330  14.8964350
  83.4854900  42.5198410  14.3770690  68.8744370  47.3550420  27.6959170
  68.9835490  46.4145160  27.5554560  68.2224930  47.6205170  27.0472900
  74.9071130  46.4726760  14.0390440  74.8981230  47.2056450  13.4234950
  73.9869490  46.2258340  14.1317400  70.5077770  41.6941650  14.7837200
  69.9005720  42.4340550  14.7932500  70.9827120  41.7841010  13.9575400
  80.0810560  35.8592470  24.4594090  80.4491380  35.0387680  24.7873660
  79.2208760  35.9194360  24.8749740  83.4472590  34.8149410  15.2681650
  82.8185750  34.9195080  14.5539880  82.9524510  35.0346190  16.0575530
  77.8930730  46.5355000  12.7015630  77.9942710  46.3318990  11.7717610
  76.9932470  46.2813280  12.9063410  75.4156620  37.0935360  16.6839530
  74.7072770  37.5621700  17.1253140  75.7001100  36.4357370  17.3184720
  77.0412550  38.5132060  24.6832060  77.5397800  38.9877880  25.3483910
  77.1835500  37.5895580  24.8902090  79.4472050  33.8186020  18.1235320
  79.3239830  33.8372150  17.1744830  80.3956610  33.8664960  18.2433720
  76.5348840  49.0541320  17.3963300  76.7890340  49.0162710  16.4742670
  75.5861320  48.9274650  17.3891550  73.6191640  35.4020440  14.0590240
  74.4682170  35.8390590  13.9930430  73.2522910  35.7140700  14.8862300
  84.2479410  34.7300020  25.5260450  83.7453010  35.4705420  25.8654260
  85.0636070  35.1184020  25.2097240  82.5401420  39.9733200  18.9721810
  81.5991560  39.9883430  19.1469500  82.8545490  39.1869160  19.4182110
  72.5183060  41.6552800  12.5325770  73.2846330  41.5434160  13.0951200
  72.5957750  40.9590770  11.8802540  71.2129820  39.0877870  13.2158660
  71.2933410  38.1405380  13.3276060  72.1049570  39.4184750  13.3219320
  84.5427000  47.1442050  20.6476070  84.6674420  47.9673220  21.1199880
  85.4092560  46.9332780  20.3000220  72.0144530  49.2373260  20.3193200
  72.7507010  48.6888720  20.5901770  72.3985450  50.1029270  20.1799190
  68.8990010  45.3046830  16.1934710  67.9729790  45.5467970  16.1840120
  69.3646440  46.1321090  16.0719460  71.0202810  48.4219330  29.5078780
  71.8215540  48.7431380  29.9214180  70.5054630  48.0614910  30.2298690
  75.1246840  48.4103570  12.1418770  75.9175450  48.6992400  11.6900560
  74.6051190  47.9795740  11.4631250  84.1777010  47.6373700  13.5655510
  83.8918520  47.2238840  12.7509690  83.9796560  48.5661410  13.4456030
  68.7400620  40.9092790  28.4514830  69.2439640  40.3300070  29.0231060
  68.0008040  41.1933020  28.9891200  75.6424240  43.6306980  12.0061120
  75.5374880  43.0159330  12.7322500  75.4748460  43.1072870  11.2224130
  78.8826970  42.6927010  12.6103110  78.3337070  43.1396310  13.2545850
  79.5046230  42.1876260  13.1340780  70.7723700  39.0522380  29.3464900
  70.8129040  38.7536250  30.2550130  71.6269200  39.4529990  29.1872420
  74.5502090  41.6517930  14.5068410  74.9718510  41.4857800  15.3499800
  74.6752930  40.8418160  14.0123550  72.7129510  37.6314480  27.3139390
  72.1825970  37.1405430  26.6862730  73.3817580  38.0598680  26.7797320
  77.0629730  40.6755540  11.7545510  77.5835390  39.9604560  11.3886660
  77.7098130  41.3141410  12.0546020  82.0829740  39.4380100  29.0819730
  82.6650510  38.6832420  28.9940210  82.2591510  39.9687540  28.3051210
  73.2001810  34.5976850  27.3936680  73.1058680  33.9797600  26.6687550
  72.6199200  35.3243140  27.1666590  75.9663250  33.1550090  24.4264070
  75.5180550  33.1774350  23.5809620  75.3328450  32.7569110  25.0234370
  78.7086700  39.7820600  26.4314350  78.8282910  39.1861740  27.1709190
  79.5680700  39.8190290  26.0115650  81.0474600  40.3357790  25.0076860
  80.5209820  40.8600410  24.4042000  81.3905940  40.9685180  25.6386590
  73.4460990  37.7251160  11.4526570  73.2450050  36.8618520  11.8139910
  73.2753040  37.6384520  10.5148170  75.4755470  36.3241950  27.6890170
  76.0655160  36.0157800  28.3767990  74.6575710  35.8521700  27.8450070
  80.2948900  35.9407760  27.9223190  79.6064420  35.2789300  27.8573180
  81.0154920  35.4946030  28.3671650  80.9249300  32.5359390  13.9813450
  81.2051590  31.6927290  14.3372870  80.1515030  32.7682500  14.4952200
  72.2443790  34.8251780  11.4404450  72.5469690  34.8319210  10.5323600
  72.9838380  34.4749640  11.9372110  75.4628720  33.7686400  12.4260650
  75.1150720  33.0910390  11.8463100  75.6641490  33.3075910  13.2404040
  77.6277760  48.7567150  14.0447250  78.5228550  49.0952120  14.0666010
  77.6595390  48.0346560  13.4171530  71.2673920  44.1294200  12.2734250
  71.7048790  44.6723870  12.9291830  71.7521650  43.3041150  12.2830590
  68.4819720  46.9183230  19.7254510  68.8122730  46.0504290  19.4933150
  68.9110720  47.1241750  20.5559470  73.0781640  45.2492240  17.3856480
  72.7777180  45.1257210  18.2860390  72.9719130  44.3900830  16.9772210
  68.9709930  47.7853820  22.4636140  68.5340920  47.9654620  23.2960290
  69.5387610  48.5428440  22.3217860  84.6072110  47.2870820  26.7513450
  84.0074100  47.3463380  26.0077370  84.7366010  46.3475800  26.8810300
  85.8473560  45.0288640  12.0883160  85.0166520  45.0965290  12.5590390
  86.0245390  45.9192760  11.7850020  85.3030020  41.7736120  14.5917360
  86.0648930  42.3432770  14.6977050  85.3184390  41.2063320  15.3625670
  68.8034360  40.2974050  18.8225020  68.1483200  40.0285690  18.1784720
  69.6412310  40.1878530  18.3727000  86.3089990  42.6286220  19.4359290
  86.6798820  41.8453540  19.0295260  86.9491920  43.3175320  19.2576590
  85.3549190  42.0670490  11.7489880  85.6298030  42.9749370  11.6209100
  85.1659930  42.0033020  12.6851870  81.7524800  35.0915340  13.0443510
  82.1709680  34.9046320  12.2040170  81.4460860  34.2394390  13.3546440
  85.2514530  40.0039480  16.7419310  84.8758130  39.2367410  16.3100600
  84.5217650  40.3862180  17.2294240  69.8410290  40.6826620  23.3628360
  70.2083330  40.5954020  24.2424380  69.2721110  39.9193170  23.2635220
  84.6414150  39.1511000  26.3758830  84.4100240  38.9223750  25.4756780
  84.9018700  40.0710550  26.3303720  69.3926290  37.5935710  27.2686780
  68.4982340  37.5602470  27.6080490  69.9323840  37.7922500  28.0338030
  83.0802220  34.3767430  29.1538530  83.9572400  34.3850830  29.5372530
  83.0923060  33.6398270  28.5430880  68.0172440  37.5072980  14.7650350
  67.1136520  37.7703180  14.5902010  68.5013060  37.7784150  13.9850310
  84.5265490  38.2296970  20.0426550  85.0502970  37.7359620  19.4116720
  85.1124910  38.3647330  20.7874120  84.7055210  38.3136840  23.5646100
  83.7557920  38.2800380  23.6791090  84.8868220  39.2236950  23.3295870
  70.5599650  36.5638520  12.6744730  71.2691350  36.1421740  12.1892010
  69.8439590  36.6313750  12.0428080  70.2073810  32.6177850  11.7147380
  70.9301940  33.1586790  12.0328600  70.4798330  32.3441270  10.8388920
  84.0165460  37.4870320  15.9818960  84.5124580  37.2541190  16.7667840
  83.8181530  36.6482160  15.5656600  69.8966000  31.8684040  21.6170000
  70.5442190  31.3181420  21.1765160  70.3167840  32.1227190  22.4385810
  85.4452620  36.1231270  18.5156640  85.3351900  35.9687310  19.4538910
  86.2060210  35.5952210  18.2732050  83.7918340  32.0625400  24.9739640
  84.4290560  32.6759540  25.3398830  83.9393230  32.0986060  24.0288870
  86.3342890  33.9539190  11.7562780  87.2592200  33.8220370  11.5481070
  86.3118680  34.0332010  12.7099230  86.4081380  34.7249850  14.3819490
  85.6132880  34.6594970  14.9112400  86.6124660  35.6600490  14.3704840
  83.3499800  48.7641400  18.3757880  83.9458870  48.4425970  17.6992300
  83.6077950  48.2913220  19.1671150  69.6498000  32.0239710  24.3595320
  69.3012820  32.4803530  25.1253500  69.3185700  31.1296840  24.4417750
  71.2562370  45.1959310  28.5248510  71.2132000  44.8252220  29.4062970
  71.3873380  46.1336880  28.6650330  77.1622820  33.2151590  27.8814740
  77.1011710  33.8073420  28.6310150  78.1023200  33.1077550  27.7365000
  79.7997380  32.8721650  27.5207030  80.4137790  33.1900940  26.8588110
  80.3446940  32.3870240  28.1402890  86.2172560  48.7713280  24.9268870
  85.7230840  49.1682150  24.2096000  85.6085850  48.1462490  25.3206150
  70.3218640  31.5515910  27.6346090  70.8701630  31.3703960  26.8712200
  70.3873950  30.7610020  28.1702400  71.0950400  48.1421560  25.6446290
  70.5010720  48.0106260  26.3836330  71.0874240  47.3059700  25.1788390
  80.5405420  31.4353790  23.8476320  79.6665260  31.7688900  23.6449250
  80.4316170  30.9626970  24.6728190  81.4477400  33.6424660  25.2318040
  81.1190760  32.8276420  24.8519770  82.3959700  33.5994470  25.1083730
  83.9012010  49.4136700  22.2055610  83.4414980  50.1652510  21.8313630
  83.2724470  48.6943170  22.1470410  70.7262630  45.5079940  24.5954330
  69.9996690  44.8885230  24.5280280  70.7871780  45.9020550  23.7252410
  74.3307730  47.7224940  21.3803740  74.8472750  47.1112300  20.8552000
  74.9805110  48.2253720  21.8714750  77.0703230  48.6133430  22.2072720
  77.3581040  48.3587730  21.3305730  77.5826450  48.0610790  22.7978290
  78.2880240  32.3523630  22.7869230  77.5052030  32.8269130  23.0665990
  77.9943170  31.4478460  22.6782410  82.8401310  33.0546730  20.8318320
  83.2809400  32.9991830  19.9839920  82.5708900  33.9704740  20.9028500
  84.7039880  32.6861970  18.8427140  84.6428280  31.7423190  18.6958160
  85.4831910  32.7942060  19.3880600  69.0092630  48.8254330  17.8051090
  68.8414670  48.1925010  18.5032980  68.1427140  49.0313730  17.4545280
  69.6320650  32.6571110  15.3082950  70.3900010  32.7699990  14.7346980
  69.1697820  33.4940310  15.2626380  76.1734460  34.7710380  18.2985260
  75.3608970  34.3967270  17.9581140  76.6776100  34.0155460  18.6006450
  80.6759440  31.4352830  19.5368330  81.2788810  32.0073040  20.0116850
  79.9352430  31.9992270  19.3142230  83.8194040  31.8374390  14.8108610
  84.0144670  32.7357840  15.0776040  83.0323910  31.6061470  15.3041560
  70.6155330  47.5187560  15.2501230  70.0902950  47.8995590  14.5463190
  70.5399910  48.1438330  15.9710940  72.0045800  33.1835160  13.8484920
  72.5338560  32.3964960  13.7192870  72.6374120  33.8626350  14.0820450
  74.1983640  32.9210300  16.9030310  73.5686380  32.2197610  17.0700440
  73.6588780  33.6814430  16.6863470  85.3720650  49.0775100  16.5715170
  85.5472840  48.3912840  15.9276090  84.6742220  49.6022150  16.1791840
  74.3239200  32.1994280  29.3382800  74.0423470  32.7027880  28.5743620
  74.7058900  31.4016030  28.9724930  73.2148300  49.4669940  14.1250480
  73.9467120  49.1829220  13.5774370  73.4741970  49.2283220  15.0149860
  72.3763090  45.5834670  14.1296810  71.7471970  46.0519770  14.6782640
  72.4910920  44.7383890  14.5643000  80.9254660  31.6147860  29.9163270
  80.8120110  31.9342470  30.8114790  81.7424400  32.0160370  29.6200550
  83.7053150  48.7619390  29.3981960  84.4978470  48.2668620  29.1907920
  83.9986300  49.4409530  30.0057570  77.9630850  41.4119350   2.1607280
  77.1872950  40.9319790   2.4505850  78.6143780  40.7325000   1.9863440
  71.9796680  41.7239160   3.0383040  71.1481560  41.4687870   3.4379550
  72.5877660  41.7949930   3.7740960  71.9597940  45.7579250   3.2341060
  72.2625980  44.8676990   3.0551280  72.7041530  46.3149470   3.0063310
  68.3521640  39.2846700   2.7065130  68.9237750  38.5168900   2.7068770
  68.3523180  39.5835460   1.7971740  77.4039840  44.0876540   2.1677440
  77.3348120  43.1466480   2.0066570  78.1659700  44.1777950   2.7400010
  69.5946510  34.6931060   4.4934060  69.4149350  33.7956810   4.7736820
  69.1926590  35.2402930   5.1681010  70.2133180  37.1891560   3.1016400
  70.8943290  37.4529930   3.7203800  69.8981230  36.3492430   3.4354410
  74.4057750  38.2358920   2.1888990  74.9135970  38.7339890   2.8294010
  74.9370990  37.4594120   2.0128350  86.5068680  36.4064110   5.8918340
  85.8020850  36.7945820   5.3733450  86.7726600  37.1014400   6.4939270
  72.6893850  32.8757480   6.4552410  72.6912290  33.3929870   5.6498310
  71.8598160  32.3987660   6.4322340  73.9396700  42.5152660   4.6325910
  73.6066080  43.1421580   5.2746980  74.1163380  43.0414540   3.8527580
  82.4530610  36.3297740   2.1002250  81.7486180  36.6182630   2.6805360
  82.8142770  37.1397850   1.7401810  72.3709180  34.5867440   4.4622860
  72.7125990  35.4309490   4.1676730  71.4324990  34.7351180   4.5788200
  73.1515800  44.4833460   6.4475090  73.7689800  45.1584540   6.1659540
  72.2908920  44.8921440   6.3562590  84.0693390  45.9472870   4.3629730
  83.3856910  46.6171980   4.3546400  84.6087680  46.1453520   3.5974590
  85.5217530  35.7752530   2.4911460  84.5742440  35.8091510   2.6226890
  85.8467520  36.5891480   2.8760820  81.6052130  47.7917000   3.0774910
  81.6179290  47.3879290   2.2097170  81.0527350  48.5664290   2.9736340
  81.0037570  42.6946840   4.4057520  81.4206360  42.4806950   3.5710980
  81.7277390  42.9519630   4.9766140  84.9499670  41.0934060   4.4973760
  84.1218300  41.1627150   4.0223890  85.5450150  41.6788370   4.0289590
  81.9141680  37.8803380   5.4428630  81.5012860  38.7057090   5.6968620
  81.1817630  37.2948420   5.2504990  74.5156170  44.3530840   2.4686510
  74.2184460  43.7476310   1.7894290  75.4655990  44.3908150   2.3575870
  72.7603090  37.4406490   4.0846340  73.3117680  37.5501830   3.3099590
  73.2746600  37.8144090   4.8001570  82.6041780  47.9262710   6.1309610
  82.1272340  48.7334900   5.9382220  81.9203570  47.2741040   6.2835820
  73.6074600  44.0912530   9.1194310  72.7103130  44.3152500   9.3667710
  73.6327470  44.2147470   8.1705710  72.4345820  40.9625850   7.6951680
  72.2953590  41.8348650   8.0639080  71.5527180  40.6198660   7.5499620
  74.2326170  46.9047550   9.9036830  74.2041600  47.3090500   9.0365260
  74.0691140  45.9757910   9.7408430  86.1840990  47.6874650  11.2001000
  86.6600710  48.1657540  11.8790080  86.8048150  47.6192140  10.4746500
  68.3864470  42.7323400   3.6122590  68.4644890  42.8672170   2.6678310
  69.0006150  42.0239290   3.8050710  85.5874240  44.8787500   8.3601010
  85.7137300  44.6399380   7.4418190  85.6295620  44.0472040   8.8323090
  79.4490980  48.5815500   6.9295820  79.9635650  48.4923510   7.7318250
  78.6060060  48.9275200   7.2223730  85.4398250  36.9319960   9.3250750
  84.8242520  37.4399630   8.7966210  85.1194670  36.0318290   9.2676690
  68.4423990  43.7737570   6.1517050  68.6055030  43.3042930   5.3336420
  68.9076440  43.2661130   6.8165890  77.5012570  35.7711850   6.7912940
  77.0391940  35.9794870   7.6032880  77.0990680  34.9571200   6.4883610
  82.5017080  36.9920800   7.9209600  81.6510670  36.6926550   8.2418670
  82.3418870  37.2362810   7.0093420  79.5966790  38.4922550  10.0208390
  79.9220200  37.6586300   9.6810620  80.3847120  39.0151070  10.1686720
  75.2518660  33.4490660   3.0467220  75.5490990  34.3553490   2.9659240
  75.8004220  32.9609440   2.4326790  75.4456190  38.9262480   9.5819140
  75.3499790  37.9857210   9.4319540  76.2888170  39.1477550   9.1867210
  70.5766730  35.3376150   7.7352920  70.1830120  36.1851360   7.9425700
  69.8885130  34.7002520   7.9261560  77.1511780  35.4211120  10.8049660
  76.4610100  35.2283320  11.4395750  77.8944080  35.7045760  11.3373960
  67.8783780  33.2604610   1.7683000  67.5896830  33.8307470   2.4807980
  68.6229540  32.7809060   2.1314230  79.4274750  39.2609560   3.6403580
  78.6955870  39.7696370   3.9893680  79.0299090  38.4439540   3.3392360
  79.8900660  34.7143240   3.0526520  79.9073400  35.1651890   3.8968370
  79.6416240  33.8148880   3.2659960  83.3171410  32.1275420   8.8912900
  83.6417180  31.3965080   9.4170880  83.3527920  31.8089060   7.9893890
  70.0162970  43.1489000   8.3112860  69.6317760  42.5082670   8.9095820
  70.3275160  43.8525120   8.8807590  76.1660110  39.9965540   3.7921480
  76.5330240  39.5224110   4.5382820  75.9765170  40.8707110   4.1329820
  73.9559480  39.0374180   6.1105690  73.6516550  39.9166160   6.3356050
  74.9105940  39.0973970   6.1463130  83.2429250  42.2400530   2.4998930
  83.9628370  42.7355820   2.1095040  83.0411070  41.5618420   1.8552800
  78.6248050  42.3109590   8.3867930  78.5585360  41.3905260   8.1325520
  77.9953190  42.4085030   9.1012570  70.0123210  39.8776920   7.2577050
  69.6538150  40.5430770   7.8450390  69.7177770  39.0460470   7.6289670
  73.2136330  40.3361160  10.1416600  72.9136470  40.4818340   9.2444420
  73.9847570  39.7766450  10.0489990  78.5564780  45.1330160   8.1371730
  78.5709320  44.2011120   7.9190640  77.8489880  45.2189920   8.7761500
  84.7675990  41.7737500   7.4840310  84.0424180  42.3666280   7.2869700
  85.2951450  41.7661040   6.6853680  77.9898680  46.7747730   5.2312230
  78.6340900  46.9807110   5.9085650  78.3528120  46.0136130   4.7783080
  79.2630760  44.7780080   3.9489680  79.9052990  44.0773240   4.0621850
  79.7880110  45.5578520   3.7686570  81.0368380  45.5774980   7.1525740
  81.3724620  46.1641670   7.8303660  80.1168720  45.4467690   7.3823530
  68.5871780  33.3670160   7.9349150  67.8730300  33.5667080   8.5401760
  69.0066820  32.5909730   8.3063950  68.8744370  47.3550420   8.9215680
  68.9835490  46.4145160   8.7811070  68.2224930  47.6205170   8.2729410
  76.8656960  45.6266310  10.3213800  76.5453830  44.9075550  10.8659490
  76.1915320  46.3021380  10.3949860  80.0810560  35.8592470   5.6850600
  80.4491380  35.0387680   6.0130170  79.2208760  35.9194360   6.1006250
  77.0412550  38.5132060   5.9088570  77.5397800  38.9877880   6.5740420
  77.1835500  37.5895580   6.1158600  84.2479410  34.7300020   6.7516960
  83.7453010  35.4705420   7.0910770  85.0636070  35.1184020   6.4353750
  71.0202810  48.4219330  10.7335290  71.8215540  48.7431380  11.1470690
  70.5054630  48.0614910  11.4555200  79.8567440  44.5299200  10.6810700
  79.2505600  44.5530800   9.9406450  79.5521550  43.7982240  11.2177950
  81.2867810  48.2579490   9.2920110  82.2389560  48.1737510   9.2420350
  81.1396030  48.9221200   9.9653900  68.7400620  40.9092790   9.6771340
  69.2439640  40.3300070  10.2487570  68.0008040  41.1933020  10.2147710
  75.7938560  42.3163780   9.2106860  75.0284230  42.8848780   9.1261530
  75.9754520  42.0239990   8.3175090  82.9361910  44.0469110   9.7681880
  83.6771380  44.3844870   9.2649340  82.1734590  44.2161170   9.2151650
  70.7723700  39.0522380  10.5721410  70.8129040  38.7536250  11.4806640
  71.6269200  39.4529990  10.4128930  72.7129510  37.6314480   8.5395900
  72.1825970  37.1405430   7.9119240  73.3817580  38.0598680   8.0053830
  81.6107570  42.0983940   8.3037090  82.0248590  42.2529020   9.1527510
  80.6758570  42.2239160   8.4662870  82.0829740  39.4380100  10.3076240
  82.6650510  38.6832420  10.2196720  82.2591510  39.9687540   9.5307720
  73.2001810  34.5976850   8.6193190  73.1058680  33.9797600   7.8944060
  72.6199200  35.3243140   8.3923100  75.9663250  33.1550090   5.6520580
  75.5180550  33.1774350   4.8066130  75.3328450  32.7569110   6.2490880
  76.3722800  42.0504420   6.2733020  76.7910910  42.8937150   6.1009260
  75.4531430  42.1876460   6.0439800  78.7086700  39.7820600   7.6570860
  78.8282910  39.1861740   8.3965700  79.5680700  39.8190290   7.2372160
  81.0474600  40.3357790   6.2333370  80.5209820  40.8600410   5.6298510
  81.3905940  40.9685180   6.8643100  74.2230220  48.3557430   7.3890750
  73.6851310  49.0803490   7.0699450  74.4764180  47.8787770   6.5988090
  75.4755470  36.3241950   8.9146680  76.0655160  36.0157800   9.6024500
  74.6575710  35.8521700   9.0706580  80.2948900  35.9407760   9.1479700
  79.6064420  35.2789300   9.0829690  81.0154920  35.4946030   9.5928160
  77.0792430  49.5908640   7.6477400  77.0051130  50.4943780   7.9549770
  76.1771270  49.2720540   7.6199470  68.9709930  47.7853820   3.6892650
  68.5340920  47.9654620   4.5216800  69.5387610  48.5428440   3.5474370
  84.6072110  47.2870820   7.9769960  84.0074100  47.3463380   7.2333880
  84.7366010  46.3475800   8.1066810  83.2923750  44.0122800   6.0746120
  82.4783590  44.4419960   6.3371910  83.6997950  44.6241210   5.4615170
  69.8410290  40.6826620   4.5884870  70.2083330  40.5954020   5.4680890
  69.2721110  39.9193170   4.4891730  84.6414150  39.1511000   7.6015340
  84.4100240  38.9223750   6.7013290  84.9018700  40.0710550   7.5560230
  69.3926290  37.5935710   8.4943290  68.4982340  37.5602470   8.8337000
  69.9323840  37.7922500   9.2594540  83.0802220  34.3767430  10.3795040
  83.9572400  34.3850830  10.7629040  83.0923060  33.6398270   9.7687390
  84.7055210  38.3136840   4.7902610  83.7557920  38.2800380   4.9047600
  84.8868220  39.2236950   4.5552380  69.8966000  31.8684040   2.8426510
  70.5442190  31.3181420   2.4021670  70.3167840  32.1227190   3.6642320
  83.7918340  32.0625400   6.1996150  84.4290560  32.6759540   6.5655340
  83.9393230  32.0986060   5.2545380  69.6498000  32.0239710   5.5851830
  69.3012820  32.4803530   6.3510010  69.3185700  31.1296840   5.6674260
  71.2562370  45.1959310   9.7505020  71.2132000  44.8252220  10.6319480
  71.3873380  46.1336880   9.8906840  74.9568400  46.7518900   5.3514740
  74.7159760  47.0193460   4.4645260  75.8971040  46.9224630   5.4065600
  77.1622820  33.2151590   9.1071250  77.1011710  33.8073420   9.8566660
  78.1023200  33.1077550   8.9621510  79.7997380  32.8721650   8.7463540
  80.4137790  33.1900940   8.0844620  80.3446940  32.3870240   9.3659400
  86.2172560  48.7713280   6.1525380  85.7230840  49.1682150   5.4352510
  85.6085850  48.1462490   6.5462660  70.3218640  31.5515910   8.8602600
  70.8701630  31.3703960   8.0968710  70.3873950  30.7610020   9.3958910
  71.0950400  48.1421560   6.8702800  70.5010720  48.0106260   7.6092840
  71.0874240  47.3059700   6.4044900  80.5405420  31.4353790   5.0732830
  79.6665260  31.7688900   4.8705760  80.4316170  30.9626970   5.8984700
  81.4477400  33.6424660   6.4574550  81.1190760  32.8276420   6.0776280
  82.3959700  33.5994470   6.3340240  83.9012010  49.4136700   3.4312120
  83.4414980  50.1652510   3.0570140  83.2724470  48.6943170   3.3726920
  70.7262630  45.5079940   5.8210840  69.9996690  44.8885230   5.7536790
  70.7871780  45.9020550   4.9508920  74.3307730  47.7224940   2.6060250
  74.8472750  47.1112300   2.0808510  74.9805110  48.2253720   3.0971260
  77.0703230  48.6133430   3.4329230  77.3581040  48.3587730   2.5562240
  77.5826450  48.0610790   4.0234800  78.2880240  32.3523630   4.0125740
  77.5052030  32.8269130   4.2922500  77.9943170  31.4478460   3.9038920
  77.1375590  49.5349530  10.7997430  78.0642900  49.2993800  10.8433390
  77.1226020  50.3621530  10.3183460  74.3239200  32.1994280  10.5639310
  74.0423470  32.7027880   9.8000130  74.7058900  31.4016030  10.1981440
  80.9254660  31.6147860  11.1419780  80.8120110  31.9342470  12.0371300
  81.7424400  32.0160370  10.8457060  83.7053150  48.7619390  10.6238470
  84.4978470  48.2668620  10.4164430  83.9986300  49.4409530  11.2314080
  79.8312810  20.8596840 150.4745930  79.7506860  19.9451450 150.2037640
  79.4177230  21.3563910 149.7685640  81.9838280  27.0436050 151.1354330
  81.5219810  26.2723290 151.4641500  82.7963830  27.0702120 151.6406780
  70.3888630  17.9097560 147.0173350  69.5005330  18.2513530 146.9153230
  70.6729820  17.7097880 146.1254180  78.2101590  29.3294060 150.7558320
  77.5913030  29.7851560 150.1852760  79.0653370  29.4845520 150.3548020
  72.5650020  16.4929060 148.0511730  72.6716770  17.3932790 148.3580490
  71.6542380  16.4447030 147.7606380  82.2169130  15.6153870 149.5222630
  83.0378750  15.1250440 149.5648110  82.2503210  16.2051530 150.2754470
  79.0764940  24.2133300 148.1490230  78.4582210  24.6782750 147.5852950
  79.5888190  24.9060780 148.5659740  68.4448140  24.8989830 145.5229860
  68.0676120  25.3876930 144.7914760  68.7021210  25.5715110 146.1536390
  76.0537070  13.3006220 150.9815370  76.3612050  12.7453110 150.2650870
  75.1237770  13.4350680 150.7988360  82.8997550  25.7389730 148.3613000
  82.7893880  24.7964060 148.4862420  82.8965800  26.1005370 149.2475760
  78.4417830  21.3655050 147.7175490  77.5147110  21.2992430 147.9463960
  78.5942650  22.3035180 147.6030730  78.4286910  17.6372050 144.7142650
  77.4890580  17.7986010 144.7995110  78.7470170  18.3557730 144.1678640
  82.4715120  22.9275350 148.2210740  81.8527540  22.5894900 147.5737040
  82.4539570  22.2835110 148.9289930  74.0474470  21.8919790 150.4995220
  73.6431470  21.1797040 150.0041120  74.1337590  21.5473030 151.3883260
  80.6479820  22.1662160 145.2283490  81.0873100  21.3284590 145.0821310
  81.3608240  22.7991560 145.3147630  78.7575200  27.1058230 149.1964730
  79.1971110  27.8482560 148.7820120  78.6962090  27.3484800 150.1203690
  84.2296960  13.4204970 143.5424530  83.9169620  13.5131800 144.4423600
  84.9909430  13.9986000 143.4921960  70.7479100  20.7864770 148.0001870
  70.6276700  21.5126860 147.3883140  70.4379990  20.0167680 147.5229780
  69.6312100  25.6580100 150.2176690  69.2240180  25.7994690 149.3630290
  70.5225110  25.3740260 150.0147900  81.4245380  30.0927350 146.5527740
  81.2646520  29.8030290 147.4509570  81.2592090  29.3167480 146.0172970
  73.9033760  29.8725880 148.3299360  73.7276240  28.9561420 148.1167160
  73.0489500  30.2313170 148.5697160  81.1271510  27.6014910 145.1125740
  80.4336670  27.5992200 144.4528020  81.8694370  27.1774230 144.6819910
  80.6921440  29.2277620 149.1874230  81.1478390  28.4467000 149.5012850
  81.0313960  29.9384440 149.7315410  73.2142760  14.1299840 151.3825540
  72.7710910  14.9109380 151.0510060  73.7727750  14.4529730 152.0896480
  76.3301580  13.7510540 146.2631370  75.7055760  13.7470410 146.9884680
  76.2431700  12.8841500 145.8667340  73.0056980  19.2533410 149.1106790
  72.7797900  19.0370580 150.0153410  72.2249510  19.6861870 148.7652760
  80.2354740  19.2596780 147.7097440  79.6363630  19.9832580 147.5261060
  80.7834350  19.1973560 146.9273890  78.8419610  17.8960320 149.7400720
  79.2349180  18.2132520 148.9269410  79.2036460  17.0172200 149.8545240
  68.0654010  18.4281240 143.1733640  67.9828680  19.3712000 143.3148630
  67.7137070  18.2856150 142.2945990  75.8652140  17.1620270 152.2403990
  75.8688200  16.7210220 151.3908530  76.7603260  17.4837600 152.3475810
  71.7154520  17.0446760 151.1998200  71.3754570  17.5221990 151.9565250
  70.9531840  16.5911880 150.8399300  75.9272290  18.1632350 145.2310750
  76.0485110  18.1218830 146.1796570  75.5420800  19.0256500 145.0757480
  74.9393790  20.4733490 144.6294050  74.3710690  20.0251740 144.0029960
  75.6482790  20.8326270 144.0959200  69.0300600  15.9665740 150.1162870
  68.7447520  15.6021410 150.9541490  68.9679460  15.2346200 149.5026010
  72.4841270  24.4691680 146.9020460  71.7103530  23.9289300 146.7419180
  73.2135900  23.9498290 146.5638220  78.7039190  14.8595000 146.8376240
  77.8903800  14.3608170 146.7621550  78.5101140  15.6993250 146.4212590
  81.4187580  19.2314650 145.1338400  82.3067200  19.5431880 144.9589740
  81.3892670  18.3586900 144.7418980  72.5278670  24.1372060 150.5399270
  73.0457340  23.3340320 150.4856160  72.0762690  24.0751200 151.3816100
  77.4148170  25.4038340 145.8126570  77.7563870  26.1480570 145.3169890
  76.5860880  25.7169460 146.1751400  83.6901850  20.5426490 144.6018260
  83.6065570  20.9740710 143.7514700  84.4096040  21.0024840 145.0345080
  84.7189100  27.3968750 147.3300390  84.0765260  26.7424370 147.6044110
  84.3319760  27.8023840 146.5541060  80.2975580  24.7254180 151.1772080
  80.6499400  24.1282310 150.5173450  79.4137910  24.3998410 151.3480330
  76.3838860  25.4851870 148.5842490  77.0709990  26.0321080 148.9650080
  75.5971280  26.0292600 148.6192100  68.5231260  21.1024690 144.0759570
  69.3926110  21.3849490 144.3595490  68.0321580  21.9160560 143.9608380
  75.6866070  22.4897900 148.1967850  76.1428850  23.3003150 148.4228040
  75.3354280  22.1721040 149.0286340  71.5877850  12.8335550 148.6690370
  71.4592480  12.8253450 149.6175290  70.7639870  13.1718640 148.3181380
  83.1086480  26.2885210 143.8676740  82.8824060  25.5715650 144.4601380
  82.7182680  26.0397650 143.0298490  68.8902510  30.3152070 144.6421200
  69.2500150  30.9141410 143.9878470  68.7494850  30.8611960 145.4156230
  82.6902730  24.2057150 145.5290900  82.4024430  24.6669840 146.3168780
  83.4854900  23.7454920 145.7975120  74.9071130  27.6983270 145.4594870
  74.8981230  28.4312960 144.8439380  73.9869490  27.4514850 145.5521830
  70.5077770  22.9198160 146.2041630  69.9005720  23.6597060 146.2136930
  70.9827120  23.0097520 145.3779830  83.4472590  16.0405920 146.6886080
  82.8185750  16.1451590 145.9744310  82.9524510  16.2602700 147.4779960
  77.8930730  27.7611510 144.1220060  77.9942710  27.5575500 143.1922040
  76.9932470  27.5069790 144.3267840  75.4156620  18.3191870 148.1043960
  74.7072770  18.7878210 148.5457570  75.7001100  17.6613880 148.7389150
  79.4472050  15.0442530 149.5439750  79.3239830  15.0628660 148.5949260
  80.3956610  15.0921470 149.6638150  76.5348840  30.2797830 148.8167730
  76.7890340  30.2419220 147.8947100  75.5861320  30.1531160 148.8095980
  73.6191640  16.6276950 145.4794670  74.4682170  17.0647100 145.4134860
  73.2522910  16.9397210 146.3066730  82.5401420  21.1989710 150.3926240
  81.5991560  21.2139940 150.5673930  82.8545490  20.4125670 150.8386540
  72.5183060  22.8809310 143.9530200  73.2846330  22.7690670 144.5155630
  72.5957750  22.1847280 143.3006970  71.2129820  20.3134380 144.6363090
  71.2933410  19.3661890 144.7480490  72.1049570  20.6441260 144.7423750
  72.0144530  30.4629770 151.7397630  72.7507010  29.9145230 152.0106200
  72.3985450  31.3285780 151.6003620  68.8990010  26.5303340 147.6139140
  67.9729790  26.7724480 147.6044550  69.3646440  27.3577600 147.4923890
  75.1246840  29.6360080 143.5623200  75.9175450  29.9248910 143.1104990
  74.6051190  29.2052250 142.8835680  84.1777010  28.8630210 144.9859940
  83.8918520  28.4495350 144.1714120  83.9796560  29.7917920 144.8660460
  75.6424240  24.8563490 143.4265550  75.5374880  24.2415840 144.1526930
  75.4748460  24.3329380 142.6428560  78.8826970  23.9183520 144.0307540
  78.3337070  24.3652820 144.6750280  79.5046230  23.4132770 144.5545210
  74.5502090  22.8774440 145.9272840  74.9718510  22.7114310 146.7704230
  74.6752930  22.0674670 145.4327980  77.0629730  21.9012050 143.1749940
  77.5835390  21.1861070 142.8091090  77.7098130  22.5397920 143.4750450
  73.4460990  18.9507670 142.8731000  73.2450050  18.0875030 143.2344340
  73.2753040  18.8641030 141.9352600  80.9249300  13.7615900 145.4017880
  81.2051590  12.9183800 145.7577300  80.1515030  13.9939010 145.9156630
  72.2443790  16.0508290 142.8608880  72.5469690  16.0575720 141.9528030
  72.9838380  15.7006150 143.3576540  75.4628720  14.9942910 143.8465080
  75.1150720  14.3166900 143.2667530  75.6641490  14.5332420 144.6608470
  77.6277760  29.9823660 145.4651680  78.5228550  30.3208630 145.4870440
  77.6595390  29.2603070 144.8375960  71.2673920  25.3550710 143.6938680
  71.7048790  25.8980380 144.3496260  71.7521650  24.5297660 143.7035020
  68.4819720  28.1439740 151.1458940  68.8122730  27.2760800 150.9137580
  68.9110720  28.3498260 151.9763900  73.0781640  26.4748750 148.8060910
  72.7777180  26.3513720 149.7064820  72.9719130  25.6157340 148.3976640
  85.8473560  26.2545150 143.5087590  85.0166520  26.3221800 143.9794820
  86.0245390  27.1449270 143.2054450  85.3030020  22.9992630 146.0121790
  86.0648930  23.5689280 146.1181480  85.3184390  22.4319830 146.7830100
  68.8034360  21.5230560 150.2429450  68.1483200  21.2542200 149.5989150
  69.6412310  21.4135040 149.7931430  86.3089990  23.8542730 150.8563720
  86.6798820  23.0710050 150.4499690  86.9491920  24.5431830 150.6781020
  85.3549190  23.2927000 143.1694310  85.6298030  24.2005880 143.0413530
  85.1659930  23.2289530 144.1056300  81.7524800  16.3171850 144.4647940
  82.1709680  16.1302830 143.6244600  81.4460860  15.4650900 144.7750870
  85.2514530  21.2295990 148.1623740  84.8758130  20.4623920 147.7305030
  84.5217650  21.6118690 148.6498670  68.0172440  18.7329490 146.1854780
  67.1136520  18.9959690 146.0106440  68.5013060  19.0040660 145.4054740
  84.5265490  19.4553480 151.4630980  85.0502970  18.9616130 150.8321150
  85.1124910  19.5903840 152.2078550  70.5599650  17.7895030 144.0949160
  71.2691350  17.3678250 143.6096440  69.8439590  17.8570260 143.4632510
  70.2073810  13.8434360 143.1351810  70.9301940  14.3843300 143.4533030
  70.4798330  13.5697780 142.2593350  84.0165460  18.7126830 147.4023390
  84.5124580  18.4797700 148.1872270  83.8181530  17.8738670 146.9861030
  85.4452620  17.3487780 149.9361070  85.3351900  17.1943820 150.8743340
  86.2060210  16.8208720 149.6936480  86.3342890  15.1795700 143.1767210
  87.2592200  15.0476880 142.9685500  86.3118680  15.2588520 144.1303660
  86.4081380  15.9506360 145.8023920  85.6132880  15.8851480 146.3316830
  86.6124660  16.8857000 145.7909270  83.3499800  29.9897910 149.7962310
  83.9458870  29.6682480 149.1196730  83.6077950  29.5169730 150.5875580
  82.8401310  14.2803240 152.2522750  83.2809400  14.2248340 151.4044350
  82.5708900  15.1961250 152.3232930  84.7039880  13.9118480 150.2631570
  84.6428280  12.9679700 150.1162590  85.4831910  14.0198570 150.8085030
  69.0092630  30.0510840 149.2255520  68.8414670  29.4181520 149.9237410
  68.1427140  30.2570240 148.8749710  69.6320650  13.8827620 146.7287380
  70.3900010  13.9956500 146.1551410  69.1697820  14.7196820 146.6830810
  76.1734460  15.9966890 149.7189690  75.3608970  15.6223780 149.3785570
  76.6776100  15.2411970 150.0210880  80.6759440  12.6609340 150.9572760
  81.2788810  13.2329550 151.4321280  79.9352430  13.2248780 150.7346660
  83.8194040  13.0630900 146.2313040  84.0144670  13.9614350 146.4980470
  83.0323910  12.8317980 146.7245990  70.6155330  28.7444070 146.6705660
  70.0902950  29.1252100 145.9667620  70.5399910  29.3694840 147.3915370
  72.0045800  14.4091670 145.2689350  72.5338560  13.6221470 145.1397300
  72.6374120  15.0882860 145.5024880  74.1983640  14.1466810 148.3234740
  73.5686380  13.4454120 148.4904870  73.6588780  14.9070940 148.1067900
  85.3720650  30.3031610 147.9919600  85.5472840  29.6169350 147.3480520
  84.6742220  30.8278660 147.5996270  73.2148300  30.6926450 145.5454910
  73.9467120  30.4085730 144.9978800  73.4741970  30.4539730 146.4354290
  72.3763090  26.8091180 145.5501240  71.7471970  27.2776280 146.0987070
  72.4910920  25.9640400 145.9847430  79.8312810  20.8596840 131.7002440
  79.7506860  19.9451450 131.4294150  79.4177230  21.3563910 130.9942150
  77.9630850  22.6375860 133.5811710  77.1872950  22.1576300 133.8710280
  78.6143780  21.9581510 133.4067870  71.9796680  22.9495670 134.4587470
  71.1481560  22.6944380 134.8583980  72.5877660  23.0206440 135.1945390
  81.9838280  27.0436050 132.3610840  81.5219810  26.2723290 132.6898010
  82.7963830  27.0702120 132.8663290  71.9597940  26.9835760 134.6545490
  72.2625980  26.0933500 134.4755710  72.7041530  27.5405980 134.4267740
  70.3888630  17.9097560 128.2429860  69.5005330  18.2513530 128.1409740
  70.6729820  17.7097880 127.3510690  68.3521640  20.5103210 134.1269560
  68.9237750  19.7425410 134.1273200  68.3523180  20.8091970 133.2176170
  78.2101590  29.3294060 131.9814830  77.5913030  29.7851560 131.4109270
  79.0653370  29.4845520 131.5804530  77.4039840  25.3133050 133.5881870
  77.3348120  24.3722990 133.4271000  78.1659700  25.4034460 134.1604440
  69.5946510  15.9187570 135.9138490  69.4149350  15.0213320 136.1941250
  69.1926590  16.4659440 136.5885440  78.4345010  18.1203430 133.8150800
  78.8109830  17.2475310 133.7024470  78.3364520  18.4562130 132.9241240
  72.5650020  16.4929060 129.2768240  72.6716770  17.3932790 129.5837000
  71.6542380  16.4447030 128.9862890  82.2169130  15.6153870 130.7479140
  83.0378750  15.1250440 130.7904620  82.2503210  16.2051530 131.5010980
  70.2133180  18.4148070 134.5220830  70.8943290  18.6786440 135.1408230
  69.8981230  17.5748940 134.8558840  74.4057750  19.4615430 133.6093420
  74.9135970  19.9596400 134.2498440  74.9370990  18.6850630 133.4332780
  86.5068680  17.6320620 137.3122770  85.8020850  18.0202330 136.7937880
  86.7726600  18.3270910 137.9143700  72.6893850  14.1013990 137.8756840
  72.6912290  14.6186380 137.0702740  71.8598160  13.6244170 137.8526770
  79.0764940  24.2133300 129.3746740  78.4582210  24.6782750 128.8109460
  79.5888190  24.9060780 129.7916250  73.9396700  23.7409170 136.0530340
  73.6066080  24.3678090 136.6951410  74.1163380  24.2671050 135.2732010
  82.4530610  17.5554250 133.5206680  81.7486180  17.8439140 134.1009790
  82.8142770  18.3654360 133.1606240  72.3709180  15.8123950 135.8827290
  72.7125990  16.6566000 135.5881160  71.4324990  15.9607690 135.9992630
  73.1515800  25.7089970 137.8679520  73.7689800  26.3841050 137.5863970
  72.2908920  26.1177950 137.7767020  68.4448140  24.8989830 126.7486370
  68.0676120  25.3876930 126.0171270  68.7021210  25.5715110 127.3792900
  84.0693390  27.1729380 135.7834160  83.3856910  27.8428490 135.7750830
  84.6087680  27.3710030 135.0179020  85.5217530  17.0009040 133.9115890
  84.5742440  17.0348020 134.0431320  85.8467520  17.8147990 134.2965250
  76.0537070  13.3006220 132.2071880  76.3612050  12.7453110 131.4907380
  75.1237770  13.4350680 132.0244870  81.6052130  29.0173510 134.4979340
  81.6179290  28.6135800 133.6301600  81.0527350  29.7920800 134.3940770
  82.8997550  25.7389730 129.5869510  82.7893880  24.7964060 129.7118930
  82.8965800  26.1005370 130.4732270  81.0037570  23.9203350 135.8261950
  81.4206360  23.7063460 134.9915410  81.7277390  24.1776140 136.3970570
  78.4417830  21.3655050 128.9432000  77.5147110  21.2992430 129.1720470
  78.5942650  22.3035180 128.8287240  78.4286910  17.6372050 125.9399160
  77.4890580  17.7986010 126.0251620  78.7470170  18.3557730 125.3935150
  84.9499670  22.3190570 135.9178190  84.1218300  22.3883660 135.4428320
  85.5450150  22.9044880 135.4494020  82.4715120  22.9275350 129.4467250
  81.8527540  22.5894900 128.7993550  82.4539570  22.2835110 130.1546440
  81.9141680  19.1059890 136.8633060  81.5012860  19.9313600 137.1173050
  81.1817630  18.5204930 136.6709420  74.0474470  21.8919790 131.7251730
  73.6431470  21.1797040 131.2297630  74.1337590  21.5473030 132.6139770
  74.5156170  25.5787350 133.8890940  74.2184460  24.9732820 133.2098720
  75.4655990  25.6164660 133.7780300  72.7603090  18.6663000 135.5050770
  73.3117680  18.7758340 134.7304020  73.2746600  19.0400600 136.2206000
  82.6041780  29.1519220 137.5514040  82.1272340  29.9591410 137.3586650
  81.9203570  28.4997550 137.7040250  73.6074600  25.3169040 140.5398740
  72.7103130  25.5409010 140.7872140  73.6327470  25.4403980 139.5910140
  80.6479820  22.1662160 126.4540000  81.0873100  21.3284590 126.3077820
  81.3608240  22.7991560 126.5404140  72.4345820  22.1882360 139.1156110
  72.2953590  23.0605160 139.4843510  71.5527180  21.8455170 138.9704050
  78.7575200  27.1058230 130.4221240  79.1971110  27.8482560 130.0076630
  78.6962090  27.3484800 131.3460200  74.2326170  28.1304060 141.3241260
  74.2041600  28.5347010 140.4569690  74.0691140  27.2014420 141.1612860
  84.2296960  13.4204970 124.7681040  83.9169620  13.5131800 125.6680110
  84.9909430  13.9986000 124.7178470  70.7479100  20.7864770 129.2258380
  70.6276700  21.5126860 128.6139650  70.4379990  20.0167680 128.7486290
  86.1840990  28.9131160 142.6205430  86.6600710  29.3914050 143.2994510
  86.8048150  28.8448650 141.8950930  68.3864470  23.9579910 135.0327020
  68.4644890  24.0928680 134.0882740  69.0006150  23.2495800 135.2255140
  69.6312100  25.6580100 131.4433200  69.2240180  25.7994690 130.5886800
  70.5225110  25.3740260 131.2404410  85.5874240  26.1044010 139.7805440
  85.7137300  25.8655890 138.8622620  85.6295620  25.2728550 140.2527520
  79.4490980  29.8072010 138.3500250  79.9635650  29.7180020 139.1522680
  78.6060060  30.1531710 138.6428160  81.4245380  30.0927350 127.7784250
  81.2646520  29.8030290 128.6766080  81.2592090  29.3167480 127.2429480
  73.9033760  29.8725880 129.5555870  73.7276240  28.9561420 129.3423670
  73.0489500  30.2313170 129.7953670  81.1271510  27.6014910 126.3382250
  80.4336670  27.5992200 125.6784530  81.8694370  27.1774230 125.9076420
  80.6921440  29.2277620 130.4130740  81.1478390  28.4467000 130.7269360
  81.0313960  29.9384440 130.9571920  85.4398250  18.1576470 140.7455180
  84.8242520  18.6656140 140.2170640  85.1194670  17.2574800 140.6881120
  68.4423990  24.9994080 137.5721480  68.6055030  24.5299440 136.7540850
  68.9076440  24.4917640 138.2370320  73.2142760  14.1299840 132.6082050
  72.7710910  14.9109380 132.2766570  73.7727750  14.4529730 133.3152990
  77.5012570  16.9968360 138.2117370  77.0391940  17.2051380 139.0237310
  77.0990680  16.1827710 137.9088040  82.5017080  18.2177310 139.3414030
  81.6510670  17.9183060 139.6623100  82.3418870  18.4619320 138.4297850
  79.5966790  19.7179060 141.4412820  79.9220200  18.8842810 141.1015050
  80.3847120  20.2407580 141.5891150  76.3301580  13.7510540 127.4887880
  75.7055760  13.7470410 128.2141190  76.2431700  12.8841500 127.0923850
  75.2518660  14.6747170 134.4671650  75.5490990  15.5810000 134.3863670
  75.8004220  14.1865950 133.8531220  73.0056980  19.2533410 130.3363300
  72.7797900  19.0370580 131.2409920  72.2249510  19.6861870 129.9909270
  80.2354740  19.2596780 128.9353950  79.6363630  19.9832580 128.7517570
  80.7834350  19.1973560 128.1530400  75.4456190  20.1518990 141.0023570
  75.3499790  19.2113720 140.8523970  76.2888170  20.3734060 140.6071640
  78.8419610  17.8960320 130.9657230  79.2349180  18.2132520 130.1525920
  79.2036460  17.0172200 131.0801750  70.5766730  16.5632660 139.1557350
  70.1830120  17.4107870 139.3630130  69.8885130  15.9259030 139.3465990
  77.1511780  16.6467630 142.2254090  76.4610100  16.4539830 142.8600180
  77.8944080  16.9302270 142.7578390  67.8783780  14.4861120 133.1887430
  67.5896830  15.0563980 133.9012410  68.6229540  14.0065570 133.5518660
  68.0654010  18.4281240 124.3990150  67.9828680  19.3712000 124.5405140
  67.7137070  18.2856150 123.5202500  79.4274750  20.4866070 135.0608010
  78.6955870  20.9952880 135.4098110  79.0299090  19.6696050 134.7596790
  75.8652140  17.1620270 133.4660500  75.8688200  16.7210220 132.6165040
  76.7603260  17.4837600 133.5732320  71.7154520  17.0446760 132.4254710
  71.3754570  17.5221990 133.1821760  70.9531840  16.5911880 132.0655810
  75.9272290  18.1632350 126.4567260  76.0485110  18.1218830 127.4053080
  75.5420800  19.0256500 126.3013990  79.8900660  15.9399750 134.4730950
  79.9073400  16.3908400 135.3172800  79.6416240  15.0405390 134.6864390
  74.9393790  20.4733490 125.8550560  74.3710690  20.0251740 125.2286470
  75.6482790  20.8326270 125.3215710  83.3171410  13.3531930 140.3117330
  83.6417180  12.6221590 140.8375310  83.3527920  13.0345570 139.4098320
  70.0162970  24.3745510 139.7317290  69.6317760  23.7339180 140.3300250
  70.3275160  25.0781630 140.3012020  76.1660110  21.2222050 135.2125910
  76.5330240  20.7480620 135.9587250  75.9765170  22.0963620 135.5534250
  69.0300600  15.9665740 131.3419380  68.7447520  15.6021410 132.1798000
  68.9679460  15.2346200 130.7282520  73.9559480  20.2630690 137.5310120
  73.6516550  21.1422670 137.7560480  74.9105940  20.3230480 137.5667560
  72.4841270  24.4691680 128.1276970  71.7103530  23.9289300 127.9675690
  73.2135900  23.9498290 127.7894730  83.2429250  23.4657040 133.9203360
  83.9628370  23.9612330 133.5299470  83.0411070  22.7874930 133.2757230
  78.7039190  14.8595000 128.0632750  77.8903800  14.3608170 127.9878060
  78.5101140  15.6993250 127.6469100  78.6248050  23.5366100 139.8072360
  78.5585360  22.6161770 139.5529950  77.9953190  23.6341540 140.5217000
  81.4187580  19.2314650 126.3594910  82.3067200  19.5431880 126.1846250
  81.3892670  18.3586900 125.9675490  72.5278670  24.1372060 131.7655780
  73.0457340  23.3340320 131.7112670  72.0762690  24.0751200 132.6072610
  77.4148170  25.4038340 127.0383080  77.7563870  26.1480570 126.5426400
  76.5860880  25.7169460 127.4007910  70.0123210  21.1033430 138.6781480
  69.6538150  21.7687280 139.2654820  69.7177770  20.2716980 139.0494100
  73.2136330  21.5617670 141.5621030  72.9136470  21.7074850 140.6648850
  73.9847570  21.0022960 141.4694420  78.5564780  26.3586670 139.5576160
  78.5709320  25.4267630 139.3395070  77.8489880  26.4446430 140.1965930
  83.6901850  20.5426490 125.8274770  83.6065570  20.9740710 124.9771210
  84.4096040  21.0024840 126.2601590  84.7675990  22.9994010 138.9044740
  84.0424180  23.5922790 138.7074130  85.2951450  22.9917550 138.1058110
  84.7189100  27.3968750 128.5556900  84.0765260  26.7424370 128.8300620
  84.3319760  27.8023840 127.7797570  80.2975580  24.7254180 132.4028590
  80.6499400  24.1282310 131.7429960  79.4137910  24.3998410 132.5736840
  76.3838860  25.4851870 129.8099000  77.0709990  26.0321080 130.1906590
  75.5971280  26.0292600 129.8448610  68.5231260  21.1024690 125.3016080
  69.3926110  21.3849490 125.5852000  68.0321580  21.9160560 125.1864890
  75.6866070  22.4897900 129.4224360  76.1428850  23.3003150 129.6484550
  75.3354280  22.1721040 130.2542850  77.9898680  28.0004240 136.6516660
  78.6340900  28.2063620 137.3290080  78.3528120  27.2392640 136.1987510
  71.5877850  12.8335550 129.8946880  71.4592480  12.8253450 130.8431800
  70.7639870  13.1718640 129.5437890  79.2630760  26.0036590 135.3694110
  79.9052990  25.3029750 135.4826280  79.7880110  26.7835030 135.1891000
  83.1086480  26.2885210 125.0933250  82.8824060  25.5715650 125.6857890
  82.7182680  26.0397650 124.2555000  81.0368380  26.8031490 138.5730170
  81.3724620  27.3898180 139.2508090  80.1168720  26.6724200 138.8027960
  68.8902510  30.3152070 125.8677710  69.2500150  30.9141410 125.2134980
  68.7494850  30.8611960 126.6412740  68.5871780  14.5926670 139.3553580
  67.8730300  14.7923590 139.9606190  69.0066820  13.8166240 139.7268380
  82.6902730  24.2057150 126.7547410  82.4024430  24.6669840 127.5425290
  83.4854900  23.7454920 127.0231630  68.8744370  28.5806930 140.3420110
  68.9835490  27.6401670 140.2015500  68.2224930  28.8461680 139.6933840
  76.8656960  26.8522820 141.7418230  76.5453830  26.1332060 142.2863920
  76.1915320  27.5277890 141.8154290  74.9071130  27.6983270 126.6851380
  74.8981230  28.4312960 126.0695890  73.9869490  27.4514850 126.7778340
  70.5077770  22.9198160 127.4298140  69.9005720  23.6597060 127.4393440
  70.9827120  23.0097520 126.6036340  80.0810560  17.0848980 137.1055030
  80.4491380  16.2644190 137.4334600  79.2208760  17.1450870 137.5210680
  83.4472590  16.0405920 127.9142590  82.8185750  16.1451590 127.2000820
  82.9524510  16.2602700 128.7036470  77.8930730  27.7611510 125.3476570
  77.9942710  27.5575500 124.4178550  76.9932470  27.5069790 125.5524350
  75.4156620  18.3191870 129.3300470  74.7072770  18.7878210 129.7714080
  75.7001100  17.6613880 129.9645660  77.0412550  19.7388570 137.3293000
  77.5397800  20.2134390 137.9944850  77.1835500  18.8152090 137.5363030
  79.4472050  15.0442530 130.7696260  79.3239830  15.0628660 129.8205770
  80.3956610  15.0921470 130.8894660  76.5348840  30.2797830 130.0424240
  76.7890340  30.2419220 129.1203610  75.5861320  30.1531160 130.0352490
  73.6191640  16.6276950 126.7051180  74.4682170  17.0647100 126.6391370
  73.2522910  16.9397210 127.5323240  84.2479410  15.9556530 138.1721390
  83.7453010  16.6961930 138.5115200  85.0636070  16.3440530 137.8558180
  82.5401420  21.1989710 131.6182750  81.5991560  21.2139940 131.7930440
  82.8545490  20.4125670 132.0643050  72.5183060  22.8809310 125.1786710
  73.2846330  22.7690670 125.7412140  72.5957750  22.1847280 124.5263480
  71.2129820  20.3134380 125.8619600  71.2933410  19.3661890 125.9737000
  72.1049570  20.6441260 125.9680260  84.5427000  28.3698560 133.2937010
  84.6674420  29.1929730 133.7660820  85.4092560  28.1589290 132.9461160
  72.0144530  30.4629770 132.9654140  72.7507010  29.9145230 133.2362710
  72.3985450  31.3285780 132.8260130  68.8990010  26.5303340 128.8395650
  67.9729790  26.7724480 128.8301060  69.3646440  27.3577600 128.7180400
  71.0202810  29.6475840 142.1539720  71.8215540  29.9687890 142.5675120
  70.5054630  29.2871420 142.8759630  75.1246840  29.6360080 124.7879710
  75.9175450  29.9248910 124.3361500  74.6051190  29.2052250 124.1092190
  79.8567440  25.7555710 142.1015130  79.2505600  25.7787310 141.3610880
  79.5521550  25.0238750 142.6382380  81.2867810  29.4836000 140.7124540
  82.2389560  29.3994020 140.6624780  81.1396030  30.1477710 141.3858330
  84.1777010  28.8630210 126.2116450  83.8918520  28.4495350 125.3970630
  83.9796560  29.7917920 126.0916970  68.7400620  22.1349300 141.0975770
  69.2439640  21.5556580 141.6692000  68.0008040  22.4189530 141.6352140
  75.6424240  24.8563490 124.6522060  75.5374880  24.2415840 125.3783440
  75.4748460  24.3329380 123.8685070  75.7938560  23.5420290 140.6311290
  75.0284230  24.1105290 140.5465960  75.9754520  23.2496500 139.7379520
  78.8826970  23.9183520 125.2564050  78.3337070  24.3652820 125.9006790
  79.5046230  23.4132770 125.7801720  82.9361910  25.2725620 141.1886310
  83.6771380  25.6101380 140.6853770  82.1734590  25.4417680 140.6356080
  70.7723700  20.2778890 141.9925840  70.8129040  19.9792760 142.9011070
  71.6269200  20.6786500 141.8333360  74.5502090  22.8774440 127.1529350
  74.9718510  22.7114310 127.9960740  74.6752930  22.0674670 126.6584490
  72.7129510  18.8570990 139.9600330  72.1825970  18.3661940 139.3323670
  73.3817580  19.2855190 139.4258260  77.0629730  21.9012050 124.4006450
  77.5835390  21.1861070 124.0347600  77.7098130  22.5397920 124.7006960
  81.6107570  23.3240450 139.7241520  82.0248590  23.4785530 140.5731940
  80.6758570  23.4495670 139.8867300  82.0829740  20.6636610 141.7280670
  82.6650510  19.9088930 141.6401150  82.2591510  21.1944050 140.9512150
  73.2001810  15.8233360 140.0397620  73.1058680  15.2054110 139.3148490
  72.6199200  16.5499650 139.8127530  75.9663250  14.3806600 137.0725010
  75.5180550  14.4030860 136.2270560  75.3328450  13.9825620 137.6695310
  76.3722800  23.2760930 137.6937450  76.7910910  24.1193660 137.5213690
  75.4531430  23.4132970 137.4644230  78.7086700  21.0077110 139.0775290
  78.8282910  20.4118250 139.8170130  79.5680700  21.0446800 138.6576590
  81.0474600  21.5614300 137.6537800  80.5209820  22.0856920 137.0502940
  81.3905940  22.1941690 138.2847530  73.4460990  18.9507670 124.0987510
  73.2450050  18.0875030 124.4600850  73.2753040  18.8641030 123.1609110
  74.2230220  29.5813940 138.8095180  73.6851310  30.3060000 138.4903880
  74.4764180  29.1044280 138.0192520  75.4755470  17.5498460 140.3351110
  76.0655160  17.2414310 141.0228930  74.6575710  17.0778210 140.4911010
  80.2948900  17.1664270 140.5684130  79.6064420  16.5045810 140.5034120
  81.0154920  16.7202540 141.0132590  80.9249300  13.7615900 126.6274390
  81.2051590  12.9183800 126.9833810  80.1515030  13.9939010 127.1413140
  72.2443790  16.0508290 124.0865390  72.5469690  16.0575720 123.1784540
  72.9838380  15.7006150 124.5833050  77.0792430  30.8165150 139.0681830
  77.0051130  31.7200290 139.3754200  76.1771270  30.4977050 139.0403900
  75.4628720  14.9942910 125.0721590  75.1150720  14.3166900 124.4924040
  75.6641490  14.5332420 125.8864980  77.6277760  29.9823660 126.6908190
  78.5228550  30.3208630 126.7126950  77.6595390  29.2603070 126.0632470
  71.2673920  25.3550710 124.9195190  71.7048790  25.8980380 125.5752770
  71.7521650  24.5297660 124.9291530  68.4819720  28.1439740 132.3715450
  68.8122730  27.2760800 132.1394090  68.9110720  28.3498260 133.2020410
  73.0781640  26.4748750 130.0317420  72.7777180  26.3513720 130.9321330
  72.9719130  25.6157340 129.6233150  68.9709930  29.0110330 135.1097080
  68.5340920  29.1911130 135.9421230  69.5387610  29.7684950 134.9678800
  84.6072110  28.5127330 139.3974390  84.0074100  28.5719890 138.6538310
  84.7366010  27.5732310 139.5271240  85.8473560  26.2545150 124.7344100
  85.0166520  26.3221800 125.2051330  86.0245390  27.1449270 124.4310960
  85.3030020  22.9992630 127.2378300  86.0648930  23.5689280 127.3437990
  85.3184390  22.4319830 128.0086610  68.8034360  21.5230560 131.4685960
  68.1483200  21.2542200 130.8245660  69.6412310  21.4135040 131.0187940
  86.3089990  23.8542730 132.0820230  86.6798820  23.0710050 131.6756200
  86.9491920  24.5431830 131.9037530  83.2923750  25.2379310 137.4950550
  82.4783590  25.6676470 137.7576340  83.6997950  25.8497720 136.8819600
  85.3549190  23.2927000 124.3950820  85.6298030  24.2005880 124.2670040
  85.1659930  23.2289530 125.3312810  81.7524800  16.3171850 125.6904450
  82.1709680  16.1302830 124.8501110  81.4460860  15.4650900 126.0007380
  85.2514530  21.2295990 129.3880250  84.8758130  20.4623920 128.9561540
  84.5217650  21.6118690 129.8755180  69.8410290  21.9083130 136.0089300
  70.2083330  21.8210530 136.8885320  69.2721110  21.1449680 135.9096160
  84.6414150  20.3767510 139.0219770  84.4100240  20.1480260 138.1217720
  84.9018700  21.2967060 138.9764660  69.3926290  18.8192220 139.9147720
  68.4982340  18.7858980 140.2541430  69.9323840  19.0179010 140.6798970
  83.0802220  15.6023940 141.7999470  83.9572400  15.6107340 142.1833470
  83.0923060  14.8654780 141.1891820  68.0172440  18.7329490 127.4111290
  67.1136520  18.9959690 127.2362950  68.5013060  19.0040660 126.6311250
  84.5265490  19.4553480 132.6887490  85.0502970  18.9616130 132.0577660
  85.1124910  19.5903840 133.4335060  84.7055210  19.5393350 136.2107040
  83.7557920  19.5056890 136.3252030  84.8868220  20.4493460 135.9756810
  70.5599650  17.7895030 125.3205670  71.2691350  17.3678250 124.8352950
  69.8439590  17.8570260 124.6889020  70.2073810  13.8434360 124.3608320
  70.9301940  14.3843300 124.6789540  70.4798330  13.5697780 123.4849860
  84.0165460  18.7126830 128.6279900  84.5124580  18.4797700 129.4128780
  83.8181530  17.8738670 128.2117540  69.8966000  13.0940550 134.2630940
  70.5442190  12.5437930 133.8226100  70.3167840  13.3483700 135.0846750
  85.4452620  17.3487780 131.1617580  85.3351900  17.1943820 132.0999850
  86.2060210  16.8208720 130.9192990  83.7918340  13.2881910 137.6200580
  84.4290560  13.9016050 137.9859770  83.9393230  13.3242570 136.6749810
  86.3342890  15.1795700 124.4023720  87.2592200  15.0476880 124.1942010
  86.3118680  15.2588520 125.3560170  86.4081380  15.9506360 127.0280430
  85.6132880  15.8851480 127.5573340  86.6124660  16.8857000 127.0165780
  83.3499800  29.9897910 131.0218820  83.9458870  29.6682480 130.3453240
  83.6077950  29.5169730 131.8132090  69.6498000  13.2496220 137.0056260
  69.3012820  13.7060040 137.7714440  69.3185700  12.3553350 137.0878690
  71.2562370  26.4215820 141.1709450  71.2132000  26.0508730 142.0523910
  71.3873380  27.3593390 141.3111270  74.9568400  27.9775410 136.7719170
  74.7159760  28.2449970 135.8849690  75.8971040  28.1481140 136.8270030
  77.1622820  14.4408100 140.5275680  77.1011710  15.0329930 141.2771090
  78.1023200  14.3334060 140.3825940  79.7997380  14.0978160 140.1667970
  80.4137790  14.4157450 139.5049050  80.3446940  13.6126750 140.7863830
  86.2172560  29.9969790 137.5729810  85.7230840  30.3938660 136.8556940
  85.6085850  29.3719000 137.9667090  70.3218640  12.7772420 140.2807030
  70.8701630  12.5960470 139.5173140  70.3873950  11.9866530 140.8163340
  71.0950400  29.3678070 138.2907230  70.5010720  29.2362770 139.0297270
  71.0874240  28.5316210 137.8249330  80.5405420  12.6610300 136.4937260
  79.6665260  12.9945410 136.2910190  80.4316170  12.1883480 137.3189130
  81.4477400  14.8681170 137.8778980  81.1190760  14.0532930 137.4980710
  82.3959700  14.8250980 137.7544670  83.9012010  30.6393210 134.8516550
  83.4414980  31.3909020 134.4774570  83.2724470  29.9199680 134.7931350
  70.7262630  26.7336450 137.2415270  69.9996690  26.1141740 137.1741220
  70.7871780  27.1277060 136.3713350  74.3307730  28.9481450 134.0264680
  74.8472750  28.3368810 133.5012940  74.9805110  29.4510230 134.5175690
  77.0703230  29.8389940 134.8533660  77.3581040  29.5844240 133.9766670
  77.5826450  29.2867300 135.4439230  78.2880240  13.5780140 135.4330170
  77.5052030  14.0525640 135.7126930  77.9943170  12.6734970 135.3243350
  82.8401310  14.2803240 133.4779260  83.2809400  14.2248340 132.6300860
  82.5708900  15.1961250 133.5489440  84.7039880  13.9118480 131.4888080
  84.6428280  12.9679700 131.3419100  85.4831910  14.0198570 132.0341540
  69.0092630  30.0510840 130.4512030  68.8414670  29.4181520 131.1493920
  68.1427140  30.2570240 130.1006220  69.6320650  13.8827620 127.9543890
  70.3900010  13.9956500 127.3807920  69.1697820  14.7196820 127.9087320
  76.1734460  15.9966890 130.9446200  75.3608970  15.6223780 130.6042080
  76.6776100  15.2411970 131.2467390  80.6759440  12.6609340 132.1829270
  81.2788810  13.2329550 132.6577790  79.9352430  13.2248780 131.9603170
  83.8194040  13.0630900 127.4569550  84.0144670  13.9614350 127.7236980
  83.0323910  12.8317980 127.9502500  70.6155330  28.7444070 127.8962170
  70.0902950  29.1252100 127.1924130  70.5399910  29.3694840 128.6171880
  72.0045800  14.4091670 126.4945860  72.5338560  13.6221470 126.3653810
  72.6374120  15.0882860 126.7281390  74.1983640  14.1466810 129.5491250
  73.5686380  13.4454120 129.7161380  73.6588780  14.9070940 129.3324410
  77.1375590  30.7606040 142.2201860  78.0642900  30.5250310 142.2637820
  77.1226020  31.5878040 141.7387890  85.3720650  30.3031610 129.2176110
  85.5472840  29.6169350 128.5737030  84.6742220  30.8278660 128.8252780
  74.3239200  13.4250790 141.9843740  74.0423470  13.9284390 141.2204560
  74.7058900  12.6272540 141.6185870  73.2148300  30.6926450 126.7711420
  73.9467120  30.4085730 126.2235310  73.4741970  30.4539730 127.6610800
  72.3763090  26.8091180 126.7757750  71.7471970  27.2776280 127.3243580
  72.4910920  25.9640400 127.2103940  80.9254660  12.8404370 142.5624210
  80.8120110  13.1598980 143.4575730  81.7424400  13.2416880 142.2661490
  83.7053150  29.9875900 142.0442900  84.4978470  29.4925130 141.8368860
  83.9986300  30.6666040 142.6518510  79.8312810  20.8596840 112.9258950
  79.7506860  19.9451450 112.6550660  79.4177230  21.3563910 112.2198660
  77.9630850  22.6375860 114.8068220  77.1872950  22.1576300 115.0966790
  78.6143780  21.9581510 114.6324380  71.9796680  22.9495670 115.6843980
  71.1481560  22.6944380 116.0840490  72.5877660  23.0206440 116.4201900
  81.9838280  27.0436050 113.5867350  81.5219810  26.2723290 113.9154520
  82.7963830  27.0702120 114.0919800  71.9597940  26.9835760 115.8802000
  72.2625980  26.0933500 115.7012220  72.7041530  27.5405980 115.6524250
  70.3888630  17.9097560 109.4686370  69.5005330  18.2513530 109.3666250
  70.6729820  17.7097880 108.5767200  68.3521640  20.5103210 115.3526070
  68.9237750  19.7425410 115.3529710  68.3523180  20.8091970 114.4432680
  78.2101590  29.3294060 113.2071340  77.5913030  29.7851560 112.6365780
  79.0653370  29.4845520 112.8061040  77.4039840  25.3133050 114.8138380
  77.3348120  24.3722990 114.6527510  78.1659700  25.4034460 115.3860950
  69.5946510  15.9187570 117.1395000  69.4149350  15.0213320 117.4197760
  69.1926590  16.4659440 117.8141950  78.4345010  18.1203430 115.0407310
  78.8109830  17.2475310 114.9280980  78.3364520  18.4562130 114.1497750
  72.5650020  16.4929060 110.5024750  72.6716770  17.3932790 110.8093510
  71.6542380  16.4447030 110.2119400  82.2169130  15.6153870 111.9735650
  83.0378750  15.1250440 112.0161130  82.2503210  16.2051530 112.7267490
  70.2133180  18.4148070 115.7477340  70.8943290  18.6786440 116.3664740
  69.8981230  17.5748940 116.0815350  74.4057750  19.4615430 114.8349930
  74.9135970  19.9596400 115.4754950  74.9370990  18.6850630 114.6589290
  86.5068680  17.6320620 118.5379280  85.8020850  18.0202330 118.0194390
  86.7726600  18.3270910 119.1400210  72.6893850  14.1013990 119.1013350
  72.6912290  14.6186380 118.2959250  71.8598160  13.6244170 119.0783280
  79.0764940  24.2133300 110.6003250  78.4582210  24.6782750 110.0365970
  79.5888190  24.9060780 111.0172760  73.9396700  23.7409170 117.2786850
  73.6066080  24.3678090 117.9207920  74.1163380  24.2671050 116.4988520
  82.4530610  17.5554250 114.7463190  81.7486180  17.8439140 115.3266300
  82.8142770  18.3654360 114.3862750  72.3709180  15.8123950 117.1083800
  72.7125990  16.6566000 116.8137670  71.4324990  15.9607690 117.2249140
  73.1515800  25.7089970 119.0936030  73.7689800  26.3841050 118.8120480
  72.2908920  26.1177950 119.0023530  68.4448140  24.8989830 107.9742880
  68.0676120  25.3876930 107.2427780  68.7021210  25.5715110 108.6049410
  84.0693390  27.1729380 117.0090670  83.3856910  27.8428490 117.0007340
  84.6087680  27.3710030 116.2435530  85.5217530  17.0009040 115.1372400
  84.5742440  17.0348020 115.2687830  85.8467520  17.8147990 115.5221760
  76.0537070  13.3006220 113.4328390  76.3612050  12.7453110 112.7163890
  75.1237770  13.4350680 113.2501380  81.6052130  29.0173510 115.7235850
  81.6179290  28.6135800 114.8558110  81.0527350  29.7920800 115.6197280
  82.8997550  25.7389730 110.8126020  82.7893880  24.7964060 110.9375440
  82.8965800  26.1005370 111.6988780  81.0037570  23.9203350 117.0518460
  81.4206360  23.7063460 116.2171920  81.7277390  24.1776140 117.6227080
  78.4417830  21.3655050 110.1688510  77.5147110  21.2992430 110.3976980
  78.5942650  22.3035180 110.0543750  78.4286910  17.6372050 107.1655670
  77.4890580  17.7986010 107.2508130  78.7470170  18.3557730 106.6191660
  84.9499670  22.3190570 117.1434700  84.1218300  22.3883660 116.6684830
  85.5450150  22.9044880 116.6750530  82.4715120  22.9275350 110.6723760
  81.8527540  22.5894900 110.0250060  82.4539570  22.2835110 111.3802950
  81.9141680  19.1059890 118.0889570  81.5012860  19.9313600 118.3429560
  81.1817630  18.5204930 117.8965930  74.0474470  21.8919790 112.9508240
  73.6431470  21.1797040 112.4554140  74.1337590  21.5473030 113.8396280
  74.5156170  25.5787350 115.1147450  74.2184460  24.9732820 114.4355230
  75.4655990  25.6164660 115.0036810  72.7603090  18.6663000 116.7307280
  73.3117680  18.7758340 115.9560530  73.2746600  19.0400600 117.4462510
  82.6041780  29.1519220 118.7770550  82.1272340  29.9591410 118.5843160
  81.9203570  28.4997550 118.9296760  73.6074600  25.3169040 121.7655250
  72.7103130  25.5409010 122.0128650  73.6327470  25.4403980 120.8166650
  80.6479820  22.1662160 107.6796510  81.0873100  21.3284590 107.5334330
  81.3608240  22.7991560 107.7660650  72.4345820  22.1882360 120.3412620
  72.2953590  23.0605160 120.7100020  71.5527180  21.8455170 120.1960560
  78.7575200  27.1058230 111.6477750  79.1971110  27.8482560 111.2333140
  78.6962090  27.3484800 112.5716710  74.2326170  28.1304060 122.5497770
  74.2041600  28.5347010 121.6826200  74.0691140  27.2014420 122.3869370
  84.2296960  13.4204970 105.9937550  83.9169620  13.5131800 106.8936620
  84.9909430  13.9986000 105.9434980  70.7479100  20.7864770 110.4514890
  70.6276700  21.5126860 109.8396160  70.4379990  20.0167680 109.9742800
  86.1840990  28.9131160 123.8461940  86.6600710  29.3914050 124.5251020
  86.8048150  28.8448650 123.1207440  68.3864470  23.9579910 116.2583530
  68.4644890  24.0928680 115.3139250  69.0006150  23.2495800 116.4511650
  69.6312100  25.6580100 112.6689710  69.2240180  25.7994690 111.8143310
  70.5225110  25.3740260 112.4660920  85.5874240  26.1044010 121.0061950
  85.7137300  25.8655890 120.0879130  85.6295620  25.2728550 121.4784030
  79.4490980  29.8072010 119.5756760  79.9635650  29.7180020 120.3779190
  78.6060060  30.1531710 119.8684670  81.4245380  30.0927350 109.0040760
  81.2646520  29.8030290 109.9022590  81.2592090  29.3167480 108.4685990
  81.1271510  27.6014910 107.5638760  80.4336670  27.5992200 106.9041040
  81.8694370  27.1774230 107.1332930  80.6921440  29.2277620 111.6387250
  81.1478390  28.4467000 111.9525870  81.0313960  29.9384440 112.1828430
  85.4398250  18.1576470 121.9711690  84.8242520  18.6656140 121.4427150
  85.1194670  17.2574800 121.9137630  68.4423990  24.9994080 118.7977990
  68.6055030  24.5299440 117.9797360  68.9076440  24.4917640 119.4626830
  73.2142760  14.1299840 113.8338560  72.7710910  14.9109380 113.5023080
  73.7727750  14.4529730 114.5409500  77.5012570  16.9968360 119.4373880
  77.0391940  17.2051380 120.2493820  77.0990680  16.1827710 119.1344550
  82.5017080  18.2177310 120.5670540  81.6510670  17.9183060 120.8879610
  82.3418870  18.4619320 119.6554360  79.5966790  19.7179060 122.6669330
  79.9220200  18.8842810 122.3271560  80.3847120  20.2407580 122.8147660
  76.3301580  13.7510540 108.7144390  75.7055760  13.7470410 109.4397700
  76.2431700  12.8841500 108.3180360  75.2518660  14.6747170 115.6928160
  75.5490990  15.5810000 115.6120180  75.8004220  14.1865950 115.0787730
  73.0056980  19.2533410 111.5619810  72.7797900  19.0370580 112.4666430
  72.2249510  19.6861870 111.2165780  80.2354740  19.2596780 110.1610460
  79.6363630  19.9832580 109.9774080  80.7834350  19.1973560 109.3786910
  75.4456190  20.1518990 122.2280080  75.3499790  19.2113720 122.0780480
  76.2888170  20.3734060 121.8328150  78.8419610  17.8960320 112.1913740
  79.2349180  18.2132520 111.3782430  79.2036460  17.0172200 112.3058260
  70.5766730  16.5632660 120.3813860  70.1830120  17.4107870 120.5886640
  69.8885130  15.9259030 120.5722500  77.1511780  16.6467630 123.4510600
  76.4610100  16.4539830 124.0856690  77.8944080  16.9302270 123.9834900
  67.8783780  14.4861120 114.4143940  67.5896830  15.0563980 115.1268920
  68.6229540  14.0065570 114.7775170  68.0654010  18.4281240 105.6246660
  67.9828680  19.3712000 105.7661650  67.7137070  18.2856150 104.7459010
  79.4274750  20.4866070 116.2864520  78.6955870  20.9952880 116.6354620
  79.0299090  19.6696050 115.9853300  75.8652140  17.1620270 114.6917010
  75.8688200  16.7210220 113.8421550  76.7603260  17.4837600 114.7988830
  71.7154520  17.0446760 113.6511220  71.3754570  17.5221990 114.4078270
  70.9531840  16.5911880 113.2912320  75.9272290  18.1632350 107.6823770
  76.0485110  18.1218830 108.6309590  75.5420800  19.0256500 107.5270500
  79.8900660  15.9399750 115.6987460  79.9073400  16.3908400 116.5429310
  79.6416240  15.0405390 115.9120900  74.9393790  20.4733490 107.0807070
  74.3710690  20.0251740 106.4542980  75.6482790  20.8326270 106.5472220
  83.3171410  13.3531930 121.5373840  83.6417180  12.6221590 122.0631820
  83.3527920  13.0345570 120.6354830  70.0162970  24.3745510 120.9573800
  69.6317760  23.7339180 121.5556760  70.3275160  25.0781630 121.5268530
  76.1660110  21.2222050 116.4382420  76.5330240  20.7480620 117.1843760
  75.9765170  22.0963620 116.7790760  69.0300600  15.9665740 112.5675890
  68.7447520  15.6021410 113.4054510  68.9679460  15.2346200 111.9539030
  73.9559480  20.2630690 118.7566630  73.6516550  21.1422670 118.9816990
  74.9105940  20.3230480 118.7924070  72.4841270  24.4691680 109.3533480
  71.7103530  23.9289300 109.1932200  73.2135900  23.9498290 109.0151240
  83.2429250  23.4657040 115.1459870  83.9628370  23.9612330 114.7555980
  83.0411070  22.7874930 114.5013740  78.7039190  14.8595000 109.2889260
  77.8903800  14.3608170 109.2134570  78.5101140  15.6993250 108.8725610
  78.6248050  23.5366100 121.0328870  78.5585360  22.6161770 120.7786460
  77.9953190  23.6341540 121.7473510  81.4187580  19.2314650 107.5851420
  82.3067200  19.5431880 107.4102760  81.3892670  18.3586900 107.1932000
  72.5278670  24.1372060 112.9912290  73.0457340  23.3340320 112.9369180
  72.0762690  24.0751200 113.8329120  77.4148170  25.4038340 108.2639590
  77.7563870  26.1480570 107.7682910  76.5860880  25.7169460 108.6264420
  70.0123210  21.1033430 119.9037990  69.6538150  21.7687280 120.4911330
  69.7177770  20.2716980 120.2750610  73.2136330  21.5617670 122.7877540
  72.9136470  21.7074850 121.8905360  73.9847570  21.0022960 122.6950930
  78.5564780  26.3586670 120.7832670  78.5709320  25.4267630 120.5651580
  77.8489880  26.4446430 121.4222440  83.6901850  20.5426490 107.0531280
  83.6065570  20.9740710 106.2027720  84.4096040  21.0024840 107.4858100
  84.7675990  22.9994010 120.1301250  84.0424180  23.5922790 119.9330640
  85.2951450  22.9917550 119.3314620  84.7189100  27.3968750 109.7813410
  84.0765260  26.7424370 110.0557130  84.3319760  27.8023840 109.0054080
  80.2975580  24.7254180 113.6285100  80.6499400  24.1282310 112.9686470
  79.4137910  24.3998410 113.7993350  76.3838860  25.4851870 111.0355510
  77.0709990  26.0321080 111.4163100  75.5971280  26.0292600 111.0705120
  68.5231260  21.1024690 106.5272590  69.3926110  21.3849490 106.8108510
  68.0321580  21.9160560 106.4121400  75.6866070  22.4897900 110.6480870
  76.1428850  23.3003150 110.8741060  75.3354280  22.1721040 111.4799360
  77.9898680  28.0004240 117.8773170  78.6340900  28.2063620 118.5546590
  78.3528120  27.2392640 117.4244020  71.5877850  12.8335550 111.1203390
  71.4592480  12.8253450 112.0688310  70.7639870  13.1718640 110.7694400
  79.2630760  26.0036590 116.5950620  79.9052990  25.3029750 116.7082790
  79.7880110  26.7835030 116.4147510  83.1086480  26.2885210 106.3189760
  82.8824060  25.5715650 106.9114400  82.7182680  26.0397650 105.4811510
  81.0368380  26.8031490 119.7986680  81.3724620  27.3898180 120.4764600
  80.1168720  26.6724200 120.0284470  68.8902510  30.3152070 107.0934220
  69.2500150  30.9141410 106.4391490  68.7494850  30.8611960 107.8669250
  68.5871780  14.5926670 120.5810090  67.8730300  14.7923590 121.1862700
  69.0066820  13.8166240 120.9524890  82.6902730  24.2057150 107.9803920
  82.4024430  24.6669840 108.7681800  83.4854900  23.7454920 108.2488140
  68.8744370  28.5806930 121.5676620  68.9835490  27.6401670 121.4272010
  68.2224930  28.8461680 120.9190350  76.8656960  26.8522820 122.9674740
  76.5453830  26.1332060 123.5120430  76.1915320  27.5277890 123.0410800
  70.5077770  22.9198160 108.6554650  69.9005720  23.6597060 108.6649950
  70.9827120  23.0097520 107.8292850  80.0810560  17.0848980 118.3311540
  80.4491380  16.2644190 118.6591110  79.2208760  17.1450870 118.7467190
  83.4472590  16.0405920 109.1399100  82.8185750  16.1451590 108.4257330
  82.9524510  16.2602700 109.9292980  77.8930730  27.7611510 106.5733080
  77.9942710  27.5575500 105.6435060  76.9932470  27.5069790 106.7780860
  75.4156620  18.3191870 110.5556980  74.7072770  18.7878210 110.9970590
  75.7001100  17.6613880 111.1902170  77.0412550  19.7388570 118.5549510
  77.5397800  20.2134390 119.2201360  77.1835500  18.8152090 118.7619540
  79.4472050  15.0442530 111.9952770  79.3239830  15.0628660 111.0462280
  80.3956610  15.0921470 112.1151170  73.6191640  16.6276950 107.9307690
  74.4682170  17.0647100 107.8647880  73.2522910  16.9397210 108.7579750
  84.2479410  15.9556530 119.3977900  83.7453010  16.6961930 119.7371710
  85.0636070  16.3440530 119.0814690  82.5401420  21.1989710 112.8439260
  81.5991560  21.2139940 113.0186950  82.8545490  20.4125670 113.2899560
  72.5183060  22.8809310 106.4043220  73.2846330  22.7690670 106.9668650
  72.5957750  22.1847280 105.7519990  71.2129820  20.3134380 107.0876110
  71.2933410  19.3661890 107.1993510  72.1049570  20.6441260 107.1936770
  84.5427000  28.3698560 114.5193520  84.6674420  29.1929730 114.9917330
  85.4092560  28.1589290 114.1717670  68.8990010  26.5303340 110.0652160
  67.9729790  26.7724480 110.0557570  69.3646440  27.3577600 109.9436910
  79.8567440  25.7555710 123.3271640  79.2505600  25.7787310 122.5867390
  79.5521550  25.0238750 123.8638890  81.2867810  29.4836000 121.9381050
  82.2389560  29.3994020 121.8881290  81.1396030  30.1477710 122.6114840
  84.1777010  28.8630210 107.4372960  83.8918520  28.4495350 106.6227140
  83.9796560  29.7917920 107.3173480  68.7400620  22.1349300 122.3232280
  69.2439640  21.5556580 122.8948510  68.0008040  22.4189530 122.8608650
  75.6424240  24.8563490 105.8778570  75.5374880  24.2415840 106.6039950
  75.4748460  24.3329380 105.0941580  75.7938560  23.5420290 121.8567800
  75.0284230  24.1105290 121.7722470  75.9754520  23.2496500 120.9636030
  78.8826970  23.9183520 106.4820560  78.3337070  24.3652820 107.1263300
  79.5046230  23.4132770 107.0058230  82.9361910  25.2725620 122.4142820
  83.6771380  25.6101380 121.9110280  82.1734590  25.4417680 121.8612590
  70.7723700  20.2778890 123.2182350  70.8129040  19.9792760 124.1267580
  71.6269200  20.6786500 123.0589870  74.5502090  22.8774440 108.3785860
  74.9718510  22.7114310 109.2217250  74.6752930  22.0674670 107.8841000
  72.7129510  18.8570990 121.1856840  72.1825970  18.3661940 120.5580180
  73.3817580  19.2855190 120.6514770  77.0629730  21.9012050 105.6262960
  77.5835390  21.1861070 105.2604110  77.7098130  22.5397920 105.9263470
  81.6107570  23.3240450 120.9498030  82.0248590  23.4785530 121.7988450
  80.6758570  23.4495670 121.1123810  82.0829740  20.6636610 122.9537180
  82.6650510  19.9088930 122.8657660  82.2591510  21.1944050 122.1768660
  73.2001810  15.8233360 121.2654130  73.1058680  15.2054110 120.5405000
  72.6199200  16.5499650 121.0384040  75.9663250  14.3806600 118.2981520
  75.5180550  14.4030860 117.4527070  75.3328450  13.9825620 118.8951820
  76.3722800  23.2760930 118.9193960  76.7910910  24.1193660 118.7470200
  75.4531430  23.4132970 118.6900740  78.7086700  21.0077110 120.3031800
  78.8282910  20.4118250 121.0426640  79.5680700  21.0446800 119.8833100
  81.0474600  21.5614300 118.8794310  80.5209820  22.0856920 118.2759450
  81.3905940  22.1941690 119.5104040  73.4460990  18.9507670 105.3244020
  73.2450050  18.0875030 105.6857360  73.2753040  18.8641030 104.3865620
  75.4755470  17.5498460 121.5607620  76.0655160  17.2414310 122.2485440
  74.6575710  17.0778210 121.7167520  80.2948900  17.1664270 121.7940640
  79.6064420  16.5045810 121.7290630  81.0154920  16.7202540 122.2389100
  80.9249300  13.7615900 107.8530900  81.2051590  12.9183800 108.2090320
  80.1515030  13.9939010 108.3669650  72.2443790  16.0508290 105.3121900
  72.5469690  16.0575720 104.4041050  72.9838380  15.7006150 105.8089560
  77.0792430  30.8165150 120.2938340  77.0051130  31.7200290 120.6010710
  76.1771270  30.4977050 120.2660410  75.4628720  14.9942910 106.2978100
  75.1150720  14.3166900 105.7180550  75.6641490  14.5332420 107.1121490
  77.6277760  29.9823660 107.9164700  78.5228550  30.3208630 107.9383460
  77.6595390  29.2603070 107.2888980  71.2673920  25.3550710 106.1451700
  71.7048790  25.8980380 106.8009280  71.7521650  24.5297660 106.1548040
  68.4819720  28.1439740 113.5971960  68.8122730  27.2760800 113.3650600
  68.9110720  28.3498260 114.4276920  68.9709930  29.0110330 116.3353590
  68.5340920  29.1911130 117.1677740  69.5387610  29.7684950 116.1935310
  84.6072110  28.5127330 120.6230900  84.0074100  28.5719890 119.8794820
  84.7366010  27.5732310 120.7527750  85.8473560  26.2545150 105.9600610
  85.0166520  26.3221800 106.4307840  86.0245390  27.1449270 105.6567470
  85.3030020  22.9992630 108.4634810  86.0648930  23.5689280 108.5694500
  85.3184390  22.4319830 109.2343120  68.8034360  21.5230560 112.6942470
  68.1483200  21.2542200 112.0502170  69.6412310  21.4135040 112.2444450
  86.3089990  23.8542730 113.3076740  86.6798820  23.0710050 112.9012710
  86.9491920  24.5431830 113.1294040  83.2923750  25.2379310 118.7207060
  82.4783590  25.6676470 118.9832850  83.6997950  25.8497720 118.1076110
  81.7524800  16.3171850 106.9160960  82.1709680  16.1302830 106.0757620
  81.4460860  15.4650900 107.2263890  85.2514530  21.2295990 110.6136760
  84.8758130  20.4623920 110.1818050  84.5217650  21.6118690 111.1011690
  69.8410290  21.9083130 117.2345810  70.2083330  21.8210530 118.1141830
  69.2721110  21.1449680 117.1352670  84.6414150  20.3767510 120.2476280
  84.4100240  20.1480260 119.3474230  84.9018700  21.2967060 120.2021170
  69.3926290  18.8192220 121.1404230  68.4982340  18.7858980 121.4797940
  69.9323840  19.0179010 121.9055480  83.0802220  15.6023940 123.0255980
  83.9572400  15.6107340 123.4089980  83.0923060  14.8654780 122.4148330
  68.0172440  18.7329490 108.6367800  67.1136520  18.9959690 108.4619460
  68.5013060  19.0040660 107.8567760  84.5265490  19.4553480 113.9144000
  85.0502970  18.9616130 113.2834170  85.1124910  19.5903840 114.6591570
  84.7055210  19.5393350 117.4363550  83.7557920  19.5056890 117.5508540
  84.8868220  20.4493460 117.2013320  70.5599650  17.7895030 106.5462180
  71.2691350  17.3678250 106.0609460  69.8439590  17.8570260 105.9145530
  70.2073810  13.8434360 105.5864830  70.9301940  14.3843300 105.9046050
  70.4798330  13.5697780 104.7106370  84.0165460  18.7126830 109.8536410
  84.5124580  18.4797700 110.6385290  83.8181530  17.8738670 109.4374050
  69.8966000  13.0940550 115.4887450  70.5442190  12.5437930 115.0482610
  70.3167840  13.3483700 116.3103260  85.4452620  17.3487780 112.3874090
  85.3351900  17.1943820 113.3256360  86.2060210  16.8208720 112.1449500
  83.7918340  13.2881910 118.8457090  84.4290560  13.9016050 119.2116280
  83.9393230  13.3242570 117.9006320  86.3342890  15.1795700 105.6280230
  87.2592200  15.0476880 105.4198520  86.3118680  15.2588520 106.5816680
  86.4081380  15.9506360 108.2536940  85.6132880  15.8851480 108.7829850
  86.6124660  16.8857000 108.2422290  83.3499800  29.9897910 112.2475330
  83.9458870  29.6682480 111.5709750  83.6077950  29.5169730 113.0388600
  69.6498000  13.2496220 118.2312770  69.3012820  13.7060040 118.9970950
  69.3185700  12.3553350 118.3135200  71.2562370  26.4215820 122.3965960
  71.2132000  26.0508730 123.2780420  71.3873380  27.3593390 122.5367780
  74.9568400  27.9775410 117.9975680  74.7159760  28.2449970 117.1106200
  75.8971040  28.1481140 118.0526540  77.1622820  14.4408100 121.7532190
  77.1011710  15.0329930 122.5027600  78.1023200  14.3334060 121.6082450
  79.7997380  14.0978160 121.3924480  80.4137790  14.4157450 120.7305560
  80.3446940  13.6126750 122.0120340  86.2172560  29.9969790 118.7986320
  85.7230840  30.3938660 118.0813450  85.6085850  29.3719000 119.1923600
  70.3218640  12.7772420 121.5063540  70.8701630  12.5960470 120.7429650
  70.3873950  11.9866530 122.0419850  80.5405420  12.6610300 117.7193770
  79.6665260  12.9945410 117.5166700  80.4316170  12.1883480 118.5445640
  81.4477400  14.8681170 119.1035490  81.1190760  14.0532930 118.7237220
  82.3959700  14.8250980 118.9801180  83.9012010  30.6393210 116.0773060
  83.4414980  31.3909020 115.7031080  83.2724470  29.9199680 116.0187860
  70.7262630  26.7336450 118.4671780  69.9996690  26.1141740 118.3997730
  70.7871780  27.1277060 117.5969860  77.0703230  29.8389940 116.0790170
  77.3581040  29.5844240 115.2023180  77.5826450  29.2867300 116.6695740
  78.2880240  13.5780140 116.6586680  77.5052030  14.0525640 116.9383440
  77.9943170  12.6734970 116.5499860  82.8401310  14.2803240 114.7035770
  83.2809400  14.2248340 113.8557370  82.5708900  15.1961250 114.7745950
  84.7039880  13.9118480 112.7144590  84.6428280  12.9679700 112.5675610
  85.4831910  14.0198570 113.2598050  69.6320650  13.8827620 109.1800400
  70.3900010  13.9956500 108.6064430  69.1697820  14.7196820 109.1343830
  76.1734460  15.9966890 112.1702710  75.3608970  15.6223780 111.8298590
  76.6776100  15.2411970 112.4723900  80.6759440  12.6609340 113.4085780
  81.2788810  13.2329550 113.8834300  79.9352430  13.2248780 113.1859680
  83.8194040  13.0630900 108.6826060  84.0144670  13.9614350 108.9493490
  83.0323910  12.8317980 109.1759010  72.0045800  14.4091670 107.7202370
  72.5338560  13.6221470 107.5910320  72.6374120  15.0882860 107.9537900
  74.1983640  14.1466810 110.7747760  73.5686380  13.4454120 110.9417890
  73.6588780  14.9070940 110.5580920  77.1375590  30.7606040 123.4458370
  78.0642900  30.5250310 123.4894330  77.1226020  31.5878040 122.9644400
  85.3720650  30.3031610 110.4432620  85.5472840  29.6169350 109.7993540
  84.6742220  30.8278660 110.0509290  74.3239200  13.4250790 123.2100250
  74.0423470  13.9284390 122.4461070  74.7058900  12.6272540 122.8442380
  80.9254660  12.8404370 123.7880720  80.8120110  13.1598980 124.6832240
  81.7424400  13.2416880 123.4918000  83.7053150  29.9875900 123.2699410
  84.4978470  29.4925130 123.0625370  83.9986300  30.6666040 123.8775020
  71.9796680  22.9495670  96.9100490  71.1481560  22.6944380  97.3097000
  72.5877660  23.0206440  97.6458410  71.9597940  26.9835760  97.1058510
  72.2625980  26.0933500  96.9268730  72.7041530  27.5405980  96.8780760
  70.3888630  17.9097560  90.6942880  69.5005330  18.2513530  90.5922760
  70.6729820  17.7097880  89.8023710  68.3521640  20.5103210  96.5782580
  68.9237750  19.7425410  96.5786220  68.3523180  20.8091970  95.6689190
  69.5946510  15.9187570  98.3651510  69.4149350  15.0213320  98.6454270
  69.1926590  16.4659440  99.0398460  72.5650020  16.4929060  91.7281260
  72.6716770  17.3932790  92.0350020  71.6542380  16.4447030  91.4375910
  70.2133180  18.4148070  96.9733850  70.8943290  18.6786440  97.5921250
  69.8981230  17.5748940  97.3071860  74.4057750  19.4615430  96.0606440
  74.9135970  19.9596400  96.7011460  74.9370990  18.6850630  95.8845800
  86.5068680  17.6320620  99.7635790  85.8020850  18.0202330  99.2450900
  86.7726600  18.3270910 100.3656720  72.6893850  14.1013990 100.3269860
  72.6912290  14.6186380  99.5215760  71.8598160  13.6244170 100.3039790
  72.3709180  15.8123950  98.3340310  72.7125990  16.6566000  98.0394180
  71.4324990  15.9607690  98.4505650  73.1515800  25.7089970 100.3192540
  73.7689800  26.3841050 100.0376990  72.2908920  26.1177950 100.2280040
  85.5217530  17.0009040  96.3628910  84.5742440  17.0348020  96.4944340
  85.8467520  17.8147990  96.7478270  76.0537070  13.3006220  94.6584900
  76.3612050  12.7453110  93.9420400  75.1237770  13.4350680  94.4757890
  78.4417830  21.3655050  91.3945020  77.5147110  21.2992430  91.6233490
  78.5942650  22.3035180  91.2800260  78.4286910  17.6372050  88.3912180
  77.4890580  17.7986010  88.4764640  78.7470170  18.3557730  87.8448170
  72.7603090  18.6663000  97.9563790  73.3117680  18.7758340  97.1817040
  73.2746600  19.0400600  98.6719020  73.6074600  25.3169040 102.9911760
  72.7103130  25.5409010 103.2385160  73.6327470  25.4403980 102.0423160
  72.4345820  22.1882360 101.5669130  72.2953590  23.0605160 101.9356530
  71.5527180  21.8455170 101.4217070  84.2296960  13.4204970  87.2194060
  83.9169620  13.5131800  88.1193130  84.9909430  13.9986000  87.1691490
  70.7479100  20.7864770  91.6771400  70.6276700  21.5126860  91.0652670
  70.4379990  20.0167680  91.1999310  86.1840990  28.9131160 105.0718450
  86.6600710  29.3914050 105.7507530  86.8048150  28.8448650 104.3463950
  68.3864470  23.9579910  97.4840040  68.4644890  24.0928680  96.5395760
  69.0006150  23.2495800  97.6768160  81.4245380  30.0927350  90.2297270
  81.2646520  29.8030290  91.1279100  81.2592090  29.3167480  89.6942500
  80.6921440  29.2277620  92.8643760  81.1478390  28.4467000  93.1782380
  81.0313960  29.9384440  93.4084940  68.4423990  24.9994080 100.0234500
  68.6055030  24.5299440  99.2053870  68.9076440  24.4917640 100.6883340
  73.2142760  14.1299840  95.0595070  72.7710910  14.9109380  94.7279590
  73.7727750  14.4529730  95.7666010  77.5012570  16.9968360 100.6630390
  77.0391940  17.2051380 101.4750330  77.0990680  16.1827710 100.3601060
  76.3301580  13.7510540  89.9400900  75.7055760  13.7470410  90.6654210
  76.2431700  12.8841500  89.5436870  75.2518660  14.6747170  96.9184670
  75.5490990  15.5810000  96.8376690  75.8004220  14.1865950  96.3044240
  73.0056980  19.2533410  92.7876320  72.7797900  19.0370580  93.6922940
  72.2249510  19.6861870  92.4422290  75.4456190  20.1518990 103.4536590
  75.3499790  19.2113720 103.3036990  76.2888170  20.3734060 103.0584660
  70.5766730  16.5632660 101.6070370  70.1830120  17.4107870 101.8143150
  69.8885130  15.9259030 101.7979010  77.1511780  16.6467630 104.6767110
  76.4610100  16.4539830 105.3113200  77.8944080  16.9302270 105.2091410
  67.8783780  14.4861120  95.6400450  67.5896830  15.0563980  96.3525430
  68.6229540  14.0065570  96.0031680  68.0654010  18.4281240  86.8503170
  67.9828680  19.3712000  86.9918160  67.7137070  18.2856150  85.9715520
  75.8652140  17.1620270  95.9173520  75.8688200  16.7210220  95.0678060
  76.7603260  17.4837600  96.0245340  71.7154520  17.0446760  94.8767730
  71.3754570  17.5221990  95.6334780  70.9531840  16.5911880  94.5168830
  75.9272290  18.1632350  88.9080280  76.0485110  18.1218830  89.8566100
  75.5420800  19.0256500  88.7527010  74.9393790  20.4733490  88.3063580
  74.3710690  20.0251740  87.6799490  75.6482790  20.8326270  87.7728730
  83.3171410  13.3531930 102.7630350  83.6417180  12.6221590 103.2888330
  83.3527920  13.0345570 101.8611340  70.0162970  24.3745510 102.1830310
  69.6317760  23.7339180 102.7813270  70.3275160  25.0781630 102.7525040
  69.0300600  15.9665740  93.7932400  68.7447520  15.6021410  94.6311020
  68.9679460  15.2346200  93.1795540  73.9559480  20.2630690  99.9823140
  73.6516550  21.1422670 100.2073500  74.9105940  20.3230480 100.0180580
  72.4841270  24.4691680  90.5789990  71.7103530  23.9289300  90.4188710
  73.2135900  23.9498290  90.2407750  83.2429250  23.4657040  96.3716380
  83.9628370  23.9612330  95.9812490  83.0411070  22.7874930  95.7270250
  70.0123210  21.1033430 101.1294500  69.6538150  21.7687280 101.7167840
  69.7177770  20.2716980 101.5007120  73.2136330  21.5617670 104.0134050
  72.9136470  21.7074850 103.1161870  73.9847570  21.0022960 103.9207440
  84.7189100  27.3968750  91.0069920  84.0765260  26.7424370  91.2813640
  84.3319760  27.8023840  90.2310590  71.5877850  12.8335550  92.3459900
  71.4592480  12.8253450  93.2944820  70.7639870  13.1718640  91.9950910
  68.5871780  14.5926670 101.8066600  67.8730300  14.7923590 102.4119210
  69.0066820  13.8166240 102.1781400  68.8744370  28.5806930 102.7933130
  68.9835490  27.6401670 102.6528520  68.2224930  28.8461680 102.1446860
  76.8656960  26.8522820 104.1931250  76.5453830  26.1332060 104.7376940
  76.1915320  27.5277890 104.2667310  70.5077770  22.9198160  89.8811160
  69.9005720  23.6597060  89.8906460  70.9827120  23.0097520  89.0549360
  75.4156620  18.3191870  91.7813490  74.7072770  18.7878210  92.2227100
  75.7001100  17.6613880  92.4158680  77.0412550  19.7388570  99.7806020
  77.5397800  20.2134390 100.4457870  77.1835500  18.8152090  99.9876050
  76.5348840  30.2797830  92.4937260  76.7890340  30.2419220  91.5716630
  75.5861320  30.1531160  92.4865510  73.6191640  16.6276950  89.1564200
  74.4682170  17.0647100  89.0904390  73.2522910  16.9397210  89.9836260
  84.2479410  15.9556530 100.6234410  83.7453010  16.6961930 100.9628220
  85.0636070  16.3440530 100.3071200  72.5183060  22.8809310  87.6299730
  73.2846330  22.7690670  88.1925160  72.5957750  22.1847280  86.9776500
  71.2129820  20.3134380  88.3132620  71.2933410  19.3661890  88.4250020
  72.1049570  20.6441260  88.4193280  84.5427000  28.3698560  95.7450030
  84.6674420  29.1929730  96.2173840  85.4092560  28.1589290  95.3974180
  72.0144530  30.4629770  95.4167160  72.7507010  29.9145230  95.6875730
  72.3985450  31.3285780  95.2773150  79.8567440  25.7555710 104.5528150
  79.2505600  25.7787310 103.8123900  79.5521550  25.0238750 105.0895400
  68.7400620  22.1349300 103.5488790  69.2439640  21.5556580 104.1205020
  68.0008040  22.4189530 104.0865160  75.7938560  23.5420290 103.0824310
  75.0284230  24.1105290 102.9978980  75.9754520  23.2496500 102.1892540
  78.8826970  23.9183520  87.7077070  78.3337070  24.3652820  88.3519810
  79.5046230  23.4132770  88.2314740  70.7723700  20.2778890 104.4438860
  70.8129040  19.9792760 105.3524090  71.6269200  20.6786500 104.2846380
  74.5502090  22.8774440  89.6042370  74.9718510  22.7114310  90.4473760
  74.6752930  22.0674670  89.1097510  72.7129510  18.8570990 102.4113350
  72.1825970  18.3661940 101.7836690  73.3817580  19.2855190 101.8771280
  77.0629730  21.9012050  86.8519470  77.5835390  21.1861070  86.4860620
  77.7098130  22.5397920  87.1519980  73.2001810  15.8233360 102.4910640
  73.1058680  15.2054110 101.7661510  72.6199200  16.5499650 102.2640550
  75.9663250  14.3806600  99.5238030  75.5180550  14.4030860  98.6783580
  75.3328450  13.9825620 100.1208330  73.4460990  18.9507670  86.5500530
  73.2450050  18.0875030  86.9113870  73.2753040  18.8641030  85.6122130
  75.4755470  17.5498460 102.7864130  76.0655160  17.2414310 103.4741950
  74.6575710  17.0778210 102.9424030  80.2948900  17.1664270 103.0197150
  79.6064420  16.5045810 102.9547140  81.0154920  16.7202540 103.4645610
  72.2443790  16.0508290  86.5378410  72.5469690  16.0575720  85.6297560
  72.9838380  15.7006150  87.0346070  75.4628720  14.9942910  87.5234610
  75.1150720  14.3166900  86.9437060  75.6641490  14.5332420  88.3378000
  77.6277760  29.9823660  89.1421210  78.5228550  30.3208630  89.1639970
  77.6595390  29.2603070  88.5145490  73.0781640  26.4748750  92.4830440
  72.7777180  26.3513720  93.3834350  72.9719130  25.6157340  92.0746170
  68.9709930  29.0110330  97.5610100  68.5340920  29.1911130  98.3934250
  69.5387610  29.7684950  97.4191820  68.8034360  21.5230560  93.9198980
  68.1483200  21.2542200  93.2758680  69.6412310  21.4135040  93.4700960
  69.8410290  21.9083130  98.4602320  70.2083330  21.8210530  99.3398340
  69.2721110  21.1449680  98.3609180  69.3926290  18.8192220 102.3660740
  68.4982340  18.7858980 102.7054450  69.9323840  19.0179010 103.1311990
  83.0802220  15.6023940 104.2512490  83.9572400  15.6107340 104.6346490
  83.0923060  14.8654780 103.6404840  68.0172440  18.7329490  89.8624310
  67.1136520  18.9959690  89.6875970  68.5013060  19.0040660  89.0824270
  70.5599650  17.7895030  87.7718690  71.2691350  17.3678250  87.2865970
  69.8439590  17.8570260  87.1402040  70.2073810  13.8434360  86.8121340
  70.9301940  14.3843300  87.1302560  70.4798330  13.5697780  85.9362880
  69.8966000  13.0940550  96.7143960  70.5442190  12.5437930  96.2739120
  70.3167840  13.3483700  97.5359770  83.7918340  13.2881910 100.0713600
  84.4290560  13.9016050 100.4372790  83.9393230  13.3242570  99.1262830
  86.3342890  15.1795700  86.8536740  87.2592200  15.0476880  86.6455030
  86.3118680  15.2588520  87.8073190  86.4081380  15.9506360  89.4793450
  85.6132880  15.8851480  90.0086360  86.6124660  16.8857000  89.4678800
  83.3499800  29.9897910  93.4731840  83.9458870  29.6682480  92.7966260
  83.6077950  29.5169730  94.2645110  69.6498000  13.2496220  99.4569280
  69.3012820  13.7060040 100.2227460  69.3185700  12.3553350  99.5391710
  71.2562370  26.4215820 103.6222470  71.2132000  26.0508730 104.5036930
  71.3873380  27.3593390 103.7624290  74.9568400  27.9775410  99.2232190
  74.7159760  28.2449970  98.3362710  75.8971040  28.1481140  99.2783050
  77.1622820  14.4408100 102.9788700  77.1011710  15.0329930 103.7284110
  78.1023200  14.3334060 102.8338960  79.7997380  14.0978160 102.6180990
  80.4137790  14.4157450 101.9562070  80.3446940  13.6126750 103.2376850
  70.3218640  12.7772420 102.7320050  70.8701630  12.5960470 101.9686160
  70.3873950  11.9866530 103.2676360  71.0950400  29.3678070 100.7420250
  70.5010720  29.2362770 101.4810290  71.0874240  28.5316210 100.2762350
  80.5405420  12.6610300  98.9450280  79.6665260  12.9945410  98.7423210
  80.4316170  12.1883480  99.7702150  81.4477400  14.8681170 100.3292000
  81.1190760  14.0532930  99.9493730  82.3959700  14.8250980 100.2057690
  83.9012010  30.6393210  97.3029570  83.4414980  31.3909020  96.9287590
  83.2724470  29.9199680  97.2444370  70.7262630  26.7336450  99.6928290
  69.9996690  26.1141740  99.6254240  70.7871780  27.1277060  98.8226370
  74.3307730  28.9481450  96.4777700  74.8472750  28.3368810  95.9525960
  74.9805110  29.4510230  96.9688710  77.0703230  29.8389940  97.3046680
  77.3581040  29.5844240  96.4279690  77.5826450  29.2867300  97.8952250
  78.2880240  13.5780140  97.8843190  77.5052030  14.0525640  98.1639950
  77.9943170  12.6734970  97.7756370  69.6320650  13.8827620  90.4056910
  70.3900010  13.9956500  89.8320940  69.1697820  14.7196820  90.3600340
  76.1734460  15.9966890  93.3959220  75.3608970  15.6223780  93.0555100
  76.6776100  15.2411970  93.6980410  72.0045800  14.4091670  88.9458880
  72.5338560  13.6221470  88.8166830  72.6374120  15.0882860  89.1794410
  74.1983640  14.1466810  92.0004270  73.5686380  13.4454120  92.1674400
  73.6588780  14.9070940  91.7837430  85.3720650  30.3031610  91.6689130
  85.5472840  29.6169350  91.0250050  84.6742220  30.8278660  91.2765800
  74.3239200  13.4250790 104.4356760  74.0423470  13.9284390 103.6717580
  74.7058900  12.6272540 104.0698890  73.2148300  30.6926450  89.2224440
  73.9467120  30.4085730  88.6748330  73.4741970  30.4539730  90.1123820
  72.3763090  26.8091180  89.2270770  71.7471970  27.2776280  89.7756600
  72.4910920  25.9640400  89.6616960  80.9254660  12.8404370 105.0137230
  80.8120110  13.1598980 105.9088750  81.7424400  13.2416880 104.7174510
  79.8312810  20.8596840  75.3771970  79.7506860  19.9451450  75.1063680
  79.4177230  21.3563910  74.6711680  77.9630850  22.6375860  77.2581240
  77.1872950  22.1576300  77.5479810  78.6143780  21.9581510  77.0837400
  81.9838280  27.0436050  76.0380370  81.5219810  26.2723290  76.3667540
  82.7963830  27.0702120  76.5432820  70.3888630  17.9097560  71.9199390
  69.5005330  18.2513530  71.8179270  70.6729820  17.7097880  71.0280220
  78.2101590  29.3294060  75.6584360  77.5913030  29.7851560  75.0878800
  79.0653370  29.4845520  75.2574060  77.4039840  25.3133050  77.2651400
  77.3348120  24.3722990  77.1040530  78.1659700  25.4034460  77.8373970
  69.5946510  15.9187570  79.5908020  69.4149350  15.0213320  79.8710780
  69.1926590  16.4659440  80.2654970  72.5650020  16.4929060  72.9537770
  72.6716770  17.3932790  73.2606530  71.6542380  16.4447030  72.6632420
  82.2169130  15.6153870  74.4248670  83.0378750  15.1250440  74.4674150
  82.2503210  16.2051530  75.1780510  70.2133180  18.4148070  78.1990360
  70.8943290  18.6786440  78.8177760  69.8981230  17.5748940  78.5328370
  74.4057750  19.4615430  77.2862950  74.9135970  19.9596400  77.9267970
  74.9370990  18.6850630  77.1102310  86.5068680  17.6320620  80.9892300
  85.8020850  18.0202330  80.4707410  86.7726600  18.3270910  81.5913230
  79.0764940  24.2133300  73.0516270  78.4582210  24.6782750  72.4878990
  79.5888190  24.9060780  73.4685780  82.4530610  17.5554250  77.1976210
  81.7486180  17.8439140  77.7779320  82.8142770  18.3654360  76.8375770
  85.5217530  17.0009040  77.5885420  84.5742440  17.0348020  77.7200850
  85.8467520  17.8147990  77.9734780  76.0537070  13.3006220  75.8841410
  76.3612050  12.7453110  75.1676910  75.1237770  13.4350680  75.7014400
  81.6052130  29.0173510  78.1748870  81.6179290  28.6135800  77.3071130
  81.0527350  29.7920800  78.0710300  82.8997550  25.7389730  73.2639040
  82.7893880  24.7964060  73.3888460  82.8965800  26.1005370  74.1501800
  78.4417830  21.3655050  72.6201530  77.5147110  21.2992430  72.8490000
  78.5942650  22.3035180  72.5056770  82.4715120  22.9275350  73.1236780
  81.8527540  22.5894900  72.4763080  82.4539570  22.2835110  73.8315970
  74.0474470  21.8919790  75.4021260  73.6431470  21.1797040  74.9067160
  74.1337590  21.5473030  76.2909300  72.7603090  18.6663000  79.1820300
  73.3117680  18.7758340  78.4073550  73.2746600  19.0400600  79.8975530
  80.6479820  22.1662160  70.1309530  81.0873100  21.3284590  69.9847350
  81.3608240  22.7991560  70.2173670  78.7575200  27.1058230  74.0990770
  79.1971110  27.8482560  73.6846160  78.6962090  27.3484800  75.0229730
  84.2296960  13.4204970  68.4450570  83.9169620  13.5131800  69.3449640
  84.9909430  13.9986000  68.3948000  70.7479100  20.7864770  72.9027910
  70.6276700  21.5126860  72.2909180  70.4379990  20.0167680  72.4255820
  81.1271510  27.6014910  70.0151780  80.4336670  27.5992200  69.3554060
  81.8694370  27.1774230  69.5845950  80.6921440  29.2277620  74.0900270
  81.1478390  28.4467000  74.4038890  81.0313960  29.9384440  74.6341450
  85.4398250  18.1576470  84.4224710  84.8242520  18.6656140  83.8940170
  85.1194670  17.2574800  84.3650650  73.2142760  14.1299840  76.2851580
  72.7710910  14.9109380  75.9536100  73.7727750  14.4529730  76.9922520
  82.5017080  18.2177310  83.0183560  81.6510670  17.9183060  83.3392630
  82.3418870  18.4619320  82.1067380  79.5966790  19.7179060  85.1182350
  79.9220200  18.8842810  84.7784580  80.3847120  20.2407580  85.2660680
  76.3301580  13.7510540  71.1657410  75.7055760  13.7470410  71.8910720
  76.2431700  12.8841500  70.7693380  73.0056980  19.2533410  74.0132830
  72.7797900  19.0370580  74.9179450  72.2249510  19.6861870  73.6678800
  80.2354740  19.2596780  72.6123480  79.6363630  19.9832580  72.4287100
  80.7834350  19.1973560  71.8299930  78.8419610  17.8960320  74.6426760
  79.2349180  18.2132520  73.8295450  79.2036460  17.0172200  74.7571280
  70.5766730  16.5632660  82.8326880  70.1830120  17.4107870  83.0399660
  69.8885130  15.9259030  83.0235520  67.8783780  14.4861120  76.8656960
  67.5896830  15.0563980  77.5781940  68.6229540  14.0065570  77.2288190
  79.4274750  20.4866070  78.7377540  78.6955870  20.9952880  79.0867640
  79.0299090  19.6696050  78.4366320  71.7154520  17.0446760  76.1024240
  71.3754570  17.5221990  76.8591290  70.9531840  16.5911880  75.7425340
  83.3171410  13.3531930  83.9886860  83.6417180  12.6221590  84.5144840
  83.3527920  13.0345570  83.0867850  76.1660110  21.2222050  78.8895440
  76.5330240  20.7480620  79.6356780  75.9765170  22.0963620  79.2303780
  69.0300600  15.9665740  75.0188910  68.7447520  15.6021410  75.8567530
  68.9679460  15.2346200  74.4052050  78.7039190  14.8595000  71.7402280
  77.8903800  14.3608170  71.6647590  78.5101140  15.6993250  71.3238630
  81.4187580  19.2314650  70.0364440  82.3067200  19.5431880  69.8615780
  81.3892670  18.3586900  69.6445020  77.4148170  25.4038340  70.7152610
  77.7563870  26.1480570  70.2195930  76.5860880  25.7169460  71.0777440
  70.0123210  21.1033430  82.3551010  69.6538150  21.7687280  82.9424350
  69.7177770  20.2716980  82.7263630  83.6901850  20.5426490  69.5044300
  83.6065570  20.9740710  68.6540740  84.4096040  21.0024840  69.9371120
  84.7189100  27.3968750  72.2326430  84.0765260  26.7424370  72.5070150
  84.3319760  27.8023840  71.4567100  80.2975580  24.7254180  76.0798120
  80.6499400  24.1282310  75.4199490  79.4137910  24.3998410  76.2506370
  76.3838860  25.4851870  73.4868530  77.0709990  26.0321080  73.8676120
  75.5971280  26.0292600  73.5218140  68.5231260  21.1024690  68.9785610
  69.3926110  21.3849490  69.2621530  68.0321580  21.9160560  68.8634420
  75.6866070  22.4897900  73.0993890  76.1428850  23.3003150  73.3254080
  75.3354280  22.1721040  73.9312380  77.9898680  28.0004240  80.3286190
  78.6340900  28.2063620  81.0059610  78.3528120  27.2392640  79.8757040
  71.5877850  12.8335550  73.5716410  71.4592480  12.8253450  74.5201330
  70.7639870  13.1718640  73.2207420  79.2630760  26.0036590  79.0463640
  79.9052990  25.3029750  79.1595810  79.7880110  26.7835030  78.8660530
  83.1086480  26.2885210  68.7702780  82.8824060  25.5715650  69.3627420
  82.7182680  26.0397650  67.9324530  68.5871780  14.5926670  83.0323110
  67.8730300  14.7923590  83.6375720  69.0066820  13.8166240  83.4037910
  82.6902730  24.2057150  70.4316940  82.4024430  24.6669840  71.2194820
  83.4854900  23.7454920  70.7001160  70.5077770  22.9198160  71.1067670
  69.9005720  23.6597060  71.1162970  70.9827120  23.0097520  70.2805870
  83.4472590  16.0405920  71.5912120  82.8185750  16.1451590  70.8770350
  82.9524510  16.2602700  72.3806000  77.8930730  27.7611510  69.0246100
  77.9942710  27.5575500  68.0948080  76.9932470  27.5069790  69.2293880
  75.4156620  18.3191870  73.0070000  74.7072770  18.7878210  73.4483610
  75.7001100  17.6613880  73.6415190  79.4472050  15.0442530  74.4465790
  79.3239830  15.0628660  73.4975300  80.3956610  15.0921470  74.5664190
  84.2479410  15.9556530  81.8490920  83.7453010  16.6961930  82.1884730
  85.0636070  16.3440530  81.5327710  72.5183060  22.8809310  68.8556240
  73.2846330  22.7690670  69.4181670  72.5957750  22.1847280  68.2033010
  71.2129820  20.3134380  69.5389130  71.2933410  19.3661890  69.6506530
  72.1049570  20.6441260  69.6449790  84.5427000  28.3698560  76.9706540
  84.6674420  29.1929730  77.4430350  85.4092560  28.1589290  76.6230690
  84.1777010  28.8630210  69.8885980  83.8918520  28.4495350  69.0740160
  83.9796560  29.7917920  69.7686500  78.8826970  23.9183520  68.9333580
  78.3337070  24.3652820  69.5776320  79.5046230  23.4132770  69.4571250
  70.7723700  20.2778890  85.6695370  70.8129040  19.9792760  86.5780600
  71.6269200  20.6786500  85.5102890  74.5502090  22.8774440  70.8298880
  74.9718510  22.7114310  71.6730270  74.6752930  22.0674670  70.3354020
  72.7129510  18.8570990  83.6369860  72.1825970  18.3661940  83.0093200
  73.3817580  19.2855190  83.1027790  82.0829740  20.6636610  85.4050200
  82.6650510  19.9088930  85.3170680  82.2591510  21.1944050  84.6281680
  78.7086700  21.0077110  82.7544820  78.8282910  20.4118250  83.4939660
  79.5680700  21.0446800  82.3346120  80.2948900  17.1664270  84.2453660
  79.6064420  16.5045810  84.1803650  81.0154920  16.7202540  84.6902120
  80.9249300  13.7615900  70.3043920  81.2051590  12.9183800  70.6603340
  80.1515030  13.9939010  70.8182670  77.0792430  30.8165150  82.7451360
  77.0051130  31.7200290  83.0523730  76.1771270  30.4977050  82.7173430
  85.8473560  26.2545150  68.4113630  85.0166520  26.3221800  68.8820860
  86.0245390  27.1449270  68.1080490  85.3030020  22.9992630  70.9147830
  86.0648930  23.5689280  71.0207520  85.3184390  22.4319830  71.6856140
  85.3549190  23.2927000  68.0720350  85.6298030  24.2005880  67.9439570
  85.1659930  23.2289530  69.0082340  81.7524800  16.3171850  69.3673980
  82.1709680  16.1302830  68.5270640  81.4460860  15.4650900  69.6776910
  85.2514530  21.2295990  73.0649780  84.8758130  20.4623920  72.6331070
  84.5217650  21.6118690  73.5524710  69.3926290  18.8192220  83.5917250
  68.4982340  18.7858980  83.9310960  69.9323840  19.0179010  84.3568500
  83.0802220  15.6023940  85.4769000  83.9572400  15.6107340  85.8603000
  83.0923060  14.8654780  84.8661350  84.5265490  19.4553480  76.3657020
  85.0502970  18.9616130  75.7347190  85.1124910  19.5903840  77.1104590
  70.5599650  17.7895030  68.9975200  71.2691350  17.3678250  68.5122480
  69.8439590  17.8570260  68.3658550  70.2073810  13.8434360  68.0377850
  70.9301940  14.3843300  68.3559070  70.4798330  13.5697780  67.1619390
  84.0165460  18.7126830  72.3049430  84.5124580  18.4797700  73.0898310
  83.8181530  17.8738670  71.8887070  69.8966000  13.0940550  77.9400470
  70.5442190  12.5437930  77.4995630  70.3167840  13.3483700  78.7616280
  85.4452620  17.3487780  74.8387110  85.3351900  17.1943820  75.7769380
  86.2060210  16.8208720  74.5962520  83.7918340  13.2881910  81.2970110
  84.4290560  13.9016050  81.6629300  83.9393230  13.3242570  80.3519340
  86.3342890  15.1795700  68.0793250  87.2592200  15.0476880  67.8711540
  86.3118680  15.2588520  69.0329700  86.4081380  15.9506360  70.7049960
  85.6132880  15.8851480  71.2342870  86.6124660  16.8857000  70.6935310
  83.3499800  29.9897910  74.6988350  83.9458870  29.6682480  74.0222770
  83.6077950  29.5169730  75.4901620  69.6498000  13.2496220  80.6825790
  69.3012820  13.7060040  81.4483970  69.3185700  12.3553350  80.7648220
  70.3218640  12.7772420  83.9576560  70.8701630  12.5960470  83.1942670
  70.3873950  11.9866530  84.4932870  80.5405420  12.6610300  80.1706790
  79.6665260  12.9945410  79.9679720  80.4316170  12.1883480  80.9958660
  81.4477400  14.8681170  81.5548510  81.1190760  14.0532930  81.1750240
  82.3959700  14.8250980  81.4314200  77.0703230  29.8389940  78.5303190
  77.3581040  29.5844240  77.6536200  77.5826450  29.2867300  79.1208760
  82.8401310  14.2803240  77.1548790  83.2809400  14.2248340  76.3070390
  82.5708900  15.1961250  77.2258970  84.7039880  13.9118480  75.1657610
  84.6428280  12.9679700  75.0188630  85.4831910  14.0198570  75.7111070
  69.6320650  13.8827620  71.6313420  70.3900010  13.9956500  71.0577450
  69.1697820  14.7196820  71.5856850  76.1734460  15.9966890  74.6215730
  75.3608970  15.6223780  74.2811610  76.6776100  15.2411970  74.9236920
  80.6759440  12.6609340  75.8598800  81.2788810  13.2329550  76.3347320
  79.9352430  13.2248780  75.6372700  83.8194040  13.0630900  71.1339080
  84.0144670  13.9614350  71.4006510  83.0323910  12.8317980  71.6272030
  72.0045800  14.4091670  70.1715390  72.5338560  13.6221470  70.0423340
  72.6374120  15.0882860  70.4050920  74.1983640  14.1466810  73.2260780
  73.5686380  13.4454120  73.3930910  73.6588780  14.9070940  73.0093940
  77.1375590  30.7606040  85.8971390  78.0642900  30.5250310  85.9407350
  77.1226020  31.5878040  85.4157420  85.3720650  30.3031610  72.8945640
  85.5472840  29.6169350  72.2506560  84.6742220  30.8278660  72.5022310
  74.3239200  13.4250790  85.6613270  74.0423470  13.9284390  84.8974090
  74.7058900  12.6272540  85.2955400  80.9254660  12.8404370  86.2393740
  80.8120110  13.1598980  87.1345260  81.7424400  13.2416880  85.9431020
  79.8312810  20.8596840  56.6028480  79.7506860  19.9451450  56.3320190
  79.4177230  21.3563910  55.8968190  77.9630850  22.6375860  58.4837750
  77.1872950  22.1576300  58.7736320  78.6143780  21.9581510  58.3093910
  81.9838280  27.0436050  57.2636880  81.5219810  26.2723290  57.5924050
  82.7963830  27.0702120  57.7689330  71.9597940  26.9835760  59.5571530
  72.2625980  26.0933500  59.3781750  72.7041530  27.5405980  59.3293780
  78.2101590  29.3294060  56.8840870  77.5913030  29.7851560  56.3135310
  79.0653370  29.4845520  56.4830570  77.4039840  25.3133050  58.4907910
  77.3348120  24.3722990  58.3297040  78.1659700  25.4034460  59.0630480
  69.5946510  15.9187570  60.8164530  69.4149350  15.0213320  61.0967290
  69.1926590  16.4659440  61.4911480  78.4345010  18.1203430  58.7176840
  78.8109830  17.2475310  58.6050510  78.3364520  18.4562130  57.8267280
  72.5650020  16.4929060  54.1794280  72.6716770  17.3932790  54.4863040
  71.6542380  16.4447030  53.8888930  82.2169130  15.6153870  55.6505180
  83.0378750  15.1250440  55.6930660  82.2503210  16.2051530  56.4037020
  72.6893850  14.1013990  62.7782880  72.6912290  14.6186380  61.9728780
  71.8598160  13.6244170  62.7552810  79.0764940  24.2133300  54.2772780
  78.4582210  24.6782750  53.7135500  79.5888190  24.9060780  54.6942290
  73.9396700  23.7409170  60.9556380  73.6066080  24.3678090  61.5977450
  74.1163380  24.2671050  60.1758050  82.4530610  17.5554250  58.4232720
  81.7486180  17.8439140  59.0035830  82.8142770  18.3654360  58.0632280
  72.3709180  15.8123950  60.7853330  72.7125990  16.6566000  60.4907200
  71.4324990  15.9607690  60.9018670  73.1515800  25.7089970  62.7705560
  73.7689800  26.3841050  62.4890010  72.2908920  26.1177950  62.6793060
  68.4448140  24.8989830  51.6512410  68.0676120  25.3876930  50.9197310
  68.7021210  25.5715110  52.2818940  84.0693390  27.1729380  60.6860200
  83.3856910  27.8428490  60.6776870  84.6087680  27.3710030  59.9205060
  76.0537070  13.3006220  57.1097920  76.3612050  12.7453110  56.3933420
  75.1237770  13.4350680  56.9270910  81.6052130  29.0173510  59.4005380
  81.6179290  28.6135800  58.5327640  81.0527350  29.7920800  59.2966810
  82.8997550  25.7389730  54.4895550  82.7893880  24.7964060  54.6144970
  82.8965800  26.1005370  55.3758310  81.0037570  23.9203350  60.7287990
  81.4206360  23.7063460  59.8941450  81.7277390  24.1776140  61.2996610
  78.4417830  21.3655050  53.8458040  77.5147110  21.2992430  54.0746510
  78.5942650  22.3035180  53.7313280  78.4286910  17.6372050  50.8425200
  77.4890580  17.7986010  50.9277660  78.7470170  18.3557730  50.2961190
  82.4715120  22.9275350  54.3493290  81.8527540  22.5894900  53.7019590
  82.4539570  22.2835110  55.0572480  81.9141680  19.1059890  61.7659100
  81.5012860  19.9313600  62.0199090  81.1817630  18.5204930  61.5735460
  74.5156170  25.5787350  58.7916980  74.2184460  24.9732820  58.1124760
  75.4655990  25.6164660  58.6806340  82.6041780  29.1519220  62.4540080
  82.1272340  29.9591410  62.2612690  81.9203570  28.4997550  62.6066290
  80.6479820  22.1662160  51.3566040  81.0873100  21.3284590  51.2103860
  81.3608240  22.7991560  51.4430180  72.4345820  22.1882360  64.0182150
  72.2953590  23.0605160  64.3869550  71.5527180  21.8455170  63.8730090
  78.7575200  27.1058230  55.3247280  79.1971110  27.8482560  54.9102670
  78.6962090  27.3484800  56.2486240  84.2296960  13.4204970  49.6707080
  83.9169620  13.5131800  50.5706150  84.9909430  13.9986000  49.6204510
  86.1840990  28.9131160  67.5231470  86.6600710  29.3914050  68.2020550
  86.8048150  28.8448650  66.7976970  68.3864470  23.9579910  59.9353060
  68.4644890  24.0928680  58.9908780  69.0006150  23.2495800  60.1281180
  85.5874240  26.1044010  64.6831480  85.7137300  25.8655890  63.7648660
  85.6295620  25.2728550  65.1553560  79.4490980  29.8072010  63.2526290
  79.9635650  29.7180020  64.0548720  78.6060060  30.1531710  63.5454200
  73.9033760  29.8725880  54.4581910  73.7276240  28.9561420  54.2449710
  73.0489500  30.2313170  54.6979710  81.1271510  27.6014910  51.2408290
  80.4336670  27.5992200  50.5810570  81.8694370  27.1774230  50.8102460
  68.4423990  24.9994080  62.4747520  68.6055030  24.5299440  61.6566890
  68.9076440  24.4917640  63.1396360  73.2142760  14.1299840  57.5108090
  72.7710910  14.9109380  57.1792610  73.7727750  14.4529730  58.2179030
  82.5017080  18.2177310  64.2440070  81.6510670  17.9183060  64.5649140
  82.3418870  18.4619320  63.3323890  76.3301580  13.7510540  52.3913920
  75.7055760  13.7470410  53.1167230  76.2431700  12.8841500  51.9949890
  75.2518660  14.6747170  59.3697690  75.5490990  15.5810000  59.2889710
  75.8004220  14.1865950  58.7557260  80.2354740  19.2596780  53.8379990
  79.6363630  19.9832580  53.6543610  80.7834350  19.1973560  53.0556440
  78.8419610  17.8960320  55.8683270  79.2349180  18.2132520  55.0551960
  79.2036460  17.0172200  55.9827790  70.5766730  16.5632660  64.0583390
  70.1830120  17.4107870  64.2656170  69.8885130  15.9259030  64.2492030
  67.8783780  14.4861120  58.0913470  67.5896830  15.0563980  58.8038450
  68.6229540  14.0065570  58.4544700  68.0654010  18.4281240  49.3016190
  67.9828680  19.3712000  49.4431180  67.7137070  18.2856150  48.4228540
  79.4274750  20.4866070  59.9634050  78.6955870  20.9952880  60.3124150
  79.0299090  19.6696050  59.6622830  75.8652140  17.1620270  58.3686540
  75.8688200  16.7210220  57.5191080  76.7603260  17.4837600  58.4758360
  75.9272290  18.1632350  51.3593300  76.0485110  18.1218830  52.3079120
  75.5420800  19.0256500  51.2040030  79.8900660  15.9399750  59.3756990
  79.9073400  16.3908400  60.2198840  79.6416240  15.0405390  59.5890430
  74.9393790  20.4733490  50.7576600  74.3710690  20.0251740  50.1312510
  75.6482790  20.8326270  50.2241750  83.3171410  13.3531930  65.2143370
  83.6417180  12.6221590  65.7401350  83.3527920  13.0345570  64.3124360
  70.0162970  24.3745510  64.6343330  69.6317760  23.7339180  65.2326290
  70.3275160  25.0781630  65.2038060  76.1660110  21.2222050  60.1151950
  76.5330240  20.7480620  60.8613290  75.9765170  22.0963620  60.4560290
  73.9559480  20.2630690  62.4336160  73.6516550  21.1422670  62.6586520
  74.9105940  20.3230480  62.4693600  72.4841270  24.4691680  53.0303010
  71.7103530  23.9289300  52.8701730  73.2135900  23.9498290  52.6920770
  83.2429250  23.4657040  58.8229400  83.9628370  23.9612330  58.4325510
  83.0411070  22.7874930  58.1783270  78.7039190  14.8595000  52.9658790
  77.8903800  14.3608170  52.8904100  78.5101140  15.6993250  52.5495140
  78.6248050  23.5366100  64.7098400  78.5585360  22.6161770  64.4555990
  77.9953190  23.6341540  65.4243040  81.4187580  19.2314650  51.2620950
  82.3067200  19.5431880  51.0872290  81.3892670  18.3586900  50.8701530
  77.4148170  25.4038340  51.9409120  77.7563870  26.1480570  51.4452440
  76.5860880  25.7169460  52.3033950  70.0123210  21.1033430  63.5807520
  69.6538150  21.7687280  64.1680860  69.7177770  20.2716980  63.9520140
  73.2136330  21.5617670  66.4647070  72.9136470  21.7074850  65.5674890
  73.9847570  21.0022960  66.3720460  78.5564780  26.3586670  64.4602200
  78.5709320  25.4267630  64.2421110  77.8489880  26.4446430  65.0991970
  80.2975580  24.7254180  57.3054630  80.6499400  24.1282310  56.6456000
  79.4137910  24.3998410  57.4762880  76.3838860  25.4851870  54.7125040
  77.0709990  26.0321080  55.0932630  75.5971280  26.0292600  54.7474650
  68.5231260  21.1024690  50.2042120  69.3926110  21.3849490  50.4878040
  68.0321580  21.9160560  50.0890930  77.9898680  28.0004240  61.5542700
  78.6340900  28.2063620  62.2316120  78.3528120  27.2392640  61.1013550
  71.5877850  12.8335550  54.7972920  71.4592480  12.8253450  55.7457840
  70.7639870  13.1718640  54.4463930  79.2630760  26.0036590  60.2720150
  79.9052990  25.3029750  60.3852320  79.7880110  26.7835030  60.0917040
  81.0368380  26.8031490  63.4756210  81.3724620  27.3898180  64.1534130
  80.1168720  26.6724200  63.7054000  68.5871780  14.5926670  64.2579620
  67.8730300  14.7923590  64.8632230  69.0066820  13.8166240  64.6294420
  68.8744370  28.5806930  65.2446150  68.9835490  27.6401670  65.1041540
  68.2224930  28.8461680  64.5959880  74.9071130  27.6983270  51.5877420
  74.8981230  28.4312960  50.9721930  73.9869490  27.4514850  51.6804380
  80.0810560  17.0848980  62.0081070  80.4491380  16.2644190  62.3360640
  79.2208760  17.1450870  62.4236720  83.4472590  16.0405920  52.8168630
  82.8185750  16.1451590  52.1026860  82.9524510  16.2602700  53.6062510
  77.8930730  27.7611510  50.2502610  77.9942710  27.5575500  49.3204590
  76.9932470  27.5069790  50.4550390  75.4156620  18.3191870  54.2326510
  74.7072770  18.7878210  54.6740120  75.7001100  17.6613880  54.8671700
  79.4472050  15.0442530  55.6722300  79.3239830  15.0628660  54.7231810
  80.3956610  15.0921470  55.7920700  76.5348840  30.2797830  54.9450280
  76.7890340  30.2419220  54.0229650  75.5861320  30.1531160  54.9378530
  73.6191640  16.6276950  51.6077220  74.4682170  17.0647100  51.5417410
  73.2522910  16.9397210  52.4349280  84.2479410  15.9556530  63.0747430
  83.7453010  16.6961930  63.4141240  85.0636070  16.3440530  62.7584220
  82.5401420  21.1989710  56.5208790  81.5991560  21.2139940  56.6956480
  82.8545490  20.4125670  56.9669090  72.5183060  22.8809310  50.0812750
  73.2846330  22.7690670  50.6438180  72.5957750  22.1847280  49.4289520
  71.2129820  20.3134380  50.7645640  71.2933410  19.3661890  50.8763040
  72.1049570  20.6441260  50.8706300  72.0144530  30.4629770  57.8680180
  72.7507010  29.9145230  58.1388750  72.3985450  31.3285780  57.7286170
  68.8990010  26.5303340  53.7421690  67.9729790  26.7724480  53.7327100
  69.3646440  27.3577600  53.6206440  75.1246840  29.6360080  49.6905750
  75.9175450  29.9248910  49.2387540  74.6051190  29.2052250  49.0118230
  79.8567440  25.7555710  67.0041170  79.2505600  25.7787310  66.2636920
  79.5521550  25.0238750  67.5408420  81.2867810  29.4836000  65.6150580
  82.2389560  29.3994020  65.5650820  81.1396030  30.1477710  66.2884370
  68.7400620  22.1349300  66.0001810  69.2439640  21.5556580  66.5718040
  68.0008040  22.4189530  66.5378180  75.6424240  24.8563490  49.5548100
  75.5374880  24.2415840  50.2809480  75.4748460  24.3329380  48.7711110
  75.7938560  23.5420290  65.5337330  75.0284230  24.1105290  65.4492000
  75.9754520  23.2496500  64.6405560  78.8826970  23.9183520  50.1590090
  78.3337070  24.3652820  50.8032830  79.5046230  23.4132770  50.6827760
  82.9361910  25.2725620  66.0912350  83.6771380  25.6101380  65.5879810
  82.1734590  25.4417680  65.5382120  70.7723700  20.2778890  66.8951880
  70.8129040  19.9792760  67.8037110  71.6269200  20.6786500  66.7359400
  74.5502090  22.8774440  52.0555390  74.9718510  22.7114310  52.8986780
  74.6752930  22.0674670  51.5610530  77.0629730  21.9012050  49.3032490
  77.5835390  21.1861070  48.9373640  77.7098130  22.5397920  49.6033000
  81.6107570  23.3240450  64.6267560  82.0248590  23.4785530  65.4757980
  80.6758570  23.4495670  64.7893340  82.0829740  20.6636610  66.6306710
  82.6650510  19.9088930  66.5427190  82.2591510  21.1944050  65.8538190
  75.9663250  14.3806600  61.9751050  75.5180550  14.4030860  61.1296600
  75.3328450  13.9825620  62.5721350  76.3722800  23.2760930  62.5963490
  76.7910910  24.1193660  62.4239730  75.4531430  23.4132970  62.3670270
  81.0474600  21.5614300  62.5563840  80.5209820  22.0856920  61.9528980
  81.3905940  22.1941690  63.1873570  73.4460990  18.9507670  49.0013550
  73.2450050  18.0875030  49.3626890  73.2753040  18.8641030  48.0635150
  74.2230220  29.5813940  63.7121220  73.6851310  30.3060000  63.3929920
  74.4764180  29.1044280  62.9218560  80.9249300  13.7615900  51.5300430
  81.2051590  12.9183800  51.8859850  80.1515030  13.9939010  52.0439180
  72.2443790  16.0508290  48.9891430  72.5469690  16.0575720  48.0810580
  72.9838380  15.7006150  49.4859090  77.0792430  30.8165150  63.9707870
  77.0051130  31.7200290  64.2780240  76.1771270  30.4977050  63.9429940
  75.4628720  14.9942910  49.9747630  75.1150720  14.3166900  49.3950080
  75.6641490  14.5332420  50.7891020  77.6277760  29.9823660  51.5934230
  78.5228550  30.3208630  51.6152990  77.6595390  29.2603070  50.9658510
  71.2673920  25.3550710  49.8221230  71.7048790  25.8980380  50.4778810
  71.7521650  24.5297660  49.8317570  68.4819720  28.1439740  57.2741490
  68.8122730  27.2760800  57.0420130  68.9110720  28.3498260  58.1046450
  73.0781640  26.4748750  54.9343460  72.7777180  26.3513720  55.8347370
  72.9719130  25.6157340  54.5259190  68.9709930  29.0110330  60.0123120
  68.5340920  29.1911130  60.8447270  69.5387610  29.7684950  59.8704840
  84.6072110  28.5127330  64.3000430  84.0074100  28.5719890  63.5564350
  84.7366010  27.5732310  64.4297280  86.3089990  23.8542730  56.9846270
  86.6798820  23.0710050  56.5782240  86.9491920  24.5431830  56.8063570
  83.2923750  25.2379310  62.3976590  82.4783590  25.6676470  62.6602380
  83.6997950  25.8497720  61.7845640  81.7524800  16.3171850  50.5930490
  82.1709680  16.1302830  49.7527150  81.4460860  15.4650900  50.9033420
  69.8410290  21.9083130  60.9115340  70.2083330  21.8210530  61.7911360
  69.2721110  21.1449680  60.8122200  69.3926290  18.8192220  64.8173760
  68.4982340  18.7858980  65.1567470  69.9323840  19.0179010  65.5825010
  83.0802220  15.6023940  66.7025510  83.9572400  15.6107340  67.0859510
  83.0923060  14.8654780  66.0917860  68.0172440  18.7329490  52.3137330
  67.1136520  18.9959690  52.1388990  68.5013060  19.0040660  51.5337290
  84.5265490  19.4553480  57.5913530  85.0502970  18.9616130  56.9603700
  85.1124910  19.5903840  58.3361100  70.5599650  17.7895030  50.2231710
  71.2691350  17.3678250  49.7378990  69.8439590  17.8570260  49.5915060
  70.2073810  13.8434360  49.2634360  70.9301940  14.3843300  49.5815580
  70.4798330  13.5697780  48.3875900  84.0165460  18.7126830  53.5305940
  84.5124580  18.4797700  54.3154820  83.8181530  17.8738670  53.1143580
  69.8966000  13.0940550  59.1656980  70.5442190  12.5437930  58.7252140
  70.3167840  13.3483700  59.9872790  85.4452620  17.3487780  56.0643620
  85.3351900  17.1943820  57.0025890  86.2060210  16.8208720  55.8219030
  83.7918340  13.2881910  62.5226620  84.4290560  13.9016050  62.8885810
  83.9393230  13.3242570  61.5775850  86.3342890  15.1795700  49.3049760
  87.2592200  15.0476880  49.0968050  86.3118680  15.2588520  50.2586210
  86.4081380  15.9506360  51.9306470  85.6132880  15.8851480  52.4599380
  86.6124660  16.8857000  51.9191820  69.6498000  13.2496220  61.9082300
  69.3012820  13.7060040  62.6740480  69.3185700  12.3553350  61.9904730
  74.9568400  27.9775410  61.6745210  74.7159760  28.2449970  60.7875730
  75.8971040  28.1481140  61.7296070  79.7997380  14.0978160  65.0694010
  80.4137790  14.4157450  64.4075090  80.3446940  13.6126750  65.6889870
  70.3218640  12.7772420  65.1833070  70.8701630  12.5960470  64.4199180
  70.3873950  11.9866530  65.7189380  71.0950400  29.3678070  63.1933270
  70.5010720  29.2362770  63.9323310  71.0874240  28.5316210  62.7275370
  80.5405420  12.6610300  61.3963300  79.6665260  12.9945410  61.1936230
  80.4316170  12.1883480  62.2215170  81.4477400  14.8681170  62.7805020
  81.1190760  14.0532930  62.4006750  82.3959700  14.8250980  62.6570710
  83.9012010  30.6393210  59.7542590  83.4414980  31.3909020  59.3800610
  83.2724470  29.9199680  59.6957390  70.7262630  26.7336450  62.1441310
  69.9996690  26.1141740  62.0767260  70.7871780  27.1277060  61.2739390
  74.3307730  28.9481450  58.9290720  74.8472750  28.3368810  58.4038980
  74.9805110  29.4510230  59.4201730  77.0703230  29.8389940  59.7559700
  77.3581040  29.5844240  58.8792710  77.5826450  29.2867300  60.3465270
  78.2880240  13.5780140  60.3356210  77.5052030  14.0525640  60.6152970
  77.9943170  12.6734970  60.2269390  82.8401310  14.2803240  58.3805300
  83.2809400  14.2248340  57.5326900  82.5708900  15.1961250  58.4515480
  84.7039880  13.9118480  56.3914120  84.6428280  12.9679700  56.2445140
  85.4831910  14.0198570  56.9367580  69.0092630  30.0510840  55.3538070
  68.8414670  29.4181520  56.0519960  68.1427140  30.2570240  55.0032260
  69.6320650  13.8827620  52.8569930  70.3900010  13.9956500  52.2833960
  69.1697820  14.7196820  52.8113360  76.1734460  15.9966890  55.8472240
  75.3608970  15.6223780  55.5068120  76.6776100  15.2411970  56.1493430
  80.6759440  12.6609340  57.0855310  81.2788810  13.2329550  57.5603830
  79.9352430  13.2248780  56.8629210  83.8194040  13.0630900  52.3595590
  84.0144670  13.9614350  52.6263020  83.0323910  12.8317980  52.8528540
  70.6155330  28.7444070  52.7988210  70.0902950  29.1252100  52.0950170
  70.5399910  29.3694840  53.5197920  72.0045800  14.4091670  51.3971900
  72.5338560  13.6221470  51.2679850  72.6374120  15.0882860  51.6307430
  74.1983640  14.1466810  54.4517290  73.5686380  13.4454120  54.6187420
  73.6588780  14.9070940  54.2350450  73.2148300  30.6926450  51.6737460
  73.9467120  30.4085730  51.1261350  73.4741970  30.4539730  52.5636840
  72.3763090  26.8091180  51.6783790  71.7471970  27.2776280  52.2269620
  72.4910920  25.9640400  52.1129980  80.9254660  12.8404370  67.4650250
  80.8120110  13.1598980  68.3601770  81.7424400  13.2416880  67.1687530
  83.7053150  29.9875900  66.9468940  84.4978470  29.4925130  66.7394900
  83.9986300  30.6666040  67.5544550  79.8312810  20.8596840  37.8284990
  79.7506860  19.9451450  37.5576700  79.4177230  21.3563910  37.1224700
  77.9630850  22.6375860  39.7094260  77.1872950  22.1576300  39.9992830
  78.6143780  21.9581510  39.5350420  71.9796680  22.9495670  40.5870020
  71.1481560  22.6944380  40.9866530  72.5877660  23.0206440  41.3227940
  81.9838280  27.0436050  38.4893390  81.5219810  26.2723290  38.8180560
  82.7963830  27.0702120  38.9945840  71.9597940  26.9835760  40.7828040
  72.2625980  26.0933500  40.6038260  72.7041530  27.5405980  40.5550290
  70.3888630  17.9097560  34.3712410  69.5005330  18.2513530  34.2692290
  70.6729820  17.7097880  33.4793240  68.3521640  20.5103210  40.2552110
  68.9237750  19.7425410  40.2555750  68.3523180  20.8091970  39.3458720
  78.2101590  29.3294060  38.1097380  77.5913030  29.7851560  37.5391820
  79.0653370  29.4845520  37.7087080  77.4039840  25.3133050  39.7164420
  77.3348120  24.3722990  39.5553550  78.1659700  25.4034460  40.2886990
  69.5946510  15.9187570  42.0421040  69.4149350  15.0213320  42.3223800
  69.1926590  16.4659440  42.7167990  78.4345010  18.1203430  39.9433350
  78.8109830  17.2475310  39.8307020  78.3364520  18.4562130  39.0523790
  72.5650020  16.4929060  35.4050790  72.6716770  17.3932790  35.7119550
  71.6542380  16.4447030  35.1145440  82.2169130  15.6153870  36.8761690
  83.0378750  15.1250440  36.9187170  82.2503210  16.2051530  37.6293530
  70.2133180  18.4148070  40.6503380  70.8943290  18.6786440  41.2690780
  69.8981230  17.5748940  40.9841390  74.4057750  19.4615430  39.7375970
  74.9135970  19.9596400  40.3780990  74.9370990  18.6850630  39.5615330
  86.5068680  17.6320620  43.4405320  85.8020850  18.0202330  42.9220430
  86.7726600  18.3270910  44.0426250  72.6893850  14.1013990  44.0039390
  72.6912290  14.6186380  43.1985290  71.8598160  13.6244170  43.9809320
  79.0764940  24.2133300  35.5029290  78.4582210  24.6782750  34.9392010
  79.5888190  24.9060780  35.9198800  73.9396700  23.7409170  42.1812890
  73.6066080  24.3678090  42.8233960  74.1163380  24.2671050  41.4014560
  82.4530610  17.5554250  39.6489230  81.7486180  17.8439140  40.2292340
  82.8142770  18.3654360  39.2888790  72.3709180  15.8123950  42.0109840
  72.7125990  16.6566000  41.7163710  71.4324990  15.9607690  42.1275180
  73.1515800  25.7089970  43.9962070  73.7689800  26.3841050  43.7146520
  72.2908920  26.1177950  43.9049570  68.4448140  24.8989830  32.8768920
  68.0676120  25.3876930  32.1453820  68.7021210  25.5715110  33.5075450
  85.5217530  17.0009040  40.0398440  84.5742440  17.0348020  40.1713870
  85.8467520  17.8147990  40.4247800  76.0537070  13.3006220  38.3354430
  76.3612050  12.7453110  37.6189930  75.1237770  13.4350680  38.1527420
  82.8997550  25.7389730  35.7152060  82.7893880  24.7964060  35.8401480
  82.8965800  26.1005370  36.6014820  81.0037570  23.9203350  41.9544500
  81.4206360  23.7063460  41.1197960  81.7277390  24.1776140  42.5253120
  78.4417830  21.3655050  35.0714550  77.5147110  21.2992430  35.3003020
  78.5942650  22.3035180  34.9569790  78.4286910  17.6372050  32.0681710
  77.4890580  17.7986010  32.1534170  78.7470170  18.3557730  31.5217700
  84.9499670  22.3190570  42.0460740  84.1218300  22.3883660  41.5710870
  85.5450150  22.9044880  41.5776570  82.4715120  22.9275350  35.5749800
  81.8527540  22.5894900  34.9276100  82.4539570  22.2835110  36.2828990
  81.9141680  19.1059890  42.9915610  81.5012860  19.9313600  43.2455600
  81.1817630  18.5204930  42.7991970  74.0474470  21.8919790  37.8534280
  73.6431470  21.1797040  37.3580180  74.1337590  21.5473030  38.7422320
  74.5156170  25.5787350  40.0173490  74.2184460  24.9732820  39.3381270
  75.4655990  25.6164660  39.9062850  72.7603090  18.6663000  41.6333320
  73.3117680  18.7758340  40.8586570  73.2746600  19.0400600  42.3488550
  73.6074600  25.3169040  46.6681290  72.7103130  25.5409010  46.9154690
  73.6327470  25.4403980  45.7192690  80.6479820  22.1662160  32.5822550
  81.0873100  21.3284590  32.4360370  81.3608240  22.7991560  32.6686690
  72.4345820  22.1882360  45.2438660  72.2953590  23.0605160  45.6126060
  71.5527180  21.8455170  45.0986600  78.7575200  27.1058230  36.5503790
  79.1971110  27.8482560  36.1359180  78.6962090  27.3484800  37.4742750
  74.2326170  28.1304060  47.4523810  74.2041600  28.5347010  46.5852240
  74.0691140  27.2014420  47.2895410  84.2296960  13.4204970  30.8963590
  83.9169620  13.5131800  31.7962660  84.9909430  13.9986000  30.8461020
  70.7479100  20.7864770  35.3540930  70.6276700  21.5126860  34.7422200
  70.4379990  20.0167680  34.8768840  68.3864470  23.9579910  41.1609570
  68.4644890  24.0928680  40.2165290  69.0006150  23.2495800  41.3537690
  69.6312100  25.6580100  37.5715750  69.2240180  25.7994690  36.7169350
  70.5225110  25.3740260  37.3686960  79.4490980  29.8072010  44.4782800
  79.9635650  29.7180020  45.2805230  78.6060060  30.1531710  44.7710710
  81.4245380  30.0927350  33.9066800  81.2646520  29.8030290  34.8048630
  81.2592090  29.3167480  33.3712030  73.9033760  29.8725880  35.6838420
  73.7276240  28.9561420  35.4706220  73.0489500  30.2313170  35.9236220
  81.1271510  27.6014910  32.4664800  80.4336670  27.5992200  31.8067080
  81.8694370  27.1774230  32.0358970  80.6921440  29.2277620  36.5413290
  81.1478390  28.4467000  36.8551910  81.0313960  29.9384440  37.0854470
  85.4398250  18.1576470  46.8737730  84.8242520  18.6656140  46.3453190
  85.1194670  17.2574800  46.8163670  68.4423990  24.9994080  43.7004030
  68.6055030  24.5299440  42.8823400  68.9076440  24.4917640  44.3652870
  73.2142760  14.1299840  38.7364600  72.7710910  14.9109380  38.4049120
  73.7727750  14.4529730  39.4435540  77.5012570  16.9968360  44.3399920
  77.0391940  17.2051380  45.1519860  77.0990680  16.1827710  44.0370590
  82.5017080  18.2177310  45.4696580  81.6510670  17.9183060  45.7905650
  82.3418870  18.4619320  44.5580400  79.5966790  19.7179060  47.5695370
  79.9220200  18.8842810  47.2297600  80.3847120  20.2407580  47.7173700
  76.3301580  13.7510540  33.6170430  75.7055760  13.7470410  34.3423740
  76.2431700  12.8841500  33.2206400  75.2518660  14.6747170  40.5954200
  75.5490990  15.5810000  40.5146220  75.8004220  14.1865950  39.9813770
  73.0056980  19.2533410  36.4645850  72.7797900  19.0370580  37.3692470
  72.2249510  19.6861870  36.1191820  80.2354740  19.2596780  35.0636500
  79.6363630  19.9832580  34.8800120  80.7834350  19.1973560  34.2812950
  75.4456190  20.1518990  47.1306120  75.3499790  19.2113720  46.9806520
  76.2888170  20.3734060  46.7354190  78.8419610  17.8960320  37.0939780
  79.2349180  18.2132520  36.2808470  79.2036460  17.0172200  37.2084300
  70.5766730  16.5632660  45.2839900  70.1830120  17.4107870  45.4912680
  69.8885130  15.9259030  45.4748540  77.1511780  16.6467630  48.3536640
  76.4610100  16.4539830  48.9882730  77.8944080  16.9302270  48.8860940
  67.8783780  14.4861120  39.3169980  67.5896830  15.0563980  40.0294960
  68.6229540  14.0065570  39.6801210  68.0654010  18.4281240  30.5272700
  67.9828680  19.3712000  30.6687690  67.7137070  18.2856150  29.6485050
  79.4274750  20.4866070  41.1890560  78.6955870  20.9952880  41.5380660
  79.0299090  19.6696050  40.8879340  75.8652140  17.1620270  39.5943050
  75.8688200  16.7210220  38.7447590  76.7603260  17.4837600  39.7014870
  71.7154520  17.0446760  38.5537260  71.3754570  17.5221990  39.3104310
  70.9531840  16.5911880  38.1938360  75.9272290  18.1632350  32.5849810
  76.0485110  18.1218830  33.5335630  75.5420800  19.0256500  32.4296540
  79.8900660  15.9399750  40.6013500  79.9073400  16.3908400  41.4455350
  79.6416240  15.0405390  40.8146940  74.9393790  20.4733490  31.9833110
  74.3710690  20.0251740  31.3569020  75.6482790  20.8326270  31.4498260
  83.3171410  13.3531930  46.4399880  83.6417180  12.6221590  46.9657860
  83.3527920  13.0345570  45.5380870  70.0162970  24.3745510  45.8599840
  69.6317760  23.7339180  46.4582800  70.3275160  25.0781630  46.4294570
  76.1660110  21.2222050  41.3408460  76.5330240  20.7480620  42.0869800
  75.9765170  22.0963620  41.6816800  69.0300600  15.9665740  37.4701930
  68.7447520  15.6021410  38.3080550  68.9679460  15.2346200  36.8565070
  73.9559480  20.2630690  43.6592670  73.6516550  21.1422670  43.8843030
  74.9105940  20.3230480  43.6950110  72.4841270  24.4691680  34.2559520
  71.7103530  23.9289300  34.0958240  73.2135900  23.9498290  33.9177280
  83.2429250  23.4657040  40.0485910  83.9628370  23.9612330  39.6582020
  83.0411070  22.7874930  39.4039780  78.7039190  14.8595000  34.1915300
  77.8903800  14.3608170  34.1160610  78.5101140  15.6993250  33.7751650
  78.6248050  23.5366100  45.9354910  78.5585360  22.6161770  45.6812500
  77.9953190  23.6341540  46.6499550  81.4187580  19.2314650  32.4877460
  82.3067200  19.5431880  32.3128800  81.3892670  18.3586900  32.0958040
  72.5278670  24.1372060  37.8938330  73.0457340  23.3340320  37.8395220
  72.0762690  24.0751200  38.7355160  77.4148170  25.4038340  33.1665630
  77.7563870  26.1480570  32.6708950  76.5860880  25.7169460  33.5290460
  70.0123210  21.1033430  44.8064030  69.6538150  21.7687280  45.3937370
  69.7177770  20.2716980  45.1776650  73.2136330  21.5617670  47.6903580
  72.9136470  21.7074850  46.7931400  73.9847570  21.0022960  47.5976970
  78.5564780  26.3586670  45.6858710  78.5709320  25.4267630  45.4677620
  77.8489880  26.4446430  46.3248480  83.6901850  20.5426490  31.9557320
  83.6065570  20.9740710  31.1053760  84.4096040  21.0024840  32.3884140
  84.7189100  27.3968750  34.6839450  84.0765260  26.7424370  34.9583170
  84.3319760  27.8023840  33.9080120  80.2975580  24.7254180  38.5311140
  80.6499400  24.1282310  37.8712510  79.4137910  24.3998410  38.7019390
  76.3838860  25.4851870  35.9381550  77.0709990  26.0321080  36.3189140
  75.5971280  26.0292600  35.9731160  68.5231260  21.1024690  31.4298630
  69.3926110  21.3849490  31.7134550  68.0321580  21.9160560  31.3147440
  75.6866070  22.4897900  35.5506910  76.1428850  23.3003150  35.7767100
  75.3354280  22.1721040  36.3825400  77.9898680  28.0004240  42.7799210
  78.6340900  28.2063620  43.4572630  78.3528120  27.2392640  42.3270060
  71.5877850  12.8335550  36.0229430  71.4592480  12.8253450  36.9714350
  70.7639870  13.1718640  35.6720440  79.2630760  26.0036590  41.4976660
  79.9052990  25.3029750  41.6108830  79.7880110  26.7835030  41.3173550
  83.1086480  26.2885210  31.2215800  82.8824060  25.5715650  31.8140440
  82.7182680  26.0397650  30.3837550  81.0368380  26.8031490  44.7012720
  81.3724620  27.3898180  45.3790640  80.1168720  26.6724200  44.9310510
  68.8902510  30.3152070  31.9960260  69.2500150  30.9141410  31.3417530
  68.7494850  30.8611960  32.7695290  68.5871780  14.5926670  45.4836130
  67.8730300  14.7923590  46.0888740  69.0066820  13.8166240  45.8550930
  82.6902730  24.2057150  32.8829960  82.4024430  24.6669840  33.6707840
  83.4854900  23.7454920  33.1514180  68.8744370  28.5806930  46.4702660
  68.9835490  27.6401670  46.3298050  68.2224930  28.8461680  45.8216390
  76.8656960  26.8522820  47.8700780  76.5453830  26.1332060  48.4146470
  76.1915320  27.5277890  47.9436840  74.9071130  27.6983270  32.8133930
  74.8981230  28.4312960  32.1978440  73.9869490  27.4514850  32.9060890
  70.5077770  22.9198160  33.5580690  69.9005720  23.6597060  33.5675990
  70.9827120  23.0097520  32.7318890  80.0810560  17.0848980  43.2337580
  80.4491380  16.2644190  43.5617150  79.2208760  17.1450870  43.6493230
  83.4472590  16.0405920  34.0425140  82.8185750  16.1451590  33.3283370
  82.9524510  16.2602700  34.8319020  77.8930730  27.7611510  31.4759120
  77.9942710  27.5575500  30.5461100  76.9932470  27.5069790  31.6806900
  75.4156620  18.3191870  35.4583020  74.7072770  18.7878210  35.8996630
  75.7001100  17.6613880  36.0928210  77.0412550  19.7388570  43.4575550
  77.5397800  20.2134390  44.1227400  77.1835500  18.8152090  43.6645580
  79.4472050  15.0442530  36.8978810  79.3239830  15.0628660  35.9488320
  80.3956610  15.0921470  37.0177210  76.5348840  30.2797830  36.1706790
  76.7890340  30.2419220  35.2486160  75.5861320  30.1531160  36.1635040
  73.6191640  16.6276950  32.8333730  74.4682170  17.0647100  32.7673920
  73.2522910  16.9397210  33.6605790  84.2479410  15.9556530  44.3003940
  83.7453010  16.6961930  44.6397750  85.0636070  16.3440530  43.9840730
  82.5401420  21.1989710  37.7465300  81.5991560  21.2139940  37.9212990
  82.8545490  20.4125670  38.1925600  72.5183060  22.8809310  31.3069260
  73.2846330  22.7690670  31.8694690  72.5957750  22.1847280  30.6546030
  71.2129820  20.3134380  31.9902150  71.2933410  19.3661890  32.1019550
  72.1049570  20.6441260  32.0962810  68.8990010  26.5303340  34.9678200
  67.9729790  26.7724480  34.9583610  69.3646440  27.3577600  34.8462950
  75.1246840  29.6360080  30.9162260  75.9175450  29.9248910  30.4644050
  74.6051190  29.2052250  30.2374740  79.8567440  25.7555710  48.2297680
  79.2505600  25.7787310  47.4893430  79.5521550  25.0238750  48.7664930
  81.2867810  29.4836000  46.8407090  82.2389560  29.3994020  46.7907330
  81.1396030  30.1477710  47.5140880  84.1777010  28.8630210  32.3399000
  83.8918520  28.4495350  31.5253180  83.9796560  29.7917920  32.2199520
  68.7400620  22.1349300  47.2258320  69.2439640  21.5556580  47.7974550
  68.0008040  22.4189530  47.7634690  75.6424240  24.8563490  30.7804610
  75.5374880  24.2415840  31.5065990  75.4748460  24.3329380  29.9967620
  75.7938560  23.5420290  46.7593840  75.0284230  24.1105290  46.6748510
  75.9754520  23.2496500  45.8662070  78.8826970  23.9183520  31.3846600
  78.3337070  24.3652820  32.0289340  79.5046230  23.4132770  31.9084270
  70.7723700  20.2778890  48.1208390  70.8129040  19.9792760  49.0293620
  71.6269200  20.6786500  47.9615910  74.5502090  22.8774440  33.2811900
  74.9718510  22.7114310  34.1243290  74.6752930  22.0674670  32.7867040
  72.7129510  18.8570990  46.0882880  72.1825970  18.3661940  45.4606220
  73.3817580  19.2855190  45.5540810  77.0629730  21.9012050  30.5289000
  77.5835390  21.1861070  30.1630150  77.7098130  22.5397920  30.8289510
  81.6107570  23.3240450  45.8524070  82.0248590  23.4785530  46.7014490
  80.6758570  23.4495670  46.0149850  82.0829740  20.6636610  47.8563220
  82.6650510  19.9088930  47.7683700  82.2591510  21.1944050  47.0794700
  73.2001810  15.8233360  46.1680170  73.1058680  15.2054110  45.4431040
  72.6199200  16.5499650  45.9410080  75.9663250  14.3806600  43.2007560
  75.5180550  14.4030860  42.3553110  75.3328450  13.9825620  43.7977860
  76.3722800  23.2760930  43.8220000  76.7910910  24.1193660  43.6496240
  75.4531430  23.4132970  43.5926780  78.7086700  21.0077110  45.2057840
  78.8282910  20.4118250  45.9452680  79.5680700  21.0446800  44.7859140
  81.0474600  21.5614300  43.7820350  80.5209820  22.0856920  43.1785490
  81.3905940  22.1941690  44.4130080  73.4460990  18.9507670  30.2270060
  73.2450050  18.0875030  30.5883400  73.2753040  18.8641030  29.2891660
  75.4755470  17.5498460  46.4633660  76.0655160  17.2414310  47.1511480
  74.6575710  17.0778210  46.6193560  80.2948900  17.1664270  46.6966680
  79.6064420  16.5045810  46.6316670  81.0154920  16.7202540  47.1415140
  80.9249300  13.7615900  32.7556940  81.2051590  12.9183800  33.1116360
  80.1515030  13.9939010  33.2695690  72.2443790  16.0508290  30.2147940
  72.5469690  16.0575720  29.3067090  72.9838380  15.7006150  30.7115600
  77.0792430  30.8165150  45.1964380  77.0051130  31.7200290  45.5036750
  76.1771270  30.4977050  45.1686450  75.4628720  14.9942910  31.2004140
  75.1150720  14.3166900  30.6206590  75.6641490  14.5332420  32.0147530
  77.6277760  29.9823660  32.8190740  78.5228550  30.3208630  32.8409500
  77.6595390  29.2603070  32.1915020  71.2673920  25.3550710  31.0477740
  71.7048790  25.8980380  31.7035320  71.7521650  24.5297660  31.0574080
  68.4819720  28.1439740  38.4998000  68.8122730  27.2760800  38.2676640
  68.9110720  28.3498260  39.3302960  73.0781640  26.4748750  36.1599970
  72.7777180  26.3513720  37.0603880  72.9719130  25.6157340  35.7515700
  85.8473560  26.2545150  30.8626650  85.0166520  26.3221800  31.3333880
  86.0245390  27.1449270  30.5593510  85.3030020  22.9992630  33.3660850
  86.0648930  23.5689280  33.4720540  85.3184390  22.4319830  34.1369160
  68.8034360  21.5230560  37.5968510  68.1483200  21.2542200  36.9528210
  69.6412310  21.4135040  37.1470490  86.3089990  23.8542730  38.2102780
  86.6798820  23.0710050  37.8038750  86.9491920  24.5431830  38.0320080
  85.3549190  23.2927000  30.5233370  85.6298030  24.2005880  30.3952590
  85.1659930  23.2289530  31.4595360  81.7524800  16.3171850  31.8187000
  82.1709680  16.1302830  30.9783660  81.4460860  15.4650900  32.1289930
  85.2514530  21.2295990  35.5162800  84.8758130  20.4623920  35.0844090
  84.5217650  21.6118690  36.0037730  69.8410290  21.9083130  42.1371850
  70.2083330  21.8210530  43.0167870  69.2721110  21.1449680  42.0378710
  84.6414150  20.3767510  45.1502320  84.4100240  20.1480260  44.2500270
  84.9018700  21.2967060  45.1047210  69.3926290  18.8192220  46.0430270
  68.4982340  18.7858980  46.3823980  69.9323840  19.0179010  46.8081520
  83.0802220  15.6023940  47.9282020  83.9572400  15.6107340  48.3116020
  83.0923060  14.8654780  47.3174370  68.0172440  18.7329490  33.5393840
  67.1136520  18.9959690  33.3645500  68.5013060  19.0040660  32.7593800
  84.5265490  19.4553480  38.8170040  85.0502970  18.9616130  38.1860210
  85.1124910  19.5903840  39.5617610  84.7055210  19.5393350  42.3389590
  83.7557920  19.5056890  42.4534580  84.8868220  20.4493460  42.1039360
  70.5599650  17.7895030  31.4488220  71.2691350  17.3678250  30.9635500
  69.8439590  17.8570260  30.8171570  70.2073810  13.8434360  30.4890870
  70.9301940  14.3843300  30.8072090  70.4798330  13.5697780  29.6132410
  84.0165460  18.7126830  34.7562450  84.5124580  18.4797700  35.5411330
  83.8181530  17.8738670  34.3400090  69.8966000  13.0940550  40.3913490
  70.5442190  12.5437930  39.9508650  70.3167840  13.3483700  41.2129300
  85.4452620  17.3487780  37.2900130  85.3351900  17.1943820  38.2282400
  86.2060210  16.8208720  37.0475540  83.7918340  13.2881910  43.7483130
  84.4290560  13.9016050  44.1142320  83.9393230  13.3242570  42.8032360
  86.3342890  15.1795700  30.5306270  87.2592200  15.0476880  30.3224560
  86.3118680  15.2588520  31.4842720  86.4081380  15.9506360  33.1562980
  85.6132880  15.8851480  33.6855890  86.6124660  16.8857000  33.1448330
  69.6498000  13.2496220  43.1338810  69.3012820  13.7060040  43.8996990
  69.3185700  12.3553350  43.2161240  71.2562370  26.4215820  47.2992000
  71.2132000  26.0508730  48.1806460  71.3873380  27.3593390  47.4393820
  74.9568400  27.9775410  42.9001720  74.7159760  28.2449970  42.0132240
  75.8971040  28.1481140  42.9552580  77.1622820  14.4408100  46.6558230
  77.1011710  15.0329930  47.4053640  78.1023200  14.3334060  46.5108490
  79.7997380  14.0978160  46.2950520  80.4137790  14.4157450  45.6331600
  80.3446940  13.6126750  46.9146380  70.3218640  12.7772420  46.4089580
  70.8701630  12.5960470  45.6455690  70.3873950  11.9866530  46.9445890
  80.5405420  12.6610300  42.6219810  79.6665260  12.9945410  42.4192740
  80.4316170  12.1883480  43.4471680  81.4477400  14.8681170  44.0061530
  81.1190760  14.0532930  43.6263260  82.3959700  14.8250980  43.8827220
  70.7262630  26.7336450  43.3697820  69.9996690  26.1141740  43.3023770
  70.7871780  27.1277060  42.4995900  74.3307730  28.9481450  40.1547230
  74.8472750  28.3368810  39.6295490  74.9805110  29.4510230  40.6458240
  77.0703230  29.8389940  40.9816210  77.3581040  29.5844240  40.1049220
  77.5826450  29.2867300  41.5721780  78.2880240  13.5780140  41.5612720
  77.5052030  14.0525640  41.8409480  77.9943170  12.6734970  41.4525900
  82.8401310  14.2803240  39.6061810  83.2809400  14.2248340  38.7583410
  82.5708900  15.1961250  39.6771990  84.7039880  13.9118480  37.6170630
  84.6428280  12.9679700  37.4701650  85.4831910  14.0198570  38.1624090
  69.0092630  30.0510840  36.5794580  68.8414670  29.4181520  37.2776470
  68.1427140  30.2570240  36.2288770  69.6320650  13.8827620  34.0826440
  70.3900010  13.9956500  33.5090470  69.1697820  14.7196820  34.0369870
  76.1734460  15.9966890  37.0728750  75.3608970  15.6223780  36.7324630
  76.6776100  15.2411970  37.3749940  80.6759440  12.6609340  38.3111820
  81.2788810  13.2329550  38.7860340  79.9352430  13.2248780  38.0885720
  83.8194040  13.0630900  33.5852100  84.0144670  13.9614350  33.8519530
  83.0323910  12.8317980  34.0785050  70.6155330  28.7444070  34.0244720
  70.0902950  29.1252100  33.3206680  70.5399910  29.3694840  34.7454430
  72.0045800  14.4091670  32.6228410  72.5338560  13.6221470  32.4936360
  72.6374120  15.0882860  32.8563940  74.1983640  14.1466810  35.6773800
  73.5686380  13.4454120  35.8443930  73.6588780  14.9070940  35.4606960
  77.1375590  30.7606040  48.3484410  78.0642900  30.5250310  48.3920370
  77.1226020  31.5878040  47.8670440  85.3720650  30.3031610  35.3458660
  85.5472840  29.6169350  34.7019580  84.6742220  30.8278660  34.9535330
  74.3239200  13.4250790  48.1126290  74.0423470  13.9284390  47.3487110
  74.7058900  12.6272540  47.7468420  73.2148300  30.6926450  32.8993970
  73.9467120  30.4085730  32.3517860  73.4741970  30.4539730  33.7893350
  72.3763090  26.8091180  32.9040300  71.7471970  27.2776280  33.4526130
  72.4910920  25.9640400  33.3386490  80.9254660  12.8404370  48.6906760
  80.8120110  13.1598980  49.5858280  81.7424400  13.2416880  48.3944040
  83.7053150  29.9875900  48.1725450  84.4978470  29.4925130  47.9651410
  83.9986300  30.6666040  48.7801060  79.8312810  20.8596840  19.0541500
  79.7506860  19.9451450  18.7833210  79.4177230  21.3563910  18.3481210
  77.9630850  22.6375860  20.9350770  77.1872950  22.1576300  21.2249340
  78.6143780  21.9581510  20.7606930  71.9796680  22.9495670  21.8126530
  71.1481560  22.6944380  22.2123040  72.5877660  23.0206440  22.5484450
  81.9838280  27.0436050  19.7149900  81.5219810  26.2723290  20.0437070
  82.7963830  27.0702120  20.2202350  71.9597940  26.9835760  22.0084550
  72.2625980  26.0933500  21.8294770  72.7041530  27.5405980  21.7806800
  70.3888630  17.9097560  15.5968920  69.5005330  18.2513530  15.4948800
  70.6729820  17.7097880  14.7049750  68.3521640  20.5103210  21.4808620
  68.9237750  19.7425410  21.4812260  68.3523180  20.8091970  20.5715230
  78.2101590  29.3294060  19.3353890  77.5913030  29.7851560  18.7648330
  79.0653370  29.4845520  18.9343590  77.4039840  25.3133050  20.9420930
  77.3348120  24.3722990  20.7810060  78.1659700  25.4034460  21.5143500
  69.5946510  15.9187570  23.2677550  69.4149350  15.0213320  23.5480310
  69.1926590  16.4659440  23.9424500  78.4345010  18.1203430  21.1689860
  78.8109830  17.2475310  21.0563530  78.3364520  18.4562130  20.2780300
  72.5650020  16.4929060  16.6307300  72.6716770  17.3932790  16.9376060
  71.6542380  16.4447030  16.3401950  82.2169130  15.6153870  18.1018200
  83.0378750  15.1250440  18.1443680  82.2503210  16.2051530  18.8550040
  70.2133180  18.4148070  21.8759890  70.8943290  18.6786440  22.4947290
  69.8981230  17.5748940  22.2097900  74.4057750  19.4615430  20.9632480
  74.9135970  19.9596400  21.6037500  74.9370990  18.6850630  20.7871840
  86.5068680  17.6320620  24.6661830  85.8020850  18.0202330  24.1476940
  86.7726600  18.3270910  25.2682760  72.6893850  14.1013990  25.2295900
  72.6912290  14.6186380  24.4241800  71.8598160  13.6244170  25.2065830
  79.0764940  24.2133300  16.7285800  78.4582210  24.6782750  16.1648520
  79.5888190  24.9060780  17.1455310  73.9396700  23.7409170  23.4069400
  73.6066080  24.3678090  24.0490470  74.1163380  24.2671050  22.6271070
  82.4530610  17.5554250  20.8745740  81.7486180  17.8439140  21.4548850
  82.8142770  18.3654360  20.5145300  72.3709180  15.8123950  23.2366350
  72.7125990  16.6566000  22.9420220  71.4324990  15.9607690  23.3531690
  73.1515800  25.7089970  25.2218580  73.7689800  26.3841050  24.9403030
  72.2908920  26.1177950  25.1306080  68.4448140  24.8989830  14.1025430
  68.0676120  25.3876930  13.3710330  68.7021210  25.5715110  14.7331960
  84.0693390  27.1729380  23.1373220  83.3856910  27.8428490  23.1289890
  84.6087680  27.3710030  22.3718080  85.5217530  17.0009040  21.2654950
  84.5742440  17.0348020  21.3970380  85.8467520  17.8147990  21.6504310
  76.0537070  13.3006220  19.5610940  76.3612050  12.7453110  18.8446440
  75.1237770  13.4350680  19.3783930  81.6052130  29.0173510  21.8518400
  81.6179290  28.6135800  20.9840660  81.0527350  29.7920800  21.7479830
  82.8997550  25.7389730  16.9408570  82.7893880  24.7964060  17.0657990
  82.8965800  26.1005370  17.8271330  81.0037570  23.9203350  23.1801010
  81.4206360  23.7063460  22.3454470  81.7277390  24.1776140  23.7509630
  78.4417830  21.3655050  16.2971060  77.5147110  21.2992430  16.5259530
  78.5942650  22.3035180  16.1826300  78.4286910  17.6372050  13.2938220
  77.4890580  17.7986010  13.3790680  78.7470170  18.3557730  12.7474210
  84.9499670  22.3190570  23.2717250  84.1218300  22.3883660  22.7967380
  85.5450150  22.9044880  22.8033080  82.4715120  22.9275350  16.8006310
  81.8527540  22.5894900  16.1532610  82.4539570  22.2835110  17.5085500
  81.9141680  19.1059890  24.2172120  81.5012860  19.9313600  24.4712110
  81.1817630  18.5204930  24.0248480  74.0474470  21.8919790  19.0790790
  73.6431470  21.1797040  18.5836690  74.1337590  21.5473030  19.9678830
  74.5156170  25.5787350  21.2430000  74.2184460  24.9732820  20.5637780
  75.4655990  25.6164660  21.1319360  72.7603090  18.6663000  22.8589830
  73.3117680  18.7758340  22.0843080  73.2746600  19.0400600  23.5745060
  82.6041780  29.1519220  24.9053100  82.1272340  29.9591410  24.7125710
  81.9203570  28.4997550  25.0579310  73.6074600  25.3169040  27.8937800
  72.7103130  25.5409010  28.1411200  73.6327470  25.4403980  26.9449200
  80.6479820  22.1662160  13.8079060  81.0873100  21.3284590  13.6616880
  81.3608240  22.7991560  13.8943200  72.4345820  22.1882360  26.4695170
  72.2953590  23.0605160  26.8382570  71.5527180  21.8455170  26.3243110
  78.7575200  27.1058230  17.7760300  79.1971110  27.8482560  17.3615690
  78.6962090  27.3484800  18.6999260  74.2326170  28.1304060  28.6780320
  74.2041600  28.5347010  27.8108750  74.0691140  27.2014420  28.5151920
  84.2296960  13.4204970  12.1220100  83.9169620  13.5131800  13.0219170
  84.9909430  13.9986000  12.0717530  70.7479100  20.7864770  16.5797440
  70.6276700  21.5126860  15.9678710  70.4379990  20.0167680  16.1025350
  86.1840990  28.9131160  29.9744490  86.6600710  29.3914050  30.6533570
  86.8048150  28.8448650  29.2489990  68.3864470  23.9579910  22.3866080
  68.4644890  24.0928680  21.4421800  69.0006150  23.2495800  22.5794200
  69.6312100  25.6580100  18.7972260  69.2240180  25.7994690  17.9425860
  70.5225110  25.3740260  18.5943470  85.5874240  26.1044010  27.1344500
  85.7137300  25.8655890  26.2161680  85.6295620  25.2728550  27.6066580
  79.4490980  29.8072010  25.7039310  79.9635650  29.7180020  26.5061740
  78.6060060  30.1531710  25.9967220  81.4245380  30.0927350  15.1323310
  81.2646520  29.8030290  16.0305140  81.2592090  29.3167480  14.5968540
  73.9033760  29.8725880  16.9094930  73.7276240  28.9561420  16.6962730
  73.0489500  30.2313170  17.1492730  81.1271510  27.6014910  13.6921310
  80.4336670  27.5992200  13.0323590  81.8694370  27.1774230  13.2615480
  80.6921440  29.2277620  17.7669800  81.1478390  28.4467000  18.0808420
  81.0313960  29.9384440  18.3110980  85.4398250  18.1576470  28.0994240
  84.8242520  18.6656140  27.5709700  85.1194670  17.2574800  28.0420180
  68.4423990  24.9994080  24.9260540  68.6055030  24.5299440  24.1079910
  68.9076440  24.4917640  25.5909380  73.2142760  14.1299840  19.9621110
  72.7710910  14.9109380  19.6305630  73.7727750  14.4529730  20.6692050
  77.5012570  16.9968360  25.5656430  77.0391940  17.2051380  26.3776370
  77.0990680  16.1827710  25.2627100  82.5017080  18.2177310  26.6953090
  81.6510670  17.9183060  27.0162160  82.3418870  18.4619320  25.7836910
  79.5966790  19.7179060  28.7951880  79.9220200  18.8842810  28.4554110
  80.3847120  20.2407580  28.9430210  76.3301580  13.7510540  14.8426940
  75.7055760  13.7470410  15.5680250  76.2431700  12.8841500  14.4462910
  75.2518660  14.6747170  21.8210710  75.5490990  15.5810000  21.7402730
  75.8004220  14.1865950  21.2070280  73.0056980  19.2533410  17.6902360
  72.7797900  19.0370580  18.5948980  72.2249510  19.6861870  17.3448330
  80.2354740  19.2596780  16.2893010  79.6363630  19.9832580  16.1056630
  80.7834350  19.1973560  15.5069460  75.4456190  20.1518990  28.3562630
  75.3499790  19.2113720  28.2063030  76.2888170  20.3734060  27.9610700
  78.8419610  17.8960320  18.3196290  79.2349180  18.2132520  17.5064980
  79.2036460  17.0172200  18.4340810  70.5766730  16.5632660  26.5096410
  70.1830120  17.4107870  26.7169190  69.8885130  15.9259030  26.7005050
  77.1511780  16.6467630  29.5793150  76.4610100  16.4539830  30.2139240
  77.8944080  16.9302270  30.1117450  67.8783780  14.4861120  20.5426490
  67.5896830  15.0563980  21.2551470  68.6229540  14.0065570  20.9057720
  68.0654010  18.4281240  11.7529210  67.9828680  19.3712000  11.8944200
  67.7137070  18.2856150  10.8741560  79.4274750  20.4866070  22.4147070
  78.6955870  20.9952880  22.7637170  79.0299090  19.6696050  22.1135850
  75.8652140  17.1620270  20.8199560  75.8688200  16.7210220  19.9704100
  76.7603260  17.4837600  20.9271380  71.7154520  17.0446760  19.7793770
  71.3754570  17.5221990  20.5360820  70.9531840  16.5911880  19.4194870
  75.9272290  18.1632350  13.8106320  76.0485110  18.1218830  14.7592140
  75.5420800  19.0256500  13.6553050  79.8900660  15.9399750  21.8270010
  79.9073400  16.3908400  22.6711860  79.6416240  15.0405390  22.0403450
  74.9393790  20.4733490  13.2089620  74.3710690  20.0251740  12.5825530
  75.6482790  20.8326270  12.6754770  83.3171410  13.3531930  27.6656390
  83.6417180  12.6221590  28.1914370  83.3527920  13.0345570  26.7637380
  70.0162970  24.3745510  27.0856350  69.6317760  23.7339180  27.6839310
  70.3275160  25.0781630  27.6551080  76.1660110  21.2222050  22.5664970
  76.5330240  20.7480620  23.3126310  75.9765170  22.0963620  22.9073310
  69.0300600  15.9665740  18.6958440  68.7447520  15.6021410  19.5337060
  68.9679460  15.2346200  18.0821580  73.9559480  20.2630690  24.8849180
  73.6516550  21.1422670  25.1099540  74.9105940  20.3230480  24.9206620
  72.4841270  24.4691680  15.4816030  71.7103530  23.9289300  15.3214750
  73.2135900  23.9498290  15.1433790  83.2429250  23.4657040  21.2742420
  83.9628370  23.9612330  20.8838530  83.0411070  22.7874930  20.6296290
  78.7039190  14.8595000  15.4171810  77.8903800  14.3608170  15.3417120
  78.5101140  15.6993250  15.0008160  78.6248050  23.5366100  27.1611420
  78.5585360  22.6161770  26.9069010  77.9953190  23.6341540  27.8756060
  81.4187580  19.2314650  13.7133970  82.3067200  19.5431880  13.5385310
  81.3892670  18.3586900  13.3214550  72.5278670  24.1372060  19.1194840
  73.0457340  23.3340320  19.0651730  72.0762690  24.0751200  19.9611670
  77.4148170  25.4038340  14.3922140  77.7563870  26.1480570  13.8965460
  76.5860880  25.7169460  14.7546970  70.0123210  21.1033430  26.0320540
  69.6538150  21.7687280  26.6193880  69.7177770  20.2716980  26.4033160
  73.2136330  21.5617670  28.9160090  72.9136470  21.7074850  28.0187910
  73.9847570  21.0022960  28.8233480  78.5564780  26.3586670  26.9115220
  78.5709320  25.4267630  26.6934130  77.8489880  26.4446430  27.5504990
  83.6901850  20.5426490  13.1813830  83.6065570  20.9740710  12.3310270
  84.4096040  21.0024840  13.6140650  84.7675990  22.9994010  26.2583800
  84.0424180  23.5922790  26.0613190  85.2951450  22.9917550  25.4597170
  84.7189100  27.3968750  15.9095960  84.0765260  26.7424370  16.1839680
  84.3319760  27.8023840  15.1336630  80.2975580  24.7254180  19.7567650
  80.6499400  24.1282310  19.0969020  79.4137910  24.3998410  19.9275900
  76.3838860  25.4851870  17.1638060  77.0709990  26.0321080  17.5445650
  75.5971280  26.0292600  17.1987670  68.5231260  21.1024690  12.6555140
  69.3926110  21.3849490  12.9391060  68.0321580  21.9160560  12.5403950
  75.6866070  22.4897900  16.7763420  76.1428850  23.3003150  17.0023610
  75.3354280  22.1721040  17.6081910  77.9898680  28.0004240  24.0055720
  78.6340900  28.2063620  24.6829140  78.3528120  27.2392640  23.5526570
  71.5877850  12.8335550  17.2485940  71.4592480  12.8253450  18.1970860
  70.7639870  13.1718640  16.8976950  79.2630760  26.0036590  22.7233170
  79.9052990  25.3029750  22.8365340  79.7880110  26.7835030  22.5430060
  83.1086480  26.2885210  12.4472310  82.8824060  25.5715650  13.0396950
  82.7182680  26.0397650  11.6094060  81.0368380  26.8031490  25.9269230
  81.3724620  27.3898180  26.6047150  80.1168720  26.6724200  26.1567020
  68.8902510  30.3152070  13.2216770  69.2500150  30.9141410  12.5674040
  68.7494850  30.8611960  13.9951800  68.5871780  14.5926670  26.7092640
  67.8730300  14.7923590  27.3145250  69.0066820  13.8166240  27.0807440
  82.6902730  24.2057150  14.1086470  82.4024430  24.6669840  14.8964350
  83.4854900  23.7454920  14.3770690  68.8744370  28.5806930  27.6959170
  68.9835490  27.6401670  27.5554560  68.2224930  28.8461680  27.0472900
  76.8656960  26.8522820  29.0957290  76.5453830  26.1332060  29.6402980
  76.1915320  27.5277890  29.1693350  74.9071130  27.6983270  14.0390440
  74.8981230  28.4312960  13.4234950  73.9869490  27.4514850  14.1317400
  70.5077770  22.9198160  14.7837200  69.9005720  23.6597060  14.7932500
  70.9827120  23.0097520  13.9575400  80.0810560  17.0848980  24.4594090
  80.4491380  16.2644190  24.7873660  79.2208760  17.1450870  24.8749740
  83.4472590  16.0405920  15.2681650  82.8185750  16.1451590  14.5539880
  82.9524510  16.2602700  16.0575530  77.8930730  27.7611510  12.7015630
  77.9942710  27.5575500  11.7717610  76.9932470  27.5069790  12.9063410
  75.4156620  18.3191870  16.6839530  74.7072770  18.7878210  17.1253140
  75.7001100  17.6613880  17.3184720  77.0412550  19.7388570  24.6832060
  77.5397800  20.2134390  25.3483910  77.1835500  18.8152090  24.8902090
  79.4472050  15.0442530  18.1235320  79.3239830  15.0628660  17.1744830
  80.3956610  15.0921470  18.2433720  76.5348840  30.2797830  17.3963300
  76.7890340  30.2419220  16.4742670  75.5861320  30.1531160  17.3891550
  73.6191640  16.6276950  14.0590240  74.4682170  17.0647100  13.9930430
  73.2522910  16.9397210  14.8862300  84.2479410  15.9556530  25.5260450
  83.7453010  16.6961930  25.8654260  85.0636070  16.3440530  25.2097240
  82.5401420  21.1989710  18.9721810  81.5991560  21.2139940  19.1469500
  82.8545490  20.4125670  19.4182110  72.5183060  22.8809310  12.5325770
  73.2846330  22.7690670  13.0951200  72.5957750  22.1847280  11.8802540
  71.2129820  20.3134380  13.2158660  71.2933410  19.3661890  13.3276060
  72.1049570  20.6441260  13.3219320  84.5427000  28.3698560  20.6476070
  84.6674420  29.1929730  21.1199880  85.4092560  28.1589290  20.3000220
  72.0144530  30.4629770  20.3193200  72.7507010  29.9145230  20.5901770
  72.3985450  31.3285780  20.1799190  68.8990010  26.5303340  16.1934710
  67.9729790  26.7724480  16.1840120  69.3646440  27.3577600  16.0719460
  71.0202810  29.6475840  29.5078780  71.8215540  29.9687890  29.9214180
  70.5054630  29.2871420  30.2298690  75.1246840  29.6360080  12.1418770
  75.9175450  29.9248910  11.6900560  74.6051190  29.2052250  11.4631250
  79.8567440  25.7555710  29.4554190  79.2505600  25.7787310  28.7149940
  79.5521550  25.0238750  29.9921440  81.2867810  29.4836000  28.0663600
  82.2389560  29.3994020  28.0163840  81.1396030  30.1477710  28.7397390
  84.1777010  28.8630210  13.5655510  83.8918520  28.4495350  12.7509690
  83.9796560  29.7917920  13.4456030  68.7400620  22.1349300  28.4514830
  69.2439640  21.5556580  29.0231060  68.0008040  22.4189530  28.9891200
  75.6424240  24.8563490  12.0061120  75.5374880  24.2415840  12.7322500
  75.4748460  24.3329380  11.2224130  75.7938560  23.5420290  27.9850350
  75.0284230  24.1105290  27.9005020  75.9754520  23.2496500  27.0918580
  78.8826970  23.9183520  12.6103110  78.3337070  24.3652820  13.2545850
  79.5046230  23.4132770  13.1340780  82.9361910  25.2725620  28.5425370
  83.6771380  25.6101380  28.0392830  82.1734590  25.4417680  27.9895140
  70.7723700  20.2778890  29.3464900  70.8129040  19.9792760  30.2550130
  71.6269200  20.6786500  29.1872420  74.5502090  22.8774440  14.5068410
  74.9718510  22.7114310  15.3499800  74.6752930  22.0674670  14.0123550
  72.7129510  18.8570990  27.3139390  72.1825970  18.3661940  26.6862730
  73.3817580  19.2855190  26.7797320  77.0629730  21.9012050  11.7545510
  77.5835390  21.1861070  11.3886660  77.7098130  22.5397920  12.0546020
  81.6107570  23.3240450  27.0780580  82.0248590  23.4785530  27.9271000
  80.6758570  23.4495670  27.2406360  82.0829740  20.6636610  29.0819730
  82.6650510  19.9088930  28.9940210  82.2591510  21.1944050  28.3051210
  73.2001810  15.8233360  27.3936680  73.1058680  15.2054110  26.6687550
  72.6199200  16.5499650  27.1666590  75.9663250  14.3806600  24.4264070
  75.5180550  14.4030860  23.5809620  75.3328450  13.9825620  25.0234370
  76.3722800  23.2760930  25.0476510  76.7910910  24.1193660  24.8752750
  75.4531430  23.4132970  24.8183290  78.7086700  21.0077110  26.4314350
  78.8282910  20.4118250  27.1709190  79.5680700  21.0446800  26.0115650
  81.0474600  21.5614300  25.0076860  80.5209820  22.0856920  24.4042000
  81.3905940  22.1941690  25.6386590  73.4460990  18.9507670  11.4526570
  73.2450050  18.0875030  11.8139910  73.2753040  18.8641030  10.5148170
  74.2230220  29.5813940  26.1634240  73.6851310  30.3060000  25.8442940
  74.4764180  29.1044280  25.3731580  75.4755470  17.5498460  27.6890170
  76.0655160  17.2414310  28.3767990  74.6575710  17.0778210  27.8450070
  80.2948900  17.1664270  27.9223190  79.6064420  16.5045810  27.8573180
  81.0154920  16.7202540  28.3671650  80.9249300  13.7615900  13.9813450
  81.2051590  12.9183800  14.3372870  80.1515030  13.9939010  14.4952200
  72.2443790  16.0508290  11.4404450  72.5469690  16.0575720  10.5323600
  72.9838380  15.7006150  11.9372110  77.0792430  30.8165150  26.4220890
  77.0051130  31.7200290  26.7293260  76.1771270  30.4977050  26.3942960
  75.4628720  14.9942910  12.4260650  75.1150720  14.3166900  11.8463100
  75.6641490  14.5332420  13.2404040  77.6277760  29.9823660  14.0447250
  78.5228550  30.3208630  14.0666010  77.6595390  29.2603070  13.4171530
  71.2673920  25.3550710  12.2734250  71.7048790  25.8980380  12.9291830
  71.7521650  24.5297660  12.2830590  68.4819720  28.1439740  19.7254510
  68.8122730  27.2760800  19.4933150  68.9110720  28.3498260  20.5559470
  73.0781640  26.4748750  17.3856480  72.7777180  26.3513720  18.2860390
  72.9719130  25.6157340  16.9772210  68.9709930  29.0110330  22.4636140
  68.5340920  29.1911130  23.2960290  69.5387610  29.7684950  22.3217860
  84.6072110  28.5127330  26.7513450  84.0074100  28.5719890  26.0077370
  84.7366010  27.5732310  26.8810300  85.8473560  26.2545150  12.0883160
  85.0166520  26.3221800  12.5590390  86.0245390  27.1449270  11.7850020
  85.3030020  22.9992630  14.5917360  86.0648930  23.5689280  14.6977050
  85.3184390  22.4319830  15.3625670  68.8034360  21.5230560  18.8225020
  68.1483200  21.2542200  18.1784720  69.6412310  21.4135040  18.3727000
  86.3089990  23.8542730  19.4359290  86.6798820  23.0710050  19.0295260
  86.9491920  24.5431830  19.2576590  83.2923750  25.2379310  24.8489610
  82.4783590  25.6676470  25.1115400  83.6997950  25.8497720  24.2358660
  85.3549190  23.2927000  11.7489880  85.6298030  24.2005880  11.6209100
  85.1659930  23.2289530  12.6851870  81.7524800  16.3171850  13.0443510
  82.1709680  16.1302830  12.2040170  81.4460860  15.4650900  13.3546440
  85.2514530  21.2295990  16.7419310  84.8758130  20.4623920  16.3100600
  84.5217650  21.6118690  17.2294240  69.8410290  21.9083130  23.3628360
  70.2083330  21.8210530  24.2424380  69.2721110  21.1449680  23.2635220
  84.6414150  20.3767510  26.3758830  84.4100240  20.1480260  25.4756780
  84.9018700  21.2967060  26.3303720  69.3926290  18.8192220  27.2686780
  68.4982340  18.7858980  27.6080490  69.9323840  19.0179010  28.0338030
  83.0802220  15.6023940  29.1538530  83.9572400  15.6107340  29.5372530
  83.0923060  14.8654780  28.5430880  68.0172440  18.7329490  14.7650350
  67.1136520  18.9959690  14.5902010  68.5013060  19.0040660  13.9850310
  84.5265490  19.4553480  20.0426550  85.0502970  18.9616130  19.4116720
  85.1124910  19.5903840  20.7874120  84.7055210  19.5393350  23.5646100
  83.7557920  19.5056890  23.6791090  84.8868220  20.4493460  23.3295870
  70.5599650  17.7895030  12.6744730  71.2691350  17.3678250  12.1892010
  69.8439590  17.8570260  12.0428080  70.2073810  13.8434360  11.7147380
  70.9301940  14.3843300  12.0328600  70.4798330  13.5697780  10.8388920
  84.0165460  18.7126830  15.9818960  84.5124580  18.4797700  16.7667840
  83.8181530  17.8738670  15.5656600  69.8966000  13.0940550  21.6170000
  70.5442190  12.5437930  21.1765160  70.3167840  13.3483700  22.4385810
  85.4452620  17.3487780  18.5156640  85.3351900  17.1943820  19.4538910
  86.2060210  16.8208720  18.2732050  83.7918340  13.2881910  24.9739640
  84.4290560  13.9016050  25.3398830  83.9393230  13.3242570  24.0288870
  86.3342890  15.1795700  11.7562780  87.2592200  15.0476880  11.5481070
  86.3118680  15.2588520  12.7099230  86.4081380  15.9506360  14.3819490
  85.6132880  15.8851480  14.9112400  86.6124660  16.8857000  14.3704840
  83.3499800  29.9897910  18.3757880  83.9458870  29.6682480  17.6992300
  83.6077950  29.5169730  19.1671150  69.6498000  13.2496220  24.3595320
  69.3012820  13.7060040  25.1253500  69.3185700  12.3553350  24.4417750
  71.2562370  26.4215820  28.5248510  71.2132000  26.0508730  29.4062970
  71.3873380  27.3593390  28.6650330  74.9568400  27.9775410  24.1258230
  74.7159760  28.2449970  23.2388750  75.8971040  28.1481140  24.1809090
  77.1622820  14.4408100  27.8814740  77.1011710  15.0329930  28.6310150
  78.1023200  14.3334060  27.7365000  79.7997380  14.0978160  27.5207030
  80.4137790  14.4157450  26.8588110  80.3446940  13.6126750  28.1402890
  86.2172560  29.9969790  24.9268870  85.7230840  30.3938660  24.2096000
  85.6085850  29.3719000  25.3206150  70.3218640  12.7772420  27.6346090
  70.8701630  12.5960470  26.8712200  70.3873950  11.9866530  28.1702400
  71.0950400  29.3678070  25.6446290  70.5010720  29.2362770  26.3836330
  71.0874240  28.5316210  25.1788390  80.5405420  12.6610300  23.8476320
  79.6665260  12.9945410  23.6449250  80.4316170  12.1883480  24.6728190
  81.4477400  14.8681170  25.2318040  81.1190760  14.0532930  24.8519770
  82.3959700  14.8250980  25.1083730  83.9012010  30.6393210  22.2055610
  83.4414980  31.3909020  21.8313630  83.2724470  29.9199680  22.1470410
  70.7262630  26.7336450  24.5954330  69.9996690  26.1141740  24.5280280
  70.7871780  27.1277060  23.7252410  74.3307730  28.9481450  21.3803740
  74.8472750  28.3368810  20.8552000  74.9805110  29.4510230  21.8714750
  77.0703230  29.8389940  22.2072720  77.3581040  29.5844240  21.3305730
  77.5826450  29.2867300  22.7978290  78.2880240  13.5780140  22.7869230
  77.5052030  14.0525640  23.0665990  77.9943170  12.6734970  22.6782410
  82.8401310  14.2803240  20.8318320  83.2809400  14.2248340  19.9839920
  82.5708900  15.1961250  20.9028500  84.7039880  13.9118480  18.8427140
  84.6428280  12.9679700  18.6958160  85.4831910  14.0198570  19.3880600
  69.0092630  30.0510840  17.8051090  68.8414670  29.4181520  18.5032980
  68.1427140  30.2570240  17.4545280  69.6320650  13.8827620  15.3082950
  70.3900010  13.9956500  14.7346980  69.1697820  14.7196820  15.2626380
  76.1734460  15.9966890  18.2985260  75.3608970  15.6223780  17.9581140
  76.6776100  15.2411970  18.6006450  80.6759440  12.6609340  19.5368330
  81.2788810  13.2329550  20.0116850  79.9352430  13.2248780  19.3142230
  83.8194040  13.0630900  14.8108610  84.0144670  13.9614350  15.0776040
  83.0323910  12.8317980  15.3041560  70.6155330  28.7444070  15.2501230
  70.0902950  29.1252100  14.5463190  70.5399910  29.3694840  15.9710940
  72.0045800  14.4091670  13.8484920  72.5338560  13.6221470  13.7192870
  72.6374120  15.0882860  14.0820450  74.1983640  14.1466810  16.9030310
  73.5686380  13.4454120  17.0700440  73.6588780  14.9070940  16.6863470
  77.1375590  30.7606040  29.5740920  78.0642900  30.5250310  29.6176880
  77.1226020  31.5878040  29.0926950  85.3720650  30.3031610  16.5715170
  85.5472840  29.6169350  15.9276090  84.6742220  30.8278660  16.1791840
  74.3239200  13.4250790  29.3382800  74.0423470  13.9284390  28.5743620
  74.7058900  12.6272540  28.9724930  73.2148300  30.6926450  14.1250480
  73.9467120  30.4085730  13.5774370  73.4741970  30.4539730  15.0149860
  72.3763090  26.8091180  14.1296810  71.7471970  27.2776280  14.6782640
  72.4910920  25.9640400  14.5643000  80.9254660  12.8404370  29.9163270
  80.8120110  13.1598980  30.8114790  81.7424400  13.2416880  29.6200550
  83.7053150  29.9875900  29.3981960  84.4978470  29.4925130  29.1907920
  83.9986300  30.6666040  30.0057570  77.9630850  22.6375860   2.1607280
  77.1872950  22.1576300   2.4505850  78.6143780  21.9581510   1.9863440
  71.9796680  22.9495670   3.0383040  71.1481560  22.6944380   3.4379550
  72.5877660  23.0206440   3.7740960  71.9597940  26.9835760   3.2341060
  72.2625980  26.0933500   3.0551280  72.7041530  27.5405980   3.0063310
  68.3521640  20.5103210   2.7065130  68.9237750  19.7425410   2.7068770
  68.3523180  20.8091970   1.7971740  77.4039840  25.3133050   2.1677440
  77.3348120  24.3722990   2.0066570  78.1659700  25.4034460   2.7400010
  69.5946510  15.9187570   4.4934060  69.4149350  15.0213320   4.7736820
  69.1926590  16.4659440   5.1681010  70.2133180  18.4148070   3.1016400
  70.8943290  18.6786440   3.7203800  69.8981230  17.5748940   3.4354410
  74.4057750  19.4615430   2.1888990  74.9135970  19.9596400   2.8294010
  74.9370990  18.6850630   2.0128350  86.5068680  17.6320620   5.8918340
  85.8020850  18.0202330   5.3733450  86.7726600  18.3270910   6.4939270
  72.6893850  14.1013990   6.4552410  72.6912290  14.6186380   5.6498310
  71.8598160  13.6244170   6.4322340  73.9396700  23.7409170   4.6325910
  73.6066080  24.3678090   5.2746980  74.1163380  24.2671050   3.8527580
  82.4530610  17.5554250   2.1002250  81.7486180  17.8439140   2.6805360
  82.8142770  18.3654360   1.7401810  72.3709180  15.8123950   4.4622860
  72.7125990  16.6566000   4.1676730  71.4324990  15.9607690   4.5788200
  73.1515800  25.7089970   6.4475090  73.7689800  26.3841050   6.1659540
  72.2908920  26.1177950   6.3562590  84.0693390  27.1729380   4.3629730
  83.3856910  27.8428490   4.3546400  84.6087680  27.3710030   3.5974590
  85.5217530  17.0009040   2.4911460  84.5742440  17.0348020   2.6226890
  85.8467520  17.8147990   2.8760820  81.6052130  29.0173510   3.0774910
  81.6179290  28.6135800   2.2097170  81.0527350  29.7920800   2.9736340
  81.0037570  23.9203350   4.4057520  81.4206360  23.7063460   3.5710980
  81.7277390  24.1776140   4.9766140  84.9499670  22.3190570   4.4973760
  84.1218300  22.3883660   4.0223890  85.5450150  22.9044880   4.0289590
  81.9141680  19.1059890   5.4428630  81.5012860  19.9313600   5.6968620
  81.1817630  18.5204930   5.2504990  74.5156170  25.5787350   2.4686510
  74.2184460  24.9732820   1.7894290  75.4655990  25.6164660   2.3575870
  72.7603090  18.6663000   4.0846340  73.3117680  18.7758340   3.3099590
  73.2746600  19.0400600   4.8001570  82.6041780  29.1519220   6.1309610
  82.1272340  29.9591410   5.9382220  81.9203570  28.4997550   6.2835820
  73.6074600  25.3169040   9.1194310  72.7103130  25.5409010   9.3667710
  73.6327470  25.4403980   8.1705710  72.4345820  22.1882360   7.6951680
  72.2953590  23.0605160   8.0639080  71.5527180  21.8455170   7.5499620
  74.2326170  28.1304060   9.9036830  74.2041600  28.5347010   9.0365260
  74.0691140  27.2014420   9.7408430  86.1840990  28.9131160  11.2001000
  86.6600710  29.3914050  11.8790080  86.8048150  28.8448650  10.4746500
  68.3864470  23.9579910   3.6122590  68.4644890  24.0928680   2.6678310
  69.0006150  23.2495800   3.8050710  85.5874240  26.1044010   8.3601010
  85.7137300  25.8655890   7.4418190  85.6295620  25.2728550   8.8323090
  79.4490980  29.8072010   6.9295820  79.9635650  29.7180020   7.7318250
  78.6060060  30.1531710   7.2223730  85.4398250  18.1576470   9.3250750
  84.8242520  18.6656140   8.7966210  85.1194670  17.2574800   9.2676690
  68.4423990  24.9994080   6.1517050  68.6055030  24.5299440   5.3336420
  68.9076440  24.4917640   6.8165890  77.5012570  16.9968360   6.7912940
  77.0391940  17.2051380   7.6032880  77.0990680  16.1827710   6.4883610
  82.5017080  18.2177310   7.9209600  81.6510670  17.9183060   8.2418670
  82.3418870  18.4619320   7.0093420  79.5966790  19.7179060  10.0208390
  79.9220200  18.8842810   9.6810620  80.3847120  20.2407580  10.1686720
  75.2518660  14.6747170   3.0467220  75.5490990  15.5810000   2.9659240
  75.8004220  14.1865950   2.4326790  75.4456190  20.1518990   9.5819140
  75.3499790  19.2113720   9.4319540  76.2888170  20.3734060   9.1867210
  70.5766730  16.5632660   7.7352920  70.1830120  17.4107870   7.9425700
  69.8885130  15.9259030   7.9261560  77.1511780  16.6467630  10.8049660
  76.4610100  16.4539830  11.4395750  77.8944080  16.9302270  11.3373960
  67.8783780  14.4861120   1.7683000  67.5896830  15.0563980   2.4807980
  68.6229540  14.0065570   2.1314230  79.4274750  20.4866070   3.6403580
  78.6955870  20.9952880   3.9893680  79.0299090  19.6696050   3.3392360
  79.8900660  15.9399750   3.0526520  79.9073400  16.3908400   3.8968370
  79.6416240  15.0405390   3.2659960  83.3171410  13.3531930   8.8912900
  83.6417180  12.6221590   9.4170880  83.3527920  13.0345570   7.9893890
  70.0162970  24.3745510   8.3112860  69.6317760  23.7339180   8.9095820
  70.3275160  25.0781630   8.8807590  76.1660110  21.2222050   3.7921480
  76.5330240  20.7480620   4.5382820  75.9765170  22.0963620   4.1329820
  73.9559480  20.2630690   6.1105690  73.6516550  21.1422670   6.3356050
  74.9105940  20.3230480   6.1463130  83.2429250  23.4657040   2.4998930
  83.9628370  23.9612330   2.1095040  83.0411070  22.7874930   1.8552800
  78.6248050  23.5366100   8.3867930  78.5585360  22.6161770   8.1325520
  77.9953190  23.6341540   9.1012570  70.0123210  21.1033430   7.2577050
  69.6538150  21.7687280   7.8450390  69.7177770  20.2716980   7.6289670
  73.2136330  21.5617670  10.1416600  72.9136470  21.7074850   9.2444420
  73.9847570  21.0022960  10.0489990  78.5564780  26.3586670   8.1371730
  78.5709320  25.4267630   7.9190640  77.8489880  26.4446430   8.7761500
  84.7675990  22.9994010   7.4840310  84.0424180  23.5922790   7.2869700
  85.2951450  22.9917550   6.6853680  77.9898680  28.0004240   5.2312230
  78.6340900  28.2063620   5.9085650  78.3528120  27.2392640   4.7783080
  79.2630760  26.0036590   3.9489680  79.9052990  25.3029750   4.0621850
  79.7880110  26.7835030   3.7686570  81.0368380  26.8031490   7.1525740
  81.3724620  27.3898180   7.8303660  80.1168720  26.6724200   7.3823530
  68.5871780  14.5926670   7.9349150  67.8730300  14.7923590   8.5401760
  69.0066820  13.8166240   8.3063950  68.8744370  28.5806930   8.9215680
  68.9835490  27.6401670   8.7811070  68.2224930  28.8461680   8.2729410
  76.8656960  26.8522820  10.3213800  76.5453830  26.1332060  10.8659490
  76.1915320  27.5277890  10.3949860  80.0810560  17.0848980   5.6850600
  80.4491380  16.2644190   6.0130170  79.2208760  17.1450870   6.1006250
  77.0412550  19.7388570   5.9088570  77.5397800  20.2134390   6.5740420
  77.1835500  18.8152090   6.1158600  84.2479410  15.9556530   6.7516960
  83.7453010  16.6961930   7.0910770  85.0636070  16.3440530   6.4353750
  71.0202810  29.6475840  10.7335290  71.8215540  29.9687890  11.1470690
  70.5054630  29.2871420  11.4555200  79.8567440  25.7555710  10.6810700
  79.2505600  25.7787310   9.9406450  79.5521550  25.0238750  11.2177950
  81.2867810  29.4836000   9.2920110  82.2389560  29.3994020   9.2420350
  81.1396030  30.1477710   9.9653900  68.7400620  22.1349300   9.6771340
  69.2439640  21.5556580  10.2487570  68.0008040  22.4189530  10.2147710
  75.7938560  23.5420290   9.2106860  75.0284230  24.1105290   9.1261530
  75.9754520  23.2496500   8.3175090  82.9361910  25.2725620   9.7681880
  83.6771380  25.6101380   9.2649340  82.1734590  25.4417680   9.2151650
  70.7723700  20.2778890  10.5721410  70.8129040  19.9792760  11.4806640
  71.6269200  20.6786500  10.4128930  72.7129510  18.8570990   8.5395900
  72.1825970  18.3661940   7.9119240  73.3817580  19.2855190   8.0053830
  81.6107570  23.3240450   8.3037090  82.0248590  23.4785530   9.1527510
  80.6758570  23.4495670   8.4662870  82.0829740  20.6636610  10.3076240
  82.6650510  19.9088930  10.2196720  82.2591510  21.1944050   9.5307720
  73.2001810  15.8233360   8.6193190  73.1058680  15.2054110   7.8944060
  72.6199200  16.5499650   8.3923100  75.9663250  14.3806600   5.6520580
  75.5180550  14.4030860   4.8066130  75.3328450  13.9825620   6.2490880
  76.3722800  23.2760930   6.2733020  76.7910910  24.1193660   6.1009260
  75.4531430  23.4132970   6.0439800  78.7086700  21.0077110   7.6570860
  78.8282910  20.4118250   8.3965700  79.5680700  21.0446800   7.2372160
  81.0474600  21.5614300   6.2333370  80.5209820  22.0856920   5.6298510
  81.3905940  22.1941690   6.8643100  74.2230220  29.5813940   7.3890750
  73.6851310  30.3060000   7.0699450  74.4764180  29.1044280   6.5988090
  75.4755470  17.5498460   8.9146680  76.0655160  17.2414310   9.6024500
  74.6575710  17.0778210   9.0706580  80.2948900  17.1664270   9.1479700
  79.6064420  16.5045810   9.0829690  81.0154920  16.7202540   9.5928160
  77.0792430  30.8165150   7.6477400  77.0051130  31.7200290   7.9549770
  76.1771270  30.4977050   7.6199470  68.9709930  29.0110330   3.6892650
  68.5340920  29.1911130   4.5216800  69.5387610  29.7684950   3.5474370
  84.6072110  28.5127330   7.9769960  84.0074100  28.5719890   7.2333880
  84.7366010  27.5732310   8.1066810  83.2923750  25.2379310   6.0746120
  82.4783590  25.6676470   6.3371910  83.6997950  25.8497720   5.4615170
  69.8410290  21.9083130   4.5884870  70.2083330  21.8210530   5.4680890
  69.2721110  21.1449680   4.4891730  84.6414150  20.3767510   7.6015340
  84.4100240  20.1480260   6.7013290  84.9018700  21.2967060   7.5560230
  69.3926290  18.8192220   8.4943290  68.4982340  18.7858980   8.8337000
  69.9323840  19.0179010   9.2594540  83.0802220  15.6023940  10.3795040
  83.9572400  15.6107340  10.7629040  83.0923060  14.8654780   9.7687390
  84.7055210  19.5393350   4.7902610  83.7557920  19.5056890   4.9047600
  84.8868220  20.4493460   4.5552380  69.8966000  13.0940550   2.8426510
  70.5442190  12.5437930   2.4021670  70.3167840  13.3483700   3.6642320
  83.7918340  13.2881910   6.1996150  84.4290560  13.9016050   6.5655340
  83.9393230  13.3242570   5.2545380  69.6498000  13.2496220   5.5851830
  69.3012820  13.7060040   6.3510010  69.3185700  12.3553350   5.6674260
  71.2562370  26.4215820   9.7505020  71.2132000  26.0508730  10.6319480
  71.3873380  27.3593390   9.8906840  74.9568400  27.9775410   5.3514740
  74.7159760  28.2449970   4.4645260  75.8971040  28.1481140   5.4065600
  77.1622820  14.4408100   9.1071250  77.1011710  15.0329930   9.8566660
  78.1023200  14.3334060   8.9621510  79.7997380  14.0978160   8.7463540
  80.4137790  14.4157450   8.0844620  80.3446940  13.6126750   9.3659400
  86.2172560  29.9969790   6.1525380  85.7230840  30.3938660   5.4352510
  85.6085850  29.3719000   6.5462660  70.3218640  12.7772420   8.8602600
  70.8701630  12.5960470   8.0968710  70.3873950  11.9866530   9.3958910
  71.0950400  29.3678070   6.8702800  70.5010720  29.2362770   7.6092840
  71.0874240  28.5316210   6.4044900  80.5405420  12.6610300   5.0732830
  79.6665260  12.9945410   4.8705760  80.4316170  12.1883480   5.8984700
  81.4477400  14.8681170   6.4574550  81.1190760  14.0532930   6.0776280
  82.3959700  14.8250980   6.3340240  83.9012010  30.6393210   3.4312120
  83.4414980  31.3909020   3.0570140  83.2724470  29.9199680   3.3726920
  70.7262630  26.7336450   5.8210840  69.9996690  26.1141740   5.7536790
  70.7871780  27.1277060   4.9508920  74.3307730  28.9481450   2.6060250
  74.8472750  28.3368810   2.0808510  74.9805110  29.4510230   3.0971260
  77.0703230  29.8389940   3.4329230  77.3581040  29.5844240   2.5562240
  77.5826450  29.2867300   4.0234800  78.2880240  13.5780140   4.0125740
  77.5052030  14.0525640   4.2922500  77.9943170  12.6734970   3.9038920
  77.1375590  30.7606040  10.7997430  78.0642900  30.5250310  10.8433390
  77.1226020  31.5878040  10.3183460  74.3239200  13.4250790  10.5639310
  74.0423470  13.9284390   9.8000130  74.7058900  12.6272540  10.1981440
  80.9254660  12.8404370  11.1419780  80.8120110  13.1598980  12.0371300
  81.7424400  13.2416880  10.8457060  83.7053150  29.9875900  10.6238470
  84.4978470  29.4925130  10.4164430  83.9986300  30.6666040  11.2314080
  81.9838280   8.2692560 151.1354330  81.5219810   7.4979800 151.4641500
  82.7963830   8.2958630 151.6406780  78.2101590  10.5550570 150.7558320
  77.5913030  11.0108070 150.1852760  79.0653370  10.7102030 150.3548020
  79.0764940   5.4389810 148.1490230  78.4582210   5.9039260 147.5852950
  79.5888190   6.1317290 148.5659740  68.4448140   6.1246340 145.5229860
  68.0676120   6.6133440 144.7914760  68.7021210   6.7971620 146.1536390
  82.8997550   6.9646240 148.3613000  82.7893880   6.0220570 148.4862420
  82.8965800   7.3261880 149.2475760  78.4417830   2.5911560 147.7175490
  77.5147110   2.5248940 147.9463960  78.5942650   3.5291690 147.6030730
  82.4715120   4.1531860 148.2210740  81.8527540   3.8151410 147.5737040
  82.4539570   3.5091620 148.9289930  74.0474470   3.1176300 150.4995220
  73.6431470   2.4053550 150.0041120  74.1337590   2.7729540 151.3883260
  80.6479820   3.3918670 145.2283490  81.0873100   2.5541100 145.0821310
  81.3608240   4.0248070 145.3147630  78.7575200   8.3314740 149.1964730
  79.1971110   9.0739070 148.7820120  78.6962090   8.5741310 150.1203690
  69.6312100   6.8836610 150.2176690  69.2240180   7.0251200 149.3630290
  70.5225110   6.5996770 150.0147900  81.4245380  11.3183860 146.5527740
  81.2646520  11.0286800 147.4509570  81.2592090  10.5423990 146.0172970
  73.9033760  11.0982390 148.3299360  73.7276240  10.1817930 148.1167160
  73.0489500  11.4569680 148.5697160  81.1271510   8.8271420 145.1125740
  80.4336670   8.8248710 144.4528020  81.8694370   8.4030740 144.6819910
  80.6921440  10.4534130 149.1874230  81.1478390   9.6723510 149.5012850
  81.0313960  11.1640950 149.7315410  72.4841270   5.6948190 146.9020460
  71.7103530   5.1545810 146.7419180  73.2135900   5.1754800 146.5638220
  72.5278670   5.3628570 150.5399270  73.0457340   4.5596830 150.4856160
  72.0762690   5.3007710 151.3816100  77.4148170   6.6294850 145.8126570
  77.7563870   7.3737080 145.3169890  76.5860880   6.9425970 146.1751400
  83.6901850   1.7683000 144.6018260  83.6065570   2.1997220 143.7514700
  84.4096040   2.2281350 145.0345080  84.7189100   8.6225260 147.3300390
  84.0765260   7.9680880 147.6044110  84.3319760   9.0280350 146.5541060
  80.2975580   5.9510690 151.1772080  80.6499400   5.3538820 150.5173450
  79.4137910   5.6254920 151.3480330  76.3838860   6.7108380 148.5842490
  77.0709990   7.2577590 148.9650080  75.5971280   7.2549110 148.6192100
  68.5231260   2.3281200 144.0759570  69.3926110   2.6106000 144.3595490
  68.0321580   3.1417070 143.9608380  75.6866070   3.7154410 148.1967850
  76.1428850   4.5259660 148.4228040  75.3354280   3.3977550 149.0286340
  83.1086480   7.5141720 143.8676740  82.8824060   6.7972160 144.4601380
  82.7182680   7.2654160 143.0298490  68.8902510  11.5408580 144.6421200
  69.2500150  12.1397920 143.9878470  68.7494850  12.0868470 145.4156230
  82.6902730   5.4313660 145.5290900  82.4024430   5.8926350 146.3168780
  83.4854900   4.9711430 145.7975120  74.9071130   8.9239780 145.4594870
  74.8981230   9.6569470 144.8439380  73.9869490   8.6771360 145.5521830
  70.5077770   4.1454670 146.2041630  69.9005720   4.8853570 146.2136930
  70.9827120   4.2354030 145.3779830  77.8930730   8.9868020 144.1220060
  77.9942710   8.7832010 143.1922040  76.9932470   8.7326300 144.3267840
  76.5348840  11.5054340 148.8167730  76.7890340  11.4675730 147.8947100
  75.5861320  11.3787670 148.8095980  72.5183060   4.1065820 143.9530200
  73.2846330   3.9947180 144.5155630  72.5957750   3.4103790 143.3006970
  72.0144530  11.6886280 151.7397630  72.7507010  11.1401740 152.0106200
  72.3985450  12.5542290 151.6003620  68.8990010   7.7559850 147.6139140
  67.9729790   7.9980990 147.6044550  69.3646440   8.5834110 147.4923890
  75.1246840  10.8616590 143.5623200  75.9175450  11.1505420 143.1104990
  74.6051190  10.4308760 142.8835680  84.1777010  10.0886720 144.9859940
  83.8918520   9.6751860 144.1714120  83.9796560  11.0174430 144.8660460
  75.6424240   6.0820000 143.4265550  75.5374880   5.4672350 144.1526930
  75.4748460   5.5585890 142.6428560  78.8826970   5.1440030 144.0307540
  78.3337070   5.5909330 144.6750280  79.5046230   4.6389280 144.5545210
  74.5502090   4.1030950 145.9272840  74.9718510   3.9370820 146.7704230
  74.6752930   3.2931180 145.4327980  77.0629730   3.1268560 143.1749940
  77.5835390   2.4117580 142.8091090  77.7098130   3.7654430 143.4750450
  77.6277760  11.2080170 145.4651680  78.5228550  11.5465140 145.4870440
  77.6595390  10.4859580 144.8375960  71.2673920   6.5807220 143.6938680
  71.7048790   7.1236890 144.3496260  71.7521650   5.7554170 143.7035020
  68.4819720   9.3696250 151.1458940  68.8122730   8.5017310 150.9137580
  68.9110720   9.5754770 151.9763900  73.0781640   7.7005260 148.8060910
  72.7777180   7.5770230 149.7064820  72.9719130   6.8413850 148.3976640
  85.8473560   7.4801660 143.5087590  85.0166520   7.5478310 143.9794820
  86.0245390   8.3705780 143.2054450  85.3030020   4.2249140 146.0121790
  86.0648930   4.7945790 146.1181480  85.3184390   3.6576340 146.7830100
  68.8034360   2.7487070 150.2429450  68.1483200   2.4798710 149.5989150
  69.6412310   2.6391550 149.7931430  86.3089990   5.0799240 150.8563720
  86.6798820   4.2966560 150.4499690  86.9491920   5.7688340 150.6781020
  85.3549190   4.5183510 143.1694310  85.6298030   5.4262390 143.0413530
  85.1659930   4.4546040 144.1056300  85.2514530   2.4552500 148.1623740
  84.8758130   1.6880430 147.7305030  84.5217650   2.8375200 148.6498670
  83.3499800  11.2154420 149.7962310  83.9458870  10.8938990 149.1196730
  83.6077950  10.7426240 150.5875580  69.0092630  11.2767350 149.2255520
  68.8414670  10.6438030 149.9237410  68.1427140  11.4826750 148.8749710
  70.6155330   9.9700580 146.6705660  70.0902950  10.3508610 145.9667620
  70.5399910  10.5951350 147.3915370  85.3720650  11.5288120 147.9919600
  85.5472840  10.8425860 147.3480520  84.6742220  12.0535170 147.5996270
  73.2148300  11.9182960 145.5454910  73.9467120  11.6342240 144.9978800
  73.4741970  11.6796240 146.4354290  72.3763090   8.0347690 145.5501240
  71.7471970   8.5032790 146.0987070  72.4910920   7.1896910 145.9847430
  77.9630850   3.8632370 133.5811710  77.1872950   3.3832810 133.8710280
  78.6143780   3.1838020 133.4067870  71.9796680   4.1752180 134.4587470
  71.1481560   3.9200890 134.8583980  72.5877660   4.2462950 135.1945390
  81.9838280   8.2692560 132.3610840  81.5219810   7.4979800 132.6898010
  82.7963830   8.2958630 132.8663290  71.9597940   8.2092270 134.6545490
  72.2625980   7.3190010 134.4755710  72.7041530   8.7662490 134.4267740
  78.2101590  10.5550570 131.9814830  77.5913030  11.0108070 131.4109270
  79.0653370  10.7102030 131.5804530  77.4039840   6.5389560 133.5881870
  77.3348120   5.5979500 133.4271000  78.1659700   6.6290970 134.1604440
  79.0764940   5.4389810 129.3746740  78.4582210   5.9039260 128.8109460
  79.5888190   6.1317290 129.7916250  73.9396700   4.9665680 136.0530340
  73.6066080   5.5934600 136.6951410  74.1163380   5.4927560 135.2732010
  73.1515800   6.9346480 137.8679520  73.7689800   7.6097560 137.5863970
  72.2908920   7.3434460 137.7767020  68.4448140   6.1246340 126.7486370
  68.0676120   6.6133440 126.0171270  68.7021210   6.7971620 127.3792900
  84.0693390   8.3985890 135.7834160  83.3856910   9.0685000 135.7750830
  84.6087680   8.5966540 135.0179020  81.6052130  10.2430020 134.4979340
  81.6179290   9.8392310 133.6301600  81.0527350  11.0177310 134.3940770
  82.8997550   6.9646240 129.5869510  82.7893880   6.0220570 129.7118930
  82.8965800   7.3261880 130.4732270  81.0037570   5.1459860 135.8261950
  81.4206360   4.9319970 134.9915410  81.7277390   5.4032650 136.3970570
  78.4417830   2.5911560 128.9432000  77.5147110   2.5248940 129.1720470
  78.5942650   3.5291690 128.8287240  84.9499670   3.5447080 135.9178190
  84.1218300   3.6140170 135.4428320  85.5450150   4.1301390 135.4494020
  82.4715120   4.1531860 129.4467250  81.8527540   3.8151410 128.7993550
  82.4539570   3.5091620 130.1546440  74.0474470   3.1176300 131.7251730
  73.6431470   2.4053550 131.2297630  74.1337590   2.7729540 132.6139770
  74.5156170   6.8043860 133.8890940  74.2184460   6.1989330 133.2098720
  75.4655990   6.8421170 133.7780300  82.6041780  10.3775730 137.5514040
  82.1272340  11.1847920 137.3586650  81.9203570   9.7254060 137.7040250
  73.6074600   6.5425550 140.5398740  72.7103130   6.7665520 140.7872140
  73.6327470   6.6660490 139.5910140  80.6479820   3.3918670 126.4540000
  81.0873100   2.5541100 126.3077820  81.3608240   4.0248070 126.5404140
  72.4345820   3.4138870 139.1156110  72.2953590   4.2861670 139.4843510
  71.5527180   3.0711680 138.9704050  78.7575200   8.3314740 130.4221240
  79.1971110   9.0739070 130.0076630  78.6962090   8.5741310 131.3460200
  74.2326170   9.3560570 141.3241260  74.2041600   9.7603520 140.4569690
  74.0691140   8.4270930 141.1612860  86.1840990  10.1387670 142.6205430
  86.6600710  10.6170560 143.2994510  86.8048150  10.0705160 141.8950930
  68.3864470   5.1836420 135.0327020  68.4644890   5.3185190 134.0882740
  69.0006150   4.4752310 135.2255140  69.6312100   6.8836610 131.4433200
  69.2240180   7.0251200 130.5886800  70.5225110   6.5996770 131.2404410
  85.5874240   7.3300520 139.7805440  85.7137300   7.0912400 138.8622620
  85.6295620   6.4985060 140.2527520  79.4490980  11.0328520 138.3500250
  79.9635650  10.9436530 139.1522680  78.6060060  11.3788220 138.6428160
  81.4245380  11.3183860 127.7784250  81.2646520  11.0286800 128.6766080
  81.2592090  10.5423990 127.2429480  73.9033760  11.0982390 129.5555870
  73.7276240  10.1817930 129.3423670  73.0489500  11.4569680 129.7953670
  81.1271510   8.8271420 126.3382250  80.4336670   8.8248710 125.6784530
  81.8694370   8.4030740 125.9076420  80.6921440  10.4534130 130.4130740
  81.1478390   9.6723510 130.7269360  81.0313960  11.1640950 130.9571920
  68.4423990   6.2250590 137.5721480  68.6055030   5.7555950 136.7540850
  68.9076440   5.7174150 138.2370320  70.0162970   5.6002020 139.7317290
  69.6317760   4.9595690 140.3300250  70.3275160   6.3038140 140.3012020
  76.1660110   2.4478560 135.2125910  76.5330240   1.9737130 135.9587250
  75.9765170   3.3220130 135.5534250  72.4841270   5.6948190 128.1276970
  71.7103530   5.1545810 127.9675690  73.2135900   5.1754800 127.7894730
  83.2429250   4.6913550 133.9203360  83.9628370   5.1868840 133.5299470
  83.0411070   4.0131440 133.2757230  78.6248050   4.7622610 139.8072360
  78.5585360   3.8418280 139.5529950  77.9953190   4.8598050 140.5217000
  72.5278670   5.3628570 131.7655780  73.0457340   4.5596830 131.7112670
  72.0762690   5.3007710 132.6072610  77.4148170   6.6294850 127.0383080
  77.7563870   7.3737080 126.5426400  76.5860880   6.9425970 127.4007910
  73.2136330   2.7874180 141.5621030  72.9136470   2.9331360 140.6648850
  73.9847570   2.2279470 141.4694420  78.5564780   7.5843180 139.5576160
  78.5709320   6.6524140 139.3395070  77.8489880   7.6702940 140.1965930
  83.6901850   1.7683000 125.8274770  83.6065570   2.1997220 124.9771210
  84.4096040   2.2281350 126.2601590  84.7675990   4.2250520 138.9044740
  84.0424180   4.8179300 138.7074130  85.2951450   4.2174060 138.1058110
  84.7189100   8.6225260 128.5556900  84.0765260   7.9680880 128.8300620
  84.3319760   9.0280350 127.7797570  80.2975580   5.9510690 132.4028590
  80.6499400   5.3538820 131.7429960  79.4137910   5.6254920 132.5736840
  76.3838860   6.7108380 129.8099000  77.0709990   7.2577590 130.1906590
  75.5971280   7.2549110 129.8448610  68.5231260   2.3281200 125.3016080
  69.3926110   2.6106000 125.5852000  68.0321580   3.1417070 125.1864890
  75.6866070   3.7154410 129.4224360  76.1428850   4.5259660 129.6484550
  75.3354280   3.3977550 130.2542850  77.9898680   9.2260750 136.6516660
  78.6340900   9.4320130 137.3290080  78.3528120   8.4649150 136.1987510
  79.2630760   7.2293100 135.3694110  79.9052990   6.5286260 135.4826280
  79.7880110   8.0091540 135.1891000  83.1086480   7.5141720 125.0933250
  82.8824060   6.7972160 125.6857890  82.7182680   7.2654160 124.2555000
  81.0368380   8.0288000 138.5730170  81.3724620   8.6154690 139.2508090
  80.1168720   7.8980710 138.8027960  68.8902510  11.5408580 125.8677710
  69.2500150  12.1397920 125.2134980  68.7494850  12.0868470 126.6412740
  82.6902730   5.4313660 126.7547410  82.4024430   5.8926350 127.5425290
  83.4854900   4.9711430 127.0231630  68.8744370   9.8063440 140.3420110
  68.9835490   8.8658180 140.2015500  68.2224930  10.0718190 139.6933840
  76.8656960   8.0779330 141.7418230  76.5453830   7.3588570 142.2863920
  76.1915320   8.7534400 141.8154290  74.9071130   8.9239780 126.6851380
  74.8981230   9.6569470 126.0695890  73.9869490   8.6771360 126.7778340
  70.5077770   4.1454670 127.4298140  69.9005720   4.8853570 127.4393440
  70.9827120   4.2354030 126.6036340  77.8930730   8.9868020 125.3476570
  77.9942710   8.7832010 124.4178550  76.9932470   8.7326300 125.5524350
  76.5348840  11.5054340 130.0424240  76.7890340  11.4675730 129.1203610
  75.5861320  11.3787670 130.0352490  72.5183060   4.1065820 125.1786710
  73.2846330   3.9947180 125.7412140  72.5957750   3.4103790 124.5263480
  84.5427000   9.5955070 133.2937010  84.6674420  10.4186240 133.7660820
  85.4092560   9.3845800 132.9461160  72.0144530  11.6886280 132.9654140
  72.7507010  11.1401740 133.2362710  72.3985450  12.5542290 132.8260130
  68.8990010   7.7559850 128.8395650  67.9729790   7.9980990 128.8301060
  69.3646440   8.5834110 128.7180400  71.0202810  10.8732350 142.1539720
  71.8215540  11.1944400 142.5675120  70.5054630  10.5127930 142.8759630
  75.1246840  10.8616590 124.7879710  75.9175450  11.1505420 124.3361500
  74.6051190  10.4308760 124.1092190  79.8567440   6.9812220 142.1015130
  79.2505600   7.0043820 141.3610880  79.5521550   6.2495260 142.6382380
  81.2867810  10.7092510 140.7124540  82.2389560  10.6250530 140.6624780
  81.1396030  11.3734220 141.3858330  84.1777010  10.0886720 126.2116450
  83.8918520   9.6751860 125.3970630  83.9796560  11.0174430 126.0916970
  68.7400620   3.3605810 141.0975770  69.2439640   2.7813090 141.6692000
  68.0008040   3.6446040 141.6352140  75.6424240   6.0820000 124.6522060
  75.5374880   5.4672350 125.3783440  75.4748460   5.5585890 123.8685070
  75.7938560   4.7676800 140.6311290  75.0284230   5.3361800 140.5465960
  75.9754520   4.4753010 139.7379520  78.8826970   5.1440030 125.2564050
  78.3337070   5.5909330 125.9006790  79.5046230   4.6389280 125.7801720
  82.9361910   6.4982130 141.1886310  83.6771380   6.8357890 140.6853770
  82.1734590   6.6674190 140.6356080  74.5502090   4.1030950 127.1529350
  74.9718510   3.9370820 127.9960740  74.6752930   3.2931180 126.6584490
  77.0629730   3.1268560 124.4006450  77.5835390   2.4117580 124.0347600
  77.7098130   3.7654430 124.7006960  81.6107570   4.5496960 139.7241520
  82.0248590   4.7042040 140.5731940  80.6758570   4.6752180 139.8867300
  76.3722800   4.5017440 137.6937450  76.7910910   5.3450170 137.5213690
  75.4531430   4.6389480 137.4644230  81.0474600   2.7870810 137.6537800
  80.5209820   3.3113430 137.0502940  81.3905940   3.4198200 138.2847530
  74.2230220  10.8070450 138.8095180  73.6851310  11.5316510 138.4903880
  74.4764180  10.3300790 138.0192520  77.0792430  12.0421660 139.0681830
  77.0051130  12.9456800 139.3754200  76.1771270  11.7233560 139.0403900
  77.6277760  11.2080170 126.6908190  78.5228550  11.5465140 126.7126950
  77.6595390  10.4859580 126.0632470  71.2673920   6.5807220 124.9195190
  71.7048790   7.1236890 125.5752770  71.7521650   5.7554170 124.9291530
  68.4819720   9.3696250 132.3715450  68.8122730   8.5017310 132.1394090
  68.9110720   9.5754770 133.2020410  73.0781640   7.7005260 130.0317420
  72.7777180   7.5770230 130.9321330  72.9719130   6.8413850 129.6233150
  68.9709930  10.2366840 135.1097080  68.5340920  10.4167640 135.9421230
  69.5387610  10.9941460 134.9678800  84.6072110   9.7383840 139.3974390
  84.0074100   9.7976400 138.6538310  84.7366010   8.7988820 139.5271240
  85.8473560   7.4801660 124.7344100  85.0166520   7.5478310 125.2051330
  86.0245390   8.3705780 124.4310960  85.3030020   4.2249140 127.2378300
  86.0648930   4.7945790 127.3437990  85.3184390   3.6576340 128.0086610
  68.8034360   2.7487070 131.4685960  68.1483200   2.4798710 130.8245660
  69.6412310   2.6391550 131.0187940  86.3089990   5.0799240 132.0820230
  86.6798820   4.2966560 131.6756200  86.9491920   5.7688340 131.9037530
  83.2923750   6.4635820 137.4950550  82.4783590   6.8932980 137.7576340
  83.6997950   7.0754230 136.8819600  85.3549190   4.5183510 124.3950820
  85.6298030   5.4262390 124.2670040  85.1659930   4.4546040 125.3312810
  85.2514530   2.4552500 129.3880250  84.8758130   1.6880430 128.9561540
  84.5217650   2.8375200 129.8755180  69.8410290   3.1339640 136.0089300
  70.2083330   3.0467040 136.8885320  69.2721110   2.3706190 135.9096160
  83.3499800  11.2154420 131.0218820  83.9458870  10.8938990 130.3453240
  83.6077950  10.7426240 131.8132090  71.2562370   7.6472330 141.1709450
  71.2132000   7.2765240 142.0523910  71.3873380   8.5849900 141.3111270
  74.9568400   9.2031920 136.7719170  74.7159760   9.4706480 135.8849690
  75.8971040   9.3737650 136.8270030  86.2172560  11.2226300 137.5729810
  85.7230840  11.6195170 136.8556940  85.6085850  10.5975510 137.9667090
  71.0950400  10.5934580 138.2907230  70.5010720  10.4619280 139.0297270
  71.0874240   9.7572720 137.8249330  83.9012010  11.8649720 134.8516550
  83.4414980  12.6165530 134.4774570  83.2724470  11.1456190 134.7931350
  70.7262630   7.9592960 137.2415270  69.9996690   7.3398250 137.1741220
  70.7871780   8.3533570 136.3713350  74.3307730  10.1737960 134.0264680
  74.8472750   9.5625320 133.5012940  74.9805110  10.6766740 134.5175690
  77.0703230  11.0646450 134.8533660  77.3581040  10.8100750 133.9766670
  77.5826450  10.5123810 135.4439230  69.0092630  11.2767350 130.4512030
  68.8414670  10.6438030 131.1493920  68.1427140  11.4826750 130.1006220
  70.6155330   9.9700580 127.8962170  70.0902950  10.3508610 127.1924130
  70.5399910  10.5951350 128.6171880  77.1375590  11.9862550 142.2201860
  78.0642900  11.7506820 142.2637820  77.1226020  12.8134550 141.7387890
  85.3720650  11.5288120 129.2176110  85.5472840  10.8425860 128.5737030
  84.6742220  12.0535170 128.8252780  73.2148300  11.9182960 126.7711420
  73.9467120  11.6342240 126.2235310  73.4741970  11.6796240 127.6610800
  72.3763090   8.0347690 126.7757750  71.7471970   8.5032790 127.3243580
  72.4910920   7.1896910 127.2103940  83.7053150  11.2132410 142.0442900
  84.4978470  10.7181640 141.8368860  83.9986300  11.8922550 142.6518510
  77.9630850   3.8632370 114.8068220  77.1872950   3.3832810 115.0966790
  78.6143780   3.1838020 114.6324380  71.9796680   4.1752180 115.6843980
  71.1481560   3.9200890 116.0840490  72.5877660   4.2462950 116.4201900
  81.9838280   8.2692560 113.5867350  81.5219810   7.4979800 113.9154520
  82.7963830   8.2958630 114.0919800  71.9597940   8.2092270 115.8802000
  72.2625980   7.3190010 115.7012220  72.7041530   8.7662490 115.6524250
  78.2101590  10.5550570 113.2071340  77.5913030  11.0108070 112.6365780
  79.0653370  10.7102030 112.8061040  77.4039840   6.5389560 114.8138380
  77.3348120   5.5979500 114.6527510  78.1659700   6.6290970 115.3860950
  79.0764940   5.4389810 110.6003250  78.4582210   5.9039260 110.0365970
  79.5888190   6.1317290 111.0172760  73.9396700   4.9665680 117.2786850
  73.6066080   5.5934600 117.9207920  74.1163380   5.4927560 116.4988520
  73.1515800   6.9346480 119.0936030  73.7689800   7.6097560 118.8120480
  72.2908920   7.3434460 119.0023530  68.4448140   6.1246340 107.9742880
  68.0676120   6.6133440 107.2427780  68.7021210   6.7971620 108.6049410
  84.0693390   8.3985890 117.0090670  83.3856910   9.0685000 117.0007340
  84.6087680   8.5966540 116.2435530  81.6052130  10.2430020 115.7235850
  81.6179290   9.8392310 114.8558110  81.0527350  11.0177310 115.6197280
  82.8997550   6.9646240 110.8126020  82.7893880   6.0220570 110.9375440
  82.8965800   7.3261880 111.6988780  81.0037570   5.1459860 117.0518460
  81.4206360   4.9319970 116.2171920  81.7277390   5.4032650 117.6227080
  78.4417830   2.5911560 110.1688510  77.5147110   2.5248940 110.3976980
  78.5942650   3.5291690 110.0543750  84.9499670   3.5447080 117.1434700
  84.1218300   3.6140170 116.6684830  85.5450150   4.1301390 116.6750530
  82.4715120   4.1531860 110.6723760  81.8527540   3.8151410 110.0250060
  82.4539570   3.5091620 111.3802950  74.0474470   3.1176300 112.9508240
  73.6431470   2.4053550 112.4554140  74.1337590   2.7729540 113.8396280
  74.5156170   6.8043860 115.1147450  74.2184460   6.1989330 114.4355230
  75.4655990   6.8421170 115.0036810  82.6041780  10.3775730 118.7770550
  82.1272340  11.1847920 118.5843160  81.9203570   9.7254060 118.9296760
  73.6074600   6.5425550 121.7655250  72.7103130   6.7665520 122.0128650
  73.6327470   6.6660490 120.8166650  80.6479820   3.3918670 107.6796510
  81.0873100   2.5541100 107.5334330  81.3608240   4.0248070 107.7660650
  72.4345820   3.4138870 120.3412620  72.2953590   4.2861670 120.7100020
  71.5527180   3.0711680 120.1960560  78.7575200   8.3314740 111.6477750
  79.1971110   9.0739070 111.2333140  78.6962090   8.5741310 112.5716710
  74.2326170   9.3560570 122.5497770  74.2041600   9.7603520 121.6826200
  74.0691140   8.4270930 122.3869370  86.1840990  10.1387670 123.8461940
  86.6600710  10.6170560 124.5251020  86.8048150  10.0705160 123.1207440
  68.3864470   5.1836420 116.2583530  68.4644890   5.3185190 115.3139250
  69.0006150   4.4752310 116.4511650  69.6312100   6.8836610 112.6689710
  69.2240180   7.0251200 111.8143310  70.5225110   6.5996770 112.4660920
  85.5874240   7.3300520 121.0061950  85.7137300   7.0912400 120.0879130
  85.6295620   6.4985060 121.4784030  79.4490980  11.0328520 119.5756760
  79.9635650  10.9436530 120.3779190  78.6060060  11.3788220 119.8684670
  81.4245380  11.3183860 109.0040760  81.2646520  11.0286800 109.9022590
  81.2592090  10.5423990 108.4685990  73.9033760  11.0982390 110.7812380
  73.7276240  10.1817930 110.5680180  73.0489500  11.4569680 111.0210180
  81.1271510   8.8271420 107.5638760  80.4336670   8.8248710 106.9041040
  81.8694370   8.4030740 107.1332930  80.6921440  10.4534130 111.6387250
  81.1478390   9.6723510 111.9525870  81.0313960  11.1640950 112.1828430
  68.4423990   6.2250590 118.7977990  68.6055030   5.7555950 117.9797360
  68.9076440   5.7174150 119.4626830  70.0162970   5.6002020 120.9573800
  69.6317760   4.9595690 121.5556760  70.3275160   6.3038140 121.5268530
  76.1660110   2.4478560 116.4382420  76.5330240   1.9737130 117.1843760
  75.9765170   3.3220130 116.7790760  72.4841270   5.6948190 109.3533480
  71.7103530   5.1545810 109.1932200  73.2135900   5.1754800 109.0151240
  83.2429250   4.6913550 115.1459870  83.9628370   5.1868840 114.7555980
  83.0411070   4.0131440 114.5013740  78.6248050   4.7622610 121.0328870
  78.5585360   3.8418280 120.7786460  77.9953190   4.8598050 121.7473510
  72.5278670   5.3628570 112.9912290  73.0457340   4.5596830 112.9369180
  72.0762690   5.3007710 113.8329120  77.4148170   6.6294850 108.2639590
  77.7563870   7.3737080 107.7682910  76.5860880   6.9425970 108.6264420
  73.2136330   2.7874180 122.7877540  72.9136470   2.9331360 121.8905360
  73.9847570   2.2279470 122.6950930  78.5564780   7.5843180 120.7832670
  78.5709320   6.6524140 120.5651580  77.8489880   7.6702940 121.4222440
  83.6901850   1.7683000 107.0531280  83.6065570   2.1997220 106.2027720
  84.4096040   2.2281350 107.4858100  84.7675990   4.2250520 120.1301250
  84.0424180   4.8179300 119.9330640  85.2951450   4.2174060 119.3314620
  84.7189100   8.6225260 109.7813410  84.0765260   7.9680880 110.0557130
  84.3319760   9.0280350 109.0054080  80.2975580   5.9510690 113.6285100
  80.6499400   5.3538820 112.9686470  79.4137910   5.6254920 113.7993350
  76.3838860   6.7108380 111.0355510  77.0709990   7.2577590 111.4163100
  75.5971280   7.2549110 111.0705120  68.5231260   2.3281200 106.5272590
  69.3926110   2.6106000 106.8108510  68.0321580   3.1417070 106.4121400
  75.6866070   3.7154410 110.6480870  76.1428850   4.5259660 110.8741060
  75.3354280   3.3977550 111.4799360  77.9898680   9.2260750 117.8773170
  78.6340900   9.4320130 118.5546590  78.3528120   8.4649150 117.4244020
  79.2630760   7.2293100 116.5950620  79.9052990   6.5286260 116.7082790
  79.7880110   8.0091540 116.4147510  83.1086480   7.5141720 106.3189760
  82.8824060   6.7972160 106.9114400  82.7182680   7.2654160 105.4811510
  81.0368380   8.0288000 119.7986680  81.3724620   8.6154690 120.4764600
  80.1168720   7.8980710 120.0284470  68.8902510  11.5408580 107.0934220
  69.2500150  12.1397920 106.4391490  68.7494850  12.0868470 107.8669250
  82.6902730   5.4313660 107.9803920  82.4024430   5.8926350 108.7681800
  83.4854900   4.9711430 108.2488140  68.8744370   9.8063440 121.5676620
  68.9835490   8.8658180 121.4272010  68.2224930  10.0718190 120.9190350
  76.8656960   8.0779330 122.9674740  76.5453830   7.3588570 123.5120430
  76.1915320   8.7534400 123.0410800  74.9071130   8.9239780 107.9107890
  74.8981230   9.6569470 107.2952400  73.9869490   8.6771360 108.0034850
  70.5077770   4.1454670 108.6554650  69.9005720   4.8853570 108.6649950
  70.9827120   4.2354030 107.8292850  77.8930730   8.9868020 106.5733080
  77.9942710   8.7832010 105.6435060  76.9932470   8.7326300 106.7780860
  76.5348840  11.5054340 111.2680750  76.7890340  11.4675730 110.3460120
  75.5861320  11.3787670 111.2609000  72.5183060   4.1065820 106.4043220
  73.2846330   3.9947180 106.9668650  72.5957750   3.4103790 105.7519990
  84.5427000   9.5955070 114.5193520  84.6674420  10.4186240 114.9917330
  85.4092560   9.3845800 114.1717670  72.0144530  11.6886280 114.1910650
  72.7507010  11.1401740 114.4619220  72.3985450  12.5542290 114.0516640
  68.8990010   7.7559850 110.0652160  67.9729790   7.9980990 110.0557570
  69.3646440   8.5834110 109.9436910  71.0202810  10.8732350 123.3796230
  71.8215540  11.1944400 123.7931630  70.5054630  10.5127930 124.1016140
  75.1246840  10.8616590 106.0136220  75.9175450  11.1505420 105.5618010
  74.6051190  10.4308760 105.3348700  79.8567440   6.9812220 123.3271640
  79.2505600   7.0043820 122.5867390  79.5521550   6.2495260 123.8638890
  81.2867810  10.7092510 121.9381050  82.2389560  10.6250530 121.8881290
  81.1396030  11.3734220 122.6114840  84.1777010  10.0886720 107.4372960
  83.8918520   9.6751860 106.6227140  83.9796560  11.0174430 107.3173480
  68.7400620   3.3605810 122.3232280  69.2439640   2.7813090 122.8948510
  68.0008040   3.6446040 122.8608650  75.6424240   6.0820000 105.8778570
  75.5374880   5.4672350 106.6039950  75.4748460   5.5585890 105.0941580
  75.7938560   4.7676800 121.8567800  75.0284230   5.3361800 121.7722470
  75.9754520   4.4753010 120.9636030  78.8826970   5.1440030 106.4820560
  78.3337070   5.5909330 107.1263300  79.5046230   4.6389280 107.0058230
  82.9361910   6.4982130 122.4142820  83.6771380   6.8357890 121.9110280
  82.1734590   6.6674190 121.8612590  74.5502090   4.1030950 108.3785860
  74.9718510   3.9370820 109.2217250  74.6752930   3.2931180 107.8841000
  77.0629730   3.1268560 105.6262960  77.5835390   2.4117580 105.2604110
  77.7098130   3.7654430 105.9263470  81.6107570   4.5496960 120.9498030
  82.0248590   4.7042040 121.7988450  80.6758570   4.6752180 121.1123810
  76.3722800   4.5017440 118.9193960  76.7910910   5.3450170 118.7470200
  75.4531430   4.6389480 118.6900740  81.0474600   2.7870810 118.8794310
  80.5209820   3.3113430 118.2759450  81.3905940   3.4198200 119.5104040
  74.2230220  10.8070450 120.0351690  73.6851310  11.5316510 119.7160390
  74.4764180  10.3300790 119.2449030  77.0792430  12.0421660 120.2938340
  77.0051130  12.9456800 120.6010710  76.1771270  11.7233560 120.2660410
  77.6277760  11.2080170 107.9164700  78.5228550  11.5465140 107.9383460
  77.6595390  10.4859580 107.2888980  71.2673920   6.5807220 106.1451700
  71.7048790   7.1236890 106.8009280  71.7521650   5.7554170 106.1548040
  68.4819720   9.3696250 113.5971960  68.8122730   8.5017310 113.3650600
  68.9110720   9.5754770 114.4276920  73.0781640   7.7005260 111.2573930
  72.7777180   7.5770230 112.1577840  72.9719130   6.8413850 110.8489660
  68.9709930  10.2366840 116.3353590  68.5340920  10.4167640 117.1677740
  69.5387610  10.9941460 116.1935310  84.6072110   9.7383840 120.6230900
  84.0074100   9.7976400 119.8794820  84.7366010   8.7988820 120.7527750
  85.8473560   7.4801660 105.9600610  85.0166520   7.5478310 106.4307840
  86.0245390   8.3705780 105.6567470  85.3030020   4.2249140 108.4634810
  86.0648930   4.7945790 108.5694500  85.3184390   3.6576340 109.2343120
  68.8034360   2.7487070 112.6942470  68.1483200   2.4798710 112.0502170
  69.6412310   2.6391550 112.2444450  86.3089990   5.0799240 113.3076740
  86.6798820   4.2966560 112.9012710  86.9491920   5.7688340 113.1294040
  83.2923750   6.4635820 118.7207060  82.4783590   6.8932980 118.9832850
  83.6997950   7.0754230 118.1076110  85.3549190   4.5183510 105.6207330
  85.6298030   5.4262390 105.4926550  85.1659930   4.4546040 106.5569320
  85.2514530   2.4552500 110.6136760  84.8758130   1.6880430 110.1818050
  84.5217650   2.8375200 111.1011690  69.8410290   3.1339640 117.2345810
  70.2083330   3.0467040 118.1141830  69.2721110   2.3706190 117.1352670
  83.3499800  11.2154420 112.2475330  83.9458870  10.8938990 111.5709750
  83.6077950  10.7426240 113.0388600  71.2562370   7.6472330 122.3965960
  71.2132000   7.2765240 123.2780420  71.3873380   8.5849900 122.5367780
  74.9568400   9.2031920 117.9975680  74.7159760   9.4706480 117.1106200
  75.8971040   9.3737650 118.0526540  86.2172560  11.2226300 118.7986320
  85.7230840  11.6195170 118.0813450  85.6085850  10.5975510 119.1923600
  71.0950400  10.5934580 119.5163740  70.5010720  10.4619280 120.2553780
  71.0874240   9.7572720 119.0505840  83.9012010  11.8649720 116.0773060
  83.4414980  12.6165530 115.7031080  83.2724470  11.1456190 116.0187860
  70.7262630   7.9592960 118.4671780  69.9996690   7.3398250 118.3997730
  70.7871780   8.3533570 117.5969860  74.3307730  10.1737960 115.2521190
  74.8472750   9.5625320 114.7269450  74.9805110  10.6766740 115.7432200
  77.0703230  11.0646450 116.0790170  77.3581040  10.8100750 115.2023180
  77.5826450  10.5123810 116.6695740  69.0092630  11.2767350 111.6768540
  68.8414670  10.6438030 112.3750430  68.1427140  11.4826750 111.3262730
  70.6155330   9.9700580 109.1218680  70.0902950  10.3508610 108.4180640
  70.5399910  10.5951350 109.8428390  77.1375590  11.9862550 123.4458370
  78.0642900  11.7506820 123.4894330  77.1226020  12.8134550 122.9644400
  85.3720650  11.5288120 110.4432620  85.5472840  10.8425860 109.7993540
  84.6742220  12.0535170 110.0509290  73.2148300  11.9182960 107.9967930
  73.9467120  11.6342240 107.4491820  73.4741970  11.6796240 108.8867310
  72.3763090   8.0347690 108.0014260  71.7471970   8.5032790 108.5500090
  72.4910920   7.1896910 108.4360450  83.7053150  11.2132410 123.2699410
  84.4978470  10.7181640 123.0625370  83.9986300  11.8922550 123.8775020
  77.9630850   3.8632370  96.0324730  77.1872950   3.3832810  96.3223300
  78.6143780   3.1838020  95.8580890  71.9796680   4.1752180  96.9100490
  71.1481560   3.9200890  97.3097000  72.5877660   4.2462950  97.6458410
  81.9838280   8.2692560  94.8123860  81.5219810   7.4979800  95.1411030
  82.7963830   8.2958630  95.3176310  71.9597940   8.2092270  97.1058510
  72.2625980   7.3190010  96.9268730  72.7041530   8.7662490  96.8780760
  78.2101590  10.5550570  94.4327850  77.5913030  11.0108070  93.8622290
  79.0653370  10.7102030  94.0317550  77.4039840   6.5389560  96.0394890
  77.3348120   5.5979500  95.8784020  78.1659700   6.6290970  96.6117460
  79.0764940   5.4389810  91.8259760  78.4582210   5.9039260  91.2622480
  79.5888190   6.1317290  92.2429270  73.9396700   4.9665680  98.5043360
  73.6066080   5.5934600  99.1464430  74.1163380   5.4927560  97.7245030
  73.1515800   6.9346480 100.3192540  73.7689800   7.6097560 100.0376990
  72.2908920   7.3434460 100.2280040  68.4448140   6.1246340  89.1999390
  68.0676120   6.6133440  88.4684290  68.7021210   6.7971620  89.8305920
  84.0693390   8.3985890  98.2347180  83.3856910   9.0685000  98.2263850
  84.6087680   8.5966540  97.4692040  81.6052130  10.2430020  96.9492360
  81.6179290   9.8392310  96.0814620  81.0527350  11.0177310  96.8453790
  82.8997550   6.9646240  92.0382530  82.7893880   6.0220570  92.1631950
  82.8965800   7.3261880  92.9245290  81.0037570   5.1459860  98.2774970
  81.4206360   4.9319970  97.4428430  81.7277390   5.4032650  98.8483590
  78.4417830   2.5911560  91.3945020  77.5147110   2.5248940  91.6233490
  78.5942650   3.5291690  91.2800260  84.9499670   3.5447080  98.3691210
  84.1218300   3.6140170  97.8941340  85.5450150   4.1301390  97.9007040
  82.4715120   4.1531860  91.8980270  81.8527540   3.8151410  91.2506570
  82.4539570   3.5091620  92.6059460  74.0474470   3.1176300  94.1764750
  73.6431470   2.4053550  93.6810650  74.1337590   2.7729540  95.0652790
  74.5156170   6.8043860  96.3403960  74.2184460   6.1989330  95.6611740
  75.4655990   6.8421170  96.2293320  82.6041780  10.3775730 100.0027060
  82.1272340  11.1847920  99.8099670  81.9203570   9.7254060 100.1553270
  73.6074600   6.5425550 102.9911760  72.7103130   6.7665520 103.2385160
  73.6327470   6.6660490 102.0423160  80.6479820   3.3918670  88.9053020
  81.0873100   2.5541100  88.7590840  81.3608240   4.0248070  88.9917160
  72.4345820   3.4138870 101.5669130  72.2953590   4.2861670 101.9356530
  71.5527180   3.0711680 101.4217070  78.7575200   8.3314740  92.8734260
  79.1971110   9.0739070  92.4589650  78.6962090   8.5741310  93.7973220
  74.2326170   9.3560570 103.7754280  74.2041600   9.7603520 102.9082710
  74.0691140   8.4270930 103.6125880  86.1840990  10.1387670 105.0718450
  86.6600710  10.6170560 105.7507530  86.8048150  10.0705160 104.3463950
  68.3864470   5.1836420  97.4840040  68.4644890   5.3185190  96.5395760
  69.0006150   4.4752310  97.6768160  69.6312100   6.8836610  93.8946220
  69.2240180   7.0251200  93.0399820  70.5225110   6.5996770  93.6917430
  85.5874240   7.3300520 102.2318460  85.7137300   7.0912400 101.3135640
  85.6295620   6.4985060 102.7040540  79.4490980  11.0328520 100.8013270
  79.9635650  10.9436530 101.6035700  78.6060060  11.3788220 101.0941180
  81.4245380  11.3183860  90.2297270  81.2646520  11.0286800  91.1279100
  81.2592090  10.5423990  89.6942500  73.9033760  11.0982390  92.0068890
  73.7276240  10.1817930  91.7936690  73.0489500  11.4569680  92.2466690
  81.1271510   8.8271420  88.7895270  80.4336670   8.8248710  88.1297550
  81.8694370   8.4030740  88.3589440  80.6921440  10.4534130  92.8643760
  81.1478390   9.6723510  93.1782380  81.0313960  11.1640950  93.4084940
  68.4423990   6.2250590 100.0234500  68.6055030   5.7555950  99.2053870
  68.9076440   5.7174150 100.6883340  70.0162970   5.6002020 102.1830310
  69.6317760   4.9595690 102.7813270  70.3275160   6.3038140 102.7525040
  76.1660110   2.4478560  97.6638930  76.5330240   1.9737130  98.4100270
  75.9765170   3.3220130  98.0047270  72.4841270   5.6948190  90.5789990
  71.7103530   5.1545810  90.4188710  73.2135900   5.1754800  90.2407750
  83.2429250   4.6913550  96.3716380  83.9628370   5.1868840  95.9812490
  83.0411070   4.0131440  95.7270250  78.6248050   4.7622610 102.2585380
  78.5585360   3.8418280 102.0042970  77.9953190   4.8598050 102.9730020
  72.5278670   5.3628570  94.2168800  73.0457340   4.5596830  94.1625690
  72.0762690   5.3007710  95.0585630  77.4148170   6.6294850  89.4896100
  77.7563870   7.3737080  88.9939420  76.5860880   6.9425970  89.8520930
  73.2136330   2.7874180 104.0134050  72.9136470   2.9331360 103.1161870
  73.9847570   2.2279470 103.9207440  78.5564780   7.5843180 102.0089180
  78.5709320   6.6524140 101.7908090  77.8489880   7.6702940 102.6478950
  83.6901850   1.7683000  88.2787790  83.6065570   2.1997220  87.4284230
  84.4096040   2.2281350  88.7114610  84.7675990   4.2250520 101.3557760
  84.0424180   4.8179300 101.1587150  85.2951450   4.2174060 100.5571130
  84.7189100   8.6225260  91.0069920  84.0765260   7.9680880  91.2813640
  84.3319760   9.0280350  90.2310590  80.2975580   5.9510690  94.8541610
  80.6499400   5.3538820  94.1942980  79.4137910   5.6254920  95.0249860
  76.3838860   6.7108380  92.2612020  77.0709990   7.2577590  92.6419610
  75.5971280   7.2549110  92.2961630  68.5231260   2.3281200  87.7529100
  69.3926110   2.6106000  88.0365020  68.0321580   3.1417070  87.6377910
  75.6866070   3.7154410  91.8737380  76.1428850   4.5259660  92.0997570
  75.3354280   3.3977550  92.7055870  77.9898680   9.2260750  99.1029680
  78.6340900   9.4320130  99.7803100  78.3528120   8.4649150  98.6500530
  79.2630760   7.2293100  97.8207130  79.9052990   6.5286260  97.9339300
  79.7880110   8.0091540  97.6404020  83.1086480   7.5141720  87.5446270
  82.8824060   6.7972160  88.1370910  82.7182680   7.2654160  86.7068020
  81.0368380   8.0288000 101.0243190  81.3724620   8.6154690 101.7021110
  80.1168720   7.8980710 101.2540980  68.8902510  11.5408580  88.3190730
  69.2500150  12.1397920  87.6648000  68.7494850  12.0868470  89.0925760
  82.6902730   5.4313660  89.2060430  82.4024430   5.8926350  89.9938310
  83.4854900   4.9711430  89.4744650  68.8744370   9.8063440 102.7933130
  68.9835490   8.8658180 102.6528520  68.2224930  10.0718190 102.1446860
  76.8656960   8.0779330 104.1931250  76.5453830   7.3588570 104.7376940
  76.1915320   8.7534400 104.2667310  74.9071130   8.9239780  89.1364400
  74.8981230   9.6569470  88.5208910  73.9869490   8.6771360  89.2291360
  70.5077770   4.1454670  89.8811160  69.9005720   4.8853570  89.8906460
  70.9827120   4.2354030  89.0549360  77.8930730   8.9868020  87.7989590
  77.9942710   8.7832010  86.8691570  76.9932470   8.7326300  88.0037370
  76.5348840  11.5054340  92.4937260  76.7890340  11.4675730  91.5716630
  75.5861320  11.3787670  92.4865510  72.5183060   4.1065820  87.6299730
  73.2846330   3.9947180  88.1925160  72.5957750   3.4103790  86.9776500
  84.5427000   9.5955070  95.7450030  84.6674420  10.4186240  96.2173840
  85.4092560   9.3845800  95.3974180  72.0144530  11.6886280  95.4167160
  72.7507010  11.1401740  95.6875730  72.3985450  12.5542290  95.2773150
  68.8990010   7.7559850  91.2908670  67.9729790   7.9980990  91.2814080
  69.3646440   8.5834110  91.1693420  71.0202810  10.8732350 104.6052740
  71.8215540  11.1944400 105.0188140  70.5054630  10.5127930 105.3272650
  75.1246840  10.8616590  87.2392730  75.9175450  11.1505420  86.7874520
  74.6051190  10.4308760  86.5605210  79.8567440   6.9812220 104.5528150
  79.2505600   7.0043820 103.8123900  79.5521550   6.2495260 105.0895400
  81.2867810  10.7092510 103.1637560  82.2389560  10.6250530 103.1137800
  81.1396030  11.3734220 103.8371350  84.1777010  10.0886720  88.6629470
  83.8918520   9.6751860  87.8483650  83.9796560  11.0174430  88.5429990
  68.7400620   3.3605810 103.5488790  69.2439640   2.7813090 104.1205020
  68.0008040   3.6446040 104.0865160  75.6424240   6.0820000  87.1035080
  75.5374880   5.4672350  87.8296460  75.4748460   5.5585890  86.3198090
  75.7938560   4.7676800 103.0824310  75.0284230   5.3361800 102.9978980
  75.9754520   4.4753010 102.1892540  78.8826970   5.1440030  87.7077070
  78.3337070   5.5909330  88.3519810  79.5046230   4.6389280  88.2314740
  82.9361910   6.4982130 103.6399330  83.6771380   6.8357890 103.1366790
  82.1734590   6.6674190 103.0869100  74.5502090   4.1030950  89.6042370
  74.9718510   3.9370820  90.4473760  74.6752930   3.2931180  89.1097510
  77.0629730   3.1268560  86.8519470  77.5835390   2.4117580  86.4860620
  77.7098130   3.7654430  87.1519980  81.6107570   4.5496960 102.1754540
  82.0248590   4.7042040 103.0244960  80.6758570   4.6752180 102.3380320
  76.3722800   4.5017440 100.1450470  76.7910910   5.3450170  99.9726710
  75.4531430   4.6389480  99.9157250  81.0474600   2.7870810 100.1050820
  80.5209820   3.3113430  99.5015960  81.3905940   3.4198200 100.7360550
  74.2230220  10.8070450 101.2608200  73.6851310  11.5316510 100.9416900
  74.4764180  10.3300790 100.4705540  77.0792430  12.0421660 101.5194850
  77.0051130  12.9456800 101.8267220  76.1771270  11.7233560 101.4916920
  77.6277760  11.2080170  89.1421210  78.5228550  11.5465140  89.1639970
  77.6595390  10.4859580  88.5145490  71.2673920   6.5807220  87.3708210
  71.7048790   7.1236890  88.0265790  71.7521650   5.7554170  87.3804550
  68.4819720   9.3696250  94.8228470  68.8122730   8.5017310  94.5907110
  68.9110720   9.5754770  95.6533430  73.0781640   7.7005260  92.4830440
  72.7777180   7.5770230  93.3834350  72.9719130   6.8413850  92.0746170
  68.9709930  10.2366840  97.5610100  68.5340920  10.4167640  98.3934250
  69.5387610  10.9941460  97.4191820  84.6072110   9.7383840 101.8487410
  84.0074100   9.7976400 101.1051330  84.7366010   8.7988820 101.9784260
  85.8473560   7.4801660  87.1857120  85.0166520   7.5478310  87.6564350
  86.0245390   8.3705780  86.8823980  85.3030020   4.2249140  89.6891320
  86.0648930   4.7945790  89.7951010  85.3184390   3.6576340  90.4599630
  68.8034360   2.7487070  93.9198980  68.1483200   2.4798710  93.2758680
  69.6412310   2.6391550  93.4700960  86.3089990   5.0799240  94.5333250
  86.6798820   4.2966560  94.1269220  86.9491920   5.7688340  94.3550550
  83.2923750   6.4635820  99.9463570  82.4783590   6.8932980 100.2089360
  83.6997950   7.0754230  99.3332620  85.3549190   4.5183510  86.8463840
  85.6298030   5.4262390  86.7183060  85.1659930   4.4546040  87.7825830
  85.2514530   2.4552500  91.8393270  84.8758130   1.6880430  91.4074560
  84.5217650   2.8375200  92.3268200  69.8410290   3.1339640  98.4602320
  70.2083330   3.0467040  99.3398340  69.2721110   2.3706190  98.3609180
  83.3499800  11.2154420  93.4731840  83.9458870  10.8938990  92.7966260
  83.6077950  10.7426240  94.2645110  71.2562370   7.6472330 103.6222470
  71.2132000   7.2765240 104.5036930  71.3873380   8.5849900 103.7624290
  74.9568400   9.2031920  99.2232190  74.7159760   9.4706480  98.3362710
  75.8971040   9.3737650  99.2783050  86.2172560  11.2226300 100.0242830
  85.7230840  11.6195170  99.3069960  85.6085850  10.5975510 100.4180110
  71.0950400  10.5934580 100.7420250  70.5010720  10.4619280 101.4810290
  71.0874240   9.7572720 100.2762350  83.9012010  11.8649720  97.3029570
  83.4414980  12.6165530  96.9287590  83.2724470  11.1456190  97.2444370
  70.7262630   7.9592960  99.6928290  69.9996690   7.3398250  99.6254240
  70.7871780   8.3533570  98.8226370  74.3307730  10.1737960  96.4777700
  74.8472750   9.5625320  95.9525960  74.9805110  10.6766740  96.9688710
  77.0703230  11.0646450  97.3046680  77.3581040  10.8100750  96.4279690
  77.5826450  10.5123810  97.8952250  69.0092630  11.2767350  92.9025050
  68.8414670  10.6438030  93.6006940  68.1427140  11.4826750  92.5519240
  70.6155330   9.9700580  90.3475190  70.0902950  10.3508610  89.6437150
  70.5399910  10.5951350  91.0684900  77.1375590  11.9862550 104.6714880
  78.0642900  11.7506820 104.7150840  77.1226020  12.8134550 104.1900910
  85.3720650  11.5288120  91.6689130  85.5472840  10.8425860  91.0250050
  84.6742220  12.0535170  91.2765800  73.2148300  11.9182960  89.2224440
  73.9467120  11.6342240  88.6748330  73.4741970  11.6796240  90.1123820
  72.3763090   8.0347690  89.2270770  71.7471970   8.5032790  89.7756600
  72.4910920   7.1896910  89.6616960  83.7053150  11.2132410 104.4955920
  84.4978470  10.7181640 104.2881880  83.9986300  11.8922550 105.1031530
  77.9630850   3.8632370  77.2581240  77.1872950   3.3832810  77.5479810
  78.6143780   3.1838020  77.0837400  71.9796680   4.1752180  78.1357000
  71.1481560   3.9200890  78.5353510  72.5877660   4.2462950  78.8714920
  81.9838280   8.2692560  76.0380370  81.5219810   7.4979800  76.3667540
  82.7963830   8.2958630  76.5432820  71.9597940   8.2092270  78.3315020
  72.2625980   7.3190010  78.1525240  72.7041530   8.7662490  78.1037270
  78.2101590  10.5550570  75.6584360  77.5913030  11.0108070  75.0878800
  79.0653370  10.7102030  75.2574060  77.4039840   6.5389560  77.2651400
  77.3348120   5.5979500  77.1040530  78.1659700   6.6290970  77.8373970
  79.0764940   5.4389810  73.0516270  78.4582210   5.9039260  72.4878990
  79.5888190   6.1317290  73.4685780  73.9396700   4.9665680  79.7299870
  73.6066080   5.5934600  80.3720940  74.1163380   5.4927560  78.9501540
  73.1515800   6.9346480  81.5449050  73.7689800   7.6097560  81.2633500
  72.2908920   7.3434460  81.4536550  68.4448140   6.1246340  70.4255900
  68.0676120   6.6133440  69.6940800  68.7021210   6.7971620  71.0562430
  84.0693390   8.3985890  79.4603690  83.3856910   9.0685000  79.4520360
  84.6087680   8.5966540  78.6948550  81.6052130  10.2430020  78.1748870
  81.6179290   9.8392310  77.3071130  81.0527350  11.0177310  78.0710300
  82.8997550   6.9646240  73.2639040  82.7893880   6.0220570  73.3888460
  82.8965800   7.3261880  74.1501800  81.0037570   5.1459860  79.5031480
  81.4206360   4.9319970  78.6684940  81.7277390   5.4032650  80.0740100
  78.4417830   2.5911560  72.6201530  77.5147110   2.5248940  72.8490000
  78.5942650   3.5291690  72.5056770  84.9499670   3.5447080  79.5947720
  84.1218300   3.6140170  79.1197850  85.5450150   4.1301390  79.1263550
  82.4715120   4.1531860  73.1236780  81.8527540   3.8151410  72.4763080
  82.4539570   3.5091620  73.8315970  74.0474470   3.1176300  75.4021260
  73.6431470   2.4053550  74.9067160  74.1337590   2.7729540  76.2909300
  74.5156170   6.8043860  77.5660470  74.2184460   6.1989330  76.8868250
  75.4655990   6.8421170  77.4549830  82.6041780  10.3775730  81.2283570
  82.1272340  11.1847920  81.0356180  81.9203570   9.7254060  81.3809780
  73.6074600   6.5425550  84.2168270  72.7103130   6.7665520  84.4641670
  73.6327470   6.6660490  83.2679670  80.6479820   3.3918670  70.1309530
  81.0873100   2.5541100  69.9847350  81.3608240   4.0248070  70.2173670
  72.4345820   3.4138870  82.7925640  72.2953590   4.2861670  83.1613040
  71.5527180   3.0711680  82.6473580  78.7575200   8.3314740  74.0990770
  79.1971110   9.0739070  73.6846160  78.6962090   8.5741310  75.0229730
  74.2326170   9.3560570  85.0010790  74.2041600   9.7603520  84.1339220
  74.0691140   8.4270930  84.8382390  86.1840990  10.1387670  86.2974960
  86.6600710  10.6170560  86.9764040  86.8048150  10.0705160  85.5720460
  68.3864470   5.1836420  78.7096550  68.4644890   5.3185190  77.7652270
  69.0006150   4.4752310  78.9024670  69.6312100   6.8836610  75.1202730
  69.2240180   7.0251200  74.2656330  70.5225110   6.5996770  74.9173940
  85.5874240   7.3300520  83.4574970  85.7137300   7.0912400  82.5392150
  85.6295620   6.4985060  83.9297050  79.4490980  11.0328520  82.0269780
  79.9635650  10.9436530  82.8292210  78.6060060  11.3788220  82.3197690
  81.4245380  11.3183860  71.4553780  81.2646520  11.0286800  72.3535610
  81.2592090  10.5423990  70.9199010  73.9033760  11.0982390  73.2325400
  73.7276240  10.1817930  73.0193200  73.0489500  11.4569680  73.4723200
  81.1271510   8.8271420  70.0151780  80.4336670   8.8248710  69.3554060
  81.8694370   8.4030740  69.5845950  80.6921440  10.4534130  74.0900270
  81.1478390   9.6723510  74.4038890  81.0313960  11.1640950  74.6341450
  68.4423990   6.2250590  81.2491010  68.6055030   5.7555950  80.4310380
  68.9076440   5.7174150  81.9139850  70.0162970   5.6002020  83.4086820
  69.6317760   4.9595690  84.0069780  70.3275160   6.3038140  83.9781550
  76.1660110   2.4478560  78.8895440  76.5330240   1.9737130  79.6356780
  75.9765170   3.3220130  79.2303780  72.4841270   5.6948190  71.8046500
  71.7103530   5.1545810  71.6445220  73.2135900   5.1754800  71.4664260
  83.2429250   4.6913550  77.5972890  83.9628370   5.1868840  77.2069000
  83.0411070   4.0131440  76.9526760  78.6248050   4.7622610  83.4841890
  78.5585360   3.8418280  83.2299480  77.9953190   4.8598050  84.1986530
  72.5278670   5.3628570  75.4425310  73.0457340   4.5596830  75.3882200
  72.0762690   5.3007710  76.2842140  77.4148170   6.6294850  70.7152610
  77.7563870   7.3737080  70.2195930  76.5860880   6.9425970  71.0777440
  73.2136330   2.7874180  85.2390560  72.9136470   2.9331360  84.3418380
  73.9847570   2.2279470  85.1463950  78.5564780   7.5843180  83.2345690
  78.5709320   6.6524140  83.0164600  77.8489880   7.6702940  83.8735460
  83.6901850   1.7683000  69.5044300  83.6065570   2.1997220  68.6540740
  84.4096040   2.2281350  69.9371120  84.7675990   4.2250520  82.5814270
  84.0424180   4.8179300  82.3843660  85.2951450   4.2174060  81.7827640
  84.7189100   8.6225260  72.2326430  84.0765260   7.9680880  72.5070150
  84.3319760   9.0280350  71.4567100  80.2975580   5.9510690  76.0798120
  80.6499400   5.3538820  75.4199490  79.4137910   5.6254920  76.2506370
  76.3838860   6.7108380  73.4868530  77.0709990   7.2577590  73.8676120
  75.5971280   7.2549110  73.5218140  68.5231260   2.3281200  68.9785610
  69.3926110   2.6106000  69.2621530  68.0321580   3.1417070  68.8634420
  75.6866070   3.7154410  73.0993890  76.1428850   4.5259660  73.3254080
  75.3354280   3.3977550  73.9312380  77.9898680   9.2260750  80.3286190
  78.6340900   9.4320130  81.0059610  78.3528120   8.4649150  79.8757040
  79.2630760   7.2293100  79.0463640  79.9052990   6.5286260  79.1595810
  79.7880110   8.0091540  78.8660530  83.1086480   7.5141720  68.7702780
  82.8824060   6.7972160  69.3627420  82.7182680   7.2654160  67.9324530
  81.0368380   8.0288000  82.2499700  81.3724620   8.6154690  82.9277620
  80.1168720   7.8980710  82.4797490  68.8902510  11.5408580  69.5447240
  69.2500150  12.1397920  68.8904510  68.7494850  12.0868470  70.3182270
  82.6902730   5.4313660  70.4316940  82.4024430   5.8926350  71.2194820
  83.4854900   4.9711430  70.7001160  68.8744370   9.8063440  84.0189640
  68.9835490   8.8658180  83.8785030  68.2224930  10.0718190  83.3703370
  76.8656960   8.0779330  85.4187760  76.5453830   7.3588570  85.9633450
  76.1915320   8.7534400  85.4923820  74.9071130   8.9239780  70.3620910
  74.8981230   9.6569470  69.7465420  73.9869490   8.6771360  70.4547870
  70.5077770   4.1454670  71.1067670  69.9005720   4.8853570  71.1162970
  70.9827120   4.2354030  70.2805870  77.8930730   8.9868020  69.0246100
  77.9942710   8.7832010  68.0948080  76.9932470   8.7326300  69.2293880
  76.5348840  11.5054340  73.7193770  76.7890340  11.4675730  72.7973140
  75.5861320  11.3787670  73.7122020  72.5183060   4.1065820  68.8556240
  73.2846330   3.9947180  69.4181670  72.5957750   3.4103790  68.2033010
  84.5427000   9.5955070  76.9706540  84.6674420  10.4186240  77.4430350
  85.4092560   9.3845800  76.6230690  72.0144530  11.6886280  76.6423670
  72.7507010  11.1401740  76.9132240  72.3985450  12.5542290  76.5029660
  68.8990010   7.7559850  72.5165180  67.9729790   7.9980990  72.5070590
  69.3646440   8.5834110  72.3949930  71.0202810  10.8732350  85.8309250
  71.8215540  11.1944400  86.2444650  70.5054630  10.5127930  86.5529160
  75.1246840  10.8616590  68.4649240  75.9175450  11.1505420  68.0131030
  74.6051190  10.4308760  67.7861720  79.8567440   6.9812220  85.7784660
  79.2505600   7.0043820  85.0380410  79.5521550   6.2495260  86.3151910
  81.2867810  10.7092510  84.3894070  82.2389560  10.6250530  84.3394310
  81.1396030  11.3734220  85.0627860  84.1777010  10.0886720  69.8885980
  83.8918520   9.6751860  69.0740160  83.9796560  11.0174430  69.7686500
  68.7400620   3.3605810  84.7745300  69.2439640   2.7813090  85.3461530
  68.0008040   3.6446040  85.3121670  75.6424240   6.0820000  68.3291590
  75.5374880   5.4672350  69.0552970  75.4748460   5.5585890  67.5454600
  75.7938560   4.7676800  84.3080820  75.0284230   5.3361800  84.2235490
  75.9754520   4.4753010  83.4149050  78.8826970   5.1440030  68.9333580
  78.3337070   5.5909330  69.5776320  79.5046230   4.6389280  69.4571250
  82.9361910   6.4982130  84.8655840  83.6771380   6.8357890  84.3623300
  82.1734590   6.6674190  84.3125610  74.5502090   4.1030950  70.8298880
  74.9718510   3.9370820  71.6730270  74.6752930   3.2931180  70.3354020
  77.0629730   3.1268560  68.0775980  77.5835390   2.4117580  67.7117130
  77.7098130   3.7654430  68.3776490  81.6107570   4.5496960  83.4011050
  82.0248590   4.7042040  84.2501470  80.6758570   4.6752180  83.5636830
  76.3722800   4.5017440  81.3706980  76.7910910   5.3450170  81.1983220
  75.4531430   4.6389480  81.1413760  81.0474600   2.7870810  81.3307330
  80.5209820   3.3113430  80.7272470  81.3905940   3.4198200  81.9617060
  74.2230220  10.8070450  82.4864710  73.6851310  11.5316510  82.1673410
  74.4764180  10.3300790  81.6962050  77.6277760  11.2080170  70.3677720
  78.5228550  11.5465140  70.3896480  77.6595390  10.4859580  69.7402000
  71.2673920   6.5807220  68.5964720  71.7048790   7.1236890  69.2522300
  71.7521650   5.7554170  68.6061060  68.4819720   9.3696250  76.0484980
  68.8122730   8.5017310  75.8163620  68.9110720   9.5754770  76.8789940
  73.0781640   7.7005260  73.7086950  72.7777180   7.5770230  74.6090860
  72.9719130   6.8413850  73.3002680  68.9709930  10.2366840  78.7866610
  68.5340920  10.4167640  79.6190760  69.5387610  10.9941460  78.6448330
  84.6072110   9.7383840  83.0743920  84.0074100   9.7976400  82.3307840
  84.7366010   8.7988820  83.2040770  85.8473560   7.4801660  68.4113630
  85.0166520   7.5478310  68.8820860  86.0245390   8.3705780  68.1080490
  85.3030020   4.2249140  70.9147830  86.0648930   4.7945790  71.0207520
  85.3184390   3.6576340  71.6856140  68.8034360   2.7487070  75.1455490
  68.1483200   2.4798710  74.5015190  69.6412310   2.6391550  74.6957470
  86.3089990   5.0799240  75.7589760  86.6798820   4.2966560  75.3525730
  86.9491920   5.7688340  75.5807060  83.2923750   6.4635820  81.1720080
  82.4783590   6.8932980  81.4345870  83.6997950   7.0754230  80.5589130
  85.3549190   4.5183510  68.0720350  85.6298030   5.4262390  67.9439570
  85.1659930   4.4546040  69.0082340  85.2514530   2.4552500  73.0649780
  84.8758130   1.6880430  72.6331070  84.5217650   2.8375200  73.5524710
  69.8410290   3.1339640  79.6858830  70.2083330   3.0467040  80.5654850
  69.2721110   2.3706190  79.5865690  83.3499800  11.2154420  74.6988350
  83.9458870  10.8938990  74.0222770  83.6077950  10.7426240  75.4901620
  71.2562370   7.6472330  84.8478980  71.2132000   7.2765240  85.7293440
  71.3873380   8.5849900  84.9880800  74.9568400   9.2031920  80.4488700
  74.7159760   9.4706480  79.5619220  75.8971040   9.3737650  80.5039560
  86.2172560  11.2226300  81.2499340  85.7230840  11.6195170  80.5326470
  85.6085850  10.5975510  81.6436620  71.0950400  10.5934580  81.9676760
  70.5010720  10.4619280  82.7066800  71.0874240   9.7572720  81.5018860
  83.9012010  11.8649720  78.5286080  83.4414980  12.6165530  78.1544100
  83.2724470  11.1456190  78.4700880  70.7262630   7.9592960  80.9184800
  69.9996690   7.3398250  80.8510750  70.7871780   8.3533570  80.0482880
  74.3307730  10.1737960  77.7034210  74.8472750   9.5625320  77.1782470
  74.9805110  10.6766740  78.1945220  69.0092630  11.2767350  74.1281560
  68.8414670  10.6438030  74.8263450  68.1427140  11.4826750  73.7775750
  70.6155330   9.9700580  71.5731700  70.0902950  10.3508610  70.8693660
  70.5399910  10.5951350  72.2941410  77.1375590  11.9862550  85.8971390
  78.0642900  11.7506820  85.9407350  77.1226020  12.8134550  85.4157420
  85.3720650  11.5288120  72.8945640  85.5472840  10.8425860  72.2506560
  84.6742220  12.0535170  72.5022310  73.2148300  11.9182960  70.4480950
  73.9467120  11.6342240  69.9004840  73.4741970  11.6796240  71.3380330
  72.3763090   8.0347690  70.4527280  71.7471970   8.5032790  71.0013110
  72.4910920   7.1896910  70.8873470  83.7053150  11.2132410  85.7212430
  84.4978470  10.7181640  85.5138390  83.9986300  11.8922550  86.3288040
  77.9630850   3.8632370  58.4837750  77.1872950   3.3832810  58.7736320
  78.6143780   3.1838020  58.3093910  71.9796680   4.1752180  59.3613510
  71.1481560   3.9200890  59.7610020  72.5877660   4.2462950  60.0971430
  81.9838280   8.2692560  57.2636880  81.5219810   7.4979800  57.5924050
  82.7963830   8.2958630  57.7689330  71.9597940   8.2092270  59.5571530
  72.2625980   7.3190010  59.3781750  72.7041530   8.7662490  59.3293780
  78.2101590  10.5550570  56.8840870  77.5913030  11.0108070  56.3135310
  79.0653370  10.7102030  56.4830570  77.4039840   6.5389560  58.4907910
  77.3348120   5.5979500  58.3297040  78.1659700   6.6290970  59.0630480
  79.0764940   5.4389810  54.2772780  78.4582210   5.9039260  53.7135500
  79.5888190   6.1317290  54.6942290  73.9396700   4.9665680  60.9556380
  73.6066080   5.5934600  61.5977450  74.1163380   5.4927560  60.1758050
  73.1515800   6.9346480  62.7705560  73.7689800   7.6097560  62.4890010
  72.2908920   7.3434460  62.6793060  68.4448140   6.1246340  51.6512410
  68.0676120   6.6133440  50.9197310  68.7021210   6.7971620  52.2818940
  84.0693390   8.3985890  60.6860200  83.3856910   9.0685000  60.6776870
  84.6087680   8.5966540  59.9205060  81.6052130  10.2430020  59.4005380
  81.6179290   9.8392310  58.5327640  81.0527350  11.0177310  59.2966810
  82.8997550   6.9646240  54.4895550  82.7893880   6.0220570  54.6144970
  82.8965800   7.3261880  55.3758310  81.0037570   5.1459860  60.7287990
  81.4206360   4.9319970  59.8941450  81.7277390   5.4032650  61.2996610
  78.4417830   2.5911560  53.8458040  77.5147110   2.5248940  54.0746510
  78.5942650   3.5291690  53.7313280  84.9499670   3.5447080  60.8204230
  84.1218300   3.6140170  60.3454360  85.5450150   4.1301390  60.3520060
  82.4715120   4.1531860  54.3493290  81.8527540   3.8151410  53.7019590
  82.4539570   3.5091620  55.0572480  74.0474470   3.1176300  56.6277770
  73.6431470   2.4053550  56.1323670  74.1337590   2.7729540  57.5165810
  74.5156170   6.8043860  58.7916980  74.2184460   6.1989330  58.1124760
  75.4655990   6.8421170  58.6806340  82.6041780  10.3775730  62.4540080
  82.1272340  11.1847920  62.2612690  81.9203570   9.7254060  62.6066290
  73.6074600   6.5425550  65.4424780  72.7103130   6.7665520  65.6898180
  73.6327470   6.6660490  64.4936180  80.6479820   3.3918670  51.3566040
  81.0873100   2.5541100  51.2103860  81.3608240   4.0248070  51.4430180
  72.4345820   3.4138870  64.0182150  72.2953590   4.2861670  64.3869550
  71.5527180   3.0711680  63.8730090  78.7575200   8.3314740  55.3247280
  79.1971110   9.0739070  54.9102670  78.6962090   8.5741310  56.2486240
  74.2326170   9.3560570  66.2267300  74.2041600   9.7603520  65.3595730
  74.0691140   8.4270930  66.0638900  86.1840990  10.1387670  67.5231470
  86.6600710  10.6170560  68.2020550  86.8048150  10.0705160  66.7976970
  68.3864470   5.1836420  59.9353060  68.4644890   5.3185190  58.9908780
  69.0006150   4.4752310  60.1281180  69.6312100   6.8836610  56.3459240
  69.2240180   7.0251200  55.4912840  70.5225110   6.5996770  56.1430450
  85.5874240   7.3300520  64.6831480  85.7137300   7.0912400  63.7648660
  85.6295620   6.4985060  65.1553560  79.4490980  11.0328520  63.2526290
  79.9635650  10.9436530  64.0548720  78.6060060  11.3788220  63.5454200
  81.4245380  11.3183860  52.6810290  81.2646520  11.0286800  53.5792120
  81.2592090  10.5423990  52.1455520  73.9033760  11.0982390  54.4581910
  73.7276240  10.1817930  54.2449710  73.0489500  11.4569680  54.6979710
  81.1271510   8.8271420  51.2408290  80.4336670   8.8248710  50.5810570
  81.8694370   8.4030740  50.8102460  80.6921440  10.4534130  55.3156780
  81.1478390   9.6723510  55.6295400  81.0313960  11.1640950  55.8597960
  68.4423990   6.2250590  62.4747520  68.6055030   5.7555950  61.6566890
  68.9076440   5.7174150  63.1396360  70.0162970   5.6002020  64.6343330
  69.6317760   4.9595690  65.2326290  70.3275160   6.3038140  65.2038060
  76.1660110   2.4478560  60.1151950  76.5330240   1.9737130  60.8613290
  75.9765170   3.3220130  60.4560290  72.4841270   5.6948190  53.0303010
  71.7103530   5.1545810  52.8701730  73.2135900   5.1754800  52.6920770
  83.2429250   4.6913550  58.8229400  83.9628370   5.1868840  58.4325510
  83.0411070   4.0131440  58.1783270  78.6248050   4.7622610  64.7098400
  78.5585360   3.8418280  64.4555990  77.9953190   4.8598050  65.4243040
  72.5278670   5.3628570  56.6681820  73.0457340   4.5596830  56.6138710
  72.0762690   5.3007710  57.5098650  77.4148170   6.6294850  51.9409120
  77.7563870   7.3737080  51.4452440  76.5860880   6.9425970  52.3033950
  73.2136330   2.7874180  66.4647070  72.9136470   2.9331360  65.5674890
  73.9847570   2.2279470  66.3720460  78.5564780   7.5843180  64.4602200
  78.5709320   6.6524140  64.2421110  77.8489880   7.6702940  65.0991970
  83.6901850   1.7683000  50.7300810  83.6065570   2.1997220  49.8797250
  84.4096040   2.2281350  51.1627630  84.7675990   4.2250520  63.8070780
  84.0424180   4.8179300  63.6100170  85.2951450   4.2174060  63.0084150
  84.7189100   8.6225260  53.4582940  84.0765260   7.9680880  53.7326660
  84.3319760   9.0280350  52.6823610  80.2975580   5.9510690  57.3054630
  80.6499400   5.3538820  56.6456000  79.4137910   5.6254920  57.4762880
  76.3838860   6.7108380  54.7125040  77.0709990   7.2577590  55.0932630
  75.5971280   7.2549110  54.7474650  68.5231260   2.3281200  50.2042120
  69.3926110   2.6106000  50.4878040  68.0321580   3.1417070  50.0890930
  75.6866070   3.7154410  54.3250400  76.1428850   4.5259660  54.5510590
  75.3354280   3.3977550  55.1568890  77.9898680   9.2260750  61.5542700
  78.6340900   9.4320130  62.2316120  78.3528120   8.4649150  61.1013550
  79.2630760   7.2293100  60.2720150  79.9052990   6.5286260  60.3852320
  79.7880110   8.0091540  60.0917040  83.1086480   7.5141720  49.9959290
  82.8824060   6.7972160  50.5883930  82.7182680   7.2654160  49.1581040
  81.0368380   8.0288000  63.4756210  81.3724620   8.6154690  64.1534130
  80.1168720   7.8980710  63.7054000  68.8902510  11.5408580  50.7703750
  69.2500150  12.1397920  50.1161020  68.7494850  12.0868470  51.5438780
  82.6902730   5.4313660  51.6573450  82.4024430   5.8926350  52.4451330
  83.4854900   4.9711430  51.9257670  68.8744370   9.8063440  65.2446150
  68.9835490   8.8658180  65.1041540  68.2224930  10.0718190  64.5959880
  76.8656960   8.0779330  66.6444270  76.5453830   7.3588570  67.1889960
  76.1915320   8.7534400  66.7180330  74.9071130   8.9239780  51.5877420
  74.8981230   9.6569470  50.9721930  73.9869490   8.6771360  51.6804380
  70.5077770   4.1454670  52.3324180  69.9005720   4.8853570  52.3419480
  70.9827120   4.2354030  51.5062380  77.8930730   8.9868020  50.2502610
  77.9942710   8.7832010  49.3204590  76.9932470   8.7326300  50.4550390
  76.5348840  11.5054340  54.9450280  76.7890340  11.4675730  54.0229650
  75.5861320  11.3787670  54.9378530  72.5183060   4.1065820  50.0812750
  73.2846330   3.9947180  50.6438180  72.5957750   3.4103790  49.4289520
  84.5427000   9.5955070  58.1963050  84.6674420  10.4186240  58.6686860
  85.4092560   9.3845800  57.8487200  72.0144530  11.6886280  57.8680180
  72.7507010  11.1401740  58.1388750  72.3985450  12.5542290  57.7286170
  68.8990010   7.7559850  53.7421690  67.9729790   7.9980990  53.7327100
  69.3646440   8.5834110  53.6206440  71.0202810  10.8732350  67.0565760
  71.8215540  11.1944400  67.4701160  70.5054630  10.5127930  67.7785670
  75.1246840  10.8616590  49.6905750  75.9175450  11.1505420  49.2387540
  74.6051190  10.4308760  49.0118230  79.8567440   6.9812220  67.0041170
  79.2505600   7.0043820  66.2636920  79.5521550   6.2495260  67.5408420
  81.2867810  10.7092510  65.6150580  82.2389560  10.6250530  65.5650820
  81.1396030  11.3734220  66.2884370  84.1777010  10.0886720  51.1142490
  83.8918520   9.6751860  50.2996670  83.9796560  11.0174430  50.9943010
  68.7400620   3.3605810  66.0001810  69.2439640   2.7813090  66.5718040
  68.0008040   3.6446040  66.5378180  75.6424240   6.0820000  49.5548100
  75.5374880   5.4672350  50.2809480  75.4748460   5.5585890  48.7711110
  75.7938560   4.7676800  65.5337330  75.0284230   5.3361800  65.4492000
  75.9754520   4.4753010  64.6405560  78.8826970   5.1440030  50.1590090
  78.3337070   5.5909330  50.8032830  79.5046230   4.6389280  50.6827760
  82.9361910   6.4982130  66.0912350  83.6771380   6.8357890  65.5879810
  82.1734590   6.6674190  65.5382120  74.5502090   4.1030950  52.0555390
  74.9718510   3.9370820  52.8986780  74.6752930   3.2931180  51.5610530
  77.0629730   3.1268560  49.3032490  77.5835390   2.4117580  48.9373640
  77.7098130   3.7654430  49.6033000  81.6107570   4.5496960  64.6267560
  82.0248590   4.7042040  65.4757980  80.6758570   4.6752180  64.7893340
  76.3722800   4.5017440  62.5963490  76.7910910   5.3450170  62.4239730
  75.4531430   4.6389480  62.3670270  81.0474600   2.7870810  62.5563840
  80.5209820   3.3113430  61.9528980  81.3905940   3.4198200  63.1873570
  74.2230220  10.8070450  63.7121220  73.6851310  11.5316510  63.3929920
  74.4764180  10.3300790  62.9218560  77.0792430  12.0421660  63.9707870
  77.0051130  12.9456800  64.2780240  76.1771270  11.7233560  63.9429940
  77.6277760  11.2080170  51.5934230  78.5228550  11.5465140  51.6152990
  77.6595390  10.4859580  50.9658510  71.2673920   6.5807220  49.8221230
  71.7048790   7.1236890  50.4778810  71.7521650   5.7554170  49.8317570
  68.4819720   9.3696250  57.2741490  68.8122730   8.5017310  57.0420130
  68.9110720   9.5754770  58.1046450  73.0781640   7.7005260  54.9343460
  72.7777180   7.5770230  55.8347370  72.9719130   6.8413850  54.5259190
  68.9709930  10.2366840  60.0123120  68.5340920  10.4167640  60.8447270
  69.5387610  10.9941460  59.8704840  84.6072110   9.7383840  64.3000430
  84.0074100   9.7976400  63.5564350  84.7366010   8.7988820  64.4297280
  85.8473560   7.4801660  49.6370140  85.0166520   7.5478310  50.1077370
  86.0245390   8.3705780  49.3337000  85.3030020   4.2249140  52.1404340
  86.0648930   4.7945790  52.2464030  85.3184390   3.6576340  52.9112650
  68.8034360   2.7487070  56.3712000  68.1483200   2.4798710  55.7271700
  69.6412310   2.6391550  55.9213980  86.3089990   5.0799240  56.9846270
  86.6798820   4.2966560  56.5782240  86.9491920   5.7688340  56.8063570
  83.2923750   6.4635820  62.3976590  82.4783590   6.8932980  62.6602380
  83.6997950   7.0754230  61.7845640  85.3549190   4.5183510  49.2976860
  85.6298030   5.4262390  49.1696080  85.1659930   4.4546040  50.2338850
  85.2514530   2.4552500  54.2906290  84.8758130   1.6880430  53.8587580
  84.5217650   2.8375200  54.7781220  69.8410290   3.1339640  60.9115340
  70.2083330   3.0467040  61.7911360  69.2721110   2.3706190  60.8122200
  83.3499800  11.2154420  55.9244860  83.9458870  10.8938990  55.2479280
  83.6077950  10.7426240  56.7158130  71.2562370   7.6472330  66.0735490
  71.2132000   7.2765240  66.9549950  71.3873380   8.5849900  66.2137310
  74.9568400   9.2031920  61.6745210  74.7159760   9.4706480  60.7875730
  75.8971040   9.3737650  61.7296070  86.2172560  11.2226300  62.4755850
  85.7230840  11.6195170  61.7582980  85.6085850  10.5975510  62.8693130
  71.0950400  10.5934580  63.1933270  70.5010720  10.4619280  63.9323310
  71.0874240   9.7572720  62.7275370  83.9012010  11.8649720  59.7542590
  83.4414980  12.6165530  59.3800610  83.2724470  11.1456190  59.6957390
  70.7262630   7.9592960  62.1441310  69.9996690   7.3398250  62.0767260
  70.7871780   8.3533570  61.2739390  74.3307730  10.1737960  58.9290720
  74.8472750   9.5625320  58.4038980  74.9805110  10.6766740  59.4201730
  77.0703230  11.0646450  59.7559700  77.3581040  10.8100750  58.8792710
  77.5826450  10.5123810  60.3465270  69.0092630  11.2767350  55.3538070
  68.8414670  10.6438030  56.0519960  68.1427140  11.4826750  55.0032260
  70.6155330   9.9700580  52.7988210  70.0902950  10.3508610  52.0950170
  70.5399910  10.5951350  53.5197920  77.1375590  11.9862550  67.1227900
  78.0642900  11.7506820  67.1663860  77.1226020  12.8134550  66.6413930
  85.3720650  11.5288120  54.1202150  85.5472840  10.8425860  53.4763070
  84.6742220  12.0535170  53.7278820  73.2148300  11.9182960  51.6737460
  73.9467120  11.6342240  51.1261350  73.4741970  11.6796240  52.5636840
  72.3763090   8.0347690  51.6783790  71.7471970   8.5032790  52.2269620
  72.4910920   7.1896910  52.1129980  83.7053150  11.2132410  66.9468940
  84.4978470  10.7181640  66.7394900  83.9986300  11.8922550  67.5544550
  77.9630850   3.8632370  39.7094260  77.1872950   3.3832810  39.9992830
  78.6143780   3.1838020  39.5350420  71.9796680   4.1752180  40.5870020
  71.1481560   3.9200890  40.9866530  72.5877660   4.2462950  41.3227940
  81.9838280   8.2692560  38.4893390  81.5219810   7.4979800  38.8180560
  82.7963830   8.2958630  38.9945840  71.9597940   8.2092270  40.7828040
  72.2625980   7.3190010  40.6038260  72.7041530   8.7662490  40.5550290
  78.2101590  10.5550570  38.1097380  77.5913030  11.0108070  37.5391820
  79.0653370  10.7102030  37.7087080  77.4039840   6.5389560  39.7164420
  77.3348120   5.5979500  39.5553550  78.1659700   6.6290970  40.2886990
  79.0764940   5.4389810  35.5029290  78.4582210   5.9039260  34.9392010
  79.5888190   6.1317290  35.9198800  73.9396700   4.9665680  42.1812890
  73.6066080   5.5934600  42.8233960  74.1163380   5.4927560  41.4014560
  73.1515800   6.9346480  43.9962070  73.7689800   7.6097560  43.7146520
  72.2908920   7.3434460  43.9049570  68.4448140   6.1246340  32.8768920
  68.0676120   6.6133440  32.1453820  68.7021210   6.7971620  33.5075450
  84.0693390   8.3985890  41.9116710  83.3856910   9.0685000  41.9033380
  84.6087680   8.5966540  41.1461570  81.6052130  10.2430020  40.6261890
  81.6179290   9.8392310  39.7584150  81.0527350  11.0177310  40.5223320
  82.8997550   6.9646240  35.7152060  82.7893880   6.0220570  35.8401480
  82.8965800   7.3261880  36.6014820  81.0037570   5.1459860  41.9544500
  81.4206360   4.9319970  41.1197960  81.7277390   5.4032650  42.5253120
  78.4417830   2.5911560  35.0714550  77.5147110   2.5248940  35.3003020
  78.5942650   3.5291690  34.9569790  84.9499670   3.5447080  42.0460740
  84.1218300   3.6140170  41.5710870  85.5450150   4.1301390  41.5776570
  82.4715120   4.1531860  35.5749800  81.8527540   3.8151410  34.9276100
  82.4539570   3.5091620  36.2828990  74.0474470   3.1176300  37.8534280
  73.6431470   2.4053550  37.3580180  74.1337590   2.7729540  38.7422320
  74.5156170   6.8043860  40.0173490  74.2184460   6.1989330  39.3381270
  75.4655990   6.8421170  39.9062850  82.6041780  10.3775730  43.6796590
  82.1272340  11.1847920  43.4869200  81.9203570   9.7254060  43.8322800
  73.6074600   6.5425550  46.6681290  72.7103130   6.7665520  46.9154690
  73.6327470   6.6660490  45.7192690  80.6479820   3.3918670  32.5822550
  81.0873100   2.5541100  32.4360370  81.3608240   4.0248070  32.6686690
  72.4345820   3.4138870  45.2438660  72.2953590   4.2861670  45.6126060
  71.5527180   3.0711680  45.0986600  78.7575200   8.3314740  36.5503790
  79.1971110   9.0739070  36.1359180  78.6962090   8.5741310  37.4742750
  74.2326170   9.3560570  47.4523810  74.2041600   9.7603520  46.5852240
  74.0691140   8.4270930  47.2895410  86.1840990  10.1387670  48.7487980
  86.6600710  10.6170560  49.4277060  86.8048150  10.0705160  48.0233480
  68.3864470   5.1836420  41.1609570  68.4644890   5.3185190  40.2165290
  69.0006150   4.4752310  41.3537690  69.6312100   6.8836610  37.5715750
  69.2240180   7.0251200  36.7169350  70.5225110   6.5996770  37.3686960
  85.5874240   7.3300520  45.9087990  85.7137300   7.0912400  44.9905170
  85.6295620   6.4985060  46.3810070  79.4490980  11.0328520  44.4782800
  79.9635650  10.9436530  45.2805230  78.6060060  11.3788220  44.7710710
  81.4245380  11.3183860  33.9066800  81.2646520  11.0286800  34.8048630
  81.2592090  10.5423990  33.3712030  73.9033760  11.0982390  35.6838420
  73.7276240  10.1817930  35.4706220  73.0489500  11.4569680  35.9236220
  81.1271510   8.8271420  32.4664800  80.4336670   8.8248710  31.8067080
  81.8694370   8.4030740  32.0358970  80.6921440  10.4534130  36.5413290
  81.1478390   9.6723510  36.8551910  81.0313960  11.1640950  37.0854470
  68.4423990   6.2250590  43.7004030  68.6055030   5.7555950  42.8823400
  68.9076440   5.7174150  44.3652870  70.0162970   5.6002020  45.8599840
  69.6317760   4.9595690  46.4582800  70.3275160   6.3038140  46.4294570
  76.1660110   2.4478560  41.3408460  76.5330240   1.9737130  42.0869800
  75.9765170   3.3220130  41.6816800  72.4841270   5.6948190  34.2559520
  71.7103530   5.1545810  34.0958240  73.2135900   5.1754800  33.9177280
  83.2429250   4.6913550  40.0485910  83.9628370   5.1868840  39.6582020
  83.0411070   4.0131440  39.4039780  78.6248050   4.7622610  45.9354910
  78.5585360   3.8418280  45.6812500  77.9953190   4.8598050  46.6499550
  72.5278670   5.3628570  37.8938330  73.0457340   4.5596830  37.8395220
  72.0762690   5.3007710  38.7355160  77.4148170   6.6294850  33.1665630
  77.7563870   7.3737080  32.6708950  76.5860880   6.9425970  33.5290460
  73.2136330   2.7874180  47.6903580  72.9136470   2.9331360  46.7931400
  73.9847570   2.2279470  47.5976970  78.5564780   7.5843180  45.6858710
  78.5709320   6.6524140  45.4677620  77.8489880   7.6702940  46.3248480
  83.6901850   1.7683000  31.9557320  83.6065570   2.1997220  31.1053760
  84.4096040   2.2281350  32.3884140  84.7675990   4.2250520  45.0327290
  84.0424180   4.8179300  44.8356680  85.2951450   4.2174060  44.2340660
  84.7189100   8.6225260  34.6839450  84.0765260   7.9680880  34.9583170
  84.3319760   9.0280350  33.9080120  80.2975580   5.9510690  38.5311140
  80.6499400   5.3538820  37.8712510  79.4137910   5.6254920  38.7019390
  76.3838860   6.7108380  35.9381550  77.0709990   7.2577590  36.3189140
  75.5971280   7.2549110  35.9731160  68.5231260   2.3281200  31.4298630
  69.3926110   2.6106000  31.7134550  68.0321580   3.1417070  31.3147440
  75.6866070   3.7154410  35.5506910  76.1428850   4.5259660  35.7767100
  75.3354280   3.3977550  36.3825400  77.9898680   9.2260750  42.7799210
  78.6340900   9.4320130  43.4572630  78.3528120   8.4649150  42.3270060
  79.2630760   7.2293100  41.4976660  79.9052990   6.5286260  41.6108830
  79.7880110   8.0091540  41.3173550  83.1086480   7.5141720  31.2215800
  82.8824060   6.7972160  31.8140440  82.7182680   7.2654160  30.3837550
  81.0368380   8.0288000  44.7012720  81.3724620   8.6154690  45.3790640
  80.1168720   7.8980710  44.9310510  68.8902510  11.5408580  31.9960260
  69.2500150  12.1397920  31.3417530  68.7494850  12.0868470  32.7695290
  82.6902730   5.4313660  32.8829960  82.4024430   5.8926350  33.6707840
  83.4854900   4.9711430  33.1514180  68.8744370   9.8063440  46.4702660
  68.9835490   8.8658180  46.3298050  68.2224930  10.0718190  45.8216390
  76.8656960   8.0779330  47.8700780  76.5453830   7.3588570  48.4146470
  76.1915320   8.7534400  47.9436840  74.9071130   8.9239780  32.8133930
  74.8981230   9.6569470  32.1978440  73.9869490   8.6771360  32.9060890
  70.5077770   4.1454670  33.5580690  69.9005720   4.8853570  33.5675990
  70.9827120   4.2354030  32.7318890  77.8930730   8.9868020  31.4759120
  77.9942710   8.7832010  30.5461100  76.9932470   8.7326300  31.6806900
  76.5348840  11.5054340  36.1706790  76.7890340  11.4675730  35.2486160
  75.5861320  11.3787670  36.1635040  72.5183060   4.1065820  31.3069260
  73.2846330   3.9947180  31.8694690  72.5957750   3.4103790  30.6546030
  84.5427000   9.5955070  39.4219560  84.6674420  10.4186240  39.8943370
  85.4092560   9.3845800  39.0743710  72.0144530  11.6886280  39.0936690
  72.7507010  11.1401740  39.3645260  72.3985450  12.5542290  38.9542680
  68.8990010   7.7559850  34.9678200  67.9729790   7.9980990  34.9583610
  69.3646440   8.5834110  34.8462950  71.0202810  10.8732350  48.2822270
  71.8215540  11.1944400  48.6957670  70.5054630  10.5127930  49.0042180
  75.1246840  10.8616590  30.9162260  75.9175450  11.1505420  30.4644050
  74.6051190  10.4308760  30.2374740  79.8567440   6.9812220  48.2297680
  79.2505600   7.0043820  47.4893430  79.5521550   6.2495260  48.7664930
  81.2867810  10.7092510  46.8407090  82.2389560  10.6250530  46.7907330
  81.1396030  11.3734220  47.5140880  84.1777010  10.0886720  32.3399000
  83.8918520   9.6751860  31.5253180  83.9796560  11.0174430  32.2199520
  68.7400620   3.3605810  47.2258320  69.2439640   2.7813090  47.7974550
  68.0008040   3.6446040  47.7634690  75.6424240   6.0820000  30.7804610
  75.5374880   5.4672350  31.5065990  75.4748460   5.5585890  29.9967620
  75.7938560   4.7676800  46.7593840  75.0284230   5.3361800  46.6748510
  75.9754520   4.4753010  45.8662070  78.8826970   5.1440030  31.3846600
  78.3337070   5.5909330  32.0289340  79.5046230   4.6389280  31.9084270
  82.9361910   6.4982130  47.3168860  83.6771380   6.8357890  46.8136320
  82.1734590   6.6674190  46.7638630  74.5502090   4.1030950  33.2811900
  74.9718510   3.9370820  34.1243290  74.6752930   3.2931180  32.7867040
  77.0629730   3.1268560  30.5289000  77.5835390   2.4117580  30.1630150
  77.7098130   3.7654430  30.8289510  81.6107570   4.5496960  45.8524070
  82.0248590   4.7042040  46.7014490  80.6758570   4.6752180  46.0149850
  76.3722800   4.5017440  43.8220000  76.7910910   5.3450170  43.6496240
  75.4531430   4.6389480  43.5926780  81.0474600   2.7870810  43.7820350
  80.5209820   3.3113430  43.1785490  81.3905940   3.4198200  44.4130080
  74.2230220  10.8070450  44.9377730  73.6851310  11.5316510  44.6186430
  74.4764180  10.3300790  44.1475070  77.0792430  12.0421660  45.1964380
  77.0051130  12.9456800  45.5036750  76.1771270  11.7233560  45.1686450
  77.6277760  11.2080170  32.8190740  78.5228550  11.5465140  32.8409500
  77.6595390  10.4859580  32.1915020  71.2673920   6.5807220  31.0477740
  71.7048790   7.1236890  31.7035320  71.7521650   5.7554170  31.0574080
  68.4819720   9.3696250  38.4998000  68.8122730   8.5017310  38.2676640
  68.9110720   9.5754770  39.3302960  73.0781640   7.7005260  36.1599970
  72.7777180   7.5770230  37.0603880  72.9719130   6.8413850  35.7515700
  68.9709930  10.2366840  41.2379630  68.5340920  10.4167640  42.0703780
  69.5387610  10.9941460  41.0961350  84.6072110   9.7383840  45.5256940
  84.0074100   9.7976400  44.7820860  84.7366010   8.7988820  45.6553790
  85.8473560   7.4801660  30.8626650  85.0166520   7.5478310  31.3333880
  86.0245390   8.3705780  30.5593510  85.3030020   4.2249140  33.3660850
  86.0648930   4.7945790  33.4720540  85.3184390   3.6576340  34.1369160
  68.8034360   2.7487070  37.5968510  68.1483200   2.4798710  36.9528210
  69.6412310   2.6391550  37.1470490  86.3089990   5.0799240  38.2102780
  86.6798820   4.2966560  37.8038750  86.9491920   5.7688340  38.0320080
  83.2923750   6.4635820  43.6233100  82.4783590   6.8932980  43.8858890
  83.6997950   7.0754230  43.0102150  85.3549190   4.5183510  30.5233370
  85.6298030   5.4262390  30.3952590  85.1659930   4.4546040  31.4595360
  85.2514530   2.4552500  35.5162800  84.8758130   1.6880430  35.0844090
  84.5217650   2.8375200  36.0037730  69.8410290   3.1339640  42.1371850
  70.2083330   3.0467040  43.0167870  69.2721110   2.3706190  42.0378710
  83.3499800  11.2154420  37.1501370  83.9458870  10.8938990  36.4735790
  83.6077950  10.7426240  37.9414640  71.2562370   7.6472330  47.2992000
  71.2132000   7.2765240  48.1806460  71.3873380   8.5849900  47.4393820
  74.9568400   9.2031920  42.9001720  74.7159760   9.4706480  42.0132240
  75.8971040   9.3737650  42.9552580  86.2172560  11.2226300  43.7012360
  85.7230840  11.6195170  42.9839490  85.6085850  10.5975510  44.0949640
  71.0950400  10.5934580  44.4189780  70.5010720  10.4619280  45.1579820
  71.0874240   9.7572720  43.9531880  83.9012010  11.8649720  40.9799100
  83.4414980  12.6165530  40.6057120  83.2724470  11.1456190  40.9213900
  70.7262630   7.9592960  43.3697820  69.9996690   7.3398250  43.3023770
  70.7871780   8.3533570  42.4995900  74.3307730  10.1737960  40.1547230
  74.8472750   9.5625320  39.6295490  74.9805110  10.6766740  40.6458240
  77.0703230  11.0646450  40.9816210  77.3581040  10.8100750  40.1049220
  77.5826450  10.5123810  41.5721780  69.0092630  11.2767350  36.5794580
  68.8414670  10.6438030  37.2776470  68.1427140  11.4826750  36.2288770
  70.6155330   9.9700580  34.0244720  70.0902950  10.3508610  33.3206680
  70.5399910  10.5951350  34.7454430  77.1375590  11.9862550  48.3484410
  78.0642900  11.7506820  48.3920370  77.1226020  12.8134550  47.8670440
  85.3720650  11.5288120  35.3458660  85.5472840  10.8425860  34.7019580
  84.6742220  12.0535170  34.9535330  73.2148300  11.9182960  32.8993970
  73.9467120  11.6342240  32.3517860  73.4741970  11.6796240  33.7893350
  72.3763090   8.0347690  32.9040300  71.7471970   8.5032790  33.4526130
  72.4910920   7.1896910  33.3386490  83.7053150  11.2132410  48.1725450
  84.4978470  10.7181640  47.9651410  83.9986300  11.8922550  48.7801060
  77.9630850   3.8632370  20.9350770  77.1872950   3.3832810  21.2249340
  78.6143780   3.1838020  20.7606930  71.9796680   4.1752180  21.8126530
  71.1481560   3.9200890  22.2123040  72.5877660   4.2462950  22.5484450
  81.9838280   8.2692560  19.7149900  81.5219810   7.4979800  20.0437070
  82.7963830   8.2958630  20.2202350  71.9597940   8.2092270  22.0084550
  72.2625980   7.3190010  21.8294770  72.7041530   8.7662490  21.7806800
  78.2101590  10.5550570  19.3353890  77.5913030  11.0108070  18.7648330
  79.0653370  10.7102030  18.9343590  77.4039840   6.5389560  20.9420930
  77.3348120   5.5979500  20.7810060  78.1659700   6.6290970  21.5143500
  79.0764940   5.4389810  16.7285800  78.4582210   5.9039260  16.1648520
  79.5888190   6.1317290  17.1455310  73.9396700   4.9665680  23.4069400
  73.6066080   5.5934600  24.0490470  74.1163380   5.4927560  22.6271070
  73.1515800   6.9346480  25.2218580  73.7689800   7.6097560  24.9403030
  72.2908920   7.3434460  25.1306080  68.4448140   6.1246340  14.1025430
  68.0676120   6.6133440  13.3710330  68.7021210   6.7971620  14.7331960
  84.0693390   8.3985890  23.1373220  83.3856910   9.0685000  23.1289890
  84.6087680   8.5966540  22.3718080  81.6052130  10.2430020  21.8518400
  81.6179290   9.8392310  20.9840660  81.0527350  11.0177310  21.7479830
  82.8997550   6.9646240  16.9408570  82.7893880   6.0220570  17.0657990
  82.8965800   7.3261880  17.8271330  81.0037570   5.1459860  23.1801010
  81.4206360   4.9319970  22.3454470  81.7277390   5.4032650  23.7509630
  78.4417830   2.5911560  16.2971060  77.5147110   2.5248940  16.5259530
  78.5942650   3.5291690  16.1826300  84.9499670   3.5447080  23.2717250
  84.1218300   3.6140170  22.7967380  85.5450150   4.1301390  22.8033080
  82.4715120   4.1531860  16.8006310  81.8527540   3.8151410  16.1532610
  82.4539570   3.5091620  17.5085500  74.0474470   3.1176300  19.0790790
  73.6431470   2.4053550  18.5836690  74.1337590   2.7729540  19.9678830
  74.5156170   6.8043860  21.2430000  74.2184460   6.1989330  20.5637780
  75.4655990   6.8421170  21.1319360  82.6041780  10.3775730  24.9053100
  82.1272340  11.1847920  24.7125710  81.9203570   9.7254060  25.0579310
  73.6074600   6.5425550  27.8937800  72.7103130   6.7665520  28.1411200
  73.6327470   6.6660490  26.9449200  80.6479820   3.3918670  13.8079060
  81.0873100   2.5541100  13.6616880  81.3608240   4.0248070  13.8943200
  72.4345820   3.4138870  26.4695170  72.2953590   4.2861670  26.8382570
  71.5527180   3.0711680  26.3243110  78.7575200   8.3314740  17.7760300
  79.1971110   9.0739070  17.3615690  78.6962090   8.5741310  18.6999260
  74.2326170   9.3560570  28.6780320  74.2041600   9.7603520  27.8108750
  74.0691140   8.4270930  28.5151920  86.1840990  10.1387670  29.9744490
  86.6600710  10.6170560  30.6533570  86.8048150  10.0705160  29.2489990
  68.3864470   5.1836420  22.3866080  68.4644890   5.3185190  21.4421800
  69.0006150   4.4752310  22.5794200  69.6312100   6.8836610  18.7972260
  69.2240180   7.0251200  17.9425860  70.5225110   6.5996770  18.5943470
  85.5874240   7.3300520  27.1344500  85.7137300   7.0912400  26.2161680
  85.6295620   6.4985060  27.6066580  79.4490980  11.0328520  25.7039310
  79.9635650  10.9436530  26.5061740  78.6060060  11.3788220  25.9967220
  81.4245380  11.3183860  15.1323310  81.2646520  11.0286800  16.0305140
  81.2592090  10.5423990  14.5968540  73.9033760  11.0982390  16.9094930
  73.7276240  10.1817930  16.6962730  73.0489500  11.4569680  17.1492730
  81.1271510   8.8271420  13.6921310  80.4336670   8.8248710  13.0323590
  81.8694370   8.4030740  13.2615480  80.6921440  10.4534130  17.7669800
  81.1478390   9.6723510  18.0808420  81.0313960  11.1640950  18.3110980
  68.4423990   6.2250590  24.9260540  68.6055030   5.7555950  24.1079910
  68.9076440   5.7174150  25.5909380  70.0162970   5.6002020  27.0856350
  69.6317760   4.9595690  27.6839310  70.3275160   6.3038140  27.6551080
  76.1660110   2.4478560  22.5664970  76.5330240   1.9737130  23.3126310
  75.9765170   3.3220130  22.9073310  72.4841270   5.6948190  15.4816030
  71.7103530   5.1545810  15.3214750  73.2135900   5.1754800  15.1433790
  83.2429250   4.6913550  21.2742420  83.9628370   5.1868840  20.8838530
  83.0411070   4.0131440  20.6296290  78.6248050   4.7622610  27.1611420
  78.5585360   3.8418280  26.9069010  77.9953190   4.8598050  27.8756060
  72.5278670   5.3628570  19.1194840  73.0457340   4.5596830  19.0651730
  72.0762690   5.3007710  19.9611670  77.4148170   6.6294850  14.3922140
  77.7563870   7.3737080  13.8965460  76.5860880   6.9425970  14.7546970
  73.2136330   2.7874180  28.9160090  72.9136470   2.9331360  28.0187910
  73.9847570   2.2279470  28.8233480  78.5564780   7.5843180  26.9115220
  78.5709320   6.6524140  26.6934130  77.8489880   7.6702940  27.5504990
  83.6901850   1.7683000  13.1813830  83.6065570   2.1997220  12.3310270
  84.4096040   2.2281350  13.6140650  84.7675990   4.2250520  26.2583800
  84.0424180   4.8179300  26.0613190  85.2951450   4.2174060  25.4597170
  84.7189100   8.6225260  15.9095960  84.0765260   7.9680880  16.1839680
  84.3319760   9.0280350  15.1336630  80.2975580   5.9510690  19.7567650
  80.6499400   5.3538820  19.0969020  79.4137910   5.6254920  19.9275900
  76.3838860   6.7108380  17.1638060  77.0709990   7.2577590  17.5445650
  75.5971280   7.2549110  17.1987670  68.5231260   2.3281200  12.6555140
  69.3926110   2.6106000  12.9391060  68.0321580   3.1417070  12.5403950
  75.6866070   3.7154410  16.7763420  76.1428850   4.5259660  17.0023610
  75.3354280   3.3977550  17.6081910  77.9898680   9.2260750  24.0055720
  78.6340900   9.4320130  24.6829140  78.3528120   8.4649150  23.5526570
  79.2630760   7.2293100  22.7233170  79.9052990   6.5286260  22.8365340
  79.7880110   8.0091540  22.5430060  83.1086480   7.5141720  12.4472310
  82.8824060   6.7972160  13.0396950  82.7182680   7.2654160  11.6094060
  81.0368380   8.0288000  25.9269230  81.3724620   8.6154690  26.6047150
  80.1168720   7.8980710  26.1567020  68.8902510  11.5408580  13.2216770
  69.2500150  12.1397920  12.5674040  68.7494850  12.0868470  13.9951800
  82.6902730   5.4313660  14.1086470  82.4024430   5.8926350  14.8964350
  83.4854900   4.9711430  14.3770690  68.8744370   9.8063440  27.6959170
  68.9835490   8.8658180  27.5554560  68.2224930  10.0718190  27.0472900
  76.8656960   8.0779330  29.0957290  76.5453830   7.3588570  29.6402980
  76.1915320   8.7534400  29.1693350  74.9071130   8.9239780  14.0390440
  74.8981230   9.6569470  13.4234950  73.9869490   8.6771360  14.1317400
  70.5077770   4.1454670  14.7837200  69.9005720   4.8853570  14.7932500
  70.9827120   4.2354030  13.9575400  77.8930730   8.9868020  12.7015630
  77.9942710   8.7832010  11.7717610  76.9932470   8.7326300  12.9063410
  76.5348840  11.5054340  17.3963300  76.7890340  11.4675730  16.4742670
  75.5861320  11.3787670  17.3891550  72.5183060   4.1065820  12.5325770
  73.2846330   3.9947180  13.0951200  72.5957750   3.4103790  11.8802540
  84.5427000   9.5955070  20.6476070  84.6674420  10.4186240  21.1199880
  85.4092560   9.3845800  20.3000220  72.0144530  11.6886280  20.3193200
  72.7507010  11.1401740  20.5901770  72.3985450  12.5542290  20.1799190
  68.8990010   7.7559850  16.1934710  67.9729790   7.9980990  16.1840120
  69.3646440   8.5834110  16.0719460  71.0202810  10.8732350  29.5078780
  71.8215540  11.1944400  29.9214180  70.5054630  10.5127930  30.2298690
  75.1246840  10.8616590  12.1418770  75.9175450  11.1505420  11.6900560
  74.6051190  10.4308760  11.4631250  79.8567440   6.9812220  29.4554190
  79.2505600   7.0043820  28.7149940  79.5521550   6.2495260  29.9921440
  81.2867810  10.7092510  28.0663600  82.2389560  10.6250530  28.0163840
  81.1396030  11.3734220  28.7397390  84.1777010  10.0886720  13.5655510
  83.8918520   9.6751860  12.7509690  83.9796560  11.0174430  13.4456030
  68.7400620   3.3605810  28.4514830  69.2439640   2.7813090  29.0231060
  68.0008040   3.6446040  28.9891200  75.6424240   6.0820000  12.0061120
  75.5374880   5.4672350  12.7322500  75.4748460   5.5585890  11.2224130
  75.7938560   4.7676800  27.9850350  75.0284230   5.3361800  27.9005020
  75.9754520   4.4753010  27.0918580  78.8826970   5.1440030  12.6103110
  78.3337070   5.5909330  13.2545850  79.5046230   4.6389280  13.1340780
  82.9361910   6.4982130  28.5425370  83.6771380   6.8357890  28.0392830
  82.1734590   6.6674190  27.9895140  74.5502090   4.1030950  14.5068410
  74.9718510   3.9370820  15.3499800  74.6752930   3.2931180  14.0123550
  77.0629730   3.1268560  11.7545510  77.5835390   2.4117580  11.3886660
  77.7098130   3.7654430  12.0546020  81.6107570   4.5496960  27.0780580
  82.0248590   4.7042040  27.9271000  80.6758570   4.6752180  27.2406360
  76.3722800   4.5017440  25.0476510  76.7910910   5.3450170  24.8752750
  75.4531430   4.6389480  24.8183290  81.0474600   2.7870810  25.0076860
  80.5209820   3.3113430  24.4042000  81.3905940   3.4198200  25.6386590
  74.2230220  10.8070450  26.1634240  73.6851310  11.5316510  25.8442940
  74.4764180  10.3300790  25.3731580  77.0792430  12.0421660  26.4220890
  77.0051130  12.9456800  26.7293260  76.1771270  11.7233560  26.3942960
  77.6277760  11.2080170  14.0447250  78.5228550  11.5465140  14.0666010
  77.6595390  10.4859580  13.4171530  71.2673920   6.5807220  12.2734250
  71.7048790   7.1236890  12.9291830  71.7521650   5.7554170  12.2830590
  68.4819720   9.3696250  19.7254510  68.8122730   8.5017310  19.4933150
  68.9110720   9.5754770  20.5559470  73.0781640   7.7005260  17.3856480
  72.7777180   7.5770230  18.2860390  72.9719130   6.8413850  16.9772210
  68.9709930  10.2366840  22.4636140  68.5340920  10.4167640  23.2960290
  69.5387610  10.9941460  22.3217860  84.6072110   9.7383840  26.7513450
  84.0074100   9.7976400  26.0077370  84.7366010   8.7988820  26.8810300
  85.8473560   7.4801660  12.0883160  85.0166520   7.5478310  12.5590390
  86.0245390   8.3705780  11.7850020  85.3030020   4.2249140  14.5917360
  86.0648930   4.7945790  14.6977050  85.3184390   3.6576340  15.3625670
  68.8034360   2.7487070  18.8225020  68.1483200   2.4798710  18.1784720
  69.6412310   2.6391550  18.3727000  86.3089990   5.0799240  19.4359290
  86.6798820   4.2966560  19.0295260  86.9491920   5.7688340  19.2576590
  83.2923750   6.4635820  24.8489610  82.4783590   6.8932980  25.1115400
  83.6997950   7.0754230  24.2358660  85.3549190   4.5183510  11.7489880
  85.6298030   5.4262390  11.6209100  85.1659930   4.4546040  12.6851870
  85.2514530   2.4552500  16.7419310  84.8758130   1.6880430  16.3100600
  84.5217650   2.8375200  17.2294240  69.8410290   3.1339640  23.3628360
  70.2083330   3.0467040  24.2424380  69.2721110   2.3706190  23.2635220
  83.3499800  11.2154420  18.3757880  83.9458870  10.8938990  17.6992300
  83.6077950  10.7426240  19.1671150  71.2562370   7.6472330  28.5248510
  71.2132000   7.2765240  29.4062970  71.3873380   8.5849900  28.6650330
  74.9568400   9.2031920  24.1258230  74.7159760   9.4706480  23.2388750
  75.8971040   9.3737650  24.1809090  86.2172560  11.2226300  24.9268870
  85.7230840  11.6195170  24.2096000  85.6085850  10.5975510  25.3206150
  71.0950400  10.5934580  25.6446290  70.5010720  10.4619280  26.3836330
  71.0874240   9.7572720  25.1788390  83.9012010  11.8649720  22.2055610
  83.4414980  12.6165530  21.8313630  83.2724470  11.1456190  22.1470410
  70.7262630   7.9592960  24.5954330  69.9996690   7.3398250  24.5280280
  70.7871780   8.3533570  23.7252410  74.3307730  10.1737960  21.3803740
  74.8472750   9.5625320  20.8552000  74.9805110  10.6766740  21.8714750
  77.0703230  11.0646450  22.2072720  77.3581040  10.8100750  21.3305730
  77.5826450  10.5123810  22.7978290  69.0092630  11.2767350  17.8051090
  68.8414670  10.6438030  18.5032980  68.1427140  11.4826750  17.4545280
  70.6155330   9.9700580  15.2501230  70.0902950  10.3508610  14.5463190
  70.5399910  10.5951350  15.9710940  77.1375590  11.9862550  29.5740920
  78.0642900  11.7506820  29.6176880  77.1226020  12.8134550  29.0926950
  85.3720650  11.5288120  16.5715170  85.5472840  10.8425860  15.9276090
  84.6742220  12.0535170  16.1791840  73.2148300  11.9182960  14.1250480
  73.9467120  11.6342240  13.5774370  73.4741970  11.6796240  15.0149860
  72.3763090   8.0347690  14.1296810  71.7471970   8.5032790  14.6782640
  72.4910920   7.1896910  14.5643000  83.7053150  11.2132410  29.3981960
  84.4978470  10.7181640  29.1907920  83.9986300  11.8922550  30.0057570
  77.9630850   3.8632370   2.1607280  77.1872950   3.3832810   2.4505850
  78.6143780   3.1838020   1.9863440  71.9796680   4.1752180   3.0383040
  71.1481560   3.9200890   3.4379550  72.5877660   4.2462950   3.7740960
  71.9597940   8.2092270   3.2341060  72.2625980   7.3190010   3.0551280
  72.7041530   8.7662490   3.0063310  77.4039840   6.5389560   2.1677440
  77.3348120   5.5979500   2.0066570  78.1659700   6.6290970   2.7400010
  73.9396700   4.9665680   4.6325910  73.6066080   5.5934600   5.2746980
  74.1163380   5.4927560   3.8527580  73.1515800   6.9346480   6.4475090
  73.7689800   7.6097560   6.1659540  72.2908920   7.3434460   6.3562590
  84.0693390   8.3985890   4.3629730  83.3856910   9.0685000   4.3546400
  84.6087680   8.5966540   3.5974590  81.6052130  10.2430020   3.0774910
  81.6179290   9.8392310   2.2097170  81.0527350  11.0177310   2.9736340
  81.0037570   5.1459860   4.4057520  81.4206360   4.9319970   3.5710980
  81.7277390   5.4032650   4.9766140  84.9499670   3.5447080   4.4973760
  84.1218300   3.6140170   4.0223890  85.5450150   4.1301390   4.0289590
  74.5156170   6.8043860   2.4686510  74.2184460   6.1989330   1.7894290
  75.4655990   6.8421170   2.3575870  82.6041780  10.3775730   6.1309610
  82.1272340  11.1847920   5.9382220  81.9203570   9.7254060   6.2835820
  73.6074600   6.5425550   9.1194310  72.7103130   6.7665520   9.3667710
  73.6327470   6.6660490   8.1705710  72.4345820   3.4138870   7.6951680
  72.2953590   4.2861670   8.0639080  71.5527180   3.0711680   7.5499620
  74.2326170   9.3560570   9.9036830  74.2041600   9.7603520   9.0365260
  74.0691140   8.4270930   9.7408430  86.1840990  10.1387670  11.2001000
  86.6600710  10.6170560  11.8790080  86.8048150  10.0705160  10.4746500
  68.3864470   5.1836420   3.6122590  68.4644890   5.3185190   2.6678310
  69.0006150   4.4752310   3.8050710  85.5874240   7.3300520   8.3601010
  85.7137300   7.0912400   7.4418190  85.6295620   6.4985060   8.8323090
  79.4490980  11.0328520   6.9295820  79.9635650  10.9436530   7.7318250
  78.6060060  11.3788220   7.2223730  68.4423990   6.2250590   6.1517050
  68.6055030   5.7555950   5.3336420  68.9076440   5.7174150   6.8165890
  70.0162970   5.6002020   8.3112860  69.6317760   4.9595690   8.9095820
  70.3275160   6.3038140   8.8807590  76.1660110   2.4478560   3.7921480
  76.5330240   1.9737130   4.5382820  75.9765170   3.3220130   4.1329820
  83.2429250   4.6913550   2.4998930  83.9628370   5.1868840   2.1095040
  83.0411070   4.0131440   1.8552800  78.6248050   4.7622610   8.3867930
  78.5585360   3.8418280   8.1325520  77.9953190   4.8598050   9.1012570
  73.2136330   2.7874180  10.1416600  72.9136470   2.9331360   9.2444420
  73.9847570   2.2279470  10.0489990  78.5564780   7.5843180   8.1371730
  78.5709320   6.6524140   7.9190640  77.8489880   7.6702940   8.7761500
  84.7675990   4.2250520   7.4840310  84.0424180   4.8179300   7.2869700
  85.2951450   4.2174060   6.6853680  77.9898680   9.2260750   5.2312230
  78.6340900   9.4320130   5.9085650  78.3528120   8.4649150   4.7783080
  79.2630760   7.2293100   3.9489680  79.9052990   6.5286260   4.0621850
  79.7880110   8.0091540   3.7686570  81.0368380   8.0288000   7.1525740
  81.3724620   8.6154690   7.8303660  80.1168720   7.8980710   7.3823530
  68.8744370   9.8063440   8.9215680  68.9835490   8.8658180   8.7811070
  68.2224930  10.0718190   8.2729410  76.8656960   8.0779330  10.3213800
  76.5453830   7.3588570  10.8659490  76.1915320   8.7534400  10.3949860
  71.0202810  10.8732350  10.7335290  71.8215540  11.1944400  11.1470690
  70.5054630  10.5127930  11.4555200  79.8567440   6.9812220  10.6810700
  79.2505600   7.0043820   9.9406450  79.5521550   6.2495260  11.2177950
  81.2867810  10.7092510   9.2920110  82.2389560  10.6250530   9.2420350
  81.1396030  11.3734220   9.9653900  68.7400620   3.3605810   9.6771340
  69.2439640   2.7813090  10.2487570  68.0008040   3.6446040  10.2147710
  75.7938560   4.7676800   9.2106860  75.0284230   5.3361800   9.1261530
  75.9754520   4.4753010   8.3175090  82.9361910   6.4982130   9.7681880
  83.6771380   6.8357890   9.2649340  82.1734590   6.6674190   9.2151650
  81.6107570   4.5496960   8.3037090  82.0248590   4.7042040   9.1527510
  80.6758570   4.6752180   8.4662870  76.3722800   4.5017440   6.2733020
  76.7910910   5.3450170   6.1009260  75.4531430   4.6389480   6.0439800
  81.0474600   2.7870810   6.2333370  80.5209820   3.3113430   5.6298510
  81.3905940   3.4198200   6.8643100  74.2230220  10.8070450   7.3890750
  73.6851310  11.5316510   7.0699450  74.4764180  10.3300790   6.5988090
  77.0792430  12.0421660   7.6477400  77.0051130  12.9456800   7.9549770
  76.1771270  11.7233560   7.6199470  68.9709930  10.2366840   3.6892650
  68.5340920  10.4167640   4.5216800  69.5387610  10.9941460   3.5474370
  84.6072110   9.7383840   7.9769960  84.0074100   9.7976400   7.2333880
  84.7366010   8.7988820   8.1066810  83.2923750   6.4635820   6.0746120
  82.4783590   6.8932980   6.3371910  83.6997950   7.0754230   5.4615170
  69.8410290   3.1339640   4.5884870  70.2083330   3.0467040   5.4680890
  69.2721110   2.3706190   4.4891730  71.2562370   7.6472330   9.7505020
  71.2132000   7.2765240  10.6319480  71.3873380   8.5849900   9.8906840
  74.9568400   9.2031920   5.3514740  74.7159760   9.4706480   4.4645260
  75.8971040   9.3737650   5.4065600  86.2172560  11.2226300   6.1525380
  85.7230840  11.6195170   5.4352510  85.6085850  10.5975510   6.5462660
  71.0950400  10.5934580   6.8702800  70.5010720  10.4619280   7.6092840
  71.0874240   9.7572720   6.4044900  83.9012010  11.8649720   3.4312120
  83.4414980  12.6165530   3.0570140  83.2724470  11.1456190   3.3726920
  70.7262630   7.9592960   5.8210840  69.9996690   7.3398250   5.7536790
  70.7871780   8.3533570   4.9508920  74.3307730  10.1737960   2.6060250
  74.8472750   9.5625320   2.0808510  74.9805110  10.6766740   3.0971260
  77.0703230  11.0646450   3.4329230  77.3581040  10.8100750   2.5562240
  77.5826450  10.5123810   4.0234800  77.1375590  11.9862550  10.7997430
  78.0642900  11.7506820  10.8433390  77.1226020  12.8134550  10.3183460
  83.7053150  11.2132410  10.6238470  84.4978470  10.7181640  10.4164430
  83.9986300  11.8922550  11.2314080  61.0569320 152.2801270 150.4745930
  60.9763370 151.3655880 150.2037640  60.6433740 152.7768340 149.7685640
  51.6145140 149.3301990 147.0173350  50.7261840 149.6717960 146.9153230
  51.8986330 149.1302310 146.1254180  53.7906530 147.9133490 148.0511730
  53.8973280 148.8137220 148.3580490  52.8798890 147.8651460 147.7606380
  63.4425640 147.0358300 149.5222630  64.2635260 146.5454870 149.5648110
  63.4759720 147.6255960 150.2754470  57.2793580 144.7210650 150.9815370
  57.5868560 144.1657540 150.2650870  56.3494280 144.8555110 150.7988360
  59.6674340 152.7859480 147.7175490  58.7403620 152.7196860 147.9463960
  59.8199160 153.7239610 147.6030730  59.6543420 149.0576480 144.7142650
  58.7147090 149.2190440 144.7995110  59.9726680 149.7762160 144.1678640
  55.2730980 153.3124220 150.4995220  54.8687980 152.6001470 150.0041120
  55.3594100 152.9677460 151.3883260  61.8736330 153.5866590 145.2283490
  62.3129610 152.7489020 145.0821310  62.5864750 154.2195990 145.3147630
  65.4553470 144.8409400 143.5424530  65.1426130 144.9336230 144.4423600
  66.2165940 145.4190430 143.4921960  51.9735610 152.2069200 148.0001870
  51.8533210 152.9331290 147.3883140  51.6636500 151.4372110 147.5229780
  54.4399270 145.5504270 151.3825540  53.9967420 146.3313810 151.0510060
  54.9984260 145.8734160 152.0896480  57.5558090 145.1714970 146.2631370
  56.9312270 145.1674840 146.9884680  57.4688210 144.3045930 145.8667340
  54.2313490 150.6737840 149.1106790  54.0054410 150.4575010 150.0153410
  53.4506020 151.1066300 148.7652760  61.4611250 150.6801210 147.7097440
  60.8620140 151.4037010 147.5261060  62.0090860 150.6177990 146.9273890
  60.0676120 149.3164750 149.7400720  60.4605690 149.6336950 148.9269410
  60.4292970 148.4376630 149.8545240  49.2910520 149.8485670 143.1733640
  49.2085190 150.7916430 143.3148630  48.9393580 149.7060580 142.2945990
  57.0908650 148.5824700 152.2403990  57.0944710 148.1414650 151.3908530
  57.9859770 148.9042030 152.3475810  52.9411030 148.4651190 151.1998200
  52.6011080 148.9426420 151.9565250  52.1788350 148.0116310 150.8399300
  57.1528800 149.5836780 145.2310750  57.2741620 149.5423260 146.1796570
  56.7677310 150.4460930 145.0757480  56.1650300 151.8937920 144.6294050
  55.5967200 151.4456170 144.0029960  56.8739300 152.2530700 144.0959200
  50.2557110 147.3870170 150.1162870  49.9704030 147.0225840 150.9541490
  50.1935970 146.6550630 149.5026010  59.9295700 146.2799430 146.8376240
  59.1160310 145.7812600 146.7621550  59.7357650 147.1197680 146.4212590
  62.6444090 150.6519080 145.1338400  63.5323710 150.9636310 144.9589740
  62.6149180 149.7791330 144.7418980  64.9158360 151.9630920 144.6018260
  64.8322080 152.3945140 143.7514700  65.6352550 152.4229270 145.0345080
  49.7487770 152.5229120 144.0759570  50.6182620 152.8053920 144.3595490
  49.2578090 153.3364990 143.9608380  52.8134360 144.2539980 148.6690370
  52.6848990 144.2457880 149.6175290  51.9896380 144.5923070 148.3181380
  64.6729100 147.4610350 146.6886080  64.0442260 147.5656020 145.9744310
  64.1781020 147.6807130 147.4779960  56.6413130 149.7396300 148.1043960
  55.9329280 150.2082640 148.5457570  56.9257610 149.0818310 148.7389150
  60.6728560 146.4646960 149.5439750  60.5496340 146.4833090 148.5949260
  61.6213120 146.5125900 149.6638150  54.8448150 148.0481380 145.4794670
  55.6938680 148.4851530 145.4134860  54.4779420 148.3601640 146.3066730
  63.7657930 152.6194140 150.3926240  62.8248070 152.6344370 150.5673930
  64.0802000 151.8330100 150.8386540  53.7439570 154.3013740 143.9530200
  54.5102840 154.1895100 144.5155630  53.8214260 153.6051710 143.3006970
  52.4386330 151.7338810 144.6363090  52.5189920 150.7866320 144.7480490
  53.3306080 152.0645690 144.7423750  55.7758600 154.2978870 145.9272840
  56.1975020 154.1318740 146.7704230  55.9009440 153.4879100 145.4327980
  58.2886240 153.3216480 143.1749940  58.8091900 152.6065500 142.8091090
  58.9354640 153.9602350 143.4750450  54.6717500 150.3712100 142.8731000
  54.4706560 149.5079460 143.2344340  54.5009550 150.2845460 141.9352600
  62.1505810 145.1820330 145.4017880  62.4308100 144.3388230 145.7577300
  61.3771540 145.4143440 145.9156630  53.4700300 147.4712720 142.8608880
  53.7726200 147.4780150 141.9528030  54.2094890 147.1210580 143.3576540
  56.6885230 146.4147340 143.8465080  56.3407230 145.7371330 143.2667530
  56.8898000 145.9536850 144.6608470  50.0290870 152.9434990 150.2429450
  49.3739710 152.6746630 149.5989150  50.8668820 152.8339470 149.7931430
  62.9781310 147.7376280 144.4647940  63.3966190 147.5507260 143.6244600
  62.6717370 146.8855330 144.7750870  66.4771040 152.6500420 148.1623740
  66.1014640 151.8828350 147.7305030  65.7474160 153.0323120 148.6498670
  49.2428950 150.1533920 146.1854780  48.3393030 150.4164120 146.0106440
  49.7269570 150.4245090 145.4054740  65.7522000 150.8757910 151.4630980
  66.2759480 150.3820560 150.8321150  66.3381420 151.0108270 152.2078550
  51.7856160 149.2099460 144.0949160  52.4947860 148.7882680 143.6096440
  51.0696100 149.2774690 143.4632510  51.4330320 145.2638790 143.1351810
  52.1558450 145.8047730 143.4533030  51.7054840 144.9902210 142.2593350
  65.2421970 150.1331260 147.4023390  65.7381090 149.9002130 148.1872270
  65.0438040 149.2943100 146.9861030  66.6709130 148.7692210 149.9361070
  66.5608410 148.6148250 150.8743340  67.4316720 148.2413150 149.6936480
  67.5599400 146.6000130 143.1767210  68.4848710 146.4681310 142.9685500
  67.5375190 146.6792950 144.1303660  67.6337890 147.3710790 145.8023920
  66.8389390 147.3055910 146.3316830  67.8381170 148.3061430 145.7909270
  64.0657820 145.7007670 152.2522750  64.5065910 145.6452770 151.4044350
  63.7965410 146.6165680 152.3232930  65.9296390 145.3322910 150.2631570
  65.8684790 144.3884130 150.1162590  66.7088420 145.4403000 150.8085030
  50.8577160 145.3032050 146.7287380  51.6156520 145.4160930 146.1551410
  50.3954330 146.1401250 146.6830810  57.3990970 147.4171320 149.7189690
  56.5865480 147.0428210 149.3785570  57.9032610 146.6616400 150.0210880
  61.9015950 144.0813770 150.9572760  62.5045320 144.6533980 151.4321280
  61.1608940 144.6453210 150.7346660  65.0450550 144.4835330 146.2313040
  65.2401180 145.3818780 146.4980470  64.2580420 144.2522410 146.7245990
  53.2302310 145.8296100 145.2689350  53.7595070 145.0425900 145.1397300
  53.8630630 146.5087290 145.5024880  55.4240150 145.5671240 148.3234740
  54.7942890 144.8658550 148.4904870  54.8845290 146.3275370 148.1067900
  61.0569320 152.2801270 131.7002440  60.9763370 151.3655880 131.4294150
  60.6433740 152.7768340 130.9942150  59.1887360 154.0580290 133.5811710
  58.4129460 153.5780730 133.8710280  59.8400290 153.3785940 133.4067870
  51.6145140 149.3301990 128.2429860  50.7261840 149.6717960 128.1409740
  51.8986330 149.1302310 127.3510690  49.5778150 151.9307640 134.1269560
  50.1494260 151.1629840 134.1273200  49.5779690 152.2296400 133.2176170
  50.8203020 147.3392000 135.9138490  50.6405860 146.4417750 136.1941250
  50.4183100 147.8863870 136.5885440  59.6601520 149.5407860 133.8150800
  60.0366340 148.6679740 133.7024470  59.5621030 149.8766560 132.9241240
  53.7906530 147.9133490 129.2768240  53.8973280 148.8137220 129.5837000
  52.8798890 147.8651460 128.9862890  63.4425640 147.0358300 130.7479140
  64.2635260 146.5454870 130.7904620  63.4759720 147.6255960 131.5010980
  51.4389690 149.8352500 134.5220830  52.1199800 150.0990870 135.1408230
  51.1237740 148.9953370 134.8558840  55.6314260 150.8819860 133.6093420
  56.1392480 151.3800830 134.2498440  56.1627500 150.1055060 133.4332780
  67.7325190 149.0525050 137.3122770  67.0277360 149.4406760 136.7937880
  67.9983110 149.7475340 137.9143700  53.9150360 145.5218420 137.8756840
  53.9168800 146.0390810 137.0702740  53.0854670 145.0448600 137.8526770
  63.6787120 148.9758680 133.5206680  62.9742690 149.2643570 134.1009790
  64.0399280 149.7858790 133.1606240  53.5965690 147.2328380 135.8827290
  53.9382500 148.0770430 135.5881160  52.6581500 147.3812120 135.9992630
  66.7474040 148.4213470 133.9115890  65.7998950 148.4552450 134.0431320
  67.0724030 149.2352420 134.2965250  57.2793580 144.7210650 132.2071880
  57.5868560 144.1657540 131.4907380  56.3494280 144.8555110 132.0244870
  59.6674340 152.7859480 128.9432000  58.7403620 152.7196860 129.1720470
  59.8199160 153.7239610 128.8287240  59.6543420 149.0576480 125.9399160
  58.7147090 149.2190440 126.0251620  59.9726680 149.7762160 125.3935150
  63.1398190 150.5264320 136.8633060  62.7269370 151.3518030 137.1173050
  62.4074140 149.9409360 136.6709420  55.2730980 153.3124220 131.7251730
  54.8687980 152.6001470 131.2297630  55.3594100 152.9677460 132.6139770
  53.9859600 150.0867430 135.5050770  54.5374190 150.1962770 134.7304020
  54.5003110 150.4605030 136.2206000  61.8736330 153.5866590 126.4540000
  62.3129610 152.7489020 126.3077820  62.5864750 154.2195990 126.5404140
  65.4553470 144.8409400 124.7681040  65.1426130 144.9336230 125.6680110
  66.2165940 145.4190430 124.7178470  51.9735610 152.2069200 129.2258380
  51.8533210 152.9331290 128.6139650  51.6636500 151.4372110 128.7486290
  66.6654760 149.5780900 140.7455180  66.0499030 150.0860570 140.2170640
  66.3451180 148.6779230 140.6881120  54.4399270 145.5504270 132.6082050
  53.9967420 146.3313810 132.2766570  54.9984260 145.8734160 133.3152990
  58.7269080 148.4172790 138.2117370  58.2648450 148.6255810 139.0237310
  58.3247190 147.6032140 137.9088040  63.7273590 149.6381740 139.3414030
  62.8767180 149.3387490 139.6623100  63.5675380 149.8823750 138.4297850
  60.8223300 151.1383490 141.4412820  61.1476710 150.3047240 141.1015050
  61.6103630 151.6612010 141.5891150  57.5558090 145.1714970 127.4887880
  56.9312270 145.1674840 128.2141190  57.4688210 144.3045930 127.0923850
  56.4775170 146.0951600 134.4671650  56.7747500 147.0014430 134.3863670
  57.0260730 145.6070380 133.8531220  54.2313490 150.6737840 130.3363300
  54.0054410 150.4575010 131.2409920  53.4506020 151.1066300 129.9909270
  61.4611250 150.6801210 128.9353950  60.8620140 151.4037010 128.7517570
  62.0090860 150.6177990 128.1530400  56.6712700 151.5723420 141.0023570
  56.5756300 150.6318150 140.8523970  57.5144680 151.7938490 140.6071640
  60.0676120 149.3164750 130.9657230  60.4605690 149.6336950 130.1525920
  60.4292970 148.4376630 131.0801750  51.8023240 147.9837090 139.1557350
  51.4086630 148.8312300 139.3630130  51.1141640 147.3463460 139.3465990
  58.3768290 148.0672060 142.2254090  57.6866610 147.8744260 142.8600180
  59.1200590 148.3506700 142.7578390  49.1040290 145.9065550 133.1887430
  48.8153340 146.4768410 133.9012410  49.8486050 145.4270000 133.5518660
  49.2910520 149.8485670 124.3990150  49.2085190 150.7916430 124.5405140
  48.9393580 149.7060580 123.5202500  60.6531260 151.9070500 135.0608010
  59.9212380 152.4157310 135.4098110  60.2555600 151.0900480 134.7596790
  57.0908650 148.5824700 133.4660500  57.0944710 148.1414650 132.6165040
  57.9859770 148.9042030 133.5732320  52.9411030 148.4651190 132.4254710
  52.6011080 148.9426420 133.1821760  52.1788350 148.0116310 132.0655810
  57.1528800 149.5836780 126.4567260  57.2741620 149.5423260 127.4053080
  56.7677310 150.4460930 126.3013990  61.1157170 147.3604180 134.4730950
  61.1329910 147.8112830 135.3172800  60.8672750 146.4609820 134.6864390
  56.1650300 151.8937920 125.8550560  55.5967200 151.4456170 125.2286470
  56.8739300 152.2530700 125.3215710  64.5427920 144.7736360 140.3117330
  64.8673690 144.0426020 140.8375310  64.5784430 144.4550000 139.4098320
  57.3916620 152.6426480 135.2125910  57.7586750 152.1685050 135.9587250
  57.2021680 153.5168050 135.5534250  50.2557110 147.3870170 131.3419380
  49.9704030 147.0225840 132.1798000  50.1935970 146.6550630 130.7282520
  55.1815990 151.6835120 137.5310120  54.8773060 152.5627100 137.7560480
  56.1362450 151.7434910 137.5667560  59.9295700 146.2799430 128.0632750
  59.1160310 145.7812600 127.9878060  59.7357650 147.1197680 127.6469100
  62.6444090 150.6519080 126.3594910  63.5323710 150.9636310 126.1846250
  62.6149180 149.7791330 125.9675490  51.2379720 152.5237860 138.6781480
  50.8794660 153.1891710 139.2654820  50.9434280 151.6921410 139.0494100
  54.4392840 152.9822100 141.5621030  54.1392980 153.1279280 140.6648850
  55.2104080 152.4227390 141.4694420  64.9158360 151.9630920 125.8274770
  64.8322080 152.3945140 124.9771210  65.6352550 152.4229270 126.2601590
  49.7487770 152.5229120 125.3016080  50.6182620 152.8053920 125.5852000
  49.2578090 153.3364990 125.1864890  52.8134360 144.2539980 129.8946880
  52.6848990 144.2457880 130.8431800  51.9896380 144.5923070 129.5437890
  49.8128290 146.0131100 139.3553580  49.0986810 146.2128020 139.9606190
  50.2323330 145.2370670 139.7268380  61.3067070 148.5053410 137.1055030
  61.6747890 147.6848620 137.4334600  60.4465270 148.5655300 137.5210680
  64.6729100 147.4610350 127.9142590  64.0442260 147.5656020 127.2000820
  64.1781020 147.6807130 128.7036470  56.6413130 149.7396300 129.3300470
  55.9329280 150.2082640 129.7714080  56.9257610 149.0818310 129.9645660
  58.2669060 151.1593000 137.3293000  58.7654310 151.6338820 137.9944850
  58.4092010 150.2356520 137.5363030  60.6728560 146.4646960 130.7696260
  60.5496340 146.4833090 129.8205770  61.6213120 146.5125900 130.8894660
  54.8448150 148.0481380 126.7051180  55.6938680 148.4851530 126.6391370
  54.4779420 148.3601640 127.5323240  65.4735920 147.3760960 138.1721390
  64.9709520 148.1166360 138.5115200  66.2892580 147.7644960 137.8558180
  63.7657930 152.6194140 131.6182750  62.8248070 152.6344370 131.7930440
  64.0802000 151.8330100 132.0643050  53.7439570 154.3013740 125.1786710
  54.5102840 154.1895100 125.7412140  53.8214260 153.6051710 124.5263480
  52.4386330 151.7338810 125.8619600  52.5189920 150.7866320 125.9737000
  53.3306080 152.0645690 125.9680260  49.9657130 153.5553730 141.0975770
  50.4696150 152.9761010 141.6692000  49.2264550 153.8393960 141.6352140
  51.9980210 151.6983320 141.9925840  52.0385550 151.3997190 142.9011070
  52.8525710 152.0990930 141.8333360  55.7758600 154.2978870 127.1529350
  56.1975020 154.1318740 127.9960740  55.9009440 153.4879100 126.6584490
  53.9386020 150.2775420 139.9600330  53.4082480 149.7866370 139.3323670
  54.6074090 150.7059620 139.4258260  58.2886240 153.3216480 124.4006450
  58.8091900 152.6065500 124.0347600  58.9354640 153.9602350 124.7006960
  63.3086250 152.0841040 141.7280670  63.8907020 151.3293360 141.6401150
  63.4848020 152.6148480 140.9512150  54.4258320 147.2437790 140.0397620
  54.3315190 146.6258540 139.3148490  53.8455710 147.9704080 139.8127530
  57.1919760 145.8011030 137.0725010  56.7437060 145.8235290 136.2270560
  56.5584960 145.4030050 137.6695310  59.9343210 152.4281540 139.0775290
  60.0539420 151.8322680 139.8170130  60.7937210 152.4651230 138.6576590
  62.2731110 152.9818730 137.6537800  61.7466330 153.5061350 137.0502940
  62.6162450 153.6146120 138.2847530  54.6717500 150.3712100 124.0987510
  54.4706560 149.5079460 124.4600850  54.5009550 150.2845460 123.1609110
  56.7011980 148.9702890 140.3351110  57.2911670 148.6618740 141.0228930
  55.8832220 148.4982640 140.4911010  61.5205410 148.5868700 140.5684130
  60.8320930 147.9250240 140.5034120  62.2411430 148.1406970 141.0132590
  62.1505810 145.1820330 126.6274390  62.4308100 144.3388230 126.9833810
  61.3771540 145.4143440 127.1413140  53.4700300 147.4712720 124.0865390
  53.7726200 147.4780150 123.1784540  54.2094890 147.1210580 124.5833050
  56.6885230 146.4147340 125.0721590  56.3407230 145.7371330 124.4924040
  56.8898000 145.9536850 125.8864980  50.0290870 152.9434990 131.4685960
  49.3739710 152.6746630 130.8245660  50.8668820 152.8339470 131.0187940
  62.9781310 147.7376280 125.6904450  63.3966190 147.5507260 124.8501110
  62.6717370 146.8855330 126.0007380  66.4771040 152.6500420 129.3880250
  66.1014640 151.8828350 128.9561540  65.7474160 153.0323120 129.8755180
  51.0666800 153.3287560 136.0089300  51.4339840 153.2414960 136.8885320
  50.4977620 152.5654110 135.9096160  65.8670660 151.7971940 139.0219770
  65.6356750 151.5684690 138.1217720  66.1275210 152.7171490 138.9764660
  50.6182800 150.2396650 139.9147720  49.7238850 150.2063410 140.2541430
  51.1580350 150.4383440 140.6798970  64.3058730 147.0228370 141.7999470
  65.1828910 147.0311770 142.1833470  64.3179570 146.2859210 141.1891820
  49.2428950 150.1533920 127.4111290  48.3393030 150.4164120 127.2362950
  49.7269570 150.4245090 126.6311250  65.7522000 150.8757910 132.6887490
  66.2759480 150.3820560 132.0577660  66.3381420 151.0108270 133.4335060
  65.9311720 150.9597780 136.2107040  64.9814430 150.9261320 136.3252030
  66.1124730 151.8697890 135.9756810  51.7856160 149.2099460 125.3205670
  52.4947860 148.7882680 124.8352950  51.0696100 149.2774690 124.6889020
  51.4330320 145.2638790 124.3608320  52.1558450 145.8047730 124.6789540
  51.7054840 144.9902210 123.4849860  65.2421970 150.1331260 128.6279900
  65.7381090 149.9002130 129.4128780  65.0438040 149.2943100 128.2117540
  51.1222510 144.5144980 134.2630940  51.7698700 143.9642360 133.8226100
  51.5424350 144.7688130 135.0846750  66.6709130 148.7692210 131.1617580
  66.5608410 148.6148250 132.0999850  67.4316720 148.2413150 130.9192990
  65.0174850 144.7086340 137.6200580  65.6547070 145.3220480 137.9859770
  65.1649740 144.7447000 136.6749810  67.5599400 146.6000130 124.4023720
  68.4848710 146.4681310 124.1942010  67.5375190 146.6792950 125.3560170
  67.6337890 147.3710790 127.0280430  66.8389390 147.3055910 127.5573340
  67.8381170 148.3061430 127.0165780  50.8754510 144.6700650 137.0056260
  50.5269330 145.1264470 137.7714440  50.5442210 143.7757780 137.0878690
  58.3879330 145.8612530 140.5275680  58.3268220 146.4534360 141.2771090
  59.3279710 145.7538490 140.3825940  61.0253890 145.5182590 140.1667970
  61.6394300 145.8361880 139.5049050  61.5703450 145.0331180 140.7863830
  51.5475150 144.1976850 140.2807030  52.0958140 144.0164900 139.5173140
  51.6130460 143.4070960 140.8163340  61.7661930 144.0814730 136.4937260
  60.8921770 144.4149840 136.2910190  61.6572680 143.6087910 137.3189130
  62.6733910 146.2885600 137.8778980  62.3447270 145.4737360 137.4980710
  63.6216210 146.2455410 137.7544670  59.5136750 144.9984570 135.4330170
  58.7308540 145.4730070 135.7126930  59.2199680 144.0939400 135.3243350
  64.0657820 145.7007670 133.4779260  64.5065910 145.6452770 132.6300860
  63.7965410 146.6165680 133.5489440  65.9296390 145.3322910 131.4888080
  65.8684790 144.3884130 131.3419100  66.7088420 145.4403000 132.0341540
  50.8577160 145.3032050 127.9543890  51.6156520 145.4160930 127.3807920
  50.3954330 146.1401250 127.9087320  57.3990970 147.4171320 130.9446200
  56.5865480 147.0428210 130.6042080  57.9032610 146.6616400 131.2467390
  61.9015950 144.0813770 132.1829270  62.5045320 144.6533980 132.6577790
  61.1608940 144.6453210 131.9603170  65.0450550 144.4835330 127.4569550
  65.2401180 145.3818780 127.7236980  64.2580420 144.2522410 127.9502500
  53.2302310 145.8296100 126.4945860  53.7595070 145.0425900 126.3653810
  53.8630630 146.5087290 126.7281390  55.4240150 145.5671240 129.5491250
  54.7942890 144.8658550 129.7161380  54.8845290 146.3275370 129.3324410
  55.5495710 144.8455220 141.9843740  55.2679980 145.3488820 141.2204560
  55.9315410 144.0476970 141.6185870  62.1511170 144.2608800 142.5624210
  62.0376620 144.5803410 143.4575730  62.9680910 144.6621310 142.2661490
  61.0569320 152.2801270 112.9258950  60.9763370 151.3655880 112.6550660
  60.6433740 152.7768340 112.2198660  59.1887360 154.0580290 114.8068220
  58.4129460 153.5780730 115.0966790  59.8400290 153.3785940 114.6324380
  51.6145140 149.3301990 109.4686370  50.7261840 149.6717960 109.3666250
  51.8986330 149.1302310 108.5767200  49.5778150 151.9307640 115.3526070
  50.1494260 151.1629840 115.3529710  49.5779690 152.2296400 114.4432680
  50.8203020 147.3392000 117.1395000  50.6405860 146.4417750 117.4197760
  50.4183100 147.8863870 117.8141950  59.6601520 149.5407860 115.0407310
  60.0366340 148.6679740 114.9280980  59.5621030 149.8766560 114.1497750
  53.7906530 147.9133490 110.5024750  53.8973280 148.8137220 110.8093510
  52.8798890 147.8651460 110.2119400  63.4425640 147.0358300 111.9735650
  64.2635260 146.5454870 112.0161130  63.4759720 147.6255960 112.7267490
  51.4389690 149.8352500 115.7477340  52.1199800 150.0990870 116.3664740
  51.1237740 148.9953370 116.0815350  55.6314260 150.8819860 114.8349930
  56.1392480 151.3800830 115.4754950  56.1627500 150.1055060 114.6589290
  67.7325190 149.0525050 118.5379280  67.0277360 149.4406760 118.0194390
  67.9983110 149.7475340 119.1400210  53.9150360 145.5218420 119.1013350
  53.9168800 146.0390810 118.2959250  53.0854670 145.0448600 119.0783280
  63.6787120 148.9758680 114.7463190  62.9742690 149.2643570 115.3266300
  64.0399280 149.7858790 114.3862750  53.5965690 147.2328380 117.1083800
  53.9382500 148.0770430 116.8137670  52.6581500 147.3812120 117.2249140
  66.7474040 148.4213470 115.1372400  65.7998950 148.4552450 115.2687830
  67.0724030 149.2352420 115.5221760  57.2793580 144.7210650 113.4328390
  57.5868560 144.1657540 112.7163890  56.3494280 144.8555110 113.2501380
  59.6674340 152.7859480 110.1688510  58.7403620 152.7196860 110.3976980
  59.8199160 153.7239610 110.0543750  59.6543420 149.0576480 107.1655670
  58.7147090 149.2190440 107.2508130  59.9726680 149.7762160 106.6191660
  63.1398190 150.5264320 118.0889570  62.7269370 151.3518030 118.3429560
  62.4074140 149.9409360 117.8965930  55.2730980 153.3124220 112.9508240
  54.8687980 152.6001470 112.4554140  55.3594100 152.9677460 113.8396280
  53.9859600 150.0867430 116.7307280  54.5374190 150.1962770 115.9560530
  54.5003110 150.4605030 117.4462510  61.8736330 153.5866590 107.6796510
  62.3129610 152.7489020 107.5334330  62.5864750 154.2195990 107.7660650
  65.4553470 144.8409400 105.9937550  65.1426130 144.9336230 106.8936620
  66.2165940 145.4190430 105.9434980  51.9735610 152.2069200 110.4514890
  51.8533210 152.9331290 109.8396160  51.6636500 151.4372110 109.9742800
  66.6654760 149.5780900 121.9711690  66.0499030 150.0860570 121.4427150
  66.3451180 148.6779230 121.9137630  54.4399270 145.5504270 113.8338560
  53.9967420 146.3313810 113.5023080  54.9984260 145.8734160 114.5409500
  58.7269080 148.4172790 119.4373880  58.2648450 148.6255810 120.2493820
  58.3247190 147.6032140 119.1344550  63.7273590 149.6381740 120.5670540
  62.8767180 149.3387490 120.8879610  63.5675380 149.8823750 119.6554360
  60.8223300 151.1383490 122.6669330  61.1476710 150.3047240 122.3271560
  61.6103630 151.6612010 122.8147660  57.5558090 145.1714970 108.7144390
  56.9312270 145.1674840 109.4397700  57.4688210 144.3045930 108.3180360
  56.4775170 146.0951600 115.6928160  56.7747500 147.0014430 115.6120180
  57.0260730 145.6070380 115.0787730  54.2313490 150.6737840 111.5619810
  54.0054410 150.4575010 112.4666430  53.4506020 151.1066300 111.2165780
  61.4611250 150.6801210 110.1610460  60.8620140 151.4037010 109.9774080
  62.0090860 150.6177990 109.3786910  56.6712700 151.5723420 122.2280080
  56.5756300 150.6318150 122.0780480  57.5144680 151.7938490 121.8328150
  60.0676120 149.3164750 112.1913740  60.4605690 149.6336950 111.3782430
  60.4292970 148.4376630 112.3058260  51.8023240 147.9837090 120.3813860
  51.4086630 148.8312300 120.5886640  51.1141640 147.3463460 120.5722500
  58.3768290 148.0672060 123.4510600  57.6866610 147.8744260 124.0856690
  59.1200590 148.3506700 123.9834900  49.1040290 145.9065550 114.4143940
  48.8153340 146.4768410 115.1268920  49.8486050 145.4270000 114.7775170
  49.2910520 149.8485670 105.6246660  49.2085190 150.7916430 105.7661650
  48.9393580 149.7060580 104.7459010  60.6531260 151.9070500 116.2864520
  59.9212380 152.4157310 116.6354620  60.2555600 151.0900480 115.9853300
  57.0908650 148.5824700 114.6917010  57.0944710 148.1414650 113.8421550
  57.9859770 148.9042030 114.7988830  52.9411030 148.4651190 113.6511220
  52.6011080 148.9426420 114.4078270  52.1788350 148.0116310 113.2912320
  57.1528800 149.5836780 107.6823770  57.2741620 149.5423260 108.6309590
  56.7677310 150.4460930 107.5270500  61.1157170 147.3604180 115.6987460
  61.1329910 147.8112830 116.5429310  60.8672750 146.4609820 115.9120900
  56.1650300 151.8937920 107.0807070  55.5967200 151.4456170 106.4542980
  56.8739300 152.2530700 106.5472220  64.5427920 144.7736360 121.5373840
  64.8673690 144.0426020 122.0631820  64.5784430 144.4550000 120.6354830
  57.3916620 152.6426480 116.4382420  57.7586750 152.1685050 117.1843760
  57.2021680 153.5168050 116.7790760  50.2557110 147.3870170 112.5675890
  49.9704030 147.0225840 113.4054510  50.1935970 146.6550630 111.9539030
  55.1815990 151.6835120 118.7566630  54.8773060 152.5627100 118.9816990
  56.1362450 151.7434910 118.7924070  59.9295700 146.2799430 109.2889260
  59.1160310 145.7812600 109.2134570  59.7357650 147.1197680 108.8725610
  62.6444090 150.6519080 107.5851420  63.5323710 150.9636310 107.4102760
  62.6149180 149.7791330 107.1932000  51.2379720 152.5237860 119.9037990
  50.8794660 153.1891710 120.4911330  50.9434280 151.6921410 120.2750610
  54.4392840 152.9822100 122.7877540  54.1392980 153.1279280 121.8905360
  55.2104080 152.4227390 122.6950930  64.9158360 151.9630920 107.0531280
  64.8322080 152.3945140 106.2027720  65.6352550 152.4229270 107.4858100
  49.7487770 152.5229120 106.5272590  50.6182620 152.8053920 106.8108510
  49.2578090 153.3364990 106.4121400  52.8134360 144.2539980 111.1203390
  52.6848990 144.2457880 112.0688310  51.9896380 144.5923070 110.7694400
  49.8128290 146.0131100 120.5810090  49.0986810 146.2128020 121.1862700
  50.2323330 145.2370670 120.9524890  61.3067070 148.5053410 118.3311540
  61.6747890 147.6848620 118.6591110  60.4465270 148.5655300 118.7467190
  64.6729100 147.4610350 109.1399100  64.0442260 147.5656020 108.4257330
  64.1781020 147.6807130 109.9292980  56.6413130 149.7396300 110.5556980
  55.9329280 150.2082640 110.9970590  56.9257610 149.0818310 111.1902170
  58.2669060 151.1593000 118.5549510  58.7654310 151.6338820 119.2201360
  58.4092010 150.2356520 118.7619540  60.6728560 146.4646960 111.9952770
  60.5496340 146.4833090 111.0462280  61.6213120 146.5125900 112.1151170
  54.8448150 148.0481380 107.9307690  55.6938680 148.4851530 107.8647880
  54.4779420 148.3601640 108.7579750  65.4735920 147.3760960 119.3977900
  64.9709520 148.1166360 119.7371710  66.2892580 147.7644960 119.0814690
  63.7657930 152.6194140 112.8439260  62.8248070 152.6344370 113.0186950
  64.0802000 151.8330100 113.2899560  53.7439570 154.3013740 106.4043220
  54.5102840 154.1895100 106.9668650  53.8214260 153.6051710 105.7519990
  52.4386330 151.7338810 107.0876110  52.5189920 150.7866320 107.1993510
  53.3306080 152.0645690 107.1936770  49.9657130 153.5553730 122.3232280
  50.4696150 152.9761010 122.8948510  49.2264550 153.8393960 122.8608650
  51.9980210 151.6983320 123.2182350  52.0385550 151.3997190 124.1267580
  52.8525710 152.0990930 123.0589870  55.7758600 154.2978870 108.3785860
  56.1975020 154.1318740 109.2217250  55.9009440 153.4879100 107.8841000
  53.9386020 150.2775420 121.1856840  53.4082480 149.7866370 120.5580180
  54.6074090 150.7059620 120.6514770  58.2886240 153.3216480 105.6262960
  58.8091900 152.6065500 105.2604110  58.9354640 153.9602350 105.9263470
  63.3086250 152.0841040 122.9537180  63.8907020 151.3293360 122.8657660
  63.4848020 152.6148480 122.1768660  54.4258320 147.2437790 121.2654130
  54.3315190 146.6258540 120.5405000  53.8455710 147.9704080 121.0384040
  57.1919760 145.8011030 118.2981520  56.7437060 145.8235290 117.4527070
  56.5584960 145.4030050 118.8951820  59.9343210 152.4281540 120.3031800
  60.0539420 151.8322680 121.0426640  60.7937210 152.4651230 119.8833100
  62.2731110 152.9818730 118.8794310  61.7466330 153.5061350 118.2759450
  62.6162450 153.6146120 119.5104040  54.6717500 150.3712100 105.3244020
  54.4706560 149.5079460 105.6857360  54.5009550 150.2845460 104.3865620
  56.7011980 148.9702890 121.5607620  57.2911670 148.6618740 122.2485440
  55.8832220 148.4982640 121.7167520  61.5205410 148.5868700 121.7940640
  60.8320930 147.9250240 121.7290630  62.2411430 148.1406970 122.2389100
  62.1505810 145.1820330 107.8530900  62.4308100 144.3388230 108.2090320
  61.3771540 145.4143440 108.3669650  53.4700300 147.4712720 105.3121900
  53.7726200 147.4780150 104.4041050  54.2094890 147.1210580 105.8089560
  56.6885230 146.4147340 106.2978100  56.3407230 145.7371330 105.7180550
  56.8898000 145.9536850 107.1121490  50.0290870 152.9434990 112.6942470
  49.3739710 152.6746630 112.0502170  50.8668820 152.8339470 112.2444450
  62.9781310 147.7376280 106.9160960  63.3966190 147.5507260 106.0757620
  62.6717370 146.8855330 107.2263890  66.4771040 152.6500420 110.6136760
  66.1014640 151.8828350 110.1818050  65.7474160 153.0323120 111.1011690
  51.0666800 153.3287560 117.2345810  51.4339840 153.2414960 118.1141830
  50.4977620 152.5654110 117.1352670  65.8670660 151.7971940 120.2476280
  65.6356750 151.5684690 119.3474230  66.1275210 152.7171490 120.2021170
  50.6182800 150.2396650 121.1404230  49.7238850 150.2063410 121.4797940
  51.1580350 150.4383440 121.9055480  64.3058730 147.0228370 123.0255980
  65.1828910 147.0311770 123.4089980  64.3179570 146.2859210 122.4148330
  49.2428950 150.1533920 108.6367800  48.3393030 150.4164120 108.4619460
  49.7269570 150.4245090 107.8567760  65.7522000 150.8757910 113.9144000
  66.2759480 150.3820560 113.2834170  66.3381420 151.0108270 114.6591570
  65.9311720 150.9597780 117.4363550  64.9814430 150.9261320 117.5508540
  66.1124730 151.8697890 117.2013320  51.7856160 149.2099460 106.5462180
  52.4947860 148.7882680 106.0609460  51.0696100 149.2774690 105.9145530
  51.4330320 145.2638790 105.5864830  52.1558450 145.8047730 105.9046050
  51.7054840 144.9902210 104.7106370  65.2421970 150.1331260 109.8536410
  65.7381090 149.9002130 110.6385290  65.0438040 149.2943100 109.4374050
  51.1222510 144.5144980 115.4887450  51.7698700 143.9642360 115.0482610
  51.5424350 144.7688130 116.3103260  66.6709130 148.7692210 112.3874090
  66.5608410 148.6148250 113.3256360  67.4316720 148.2413150 112.1449500
  65.0174850 144.7086340 118.8457090  65.6547070 145.3220480 119.2116280
  65.1649740 144.7447000 117.9006320  67.5599400 146.6000130 105.6280230
  68.4848710 146.4681310 105.4198520  67.5375190 146.6792950 106.5816680
  67.6337890 147.3710790 108.2536940  66.8389390 147.3055910 108.7829850
  67.8381170 148.3061430 108.2422290  50.8754510 144.6700650 118.2312770
  50.5269330 145.1264470 118.9970950  50.5442210 143.7757780 118.3135200
  58.3879330 145.8612530 121.7532190  58.3268220 146.4534360 122.5027600
  59.3279710 145.7538490 121.6082450  61.0253890 145.5182590 121.3924480
  61.6394300 145.8361880 120.7305560  61.5703450 145.0331180 122.0120340
  51.5475150 144.1976850 121.5063540  52.0958140 144.0164900 120.7429650
  51.6130460 143.4070960 122.0419850  61.7661930 144.0814730 117.7193770
  60.8921770 144.4149840 117.5166700  61.6572680 143.6087910 118.5445640
  62.6733910 146.2885600 119.1035490  62.3447270 145.4737360 118.7237220
  63.6216210 146.2455410 118.9801180  59.5136750 144.9984570 116.6586680
  58.7308540 145.4730070 116.9383440  59.2199680 144.0939400 116.5499860
  64.0657820 145.7007670 114.7035770  64.5065910 145.6452770 113.8557370
  63.7965410 146.6165680 114.7745950  65.9296390 145.3322910 112.7144590
  65.8684790 144.3884130 112.5675610  66.7088420 145.4403000 113.2598050
  50.8577160 145.3032050 109.1800400  51.6156520 145.4160930 108.6064430
  50.3954330 146.1401250 109.1343830  57.3990970 147.4171320 112.1702710
  56.5865480 147.0428210 111.8298590  57.9032610 146.6616400 112.4723900
  61.9015950 144.0813770 113.4085780  62.5045320 144.6533980 113.8834300
  61.1608940 144.6453210 113.1859680  65.0450550 144.4835330 108.6826060
  65.2401180 145.3818780 108.9493490  64.2580420 144.2522410 109.1759010
  53.2302310 145.8296100 107.7202370  53.7595070 145.0425900 107.5910320
  53.8630630 146.5087290 107.9537900  55.4240150 145.5671240 110.7747760
  54.7942890 144.8658550 110.9417890  54.8845290 146.3275370 110.5580920
  55.5495710 144.8455220 123.2100250  55.2679980 145.3488820 122.4461070
  55.9315410 144.0476970 122.8442380  62.1511170 144.2608800 123.7880720
  62.0376620 144.5803410 124.6832240  62.9680910 144.6621310 123.4918000
  61.0569320 152.2801270  94.1515460  60.9763370 151.3655880  93.8807170
  60.6433740 152.7768340  93.4455170  59.1887360 154.0580290  96.0324730
  58.4129460 153.5780730  96.3223300  59.8400290 153.3785940  95.8580890
  51.6145140 149.3301990  90.6942880  50.7261840 149.6717960  90.5922760
  51.8986330 149.1302310  89.8023710  49.5778150 151.9307640  96.5782580
  50.1494260 151.1629840  96.5786220  49.5779690 152.2296400  95.6689190
  50.8203020 147.3392000  98.3651510  50.6405860 146.4417750  98.6454270
  50.4183100 147.8863870  99.0398460  59.6601520 149.5407860  96.2663820
  60.0366340 148.6679740  96.1537490  59.5621030 149.8766560  95.3754260
  53.7906530 147.9133490  91.7281260  53.8973280 148.8137220  92.0350020
  52.8798890 147.8651460  91.4375910  63.4425640 147.0358300  93.1992160
  64.2635260 146.5454870  93.2417640  63.4759720 147.6255960  93.9524000
  51.4389690 149.8352500  96.9733850  52.1199800 150.0990870  97.5921250
  51.1237740 148.9953370  97.3071860  55.6314260 150.8819860  96.0606440
  56.1392480 151.3800830  96.7011460  56.1627500 150.1055060  95.8845800
  67.7325190 149.0525050  99.7635790  67.0277360 149.4406760  99.2450900
  67.9983110 149.7475340 100.3656720  53.9150360 145.5218420 100.3269860
  53.9168800 146.0390810  99.5215760  53.0854670 145.0448600 100.3039790
  63.6787120 148.9758680  95.9719700  62.9742690 149.2643570  96.5522810
  64.0399280 149.7858790  95.6119260  53.5965690 147.2328380  98.3340310
  53.9382500 148.0770430  98.0394180  52.6581500 147.3812120  98.4505650
  66.7474040 148.4213470  96.3628910  65.7998950 148.4552450  96.4944340
  67.0724030 149.2352420  96.7478270  57.2793580 144.7210650  94.6584900
  57.5868560 144.1657540  93.9420400  56.3494280 144.8555110  94.4757890
  59.6674340 152.7859480  91.3945020  58.7403620 152.7196860  91.6233490
  59.8199160 153.7239610  91.2800260  59.6543420 149.0576480  88.3912180
  58.7147090 149.2190440  88.4764640  59.9726680 149.7762160  87.8448170
  63.1398190 150.5264320  99.3146080  62.7269370 151.3518030  99.5686070
  62.4074140 149.9409360  99.1222440  55.2730980 153.3124220  94.1764750
  54.8687980 152.6001470  93.6810650  55.3594100 152.9677460  95.0652790
  53.9859600 150.0867430  97.9563790  54.5374190 150.1962770  97.1817040
  54.5003110 150.4605030  98.6719020  61.8736330 153.5866590  88.9053020
  62.3129610 152.7489020  88.7590840  62.5864750 154.2195990  88.9917160
  65.4553470 144.8409400  87.2194060  65.1426130 144.9336230  88.1193130
  66.2165940 145.4190430  87.1691490  51.9735610 152.2069200  91.6771400
  51.8533210 152.9331290  91.0652670  51.6636500 151.4372110  91.1999310
  66.6654760 149.5780900 103.1968200  66.0499030 150.0860570 102.6683660
  66.3451180 148.6779230 103.1394140  54.4399270 145.5504270  95.0595070
  53.9967420 146.3313810  94.7279590  54.9984260 145.8734160  95.7666010
  58.7269080 148.4172790 100.6630390  58.2648450 148.6255810 101.4750330
  58.3247190 147.6032140 100.3601060  63.7273590 149.6381740 101.7927050
  62.8767180 149.3387490 102.1136120  63.5675380 149.8823750 100.8810870
  60.8223300 151.1383490 103.8925840  61.1476710 150.3047240 103.5528070
  61.6103630 151.6612010 104.0404170  57.5558090 145.1714970  89.9400900
  56.9312270 145.1674840  90.6654210  57.4688210 144.3045930  89.5436870
  56.4775170 146.0951600  96.9184670  56.7747500 147.0014430  96.8376690
  57.0260730 145.6070380  96.3044240  54.2313490 150.6737840  92.7876320
  54.0054410 150.4575010  93.6922940  53.4506020 151.1066300  92.4422290
  61.4611250 150.6801210  91.3866970  60.8620140 151.4037010  91.2030590
  62.0090860 150.6177990  90.6043420  56.6712700 151.5723420 103.4536590
  56.5756300 150.6318150 103.3036990  57.5144680 151.7938490 103.0584660
  60.0676120 149.3164750  93.4170250  60.4605690 149.6336950  92.6038940
  60.4292970 148.4376630  93.5314770  51.8023240 147.9837090 101.6070370
  51.4086630 148.8312300 101.8143150  51.1141640 147.3463460 101.7979010
  58.3768290 148.0672060 104.6767110  57.6866610 147.8744260 105.3113200
  59.1200590 148.3506700 105.2091410  49.1040290 145.9065550  95.6400450
  48.8153340 146.4768410  96.3525430  49.8486050 145.4270000  96.0031680
  49.2910520 149.8485670  86.8503170  49.2085190 150.7916430  86.9918160
  48.9393580 149.7060580  85.9715520  60.6531260 151.9070500  97.5121030
  59.9212380 152.4157310  97.8611130  60.2555600 151.0900480  97.2109810
  57.0908650 148.5824700  95.9173520  57.0944710 148.1414650  95.0678060
  57.9859770 148.9042030  96.0245340  52.9411030 148.4651190  94.8767730
  52.6011080 148.9426420  95.6334780  52.1788350 148.0116310  94.5168830
  57.1528800 149.5836780  88.9080280  57.2741620 149.5423260  89.8566100
  56.7677310 150.4460930  88.7527010  61.1157170 147.3604180  96.9243970
  61.1329910 147.8112830  97.7685820  60.8672750 146.4609820  97.1377410
  56.1650300 151.8937920  88.3063580  55.5967200 151.4456170  87.6799490
  56.8739300 152.2530700  87.7728730  64.5427920 144.7736360 102.7630350
  64.8673690 144.0426020 103.2888330  64.5784430 144.4550000 101.8611340
  57.3916620 152.6426480  97.6638930  57.7586750 152.1685050  98.4100270
  57.2021680 153.5168050  98.0047270  50.2557110 147.3870170  93.7932400
  49.9704030 147.0225840  94.6311020  50.1935970 146.6550630  93.1795540
  55.1815990 151.6835120  99.9823140  54.8773060 152.5627100 100.2073500
  56.1362450 151.7434910 100.0180580  59.9295700 146.2799430  90.5145770
  59.1160310 145.7812600  90.4391080  59.7357650 147.1197680  90.0982120
  62.6444090 150.6519080  88.8107930  63.5323710 150.9636310  88.6359270
  62.6149180 149.7791330  88.4188510  51.2379720 152.5237860 101.1294500
  50.8794660 153.1891710 101.7167840  50.9434280 151.6921410 101.5007120
  54.4392840 152.9822100 104.0134050  54.1392980 153.1279280 103.1161870
  55.2104080 152.4227390 103.9207440  64.9158360 151.9630920  88.2787790
  64.8322080 152.3945140  87.4284230  65.6352550 152.4229270  88.7114610
  49.7487770 152.5229120  87.7529100  50.6182620 152.8053920  88.0365020
  49.2578090 153.3364990  87.6377910  52.8134360 144.2539980  92.3459900
  52.6848990 144.2457880  93.2944820  51.9896380 144.5923070  91.9950910
  49.8128290 146.0131100 101.8066600  49.0986810 146.2128020 102.4119210
  50.2323330 145.2370670 102.1781400  61.3067070 148.5053410  99.5568050
  61.6747890 147.6848620  99.8847620  60.4465270 148.5655300  99.9723700
  64.6729100 147.4610350  90.3655610  64.0442260 147.5656020  89.6513840
  64.1781020 147.6807130  91.1549490  56.6413130 149.7396300  91.7813490
  55.9329280 150.2082640  92.2227100  56.9257610 149.0818310  92.4158680
  58.2669060 151.1593000  99.7806020  58.7654310 151.6338820 100.4457870
  58.4092010 150.2356520  99.9876050  60.6728560 146.4646960  93.2209280
  60.5496340 146.4833090  92.2718790  61.6213120 146.5125900  93.3407680
  54.8448150 148.0481380  89.1564200  55.6938680 148.4851530  89.0904390
  54.4779420 148.3601640  89.9836260  65.4735920 147.3760960 100.6234410
  64.9709520 148.1166360 100.9628220  66.2892580 147.7644960 100.3071200
  63.7657930 152.6194140  94.0695770  62.8248070 152.6344370  94.2443460
  64.0802000 151.8330100  94.5156070  53.7439570 154.3013740  87.6299730
  54.5102840 154.1895100  88.1925160  53.8214260 153.6051710  86.9776500
  52.4386330 151.7338810  88.3132620  52.5189920 150.7866320  88.4250020
  53.3306080 152.0645690  88.4193280  49.9657130 153.5553730 103.5488790
  50.4696150 152.9761010 104.1205020  49.2264550 153.8393960 104.0865160
  51.9980210 151.6983320 104.4438860  52.0385550 151.3997190 105.3524090
  52.8525710 152.0990930 104.2846380  55.7758600 154.2978870  89.6042370
  56.1975020 154.1318740  90.4473760  55.9009440 153.4879100  89.1097510
  53.9386020 150.2775420 102.4113350  53.4082480 149.7866370 101.7836690
  54.6074090 150.7059620 101.8771280  58.2886240 153.3216480  86.8519470
  58.8091900 152.6065500  86.4860620  58.9354640 153.9602350  87.1519980
  63.3086250 152.0841040 104.1793690  63.8907020 151.3293360 104.0914170
  63.4848020 152.6148480 103.4025170  54.4258320 147.2437790 102.4910640
  54.3315190 146.6258540 101.7661510  53.8455710 147.9704080 102.2640550
  57.1919760 145.8011030  99.5238030  56.7437060 145.8235290  98.6783580
  56.5584960 145.4030050 100.1208330  59.9343210 152.4281540 101.5288310
  60.0539420 151.8322680 102.2683150  60.7937210 152.4651230 101.1089610
  62.2731110 152.9818730 100.1050820  61.7466330 153.5061350  99.5015960
  62.6162450 153.6146120 100.7360550  54.6717500 150.3712100  86.5500530
  54.4706560 149.5079460  86.9113870  54.5009550 150.2845460  85.6122130
  56.7011980 148.9702890 102.7864130  57.2911670 148.6618740 103.4741950
  55.8832220 148.4982640 102.9424030  61.5205410 148.5868700 103.0197150
  60.8320930 147.9250240 102.9547140  62.2411430 148.1406970 103.4645610
  62.1505810 145.1820330  89.0787410  62.4308100 144.3388230  89.4346830
  61.3771540 145.4143440  89.5926160  53.4700300 147.4712720  86.5378410
  53.7726200 147.4780150  85.6297560  54.2094890 147.1210580  87.0346070
  56.6885230 146.4147340  87.5234610  56.3407230 145.7371330  86.9437060
  56.8898000 145.9536850  88.3378000  50.0290870 152.9434990  93.9198980
  49.3739710 152.6746630  93.2758680  50.8668820 152.8339470  93.4700960
  62.9781310 147.7376280  88.1417470  63.3966190 147.5507260  87.3014130
  62.6717370 146.8855330  88.4520400  66.4771040 152.6500420  91.8393270
  66.1014640 151.8828350  91.4074560  65.7474160 153.0323120  92.3268200
  51.0666800 153.3287560  98.4602320  51.4339840 153.2414960  99.3398340
  50.4977620 152.5654110  98.3609180  65.8670660 151.7971940 101.4732790
  65.6356750 151.5684690 100.5730740  66.1275210 152.7171490 101.4277680
  50.6182800 150.2396650 102.3660740  49.7238850 150.2063410 102.7054450
  51.1580350 150.4383440 103.1311990  64.3058730 147.0228370 104.2512490
  65.1828910 147.0311770 104.6346490  64.3179570 146.2859210 103.6404840
  49.2428950 150.1533920  89.8624310  48.3393030 150.4164120  89.6875970
  49.7269570 150.4245090  89.0824270  65.7522000 150.8757910  95.1400510
  66.2759480 150.3820560  94.5090680  66.3381420 151.0108270  95.8848080
  65.9311720 150.9597780  98.6620060  64.9814430 150.9261320  98.7765050
  66.1124730 151.8697890  98.4269830  51.7856160 149.2099460  87.7718690
  52.4947860 148.7882680  87.2865970  51.0696100 149.2774690  87.1402040
  51.4330320 145.2638790  86.8121340  52.1558450 145.8047730  87.1302560
  51.7054840 144.9902210  85.9362880  65.2421970 150.1331260  91.0792920
  65.7381090 149.9002130  91.8641800  65.0438040 149.2943100  90.6630560
  51.1222510 144.5144980  96.7143960  51.7698700 143.9642360  96.2739120
  51.5424350 144.7688130  97.5359770  66.6709130 148.7692210  93.6130600
  66.5608410 148.6148250  94.5512870  67.4316720 148.2413150  93.3706010
  65.0174850 144.7086340 100.0713600  65.6547070 145.3220480 100.4372790
  65.1649740 144.7447000  99.1262830  67.5599400 146.6000130  86.8536740
  68.4848710 146.4681310  86.6455030  67.5375190 146.6792950  87.8073190
  67.6337890 147.3710790  89.4793450  66.8389390 147.3055910  90.0086360
  67.8381170 148.3061430  89.4678800  50.8754510 144.6700650  99.4569280
  50.5269330 145.1264470 100.2227460  50.5442210 143.7757780  99.5391710
  58.3879330 145.8612530 102.9788700  58.3268220 146.4534360 103.7284110
  59.3279710 145.7538490 102.8338960  61.0253890 145.5182590 102.6180990
  61.6394300 145.8361880 101.9562070  61.5703450 145.0331180 103.2376850
  51.5475150 144.1976850 102.7320050  52.0958140 144.0164900 101.9686160
  51.6130460 143.4070960 103.2676360  61.7661930 144.0814730  98.9450280
  60.8921770 144.4149840  98.7423210  61.6572680 143.6087910  99.7702150
  62.6733910 146.2885600 100.3292000  62.3447270 145.4737360  99.9493730
  63.6216210 146.2455410 100.2057690  59.5136750 144.9984570  97.8843190
  58.7308540 145.4730070  98.1639950  59.2199680 144.0939400  97.7756370
  64.0657820 145.7007670  95.9292280  64.5065910 145.6452770  95.0813880
  63.7965410 146.6165680  96.0002460  65.9296390 145.3322910  93.9401100
  65.8684790 144.3884130  93.7932120  66.7088420 145.4403000  94.4854560
  50.8577160 145.3032050  90.4056910  51.6156520 145.4160930  89.8320940
  50.3954330 146.1401250  90.3600340  57.3990970 147.4171320  93.3959220
  56.5865480 147.0428210  93.0555100  57.9032610 146.6616400  93.6980410
  61.9015950 144.0813770  94.6342290  62.5045320 144.6533980  95.1090810
  61.1608940 144.6453210  94.4116190  65.0450550 144.4835330  89.9082570
  65.2401180 145.3818780  90.1750000  64.2580420 144.2522410  90.4015520
  53.2302310 145.8296100  88.9458880  53.7595070 145.0425900  88.8166830
  53.8630630 146.5087290  89.1794410  55.4240150 145.5671240  92.0004270
  54.7942890 144.8658550  92.1674400  54.8845290 146.3275370  91.7837430
  55.5495710 144.8455220 104.4356760  55.2679980 145.3488820 103.6717580
  55.9315410 144.0476970 104.0698890  62.1511170 144.2608800 105.0137230
  62.0376620 144.5803410 105.9088750  62.9680910 144.6621310 104.7174510
  61.0569320 152.2801270  75.3771970  60.9763370 151.3655880  75.1063680
  60.6433740 152.7768340  74.6711680  59.1887360 154.0580290  77.2581240
  58.4129460 153.5780730  77.5479810  59.8400290 153.3785940  77.0837400
  51.6145140 149.3301990  71.9199390  50.7261840 149.6717960  71.8179270
  51.8986330 149.1302310  71.0280220  49.5778150 151.9307640  77.8039090
  50.1494260 151.1629840  77.8042730  49.5779690 152.2296400  76.8945700
  50.8203020 147.3392000  79.5908020  50.6405860 146.4417750  79.8710780
  50.4183100 147.8863870  80.2654970  59.6601520 149.5407860  77.4920330
  60.0366340 148.6679740  77.3794000  59.5621030 149.8766560  76.6010770
  53.7906530 147.9133490  72.9537770  53.8973280 148.8137220  73.2606530
  52.8798890 147.8651460  72.6632420  63.4425640 147.0358300  74.4248670
  64.2635260 146.5454870  74.4674150  63.4759720 147.6255960  75.1780510
  51.4389690 149.8352500  78.1990360  52.1199800 150.0990870  78.8177760
  51.1237740 148.9953370  78.5328370  55.6314260 150.8819860  77.2862950
  56.1392480 151.3800830  77.9267970  56.1627500 150.1055060  77.1102310
  67.7325190 149.0525050  80.9892300  67.0277360 149.4406760  80.4707410
  67.9983110 149.7475340  81.5913230  53.9150360 145.5218420  81.5526370
  53.9168800 146.0390810  80.7472270  53.0854670 145.0448600  81.5296300
  63.6787120 148.9758680  77.1976210  62.9742690 149.2643570  77.7779320
  64.0399280 149.7858790  76.8375770  53.5965690 147.2328380  79.5596820
  53.9382500 148.0770430  79.2650690  52.6581500 147.3812120  79.6762160
  66.7474040 148.4213470  77.5885420  65.7998950 148.4552450  77.7200850
  67.0724030 149.2352420  77.9734780  57.2793580 144.7210650  75.8841410
  57.5868560 144.1657540  75.1676910  56.3494280 144.8555110  75.7014400
  59.6674340 152.7859480  72.6201530  58.7403620 152.7196860  72.8490000
  59.8199160 153.7239610  72.5056770  59.6543420 149.0576480  69.6168690
  58.7147090 149.2190440  69.7021150  59.9726680 149.7762160  69.0704680
  63.1398190 150.5264320  80.5402590  62.7269370 151.3518030  80.7942580
  62.4074140 149.9409360  80.3478950  55.2730980 153.3124220  75.4021260
  54.8687980 152.6001470  74.9067160  55.3594100 152.9677460  76.2909300
  53.9859600 150.0867430  79.1820300  54.5374190 150.1962770  78.4073550
  54.5003110 150.4605030  79.8975530  61.8736330 153.5866590  70.1309530
  62.3129610 152.7489020  69.9847350  62.5864750 154.2195990  70.2173670
  65.4553470 144.8409400  68.4450570  65.1426130 144.9336230  69.3449640
  66.2165940 145.4190430  68.3948000  51.9735610 152.2069200  72.9027910
  51.8533210 152.9331290  72.2909180  51.6636500 151.4372110  72.4255820
  66.6654760 149.5780900  84.4224710  66.0499030 150.0860570  83.8940170
  66.3451180 148.6779230  84.3650650  54.4399270 145.5504270  76.2851580
  53.9967420 146.3313810  75.9536100  54.9984260 145.8734160  76.9922520
  58.7269080 148.4172790  81.8886900  58.2648450 148.6255810  82.7006840
  58.3247190 147.6032140  81.5857570  63.7273590 149.6381740  83.0183560
  62.8767180 149.3387490  83.3392630  63.5675380 149.8823750  82.1067380
  60.8223300 151.1383490  85.1182350  61.1476710 150.3047240  84.7784580
  61.6103630 151.6612010  85.2660680  57.5558090 145.1714970  71.1657410
  56.9312270 145.1674840  71.8910720  57.4688210 144.3045930  70.7693380
  56.4775170 146.0951600  78.1441180  56.7747500 147.0014430  78.0633200
  57.0260730 145.6070380  77.5300750  54.2313490 150.6737840  74.0132830
  54.0054410 150.4575010  74.9179450  53.4506020 151.1066300  73.6678800
  61.4611250 150.6801210  72.6123480  60.8620140 151.4037010  72.4287100
  62.0090860 150.6177990  71.8299930  56.6712700 151.5723420  84.6793100
  56.5756300 150.6318150  84.5293500  57.5144680 151.7938490  84.2841170
  60.0676120 149.3164750  74.6426760  60.4605690 149.6336950  73.8295450
  60.4292970 148.4376630  74.7571280  51.8023240 147.9837090  82.8326880
  51.4086630 148.8312300  83.0399660  51.1141640 147.3463460  83.0235520
  58.3768290 148.0672060  85.9023620  57.6866610 147.8744260  86.5369710
  59.1200590 148.3506700  86.4347920  49.1040290 145.9065550  76.8656960
  48.8153340 146.4768410  77.5781940  49.8486050 145.4270000  77.2288190
  49.2910520 149.8485670  68.0759680  49.2085190 150.7916430  68.2174670
  48.9393580 149.7060580  67.1972030  60.6531260 151.9070500  78.7377540
  59.9212380 152.4157310  79.0867640  60.2555600 151.0900480  78.4366320
  57.0908650 148.5824700  77.1430030  57.0944710 148.1414650  76.2934570
  57.9859770 148.9042030  77.2501850  52.9411030 148.4651190  76.1024240
  52.6011080 148.9426420  76.8591290  52.1788350 148.0116310  75.7425340
  57.1528800 149.5836780  70.1336790  57.2741620 149.5423260  71.0822610
  56.7677310 150.4460930  69.9783520  61.1157170 147.3604180  78.1500480
  61.1329910 147.8112830  78.9942330  60.8672750 146.4609820  78.3633920
  56.1650300 151.8937920  69.5320090  55.5967200 151.4456170  68.9056000
  56.8739300 152.2530700  68.9985240  64.5427920 144.7736360  83.9886860
  64.8673690 144.0426020  84.5144840  64.5784430 144.4550000  83.0867850
  57.3916620 152.6426480  78.8895440  57.7586750 152.1685050  79.6356780
  57.2021680 153.5168050  79.2303780  50.2557110 147.3870170  75.0188910
  49.9704030 147.0225840  75.8567530  50.1935970 146.6550630  74.4052050
  55.1815990 151.6835120  81.2079650  54.8773060 152.5627100  81.4330010
  56.1362450 151.7434910  81.2437090  59.9295700 146.2799430  71.7402280
  59.1160310 145.7812600  71.6647590  59.7357650 147.1197680  71.3238630
  62.6444090 150.6519080  70.0364440  63.5323710 150.9636310  69.8615780
  62.6149180 149.7791330  69.6445020  51.2379720 152.5237860  82.3551010
  50.8794660 153.1891710  82.9424350  50.9434280 151.6921410  82.7263630
  54.4392840 152.9822100  85.2390560  54.1392980 153.1279280  84.3418380
  55.2104080 152.4227390  85.1463950  64.9158360 151.9630920  69.5044300
  64.8322080 152.3945140  68.6540740  65.6352550 152.4229270  69.9371120
  49.7487770 152.5229120  68.9785610  50.6182620 152.8053920  69.2621530
  49.2578090 153.3364990  68.8634420  52.8134360 144.2539980  73.5716410
  52.6848990 144.2457880  74.5201330  51.9896380 144.5923070  73.2207420
  49.8128290 146.0131100  83.0323110  49.0986810 146.2128020  83.6375720
  50.2323330 145.2370670  83.4037910  61.3067070 148.5053410  80.7824560
  61.6747890 147.6848620  81.1104130  60.4465270 148.5655300  81.1980210
  64.6729100 147.4610350  71.5912120  64.0442260 147.5656020  70.8770350
  64.1781020 147.6807130  72.3806000  56.6413130 149.7396300  73.0070000
  55.9329280 150.2082640  73.4483610  56.9257610 149.0818310  73.6415190
  58.2669060 151.1593000  81.0062530  58.7654310 151.6338820  81.6714380
  58.4092010 150.2356520  81.2132560  60.6728560 146.4646960  74.4465790
  60.5496340 146.4833090  73.4975300  61.6213120 146.5125900  74.5664190
  54.8448150 148.0481380  70.3820710  55.6938680 148.4851530  70.3160900
  54.4779420 148.3601640  71.2092770  65.4735920 147.3760960  81.8490920
  64.9709520 148.1166360  82.1884730  66.2892580 147.7644960  81.5327710
  63.7657930 152.6194140  75.2952280  62.8248070 152.6344370  75.4699970
  64.0802000 151.8330100  75.7412580  53.7439570 154.3013740  68.8556240
  54.5102840 154.1895100  69.4181670  53.8214260 153.6051710  68.2033010
  52.4386330 151.7338810  69.5389130  52.5189920 150.7866320  69.6506530
  53.3306080 152.0645690  69.6449790  49.9657130 153.5553730  84.7745300
  50.4696150 152.9761010  85.3461530  49.2264550 153.8393960  85.3121670
  51.9980210 151.6983320  85.6695370  52.0385550 151.3997190  86.5780600
  52.8525710 152.0990930  85.5102890  55.7758600 154.2978870  70.8298880
  56.1975020 154.1318740  71.6730270  55.9009440 153.4879100  70.3354020
  53.9386020 150.2775420  83.6369860  53.4082480 149.7866370  83.0093200
  54.6074090 150.7059620  83.1027790  58.2886240 153.3216480  68.0775980
  58.8091900 152.6065500  67.7117130  58.9354640 153.9602350  68.3776490
  63.3086250 152.0841040  85.4050200  63.8907020 151.3293360  85.3170680
  63.4848020 152.6148480  84.6281680  54.4258320 147.2437790  83.7167150
  54.3315190 146.6258540  82.9918020  53.8455710 147.9704080  83.4897060
  57.1919760 145.8011030  80.7494540  56.7437060 145.8235290  79.9040090
  56.5584960 145.4030050  81.3464840  59.9343210 152.4281540  82.7544820
  60.0539420 151.8322680  83.4939660  60.7937210 152.4651230  82.3346120
  62.2731110 152.9818730  81.3307330  61.7466330 153.5061350  80.7272470
  62.6162450 153.6146120  81.9617060  54.6717500 150.3712100  67.7757040
  54.4706560 149.5079460  68.1370380  54.5009550 150.2845460  66.8378640
  56.7011980 148.9702890  84.0120640  57.2911670 148.6618740  84.6998460
  55.8832220 148.4982640  84.1680540  61.5205410 148.5868700  84.2453660
  60.8320930 147.9250240  84.1803650  62.2411430 148.1406970  84.6902120
  62.1505810 145.1820330  70.3043920  62.4308100 144.3388230  70.6603340
  61.3771540 145.4143440  70.8182670  53.4700300 147.4712720  67.7634920
  53.7726200 147.4780150  66.8554070  54.2094890 147.1210580  68.2602580
  56.6885230 146.4147340  68.7491120  56.3407230 145.7371330  68.1693570
  56.8898000 145.9536850  69.5634510  50.0290870 152.9434990  75.1455490
  49.3739710 152.6746630  74.5015190  50.8668820 152.8339470  74.6957470
  62.9781310 147.7376280  69.3673980  63.3966190 147.5507260  68.5270640
  62.6717370 146.8855330  69.6776910  66.4771040 152.6500420  73.0649780
  66.1014640 151.8828350  72.6331070  65.7474160 153.0323120  73.5524710
  51.0666800 153.3287560  79.6858830  51.4339840 153.2414960  80.5654850
  50.4977620 152.5654110  79.5865690  65.8670660 151.7971940  82.6989300
  65.6356750 151.5684690  81.7987250  66.1275210 152.7171490  82.6534190
  50.6182800 150.2396650  83.5917250  49.7238850 150.2063410  83.9310960
  51.1580350 150.4383440  84.3568500  64.3058730 147.0228370  85.4769000
  65.1828910 147.0311770  85.8603000  64.3179570 146.2859210  84.8661350
  49.2428950 150.1533920  71.0880820  48.3393030 150.4164120  70.9132480
  49.7269570 150.4245090  70.3080780  65.7522000 150.8757910  76.3657020
  66.2759480 150.3820560  75.7347190  66.3381420 151.0108270  77.1104590
  65.9311720 150.9597780  79.8876570  64.9814430 150.9261320  80.0021560
  66.1124730 151.8697890  79.6526340  51.7856160 149.2099460  68.9975200
  52.4947860 148.7882680  68.5122480  51.0696100 149.2774690  68.3658550
  51.4330320 145.2638790  68.0377850  52.1558450 145.8047730  68.3559070
  51.7054840 144.9902210  67.1619390  65.2421970 150.1331260  72.3049430
  65.7381090 149.9002130  73.0898310  65.0438040 149.2943100  71.8887070
  51.1222510 144.5144980  77.9400470  51.7698700 143.9642360  77.4995630
  51.5424350 144.7688130  78.7616280  66.6709130 148.7692210  74.8387110
  66.5608410 148.6148250  75.7769380  67.4316720 148.2413150  74.5962520
  65.0174850 144.7086340  81.2970110  65.6547070 145.3220480  81.6629300
  65.1649740 144.7447000  80.3519340  67.5599400 146.6000130  68.0793250
  68.4848710 146.4681310  67.8711540  67.5375190 146.6792950  69.0329700
  67.6337890 147.3710790  70.7049960  66.8389390 147.3055910  71.2342870
  67.8381170 148.3061430  70.6935310  50.8754510 144.6700650  80.6825790
  50.5269330 145.1264470  81.4483970  50.5442210 143.7757780  80.7648220
  58.3879330 145.8612530  84.2045210  58.3268220 146.4534360  84.9540620
  59.3279710 145.7538490  84.0595470  61.0253890 145.5182590  83.8437500
  61.6394300 145.8361880  83.1818580  61.5703450 145.0331180  84.4633360
  51.5475150 144.1976850  83.9576560  52.0958140 144.0164900  83.1942670
  51.6130460 143.4070960  84.4932870  61.7661930 144.0814730  80.1706790
  60.8921770 144.4149840  79.9679720  61.6572680 143.6087910  80.9958660
  62.6733910 146.2885600  81.5548510  62.3447270 145.4737360  81.1750240
  63.6216210 146.2455410  81.4314200  59.5136750 144.9984570  79.1099700
  58.7308540 145.4730070  79.3896460  59.2199680 144.0939400  79.0012880
  64.0657820 145.7007670  77.1548790  64.5065910 145.6452770  76.3070390
  63.7965410 146.6165680  77.2258970  65.9296390 145.3322910  75.1657610
  65.8684790 144.3884130  75.0188630  66.7088420 145.4403000  75.7111070
  50.8577160 145.3032050  71.6313420  51.6156520 145.4160930  71.0577450
  50.3954330 146.1401250  71.5856850  57.3990970 147.4171320  74.6215730
  56.5865480 147.0428210  74.2811610  57.9032610 146.6616400  74.9236920
  61.9015950 144.0813770  75.8598800  62.5045320 144.6533980  76.3347320
  61.1608940 144.6453210  75.6372700  65.0450550 144.4835330  71.1339080
  65.2401180 145.3818780  71.4006510  64.2580420 144.2522410  71.6272030
  53.2302310 145.8296100  70.1715390  53.7595070 145.0425900  70.0423340
  53.8630630 146.5087290  70.4050920  55.4240150 145.5671240  73.2260780
  54.7942890 144.8658550  73.3930910  54.8845290 146.3275370  73.0093940
  55.5495710 144.8455220  85.6613270  55.2679980 145.3488820  84.8974090
  55.9315410 144.0476970  85.2955400  62.1511170 144.2608800  86.2393740
  62.0376620 144.5803410  87.1345260  62.9680910 144.6621310  85.9431020
  61.0569320 152.2801270  56.6028480  60.9763370 151.3655880  56.3320190
  60.6433740 152.7768340  55.8968190  59.1887360 154.0580290  58.4837750
  58.4129460 153.5780730  58.7736320  59.8400290 153.3785940  58.3093910
  51.6145140 149.3301990  53.1455900  50.7261840 149.6717960  53.0435780
  51.8986330 149.1302310  52.2536730  49.5778150 151.9307640  59.0295600
  50.1494260 151.1629840  59.0299240  49.5779690 152.2296400  58.1202210
  50.8203020 147.3392000  60.8164530  50.6405860 146.4417750  61.0967290
  50.4183100 147.8863870  61.4911480  59.6601520 149.5407860  58.7176840
  60.0366340 148.6679740  58.6050510  59.5621030 149.8766560  57.8267280
  53.7906530 147.9133490  54.1794280  53.8973280 148.8137220  54.4863040
  52.8798890 147.8651460  53.8888930  63.4425640 147.0358300  55.6505180
  64.2635260 146.5454870  55.6930660  63.4759720 147.6255960  56.4037020
  51.4389690 149.8352500  59.4246870  52.1199800 150.0990870  60.0434270
  51.1237740 148.9953370  59.7584880  55.6314260 150.8819860  58.5119460
  56.1392480 151.3800830  59.1524480  56.1627500 150.1055060  58.3358820
  67.7325190 149.0525050  62.2148810  67.0277360 149.4406760  61.6963920
  67.9983110 149.7475340  62.8169740  53.9150360 145.5218420  62.7782880
  53.9168800 146.0390810  61.9728780  53.0854670 145.0448600  62.7552810
  63.6787120 148.9758680  58.4232720  62.9742690 149.2643570  59.0035830
  64.0399280 149.7858790  58.0632280  53.5965690 147.2328380  60.7853330
  53.9382500 148.0770430  60.4907200  52.6581500 147.3812120  60.9018670
  66.7474040 148.4213470  58.8141930  65.7998950 148.4552450  58.9457360
  67.0724030 149.2352420  59.1991290  57.2793580 144.7210650  57.1097920
  57.5868560 144.1657540  56.3933420  56.3494280 144.8555110  56.9270910
  59.6674340 152.7859480  53.8458040  58.7403620 152.7196860  54.0746510
  59.8199160 153.7239610  53.7313280  59.6543420 149.0576480  50.8425200
  58.7147090 149.2190440  50.9277660  59.9726680 149.7762160  50.2961190
  63.1398190 150.5264320  61.7659100  62.7269370 151.3518030  62.0199090
  62.4074140 149.9409360  61.5735460  55.2730980 153.3124220  56.6277770
  54.8687980 152.6001470  56.1323670  55.3594100 152.9677460  57.5165810
  53.9859600 150.0867430  60.4076810  54.5374190 150.1962770  59.6330060
  54.5003110 150.4605030  61.1232040  61.8736330 153.5866590  51.3566040
  62.3129610 152.7489020  51.2103860  62.5864750 154.2195990  51.4430180
  65.4553470 144.8409400  49.6707080  65.1426130 144.9336230  50.5706150
  66.2165940 145.4190430  49.6204510  51.9735610 152.2069200  54.1284420
  51.8533210 152.9331290  53.5165690  51.6636500 151.4372110  53.6512330
  66.6654760 149.5780900  65.6481220  66.0499030 150.0860570  65.1196680
  66.3451180 148.6779230  65.5907160  54.4399270 145.5504270  57.5108090
  53.9967420 146.3313810  57.1792610  54.9984260 145.8734160  58.2179030
  58.7269080 148.4172790  63.1143410  58.2648450 148.6255810  63.9263350
  58.3247190 147.6032140  62.8114080  63.7273590 149.6381740  64.2440070
  62.8767180 149.3387490  64.5649140  63.5675380 149.8823750  63.3323890
  60.8223300 151.1383490  66.3438860  61.1476710 150.3047240  66.0041090
  61.6103630 151.6612010  66.4917190  57.5558090 145.1714970  52.3913920
  56.9312270 145.1674840  53.1167230  57.4688210 144.3045930  51.9949890
  56.4775170 146.0951600  59.3697690  56.7747500 147.0014430  59.2889710
  57.0260730 145.6070380  58.7557260  54.2313490 150.6737840  55.2389340
  54.0054410 150.4575010  56.1435960  53.4506020 151.1066300  54.8935310
  61.4611250 150.6801210  53.8379990  60.8620140 151.4037010  53.6543610
  62.0090860 150.6177990  53.0556440  56.6712700 151.5723420  65.9049610
  56.5756300 150.6318150  65.7550010  57.5144680 151.7938490  65.5097680
  60.0676120 149.3164750  55.8683270  60.4605690 149.6336950  55.0551960
  60.4292970 148.4376630  55.9827790  51.8023240 147.9837090  64.0583390
  51.4086630 148.8312300  64.2656170  51.1141640 147.3463460  64.2492030
  58.3768290 148.0672060  67.1280130  57.6866610 147.8744260  67.7626220
  59.1200590 148.3506700  67.6604430  49.1040290 145.9065550  58.0913470
  48.8153340 146.4768410  58.8038450  49.8486050 145.4270000  58.4544700
  49.2910520 149.8485670  49.3016190  49.2085190 150.7916430  49.4431180
  48.9393580 149.7060580  48.4228540  60.6531260 151.9070500  59.9634050
  59.9212380 152.4157310  60.3124150  60.2555600 151.0900480  59.6622830
  57.0908650 148.5824700  58.3686540  57.0944710 148.1414650  57.5191080
  57.9859770 148.9042030  58.4758360  52.9411030 148.4651190  57.3280750
  52.6011080 148.9426420  58.0847800  52.1788350 148.0116310  56.9681850
  57.1528800 149.5836780  51.3593300  57.2741620 149.5423260  52.3079120
  56.7677310 150.4460930  51.2040030  61.1157170 147.3604180  59.3756990
  61.1329910 147.8112830  60.2198840  60.8672750 146.4609820  59.5890430
  56.1650300 151.8937920  50.7576600  55.5967200 151.4456170  50.1312510
  56.8739300 152.2530700  50.2241750  64.5427920 144.7736360  65.2143370
  64.8673690 144.0426020  65.7401350  64.5784430 144.4550000  64.3124360
  57.3916620 152.6426480  60.1151950  57.7586750 152.1685050  60.8613290
  57.2021680 153.5168050  60.4560290  50.2557110 147.3870170  56.2445420
  49.9704030 147.0225840  57.0824040  50.1935970 146.6550630  55.6308560
  55.1815990 151.6835120  62.4336160  54.8773060 152.5627100  62.6586520
  56.1362450 151.7434910  62.4693600  59.9295700 146.2799430  52.9658790
  59.1160310 145.7812600  52.8904100  59.7357650 147.1197680  52.5495140
  62.6444090 150.6519080  51.2620950  63.5323710 150.9636310  51.0872290
  62.6149180 149.7791330  50.8701530  51.2379720 152.5237860  63.5807520
  50.8794660 153.1891710  64.1680860  50.9434280 151.6921410  63.9520140
  54.4392840 152.9822100  66.4647070  54.1392980 153.1279280  65.5674890
  55.2104080 152.4227390  66.3720460  64.9158360 151.9630920  50.7300810
  64.8322080 152.3945140  49.8797250  65.6352550 152.4229270  51.1627630
  49.7487770 152.5229120  50.2042120  50.6182620 152.8053920  50.4878040
  49.2578090 153.3364990  50.0890930  52.8134360 144.2539980  54.7972920
  52.6848990 144.2457880  55.7457840  51.9896380 144.5923070  54.4463930
  49.8128290 146.0131100  64.2579620  49.0986810 146.2128020  64.8632230
  50.2323330 145.2370670  64.6294420  61.3067070 148.5053410  62.0081070
  61.6747890 147.6848620  62.3360640  60.4465270 148.5655300  62.4236720
  64.6729100 147.4610350  52.8168630  64.0442260 147.5656020  52.1026860
  64.1781020 147.6807130  53.6062510  56.6413130 149.7396300  54.2326510
  55.9329280 150.2082640  54.6740120  56.9257610 149.0818310  54.8671700
  58.2669060 151.1593000  62.2319040  58.7654310 151.6338820  62.8970890
  58.4092010 150.2356520  62.4389070  60.6728560 146.4646960  55.6722300
  60.5496340 146.4833090  54.7231810  61.6213120 146.5125900  55.7920700
  54.8448150 148.0481380  51.6077220  55.6938680 148.4851530  51.5417410
  54.4779420 148.3601640  52.4349280  65.4735920 147.3760960  63.0747430
  64.9709520 148.1166360  63.4141240  66.2892580 147.7644960  62.7584220
  63.7657930 152.6194140  56.5208790  62.8248070 152.6344370  56.6956480
  64.0802000 151.8330100  56.9669090  53.7439570 154.3013740  50.0812750
  54.5102840 154.1895100  50.6438180  53.8214260 153.6051710  49.4289520
  52.4386330 151.7338810  50.7645640  52.5189920 150.7866320  50.8763040
  53.3306080 152.0645690  50.8706300  49.9657130 153.5553730  66.0001810
  50.4696150 152.9761010  66.5718040  49.2264550 153.8393960  66.5378180
  51.9980210 151.6983320  66.8951880  52.0385550 151.3997190  67.8037110
  52.8525710 152.0990930  66.7359400  55.7758600 154.2978870  52.0555390
  56.1975020 154.1318740  52.8986780  55.9009440 153.4879100  51.5610530
  53.9386020 150.2775420  64.8626370  53.4082480 149.7866370  64.2349710
  54.6074090 150.7059620  64.3284300  58.2886240 153.3216480  49.3032490
  58.8091900 152.6065500  48.9373640  58.9354640 153.9602350  49.6033000
  63.3086250 152.0841040  66.6306710  63.8907020 151.3293360  66.5427190
  63.4848020 152.6148480  65.8538190  54.4258320 147.2437790  64.9423660
  54.3315190 146.6258540  64.2174530  53.8455710 147.9704080  64.7153570
  57.1919760 145.8011030  61.9751050  56.7437060 145.8235290  61.1296600
  56.5584960 145.4030050  62.5721350  59.9343210 152.4281540  63.9801330
  60.0539420 151.8322680  64.7196170  60.7937210 152.4651230  63.5602630
  62.2731110 152.9818730  62.5563840  61.7466330 153.5061350  61.9528980
  62.6162450 153.6146120  63.1873570  54.6717500 150.3712100  49.0013550
  54.4706560 149.5079460  49.3626890  54.5009550 150.2845460  48.0635150
  56.7011980 148.9702890  65.2377150  57.2911670 148.6618740  65.9254970
  55.8832220 148.4982640  65.3937050  61.5205410 148.5868700  65.4710170
  60.8320930 147.9250240  65.4060160  62.2411430 148.1406970  65.9158630
  62.1505810 145.1820330  51.5300430  62.4308100 144.3388230  51.8859850
  61.3771540 145.4143440  52.0439180  53.4700300 147.4712720  48.9891430
  53.7726200 147.4780150  48.0810580  54.2094890 147.1210580  49.4859090
  56.6885230 146.4147340  49.9747630  56.3407230 145.7371330  49.3950080
  56.8898000 145.9536850  50.7891020  50.0290870 152.9434990  56.3712000
  49.3739710 152.6746630  55.7271700  50.8668820 152.8339470  55.9213980
  62.9781310 147.7376280  50.5930490  63.3966190 147.5507260  49.7527150
  62.6717370 146.8855330  50.9033420  66.4771040 152.6500420  54.2906290
  66.1014640 151.8828350  53.8587580  65.7474160 153.0323120  54.7781220
  51.0666800 153.3287560  60.9115340  51.4339840 153.2414960  61.7911360
  50.4977620 152.5654110  60.8122200  65.8670660 151.7971940  63.9245810
  65.6356750 151.5684690  63.0243760  66.1275210 152.7171490  63.8790700
  50.6182800 150.2396650  64.8173760  49.7238850 150.2063410  65.1567470
  51.1580350 150.4383440  65.5825010  64.3058730 147.0228370  66.7025510
  65.1828910 147.0311770  67.0859510  64.3179570 146.2859210  66.0917860
  49.2428950 150.1533920  52.3137330  48.3393030 150.4164120  52.1388990
  49.7269570 150.4245090  51.5337290  65.7522000 150.8757910  57.5913530
  66.2759480 150.3820560  56.9603700  66.3381420 151.0108270  58.3361100
  65.9311720 150.9597780  61.1133080  64.9814430 150.9261320  61.2278070
  66.1124730 151.8697890  60.8782850  51.7856160 149.2099460  50.2231710
  52.4947860 148.7882680  49.7378990  51.0696100 149.2774690  49.5915060
  51.4330320 145.2638790  49.2634360  52.1558450 145.8047730  49.5815580
  51.7054840 144.9902210  48.3875900  65.2421970 150.1331260  53.5305940
  65.7381090 149.9002130  54.3154820  65.0438040 149.2943100  53.1143580
  51.1222510 144.5144980  59.1656980  51.7698700 143.9642360  58.7252140
  51.5424350 144.7688130  59.9872790  66.6709130 148.7692210  56.0643620
  66.5608410 148.6148250  57.0025890  67.4316720 148.2413150  55.8219030
  65.0174850 144.7086340  62.5226620  65.6547070 145.3220480  62.8885810
  65.1649740 144.7447000  61.5775850  67.5599400 146.6000130  49.3049760
  68.4848710 146.4681310  49.0968050  67.5375190 146.6792950  50.2586210
  67.6337890 147.3710790  51.9306470  66.8389390 147.3055910  52.4599380
  67.8381170 148.3061430  51.9191820  50.8754510 144.6700650  61.9082300
  50.5269330 145.1264470  62.6740480  50.5442210 143.7757780  61.9904730
  58.3879330 145.8612530  65.4301720  58.3268220 146.4534360  66.1797130
  59.3279710 145.7538490  65.2851980  61.0253890 145.5182590  65.0694010
  61.6394300 145.8361880  64.4075090  61.5703450 145.0331180  65.6889870
  51.5475150 144.1976850  65.1833070  52.0958140 144.0164900  64.4199180
  51.6130460 143.4070960  65.7189380  61.7661930 144.0814730  61.3963300
  60.8921770 144.4149840  61.1936230  61.6572680 143.6087910  62.2215170
  62.6733910 146.2885600  62.7805020  62.3447270 145.4737360  62.4006750
  63.6216210 146.2455410  62.6570710  59.5136750 144.9984570  60.3356210
  58.7308540 145.4730070  60.6152970  59.2199680 144.0939400  60.2269390
  64.0657820 145.7007670  58.3805300  64.5065910 145.6452770  57.5326900
  63.7965410 146.6165680  58.4515480  65.9296390 145.3322910  56.3914120
  65.8684790 144.3884130  56.2445140  66.7088420 145.4403000  56.9367580
  50.8577160 145.3032050  52.8569930  51.6156520 145.4160930  52.2833960
  50.3954330 146.1401250  52.8113360  57.3990970 147.4171320  55.8472240
  56.5865480 147.0428210  55.5068120  57.9032610 146.6616400  56.1493430
  61.9015950 144.0813770  57.0855310  62.5045320 144.6533980  57.5603830
  61.1608940 144.6453210  56.8629210  65.0450550 144.4835330  52.3595590
  65.2401180 145.3818780  52.6263020  64.2580420 144.2522410  52.8528540
  53.2302310 145.8296100  51.3971900  53.7595070 145.0425900  51.2679850
  53.8630630 146.5087290  51.6307430  55.4240150 145.5671240  54.4517290
  54.7942890 144.8658550  54.6187420  54.8845290 146.3275370  54.2350450
  55.5495710 144.8455220  66.8869780  55.2679980 145.3488820  66.1230600
  55.9315410 144.0476970  66.5211910  62.1511170 144.2608800  67.4650250
  62.0376620 144.5803410  68.3601770  62.9680910 144.6621310  67.1687530
  61.0569320 152.2801270  37.8284990  60.9763370 151.3655880  37.5576700
  60.6433740 152.7768340  37.1224700  59.1887360 154.0580290  39.7094260
  58.4129460 153.5780730  39.9992830  59.8400290 153.3785940  39.5350420
  51.6145140 149.3301990  34.3712410  50.7261840 149.6717960  34.2692290
  51.8986330 149.1302310  33.4793240  49.5778150 151.9307640  40.2552110
  50.1494260 151.1629840  40.2555750  49.5779690 152.2296400  39.3458720
  50.8203020 147.3392000  42.0421040  50.6405860 146.4417750  42.3223800
  50.4183100 147.8863870  42.7167990  59.6601520 149.5407860  39.9433350
  60.0366340 148.6679740  39.8307020  59.5621030 149.8766560  39.0523790
  53.7906530 147.9133490  35.4050790  53.8973280 148.8137220  35.7119550
  52.8798890 147.8651460  35.1145440  63.4425640 147.0358300  36.8761690
  64.2635260 146.5454870  36.9187170  63.4759720 147.6255960  37.6293530
  51.4389690 149.8352500  40.6503380  52.1199800 150.0990870  41.2690780
  51.1237740 148.9953370  40.9841390  55.6314260 150.8819860  39.7375970
  56.1392480 151.3800830  40.3780990  56.1627500 150.1055060  39.5615330
  67.7325190 149.0525050  43.4405320  67.0277360 149.4406760  42.9220430
  67.9983110 149.7475340  44.0426250  53.9150360 145.5218420  44.0039390
  53.9168800 146.0390810  43.1985290  53.0854670 145.0448600  43.9809320
  63.6787120 148.9758680  39.6489230  62.9742690 149.2643570  40.2292340
  64.0399280 149.7858790  39.2888790  53.5965690 147.2328380  42.0109840
  53.9382500 148.0770430  41.7163710  52.6581500 147.3812120  42.1275180
  66.7474040 148.4213470  40.0398440  65.7998950 148.4552450  40.1713870
  67.0724030 149.2352420  40.4247800  57.2793580 144.7210650  38.3354430
  57.5868560 144.1657540  37.6189930  56.3494280 144.8555110  38.1527420
  59.6674340 152.7859480  35.0714550  58.7403620 152.7196860  35.3003020
  59.8199160 153.7239610  34.9569790  59.6543420 149.0576480  32.0681710
  58.7147090 149.2190440  32.1534170  59.9726680 149.7762160  31.5217700
  63.1398190 150.5264320  42.9915610  62.7269370 151.3518030  43.2455600
  62.4074140 149.9409360  42.7991970  55.2730980 153.3124220  37.8534280
  54.8687980 152.6001470  37.3580180  55.3594100 152.9677460  38.7422320
  53.9859600 150.0867430  41.6333320  54.5374190 150.1962770  40.8586570
  54.5003110 150.4605030  42.3488550  61.8736330 153.5866590  32.5822550
  62.3129610 152.7489020  32.4360370  62.5864750 154.2195990  32.6686690
  65.4553470 144.8409400  30.8963590  65.1426130 144.9336230  31.7962660
  66.2165940 145.4190430  30.8461020  51.9735610 152.2069200  35.3540930
  51.8533210 152.9331290  34.7422200  51.6636500 151.4372110  34.8768840
  66.6654760 149.5780900  46.8737730  66.0499030 150.0860570  46.3453190
  66.3451180 148.6779230  46.8163670  54.4399270 145.5504270  38.7364600
  53.9967420 146.3313810  38.4049120  54.9984260 145.8734160  39.4435540
  58.7269080 148.4172790  44.3399920  58.2648450 148.6255810  45.1519860
  58.3247190 147.6032140  44.0370590  63.7273590 149.6381740  45.4696580
  62.8767180 149.3387490  45.7905650  63.5675380 149.8823750  44.5580400
  60.8223300 151.1383490  47.5695370  61.1476710 150.3047240  47.2297600
  61.6103630 151.6612010  47.7173700  57.5558090 145.1714970  33.6170430
  56.9312270 145.1674840  34.3423740  57.4688210 144.3045930  33.2206400
  56.4775170 146.0951600  40.5954200  56.7747500 147.0014430  40.5146220
  57.0260730 145.6070380  39.9813770  54.2313490 150.6737840  36.4645850
  54.0054410 150.4575010  37.3692470  53.4506020 151.1066300  36.1191820
  61.4611250 150.6801210  35.0636500  60.8620140 151.4037010  34.8800120
  62.0090860 150.6177990  34.2812950  56.6712700 151.5723420  47.1306120
  56.5756300 150.6318150  46.9806520  57.5144680 151.7938490  46.7354190
  60.0676120 149.3164750  37.0939780  60.4605690 149.6336950  36.2808470
  60.4292970 148.4376630  37.2084300  51.8023240 147.9837090  45.2839900
  51.4086630 148.8312300  45.4912680  51.1141640 147.3463460  45.4748540
  58.3768290 148.0672060  48.3536640  57.6866610 147.8744260  48.9882730
  59.1200590 148.3506700  48.8860940  49.1040290 145.9065550  39.3169980
  48.8153340 146.4768410  40.0294960  49.8486050 145.4270000  39.6801210
  49.2910520 149.8485670  30.5272700  49.2085190 150.7916430  30.6687690
  48.9393580 149.7060580  29.6485050  60.6531260 151.9070500  41.1890560
  59.9212380 152.4157310  41.5380660  60.2555600 151.0900480  40.8879340
  57.0908650 148.5824700  39.5943050  57.0944710 148.1414650  38.7447590
  57.9859770 148.9042030  39.7014870  52.9411030 148.4651190  38.5537260
  52.6011080 148.9426420  39.3104310  52.1788350 148.0116310  38.1938360
  57.1528800 149.5836780  32.5849810  57.2741620 149.5423260  33.5335630
  56.7677310 150.4460930  32.4296540  61.1157170 147.3604180  40.6013500
  61.1329910 147.8112830  41.4455350  60.8672750 146.4609820  40.8146940
  56.1650300 151.8937920  31.9833110  55.5967200 151.4456170  31.3569020
  56.8739300 152.2530700  31.4498260  64.5427920 144.7736360  46.4399880
  64.8673690 144.0426020  46.9657860  64.5784430 144.4550000  45.5380870
  57.3916620 152.6426480  41.3408460  57.7586750 152.1685050  42.0869800
  57.2021680 153.5168050  41.6816800  50.2557110 147.3870170  37.4701930
  49.9704030 147.0225840  38.3080550  50.1935970 146.6550630  36.8565070
  55.1815990 151.6835120  43.6592670  54.8773060 152.5627100  43.8843030
  56.1362450 151.7434910  43.6950110  59.9295700 146.2799430  34.1915300
  59.1160310 145.7812600  34.1160610  59.7357650 147.1197680  33.7751650
  62.6444090 150.6519080  32.4877460  63.5323710 150.9636310  32.3128800
  62.6149180 149.7791330  32.0958040  51.2379720 152.5237860  44.8064030
  50.8794660 153.1891710  45.3937370  50.9434280 151.6921410  45.1776650
  54.4392840 152.9822100  47.6903580  54.1392980 153.1279280  46.7931400
  55.2104080 152.4227390  47.5976970  64.9158360 151.9630920  31.9557320
  64.8322080 152.3945140  31.1053760  65.6352550 152.4229270  32.3884140
  49.7487770 152.5229120  31.4298630  50.6182620 152.8053920  31.7134550
  49.2578090 153.3364990  31.3147440  52.8134360 144.2539980  36.0229430
  52.6848990 144.2457880  36.9714350  51.9896380 144.5923070  35.6720440
  49.8128290 146.0131100  45.4836130  49.0986810 146.2128020  46.0888740
  50.2323330 145.2370670  45.8550930  61.3067070 148.5053410  43.2337580
  61.6747890 147.6848620  43.5617150  60.4465270 148.5655300  43.6493230
  64.6729100 147.4610350  34.0425140  64.0442260 147.5656020  33.3283370
  64.1781020 147.6807130  34.8319020  56.6413130 149.7396300  35.4583020
  55.9329280 150.2082640  35.8996630  56.9257610 149.0818310  36.0928210
  58.2669060 151.1593000  43.4575550  58.7654310 151.6338820  44.1227400
  58.4092010 150.2356520  43.6645580  60.6728560 146.4646960  36.8978810
  60.5496340 146.4833090  35.9488320  61.6213120 146.5125900  37.0177210
  54.8448150 148.0481380  32.8333730  55.6938680 148.4851530  32.7673920
  54.4779420 148.3601640  33.6605790  65.4735920 147.3760960  44.3003940
  64.9709520 148.1166360  44.6397750  66.2892580 147.7644960  43.9840730
  63.7657930 152.6194140  37.7465300  62.8248070 152.6344370  37.9212990
  64.0802000 151.8330100  38.1925600  53.7439570 154.3013740  31.3069260
  54.5102840 154.1895100  31.8694690  53.8214260 153.6051710  30.6546030
  52.4386330 151.7338810  31.9902150  52.5189920 150.7866320  32.1019550
  53.3306080 152.0645690  32.0962810  49.9657130 153.5553730  47.2258320
  50.4696150 152.9761010  47.7974550  49.2264550 153.8393960  47.7634690
  51.9980210 151.6983320  48.1208390  52.0385550 151.3997190  49.0293620
  52.8525710 152.0990930  47.9615910  55.7758600 154.2978870  33.2811900
  56.1975020 154.1318740  34.1243290  55.9009440 153.4879100  32.7867040
  53.9386020 150.2775420  46.0882880  53.4082480 149.7866370  45.4606220
  54.6074090 150.7059620  45.5540810  58.2886240 153.3216480  30.5289000
  58.8091900 152.6065500  30.1630150  58.9354640 153.9602350  30.8289510
  63.3086250 152.0841040  47.8563220  63.8907020 151.3293360  47.7683700
  63.4848020 152.6148480  47.0794700  54.4258320 147.2437790  46.1680170
  54.3315190 146.6258540  45.4431040  53.8455710 147.9704080  45.9410080
  57.1919760 145.8011030  43.2007560  56.7437060 145.8235290  42.3553110
  56.5584960 145.4030050  43.7977860  59.9343210 152.4281540  45.2057840
  60.0539420 151.8322680  45.9452680  60.7937210 152.4651230  44.7859140
  62.2731110 152.9818730  43.7820350  61.7466330 153.5061350  43.1785490
  62.6162450 153.6146120  44.4130080  54.6717500 150.3712100  30.2270060
  54.4706560 149.5079460  30.5883400  54.5009550 150.2845460  29.2891660
  56.7011980 148.9702890  46.4633660  57.2911670 148.6618740  47.1511480
  55.8832220 148.4982640  46.6193560  61.5205410 148.5868700  46.6966680
  60.8320930 147.9250240  46.6316670  62.2411430 148.1406970  47.1415140
  62.1505810 145.1820330  32.7556940  62.4308100 144.3388230  33.1116360
  61.3771540 145.4143440  33.2695690  53.4700300 147.4712720  30.2147940
  53.7726200 147.4780150  29.3067090  54.2094890 147.1210580  30.7115600
  56.6885230 146.4147340  31.2004140  56.3407230 145.7371330  30.6206590
  56.8898000 145.9536850  32.0147530  50.0290870 152.9434990  37.5968510
  49.3739710 152.6746630  36.9528210  50.8668820 152.8339470  37.1470490
  62.9781310 147.7376280  31.8187000  63.3966190 147.5507260  30.9783660
  62.6717370 146.8855330  32.1289930  66.4771040 152.6500420  35.5162800
  66.1014640 151.8828350  35.0844090  65.7474160 153.0323120  36.0037730
  51.0666800 153.3287560  42.1371850  51.4339840 153.2414960  43.0167870
  50.4977620 152.5654110  42.0378710  65.8670660 151.7971940  45.1502320
  65.6356750 151.5684690  44.2500270  66.1275210 152.7171490  45.1047210
  50.6182800 150.2396650  46.0430270  49.7238850 150.2063410  46.3823980
  51.1580350 150.4383440  46.8081520  64.3058730 147.0228370  47.9282020
  65.1828910 147.0311770  48.3116020  64.3179570 146.2859210  47.3174370
  49.2428950 150.1533920  33.5393840  48.3393030 150.4164120  33.3645500
  49.7269570 150.4245090  32.7593800  65.7522000 150.8757910  38.8170040
  66.2759480 150.3820560  38.1860210  66.3381420 151.0108270  39.5617610
  65.9311720 150.9597780  42.3389590  64.9814430 150.9261320  42.4534580
  66.1124730 151.8697890  42.1039360  51.7856160 149.2099460  31.4488220
  52.4947860 148.7882680  30.9635500  51.0696100 149.2774690  30.8171570
  51.4330320 145.2638790  30.4890870  52.1558450 145.8047730  30.8072090
  51.7054840 144.9902210  29.6132410  65.2421970 150.1331260  34.7562450
  65.7381090 149.9002130  35.5411330  65.0438040 149.2943100  34.3400090
  51.1222510 144.5144980  40.3913490  51.7698700 143.9642360  39.9508650
  51.5424350 144.7688130  41.2129300  66.6709130 148.7692210  37.2900130
  66.5608410 148.6148250  38.2282400  67.4316720 148.2413150  37.0475540
  65.0174850 144.7086340  43.7483130  65.6547070 145.3220480  44.1142320
  65.1649740 144.7447000  42.8032360  67.5599400 146.6000130  30.5306270
  68.4848710 146.4681310  30.3224560  67.5375190 146.6792950  31.4842720
  67.6337890 147.3710790  33.1562980  66.8389390 147.3055910  33.6855890
  67.8381170 148.3061430  33.1448330  50.8754510 144.6700650  43.1338810
  50.5269330 145.1264470  43.8996990  50.5442210 143.7757780  43.2161240
  58.3879330 145.8612530  46.6558230  58.3268220 146.4534360  47.4053640
  59.3279710 145.7538490  46.5108490  61.0253890 145.5182590  46.2950520
  61.6394300 145.8361880  45.6331600  61.5703450 145.0331180  46.9146380
  51.5475150 144.1976850  46.4089580  52.0958140 144.0164900  45.6455690
  51.6130460 143.4070960  46.9445890  61.7661930 144.0814730  42.6219810
  60.8921770 144.4149840  42.4192740  61.6572680 143.6087910  43.4471680
  62.6733910 146.2885600  44.0061530  62.3447270 145.4737360  43.6263260
  63.6216210 146.2455410  43.8827220  59.5136750 144.9984570  41.5612720
  58.7308540 145.4730070  41.8409480  59.2199680 144.0939400  41.4525900
  64.0657820 145.7007670  39.6061810  64.5065910 145.6452770  38.7583410
  63.7965410 146.6165680  39.6771990  65.9296390 145.3322910  37.6170630
  65.8684790 144.3884130  37.4701650  66.7088420 145.4403000  38.1624090
  50.8577160 145.3032050  34.0826440  51.6156520 145.4160930  33.5090470
  50.3954330 146.1401250  34.0369870  57.3990970 147.4171320  37.0728750
  56.5865480 147.0428210  36.7324630  57.9032610 146.6616400  37.3749940
  61.9015950 144.0813770  38.3111820  62.5045320 144.6533980  38.7860340
  61.1608940 144.6453210  38.0885720  65.0450550 144.4835330  33.5852100
  65.2401180 145.3818780  33.8519530  64.2580420 144.2522410  34.0785050
  53.2302310 145.8296100  32.6228410  53.7595070 145.0425900  32.4936360
  53.8630630 146.5087290  32.8563940  55.4240150 145.5671240  35.6773800
  54.7942890 144.8658550  35.8443930  54.8845290 146.3275370  35.4606960
  55.5495710 144.8455220  48.1126290  55.2679980 145.3488820  47.3487110
  55.9315410 144.0476970  47.7468420  62.1511170 144.2608800  48.6906760
  62.0376620 144.5803410  49.5858280  62.9680910 144.6621310  48.3944040
  61.0569320 152.2801270  19.0541500  60.9763370 151.3655880  18.7833210
  60.6433740 152.7768340  18.3481210  59.1887360 154.0580290  20.9350770
  58.4129460 153.5780730  21.2249340  59.8400290 153.3785940  20.7606930
  51.6145140 149.3301990  15.5968920  50.7261840 149.6717960  15.4948800
  51.8986330 149.1302310  14.7049750  49.5778150 151.9307640  21.4808620
  50.1494260 151.1629840  21.4812260  49.5779690 152.2296400  20.5715230
  50.8203020 147.3392000  23.2677550  50.6405860 146.4417750  23.5480310
  50.4183100 147.8863870  23.9424500  59.6601520 149.5407860  21.1689860
  60.0366340 148.6679740  21.0563530  59.5621030 149.8766560  20.2780300
  53.7906530 147.9133490  16.6307300  53.8973280 148.8137220  16.9376060
  52.8798890 147.8651460  16.3401950  63.4425640 147.0358300  18.1018200
  64.2635260 146.5454870  18.1443680  63.4759720 147.6255960  18.8550040
  51.4389690 149.8352500  21.8759890  52.1199800 150.0990870  22.4947290
  51.1237740 148.9953370  22.2097900  55.6314260 150.8819860  20.9632480
  56.1392480 151.3800830  21.6037500  56.1627500 150.1055060  20.7871840
  67.7325190 149.0525050  24.6661830  67.0277360 149.4406760  24.1476940
  67.9983110 149.7475340  25.2682760  53.9150360 145.5218420  25.2295900
  53.9168800 146.0390810  24.4241800  53.0854670 145.0448600  25.2065830
  63.6787120 148.9758680  20.8745740  62.9742690 149.2643570  21.4548850
  64.0399280 149.7858790  20.5145300  53.5965690 147.2328380  23.2366350
  53.9382500 148.0770430  22.9420220  52.6581500 147.3812120  23.3531690
  66.7474040 148.4213470  21.2654950  65.7998950 148.4552450  21.3970380
  67.0724030 149.2352420  21.6504310  57.2793580 144.7210650  19.5610940
  57.5868560 144.1657540  18.8446440  56.3494280 144.8555110  19.3783930
  59.6674340 152.7859480  16.2971060  58.7403620 152.7196860  16.5259530
  59.8199160 153.7239610  16.1826300  59.6543420 149.0576480  13.2938220
  58.7147090 149.2190440  13.3790680  59.9726680 149.7762160  12.7474210
  63.1398190 150.5264320  24.2172120  62.7269370 151.3518030  24.4712110
  62.4074140 149.9409360  24.0248480  55.2730980 153.3124220  19.0790790
  54.8687980 152.6001470  18.5836690  55.3594100 152.9677460  19.9678830
  53.9859600 150.0867430  22.8589830  54.5374190 150.1962770  22.0843080
  54.5003110 150.4605030  23.5745060  61.8736330 153.5866590  13.8079060
  62.3129610 152.7489020  13.6616880  62.5864750 154.2195990  13.8943200
  65.4553470 144.8409400  12.1220100  65.1426130 144.9336230  13.0219170
  66.2165940 145.4190430  12.0717530  51.9735610 152.2069200  16.5797440
  51.8533210 152.9331290  15.9678710  51.6636500 151.4372110  16.1025350
  66.6654760 149.5780900  28.0994240  66.0499030 150.0860570  27.5709700
  66.3451180 148.6779230  28.0420180  54.4399270 145.5504270  19.9621110
  53.9967420 146.3313810  19.6305630  54.9984260 145.8734160  20.6692050
  58.7269080 148.4172790  25.5656430  58.2648450 148.6255810  26.3776370
  58.3247190 147.6032140  25.2627100  63.7273590 149.6381740  26.6953090
  62.8767180 149.3387490  27.0162160  63.5675380 149.8823750  25.7836910
  60.8223300 151.1383490  28.7951880  61.1476710 150.3047240  28.4554110
  61.6103630 151.6612010  28.9430210  57.5558090 145.1714970  14.8426940
  56.9312270 145.1674840  15.5680250  57.4688210 144.3045930  14.4462910
  56.4775170 146.0951600  21.8210710  56.7747500 147.0014430  21.7402730
  57.0260730 145.6070380  21.2070280  54.2313490 150.6737840  17.6902360
  54.0054410 150.4575010  18.5948980  53.4506020 151.1066300  17.3448330
  61.4611250 150.6801210  16.2893010  60.8620140 151.4037010  16.1056630
  62.0090860 150.6177990  15.5069460  56.6712700 151.5723420  28.3562630
  56.5756300 150.6318150  28.2063030  57.5144680 151.7938490  27.9610700
  60.0676120 149.3164750  18.3196290  60.4605690 149.6336950  17.5064980
  60.4292970 148.4376630  18.4340810  51.8023240 147.9837090  26.5096410
  51.4086630 148.8312300  26.7169190  51.1141640 147.3463460  26.7005050
  58.3768290 148.0672060  29.5793150  57.6866610 147.8744260  30.2139240
  59.1200590 148.3506700  30.1117450  49.1040290 145.9065550  20.5426490
  48.8153340 146.4768410  21.2551470  49.8486050 145.4270000  20.9057720
  49.2910520 149.8485670  11.7529210  49.2085190 150.7916430  11.8944200
  48.9393580 149.7060580  10.8741560  60.6531260 151.9070500  22.4147070
  59.9212380 152.4157310  22.7637170  60.2555600 151.0900480  22.1135850
  57.0908650 148.5824700  20.8199560  57.0944710 148.1414650  19.9704100
  57.9859770 148.9042030  20.9271380  52.9411030 148.4651190  19.7793770
  52.6011080 148.9426420  20.5360820  52.1788350 148.0116310  19.4194870
  57.1528800 149.5836780  13.8106320  57.2741620 149.5423260  14.7592140
  56.7677310 150.4460930  13.6553050  61.1157170 147.3604180  21.8270010
  61.1329910 147.8112830  22.6711860  60.8672750 146.4609820  22.0403450
  56.1650300 151.8937920  13.2089620  55.5967200 151.4456170  12.5825530
  56.8739300 152.2530700  12.6754770  64.5427920 144.7736360  27.6656390
  64.8673690 144.0426020  28.1914370  64.5784430 144.4550000  26.7637380
  57.3916620 152.6426480  22.5664970  57.7586750 152.1685050  23.3126310
  57.2021680 153.5168050  22.9073310  50.2557110 147.3870170  18.6958440
  49.9704030 147.0225840  19.5337060  50.1935970 146.6550630  18.0821580
  55.1815990 151.6835120  24.8849180  54.8773060 152.5627100  25.1099540
  56.1362450 151.7434910  24.9206620  59.9295700 146.2799430  15.4171810
  59.1160310 145.7812600  15.3417120  59.7357650 147.1197680  15.0008160
  62.6444090 150.6519080  13.7133970  63.5323710 150.9636310  13.5385310
  62.6149180 149.7791330  13.3214550  51.2379720 152.5237860  26.0320540
  50.8794660 153.1891710  26.6193880  50.9434280 151.6921410  26.4033160
  54.4392840 152.9822100  28.9160090  54.1392980 153.1279280  28.0187910
  55.2104080 152.4227390  28.8233480  64.9158360 151.9630920  13.1813830
  64.8322080 152.3945140  12.3310270  65.6352550 152.4229270  13.6140650
  49.7487770 152.5229120  12.6555140  50.6182620 152.8053920  12.9391060
  49.2578090 153.3364990  12.5403950  52.8134360 144.2539980  17.2485940
  52.6848990 144.2457880  18.1970860  51.9896380 144.5923070  16.8976950
  49.8128290 146.0131100  26.7092640  49.0986810 146.2128020  27.3145250
  50.2323330 145.2370670  27.0807440  61.3067070 148.5053410  24.4594090
  61.6747890 147.6848620  24.7873660  60.4465270 148.5655300  24.8749740
  64.6729100 147.4610350  15.2681650  64.0442260 147.5656020  14.5539880
  64.1781020 147.6807130  16.0575530  56.6413130 149.7396300  16.6839530
  55.9329280 150.2082640  17.1253140  56.9257610 149.0818310  17.3184720
  58.2669060 151.1593000  24.6832060  58.7654310 151.6338820  25.3483910
  58.4092010 150.2356520  24.8902090  60.6728560 146.4646960  18.1235320
  60.5496340 146.4833090  17.1744830  61.6213120 146.5125900  18.2433720
  54.8448150 148.0481380  14.0590240  55.6938680 148.4851530  13.9930430
  54.4779420 148.3601640  14.8862300  65.4735920 147.3760960  25.5260450
  64.9709520 148.1166360  25.8654260  66.2892580 147.7644960  25.2097240
  63.7657930 152.6194140  18.9721810  62.8248070 152.6344370  19.1469500
  64.0802000 151.8330100  19.4182110  53.7439570 154.3013740  12.5325770
  54.5102840 154.1895100  13.0951200  53.8214260 153.6051710  11.8802540
  52.4386330 151.7338810  13.2158660  52.5189920 150.7866320  13.3276060
  53.3306080 152.0645690  13.3219320  49.9657130 153.5553730  28.4514830
  50.4696150 152.9761010  29.0231060  49.2264550 153.8393960  28.9891200
  51.9980210 151.6983320  29.3464900  52.0385550 151.3997190  30.2550130
  52.8525710 152.0990930  29.1872420  55.7758600 154.2978870  14.5068410
  56.1975020 154.1318740  15.3499800  55.9009440 153.4879100  14.0123550
  53.9386020 150.2775420  27.3139390  53.4082480 149.7866370  26.6862730
  54.6074090 150.7059620  26.7797320  58.2886240 153.3216480  11.7545510
  58.8091900 152.6065500  11.3886660  58.9354640 153.9602350  12.0546020
  63.3086250 152.0841040  29.0819730  63.8907020 151.3293360  28.9940210
  63.4848020 152.6148480  28.3051210  54.4258320 147.2437790  27.3936680
  54.3315190 146.6258540  26.6687550  53.8455710 147.9704080  27.1666590
  57.1919760 145.8011030  24.4264070  56.7437060 145.8235290  23.5809620
  56.5584960 145.4030050  25.0234370  59.9343210 152.4281540  26.4314350
  60.0539420 151.8322680  27.1709190  60.7937210 152.4651230  26.0115650
  62.2731110 152.9818730  25.0076860  61.7466330 153.5061350  24.4042000
  62.6162450 153.6146120  25.6386590  54.6717500 150.3712100  11.4526570
  54.4706560 149.5079460  11.8139910  54.5009550 150.2845460  10.5148170
  56.7011980 148.9702890  27.6890170  57.2911670 148.6618740  28.3767990
  55.8832220 148.4982640  27.8450070  61.5205410 148.5868700  27.9223190
  60.8320930 147.9250240  27.8573180  62.2411430 148.1406970  28.3671650
  62.1505810 145.1820330  13.9813450  62.4308100 144.3388230  14.3372870
  61.3771540 145.4143440  14.4952200  53.4700300 147.4712720  11.4404450
  53.7726200 147.4780150  10.5323600  54.2094890 147.1210580  11.9372110
  56.6885230 146.4147340  12.4260650  56.3407230 145.7371330  11.8463100
  56.8898000 145.9536850  13.2404040  50.0290870 152.9434990  18.8225020
  49.3739710 152.6746630  18.1784720  50.8668820 152.8339470  18.3727000
  62.9781310 147.7376280  13.0443510  63.3966190 147.5507260  12.2040170
  62.6717370 146.8855330  13.3546440  66.4771040 152.6500420  16.7419310
  66.1014640 151.8828350  16.3100600  65.7474160 153.0323120  17.2294240
  51.0666800 153.3287560  23.3628360  51.4339840 153.2414960  24.2424380
  50.4977620 152.5654110  23.2635220  65.8670660 151.7971940  26.3758830
  65.6356750 151.5684690  25.4756780  66.1275210 152.7171490  26.3303720
  50.6182800 150.2396650  27.2686780  49.7238850 150.2063410  27.6080490
  51.1580350 150.4383440  28.0338030  64.3058730 147.0228370  29.1538530
  65.1828910 147.0311770  29.5372530  64.3179570 146.2859210  28.5430880
  49.2428950 150.1533920  14.7650350  48.3393030 150.4164120  14.5902010
  49.7269570 150.4245090  13.9850310  65.7522000 150.8757910  20.0426550
  66.2759480 150.3820560  19.4116720  66.3381420 151.0108270  20.7874120
  65.9311720 150.9597780  23.5646100  64.9814430 150.9261320  23.6791090
  66.1124730 151.8697890  23.3295870  51.7856160 149.2099460  12.6744730
  52.4947860 148.7882680  12.1892010  51.0696100 149.2774690  12.0428080
  51.4330320 145.2638790  11.7147380  52.1558450 145.8047730  12.0328600
  51.7054840 144.9902210  10.8388920  65.2421970 150.1331260  15.9818960
  65.7381090 149.9002130  16.7667840  65.0438040 149.2943100  15.5656600
  51.1222510 144.5144980  21.6170000  51.7698700 143.9642360  21.1765160
  51.5424350 144.7688130  22.4385810  66.6709130 148.7692210  18.5156640
  66.5608410 148.6148250  19.4538910  67.4316720 148.2413150  18.2732050
  65.0174850 144.7086340  24.9739640  65.6547070 145.3220480  25.3398830
  65.1649740 144.7447000  24.0288870  67.5599400 146.6000130  11.7562780
  68.4848710 146.4681310  11.5481070  67.5375190 146.6792950  12.7099230
  67.6337890 147.3710790  14.3819490  66.8389390 147.3055910  14.9112400
  67.8381170 148.3061430  14.3704840  50.8754510 144.6700650  24.3595320
  50.5269330 145.1264470  25.1253500  50.5442210 143.7757780  24.4417750
  58.3879330 145.8612530  27.8814740  58.3268220 146.4534360  28.6310150
  59.3279710 145.7538490  27.7365000  61.0253890 145.5182590  27.5207030
  61.6394300 145.8361880  26.8588110  61.5703450 145.0331180  28.1402890
  51.5475150 144.1976850  27.6346090  52.0958140 144.0164900  26.8712200
  51.6130460 143.4070960  28.1702400  61.7661930 144.0814730  23.8476320
  60.8921770 144.4149840  23.6449250  61.6572680 143.6087910  24.6728190
  62.6733910 146.2885600  25.2318040  62.3447270 145.4737360  24.8519770
  63.6216210 146.2455410  25.1083730  59.5136750 144.9984570  22.7869230
  58.7308540 145.4730070  23.0665990  59.2199680 144.0939400  22.6782410
  64.0657820 145.7007670  20.8318320  64.5065910 145.6452770  19.9839920
  63.7965410 146.6165680  20.9028500  65.9296390 145.3322910  18.8427140
  65.8684790 144.3884130  18.6958160  66.7088420 145.4403000  19.3880600
  50.8577160 145.3032050  15.3082950  51.6156520 145.4160930  14.7346980
  50.3954330 146.1401250  15.2626380  57.3990970 147.4171320  18.2985260
  56.5865480 147.0428210  17.9581140  57.9032610 146.6616400  18.6006450
  61.9015950 144.0813770  19.5368330  62.5045320 144.6533980  20.0116850
  61.1608940 144.6453210  19.3142230  65.0450550 144.4835330  14.8108610
  65.2401180 145.3818780  15.0776040  64.2580420 144.2522410  15.3041560
  53.2302310 145.8296100  13.8484920  53.7595070 145.0425900  13.7192870
  53.8630630 146.5087290  14.0820450  55.4240150 145.5671240  16.9030310
  54.7942890 144.8658550  17.0700440  54.8845290 146.3275370  16.6863470
  55.5495710 144.8455220  29.3382800  55.2679980 145.3488820  28.5743620
  55.9315410 144.0476970  28.9724930  62.1511170 144.2608800  29.9163270
  62.0376620 144.5803410  30.8114790  62.9680910 144.6621310  29.6200550
  59.1887360 154.0580290   2.1607280  58.4129460 153.5780730   2.4505850
  59.8400290 153.3785940   1.9863440  49.5778150 151.9307640   2.7065130
  50.1494260 151.1629840   2.7068770  49.5779690 152.2296400   1.7971740
  50.8203020 147.3392000   4.4934060  50.6405860 146.4417750   4.7736820
  50.4183100 147.8863870   5.1681010  51.4389690 149.8352500   3.1016400
  52.1199800 150.0990870   3.7203800  51.1237740 148.9953370   3.4354410
  55.6314260 150.8819860   2.1888990  56.1392480 151.3800830   2.8294010
  56.1627500 150.1055060   2.0128350  67.7325190 149.0525050   5.8918340
  67.0277360 149.4406760   5.3733450  67.9983110 149.7475340   6.4939270
  53.9150360 145.5218420   6.4552410  53.9168800 146.0390810   5.6498310
  53.0854670 145.0448600   6.4322340  63.6787120 148.9758680   2.1002250
  62.9742690 149.2643570   2.6805360  64.0399280 149.7858790   1.7401810
  53.5965690 147.2328380   4.4622860  53.9382500 148.0770430   4.1676730
  52.6581500 147.3812120   4.5788200  66.7474040 148.4213470   2.4911460
  65.7998950 148.4552450   2.6226890  67.0724030 149.2352420   2.8760820
  63.1398190 150.5264320   5.4428630  62.7269370 151.3518030   5.6968620
  62.4074140 149.9409360   5.2504990  53.9859600 150.0867430   4.0846340
  54.5374190 150.1962770   3.3099590  54.5003110 150.4605030   4.8001570
  66.6654760 149.5780900   9.3250750  66.0499030 150.0860570   8.7966210
  66.3451180 148.6779230   9.2676690  58.7269080 148.4172790   6.7912940
  58.2648450 148.6255810   7.6032880  58.3247190 147.6032140   6.4883610
  63.7273590 149.6381740   7.9209600  62.8767180 149.3387490   8.2418670
  63.5675380 149.8823750   7.0093420  60.8223300 151.1383490  10.0208390
  61.1476710 150.3047240   9.6810620  61.6103630 151.6612010  10.1686720
  56.4775170 146.0951600   3.0467220  56.7747500 147.0014430   2.9659240
  57.0260730 145.6070380   2.4326790  56.6712700 151.5723420   9.5819140
  56.5756300 150.6318150   9.4319540  57.5144680 151.7938490   9.1867210
  51.8023240 147.9837090   7.7352920  51.4086630 148.8312300   7.9425700
  51.1141640 147.3463460   7.9261560  58.3768290 148.0672060  10.8049660
  57.6866610 147.8744260  11.4395750  59.1200590 148.3506700  11.3373960
  49.1040290 145.9065550   1.7683000  48.8153340 146.4768410   2.4807980
  49.8486050 145.4270000   2.1314230  60.6531260 151.9070500   3.6403580
  59.9212380 152.4157310   3.9893680  60.2555600 151.0900480   3.3392360
  61.1157170 147.3604180   3.0526520  61.1329910 147.8112830   3.8968370
  60.8672750 146.4609820   3.2659960  64.5427920 144.7736360   8.8912900
  64.8673690 144.0426020   9.4170880  64.5784430 144.4550000   7.9893890
  57.3916620 152.6426480   3.7921480  57.7586750 152.1685050   4.5382820
  57.2021680 153.5168050   4.1329820  55.1815990 151.6835120   6.1105690
  54.8773060 152.5627100   6.3356050  56.1362450 151.7434910   6.1463130
  51.2379720 152.5237860   7.2577050  50.8794660 153.1891710   7.8450390
  50.9434280 151.6921410   7.6289670  54.4392840 152.9822100  10.1416600
  54.1392980 153.1279280   9.2444420  55.2104080 152.4227390  10.0489990
  49.8128290 146.0131100   7.9349150  49.0986810 146.2128020   8.5401760
  50.2323330 145.2370670   8.3063950  61.3067070 148.5053410   5.6850600
  61.6747890 147.6848620   6.0130170  60.4465270 148.5655300   6.1006250
  58.2669060 151.1593000   5.9088570  58.7654310 151.6338820   6.5740420
  58.4092010 150.2356520   6.1158600  65.4735920 147.3760960   6.7516960
  64.9709520 148.1166360   7.0910770  66.2892580 147.7644960   6.4353750
  49.9657130 153.5553730   9.6771340  50.4696150 152.9761010  10.2487570
  49.2264550 153.8393960  10.2147710  51.9980210 151.6983320  10.5721410
  52.0385550 151.3997190  11.4806640  52.8525710 152.0990930  10.4128930
  53.9386020 150.2775420   8.5395900  53.4082480 149.7866370   7.9119240
  54.6074090 150.7059620   8.0053830  63.3086250 152.0841040  10.3076240
  63.8907020 151.3293360  10.2196720  63.4848020 152.6148480   9.5307720
  54.4258320 147.2437790   8.6193190  54.3315190 146.6258540   7.8944060
  53.8455710 147.9704080   8.3923100  57.1919760 145.8011030   5.6520580
  56.7437060 145.8235290   4.8066130  56.5584960 145.4030050   6.2490880
  59.9343210 152.4281540   7.6570860  60.0539420 151.8322680   8.3965700
  60.7937210 152.4651230   7.2372160  62.2731110 152.9818730   6.2333370
  61.7466330 153.5061350   5.6298510  62.6162450 153.6146120   6.8643100
  56.7011980 148.9702890   8.9146680  57.2911670 148.6618740   9.6024500
  55.8832220 148.4982640   9.0706580  61.5205410 148.5868700   9.1479700
  60.8320930 147.9250240   9.0829690  62.2411430 148.1406970   9.5928160
  51.0666800 153.3287560   4.5884870  51.4339840 153.2414960   5.4680890
  50.4977620 152.5654110   4.4891730  65.8670660 151.7971940   7.6015340
  65.6356750 151.5684690   6.7013290  66.1275210 152.7171490   7.5560230
  50.6182800 150.2396650   8.4943290  49.7238850 150.2063410   8.8337000
  51.1580350 150.4383440   9.2594540  64.3058730 147.0228370  10.3795040
  65.1828910 147.0311770  10.7629040  64.3179570 146.2859210   9.7687390
  65.9311720 150.9597780   4.7902610  64.9814430 150.9261320   4.9047600
  66.1124730 151.8697890   4.5552380  51.1222510 144.5144980   2.8426510
  51.7698700 143.9642360   2.4021670  51.5424350 144.7688130   3.6642320
  65.0174850 144.7086340   6.1996150  65.6547070 145.3220480   6.5655340
  65.1649740 144.7447000   5.2545380  50.8754510 144.6700650   5.5851830
  50.5269330 145.1264470   6.3510010  50.5442210 143.7757780   5.6674260
  58.3879330 145.8612530   9.1071250  58.3268220 146.4534360   9.8566660
  59.3279710 145.7538490   8.9621510  61.0253890 145.5182590   8.7463540
  61.6394300 145.8361880   8.0844620  61.5703450 145.0331180   9.3659400
  51.5475150 144.1976850   8.8602600  52.0958140 144.0164900   8.0968710
  51.6130460 143.4070960   9.3958910  61.7661930 144.0814730   5.0732830
  60.8921770 144.4149840   4.8705760  61.6572680 143.6087910   5.8984700
  62.6733910 146.2885600   6.4574550  62.3447270 145.4737360   6.0776280
  63.6216210 146.2455410   6.3340240  59.5136750 144.9984570   4.0125740
  58.7308540 145.4730070   4.2922500  59.2199680 144.0939400   3.9038920
  55.5495710 144.8455220  10.5639310  55.2679980 145.3488820   9.8000130
  55.9315410 144.0476970  10.1981440  62.1511170 144.2608800  11.1419780
  62.0376620 144.5803410  12.0371300  62.9680910 144.6621310  10.8457060
  61.0569320 133.5057780 150.4745930  60.9763370 132.5912390 150.2037640
  60.6433740 134.0024850 149.7685640  63.2094790 139.6896990 151.1354330
  62.7476320 138.9184230 151.4641500  64.0220340 139.7163060 151.6406780
  51.6145140 130.5558500 147.0173350  50.7261840 130.8974470 146.9153230
  51.8986330 130.3558820 146.1254180  59.4358100 141.9755000 150.7558320
  58.8169540 142.4312500 150.1852760  60.2909880 142.1306460 150.3548020
  53.7906530 129.1390000 148.0511730  53.8973280 130.0393730 148.3580490
  52.8798890 129.0907970 147.7606380  63.4425640 128.2614810 149.5222630
  64.2635260 127.7711380 149.5648110  63.4759720 128.8512470 150.2754470
  60.3021450 136.8594240 148.1490230  59.6838720 137.3243690 147.5852950
  60.8144700 137.5521720 148.5659740  49.6704650 137.5450770 145.5229860
  49.2932630 138.0337870 144.7914760  49.9277720 138.2176050 146.1536390
  57.2793580 125.9467160 150.9815370  57.5868560 125.3914050 150.2650870
  56.3494280 126.0811620 150.7988360  64.1254060 138.3850670 148.3613000
  64.0150390 137.4425000 148.4862420  64.1222310 138.7466310 149.2475760
  59.6674340 134.0115990 147.7175490  58.7403620 133.9453370 147.9463960
  59.8199160 134.9496120 147.6030730  59.6543420 130.2832990 144.7142650
  58.7147090 130.4446950 144.7995110  59.9726680 131.0018670 144.1678640
  63.6971630 135.5736290 148.2210740  63.0784050 135.2355840 147.5737040
  63.6796080 134.9296050 148.9289930  55.2730980 134.5380730 150.4995220
  54.8687980 133.8257980 150.0041120  55.3594100 134.1933970 151.3883260
  61.8736330 134.8123100 145.2283490  62.3129610 133.9745530 145.0821310
  62.5864750 135.4452500 145.3147630  59.9831710 139.7519170 149.1964730
  60.4227620 140.4943500 148.7820120  59.9218600 139.9945740 150.1203690
  65.4553470 126.0665910 143.5424530  65.1426130 126.1592740 144.4423600
  66.2165940 126.6446940 143.4921960  51.9735610 133.4325710 148.0001870
  51.8533210 134.1587800 147.3883140  51.6636500 132.6628620 147.5229780
  50.8568610 138.3041040 150.2176690  50.4496690 138.4455630 149.3630290
  51.7481620 138.0201200 150.0147900  62.6501890 142.7388290 146.5527740
  62.4903030 142.4491230 147.4509570  62.4848600 141.9628420 146.0172970
  55.1290270 142.5186820 148.3299360  54.9532750 141.6022360 148.1167160
  54.2746010 142.8774110 148.5697160  62.3528020 140.2475850 145.1125740
  61.6593180 140.2453140 144.4528020  63.0950880 139.8235170 144.6819910
  61.9177950 141.8738560 149.1874230  62.3734900 141.0927940 149.5012850
  62.2570470 142.5845380 149.7315410  54.4399270 126.7760780 151.3825540
  53.9967420 127.5570320 151.0510060  54.9984260 127.0990670 152.0896480
  57.5558090 126.3971480 146.2631370  56.9312270 126.3931350 146.9884680
  57.4688210 125.5302440 145.8667340  54.2313490 131.8994350 149.1106790
  54.0054410 131.6831520 150.0153410  53.4506020 132.3322810 148.7652760
  61.4611250 131.9057720 147.7097440  60.8620140 132.6293520 147.5261060
  62.0090860 131.8434500 146.9273890  60.0676120 130.5421260 149.7400720
  60.4605690 130.8593460 148.9269410  60.4292970 129.6633140 149.8545240
  49.2910520 131.0742180 143.1733640  49.2085190 132.0172940 143.3148630
  48.9393580 130.9317090 142.2945990  57.0908650 129.8081210 152.2403990
  57.0944710 129.3671160 151.3908530  57.9859770 130.1298540 152.3475810
  52.9411030 129.6907700 151.1998200  52.6011080 130.1682930 151.9565250
  52.1788350 129.2372820 150.8399300  57.1528800 130.8093290 145.2310750
  57.2741620 130.7679770 146.1796570  56.7677310 131.6717440 145.0757480
  56.1650300 133.1194430 144.6294050  55.5967200 132.6712680 144.0029960
  56.8739300 133.4787210 144.0959200  50.2557110 128.6126680 150.1162870
  49.9704030 128.2482350 150.9541490  50.1935970 127.8807140 149.5026010
  53.7097780 137.1152620 146.9020460  52.9360040 136.5750240 146.7419180
  54.4392410 136.5959230 146.5638220  59.9295700 127.5055940 146.8376240
  59.1160310 127.0069110 146.7621550  59.7357650 128.3454190 146.4212590
  62.6444090 131.8775590 145.1338400  63.5323710 132.1892820 144.9589740
  62.6149180 131.0047840 144.7418980  53.7535180 136.7833000 150.5399270
  54.2713850 135.9801260 150.4856160  53.3019200 136.7212140 151.3816100
  58.6404680 138.0499280 145.8126570  58.9820380 138.7941510 145.3169890
  57.8117390 138.3630400 146.1751400  64.9158360 133.1887430 144.6018260
  64.8322080 133.6201650 143.7514700  65.6352550 133.6485780 145.0345080
  65.9445610 140.0429690 147.3300390  65.3021770 139.3885310 147.6044110
  65.5576270 140.4484780 146.5541060  61.5232090 137.3715120 151.1772080
  61.8755910 136.7743250 150.5173450  60.6394420 137.0459350 151.3480330
  57.6095370 138.1312810 148.5842490  58.2966500 138.6782020 148.9650080
  56.8227790 138.6753540 148.6192100  49.7487770 133.7485630 144.0759570
  50.6182620 134.0310430 144.3595490  49.2578090 134.5621500 143.9608380
  56.9122580 135.1358840 148.1967850  57.3685360 135.9464090 148.4228040
  56.5610790 134.8181980 149.0286340  52.8134360 125.4796490 148.6690370
  52.6848990 125.4714390 149.6175290  51.9896380 125.8179580 148.3181380
  64.3342990 138.9346150 143.8676740  64.1080570 138.2176590 144.4601380
  63.9439190 138.6858590 143.0298490  50.1159020 142.9613010 144.6421200
  50.4756660 143.5602350 143.9878470  49.9751360 143.5072900 145.4156230
  63.9159240 136.8518090 145.5290900  63.6280940 137.3130780 146.3168780
  64.7111410 136.3915860 145.7975120  56.1327640 140.3444210 145.4594870
  56.1237740 141.0773900 144.8439380  55.2126000 140.0975790 145.5521830
  51.7334280 135.5659100 146.2041630  51.1262230 136.3058000 146.2136930
  52.2083630 135.6558460 145.3779830  64.6729100 128.6866860 146.6886080
  64.0442260 128.7912530 145.9744310  64.1781020 128.9063640 147.4779960
  59.1187240 140.4072450 144.1220060  59.2199220 140.2036440 143.1922040
  58.2188980 140.1530730 144.3267840  56.6413130 130.9652810 148.1043960
  55.9329280 131.4339150 148.5457570  56.9257610 130.3074820 148.7389150
  60.6728560 127.6903470 149.5439750  60.5496340 127.7089600 148.5949260
  61.6213120 127.7382410 149.6638150  57.7605350 142.9258770 148.8167730
  58.0146850 142.8880160 147.8947100  56.8117830 142.7992100 148.8095980
  54.8448150 129.2737890 145.4794670  55.6938680 129.7108040 145.4134860
  54.4779420 129.5858150 146.3066730  63.7657930 133.8450650 150.3926240
  62.8248070 133.8600880 150.5673930  64.0802000 133.0586610 150.8386540
  53.7439570 135.5270250 143.9530200  54.5102840 135.4151610 144.5155630
  53.8214260 134.8308220 143.3006970  52.4386330 132.9595320 144.6363090
  52.5189920 132.0122830 144.7480490  53.3306080 133.2902200 144.7423750
  53.2401040 143.1090710 151.7397630  53.9763520 142.5606170 152.0106200
  53.6241960 143.9746720 151.6003620  50.1246520 139.1764280 147.6139140
  49.1986300 139.4185420 147.6044550  50.5902950 140.0038540 147.4923890
  56.3503350 142.2821020 143.5623200  57.1431960 142.5709850 143.1104990
  55.8307700 141.8513190 142.8835680  65.4033520 141.5091150 144.9859940
  65.1175030 141.0956290 144.1714120  65.2053070 142.4378860 144.8660460
  56.8680750 137.5024430 143.4265550  56.7631390 136.8876780 144.1526930
  56.7004970 136.9790320 142.6428560  60.1083480 136.5644460 144.0307540
  59.5593580 137.0113760 144.6750280  60.7302740 136.0593710 144.5545210
  55.7758600 135.5235380 145.9272840  56.1975020 135.3575250 146.7704230
  55.9009440 134.7135610 145.4327980  58.2886240 134.5472990 143.1749940
  58.8091900 133.8322010 142.8091090  58.9354640 135.1858860 143.4750450
  54.6717500 131.5968610 142.8731000  54.4706560 130.7335970 143.2344340
  54.5009550 131.5101970 141.9352600  62.1505810 126.4076840 145.4017880
  62.4308100 125.5644740 145.7577300  61.3771540 126.6399950 145.9156630
  53.4700300 128.6969230 142.8608880  53.7726200 128.7036660 141.9528030
  54.2094890 128.3467090 143.3576540  56.6885230 127.6403850 143.8465080
  56.3407230 126.9627840 143.2667530  56.8898000 127.1793360 144.6608470
  58.8534270 142.6284600 145.4651680  59.7485060 142.9669570 145.4870440
  58.8851900 141.9064010 144.8375960  52.4930430 138.0011650 143.6938680
  52.9305300 138.5441320 144.3496260  52.9778160 137.1758600 143.7035020
  49.7076230 140.7900680 151.1458940  50.0379240 139.9221740 150.9137580
  50.1367230 140.9959200 151.9763900  54.3038150 139.1209690 148.8060910
  54.0033690 138.9974660 149.7064820  54.1975640 138.2618280 148.3976640
  67.0730070 138.9006090 143.5087590  66.2423030 138.9682740 143.9794820
  67.2501900 139.7910210 143.2054450  66.5286530 135.6453570 146.0121790
  67.2905440 136.2150220 146.1181480  66.5440900 135.0780770 146.7830100
  50.0290870 134.1691500 150.2429450  49.3739710 133.9003140 149.5989150
  50.8668820 134.0595980 149.7931430  67.5346500 136.5003670 150.8563720
  67.9055330 135.7170990 150.4499690  68.1748430 137.1892770 150.6781020
  66.5805700 135.9387940 143.1694310  66.8554540 136.8466820 143.0413530
  66.3916440 135.8750470 144.1056300  62.9781310 128.9632790 144.4647940
  63.3966190 128.7763770 143.6244600  62.6717370 128.1111840 144.7750870
  66.4771040 133.8756930 148.1623740  66.1014640 133.1084860 147.7305030
  65.7474160 134.2579630 148.6498670  49.2428950 131.3790430 146.1854780
  48.3393030 131.6420630 146.0106440  49.7269570 131.6501600 145.4054740
  65.7522000 132.1014420 151.4630980  66.2759480 131.6077070 150.8321150
  66.3381420 132.2364780 152.2078550  51.7856160 130.4355970 144.0949160
  52.4947860 130.0139190 143.6096440  51.0696100 130.5031200 143.4632510
  51.4330320 126.4895300 143.1351810  52.1558450 127.0304240 143.4533030
  51.7054840 126.2158720 142.2593350  65.2421970 131.3587770 147.4023390
  65.7381090 131.1258640 148.1872270  65.0438040 130.5199610 146.9861030
  66.6709130 129.9948720 149.9361070  66.5608410 129.8404760 150.8743340
  67.4316720 129.4669660 149.6936480  67.5599400 127.8256640 143.1767210
  68.4848710 127.6937820 142.9685500  67.5375190 127.9049460 144.1303660
  67.6337890 128.5967300 145.8023920  66.8389390 128.5312420 146.3316830
  67.8381170 129.5317940 145.7909270  64.5756310 142.6358850 149.7962310
  65.1715380 142.3143420 149.1196730  64.8334460 142.1630670 150.5875580
  64.0657820 126.9264180 152.2522750  64.5065910 126.8709280 151.4044350
  63.7965410 127.8422190 152.3232930  65.9296390 126.5579420 150.2631570
  65.8684790 125.6140640 150.1162590  66.7088420 126.6659510 150.8085030
  50.2349140 142.6971780 149.2255520  50.0671180 142.0642460 149.9237410
  49.3683650 142.9031180 148.8749710  50.8577160 126.5288560 146.7287380
  51.6156520 126.6417440 146.1551410  50.3954330 127.3657760 146.6830810
  57.3990970 128.6427830 149.7189690  56.5865480 128.2684720 149.3785570
  57.9032610 127.8872910 150.0210880  61.9015950 125.3070280 150.9572760
  62.5045320 125.8790490 151.4321280  61.1608940 125.8709720 150.7346660
  65.0450550 125.7091840 146.2313040  65.2401180 126.6075290 146.4980470
  64.2580420 125.4778920 146.7245990  51.8411840 141.3905010 146.6705660
  51.3159460 141.7713040 145.9667620  51.7656420 142.0155780 147.3915370
  53.2302310 127.0552610 145.2689350  53.7595070 126.2682410 145.1397300
  53.8630630 127.7343800 145.5024880  55.4240150 126.7927750 148.3234740
  54.7942890 126.0915060 148.4904870  54.8845290 127.5531880 148.1067900
  66.5977160 142.9492550 147.9919600  66.7729350 142.2630290 147.3480520
  65.8998730 143.4739600 147.5996270  54.4404810 143.3387390 145.5454910
  55.1723630 143.0546670 144.9978800  54.6998480 143.1000670 146.4354290
  53.6019600 139.4552120 145.5501240  52.9728480 139.9237220 146.0987070
  53.7167430 138.6101340 145.9847430  61.0569320 133.5057780 131.7002440
  60.9763370 132.5912390 131.4294150  60.6433740 134.0024850 130.9942150
  59.1887360 135.2836800 133.5811710  58.4129460 134.8037240 133.8710280
  59.8400290 134.6042450 133.4067870  53.2053190 135.5956610 134.4587470
  52.3738070 135.3405320 134.8583980  53.8134170 135.6667380 135.1945390
  63.2094790 139.6896990 132.3610840  62.7476320 138.9184230 132.6898010
  64.0220340 139.7163060 132.8663290  53.1854450 139.6296700 134.6545490
  53.4882490 138.7394440 134.4755710  53.9298040 140.1866920 134.4267740
  51.6145140 130.5558500 128.2429860  50.7261840 130.8974470 128.1409740
  51.8986330 130.3558820 127.3510690  49.5778150 133.1564150 134.1269560
  50.1494260 132.3886350 134.1273200  49.5779690 133.4552910 133.2176170
  59.4358100 141.9755000 131.9814830  58.8169540 142.4312500 131.4109270
  60.2909880 142.1306460 131.5804530  58.6296350 137.9593990 133.5881870
  58.5604630 137.0183930 133.4271000  59.3916210 138.0495400 134.1604440
  50.8203020 128.5648510 135.9138490  50.6405860 127.6674260 136.1941250
  50.4183100 129.1120380 136.5885440  59.6601520 130.7664370 133.8150800
  60.0366340 129.8936250 133.7024470  59.5621030 131.1023070 132.9241240
  53.7906530 129.1390000 129.2768240  53.8973280 130.0393730 129.5837000
  52.8798890 129.0907970 128.9862890  63.4425640 128.2614810 130.7479140
  64.2635260 127.7711380 130.7904620  63.4759720 128.8512470 131.5010980
  51.4389690 131.0609010 134.5220830  52.1199800 131.3247380 135.1408230
  51.1237740 130.2209880 134.8558840  55.6314260 132.1076370 133.6093420
  56.1392480 132.6057340 134.2498440  56.1627500 131.3311570 133.4332780
  67.7325190 130.2781560 137.3122770  67.0277360 130.6663270 136.7937880
  67.9983110 130.9731850 137.9143700  53.9150360 126.7474930 137.8756840
  53.9168800 127.2647320 137.0702740  53.0854670 126.2705110 137.8526770
  60.3021450 136.8594240 129.3746740  59.6838720 137.3243690 128.8109460
  60.8144700 137.5521720 129.7916250  55.1653210 136.3870110 136.0530340
  54.8322590 137.0139030 136.6951410  55.3419890 136.9131990 135.2732010
  63.6787120 130.2015190 133.5206680  62.9742690 130.4900080 134.1009790
  64.0399280 131.0115300 133.1606240  53.5965690 128.4584890 135.8827290
  53.9382500 129.3026940 135.5881160  52.6581500 128.6068630 135.9992630
  54.3772310 138.3550910 137.8679520  54.9946310 139.0301990 137.5863970
  53.5165430 138.7638890 137.7767020  49.6704650 137.5450770 126.7486370
  49.2932630 138.0337870 126.0171270  49.9277720 138.2176050 127.3792900
  65.2949900 139.8190320 135.7834160  64.6113420 140.4889430 135.7750830
  65.8344190 140.0170970 135.0179020  66.7474040 129.6469980 133.9115890
  65.7998950 129.6808960 134.0431320  67.0724030 130.4608930 134.2965250
  57.2793580 125.9467160 132.2071880  57.5868560 125.3914050 131.4907380
  56.3494280 126.0811620 132.0244870  62.8308640 141.6634450 134.4979340
  62.8435800 141.2596740 133.6301600  62.2783860 142.4381740 134.3940770
  64.1254060 138.3850670 129.5869510  64.0150390 137.4425000 129.7118930
  64.1222310 138.7466310 130.4732270  62.2294080 136.5664290 135.8261950
  62.6462870 136.3524400 134.9915410  62.9533900 136.8237080 136.3970570
  59.6674340 134.0115990 128.9432000  58.7403620 133.9453370 129.1720470
  59.8199160 134.9496120 128.8287240  59.6543420 130.2832990 125.9399160
  58.7147090 130.4446950 126.0251620  59.9726680 131.0018670 125.3935150
  66.1756180 134.9651510 135.9178190  65.3474810 135.0344600 135.4428320
  66.7706660 135.5505820 135.4494020  63.6971630 135.5736290 129.4467250
  63.0784050 135.2355840 128.7993550  63.6796080 134.9296050 130.1546440
  63.1398190 131.7520830 136.8633060  62.7269370 132.5774540 137.1173050
  62.4074140 131.1665870 136.6709420  55.2730980 134.5380730 131.7251730
  54.8687980 133.8257980 131.2297630  55.3594100 134.1933970 132.6139770
  55.7412680 138.2248290 133.8890940  55.4440970 137.6193760 133.2098720
  56.6912500 138.2625600 133.7780300  53.9859600 131.3123940 135.5050770
  54.5374190 131.4219280 134.7304020  54.5003110 131.6861540 136.2206000
  63.8298290 141.7980160 137.5514040  63.3528850 142.6052350 137.3586650
  63.1460080 141.1458490 137.7040250  54.8331110 137.9629980 140.5398740
  53.9359640 138.1869950 140.7872140  54.8583980 138.0864920 139.5910140
  61.8736330 134.8123100 126.4540000  62.3129610 133.9745530 126.3077820
  62.5864750 135.4452500 126.5404140  53.6602330 134.8343300 139.1156110
  53.5210100 135.7066100 139.4843510  52.7783690 134.4916110 138.9704050
  59.9831710 139.7519170 130.4221240  60.4227620 140.4943500 130.0076630
  59.9218600 139.9945740 131.3460200  55.4582680 140.7765000 141.3241260
  55.4298110 141.1807950 140.4569690  55.2947650 139.8475360 141.1612860
  65.4553470 126.0665910 124.7681040  65.1426130 126.1592740 125.6680110
  66.2165940 126.6446940 124.7178470  51.9735610 133.4325710 129.2258380
  51.8533210 134.1587800 128.6139650  51.6636500 132.6628620 128.7486290
  67.4097500 141.5592100 142.6205430  67.8857220 142.0374990 143.2994510
  68.0304660 141.4909590 141.8950930  49.6120980 136.6040850 135.0327020
  49.6901400 136.7389620 134.0882740  50.2262660 135.8956740 135.2255140
  50.8568610 138.3041040 131.4433200  50.4496690 138.4455630 130.5886800
  51.7481620 138.0201200 131.2404410  66.8130750 138.7504950 139.7805440
  66.9393810 138.5116830 138.8622620  66.8552130 137.9189490 140.2527520
  60.6747490 142.4532950 138.3500250  61.1892160 142.3640960 139.1522680
  59.8316570 142.7992650 138.6428160  62.6501890 142.7388290 127.7784250
  62.4903030 142.4491230 128.6766080  62.4848600 141.9628420 127.2429480
  55.1290270 142.5186820 129.5555870  54.9532750 141.6022360 129.3423670
  54.2746010 142.8774110 129.7953670  62.3528020 140.2475850 126.3382250
  61.6593180 140.2453140 125.6784530  63.0950880 139.8235170 125.9076420
  61.9177950 141.8738560 130.4130740  62.3734900 141.0927940 130.7269360
  62.2570470 142.5845380 130.9571920  66.6654760 130.8037410 140.7455180
  66.0499030 131.3117080 140.2170640  66.3451180 129.9035740 140.6881120
  49.6680500 137.6455020 137.5721480  49.8311540 137.1760380 136.7540850
  50.1332950 137.1378580 138.2370320  54.4399270 126.7760780 132.6082050
  53.9967420 127.5570320 132.2766570  54.9984260 127.0990670 133.3152990
  58.7269080 129.6429300 138.2117370  58.2648450 129.8512320 139.0237310
  58.3247190 128.8288650 137.9088040  63.7273590 130.8638250 139.3414030
  62.8767180 130.5644000 139.6623100  63.5675380 131.1080260 138.4297850
  60.8223300 132.3640000 141.4412820  61.1476710 131.5303750 141.1015050
  61.6103630 132.8868520 141.5891150  57.5558090 126.3971480 127.4887880
  56.9312270 126.3931350 128.2141190  57.4688210 125.5302440 127.0923850
  56.4775170 127.3208110 134.4671650  56.7747500 128.2270940 134.3863670
  57.0260730 126.8326890 133.8531220  54.2313490 131.8994350 130.3363300
  54.0054410 131.6831520 131.2409920  53.4506020 132.3322810 129.9909270
  61.4611250 131.9057720 128.9353950  60.8620140 132.6293520 128.7517570
  62.0090860 131.8434500 128.1530400  56.6712700 132.7979930 141.0023570
  56.5756300 131.8574660 140.8523970  57.5144680 133.0195000 140.6071640
  60.0676120 130.5421260 130.9657230  60.4605690 130.8593460 130.1525920
  60.4292970 129.6633140 131.0801750  51.8023240 129.2093600 139.1557350
  51.4086630 130.0568810 139.3630130  51.1141640 128.5719970 139.3465990
  58.3768290 129.2928570 142.2254090  57.6866610 129.1000770 142.8600180
  59.1200590 129.5763210 142.7578390  49.1040290 127.1322060 133.1887430
  48.8153340 127.7024920 133.9012410  49.8486050 126.6526510 133.5518660
  49.2910520 131.0742180 124.3990150  49.2085190 132.0172940 124.5405140
  48.9393580 130.9317090 123.5202500  60.6531260 133.1327010 135.0608010
  59.9212380 133.6413820 135.4098110  60.2555600 132.3156990 134.7596790
  57.0908650 129.8081210 133.4660500  57.0944710 129.3671160 132.6165040
  57.9859770 130.1298540 133.5732320  52.9411030 129.6907700 132.4254710
  52.6011080 130.1682930 133.1821760  52.1788350 129.2372820 132.0655810
  57.1528800 130.8093290 126.4567260  57.2741620 130.7679770 127.4053080
  56.7677310 131.6717440 126.3013990  61.1157170 128.5860690 134.4730950
  61.1329910 129.0369340 135.3172800  60.8672750 127.6866330 134.6864390
  56.1650300 133.1194430 125.8550560  55.5967200 132.6712680 125.2286470
  56.8739300 133.4787210 125.3215710  64.5427920 125.9992870 140.3117330
  64.8673690 125.2682530 140.8375310  64.5784430 125.6806510 139.4098320
  51.2419480 137.0206450 139.7317290  50.8574270 136.3800120 140.3300250
  51.5531670 137.7242570 140.3012020  57.3916620 133.8682990 135.2125910
  57.7586750 133.3941560 135.9587250  57.2021680 134.7424560 135.5534250
  50.2557110 128.6126680 131.3419380  49.9704030 128.2482350 132.1798000
  50.1935970 127.8807140 130.7282520  55.1815990 132.9091630 137.5310120
  54.8773060 133.7883610 137.7560480  56.1362450 132.9691420 137.5667560
  53.7097780 137.1152620 128.1276970  52.9360040 136.5750240 127.9675690
  54.4392410 136.5959230 127.7894730  64.4685760 136.1117980 133.9203360
  65.1884880 136.6073270 133.5299470  64.2667580 135.4335870 133.2757230
  59.9295700 127.5055940 128.0632750  59.1160310 127.0069110 127.9878060
  59.7357650 128.3454190 127.6469100  59.8504560 136.1827040 139.8072360
  59.7841870 135.2622710 139.5529950  59.2209700 136.2802480 140.5217000
  62.6444090 131.8775590 126.3594910  63.5323710 132.1892820 126.1846250
  62.6149180 131.0047840 125.9675490  53.7535180 136.7833000 131.7655780
  54.2713850 135.9801260 131.7112670  53.3019200 136.7212140 132.6072610
  58.6404680 138.0499280 127.0383080  58.9820380 138.7941510 126.5426400
  57.8117390 138.3630400 127.4007910  51.2379720 133.7494370 138.6781480
  50.8794660 134.4148220 139.2654820  50.9434280 132.9177920 139.0494100
  54.4392840 134.2078610 141.5621030  54.1392980 134.3535790 140.6648850
  55.2104080 133.6483900 141.4694420  59.7821290 139.0047610 139.5576160
  59.7965830 138.0728570 139.3395070  59.0746390 139.0907370 140.1965930
  64.9158360 133.1887430 125.8274770  64.8322080 133.6201650 124.9771210
  65.6352550 133.6485780 126.2601590  65.9932500 135.6454950 138.9044740
  65.2680690 136.2383730 138.7074130  66.5207960 135.6378490 138.1058110
  65.9445610 140.0429690 128.5556900  65.3021770 139.3885310 128.8300620
  65.5576270 140.4484780 127.7797570  61.5232090 137.3715120 132.4028590
  61.8755910 136.7743250 131.7429960  60.6394420 137.0459350 132.5736840
  57.6095370 138.1312810 129.8099000  58.2966500 138.6782020 130.1906590
  56.8227790 138.6753540 129.8448610  49.7487770 133.7485630 125.3016080
  50.6182620 134.0310430 125.5852000  49.2578090 134.5621500 125.1864890
  56.9122580 135.1358840 129.4224360  57.3685360 135.9464090 129.6484550
  56.5610790 134.8181980 130.2542850  59.2155190 140.6465180 136.6516660
  59.8597410 140.8524560 137.3290080  59.5784630 139.8853580 136.1987510
  52.8134360 125.4796490 129.8946880  52.6848990 125.4714390 130.8431800
  51.9896380 125.8179580 129.5437890  60.4887270 138.6497530 135.3694110
  61.1309500 137.9490690 135.4826280  61.0136620 139.4295970 135.1891000
  64.3342990 138.9346150 125.0933250  64.1080570 138.2176590 125.6857890
  63.9439190 138.6858590 124.2555000  62.2624890 139.4492430 138.5730170
  62.5981130 140.0359120 139.2508090  61.3425230 139.3185140 138.8027960
  50.1159020 142.9613010 125.8677710  50.4756660 143.5602350 125.2134980
  49.9751360 143.5072900 126.6412740  49.8128290 127.2387610 139.3553580
  49.0986810 127.4384530 139.9606190  50.2323330 126.4627180 139.7268380
  63.9159240 136.8518090 126.7547410  63.6280940 137.3130780 127.5425290
  64.7111410 136.3915860 127.0231630  50.1000880 141.2267870 140.3420110
  50.2092000 140.2862610 140.2015500  49.4481440 141.4922620 139.6933840
  58.0913470 139.4983760 141.7418230  57.7710340 138.7793000 142.2863920
  57.4171830 140.1738830 141.8154290  56.1327640 140.3444210 126.6851380
  56.1237740 141.0773900 126.0695890  55.2126000 140.0975790 126.7778340
  51.7334280 135.5659100 127.4298140  51.1262230 136.3058000 127.4393440
  52.2083630 135.6558460 126.6036340  61.3067070 129.7309920 137.1055030
  61.6747890 128.9105130 137.4334600  60.4465270 129.7911810 137.5210680
  64.6729100 128.6866860 127.9142590  64.0442260 128.7912530 127.2000820
  64.1781020 128.9063640 128.7036470  59.1187240 140.4072450 125.3476570
  59.2199220 140.2036440 124.4178550  58.2188980 140.1530730 125.5524350
  56.6413130 130.9652810 129.3300470  55.9329280 131.4339150 129.7714080
  56.9257610 130.3074820 129.9645660  58.2669060 132.3849510 137.3293000
  58.7654310 132.8595330 137.9944850  58.4092010 131.4613030 137.5363030
  60.6728560 127.6903470 130.7696260  60.5496340 127.7089600 129.8205770
  61.6213120 127.7382410 130.8894660  57.7605350 142.9258770 130.0424240
  58.0146850 142.8880160 129.1203610  56.8117830 142.7992100 130.0352490
  54.8448150 129.2737890 126.7051180  55.6938680 129.7108040 126.6391370
  54.4779420 129.5858150 127.5323240  65.4735920 128.6017470 138.1721390
  64.9709520 129.3422870 138.5115200  66.2892580 128.9901470 137.8558180
  63.7657930 133.8450650 131.6182750  62.8248070 133.8600880 131.7930440
  64.0802000 133.0586610 132.0643050  53.7439570 135.5270250 125.1786710
  54.5102840 135.4151610 125.7412140  53.8214260 134.8308220 124.5263480
  52.4386330 132.9595320 125.8619600  52.5189920 132.0122830 125.9737000
  53.3306080 133.2902200 125.9680260  65.7683510 141.0159500 133.2937010
  65.8930930 141.8390670 133.7660820  66.6349070 140.8050230 132.9461160
  53.2401040 143.1090710 132.9654140  53.9763520 142.5606170 133.2362710
  53.6241960 143.9746720 132.8260130  50.1246520 139.1764280 128.8395650
  49.1986300 139.4185420 128.8301060  50.5902950 140.0038540 128.7180400
  52.2459320 142.2936780 142.1539720  53.0472050 142.6148830 142.5675120
  51.7311140 141.9332360 142.8759630  56.3503350 142.2821020 124.7879710
  57.1431960 142.5709850 124.3361500  55.8307700 141.8513190 124.1092190
  61.0823950 138.4016650 142.1015130  60.4762110 138.4248250 141.3610880
  60.7778060 137.6699690 142.6382380  62.5124320 142.1296940 140.7124540
  63.4646070 142.0454960 140.6624780  62.3652540 142.7938650 141.3858330
  65.4033520 141.5091150 126.2116450  65.1175030 141.0956290 125.3970630
  65.2053070 142.4378860 126.0916970  49.9657130 134.7810240 141.0975770
  50.4696150 134.2017520 141.6692000  49.2264550 135.0650470 141.6352140
  56.8680750 137.5024430 124.6522060  56.7631390 136.8876780 125.3783440
  56.7004970 136.9790320 123.8685070  57.0195070 136.1881230 140.6311290
  56.2540740 136.7566230 140.5465960  57.2011030 135.8957440 139.7379520
  60.1083480 136.5644460 125.2564050  59.5593580 137.0113760 125.9006790
  60.7302740 136.0593710 125.7801720  64.1618420 137.9186560 141.1886310
  64.9027890 138.2562320 140.6853770  63.3991100 138.0878620 140.6356080
  51.9980210 132.9239830 141.9925840  52.0385550 132.6253700 142.9011070
  52.8525710 133.3247440 141.8333360  55.7758600 135.5235380 127.1529350
  56.1975020 135.3575250 127.9960740  55.9009440 134.7135610 126.6584490
  53.9386020 131.5031930 139.9600330  53.4082480 131.0122880 139.3323670
  54.6074090 131.9316130 139.4258260  58.2886240 134.5472990 124.4006450
  58.8091900 133.8322010 124.0347600  58.9354640 135.1858860 124.7006960
  62.8364080 135.9701390 139.7241520  63.2505100 136.1246470 140.5731940
  61.9015080 136.0956610 139.8867300  63.3086250 133.3097550 141.7280670
  63.8907020 132.5549870 141.6401150  63.4848020 133.8404990 140.9512150
  54.4258320 128.4694300 140.0397620  54.3315190 127.8515050 139.3148490
  53.8455710 129.1960590 139.8127530  57.1919760 127.0267540 137.0725010
  56.7437060 127.0491800 136.2270560  56.5584960 126.6286560 137.6695310
  57.5979310 135.9221870 137.6937450  58.0167420 136.7654600 137.5213690
  56.6787940 136.0593910 137.4644230  59.9343210 133.6538050 139.0775290
  60.0539420 133.0579190 139.8170130  60.7937210 133.6907740 138.6576590
  62.2731110 134.2075240 137.6537800  61.7466330 134.7317860 137.0502940
  62.6162450 134.8402630 138.2847530  54.6717500 131.5968610 124.0987510
  54.4706560 130.7335970 124.4600850  54.5009550 131.5101970 123.1609110
  55.4486730 142.2274880 138.8095180  54.9107820 142.9520940 138.4903880
  55.7020690 141.7505220 138.0192520  56.7011980 130.1959400 140.3351110
  57.2911670 129.8875250 141.0228930  55.8832220 129.7239150 140.4911010
  61.5205410 129.8125210 140.5684130  60.8320930 129.1506750 140.5034120
  62.2411430 129.3663480 141.0132590  62.1505810 126.4076840 126.6274390
  62.4308100 125.5644740 126.9833810  61.3771540 126.6399950 127.1413140
  53.4700300 128.6969230 124.0865390  53.7726200 128.7036660 123.1784540
  54.2094890 128.3467090 124.5833050  58.3048940 143.4626090 139.0681830
  58.2307640 144.3661230 139.3754200  57.4027780 143.1437990 139.0403900
  56.6885230 127.6403850 125.0721590  56.3407230 126.9627840 124.4924040
  56.8898000 127.1793360 125.8864980  58.8534270 142.6284600 126.6908190
  59.7485060 142.9669570 126.7126950  58.8851900 141.9064010 126.0632470
  52.4930430 138.0011650 124.9195190  52.9305300 138.5441320 125.5752770
  52.9778160 137.1758600 124.9291530  49.7076230 140.7900680 132.3715450
  50.0379240 139.9221740 132.1394090  50.1367230 140.9959200 133.2020410
  54.3038150 139.1209690 130.0317420  54.0033690 138.9974660 130.9321330
  54.1975640 138.2618280 129.6233150  50.1966440 141.6571270 135.1097080
  49.7597430 141.8372070 135.9421230  50.7644120 142.4145890 134.9678800
  65.8328620 141.1588270 139.3974390  65.2330610 141.2180830 138.6538310
  65.9622520 140.2193250 139.5271240  67.0730070 138.9006090 124.7344100
  66.2423030 138.9682740 125.2051330  67.2501900 139.7910210 124.4310960
  66.5286530 135.6453570 127.2378300  67.2905440 136.2150220 127.3437990
  66.5440900 135.0780770 128.0086610  50.0290870 134.1691500 131.4685960
  49.3739710 133.9003140 130.8245660  50.8668820 134.0595980 131.0187940
  67.5346500 136.5003670 132.0820230  67.9055330 135.7170990 131.6756200
  68.1748430 137.1892770 131.9037530  64.5180260 137.8840250 137.4950550
  63.7040100 138.3137410 137.7576340  64.9254460 138.4958660 136.8819600
  66.5805700 135.9387940 124.3950820  66.8554540 136.8466820 124.2670040
  66.3916440 135.8750470 125.3312810  62.9781310 128.9632790 125.6904450
  63.3966190 128.7763770 124.8501110  62.6717370 128.1111840 126.0007380
  66.4771040 133.8756930 129.3880250  66.1014640 133.1084860 128.9561540
  65.7474160 134.2579630 129.8755180  51.0666800 134.5544070 136.0089300
  51.4339840 134.4671470 136.8885320  50.4977620 133.7910620 135.9096160
  65.8670660 133.0228450 139.0219770  65.6356750 132.7941200 138.1217720
  66.1275210 133.9428000 138.9764660  50.6182800 131.4653160 139.9147720
  49.7238850 131.4319920 140.2541430  51.1580350 131.6639950 140.6798970
  64.3058730 128.2484880 141.7999470  65.1828910 128.2568280 142.1833470
  64.3179570 127.5115720 141.1891820  49.2428950 131.3790430 127.4111290
  48.3393030 131.6420630 127.2362950  49.7269570 131.6501600 126.6311250
  65.7522000 132.1014420 132.6887490  66.2759480 131.6077070 132.0577660
  66.3381420 132.2364780 133.4335060  65.9311720 132.1854290 136.2107040
  64.9814430 132.1517830 136.3252030  66.1124730 133.0954400 135.9756810
  51.7856160 130.4355970 125.3205670  52.4947860 130.0139190 124.8352950
  51.0696100 130.5031200 124.6889020  51.4330320 126.4895300 124.3608320
  52.1558450 127.0304240 124.6789540  51.7054840 126.2158720 123.4849860
  65.2421970 131.3587770 128.6279900  65.7381090 131.1258640 129.4128780
  65.0438040 130.5199610 128.2117540  51.1222510 125.7401490 134.2630940
  51.7698700 125.1898870 133.8226100  51.5424350 125.9944640 135.0846750
  66.6709130 129.9948720 131.1617580  66.5608410 129.8404760 132.0999850
  67.4316720 129.4669660 130.9192990  65.0174850 125.9342850 137.6200580
  65.6547070 126.5476990 137.9859770  65.1649740 125.9703510 136.6749810
  67.5599400 127.8256640 124.4023720  68.4848710 127.6937820 124.1942010
  67.5375190 127.9049460 125.3560170  67.6337890 128.5967300 127.0280430
  66.8389390 128.5312420 127.5573340  67.8381170 129.5317940 127.0165780
  64.5756310 142.6358850 131.0218820  65.1715380 142.3143420 130.3453240
  64.8334460 142.1630670 131.8132090  50.8754510 125.8957160 137.0056260
  50.5269330 126.3520980 137.7714440  50.5442210 125.0014290 137.0878690
  52.4818880 139.0676760 141.1709450  52.4388510 138.6969670 142.0523910
  52.6129890 140.0054330 141.3111270  56.1824910 140.6236350 136.7719170
  55.9416270 140.8910910 135.8849690  57.1227550 140.7942080 136.8270030
  58.3879330 127.0869040 140.5275680  58.3268220 127.6790870 141.2771090
  59.3279710 126.9795000 140.3825940  61.0253890 126.7439100 140.1667970
  61.6394300 127.0618390 139.5049050  61.5703450 126.2587690 140.7863830
  67.4429070 142.6430730 137.5729810  66.9487350 143.0399600 136.8556940
  66.8342360 142.0179940 137.9667090  51.5475150 125.4233360 140.2807030
  52.0958140 125.2421410 139.5173140  51.6130460 124.6327470 140.8163340
  52.3206910 142.0139010 138.2907230  51.7267230 141.8823710 139.0297270
  52.3130750 141.1777150 137.8249330  61.7661930 125.3071240 136.4937260
  60.8921770 125.6406350 136.2910190  61.6572680 124.8344420 137.3189130
  62.6733910 127.5142110 137.8778980  62.3447270 126.6993870 137.4980710
  63.6216210 127.4711920 137.7544670  65.1268520 143.2854150 134.8516550
  64.6671490 144.0369960 134.4774570  64.4980980 142.5660620 134.7931350
  51.9519140 139.3797390 137.2415270  51.2253200 138.7602680 137.1741220
  52.0128290 139.7738000 136.3713350  55.5564240 141.5942390 134.0264680
  56.0729260 140.9829750 133.5012940  56.2061620 142.0971170 134.5175690
  58.2959740 142.4850880 134.8533660  58.5837550 142.2305180 133.9766670
  58.8082960 141.9328240 135.4439230  59.5136750 126.2241080 135.4330170
  58.7308540 126.6986580 135.7126930  59.2199680 125.3195910 135.3243350
  64.0657820 126.9264180 133.4779260  64.5065910 126.8709280 132.6300860
  63.7965410 127.8422190 133.5489440  65.9296390 126.5579420 131.4888080
  65.8684790 125.6140640 131.3419100  66.7088420 126.6659510 132.0341540
  50.2349140 142.6971780 130.4512030  50.0671180 142.0642460 131.1493920
  49.3683650 142.9031180 130.1006220  50.8577160 126.5288560 127.9543890
  51.6156520 126.6417440 127.3807920  50.3954330 127.3657760 127.9087320
  57.3990970 128.6427830 130.9446200  56.5865480 128.2684720 130.6042080
  57.9032610 127.8872910 131.2467390  61.9015950 125.3070280 132.1829270
  62.5045320 125.8790490 132.6577790  61.1608940 125.8709720 131.9603170
  65.0450550 125.7091840 127.4569550  65.2401180 126.6075290 127.7236980
  64.2580420 125.4778920 127.9502500  51.8411840 141.3905010 127.8962170
  51.3159460 141.7713040 127.1924130  51.7656420 142.0155780 128.6171880
  53.2302310 127.0552610 126.4945860  53.7595070 126.2682410 126.3653810
  53.8630630 127.7343800 126.7281390  55.4240150 126.7927750 129.5491250
  54.7942890 126.0915060 129.7161380  54.8845290 127.5531880 129.3324410
  58.3632100 143.4066980 142.2201860  59.2899410 143.1711250 142.2637820
  58.3482530 144.2338980 141.7387890  66.5977160 142.9492550 129.2176110
  66.7729350 142.2630290 128.5737030  65.8998730 143.4739600 128.8252780
  55.5495710 126.0711730 141.9843740  55.2679980 126.5745330 141.2204560
  55.9315410 125.2733480 141.6185870  54.4404810 143.3387390 126.7711420
  55.1723630 143.0546670 126.2235310  54.6998480 143.1000670 127.6610800
  53.6019600 139.4552120 126.7757750  52.9728480 139.9237220 127.3243580
  53.7167430 138.6101340 127.2103940  62.1511170 125.4865310 142.5624210
  62.0376620 125.8059920 143.4575730  62.9680910 125.8877820 142.2661490
  64.9309660 142.6336840 142.0442900  65.7234980 142.1386070 141.8368860
  65.2242810 143.3126980 142.6518510  61.0569320 133.5057780 112.9258950
  60.9763370 132.5912390 112.6550660  60.6433740 134.0024850 112.2198660
  59.1887360 135.2836800 114.8068220  58.4129460 134.8037240 115.0966790
  59.8400290 134.6042450 114.6324380  53.2053190 135.5956610 115.6843980
  52.3738070 135.3405320 116.0840490  53.8134170 135.6667380 116.4201900
  63.2094790 139.6896990 113.5867350  62.7476320 138.9184230 113.9154520
  64.0220340 139.7163060 114.0919800  53.1854450 139.6296700 115.8802000
  53.4882490 138.7394440 115.7012220  53.9298040 140.1866920 115.6524250
  51.6145140 130.5558500 109.4686370  50.7261840 130.8974470 109.3666250
  51.8986330 130.3558820 108.5767200  49.5778150 133.1564150 115.3526070
  50.1494260 132.3886350 115.3529710  49.5779690 133.4552910 114.4432680
  59.4358100 141.9755000 113.2071340  58.8169540 142.4312500 112.6365780
  60.2909880 142.1306460 112.8061040  58.6296350 137.9593990 114.8138380
  58.5604630 137.0183930 114.6527510  59.3916210 138.0495400 115.3860950
  50.8203020 128.5648510 117.1395000  50.6405860 127.6674260 117.4197760
  50.4183100 129.1120380 117.8141950  59.6601520 130.7664370 115.0407310
  60.0366340 129.8936250 114.9280980  59.5621030 131.1023070 114.1497750
  63.4425640 128.2614810 111.9735650  64.2635260 127.7711380 112.0161130
  63.4759720 128.8512470 112.7267490  51.4389690 131.0609010 115.7477340
  52.1199800 131.3247380 116.3664740  51.1237740 130.2209880 116.0815350
  55.6314260 132.1076370 114.8349930  56.1392480 132.6057340 115.4754950
  56.1627500 131.3311570 114.6589290  67.7325190 130.2781560 118.5379280
  67.0277360 130.6663270 118.0194390  67.9983110 130.9731850 119.1400210
  53.9150360 126.7474930 119.1013350  53.9168800 127.2647320 118.2959250
  53.0854670 126.2705110 119.0783280  60.3021450 136.8594240 110.6003250
  59.6838720 137.3243690 110.0365970  60.8144700 137.5521720 111.0172760
  55.1653210 136.3870110 117.2786850  54.8322590 137.0139030 117.9207920
  55.3419890 136.9131990 116.4988520  63.6787120 130.2015190 114.7463190
  62.9742690 130.4900080 115.3266300  64.0399280 131.0115300 114.3862750
  53.5965690 128.4584890 117.1083800  53.9382500 129.3026940 116.8137670
  52.6581500 128.6068630 117.2249140  54.3772310 138.3550910 119.0936030
  54.9946310 139.0301990 118.8120480  53.5165430 138.7638890 119.0023530
  49.6704650 137.5450770 107.9742880  49.2932630 138.0337870 107.2427780
  49.9277720 138.2176050 108.6049410  65.2949900 139.8190320 117.0090670
  64.6113420 140.4889430 117.0007340  65.8344190 140.0170970 116.2435530
  66.7474040 129.6469980 115.1372400  65.7998950 129.6808960 115.2687830
  67.0724030 130.4608930 115.5221760  62.8308640 141.6634450 115.7235850
  62.8435800 141.2596740 114.8558110  62.2783860 142.4381740 115.6197280
  64.1254060 138.3850670 110.8126020  64.0150390 137.4425000 110.9375440
  64.1222310 138.7466310 111.6988780  62.2294080 136.5664290 117.0518460
  62.6462870 136.3524400 116.2171920  62.9533900 136.8237080 117.6227080
  59.6674340 134.0115990 110.1688510  58.7403620 133.9453370 110.3976980
  59.8199160 134.9496120 110.0543750  59.6543420 130.2832990 107.1655670
  58.7147090 130.4446950 107.2508130  59.9726680 131.0018670 106.6191660
  66.1756180 134.9651510 117.1434700  65.3474810 135.0344600 116.6684830
  66.7706660 135.5505820 116.6750530  63.6971630 135.5736290 110.6723760
  63.0784050 135.2355840 110.0250060  63.6796080 134.9296050 111.3802950
  63.1398190 131.7520830 118.0889570  62.7269370 132.5774540 118.3429560
  62.4074140 131.1665870 117.8965930  55.2730980 134.5380730 112.9508240
  54.8687980 133.8257980 112.4554140  55.3594100 134.1933970 113.8396280
  55.7412680 138.2248290 115.1147450  55.4440970 137.6193760 114.4355230
  56.6912500 138.2625600 115.0036810  53.9859600 131.3123940 116.7307280
  54.5374190 131.4219280 115.9560530  54.5003110 131.6861540 117.4462510
  63.8298290 141.7980160 118.7770550  63.3528850 142.6052350 118.5843160
  63.1460080 141.1458490 118.9296760  54.8331110 137.9629980 121.7655250
  53.9359640 138.1869950 122.0128650  54.8583980 138.0864920 120.8166650
  61.8736330 134.8123100 107.6796510  62.3129610 133.9745530 107.5334330
  62.5864750 135.4452500 107.7660650  53.6602330 134.8343300 120.3412620
  53.5210100 135.7066100 120.7100020  52.7783690 134.4916110 120.1960560
  59.9831710 139.7519170 111.6477750  60.4227620 140.4943500 111.2333140
  59.9218600 139.9945740 112.5716710  55.4582680 140.7765000 122.5497770
  55.4298110 141.1807950 121.6826200  55.2947650 139.8475360 122.3869370
  51.9735610 133.4325710 110.4514890  51.8533210 134.1587800 109.8396160
  51.6636500 132.6628620 109.9742800  67.4097500 141.5592100 123.8461940
  67.8857220 142.0374990 124.5251020  68.0304660 141.4909590 123.1207440
  49.6120980 136.6040850 116.2583530  49.6901400 136.7389620 115.3139250
  50.2262660 135.8956740 116.4511650  50.8568610 138.3041040 112.6689710
  50.4496690 138.4455630 111.8143310  51.7481620 138.0201200 112.4660920
  66.8130750 138.7504950 121.0061950  66.9393810 138.5116830 120.0879130
  66.8552130 137.9189490 121.4784030  60.6747490 142.4532950 119.5756760
  61.1892160 142.3640960 120.3779190  59.8316570 142.7992650 119.8684670
  62.6501890 142.7388290 109.0040760  62.4903030 142.4491230 109.9022590
  62.4848600 141.9628420 108.4685990  55.1290270 142.5186820 110.7812380
  54.9532750 141.6022360 110.5680180  54.2746010 142.8774110 111.0210180
  62.3528020 140.2475850 107.5638760  61.6593180 140.2453140 106.9041040
  63.0950880 139.8235170 107.1332930  61.9177950 141.8738560 111.6387250
  62.3734900 141.0927940 111.9525870  62.2570470 142.5845380 112.1828430
  66.6654760 130.8037410 121.9711690  66.0499030 131.3117080 121.4427150
  66.3451180 129.9035740 121.9137630  49.6680500 137.6455020 118.7977990
  49.8311540 137.1760380 117.9797360  50.1332950 137.1378580 119.4626830
  58.7269080 129.6429300 119.4373880  58.2648450 129.8512320 120.2493820
  58.3247190 128.8288650 119.1344550  63.7273590 130.8638250 120.5670540
  62.8767180 130.5644000 120.8879610  63.5675380 131.1080260 119.6554360
  60.8223300 132.3640000 122.6669330  61.1476710 131.5303750 122.3271560
  61.6103630 132.8868520 122.8147660  56.4775170 127.3208110 115.6928160
  56.7747500 128.2270940 115.6120180  57.0260730 126.8326890 115.0787730
  54.2313490 131.8994350 111.5619810  54.0054410 131.6831520 112.4666430
  53.4506020 132.3322810 111.2165780  61.4611250 131.9057720 110.1610460
  60.8620140 132.6293520 109.9774080  62.0090860 131.8434500 109.3786910
  56.6712700 132.7979930 122.2280080  56.5756300 131.8574660 122.0780480
  57.5144680 133.0195000 121.8328150  60.0676120 130.5421260 112.1913740
  60.4605690 130.8593460 111.3782430  60.4292970 129.6633140 112.3058260
  51.8023240 129.2093600 120.3813860  51.4086630 130.0568810 120.5886640
  51.1141640 128.5719970 120.5722500  58.3768290 129.2928570 123.4510600
  57.6866610 129.1000770 124.0856690  59.1200590 129.5763210 123.9834900
  49.1040290 127.1322060 114.4143940  48.8153340 127.7024920 115.1268920
  49.8486050 126.6526510 114.7775170  49.2910520 131.0742180 105.6246660
  49.2085190 132.0172940 105.7661650  48.9393580 130.9317090 104.7459010
  60.6531260 133.1327010 116.2864520  59.9212380 133.6413820 116.6354620
  60.2555600 132.3156990 115.9853300  57.0908650 129.8081210 114.6917010
  57.0944710 129.3671160 113.8421550  57.9859770 130.1298540 114.7988830
  52.9411030 129.6907700 113.6511220  52.6011080 130.1682930 114.4078270
  52.1788350 129.2372820 113.2912320  57.1528800 130.8093290 107.6823770
  57.2741620 130.7679770 108.6309590  56.7677310 131.6717440 107.5270500
  61.1157170 128.5860690 115.6987460  61.1329910 129.0369340 116.5429310
  60.8672750 127.6866330 115.9120900  56.1650300 133.1194430 107.0807070
  55.5967200 132.6712680 106.4542980  56.8739300 133.4787210 106.5472220
  64.5427920 125.9992870 121.5373840  64.8673690 125.2682530 122.0631820
  64.5784430 125.6806510 120.6354830  51.2419480 137.0206450 120.9573800
  50.8574270 136.3800120 121.5556760  51.5531670 137.7242570 121.5268530
  57.3916620 133.8682990 116.4382420  57.7586750 133.3941560 117.1843760
  57.2021680 134.7424560 116.7790760  50.2557110 128.6126680 112.5675890
  49.9704030 128.2482350 113.4054510  50.1935970 127.8807140 111.9539030
  55.1815990 132.9091630 118.7566630  54.8773060 133.7883610 118.9816990
  56.1362450 132.9691420 118.7924070  53.7097780 137.1152620 109.3533480
  52.9360040 136.5750240 109.1932200  54.4392410 136.5959230 109.0151240
  64.4685760 136.1117980 115.1459870  65.1884880 136.6073270 114.7555980
  64.2667580 135.4335870 114.5013740  59.8504560 136.1827040 121.0328870
  59.7841870 135.2622710 120.7786460  59.2209700 136.2802480 121.7473510
  62.6444090 131.8775590 107.5851420  63.5323710 132.1892820 107.4102760
  62.6149180 131.0047840 107.1932000  53.7535180 136.7833000 112.9912290
  54.2713850 135.9801260 112.9369180  53.3019200 136.7212140 113.8329120
  58.6404680 138.0499280 108.2639590  58.9820380 138.7941510 107.7682910
  57.8117390 138.3630400 108.6264420  51.2379720 133.7494370 119.9037990
  50.8794660 134.4148220 120.4911330  50.9434280 132.9177920 120.2750610
  54.4392840 134.2078610 122.7877540  54.1392980 134.3535790 121.8905360
  55.2104080 133.6483900 122.6950930  59.7821290 139.0047610 120.7832670
  59.7965830 138.0728570 120.5651580  59.0746390 139.0907370 121.4222440
  64.9158360 133.1887430 107.0531280  64.8322080 133.6201650 106.2027720
  65.6352550 133.6485780 107.4858100  65.9932500 135.6454950 120.1301250
  65.2680690 136.2383730 119.9330640  66.5207960 135.6378490 119.3314620
  65.9445610 140.0429690 109.7813410  65.3021770 139.3885310 110.0557130
  65.5576270 140.4484780 109.0054080  61.5232090 137.3715120 113.6285100
  61.8755910 136.7743250 112.9686470  60.6394420 137.0459350 113.7993350
  57.6095370 138.1312810 111.0355510  58.2966500 138.6782020 111.4163100
  56.8227790 138.6753540 111.0705120  49.7487770 133.7485630 106.5272590
  50.6182620 134.0310430 106.8108510  49.2578090 134.5621500 106.4121400
  56.9122580 135.1358840 110.6480870  57.3685360 135.9464090 110.8741060
  56.5610790 134.8181980 111.4799360  59.2155190 140.6465180 117.8773170
  59.8597410 140.8524560 118.5546590  59.5784630 139.8853580 117.4244020
  60.4887270 138.6497530 116.5950620  61.1309500 137.9490690 116.7082790
  61.0136620 139.4295970 116.4147510  64.3342990 138.9346150 106.3189760
  64.1080570 138.2176590 106.9114400  63.9439190 138.6858590 105.4811510
  62.2624890 139.4492430 119.7986680  62.5981130 140.0359120 120.4764600
  61.3425230 139.3185140 120.0284470  50.1159020 142.9613010 107.0934220
  50.4756660 143.5602350 106.4391490  49.9751360 143.5072900 107.8669250
  49.8128290 127.2387610 120.5810090  49.0986810 127.4384530 121.1862700
  50.2323330 126.4627180 120.9524890  63.9159240 136.8518090 107.9803920
  63.6280940 137.3130780 108.7681800  64.7111410 136.3915860 108.2488140
  50.1000880 141.2267870 121.5676620  50.2092000 140.2862610 121.4272010
  49.4481440 141.4922620 120.9190350  58.0913470 139.4983760 122.9674740
  57.7710340 138.7793000 123.5120430  57.4171830 140.1738830 123.0410800
  56.1327640 140.3444210 107.9107890  56.1237740 141.0773900 107.2952400
  55.2126000 140.0975790 108.0034850  51.7334280 135.5659100 108.6554650
  51.1262230 136.3058000 108.6649950  52.2083630 135.6558460 107.8292850
  61.3067070 129.7309920 118.3311540  61.6747890 128.9105130 118.6591110
  60.4465270 129.7911810 118.7467190  64.6729100 128.6866860 109.1399100
  64.0442260 128.7912530 108.4257330  64.1781020 128.9063640 109.9292980
  59.1187240 140.4072450 106.5733080  59.2199220 140.2036440 105.6435060
  58.2188980 140.1530730 106.7780860  56.6413130 130.9652810 110.5556980
  55.9329280 131.4339150 110.9970590  56.9257610 130.3074820 111.1902170
  58.2669060 132.3849510 118.5549510  58.7654310 132.8595330 119.2201360
  58.4092010 131.4613030 118.7619540  60.6728560 127.6903470 111.9952770
  60.5496340 127.7089600 111.0462280  61.6213120 127.7382410 112.1151170
  57.7605350 142.9258770 111.2680750  58.0146850 142.8880160 110.3460120
  56.8117830 142.7992100 111.2609000  54.8448150 129.2737890 107.9307690
  55.6938680 129.7108040 107.8647880  54.4779420 129.5858150 108.7579750
  65.4735920 128.6017470 119.3977900  64.9709520 129.3422870 119.7371710
  66.2892580 128.9901470 119.0814690  63.7657930 133.8450650 112.8439260
  62.8248070 133.8600880 113.0186950  64.0802000 133.0586610 113.2899560
  53.7439570 135.5270250 106.4043220  54.5102840 135.4151610 106.9668650
  53.8214260 134.8308220 105.7519990  52.4386330 132.9595320 107.0876110
  52.5189920 132.0122830 107.1993510  53.3306080 133.2902200 107.1936770
  65.7683510 141.0159500 114.5193520  65.8930930 141.8390670 114.9917330
  66.6349070 140.8050230 114.1717670  53.2401040 143.1090710 114.1910650
  53.9763520 142.5606170 114.4619220  53.6241960 143.9746720 114.0516640
  50.1246520 139.1764280 110.0652160  49.1986300 139.4185420 110.0557570
  50.5902950 140.0038540 109.9436910  52.2459320 142.2936780 123.3796230
  53.0472050 142.6148830 123.7931630  51.7311140 141.9332360 124.1016140
  56.3503350 142.2821020 106.0136220  57.1431960 142.5709850 105.5618010
  55.8307700 141.8513190 105.3348700  61.0823950 138.4016650 123.3271640
  60.4762110 138.4248250 122.5867390  60.7778060 137.6699690 123.8638890
  62.5124320 142.1296940 121.9381050  63.4646070 142.0454960 121.8881290
  62.3652540 142.7938650 122.6114840  65.4033520 141.5091150 107.4372960
  65.1175030 141.0956290 106.6227140  65.2053070 142.4378860 107.3173480
  49.9657130 134.7810240 122.3232280  50.4696150 134.2017520 122.8948510
  49.2264550 135.0650470 122.8608650  56.8680750 137.5024430 105.8778570
  56.7631390 136.8876780 106.6039950  56.7004970 136.9790320 105.0941580
  57.0195070 136.1881230 121.8567800  56.2540740 136.7566230 121.7722470
  57.2011030 135.8957440 120.9636030  60.1083480 136.5644460 106.4820560
  59.5593580 137.0113760 107.1263300  60.7302740 136.0593710 107.0058230
  64.1618420 137.9186560 122.4142820  64.9027890 138.2562320 121.9110280
  63.3991100 138.0878620 121.8612590  51.9980210 132.9239830 123.2182350
  52.0385550 132.6253700 124.1267580  52.8525710 133.3247440 123.0589870
  55.7758600 135.5235380 108.3785860  56.1975020 135.3575250 109.2217250
  55.9009440 134.7135610 107.8841000  53.9386020 131.5031930 121.1856840
  53.4082480 131.0122880 120.5580180  54.6074090 131.9316130 120.6514770
  58.2886240 134.5472990 105.6262960  58.8091900 133.8322010 105.2604110
  58.9354640 135.1858860 105.9263470  62.8364080 135.9701390 120.9498030
  63.2505100 136.1246470 121.7988450  61.9015080 136.0956610 121.1123810
  63.3086250 133.3097550 122.9537180  63.8907020 132.5549870 122.8657660
  63.4848020 133.8404990 122.1768660  54.4258320 128.4694300 121.2654130
  54.3315190 127.8515050 120.5405000  53.8455710 129.1960590 121.0384040
  57.1919760 127.0267540 118.2981520  56.7437060 127.0491800 117.4527070
  56.5584960 126.6286560 118.8951820  57.5979310 135.9221870 118.9193960
  58.0167420 136.7654600 118.7470200  56.6787940 136.0593910 118.6900740
  59.9343210 133.6538050 120.3031800  60.0539420 133.0579190 121.0426640
  60.7937210 133.6907740 119.8833100  62.2731110 134.2075240 118.8794310
  61.7466330 134.7317860 118.2759450  62.6162450 134.8402630 119.5104040
  54.6717500 131.5968610 105.3244020  54.4706560 130.7335970 105.6857360
  54.5009550 131.5101970 104.3865620  55.4486730 142.2274880 120.0351690
  54.9107820 142.9520940 119.7160390  55.7020690 141.7505220 119.2449030
  56.7011980 130.1959400 121.5607620  57.2911670 129.8875250 122.2485440
  55.8832220 129.7239150 121.7167520  61.5205410 129.8125210 121.7940640
  60.8320930 129.1506750 121.7290630  62.2411430 129.3663480 122.2389100
  53.4700300 128.6969230 105.3121900  53.7726200 128.7036660 104.4041050
  54.2094890 128.3467090 105.8089560  58.3048940 143.4626090 120.2938340
  58.2307640 144.3661230 120.6010710  57.4027780 143.1437990 120.2660410
  58.8534270 142.6284600 107.9164700  59.7485060 142.9669570 107.9383460
  58.8851900 141.9064010 107.2888980  52.4930430 138.0011650 106.1451700
  52.9305300 138.5441320 106.8009280  52.9778160 137.1758600 106.1548040
  49.7076230 140.7900680 113.5971960  50.0379240 139.9221740 113.3650600
  50.1367230 140.9959200 114.4276920  54.3038150 139.1209690 111.2573930
  54.0033690 138.9974660 112.1577840  54.1975640 138.2618280 110.8489660
  50.1966440 141.6571270 116.3353590  49.7597430 141.8372070 117.1677740
  50.7644120 142.4145890 116.1935310  65.8328620 141.1588270 120.6230900
  65.2330610 141.2180830 119.8794820  65.9622520 140.2193250 120.7527750
  67.0730070 138.9006090 105.9600610  66.2423030 138.9682740 106.4307840
  67.2501900 139.7910210 105.6567470  66.5286530 135.6453570 108.4634810
  67.2905440 136.2150220 108.5694500  66.5440900 135.0780770 109.2343120
  50.0290870 134.1691500 112.6942470  49.3739710 133.9003140 112.0502170
  50.8668820 134.0595980 112.2444450  67.5346500 136.5003670 113.3076740
  67.9055330 135.7170990 112.9012710  68.1748430 137.1892770 113.1294040
  64.5180260 137.8840250 118.7207060  63.7040100 138.3137410 118.9832850
  64.9254460 138.4958660 118.1076110  66.5805700 135.9387940 105.6207330
  66.8554540 136.8466820 105.4926550  66.3916440 135.8750470 106.5569320
  62.9781310 128.9632790 106.9160960  63.3966190 128.7763770 106.0757620
  62.6717370 128.1111840 107.2263890  66.4771040 133.8756930 110.6136760
  66.1014640 133.1084860 110.1818050  65.7474160 134.2579630 111.1011690
  51.0666800 134.5544070 117.2345810  51.4339840 134.4671470 118.1141830
  50.4977620 133.7910620 117.1352670  65.8670660 133.0228450 120.2476280
  65.6356750 132.7941200 119.3474230  66.1275210 133.9428000 120.2021170
  50.6182800 131.4653160 121.1404230  49.7238850 131.4319920 121.4797940
  51.1580350 131.6639950 121.9055480  64.3058730 128.2484880 123.0255980
  65.1828910 128.2568280 123.4089980  64.3179570 127.5115720 122.4148330
  49.2428950 131.3790430 108.6367800  48.3393030 131.6420630 108.4619460
  49.7269570 131.6501600 107.8567760  65.7522000 132.1014420 113.9144000
  66.2759480 131.6077070 113.2834170  66.3381420 132.2364780 114.6591570
  65.9311720 132.1854290 117.4363550  64.9814430 132.1517830 117.5508540
  66.1124730 133.0954400 117.2013320  51.7856160 130.4355970 106.5462180
  52.4947860 130.0139190 106.0609460  51.0696100 130.5031200 105.9145530
  65.2421970 131.3587770 109.8536410  65.7381090 131.1258640 110.6385290
  65.0438040 130.5199610 109.4374050  51.1222510 125.7401490 115.4887450
  51.7698700 125.1898870 115.0482610  51.5424350 125.9944640 116.3103260
  65.0174850 125.9342850 118.8457090  65.6547070 126.5476990 119.2116280
  65.1649740 125.9703510 117.9006320  67.5599400 127.8256640 105.6280230
  68.4848710 127.6937820 105.4198520  67.5375190 127.9049460 106.5816680
  67.6337890 128.5967300 108.2536940  66.8389390 128.5312420 108.7829850
  67.8381170 129.5317940 108.2422290  64.5756310 142.6358850 112.2475330
  65.1715380 142.3143420 111.5709750  64.8334460 142.1630670 113.0388600
  50.8754510 125.8957160 118.2312770  50.5269330 126.3520980 118.9970950
  50.5442210 125.0014290 118.3135200  52.4818880 139.0676760 122.3965960
  52.4388510 138.6969670 123.2780420  52.6129890 140.0054330 122.5367780
  56.1824910 140.6236350 117.9975680  55.9416270 140.8910910 117.1106200
  57.1227550 140.7942080 118.0526540  58.3879330 127.0869040 121.7532190
  58.3268220 127.6790870 122.5027600  59.3279710 126.9795000 121.6082450
  61.0253890 126.7439100 121.3924480  61.6394300 127.0618390 120.7305560
  61.5703450 126.2587690 122.0120340  67.4429070 142.6430730 118.7986320
  66.9487350 143.0399600 118.0813450  66.8342360 142.0179940 119.1923600
  51.5475150 125.4233360 121.5063540  52.0958140 125.2421410 120.7429650
  51.6130460 124.6327470 122.0419850  52.3206910 142.0139010 119.5163740
  51.7267230 141.8823710 120.2553780  52.3130750 141.1777150 119.0505840
  61.7661930 125.3071240 117.7193770  60.8921770 125.6406350 117.5166700
  61.6572680 124.8344420 118.5445640  62.6733910 127.5142110 119.1035490
  62.3447270 126.6993870 118.7237220  63.6216210 127.4711920 118.9801180
  65.1268520 143.2854150 116.0773060  64.6671490 144.0369960 115.7031080
  64.4980980 142.5660620 116.0187860  51.9519140 139.3797390 118.4671780
  51.2253200 138.7602680 118.3997730  52.0128290 139.7738000 117.5969860
  55.5564240 141.5942390 115.2521190  56.0729260 140.9829750 114.7269450
  56.2061620 142.0971170 115.7432200  58.2959740 142.4850880 116.0790170
  58.5837550 142.2305180 115.2023180  58.8082960 141.9328240 116.6695740
  59.5136750 126.2241080 116.6586680  58.7308540 126.6986580 116.9383440
  59.2199680 125.3195910 116.5499860  64.0657820 126.9264180 114.7035770
  64.5065910 126.8709280 113.8557370  63.7965410 127.8422190 114.7745950
  50.2349140 142.6971780 111.6768540  50.0671180 142.0642460 112.3750430
  49.3683650 142.9031180 111.3262730  50.8577160 126.5288560 109.1800400
  51.6156520 126.6417440 108.6064430  50.3954330 127.3657760 109.1343830
  61.9015950 125.3070280 113.4085780  62.5045320 125.8790490 113.8834300
  61.1608940 125.8709720 113.1859680  65.0450550 125.7091840 108.6826060
  65.2401180 126.6075290 108.9493490  64.2580420 125.4778920 109.1759010
  51.8411840 141.3905010 109.1218680  51.3159460 141.7713040 108.4180640
  51.7656420 142.0155780 109.8428390  58.3632100 143.4066980 123.4458370
  59.2899410 143.1711250 123.4894330  58.3482530 144.2338980 122.9644400
  66.5977160 142.9492550 110.4432620  66.7729350 142.2630290 109.7993540
  65.8998730 143.4739600 110.0509290  55.5495710 126.0711730 123.2100250
  55.2679980 126.5745330 122.4461070  55.9315410 125.2733480 122.8442380
  54.4404810 143.3387390 107.9967930  55.1723630 143.0546670 107.4491820
  54.6998480 143.1000670 108.8867310  53.6019600 139.4552120 108.0014260
  52.9728480 139.9237220 108.5500090  53.7167430 138.6101340 108.4360450
  62.1511170 125.4865310 123.7880720  62.0376620 125.8059920 124.6832240
  62.9680910 125.8877820 123.4918000  64.9309660 142.6336840 123.2699410
  65.7234980 142.1386070 123.0625370  65.2242810 143.3126980 123.8775020
  59.1887360 135.2836800  96.0324730  58.4129460 134.8037240  96.3223300
  59.8400290 134.6042450  95.8580890  53.2053190 135.5956610  96.9100490
  52.3738070 135.3405320  97.3097000  53.8134170 135.6667380  97.6458410
  63.2094790 139.6896990  94.8123860  62.7476320 138.9184230  95.1411030
  64.0220340 139.7163060  95.3176310  53.1854450 139.6296700  97.1058510
  53.4882490 138.7394440  96.9268730  53.9298040 140.1866920  96.8780760
  51.6145140 130.5558500  90.6942880  50.7261840 130.8974470  90.5922760
  51.8986330 130.3558820  89.8023710  49.5778150 133.1564150  96.5782580
  50.1494260 132.3886350  96.5786220  49.5779690 133.4552910  95.6689190
  59.4358100 141.9755000  94.4327850  58.8169540 142.4312500  93.8622290
  60.2909880 142.1306460  94.0317550  58.6296350 137.9593990  96.0394890
  58.5604630 137.0183930  95.8784020  59.3916210 138.0495400  96.6117460
  55.6314260 132.1076370  96.0606440  56.1392480 132.6057340  96.7011460
  56.1627500 131.3311570  95.8845800  67.7325190 130.2781560  99.7635790
  67.0277360 130.6663270  99.2450900  67.9983110 130.9731850 100.3656720
  53.9150360 126.7474930 100.3269860  53.9168800 127.2647320  99.5215760
  53.0854670 126.2705110 100.3039790  60.3021450 136.8594240  91.8259760
  59.6838720 137.3243690  91.2622480  60.8144700 137.5521720  92.2429270
  55.1653210 136.3870110  98.5043360  54.8322590 137.0139030  99.1464430
  55.3419890 136.9131990  97.7245030  54.3772310 138.3550910 100.3192540
  54.9946310 139.0301990 100.0376990  53.5165430 138.7638890 100.2280040
  49.6704650 137.5450770  89.1999390  49.2932630 138.0337870  88.4684290
  49.9277720 138.2176050  89.8305920  65.2949900 139.8190320  98.2347180
  64.6113420 140.4889430  98.2263850  65.8344190 140.0170970  97.4692040
  66.7474040 129.6469980  96.3628910  65.7998950 129.6808960  96.4944340
  67.0724030 130.4608930  96.7478270  62.8308640 141.6634450  96.9492360
  62.8435800 141.2596740  96.0814620  62.2783860 142.4381740  96.8453790
  64.1254060 138.3850670  92.0382530  64.0150390 137.4425000  92.1631950
  64.1222310 138.7466310  92.9245290  62.2294080 136.5664290  98.2774970
  62.6462870 136.3524400  97.4428430  62.9533900 136.8237080  98.8483590
  66.1756180 134.9651510  98.3691210  65.3474810 135.0344600  97.8941340
  66.7706660 135.5505820  97.9007040  63.6971630 135.5736290  91.8980270
  63.0784050 135.2355840  91.2506570  63.6796080 134.9296050  92.6059460
  63.1398190 131.7520830  99.3146080  62.7269370 132.5774540  99.5686070
  62.4074140 131.1665870  99.1222440  55.2730980 134.5380730  94.1764750
  54.8687980 133.8257980  93.6810650  55.3594100 134.1933970  95.0652790
  55.7412680 138.2248290  96.3403960  55.4440970 137.6193760  95.6611740
  56.6912500 138.2625600  96.2293320  53.9859600 131.3123940  97.9563790
  54.5374190 131.4219280  97.1817040  54.5003110 131.6861540  98.6719020
  63.8298290 141.7980160 100.0027060  63.3528850 142.6052350  99.8099670
  63.1460080 141.1458490 100.1553270  54.8331110 137.9629980 102.9911760
  53.9359640 138.1869950 103.2385160  54.8583980 138.0864920 102.0423160
  61.8736330 134.8123100  88.9053020  62.3129610 133.9745530  88.7590840
  62.5864750 135.4452500  88.9917160  53.6602330 134.8343300 101.5669130
  53.5210100 135.7066100 101.9356530  52.7783690 134.4916110 101.4217070
  59.9831710 139.7519170  92.8734260  60.4227620 140.4943500  92.4589650
  59.9218600 139.9945740  93.7973220  55.4582680 140.7765000 103.7754280
  55.4298110 141.1807950 102.9082710  55.2947650 139.8475360 103.6125880
  51.9735610 133.4325710  91.6771400  51.8533210 134.1587800  91.0652670
  51.6636500 132.6628620  91.1999310  67.4097500 141.5592100 105.0718450
  67.8857220 142.0374990 105.7507530  68.0304660 141.4909590 104.3463950
  49.6120980 136.6040850  97.4840040  49.6901400 136.7389620  96.5395760
  50.2262660 135.8956740  97.6768160  50.8568610 138.3041040  93.8946220
  50.4496690 138.4455630  93.0399820  51.7481620 138.0201200  93.6917430
  66.8130750 138.7504950 102.2318460  66.9393810 138.5116830 101.3135640
  66.8552130 137.9189490 102.7040540  60.6747490 142.4532950 100.8013270
  61.1892160 142.3640960 101.6035700  59.8316570 142.7992650 101.0941180
  62.6501890 142.7388290  90.2297270  62.4903030 142.4491230  91.1279100
  62.4848600 141.9628420  89.6942500  55.1290270 142.5186820  92.0068890
  54.9532750 141.6022360  91.7936690  54.2746010 142.8774110  92.2466690
  62.3528020 140.2475850  88.7895270  61.6593180 140.2453140  88.1297550
  63.0950880 139.8235170  88.3589440  61.9177950 141.8738560  92.8643760
  62.3734900 141.0927940  93.1782380  62.2570470 142.5845380  93.4084940
  66.6654760 130.8037410 103.1968200  66.0499030 131.3117080 102.6683660
  66.3451180 129.9035740 103.1394140  49.6680500 137.6455020 100.0234500
  49.8311540 137.1760380  99.2053870  50.1332950 137.1378580 100.6883340
  58.7269080 129.6429300 100.6630390  58.2648450 129.8512320 101.4750330
  58.3247190 128.8288650 100.3601060  63.7273590 130.8638250 101.7927050
  62.8767180 130.5644000 102.1136120  63.5675380 131.1080260 100.8810870
  60.8223300 132.3640000 103.8925840  61.1476710 131.5303750 103.5528070
  61.6103630 132.8868520 104.0404170  56.6712700 132.7979930 103.4536590
  56.5756300 131.8574660 103.3036990  57.5144680 133.0195000 103.0584660
  51.8023240 129.2093600 101.6070370  51.4086630 130.0568810 101.8143150
  51.1141640 128.5719970 101.7979010  58.3768290 129.2928570 104.6767110
  57.6866610 129.1000770 105.3113200  59.1200590 129.5763210 105.2091410
  49.2910520 131.0742180  86.8503170  49.2085190 132.0172940  86.9918160
  48.9393580 130.9317090  85.9715520  60.6531260 133.1327010  97.5121030
  59.9212380 133.6413820  97.8611130  60.2555600 132.3156990  97.2109810
  57.1528800 130.8093290  88.9080280  57.2741620 130.7679770  89.8566100
  56.7677310 131.6717440  88.7527010  61.1157170 128.5860690  96.9243970
  61.1329910 129.0369340  97.7685820  60.8672750 127.6866330  97.1377410
  56.1650300 133.1194430  88.3063580  55.5967200 132.6712680  87.6799490
  56.8739300 133.4787210  87.7728730  51.2419480 137.0206450 102.1830310
  50.8574270 136.3800120 102.7813270  51.5531670 137.7242570 102.7525040
  57.3916620 133.8682990  97.6638930  57.7586750 133.3941560  98.4100270
  57.2021680 134.7424560  98.0047270  55.1815990 132.9091630  99.9823140
  54.8773060 133.7883610 100.2073500  56.1362450 132.9691420 100.0180580
  53.7097780 137.1152620  90.5789990  52.9360040 136.5750240  90.4188710
  54.4392410 136.5959230  90.2407750  64.4685760 136.1117980  96.3716380
  65.1884880 136.6073270  95.9812490  64.2667580 135.4335870  95.7270250
  59.8504560 136.1827040 102.2585380  59.7841870 135.2622710 102.0042970
  59.2209700 136.2802480 102.9730020  53.7535180 136.7833000  94.2168800
  54.2713850 135.9801260  94.1625690  53.3019200 136.7212140  95.0585630
  58.6404680 138.0499280  89.4896100  58.9820380 138.7941510  88.9939420
  57.8117390 138.3630400  89.8520930  51.2379720 133.7494370 101.1294500
  50.8794660 134.4148220 101.7167840  50.9434280 132.9177920 101.5007120
  54.4392840 134.2078610 104.0134050  54.1392980 134.3535790 103.1161870
  55.2104080 133.6483900 103.9207440  59.7821290 139.0047610 102.0089180
  59.7965830 138.0728570 101.7908090  59.0746390 139.0907370 102.6478950
  64.9158360 133.1887430  88.2787790  64.8322080 133.6201650  87.4284230
  65.6352550 133.6485780  88.7114610  65.9932500 135.6454950 101.3557760
  65.2680690 136.2383730 101.1587150  66.5207960 135.6378490 100.5571130
  65.9445610 140.0429690  91.0069920  65.3021770 139.3885310  91.2813640
  65.5576270 140.4484780  90.2310590  61.5232090 137.3715120  94.8541610
  61.8755910 136.7743250  94.1942980  60.6394420 137.0459350  95.0249860
  57.6095370 138.1312810  92.2612020  58.2966500 138.6782020  92.6419610
  56.8227790 138.6753540  92.2961630  49.7487770 133.7485630  87.7529100
  50.6182620 134.0310430  88.0365020  49.2578090 134.5621500  87.6377910
  56.9122580 135.1358840  91.8737380  57.3685360 135.9464090  92.0997570
  56.5610790 134.8181980  92.7055870  59.2155190 140.6465180  99.1029680
  59.8597410 140.8524560  99.7803100  59.5784630 139.8853580  98.6500530
  60.4887270 138.6497530  97.8207130  61.1309500 137.9490690  97.9339300
  61.0136620 139.4295970  97.6404020  64.3342990 138.9346150  87.5446270
  64.1080570 138.2176590  88.1370910  63.9439190 138.6858590  86.7068020
  62.2624890 139.4492430 101.0243190  62.5981130 140.0359120 101.7021110
  61.3425230 139.3185140 101.2540980  50.1159020 142.9613010  88.3190730
  50.4756660 143.5602350  87.6648000  49.9751360 143.5072900  89.0925760
  49.8128290 127.2387610 101.8066600  49.0986810 127.4384530 102.4119210
  50.2323330 126.4627180 102.1781400  63.9159240 136.8518090  89.2060430
  63.6280940 137.3130780  89.9938310  64.7111410 136.3915860  89.4744650
  50.1000880 141.2267870 102.7933130  50.2092000 140.2862610 102.6528520
  49.4481440 141.4922620 102.1446860  58.0913470 139.4983760 104.1931250
  57.7710340 138.7793000 104.7376940  57.4171830 140.1738830 104.2667310
  56.1327640 140.3444210  89.1364400  56.1237740 141.0773900  88.5208910
  55.2126000 140.0975790  89.2291360  51.7334280 135.5659100  89.8811160
  51.1262230 136.3058000  89.8906460  52.2083630 135.6558460  89.0549360
  61.3067070 129.7309920  99.5568050  61.6747890 128.9105130  99.8847620
  60.4465270 129.7911810  99.9723700  59.1187240 140.4072450  87.7989590
  59.2199220 140.2036440  86.8691570  58.2188980 140.1530730  88.0037370
  58.2669060 132.3849510  99.7806020  58.7654310 132.8595330 100.4457870
  58.4092010 131.4613030  99.9876050  57.7605350 142.9258770  92.4937260
  58.0146850 142.8880160  91.5716630  56.8117830 142.7992100  92.4865510
  54.8448150 129.2737890  89.1564200  55.6938680 129.7108040  89.0904390
  54.4779420 129.5858150  89.9836260  65.4735920 128.6017470 100.6234410
  64.9709520 129.3422870 100.9628220  66.2892580 128.9901470 100.3071200
  53.7439570 135.5270250  87.6299730  54.5102840 135.4151610  88.1925160
  53.8214260 134.8308220  86.9776500  52.4386330 132.9595320  88.3132620
  52.5189920 132.0122830  88.4250020  53.3306080 133.2902200  88.4193280
  65.7683510 141.0159500  95.7450030  65.8930930 141.8390670  96.2173840
  66.6349070 140.8050230  95.3974180  53.2401040 143.1090710  95.4167160
  53.9763520 142.5606170  95.6875730  53.6241960 143.9746720  95.2773150
  50.1246520 139.1764280  91.2908670  49.1986300 139.4185420  91.2814080
  50.5902950 140.0038540  91.1693420  52.2459320 142.2936780 104.6052740
  53.0472050 142.6148830 105.0188140  51.7311140 141.9332360 105.3272650
  56.3503350 142.2821020  87.2392730  57.1431960 142.5709850  86.7874520
  55.8307700 141.8513190  86.5605210  61.0823950 138.4016650 104.5528150
  60.4762110 138.4248250 103.8123900  60.7778060 137.6699690 105.0895400
  62.5124320 142.1296940 103.1637560  63.4646070 142.0454960 103.1137800
  62.3652540 142.7938650 103.8371350  65.4033520 141.5091150  88.6629470
  65.1175030 141.0956290  87.8483650  65.2053070 142.4378860  88.5429990
  49.9657130 134.7810240 103.5488790  50.4696150 134.2017520 104.1205020
  49.2264550 135.0650470 104.0865160  56.8680750 137.5024430  87.1035080
  56.7631390 136.8876780  87.8296460  56.7004970 136.9790320  86.3198090
  57.0195070 136.1881230 103.0824310  56.2540740 136.7566230 102.9978980
  57.2011030 135.8957440 102.1892540  60.1083480 136.5644460  87.7077070
  59.5593580 137.0113760  88.3519810  60.7302740 136.0593710  88.2314740
  64.1618420 137.9186560 103.6399330  64.9027890 138.2562320 103.1366790
  63.3991100 138.0878620 103.0869100  51.9980210 132.9239830 104.4438860
  52.0385550 132.6253700 105.3524090  52.8525710 133.3247440 104.2846380
  55.7758600 135.5235380  89.6042370  56.1975020 135.3575250  90.4473760
  55.9009440 134.7135610  89.1097510  53.9386020 131.5031930 102.4113350
  53.4082480 131.0122880 101.7836690  54.6074090 131.9316130 101.8771280
  58.2886240 134.5472990  86.8519470  58.8091900 133.8322010  86.4860620
  58.9354640 135.1858860  87.1519980  62.8364080 135.9701390 102.1754540
  63.2505100 136.1246470 103.0244960  61.9015080 136.0956610 102.3380320
  63.3086250 133.3097550 104.1793690  63.8907020 132.5549870 104.0914170
  63.4848020 133.8404990 103.4025170  54.4258320 128.4694300 102.4910640
  54.3315190 127.8515050 101.7661510  53.8455710 129.1960590 102.2640550
  57.1919760 127.0267540  99.5238030  56.7437060 127.0491800  98.6783580
  56.5584960 126.6286560 100.1208330  57.5979310 135.9221870 100.1450470
  58.0167420 136.7654600  99.9726710  56.6787940 136.0593910  99.9157250
  59.9343210 133.6538050 101.5288310  60.0539420 133.0579190 102.2683150
  60.7937210 133.6907740 101.1089610  62.2731110 134.2075240 100.1050820
  61.7466330 134.7317860  99.5015960  62.6162450 134.8402630 100.7360550
  54.6717500 131.5968610  86.5500530  54.4706560 130.7335970  86.9113870
  54.5009550 131.5101970  85.6122130  55.4486730 142.2274880 101.2608200
  54.9107820 142.9520940 100.9416900  55.7020690 141.7505220 100.4705540
  56.7011980 130.1959400 102.7864130  57.2911670 129.8875250 103.4741950
  55.8832220 129.7239150 102.9424030  61.5205410 129.8125210 103.0197150
  60.8320930 129.1506750 102.9547140  62.2411430 129.3663480 103.4645610
  58.3048940 143.4626090 101.5194850  58.2307640 144.3661230 101.8267220
  57.4027780 143.1437990 101.4916920  58.8534270 142.6284600  89.1421210
  59.7485060 142.9669570  89.1639970  58.8851900 141.9064010  88.5145490
  52.4930430 138.0011650  87.3708210  52.9305300 138.5441320  88.0265790
  52.9778160 137.1758600  87.3804550  49.7076230 140.7900680  94.8228470
  50.0379240 139.9221740  94.5907110  50.1367230 140.9959200  95.6533430
  54.3038150 139.1209690  92.4830440  54.0033690 138.9974660  93.3834350
  54.1975640 138.2618280  92.0746170  50.1966440 141.6571270  97.5610100
  49.7597430 141.8372070  98.3934250  50.7644120 142.4145890  97.4191820
  65.8328620 141.1588270 101.8487410  65.2330610 141.2180830 101.1051330
  65.9622520 140.2193250 101.9784260  67.0730070 138.9006090  87.1857120
  66.2423030 138.9682740  87.6564350  67.2501900 139.7910210  86.8823980
  66.5286530 135.6453570  89.6891320  67.2905440 136.2150220  89.7951010
  66.5440900 135.0780770  90.4599630  50.0290870 134.1691500  93.9198980
  49.3739710 133.9003140  93.2758680  50.8668820 134.0595980  93.4700960
  67.5346500 136.5003670  94.5333250  67.9055330 135.7170990  94.1269220
  68.1748430 137.1892770  94.3550550  64.5180260 137.8840250  99.9463570
  63.7040100 138.3137410 100.2089360  64.9254460 138.4958660  99.3332620
  66.5805700 135.9387940  86.8463840  66.8554540 136.8466820  86.7183060
  66.3916440 135.8750470  87.7825830  66.4771040 133.8756930  91.8393270
  66.1014640 133.1084860  91.4074560  65.7474160 134.2579630  92.3268200
  51.0666800 134.5544070  98.4602320  51.4339840 134.4671470  99.3398340
  50.4977620 133.7910620  98.3609180  65.8670660 133.0228450 101.4732790
  65.6356750 132.7941200 100.5730740  66.1275210 133.9428000 101.4277680
  50.6182800 131.4653160 102.3660740  49.7238850 131.4319920 102.7054450
  51.1580350 131.6639950 103.1311990  49.2428950 131.3790430  89.8624310
  48.3393030 131.6420630  89.6875970  49.7269570 131.6501600  89.0824270
  65.9311720 132.1854290  98.6620060  64.9814430 132.1517830  98.7765050
  66.1124730 133.0954400  98.4269830  51.7856160 130.4355970  87.7718690
  52.4947860 130.0139190  87.2865970  51.0696100 130.5031200  87.1402040
  51.4330320 126.4895300  86.8121340  52.1558450 127.0304240  87.1302560
  51.7054840 126.2158720  85.9362880  64.5756310 142.6358850  93.4731840
  65.1715380 142.3143420  92.7966260  64.8334460 142.1630670  94.2645110
  50.8754510 125.8957160  99.4569280  50.5269330 126.3520980 100.2227460
  50.5442210 125.0014290  99.5391710  52.4818880 139.0676760 103.6222470
  52.4388510 138.6969670 104.5036930  52.6129890 140.0054330 103.7624290
  56.1824910 140.6236350  99.2232190  55.9416270 140.8910910  98.3362710
  57.1227550 140.7942080  99.2783050  67.4429070 142.6430730 100.0242830
  66.9487350 143.0399600  99.3069960  66.8342360 142.0179940 100.4180110
  52.3206910 142.0139010 100.7420250  51.7267230 141.8823710 101.4810290
  52.3130750 141.1777150 100.2762350  65.1268520 143.2854150  97.3029570
  64.6671490 144.0369960  96.9287590  64.4980980 142.5660620  97.2444370
  51.9519140 139.3797390  99.6928290  51.2253200 138.7602680  99.6254240
  52.0128290 139.7738000  98.8226370  55.5564240 141.5942390  96.4777700
  56.0729260 140.9829750  95.9525960  56.2061620 142.0971170  96.9688710
  58.2959740 142.4850880  97.3046680  58.5837550 142.2305180  96.4279690
  58.8082960 141.9328240  97.8952250  59.5136750 126.2241080  97.8843190
  58.7308540 126.6986580  98.1639950  59.2199680 125.3195910  97.7756370
  64.0657820 126.9264180  95.9292280  64.5065910 126.8709280  95.0813880
  63.7965410 127.8422190  96.0002460  65.9296390 126.5579420  93.9401100
  65.8684790 125.6140640  93.7932120  66.7088420 126.6659510  94.4854560
  50.2349140 142.6971780  92.9025050  50.0671180 142.0642460  93.6006940
  49.3683650 142.9031180  92.5519240  61.9015950 125.3070280  94.6342290
  62.5045320 125.8790490  95.1090810  61.1608940 125.8709720  94.4116190
  51.8411840 141.3905010  90.3475190  51.3159460 141.7713040  89.6437150
  51.7656420 142.0155780  91.0684900  53.2302310 127.0552610  88.9458880
  53.7595070 126.2682410  88.8166830  53.8630630 127.7343800  89.1794410
  58.3632100 143.4066980 104.6714880  59.2899410 143.1711250 104.7150840
  58.3482530 144.2338980 104.1900910  66.5977160 142.9492550  91.6689130
  66.7729350 142.2630290  91.0250050  65.8998730 143.4739600  91.2765800
  55.5495710 126.0711730 104.4356760  55.2679980 126.5745330 103.6717580
  55.9315410 125.2733480 104.0698890  54.4404810 143.3387390  89.2224440
  55.1723630 143.0546670  88.6748330  54.6998480 143.1000670  90.1123820
  53.6019600 139.4552120  89.2270770  52.9728480 139.9237220  89.7756600
  53.7167430 138.6101340  89.6616960  64.9309660 142.6336840 104.4955920
  65.7234980 142.1386070 104.2881880  65.2242810 143.3126980 105.1031530
  53.2053190 135.5956610  78.1357000  52.3738070 135.3405320  78.5353510
  53.8134170 135.6667380  78.8714920  63.2094790 139.6896990  76.0380370
  62.7476320 138.9184230  76.3667540  64.0220340 139.7163060  76.5432820
  53.1854450 139.6296700  78.3315020  53.4882490 138.7394440  78.1525240
  53.9298040 140.1866920  78.1037270  59.4358100 141.9755000  75.6584360
  58.8169540 142.4312500  75.0878800  60.2909880 142.1306460  75.2574060
  58.6296350 137.9593990  77.2651400  58.5604630 137.0183930  77.1040530
  59.3916210 138.0495400  77.8373970  67.7325190 130.2781560  80.9892300
  67.0277360 130.6663270  80.4707410  67.9983110 130.9731850  81.5913230
  60.3021450 136.8594240  73.0516270  59.6838720 137.3243690  72.4878990
  60.8144700 137.5521720  73.4685780  55.1653210 136.3870110  79.7299870
  54.8322590 137.0139030  80.3720940  55.3419890 136.9131990  78.9501540
  54.3772310 138.3550910  81.5449050  54.9946310 139.0301990  81.2633500
  53.5165430 138.7638890  81.4536550  49.6704650 137.5450770  70.4255900
  49.2932630 138.0337870  69.6940800  49.9277720 138.2176050  71.0562430
  66.7474040 129.6469980  77.5885420  65.7998950 129.6808960  77.7200850
  67.0724030 130.4608930  77.9734780  62.8308640 141.6634450  78.1748870
  62.8435800 141.2596740  77.3071130  62.2783860 142.4381740  78.0710300
  64.1254060 138.3850670  73.2639040  64.0150390 137.4425000  73.3888460
  64.1222310 138.7466310  74.1501800  59.6674340 134.0115990  72.6201530
  58.7403620 133.9453370  72.8490000  59.8199160 134.9496120  72.5056770
  59.6543420 130.2832990  69.6168690  58.7147090 130.4446950  69.7021150
  59.9726680 131.0018670  69.0704680  63.6971630 135.5736290  73.1236780
  63.0784050 135.2355840  72.4763080  63.6796080 134.9296050  73.8315970
  55.2730980 134.5380730  75.4021260  54.8687980 133.8257980  74.9067160
  55.3594100 134.1933970  76.2909300  55.7412680 138.2248290  77.5660470
  55.4440970 137.6193760  76.8868250  56.6912500 138.2625600  77.4549830
  63.8298290 141.7980160  81.2283570  63.3528850 142.6052350  81.0356180
  63.1460080 141.1458490  81.3809780  54.8331110 137.9629980  84.2168270
  53.9359640 138.1869950  84.4641670  54.8583980 138.0864920  83.2679670
  61.8736330 134.8123100  70.1309530  62.3129610 133.9745530  69.9847350
  62.5864750 135.4452500  70.2173670  53.6602330 134.8343300  82.7925640
  53.5210100 135.7066100  83.1613040  52.7783690 134.4916110  82.6473580
  59.9831710 139.7519170  74.0990770  60.4227620 140.4943500  73.6846160
  59.9218600 139.9945740  75.0229730  55.4582680 140.7765000  85.0010790
  55.4298110 141.1807950  84.1339220  55.2947650 139.8475360  84.8382390
  67.4097500 141.5592100  86.2974960  67.8857220 142.0374990  86.9764040
  68.0304660 141.4909590  85.5720460  49.6120980 136.6040850  78.7096550
  49.6901400 136.7389620  77.7652270  50.2262660 135.8956740  78.9024670
  50.8568610 138.3041040  75.1202730  50.4496690 138.4455630  74.2656330
  51.7481620 138.0201200  74.9173940  60.6747490 142.4532950  82.0269780
  61.1892160 142.3640960  82.8292210  59.8316570 142.7992650  82.3197690
  62.6501890 142.7388290  71.4553780  62.4903030 142.4491230  72.3535610
  62.4848600 141.9628420  70.9199010  55.1290270 142.5186820  73.2325400
  54.9532750 141.6022360  73.0193200  54.2746010 142.8774110  73.4723200
  62.3528020 140.2475850  70.0151780  61.6593180 140.2453140  69.3554060
  63.0950880 139.8235170  69.5845950  61.9177950 141.8738560  74.0900270
  62.3734900 141.0927940  74.4038890  62.2570470 142.5845380  74.6341450
  49.6680500 137.6455020  81.2491010  49.8311540 137.1760380  80.4310380
  50.1332950 137.1378580  81.9139850  63.7273590 130.8638250  83.0183560
  62.8767180 130.5644000  83.3392630  63.5675380 131.1080260  82.1067380
  60.8223300 132.3640000  85.1182350  61.1476710 131.5303750  84.7784580
  61.6103630 132.8868520  85.2660680  61.4611250 131.9057720  72.6123480
  60.8620140 132.6293520  72.4287100  62.0090860 131.8434500  71.8299930
  56.6712700 132.7979930  84.6793100  56.5756300 131.8574660  84.5293500
  57.5144680 133.0195000  84.2841170  58.3768290 129.2928570  85.9023620
  57.6866610 129.1000770  86.5369710  59.1200590 129.5763210  86.4347920
  57.0908650 129.8081210  77.1430030  57.0944710 129.3671160  76.2934570
  57.9859770 130.1298540  77.2501850  57.1528800 130.8093290  70.1336790
  57.2741620 130.7679770  71.0822610  56.7677310 131.6717440  69.9783520
  56.1650300 133.1194430  69.5320090  55.5967200 132.6712680  68.9056000
  56.8739300 133.4787210  68.9985240  51.2419480 137.0206450  83.4086820
  50.8574270 136.3800120  84.0069780  51.5531670 137.7242570  83.9781550
  53.7097780 137.1152620  71.8046500  52.9360040 136.5750240  71.6445220
  54.4392410 136.5959230  71.4664260  59.8504560 136.1827040  83.4841890
  59.7841870 135.2622710  83.2299480  59.2209700 136.2802480  84.1986530
  62.6444090 131.8775590  70.0364440  63.5323710 132.1892820  69.8615780
  62.6149180 131.0047840  69.6445020  53.7535180 136.7833000  75.4425310
  54.2713850 135.9801260  75.3882200  53.3019200 136.7212140  76.2842140
  58.6404680 138.0499280  70.7152610  58.9820380 138.7941510  70.2195930
  57.8117390 138.3630400  71.0777440  51.2379720 133.7494370  82.3551010
  50.8794660 134.4148220  82.9424350  50.9434280 132.9177920  82.7263630
  54.4392840 134.2078610  85.2390560  54.1392980 134.3535790  84.3418380
  55.2104080 133.6483900  85.1463950  59.7821290 139.0047610  83.2345690
  59.7965830 138.0728570  83.0164600  59.0746390 139.0907370  83.8735460
  64.9158360 133.1887430  69.5044300  64.8322080 133.6201650  68.6540740
  65.6352550 133.6485780  69.9371120  65.9445610 140.0429690  72.2326430
  65.3021770 139.3885310  72.5070150  65.5576270 140.4484780  71.4567100
  57.6095370 138.1312810  73.4868530  58.2966500 138.6782020  73.8676120
  56.8227790 138.6753540  73.5218140  56.9122580 135.1358840  73.0993890
  57.3685360 135.9464090  73.3254080  56.5610790 134.8181980  73.9312380
  59.2155190 140.6465180  80.3286190  59.8597410 140.8524560  81.0059610
  59.5784630 139.8853580  79.8757040  52.8134360 125.4796490  73.5716410
  52.6848990 125.4714390  74.5201330  51.9896380 125.8179580  73.2207420
  60.4887270 138.6497530  79.0463640  61.1309500 137.9490690  79.1595810
  61.0136620 139.4295970  78.8660530  64.3342990 138.9346150  68.7702780
  64.1080570 138.2176590  69.3627420  63.9439190 138.6858590  67.9324530
  62.2624890 139.4492430  82.2499700  62.5981130 140.0359120  82.9277620
  61.3425230 139.3185140  82.4797490  50.1159020 142.9613010  69.5447240
  50.4756660 143.5602350  68.8904510  49.9751360 143.5072900  70.3182270
  49.8128290 127.2387610  83.0323110  49.0986810 127.4384530  83.6375720
  50.2323330 126.4627180  83.4037910  63.9159240 136.8518090  70.4316940
  63.6280940 137.3130780  71.2194820  64.7111410 136.3915860  70.7001160
  50.1000880 141.2267870  84.0189640  50.2092000 140.2862610  83.8785030
  49.4481440 141.4922620  83.3703370  58.0913470 139.4983760  85.4187760
  57.7710340 138.7793000  85.9633450  57.4171830 140.1738830  85.4923820
  56.1327640 140.3444210  70.3620910  56.1237740 141.0773900  69.7465420
  55.2126000 140.0975790  70.4547870  51.7334280 135.5659100  71.1067670
  51.1262230 136.3058000  71.1162970  52.2083630 135.6558460  70.2805870
  59.1187240 140.4072450  69.0246100  59.2199220 140.2036440  68.0948080
  58.2188980 140.1530730  69.2293880  56.6413130 130.9652810  73.0070000
  55.9329280 131.4339150  73.4483610  56.9257610 130.3074820  73.6415190
  57.7605350 142.9258770  73.7193770  58.0146850 142.8880160  72.7973140
  56.8117830 142.7992100  73.7122020  53.7439570 135.5270250  68.8556240
  54.5102840 135.4151610  69.4181670  53.8214260 134.8308220  68.2033010
  65.7683510 141.0159500  76.9706540  65.8930930 141.8390670  77.4430350
  66.6349070 140.8050230  76.6230690  53.2401040 143.1090710  76.6423670
  53.9763520 142.5606170  76.9132240  53.6241960 143.9746720  76.5029660
  50.1246520 139.1764280  72.5165180  49.1986300 139.4185420  72.5070590
  50.5902950 140.0038540  72.3949930  52.2459320 142.2936780  85.8309250
  53.0472050 142.6148830  86.2444650  51.7311140 141.9332360  86.5529160
  56.3503350 142.2821020  68.4649240  57.1431960 142.5709850  68.0131030
  55.8307700 141.8513190  67.7861720  61.0823950 138.4016650  85.7784660
  60.4762110 138.4248250  85.0380410  60.7778060 137.6699690  86.3151910
  62.5124320 142.1296940  84.3894070  63.4646070 142.0454960  84.3394310
  62.3652540 142.7938650  85.0627860  65.4033520 141.5091150  69.8885980
  65.1175030 141.0956290  69.0740160  65.2053070 142.4378860  69.7686500
  49.9657130 134.7810240  84.7745300  50.4696150 134.2017520  85.3461530
  49.2264550 135.0650470  85.3121670  56.8680750 137.5024430  68.3291590
  56.7631390 136.8876780  69.0552970  56.7004970 136.9790320  67.5454600
  57.0195070 136.1881230  84.3080820  56.2540740 136.7566230  84.2235490
  57.2011030 135.8957440  83.4149050  60.1083480 136.5644460  68.9333580
  59.5593580 137.0113760  69.5776320  60.7302740 136.0593710  69.4571250
  64.1618420 137.9186560  84.8655840  64.9027890 138.2562320  84.3623300
  63.3991100 138.0878620  84.3125610  51.9980210 132.9239830  85.6695370
  52.0385550 132.6253700  86.5780600  52.8525710 133.3247440  85.5102890
  55.7758600 135.5235380  70.8298880  56.1975020 135.3575250  71.6730270
  55.9009440 134.7135610  70.3354020  58.2886240 134.5472990  68.0775980
  58.8091900 133.8322010  67.7117130  58.9354640 135.1858860  68.3776490
  62.8364080 135.9701390  83.4011050  63.2505100 136.1246470  84.2501470
  61.9015080 136.0956610  83.5636830  63.3086250 133.3097550  85.4050200
  63.8907020 132.5549870  85.3170680  63.4848020 133.8404990  84.6281680
  57.5979310 135.9221870  81.3706980  58.0167420 136.7654600  81.1983220
  56.6787940 136.0593910  81.1413760  59.9343210 133.6538050  82.7544820
  60.0539420 133.0579190  83.4939660  60.7937210 133.6907740  82.3346120
  54.6717500 131.5968610  67.7757040  54.4706560 130.7335970  68.1370380
  54.5009550 131.5101970  66.8378640  55.4486730 142.2274880  82.4864710
  54.9107820 142.9520940  82.1673410  55.7020690 141.7505220  81.6962050
  61.5205410 129.8125210  84.2453660  60.8320930 129.1506750  84.1803650
  62.2411430 129.3663480  84.6902120  58.3048940 143.4626090  82.7451360
  58.2307640 144.3661230  83.0523730  57.4027780 143.1437990  82.7173430
  56.6885230 127.6403850  68.7491120  56.3407230 126.9627840  68.1693570
  56.8898000 127.1793360  69.5634510  58.8534270 142.6284600  70.3677720
  59.7485060 142.9669570  70.3896480  58.8851900 141.9064010  69.7402000
  52.4930430 138.0011650  68.5964720  52.9305300 138.5441320  69.2522300
  52.9778160 137.1758600  68.6061060  49.7076230 140.7900680  76.0484980
  50.0379240 139.9221740  75.8163620  50.1367230 140.9959200  76.8789940
  54.3038150 139.1209690  73.7086950  54.0033690 138.9974660  74.6090860
  54.1975640 138.2618280  73.3002680  50.1966440 141.6571270  78.7866610
  49.7597430 141.8372070  79.6190760  50.7644120 142.4145890  78.6448330
  65.8328620 141.1588270  83.0743920  65.2330610 141.2180830  82.3307840
  65.9622520 140.2193250  83.2040770  67.0730070 138.9006090  68.4113630
  66.2423030 138.9682740  68.8820860  67.2501900 139.7910210  68.1080490
  66.5286530 135.6453570  70.9147830  67.2905440 136.2150220  71.0207520
  66.5440900 135.0780770  71.6856140  66.5805700 135.9387940  68.0720350
  66.8554540 136.8466820  67.9439570  66.3916440 135.8750470  69.0082340
  66.4771040 133.8756930  73.0649780  66.1014640 133.1084860  72.6331070
  65.7474160 134.2579630  73.5524710  50.6182800 131.4653160  83.5917250
  49.7238850 131.4319920  83.9310960  51.1580350 131.6639950  84.3568500
  65.2421970 131.3587770  72.3049430  65.7381090 131.1258640  73.0898310
  65.0438040 130.5199610  71.8887070  51.1222510 125.7401490  77.9400470
  51.7698700 125.1898870  77.4995630  51.5424350 125.9944640  78.7616280
  66.6709130 129.9948720  74.8387110  66.5608410 129.8404760  75.7769380
  67.4316720 129.4669660  74.5962520  65.0174850 125.9342850  81.2970110
  65.6547070 126.5476990  81.6629300  65.1649740 125.9703510  80.3519340
  67.5599400 127.8256640  68.0793250  68.4848710 127.6937820  67.8711540
  67.5375190 127.9049460  69.0329700  67.6337890 128.5967300  70.7049960
  66.8389390 128.5312420  71.2342870  67.8381170 129.5317940  70.6935310
  64.5756310 142.6358850  74.6988350  65.1715380 142.3143420  74.0222770
  64.8334460 142.1630670  75.4901620  52.4818880 139.0676760  84.8478980
  52.4388510 138.6969670  85.7293440  52.6129890 140.0054330  84.9880800
  56.1824910 140.6236350  80.4488700  55.9416270 140.8910910  79.5619220
  57.1227550 140.7942080  80.5039560  67.4429070 142.6430730  81.2499340
  66.9487350 143.0399600  80.5326470  66.8342360 142.0179940  81.6436620
  52.3206910 142.0139010  81.9676760  51.7267230 141.8823710  82.7066800
  52.3130750 141.1777150  81.5018860  61.7661930 125.3071240  80.1706790
  60.8921770 125.6406350  79.9679720  61.6572680 124.8344420  80.9958660
  62.6733910 127.5142110  81.5548510  62.3447270 126.6993870  81.1750240
  63.6216210 127.4711920  81.4314200  65.1268520 143.2854150  78.5286080
  64.6671490 144.0369960  78.1544100  64.4980980 142.5660620  78.4700880
  51.9519140 139.3797390  80.9184800  51.2253200 138.7602680  80.8510750
  52.0128290 139.7738000  80.0482880  55.5564240 141.5942390  77.7034210
  56.0729260 140.9829750  77.1782470  56.2061620 142.0971170  78.1945220
  58.2959740 142.4850880  78.5303190  58.5837550 142.2305180  77.6536200
  58.8082960 141.9328240  79.1208760  59.5136750 126.2241080  79.1099700
  58.7308540 126.6986580  79.3896460  59.2199680 125.3195910  79.0012880
  50.2349140 142.6971780  74.1281560  50.0671180 142.0642460  74.8263450
  49.3683650 142.9031180  73.7775750  51.8411840 141.3905010  71.5731700
  51.3159460 141.7713040  70.8693660  51.7656420 142.0155780  72.2941410
  55.4240150 126.7927750  73.2260780  54.7942890 126.0915060  73.3930910
  54.8845290 127.5531880  73.0093940  58.3632100 143.4066980  85.8971390
  59.2899410 143.1711250  85.9407350  58.3482530 144.2338980  85.4157420
  66.5977160 142.9492550  72.8945640  66.7729350 142.2630290  72.2506560
  65.8998730 143.4739600  72.5022310  54.4404810 143.3387390  70.4480950
  55.1723630 143.0546670  69.9004840  54.6998480 143.1000670  71.3380330
  53.6019600 139.4552120  70.4527280  52.9728480 139.9237220  71.0013110
  53.7167430 138.6101340  70.8873470  64.9309660 142.6336840  85.7212430
  65.7234980 142.1386070  85.5138390  65.2242810 143.3126980  86.3288040
  59.1887360 135.2836800  58.4837750  58.4129460 134.8037240  58.7736320
  59.8400290 134.6042450  58.3093910  53.2053190 135.5956610  59.3613510
  52.3738070 135.3405320  59.7610020  53.8134170 135.6667380  60.0971430
  63.2094790 139.6896990  57.2636880  62.7476320 138.9184230  57.5924050
  64.0220340 139.7163060  57.7689330  53.1854450 139.6296700  59.5571530
  53.4882490 138.7394440  59.3781750  53.9298040 140.1866920  59.3293780
  51.6145140 130.5558500  53.1455900  50.7261840 130.8974470  53.0435780
  51.8986330 130.3558820  52.2536730  49.5778150 133.1564150  59.0295600
  50.1494260 132.3886350  59.0299240  49.5779690 133.4552910  58.1202210
  59.4358100 141.9755000  56.8840870  58.8169540 142.4312500  56.3135310
  60.2909880 142.1306460  56.4830570  58.6296350 137.9593990  58.4907910
  58.5604630 137.0183930  58.3297040  59.3916210 138.0495400  59.0630480
  50.8203020 128.5648510  60.8164530  50.6405860 127.6674260  61.0967290
  50.4183100 129.1120380  61.4911480  59.6601520 130.7664370  58.7176840
  60.0366340 129.8936250  58.6050510  59.5621030 131.1023070  57.8267280
  53.7906530 129.1390000  54.1794280  53.8973280 130.0393730  54.4863040
  52.8798890 129.0907970  53.8888930  51.4389690 131.0609010  59.4246870
  52.1199800 131.3247380  60.0434270  51.1237740 130.2209880  59.7584880
  55.6314260 132.1076370  58.5119460  56.1392480 132.6057340  59.1524480
  56.1627500 131.3311570  58.3358820  67.7325190 130.2781560  62.2148810
  67.0277360 130.6663270  61.6963920  67.9983110 130.9731850  62.8169740
  53.9150360 126.7474930  62.7782880  53.9168800 127.2647320  61.9728780
  53.0854670 126.2705110  62.7552810  60.3021450 136.8594240  54.2772780
  59.6838720 137.3243690  53.7135500  60.8144700 137.5521720  54.6942290
  55.1653210 136.3870110  60.9556380  54.8322590 137.0139030  61.5977450
  55.3419890 136.9131990  60.1758050  63.6787120 130.2015190  58.4232720
  62.9742690 130.4900080  59.0035830  64.0399280 131.0115300  58.0632280
  53.5965690 128.4584890  60.7853330  53.9382500 129.3026940  60.4907200
  52.6581500 128.6068630  60.9018670  54.3772310 138.3550910  62.7705560
  54.9946310 139.0301990  62.4890010  53.5165430 138.7638890  62.6793060
  49.6704650 137.5450770  51.6512410  49.2932630 138.0337870  50.9197310
  49.9277720 138.2176050  52.2818940  65.2949900 139.8190320  60.6860200
  64.6113420 140.4889430  60.6776870  65.8344190 140.0170970  59.9205060
  66.7474040 129.6469980  58.8141930  65.7998950 129.6808960  58.9457360
  67.0724030 130.4608930  59.1991290  62.8308640 141.6634450  59.4005380
  62.8435800 141.2596740  58.5327640  62.2783860 142.4381740  59.2966810
  64.1254060 138.3850670  54.4895550  64.0150390 137.4425000  54.6144970
  64.1222310 138.7466310  55.3758310  62.2294080 136.5664290  60.7287990
  62.6462870 136.3524400  59.8941450  62.9533900 136.8237080  61.2996610
  66.1756180 134.9651510  60.8204230  65.3474810 135.0344600  60.3454360
  66.7706660 135.5505820  60.3520060  63.1398190 131.7520830  61.7659100
  62.7269370 132.5774540  62.0199090  62.4074140 131.1665870  61.5735460
  55.2730980 134.5380730  56.6277770  54.8687980 133.8257980  56.1323670
  55.3594100 134.1933970  57.5165810  55.7412680 138.2248290  58.7916980
  55.4440970 137.6193760  58.1124760  56.6912500 138.2625600  58.6806340
  53.9859600 131.3123940  60.4076810  54.5374190 131.4219280  59.6330060
  54.5003110 131.6861540  61.1232040  63.8298290 141.7980160  62.4540080
  63.3528850 142.6052350  62.2612690  63.1460080 141.1458490  62.6066290
  54.8331110 137.9629980  65.4424780  53.9359640 138.1869950  65.6898180
  54.8583980 138.0864920  64.4936180  53.6602330 134.8343300  64.0182150
  53.5210100 135.7066100  64.3869550  52.7783690 134.4916110  63.8730090
  59.9831710 139.7519170  55.3247280  60.4227620 140.4943500  54.9102670
  59.9218600 139.9945740  56.2486240  55.4582680 140.7765000  66.2267300
  55.4298110 141.1807950  65.3595730  55.2947650 139.8475360  66.0638900
  65.4553470 126.0665910  49.6707080  65.1426130 126.1592740  50.5706150
  66.2165940 126.6446940  49.6204510  51.9735610 133.4325710  54.1284420
  51.8533210 134.1587800  53.5165690  51.6636500 132.6628620  53.6512330
  67.4097500 141.5592100  67.5231470  67.8857220 142.0374990  68.2020550
  68.0304660 141.4909590  66.7976970  49.6120980 136.6040850  59.9353060
  49.6901400 136.7389620  58.9908780  50.2262660 135.8956740  60.1281180
  50.8568610 138.3041040  56.3459240  50.4496690 138.4455630  55.4912840
  51.7481620 138.0201200  56.1430450  66.8130750 138.7504950  64.6831480
  66.9393810 138.5116830  63.7648660  66.8552130 137.9189490  65.1553560
  60.6747490 142.4532950  63.2526290  61.1892160 142.3640960  64.0548720
  59.8316570 142.7992650  63.5454200  62.6501890 142.7388290  52.6810290
  62.4903030 142.4491230  53.5792120  62.4848600 141.9628420  52.1455520
  55.1290270 142.5186820  54.4581910  54.9532750 141.6022360  54.2449710
  54.2746010 142.8774110  54.6979710  62.3528020 140.2475850  51.2408290
  61.6593180 140.2453140  50.5810570  63.0950880 139.8235170  50.8102460
  61.9177950 141.8738560  55.3156780  62.3734900 141.0927940  55.6295400
  62.2570470 142.5845380  55.8597960  66.6654760 130.8037410  65.6481220
  66.0499030 131.3117080  65.1196680  66.3451180 129.9035740  65.5907160
  49.6680500 137.6455020  62.4747520  49.8311540 137.1760380  61.6566890
  50.1332950 137.1378580  63.1396360  58.7269080 129.6429300  63.1143410
  58.2648450 129.8512320  63.9263350  58.3247190 128.8288650  62.8114080
  63.7273590 130.8638250  64.2440070  62.8767180 130.5644000  64.5649140
  63.5675380 131.1080260  63.3323890  60.8223300 132.3640000  66.3438860
  61.1476710 131.5303750  66.0041090  61.6103630 132.8868520  66.4917190
  57.5558090 126.3971480  52.3913920  56.9312270 126.3931350  53.1167230
  57.4688210 125.5302440  51.9949890  54.2313490 131.8994350  55.2389340
  54.0054410 131.6831520  56.1435960  53.4506020 132.3322810  54.8935310
  56.6712700 132.7979930  65.9049610  56.5756300 131.8574660  65.7550010
  57.5144680 133.0195000  65.5097680  51.8023240 129.2093600  64.0583390
  51.4086630 130.0568810  64.2656170  51.1141640 128.5719970  64.2492030
  58.3768290 129.2928570  67.1280130  57.6866610 129.1000770  67.7626220
  59.1200590 129.5763210  67.6604430  49.1040290 127.1322060  58.0913470
  48.8153340 127.7024920  58.8038450  49.8486050 126.6526510  58.4544700
  49.2910520 131.0742180  49.3016190  49.2085190 132.0172940  49.4431180
  48.9393580 130.9317090  48.4228540  60.6531260 133.1327010  59.9634050
  59.9212380 133.6413820  60.3124150  60.2555600 132.3156990  59.6622830
  57.0908650 129.8081210  58.3686540  57.0944710 129.3671160  57.5191080
  57.9859770 130.1298540  58.4758360  52.9411030 129.6907700  57.3280750
  52.6011080 130.1682930  58.0847800  52.1788350 129.2372820  56.9681850
  57.1528800 130.8093290  51.3593300  57.2741620 130.7679770  52.3079120
  56.7677310 131.6717440  51.2040030  61.1157170 128.5860690  59.3756990
  61.1329910 129.0369340  60.2198840  60.8672750 127.6866330  59.5890430
  56.1650300 133.1194430  50.7576600  55.5967200 132.6712680  50.1312510
  56.8739300 133.4787210  50.2241750  64.5427920 125.9992870  65.2143370
  64.8673690 125.2682530  65.7401350  64.5784430 125.6806510  64.3124360
  51.2419480 137.0206450  64.6343330  50.8574270 136.3800120  65.2326290
  51.5531670 137.7242570  65.2038060  57.3916620 133.8682990  60.1151950
  57.7586750 133.3941560  60.8613290  57.2021680 134.7424560  60.4560290
  50.2557110 128.6126680  56.2445420  49.9704030 128.2482350  57.0824040
  50.1935970 127.8807140  55.6308560  55.1815990 132.9091630  62.4336160
  54.8773060 133.7883610  62.6586520  56.1362450 132.9691420  62.4693600
  53.7097780 137.1152620  53.0303010  52.9360040 136.5750240  52.8701730
  54.4392410 136.5959230  52.6920770  64.4685760 136.1117980  58.8229400
  65.1884880 136.6073270  58.4325510  64.2667580 135.4335870  58.1783270
  59.8504560 136.1827040  64.7098400  59.7841870 135.2622710  64.4555990
  59.2209700 136.2802480  65.4243040  53.7535180 136.7833000  56.6681820
  54.2713850 135.9801260  56.6138710  53.3019200 136.7212140  57.5098650
  58.6404680 138.0499280  51.9409120  58.9820380 138.7941510  51.4452440
  57.8117390 138.3630400  52.3033950  51.2379720 133.7494370  63.5807520
  50.8794660 134.4148220  64.1680860  50.9434280 132.9177920  63.9520140
  54.4392840 134.2078610  66.4647070  54.1392980 134.3535790  65.5674890
  55.2104080 133.6483900  66.3720460  59.7821290 139.0047610  64.4602200
  59.7965830 138.0728570  64.2421110  59.0746390 139.0907370  65.0991970
  65.9932500 135.6454950  63.8070780  65.2680690 136.2383730  63.6100170
  66.5207960 135.6378490  63.0084150  65.9445610 140.0429690  53.4582940
  65.3021770 139.3885310  53.7326660  65.5576270 140.4484780  52.6823610
  61.5232090 137.3715120  57.3054630  61.8755910 136.7743250  56.6456000
  60.6394420 137.0459350  57.4762880  57.6095370 138.1312810  54.7125040
  58.2966500 138.6782020  55.0932630  56.8227790 138.6753540  54.7474650
  49.7487770 133.7485630  50.2042120  50.6182620 134.0310430  50.4878040
  49.2578090 134.5621500  50.0890930  56.9122580 135.1358840  54.3250400
  57.3685360 135.9464090  54.5510590  56.5610790 134.8181980  55.1568890
  59.2155190 140.6465180  61.5542700  59.8597410 140.8524560  62.2316120
  59.5784630 139.8853580  61.1013550  52.8134360 125.4796490  54.7972920
  52.6848990 125.4714390  55.7457840  51.9896380 125.8179580  54.4463930
  60.4887270 138.6497530  60.2720150  61.1309500 137.9490690  60.3852320
  61.0136620 139.4295970  60.0917040  64.3342990 138.9346150  49.9959290
  64.1080570 138.2176590  50.5883930  63.9439190 138.6858590  49.1581040
  62.2624890 139.4492430  63.4756210  62.5981130 140.0359120  64.1534130
  61.3425230 139.3185140  63.7054000  50.1159020 142.9613010  50.7703750
  50.4756660 143.5602350  50.1161020  49.9751360 143.5072900  51.5438780
  63.9159240 136.8518090  51.6573450  63.6280940 137.3130780  52.4451330
  64.7111410 136.3915860  51.9257670  50.1000880 141.2267870  65.2446150
  50.2092000 140.2862610  65.1041540  49.4481440 141.4922620  64.5959880
  58.0913470 139.4983760  66.6444270  57.7710340 138.7793000  67.1889960
  57.4171830 140.1738830  66.7180330  56.1327640 140.3444210  51.5877420
  56.1237740 141.0773900  50.9721930  55.2126000 140.0975790  51.6804380
  51.7334280 135.5659100  52.3324180  51.1262230 136.3058000  52.3419480
  52.2083630 135.6558460  51.5062380  61.3067070 129.7309920  62.0081070
  61.6747890 128.9105130  62.3360640  60.4465270 129.7911810  62.4236720
  59.1187240 140.4072450  50.2502610  59.2199220 140.2036440  49.3204590
  58.2188980 140.1530730  50.4550390  56.6413130 130.9652810  54.2326510
  55.9329280 131.4339150  54.6740120  56.9257610 130.3074820  54.8671700
  58.2669060 132.3849510  62.2319040  58.7654310 132.8595330  62.8970890
  58.4092010 131.4613030  62.4389070  57.7605350 142.9258770  54.9450280
  58.0146850 142.8880160  54.0229650  56.8117830 142.7992100  54.9378530
  54.8448150 129.2737890  51.6077220  55.6938680 129.7108040  51.5417410
  54.4779420 129.5858150  52.4349280  65.4735920 128.6017470  63.0747430
  64.9709520 129.3422870  63.4141240  66.2892580 128.9901470  62.7584220
  53.7439570 135.5270250  50.0812750  54.5102840 135.4151610  50.6438180
  53.8214260 134.8308220  49.4289520  52.4386330 132.9595320  50.7645640
  52.5189920 132.0122830  50.8763040  53.3306080 133.2902200  50.8706300
  65.7683510 141.0159500  58.1963050  65.8930930 141.8390670  58.6686860
  66.6349070 140.8050230  57.8487200  53.2401040 143.1090710  57.8680180
  53.9763520 142.5606170  58.1388750  53.6241960 143.9746720  57.7286170
  50.1246520 139.1764280  53.7421690  49.1986300 139.4185420  53.7327100
  50.5902950 140.0038540  53.6206440  52.2459320 142.2936780  67.0565760
  53.0472050 142.6148830  67.4701160  51.7311140 141.9332360  67.7785670
  56.3503350 142.2821020  49.6905750  57.1431960 142.5709850  49.2387540
  55.8307700 141.8513190  49.0118230  61.0823950 138.4016650  67.0041170
  60.4762110 138.4248250  66.2636920  60.7778060 137.6699690  67.5408420
  62.5124320 142.1296940  65.6150580  63.4646070 142.0454960  65.5650820
  62.3652540 142.7938650  66.2884370  65.4033520 141.5091150  51.1142490
  65.1175030 141.0956290  50.2996670  65.2053070 142.4378860  50.9943010
  49.9657130 134.7810240  66.0001810  50.4696150 134.2017520  66.5718040
  49.2264550 135.0650470  66.5378180  56.8680750 137.5024430  49.5548100
  56.7631390 136.8876780  50.2809480  56.7004970 136.9790320  48.7711110
  57.0195070 136.1881230  65.5337330  56.2540740 136.7566230  65.4492000
  57.2011030 135.8957440  64.6405560  60.1083480 136.5644460  50.1590090
  59.5593580 137.0113760  50.8032830  60.7302740 136.0593710  50.6827760
  64.1618420 137.9186560  66.0912350  64.9027890 138.2562320  65.5879810
  63.3991100 138.0878620  65.5382120  55.7758600 135.5235380  52.0555390
  56.1975020 135.3575250  52.8986780  55.9009440 134.7135610  51.5610530
  53.9386020 131.5031930  64.8626370  53.4082480 131.0122880  64.2349710
  54.6074090 131.9316130  64.3284300  58.2886240 134.5472990  49.3032490
  58.8091900 133.8322010  48.9373640  58.9354640 135.1858860  49.6033000
  62.8364080 135.9701390  64.6267560  63.2505100 136.1246470  65.4757980
  61.9015080 136.0956610  64.7893340  63.3086250 133.3097550  66.6306710
  63.8907020 132.5549870  66.5427190  63.4848020 133.8404990  65.8538190
  54.4258320 128.4694300  64.9423660  54.3315190 127.8515050  64.2174530
  53.8455710 129.1960590  64.7153570  57.5979310 135.9221870  62.5963490
  58.0167420 136.7654600  62.4239730  56.6787940 136.0593910  62.3670270
  59.9343210 133.6538050  63.9801330  60.0539420 133.0579190  64.7196170
  60.7937210 133.6907740  63.5602630  62.2731110 134.2075240  62.5563840
  61.7466330 134.7317860  61.9528980  62.6162450 134.8402630  63.1873570
  54.6717500 131.5968610  49.0013550  54.4706560 130.7335970  49.3626890
  54.5009550 131.5101970  48.0635150  55.4486730 142.2274880  63.7121220
  54.9107820 142.9520940  63.3929920  55.7020690 141.7505220  62.9218560
  56.7011980 130.1959400  65.2377150  57.2911670 129.8875250  65.9254970
  55.8832220 129.7239150  65.3937050  61.5205410 129.8125210  65.4710170
  60.8320930 129.1506750  65.4060160  62.2411430 129.3663480  65.9158630
  62.1505810 126.4076840  51.5300430  62.4308100 125.5644740  51.8859850
  61.3771540 126.6399950  52.0439180  58.3048940 143.4626090  63.9707870
  58.2307640 144.3661230  64.2780240  57.4027780 143.1437990  63.9429940
  58.8534270 142.6284600  51.5934230  59.7485060 142.9669570  51.6152990
  58.8851900 141.9064010  50.9658510  52.4930430 138.0011650  49.8221230
  52.9305300 138.5441320  50.4778810  52.9778160 137.1758600  49.8317570
  49.7076230 140.7900680  57.2741490  50.0379240 139.9221740  57.0420130
  50.1367230 140.9959200  58.1046450  54.3038150 139.1209690  54.9343460
  54.0033690 138.9974660  55.8347370  54.1975640 138.2618280  54.5259190
  50.1966440 141.6571270  60.0123120  49.7597430 141.8372070  60.8447270
  50.7644120 142.4145890  59.8704840  65.8328620 141.1588270  64.3000430
  65.2330610 141.2180830  63.5564350  65.9622520 140.2193250  64.4297280
  67.0730070 138.9006090  49.6370140  66.2423030 138.9682740  50.1077370
  67.2501900 139.7910210  49.3337000  66.5286530 135.6453570  52.1404340
  67.2905440 136.2150220  52.2464030  66.5440900 135.0780770  52.9112650
  50.0290870 134.1691500  56.3712000  49.3739710 133.9003140  55.7271700
  50.8668820 134.0595980  55.9213980  67.5346500 136.5003670  56.9846270
  67.9055330 135.7170990  56.5782240  68.1748430 137.1892770  56.8063570
  64.5180260 137.8840250  62.3976590  63.7040100 138.3137410  62.6602380
  64.9254460 138.4958660  61.7845640  66.5805700 135.9387940  49.2976860
  66.8554540 136.8466820  49.1696080  66.3916440 135.8750470  50.2338850
  51.0666800 134.5544070  60.9115340  51.4339840 134.4671470  61.7911360
  50.4977620 133.7910620  60.8122200  65.8670660 133.0228450  63.9245810
  65.6356750 132.7941200  63.0243760  66.1275210 133.9428000  63.8790700
  50.6182800 131.4653160  64.8173760  49.7238850 131.4319920  65.1567470
  51.1580350 131.6639950  65.5825010  64.3058730 128.2484880  66.7025510
  65.1828910 128.2568280  67.0859510  64.3179570 127.5115720  66.0917860
  49.2428950 131.3790430  52.3137330  48.3393030 131.6420630  52.1388990
  49.7269570 131.6501600  51.5337290  65.7522000 132.1014420  57.5913530
  66.2759480 131.6077070  56.9603700  66.3381420 132.2364780  58.3361100
  65.9311720 132.1854290  61.1133080  64.9814430 132.1517830  61.2278070
  66.1124730 133.0954400  60.8782850  51.7856160 130.4355970  50.2231710
  52.4947860 130.0139190  49.7378990  51.0696100 130.5031200  49.5915060
  51.4330320 126.4895300  49.2634360  52.1558450 127.0304240  49.5815580
  51.7054840 126.2158720  48.3875900  51.1222510 125.7401490  59.1656980
  51.7698700 125.1898870  58.7252140  51.5424350 125.9944640  59.9872790
  66.6709130 129.9948720  56.0643620  66.5608410 129.8404760  57.0025890
  67.4316720 129.4669660  55.8219030  65.0174850 125.9342850  62.5226620
  65.6547070 126.5476990  62.8885810  65.1649740 125.9703510  61.5775850
  67.5599400 127.8256640  49.3049760  68.4848710 127.6937820  49.0968050
  67.5375190 127.9049460  50.2586210  67.6337890 128.5967300  51.9306470
  66.8389390 128.5312420  52.4599380  67.8381170 129.5317940  51.9191820
  64.5756310 142.6358850  55.9244860  65.1715380 142.3143420  55.2479280
  64.8334460 142.1630670  56.7158130  50.8754510 125.8957160  61.9082300
  50.5269330 126.3520980  62.6740480  50.5442210 125.0014290  61.9904730
  52.4818880 139.0676760  66.0735490  52.4388510 138.6969670  66.9549950
  52.6129890 140.0054330  66.2137310  56.1824910 140.6236350  61.6745210
  55.9416270 140.8910910  60.7875730  57.1227550 140.7942080  61.7296070
  58.3879330 127.0869040  65.4301720  58.3268220 127.6790870  66.1797130
  59.3279710 126.9795000  65.2851980  61.0253890 126.7439100  65.0694010
  61.6394300 127.0618390  64.4075090  61.5703450 126.2587690  65.6889870
  67.4429070 142.6430730  62.4755850  66.9487350 143.0399600  61.7582980
  66.8342360 142.0179940  62.8693130  51.5475150 125.4233360  65.1833070
  52.0958140 125.2421410  64.4199180  51.6130460 124.6327470  65.7189380
  52.3206910 142.0139010  63.1933270  51.7267230 141.8823710  63.9323310
  52.3130750 141.1777150  62.7275370  61.7661930 125.3071240  61.3963300
  60.8921770 125.6406350  61.1936230  61.6572680 124.8344420  62.2215170
  62.6733910 127.5142110  62.7805020  62.3447270 126.6993870  62.4006750
  63.6216210 127.4711920  62.6570710  65.1268520 143.2854150  59.7542590
  64.6671490 144.0369960  59.3800610  64.4980980 142.5660620  59.6957390
  51.9519140 139.3797390  62.1441310  51.2253200 138.7602680  62.0767260
  52.0128290 139.7738000  61.2739390  55.5564240 141.5942390  58.9290720
  56.0729260 140.9829750  58.4038980  56.2061620 142.0971170  59.4201730
  58.2959740 142.4850880  59.7559700  58.5837550 142.2305180  58.8792710
  58.8082960 141.9328240  60.3465270  64.0657820 126.9264180  58.3805300
  64.5065910 126.8709280  57.5326900  63.7965410 127.8422190  58.4515480
  65.9296390 126.5579420  56.3914120  65.8684790 125.6140640  56.2445140
  66.7088420 126.6659510  56.9367580  50.2349140 142.6971780  55.3538070
  50.0671180 142.0642460  56.0519960  49.3683650 142.9031180  55.0032260
  50.8577160 126.5288560  52.8569930  51.6156520 126.6417440  52.2833960
  50.3954330 127.3657760  52.8113360  57.3990970 128.6427830  55.8472240
  56.5865480 128.2684720  55.5068120  57.9032610 127.8872910  56.1493430
  61.9015950 125.3070280  57.0855310  62.5045320 125.8790490  57.5603830
  61.1608940 125.8709720  56.8629210  65.0450550 125.7091840  52.3595590
  65.2401180 126.6075290  52.6263020  64.2580420 125.4778920  52.8528540
  51.8411840 141.3905010  52.7988210  51.3159460 141.7713040  52.0950170
  51.7656420 142.0155780  53.5197920  53.2302310 127.0552610  51.3971900
  53.7595070 126.2682410  51.2679850  53.8630630 127.7343800  51.6307430
  55.4240150 126.7927750  54.4517290  54.7942890 126.0915060  54.6187420
  54.8845290 127.5531880  54.2350450  58.3632100 143.4066980  67.1227900
  59.2899410 143.1711250  67.1663860  58.3482530 144.2338980  66.6413930
  66.5977160 142.9492550  54.1202150  66.7729350 142.2630290  53.4763070
  65.8998730 143.4739600  53.7278820  55.5495710 126.0711730  66.8869780
  55.2679980 126.5745330  66.1230600  55.9315410 125.2733480  66.5211910
  54.4404810 143.3387390  51.6737460  55.1723630 143.0546670  51.1261350
  54.6998480 143.1000670  52.5636840  53.6019600 139.4552120  51.6783790
  52.9728480 139.9237220  52.2269620  53.7167430 138.6101340  52.1129980
  64.9309660 142.6336840  66.9468940  65.7234980 142.1386070  66.7394900
  65.2242810 143.3126980  67.5544550  61.0569320 133.5057780  37.8284990
  60.9763370 132.5912390  37.5576700  60.6433740 134.0024850  37.1224700
  59.1887360 135.2836800  39.7094260  58.4129460 134.8037240  39.9992830
  59.8400290 134.6042450  39.5350420  53.2053190 135.5956610  40.5870020
  52.3738070 135.3405320  40.9866530  53.8134170 135.6667380  41.3227940
  63.2094790 139.6896990  38.4893390  62.7476320 138.9184230  38.8180560
  64.0220340 139.7163060  38.9945840  53.1854450 139.6296700  40.7828040
  53.4882490 138.7394440  40.6038260  53.9298040 140.1866920  40.5550290
  51.6145140 130.5558500  34.3712410  50.7261840 130.8974470  34.2692290
  51.8986330 130.3558820  33.4793240  49.5778150 133.1564150  40.2552110
  50.1494260 132.3886350  40.2555750  49.5779690 133.4552910  39.3458720
  59.4358100 141.9755000  38.1097380  58.8169540 142.4312500  37.5391820
  60.2909880 142.1306460  37.7087080  58.6296350 137.9593990  39.7164420
  58.5604630 137.0183930  39.5553550  59.3916210 138.0495400  40.2886990
  50.8203020 128.5648510  42.0421040  50.6405860 127.6674260  42.3223800
  50.4183100 129.1120380  42.7167990  59.6601520 130.7664370  39.9433350
  60.0366340 129.8936250  39.8307020  59.5621030 131.1023070  39.0523790
  53.7906530 129.1390000  35.4050790  53.8973280 130.0393730  35.7119550
  52.8798890 129.0907970  35.1145440  63.4425640 128.2614810  36.8761690
  64.2635260 127.7711380  36.9187170  63.4759720 128.8512470  37.6293530
  51.4389690 131.0609010  40.6503380  52.1199800 131.3247380  41.2690780
  51.1237740 130.2209880  40.9841390  55.6314260 132.1076370  39.7375970
  56.1392480 132.6057340  40.3780990  56.1627500 131.3311570  39.5615330
  67.7325190 130.2781560  43.4405320  67.0277360 130.6663270  42.9220430
  67.9983110 130.9731850  44.0426250  60.3021450 136.8594240  35.5029290
  59.6838720 137.3243690  34.9392010  60.8144700 137.5521720  35.9198800
  55.1653210 136.3870110  42.1812890  54.8322590 137.0139030  42.8233960
  55.3419890 136.9131990  41.4014560  63.6787120 130.2015190  39.6489230
  62.9742690 130.4900080  40.2292340  64.0399280 131.0115300  39.2888790
  53.5965690 128.4584890  42.0109840  53.9382500 129.3026940  41.7163710
  52.6581500 128.6068630  42.1275180  54.3772310 138.3550910  43.9962070
  54.9946310 139.0301990  43.7146520  53.5165430 138.7638890  43.9049570
  49.6704650 137.5450770  32.8768920  49.2932630 138.0337870  32.1453820
  49.9277720 138.2176050  33.5075450  65.2949900 139.8190320  41.9116710
  64.6113420 140.4889430  41.9033380  65.8344190 140.0170970  41.1461570
  66.7474040 129.6469980  40.0398440  65.7998950 129.6808960  40.1713870
  67.0724030 130.4608930  40.4247800  57.2793580 125.9467160  38.3354430
  57.5868560 125.3914050  37.6189930  56.3494280 126.0811620  38.1527420
  62.8308640 141.6634450  40.6261890  62.8435800 141.2596740  39.7584150
  62.2783860 142.4381740  40.5223320  64.1254060 138.3850670  35.7152060
  64.0150390 137.4425000  35.8401480  64.1222310 138.7466310  36.6014820
  62.2294080 136.5664290  41.9544500  62.6462870 136.3524400  41.1197960
  62.9533900 136.8237080  42.5253120  59.6674340 134.0115990  35.0714550
  58.7403620 133.9453370  35.3003020  59.8199160 134.9496120  34.9569790
  59.6543420 130.2832990  32.0681710  58.7147090 130.4446950  32.1534170
  59.9726680 131.0018670  31.5217700  66.1756180 134.9651510  42.0460740
  65.3474810 135.0344600  41.5710870  66.7706660 135.5505820  41.5776570
  63.6971630 135.5736290  35.5749800  63.0784050 135.2355840  34.9276100
  63.6796080 134.9296050  36.2828990  55.2730980 134.5380730  37.8534280
  54.8687980 133.8257980  37.3580180  55.3594100 134.1933970  38.7422320
  55.7412680 138.2248290  40.0173490  55.4440970 137.6193760  39.3381270
  56.6912500 138.2625600  39.9062850  53.9859600 131.3123940  41.6333320
  54.5374190 131.4219280  40.8586570  54.5003110 131.6861540  42.3488550
  63.8298290 141.7980160  43.6796590  63.3528850 142.6052350  43.4869200
  63.1460080 141.1458490  43.8322800  54.8331110 137.9629980  46.6681290
  53.9359640 138.1869950  46.9154690  54.8583980 138.0864920  45.7192690
  61.8736330 134.8123100  32.5822550  62.3129610 133.9745530  32.4360370
  62.5864750 135.4452500  32.6686690  53.6602330 134.8343300  45.2438660
  53.5210100 135.7066100  45.6126060  52.7783690 134.4916110  45.0986600
  59.9831710 139.7519170  36.5503790  60.4227620 140.4943500  36.1359180
  59.9218600 139.9945740  37.4742750  55.4582680 140.7765000  47.4523810
  55.4298110 141.1807950  46.5852240  55.2947650 139.8475360  47.2895410
  65.4553470 126.0665910  30.8963590  65.1426130 126.1592740  31.7962660
  66.2165940 126.6446940  30.8461020  51.9735610 133.4325710  35.3540930
  51.8533210 134.1587800  34.7422200  51.6636500 132.6628620  34.8768840
  67.4097500 141.5592100  48.7487980  67.8857220 142.0374990  49.4277060
  68.0304660 141.4909590  48.0233480  49.6120980 136.6040850  41.1609570
  49.6901400 136.7389620  40.2165290  50.2262660 135.8956740  41.3537690
  50.8568610 138.3041040  37.5715750  50.4496690 138.4455630  36.7169350
  51.7481620 138.0201200  37.3686960  66.8130750 138.7504950  45.9087990
  66.9393810 138.5116830  44.9905170  66.8552130 137.9189490  46.3810070
  60.6747490 142.4532950  44.4782800  61.1892160 142.3640960  45.2805230
  59.8316570 142.7992650  44.7710710  62.6501890 142.7388290  33.9066800
  62.4903030 142.4491230  34.8048630  62.4848600 141.9628420  33.3712030
  55.1290270 142.5186820  35.6838420  54.9532750 141.6022360  35.4706220
  54.2746010 142.8774110  35.9236220  62.3528020 140.2475850  32.4664800
  61.6593180 140.2453140  31.8067080  63.0950880 139.8235170  32.0358970
  61.9177950 141.8738560  36.5413290  62.3734900 141.0927940  36.8551910
  62.2570470 142.5845380  37.0854470  66.6654760 130.8037410  46.8737730
  66.0499030 131.3117080  46.3453190  66.3451180 129.9035740  46.8163670
  49.6680500 137.6455020  43.7004030  49.8311540 137.1760380  42.8823400
  50.1332950 137.1378580  44.3652870  54.4399270 126.7760780  38.7364600
  53.9967420 127.5570320  38.4049120  54.9984260 127.0990670  39.4435540
  57.5558090 126.3971480  33.6170430  56.9312270 126.3931350  34.3423740
  57.4688210 125.5302440  33.2206400  56.4775170 127.3208110  40.5954200
  56.7747500 128.2270940  40.5146220  57.0260730 126.8326890  39.9813770
  54.2313490 131.8994350  36.4645850  54.0054410 131.6831520  37.3692470
  53.4506020 132.3322810  36.1191820  61.4611250 131.9057720  35.0636500
  60.8620140 132.6293520  34.8800120  62.0090860 131.8434500  34.2812950
  60.0676120 130.5421260  37.0939780  60.4605690 130.8593460  36.2808470
  60.4292970 129.6633140  37.2084300  51.8023240 129.2093600  45.2839900
  51.4086630 130.0568810  45.4912680  51.1141640 128.5719970  45.4748540
  49.1040290 127.1322060  39.3169980  48.8153340 127.7024920  40.0294960
  49.8486050 126.6526510  39.6801210  49.2910520 131.0742180  30.5272700
  49.2085190 132.0172940  30.6687690  48.9393580 130.9317090  29.6485050
  60.6531260 133.1327010  41.1890560  59.9212380 133.6413820  41.5380660
  60.2555600 132.3156990  40.8879340  57.0908650 129.8081210  39.5943050
  57.0944710 129.3671160  38.7447590  57.9859770 130.1298540  39.7014870
  52.9411030 129.6907700  38.5537260  52.6011080 130.1682930  39.3104310
  52.1788350 129.2372820  38.1938360  57.1528800 130.8093290  32.5849810
  57.2741620 130.7679770  33.5335630  56.7677310 131.6717440  32.4296540
  61.1157170 128.5860690  40.6013500  61.1329910 129.0369340  41.4455350
  60.8672750 127.6866330  40.8146940  56.1650300 133.1194430  31.9833110
  55.5967200 132.6712680  31.3569020  56.8739300 133.4787210  31.4498260
  64.5427920 125.9992870  46.4399880  64.8673690 125.2682530  46.9657860
  64.5784430 125.6806510  45.5380870  51.2419480 137.0206450  45.8599840
  50.8574270 136.3800120  46.4582800  51.5531670 137.7242570  46.4294570
  57.3916620 133.8682990  41.3408460  57.7586750 133.3941560  42.0869800
  57.2021680 134.7424560  41.6816800  50.2557110 128.6126680  37.4701930
  49.9704030 128.2482350  38.3080550  50.1935970 127.8807140  36.8565070
  55.1815990 132.9091630  43.6592670  54.8773060 133.7883610  43.8843030
  56.1362450 132.9691420  43.6950110  53.7097780 137.1152620  34.2559520
  52.9360040 136.5750240  34.0958240  54.4392410 136.5959230  33.9177280
  64.4685760 136.1117980  40.0485910  65.1884880 136.6073270  39.6582020
  64.2667580 135.4335870  39.4039780  59.9295700 127.5055940  34.1915300
  59.1160310 127.0069110  34.1160610  59.7357650 128.3454190  33.7751650
  59.8504560 136.1827040  45.9354910  59.7841870 135.2622710  45.6812500
  59.2209700 136.2802480  46.6499550  62.6444090 131.8775590  32.4877460
  63.5323710 132.1892820  32.3128800  62.6149180 131.0047840  32.0958040
  53.7535180 136.7833000  37.8938330  54.2713850 135.9801260  37.8395220
  53.3019200 136.7212140  38.7355160  58.6404680 138.0499280  33.1665630
  58.9820380 138.7941510  32.6708950  57.8117390 138.3630400  33.5290460
  51.2379720 133.7494370  44.8064030  50.8794660 134.4148220  45.3937370
  50.9434280 132.9177920  45.1776650  54.4392840 134.2078610  47.6903580
  54.1392980 134.3535790  46.7931400  55.2104080 133.6483900  47.5976970
  59.7821290 139.0047610  45.6858710  59.7965830 138.0728570  45.4677620
  59.0746390 139.0907370  46.3248480  64.9158360 133.1887430  31.9557320
  64.8322080 133.6201650  31.1053760  65.6352550 133.6485780  32.3884140
  65.9932500 135.6454950  45.0327290  65.2680690 136.2383730  44.8356680
  66.5207960 135.6378490  44.2340660  65.9445610 140.0429690  34.6839450
  65.3021770 139.3885310  34.9583170  65.5576270 140.4484780  33.9080120
  61.5232090 137.3715120  38.5311140  61.8755910 136.7743250  37.8712510
  60.6394420 137.0459350  38.7019390  57.6095370 138.1312810  35.9381550
  58.2966500 138.6782020  36.3189140  56.8227790 138.6753540  35.9731160
  49.7487770 133.7485630  31.4298630  50.6182620 134.0310430  31.7134550
  49.2578090 134.5621500  31.3147440  56.9122580 135.1358840  35.5506910
  57.3685360 135.9464090  35.7767100  56.5610790 134.8181980  36.3825400
  59.2155190 140.6465180  42.7799210  59.8597410 140.8524560  43.4572630
  59.5784630 139.8853580  42.3270060  52.8134360 125.4796490  36.0229430
  52.6848990 125.4714390  36.9714350  51.9896380 125.8179580  35.6720440
  60.4887270 138.6497530  41.4976660  61.1309500 137.9490690  41.6108830
  61.0136620 139.4295970  41.3173550  64.3342990 138.9346150  31.2215800
  64.1080570 138.2176590  31.8140440  63.9439190 138.6858590  30.3837550
  62.2624890 139.4492430  44.7012720  62.5981130 140.0359120  45.3790640
  61.3425230 139.3185140  44.9310510  50.1159020 142.9613010  31.9960260
  50.4756660 143.5602350  31.3417530  49.9751360 143.5072900  32.7695290
  63.9159240 136.8518090  32.8829960  63.6280940 137.3130780  33.6707840
  64.7111410 136.3915860  33.1514180  50.1000880 141.2267870  46.4702660
  50.2092000 140.2862610  46.3298050  49.4481440 141.4922620  45.8216390
  58.0913470 139.4983760  47.8700780  57.7710340 138.7793000  48.4146470
  57.4171830 140.1738830  47.9436840  56.1327640 140.3444210  32.8133930
  56.1237740 141.0773900  32.1978440  55.2126000 140.0975790  32.9060890
  51.7334280 135.5659100  33.5580690  51.1262230 136.3058000  33.5675990
  52.2083630 135.6558460  32.7318890  64.6729100 128.6866860  34.0425140
  64.0442260 128.7912530  33.3283370  64.1781020 128.9063640  34.8319020
  59.1187240 140.4072450  31.4759120  59.2199220 140.2036440  30.5461100
  58.2188980 140.1530730  31.6806900  56.6413130 130.9652810  35.4583020
  55.9329280 131.4339150  35.8996630  56.9257610 130.3074820  36.0928210
  60.6728560 127.6903470  36.8978810  60.5496340 127.7089600  35.9488320
  61.6213120 127.7382410  37.0177210  57.7605350 142.9258770  36.1706790
  58.0146850 142.8880160  35.2486160  56.8117830 142.7992100  36.1635040
  54.8448150 129.2737890  32.8333730  55.6938680 129.7108040  32.7673920
  54.4779420 129.5858150  33.6605790  63.7657930 133.8450650  37.7465300
  62.8248070 133.8600880  37.9212990  64.0802000 133.0586610  38.1925600
  53.7439570 135.5270250  31.3069260  54.5102840 135.4151610  31.8694690
  53.8214260 134.8308220  30.6546030  52.4386330 132.9595320  31.9902150
  52.5189920 132.0122830  32.1019550  53.3306080 133.2902200  32.0962810
  65.7683510 141.0159500  39.4219560  65.8930930 141.8390670  39.8943370
  66.6349070 140.8050230  39.0743710  53.2401040 143.1090710  39.0936690
  53.9763520 142.5606170  39.3645260  53.6241960 143.9746720  38.9542680
  50.1246520 139.1764280  34.9678200  49.1986300 139.4185420  34.9583610
  50.5902950 140.0038540  34.8462950  52.2459320 142.2936780  48.2822270
  53.0472050 142.6148830  48.6957670  51.7311140 141.9332360  49.0042180
  56.3503350 142.2821020  30.9162260  57.1431960 142.5709850  30.4644050
  55.8307700 141.8513190  30.2374740  61.0823950 138.4016650  48.2297680
  60.4762110 138.4248250  47.4893430  60.7778060 137.6699690  48.7664930
  62.5124320 142.1296940  46.8407090  63.4646070 142.0454960  46.7907330
  62.3652540 142.7938650  47.5140880  65.4033520 141.5091150  32.3399000
  65.1175030 141.0956290  31.5253180  65.2053070 142.4378860  32.2199520
  49.9657130 134.7810240  47.2258320  50.4696150 134.2017520  47.7974550
  49.2264550 135.0650470  47.7634690  56.8680750 137.5024430  30.7804610
  56.7631390 136.8876780  31.5065990  56.7004970 136.9790320  29.9967620
  57.0195070 136.1881230  46.7593840  56.2540740 136.7566230  46.6748510
  57.2011030 135.8957440  45.8662070  60.1083480 136.5644460  31.3846600
  59.5593580 137.0113760  32.0289340  60.7302740 136.0593710  31.9084270
  64.1618420 137.9186560  47.3168860  64.9027890 138.2562320  46.8136320
  63.3991100 138.0878620  46.7638630  51.9980210 132.9239830  48.1208390
  52.0385550 132.6253700  49.0293620  52.8525710 133.3247440  47.9615910
  55.7758600 135.5235380  33.2811900  56.1975020 135.3575250  34.1243290
  55.9009440 134.7135610  32.7867040  53.9386020 131.5031930  46.0882880
  53.4082480 131.0122880  45.4606220  54.6074090 131.9316130  45.5540810
  58.2886240 134.5472990  30.5289000  58.8091900 133.8322010  30.1630150
  58.9354640 135.1858860  30.8289510  62.8364080 135.9701390  45.8524070
  63.2505100 136.1246470  46.7014490  61.9015080 136.0956610  46.0149850
  57.5979310 135.9221870  43.8220000  58.0167420 136.7654600  43.6496240
  56.6787940 136.0593910  43.5926780  54.6717500 131.5968610  30.2270060
  54.4706560 130.7335970  30.5883400  54.5009550 131.5101970  29.2891660
  55.4486730 142.2274880  44.9377730  54.9107820 142.9520940  44.6186430
  55.7020690 141.7505220  44.1475070  62.1505810 126.4076840  32.7556940
  62.4308100 125.5644740  33.1116360  61.3771540 126.6399950  33.2695690
  53.4700300 128.6969230  30.2147940  53.7726200 128.7036660  29.3067090
  54.2094890 128.3467090  30.7115600  58.3048940 143.4626090  45.1964380
  58.2307640 144.3661230  45.5036750  57.4027780 143.1437990  45.1686450
  56.6885230 127.6403850  31.2004140  56.3407230 126.9627840  30.6206590
  56.8898000 127.1793360  32.0147530  58.8534270 142.6284600  32.8190740
  59.7485060 142.9669570  32.8409500  58.8851900 141.9064010  32.1915020
  52.4930430 138.0011650  31.0477740  52.9305300 138.5441320  31.7035320
  52.9778160 137.1758600  31.0574080  49.7076230 140.7900680  38.4998000
  50.0379240 139.9221740  38.2676640  50.1367230 140.9959200  39.3302960
  54.3038150 139.1209690  36.1599970  54.0033690 138.9974660  37.0603880
  54.1975640 138.2618280  35.7515700  50.1966440 141.6571270  41.2379630
  49.7597430 141.8372070  42.0703780  50.7644120 142.4145890  41.0961350
  65.8328620 141.1588270  45.5256940  65.2330610 141.2180830  44.7820860
  65.9622520 140.2193250  45.6553790  67.0730070 138.9006090  30.8626650
  66.2423030 138.9682740  31.3333880  67.2501900 139.7910210  30.5593510
  66.5286530 135.6453570  33.3660850  67.2905440 136.2150220  33.4720540
  66.5440900 135.0780770  34.1369160  50.0290870 134.1691500  37.5968510
  49.3739710 133.9003140  36.9528210  50.8668820 134.0595980  37.1470490
  67.5346500 136.5003670  38.2102780  67.9055330 135.7170990  37.8038750
  68.1748430 137.1892770  38.0320080  64.5180260 137.8840250  43.6233100
  63.7040100 138.3137410  43.8858890  64.9254460 138.4958660  43.0102150
  66.5805700 135.9387940  30.5233370  66.8554540 136.8466820  30.3952590
  66.3916440 135.8750470  31.4595360  62.9781310 128.9632790  31.8187000
  63.3966190 128.7763770  30.9783660  62.6717370 128.1111840  32.1289930
  66.4771040 133.8756930  35.5162800  66.1014640 133.1084860  35.0844090
  65.7474160 134.2579630  36.0037730  51.0666800 134.5544070  42.1371850
  51.4339840 134.4671470  43.0167870  50.4977620 133.7910620  42.0378710
  65.8670660 133.0228450  45.1502320  65.6356750 132.7941200  44.2500270
  66.1275210 133.9428000  45.1047210  50.6182800 131.4653160  46.0430270
  49.7238850 131.4319920  46.3823980  51.1580350 131.6639950  46.8081520
  49.2428950 131.3790430  33.5393840  48.3393030 131.6420630  33.3645500
  49.7269570 131.6501600  32.7593800  65.7522000 132.1014420  38.8170040
  66.2759480 131.6077070  38.1860210  66.3381420 132.2364780  39.5617610
  65.9311720 132.1854290  42.3389590  64.9814430 132.1517830  42.4534580
  66.1124730 133.0954400  42.1039360  51.7856160 130.4355970  31.4488220
  52.4947860 130.0139190  30.9635500  51.0696100 130.5031200  30.8171570
  51.4330320 126.4895300  30.4890870  52.1558450 127.0304240  30.8072090
  51.7054840 126.2158720  29.6132410  65.2421970 131.3587770  34.7562450
  65.7381090 131.1258640  35.5411330  65.0438040 130.5199610  34.3400090
  66.6709130 129.9948720  37.2900130  66.5608410 129.8404760  38.2282400
  67.4316720 129.4669660  37.0475540  65.0174850 125.9342850  43.7483130
  65.6547070 126.5476990  44.1142320  65.1649740 125.9703510  42.8032360
  67.5599400 127.8256640  30.5306270  68.4848710 127.6937820  30.3224560
  67.5375190 127.9049460  31.4842720  67.6337890 128.5967300  33.1562980
  66.8389390 128.5312420  33.6855890  67.8381170 129.5317940  33.1448330
  64.5756310 142.6358850  37.1501370  65.1715380 142.3143420  36.4735790
  64.8334460 142.1630670  37.9414640  52.4818880 139.0676760  47.2992000
  52.4388510 138.6969670  48.1806460  52.6129890 140.0054330  47.4393820
  56.1824910 140.6236350  42.9001720  55.9416270 140.8910910  42.0132240
  57.1227550 140.7942080  42.9552580  67.4429070 142.6430730  43.7012360
  66.9487350 143.0399600  42.9839490  66.8342360 142.0179940  44.0949640
  52.3206910 142.0139010  44.4189780  51.7267230 141.8823710  45.1579820
  52.3130750 141.1777150  43.9531880  65.1268520 143.2854150  40.9799100
  64.6671490 144.0369960  40.6057120  64.4980980 142.5660620  40.9213900
  51.9519140 139.3797390  43.3697820  51.2253200 138.7602680  43.3023770
  52.0128290 139.7738000  42.4995900  55.5564240 141.5942390  40.1547230
  56.0729260 140.9829750  39.6295490  56.2061620 142.0971170  40.6458240
  58.2959740 142.4850880  40.9816210  58.5837550 142.2305180  40.1049220
  58.8082960 141.9328240  41.5721780  64.0657820 126.9264180  39.6061810
  64.5065910 126.8709280  38.7583410  63.7965410 127.8422190  39.6771990
  65.9296390 126.5579420  37.6170630  65.8684790 125.6140640  37.4701650
  66.7088420 126.6659510  38.1624090  50.2349140 142.6971780  36.5794580
  50.0671180 142.0642460  37.2776470  49.3683650 142.9031180  36.2288770
  50.8577160 126.5288560  34.0826440  51.6156520 126.6417440  33.5090470
  50.3954330 127.3657760  34.0369870  57.3990970 128.6427830  37.0728750
  56.5865480 128.2684720  36.7324630  57.9032610 127.8872910  37.3749940
  61.9015950 125.3070280  38.3111820  62.5045320 125.8790490  38.7860340
  61.1608940 125.8709720  38.0885720  65.0450550 125.7091840  33.5852100
  65.2401180 126.6075290  33.8519530  64.2580420 125.4778920  34.0785050
  51.8411840 141.3905010  34.0244720  51.3159460 141.7713040  33.3206680
  51.7656420 142.0155780  34.7454430  53.2302310 127.0552610  32.6228410
  53.7595070 126.2682410  32.4936360  53.8630630 127.7343800  32.8563940
  55.4240150 126.7927750  35.6773800  54.7942890 126.0915060  35.8443930
  54.8845290 127.5531880  35.4606960  58.3632100 143.4066980  48.3484410
  59.2899410 143.1711250  48.3920370  58.3482530 144.2338980  47.8670440
  66.5977160 142.9492550  35.3458660  66.7729350 142.2630290  34.7019580
  65.8998730 143.4739600  34.9535330  54.4404810 143.3387390  32.8993970
  55.1723630 143.0546670  32.3517860  54.6998480 143.1000670  33.7893350
  53.6019600 139.4552120  32.9040300  52.9728480 139.9237220  33.4526130
  53.7167430 138.6101340  33.3386490  62.1511170 125.4865310  48.6906760
  62.0376620 125.8059920  49.5858280  62.9680910 125.8877820  48.3944040
  64.9309660 142.6336840  48.1725450  65.7234980 142.1386070  47.9651410
  65.2242810 143.3126980  48.7801060  61.0569320 133.5057780  19.0541500
  60.9763370 132.5912390  18.7833210  60.6433740 134.0024850  18.3481210
  59.1887360 135.2836800  20.9350770  58.4129460 134.8037240  21.2249340
  59.8400290 134.6042450  20.7606930  53.2053190 135.5956610  21.8126530
  52.3738070 135.3405320  22.2123040  53.8134170 135.6667380  22.5484450
  63.2094790 139.6896990  19.7149900  62.7476320 138.9184230  20.0437070
  64.0220340 139.7163060  20.2202350  53.1854450 139.6296700  22.0084550
  53.4882490 138.7394440  21.8294770  53.9298040 140.1866920  21.7806800
  51.6145140 130.5558500  15.5968920  50.7261840 130.8974470  15.4948800
  51.8986330 130.3558820  14.7049750  49.5778150 133.1564150  21.4808620
  50.1494260 132.3886350  21.4812260  49.5779690 133.4552910  20.5715230
  59.4358100 141.9755000  19.3353890  58.8169540 142.4312500  18.7648330
  60.2909880 142.1306460  18.9343590  58.6296350 137.9593990  20.9420930
  58.5604630 137.0183930  20.7810060  59.3916210 138.0495400  21.5143500
  50.8203020 128.5648510  23.2677550  50.6405860 127.6674260  23.5480310
  50.4183100 129.1120380  23.9424500  59.6601520 130.7664370  21.1689860
  60.0366340 129.8936250  21.0563530  59.5621030 131.1023070  20.2780300
  53.7906530 129.1390000  16.6307300  53.8973280 130.0393730  16.9376060
  52.8798890 129.0907970  16.3401950  63.4425640 128.2614810  18.1018200
  64.2635260 127.7711380  18.1443680  63.4759720 128.8512470  18.8550040
  51.4389690 131.0609010  21.8759890  52.1199800 131.3247380  22.4947290
  51.1237740 130.2209880  22.2097900  55.6314260 132.1076370  20.9632480
  56.1392480 132.6057340  21.6037500  56.1627500 131.3311570  20.7871840
  67.7325190 130.2781560  24.6661830  67.0277360 130.6663270  24.1476940
  67.9983110 130.9731850  25.2682760  53.9150360 126.7474930  25.2295900
  53.9168800 127.2647320  24.4241800  53.0854670 126.2705110  25.2065830
  60.3021450 136.8594240  16.7285800  59.6838720 137.3243690  16.1648520
  60.8144700 137.5521720  17.1455310  55.1653210 136.3870110  23.4069400
  54.8322590 137.0139030  24.0490470  55.3419890 136.9131990  22.6271070
  63.6787120 130.2015190  20.8745740  62.9742690 130.4900080  21.4548850
  64.0399280 131.0115300  20.5145300  53.5965690 128.4584890  23.2366350
  53.9382500 129.3026940  22.9420220  52.6581500 128.6068630  23.3531690
  54.3772310 138.3550910  25.2218580  54.9946310 139.0301990  24.9403030
  53.5165430 138.7638890  25.1306080  49.6704650 137.5450770  14.1025430
  49.2932630 138.0337870  13.3710330  49.9277720 138.2176050  14.7331960
  65.2949900 139.8190320  23.1373220  64.6113420 140.4889430  23.1289890
  65.8344190 140.0170970  22.3718080  66.7474040 129.6469980  21.2654950
  65.7998950 129.6808960  21.3970380  67.0724030 130.4608930  21.6504310
  57.2793580 125.9467160  19.5610940  57.5868560 125.3914050  18.8446440
  56.3494280 126.0811620  19.3783930  62.8308640 141.6634450  21.8518400
  62.8435800 141.2596740  20.9840660  62.2783860 142.4381740  21.7479830
  64.1254060 138.3850670  16.9408570  64.0150390 137.4425000  17.0657990
  64.1222310 138.7466310  17.8271330  62.2294080 136.5664290  23.1801010
  62.6462870 136.3524400  22.3454470  62.9533900 136.8237080  23.7509630
  59.6674340 134.0115990  16.2971060  58.7403620 133.9453370  16.5259530
  59.8199160 134.9496120  16.1826300  59.6543420 130.2832990  13.2938220
  58.7147090 130.4446950  13.3790680  59.9726680 131.0018670  12.7474210
  66.1756180 134.9651510  23.2717250  65.3474810 135.0344600  22.7967380
  66.7706660 135.5505820  22.8033080  63.6971630 135.5736290  16.8006310
  63.0784050 135.2355840  16.1532610  63.6796080 134.9296050  17.5085500
  63.1398190 131.7520830  24.2172120  62.7269370 132.5774540  24.4712110
  62.4074140 131.1665870  24.0248480  55.2730980 134.5380730  19.0790790
  54.8687980 133.8257980  18.5836690  55.3594100 134.1933970  19.9678830
  55.7412680 138.2248290  21.2430000  55.4440970 137.6193760  20.5637780
  56.6912500 138.2625600  21.1319360  53.9859600 131.3123940  22.8589830
  54.5374190 131.4219280  22.0843080  54.5003110 131.6861540  23.5745060
  63.8298290 141.7980160  24.9053100  63.3528850 142.6052350  24.7125710
  63.1460080 141.1458490  25.0579310  54.8331110 137.9629980  27.8937800
  53.9359640 138.1869950  28.1411200  54.8583980 138.0864920  26.9449200
  61.8736330 134.8123100  13.8079060  62.3129610 133.9745530  13.6616880
  62.5864750 135.4452500  13.8943200  53.6602330 134.8343300  26.4695170
  53.5210100 135.7066100  26.8382570  52.7783690 134.4916110  26.3243110
  59.9831710 139.7519170  17.7760300  60.4227620 140.4943500  17.3615690
  59.9218600 139.9945740  18.6999260  55.4582680 140.7765000  28.6780320
  55.4298110 141.1807950  27.8108750  55.2947650 139.8475360  28.5151920
  65.4553470 126.0665910  12.1220100  65.1426130 126.1592740  13.0219170
  66.2165940 126.6446940  12.0717530  51.9735610 133.4325710  16.5797440
  51.8533210 134.1587800  15.9678710  51.6636500 132.6628620  16.1025350
  67.4097500 141.5592100  29.9744490  67.8857220 142.0374990  30.6533570
  68.0304660 141.4909590  29.2489990  49.6120980 136.6040850  22.3866080
  49.6901400 136.7389620  21.4421800  50.2262660 135.8956740  22.5794200
  50.8568610 138.3041040  18.7972260  50.4496690 138.4455630  17.9425860
  51.7481620 138.0201200  18.5943470  66.8130750 138.7504950  27.1344500
  66.9393810 138.5116830  26.2161680  66.8552130 137.9189490  27.6066580
  60.6747490 142.4532950  25.7039310  61.1892160 142.3640960  26.5061740
  59.8316570 142.7992650  25.9967220  62.6501890 142.7388290  15.1323310
  62.4903030 142.4491230  16.0305140  62.4848600 141.9628420  14.5968540
  55.1290270 142.5186820  16.9094930  54.9532750 141.6022360  16.6962730
  54.2746010 142.8774110  17.1492730  62.3528020 140.2475850  13.6921310
  61.6593180 140.2453140  13.0323590  63.0950880 139.8235170  13.2615480
  61.9177950 141.8738560  17.7669800  62.3734900 141.0927940  18.0808420
  62.2570470 142.5845380  18.3110980  66.6654760 130.8037410  28.0994240
  66.0499030 131.3117080  27.5709700  66.3451180 129.9035740  28.0420180
  49.6680500 137.6455020  24.9260540  49.8311540 137.1760380  24.1079910
  50.1332950 137.1378580  25.5909380  54.4399270 126.7760780  19.9621110
  53.9967420 127.5570320  19.6305630  54.9984260 127.0990670  20.6692050
  58.7269080 129.6429300  25.5656430  58.2648450 129.8512320  26.3776370
  58.3247190 128.8288650  25.2627100  63.7273590 130.8638250  26.6953090
  62.8767180 130.5644000  27.0162160  63.5675380 131.1080260  25.7836910
  60.8223300 132.3640000  28.7951880  61.1476710 131.5303750  28.4554110
  61.6103630 132.8868520  28.9430210  57.5558090 126.3971480  14.8426940
  56.9312270 126.3931350  15.5680250  57.4688210 125.5302440  14.4462910
  56.4775170 127.3208110  21.8210710  56.7747500 128.2270940  21.7402730
  57.0260730 126.8326890  21.2070280  54.2313490 131.8994350  17.6902360
  54.0054410 131.6831520  18.5948980  53.4506020 132.3322810  17.3448330
  61.4611250 131.9057720  16.2893010  60.8620140 132.6293520  16.1056630
  62.0090860 131.8434500  15.5069460  56.6712700 132.7979930  28.3562630
  56.5756300 131.8574660  28.2063030  57.5144680 133.0195000  27.9610700
  60.0676120 130.5421260  18.3196290  60.4605690 130.8593460  17.5064980
  60.4292970 129.6633140  18.4340810  51.8023240 129.2093600  26.5096410
  51.4086630 130.0568810  26.7169190  51.1141640 128.5719970  26.7005050
  58.3768290 129.2928570  29.5793150  57.6866610 129.1000770  30.2139240
  59.1200590 129.5763210  30.1117450  49.1040290 127.1322060  20.5426490
  48.8153340 127.7024920  21.2551470  49.8486050 126.6526510  20.9057720
  49.2910520 131.0742180  11.7529210  49.2085190 132.0172940  11.8944200
  48.9393580 130.9317090  10.8741560  60.6531260 133.1327010  22.4147070
  59.9212380 133.6413820  22.7637170  60.2555600 132.3156990  22.1135850
  57.0908650 129.8081210  20.8199560  57.0944710 129.3671160  19.9704100
  57.9859770 130.1298540  20.9271380  52.9411030 129.6907700  19.7793770
  52.6011080 130.1682930  20.5360820  52.1788350 129.2372820  19.4194870
  57.1528800 130.8093290  13.8106320  57.2741620 130.7679770  14.7592140
  56.7677310 131.6717440  13.6553050  61.1157170 128.5860690  21.8270010
  61.1329910 129.0369340  22.6711860  60.8672750 127.6866330  22.0403450
  56.1650300 133.1194430  13.2089620  55.5967200 132.6712680  12.5825530
  56.8739300 133.4787210  12.6754770  64.5427920 125.9992870  27.6656390
  64.8673690 125.2682530  28.1914370  64.5784430 125.6806510  26.7637380
  51.2419480 137.0206450  27.0856350  50.8574270 136.3800120  27.6839310
  51.5531670 137.7242570  27.6551080  57.3916620 133.8682990  22.5664970
  57.7586750 133.3941560  23.3126310  57.2021680 134.7424560  22.9073310
  50.2557110 128.6126680  18.6958440  49.9704030 128.2482350  19.5337060
  50.1935970 127.8807140  18.0821580  55.1815990 132.9091630  24.8849180
  54.8773060 133.7883610  25.1099540  56.1362450 132.9691420  24.9206620
  53.7097780 137.1152620  15.4816030  52.9360040 136.5750240  15.3214750
  54.4392410 136.5959230  15.1433790  64.4685760 136.1117980  21.2742420
  65.1884880 136.6073270  20.8838530  64.2667580 135.4335870  20.6296290
  59.9295700 127.5055940  15.4171810  59.1160310 127.0069110  15.3417120
  59.7357650 128.3454190  15.0008160  59.8504560 136.1827040  27.1611420
  59.7841870 135.2622710  26.9069010  59.2209700 136.2802480  27.8756060
  62.6444090 131.8775590  13.7133970  63.5323710 132.1892820  13.5385310
  62.6149180 131.0047840  13.3214550  53.7535180 136.7833000  19.1194840
  54.2713850 135.9801260  19.0651730  53.3019200 136.7212140  19.9611670
  58.6404680 138.0499280  14.3922140  58.9820380 138.7941510  13.8965460
  57.8117390 138.3630400  14.7546970  51.2379720 133.7494370  26.0320540
  50.8794660 134.4148220  26.6193880  50.9434280 132.9177920  26.4033160
  54.4392840 134.2078610  28.9160090  54.1392980 134.3535790  28.0187910
  55.2104080 133.6483900  28.8233480  59.7821290 139.0047610  26.9115220
  59.7965830 138.0728570  26.6934130  59.0746390 139.0907370  27.5504990
  64.9158360 133.1887430  13.1813830  64.8322080 133.6201650  12.3310270
  65.6352550 133.6485780  13.6140650  65.9932500 135.6454950  26.2583800
  65.2680690 136.2383730  26.0613190  66.5207960 135.6378490  25.4597170
  65.9445610 140.0429690  15.9095960  65.3021770 139.3885310  16.1839680
  65.5576270 140.4484780  15.1336630  61.5232090 137.3715120  19.7567650
  61.8755910 136.7743250  19.0969020  60.6394420 137.0459350  19.9275900
  57.6095370 138.1312810  17.1638060  58.2966500 138.6782020  17.5445650
  56.8227790 138.6753540  17.1987670  49.7487770 133.7485630  12.6555140
  50.6182620 134.0310430  12.9391060  49.2578090 134.5621500  12.5403950
  56.9122580 135.1358840  16.7763420  57.3685360 135.9464090  17.0023610
  56.5610790 134.8181980  17.6081910  59.2155190 140.6465180  24.0055720
  59.8597410 140.8524560  24.6829140  59.5784630 139.8853580  23.5526570
  52.8134360 125.4796490  17.2485940  52.6848990 125.4714390  18.1970860
  51.9896380 125.8179580  16.8976950  60.4887270 138.6497530  22.7233170
  61.1309500 137.9490690  22.8365340  61.0136620 139.4295970  22.5430060
  64.3342990 138.9346150  12.4472310  64.1080570 138.2176590  13.0396950
  63.9439190 138.6858590  11.6094060  62.2624890 139.4492430  25.9269230
  62.5981130 140.0359120  26.6047150  61.3425230 139.3185140  26.1567020
  50.1159020 142.9613010  13.2216770  50.4756660 143.5602350  12.5674040
  49.9751360 143.5072900  13.9951800  49.8128290 127.2387610  26.7092640
  49.0986810 127.4384530  27.3145250  50.2323330 126.4627180  27.0807440
  63.9159240 136.8518090  14.1086470  63.6280940 137.3130780  14.8964350
  64.7111410 136.3915860  14.3770690  50.1000880 141.2267870  27.6959170
  50.2092000 140.2862610  27.5554560  49.4481440 141.4922620  27.0472900
  58.0913470 139.4983760  29.0957290  57.7710340 138.7793000  29.6402980
  57.4171830 140.1738830  29.1693350  56.1327640 140.3444210  14.0390440
  56.1237740 141.0773900  13.4234950  55.2126000 140.0975790  14.1317400
  51.7334280 135.5659100  14.7837200  51.1262230 136.3058000  14.7932500
  52.2083630 135.6558460  13.9575400  61.3067070 129.7309920  24.4594090
  61.6747890 128.9105130  24.7873660  60.4465270 129.7911810  24.8749740
  64.6729100 128.6866860  15.2681650  64.0442260 128.7912530  14.5539880
  64.1781020 128.9063640  16.0575530  59.1187240 140.4072450  12.7015630
  59.2199220 140.2036440  11.7717610  58.2188980 140.1530730  12.9063410
  56.6413130 130.9652810  16.6839530  55.9329280 131.4339150  17.1253140
  56.9257610 130.3074820  17.3184720  58.2669060 132.3849510  24.6832060
  58.7654310 132.8595330  25.3483910  58.4092010 131.4613030  24.8902090
  60.6728560 127.6903470  18.1235320  60.5496340 127.7089600  17.1744830
  61.6213120 127.7382410  18.2433720  57.7605350 142.9258770  17.3963300
  58.0146850 142.8880160  16.4742670  56.8117830 142.7992100  17.3891550
  54.8448150 129.2737890  14.0590240  55.6938680 129.7108040  13.9930430
  54.4779420 129.5858150  14.8862300  65.4735920 128.6017470  25.5260450
  64.9709520 129.3422870  25.8654260  66.2892580 128.9901470  25.2097240
  63.7657930 133.8450650  18.9721810  62.8248070 133.8600880  19.1469500
  64.0802000 133.0586610  19.4182110  53.7439570 135.5270250  12.5325770
  54.5102840 135.4151610  13.0951200  53.8214260 134.8308220  11.8802540
  52.4386330 132.9595320  13.2158660  52.5189920 132.0122830  13.3276060
  53.3306080 133.2902200  13.3219320  65.7683510 141.0159500  20.6476070
  65.8930930 141.8390670  21.1199880  66.6349070 140.8050230  20.3000220
  53.2401040 143.1090710  20.3193200  53.9763520 142.5606170  20.5901770
  53.6241960 143.9746720  20.1799190  50.1246520 139.1764280  16.1934710
  49.1986300 139.4185420  16.1840120  50.5902950 140.0038540  16.0719460
  52.2459320 142.2936780  29.5078780  53.0472050 142.6148830  29.9214180
  51.7311140 141.9332360  30.2298690  56.3503350 142.2821020  12.1418770
  57.1431960 142.5709850  11.6900560  55.8307700 141.8513190  11.4631250
  61.0823950 138.4016650  29.4554190  60.4762110 138.4248250  28.7149940
  60.7778060 137.6699690  29.9921440  62.5124320 142.1296940  28.0663600
  63.4646070 142.0454960  28.0163840  62.3652540 142.7938650  28.7397390
  65.4033520 141.5091150  13.5655510  65.1175030 141.0956290  12.7509690
  65.2053070 142.4378860  13.4456030  49.9657130 134.7810240  28.4514830
  50.4696150 134.2017520  29.0231060  49.2264550 135.0650470  28.9891200
  56.8680750 137.5024430  12.0061120  56.7631390 136.8876780  12.7322500
  56.7004970 136.9790320  11.2224130  57.0195070 136.1881230  27.9850350
  56.2540740 136.7566230  27.9005020  57.2011030 135.8957440  27.0918580
  60.1083480 136.5644460  12.6103110  59.5593580 137.0113760  13.2545850
  60.7302740 136.0593710  13.1340780  64.1618420 137.9186560  28.5425370
  64.9027890 138.2562320  28.0392830  63.3991100 138.0878620  27.9895140
  51.9980210 132.9239830  29.3464900  52.0385550 132.6253700  30.2550130
  52.8525710 133.3247440  29.1872420  55.7758600 135.5235380  14.5068410
  56.1975020 135.3575250  15.3499800  55.9009440 134.7135610  14.0123550
  53.9386020 131.5031930  27.3139390  53.4082480 131.0122880  26.6862730
  54.6074090 131.9316130  26.7797320  58.2886240 134.5472990  11.7545510
  58.8091900 133.8322010  11.3886660  58.9354640 135.1858860  12.0546020
  62.8364080 135.9701390  27.0780580  63.2505100 136.1246470  27.9271000
  61.9015080 136.0956610  27.2406360  63.3086250 133.3097550  29.0819730
  63.8907020 132.5549870  28.9940210  63.4848020 133.8404990  28.3051210
  54.4258320 128.4694300  27.3936680  54.3315190 127.8515050  26.6687550
  53.8455710 129.1960590  27.1666590  57.1919760 127.0267540  24.4264070
  56.7437060 127.0491800  23.5809620  56.5584960 126.6286560  25.0234370
  57.5979310 135.9221870  25.0476510  58.0167420 136.7654600  24.8752750
  56.6787940 136.0593910  24.8183290  59.9343210 133.6538050  26.4314350
  60.0539420 133.0579190  27.1709190  60.7937210 133.6907740  26.0115650
  62.2731110 134.2075240  25.0076860  61.7466330 134.7317860  24.4042000
  62.6162450 134.8402630  25.6386590  54.6717500 131.5968610  11.4526570
  54.4706560 130.7335970  11.8139910  54.5009550 131.5101970  10.5148170
  55.4486730 142.2274880  26.1634240  54.9107820 142.9520940  25.8442940
  55.7020690 141.7505220  25.3731580  56.7011980 130.1959400  27.6890170
  57.2911670 129.8875250  28.3767990  55.8832220 129.7239150  27.8450070
  61.5205410 129.8125210  27.9223190  60.8320930 129.1506750  27.8573180
  62.2411430 129.3663480  28.3671650  62.1505810 126.4076840  13.9813450
  62.4308100 125.5644740  14.3372870  61.3771540 126.6399950  14.4952200
  53.4700300 128.6969230  11.4404450  53.7726200 128.7036660  10.5323600
  54.2094890 128.3467090  11.9372110  58.3048940 143.4626090  26.4220890
  58.2307640 144.3661230  26.7293260  57.4027780 143.1437990  26.3942960
  56.6885230 127.6403850  12.4260650  56.3407230 126.9627840  11.8463100
  56.8898000 127.1793360  13.2404040  58.8534270 142.6284600  14.0447250
  59.7485060 142.9669570  14.0666010  58.8851900 141.9064010  13.4171530
  52.4930430 138.0011650  12.2734250  52.9305300 138.5441320  12.9291830
  52.9778160 137.1758600  12.2830590  49.7076230 140.7900680  19.7254510
  50.0379240 139.9221740  19.4933150  50.1367230 140.9959200  20.5559470
  54.3038150 139.1209690  17.3856480  54.0033690 138.9974660  18.2860390
  54.1975640 138.2618280  16.9772210  50.1966440 141.6571270  22.4636140
  49.7597430 141.8372070  23.2960290  50.7644120 142.4145890  22.3217860
  65.8328620 141.1588270  26.7513450  65.2330610 141.2180830  26.0077370
  65.9622520 140.2193250  26.8810300  67.0730070 138.9006090  12.0883160
  66.2423030 138.9682740  12.5590390  67.2501900 139.7910210  11.7850020
  66.5286530 135.6453570  14.5917360  67.2905440 136.2150220  14.6977050
  66.5440900 135.0780770  15.3625670  50.0290870 134.1691500  18.8225020
  49.3739710 133.9003140  18.1784720  50.8668820 134.0595980  18.3727000
  67.5346500 136.5003670  19.4359290  67.9055330 135.7170990  19.0295260
  68.1748430 137.1892770  19.2576590  64.5180260 137.8840250  24.8489610
  63.7040100 138.3137410  25.1115400  64.9254460 138.4958660  24.2358660
  66.5805700 135.9387940  11.7489880  66.8554540 136.8466820  11.6209100
  66.3916440 135.8750470  12.6851870  62.9781310 128.9632790  13.0443510
  63.3966190 128.7763770  12.2040170  62.6717370 128.1111840  13.3546440
  66.4771040 133.8756930  16.7419310  66.1014640 133.1084860  16.3100600
  65.7474160 134.2579630  17.2294240  51.0666800 134.5544070  23.3628360
  51.4339840 134.4671470  24.2424380  50.4977620 133.7910620  23.2635220
  65.8670660 133.0228450  26.3758830  65.6356750 132.7941200  25.4756780
  66.1275210 133.9428000  26.3303720  50.6182800 131.4653160  27.2686780
  49.7238850 131.4319920  27.6080490  51.1580350 131.6639950  28.0338030
  64.3058730 128.2484880  29.1538530  65.1828910 128.2568280  29.5372530
  64.3179570 127.5115720  28.5430880  49.2428950 131.3790430  14.7650350
  48.3393030 131.6420630  14.5902010  49.7269570 131.6501600  13.9850310
  65.7522000 132.1014420  20.0426550  66.2759480 131.6077070  19.4116720
  66.3381420 132.2364780  20.7874120  65.9311720 132.1854290  23.5646100
  64.9814430 132.1517830  23.6791090  66.1124730 133.0954400  23.3295870
  51.7856160 130.4355970  12.6744730  52.4947860 130.0139190  12.1892010
  51.0696100 130.5031200  12.0428080  51.4330320 126.4895300  11.7147380
  52.1558450 127.0304240  12.0328600  51.7054840 126.2158720  10.8388920
  65.2421970 131.3587770  15.9818960  65.7381090 131.1258640  16.7667840
  65.0438040 130.5199610  15.5656600  51.1222510 125.7401490  21.6170000
  51.7698700 125.1898870  21.1765160  51.5424350 125.9944640  22.4385810
  66.6709130 129.9948720  18.5156640  66.5608410 129.8404760  19.4538910
  67.4316720 129.4669660  18.2732050  65.0174850 125.9342850  24.9739640
  65.6547070 126.5476990  25.3398830  65.1649740 125.9703510  24.0288870
  67.5599400 127.8256640  11.7562780  68.4848710 127.6937820  11.5481070
  67.5375190 127.9049460  12.7099230  67.6337890 128.5967300  14.3819490
  66.8389390 128.5312420  14.9112400  67.8381170 129.5317940  14.3704840
  64.5756310 142.6358850  18.3757880  65.1715380 142.3143420  17.6992300
  64.8334460 142.1630670  19.1671150  50.8754510 125.8957160  24.3595320
  50.5269330 126.3520980  25.1253500  50.5442210 125.0014290  24.4417750
  52.4818880 139.0676760  28.5248510  52.4388510 138.6969670  29.4062970
  52.6129890 140.0054330  28.6650330  56.1824910 140.6236350  24.1258230
  55.9416270 140.8910910  23.2388750  57.1227550 140.7942080  24.1809090
  58.3879330 127.0869040  27.8814740  58.3268220 127.6790870  28.6310150
  59.3279710 126.9795000  27.7365000  61.0253890 126.7439100  27.5207030
  61.6394300 127.0618390  26.8588110  61.5703450 126.2587690  28.1402890
  67.4429070 142.6430730  24.9268870  66.9487350 143.0399600  24.2096000
  66.8342360 142.0179940  25.3206150  51.5475150 125.4233360  27.6346090
  52.0958140 125.2421410  26.8712200  51.6130460 124.6327470  28.1702400
  52.3206910 142.0139010  25.6446290  51.7267230 141.8823710  26.3836330
  52.3130750 141.1777150  25.1788390  61.7661930 125.3071240  23.8476320
  60.8921770 125.6406350  23.6449250  61.6572680 124.8344420  24.6728190
  62.6733910 127.5142110  25.2318040  62.3447270 126.6993870  24.8519770
  63.6216210 127.4711920  25.1083730  65.1268520 143.2854150  22.2055610
  64.6671490 144.0369960  21.8313630  64.4980980 142.5660620  22.1470410
  51.9519140 139.3797390  24.5954330  51.2253200 138.7602680  24.5280280
  52.0128290 139.7738000  23.7252410  55.5564240 141.5942390  21.3803740
  56.0729260 140.9829750  20.8552000  56.2061620 142.0971170  21.8714750
  58.2959740 142.4850880  22.2072720  58.5837550 142.2305180  21.3305730
  58.8082960 141.9328240  22.7978290  59.5136750 126.2241080  22.7869230
  58.7308540 126.6986580  23.0665990  59.2199680 125.3195910  22.6782410
  64.0657820 126.9264180  20.8318320  64.5065910 126.8709280  19.9839920
  63.7965410 127.8422190  20.9028500  65.9296390 126.5579420  18.8427140
  65.8684790 125.6140640  18.6958160  66.7088420 126.6659510  19.3880600
  50.2349140 142.6971780  17.8051090  50.0671180 142.0642460  18.5032980
  49.3683650 142.9031180  17.4545280  50.8577160 126.5288560  15.3082950
  51.6156520 126.6417440  14.7346980  50.3954330 127.3657760  15.2626380
  57.3990970 128.6427830  18.2985260  56.5865480 128.2684720  17.9581140
  57.9032610 127.8872910  18.6006450  61.9015950 125.3070280  19.5368330
  62.5045320 125.8790490  20.0116850  61.1608940 125.8709720  19.3142230
  65.0450550 125.7091840  14.8108610  65.2401180 126.6075290  15.0776040
  64.2580420 125.4778920  15.3041560  51.8411840 141.3905010  15.2501230
  51.3159460 141.7713040  14.5463190  51.7656420 142.0155780  15.9710940
  53.2302310 127.0552610  13.8484920  53.7595070 126.2682410  13.7192870
  53.8630630 127.7343800  14.0820450  55.4240150 126.7927750  16.9030310
  54.7942890 126.0915060  17.0700440  54.8845290 127.5531880  16.6863470
  58.3632100 143.4066980  29.5740920  59.2899410 143.1711250  29.6176880
  58.3482530 144.2338980  29.0926950  66.5977160 142.9492550  16.5715170
  66.7729350 142.2630290  15.9276090  65.8998730 143.4739600  16.1791840
  55.5495710 126.0711730  29.3382800  55.2679980 126.5745330  28.5743620
  55.9315410 125.2733480  28.9724930  54.4404810 143.3387390  14.1250480
  55.1723630 143.0546670  13.5774370  54.6998480 143.1000670  15.0149860
  53.6019600 139.4552120  14.1296810  52.9728480 139.9237220  14.6782640
  53.7167430 138.6101340  14.5643000  62.1511170 125.4865310  29.9163270
  62.0376620 125.8059920  30.8114790  62.9680910 125.8877820  29.6200550
  64.9309660 142.6336840  29.3981960  65.7234980 142.1386070  29.1907920
  65.2242810 143.3126980  30.0057570  59.1887360 135.2836800   2.1607280
  58.4129460 134.8037240   2.4505850  59.8400290 134.6042450   1.9863440
  53.2053190 135.5956610   3.0383040  52.3738070 135.3405320   3.4379550
  53.8134170 135.6667380   3.7740960  53.1854450 139.6296700   3.2341060
  53.4882490 138.7394440   3.0551280  53.9298040 140.1866920   3.0063310
  49.5778150 133.1564150   2.7065130  50.1494260 132.3886350   2.7068770
  49.5779690 133.4552910   1.7971740  58.6296350 137.9593990   2.1677440
  58.5604630 137.0183930   2.0066570  59.3916210 138.0495400   2.7400010
  50.8203020 128.5648510   4.4934060  50.6405860 127.6674260   4.7736820
  50.4183100 129.1120380   5.1681010  51.4389690 131.0609010   3.1016400
  52.1199800 131.3247380   3.7203800  51.1237740 130.2209880   3.4354410
  55.6314260 132.1076370   2.1888990  56.1392480 132.6057340   2.8294010
  56.1627500 131.3311570   2.0128350  67.7325190 130.2781560   5.8918340
  67.0277360 130.6663270   5.3733450  67.9983110 130.9731850   6.4939270
  53.9150360 126.7474930   6.4552410  53.9168800 127.2647320   5.6498310
  53.0854670 126.2705110   6.4322340  55.1653210 136.3870110   4.6325910
  54.8322590 137.0139030   5.2746980  55.3419890 136.9131990   3.8527580
  63.6787120 130.2015190   2.1002250  62.9742690 130.4900080   2.6805360
  64.0399280 131.0115300   1.7401810  53.5965690 128.4584890   4.4622860
  53.9382500 129.3026940   4.1676730  52.6581500 128.6068630   4.5788200
  54.3772310 138.3550910   6.4475090  54.9946310 139.0301990   6.1659540
  53.5165430 138.7638890   6.3562590  65.2949900 139.8190320   4.3629730
  64.6113420 140.4889430   4.3546400  65.8344190 140.0170970   3.5974590
  66.7474040 129.6469980   2.4911460  65.7998950 129.6808960   2.6226890
  67.0724030 130.4608930   2.8760820  62.8308640 141.6634450   3.0774910
  62.8435800 141.2596740   2.2097170  62.2783860 142.4381740   2.9736340
  62.2294080 136.5664290   4.4057520  62.6462870 136.3524400   3.5710980
  62.9533900 136.8237080   4.9766140  66.1756180 134.9651510   4.4973760
  65.3474810 135.0344600   4.0223890  66.7706660 135.5505820   4.0289590
  63.1398190 131.7520830   5.4428630  62.7269370 132.5774540   5.6968620
  62.4074140 131.1665870   5.2504990  55.7412680 138.2248290   2.4686510
  55.4440970 137.6193760   1.7894290  56.6912500 138.2625600   2.3575870
  53.9859600 131.3123940   4.0846340  54.5374190 131.4219280   3.3099590
  54.5003110 131.6861540   4.8001570  63.8298290 141.7980160   6.1309610
  63.3528850 142.6052350   5.9382220  63.1460080 141.1458490   6.2835820
  54.8331110 137.9629980   9.1194310  53.9359640 138.1869950   9.3667710
  54.8583980 138.0864920   8.1705710  53.6602330 134.8343300   7.6951680
  53.5210100 135.7066100   8.0639080  52.7783690 134.4916110   7.5499620
  55.4582680 140.7765000   9.9036830  55.4298110 141.1807950   9.0365260
  55.2947650 139.8475360   9.7408430  67.4097500 141.5592100  11.2001000
  67.8857220 142.0374990  11.8790080  68.0304660 141.4909590  10.4746500
  49.6120980 136.6040850   3.6122590  49.6901400 136.7389620   2.6678310
  50.2262660 135.8956740   3.8050710  66.8130750 138.7504950   8.3601010
  66.9393810 138.5116830   7.4418190  66.8552130 137.9189490   8.8323090
  60.6747490 142.4532950   6.9295820  61.1892160 142.3640960   7.7318250
  59.8316570 142.7992650   7.2223730  66.6654760 130.8037410   9.3250750
  66.0499030 131.3117080   8.7966210  66.3451180 129.9035740   9.2676690
  49.6680500 137.6455020   6.1517050  49.8311540 137.1760380   5.3336420
  50.1332950 137.1378580   6.8165890  58.7269080 129.6429300   6.7912940
  58.2648450 129.8512320   7.6032880  58.3247190 128.8288650   6.4883610
  63.7273590 130.8638250   7.9209600  62.8767180 130.5644000   8.2418670
  63.5675380 131.1080260   7.0093420  60.8223300 132.3640000  10.0208390
  61.1476710 131.5303750   9.6810620  61.6103630 132.8868520  10.1686720
  56.4775170 127.3208110   3.0467220  56.7747500 128.2270940   2.9659240
  57.0260730 126.8326890   2.4326790  56.6712700 132.7979930   9.5819140
  56.5756300 131.8574660   9.4319540  57.5144680 133.0195000   9.1867210
  51.8023240 129.2093600   7.7352920  51.4086630 130.0568810   7.9425700
  51.1141640 128.5719970   7.9261560  58.3768290 129.2928570  10.8049660
  57.6866610 129.1000770  11.4395750  59.1200590 129.5763210  11.3373960
  49.1040290 127.1322060   1.7683000  48.8153340 127.7024920   2.4807980
  49.8486050 126.6526510   2.1314230  60.6531260 133.1327010   3.6403580
  59.9212380 133.6413820   3.9893680  60.2555600 132.3156990   3.3392360
  61.1157170 128.5860690   3.0526520  61.1329910 129.0369340   3.8968370
  60.8672750 127.6866330   3.2659960  64.5427920 125.9992870   8.8912900
  64.8673690 125.2682530   9.4170880  64.5784430 125.6806510   7.9893890
  51.2419480 137.0206450   8.3112860  50.8574270 136.3800120   8.9095820
  51.5531670 137.7242570   8.8807590  57.3916620 133.8682990   3.7921480
  57.7586750 133.3941560   4.5382820  57.2021680 134.7424560   4.1329820
  55.1815990 132.9091630   6.1105690  54.8773060 133.7883610   6.3356050
  56.1362450 132.9691420   6.1463130  64.4685760 136.1117980   2.4998930
  65.1884880 136.6073270   2.1095040  64.2667580 135.4335870   1.8552800
  59.8504560 136.1827040   8.3867930  59.7841870 135.2622710   8.1325520
  59.2209700 136.2802480   9.1012570  51.2379720 133.7494370   7.2577050
  50.8794660 134.4148220   7.8450390  50.9434280 132.9177920   7.6289670
  54.4392840 134.2078610  10.1416600  54.1392980 134.3535790   9.2444420
  55.2104080 133.6483900  10.0489990  59.7821290 139.0047610   8.1371730
  59.7965830 138.0728570   7.9190640  59.0746390 139.0907370   8.7761500
  65.9932500 135.6454950   7.4840310  65.2680690 136.2383730   7.2869700
  66.5207960 135.6378490   6.6853680  59.2155190 140.6465180   5.2312230
  59.8597410 140.8524560   5.9085650  59.5784630 139.8853580   4.7783080
  60.4887270 138.6497530   3.9489680  61.1309500 137.9490690   4.0621850
  61.0136620 139.4295970   3.7686570  62.2624890 139.4492430   7.1525740
  62.5981130 140.0359120   7.8303660  61.3425230 139.3185140   7.3823530
  49.8128290 127.2387610   7.9349150  49.0986810 127.4384530   8.5401760
  50.2323330 126.4627180   8.3063950  50.1000880 141.2267870   8.9215680
  50.2092000 140.2862610   8.7811070  49.4481440 141.4922620   8.2729410
  58.0913470 139.4983760  10.3213800  57.7710340 138.7793000  10.8659490
  57.4171830 140.1738830  10.3949860  61.3067070 129.7309920   5.6850600
  61.6747890 128.9105130   6.0130170  60.4465270 129.7911810   6.1006250
  58.2669060 132.3849510   5.9088570  58.7654310 132.8595330   6.5740420
  58.4092010 131.4613030   6.1158600  65.4735920 128.6017470   6.7516960
  64.9709520 129.3422870   7.0910770  66.2892580 128.9901470   6.4353750
  52.2459320 142.2936780  10.7335290  53.0472050 142.6148830  11.1470690
  51.7311140 141.9332360  11.4555200  61.0823950 138.4016650  10.6810700
  60.4762110 138.4248250   9.9406450  60.7778060 137.6699690  11.2177950
  62.5124320 142.1296940   9.2920110  63.4646070 142.0454960   9.2420350
  62.3652540 142.7938650   9.9653900  49.9657130 134.7810240   9.6771340
  50.4696150 134.2017520  10.2487570  49.2264550 135.0650470  10.2147710
  57.0195070 136.1881230   9.2106860  56.2540740 136.7566230   9.1261530
  57.2011030 135.8957440   8.3175090  64.1618420 137.9186560   9.7681880
  64.9027890 138.2562320   9.2649340  63.3991100 138.0878620   9.2151650
  51.9980210 132.9239830  10.5721410  52.0385550 132.6253700  11.4806640
  52.8525710 133.3247440  10.4128930  53.9386020 131.5031930   8.5395900
  53.4082480 131.0122880   7.9119240  54.6074090 131.9316130   8.0053830
  62.8364080 135.9701390   8.3037090  63.2505100 136.1246470   9.1527510
  61.9015080 136.0956610   8.4662870  63.3086250 133.3097550  10.3076240
  63.8907020 132.5549870  10.2196720  63.4848020 133.8404990   9.5307720
  54.4258320 128.4694300   8.6193190  54.3315190 127.8515050   7.8944060
  53.8455710 129.1960590   8.3923100  57.1919760 127.0267540   5.6520580
  56.7437060 127.0491800   4.8066130  56.5584960 126.6286560   6.2490880
  57.5979310 135.9221870   6.2733020  58.0167420 136.7654600   6.1009260
  56.6787940 136.0593910   6.0439800  59.9343210 133.6538050   7.6570860
  60.0539420 133.0579190   8.3965700  60.7937210 133.6907740   7.2372160
  62.2731110 134.2075240   6.2333370  61.7466330 134.7317860   5.6298510
  62.6162450 134.8402630   6.8643100  55.4486730 142.2274880   7.3890750
  54.9107820 142.9520940   7.0699450  55.7020690 141.7505220   6.5988090
  56.7011980 130.1959400   8.9146680  57.2911670 129.8875250   9.6024500
  55.8832220 129.7239150   9.0706580  61.5205410 129.8125210   9.1479700
  60.8320930 129.1506750   9.0829690  62.2411430 129.3663480   9.5928160
  58.3048940 143.4626090   7.6477400  58.2307640 144.3661230   7.9549770
  57.4027780 143.1437990   7.6199470  50.1966440 141.6571270   3.6892650
  49.7597430 141.8372070   4.5216800  50.7644120 142.4145890   3.5474370
  65.8328620 141.1588270   7.9769960  65.2330610 141.2180830   7.2333880
  65.9622520 140.2193250   8.1066810  64.5180260 137.8840250   6.0746120
  63.7040100 138.3137410   6.3371910  64.9254460 138.4958660   5.4615170
  51.0666800 134.5544070   4.5884870  51.4339840 134.4671470   5.4680890
  50.4977620 133.7910620   4.4891730  65.8670660 133.0228450   7.6015340
  65.6356750 132.7941200   6.7013290  66.1275210 133.9428000   7.5560230
  50.6182800 131.4653160   8.4943290  49.7238850 131.4319920   8.8337000
  51.1580350 131.6639950   9.2594540  64.3058730 128.2484880  10.3795040
  65.1828910 128.2568280  10.7629040  64.3179570 127.5115720   9.7687390
  65.9311720 132.1854290   4.7902610  64.9814430 132.1517830   4.9047600
  66.1124730 133.0954400   4.5552380  51.1222510 125.7401490   2.8426510
  51.7698700 125.1898870   2.4021670  51.5424350 125.9944640   3.6642320
  65.0174850 125.9342850   6.1996150  65.6547070 126.5476990   6.5655340
  65.1649740 125.9703510   5.2545380  50.8754510 125.8957160   5.5851830
  50.5269330 126.3520980   6.3510010  50.5442210 125.0014290   5.6674260
  52.4818880 139.0676760   9.7505020  52.4388510 138.6969670  10.6319480
  52.6129890 140.0054330   9.8906840  56.1824910 140.6236350   5.3514740
  55.9416270 140.8910910   4.4645260  57.1227550 140.7942080   5.4065600
  58.3879330 127.0869040   9.1071250  58.3268220 127.6790870   9.8566660
  59.3279710 126.9795000   8.9621510  61.0253890 126.7439100   8.7463540
  61.6394300 127.0618390   8.0844620  61.5703450 126.2587690   9.3659400
  67.4429070 142.6430730   6.1525380  66.9487350 143.0399600   5.4352510
  66.8342360 142.0179940   6.5462660  51.5475150 125.4233360   8.8602600
  52.0958140 125.2421410   8.0968710  51.6130460 124.6327470   9.3958910
  52.3206910 142.0139010   6.8702800  51.7267230 141.8823710   7.6092840
  52.3130750 141.1777150   6.4044900  61.7661930 125.3071240   5.0732830
  60.8921770 125.6406350   4.8705760  61.6572680 124.8344420   5.8984700
  62.6733910 127.5142110   6.4574550  62.3447270 126.6993870   6.0776280
  63.6216210 127.4711920   6.3340240  65.1268520 143.2854150   3.4312120
  64.6671490 144.0369960   3.0570140  64.4980980 142.5660620   3.3726920
  51.9519140 139.3797390   5.8210840  51.2253200 138.7602680   5.7536790
  52.0128290 139.7738000   4.9508920  55.5564240 141.5942390   2.6060250
  56.0729260 140.9829750   2.0808510  56.2061620 142.0971170   3.0971260
  58.2959740 142.4850880   3.4329230  58.5837550 142.2305180   2.5562240
  58.8082960 141.9328240   4.0234800  59.5136750 126.2241080   4.0125740
  58.7308540 126.6986580   4.2922500  59.2199680 125.3195910   3.9038920
  58.3632100 143.4066980  10.7997430  59.2899410 143.1711250  10.8433390
  58.3482530 144.2338980  10.3183460  55.5495710 126.0711730  10.5639310
  55.2679980 126.5745330   9.8000130  55.9315410 125.2733480  10.1981440
  62.1511170 125.4865310  11.1419780  62.0376620 125.8059920  12.0371300
  62.9680910 125.8877820  10.8457060  64.9309660 142.6336840  10.6238470
  65.7234980 142.1386070  10.4164430  65.2242810 143.3126980  11.2314080
  61.0569320 114.7314290 150.4745930  60.9763370 113.8168900 150.2037640
  60.6433740 115.2281360 149.7685640  63.2094790 120.9153500 151.1354330
  62.7476320 120.1440740 151.4641500  64.0220340 120.9419570 151.6406780
  51.6145140 111.7815010 147.0173350  50.7261840 112.1230980 146.9153230
  51.8986330 111.5815330 146.1254180  59.4358100 123.2011510 150.7558320
  58.8169540 123.6569010 150.1852760  60.2909880 123.3562970 150.3548020
  53.7906530 110.3646510 148.0511730  53.8973280 111.2650240 148.3580490
  52.8798890 110.3164480 147.7606380  63.4425640 109.4871320 149.5222630
  64.2635260 108.9967890 149.5648110  63.4759720 110.0768980 150.2754470
  60.3021450 118.0850750 148.1490230  59.6838720 118.5500200 147.5852950
  60.8144700 118.7778230 148.5659740  49.6704650 118.7707280 145.5229860
  49.2932630 119.2594380 144.7914760  49.9277720 119.4432560 146.1536390
  57.2793580 107.1723670 150.9815370  57.5868560 106.6170560 150.2650870
  56.3494280 107.3068130 150.7988360  64.1254060 119.6107180 148.3613000
  64.0150390 118.6681510 148.4862420  64.1222310 119.9722820 149.2475760
  59.6674340 115.2372500 147.7175490  58.7403620 115.1709880 147.9463960
  59.8199160 116.1752630 147.6030730  59.6543420 111.5089500 144.7142650
  58.7147090 111.6703460 144.7995110  59.9726680 112.2275180 144.1678640
  63.6971630 116.7992800 148.2210740  63.0784050 116.4612350 147.5737040
  63.6796080 116.1552560 148.9289930  55.2730980 115.7637240 150.4995220
  54.8687980 115.0514490 150.0041120  55.3594100 115.4190480 151.3883260
  61.8736330 116.0379610 145.2283490  62.3129610 115.2002040 145.0821310
  62.5864750 116.6709010 145.3147630  59.9831710 120.9775680 149.1964730
  60.4227620 121.7200010 148.7820120  59.9218600 121.2202250 150.1203690
  65.4553470 107.2922420 143.5424530  65.1426130 107.3849250 144.4423600
  66.2165940 107.8703450 143.4921960  51.9735610 114.6582220 148.0001870
  51.8533210 115.3844310 147.3883140  51.6636500 113.8885130 147.5229780
  50.8568610 119.5297550 150.2176690  50.4496690 119.6712140 149.3630290
  51.7481620 119.2457710 150.0147900  62.6501890 123.9644800 146.5527740
  62.4903030 123.6747740 147.4509570  62.4848600 123.1884930 146.0172970
  55.1290270 123.7443330 148.3299360  54.9532750 122.8278870 148.1167160
  54.2746010 124.1030620 148.5697160  62.3528020 121.4732360 145.1125740
  61.6593180 121.4709650 144.4528020  63.0950880 121.0491680 144.6819910
  61.9177950 123.0995070 149.1874230  62.3734900 122.3184450 149.5012850
  62.2570470 123.8101890 149.7315410  54.4399270 108.0017290 151.3825540
  53.9967420 108.7826830 151.0510060  54.9984260 108.3247180 152.0896480
  57.5558090 107.6227990 146.2631370  56.9312270 107.6187860 146.9884680
  57.4688210 106.7558950 145.8667340  54.2313490 113.1250860 149.1106790
  54.0054410 112.9088030 150.0153410  53.4506020 113.5579320 148.7652760
  61.4611250 113.1314230 147.7097440  60.8620140 113.8550030 147.5261060
  62.0090860 113.0691010 146.9273890  60.0676120 111.7677770 149.7400720
  60.4605690 112.0849970 148.9269410  60.4292970 110.8889650 149.8545240
  49.2910520 112.2998690 143.1733640  49.2085190 113.2429450 143.3148630
  48.9393580 112.1573600 142.2945990  57.0908650 111.0337720 152.2403990
  57.0944710 110.5927670 151.3908530  57.9859770 111.3555050 152.3475810
  52.9411030 110.9164210 151.1998200  52.6011080 111.3939440 151.9565250
  52.1788350 110.4629330 150.8399300  57.1528800 112.0349800 145.2310750
  57.2741620 111.9936280 146.1796570  56.7677310 112.8973950 145.0757480
  56.1650300 114.3450940 144.6294050  55.5967200 113.8969190 144.0029960
  56.8739300 114.7043720 144.0959200  50.2557110 109.8383190 150.1162870
  49.9704030 109.4738860 150.9541490  50.1935970 109.1063650 149.5026010
  53.7097780 118.3409130 146.9020460  52.9360040 117.8006750 146.7419180
  54.4392410 117.8215740 146.5638220  59.9295700 108.7312450 146.8376240
  59.1160310 108.2325620 146.7621550  59.7357650 109.5710700 146.4212590
  62.6444090 113.1032100 145.1338400  63.5323710 113.4149330 144.9589740
  62.6149180 112.2304350 144.7418980  53.7535180 118.0089510 150.5399270
  54.2713850 117.2057770 150.4856160  53.3019200 117.9468650 151.3816100
  58.6404680 119.2755790 145.8126570  58.9820380 120.0198020 145.3169890
  57.8117390 119.5886910 146.1751400  64.9158360 114.4143940 144.6018260
  64.8322080 114.8458160 143.7514700  65.6352550 114.8742290 145.0345080
  65.9445610 121.2686200 147.3300390  65.3021770 120.6141820 147.6044110
  65.5576270 121.6741290 146.5541060  61.5232090 118.5971630 151.1772080
  61.8755910 117.9999760 150.5173450  60.6394420 118.2715860 151.3480330
  57.6095370 119.3569320 148.5842490  58.2966500 119.9038530 148.9650080
  56.8227790 119.9010050 148.6192100  49.7487770 114.9742140 144.0759570
  50.6182620 115.2566940 144.3595490  49.2578090 115.7878010 143.9608380
  56.9122580 116.3615350 148.1967850  57.3685360 117.1720600 148.4228040
  56.5610790 116.0438490 149.0286340  52.8134360 106.7053000 148.6690370
  52.6848990 106.6970900 149.6175290  51.9896380 107.0436090 148.3181380
  64.3342990 120.1602660 143.8676740  64.1080570 119.4433100 144.4601380
  63.9439190 119.9115100 143.0298490  50.1159020 124.1869520 144.6421200
  50.4756660 124.7858860 143.9878470  49.9751360 124.7329410 145.4156230
  63.9159240 118.0774600 145.5290900  63.6280940 118.5387290 146.3168780
  64.7111410 117.6172370 145.7975120  56.1327640 121.5700720 145.4594870
  56.1237740 122.3030410 144.8439380  55.2126000 121.3232300 145.5521830
  51.7334280 116.7915610 146.2041630  51.1262230 117.5314510 146.2136930
  52.2083630 116.8814970 145.3779830  64.6729100 109.9123370 146.6886080
  64.0442260 110.0169040 145.9744310  64.1781020 110.1320150 147.4779960
  59.1187240 121.6328960 144.1220060  59.2199220 121.4292950 143.1922040
  58.2188980 121.3787240 144.3267840  56.6413130 112.1909320 148.1043960
  55.9329280 112.6595660 148.5457570  56.9257610 111.5331330 148.7389150
  60.6728560 108.9159980 149.5439750  60.5496340 108.9346110 148.5949260
  61.6213120 108.9638920 149.6638150  57.7605350 124.1515280 148.8167730
  58.0146850 124.1136670 147.8947100  56.8117830 124.0248610 148.8095980
  54.8448150 110.4994400 145.4794670  55.6938680 110.9364550 145.4134860
  54.4779420 110.8114660 146.3066730  63.7657930 115.0707160 150.3926240
  62.8248070 115.0857390 150.5673930  64.0802000 114.2843120 150.8386540
  53.7439570 116.7526760 143.9530200  54.5102840 116.6408120 144.5155630
  53.8214260 116.0564730 143.3006970  52.4386330 114.1851830 144.6363090
  52.5189920 113.2379340 144.7480490  53.3306080 114.5158710 144.7423750
  53.2401040 124.3347220 151.7397630  53.9763520 123.7862680 152.0106200
  53.6241960 125.2003230 151.6003620  50.1246520 120.4020790 147.6139140
  49.1986300 120.6441930 147.6044550  50.5902950 121.2295050 147.4923890
  56.3503350 123.5077530 143.5623200  57.1431960 123.7966360 143.1104990
  55.8307700 123.0769700 142.8835680  65.4033520 122.7347660 144.9859940
  65.1175030 122.3212800 144.1714120  65.2053070 123.6635370 144.8660460
  56.8680750 118.7280940 143.4265550  56.7631390 118.1133290 144.1526930
  56.7004970 118.2046830 142.6428560  60.1083480 117.7900970 144.0307540
  59.5593580 118.2370270 144.6750280  60.7302740 117.2850220 144.5545210
  55.7758600 116.7491890 145.9272840  56.1975020 116.5831760 146.7704230
  55.9009440 115.9392120 145.4327980  58.2886240 115.7729500 143.1749940
  58.8091900 115.0578520 142.8091090  58.9354640 116.4115370 143.4750450
  54.6717500 112.8225120 142.8731000  54.4706560 111.9592480 143.2344340
  54.5009550 112.7358480 141.9352600  62.1505810 107.6333350 145.4017880
  62.4308100 106.7901250 145.7577300  61.3771540 107.8656460 145.9156630
  53.4700300 109.9225740 142.8608880  53.7726200 109.9293170 141.9528030
  54.2094890 109.5723600 143.3576540  56.6885230 108.8660360 143.8465080
  56.3407230 108.1884350 143.2667530  56.8898000 108.4049870 144.6608470
  58.8534270 123.8541110 145.4651680  59.7485060 124.1926080 145.4870440
  58.8851900 123.1320520 144.8375960  52.4930430 119.2268160 143.6938680
  52.9305300 119.7697830 144.3496260  52.9778160 118.4015110 143.7035020
  49.7076230 122.0157190 151.1458940  50.0379240 121.1478250 150.9137580
  50.1367230 122.2215710 151.9763900  54.3038150 120.3466200 148.8060910
  54.0033690 120.2231170 149.7064820  54.1975640 119.4874790 148.3976640
  67.0730070 120.1262600 143.5087590  66.2423030 120.1939250 143.9794820
  67.2501900 121.0166720 143.2054450  66.5286530 116.8710080 146.0121790
  67.2905440 117.4406730 146.1181480  66.5440900 116.3037280 146.7830100
  50.0290870 115.3948010 150.2429450  49.3739710 115.1259650 149.5989150
  50.8668820 115.2852490 149.7931430  67.5346500 117.7260180 150.8563720
  67.9055330 116.9427500 150.4499690  68.1748430 118.4149280 150.6781020
  66.5805700 117.1644450 143.1694310  66.8554540 118.0723330 143.0413530
  66.3916440 117.1006980 144.1056300  62.9781310 110.1889300 144.4647940
  63.3966190 110.0020280 143.6244600  62.6717370 109.3368350 144.7750870
  66.4771040 115.1013440 148.1623740  66.1014640 114.3341370 147.7305030
  65.7474160 115.4836140 148.6498670  49.2428950 112.6046940 146.1854780
  48.3393030 112.8677140 146.0106440  49.7269570 112.8758110 145.4054740
  65.7522000 113.3270930 151.4630980  66.2759480 112.8333580 150.8321150
  66.3381420 113.4621290 152.2078550  51.7856160 111.6612480 144.0949160
  52.4947860 111.2395700 143.6096440  51.0696100 111.7287710 143.4632510
  51.4330320 107.7151810 143.1351810  52.1558450 108.2560750 143.4533030
  51.7054840 107.4415230 142.2593350  65.2421970 112.5844280 147.4023390
  65.7381090 112.3515150 148.1872270  65.0438040 111.7456120 146.9861030
  66.6709130 111.2205230 149.9361070  66.5608410 111.0661270 150.8743340
  67.4316720 110.6926170 149.6936480  67.5599400 109.0513150 143.1767210
  68.4848710 108.9194330 142.9685500  67.5375190 109.1305970 144.1303660
  67.6337890 109.8223810 145.8023920  66.8389390 109.7568930 146.3316830
  67.8381170 110.7574450 145.7909270  64.5756310 123.8615360 149.7962310
  65.1715380 123.5399930 149.1196730  64.8334460 123.3887180 150.5875580
  64.0657820 108.1520690 152.2522750  64.5065910 108.0965790 151.4044350
  63.7965410 109.0678700 152.3232930  65.9296390 107.7835930 150.2631570
  65.8684790 106.8397150 150.1162590  66.7088420 107.8916020 150.8085030
  50.2349140 123.9228290 149.2255520  50.0671180 123.2898970 149.9237410
  49.3683650 124.1287690 148.8749710  50.8577160 107.7545070 146.7287380
  51.6156520 107.8673950 146.1551410  50.3954330 108.5914270 146.6830810
  57.3990970 109.8684340 149.7189690  56.5865480 109.4941230 149.3785570
  57.9032610 109.1129420 150.0210880  61.9015950 106.5326790 150.9572760
  62.5045320 107.1047000 151.4321280  61.1608940 107.0966230 150.7346660
  65.0450550 106.9348350 146.2313040  65.2401180 107.8331800 146.4980470
  64.2580420 106.7035430 146.7245990  51.8411840 122.6161520 146.6705660
  51.3159460 122.9969550 145.9667620  51.7656420 123.2412290 147.3915370
  53.2302310 108.2809120 145.2689350  53.7595070 107.4938920 145.1397300
  53.8630630 108.9600310 145.5024880  55.4240150 108.0184260 148.3234740
  54.7942890 107.3171570 148.4904870  54.8845290 108.7788390 148.1067900
  66.5977160 124.1749060 147.9919600  66.7729350 123.4886800 147.3480520
  65.8998730 124.6996110 147.5996270  54.4404810 124.5643900 145.5454910
  55.1723630 124.2803180 144.9978800  54.6998480 124.3257180 146.4354290
  53.6019600 120.6808630 145.5501240  52.9728480 121.1493730 146.0987070
  53.7167430 119.8357850 145.9847430  61.0569320 114.7314290 131.7002440
  60.9763370 113.8168900 131.4294150  60.6433740 115.2281360 130.9942150
  59.1887360 116.5093310 133.5811710  58.4129460 116.0293750 133.8710280
  59.8400290 115.8298960 133.4067870  53.2053190 116.8213120 134.4587470
  52.3738070 116.5661830 134.8583980  53.8134170 116.8923890 135.1945390
  63.2094790 120.9153500 132.3610840  62.7476320 120.1440740 132.6898010
  64.0220340 120.9419570 132.8663290  53.1854450 120.8553210 134.6545490
  53.4882490 119.9650950 134.4755710  53.9298040 121.4123430 134.4267740
  51.6145140 111.7815010 128.2429860  50.7261840 112.1230980 128.1409740
  51.8986330 111.5815330 127.3510690  49.5778150 114.3820660 134.1269560
  50.1494260 113.6142860 134.1273200  49.5779690 114.6809420 133.2176170
  59.4358100 123.2011510 131.9814830  58.8169540 123.6569010 131.4109270
  60.2909880 123.3562970 131.5804530  58.6296350 119.1850500 133.5881870
  58.5604630 118.2440440 133.4271000  59.3916210 119.2751910 134.1604440
  50.8203020 109.7905020 135.9138490  50.6405860 108.8930770 136.1941250
  50.4183100 110.3376890 136.5885440  59.6601520 111.9920880 133.8150800
  60.0366340 111.1192760 133.7024470  59.5621030 112.3279580 132.9241240
  53.7906530 110.3646510 129.2768240  53.8973280 111.2650240 129.5837000
  52.8798890 110.3164480 128.9862890  63.4425640 109.4871320 130.7479140
  64.2635260 108.9967890 130.7904620  63.4759720 110.0768980 131.5010980
  51.4389690 112.2865520 134.5220830  52.1199800 112.5503890 135.1408230
  51.1237740 111.4466390 134.8558840  55.6314260 113.3332880 133.6093420
  56.1392480 113.8313850 134.2498440  56.1627500 112.5568080 133.4332780
  67.7325190 111.5038070 137.3122770  67.0277360 111.8919780 136.7937880
  67.9983110 112.1988360 137.9143700  53.9150360 107.9731440 137.8756840
  53.9168800 108.4903830 137.0702740  53.0854670 107.4961620 137.8526770
  60.3021450 118.0850750 129.3746740  59.6838720 118.5500200 128.8109460
  60.8144700 118.7778230 129.7916250  55.1653210 117.6126620 136.0530340
  54.8322590 118.2395540 136.6951410  55.3419890 118.1388500 135.2732010
  63.6787120 111.4271700 133.5206680  62.9742690 111.7156590 134.1009790
  64.0399280 112.2371810 133.1606240  53.5965690 109.6841400 135.8827290
  53.9382500 110.5283450 135.5881160  52.6581500 109.8325140 135.9992630
  54.3772310 119.5807420 137.8679520  54.9946310 120.2558500 137.5863970
  53.5165430 119.9895400 137.7767020  49.6704650 118.7707280 126.7486370
  49.2932630 119.2594380 126.0171270  49.9277720 119.4432560 127.3792900
  65.2949900 121.0446830 135.7834160  64.6113420 121.7145940 135.7750830
  65.8344190 121.2427480 135.0179020  66.7474040 110.8726490 133.9115890
  65.7998950 110.9065470 134.0431320  67.0724030 111.6865440 134.2965250
  57.2793580 107.1723670 132.2071880  57.5868560 106.6170560 131.4907380
  56.3494280 107.3068130 132.0244870  62.8308640 122.8890960 134.4979340
  62.8435800 122.4853250 133.6301600  62.2783860 123.6638250 134.3940770
  64.1254060 119.6107180 129.5869510  64.0150390 118.6681510 129.7118930
  64.1222310 119.9722820 130.4732270  62.2294080 117.7920800 135.8261950
  62.6462870 117.5780910 134.9915410  62.9533900 118.0493590 136.3970570
  59.6674340 115.2372500 128.9432000  58.7403620 115.1709880 129.1720470
  59.8199160 116.1752630 128.8287240  59.6543420 111.5089500 125.9399160
  58.7147090 111.6703460 126.0251620  59.9726680 112.2275180 125.3935150
  66.1756180 116.1908020 135.9178190  65.3474810 116.2601110 135.4428320
  66.7706660 116.7762330 135.4494020  63.6971630 116.7992800 129.4467250
  63.0784050 116.4612350 128.7993550  63.6796080 116.1552560 130.1546440
  63.1398190 112.9777340 136.8633060  62.7269370 113.8031050 137.1173050
  62.4074140 112.3922380 136.6709420  55.2730980 115.7637240 131.7251730
  54.8687980 115.0514490 131.2297630  55.3594100 115.4190480 132.6139770
  55.7412680 119.4504800 133.8890940  55.4440970 118.8450270 133.2098720
  56.6912500 119.4882110 133.7780300  53.9859600 112.5380450 135.5050770
  54.5374190 112.6475790 134.7304020  54.5003110 112.9118050 136.2206000
  63.8298290 123.0236670 137.5514040  63.3528850 123.8308860 137.3586650
  63.1460080 122.3715000 137.7040250  54.8331110 119.1886490 140.5398740
  53.9359640 119.4126460 140.7872140  54.8583980 119.3121430 139.5910140
  61.8736330 116.0379610 126.4540000  62.3129610 115.2002040 126.3077820
  62.5864750 116.6709010 126.5404140  53.6602330 116.0599810 139.1156110
  53.5210100 116.9322610 139.4843510  52.7783690 115.7172620 138.9704050
  59.9831710 120.9775680 130.4221240  60.4227620 121.7200010 130.0076630
  59.9218600 121.2202250 131.3460200  55.4582680 122.0021510 141.3241260
  55.4298110 122.4064460 140.4569690  55.2947650 121.0731870 141.1612860
  65.4553470 107.2922420 124.7681040  65.1426130 107.3849250 125.6680110
  66.2165940 107.8703450 124.7178470  51.9735610 114.6582220 129.2258380
  51.8533210 115.3844310 128.6139650  51.6636500 113.8885130 128.7486290
  67.4097500 122.7848610 142.6205430  67.8857220 123.2631500 143.2994510
  68.0304660 122.7166100 141.8950930  49.6120980 117.8297360 135.0327020
  49.6901400 117.9646130 134.0882740  50.2262660 117.1213250 135.2255140
  50.8568610 119.5297550 131.4433200  50.4496690 119.6712140 130.5886800
  51.7481620 119.2457710 131.2404410  66.8130750 119.9761460 139.7805440
  66.9393810 119.7373340 138.8622620  66.8552130 119.1446000 140.2527520
  60.6747490 123.6789460 138.3500250  61.1892160 123.5897470 139.1522680
  59.8316570 124.0249160 138.6428160  62.6501890 123.9644800 127.7784250
  62.4903030 123.6747740 128.6766080  62.4848600 123.1884930 127.2429480
  55.1290270 123.7443330 129.5555870  54.9532750 122.8278870 129.3423670
  54.2746010 124.1030620 129.7953670  62.3528020 121.4732360 126.3382250
  61.6593180 121.4709650 125.6784530  63.0950880 121.0491680 125.9076420
  61.9177950 123.0995070 130.4130740  62.3734900 122.3184450 130.7269360
  62.2570470 123.8101890 130.9571920  66.6654760 112.0293920 140.7455180
  66.0499030 112.5373590 140.2170640  66.3451180 111.1292250 140.6881120
  49.6680500 118.8711530 137.5721480  49.8311540 118.4016890 136.7540850
  50.1332950 118.3635090 138.2370320  54.4399270 108.0017290 132.6082050
  53.9967420 108.7826830 132.2766570  54.9984260 108.3247180 133.3152990
  58.7269080 110.8685810 138.2117370  58.2648450 111.0768830 139.0237310
  58.3247190 110.0545160 137.9088040  63.7273590 112.0894760 139.3414030
  62.8767180 111.7900510 139.6623100  63.5675380 112.3336770 138.4297850
  60.8223300 113.5896510 141.4412820  61.1476710 112.7560260 141.1015050
  61.6103630 114.1125030 141.5891150  57.5558090 107.6227990 127.4887880
  56.9312270 107.6187860 128.2141190  57.4688210 106.7558950 127.0923850
  56.4775170 108.5464620 134.4671650  56.7747500 109.4527450 134.3863670
  57.0260730 108.0583400 133.8531220  54.2313490 113.1250860 130.3363300
  54.0054410 112.9088030 131.2409920  53.4506020 113.5579320 129.9909270
  61.4611250 113.1314230 128.9353950  60.8620140 113.8550030 128.7517570
  62.0090860 113.0691010 128.1530400  56.6712700 114.0236440 141.0023570
  56.5756300 113.0831170 140.8523970  57.5144680 114.2451510 140.6071640
  60.0676120 111.7677770 130.9657230  60.4605690 112.0849970 130.1525920
  60.4292970 110.8889650 131.0801750  51.8023240 110.4350110 139.1557350
  51.4086630 111.2825320 139.3630130  51.1141640 109.7976480 139.3465990
  58.3768290 110.5185080 142.2254090  57.6866610 110.3257280 142.8600180
  59.1200590 110.8019720 142.7578390  49.1040290 108.3578570 133.1887430
  48.8153340 108.9281430 133.9012410  49.8486050 107.8783020 133.5518660
  49.2910520 112.2998690 124.3990150  49.2085190 113.2429450 124.5405140
  48.9393580 112.1573600 123.5202500  60.6531260 114.3583520 135.0608010
  59.9212380 114.8670330 135.4098110  60.2555600 113.5413500 134.7596790
  57.0908650 111.0337720 133.4660500  57.0944710 110.5927670 132.6165040
  57.9859770 111.3555050 133.5732320  52.9411030 110.9164210 132.4254710
  52.6011080 111.3939440 133.1821760  52.1788350 110.4629330 132.0655810
  57.1528800 112.0349800 126.4567260  57.2741620 111.9936280 127.4053080
  56.7677310 112.8973950 126.3013990  61.1157170 109.8117200 134.4730950
  61.1329910 110.2625850 135.3172800  60.8672750 108.9122840 134.6864390
  56.1650300 114.3450940 125.8550560  55.5967200 113.8969190 125.2286470
  56.8739300 114.7043720 125.3215710  64.5427920 107.2249380 140.3117330
  64.8673690 106.4939040 140.8375310  64.5784430 106.9063020 139.4098320
  51.2419480 118.2462960 139.7317290  50.8574270 117.6056630 140.3300250
  51.5531670 118.9499080 140.3012020  57.3916620 115.0939500 135.2125910
  57.7586750 114.6198070 135.9587250  57.2021680 115.9681070 135.5534250
  50.2557110 109.8383190 131.3419380  49.9704030 109.4738860 132.1798000
  50.1935970 109.1063650 130.7282520  55.1815990 114.1348140 137.5310120
  54.8773060 115.0140120 137.7560480  56.1362450 114.1947930 137.5667560
  53.7097780 118.3409130 128.1276970  52.9360040 117.8006750 127.9675690
  54.4392410 117.8215740 127.7894730  64.4685760 117.3374490 133.9203360
  65.1884880 117.8329780 133.5299470  64.2667580 116.6592380 133.2757230
  59.9295700 108.7312450 128.0632750  59.1160310 108.2325620 127.9878060
  59.7357650 109.5710700 127.6469100  59.8504560 117.4083550 139.8072360
  59.7841870 116.4879220 139.5529950  59.2209700 117.5058990 140.5217000
  53.7535180 118.0089510 131.7655780  54.2713850 117.2057770 131.7112670
  53.3019200 117.9468650 132.6072610  58.6404680 119.2755790 127.0383080
  58.9820380 120.0198020 126.5426400  57.8117390 119.5886910 127.4007910
  51.2379720 114.9750880 138.6781480  50.8794660 115.6404730 139.2654820
  50.9434280 114.1434430 139.0494100  54.4392840 115.4335120 141.5621030
  54.1392980 115.5792300 140.6648850  55.2104080 114.8740410 141.4694420
  59.7821290 120.2304120 139.5576160  59.7965830 119.2985080 139.3395070
  59.0746390 120.3163880 140.1965930  65.9932500 116.8711460 138.9044740
  65.2680690 117.4640240 138.7074130  66.5207960 116.8635000 138.1058110
  65.9445610 121.2686200 128.5556900  65.3021770 120.6141820 128.8300620
  65.5576270 121.6741290 127.7797570  61.5232090 118.5971630 132.4028590
  61.8755910 117.9999760 131.7429960  60.6394420 118.2715860 132.5736840
  57.6095370 119.3569320 129.8099000  58.2966500 119.9038530 130.1906590
  56.8227790 119.9010050 129.8448610  49.7487770 114.9742140 125.3016080
  50.6182620 115.2566940 125.5852000  49.2578090 115.7878010 125.1864890
  56.9122580 116.3615350 129.4224360  57.3685360 117.1720600 129.6484550
  56.5610790 116.0438490 130.2542850  59.2155190 121.8721690 136.6516660
  59.8597410 122.0781070 137.3290080  59.5784630 121.1110090 136.1987510
  52.8134360 106.7053000 129.8946880  52.6848990 106.6970900 130.8431800
  51.9896380 107.0436090 129.5437890  60.4887270 119.8754040 135.3694110
  61.1309500 119.1747200 135.4826280  61.0136620 120.6552480 135.1891000
  64.3342990 120.1602660 125.0933250  64.1080570 119.4433100 125.6857890
  63.9439190 119.9115100 124.2555000  62.2624890 120.6748940 138.5730170
  62.5981130 121.2615630 139.2508090  61.3425230 120.5441650 138.8027960
  50.1159020 124.1869520 125.8677710  50.4756660 124.7858860 125.2134980
  49.9751360 124.7329410 126.6412740  49.8128290 108.4644120 139.3553580
  49.0986810 108.6641040 139.9606190  50.2323330 107.6883690 139.7268380
  63.9159240 118.0774600 126.7547410  63.6280940 118.5387290 127.5425290
  64.7111410 117.6172370 127.0231630  50.1000880 122.4524380 140.3420110
  50.2092000 121.5119120 140.2015500  49.4481440 122.7179130 139.6933840
  58.0913470 120.7240270 141.7418230  57.7710340 120.0049510 142.2863920
  57.4171830 121.3995340 141.8154290  56.1327640 121.5700720 126.6851380
  56.1237740 122.3030410 126.0695890  55.2126000 121.3232300 126.7778340
  51.7334280 116.7915610 127.4298140  51.1262230 117.5314510 127.4393440
  52.2083630 116.8814970 126.6036340  61.3067070 110.9566430 137.1055030
  61.6747890 110.1361640 137.4334600  60.4465270 111.0168320 137.5210680
  59.1187240 121.6328960 125.3476570  59.2199220 121.4292950 124.4178550
  58.2188980 121.3787240 125.5524350  56.6413130 112.1909320 129.3300470
  55.9329280 112.6595660 129.7714080  56.9257610 111.5331330 129.9645660
  58.2669060 113.6106020 137.3293000  58.7654310 114.0851840 137.9944850
  58.4092010 112.6869540 137.5363030  60.6728560 108.9159980 130.7696260
  60.5496340 108.9346110 129.8205770  61.6213120 108.9638920 130.8894660
  57.7605350 124.1515280 130.0424240  58.0146850 124.1136670 129.1203610
  56.8117830 124.0248610 130.0352490  54.8448150 110.4994400 126.7051180
  55.6938680 110.9364550 126.6391370  54.4779420 110.8114660 127.5323240
  65.4735920 109.8273980 138.1721390  64.9709520 110.5679380 138.5115200
  66.2892580 110.2157980 137.8558180  63.7657930 115.0707160 131.6182750
  62.8248070 115.0857390 131.7930440  64.0802000 114.2843120 132.0643050
  53.7439570 116.7526760 125.1786710  54.5102840 116.6408120 125.7412140
  53.8214260 116.0564730 124.5263480  52.4386330 114.1851830 125.8619600
  52.5189920 113.2379340 125.9737000  53.3306080 114.5158710 125.9680260
  65.7683510 122.2416010 133.2937010  65.8930930 123.0647180 133.7660820
  66.6349070 122.0306740 132.9461160  53.2401040 124.3347220 132.9654140
  53.9763520 123.7862680 133.2362710  53.6241960 125.2003230 132.8260130
  50.1246520 120.4020790 128.8395650  49.1986300 120.6441930 128.8301060
  50.5902950 121.2295050 128.7180400  52.2459320 123.5193290 142.1539720
  53.0472050 123.8405340 142.5675120  51.7311140 123.1588870 142.8759630
  56.3503350 123.5077530 124.7879710  57.1431960 123.7966360 124.3361500
  55.8307700 123.0769700 124.1092190  61.0823950 119.6273160 142.1015130
  60.4762110 119.6504760 141.3610880  60.7778060 118.8956200 142.6382380
  62.5124320 123.3553450 140.7124540  63.4646070 123.2711470 140.6624780
  62.3652540 124.0195160 141.3858330  65.4033520 122.7347660 126.2116450
  65.1175030 122.3212800 125.3970630  65.2053070 123.6635370 126.0916970
  49.9657130 116.0066750 141.0975770  50.4696150 115.4274030 141.6692000
  49.2264550 116.2906980 141.6352140  56.8680750 118.7280940 124.6522060
  56.7631390 118.1133290 125.3783440  56.7004970 118.2046830 123.8685070
  57.0195070 117.4137740 140.6311290  56.2540740 117.9822740 140.5465960
  57.2011030 117.1213950 139.7379520  60.1083480 117.7900970 125.2564050
  59.5593580 118.2370270 125.9006790  60.7302740 117.2850220 125.7801720
  64.1618420 119.1443070 141.1886310  64.9027890 119.4818830 140.6853770
  63.3991100 119.3135130 140.6356080  51.9980210 114.1496340 141.9925840
  52.0385550 113.8510210 142.9011070  52.8525710 114.5503950 141.8333360
  55.7758600 116.7491890 127.1529350  56.1975020 116.5831760 127.9960740
  55.9009440 115.9392120 126.6584490  53.9386020 112.7288440 139.9600330
  53.4082480 112.2379390 139.3323670  54.6074090 113.1572640 139.4258260
  58.2886240 115.7729500 124.4006450  58.8091900 115.0578520 124.0347600
  58.9354640 116.4115370 124.7006960  62.8364080 117.1957900 139.7241520
  63.2505100 117.3502980 140.5731940  61.9015080 117.3213120 139.8867300
  63.3086250 114.5354060 141.7280670  63.8907020 113.7806380 141.6401150
  63.4848020 115.0661500 140.9512150  54.4258320 109.6950810 140.0397620
  54.3315190 109.0771560 139.3148490  53.8455710 110.4217100 139.8127530
  57.1919760 108.2524050 137.0725010  56.7437060 108.2748310 136.2270560
  56.5584960 107.8543070 137.6695310  57.5979310 117.1478380 137.6937450
  58.0167420 117.9911110 137.5213690  56.6787940 117.2850420 137.4644230
  59.9343210 114.8794560 139.0775290  60.0539420 114.2835700 139.8170130
  60.7937210 114.9164250 138.6576590  62.2731110 115.4331750 137.6537800
  61.7466330 115.9574370 137.0502940  62.6162450 116.0659140 138.2847530
  54.6717500 112.8225120 124.0987510  54.4706560 111.9592480 124.4600850
  54.5009550 112.7358480 123.1609110  55.4486730 123.4531390 138.8095180
  54.9107820 124.1777450 138.4903880  55.7020690 122.9761730 138.0192520
  56.7011980 111.4215910 140.3351110  57.2911670 111.1131760 141.0228930
  55.8832220 110.9495660 140.4911010  61.5205410 111.0381720 140.5684130
  60.8320930 110.3763260 140.5034120  62.2411430 110.5919990 141.0132590
  62.1505810 107.6333350 126.6274390  62.4308100 106.7901250 126.9833810
  61.3771540 107.8656460 127.1413140  53.4700300 109.9225740 124.0865390
  53.7726200 109.9293170 123.1784540  54.2094890 109.5723600 124.5833050
  58.3048940 124.6882600 139.0681830  58.2307640 125.5917740 139.3754200
  57.4027780 124.3694500 139.0403900  56.6885230 108.8660360 125.0721590
  56.3407230 108.1884350 124.4924040  56.8898000 108.4049870 125.8864980
  58.8534270 123.8541110 126.6908190  59.7485060 124.1926080 126.7126950
  58.8851900 123.1320520 126.0632470  52.4930430 119.2268160 124.9195190
  52.9305300 119.7697830 125.5752770  52.9778160 118.4015110 124.9291530
  49.7076230 122.0157190 132.3715450  50.0379240 121.1478250 132.1394090
  50.1367230 122.2215710 133.2020410  54.3038150 120.3466200 130.0317420
  54.0033690 120.2231170 130.9321330  54.1975640 119.4874790 129.6233150
  50.1966440 122.8827780 135.1097080  49.7597430 123.0628580 135.9421230
  50.7644120 123.6402400 134.9678800  65.8328620 122.3844780 139.3974390
  65.2330610 122.4437340 138.6538310  65.9622520 121.4449760 139.5271240
  67.0730070 120.1262600 124.7344100  66.2423030 120.1939250 125.2051330
  67.2501900 121.0166720 124.4310960  50.0290870 115.3948010 131.4685960
  49.3739710 115.1259650 130.8245660  50.8668820 115.2852490 131.0187940
  67.5346500 117.7260180 132.0820230  67.9055330 116.9427500 131.6756200
  68.1748430 118.4149280 131.9037530  64.5180260 119.1096760 137.4950550
  63.7040100 119.5393920 137.7576340  64.9254460 119.7215170 136.8819600
  62.9781310 110.1889300 125.6904450  63.3966190 110.0020280 124.8501110
  62.6717370 109.3368350 126.0007380  51.0666800 115.7800580 136.0089300
  51.4339840 115.6927980 136.8885320  50.4977620 115.0167130 135.9096160
  65.8670660 114.2484960 139.0219770  65.6356750 114.0197710 138.1217720
  66.1275210 115.1684510 138.9764660  50.6182800 112.6909670 139.9147720
  49.7238850 112.6576430 140.2541430  51.1580350 112.8896460 140.6798970
  64.3058730 109.4741390 141.7999470  65.1828910 109.4824790 142.1833470
  64.3179570 108.7372230 141.1891820  49.2428950 112.6046940 127.4111290
  48.3393030 112.8677140 127.2362950  49.7269570 112.8758110 126.6311250
  65.7522000 113.3270930 132.6887490  66.2759480 112.8333580 132.0577660
  66.3381420 113.4621290 133.4335060  65.9311720 113.4110800 136.2107040
  64.9814430 113.3774340 136.3252030  66.1124730 114.3210910 135.9756810
  51.7856160 111.6612480 125.3205670  52.4947860 111.2395700 124.8352950
  51.0696100 111.7287710 124.6889020  51.4330320 107.7151810 124.3608320
  52.1558450 108.2560750 124.6789540  51.7054840 107.4415230 123.4849860
  51.1222510 106.9658000 134.2630940  51.7698700 106.4155380 133.8226100
  51.5424350 107.2201150 135.0846750  65.0174850 107.1599360 137.6200580
  65.6547070 107.7733500 137.9859770  65.1649740 107.1960020 136.6749810
  64.5756310 123.8615360 131.0218820  65.1715380 123.5399930 130.3453240
  64.8334460 123.3887180 131.8132090  50.8754510 107.1213670 137.0056260
  50.5269330 107.5777490 137.7714440  50.5442210 106.2270800 137.0878690
  52.4818880 120.2933270 141.1709450  52.4388510 119.9226180 142.0523910
  52.6129890 121.2310840 141.3111270  56.1824910 121.8492860 136.7719170
  55.9416270 122.1167420 135.8849690  57.1227550 122.0198590 136.8270030
  58.3879330 108.3125550 140.5275680  58.3268220 108.9047380 141.2771090
  59.3279710 108.2051510 140.3825940  61.0253890 107.9695610 140.1667970
  61.6394300 108.2874900 139.5049050  61.5703450 107.4844200 140.7863830
  67.4429070 123.8687240 137.5729810  66.9487350 124.2656110 136.8556940
  66.8342360 123.2436450 137.9667090  51.5475150 106.6489870 140.2807030
  52.0958140 106.4677920 139.5173140  51.6130460 105.8583980 140.8163340
  52.3206910 123.2395520 138.2907230  51.7267230 123.1080220 139.0297270
  52.3130750 122.4033660 137.8249330  61.7661930 106.5327750 136.4937260
  60.8921770 106.8662860 136.2910190  61.6572680 106.0600930 137.3189130
  62.6733910 108.7398620 137.8778980  62.3447270 107.9250380 137.4980710
  63.6216210 108.6968430 137.7544670  65.1268520 124.5110660 134.8516550
  64.6671490 125.2626470 134.4774570  64.4980980 123.7917130 134.7931350
  51.9519140 120.6053900 137.2415270  51.2253200 119.9859190 137.1741220
  52.0128290 120.9994510 136.3713350  55.5564240 122.8198900 134.0264680
  56.0729260 122.2086260 133.5012940  56.2061620 123.3227680 134.5175690
  58.2959740 123.7107390 134.8533660  58.5837550 123.4561690 133.9766670
  58.8082960 123.1584750 135.4439230  59.5136750 107.4497590 135.4330170
  58.7308540 107.9243090 135.7126930  59.2199680 106.5452420 135.3243350
  64.0657820 108.1520690 133.4779260  64.5065910 108.0965790 132.6300860
  63.7965410 109.0678700 133.5489440  65.9296390 107.7835930 131.4888080
  65.8684790 106.8397150 131.3419100  66.7088420 107.8916020 132.0341540
  50.2349140 123.9228290 130.4512030  50.0671180 123.2898970 131.1493920
  49.3683650 124.1287690 130.1006220  50.8577160 107.7545070 127.9543890
  51.6156520 107.8673950 127.3807920  50.3954330 108.5914270 127.9087320
  57.3990970 109.8684340 130.9446200  56.5865480 109.4941230 130.6042080
  57.9032610 109.1129420 131.2467390  61.9015950 106.5326790 132.1829270
  62.5045320 107.1047000 132.6577790  61.1608940 107.0966230 131.9603170
  65.0450550 106.9348350 127.4569550  65.2401180 107.8331800 127.7236980
  64.2580420 106.7035430 127.9502500  51.8411840 122.6161520 127.8962170
  51.3159460 122.9969550 127.1924130  51.7656420 123.2412290 128.6171880
  53.2302310 108.2809120 126.4945860  53.7595070 107.4938920 126.3653810
  53.8630630 108.9600310 126.7281390  55.4240150 108.0184260 129.5491250
  54.7942890 107.3171570 129.7161380  54.8845290 108.7788390 129.3324410
  58.3632100 124.6323490 142.2201860  59.2899410 124.3967760 142.2637820
  58.3482530 125.4595490 141.7387890  66.5977160 124.1749060 129.2176110
  66.7729350 123.4886800 128.5737030  65.8998730 124.6996110 128.8252780
  55.5495710 107.2968240 141.9843740  55.2679980 107.8001840 141.2204560
  55.9315410 106.4989990 141.6185870  54.4404810 124.5643900 126.7711420
  55.1723630 124.2803180 126.2235310  54.6998480 124.3257180 127.6610800
  53.6019600 120.6808630 126.7757750  52.9728480 121.1493730 127.3243580
  53.7167430 119.8357850 127.2103940  62.1511170 106.7121820 142.5624210
  62.0376620 107.0316430 143.4575730  62.9680910 107.1134330 142.2661490
  64.9309660 123.8593350 142.0442900  65.7234980 123.3642580 141.8368860
  65.2242810 124.5383490 142.6518510  59.1887360 116.5093310 114.8068220
  58.4129460 116.0293750 115.0966790  59.8400290 115.8298960 114.6324380
  63.2094790 120.9153500 113.5867350  62.7476320 120.1440740 113.9154520
  64.0220340 120.9419570 114.0919800  49.5778150 114.3820660 115.3526070
  50.1494260 113.6142860 115.3529710  49.5779690 114.6809420 114.4432680
  50.8203020 109.7905020 117.1395000  50.6405860 108.8930770 117.4197760
  50.4183100 110.3376890 117.8141950  53.7906530 110.3646510 110.5024750
  53.8973280 111.2650240 110.8093510  52.8798890 110.3164480 110.2119400
  51.4389690 112.2865520 115.7477340  52.1199800 112.5503890 116.3664740
  51.1237740 111.4466390 116.0815350  55.6314260 113.3332880 114.8349930
  56.1392480 113.8313850 115.4754950  56.1627500 112.5568080 114.6589290
  53.9150360 107.9731440 119.1013350  53.9168800 108.4903830 118.2959250
  53.0854670 107.4961620 119.0783280  60.3021450 118.0850750 110.6003250
  59.6838720 118.5500200 110.0365970  60.8144700 118.7778230 111.0172760
  65.2949900 121.0446830 117.0090670  64.6113420 121.7145940 117.0007340
  65.8344190 121.2427480 116.2435530  66.7474040 110.8726490 115.1372400
  65.7998950 110.9065470 115.2687830  67.0724030 111.6865440 115.5221760
  62.8308640 122.8890960 115.7235850  62.8435800 122.4853250 114.8558110
  62.2783860 123.6638250 115.6197280  64.1254060 119.6107180 110.8126020
  64.0150390 118.6681510 110.9375440  64.1222310 119.9722820 111.6988780
  59.6674340 115.2372500 110.1688510  58.7403620 115.1709880 110.3976980
  59.8199160 116.1752630 110.0543750  59.6543420 111.5089500 107.1655670
  58.7147090 111.6703460 107.2508130  59.9726680 112.2275180 106.6191660
  66.1756180 116.1908020 117.1434700  65.3474810 116.2601110 116.6684830
  66.7706660 116.7762330 116.6750530  63.6971630 116.7992800 110.6723760
  63.0784050 116.4612350 110.0250060  63.6796080 116.1552560 111.3802950
  63.1398190 112.9777340 118.0889570  62.7269370 113.8031050 118.3429560
  62.4074140 112.3922380 117.8965930  55.2730980 115.7637240 112.9508240
  54.8687980 115.0514490 112.4554140  55.3594100 115.4190480 113.8396280
  53.9859600 112.5380450 116.7307280  54.5374190 112.6475790 115.9560530
  54.5003110 112.9118050 117.4462510  63.8298290 123.0236670 118.7770550
  63.3528850 123.8308860 118.5843160  63.1460080 122.3715000 118.9296760
  61.8736330 116.0379610 107.6796510  62.3129610 115.2002040 107.5334330
  62.5864750 116.6709010 107.7660650  55.4582680 122.0021510 122.5497770
  55.4298110 122.4064460 121.6826200  55.2947650 121.0731870 122.3869370
  51.9735610 114.6582220 110.4514890  51.8533210 115.3844310 109.8396160
  51.6636500 113.8885130 109.9742800  67.4097500 122.7848610 123.8461940
  67.8857220 123.2631500 124.5251020  68.0304660 122.7166100 123.1207440
  66.8130750 119.9761460 121.0061950  66.9393810 119.7373340 120.0879130
  66.8552130 119.1446000 121.4784030  60.6747490 123.6789460 119.5756760
  61.1892160 123.5897470 120.3779190  59.8316570 124.0249160 119.8684670
  62.6501890 123.9644800 109.0040760  62.4903030 123.6747740 109.9022590
  62.4848600 123.1884930 108.4685990  62.3528020 121.4732360 107.5638760
  61.6593180 121.4709650 106.9041040  63.0950880 121.0491680 107.1332930
  63.7273590 112.0894760 120.5670540  62.8767180 111.7900510 120.8879610
  63.5675380 112.3336770 119.6554360  60.8223300 113.5896510 122.6669330
  61.1476710 112.7560260 122.3271560  61.6103630 114.1125030 122.8147660
  54.2313490 113.1250860 111.5619810  54.0054410 112.9088030 112.4666430
  53.4506020 113.5579320 111.2165780  56.6712700 114.0236440 122.2280080
  56.5756300 113.0831170 122.0780480  57.5144680 114.2451510 121.8328150
  51.8023240 110.4350110 120.3813860  51.4086630 111.2825320 120.5886640
  51.1141640 109.7976480 120.5722500  58.3768290 110.5185080 123.4510600
  57.6866610 110.3257280 124.0856690  59.1200590 110.8019720 123.9834900
  49.1040290 108.3578570 114.4143940  48.8153340 108.9281430 115.1268920
  49.8486050 107.8783020 114.7775170  60.6531260 114.3583520 116.2864520
  59.9212380 114.8670330 116.6354620  60.2555600 113.5413500 115.9853300
  52.9411030 110.9164210 113.6511220  52.6011080 111.3939440 114.4078270
  52.1788350 110.4629330 113.2912320  57.1528800 112.0349800 107.6823770
  57.2741620 111.9936280 108.6309590  56.7677310 112.8973950 107.5270500
  56.1650300 114.3450940 107.0807070  55.5967200 113.8969190 106.4542980
  56.8739300 114.7043720 106.5472220  57.3916620 115.0939500 116.4382420
  57.7586750 114.6198070 117.1843760  57.2021680 115.9681070 116.7790760
  53.7097780 118.3409130 109.3533480  52.9360040 117.8006750 109.1932200
  54.4392410 117.8215740 109.0151240  64.4685760 117.3374490 115.1459870
  65.1884880 117.8329780 114.7555980  64.2667580 116.6592380 114.5013740
  62.6444090 113.1032100 107.5851420  63.5323710 113.4149330 107.4102760
  62.6149180 112.2304350 107.1932000  53.7535180 118.0089510 112.9912290
  54.2713850 117.2057770 112.9369180  53.3019200 117.9468650 113.8329120
  58.6404680 119.2755790 108.2639590  58.9820380 120.0198020 107.7682910
  57.8117390 119.5886910 108.6264420  64.9158360 114.4143940 107.0531280
  64.8322080 114.8458160 106.2027720  65.6352550 114.8742290 107.4858100
  65.9932500 116.8711460 120.1301250  65.2680690 117.4640240 119.9330640
  66.5207960 116.8635000 119.3314620  65.9445610 121.2686200 109.7813410
  65.3021770 120.6141820 110.0557130  65.5576270 121.6741290 109.0054080
  61.5232090 118.5971630 113.6285100  61.8755910 117.9999760 112.9686470
  60.6394420 118.2715860 113.7993350  57.6095370 119.3569320 111.0355510
  58.2966500 119.9038530 111.4163100  56.8227790 119.9010050 111.0705120
  56.9122580 116.3615350 110.6480870  57.3685360 117.1720600 110.8741060
  56.5610790 116.0438490 111.4799360  64.3342990 120.1602660 106.3189760
  64.1080570 119.4433100 106.9114400  63.9439190 119.9115100 105.4811510
  49.8128290 108.4644120 120.5810090  49.0986810 108.6641040 121.1862700
  50.2323330 107.6883690 120.9524890  63.9159240 118.0774600 107.9803920
  63.6280940 118.5387290 108.7681800  64.7111410 117.6172370 108.2488140
  50.1000880 122.4524380 121.5676620  50.2092000 121.5119120 121.4272010
  49.4481440 122.7179130 120.9190350  59.1187240 121.6328960 106.5733080
  59.2199220 121.4292950 105.6435060  58.2188980 121.3787240 106.7780860
  56.6413130 112.1909320 110.5556980  55.9329280 112.6595660 110.9970590
  56.9257610 111.5331330 111.1902170  58.2669060 113.6106020 118.5549510
  58.7654310 114.0851840 119.2201360  58.4092010 112.6869540 118.7619540
  63.7657930 115.0707160 112.8439260  62.8248070 115.0857390 113.0186950
  64.0802000 114.2843120 113.2899560  65.7683510 122.2416010 114.5193520
  65.8930930 123.0647180 114.9917330  66.6349070 122.0306740 114.1717670
  52.2459320 123.5193290 123.3796230  53.0472050 123.8405340 123.7931630
  51.7311140 123.1588870 124.1016140  62.5124320 123.3553450 121.9381050
  63.4646070 123.2711470 121.8881290  62.3652540 124.0195160 122.6114840
  65.4033520 122.7347660 107.4372960  65.1175030 122.3212800 106.6227140
  65.2053070 123.6635370 107.3173480  60.1083480 117.7900970 106.4820560
  59.5593580 118.2370270 107.1263300  60.7302740 117.2850220 107.0058230
  64.1618420 119.1443070 122.4142820  64.9027890 119.4818830 121.9110280
  63.3991100 119.3135130 121.8612590  55.7758600 116.7491890 108.3785860
  56.1975020 116.5831760 109.2217250  55.9009440 115.9392120 107.8841000
  53.9386020 112.7288440 121.1856840  53.4082480 112.2379390 120.5580180
  54.6074090 113.1572640 120.6514770  58.2886240 115.7729500 105.6262960
  58.8091900 115.0578520 105.2604110  58.9354640 116.4115370 105.9263470
  63.3086250 114.5354060 122.9537180  63.8907020 113.7806380 122.8657660
  63.4848020 115.0661500 122.1768660  54.4258320 109.6950810 121.2654130
  54.3315190 109.0771560 120.5405000  53.8455710 110.4217100 121.0384040
  55.4486730 123.4531390 120.0351690  54.9107820 124.1777450 119.7160390
  55.7020690 122.9761730 119.2449030  61.5205410 111.0381720 121.7940640
  60.8320930 110.3763260 121.7290630  62.2411430 110.5919990 122.2389100
  58.3048940 124.6882600 120.2938340  58.2307640 125.5917740 120.6010710
  57.4027780 124.3694500 120.2660410  54.3038150 120.3466200 111.2573930
  54.0033690 120.2231170 112.1577840  54.1975640 119.4874790 110.8489660
  65.8328620 122.3844780 120.6230900  65.2330610 122.4437340 119.8794820
  65.9622520 121.4449760 120.7527750  67.0730070 120.1262600 105.9600610
  66.2423030 120.1939250 106.4307840  67.2501900 121.0166720 105.6567470
  66.5286530 116.8710080 108.4634810  67.2905440 117.4406730 108.5694500
  66.5440900 116.3037280 109.2343120  50.0290870 115.3948010 112.6942470
  49.3739710 115.1259650 112.0502170  50.8668820 115.2852490 112.2444450
  67.5346500 117.7260180 113.3076740  67.9055330 116.9427500 112.9012710
  68.1748430 118.4149280 113.1294040  66.5805700 117.1644450 105.6207330
  66.8554540 118.0723330 105.4926550  66.3916440 117.1006980 106.5569320
  62.9781310 110.1889300 106.9160960  63.3966190 110.0020280 106.0757620
  62.6717370 109.3368350 107.2263890  66.4771040 115.1013440 110.6136760
  66.1014640 114.3341370 110.1818050  65.7474160 115.4836140 111.1011690
  50.6182800 112.6909670 121.1404230  49.7238850 112.6576430 121.4797940
  51.1580350 112.8896460 121.9055480  64.3058730 109.4741390 123.0255980
  65.1828910 109.4824790 123.4089980  64.3179570 108.7372230 122.4148330
  65.7522000 113.3270930 113.9144000  66.2759480 112.8333580 113.2834170
  66.3381420 113.4621290 114.6591570  65.9311720 113.4110800 117.4363550
  64.9814430 113.3774340 117.5508540  66.1124730 114.3210910 117.2013320
  51.4330320 107.7151810 105.5864830  52.1558450 108.2560750 105.9046050
  51.7054840 107.4415230 104.7106370  51.1222510 106.9658000 115.4887450
  51.7698700 106.4155380 115.0482610  51.5424350 107.2201150 116.3103260
  67.6337890 109.8223810 108.2536940  66.8389390 109.7568930 108.7829850
  67.8381170 110.7574450 108.2422290  64.5756310 123.8615360 112.2475330
  65.1715380 123.5399930 111.5709750  64.8334460 123.3887180 113.0388600
  50.8754510 107.1213670 118.2312770  50.5269330 107.5777490 118.9970950
  50.5442210 106.2270800 118.3135200  67.4429070 123.8687240 118.7986320
  66.9487350 124.2656110 118.0813450  66.8342360 123.2436450 119.1923600
  51.5475150 106.6489870 121.5063540  52.0958140 106.4677920 120.7429650
  51.6130460 105.8583980 122.0419850  52.3206910 123.2395520 119.5163740
  51.7267230 123.1080220 120.2553780  52.3130750 122.4033660 119.0505840
  65.1268520 124.5110660 116.0773060  64.6671490 125.2626470 115.7031080
  64.4980980 123.7917130 116.0187860  55.5564240 122.8198900 115.2521190
  56.0729260 122.2086260 114.7269450  56.2061620 123.3227680 115.7432200
  58.2959740 123.7107390 116.0790170  58.5837550 123.4561690 115.2023180
  58.8082960 123.1584750 116.6695740  53.2302310 108.2809120 107.7202370
  53.7595070 107.4938920 107.5910320  53.8630630 108.9600310 107.9537900
  58.3632100 124.6323490 123.4458370  59.2899410 124.3967760 123.4894330
  58.3482530 125.4595490 122.9644400  55.5495710 107.2968240 123.2100250
  55.2679980 107.8001840 122.4461070  55.9315410 106.4989990 122.8442380
  62.1511170 106.7121820 123.7880720  62.0376620 107.0316430 124.6832240
  62.9680910 107.1134330 123.4918000  64.9309660 123.8593350 123.2699410
  65.7234980 123.3642580 123.0625370  65.2242810 124.5383490 123.8775020
  65.2949900 121.0446830  98.2347180  64.6113420 121.7145940  98.2263850
  65.8344190 121.2427480  97.4692040  57.2793580 107.1723670  94.6584900
  57.5868560 106.6170560  93.9420400  56.3494280 107.3068130  94.4757890
  62.8308640 122.8890960  96.9492360  62.8435800 122.4853250  96.0814620
  62.2783860 123.6638250  96.8453790  61.8736330 116.0379610  88.9053020
  62.3129610 115.2002040  88.7590840  62.5864750 116.6709010  88.9917160
  65.4553470 107.2922420  87.2194060  65.1426130 107.3849250  88.1193130
  66.2165940 107.8703450  87.1691490  67.4097500 122.7848610 105.0718450
  67.8857220 123.2631500 105.7507530  68.0304660 122.7166100 104.3463950
  49.6120980 117.8297360  97.4840040  49.6901400 117.9646130  96.5395760
  50.2262660 117.1213250  97.6768160  50.8568610 119.5297550  93.8946220
  50.4496690 119.6712140  93.0399820  51.7481620 119.2457710  93.6917430
  66.8130750 119.9761460 102.2318460  66.9393810 119.7373340 101.3135640
  66.8552130 119.1446000 102.7040540  60.8223300 113.5896510 103.8925840
  61.1476710 112.7560260 103.5528070  61.6103630 114.1125030 104.0404170
  56.1650300 114.3450940  88.3063580  55.5967200 113.8969190  87.6799490
  56.8739300 114.7043720  87.7728730  59.9295700 108.7312450  90.5145770
  59.1160310 108.2325620  90.4391080  59.7357650 109.5710700  90.0982120
  62.6444090 113.1032100  88.8107930  63.5323710 113.4149330  88.6359270
  62.6149180 112.2304350  88.4188510  64.9158360 114.4143940  88.2787790
  64.8322080 114.8458160  87.4284230  65.6352550 114.8742290  88.7114610
  59.2155190 121.8721690  99.1029680  59.8597410 122.0781070  99.7803100
  59.5784630 121.1110090  98.6500530  52.8134360 106.7053000  92.3459900
  52.6848990 106.6970900  93.2944820  51.9896380 107.0436090  91.9950910
  60.4887270 119.8754040  97.8207130  61.1309500 119.1747200  97.9339300
  61.0136620 120.6552480  97.6404020  50.1159020 124.1869520  88.3190730
  50.4756660 124.7858860  87.6648000  49.9751360 124.7329410  89.0925760
  49.8128290 108.4644120 101.8066600  49.0986810 108.6641040 102.4119210
  50.2323330 107.6883690 102.1781400  56.1327640 121.5700720  89.1364400
  56.1237740 122.3030410  88.5208910  55.2126000 121.3232300  89.2291360
  64.6729100 109.9123370  90.3655610  64.0442260 110.0169040  89.6513840
  64.1781020 110.1320150  91.1549490  65.7683510 122.2416010  95.7450030
  65.8930930 123.0647180  96.2173840  66.6349070 122.0306740  95.3974180
  64.1618420 119.1443070 103.6399330  64.9027890 119.4818830 103.1366790
  63.3991100 119.3135130 103.0869100  55.7758600 116.7491890  89.6042370
  56.1975020 116.5831760  90.4473760  55.9009440 115.9392120  89.1097510
  58.2886240 115.7729500  86.8519470  58.8091900 115.0578520  86.4860620
  58.9354640 116.4115370  87.1519980  62.8364080 117.1957900 102.1754540
  63.2505100 117.3502980 103.0244960  61.9015080 117.3213120 102.3380320
  63.3086250 114.5354060 104.1793690  63.8907020 113.7806380 104.0914170
  63.4848020 115.0661500 103.4025170  55.4486730 123.4531390 101.2608200
  54.9107820 124.1777450 100.9416900  55.7020690 122.9761730 100.4705540
  61.5205410 111.0381720 103.0197150  60.8320930 110.3763260 102.9547140
  62.2411430 110.5919990 103.4645610  62.1505810 107.6333350  89.0787410
  62.4308100 106.7901250  89.4346830  61.3771540 107.8656460  89.5926160
  49.7076230 122.0157190  94.8228470  50.0379240 121.1478250  94.5907110
  50.1367230 122.2215710  95.6533430  67.0730070 120.1262600  87.1857120
  66.2423030 120.1939250  87.6564350  67.2501900 121.0166720  86.8823980
  66.5805700 117.1644450  86.8463840  66.8554540 118.0723330  86.7183060
  66.3916440 117.1006980  87.7825830  62.9781310 110.1889300  88.1417470
  63.3966190 110.0020280  87.3014130  62.6717370 109.3368350  88.4520400
  66.4771040 115.1013440  91.8393270  66.1014640 114.3341370  91.4074560
  65.7474160 115.4836140  92.3268200  65.2421970 112.5844280  91.0792920
  65.7381090 112.3515150  91.8641800  65.0438040 111.7456120  90.6630560
  66.6709130 111.2205230  93.6130600  66.5608410 111.0661270  94.5512870
  67.4316720 110.6926170  93.3706010  64.5756310 123.8615360  93.4731840
  65.1715380 123.5399930  92.7966260  64.8334460 123.3887180  94.2645110
  67.4429070 123.8687240 100.0242830  66.9487350 124.2656110  99.3069960
  66.8342360 123.2436450 100.4180110  51.5475150 106.6489870 102.7320050
  52.0958140 106.4677920 101.9686160  51.6130460 105.8583980 103.2676360
  65.1268520 124.5110660  97.3029570  64.6671490 125.2626470  96.9287590
  64.4980980 123.7917130  97.2444370  58.2959740 123.7107390  97.3046680
  58.5837550 123.4561690  96.4279690  58.8082960 123.1584750  97.8952250
  59.5136750 107.4497590  97.8843190  58.7308540 107.9243090  98.1639950
  59.2199680 106.5452420  97.7756370  50.2349140 123.9228290  92.9025050
  50.0671180 123.2898970  93.6006940  49.3683650 124.1287690  92.5519240
  61.9015950 106.5326790  94.6342290  62.5045320 107.1047000  95.1090810
  61.1608940 107.0966230  94.4116190  51.8411840 122.6161520  90.3475190
  51.3159460 122.9969550  89.6437150  51.7656420 123.2412290  91.0684900
  66.5977160 124.1749060  91.6689130  66.7729350 123.4886800  91.0250050
  65.8998730 124.6996110  91.2765800  53.6019600 120.6808630  89.2270770
  52.9728480 121.1493730  89.7756600  53.7167430 119.8357850  89.6616960
  61.0569320 114.7314290  75.3771970  60.9763370 113.8168900  75.1063680
  60.6433740 115.2281360  74.6711680  59.1887360 116.5093310  77.2581240
  58.4129460 116.0293750  77.5479810  59.8400290 115.8298960  77.0837400
  63.2094790 120.9153500  76.0380370  62.7476320 120.1440740  76.3667540
  64.0220340 120.9419570  76.5432820  53.1854450 120.8553210  78.3315020
  53.4882490 119.9650950  78.1525240  53.9298040 121.4123430  78.1037270
  51.6145140 111.7815010  71.9199390  50.7261840 112.1230980  71.8179270
  51.8986330 111.5815330  71.0280220  49.5778150 114.3820660  77.8039090
  50.1494260 113.6142860  77.8042730  49.5779690 114.6809420  76.8945700
  59.4358100 123.2011510  75.6584360  58.8169540 123.6569010  75.0878800
  60.2909880 123.3562970  75.2574060  58.6296350 119.1850500  77.2651400
  58.5604630 118.2440440  77.1040530  59.3916210 119.2751910  77.8373970
  59.6601520 111.9920880  77.4920330  60.0366340 111.1192760  77.3794000
  59.5621030 112.3279580  76.6010770  53.7906530 110.3646510  72.9537770
  53.8973280 111.2650240  73.2606530  52.8798890 110.3164480  72.6632420
  63.4425640 109.4871320  74.4248670  64.2635260 108.9967890  74.4674150
  63.4759720 110.0768980  75.1780510  51.4389690 112.2865520  78.1990360
  52.1199800 112.5503890  78.8177760  51.1237740 111.4466390  78.5328370
  55.6314260 113.3332880  77.2862950  56.1392480 113.8313850  77.9267970
  56.1627500 112.5568080  77.1102310  67.7325190 111.5038070  80.9892300
  67.0277360 111.8919780  80.4707410  67.9983110 112.1988360  81.5913230
  53.9150360 107.9731440  81.5526370  53.9168800 108.4903830  80.7472270
  53.0854670 107.4961620  81.5296300  60.3021450 118.0850750  73.0516270
  59.6838720 118.5500200  72.4878990  60.8144700 118.7778230  73.4685780
  63.6787120 111.4271700  77.1976210  62.9742690 111.7156590  77.7779320
  64.0399280 112.2371810  76.8375770  49.6704650 118.7707280  70.4255900
  49.2932630 119.2594380  69.6940800  49.9277720 119.4432560  71.0562430
  65.2949900 121.0446830  79.4603690  64.6113420 121.7145940  79.4520360
  65.8344190 121.2427480  78.6948550  66.7474040 110.8726490  77.5885420
  65.7998950 110.9065470  77.7200850  67.0724030 111.6865440  77.9734780
  57.2793580 107.1723670  75.8841410  57.5868560 106.6170560  75.1676910
  56.3494280 107.3068130  75.7014400  62.8308640 122.8890960  78.1748870
  62.8435800 122.4853250  77.3071130  62.2783860 123.6638250  78.0710300
  62.2294080 117.7920800  79.5031480  62.6462870 117.5780910  78.6684940
  62.9533900 118.0493590  80.0740100  59.6674340 115.2372500  72.6201530
  58.7403620 115.1709880  72.8490000  59.8199160 116.1752630  72.5056770
  59.6543420 111.5089500  69.6168690  58.7147090 111.6703460  69.7021150
  59.9726680 112.2275180  69.0704680  66.1756180 116.1908020  79.5947720
  65.3474810 116.2601110  79.1197850  66.7706660 116.7762330  79.1263550
  63.1398190 112.9777340  80.5402590  62.7269370 113.8031050  80.7942580
  62.4074140 112.3922380  80.3478950  55.2730980 115.7637240  75.4021260
  54.8687980 115.0514490  74.9067160  55.3594100 115.4190480  76.2909300
  55.7412680 119.4504800  77.5660470  55.4440970 118.8450270  76.8868250
  56.6912500 119.4882110  77.4549830  63.8298290 123.0236670  81.2283570
  63.3528850 123.8308860  81.0356180  63.1460080 122.3715000  81.3809780
  59.9831710 120.9775680  74.0990770  60.4227620 121.7200010  73.6846160
  59.9218600 121.2202250  75.0229730  65.4553470 107.2922420  68.4450570
  65.1426130 107.3849250  69.3449640  66.2165940 107.8703450  68.3948000
  51.9735610 114.6582220  72.9027910  51.8533210 115.3844310  72.2909180
  51.6636500 113.8885130  72.4255820  67.4097500 122.7848610  86.2974960
  67.8857220 123.2631500  86.9764040  68.0304660 122.7166100  85.5720460
  49.6120980 117.8297360  78.7096550  49.6901400 117.9646130  77.7652270
  50.2262660 117.1213250  78.9024670  50.8568610 119.5297550  75.1202730
  50.4496690 119.6712140  74.2656330  51.7481620 119.2457710  74.9173940
  66.8130750 119.9761460  83.4574970  66.9393810 119.7373340  82.5392150
  66.8552130 119.1446000  83.9297050  55.1290270 123.7443330  73.2325400
  54.9532750 122.8278870  73.0193200  54.2746010 124.1030620  73.4723200
  66.6654760 112.0293920  84.4224710  66.0499030 112.5373590  83.8940170
  66.3451180 111.1292250  84.3650650  49.6680500 118.8711530  81.2491010
  49.8311540 118.4016890  80.4310380  50.1332950 118.3635090  81.9139850
  54.4399270 108.0017290  76.2851580  53.9967420 108.7826830  75.9536100
  54.9984260 108.3247180  76.9922520  63.7273590 112.0894760  83.0183560
  62.8767180 111.7900510  83.3392630  63.5675380 112.3336770  82.1067380
  60.8223300 113.5896510  85.1182350  61.1476710 112.7560260  84.7784580
  61.6103630 114.1125030  85.2660680  57.5558090 107.6227990  71.1657410
  56.9312270 107.6187860  71.8910720  57.4688210 106.7558950  70.7693380
  56.4775170 108.5464620  78.1441180  56.7747500 109.4527450  78.0633200
  57.0260730 108.0583400  77.5300750  54.2313490 113.1250860  74.0132830
  54.0054410 112.9088030  74.9179450  53.4506020 113.5579320  73.6678800
  60.0676120 111.7677770  74.6426760  60.4605690 112.0849970  73.8295450
  60.4292970 110.8889650  74.7571280  49.2910520 112.2998690  68.0759680
  49.2085190 113.2429450  68.2174670  48.9393580 112.1573600  67.1972030
  60.6531260 114.3583520  78.7377540  59.9212380 114.8670330  79.0867640
  60.2555600 113.5413500  78.4366320  57.0908650 111.0337720  77.1430030
  57.0944710 110.5927670  76.2934570  57.9859770 111.3555050  77.2501850
  52.9411030 110.9164210  76.1024240  52.6011080 111.3939440  76.8591290
  52.1788350 110.4629330  75.7425340  57.1528800 112.0349800  70.1336790
  57.2741620 111.9936280  71.0822610  56.7677310 112.8973950  69.9783520
  61.1157170 109.8117200  78.1500480  61.1329910 110.2625850  78.9942330
  60.8672750 108.9122840  78.3633920  56.1650300 114.3450940  69.5320090
  55.5967200 113.8969190  68.9056000  56.8739300 114.7043720  68.9985240
  64.5427920 107.2249380  83.9886860  64.8673690 106.4939040  84.5144840
  64.5784430 106.9063020  83.0867850  57.3916620 115.0939500  78.8895440
  57.7586750 114.6198070  79.6356780  57.2021680 115.9681070  79.2303780
  50.2557110 109.8383190  75.0188910  49.9704030 109.4738860  75.8567530
  50.1935970 109.1063650  74.4052050  53.7097780 118.3409130  71.8046500
  52.9360040 117.8006750  71.6445220  54.4392410 117.8215740  71.4664260
  64.4685760 117.3374490  77.5972890  65.1884880 117.8329780  77.2069000
  64.2667580 116.6592380  76.9526760  59.9295700 108.7312450  71.7402280
  59.1160310 108.2325620  71.6647590  59.7357650 109.5710700  71.3238630
  53.7535180 118.0089510  75.4425310  54.2713850 117.2057770  75.3882200
  53.3019200 117.9468650  76.2842140  65.9932500 116.8711460  82.5814270
  65.2680690 117.4640240  82.3843660  66.5207960 116.8635000  81.7827640
  61.5232090 118.5971630  76.0798120  61.8755910 117.9999760  75.4199490
  60.6394420 118.2715860  76.2506370  57.6095370 119.3569320  73.4868530
  58.2966500 119.9038530  73.8676120  56.8227790 119.9010050  73.5218140
  49.7487770 114.9742140  68.9785610  50.6182620 115.2566940  69.2621530
  49.2578090 115.7878010  68.8634420  56.9122580 116.3615350  73.0993890
  57.3685360 117.1720600  73.3254080  56.5610790 116.0438490  73.9312380
  60.4887270 119.8754040  79.0463640  61.1309500 119.1747200  79.1595810
  61.0136620 120.6552480  78.8660530  51.7334280 116.7915610  71.1067670
  51.1262230 117.5314510  71.1162970  52.2083630 116.8814970  70.2805870
  61.3067070 110.9566430  80.7824560  61.6747890 110.1361640  81.1104130
  60.4465270 111.0168320  81.1980210  64.6729100 109.9123370  71.5912120
  64.0442260 110.0169040  70.8770350  64.1781020 110.1320150  72.3806000
  56.6413130 112.1909320  73.0070000  55.9329280 112.6595660  73.4483610
  56.9257610 111.5331330  73.6415190  60.6728560 108.9159980  74.4465790
  60.5496340 108.9346110  73.4975300  61.6213120 108.9638920  74.5664190
  57.7605350 124.1515280  73.7193770  58.0146850 124.1136670  72.7973140
  56.8117830 124.0248610  73.7122020  54.8448150 110.4994400  70.3820710
  55.6938680 110.9364550  70.3160900  54.4779420 110.8114660  71.2092770
  65.4735920 109.8273980  81.8490920  64.9709520 110.5679380  82.1884730
  66.2892580 110.2157980  81.5327710  53.7439570 116.7526760  68.8556240
  54.5102840 116.6408120  69.4181670  53.8214260 116.0564730  68.2033010
  52.4386330 114.1851830  69.5389130  52.5189920 113.2379340  69.6506530
  53.3306080 114.5158710  69.6449790  65.7683510 122.2416010  76.9706540
  65.8930930 123.0647180  77.4430350  66.6349070 122.0306740  76.6230690
  53.2401040 124.3347220  76.6423670  53.9763520 123.7862680  76.9132240
  53.6241960 125.2003230  76.5029660  50.1246520 120.4020790  72.5165180
  49.1986300 120.6441930  72.5070590  50.5902950 121.2295050  72.3949930
  64.1618420 119.1443070  84.8655840  64.9027890 119.4818830  84.3623300
  63.3991100 119.3135130  84.3125610  55.7758600 116.7491890  70.8298880
  56.1975020 116.5831760  71.6730270  55.9009440 115.9392120  70.3354020
  58.2886240 115.7729500  68.0775980  58.8091900 115.0578520  67.7117130
  58.9354640 116.4115370  68.3776490  62.8364080 117.1957900  83.4011050
  63.2505100 117.3502980  84.2501470  61.9015080 117.3213120  83.5636830
  63.3086250 114.5354060  85.4050200  63.8907020 113.7806380  85.3170680
  63.4848020 115.0661500  84.6281680  57.1919760 108.2524050  80.7494540
  56.7437060 108.2748310  79.9040090  56.5584960 107.8543070  81.3464840
  59.9343210 114.8794560  82.7544820  60.0539420 114.2835700  83.4939660
  60.7937210 114.9164250  82.3346120  62.2731110 115.4331750  81.3307330
  61.7466330 115.9574370  80.7272470  62.6162450 116.0659140  81.9617060
  54.6717500 112.8225120  67.7757040  54.4706560 111.9592480  68.1370380
  54.5009550 112.7358480  66.8378640  61.5205410 111.0381720  84.2453660
  60.8320930 110.3763260  84.1803650  62.2411430 110.5919990  84.6902120
  62.1505810 107.6333350  70.3043920  62.4308100 106.7901250  70.6603340
  61.3771540 107.8656460  70.8182670  53.4700300 109.9225740  67.7634920
  53.7726200 109.9293170  66.8554070  54.2094890 109.5723600  68.2602580
  52.4930430 119.2268160  68.5964720  52.9305300 119.7697830  69.2522300
  52.9778160 118.4015110  68.6061060  49.7076230 122.0157190  76.0484980
  50.0379240 121.1478250  75.8163620  50.1367230 122.2215710  76.8789940
  54.3038150 120.3466200  73.7086950  54.0033690 120.2231170  74.6090860
  54.1975640 119.4874790  73.3002680  50.1966440 122.8827780  78.7866610
  49.7597430 123.0628580  79.6190760  50.7644120 123.6402400  78.6448330
  65.8328620 122.3844780  83.0743920  65.2330610 122.4437340  82.3307840
  65.9622520 121.4449760  83.2040770  67.0730070 120.1262600  68.4113630
  66.2423030 120.1939250  68.8820860  67.2501900 121.0166720  68.1080490
  50.0290870 115.3948010  75.1455490  49.3739710 115.1259650  74.5015190
  50.8668820 115.2852490  74.6957470  64.5180260 119.1096760  81.1720080
  63.7040100 119.5393920  81.4345870  64.9254460 119.7215170  80.5589130
  62.9781310 110.1889300  69.3673980  63.3966190 110.0020280  68.5270640
  62.6717370 109.3368350  69.6776910  65.8670660 114.2484960  82.6989300
  65.6356750 114.0197710  81.7987250  66.1275210 115.1684510  82.6534190
  64.3058730 109.4741390  85.4769000  65.1828910 109.4824790  85.8603000
  64.3179570 108.7372230  84.8661350  49.2428950 112.6046940  71.0880820
  48.3393030 112.8677140  70.9132480  49.7269570 112.8758110  70.3080780
  65.7522000 113.3270930  76.3657020  66.2759480 112.8333580  75.7347190
  66.3381420 113.4621290  77.1104590  65.9311720 113.4110800  79.8876570
  64.9814430 113.3774340  80.0021560  66.1124730 114.3210910  79.6526340
  51.7856160 111.6612480  68.9975200  52.4947860 111.2395700  68.5122480
  51.0696100 111.7287710  68.3658550  51.1222510 106.9658000  77.9400470
  51.7698700 106.4155380  77.4995630  51.5424350 107.2201150  78.7616280
  66.6709130 111.2205230  74.8387110  66.5608410 111.0661270  75.7769380
  67.4316720 110.6926170  74.5962520  65.0174850 107.1599360  81.2970110
  65.6547070 107.7733500  81.6629300  65.1649740 107.1960020  80.3519340
  67.5599400 109.0513150  68.0793250  68.4848710 108.9194330  67.8711540
  67.5375190 109.1305970  69.0329700  67.6337890 109.8223810  70.7049960
  66.8389390 109.7568930  71.2342870  67.8381170 110.7574450  70.6935310
  61.0253890 107.9695610  83.8437500  61.6394300 108.2874900  83.1818580
  61.5703450 107.4844200  84.4633360  67.4429070 123.8687240  81.2499340
  66.9487350 124.2656110  80.5326470  66.8342360 123.2436450  81.6436620
  61.7661930 106.5327750  80.1706790  60.8921770 106.8662860  79.9679720
  61.6572680 106.0600930  80.9958660  62.6733910 108.7398620  81.5548510
  62.3447270 107.9250380  81.1750240  63.6216210 108.6968430  81.4314200
  65.1268520 124.5110660  78.5286080  64.6671490 125.2626470  78.1544100
  64.4980980 123.7917130  78.4700880  58.2959740 123.7107390  78.5303190
  58.5837550 123.4561690  77.6536200  58.8082960 123.1584750  79.1208760
  59.5136750 107.4497590  79.1099700  58.7308540 107.9243090  79.3896460
  59.2199680 106.5452420  79.0012880  64.0657820 108.1520690  77.1548790
  64.5065910 108.0965790  76.3070390  63.7965410 109.0678700  77.2258970
  65.9296390 107.7835930  75.1657610  65.8684790 106.8397150  75.0188630
  66.7088420 107.8916020  75.7111070  50.2349140 123.9228290  74.1281560
  50.0671180 123.2898970  74.8263450  49.3683650 124.1287690  73.7775750
  57.3990970 109.8684340  74.6215730  56.5865480 109.4941230  74.2811610
  57.9032610 109.1129420  74.9236920  61.9015950 106.5326790  75.8598800
  62.5045320 107.1047000  76.3347320  61.1608940 107.0966230  75.6372700
  65.0450550 106.9348350  71.1339080  65.2401180 107.8331800  71.4006510
  64.2580420 106.7035430  71.6272030  51.8411840 122.6161520  71.5731700
  51.3159460 122.9969550  70.8693660  51.7656420 123.2412290  72.2941410
  53.6019600 120.6808630  70.4527280  52.9728480 121.1493730  71.0013110
  53.7167430 119.8357850  70.8873470  62.1511170 106.7121820  86.2393740
  62.0376620 107.0316430  87.1345260  62.9680910 107.1134330  85.9431020
  61.0569320 114.7314290  56.6028480  60.9763370 113.8168900  56.3320190
  60.6433740 115.2281360  55.8968190  59.1887360 116.5093310  58.4837750
  58.4129460 116.0293750  58.7736320  59.8400290 115.8298960  58.3093910
  53.2053190 116.8213120  59.3613510  52.3738070 116.5661830  59.7610020
  53.8134170 116.8923890  60.0971430  63.2094790 120.9153500  57.2636880
  62.7476320 120.1440740  57.5924050  64.0220340 120.9419570  57.7689330
  51.6145140 111.7815010  53.1455900  50.7261840 112.1230980  53.0435780
  51.8986330 111.5815330  52.2536730  50.8203020 109.7905020  60.8164530
  50.6405860 108.8930770  61.0967290  50.4183100 110.3376890  61.4911480
  59.6601520 111.9920880  58.7176840  60.0366340 111.1192760  58.6050510
  59.5621030 112.3279580  57.8267280  53.7906530 110.3646510  54.1794280
  53.8973280 111.2650240  54.4863040  52.8798890 110.3164480  53.8888930
  51.4389690 112.2865520  59.4246870  52.1199800 112.5503890  60.0434270
  51.1237740 111.4466390  59.7584880  55.6314260 113.3332880  58.5119460
  56.1392480 113.8313850  59.1524480  56.1627500 112.5568080  58.3358820
  67.7325190 111.5038070  62.2148810  67.0277360 111.8919780  61.6963920
  67.9983110 112.1988360  62.8169740  53.9150360 107.9731440  62.7782880
  53.9168800 108.4903830  61.9728780  53.0854670 107.4961620  62.7552810
  60.3021450 118.0850750  54.2772780  59.6838720 118.5500200  53.7135500
  60.8144700 118.7778230  54.6942290  55.1653210 117.6126620  60.9556380
  54.8322590 118.2395540  61.5977450  55.3419890 118.1388500  60.1758050
  63.6787120 111.4271700  58.4232720  62.9742690 111.7156590  59.0035830
  64.0399280 112.2371810  58.0632280  53.5965690 109.6841400  60.7853330
  53.9382500 110.5283450  60.4907200  52.6581500 109.8325140  60.9018670
  54.3772310 119.5807420  62.7705560  54.9946310 120.2558500  62.4890010
  53.5165430 119.9895400  62.6793060  49.6704650 118.7707280  51.6512410
  49.2932630 119.2594380  50.9197310  49.9277720 119.4432560  52.2818940
  65.2949900 121.0446830  60.6860200  64.6113420 121.7145940  60.6776870
  65.8344190 121.2427480  59.9205060  66.7474040 110.8726490  58.8141930
  65.7998950 110.9065470  58.9457360  67.0724030 111.6865440  59.1991290
  57.2793580 107.1723670  57.1097920  57.5868560 106.6170560  56.3933420
  56.3494280 107.3068130  56.9270910  62.8308640 122.8890960  59.4005380
  62.8435800 122.4853250  58.5327640  62.2783860 123.6638250  59.2966810
  64.1254060 119.6107180  54.4895550  64.0150390 118.6681510  54.6144970
  64.1222310 119.9722820  55.3758310  59.6674340 115.2372500  53.8458040
  58.7403620 115.1709880  54.0746510  59.8199160 116.1752630  53.7313280
  59.6543420 111.5089500  50.8425200  58.7147090 111.6703460  50.9277660
  59.9726680 112.2275180  50.2961190  66.1756180 116.1908020  60.8204230
  65.3474810 116.2601110  60.3454360  66.7706660 116.7762330  60.3520060
  63.6971630 116.7992800  54.3493290  63.0784050 116.4612350  53.7019590
  63.6796080 116.1552560  55.0572480  55.2730980 115.7637240  56.6277770
  54.8687980 115.0514490  56.1323670  55.3594100 115.4190480  57.5165810
  53.9859600 112.5380450  60.4076810  54.5374190 112.6475790  59.6330060
  54.5003110 112.9118050  61.1232040  63.8298290 123.0236670  62.4540080
  63.3528850 123.8308860  62.2612690  63.1460080 122.3715000  62.6066290
  54.8331110 119.1886490  65.4424780  53.9359640 119.4126460  65.6898180
  54.8583980 119.3121430  64.4936180  61.8736330 116.0379610  51.3566040
  62.3129610 115.2002040  51.2103860  62.5864750 116.6709010  51.4430180
  53.6602330 116.0599810  64.0182150  53.5210100 116.9322610  64.3869550
  52.7783690 115.7172620  63.8730090  55.4582680 122.0021510  66.2267300
  55.4298110 122.4064460  65.3595730  55.2947650 121.0731870  66.0638900
  51.9735610 114.6582220  54.1284420  51.8533210 115.3844310  53.5165690
  51.6636500 113.8885130  53.6512330  67.4097500 122.7848610  67.5231470
  67.8857220 123.2631500  68.2020550  68.0304660 122.7166100  66.7976970
  66.8130750 119.9761460  64.6831480  66.9393810 119.7373340  63.7648660
  66.8552130 119.1446000  65.1553560  60.6747490 123.6789460  63.2526290
  61.1892160 123.5897470  64.0548720  59.8316570 124.0249160  63.5454200
  62.6501890 123.9644800  52.6810290  62.4903030 123.6747740  53.5792120
  62.4848600 123.1884930  52.1455520  55.1290270 123.7443330  54.4581910
  54.9532750 122.8278870  54.2449710  54.2746010 124.1030620  54.6979710
  61.9177950 123.0995070  55.3156780  62.3734900 122.3184450  55.6295400
  62.2570470 123.8101890  55.8597960  66.6654760 112.0293920  65.6481220
  66.0499030 112.5373590  65.1196680  66.3451180 111.1292250  65.5907160
  54.4399270 108.0017290  57.5108090  53.9967420 108.7826830  57.1792610
  54.9984260 108.3247180  58.2179030  57.5558090 107.6227990  52.3913920
  56.9312270 107.6187860  53.1167230  57.4688210 106.7558950  51.9949890
  56.4775170 108.5464620  59.3697690  56.7747500 109.4527450  59.2889710
  57.0260730 108.0583400  58.7557260  54.2313490 113.1250860  55.2389340
  54.0054410 112.9088030  56.1435960  53.4506020 113.5579320  54.8935310
  60.0676120 111.7677770  55.8683270  60.4605690 112.0849970  55.0551960
  60.4292970 110.8889650  55.9827790  51.8023240 110.4350110  64.0583390
  51.4086630 111.2825320  64.2656170  51.1141640 109.7976480  64.2492030
  58.3768290 110.5185080  67.1280130  57.6866610 110.3257280  67.7626220
  59.1200590 110.8019720  67.6604430  49.1040290 108.3578570  58.0913470
  48.8153340 108.9281430  58.8038450  49.8486050 107.8783020  58.4544700
  49.2910520 112.2998690  49.3016190  49.2085190 113.2429450  49.4431180
  48.9393580 112.1573600  48.4228540  57.0908650 111.0337720  58.3686540
  57.0944710 110.5927670  57.5191080  57.9859770 111.3555050  58.4758360
  52.9411030 110.9164210  57.3280750  52.6011080 111.3939440  58.0847800
  52.1788350 110.4629330  56.9681850  57.1528800 112.0349800  51.3593300
  57.2741620 111.9936280  52.3079120  56.7677310 112.8973950  51.2040030
  61.1157170 109.8117200  59.3756990  61.1329910 110.2625850  60.2198840
  60.8672750 108.9122840  59.5890430  56.1650300 114.3450940  50.7576600
  55.5967200 113.8969190  50.1312510  56.8739300 114.7043720  50.2241750
  64.5427920 107.2249380  65.2143370  64.8673690 106.4939040  65.7401350
  64.5784430 106.9063020  64.3124360  51.2419480 118.2462960  64.6343330
  50.8574270 117.6056630  65.2326290  51.5531670 118.9499080  65.2038060
  50.2557110 109.8383190  56.2445420  49.9704030 109.4738860  57.0824040
  50.1935970 109.1063650  55.6308560  55.1815990 114.1348140  62.4336160
  54.8773060 115.0140120  62.6586520  56.1362450 114.1947930  62.4693600
  53.7097780 118.3409130  53.0303010  52.9360040 117.8006750  52.8701730
  54.4392410 117.8215740  52.6920770  64.4685760 117.3374490  58.8229400
  65.1884880 117.8329780  58.4325510  64.2667580 116.6592380  58.1783270
  59.9295700 108.7312450  52.9658790  59.1160310 108.2325620  52.8904100
  59.7357650 109.5710700  52.5495140  54.4392840 115.4335120  66.4647070
  54.1392980 115.5792300  65.5674890  55.2104080 114.8740410  66.3720460
  61.5232090 118.5971630  57.3054630  61.8755910 117.9999760  56.6456000
  60.6394420 118.2715860  57.4762880  49.7487770 114.9742140  50.2042120
  50.6182620 115.2566940  50.4878040  49.2578090 115.7878010  50.0890930
  56.9122580 116.3615350  54.3250400  57.3685360 117.1720600  54.5510590
  56.5610790 116.0438490  55.1568890  52.8134360 106.7053000  54.7972920
  52.6848990 106.6970900  55.7457840  51.9896380 107.0436090  54.4463930
  60.4887270 119.8754040  60.2720150  61.1309500 119.1747200  60.3852320
  61.0136620 120.6552480  60.0917040  50.1159020 124.1869520  50.7703750
  50.4756660 124.7858860  50.1161020  49.9751360 124.7329410  51.5438780
  49.8128290 108.4644120  64.2579620  49.0986810 108.6641040  64.8632230
  50.2323330 107.6883690  64.6294420  50.1000880 122.4524380  65.2446150
  50.2092000 121.5119120  65.1041540  49.4481440 122.7179130  64.5959880
  51.7334280 116.7915610  52.3324180  51.1262230 117.5314510  52.3419480
  52.2083630 116.8814970  51.5062380  56.6413130 112.1909320  54.2326510
  55.9329280 112.6595660  54.6740120  56.9257610 111.5331330  54.8671700
  60.6728560 108.9159980  55.6722300  60.5496340 108.9346110  54.7231810
  61.6213120 108.9638920  55.7920700  54.8448150 110.4994400  51.6077220
  55.6938680 110.9364550  51.5417410  54.4779420 110.8114660  52.4349280
  65.4735920 109.8273980  63.0747430  64.9709520 110.5679380  63.4141240
  66.2892580 110.2157980  62.7584220  63.7657930 115.0707160  56.5208790
  62.8248070 115.0857390  56.6956480  64.0802000 114.2843120  56.9669090
  52.4386330 114.1851830  50.7645640  52.5189920 113.2379340  50.8763040
  53.3306080 114.5158710  50.8706300  65.7683510 122.2416010  58.1963050
  65.8930930 123.0647180  58.6686860  66.6349070 122.0306740  57.8487200
  52.2459320 123.5193290  67.0565760  53.0472050 123.8405340  67.4701160
  51.7311140 123.1588870  67.7785670  49.9657130 116.0066750  66.0001810
  50.4696150 115.4274030  66.5718040  49.2264550 116.2906980  66.5378180
  64.1618420 119.1443070  66.0912350  64.9027890 119.4818830  65.5879810
  63.3991100 119.3135130  65.5382120  51.9980210 114.1496340  66.8951880
  52.0385550 113.8510210  67.8037110  52.8525710 114.5503950  66.7359400
  53.9386020 112.7288440  64.8626370  53.4082480 112.2379390  64.2349710
  54.6074090 113.1572640  64.3284300  54.4258320 109.6950810  64.9423660
  54.3315190 109.0771560  64.2174530  53.8455710 110.4217100  64.7153570
  57.1919760 108.2524050  61.9751050  56.7437060 108.2748310  61.1296600
  56.5584960 107.8543070  62.5721350  54.6717500 112.8225120  49.0013550
  54.4706560 111.9592480  49.3626890  54.5009550 112.7358480  48.0635150
  55.4486730 123.4531390  63.7121220  54.9107820 124.1777450  63.3929920
  55.7020690 122.9761730  62.9218560  56.7011980 111.4215910  65.2377150
  57.2911670 111.1131760  65.9254970  55.8832220 110.9495660  65.3937050
  61.5205410 111.0381720  65.4710170  60.8320930 110.3763260  65.4060160
  62.2411430 110.5919990  65.9158630  62.1505810 107.6333350  51.5300430
  62.4308100 106.7901250  51.8859850  61.3771540 107.8656460  52.0439180
  53.4700300 109.9225740  48.9891430  53.7726200 109.9293170  48.0810580
  54.2094890 109.5723600  49.4859090  58.3048940 124.6882600  63.9707870
  58.2307640 125.5917740  64.2780240  57.4027780 124.3694500  63.9429940
  56.6885230 108.8660360  49.9747630  56.3407230 108.1884350  49.3950080
  56.8898000 108.4049870  50.7891020  58.8534270 123.8541110  51.5934230
  59.7485060 124.1926080  51.6152990  58.8851900 123.1320520  50.9658510
  52.4930430 119.2268160  49.8221230  52.9305300 119.7697830  50.4778810
  52.9778160 118.4015110  49.8317570  65.8328620 122.3844780  64.3000430
  65.2330610 122.4437340  63.5564350  65.9622520 121.4449760  64.4297280
  50.0290870 115.3948010  56.3712000  49.3739710 115.1259650  55.7271700
  50.8668820 115.2852490  55.9213980  67.5346500 117.7260180  56.9846270
  67.9055330 116.9427500  56.5782240  68.1748430 118.4149280  56.8063570
  50.6182800 112.6909670  64.8173760  49.7238850 112.6576430  65.1567470
  51.1580350 112.8896460  65.5825010  64.3058730 109.4741390  66.7025510
  65.1828910 109.4824790  67.0859510  64.3179570 108.7372230  66.0917860
  65.7522000 113.3270930  57.5913530  66.2759480 112.8333580  56.9603700
  66.3381420 113.4621290  58.3361100  65.9311720 113.4110800  61.1133080
  64.9814430 113.3774340  61.2278070  66.1124730 114.3210910  60.8782850
  51.7856160 111.6612480  50.2231710  52.4947860 111.2395700  49.7378990
  51.0696100 111.7287710  49.5915060  51.4330320 107.7151810  49.2634360
  52.1558450 108.2560750  49.5815580  51.7054840 107.4415230  48.3875900
  51.1222510 106.9658000  59.1656980  51.7698700 106.4155380  58.7252140
  51.5424350 107.2201150  59.9872790  65.0174850 107.1599360  62.5226620
  65.6547070 107.7733500  62.8885810  65.1649740 107.1960020  61.5775850
  64.5756310 123.8615360  55.9244860  65.1715380 123.5399930  55.2479280
  64.8334460 123.3887180  56.7158130  50.8754510 107.1213670  61.9082300
  50.5269330 107.5777490  62.6740480  50.5442210 106.2270800  61.9904730
  52.4818880 120.2933270  66.0735490  52.4388510 119.9226180  66.9549950
  52.6129890 121.2310840  66.2137310  58.3879330 108.3125550  65.4301720
  58.3268220 108.9047380  66.1797130  59.3279710 108.2051510  65.2851980
  61.0253890 107.9695610  65.0694010  61.6394300 108.2874900  64.4075090
  61.5703450 107.4844200  65.6889870  67.4429070 123.8687240  62.4755850
  66.9487350 124.2656110  61.7582980  66.8342360 123.2436450  62.8693130
  52.3206910 123.2395520  63.1933270  51.7267230 123.1080220  63.9323310
  52.3130750 122.4033660  62.7275370  61.7661930 106.5327750  61.3963300
  60.8921770 106.8662860  61.1936230  61.6572680 106.0600930  62.2215170
  62.6733910 108.7398620  62.7805020  62.3447270 107.9250380  62.4006750
  63.6216210 108.6968430  62.6570710  65.1268520 124.5110660  59.7542590
  64.6671490 125.2626470  59.3800610  64.4980980 123.7917130  59.6957390
  51.9519140 120.6053900  62.1441310  51.2253200 119.9859190  62.0767260
  52.0128290 120.9994510  61.2739390  59.5136750 107.4497590  60.3356210
  58.7308540 107.9243090  60.6152970  59.2199680 106.5452420  60.2269390
  64.0657820 108.1520690  58.3805300  64.5065910 108.0965790  57.5326900
  63.7965410 109.0678700  58.4515480  65.9296390 107.7835930  56.3914120
  65.8684790 106.8397150  56.2445140  66.7088420 107.8916020  56.9367580
  57.3990970 109.8684340  55.8472240  56.5865480 109.4941230  55.5068120
  57.9032610 109.1129420  56.1493430  61.9015950 106.5326790  57.0855310
  62.5045320 107.1047000  57.5603830  61.1608940 107.0966230  56.8629210
  53.2302310 108.2809120  51.3971900  53.7595070 107.4938920  51.2679850
  53.8630630 108.9600310  51.6307430  55.4240150 108.0184260  54.4517290
  54.7942890 107.3171570  54.6187420  54.8845290 108.7788390  54.2350450
  66.5977160 124.1749060  54.1202150  66.7729350 123.4886800  53.4763070
  65.8998730 124.6996110  53.7278820  54.4404810 124.5643900  51.6737460
  55.1723630 124.2803180  51.1261350  54.6998480 124.3257180  52.5636840
  53.6019600 120.6808630  51.6783790  52.9728480 121.1493730  52.2269620
  53.7167430 119.8357850  52.1129980  62.1511170 106.7121820  67.4650250
  62.0376620 107.0316430  68.3601770  62.9680910 107.1134330  67.1687530
  64.9309660 123.8593350  66.9468940  65.7234980 123.3642580  66.7394900
  65.2242810 124.5383490  67.5544550  61.0569320 114.7314290  37.8284990
  60.9763370 113.8168900  37.5576700  60.6433740 115.2281360  37.1224700
  59.1887360 116.5093310  39.7094260  58.4129460 116.0293750  39.9992830
  59.8400290 115.8298960  39.5350420  53.2053190 116.8213120  40.5870020
  52.3738070 116.5661830  40.9866530  53.8134170 116.8923890  41.3227940
  63.2094790 120.9153500  38.4893390  62.7476320 120.1440740  38.8180560
  64.0220340 120.9419570  38.9945840  51.6145140 111.7815010  34.3712410
  50.7261840 112.1230980  34.2692290  51.8986330 111.5815330  33.4793240
  59.4358100 123.2011510  38.1097380  58.8169540 123.6569010  37.5391820
  60.2909880 123.3562970  37.7087080  58.6296350 119.1850500  39.7164420
  58.5604630 118.2440440  39.5553550  59.3916210 119.2751910  40.2886990
  63.4425640 109.4871320  36.8761690  64.2635260 108.9967890  36.9187170
  63.4759720 110.0768980  37.6293530  67.7325190 111.5038070  43.4405320
  67.0277360 111.8919780  42.9220430  67.9983110 112.1988360  44.0426250
  60.3021450 118.0850750  35.5029290  59.6838720 118.5500200  34.9392010
  60.8144700 118.7778230  35.9198800  55.1653210 117.6126620  42.1812890
  54.8322590 118.2395540  42.8233960  55.3419890 118.1388500  41.4014560
  63.6787120 111.4271700  39.6489230  62.9742690 111.7156590  40.2292340
  64.0399280 112.2371810  39.2888790  54.3772310 119.5807420  43.9962070
  54.9946310 120.2558500  43.7146520  53.5165430 119.9895400  43.9049570
  49.6704650 118.7707280  32.8768920  49.2932630 119.2594380  32.1453820
  49.9277720 119.4432560  33.5075450  66.7474040 110.8726490  40.0398440
  65.7998950 110.9065470  40.1713870  67.0724030 111.6865440  40.4247800
  64.1254060 119.6107180  35.7152060  64.0150390 118.6681510  35.8401480
  64.1222310 119.9722820  36.6014820  59.6674340 115.2372500  35.0714550
  58.7403620 115.1709880  35.3003020  59.8199160 116.1752630  34.9569790
  59.6543420 111.5089500  32.0681710  58.7147090 111.6703460  32.1534170
  59.9726680 112.2275180  31.5217700  66.1756180 116.1908020  42.0460740
  65.3474810 116.2601110  41.5710870  66.7706660 116.7762330  41.5776570
  63.6971630 116.7992800  35.5749800  63.0784050 116.4612350  34.9276100
  63.6796080 116.1552560  36.2828990  63.1398190 112.9777340  42.9915610
  62.7269370 113.8031050  43.2455600  62.4074140 112.3922380  42.7991970
  55.2730980 115.7637240  37.8534280  54.8687980 115.0514490  37.3580180
  55.3594100 115.4190480  38.7422320  55.7412680 119.4504800  40.0173490
  55.4440970 118.8450270  39.3381270  56.6912500 119.4882110  39.9062850
  61.8736330 116.0379610  32.5822550  62.3129610 115.2002040  32.4360370
  62.5864750 116.6709010  32.6686690  53.6602330 116.0599810  45.2438660
  53.5210100 116.9322610  45.6126060  52.7783690 115.7172620  45.0986600
  59.9831710 120.9775680  36.5503790  60.4227620 121.7200010  36.1359180
  59.9218600 121.2202250  37.4742750  65.4553470 107.2922420  30.8963590
  65.1426130 107.3849250  31.7962660  66.2165940 107.8703450  30.8461020
  51.9735610 114.6582220  35.3540930  51.8533210 115.3844310  34.7422200
  51.6636500 113.8885130  34.8768840  49.6120980 117.8297360  41.1609570
  49.6901400 117.9646130  40.2165290  50.2262660 117.1213250  41.3537690
  50.8568610 119.5297550  37.5715750  50.4496690 119.6712140  36.7169350
  51.7481620 119.2457710  37.3686960  62.6501890 123.9644800  33.9066800
  62.4903030 123.6747740  34.8048630  62.4848600 123.1884930  33.3712030
  55.1290270 123.7443330  35.6838420  54.9532750 122.8278870  35.4706220
  54.2746010 124.1030620  35.9236220  62.3528020 121.4732360  32.4664800
  61.6593180 121.4709650  31.8067080  63.0950880 121.0491680  32.0358970
  61.9177950 123.0995070  36.5413290  62.3734900 122.3184450  36.8551910
  62.2570470 123.8101890  37.0854470  63.7273590 112.0894760  45.4696580
  62.8767180 111.7900510  45.7905650  63.5675380 112.3336770  44.5580400
  60.8223300 113.5896510  47.5695370  61.1476710 112.7560260  47.2297600
  61.6103630 114.1125030  47.7173700  57.5558090 107.6227990  33.6170430
  56.9312270 107.6187860  34.3423740  57.4688210 106.7558950  33.2206400
  54.2313490 113.1250860  36.4645850  54.0054410 112.9088030  37.3692470
  53.4506020 113.5579320  36.1191820  61.4611250 113.1314230  35.0636500
  60.8620140 113.8550030  34.8800120  62.0090860 113.0691010  34.2812950
  58.3768290 110.5185080  48.3536640  57.6866610 110.3257280  48.9882730
  59.1200590 110.8019720  48.8860940  49.2910520 112.2998690  30.5272700
  49.2085190 113.2429450  30.6687690  48.9393580 112.1573600  29.6485050
  60.6531260 114.3583520  41.1890560  59.9212380 114.8670330  41.5380660
  60.2555600 113.5413500  40.8879340  57.1528800 112.0349800  32.5849810
  57.2741620 111.9936280  33.5335630  56.7677310 112.8973950  32.4296540
  56.1650300 114.3450940  31.9833110  55.5967200 113.8969190  31.3569020
  56.8739300 114.7043720  31.4498260  64.5427920 107.2249380  46.4399880
  64.8673690 106.4939040  46.9657860  64.5784430 106.9063020  45.5380870
  51.2419480 118.2462960  45.8599840  50.8574270 117.6056630  46.4582800
  51.5531670 118.9499080  46.4294570  57.3916620 115.0939500  41.3408460
  57.7586750 114.6198070  42.0869800  57.2021680 115.9681070  41.6816800
  55.1815990 114.1348140  43.6592670  54.8773060 115.0140120  43.8843030
  56.1362450 114.1947930  43.6950110  53.7097780 118.3409130  34.2559520
  52.9360040 117.8006750  34.0958240  54.4392410 117.8215740  33.9177280
  64.4685760 117.3374490  40.0485910  65.1884880 117.8329780  39.6582020
  64.2667580 116.6592380  39.4039780  59.9295700 108.7312450  34.1915300
  59.1160310 108.2325620  34.1160610  59.7357650 109.5710700  33.7751650
  62.6444090 113.1032100  32.4877460  63.5323710 113.4149330  32.3128800
  62.6149180 112.2304350  32.0958040  53.7535180 118.0089510  37.8938330
  54.2713850 117.2057770  37.8395220  53.3019200 117.9468650  38.7355160
  58.6404680 119.2755790  33.1665630  58.9820380 120.0198020  32.6708950
  57.8117390 119.5886910  33.5290460  64.9158360 114.4143940  31.9557320
  64.8322080 114.8458160  31.1053760  65.6352550 114.8742290  32.3884140
  65.9445610 121.2686200  34.6839450  65.3021770 120.6141820  34.9583170
  65.5576270 121.6741290  33.9080120  61.5232090 118.5971630  38.5311140
  61.8755910 117.9999760  37.8712510  60.6394420 118.2715860  38.7019390
  57.6095370 119.3569320  35.9381550  58.2966500 119.9038530  36.3189140
  56.8227790 119.9010050  35.9731160  49.7487770 114.9742140  31.4298630
  50.6182620 115.2566940  31.7134550  49.2578090 115.7878010  31.3147440
  56.9122580 116.3615350  35.5506910  57.3685360 117.1720600  35.7767100
  56.5610790 116.0438490  36.3825400  64.3342990 120.1602660  31.2215800
  64.1080570 119.4433100  31.8140440  63.9439190 119.9115100  30.3837550
  50.1159020 124.1869520  31.9960260  50.4756660 124.7858860  31.3417530
  49.9751360 124.7329410  32.7695290  63.9159240 118.0774600  32.8829960
  63.6280940 118.5387290  33.6707840  64.7111410 117.6172370  33.1514180
  56.1327640 121.5700720  32.8133930  56.1237740 122.3030410  32.1978440
  55.2126000 121.3232300  32.9060890  51.7334280 116.7915610  33.5580690
  51.1262230 117.5314510  33.5675990  52.2083630 116.8814970  32.7318890
  64.6729100 109.9123370  34.0425140  64.0442260 110.0169040  33.3283370
  64.1781020 110.1320150  34.8319020  59.1187240 121.6328960  31.4759120
  59.2199220 121.4292950  30.5461100  58.2188980 121.3787240  31.6806900
  56.6413130 112.1909320  35.4583020  55.9329280 112.6595660  35.8996630
  56.9257610 111.5331330  36.0928210  57.7605350 124.1515280  36.1706790
  58.0146850 124.1136670  35.2486160  56.8117830 124.0248610  36.1635040
  54.8448150 110.4994400  32.8333730  55.6938680 110.9364550  32.7673920
  54.4779420 110.8114660  33.6605790  65.4735920 109.8273980  44.3003940
  64.9709520 110.5679380  44.6397750  66.2892580 110.2157980  43.9840730
  63.7657930 115.0707160  37.7465300  62.8248070 115.0857390  37.9212990
  64.0802000 114.2843120  38.1925600  53.7439570 116.7526760  31.3069260
  54.5102840 116.6408120  31.8694690  53.8214260 116.0564730  30.6546030
  52.4386330 114.1851830  31.9902150  52.5189920 113.2379340  32.1019550
  53.3306080 114.5158710  32.0962810  65.7683510 122.2416010  39.4219560
  65.8930930 123.0647180  39.8943370  66.6349070 122.0306740  39.0743710
  53.2401040 124.3347220  39.0936690  53.9763520 123.7862680  39.3645260
  53.6241960 125.2003230  38.9542680  50.1246520 120.4020790  34.9678200
  49.1986300 120.6441930  34.9583610  50.5902950 121.2295050  34.8462950
  56.3503350 123.5077530  30.9162260  57.1431960 123.7966360  30.4644050
  55.8307700 123.0769700  30.2374740  65.4033520 122.7347660  32.3399000
  65.1175030 122.3212800  31.5253180  65.2053070 123.6635370  32.2199520
  56.8680750 118.7280940  30.7804610  56.7631390 118.1133290  31.5065990
  56.7004970 118.2046830  29.9967620  60.1083480 117.7900970  31.3846600
  59.5593580 118.2370270  32.0289340  60.7302740 117.2850220  31.9084270
  51.9980210 114.1496340  48.1208390  52.0385550 113.8510210  49.0293620
  52.8525710 114.5503950  47.9615910  55.7758600 116.7491890  33.2811900
  56.1975020 116.5831760  34.1243290  55.9009440 115.9392120  32.7867040
  53.9386020 112.7288440  46.0882880  53.4082480 112.2379390  45.4606220
  54.6074090 113.1572640  45.5540810  58.2886240 115.7729500  30.5289000
  58.8091900 115.0578520  30.1630150  58.9354640 116.4115370  30.8289510
  63.3086250 114.5354060  47.8563220  63.8907020 113.7806380  47.7683700
  63.4848020 115.0661500  47.0794700  54.4258320 109.6950810  46.1680170
  54.3315190 109.0771560  45.4431040  53.8455710 110.4217100  45.9410080
  59.9343210 114.8794560  45.2057840  60.0539420 114.2835700  45.9452680
  60.7937210 114.9164250  44.7859140  62.2731110 115.4331750  43.7820350
  61.7466330 115.9574370  43.1785490  62.6162450 116.0659140  44.4130080
  54.6717500 112.8225120  30.2270060  54.4706560 111.9592480  30.5883400
  54.5009550 112.7358480  29.2891660  56.7011980 111.4215910  46.4633660
  57.2911670 111.1131760  47.1511480  55.8832220 110.9495660  46.6193560
  61.5205410 111.0381720  46.6966680  60.8320930 110.3763260  46.6316670
  62.2411430 110.5919990  47.1415140  62.1505810 107.6333350  32.7556940
  62.4308100 106.7901250  33.1116360  61.3771540 107.8656460  33.2695690
  53.4700300 109.9225740  30.2147940  53.7726200 109.9293170  29.3067090
  54.2094890 109.5723600  30.7115600  56.6885230 108.8660360  31.2004140
  56.3407230 108.1884350  30.6206590  56.8898000 108.4049870  32.0147530
  58.8534270 123.8541110  32.8190740  59.7485060 124.1926080  32.8409500
  58.8851900 123.1320520  32.1915020  52.4930430 119.2268160  31.0477740
  52.9305300 119.7697830  31.7035320  52.9778160 118.4015110  31.0574080
  54.3038150 120.3466200  36.1599970  54.0033690 120.2231170  37.0603880
  54.1975640 119.4874790  35.7515700  67.0730070 120.1262600  30.8626650
  66.2423030 120.1939250  31.3333880  67.2501900 121.0166720  30.5593510
  66.5286530 116.8710080  33.3660850  67.2905440 117.4406730  33.4720540
  66.5440900 116.3037280  34.1369160  50.0290870 115.3948010  37.5968510
  49.3739710 115.1259650  36.9528210  50.8668820 115.2852490  37.1470490
  67.5346500 117.7260180  38.2102780  67.9055330 116.9427500  37.8038750
  68.1748430 118.4149280  38.0320080  66.5805700 117.1644450  30.5233370
  66.8554540 118.0723330  30.3952590  66.3916440 117.1006980  31.4595360
  62.9781310 110.1889300  31.8187000  63.3966190 110.0020280  30.9783660
  62.6717370 109.3368350  32.1289930  66.4771040 115.1013440  35.5162800
  66.1014640 114.3341370  35.0844090  65.7474160 115.4836140  36.0037730
  65.8670660 114.2484960  45.1502320  65.6356750 114.0197710  44.2500270
  66.1275210 115.1684510  45.1047210  49.2428950 112.6046940  33.5393840
  48.3393030 112.8677140  33.3645500  49.7269570 112.8758110  32.7593800
  65.7522000 113.3270930  38.8170040  66.2759480 112.8333580  38.1860210
  66.3381420 113.4621290  39.5617610  65.9311720 113.4110800  42.3389590
  64.9814430 113.3774340  42.4534580  66.1124730 114.3210910  42.1039360
  51.7856160 111.6612480  31.4488220  52.4947860 111.2395700  30.9635500
  51.0696100 111.7287710  30.8171570  51.4330320 107.7151810  30.4890870
  52.1558450 108.2560750  30.8072090  51.7054840 107.4415230  29.6132410
  65.2421970 112.5844280  34.7562450  65.7381090 112.3515150  35.5411330
  65.0438040 111.7456120  34.3400090  66.6709130 111.2205230  37.2900130
  66.5608410 111.0661270  38.2282400  67.4316720 110.6926170  37.0475540
  65.0174850 107.1599360  43.7483130  65.6547070 107.7733500  44.1142320
  65.1649740 107.1960020  42.8032360  67.6337890 109.8223810  33.1562980
  66.8389390 109.7568930  33.6855890  67.8381170 110.7574450  33.1448330
  64.5756310 123.8615360  37.1501370  65.1715380 123.5399930  36.4735790
  64.8334460 123.3887180  37.9414640  52.4818880 120.2933270  47.2992000
  52.4388510 119.9226180  48.1806460  52.6129890 121.2310840  47.4393820
  56.1824910 121.8492860  42.9001720  55.9416270 122.1167420  42.0132240
  57.1227550 122.0198590  42.9552580  58.3879330 108.3125550  46.6558230
  58.3268220 108.9047380  47.4053640  59.3279710 108.2051510  46.5108490
  61.0253890 107.9695610  46.2950520  61.6394300 108.2874900  45.6331600
  61.5703450 107.4844200  46.9146380  67.4429070 123.8687240  43.7012360
  66.9487350 124.2656110  42.9839490  66.8342360 123.2436450  44.0949640
  61.7661930 106.5327750  42.6219810  60.8921770 106.8662860  42.4192740
  61.6572680 106.0600930  43.4471680  62.6733910 108.7398620  44.0061530
  62.3447270 107.9250380  43.6263260  63.6216210 108.6968430  43.8827220
  65.1268520 124.5110660  40.9799100  64.6671490 125.2626470  40.6057120
  64.4980980 123.7917130  40.9213900  55.5564240 122.8198900  40.1547230
  56.0729260 122.2086260  39.6295490  56.2061620 123.3227680  40.6458240
  58.2959740 123.7107390  40.9816210  58.5837550 123.4561690  40.1049220
  58.8082960 123.1584750  41.5721780  64.0657820 108.1520690  39.6061810
  64.5065910 108.0965790  38.7583410  63.7965410 109.0678700  39.6771990
  65.9296390 107.7835930  37.6170630  65.8684790 106.8397150  37.4701650
  66.7088420 107.8916020  38.1624090  50.2349140 123.9228290  36.5794580
  50.0671180 123.2898970  37.2776470  49.3683650 124.1287690  36.2288770
  61.9015950 106.5326790  38.3111820  62.5045320 107.1047000  38.7860340
  61.1608940 107.0966230  38.0885720  65.0450550 106.9348350  33.5852100
  65.2401180 107.8331800  33.8519530  64.2580420 106.7035430  34.0785050
  51.8411840 122.6161520  34.0244720  51.3159460 122.9969550  33.3206680
  51.7656420 123.2412290  34.7454430  53.2302310 108.2809120  32.6228410
  53.7595070 107.4938920  32.4936360  53.8630630 108.9600310  32.8563940
  66.5977160 124.1749060  35.3458660  66.7729350 123.4886800  34.7019580
  65.8998730 124.6996110  34.9535330  55.5495710 107.2968240  48.1126290
  55.2679980 107.8001840  47.3487110  55.9315410 106.4989990  47.7468420
  54.4404810 124.5643900  32.8993970  55.1723630 124.2803180  32.3517860
  54.6998480 124.3257180  33.7893350  53.6019600 120.6808630  32.9040300
  52.9728480 121.1493730  33.4526130  53.7167430 119.8357850  33.3386490
  62.1511170 106.7121820  48.6906760  62.0376620 107.0316430  49.5858280
  62.9680910 107.1134330  48.3944040  61.0569320 114.7314290  19.0541500
  60.9763370 113.8168900  18.7833210  60.6433740 115.2281360  18.3481210
  59.1887360 116.5093310  20.9350770  58.4129460 116.0293750  21.2249340
  59.8400290 115.8298960  20.7606930  53.2053190 116.8213120  21.8126530
  52.3738070 116.5661830  22.2123040  53.8134170 116.8923890  22.5484450
  63.2094790 120.9153500  19.7149900  62.7476320 120.1440740  20.0437070
  64.0220340 120.9419570  20.2202350  53.1854450 120.8553210  22.0084550
  53.4882490 119.9650950  21.8294770  53.9298040 121.4123430  21.7806800
  51.6145140 111.7815010  15.5968920  50.7261840 112.1230980  15.4948800
  51.8986330 111.5815330  14.7049750  49.5778150 114.3820660  21.4808620
  50.1494260 113.6142860  21.4812260  49.5779690 114.6809420  20.5715230
  59.4358100 123.2011510  19.3353890  58.8169540 123.6569010  18.7648330
  60.2909880 123.3562970  18.9343590  58.6296350 119.1850500  20.9420930
  58.5604630 118.2440440  20.7810060  59.3916210 119.2751910  21.5143500
  50.8203020 109.7905020  23.2677550  50.6405860 108.8930770  23.5480310
  50.4183100 110.3376890  23.9424500  59.6601520 111.9920880  21.1689860
  60.0366340 111.1192760  21.0563530  59.5621030 112.3279580  20.2780300
  53.7906530 110.3646510  16.6307300  53.8973280 111.2650240  16.9376060
  52.8798890 110.3164480  16.3401950  63.4425640 109.4871320  18.1018200
  64.2635260 108.9967890  18.1443680  63.4759720 110.0768980  18.8550040
  51.4389690 112.2865520  21.8759890  52.1199800 112.5503890  22.4947290
  51.1237740 111.4466390  22.2097900  55.6314260 113.3332880  20.9632480
  56.1392480 113.8313850  21.6037500  56.1627500 112.5568080  20.7871840
  67.7325190 111.5038070  24.6661830  67.0277360 111.8919780  24.1476940
  67.9983110 112.1988360  25.2682760  60.3021450 118.0850750  16.7285800
  59.6838720 118.5500200  16.1648520  60.8144700 118.7778230  17.1455310
  55.1653210 117.6126620  23.4069400  54.8322590 118.2395540  24.0490470
  55.3419890 118.1388500  22.6271070  63.6787120 111.4271700  20.8745740
  62.9742690 111.7156590  21.4548850  64.0399280 112.2371810  20.5145300
  53.5965690 109.6841400  23.2366350  53.9382500 110.5283450  22.9420220
  52.6581500 109.8325140  23.3531690  54.3772310 119.5807420  25.2218580
  54.9946310 120.2558500  24.9403030  53.5165430 119.9895400  25.1306080
  49.6704650 118.7707280  14.1025430  49.2932630 119.2594380  13.3710330
  49.9277720 119.4432560  14.7331960  65.2949900 121.0446830  23.1373220
  64.6113420 121.7145940  23.1289890  65.8344190 121.2427480  22.3718080
  66.7474040 110.8726490  21.2654950  65.7998950 110.9065470  21.3970380
  67.0724030 111.6865440  21.6504310  57.2793580 107.1723670  19.5610940
  57.5868560 106.6170560  18.8446440  56.3494280 107.3068130  19.3783930
  62.8308640 122.8890960  21.8518400  62.8435800 122.4853250  20.9840660
  62.2783860 123.6638250  21.7479830  64.1254060 119.6107180  16.9408570
  64.0150390 118.6681510  17.0657990  64.1222310 119.9722820  17.8271330
  62.2294080 117.7920800  23.1801010  62.6462870 117.5780910  22.3454470
  62.9533900 118.0493590  23.7509630  59.6674340 115.2372500  16.2971060
  58.7403620 115.1709880  16.5259530  59.8199160 116.1752630  16.1826300
  59.6543420 111.5089500  13.2938220  58.7147090 111.6703460  13.3790680
  59.9726680 112.2275180  12.7474210  66.1756180 116.1908020  23.2717250
  65.3474810 116.2601110  22.7967380  66.7706660 116.7762330  22.8033080
  63.6971630 116.7992800  16.8006310  63.0784050 116.4612350  16.1532610
  63.6796080 116.1552560  17.5085500  63.1398190 112.9777340  24.2172120
  62.7269370 113.8031050  24.4712110  62.4074140 112.3922380  24.0248480
  55.2730980 115.7637240  19.0790790  54.8687980 115.0514490  18.5836690
  55.3594100 115.4190480  19.9678830  55.7412680 119.4504800  21.2430000
  55.4440970 118.8450270  20.5637780  56.6912500 119.4882110  21.1319360
  53.9859600 112.5380450  22.8589830  54.5374190 112.6475790  22.0843080
  54.5003110 112.9118050  23.5745060  63.8298290 123.0236670  24.9053100
  63.3528850 123.8308860  24.7125710  63.1460080 122.3715000  25.0579310
  54.8331110 119.1886490  27.8937800  53.9359640 119.4126460  28.1411200
  54.8583980 119.3121430  26.9449200  61.8736330 116.0379610  13.8079060
  62.3129610 115.2002040  13.6616880  62.5864750 116.6709010  13.8943200
  53.6602330 116.0599810  26.4695170  53.5210100 116.9322610  26.8382570
  52.7783690 115.7172620  26.3243110  59.9831710 120.9775680  17.7760300
  60.4227620 121.7200010  17.3615690  59.9218600 121.2202250  18.6999260
  55.4582680 122.0021510  28.6780320  55.4298110 122.4064460  27.8108750
  55.2947650 121.0731870  28.5151920  65.4553470 107.2922420  12.1220100
  65.1426130 107.3849250  13.0219170  66.2165940 107.8703450  12.0717530
  51.9735610 114.6582220  16.5797440  51.8533210 115.3844310  15.9678710
  51.6636500 113.8885130  16.1025350  67.4097500 122.7848610  29.9744490
  67.8857220 123.2631500  30.6533570  68.0304660 122.7166100  29.2489990
  49.6120980 117.8297360  22.3866080  49.6901400 117.9646130  21.4421800
  50.2262660 117.1213250  22.5794200  50.8568610 119.5297550  18.7972260
  50.4496690 119.6712140  17.9425860  51.7481620 119.2457710  18.5943470
  66.8130750 119.9761460  27.1344500  66.9393810 119.7373340  26.2161680
  66.8552130 119.1446000  27.6066580  60.6747490 123.6789460  25.7039310
  61.1892160 123.5897470  26.5061740  59.8316570 124.0249160  25.9967220
  62.6501890 123.9644800  15.1323310  62.4903030 123.6747740  16.0305140
  62.4848600 123.1884930  14.5968540  55.1290270 123.7443330  16.9094930
  54.9532750 122.8278870  16.6962730  54.2746010 124.1030620  17.1492730
  62.3528020 121.4732360  13.6921310  61.6593180 121.4709650  13.0323590
  63.0950880 121.0491680  13.2615480  61.9177950 123.0995070  17.7669800
  62.3734900 122.3184450  18.0808420  62.2570470 123.8101890  18.3110980
  66.6654760 112.0293920  28.0994240  66.0499030 112.5373590  27.5709700
  66.3451180 111.1292250  28.0420180  49.6680500 118.8711530  24.9260540
  49.8311540 118.4016890  24.1079910  50.1332950 118.3635090  25.5909380
  54.4399270 108.0017290  19.9621110  53.9967420 108.7826830  19.6305630
  54.9984260 108.3247180  20.6692050  58.7269080 110.8685810  25.5656430
  58.2648450 111.0768830  26.3776370  58.3247190 110.0545160  25.2627100
  63.7273590 112.0894760  26.6953090  62.8767180 111.7900510  27.0162160
  63.5675380 112.3336770  25.7836910  60.8223300 113.5896510  28.7951880
  61.1476710 112.7560260  28.4554110  61.6103630 114.1125030  28.9430210
  57.5558090 107.6227990  14.8426940  56.9312270 107.6187860  15.5680250
  57.4688210 106.7558950  14.4462910  56.4775170 108.5464620  21.8210710
  56.7747500 109.4527450  21.7402730  57.0260730 108.0583400  21.2070280
  54.2313490 113.1250860  17.6902360  54.0054410 112.9088030  18.5948980
  53.4506020 113.5579320  17.3448330  61.4611250 113.1314230  16.2893010
  60.8620140 113.8550030  16.1056630  62.0090860 113.0691010  15.5069460
  56.6712700 114.0236440  28.3562630  56.5756300 113.0831170  28.2063030
  57.5144680 114.2451510  27.9610700  60.0676120 111.7677770  18.3196290
  60.4605690 112.0849970  17.5064980  60.4292970 110.8889650  18.4340810
  51.8023240 110.4350110  26.5096410  51.4086630 111.2825320  26.7169190
  51.1141640 109.7976480  26.7005050  58.3768290 110.5185080  29.5793150
  57.6866610 110.3257280  30.2139240  59.1200590 110.8019720  30.1117450
  49.1040290 108.3578570  20.5426490  48.8153340 108.9281430  21.2551470
  49.8486050 107.8783020  20.9057720  49.2910520 112.2998690  11.7529210
  49.2085190 113.2429450  11.8944200  48.9393580 112.1573600  10.8741560
  60.6531260 114.3583520  22.4147070  59.9212380 114.8670330  22.7637170
  60.2555600 113.5413500  22.1135850  57.0908650 111.0337720  20.8199560
  57.0944710 110.5927670  19.9704100  57.9859770 111.3555050  20.9271380
  52.9411030 110.9164210  19.7793770  52.6011080 111.3939440  20.5360820
  52.1788350 110.4629330  19.4194870  57.1528800 112.0349800  13.8106320
  57.2741620 111.9936280  14.7592140  56.7677310 112.8973950  13.6553050
  61.1157170 109.8117200  21.8270010  61.1329910 110.2625850  22.6711860
  60.8672750 108.9122840  22.0403450  56.1650300 114.3450940  13.2089620
  55.5967200 113.8969190  12.5825530  56.8739300 114.7043720  12.6754770
  64.5427920 107.2249380  27.6656390  64.8673690 106.4939040  28.1914370
  64.5784430 106.9063020  26.7637380  51.2419480 118.2462960  27.0856350
  50.8574270 117.6056630  27.6839310  51.5531670 118.9499080  27.6551080
  57.3916620 115.0939500  22.5664970  57.7586750 114.6198070  23.3126310
  57.2021680 115.9681070  22.9073310  50.2557110 109.8383190  18.6958440
  49.9704030 109.4738860  19.5337060  50.1935970 109.1063650  18.0821580
  55.1815990 114.1348140  24.8849180  54.8773060 115.0140120  25.1099540
  56.1362450 114.1947930  24.9206620  53.7097780 118.3409130  15.4816030
  52.9360040 117.8006750  15.3214750  54.4392410 117.8215740  15.1433790
  64.4685760 117.3374490  21.2742420  65.1884880 117.8329780  20.8838530
  64.2667580 116.6592380  20.6296290  59.9295700 108.7312450  15.4171810
  59.1160310 108.2325620  15.3417120  59.7357650 109.5710700  15.0008160
  59.8504560 117.4083550  27.1611420  59.7841870 116.4879220  26.9069010
  59.2209700 117.5058990  27.8756060  62.6444090 113.1032100  13.7133970
  63.5323710 113.4149330  13.5385310  62.6149180 112.2304350  13.3214550
  53.7535180 118.0089510  19.1194840  54.2713850 117.2057770  19.0651730
  53.3019200 117.9468650  19.9611670  58.6404680 119.2755790  14.3922140
  58.9820380 120.0198020  13.8965460  57.8117390 119.5886910  14.7546970
  51.2379720 114.9750880  26.0320540  50.8794660 115.6404730  26.6193880
  50.9434280 114.1434430  26.4033160  54.4392840 115.4335120  28.9160090
  54.1392980 115.5792300  28.0187910  55.2104080 114.8740410  28.8233480
  59.7821290 120.2304120  26.9115220  59.7965830 119.2985080  26.6934130
  59.0746390 120.3163880  27.5504990  64.9158360 114.4143940  13.1813830
  64.8322080 114.8458160  12.3310270  65.6352550 114.8742290  13.6140650
  65.9932500 116.8711460  26.2583800  65.2680690 117.4640240  26.0613190
  66.5207960 116.8635000  25.4597170  65.9445610 121.2686200  15.9095960
  65.3021770 120.6141820  16.1839680  65.5576270 121.6741290  15.1336630
  61.5232090 118.5971630  19.7567650  61.8755910 117.9999760  19.0969020
  60.6394420 118.2715860  19.9275900  57.6095370 119.3569320  17.1638060
  58.2966500 119.9038530  17.5445650  56.8227790 119.9010050  17.1987670
  49.7487770 114.9742140  12.6555140  50.6182620 115.2566940  12.9391060
  49.2578090 115.7878010  12.5403950  56.9122580 116.3615350  16.7763420
  57.3685360 117.1720600  17.0023610  56.5610790 116.0438490  17.6081910
  59.2155190 121.8721690  24.0055720  59.8597410 122.0781070  24.6829140
  59.5784630 121.1110090  23.5526570  52.8134360 106.7053000  17.2485940
  52.6848990 106.6970900  18.1970860  51.9896380 107.0436090  16.8976950
  60.4887270 119.8754040  22.7233170  61.1309500 119.1747200  22.8365340
  61.0136620 120.6552480  22.5430060  64.3342990 120.1602660  12.4472310
  64.1080570 119.4433100  13.0396950  63.9439190 119.9115100  11.6094060
  62.2624890 120.6748940  25.9269230  62.5981130 121.2615630  26.6047150
  61.3425230 120.5441650  26.1567020  50.1159020 124.1869520  13.2216770
  50.4756660 124.7858860  12.5674040  49.9751360 124.7329410  13.9951800
  49.8128290 108.4644120  26.7092640  49.0986810 108.6641040  27.3145250
  50.2323330 107.6883690  27.0807440  63.9159240 118.0774600  14.1086470
  63.6280940 118.5387290  14.8964350  64.7111410 117.6172370  14.3770690
  50.1000880 122.4524380  27.6959170  50.2092000 121.5119120  27.5554560
  49.4481440 122.7179130  27.0472900  58.0913470 120.7240270  29.0957290
  57.7710340 120.0049510  29.6402980  57.4171830 121.3995340  29.1693350
  56.1327640 121.5700720  14.0390440  56.1237740 122.3030410  13.4234950
  55.2126000 121.3232300  14.1317400  51.7334280 116.7915610  14.7837200
  51.1262230 117.5314510  14.7932500  52.2083630 116.8814970  13.9575400
  61.3067070 110.9566430  24.4594090  61.6747890 110.1361640  24.7873660
  60.4465270 111.0168320  24.8749740  64.6729100 109.9123370  15.2681650
  64.0442260 110.0169040  14.5539880  64.1781020 110.1320150  16.0575530
  59.1187240 121.6328960  12.7015630  59.2199220 121.4292950  11.7717610
  58.2188980 121.3787240  12.9063410  56.6413130 112.1909320  16.6839530
  55.9329280 112.6595660  17.1253140  56.9257610 111.5331330  17.3184720
  58.2669060 113.6106020  24.6832060  58.7654310 114.0851840  25.3483910
  58.4092010 112.6869540  24.8902090  60.6728560 108.9159980  18.1235320
  60.5496340 108.9346110  17.1744830  61.6213120 108.9638920  18.2433720
  57.7605350 124.1515280  17.3963300  58.0146850 124.1136670  16.4742670
  56.8117830 124.0248610  17.3891550  54.8448150 110.4994400  14.0590240
  55.6938680 110.9364550  13.9930430  54.4779420 110.8114660  14.8862300
  65.4735920 109.8273980  25.5260450  64.9709520 110.5679380  25.8654260
  66.2892580 110.2157980  25.2097240  63.7657930 115.0707160  18.9721810
  62.8248070 115.0857390  19.1469500  64.0802000 114.2843120  19.4182110
  53.7439570 116.7526760  12.5325770  54.5102840 116.6408120  13.0951200
  53.8214260 116.0564730  11.8802540  52.4386330 114.1851830  13.2158660
  52.5189920 113.2379340  13.3276060  53.3306080 114.5158710  13.3219320
  65.7683510 122.2416010  20.6476070  65.8930930 123.0647180  21.1199880
  66.6349070 122.0306740  20.3000220  53.2401040 124.3347220  20.3193200
  53.9763520 123.7862680  20.5901770  53.6241960 125.2003230  20.1799190
  50.1246520 120.4020790  16.1934710  49.1986300 120.6441930  16.1840120
  50.5902950 121.2295050  16.0719460  52.2459320 123.5193290  29.5078780
  53.0472050 123.8405340  29.9214180  51.7311140 123.1588870  30.2298690
  56.3503350 123.5077530  12.1418770  57.1431960 123.7966360  11.6900560
  55.8307700 123.0769700  11.4631250  61.0823950 119.6273160  29.4554190
  60.4762110 119.6504760  28.7149940  60.7778060 118.8956200  29.9921440
  62.5124320 123.3553450  28.0663600  63.4646070 123.2711470  28.0163840
  62.3652540 124.0195160  28.7397390  65.4033520 122.7347660  13.5655510
  65.1175030 122.3212800  12.7509690  65.2053070 123.6635370  13.4456030
  49.9657130 116.0066750  28.4514830  50.4696150 115.4274030  29.0231060
  49.2264550 116.2906980  28.9891200  56.8680750 118.7280940  12.0061120
  56.7631390 118.1133290  12.7322500  56.7004970 118.2046830  11.2224130
  57.0195070 117.4137740  27.9850350  56.2540740 117.9822740  27.9005020
  57.2011030 117.1213950  27.0918580  60.1083480 117.7900970  12.6103110
  59.5593580 118.2370270  13.2545850  60.7302740 117.2850220  13.1340780
  64.1618420 119.1443070  28.5425370  64.9027890 119.4818830  28.0392830
  63.3991100 119.3135130  27.9895140  51.9980210 114.1496340  29.3464900
  52.0385550 113.8510210  30.2550130  52.8525710 114.5503950  29.1872420
  55.7758600 116.7491890  14.5068410  56.1975020 116.5831760  15.3499800
  55.9009440 115.9392120  14.0123550  53.9386020 112.7288440  27.3139390
  53.4082480 112.2379390  26.6862730  54.6074090 113.1572640  26.7797320
  58.2886240 115.7729500  11.7545510  58.8091900 115.0578520  11.3886660
  58.9354640 116.4115370  12.0546020  62.8364080 117.1957900  27.0780580
  63.2505100 117.3502980  27.9271000  61.9015080 117.3213120  27.2406360
  63.3086250 114.5354060  29.0819730  63.8907020 113.7806380  28.9940210
  63.4848020 115.0661500  28.3051210  54.4258320 109.6950810  27.3936680
  54.3315190 109.0771560  26.6687550  53.8455710 110.4217100  27.1666590
  57.1919760 108.2524050  24.4264070  56.7437060 108.2748310  23.5809620
  56.5584960 107.8543070  25.0234370  57.5979310 117.1478380  25.0476510
  58.0167420 117.9911110  24.8752750  56.6787940 117.2850420  24.8183290
  59.9343210 114.8794560  26.4314350  60.0539420 114.2835700  27.1709190
  60.7937210 114.9164250  26.0115650  62.2731110 115.4331750  25.0076860
  61.7466330 115.9574370  24.4042000  62.6162450 116.0659140  25.6386590
  54.6717500 112.8225120  11.4526570  54.4706560 111.9592480  11.8139910
  54.5009550 112.7358480  10.5148170  55.4486730 123.4531390  26.1634240
  54.9107820 124.1777450  25.8442940  55.7020690 122.9761730  25.3731580
  56.7011980 111.4215910  27.6890170  57.2911670 111.1131760  28.3767990
  55.8832220 110.9495660  27.8450070  61.5205410 111.0381720  27.9223190
  60.8320930 110.3763260  27.8573180  62.2411430 110.5919990  28.3671650
  62.1505810 107.6333350  13.9813450  62.4308100 106.7901250  14.3372870
  61.3771540 107.8656460  14.4952200  53.4700300 109.9225740  11.4404450
  53.7726200 109.9293170  10.5323600  54.2094890 109.5723600  11.9372110
  58.3048940 124.6882600  26.4220890  58.2307640 125.5917740  26.7293260
  57.4027780 124.3694500  26.3942960  56.6885230 108.8660360  12.4260650
  56.3407230 108.1884350  11.8463100  56.8898000 108.4049870  13.2404040
  58.8534270 123.8541110  14.0447250  59.7485060 124.1926080  14.0666010
  58.8851900 123.1320520  13.4171530  52.4930430 119.2268160  12.2734250
  52.9305300 119.7697830  12.9291830  52.9778160 118.4015110  12.2830590
  49.7076230 122.0157190  19.7254510  50.0379240 121.1478250  19.4933150
  50.1367230 122.2215710  20.5559470  54.3038150 120.3466200  17.3856480
  54.0033690 120.2231170  18.2860390  54.1975640 119.4874790  16.9772210
  50.1966440 122.8827780  22.4636140  49.7597430 123.0628580  23.2960290
  50.7644120 123.6402400  22.3217860  65.8328620 122.3844780  26.7513450
  65.2330610 122.4437340  26.0077370  65.9622520 121.4449760  26.8810300
  67.0730070 120.1262600  12.0883160  66.2423030 120.1939250  12.5590390
  67.2501900 121.0166720  11.7850020  66.5286530 116.8710080  14.5917360
  67.2905440 117.4406730  14.6977050  66.5440900 116.3037280  15.3625670
  50.0290870 115.3948010  18.8225020  49.3739710 115.1259650  18.1784720
  50.8668820 115.2852490  18.3727000  67.5346500 117.7260180  19.4359290
  67.9055330 116.9427500  19.0295260  68.1748430 118.4149280  19.2576590
  64.5180260 119.1096760  24.8489610  63.7040100 119.5393920  25.1115400
  64.9254460 119.7215170  24.2358660  66.5805700 117.1644450  11.7489880
  66.8554540 118.0723330  11.6209100  66.3916440 117.1006980  12.6851870
  62.9781310 110.1889300  13.0443510  63.3966190 110.0020280  12.2040170
  62.6717370 109.3368350  13.3546440  66.4771040 115.1013440  16.7419310
  66.1014640 114.3341370  16.3100600  65.7474160 115.4836140  17.2294240
  51.0666800 115.7800580  23.3628360  51.4339840 115.6927980  24.2424380
  50.4977620 115.0167130  23.2635220  65.8670660 114.2484960  26.3758830
  65.6356750 114.0197710  25.4756780  66.1275210 115.1684510  26.3303720
  50.6182800 112.6909670  27.2686780  49.7238850 112.6576430  27.6080490
  51.1580350 112.8896460  28.0338030  64.3058730 109.4741390  29.1538530
  65.1828910 109.4824790  29.5372530  64.3179570 108.7372230  28.5430880
  49.2428950 112.6046940  14.7650350  48.3393030 112.8677140  14.5902010
  49.7269570 112.8758110  13.9850310  65.7522000 113.3270930  20.0426550
  66.2759480 112.8333580  19.4116720  66.3381420 113.4621290  20.7874120
  65.9311720 113.4110800  23.5646100  64.9814430 113.3774340  23.6791090
  66.1124730 114.3210910  23.3295870  51.7856160 111.6612480  12.6744730
  52.4947860 111.2395700  12.1892010  51.0696100 111.7287710  12.0428080
  51.4330320 107.7151810  11.7147380  52.1558450 108.2560750  12.0328600
  51.7054840 107.4415230  10.8388920  65.2421970 112.5844280  15.9818960
  65.7381090 112.3515150  16.7667840  65.0438040 111.7456120  15.5656600
  51.1222510 106.9658000  21.6170000  51.7698700 106.4155380  21.1765160
  51.5424350 107.2201150  22.4385810  66.6709130 111.2205230  18.5156640
  66.5608410 111.0661270  19.4538910  67.4316720 110.6926170  18.2732050
  65.0174850 107.1599360  24.9739640  65.6547070 107.7733500  25.3398830
  65.1649740 107.1960020  24.0288870  67.5599400 109.0513150  11.7562780
  68.4848710 108.9194330  11.5481070  67.5375190 109.1305970  12.7099230
  67.6337890 109.8223810  14.3819490  66.8389390 109.7568930  14.9112400
  67.8381170 110.7574450  14.3704840  64.5756310 123.8615360  18.3757880
  65.1715380 123.5399930  17.6992300  64.8334460 123.3887180  19.1671150
  52.4818880 120.2933270  28.5248510  52.4388510 119.9226180  29.4062970
  52.6129890 121.2310840  28.6650330  56.1824910 121.8492860  24.1258230
  55.9416270 122.1167420  23.2388750  57.1227550 122.0198590  24.1809090
  58.3879330 108.3125550  27.8814740  58.3268220 108.9047380  28.6310150
  59.3279710 108.2051510  27.7365000  61.0253890 107.9695610  27.5207030
  61.6394300 108.2874900  26.8588110  61.5703450 107.4844200  28.1402890
  67.4429070 123.8687240  24.9268870  66.9487350 124.2656110  24.2096000
  66.8342360 123.2436450  25.3206150  52.3206910 123.2395520  25.6446290
  51.7267230 123.1080220  26.3836330  52.3130750 122.4033660  25.1788390
  61.7661930 106.5327750  23.8476320  60.8921770 106.8662860  23.6449250
  61.6572680 106.0600930  24.6728190  62.6733910 108.7398620  25.2318040
  62.3447270 107.9250380  24.8519770  63.6216210 108.6968430  25.1083730
  65.1268520 124.5110660  22.2055610  64.6671490 125.2626470  21.8313630
  64.4980980 123.7917130  22.1470410  51.9519140 120.6053900  24.5954330
  51.2253200 119.9859190  24.5280280  52.0128290 120.9994510  23.7252410
  55.5564240 122.8198900  21.3803740  56.0729260 122.2086260  20.8552000
  56.2061620 123.3227680  21.8714750  58.2959740 123.7107390  22.2072720
  58.5837550 123.4561690  21.3305730  58.8082960 123.1584750  22.7978290
  59.5136750 107.4497590  22.7869230  58.7308540 107.9243090  23.0665990
  59.2199680 106.5452420  22.6782410  64.0657820 108.1520690  20.8318320
  64.5065910 108.0965790  19.9839920  63.7965410 109.0678700  20.9028500
  65.9296390 107.7835930  18.8427140  65.8684790 106.8397150  18.6958160
  66.7088420 107.8916020  19.3880600  50.2349140 123.9228290  17.8051090
  50.0671180 123.2898970  18.5032980  49.3683650 124.1287690  17.4545280
  50.8577160 107.7545070  15.3082950  51.6156520 107.8673950  14.7346980
  50.3954330 108.5914270  15.2626380  57.3990970 109.8684340  18.2985260
  56.5865480 109.4941230  17.9581140  57.9032610 109.1129420  18.6006450
  61.9015950 106.5326790  19.5368330  62.5045320 107.1047000  20.0116850
  61.1608940 107.0966230  19.3142230  65.0450550 106.9348350  14.8108610
  65.2401180 107.8331800  15.0776040  64.2580420 106.7035430  15.3041560
  51.8411840 122.6161520  15.2501230  51.3159460 122.9969550  14.5463190
  51.7656420 123.2412290  15.9710940  53.2302310 108.2809120  13.8484920
  53.7595070 107.4938920  13.7192870  53.8630630 108.9600310  14.0820450
  55.4240150 108.0184260  16.9030310  54.7942890 107.3171570  17.0700440
  54.8845290 108.7788390  16.6863470  58.3632100 124.6323490  29.5740920
  59.2899410 124.3967760  29.6176880  58.3482530 125.4595490  29.0926950
  66.5977160 124.1749060  16.5715170  66.7729350 123.4886800  15.9276090
  65.8998730 124.6996110  16.1791840  55.5495710 107.2968240  29.3382800
  55.2679980 107.8001840  28.5743620  55.9315410 106.4989990  28.9724930
  54.4404810 124.5643900  14.1250480  55.1723630 124.2803180  13.5774370
  54.6998480 124.3257180  15.0149860  53.6019600 120.6808630  14.1296810
  52.9728480 121.1493730  14.6782640  53.7167430 119.8357850  14.5643000
  62.1511170 106.7121820  29.9163270  62.0376620 107.0316430  30.8114790
  62.9680910 107.1134330  29.6200550  64.9309660 123.8593350  29.3981960
  65.7234980 123.3642580  29.1907920  65.2242810 124.5383490  30.0057570
  59.1887360 116.5093310   2.1607280  58.4129460 116.0293750   2.4505850
  59.8400290 115.8298960   1.9863440  53.2053190 116.8213120   3.0383040
  52.3738070 116.5661830   3.4379550  53.8134170 116.8923890   3.7740960
  53.1854450 120.8553210   3.2341060  53.4882490 119.9650950   3.0551280
  53.9298040 121.4123430   3.0063310  49.5778150 114.3820660   2.7065130
  50.1494260 113.6142860   2.7068770  49.5779690 114.6809420   1.7971740
  58.6296350 119.1850500   2.1677440  58.5604630 118.2440440   2.0066570
  59.3916210 119.2751910   2.7400010  50.8203020 109.7905020   4.4934060
  50.6405860 108.8930770   4.7736820  50.4183100 110.3376890   5.1681010
  51.4389690 112.2865520   3.1016400  52.1199800 112.5503890   3.7203800
  51.1237740 111.4466390   3.4354410  55.6314260 113.3332880   2.1888990
  56.1392480 113.8313850   2.8294010  56.1627500 112.5568080   2.0128350
  67.7325190 111.5038070   5.8918340  67.0277360 111.8919780   5.3733450
  67.9983110 112.1988360   6.4939270  53.9150360 107.9731440   6.4552410
  53.9168800 108.4903830   5.6498310  53.0854670 107.4961620   6.4322340
  55.1653210 117.6126620   4.6325910  54.8322590 118.2395540   5.2746980
  55.3419890 118.1388500   3.8527580  63.6787120 111.4271700   2.1002250
  62.9742690 111.7156590   2.6805360  64.0399280 112.2371810   1.7401810
  53.5965690 109.6841400   4.4622860  53.9382500 110.5283450   4.1676730
  52.6581500 109.8325140   4.5788200  54.3772310 119.5807420   6.4475090
  54.9946310 120.2558500   6.1659540  53.5165430 119.9895400   6.3562590
  65.2949900 121.0446830   4.3629730  64.6113420 121.7145940   4.3546400
  65.8344190 121.2427480   3.5974590  66.7474040 110.8726490   2.4911460
  65.7998950 110.9065470   2.6226890  67.0724030 111.6865440   2.8760820
  62.8308640 122.8890960   3.0774910  62.8435800 122.4853250   2.2097170
  62.2783860 123.6638250   2.9736340  62.2294080 117.7920800   4.4057520
  62.6462870 117.5780910   3.5710980  62.9533900 118.0493590   4.9766140
  66.1756180 116.1908020   4.4973760  65.3474810 116.2601110   4.0223890
  66.7706660 116.7762330   4.0289590  63.1398190 112.9777340   5.4428630
  62.7269370 113.8031050   5.6968620  62.4074140 112.3922380   5.2504990
  55.7412680 119.4504800   2.4686510  55.4440970 118.8450270   1.7894290
  56.6912500 119.4882110   2.3575870  53.9859600 112.5380450   4.0846340
  54.5374190 112.6475790   3.3099590  54.5003110 112.9118050   4.8001570
  63.8298290 123.0236670   6.1309610  63.3528850 123.8308860   5.9382220
  63.1460080 122.3715000   6.2835820  54.8331110 119.1886490   9.1194310
  53.9359640 119.4126460   9.3667710  54.8583980 119.3121430   8.1705710
  53.6602330 116.0599810   7.6951680  53.5210100 116.9322610   8.0639080
  52.7783690 115.7172620   7.5499620  55.4582680 122.0021510   9.9036830
  55.4298110 122.4064460   9.0365260  55.2947650 121.0731870   9.7408430
  67.4097500 122.7848610  11.2001000  67.8857220 123.2631500  11.8790080
  68.0304660 122.7166100  10.4746500  49.6120980 117.8297360   3.6122590
  49.6901400 117.9646130   2.6678310  50.2262660 117.1213250   3.8050710
  66.8130750 119.9761460   8.3601010  66.9393810 119.7373340   7.4418190
  66.8552130 119.1446000   8.8323090  60.6747490 123.6789460   6.9295820
  61.1892160 123.5897470   7.7318250  59.8316570 124.0249160   7.2223730
  66.6654760 112.0293920   9.3250750  66.0499030 112.5373590   8.7966210
  66.3451180 111.1292250   9.2676690  49.6680500 118.8711530   6.1517050
  49.8311540 118.4016890   5.3336420  50.1332950 118.3635090   6.8165890
  58.7269080 110.8685810   6.7912940  58.2648450 111.0768830   7.6032880
  58.3247190 110.0545160   6.4883610  63.7273590 112.0894760   7.9209600
  62.8767180 111.7900510   8.2418670  63.5675380 112.3336770   7.0093420
  60.8223300 113.5896510  10.0208390  61.1476710 112.7560260   9.6810620
  61.6103630 114.1125030  10.1686720  56.4775170 108.5464620   3.0467220
  56.7747500 109.4527450   2.9659240  57.0260730 108.0583400   2.4326790
  56.6712700 114.0236440   9.5819140  56.5756300 113.0831170   9.4319540
  57.5144680 114.2451510   9.1867210  51.8023240 110.4350110   7.7352920
  51.4086630 111.2825320   7.9425700  51.1141640 109.7976480   7.9261560
  58.3768290 110.5185080  10.8049660  57.6866610 110.3257280  11.4395750
  59.1200590 110.8019720  11.3373960  49.1040290 108.3578570   1.7683000
  48.8153340 108.9281430   2.4807980  49.8486050 107.8783020   2.1314230
  60.6531260 114.3583520   3.6403580  59.9212380 114.8670330   3.9893680
  60.2555600 113.5413500   3.3392360  61.1157170 109.8117200   3.0526520
  61.1329910 110.2625850   3.8968370  60.8672750 108.9122840   3.2659960
  64.5427920 107.2249380   8.8912900  64.8673690 106.4939040   9.4170880
  64.5784430 106.9063020   7.9893890  51.2419480 118.2462960   8.3112860
  50.8574270 117.6056630   8.9095820  51.5531670 118.9499080   8.8807590
  57.3916620 115.0939500   3.7921480  57.7586750 114.6198070   4.5382820
  57.2021680 115.9681070   4.1329820  55.1815990 114.1348140   6.1105690
  54.8773060 115.0140120   6.3356050  56.1362450 114.1947930   6.1463130
  64.4685760 117.3374490   2.4998930  65.1884880 117.8329780   2.1095040
  64.2667580 116.6592380   1.8552800  59.8504560 117.4083550   8.3867930
  59.7841870 116.4879220   8.1325520  59.2209700 117.5058990   9.1012570
  51.2379720 114.9750880   7.2577050  50.8794660 115.6404730   7.8450390
  50.9434280 114.1434430   7.6289670  54.4392840 115.4335120  10.1416600
  54.1392980 115.5792300   9.2444420  55.2104080 114.8740410  10.0489990
  59.7821290 120.2304120   8.1371730  59.7965830 119.2985080   7.9190640
  59.0746390 120.3163880   8.7761500  65.9932500 116.8711460   7.4840310
  65.2680690 117.4640240   7.2869700  66.5207960 116.8635000   6.6853680
  59.2155190 121.8721690   5.2312230  59.8597410 122.0781070   5.9085650
  59.5784630 121.1110090   4.7783080  60.4887270 119.8754040   3.9489680
  61.1309500 119.1747200   4.0621850  61.0136620 120.6552480   3.7686570
  62.2624890 120.6748940   7.1525740  62.5981130 121.2615630   7.8303660
  61.3425230 120.5441650   7.3823530  49.8128290 108.4644120   7.9349150
  49.0986810 108.6641040   8.5401760  50.2323330 107.6883690   8.3063950
  50.1000880 122.4524380   8.9215680  50.2092000 121.5119120   8.7811070
  49.4481440 122.7179130   8.2729410  58.0913470 120.7240270  10.3213800
  57.7710340 120.0049510  10.8659490  57.4171830 121.3995340  10.3949860
  61.3067070 110.9566430   5.6850600  61.6747890 110.1361640   6.0130170
  60.4465270 111.0168320   6.1006250  58.2669060 113.6106020   5.9088570
  58.7654310 114.0851840   6.5740420  58.4092010 112.6869540   6.1158600
  65.4735920 109.8273980   6.7516960  64.9709520 110.5679380   7.0910770
  66.2892580 110.2157980   6.4353750  52.2459320 123.5193290  10.7335290
  53.0472050 123.8405340  11.1470690  51.7311140 123.1588870  11.4555200
  61.0823950 119.6273160  10.6810700  60.4762110 119.6504760   9.9406450
  60.7778060 118.8956200  11.2177950  62.5124320 123.3553450   9.2920110
  63.4646070 123.2711470   9.2420350  62.3652540 124.0195160   9.9653900
  49.9657130 116.0066750   9.6771340  50.4696150 115.4274030  10.2487570
  49.2264550 116.2906980  10.2147710  57.0195070 117.4137740   9.2106860
  56.2540740 117.9822740   9.1261530  57.2011030 117.1213950   8.3175090
  64.1618420 119.1443070   9.7681880  64.9027890 119.4818830   9.2649340
  63.3991100 119.3135130   9.2151650  51.9980210 114.1496340  10.5721410
  52.0385550 113.8510210  11.4806640  52.8525710 114.5503950  10.4128930
  53.9386020 112.7288440   8.5395900  53.4082480 112.2379390   7.9119240
  54.6074090 113.1572640   8.0053830  62.8364080 117.1957900   8.3037090
  63.2505100 117.3502980   9.1527510  61.9015080 117.3213120   8.4662870
  63.3086250 114.5354060  10.3076240  63.8907020 113.7806380  10.2196720
  63.4848020 115.0661500   9.5307720  54.4258320 109.6950810   8.6193190
  54.3315190 109.0771560   7.8944060  53.8455710 110.4217100   8.3923100
  57.1919760 108.2524050   5.6520580  56.7437060 108.2748310   4.8066130
  56.5584960 107.8543070   6.2490880  57.5979310 117.1478380   6.2733020
  58.0167420 117.9911110   6.1009260  56.6787940 117.2850420   6.0439800
  59.9343210 114.8794560   7.6570860  60.0539420 114.2835700   8.3965700
  60.7937210 114.9164250   7.2372160  62.2731110 115.4331750   6.2333370
  61.7466330 115.9574370   5.6298510  62.6162450 116.0659140   6.8643100
  55.4486730 123.4531390   7.3890750  54.9107820 124.1777450   7.0699450
  55.7020690 122.9761730   6.5988090  56.7011980 111.4215910   8.9146680
  57.2911670 111.1131760   9.6024500  55.8832220 110.9495660   9.0706580
  61.5205410 111.0381720   9.1479700  60.8320930 110.3763260   9.0829690
  62.2411430 110.5919990   9.5928160  58.3048940 124.6882600   7.6477400
  58.2307640 125.5917740   7.9549770  57.4027780 124.3694500   7.6199470
  50.1966440 122.8827780   3.6892650  49.7597430 123.0628580   4.5216800
  50.7644120 123.6402400   3.5474370  65.8328620 122.3844780   7.9769960
  65.2330610 122.4437340   7.2333880  65.9622520 121.4449760   8.1066810
  64.5180260 119.1096760   6.0746120  63.7040100 119.5393920   6.3371910
  64.9254460 119.7215170   5.4615170  51.0666800 115.7800580   4.5884870
  51.4339840 115.6927980   5.4680890  50.4977620 115.0167130   4.4891730
  65.8670660 114.2484960   7.6015340  65.6356750 114.0197710   6.7013290
  66.1275210 115.1684510   7.5560230  50.6182800 112.6909670   8.4943290
  49.7238850 112.6576430   8.8337000  51.1580350 112.8896460   9.2594540
  64.3058730 109.4741390  10.3795040  65.1828910 109.4824790  10.7629040
  64.3179570 108.7372230   9.7687390  65.9311720 113.4110800   4.7902610
  64.9814430 113.3774340   4.9047600  66.1124730 114.3210910   4.5552380
  51.1222510 106.9658000   2.8426510  51.7698700 106.4155380   2.4021670
  51.5424350 107.2201150   3.6642320  65.0174850 107.1599360   6.1996150
  65.6547070 107.7733500   6.5655340  65.1649740 107.1960020   5.2545380
  50.8754510 107.1213670   5.5851830  50.5269330 107.5777490   6.3510010
  50.5442210 106.2270800   5.6674260  52.4818880 120.2933270   9.7505020
  52.4388510 119.9226180  10.6319480  52.6129890 121.2310840   9.8906840
  56.1824910 121.8492860   5.3514740  55.9416270 122.1167420   4.4645260
  57.1227550 122.0198590   5.4065600  58.3879330 108.3125550   9.1071250
  58.3268220 108.9047380   9.8566660  59.3279710 108.2051510   8.9621510
  61.0253890 107.9695610   8.7463540  61.6394300 108.2874900   8.0844620
  61.5703450 107.4844200   9.3659400  67.4429070 123.8687240   6.1525380
  66.9487350 124.2656110   5.4352510  66.8342360 123.2436450   6.5462660
  51.5475150 106.6489870   8.8602600  52.0958140 106.4677920   8.0968710
  51.6130460 105.8583980   9.3958910  52.3206910 123.2395520   6.8702800
  51.7267230 123.1080220   7.6092840  52.3130750 122.4033660   6.4044900
  61.7661930 106.5327750   5.0732830  60.8921770 106.8662860   4.8705760
  61.6572680 106.0600930   5.8984700  62.6733910 108.7398620   6.4574550
  62.3447270 107.9250380   6.0776280  63.6216210 108.6968430   6.3340240
  65.1268520 124.5110660   3.4312120  64.6671490 125.2626470   3.0570140
  64.4980980 123.7917130   3.3726920  51.9519140 120.6053900   5.8210840
  51.2253200 119.9859190   5.7536790  52.0128290 120.9994510   4.9508920
  55.5564240 122.8198900   2.6060250  56.0729260 122.2086260   2.0808510
  56.2061620 123.3227680   3.0971260  58.2959740 123.7107390   3.4329230
  58.5837550 123.4561690   2.5562240  58.8082960 123.1584750   4.0234800
  59.5136750 107.4497590   4.0125740  58.7308540 107.9243090   4.2922500
  59.2199680 106.5452420   3.9038920  58.3632100 124.6323490  10.7997430
  59.2899410 124.3967760  10.8433390  58.3482530 125.4595490  10.3183460
  55.5495710 107.2968240  10.5639310  55.2679980 107.8001840   9.8000130
  55.9315410 106.4989990  10.1981440  62.1511170 106.7121820  11.1419780
  62.0376620 107.0316430  12.0371300  62.9680910 107.1134330  10.8457060
  64.9309660 123.8593350  10.6238470  65.7234980 123.3642580  10.4164430
  65.2242810 124.5383490  11.2314080  61.0569320  95.9570800 150.4745930
  60.9763370  95.0425410 150.2037640  60.6433740  96.4537870 149.7685640
  63.2094790 102.1410010 151.1354330  62.7476320 101.3697250 151.4641500
  64.0220340 102.1676080 151.6406780  51.6145140  93.0071520 147.0173350
  50.7261840  93.3487490 146.9153230  51.8986330  92.8071840 146.1254180
  59.4358100 104.4268020 150.7558320  58.8169540 104.8825520 150.1852760
  60.2909880 104.5819480 150.3548020  53.7906530  91.5903020 148.0511730
  53.8973280  92.4906750 148.3580490  52.8798890  91.5420990 147.7606380
  63.4425640  90.7127830 149.5222630  64.2635260  90.2224400 149.5648110
  63.4759720  91.3025490 150.2754470  60.3021450  99.3107260 148.1490230
  59.6838720  99.7756710 147.5852950  60.8144700 100.0034740 148.5659740
  49.6704650  99.9963790 145.5229860  49.2932630 100.4850890 144.7914760
  49.9277720 100.6689070 146.1536390  57.2793580  88.3980180 150.9815370
  57.5868560  87.8427070 150.2650870  56.3494280  88.5324640 150.7988360
  64.1254060 100.8363690 148.3613000  64.0150390  99.8938020 148.4862420
  64.1222310 101.1979330 149.2475760  59.6674340  96.4629010 147.7175490
  58.7403620  96.3966390 147.9463960  59.8199160  97.4009140 147.6030730
  59.6543420  92.7346010 144.7142650  58.7147090  92.8959970 144.7995110
  59.9726680  93.4531690 144.1678640  63.6971630  98.0249310 148.2210740
  63.0784050  97.6868860 147.5737040  63.6796080  97.3809070 148.9289930
  55.2730980  96.9893750 150.4995220  54.8687980  96.2771000 150.0041120
  55.3594100  96.6446990 151.3883260  61.8736330  97.2636120 145.2283490
  62.3129610  96.4258550 145.0821310  62.5864750  97.8965520 145.3147630
  59.9831710 102.2032190 149.1964730  60.4227620 102.9456520 148.7820120
  59.9218600 102.4458760 150.1203690  65.4553470  88.5178930 143.5424530
  65.1426130  88.6105760 144.4423600  66.2165940  89.0959960 143.4921960
  51.9735610  95.8838730 148.0001870  51.8533210  96.6100820 147.3883140
  51.6636500  95.1141640 147.5229780  50.8568610 100.7554060 150.2176690
  50.4496690 100.8968650 149.3630290  51.7481620 100.4714220 150.0147900
  62.6501890 105.1901310 146.5527740  62.4903030 104.9004250 147.4509570
  62.4848600 104.4141440 146.0172970  55.1290270 104.9699840 148.3299360
  54.9532750 104.0535380 148.1167160  54.2746010 105.3287130 148.5697160
  62.3528020 102.6988870 145.1125740  61.6593180 102.6966160 144.4528020
  63.0950880 102.2748190 144.6819910  61.9177950 104.3251580 149.1874230
  62.3734900 103.5440960 149.5012850  62.2570470 105.0358400 149.7315410
  54.4399270  89.2273800 151.3825540  53.9967420  90.0083340 151.0510060
  54.9984260  89.5503690 152.0896480  57.5558090  88.8484500 146.2631370
  56.9312270  88.8444370 146.9884680  57.4688210  87.9815460 145.8667340
  54.2313490  94.3507370 149.1106790  54.0054410  94.1344540 150.0153410
  53.4506020  94.7835830 148.7652760  61.4611250  94.3570740 147.7097440
  60.8620140  95.0806540 147.5261060  62.0090860  94.2947520 146.9273890
  60.0676120  92.9934280 149.7400720  60.4605690  93.3106480 148.9269410
  60.4292970  92.1146160 149.8545240  49.2910520  93.5255200 143.1733640
  49.2085190  94.4685960 143.3148630  48.9393580  93.3830110 142.2945990
  57.0908650  92.2594230 152.2403990  57.0944710  91.8184180 151.3908530
  57.9859770  92.5811560 152.3475810  52.9411030  92.1420720 151.1998200
  52.6011080  92.6195950 151.9565250  52.1788350  91.6885840 150.8399300
  57.1528800  93.2606310 145.2310750  57.2741620  93.2192790 146.1796570
  56.7677310  94.1230460 145.0757480  56.1650300  95.5707450 144.6294050
  55.5967200  95.1225700 144.0029960  56.8739300  95.9300230 144.0959200
  50.2557110  91.0639700 150.1162870  49.9704030  90.6995370 150.9541490
  50.1935970  90.3320160 149.5026010  53.7097780  99.5665640 146.9020460
  52.9360040  99.0263260 146.7419180  54.4392410  99.0472250 146.5638220
  59.9295700  89.9568960 146.8376240  59.1160310  89.4582130 146.7621550
  59.7357650  90.7967210 146.4212590  62.6444090  94.3288610 145.1338400
  63.5323710  94.6405840 144.9589740  62.6149180  93.4560860 144.7418980
  53.7535180  99.2346020 150.5399270  54.2713850  98.4314280 150.4856160
  53.3019200  99.1725160 151.3816100  58.6404680 100.5012300 145.8126570
  58.9820380 101.2454530 145.3169890  57.8117390 100.8143420 146.1751400
  64.9158360  95.6400450 144.6018260  64.8322080  96.0714670 143.7514700
  65.6352550  96.0998800 145.0345080  65.9445610 102.4942710 147.3300390
  65.3021770 101.8398330 147.6044110  65.5576270 102.8997800 146.5541060
  61.5232090  99.8228140 151.1772080  61.8755910  99.2256270 150.5173450
  60.6394420  99.4972370 151.3480330  57.6095370 100.5825830 148.5842490
  58.2966500 101.1295040 148.9650080  56.8227790 101.1266560 148.6192100
  49.7487770  96.1998650 144.0759570  50.6182620  96.4823450 144.3595490
  49.2578090  97.0134520 143.9608380  56.9122580  97.5871860 148.1967850
  57.3685360  98.3977110 148.4228040  56.5610790  97.2695000 149.0286340
  52.8134360  87.9309510 148.6690370  52.6848990  87.9227410 149.6175290
  51.9896380  88.2692600 148.3181380  64.3342990 101.3859170 143.8676740
  64.1080570 100.6689610 144.4601380  63.9439190 101.1371610 143.0298490
  50.1159020 105.4126030 144.6421200  50.4756660 106.0115370 143.9878470
  49.9751360 105.9585920 145.4156230  63.9159240  99.3031110 145.5290900
  63.6280940  99.7643800 146.3168780  64.7111410  98.8428880 145.7975120
  56.1327640 102.7957230 145.4594870  56.1237740 103.5286920 144.8439380
  55.2126000 102.5488810 145.5521830  51.7334280  98.0172120 146.2041630
  51.1262230  98.7571020 146.2136930  52.2083630  98.1071480 145.3779830
  64.6729100  91.1379880 146.6886080  64.0442260  91.2425550 145.9744310
  64.1781020  91.3576660 147.4779960  59.1187240 102.8585470 144.1220060
  59.2199220 102.6549460 143.1922040  58.2188980 102.6043750 144.3267840
  56.6413130  93.4165830 148.1043960  55.9329280  93.8852170 148.5457570
  56.9257610  92.7587840 148.7389150  60.6728560  90.1416490 149.5439750
  60.5496340  90.1602620 148.5949260  61.6213120  90.1895430 149.6638150
  57.7605350 105.3771790 148.8167730  58.0146850 105.3393180 147.8947100
  56.8117830 105.2505120 148.8095980  54.8448150  91.7250910 145.4794670
  55.6938680  92.1621060 145.4134860  54.4779420  92.0371170 146.3066730
  63.7657930  96.2963670 150.3926240  62.8248070  96.3113900 150.5673930
  64.0802000  95.5099630 150.8386540  53.7439570  97.9783270 143.9530200
  54.5102840  97.8664630 144.5155630  53.8214260  97.2821240 143.3006970
  52.4386330  95.4108340 144.6363090  52.5189920  94.4635850 144.7480490
  53.3306080  95.7415220 144.7423750  53.2401040 105.5603730 151.7397630
  53.9763520 105.0119190 152.0106200  53.6241960 106.4259740 151.6003620
  50.1246520 101.6277300 147.6139140  49.1986300 101.8698440 147.6044550
  50.5902950 102.4551560 147.4923890  56.3503350 104.7334040 143.5623200
  57.1431960 105.0222870 143.1104990  55.8307700 104.3026210 142.8835680
  65.4033520 103.9604170 144.9859940  65.1175030 103.5469310 144.1714120
  65.2053070 104.8891880 144.8660460  56.8680750  99.9537450 143.4265550
  56.7631390  99.3389800 144.1526930  56.7004970  99.4303340 142.6428560
  60.1083480  99.0157480 144.0307540  59.5593580  99.4626780 144.6750280
  60.7302740  98.5106730 144.5545210  55.7758600  97.9748400 145.9272840
  56.1975020  97.8088270 146.7704230  55.9009440  97.1648630 145.4327980
  58.2886240  96.9986010 143.1749940  58.8091900  96.2835030 142.8091090
  58.9354640  97.6371880 143.4750450  54.6717500  94.0481630 142.8731000
  54.4706560  93.1848990 143.2344340  54.5009550  93.9614990 141.9352600
  62.1505810  88.8589860 145.4017880  62.4308100  88.0157760 145.7577300
  61.3771540  89.0912970 145.9156630  53.4700300  91.1482250 142.8608880
  53.7726200  91.1549680 141.9528030  54.2094890  90.7980110 143.3576540
  56.6885230  90.0916870 143.8465080  56.3407230  89.4140860 143.2667530
  56.8898000  89.6306380 144.6608470  58.8534270 105.0797620 145.4651680
  59.7485060 105.4182590 145.4870440  58.8851900 104.3577030 144.8375960
  52.4930430 100.4524670 143.6938680  52.9305300 100.9954340 144.3496260
  52.9778160  99.6271620 143.7035020  49.7076230 103.2413700 151.1458940
  50.0379240 102.3734760 150.9137580  50.1367230 103.4472220 151.9763900
  54.3038150 101.5722710 148.8060910  54.0033690 101.4487680 149.7064820
  54.1975640 100.7131300 148.3976640  67.0730070 101.3519110 143.5087590
  66.2423030 101.4195760 143.9794820  67.2501900 102.2423230 143.2054450
  66.5286530  98.0966590 146.0121790  67.2905440  98.6663240 146.1181480
  66.5440900  97.5293790 146.7830100  50.0290870  96.6204520 150.2429450
  49.3739710  96.3516160 149.5989150  50.8668820  96.5109000 149.7931430
  67.5346500  98.9516690 150.8563720  67.9055330  98.1684010 150.4499690
  68.1748430  99.6405790 150.6781020  66.5805700  98.3900960 143.1694310
  66.8554540  99.2979840 143.0413530  66.3916440  98.3263490 144.1056300
  62.9781310  91.4145810 144.4647940  63.3966190  91.2276790 143.6244600
  62.6717370  90.5624860 144.7750870  66.4771040  96.3269950 148.1623740
  66.1014640  95.5597880 147.7305030  65.7474160  96.7092650 148.6498670
  49.2428950  93.8303450 146.1854780  48.3393030  94.0933650 146.0106440
  49.7269570  94.1014620 145.4054740  65.7522000  94.5527440 151.4630980
  66.2759480  94.0590090 150.8321150  66.3381420  94.6877800 152.2078550
  51.7856160  92.8868990 144.0949160  52.4947860  92.4652210 143.6096440
  51.0696100  92.9544220 143.4632510  51.4330320  88.9408320 143.1351810
  52.1558450  89.4817260 143.4533030  51.7054840  88.6671740 142.2593350
  65.2421970  93.8100790 147.4023390  65.7381090  93.5771660 148.1872270
  65.0438040  92.9712630 146.9861030  66.6709130  92.4461740 149.9361070
  66.5608410  92.2917780 150.8743340  67.4316720  91.9182680 149.6936480
  67.5599400  90.2769660 143.1767210  68.4848710  90.1450840 142.9685500
  67.5375190  90.3562480 144.1303660  67.6337890  91.0480320 145.8023920
  66.8389390  90.9825440 146.3316830  67.8381170  91.9830960 145.7909270
  64.5756310 105.0871870 149.7962310  65.1715380 104.7656440 149.1196730
  64.8334460 104.6143690 150.5875580  64.0657820  89.3777200 152.2522750
  64.5065910  89.3222300 151.4044350  63.7965410  90.2935210 152.3232930
  65.9296390  89.0092440 150.2631570  65.8684790  88.0653660 150.1162590
  66.7088420  89.1172530 150.8085030  50.2349140 105.1484800 149.2255520
  50.0671180 104.5155480 149.9237410  49.3683650 105.3544200 148.8749710
  50.8577160  88.9801580 146.7287380  51.6156520  89.0930460 146.1551410
  50.3954330  89.8170780 146.6830810  57.3990970  91.0940850 149.7189690
  56.5865480  90.7197740 149.3785570  57.9032610  90.3385930 150.0210880
  61.9015950  87.7583300 150.9572760  62.5045320  88.3303510 151.4321280
  61.1608940  88.3222740 150.7346660  65.0450550  88.1604860 146.2313040
  65.2401180  89.0588310 146.4980470  64.2580420  87.9291940 146.7245990
  51.8411840 103.8418030 146.6705660  51.3159460 104.2226060 145.9667620
  51.7656420 104.4668800 147.3915370  53.2302310  89.5065630 145.2689350
  53.7595070  88.7195430 145.1397300  53.8630630  90.1856820 145.5024880
  55.4240150  89.2440770 148.3234740  54.7942890  88.5428080 148.4904870
  54.8845290  90.0044900 148.1067900  66.5977160 105.4005570 147.9919600
  66.7729350 104.7143310 147.3480520  65.8998730 105.9252620 147.5996270
  54.4404810 105.7900410 145.5454910  55.1723630 105.5059690 144.9978800
  54.6998480 105.5513690 146.4354290  53.6019600 101.9065140 145.5501240
  52.9728480 102.3750240 146.0987070  53.7167430 101.0614360 145.9847430
  53.2053190  98.0469630 134.4587470  52.3738070  97.7918340 134.8583980
  53.8134170  98.1180400 135.1945390  53.1854450 102.0809720 134.6545490
  53.4882490 101.1907460 134.4755710  53.9298040 102.6379940 134.4267740
  51.6145140  93.0071520 128.2429860  50.7261840  93.3487490 128.1409740
  51.8986330  92.8071840 127.3510690  49.5778150  95.6077170 134.1269560
  50.1494260  94.8399370 134.1273200  49.5779690  95.9065930 133.2176170
  59.4358100 104.4268020 131.9814830  58.8169540 104.8825520 131.4109270
  60.2909880 104.5819480 131.5804530  50.8203020  91.0161530 135.9138490
  50.6405860  90.1187280 136.1941250  50.4183100  91.5633400 136.5885440
  59.6601520  93.2177390 133.8150800  60.0366340  92.3449270 133.7024470
  59.5621030  93.5536090 132.9241240  53.7906530  91.5903020 129.2768240
  53.8973280  92.4906750 129.5837000  52.8798890  91.5420990 128.9862890
  63.4425640  90.7127830 130.7479140  64.2635260  90.2224400 130.7904620
  63.4759720  91.3025490 131.5010980  51.4389690  93.5122030 134.5220830
  52.1199800  93.7760400 135.1408230  51.1237740  92.6722900 134.8558840
  55.6314260  94.5589390 133.6093420  56.1392480  95.0570360 134.2498440
  56.1627500  93.7824590 133.4332780  67.7325190  92.7294580 137.3122770
  67.0277360  93.1176290 136.7937880  67.9983110  93.4244870 137.9143700
  53.9150360  89.1987950 137.8756840  53.9168800  89.7160340 137.0702740
  53.0854670  88.7218130 137.8526770  55.1653210  98.8383130 136.0530340
  54.8322590  99.4652050 136.6951410  55.3419890  99.3645010 135.2732010
  63.6787120  92.6528210 133.5206680  62.9742690  92.9413100 134.1009790
  64.0399280  93.4628320 133.1606240  53.5965690  90.9097910 135.8827290
  53.9382500  91.7539960 135.5881160  52.6581500  91.0581650 135.9992630
  54.3772310 100.8063930 137.8679520  54.9946310 101.4815010 137.5863970
  53.5165430 101.2151910 137.7767020  49.6704650  99.9963790 126.7486370
  49.2932630 100.4850890 126.0171270  49.9277720 100.6689070 127.3792900
  66.7474040  92.0983000 133.9115890  65.7998950  92.1321980 134.0431320
  67.0724030  92.9121950 134.2965250  57.2793580  88.3980180 132.2071880
  57.5868560  87.8427070 131.4907380  56.3494280  88.5324640 132.0244870
  62.8308640 104.1147470 134.4979340  62.8435800 103.7109760 133.6301600
  62.2783860 104.8894760 134.3940770  62.2294080  99.0177310 135.8261950
  62.6462870  98.8037420 134.9915410  62.9533900  99.2750100 136.3970570
  59.6543420  92.7346010 125.9399160  58.7147090  92.8959970 126.0251620
  59.9726680  93.4531690 125.3935150  63.1398190  94.2033850 136.8633060
  62.7269370  95.0287560 137.1173050  62.4074140  93.6178890 136.6709420
  55.7412680 100.6761310 133.8890940  55.4440970 100.0706780 133.2098720
  56.6912500 100.7138620 133.7780300  53.9859600  93.7636960 135.5050770
  54.5374190  93.8732300 134.7304020  54.5003110  94.1374560 136.2206000
  63.8298290 104.2493180 137.5514040  63.3528850 105.0565370 137.3586650
  63.1460080 103.5971510 137.7040250  54.8331110 100.4143000 140.5398740
  53.9359640 100.6382970 140.7872140  54.8583980 100.5377940 139.5910140
  53.6602330  97.2856320 139.1156110  53.5210100  98.1579120 139.4843510
  52.7783690  96.9429130 138.9704050  55.4582680 103.2278020 141.3241260
  55.4298110 103.6320970 140.4569690  55.2947650 102.2988380 141.1612860
  65.4553470  88.5178930 124.7681040  65.1426130  88.6105760 125.6680110
  66.2165940  89.0959960 124.7178470  51.9735610  95.8838730 129.2258380
  51.8533210  96.6100820 128.6139650  51.6636500  95.1141640 128.7486290
  67.4097500 104.0105120 142.6205430  67.8857220 104.4888010 143.2994510
  68.0304660 103.9422610 141.8950930  49.6120980  99.0553870 135.0327020
  49.6901400  99.1902640 134.0882740  50.2262660  98.3469760 135.2255140
  50.8568610 100.7554060 131.4433200  50.4496690 100.8968650 130.5886800
  51.7481620 100.4714220 131.2404410  66.8130750 101.2017970 139.7805440
  66.9393810 100.9629850 138.8622620  66.8552130 100.3702510 140.2527520
  60.6747490 104.9045970 138.3500250  61.1892160 104.8153980 139.1522680
  59.8316570 105.2505670 138.6428160  62.6501890 105.1901310 127.7784250
  62.4903030 104.9004250 128.6766080  62.4848600 104.4141440 127.2429480
  55.1290270 104.9699840 129.5555870  54.9532750 104.0535380 129.3423670
  54.2746010 105.3287130 129.7953670  61.9177950 104.3251580 130.4130740
  62.3734900 103.5440960 130.7269360  62.2570470 105.0358400 130.9571920
  66.6654760  93.2550430 140.7455180  66.0499030  93.7630100 140.2170640
  66.3451180  92.3548760 140.6881120  49.6680500 100.0968040 137.5721480
  49.8311540  99.6273400 136.7540850  50.1332950  99.5891600 138.2370320
  54.4399270  89.2273800 132.6082050  53.9967420  90.0083340 132.2766570
  54.9984260  89.5503690 133.3152990  58.7269080  92.0942320 138.2117370
  58.2648450  92.3025340 139.0237310  58.3247190  91.2801670 137.9088040
  63.7273590  93.3151270 139.3414030  62.8767180  93.0157020 139.6623100
  63.5675380  93.5593280 138.4297850  60.8223300  94.8153020 141.4412820
  61.1476710  93.9816770 141.1015050  61.6103630  95.3381540 141.5891150
  57.5558090  88.8484500 127.4887880  56.9312270  88.8444370 128.2141190
  57.4688210  87.9815460 127.0923850  56.4775170  89.7721130 134.4671650
  56.7747500  90.6783960 134.3863670  57.0260730  89.2839910 133.8531220
  54.2313490  94.3507370 130.3363300  54.0054410  94.1344540 131.2409920
  53.4506020  94.7835830 129.9909270  56.6712700  95.2492950 141.0023570
  56.5756300  94.3087680 140.8523970  57.5144680  95.4708020 140.6071640
  60.0676120  92.9934280 130.9657230  60.4605690  93.3106480 130.1525920
  60.4292970  92.1146160 131.0801750  51.8023240  91.6606620 139.1557350
  51.4086630  92.5081830 139.3630130  51.1141640  91.0232990 139.3465990
  58.3768290  91.7441590 142.2254090  57.6866610  91.5513790 142.8600180
  59.1200590  92.0276230 142.7578390  49.1040290  89.5835080 133.1887430
  48.8153340  90.1537940 133.9012410  49.8486050  89.1039530 133.5518660
  49.2910520  93.5255200 124.3990150  49.2085190  94.4685960 124.5405140
  48.9393580  93.3830110 123.5202500  60.6531260  95.5840030 135.0608010
  59.9212380  96.0926840 135.4098110  60.2555600  94.7670010 134.7596790
  57.0908650  92.2594230 133.4660500  57.0944710  91.8184180 132.6165040
  57.9859770  92.5811560 133.5732320  52.9411030  92.1420720 132.4254710
  52.6011080  92.6195950 133.1821760  52.1788350  91.6885840 132.0655810
  57.1528800  93.2606310 126.4567260  57.2741620  93.2192790 127.4053080
  56.7677310  94.1230460 126.3013990  61.1157170  91.0373710 134.4730950
  61.1329910  91.4882360 135.3172800  60.8672750  90.1379350 134.6864390
  56.1650300  95.5707450 125.8550560  55.5967200  95.1225700 125.2286470
  56.8739300  95.9300230 125.3215710  51.2419480  99.4719470 139.7317290
  50.8574270  98.8313140 140.3300250  51.5531670 100.1755590 140.3012020
  57.3916620  96.3196010 135.2125910  57.7586750  95.8454580 135.9587250
  57.2021680  97.1937580 135.5534250  50.2557110  91.0639700 131.3419380
  49.9704030  90.6995370 132.1798000  50.1935970  90.3320160 130.7282520
  55.1815990  95.3604650 137.5310120  54.8773060  96.2396630 137.7560480
  56.1362450  95.4204440 137.5667560  53.7097780  99.5665640 128.1276970
  52.9360040  99.0263260 127.9675690  54.4392410  99.0472250 127.7894730
  59.9295700  89.9568960 128.0632750  59.1160310  89.4582130 127.9878060
  59.7357650  90.7967210 127.6469100  59.8504560  98.6340060 139.8072360
  59.7841870  97.7135730 139.5529950  59.2209700  98.7315500 140.5217000
  62.6444090  94.3288610 126.3594910  63.5323710  94.6405840 126.1846250
  62.6149180  93.4560860 125.9675490  53.7535180  99.2346020 131.7655780
  54.2713850  98.4314280 131.7112670  53.3019200  99.1725160 132.6072610
  51.2379720  96.2007390 138.6781480  50.8794660  96.8661240 139.2654820
  50.9434280  95.3690940 139.0494100  54.4392840  96.6591630 141.5621030
  54.1392980  96.8048810 140.6648850  55.2104080  96.0996920 141.4694420
  59.7821290 101.4560630 139.5576160  59.7965830 100.5241590 139.3395070
  59.0746390 101.5420390 140.1965930  65.9932500  98.0967970 138.9044740
  65.2680690  98.6896750 138.7074130  66.5207960  98.0891510 138.1058110
  49.7487770  96.1998650 125.3016080  50.6182620  96.4823450 125.5852000
  49.2578090  97.0134520 125.1864890  59.2155190 103.0978200 136.6516660
  59.8597410 103.3037580 137.3290080  59.5784630 102.3366600 136.1987510
  60.4887270 101.1010550 135.3694110  61.1309500 100.4003710 135.4826280
  61.0136620 101.8808990 135.1891000  64.3342990 101.3859170 125.0933250
  64.1080570 100.6689610 125.6857890  63.9439190 101.1371610 124.2555000
  62.2624890 101.9005450 138.5730170  62.5981130 102.4872140 139.2508090
  61.3425230 101.7698160 138.8027960  50.1159020 105.4126030 125.8677710
  50.4756660 106.0115370 125.2134980  49.9751360 105.9585920 126.6412740
  49.8128290  89.6900630 139.3553580  49.0986810  89.8897550 139.9606190
  50.2323330  88.9140200 139.7268380  63.9159240  99.3031110 126.7547410
  63.6280940  99.7643800 127.5425290  64.7111410  98.8428880 127.0231630
  50.1000880 103.6780890 140.3420110  50.2092000 102.7375630 140.2015500
  49.4481440 103.9435640 139.6933840  58.0913470 101.9496780 141.7418230
  57.7710340 101.2306020 142.2863920  57.4171830 102.6251850 141.8154290
  56.1327640 102.7957230 126.6851380  56.1237740 103.5286920 126.0695890
  55.2126000 102.5488810 126.7778340  51.7334280  98.0172120 127.4298140
  51.1262230  98.7571020 127.4393440  52.2083630  98.1071480 126.6036340
  61.3067070  92.1822940 137.1055030  61.6747890  91.3618150 137.4334600
  60.4465270  92.2424830 137.5210680  59.1187240 102.8585470 125.3476570
  59.2199220 102.6549460 124.4178550  58.2188980 102.6043750 125.5524350
  56.6413130  93.4165830 129.3300470  55.9329280  93.8852170 129.7714080
  56.9257610  92.7587840 129.9645660  58.2669060  94.8362530 137.3293000
  58.7654310  95.3108350 137.9944850  58.4092010  93.9126050 137.5363030
  60.6728560  90.1416490 130.7696260  60.5496340  90.1602620 129.8205770
  61.6213120  90.1895430 130.8894660  57.7605350 105.3771790 130.0424240
  58.0146850 105.3393180 129.1203610  56.8117830 105.2505120 130.0352490
  54.8448150  91.7250910 126.7051180  55.6938680  92.1621060 126.6391370
  54.4779420  92.0371170 127.5323240  65.4735920  91.0530490 138.1721390
  64.9709520  91.7935890 138.5115200  66.2892580  91.4414490 137.8558180
  53.7439570  97.9783270 125.1786710  54.5102840  97.8664630 125.7412140
  53.8214260  97.2821240 124.5263480  52.4386330  95.4108340 125.8619600
  52.5189920  94.4635850 125.9737000  53.3306080  95.7415220 125.9680260
  53.2401040 105.5603730 132.9654140  53.9763520 105.0119190 133.2362710
  53.6241960 106.4259740 132.8260130  50.1246520 101.6277300 128.8395650
  49.1986300 101.8698440 128.8301060  50.5902950 102.4551560 128.7180400
  52.2459320 104.7449800 142.1539720  53.0472050 105.0661850 142.5675120
  51.7311140 104.3845380 142.8759630  56.3503350 104.7334040 124.7879710
  57.1431960 105.0222870 124.3361500  55.8307700 104.3026210 124.1092190
  61.0823950 100.8529670 142.1015130  60.4762110 100.8761270 141.3610880
  60.7778060 100.1212710 142.6382380  62.5124320 104.5809960 140.7124540
  63.4646070 104.4967980 140.6624780  62.3652540 105.2451670 141.3858330
  65.4033520 103.9604170 126.2116450  65.1175030 103.5469310 125.3970630
  65.2053070 104.8891880 126.0916970  49.9657130  97.2323260 141.0975770
  50.4696150  96.6530540 141.6692000  49.2264550  97.5163490 141.6352140
  56.8680750  99.9537450 124.6522060  56.7631390  99.3389800 125.3783440
  56.7004970  99.4303340 123.8685070  57.0195070  98.6394250 140.6311290
  56.2540740  99.2079250 140.5465960  57.2011030  98.3470460 139.7379520
  64.1618420 100.3699580 141.1886310  64.9027890 100.7075340 140.6853770
  63.3991100 100.5391640 140.6356080  51.9980210  95.3752850 141.9925840
  52.0385550  95.0766720 142.9011070  52.8525710  95.7760460 141.8333360
  53.9386020  93.9544950 139.9600330  53.4082480  93.4635900 139.3323670
  54.6074090  94.3829150 139.4258260  58.2886240  96.9986010 124.4006450
  58.8091900  96.2835030 124.0347600  58.9354640  97.6371880 124.7006960
  62.8364080  98.4214410 139.7241520  63.2505100  98.5759490 140.5731940
  61.9015080  98.5469630 139.8867300  63.3086250  95.7610570 141.7280670
  63.8907020  95.0062890 141.6401150  63.4848020  96.2918010 140.9512150
  54.4258320  90.9207320 140.0397620  54.3315190  90.3028070 139.3148490
  53.8455710  91.6473610 139.8127530  57.1919760  89.4780560 137.0725010
  56.7437060  89.5004820 136.2270560  56.5584960  89.0799580 137.6695310
  57.5979310  98.3734890 137.6937450  58.0167420  99.2167620 137.5213690
  56.6787940  98.5106930 137.4644230  59.9343210  96.1051070 139.0775290
  60.0539420  95.5092210 139.8170130  60.7937210  96.1420760 138.6576590
  62.2731110  96.6588260 137.6537800  61.7466330  97.1830880 137.0502940
  62.6162450  97.2915650 138.2847530  54.6717500  94.0481630 124.0987510
  54.4706560  93.1848990 124.4600850  54.5009550  93.9614990 123.1609110
  55.4486730 104.6787900 138.8095180  54.9107820 105.4033960 138.4903880
  55.7020690 104.2018240 138.0192520  56.7011980  92.6472420 140.3351110
  57.2911670  92.3388270 141.0228930  55.8832220  92.1752170 140.4911010
  61.5205410  92.2638230 140.5684130  60.8320930  91.6019770 140.5034120
  62.2411430  91.8176500 141.0132590  53.4700300  91.1482250 124.0865390
  53.7726200  91.1549680 123.1784540  54.2094890  90.7980110 124.5833050
  58.3048940 105.9139110 139.0681830  58.2307640 106.8174250 139.3754200
  57.4027780 105.5951010 139.0403900  56.6885230  90.0916870 125.0721590
  56.3407230  89.4140860 124.4924040  56.8898000  89.6306380 125.8864980
  58.8534270 105.0797620 126.6908190  59.7485060 105.4182590 126.7126950
  58.8851900 104.3577030 126.0632470  52.4930430 100.4524670 124.9195190
  52.9305300 100.9954340 125.5752770  52.9778160  99.6271620 124.9291530
  49.7076230 103.2413700 132.3715450  50.0379240 102.3734760 132.1394090
  50.1367230 103.4472220 133.2020410  54.3038150 101.5722710 130.0317420
  54.0033690 101.4487680 130.9321330  54.1975640 100.7131300 129.6233150
  50.1966440 104.1084290 135.1097080  49.7597430 104.2885090 135.9421230
  50.7644120 104.8658910 134.9678800  65.8328620 103.6101290 139.3974390
  65.2330610 103.6693850 138.6538310  65.9622520 102.6706270 139.5271240
  67.0730070 101.3519110 124.7344100  66.2423030 101.4195760 125.2051330
  67.2501900 102.2423230 124.4310960  66.5286530  98.0966590 127.2378300
  67.2905440  98.6663240 127.3437990  66.5440900  97.5293790 128.0086610
  50.0290870  96.6204520 131.4685960  49.3739710  96.3516160 130.8245660
  50.8668820  96.5109000 131.0187940  64.5180260 100.3353270 137.4950550
  63.7040100 100.7650430 137.7576340  64.9254460 100.9471680 136.8819600
  62.9781310  91.4145810 125.6904450  63.3966190  91.2276790 124.8501110
  62.6717370  90.5624860 126.0007380  66.4771040  96.3269950 129.3880250
  66.1014640  95.5597880 128.9561540  65.7474160  96.7092650 129.8755180
  51.0666800  97.0057090 136.0089300  51.4339840  96.9184490 136.8885320
  50.4977620  96.2423640 135.9096160  65.8670660  95.4741470 139.0219770
  65.6356750  95.2454220 138.1217720  66.1275210  96.3941020 138.9764660
  50.6182800  93.9166180 139.9147720  49.7238850  93.8832940 140.2541430
  51.1580350  94.1152970 140.6798970  64.3058730  90.6997900 141.7999470
  65.1828910  90.7081300 142.1833470  64.3179570  89.9628740 141.1891820
  49.2428950  93.8303450 127.4111290  48.3393030  94.0933650 127.2362950
  49.7269570  94.1014620 126.6311250  65.7522000  94.5527440 132.6887490
  66.2759480  94.0590090 132.0577660  66.3381420  94.6877800 133.4335060
  65.9311720  94.6367310 136.2107040  64.9814430  94.6030850 136.3252030
  66.1124730  95.5467420 135.9756810  51.7856160  92.8868990 125.3205670
  52.4947860  92.4652210 124.8352950  51.0696100  92.9544220 124.6889020
  51.4330320  88.9408320 124.3608320  52.1558450  89.4817260 124.6789540
  51.7054840  88.6671740 123.4849860  65.2421970  93.8100790 128.6279900
  65.7381090  93.5771660 129.4128780  65.0438040  92.9712630 128.2117540
  50.8754510  88.3470180 137.0056260  50.5269330  88.8034000 137.7714440
  50.5442210  87.4527310 137.0878690  52.4818880 101.5189780 141.1709450
  52.4388510 101.1482690 142.0523910  52.6129890 102.4567350 141.3111270
  56.1824910 103.0749370 136.7719170  55.9416270 103.3423930 135.8849690
  57.1227550 103.2455100 136.8270030  58.3879330  89.5382060 140.5275680
  58.3268220  90.1303890 141.2771090  59.3279710  89.4308020 140.3825940
  61.0253890  89.1952120 140.1667970  61.6394300  89.5131410 139.5049050
  61.5703450  88.7100710 140.7863830  67.4429070 105.0943750 137.5729810
  66.9487350 105.4912620 136.8556940  66.8342360 104.4692960 137.9667090
  51.5475150  87.8746380 140.2807030  52.0958140  87.6934430 139.5173140
  51.6130460  87.0840490 140.8163340  52.3206910 104.4652030 138.2907230
  51.7267230 104.3336730 139.0297270  52.3130750 103.6290170 137.8249330
  61.7661930  87.7584260 136.4937260  60.8921770  88.0919370 136.2910190
  61.6572680  87.2857440 137.3189130  62.6733910  89.9655130 137.8778980
  62.3447270  89.1506890 137.4980710  63.6216210  89.9224940 137.7544670
  65.1268520 105.7367170 134.8516550  64.6671490 106.4882980 134.4774570
  64.4980980 105.0173640 134.7931350  51.9519140 101.8310410 137.2415270
  51.2253200 101.2115700 137.1741220  52.0128290 102.2251020 136.3713350
  55.5564240 104.0455410 134.0264680  56.0729260 103.4342770 133.5012940
  56.2061620 104.5484190 134.5175690  58.2959740 104.9363900 134.8533660
  58.5837550 104.6818200 133.9766670  58.8082960 104.3841260 135.4439230
  59.5136750  88.6754100 135.4330170  58.7308540  89.1499600 135.7126930
  59.2199680  87.7708930 135.3243350  64.0657820  89.3777200 133.4779260
  64.5065910  89.3222300 132.6300860  63.7965410  90.2935210 133.5489440
  50.2349140 105.1484800 130.4512030  50.0671180 104.5155480 131.1493920
  49.3683650 105.3544200 130.1006220  50.8577160  88.9801580 127.9543890
  51.6156520  89.0930460 127.3807920  50.3954330  89.8170780 127.9087320
  57.3990970  91.0940850 130.9446200  56.5865480  90.7197740 130.6042080
  57.9032610  90.3385930 131.2467390  61.9015950  87.7583300 132.1829270
  62.5045320  88.3303510 132.6577790  61.1608940  88.3222740 131.9603170
  51.8411840 103.8418030 127.8962170  51.3159460 104.2226060 127.1924130
  51.7656420 104.4668800 128.6171880  53.2302310  89.5065630 126.4945860
  53.7595070  88.7195430 126.3653810  53.8630630  90.1856820 126.7281390
  55.4240150  89.2440770 129.5491250  54.7942890  88.5428080 129.7161380
  54.8845290  90.0044900 129.3324410  58.3632100 105.8580000 142.2201860
  59.2899410 105.6224270 142.2637820  58.3482530 106.6852000 141.7387890
  66.5977160 105.4005570 129.2176110  66.7729350 104.7143310 128.5737030
  65.8998730 105.9252620 128.8252780  55.5495710  88.5224750 141.9843740
  55.2679980  89.0258350 141.2204560  55.9315410  87.7246500 141.6185870
  54.4404810 105.7900410 126.7711420  55.1723630 105.5059690 126.2235310
  54.6998480 105.5513690 127.6610800  53.6019600 101.9065140 126.7757750
  52.9728480 102.3750240 127.3243580  53.7167430 101.0614360 127.2103940
  62.1511170  87.9378330 142.5624210  62.0376620  88.2572940 143.4575730
  62.9680910  88.3390840 142.2661490  64.9309660 105.0849860 142.0442900
  65.7234980 104.5899090 141.8368860  65.2242810 105.7640000 142.6518510
  51.6145140  93.0071520 109.4686370  50.7261840  93.3487490 109.3666250
  51.8986330  92.8071840 108.5767200  59.6601520  93.2177390 115.0407310
  60.0366340  92.3449270 114.9280980  59.5621030  93.5536090 114.1497750
  53.7906530  91.5903020 110.5024750  53.8973280  92.4906750 110.8093510
  52.8798890  91.5420990 110.2119400  63.4425640  90.7127830 111.9735650
  64.2635260  90.2224400 112.0161130  63.4759720  91.3025490 112.7267490
  67.7325190  92.7294580 118.5379280  67.0277360  93.1176290 118.0194390
  67.9983110  93.4244870 119.1400210  53.9150360  89.1987950 119.1013350
  53.9168800  89.7160340 118.2959250  53.0854670  88.7218130 119.0783280
  63.6787120  92.6528210 114.7463190  62.9742690  92.9413100 115.3266300
  64.0399280  93.4628320 114.3862750  53.5965690  90.9097910 117.1083800
  53.9382500  91.7539960 116.8137670  52.6581500  91.0581650 117.2249140
  66.7474040  92.0983000 115.1372400  65.7998950  92.1321980 115.2687830
  67.0724030  92.9121950 115.5221760  59.6543420  92.7346010 107.1655670
  58.7147090  92.8959970 107.2508130  59.9726680  93.4531690 106.6191660
  53.9859600  93.7636960 116.7307280  54.5374190  93.8732300 115.9560530
  54.5003110  94.1374560 117.4462510  55.4582680 103.2278020 122.5497770
  55.4298110 103.6320970 121.6826200  55.2947650 102.2988380 122.3869370
  65.4553470  88.5178930 105.9937550  65.1426130  88.6105760 106.8936620
  66.2165940  89.0959960 105.9434980  67.4097500 104.0105120 123.8461940
  67.8857220 104.4888010 124.5251020  68.0304660 103.9422610 123.1207440
  49.6120980  99.0553870 116.2583530  49.6901400  99.1902640 115.3139250
  50.2262660  98.3469760 116.4511650  50.8568610 100.7554060 112.6689710
  50.4496690 100.8968650 111.8143310  51.7481620 100.4714220 112.4660920
  58.7269080  92.0942320 119.4373880  58.2648450  92.3025340 120.2493820
  58.3247190  91.2801670 119.1344550  56.6712700  95.2492950 122.2280080
  56.5756300  94.3087680 122.0780480  57.5144680  95.4708020 121.8328150
  60.0676120  92.9934280 112.1913740  60.4605690  93.3106480 111.3782430
  60.4292970  92.1146160 112.3058260  51.8023240  91.6606620 120.3813860
  51.4086630  92.5081830 120.5886640  51.1141640  91.0232990 120.5722500
  60.6531260  95.5840030 116.2864520  59.9212380  96.0926840 116.6354620
  60.2555600  94.7670010 115.9853300  57.0908650  92.2594230 114.6917010
  57.0944710  91.8184180 113.8421550  57.9859770  92.5811560 114.7988830
  57.1528800  93.2606310 107.6823770  57.2741620  93.2192790 108.6309590
  56.7677310  94.1230460 107.5270500  61.1157170  91.0373710 115.6987460
  61.1329910  91.4882360 116.5429310  60.8672750  90.1379350 115.9120900
  57.3916620  96.3196010 116.4382420  57.7586750  95.8454580 117.1843760
  57.2021680  97.1937580 116.7790760  55.1815990  95.3604650 118.7566630
  54.8773060  96.2396630 118.9816990  56.1362450  95.4204440 118.7924070
  64.4685760  98.5631000 115.1459870  65.1884880  99.0586290 114.7555980
  64.2667580  97.8848890 114.5013740  59.9295700  89.9568960 109.2889260
  59.1160310  89.4582130 109.2134570  59.7357650  90.7967210 108.8725610
  62.6444090  94.3288610 107.5851420  63.5323710  94.6405840 107.4102760
  62.6149180  93.4560860 107.1932000  51.2379720  96.2007390 119.9037990
  50.8794660  96.8661240 120.4911330  50.9434280  95.3690940 120.2750610
  54.4392840  96.6591630 122.7877540  54.1392980  96.8048810 121.8905360
  55.2104080  96.0996920 122.6950930  59.7821290 101.4560630 120.7832670
  59.7965830 100.5241590 120.5651580  59.0746390 101.5420390 121.4222440
  60.4887270 101.1010550 116.5950620  61.1309500 100.4003710 116.7082790
  61.0136620 101.8808990 116.4147510  62.2624890 101.9005450 119.7986680
  62.5981130 102.4872140 120.4764600  61.3425230 101.7698160 120.0284470
  50.1159020 105.4126030 107.0934220  50.4756660 106.0115370 106.4391490
  49.9751360 105.9585920 107.8669250  49.8128290  89.6900630 120.5810090
  49.0986810  89.8897550 121.1862700  50.2323330  88.9140200 120.9524890
  50.1000880 103.6780890 121.5676620  50.2092000 102.7375630 121.4272010
  49.4481440 103.9435640 120.9190350  58.0913470 101.9496780 122.9674740
  57.7710340 101.2306020 123.5120430  57.4171830 102.6251850 123.0410800
  61.3067070  92.1822940 118.3311540  61.6747890  91.3618150 118.6591110
  60.4465270  92.2424830 118.7467190  64.6729100  91.1379880 109.1399100
  64.0442260  91.2425550 108.4257330  64.1781020  91.3576660 109.9292980
  58.2669060  94.8362530 118.5549510  58.7654310  95.3108350 119.2201360
  58.4092010  93.9126050 118.7619540  54.8448150  91.7250910 107.9307690
  55.6938680  92.1621060 107.8647880  54.4779420  92.0371170 108.7579750
  65.4735920  91.0530490 119.3977900  64.9709520  91.7935890 119.7371710
  66.2892580  91.4414490 119.0814690  52.2459320 104.7449800 123.3796230
  53.0472050 105.0661850 123.7931630  51.7311140 104.3845380 124.1016140
  49.9657130  97.2323260 122.3232280  50.4696150  96.6530540 122.8948510
  49.2264550  97.5163490 122.8608650  51.9980210  95.3752850 123.2182350
  52.0385550  95.0766720 124.1267580  52.8525710  95.7760460 123.0589870
  53.9386020  93.9544950 121.1856840  53.4082480  93.4635900 120.5580180
  54.6074090  94.3829150 120.6514770  54.4258320  90.9207320 121.2654130
  54.3315190  90.3028070 120.5405000  53.8455710  91.6473610 121.0384040
  57.1919760  89.4780560 118.2981520  56.7437060  89.5004820 117.4527070
  56.5584960  89.0799580 118.8951820  54.6717500  94.0481630 105.3244020
  54.4706560  93.1848990 105.6857360  54.5009550  93.9614990 104.3865620
  56.7011980  92.6472420 121.5607620  57.2911670  92.3388270 122.2485440
  55.8832220  92.1752170 121.7167520  62.1505810  88.8589860 107.8530900
  62.4308100  88.0157760 108.2090320  61.3771540  89.0912970 108.3669650
  53.4700300  91.1482250 105.3121900  53.7726200  91.1549680 104.4041050
  54.2094890  90.7980110 105.8089560  56.6885230  90.0916870 106.2978100
  56.3407230  89.4140860 105.7180550  56.8898000  89.6306380 107.1121490
  52.4930430 100.4524670 106.1451700  52.9305300 100.9954340 106.8009280
  52.9778160  99.6271620 106.1548040  49.7076230 103.2413700 113.5971960
  50.0379240 102.3734760 113.3650600  50.1367230 103.4472220 114.4276920
  67.0730070 101.3519110 105.9600610  66.2423030 101.4195760 106.4307840
  67.2501900 102.2423230 105.6567470  67.5346500  98.9516690 113.3076740
  67.9055330  98.1684010 112.9012710  68.1748430  99.6405790 113.1294040
  62.9781310  91.4145810 106.9160960  63.3966190  91.2276790 106.0757620
  62.6717370  90.5624860 107.2263890  66.4771040  96.3269950 110.6136760
  66.1014640  95.5597880 110.1818050  65.7474160  96.7092650 111.1011690
  51.0666800  97.0057090 117.2345810  51.4339840  96.9184490 118.1141830
  50.4977620  96.2423640 117.1352670  50.6182800  93.9166180 121.1404230
  49.7238850  93.8832940 121.4797940  51.1580350  94.1152970 121.9055480
  65.7522000  94.5527440 113.9144000  66.2759480  94.0590090 113.2834170
  66.3381420  94.6877800 114.6591570  51.7856160  92.8868990 106.5462180
  52.4947860  92.4652210 106.0609460  51.0696100  92.9544220 105.9145530
  51.4330320  88.9408320 105.5864830  52.1558450  89.4817260 105.9046050
  51.7054840  88.6671740 104.7106370  65.2421970  93.8100790 109.8536410
  65.7381090  93.5771660 110.6385290  65.0438040  92.9712630 109.4374050
  51.1222510  88.1914510 115.4887450  51.7698700  87.6411890 115.0482610
  51.5424350  88.4457660 116.3103260  66.6709130  92.4461740 112.3874090
  66.5608410  92.2917780 113.3256360  67.4316720  91.9182680 112.1449500
  65.0174850  88.3855870 118.8457090  65.6547070  88.9990010 119.2116280
  65.1649740  88.4216530 117.9006320  67.5599400  90.2769660 105.6280230
  68.4848710  90.1450840 105.4198520  67.5375190  90.3562480 106.5816680
  67.6337890  91.0480320 108.2536940  66.8389390  90.9825440 108.7829850
  67.8381170  91.9830960 108.2422290  50.8754510  88.3470180 118.2312770
  50.5269330  88.8034000 118.9970950  50.5442210  87.4527310 118.3135200
  52.4818880 101.5189780 122.3965960  52.4388510 101.1482690 123.2780420
  52.6129890 102.4567350 122.5367780  51.5475150  87.8746380 121.5063540
  52.0958140  87.6934430 120.7429650  51.6130460  87.0840490 122.0419850
  64.0657820  89.3777200 114.7035770  64.5065910  89.3222300 113.8557370
  63.7965410  90.2935210 114.7745950  65.9296390  89.0092440 112.7144590
  65.8684790  88.0653660 112.5675610  66.7088420  89.1172530 113.2598050
  50.2349140 105.1484800 111.6768540  50.0671180 104.5155480 112.3750430
  49.3683650 105.3544200 111.3262730  50.8577160  88.9801580 109.1800400
  51.6156520  89.0930460 108.6064430  50.3954330  89.8170780 109.1343830
  65.0450550  88.1604860 108.6826060  65.2401180  89.0588310 108.9493490
  64.2580420  87.9291940 109.1759010  51.8411840 103.8418030 109.1218680
  51.3159460 104.2226060 108.4180640  51.7656420 104.4668800 109.8428390
  53.2302310  89.5065630 107.7202370  53.7595070  88.7195430 107.5910320
  53.8630630  90.1856820 107.9537900  58.3632100 105.8580000 123.4458370
  59.2899410 105.6224270 123.4894330  58.3482530 106.6852000 122.9644400
  55.5495710  88.5224750 123.2100250  55.2679980  89.0258350 122.4461070
  55.9315410  87.7246500 122.8442380  53.6019600 101.9065140 108.0014260
  52.9728480 102.3750240 108.5500090  53.7167430 101.0614360 108.4360450
  61.0569320  95.9570800  94.1515460  60.9763370  95.0425410  93.8807170
  60.6433740  96.4537870  93.4455170  59.1887360  97.7349820  96.0324730
  58.4129460  97.2550260  96.3223300  59.8400290  97.0555470  95.8580890
  63.2094790 102.1410010  94.8123860  62.7476320 101.3697250  95.1411030
  64.0220340 102.1676080  95.3176310  59.4358100 104.4268020  94.4327850
  58.8169540 104.8825520  93.8622290  60.2909880 104.5819480  94.0317550
  58.6296350 100.4107010  96.0394890  58.5604630  99.4696950  95.8784020
  59.3916210 100.5008420  96.6117460  59.6601520  93.2177390  96.2663820
  60.0366340  92.3449270  96.1537490  59.5621030  93.5536090  95.3754260
  55.6314260  94.5589390  96.0606440  56.1392480  95.0570360  96.7011460
  56.1627500  93.7824590  95.8845800  67.7325190  92.7294580  99.7635790
  67.0277360  93.1176290  99.2450900  67.9983110  93.4244870 100.3656720
  53.9150360  89.1987950 100.3269860  53.9168800  89.7160340  99.5215760
  53.0854670  88.7218130 100.3039790  60.3021450  99.3107260  91.8259760
  59.6838720  99.7756710  91.2622480  60.8144700 100.0034740  92.2429270
  63.6787120  92.6528210  95.9719700  62.9742690  92.9413100  96.5522810
  64.0399280  93.4628320  95.6119260  49.6704650  99.9963790  89.1999390
  49.2932630 100.4850890  88.4684290  49.9277720 100.6689070  89.8305920
  57.2793580  88.3980180  94.6584900  57.5868560  87.8427070  93.9420400
  56.3494280  88.5324640  94.4757890  59.6674340  96.4629010  91.3945020
  58.7403620  96.3966390  91.6233490  59.8199160  97.4009140  91.2800260
  59.6543420  92.7346010  88.3912180  58.7147090  92.8959970  88.4764640
  59.9726680  93.4531690  87.8448170  63.6971630  98.0249310  91.8980270
  63.0784050  97.6868860  91.2506570  63.6796080  97.3809070  92.6059460
  55.2730980  96.9893750  94.1764750  54.8687980  96.2771000  93.6810650
  55.3594100  96.6446990  95.0652790  55.7412680 100.6761310  96.3403960
  55.4440970 100.0706780  95.6611740  56.6912500 100.7138620  96.2293320
  61.8736330  97.2636120  88.9053020  62.3129610  96.4258550  88.7590840
  62.5864750  97.8965520  88.9917160  59.9831710 102.2032190  92.8734260
  60.4227620 102.9456520  92.4589650  59.9218600 102.4458760  93.7973220
  62.6501890 105.1901310  90.2297270  62.4903030 104.9004250  91.1279100
  62.4848600 104.4141440  89.6942500  55.1290270 104.9699840  92.0068890
  54.9532750 104.0535380  91.7936690  54.2746010 105.3287130  92.2466690
  62.3528020 102.6988870  88.7895270  61.6593180 102.6966160  88.1297550
  63.0950880 102.2748190  88.3589440  61.9177950 104.3251580  92.8643760
  62.3734900 103.5440960  93.1782380  62.2570470 105.0358400  93.4084940
  58.7269080  92.0942320 100.6630390  58.2648450  92.3025340 101.4750330
  58.3247190  91.2801670 100.3601060  57.5558090  88.8484500  89.9400900
  56.9312270  88.8444370  90.6654210  57.4688210  87.9815460  89.5436870
  56.4775170  89.7721130  96.9184670  56.7747500  90.6783960  96.8376690
  57.0260730  89.2839910  96.3044240  61.4611250  94.3570740  91.3866970
  60.8620140  95.0806540  91.2030590  62.0090860  94.2947520  90.6043420
  60.0676120  92.9934280  93.4170250  60.4605690  93.3106480  92.6038940
  60.4292970  92.1146160  93.5314770  51.8023240  91.6606620 101.6070370
  51.4086630  92.5081830 101.8143150  51.1141640  91.0232990 101.7979010
  58.3768290  91.7441590 104.6767110  57.6866610  91.5513790 105.3113200
  59.1200590  92.0276230 105.2091410  49.2910520  93.5255200  86.8503170
  49.2085190  94.4685960  86.9918160  48.9393580  93.3830110  85.9715520
  60.6531260  95.5840030  97.5121030  59.9212380  96.0926840  97.8611130
  60.2555600  94.7670010  97.2109810  57.0908650  92.2594230  95.9173520
  57.0944710  91.8184180  95.0678060  57.9859770  92.5811560  96.0245340
  57.1528800  93.2606310  88.9080280  57.2741620  93.2192790  89.8566100
  56.7677310  94.1230460  88.7527010  61.1157170  91.0373710  96.9243970
  61.1329910  91.4882360  97.7685820  60.8672750  90.1379350  97.1377410
  56.1650300  95.5707450  88.3063580  55.5967200  95.1225700  87.6799490
  56.8739300  95.9300230  87.7728730  64.5427920  88.4505890 102.7630350
  64.8673690  87.7195550 103.2888330  64.5784430  88.1319530 101.8611340
  53.7097780  99.5665640  90.5789990  52.9360040  99.0263260  90.4188710
  54.4392410  99.0472250  90.2407750  64.4685760  98.5631000  96.3716380
  65.1884880  99.0586290  95.9812490  64.2667580  97.8848890  95.7270250
  62.6444090  94.3288610  88.8107930  63.5323710  94.6405840  88.6359270
  62.6149180  93.4560860  88.4188510  53.7535180  99.2346020  94.2168800
  54.2713850  98.4314280  94.1625690  53.3019200  99.1725160  95.0585630
  58.6404680 100.5012300  89.4896100  58.9820380 101.2454530  88.9939420
  57.8117390 100.8143420  89.8520930  61.5232090  99.8228140  94.8541610
  61.8755910  99.2256270  94.1942980  60.6394420  99.4972370  95.0249860
  57.6095370 100.5825830  92.2612020  58.2966500 101.1295040  92.6419610
  56.8227790 101.1266560  92.2961630  49.7487770  96.1998650  87.7529100
  50.6182620  96.4823450  88.0365020  49.2578090  97.0134520  87.6377910
  56.9122580  97.5871860  91.8737380  57.3685360  98.3977110  92.0997570
  56.5610790  97.2695000  92.7055870  59.2155190 103.0978200  99.1029680
  59.8597410 103.3037580  99.7803100  59.5784630 102.3366600  98.6500530
  60.4887270 101.1010550  97.8207130  61.1309500 100.4003710  97.9339300
  61.0136620 101.8808990  97.6404020  49.8128290  89.6900630 101.8066600
  49.0986810  89.8897550 102.4119210  50.2323330  88.9140200 102.1781400
  63.9159240  99.3031110  89.2060430  63.6280940  99.7643800  89.9938310
  64.7111410  98.8428880  89.4744650  56.1327640 102.7957230  89.1364400
  56.1237740 103.5286920  88.5208910  55.2126000 102.5488810  89.2291360
  51.7334280  98.0172120  89.8811160  51.1262230  98.7571020  89.8906460
  52.2083630  98.1071480  89.0549360  61.3067070  92.1822940  99.5568050
  61.6747890  91.3618150  99.8847620  60.4465270  92.2424830  99.9723700
  59.1187240 102.8585470  87.7989590  59.2199220 102.6549460  86.8691570
  58.2188980 102.6043750  88.0037370  57.7605350 105.3771790  92.4937260
  58.0146850 105.3393180  91.5716630  56.8117830 105.2505120  92.4865510
  65.4735920  91.0530490 100.6234410  64.9709520  91.7935890 100.9628220
  66.2892580  91.4414490 100.3071200  63.7657930  96.2963670  94.0695770
  62.8248070  96.3113900  94.2443460  64.0802000  95.5099630  94.5156070
  53.7439570  97.9783270  87.6299730  54.5102840  97.8664630  88.1925160
  53.8214260  97.2821240  86.9776500  52.4386330  95.4108340  88.3132620
  52.5189920  94.4635850  88.4250020  53.3306080  95.7415220  88.4193280
  53.2401040 105.5603730  95.4167160  53.9763520 105.0119190  95.6875730
  53.6241960 106.4259740  95.2773150  50.1246520 101.6277300  91.2908670
  49.1986300 101.8698440  91.2814080  50.5902950 102.4551560  91.1693420
  61.0823950 100.8529670 104.5528150  60.4762110 100.8761270 103.8123900
  60.7778060 100.1212710 105.0895400  62.5124320 104.5809960 103.1637560
  63.4646070 104.4967980 103.1137800  62.3652540 105.2451670 103.8371350
  56.8680750  99.9537450  87.1035080  56.7631390  99.3389800  87.8296460
  56.7004970  99.4303340  86.3198090  60.1083480  99.0157480  87.7077070
  59.5593580  99.4626780  88.3519810  60.7302740  98.5106730  88.2314740
  55.7758600  97.9748400  89.6042370  56.1975020  97.8088270  90.4473760
  55.9009440  97.1648630  89.1097510  58.2886240  96.9986010  86.8519470
  58.8091900  96.2835030  86.4860620  58.9354640  97.6371880  87.1519980
  54.4258320  90.9207320 102.4910640  54.3315190  90.3028070 101.7661510
  53.8455710  91.6473610 102.2640550  57.1919760  89.4780560  99.5238030
  56.7437060  89.5004820  98.6783580  56.5584960  89.0799580 100.1208330
  54.6717500  94.0481630  86.5500530  54.4706560  93.1848990  86.9113870
  54.5009550  93.9614990  85.6122130  56.7011980  92.6472420 102.7864130
  57.2911670  92.3388270 103.4741950  55.8832220  92.1752170 102.9424030
  61.5205410  92.2638230 103.0197150  60.8320930  91.6019770 102.9547140
  62.2411430  91.8176500 103.4645610  56.6885230  90.0916870  87.5234610
  56.3407230  89.4140860  86.9437060  56.8898000  89.6306380  88.3378000
  52.4930430 100.4524670  87.3708210  52.9305300 100.9954340  88.0265790
  52.9778160  99.6271620  87.3804550  54.3038150 101.5722710  92.4830440
  54.0033690 101.4487680  93.3834350  54.1975640 100.7131300  92.0746170
  50.1966440 104.1084290  97.5610100  49.7597430 104.2885090  98.3934250
  50.7644120 104.8658910  97.4191820  50.6182800  93.9166180 102.3660740
  49.7238850  93.8832940 102.7054450  51.1580350  94.1152970 103.1311990
  64.3058730  90.6997900 104.2512490  65.1828910  90.7081300 104.6346490
  64.3179570  89.9628740 103.6404840  65.0174850  88.3855870 100.0713600
  65.6547070  88.9990010 100.4372790  65.1649740  88.4216530  99.1262830
  50.8754510  88.3470180  99.4569280  50.5269330  88.8034000 100.2227460
  50.5442210  87.4527310  99.5391710  58.3879330  89.5382060 102.9788700
  58.3268220  90.1303890 103.7284110  59.3279710  89.4308020 102.8338960
  61.0253890  89.1952120 102.6180990  61.6394300  89.5131410 101.9562070
  61.5703450  88.7100710 103.2376850  51.5475150  87.8746380 102.7320050
  52.0958140  87.6934430 101.9686160  51.6130460  87.0840490 103.2676360
  61.7661930  87.7584260  98.9450280  60.8921770  88.0919370  98.7423210
  61.6572680  87.2857440  99.7702150  62.6733910  89.9655130 100.3292000
  62.3447270  89.1506890  99.9493730  63.6216210  89.9224940 100.2057690
  58.2959740 104.9363900  97.3046680  58.5837550 104.6818200  96.4279690
  58.8082960 104.3841260  97.8952250  59.5136750  88.6754100  97.8843190
  58.7308540  89.1499600  98.1639950  59.2199680  87.7708930  97.7756370
  50.2349140 105.1484800  92.9025050  50.0671180 104.5155480  93.6006940
  49.3683650 105.3544200  92.5519240  51.8411840 103.8418030  90.3475190
  51.3159460 104.2226060  89.6437150  51.7656420 104.4668800  91.0684900
  55.5495710  88.5224750 104.4356760  55.2679980  89.0258350 103.6717580
  55.9315410  87.7246500 104.0698890  53.6019600 101.9065140  89.2270770
  52.9728480 102.3750240  89.7756600  53.7167430 101.0614360  89.6616960
  62.1511170  87.9378330 105.0137230  62.0376620  88.2572940 105.9088750
  62.9680910  88.3390840 104.7174510  64.9309660 105.0849860 104.4955920
  65.7234980 104.5899090 104.2881880  65.2242810 105.7640000 105.1031530
  53.1854450 102.0809720  78.3315020  53.4882490 101.1907460  78.1525240
  53.9298040 102.6379940  78.1037270  49.5778150  95.6077170  77.8039090
  50.1494260  94.8399370  77.8042730  49.5779690  95.9065930  76.8945700
  59.4358100 104.4268020  75.6584360  58.8169540 104.8825520  75.0878800
  60.2909880 104.5819480  75.2574060  50.8203020  91.0161530  79.5908020
  50.6405860  90.1187280  79.8710780  50.4183100  91.5633400  80.2654970
  59.6601520  93.2177390  77.4920330  60.0366340  92.3449270  77.3794000
  59.5621030  93.5536090  76.6010770  53.7906530  91.5903020  72.9537770
  53.8973280  92.4906750  73.2606530  52.8798890  91.5420990  72.6632420
  51.4389690  93.5122030  78.1990360  52.1199800  93.7760400  78.8177760
  51.1237740  92.6722900  78.5328370  63.6787120  92.6528210  77.1976210
  62.9742690  92.9413100  77.7779320  64.0399280  93.4628320  76.8375770
  53.5965690  90.9097910  79.5596820  53.9382500  91.7539960  79.2650690
  52.6581500  91.0581650  79.6762160  65.2949900 102.2703340  79.4603690
  64.6113420 102.9402450  79.4520360  65.8344190 102.4683990  78.6948550
  57.2793580  88.3980180  75.8841410  57.5868560  87.8427070  75.1676910
  56.3494280  88.5324640  75.7014400  62.8308640 104.1147470  78.1748870
  62.8435800 103.7109760  77.3071130  62.2783860 104.8894760  78.0710300
  62.2294080  99.0177310  79.5031480  62.6462870  98.8037420  78.6684940
  62.9533900  99.2750100  80.0740100  66.1756180  97.4164530  79.5947720
  65.3474810  97.4857620  79.1197850  66.7706660  98.0018840  79.1263550
  63.8298290 104.2493180  81.2283570  63.3528850 105.0565370  81.0356180
  63.1460080 103.5971510  81.3809780  61.8736330  97.2636120  70.1309530
  62.3129610  96.4258550  69.9847350  62.5864750  97.8965520  70.2173670
  55.4582680 103.2278020  85.0010790  55.4298110 103.6320970  84.1339220
  55.2947650 102.2988380  84.8382390  49.6120980  99.0553870  78.7096550
  49.6901400  99.1902640  77.7652270  50.2262660  98.3469760  78.9024670
  50.8568610 100.7554060  75.1202730  50.4496690 100.8968650  74.2656330
  51.7481620 100.4714220  74.9173940  60.6747490 104.9045970  82.0269780
  61.1892160 104.8153980  82.8292210  59.8316570 105.2505670  82.3197690
  62.6501890 105.1901310  71.4553780  62.4903030 104.9004250  72.3535610
  62.4848600 104.4141440  70.9199010  62.3528020 102.6988870  70.0151780
  61.6593180 102.6966160  69.3554060  63.0950880 102.2748190  69.5845950
  61.9177950 104.3251580  74.0900270  62.3734900 103.5440960  74.4038890
  62.2570470 105.0358400  74.6341450  54.4399270  89.2273800  76.2851580
  53.9967420  90.0083340  75.9536100  54.9984260  89.5503690  76.9922520
  58.7269080  92.0942320  81.8886900  58.2648450  92.3025340  82.7006840
  58.3247190  91.2801670  81.5857570  60.8223300  94.8153020  85.1182350
  61.1476710  93.9816770  84.7784580  61.6103630  95.3381540  85.2660680
  56.4775170  89.7721130  78.1441180  56.7747500  90.6783960  78.0633200
  57.0260730  89.2839910  77.5300750  54.2313490  94.3507370  74.0132830
  54.0054410  94.1344540  74.9179450  53.4506020  94.7835830  73.6678800
  61.4611250  94.3570740  72.6123480  60.8620140  95.0806540  72.4287100
  62.0090860  94.2947520  71.8299930  60.0676120  92.9934280  74.6426760
  60.4605690  93.3106480  73.8295450  60.4292970  92.1146160  74.7571280
  58.3768290  91.7441590  85.9023620  57.6866610  91.5513790  86.5369710
  59.1200590  92.0276230  86.4347920  49.1040290  89.5835080  76.8656960
  48.8153340  90.1537940  77.5781940  49.8486050  89.1039530  77.2288190
  60.6531260  95.5840030  78.7377540  59.9212380  96.0926840  79.0867640
  60.2555600  94.7670010  78.4366320  57.0908650  92.2594230  77.1430030
  57.0944710  91.8184180  76.2934570  57.9859770  92.5811560  77.2501850
  52.9411030  92.1420720  76.1024240  52.6011080  92.6195950  76.8591290
  52.1788350  91.6885840  75.7425340  57.1528800  93.2606310  70.1336790
  57.2741620  93.2192790  71.0822610  56.7677310  94.1230460  69.9783520
  61.1157170  91.0373710  78.1500480  61.1329910  91.4882360  78.9942330
  60.8672750  90.1379350  78.3633920  56.1650300  95.5707450  69.5320090
  55.5967200  95.1225700  68.9056000  56.8739300  95.9300230  68.9985240
  50.2557110  91.0639700  75.0188910  49.9704030  90.6995370  75.8567530
  50.1935970  90.3320160  74.4052050  64.4685760  98.5631000  77.5972890
  65.1884880  99.0586290  77.2069000  64.2667580  97.8848890  76.9526760
  59.8504560  98.6340060  83.4841890  59.7841870  97.7135730  83.2299480
  59.2209700  98.7315500  84.1986530  59.7821290 101.4560630  83.2345690
  59.7965830 100.5241590  83.0164600  59.0746390 101.5420390  83.8735460
  59.2155190 103.0978200  80.3286190  59.8597410 103.3037580  81.0059610
  59.5784630 102.3366600  79.8757040  52.8134360  87.9309510  73.5716410
  52.6848990  87.9227410  74.5201330  51.9896380  88.2692600  73.2207420
  64.3342990 101.3859170  68.7702780  64.1080570 100.6689610  69.3627420
  63.9439190 101.1371610  67.9324530  62.2624890 101.9005450  82.2499700
  62.5981130 102.4872140  82.9277620  61.3425230 101.7698160  82.4797490
  63.9159240  99.3031110  70.4316940  63.6280940  99.7643800  71.2194820
  64.7111410  98.8428880  70.7001160  58.0913470 101.9496780  85.4187760
  57.7710340 101.2306020  85.9633450  57.4171830 102.6251850  85.4923820
  61.3067070  92.1822940  80.7824560  61.6747890  91.3618150  81.1104130
  60.4465270  92.2424830  81.1980210  59.1187240 102.8585470  69.0246100
  59.2199220 102.6549460  68.0948080  58.2188980 102.6043750  69.2293880
  56.6413130  93.4165830  73.0070000  55.9329280  93.8852170  73.4483610
  56.9257610  92.7587840  73.6415190  60.6728560  90.1416490  74.4465790
  60.5496340  90.1602620  73.4975300  61.6213120  90.1895430  74.5664190
  57.7605350 105.3771790  73.7193770  58.0146850 105.3393180  72.7973140
  56.8117830 105.2505120  73.7122020  54.8448150  91.7250910  70.3820710
  55.6938680  92.1621060  70.3160900  54.4779420  92.0371170  71.2092770
  63.7657930  96.2963670  75.2952280  62.8248070  96.3113900  75.4699970
  64.0802000  95.5099630  75.7412580  53.2401040 105.5603730  76.6423670
  53.9763520 105.0119190  76.9132240  53.6241960 106.4259740  76.5029660
  61.0823950 100.8529670  85.7784660  60.4762110 100.8761270  85.0380410
  60.7778060 100.1212710  86.3151910  62.5124320 104.5809960  84.3894070
  63.4646070 104.4967980  84.3394310  62.3652540 105.2451670  85.0627860
  65.4033520 103.9604170  69.8885980  65.1175030 103.5469310  69.0740160
  65.2053070 104.8891880  69.7686500  49.9657130  97.2323260  84.7745300
  50.4696150  96.6530540  85.3461530  49.2264550  97.5163490  85.3121670
  56.8680750  99.9537450  68.3291590  56.7631390  99.3389800  69.0552970
  56.7004970  99.4303340  67.5454600  60.1083480  99.0157480  68.9333580
  59.5593580  99.4626780  69.5776320  60.7302740  98.5106730  69.4571250
  51.9980210  95.3752850  85.6695370  52.0385550  95.0766720  86.5780600
  52.8525710  95.7760460  85.5102890  58.2886240  96.9986010  68.0775980
  58.8091900  96.2835030  67.7117130  58.9354640  97.6371880  68.3776490
  57.1919760  89.4780560  80.7494540  56.7437060  89.5004820  79.9040090
  56.5584960  89.0799580  81.3464840  54.6717500  94.0481630  67.7757040
  54.4706560  93.1848990  68.1370380  54.5009550  93.9614990  66.8378640
  55.4486730 104.6787900  82.4864710  54.9107820 105.4033960  82.1673410
  55.7020690 104.2018240  81.6962050  56.7011980  92.6472420  84.0120640
  57.2911670  92.3388270  84.6998460  55.8832220  92.1752170  84.1680540
  61.5205410  92.2638230  84.2453660  60.8320930  91.6019770  84.1803650
  62.2411430  91.8176500  84.6902120  58.3048940 105.9139110  82.7451360
  58.2307640 106.8174250  83.0523730  57.4027780 105.5951010  82.7173430
  58.8534270 105.0797620  70.3677720  59.7485060 105.4182590  70.3896480
  58.8851900 104.3577030  69.7402000  50.0290870  96.6204520  75.1455490
  49.3739710  96.3516160  74.5015190  50.8668820  96.5109000  74.6957470
  64.5180260 100.3353270  81.1720080  63.7040100 100.7650430  81.4345870
  64.9254460 100.9471680  80.5589130  50.6182800  93.9166180  83.5917250
  49.7238850  93.8832940  83.9310960  51.1580350  94.1152970  84.3568500
  51.4330320  88.9408320  68.0377850  52.1558450  89.4817260  68.3559070
  51.7054840  88.6671740  67.1619390  51.1222510  88.1914510  77.9400470
  51.7698700  87.6411890  77.4995630  51.5424350  88.4457660  78.7616280
  65.0174850  88.3855870  81.2970110  65.6547070  88.9990010  81.6629300
  65.1649740  88.4216530  80.3519340  56.1824910 103.0749370  80.4488700
  55.9416270 103.3423930  79.5619220  57.1227550 103.2455100  80.5039560
  58.3879330  89.5382060  84.2045210  58.3268220  90.1303890  84.9540620
  59.3279710  89.4308020  84.0595470  61.0253890  89.1952120  83.8437500
  61.6394300  89.5131410  83.1818580  61.5703450  88.7100710  84.4633360
  61.7661930  87.7584260  80.1706790  60.8921770  88.0919370  79.9679720
  61.6572680  87.2857440  80.9958660  62.6733910  89.9655130  81.5548510
  62.3447270  89.1506890  81.1750240  63.6216210  89.9224940  81.4314200
  65.1268520 105.7367170  78.5286080  64.6671490 106.4882980  78.1544100
  64.4980980 105.0173640  78.4700880  55.5564240 104.0455410  77.7034210
  56.0729260 103.4342770  77.1782470  56.2061620 104.5484190  78.1945220
  58.2959740 104.9363900  78.5303190  58.5837550 104.6818200  77.6536200
  58.8082960 104.3841260  79.1208760  59.5136750  88.6754100  79.1099700
  58.7308540  89.1499600  79.3896460  59.2199680  87.7708930  79.0012880
  50.8577160  88.9801580  71.6313420  51.6156520  89.0930460  71.0577450
  50.3954330  89.8170780  71.5856850  57.3990970  91.0940850  74.6215730
  56.5865480  90.7197740  74.2811610  57.9032610  90.3385930  74.9236920
  61.9015950  87.7583300  75.8598800  62.5045320  88.3303510  76.3347320
  61.1608940  88.3222740  75.6372700  53.2302310  89.5065630  70.1715390
  53.7595070  88.7195430  70.0423340  53.8630630  90.1856820  70.4050920
  55.4240150  89.2440770  73.2260780  54.7942890  88.5428080  73.3930910
  54.8845290  90.0044900  73.0093940  59.1887360  97.7349820  58.4837750
  58.4129460  97.2550260  58.7736320  59.8400290  97.0555470  58.3093910
  63.2094790 102.1410010  57.2636880  62.7476320 101.3697250  57.5924050
  64.0220340 102.1676080  57.7689330  53.1854450 102.0809720  59.5571530
  53.4882490 101.1907460  59.3781750  53.9298040 102.6379940  59.3293780
  51.6145140  93.0071520  53.1455900  50.7261840  93.3487490  53.0435780
  51.8986330  92.8071840  52.2536730  59.4358100 104.4268020  56.8840870
  58.8169540 104.8825520  56.3135310  60.2909880 104.5819480  56.4830570
  58.6296350 100.4107010  58.4907910  58.5604630  99.4696950  58.3297040
  59.3916210 100.5008420  59.0630480  65.2949900 102.2703340  60.6860200
  64.6113420 102.9402450  60.6776870  65.8344190 102.4683990  59.9205060
  62.8308640 104.1147470  59.4005380  62.8435800 103.7109760  58.5327640
  62.2783860 104.8894760  59.2966810  64.1254060 100.8363690  54.4895550
  64.0150390  99.8938020  54.6144970  64.1222310 101.1979330  55.3758310
  62.2294080  99.0177310  60.7287990  62.6462870  98.8037420  59.8941450
  62.9533900  99.2750100  61.2996610  55.7412680 100.6761310  58.7916980
  55.4440970 100.0706780  58.1124760  56.6912500 100.7138620  58.6806340
  63.8298290 104.2493180  62.4540080  63.3528850 105.0565370  62.2612690
  63.1460080 103.5971510  62.6066290  59.9831710 102.2032190  55.3247280
  60.4227620 102.9456520  54.9102670  59.9218600 102.4458760  56.2486240
  51.9735610  95.8838730  54.1284420  51.8533210  96.6100820  53.5165690
  51.6636500  95.1141640  53.6512330  67.4097500 104.0105120  67.5231470
  67.8857220 104.4888010  68.2020550  68.0304660 103.9422610  66.7976970
  60.6747490 104.9045970  63.2526290  61.1892160 104.8153980  64.0548720
  59.8316570 105.2505670  63.5454200  62.6501890 105.1901310  52.6810290
  62.4903030 104.9004250  53.5792120  62.4848600 104.4141440  52.1455520
  55.1290270 104.9699840  54.4581910  54.9532750 104.0535380  54.2449710
  54.2746010 105.3287130  54.6979710  62.3528020 102.6988870  51.2408290
  61.6593180 102.6966160  50.5810570  63.0950880 102.2748190  50.8102460
  61.9177950 104.3251580  55.3156780  62.3734900 103.5440960  55.6295400
  62.2570470 105.0358400  55.8597960  49.2910520  93.5255200  49.3016190
  49.2085190  94.4685960  49.4431180  48.9393580  93.3830110  48.4228540
  50.2557110  91.0639700  56.2445420  49.9704030  90.6995370  57.0824040
  50.1935970  90.3320160  55.6308560  53.7097780  99.5665640  53.0303010
  52.9360040  99.0263260  52.8701730  54.4392410  99.0472250  52.6920770
  59.8504560  98.6340060  64.7098400  59.7841870  97.7135730  64.4555990
  59.2209700  98.7315500  65.4243040  53.7535180  99.2346020  56.6681820
  54.2713850  98.4314280  56.6138710  53.3019200  99.1725160  57.5098650
  58.6404680 100.5012300  51.9409120  58.9820380 101.2454530  51.4452440
  57.8117390 100.8143420  52.3033950  59.7821290 101.4560630  64.4602200
  59.7965830 100.5241590  64.2421110  59.0746390 101.5420390  65.0991970
  65.9445610 102.4942710  53.4582940  65.3021770 101.8398330  53.7326660
  65.5576270 102.8997800  52.6823610  57.6095370 100.5825830  54.7125040
  58.2966500 101.1295040  55.0932630  56.8227790 101.1266560  54.7474650
  49.7487770  96.1998650  50.2042120  50.6182620  96.4823450  50.4878040
  49.2578090  97.0134520  50.0890930  59.2155190 103.0978200  61.5542700
  59.8597410 103.3037580  62.2316120  59.5784630 102.3366600  61.1013550
  60.4887270 101.1010550  60.2720150  61.1309500 100.4003710  60.3852320
  61.0136620 101.8808990  60.0917040  64.3342990 101.3859170  49.9959290
  64.1080570 100.6689610  50.5883930  63.9439190 101.1371610  49.1581040
  62.2624890 101.9005450  63.4756210  62.5981130 102.4872140  64.1534130
  61.3425230 101.7698160  63.7054000  63.9159240  99.3031110  51.6573450
  63.6280940  99.7643800  52.4451330  64.7111410  98.8428880  51.9257670
  58.0913470 101.9496780  66.6444270  57.7710340 101.2306020  67.1889960
  57.4171830 102.6251850  66.7180330  56.1327640 102.7957230  51.5877420
  56.1237740 103.5286920  50.9721930  55.2126000 102.5488810  51.6804380
  51.7334280  98.0172120  52.3324180  51.1262230  98.7571020  52.3419480
  52.2083630  98.1071480  51.5062380  59.1187240 102.8585470  50.2502610
  59.2199220 102.6549460  49.3204590  58.2188980 102.6043750  50.4550390
  57.7605350 105.3771790  54.9450280  58.0146850 105.3393180  54.0229650
  56.8117830 105.2505120  54.9378530  52.4386330  95.4108340  50.7645640
  52.5189920  94.4635850  50.8763040  53.3306080  95.7415220  50.8706300
  65.7683510 103.4672520  58.1963050  65.8930930 104.2903690  58.6686860
  66.6349070 103.2563250  57.8487200  53.2401040 105.5603730  57.8680180
  53.9763520 105.0119190  58.1388750  53.6241960 106.4259740  57.7286170
  56.3503350 104.7334040  49.6905750  57.1431960 105.0222870  49.2387540
  55.8307700 104.3026210  49.0118230  61.0823950 100.8529670  67.0041170
  60.4762110 100.8761270  66.2636920  60.7778060 100.1212710  67.5408420
  62.5124320 104.5809960  65.6150580  63.4646070 104.4967980  65.5650820
  62.3652540 105.2451670  66.2884370  65.4033520 103.9604170  51.1142490
  65.1175030 103.5469310  50.2996670  65.2053070 104.8891880  50.9943010
  64.1618420 100.3699580  66.0912350  64.9027890 100.7075340  65.5879810
  63.3991100 100.5391640  65.5382120  62.8364080  98.4214410  64.6267560
  63.2505100  98.5759490  65.4757980  61.9015080  98.5469630  64.7893340
  55.4486730 104.6787900  63.7121220  54.9107820 105.4033960  63.3929920
  55.7020690 104.2018240  62.9218560  58.3048940 105.9139110  63.9707870
  58.2307640 106.8174250  64.2780240  57.4027780 105.5951010  63.9429940
  58.8534270 105.0797620  51.5934230  59.7485060 105.4182590  51.6152990
  58.8851900 104.3577030  50.9658510  52.4930430 100.4524670  49.8221230
  52.9305300 100.9954340  50.4778810  52.9778160  99.6271620  49.8317570
  54.3038150 101.5722710  54.9343460  54.0033690 101.4487680  55.8347370
  54.1975640 100.7131300  54.5259190  65.8328620 103.6101290  64.3000430
  65.2330610 103.6693850  63.5564350  65.9622520 102.6706270  64.4297280
  67.0730070 101.3519110  49.6370140  66.2423030 101.4195760  50.1077370
  67.2501900 102.2423230  49.3337000  64.5180260 100.3353270  62.3976590
  63.7040100 100.7650430  62.6602380  64.9254460 100.9471680  61.7845640
  49.2428950  93.8303450  52.3137330  48.3393030  94.0933650  52.1388990
  49.7269570  94.1014620  51.5337290  64.5756310 105.0871870  55.9244860
  65.1715380 104.7656440  55.2479280  64.8334460 104.6143690  56.7158130
  56.1824910 103.0749370  61.6745210  55.9416270 103.3423930  60.7875730
  57.1227550 103.2455100  61.7296070  65.1268520 105.7367170  59.7542590
  64.6671490 106.4882980  59.3800610  64.4980980 105.0173640  59.6957390
  55.5564240 104.0455410  58.9290720  56.0729260 103.4342770  58.4038980
  56.2061620 104.5484190  59.4201730  58.2959740 104.9363900  59.7559700
  58.5837550 104.6818200  58.8792710  58.8082960 104.3841260  60.3465270
  58.3632100 105.8580000  67.1227900  59.2899410 105.6224270  67.1663860
  58.3482530 106.6852000  66.6413930  66.5977160 105.4005570  54.1202150
  66.7729350 104.7143310  53.4763070  65.8998730 105.9252620  53.7278820
  54.4404810 105.7900410  51.6737460  55.1723630 105.5059690  51.1261350
  54.6998480 105.5513690  52.5636840  53.6019600 101.9065140  51.6783790
  52.9728480 102.3750240  52.2269620  53.7167430 101.0614360  52.1129980
  64.9309660 105.0849860  66.9468940  65.7234980 104.5899090  66.7394900
  65.2242810 105.7640000  67.5544550  61.0569320  95.9570800  37.8284990
  60.9763370  95.0425410  37.5576700  60.6433740  96.4537870  37.1224700
  53.2053190  98.0469630  40.5870020  52.3738070  97.7918340  40.9866530
  53.8134170  98.1180400  41.3227940  51.6145140  93.0071520  34.3712410
  50.7261840  93.3487490  34.2692290  51.8986330  92.8071840  33.4793240
  53.7906530  91.5903020  35.4050790  53.8973280  92.4906750  35.7119550
  52.8798890  91.5420990  35.1145440  63.4425640  90.7127830  36.8761690
  64.2635260  90.2224400  36.9187170  63.4759720  91.3025490  37.6293530
  55.1653210  98.8383130  42.1812890  54.8322590  99.4652050  42.8233960
  55.3419890  99.3645010  41.4014560  57.2793580  88.3980180  38.3354430
  57.5868560  87.8427070  37.6189930  56.3494280  88.5324640  38.1527420
  59.6674340  96.4629010  35.0714550  58.7403620  96.3966390  35.3003020
  59.8199160  97.4009140  34.9569790  55.2730980  96.9893750  37.8534280
  54.8687980  96.2771000  37.3580180  55.3594100  96.6446990  38.7422320
  63.8298290 104.2493180  43.6796590  63.3528850 105.0565370  43.4869200
  63.1460080 103.5971510  43.8322800  55.4582680 103.2278020  47.4523810
  55.4298110 103.6320970  46.5852240  55.2947650 102.2988380  47.2895410
  65.4553470  88.5178930  30.8963590  65.1426130  88.6105760  31.7962660
  66.2165940  89.0959960  30.8461020  67.4097500 104.0105120  48.7487980
  67.8857220 104.4888010  49.4277060  68.0304660 103.9422610  48.0233480
  66.8130750 101.2017970  45.9087990  66.9393810 100.9629850  44.9905170
  66.8552130 100.3702510  46.3810070  60.6747490 104.9045970  44.4782800
  61.1892160 104.8153980  45.2805230  59.8316570 105.2505670  44.7710710
  49.6680500 100.0968040  43.7004030  49.8311540  99.6273400  42.8823400
  50.1332950  99.5891600  44.3652870  54.4399270  89.2273800  38.7364600
  53.9967420  90.0083340  38.4049120  54.9984260  89.5503690  39.4435540
  54.2313490  94.3507370  36.4645850  54.0054410  94.1344540  37.3692470
  53.4506020  94.7835830  36.1191820  60.0676120  92.9934280  37.0939780
  60.4605690  93.3106480  36.2808470  60.4292970  92.1146160  37.2084300
  56.1650300  95.5707450  31.9833110  55.5967200  95.1225700  31.3569020
  56.8739300  95.9300230  31.4498260  51.2419480  99.4719470  45.8599840
  50.8574270  98.8313140  46.4582800  51.5531670 100.1755590  46.4294570
  59.7821290 101.4560630  45.6858710  59.7965830 100.5241590  45.4677620
  59.0746390 101.5420390  46.3248480  52.8134360  87.9309510  36.0229430
  52.6848990  87.9227410  36.9714350  51.9896380  88.2692600  35.6720440
  62.2624890 101.9005450  44.7012720  62.5981130 102.4872140  45.3790640
  61.3425230 101.7698160  44.9310510  50.1159020 105.4126030  31.9960260
  50.4756660 106.0115370  31.3417530  49.9751360 105.9585920  32.7695290
  49.8128290  89.6900630  45.4836130  49.0986810  89.8897550  46.0888740
  50.2323330  88.9140200  45.8550930  58.0913470 101.9496780  47.8700780
  57.7710340 101.2306020  48.4146470  57.4171830 102.6251850  47.9436840
  56.6413130  93.4165830  35.4583020  55.9329280  93.8852170  35.8996630
  56.9257610  92.7587840  36.0928210  54.8448150  91.7250910  32.8333730
  55.6938680  92.1621060  32.7673920  54.4779420  92.0371170  33.6605790
  63.7657930  96.2963670  37.7465300  62.8248070  96.3113900  37.9212990
  64.0802000  95.5099630  38.1925600  56.3503350 104.7334040  30.9162260
  57.1431960 105.0222870  30.4644050  55.8307700 104.3026210  30.2374740
  62.5124320 104.5809960  46.8407090  63.4646070 104.4967980  46.7907330
  62.3652540 105.2451670  47.5140880  49.9657130  97.2323260  47.2258320
  50.4696150  96.6530540  47.7974550  49.2264550  97.5163490  47.7634690
  56.8680750  99.9537450  30.7804610  56.7631390  99.3389800  31.5065990
  56.7004970  99.4303340  29.9967620  64.1618420 100.3699580  47.3168860
  64.9027890 100.7075340  46.8136320  63.3991100 100.5391640  46.7638630
  55.7758600  97.9748400  33.2811900  56.1975020  97.8088270  34.1243290
  55.9009440  97.1648630  32.7867040  58.2886240  96.9986010  30.5289000
  58.8091900  96.2835030  30.1630150  58.9354640  97.6371880  30.8289510
  54.6717500  94.0481630  30.2270060  54.4706560  93.1848990  30.5883400
  54.5009550  93.9614990  29.2891660  58.3048940 105.9139110  45.1964380
  58.2307640 106.8174250  45.5036750  57.4027780 105.5951010  45.1686450
  65.8328620 103.6101290  45.5256940  65.2330610 103.6693850  44.7820860
  65.9622520 102.6706270  45.6553790  66.4771040  96.3269950  35.5162800
  66.1014640  95.5597880  35.0844090  65.7474160  96.7092650  36.0037730
  51.0666800  97.0057090  42.1371850  51.4339840  96.9184490  43.0167870
  50.4977620  96.2423640  42.0378710  51.7856160  92.8868990  31.4488220
  52.4947860  92.4652210  30.9635500  51.0696100  92.9544220  30.8171570
  65.2421970  93.8100790  34.7562450  65.7381090  93.5771660  35.5411330
  65.0438040  92.9712630  34.3400090  51.1222510  88.1914510  40.3913490
  51.7698700  87.6411890  39.9508650  51.5424350  88.4457660  41.2129300
  50.8754510  88.3470180  43.1338810  50.5269330  88.8034000  43.8996990
  50.5442210  87.4527310  43.2161240  52.4818880 101.5189780  47.2992000
  52.4388510 101.1482690  48.1806460  52.6129890 102.4567350  47.4393820
  67.4429070 105.0943750  43.7012360  66.9487350 105.4912620  42.9839490
  66.8342360 104.4692960  44.0949640  65.1268520 105.7367170  40.9799100
  64.6671490 106.4882980  40.6057120  64.4980980 105.0173640  40.9213900
  65.9296390  89.0092440  37.6170630  65.8684790  88.0653660  37.4701650
  66.7088420  89.1172530  38.1624090  50.8577160  88.9801580  34.0826440
  51.6156520  89.0930460  33.5090470  50.3954330  89.8170780  34.0369870
  57.3990970  91.0940850  37.0728750  56.5865480  90.7197740  36.7324630
  57.9032610  90.3385930  37.3749940  61.9015950  87.7583300  38.3111820
  62.5045320  88.3303510  38.7860340  61.1608940  88.3222740  38.0885720
  65.0450550  88.1604860  33.5852100  65.2401180  89.0588310  33.8519530
  64.2580420  87.9291940  34.0785050  55.4240150  89.2440770  35.6773800
  54.7942890  88.5428080  35.8443930  54.8845290  90.0044900  35.4606960
  58.3632100 105.8580000  48.3484410  59.2899410 105.6224270  48.3920370
  58.3482530 106.6852000  47.8670440  64.9309660 105.0849860  48.1725450
  65.7234980 104.5899090  47.9651410  65.2242810 105.7640000  48.7801060
  63.2094790 102.1410010  19.7149900  62.7476320 101.3697250  20.0437070
  64.0220340 102.1676080  20.2202350  51.6145140  93.0071520  15.5968920
  50.7261840  93.3487490  15.4948800  51.8986330  92.8071840  14.7049750
  49.5778150  95.6077170  21.4808620  50.1494260  94.8399370  21.4812260
  49.5779690  95.9065930  20.5715230  59.4358100 104.4268020  19.3353890
  58.8169540 104.8825520  18.7648330  60.2909880 104.5819480  18.9343590
  53.7906530  91.5903020  16.6307300  53.8973280  92.4906750  16.9376060
  52.8798890  91.5420990  16.3401950  51.4389690  93.5122030  21.8759890
  52.1199800  93.7760400  22.4947290  51.1237740  92.6722900  22.2097900
  60.3021450  99.3107260  16.7285800  59.6838720  99.7756710  16.1648520
  60.8144700 100.0034740  17.1455310  53.5965690  90.9097910  23.2366350
  53.9382500  91.7539960  22.9420220  52.6581500  91.0581650  23.3531690
  49.6704650  99.9963790  14.1025430  49.2932630 100.4850890  13.3710330
  49.9277720 100.6689070  14.7331960  65.2949900 102.2703340  23.1373220
  64.6113420 102.9402450  23.1289890  65.8344190 102.4683990  22.3718080
  62.8308640 104.1147470  21.8518400  62.8435800 103.7109760  20.9840660
  62.2783860 104.8894760  21.7479830  64.1254060 100.8363690  16.9408570
  64.0150390  99.8938020  17.0657990  64.1222310 101.1979330  17.8271330
  59.6674340  96.4629010  16.2971060  58.7403620  96.3966390  16.5259530
  59.8199160  97.4009140  16.1826300  59.6543420  92.7346010  13.2938220
  58.7147090  92.8959970  13.3790680  59.9726680  93.4531690  12.7474210
  66.1756180  97.4164530  23.2717250  65.3474810  97.4857620  22.7967380
  66.7706660  98.0018840  22.8033080  63.6971630  98.0249310  16.8006310
  63.0784050  97.6868860  16.1532610  63.6796080  97.3809070  17.5085500
  63.8298290 104.2493180  24.9053100  63.3528850 105.0565370  24.7125710
  63.1460080 103.5971510  25.0579310  61.8736330  97.2636120  13.8079060
  62.3129610  96.4258550  13.6616880  62.5864750  97.8965520  13.8943200
  59.9831710 102.2032190  17.7760300  60.4227620 102.9456520  17.3615690
  59.9218600 102.4458760  18.6999260  65.4553470  88.5178930  12.1220100
  65.1426130  88.6105760  13.0219170  66.2165940  89.0959960  12.0717530
  51.9735610  95.8838730  16.5797440  51.8533210  96.6100820  15.9678710
  51.6636500  95.1141640  16.1025350  50.8568610 100.7554060  18.7972260
  50.4496690 100.8968650  17.9425860  51.7481620 100.4714220  18.5943470
  60.6747490 104.9045970  25.7039310  61.1892160 104.8153980  26.5061740
  59.8316570 105.2505670  25.9967220  62.6501890 105.1901310  15.1323310
  62.4903030 104.9004250  16.0305140  62.4848600 104.4141440  14.5968540
  55.1290270 104.9699840  16.9094930  54.9532750 104.0535380  16.6962730
  54.2746010 105.3287130  17.1492730  62.3528020 102.6988870  13.6921310
  61.6593180 102.6966160  13.0323590  63.0950880 102.2748190  13.2615480
  61.9177950 104.3251580  17.7669800  62.3734900 103.5440960  18.0808420
  62.2570470 105.0358400  18.3110980  54.4399270  89.2273800  19.9621110
  53.9967420  90.0083340  19.6305630  54.9984260  89.5503690  20.6692050
  57.5558090  88.8484500  14.8426940  56.9312270  88.8444370  15.5680250
  57.4688210  87.9815460  14.4462910  56.4775170  89.7721130  21.8210710
  56.7747500  90.6783960  21.7402730  57.0260730  89.2839910  21.2070280
  61.4611250  94.3570740  16.2893010  60.8620140  95.0806540  16.1056630
  62.0090860  94.2947520  15.5069460  56.6712700  95.2492950  28.3562630
  56.5756300  94.3087680  28.2063030  57.5144680  95.4708020  27.9610700
  60.0676120  92.9934280  18.3196290  60.4605690  93.3106480  17.5064980
  60.4292970  92.1146160  18.4340810  49.2910520  93.5255200  11.7529210
  49.2085190  94.4685960  11.8944200  48.9393580  93.3830110  10.8741560
  52.9411030  92.1420720  19.7793770  52.6011080  92.6195950  20.5360820
  52.1788350  91.6885840  19.4194870  57.1528800  93.2606310  13.8106320
  57.2741620  93.2192790  14.7592140  56.7677310  94.1230460  13.6553050
  56.1650300  95.5707450  13.2089620  55.5967200  95.1225700  12.5825530
  56.8739300  95.9300230  12.6754770  50.2557110  91.0639700  18.6958440
  49.9704030  90.6995370  19.5337060  50.1935970  90.3320160  18.0821580
  53.7097780  99.5665640  15.4816030  52.9360040  99.0263260  15.3214750
  54.4392410  99.0472250  15.1433790  64.4685760  98.5631000  21.2742420
  65.1884880  99.0586290  20.8838530  64.2667580  97.8848890  20.6296290
  59.8504560  98.6340060  27.1611420  59.7841870  97.7135730  26.9069010
  59.2209700  98.7315500  27.8756060  62.6444090  94.3288610  13.7133970
  63.5323710  94.6405840  13.5385310  62.6149180  93.4560860  13.3214550
  58.6404680 100.5012300  14.3922140  58.9820380 101.2454530  13.8965460
  57.8117390 100.8143420  14.7546970  51.2379720  96.2007390  26.0320540
  50.8794660  96.8661240  26.6193880  50.9434280  95.3690940  26.4033160
  54.4392840  96.6591630  28.9160090  54.1392980  96.8048810  28.0187910
  55.2104080  96.0996920  28.8233480  59.7821290 101.4560630  26.9115220
  59.7965830 100.5241590  26.6934130  59.0746390 101.5420390  27.5504990
  64.9158360  95.6400450  13.1813830  64.8322080  96.0714670  12.3310270
  65.6352550  96.0998800  13.6140650  65.9445610 102.4942710  15.9095960
  65.3021770 101.8398330  16.1839680  65.5576270 102.8997800  15.1336630
  61.5232090  99.8228140  19.7567650  61.8755910  99.2256270  19.0969020
  60.6394420  99.4972370  19.9275900  57.6095370 100.5825830  17.1638060
  58.2966500 101.1295040  17.5445650  56.8227790 101.1266560  17.1987670
  49.7487770  96.1998650  12.6555140  50.6182620  96.4823450  12.9391060
  49.2578090  97.0134520  12.5403950  59.2155190 103.0978200  24.0055720
  59.8597410 103.3037580  24.6829140  59.5784630 102.3366600  23.5526570
  52.8134360  87.9309510  17.2485940  52.6848990  87.9227410  18.1970860
  51.9896380  88.2692600  16.8976950  60.4887270 101.1010550  22.7233170
  61.1309500 100.4003710  22.8365340  61.0136620 101.8808990  22.5430060
  64.3342990 101.3859170  12.4472310  64.1080570 100.6689610  13.0396950
  63.9439190 101.1371610  11.6094060  62.2624890 101.9005450  25.9269230
  62.5981130 102.4872140  26.6047150  61.3425230 101.7698160  26.1567020
  50.1159020 105.4126030  13.2216770  50.4756660 106.0115370  12.5674040
  49.9751360 105.9585920  13.9951800  63.9159240  99.3031110  14.1086470
  63.6280940  99.7643800  14.8964350  64.7111410  98.8428880  14.3770690
  58.0913470 101.9496780  29.0957290  57.7710340 101.2306020  29.6402980
  57.4171830 102.6251850  29.1693350  56.1327640 102.7957230  14.0390440
  56.1237740 103.5286920  13.4234950  55.2126000 102.5488810  14.1317400
  51.7334280  98.0172120  14.7837200  51.1262230  98.7571020  14.7932500
  52.2083630  98.1071480  13.9575400  59.1187240 102.8585470  12.7015630
  59.2199220 102.6549460  11.7717610  58.2188980 102.6043750  12.9063410
  56.6413130  93.4165830  16.6839530  55.9329280  93.8852170  17.1253140
  56.9257610  92.7587840  17.3184720  60.6728560  90.1416490  18.1235320
  60.5496340  90.1602620  17.1744830  61.6213120  90.1895430  18.2433720
  57.7605350 105.3771790  17.3963300  58.0146850 105.3393180  16.4742670
  56.8117830 105.2505120  17.3891550  54.8448150  91.7250910  14.0590240
  55.6938680  92.1621060  13.9930430  54.4779420  92.0371170  14.8862300
  53.7439570  97.9783270  12.5325770  54.5102840  97.8664630  13.0951200
  53.8214260  97.2821240  11.8802540  52.4386330  95.4108340  13.2158660
  52.5189920  94.4635850  13.3276060  53.3306080  95.7415220  13.3219320
  65.7683510 103.4672520  20.6476070  65.8930930 104.2903690  21.1199880
  66.6349070 103.2563250  20.3000220  50.1246520 101.6277300  16.1934710
  49.1986300 101.8698440  16.1840120  50.5902950 102.4551560  16.0719460
  56.3503350 104.7334040  12.1418770  57.1431960 105.0222870  11.6900560
  55.8307700 104.3026210  11.4631250  61.0823950 100.8529670  29.4554190
  60.4762110 100.8761270  28.7149940  60.7778060 100.1212710  29.9921440
  62.5124320 104.5809960  28.0663600  63.4646070 104.4967980  28.0163840
  62.3652540 105.2451670  28.7397390  65.4033520 103.9604170  13.5655510
  65.1175030 103.5469310  12.7509690  65.2053070 104.8891880  13.4456030
  56.8680750  99.9537450  12.0061120  56.7631390  99.3389800  12.7322500
  56.7004970  99.4303340  11.2224130  57.0195070  98.6394250  27.9850350
  56.2540740  99.2079250  27.9005020  57.2011030  98.3470460  27.0918580
  60.1083480  99.0157480  12.6103110  59.5593580  99.4626780  13.2545850
  60.7302740  98.5106730  13.1340780  55.7758600  97.9748400  14.5068410
  56.1975020  97.8088270  15.3499800  55.9009440  97.1648630  14.0123550
  53.9386020  93.9544950  27.3139390  53.4082480  93.4635900  26.6862730
  54.6074090  94.3829150  26.7797320  58.2886240  96.9986010  11.7545510
  58.8091900  96.2835030  11.3886660  58.9354640  97.6371880  12.0546020
  54.6717500  94.0481630  11.4526570  54.4706560  93.1848990  11.8139910
  54.5009550  93.9614990  10.5148170  56.7011980  92.6472420  27.6890170
  57.2911670  92.3388270  28.3767990  55.8832220  92.1752170  27.8450070
  53.4700300  91.1482250  11.4404450  53.7726200  91.1549680  10.5323600
  54.2094890  90.7980110  11.9372110  58.3048940 105.9139110  26.4220890
  58.2307640 106.8174250  26.7293260  57.4027780 105.5951010  26.3942960
  56.6885230  90.0916870  12.4260650  56.3407230  89.4140860  11.8463100
  56.8898000  89.6306380  13.2404040  58.8534270 105.0797620  14.0447250
  59.7485060 105.4182590  14.0666010  58.8851900 104.3577030  13.4171530
  52.4930430 100.4524670  12.2734250  52.9305300 100.9954340  12.9291830
  52.9778160  99.6271620  12.2830590  49.7076230 103.2413700  19.7254510
  50.0379240 102.3734760  19.4933150  50.1367230 103.4472220  20.5559470
  54.3038150 101.5722710  17.3856480  54.0033690 101.4487680  18.2860390
  54.1975640 100.7131300  16.9772210  65.8328620 103.6101290  26.7513450
  65.2330610 103.6693850  26.0077370  65.9622520 102.6706270  26.8810300
  67.0730070 101.3519110  12.0883160  66.2423030 101.4195760  12.5590390
  67.2501900 102.2423230  11.7850020  66.5286530  98.0966590  14.5917360
  67.2905440  98.6663240  14.6977050  66.5440900  97.5293790  15.3625670
  50.0290870  96.6204520  18.8225020  49.3739710  96.3516160  18.1784720
  50.8668820  96.5109000  18.3727000  67.5346500  98.9516690  19.4359290
  67.9055330  98.1684010  19.0295260  68.1748430  99.6405790  19.2576590
  64.5180260 100.3353270  24.8489610  63.7040100 100.7650430  25.1115400
  64.9254460 100.9471680  24.2358660  66.5805700  98.3900960  11.7489880
  66.8554540  99.2979840  11.6209100  66.3916440  98.3263490  12.6851870
  62.9781310  91.4145810  13.0443510  63.3966190  91.2276790  12.2040170
  62.6717370  90.5624860  13.3546440  50.6182800  93.9166180  27.2686780
  49.7238850  93.8832940  27.6080490  51.1580350  94.1152970  28.0338030
  49.2428950  93.8303450  14.7650350  48.3393030  94.0933650  14.5902010
  49.7269570  94.1014620  13.9850310  51.7856160  92.8868990  12.6744730
  52.4947860  92.4652210  12.1892010  51.0696100  92.9544220  12.0428080
  51.4330320  88.9408320  11.7147380  52.1558450  89.4817260  12.0328600
  51.7054840  88.6671740  10.8388920  67.5599400  90.2769660  11.7562780
  68.4848710  90.1450840  11.5481070  67.5375190  90.3562480  12.7099230
  64.5756310 105.0871870  18.3757880  65.1715380 104.7656440  17.6992300
  64.8334460 104.6143690  19.1671150  67.4429070 105.0943750  24.9268870
  66.9487350 105.4912620  24.2096000  66.8342360 104.4692960  25.3206150
  65.1268520 105.7367170  22.2055610  64.6671490 106.4882980  21.8313630
  64.4980980 105.0173640  22.1470410  58.2959740 104.9363900  22.2072720
  58.5837550 104.6818200  21.3305730  58.8082960 104.3841260  22.7978290
  64.0657820  89.3777200  20.8318320  64.5065910  89.3222300  19.9839920
  63.7965410  90.2935210  20.9028500  50.2349140 105.1484800  17.8051090
  50.0671180 104.5155480  18.5032980  49.3683650 105.3544200  17.4545280
  50.8577160  88.9801580  15.3082950  51.6156520  89.0930460  14.7346980
  50.3954330  89.8170780  15.2626380  57.3990970  91.0940850  18.2985260
  56.5865480  90.7197740  17.9581140  57.9032610  90.3385930  18.6006450
  51.8411840 103.8418030  15.2501230  51.3159460 104.2226060  14.5463190
  51.7656420 104.4668800  15.9710940  53.2302310  89.5065630  13.8484920
  53.7595070  88.7195430  13.7192870  53.8630630  90.1856820  14.0820450
  55.4240150  89.2440770  16.9030310  54.7942890  88.5428080  17.0700440
  54.8845290  90.0044900  16.6863470  58.3632100 105.8580000  29.5740920
  59.2899410 105.6224270  29.6176880  58.3482530 106.6852000  29.0926950
  66.5977160 105.4005570  16.5715170  66.7729350 104.7143310  15.9276090
  65.8998730 105.9252620  16.1791840  54.4404810 105.7900410  14.1250480
  55.1723630 105.5059690  13.5774370  54.6998480 105.5513690  15.0149860
  53.6019600 101.9065140  14.1296810  52.9728480 102.3750240  14.6782640
  53.7167430 101.0614360  14.5643000  59.1887360  97.7349820   2.1607280
  58.4129460  97.2550260   2.4505850  59.8400290  97.0555470   1.9863440
  53.2053190  98.0469630   3.0383040  52.3738070  97.7918340   3.4379550
  53.8134170  98.1180400   3.7740960  53.1854450 102.0809720   3.2341060
  53.4882490 101.1907460   3.0551280  53.9298040 102.6379940   3.0063310
  49.5778150  95.6077170   2.7065130  50.1494260  94.8399370   2.7068770
  49.5779690  95.9065930   1.7971740  58.6296350 100.4107010   2.1677440
  58.5604630  99.4696950   2.0066570  59.3916210 100.5008420   2.7400010
  50.8203020  91.0161530   4.4934060  50.6405860  90.1187280   4.7736820
  50.4183100  91.5633400   5.1681010  51.4389690  93.5122030   3.1016400
  52.1199800  93.7760400   3.7203800  51.1237740  92.6722900   3.4354410
  55.6314260  94.5589390   2.1888990  56.1392480  95.0570360   2.8294010
  56.1627500  93.7824590   2.0128350  67.7325190  92.7294580   5.8918340
  67.0277360  93.1176290   5.3733450  67.9983110  93.4244870   6.4939270
  53.9150360  89.1987950   6.4552410  53.9168800  89.7160340   5.6498310
  53.0854670  88.7218130   6.4322340  55.1653210  98.8383130   4.6325910
  54.8322590  99.4652050   5.2746980  55.3419890  99.3645010   3.8527580
  63.6787120  92.6528210   2.1002250  62.9742690  92.9413100   2.6805360
  64.0399280  93.4628320   1.7401810  53.5965690  90.9097910   4.4622860
  53.9382500  91.7539960   4.1676730  52.6581500  91.0581650   4.5788200
  54.3772310 100.8063930   6.4475090  54.9946310 101.4815010   6.1659540
  53.5165430 101.2151910   6.3562590  65.2949900 102.2703340   4.3629730
  64.6113420 102.9402450   4.3546400  65.8344190 102.4683990   3.5974590
  66.7474040  92.0983000   2.4911460  65.7998950  92.1321980   2.6226890
  67.0724030  92.9121950   2.8760820  62.8308640 104.1147470   3.0774910
  62.8435800 103.7109760   2.2097170  62.2783860 104.8894760   2.9736340
  62.2294080  99.0177310   4.4057520  62.6462870  98.8037420   3.5710980
  62.9533900  99.2750100   4.9766140  66.1756180  97.4164530   4.4973760
  65.3474810  97.4857620   4.0223890  66.7706660  98.0018840   4.0289590
  63.1398190  94.2033850   5.4428630  62.7269370  95.0287560   5.6968620
  62.4074140  93.6178890   5.2504990  55.7412680 100.6761310   2.4686510
  55.4440970 100.0706780   1.7894290  56.6912500 100.7138620   2.3575870
  53.9859600  93.7636960   4.0846340  54.5374190  93.8732300   3.3099590
  54.5003110  94.1374560   4.8001570  63.8298290 104.2493180   6.1309610
  63.3528850 105.0565370   5.9382220  63.1460080 103.5971510   6.2835820
  54.8331110 100.4143000   9.1194310  53.9359640 100.6382970   9.3667710
  54.8583980 100.5377940   8.1705710  53.6602330  97.2856320   7.6951680
  53.5210100  98.1579120   8.0639080  52.7783690  96.9429130   7.5499620
  55.4582680 103.2278020   9.9036830  55.4298110 103.6320970   9.0365260
  55.2947650 102.2988380   9.7408430  67.4097500 104.0105120  11.2001000
  67.8857220 104.4888010  11.8790080  68.0304660 103.9422610  10.4746500
  49.6120980  99.0553870   3.6122590  49.6901400  99.1902640   2.6678310
  50.2262660  98.3469760   3.8050710  66.8130750 101.2017970   8.3601010
  66.9393810 100.9629850   7.4418190  66.8552130 100.3702510   8.8323090
  60.6747490 104.9045970   6.9295820  61.1892160 104.8153980   7.7318250
  59.8316570 105.2505670   7.2223730  66.6654760  93.2550430   9.3250750
  66.0499030  93.7630100   8.7966210  66.3451180  92.3548760   9.2676690
  49.6680500 100.0968040   6.1517050  49.8311540  99.6273400   5.3336420
  50.1332950  99.5891600   6.8165890  58.7269080  92.0942320   6.7912940
  58.2648450  92.3025340   7.6032880  58.3247190  91.2801670   6.4883610
  63.7273590  93.3151270   7.9209600  62.8767180  93.0157020   8.2418670
  63.5675380  93.5593280   7.0093420  60.8223300  94.8153020  10.0208390
  61.1476710  93.9816770   9.6810620  61.6103630  95.3381540  10.1686720
  56.4775170  89.7721130   3.0467220  56.7747500  90.6783960   2.9659240
  57.0260730  89.2839910   2.4326790  56.6712700  95.2492950   9.5819140
  56.5756300  94.3087680   9.4319540  57.5144680  95.4708020   9.1867210
  51.8023240  91.6606620   7.7352920  51.4086630  92.5081830   7.9425700
  51.1141640  91.0232990   7.9261560  58.3768290  91.7441590  10.8049660
  57.6866610  91.5513790  11.4395750  59.1200590  92.0276230  11.3373960
  49.1040290  89.5835080   1.7683000  48.8153340  90.1537940   2.4807980
  49.8486050  89.1039530   2.1314230  60.6531260  95.5840030   3.6403580
  59.9212380  96.0926840   3.9893680  60.2555600  94.7670010   3.3392360
  61.1157170  91.0373710   3.0526520  61.1329910  91.4882360   3.8968370
  60.8672750  90.1379350   3.2659960  64.5427920  88.4505890   8.8912900
  64.8673690  87.7195550   9.4170880  64.5784430  88.1319530   7.9893890
  51.2419480  99.4719470   8.3112860  50.8574270  98.8313140   8.9095820
  51.5531670 100.1755590   8.8807590  57.3916620  96.3196010   3.7921480
  57.7586750  95.8454580   4.5382820  57.2021680  97.1937580   4.1329820
  55.1815990  95.3604650   6.1105690  54.8773060  96.2396630   6.3356050
  56.1362450  95.4204440   6.1463130  64.4685760  98.5631000   2.4998930
  65.1884880  99.0586290   2.1095040  64.2667580  97.8848890   1.8552800
  59.8504560  98.6340060   8.3867930  59.7841870  97.7135730   8.1325520
  59.2209700  98.7315500   9.1012570  51.2379720  96.2007390   7.2577050
  50.8794660  96.8661240   7.8450390  50.9434280  95.3690940   7.6289670
  54.4392840  96.6591630  10.1416600  54.1392980  96.8048810   9.2444420
  55.2104080  96.0996920  10.0489990  59.7821290 101.4560630   8.1371730
  59.7965830 100.5241590   7.9190640  59.0746390 101.5420390   8.7761500
  65.9932500  98.0967970   7.4840310  65.2680690  98.6896750   7.2869700
  66.5207960  98.0891510   6.6853680  59.2155190 103.0978200   5.2312230
  59.8597410 103.3037580   5.9085650  59.5784630 102.3366600   4.7783080
  60.4887270 101.1010550   3.9489680  61.1309500 100.4003710   4.0621850
  61.0136620 101.8808990   3.7686570  62.2624890 101.9005450   7.1525740
  62.5981130 102.4872140   7.8303660  61.3425230 101.7698160   7.3823530
  49.8128290  89.6900630   7.9349150  49.0986810  89.8897550   8.5401760
  50.2323330  88.9140200   8.3063950  50.1000880 103.6780890   8.9215680
  50.2092000 102.7375630   8.7811070  49.4481440 103.9435640   8.2729410
  58.0913470 101.9496780  10.3213800  57.7710340 101.2306020  10.8659490
  57.4171830 102.6251850  10.3949860  61.3067070  92.1822940   5.6850600
  61.6747890  91.3618150   6.0130170  60.4465270  92.2424830   6.1006250
  58.2669060  94.8362530   5.9088570  58.7654310  95.3108350   6.5740420
  58.4092010  93.9126050   6.1158600  65.4735920  91.0530490   6.7516960
  64.9709520  91.7935890   7.0910770  66.2892580  91.4414490   6.4353750
  52.2459320 104.7449800  10.7335290  53.0472050 105.0661850  11.1470690
  51.7311140 104.3845380  11.4555200  61.0823950 100.8529670  10.6810700
  60.4762110 100.8761270   9.9406450  60.7778060 100.1212710  11.2177950
  62.5124320 104.5809960   9.2920110  63.4646070 104.4967980   9.2420350
  62.3652540 105.2451670   9.9653900  49.9657130  97.2323260   9.6771340
  50.4696150  96.6530540  10.2487570  49.2264550  97.5163490  10.2147710
  57.0195070  98.6394250   9.2106860  56.2540740  99.2079250   9.1261530
  57.2011030  98.3470460   8.3175090  64.1618420 100.3699580   9.7681880
  64.9027890 100.7075340   9.2649340  63.3991100 100.5391640   9.2151650
  51.9980210  95.3752850  10.5721410  52.0385550  95.0766720  11.4806640
  52.8525710  95.7760460  10.4128930  53.9386020  93.9544950   8.5395900
  53.4082480  93.4635900   7.9119240  54.6074090  94.3829150   8.0053830
  62.8364080  98.4214410   8.3037090  63.2505100  98.5759490   9.1527510
  61.9015080  98.5469630   8.4662870  63.3086250  95.7610570  10.3076240
  63.8907020  95.0062890  10.2196720  63.4848020  96.2918010   9.5307720
  54.4258320  90.9207320   8.6193190  54.3315190  90.3028070   7.8944060
  53.8455710  91.6473610   8.3923100  57.1919760  89.4780560   5.6520580
  56.7437060  89.5004820   4.8066130  56.5584960  89.0799580   6.2490880
  57.5979310  98.3734890   6.2733020  58.0167420  99.2167620   6.1009260
  56.6787940  98.5106930   6.0439800  59.9343210  96.1051070   7.6570860
  60.0539420  95.5092210   8.3965700  60.7937210  96.1420760   7.2372160
  62.2731110  96.6588260   6.2333370  61.7466330  97.1830880   5.6298510
  62.6162450  97.2915650   6.8643100  55.4486730 104.6787900   7.3890750
  54.9107820 105.4033960   7.0699450  55.7020690 104.2018240   6.5988090
  56.7011980  92.6472420   8.9146680  57.2911670  92.3388270   9.6024500
  55.8832220  92.1752170   9.0706580  61.5205410  92.2638230   9.1479700
  60.8320930  91.6019770   9.0829690  62.2411430  91.8176500   9.5928160
  58.3048940 105.9139110   7.6477400  58.2307640 106.8174250   7.9549770
  57.4027780 105.5951010   7.6199470  50.1966440 104.1084290   3.6892650
  49.7597430 104.2885090   4.5216800  50.7644120 104.8658910   3.5474370
  65.8328620 103.6101290   7.9769960  65.2330610 103.6693850   7.2333880
  65.9622520 102.6706270   8.1066810  64.5180260 100.3353270   6.0746120
  63.7040100 100.7650430   6.3371910  64.9254460 100.9471680   5.4615170
  51.0666800  97.0057090   4.5884870  51.4339840  96.9184490   5.4680890
  50.4977620  96.2423640   4.4891730  65.8670660  95.4741470   7.6015340
  65.6356750  95.2454220   6.7013290  66.1275210  96.3941020   7.5560230
  50.6182800  93.9166180   8.4943290  49.7238850  93.8832940   8.8337000
  51.1580350  94.1152970   9.2594540  64.3058730  90.6997900  10.3795040
  65.1828910  90.7081300  10.7629040  64.3179570  89.9628740   9.7687390
  65.9311720  94.6367310   4.7902610  64.9814430  94.6030850   4.9047600
  66.1124730  95.5467420   4.5552380  51.1222510  88.1914510   2.8426510
  51.7698700  87.6411890   2.4021670  51.5424350  88.4457660   3.6642320
  65.0174850  88.3855870   6.1996150  65.6547070  88.9990010   6.5655340
  65.1649740  88.4216530   5.2545380  50.8754510  88.3470180   5.5851830
  50.5269330  88.8034000   6.3510010  50.5442210  87.4527310   5.6674260
  52.4818880 101.5189780   9.7505020  52.4388510 101.1482690  10.6319480
  52.6129890 102.4567350   9.8906840  56.1824910 103.0749370   5.3514740
  55.9416270 103.3423930   4.4645260  57.1227550 103.2455100   5.4065600
  58.3879330  89.5382060   9.1071250  58.3268220  90.1303890   9.8566660
  59.3279710  89.4308020   8.9621510  61.0253890  89.1952120   8.7463540
  61.6394300  89.5131410   8.0844620  61.5703450  88.7100710   9.3659400
  67.4429070 105.0943750   6.1525380  66.9487350 105.4912620   5.4352510
  66.8342360 104.4692960   6.5462660  51.5475150  87.8746380   8.8602600
  52.0958140  87.6934430   8.0968710  51.6130460  87.0840490   9.3958910
  52.3206910 104.4652030   6.8702800  51.7267230 104.3336730   7.6092840
  52.3130750 103.6290170   6.4044900  61.7661930  87.7584260   5.0732830
  60.8921770  88.0919370   4.8705760  61.6572680  87.2857440   5.8984700
  62.6733910  89.9655130   6.4574550  62.3447270  89.1506890   6.0776280
  63.6216210  89.9224940   6.3340240  65.1268520 105.7367170   3.4312120
  64.6671490 106.4882980   3.0570140  64.4980980 105.0173640   3.3726920
  51.9519140 101.8310410   5.8210840  51.2253200 101.2115700   5.7536790
  52.0128290 102.2251020   4.9508920  55.5564240 104.0455410   2.6060250
  56.0729260 103.4342770   2.0808510  56.2061620 104.5484190   3.0971260
  58.2959740 104.9363900   3.4329230  58.5837550 104.6818200   2.5562240
  58.8082960 104.3841260   4.0234800  59.5136750  88.6754100   4.0125740
  58.7308540  89.1499600   4.2922500  59.2199680  87.7708930   3.9038920
  58.3632100 105.8580000  10.7997430  59.2899410 105.6224270  10.8433390
  58.3482530 106.6852000  10.3183460  55.5495710  88.5224750  10.5639310
  55.2679980  89.0258350   9.8000130  55.9315410  87.7246500  10.1981440
  62.1511170  87.9378330  11.1419780  62.0376620  88.2572940  12.0371300
  62.9680910  88.3390840  10.8457060  64.9309660 105.0849860  10.6238470
  65.7234980 104.5899090  10.4164430  65.2242810 105.7640000  11.2314080
  61.0569320  77.1827310 150.4745930  60.9763370  76.2681920 150.2037640
  60.6433740  77.6794380 149.7685640  63.2094790  83.3666520 151.1354330
  62.7476320  82.5953760 151.4641500  64.0220340  83.3932590 151.6406780
  51.6145140  74.2328030 147.0173350  50.7261840  74.5744000 146.9153230
  51.8986330  74.0328350 146.1254180  59.4358100  85.6524530 150.7558320
  58.8169540  86.1082030 150.1852760  60.2909880  85.8075990 150.3548020
  53.7906530  72.8159530 148.0511730  53.8973280  73.7163260 148.3580490
  52.8798890  72.7677500 147.7606380  63.4425640  71.9384340 149.5222630
  64.2635260  71.4480910 149.5648110  63.4759720  72.5282000 150.2754470
  60.3021450  80.5363770 148.1490230  59.6838720  81.0013220 147.5852950
  60.8144700  81.2291250 148.5659740  49.6704650  81.2220300 145.5229860
  49.2932630  81.7107400 144.7914760  49.9277720  81.8945580 146.1536390
  57.2793580  69.6236690 150.9815370  57.5868560  69.0683580 150.2650870
  56.3494280  69.7581150 150.7988360  64.1254060  82.0620200 148.3613000
  64.0150390  81.1194530 148.4862420  64.1222310  82.4235840 149.2475760
  59.6674340  77.6885520 147.7175490  58.7403620  77.6222900 147.9463960
  59.8199160  78.6265650 147.6030730  59.6543420  73.9602520 144.7142650
  58.7147090  74.1216480 144.7995110  59.9726680  74.6788200 144.1678640
  63.6971630  79.2505820 148.2210740  63.0784050  78.9125370 147.5737040
  63.6796080  78.6065580 148.9289930  55.2730980  78.2150260 150.4995220
  54.8687980  77.5027510 150.0041120  55.3594100  77.8703500 151.3883260
  61.8736330  78.4892630 145.2283490  62.3129610  77.6515060 145.0821310
  62.5864750  79.1222030 145.3147630  59.9831710  83.4288700 149.1964730
  60.4227620  84.1713030 148.7820120  59.9218600  83.6715270 150.1203690
  65.4553470  69.7435440 143.5424530  65.1426130  69.8362270 144.4423600
  66.2165940  70.3216470 143.4921960  51.9735610  77.1095240 148.0001870
  51.8533210  77.8357330 147.3883140  51.6636500  76.3398150 147.5229780
  50.8568610  81.9810570 150.2176690  50.4496690  82.1225160 149.3630290
  51.7481620  81.6970730 150.0147900  62.6501890  86.4157820 146.5527740
  62.4903030  86.1260760 147.4509570  62.4848600  85.6397950 146.0172970
  55.1290270  86.1956350 148.3299360  54.9532750  85.2791890 148.1167160
  54.2746010  86.5543640 148.5697160  62.3528020  83.9245380 145.1125740
  61.6593180  83.9222670 144.4528020  63.0950880  83.5004700 144.6819910
  61.9177950  85.5508090 149.1874230  62.3734900  84.7697470 149.5012850
  62.2570470  86.2614910 149.7315410  54.4399270  70.4530310 151.3825540
  53.9967420  71.2339850 151.0510060  54.9984260  70.7760200 152.0896480
  57.5558090  70.0741010 146.2631370  56.9312270  70.0700880 146.9884680
  57.4688210  69.2071970 145.8667340  54.2313490  75.5763880 149.1106790
  54.0054410  75.3601050 150.0153410  53.4506020  76.0092340 148.7652760
  61.4611250  75.5827250 147.7097440  60.8620140  76.3063050 147.5261060
  62.0090860  75.5204030 146.9273890  60.0676120  74.2190790 149.7400720
  60.4605690  74.5362990 148.9269410  60.4292970  73.3402670 149.8545240
  49.2910520  74.7511710 143.1733640  49.2085190  75.6942470 143.3148630
  48.9393580  74.6086620 142.2945990  57.0908650  73.4850740 152.2403990
  57.0944710  73.0440690 151.3908530  57.9859770  73.8068070 152.3475810
  52.9411030  73.3677230 151.1998200  52.6011080  73.8452460 151.9565250
  52.1788350  72.9142350 150.8399300  57.1528800  74.4862820 145.2310750
  57.2741620  74.4449300 146.1796570  56.7677310  75.3486970 145.0757480
  56.1650300  76.7963960 144.6294050  55.5967200  76.3482210 144.0029960
  56.8739300  77.1556740 144.0959200  50.2557110  72.2896210 150.1162870
  49.9704030  71.9251880 150.9541490  50.1935970  71.5576670 149.5026010
  53.7097780  80.7922150 146.9020460  52.9360040  80.2519770 146.7419180
  54.4392410  80.2728760 146.5638220  59.9295700  71.1825470 146.8376240
  59.1160310  70.6838640 146.7621550  59.7357650  72.0223720 146.4212590
  62.6444090  75.5545120 145.1338400  63.5323710  75.8662350 144.9589740
  62.6149180  74.6817370 144.7418980  53.7535180  80.4602530 150.5399270
  54.2713850  79.6570790 150.4856160  53.3019200  80.3981670 151.3816100
  58.6404680  81.7268810 145.8126570  58.9820380  82.4711040 145.3169890
  57.8117390  82.0399930 146.1751400  64.9158360  76.8656960 144.6018260
  64.8322080  77.2971180 143.7514700  65.6352550  77.3255310 145.0345080
  65.9445610  83.7199220 147.3300390  65.3021770  83.0654840 147.6044110
  65.5576270  84.1254310 146.5541060  61.5232090  81.0484650 151.1772080
  61.8755910  80.4512780 150.5173450  60.6394420  80.7228880 151.3480330
  57.6095370  81.8082340 148.5842490  58.2966500  82.3551550 148.9650080
  56.8227790  82.3523070 148.6192100  49.7487770  77.4255160 144.0759570
  50.6182620  77.7079960 144.3595490  49.2578090  78.2391030 143.9608380
  56.9122580  78.8128370 148.1967850  57.3685360  79.6233620 148.4228040
  56.5610790  78.4951510 149.0286340  52.8134360  69.1566020 148.6690370
  52.6848990  69.1483920 149.6175290  51.9896380  69.4949110 148.3181380
  64.3342990  82.6115680 143.8676740  64.1080570  81.8946120 144.4601380
  63.9439190  82.3628120 143.0298490  50.1159020  86.6382540 144.6421200
  50.4756660  87.2371880 143.9878470  49.9751360  87.1842430 145.4156230
  63.9159240  80.5287620 145.5290900  63.6280940  80.9900310 146.3168780
  64.7111410  80.0685390 145.7975120  56.1327640  84.0213740 145.4594870
  56.1237740  84.7543430 144.8439380  55.2126000  83.7745320 145.5521830
  51.7334280  79.2428630 146.2041630  51.1262230  79.9827530 146.2136930
  52.2083630  79.3327990 145.3779830  64.6729100  72.3636390 146.6886080
  64.0442260  72.4682060 145.9744310  64.1781020  72.5833170 147.4779960
  59.1187240  84.0841980 144.1220060  59.2199220  83.8805970 143.1922040
  58.2188980  83.8300260 144.3267840  56.6413130  74.6422340 148.1043960
  55.9329280  75.1108680 148.5457570  56.9257610  73.9844350 148.7389150
  60.6728560  71.3673000 149.5439750  60.5496340  71.3859130 148.5949260
  61.6213120  71.4151940 149.6638150  57.7605350  86.6028300 148.8167730
  58.0146850  86.5649690 147.8947100  56.8117830  86.4761630 148.8095980
  54.8448150  72.9507420 145.4794670  55.6938680  73.3877570 145.4134860
  54.4779420  73.2627680 146.3066730  63.7657930  77.5220180 150.3926240
  62.8248070  77.5370410 150.5673930  64.0802000  76.7356140 150.8386540
  53.7439570  79.2039780 143.9530200  54.5102840  79.0921140 144.5155630
  53.8214260  78.5077750 143.3006970  52.4386330  76.6364850 144.6363090
  52.5189920  75.6892360 144.7480490  53.3306080  76.9671730 144.7423750
  53.2401040  86.7860240 151.7397630  53.9763520  86.2375700 152.0106200
  53.6241960  87.6516250 151.6003620  50.1246520  82.8533810 147.6139140
  49.1986300  83.0954950 147.6044550  50.5902950  83.6808070 147.4923890
  56.3503350  85.9590550 143.5623200  57.1431960  86.2479380 143.1104990
  55.8307700  85.5282720 142.8835680  65.4033520  85.1860680 144.9859940
  65.1175030  84.7725820 144.1714120  65.2053070  86.1148390 144.8660460
  56.8680750  81.1793960 143.4265550  56.7631390  80.5646310 144.1526930
  56.7004970  80.6559850 142.6428560  60.1083480  80.2413990 144.0307540
  59.5593580  80.6883290 144.6750280  60.7302740  79.7363240 144.5545210
  55.7758600  79.2004910 145.9272840  56.1975020  79.0344780 146.7704230
  55.9009440  78.3905140 145.4327980  58.2886240  78.2242520 143.1749940
  58.8091900  77.5091540 142.8091090  58.9354640  78.8628390 143.4750450
  54.6717500  75.2738140 142.8731000  54.4706560  74.4105500 143.2344340
  54.5009550  75.1871500 141.9352600  62.1505810  70.0846370 145.4017880
  62.4308100  69.2414270 145.7577300  61.3771540  70.3169480 145.9156630
  53.4700300  72.3738760 142.8608880  53.7726200  72.3806190 141.9528030
  54.2094890  72.0236620 143.3576540  56.6885230  71.3173380 143.8465080
  56.3407230  70.6397370 143.2667530  56.8898000  70.8562890 144.6608470
  58.8534270  86.3054130 145.4651680  59.7485060  86.6439100 145.4870440
  58.8851900  85.5833540 144.8375960  52.4930430  81.6781180 143.6938680
  52.9305300  82.2210850 144.3496260  52.9778160  80.8528130 143.7035020
  49.7076230  84.4670210 151.1458940  50.0379240  83.5991270 150.9137580
  50.1367230  84.6728730 151.9763900  54.3038150  82.7979220 148.8060910
  54.0033690  82.6744190 149.7064820  54.1975640  81.9387810 148.3976640
  67.0730070  82.5775620 143.5087590  66.2423030  82.6452270 143.9794820
  67.2501900  83.4679740 143.2054450  66.5286530  79.3223100 146.0121790
  67.2905440  79.8919750 146.1181480  66.5440900  78.7550300 146.7830100
  50.0290870  77.8461030 150.2429450  49.3739710  77.5772670 149.5989150
  50.8668820  77.7365510 149.7931430  67.5346500  80.1773200 150.8563720
  67.9055330  79.3940520 150.4499690  68.1748430  80.8662300 150.6781020
  66.5805700  79.6157470 143.1694310  66.8554540  80.5236350 143.0413530
  66.3916440  79.5520000 144.1056300  62.9781310  72.6402320 144.4647940
  63.3966190  72.4533300 143.6244600  62.6717370  71.7881370 144.7750870
  66.4771040  77.5526460 148.1623740  66.1014640  76.7854390 147.7305030
  65.7474160  77.9349160 148.6498670  49.2428950  75.0559960 146.1854780
  48.3393030  75.3190160 146.0106440  49.7269570  75.3271130 145.4054740
  65.7522000  75.7783950 151.4630980  66.2759480  75.2846600 150.8321150
  66.3381420  75.9134310 152.2078550  51.7856160  74.1125500 144.0949160
  52.4947860  73.6908720 143.6096440  51.0696100  74.1800730 143.4632510
  51.4330320  70.1664830 143.1351810  52.1558450  70.7073770 143.4533030
  51.7054840  69.8928250 142.2593350  65.2421970  75.0357300 147.4023390
  65.7381090  74.8028170 148.1872270  65.0438040  74.1969140 146.9861030
  66.6709130  73.6718250 149.9361070  66.5608410  73.5174290 150.8743340
  67.4316720  73.1439190 149.6936480  67.5599400  71.5026170 143.1767210
  68.4848710  71.3707350 142.9685500  67.5375190  71.5818990 144.1303660
  67.6337890  72.2736830 145.8023920  66.8389390  72.2081950 146.3316830
  67.8381170  73.2087470 145.7909270  64.5756310  86.3128380 149.7962310
  65.1715380  85.9912950 149.1196730  64.8334460  85.8400200 150.5875580
  64.0657820  70.6033710 152.2522750  64.5065910  70.5478810 151.4044350
  63.7965410  71.5191720 152.3232930  65.9296390  70.2348950 150.2631570
  65.8684790  69.2910170 150.1162590  66.7088420  70.3429040 150.8085030
  50.2349140  86.3741310 149.2255520  50.0671180  85.7411990 149.9237410
  49.3683650  86.5800710 148.8749710  50.8577160  70.2058090 146.7287380
  51.6156520  70.3186970 146.1551410  50.3954330  71.0427290 146.6830810
  57.3990970  72.3197360 149.7189690  56.5865480  71.9454250 149.3785570
  57.9032610  71.5642440 150.0210880  61.9015950  68.9839810 150.9572760
  62.5045320  69.5560020 151.4321280  61.1608940  69.5479250 150.7346660
  65.0450550  69.3861370 146.2313040  65.2401180  70.2844820 146.4980470
  64.2580420  69.1548450 146.7245990  51.8411840  85.0674540 146.6705660
  51.3159460  85.4482570 145.9667620  51.7656420  85.6925310 147.3915370
  53.2302310  70.7322140 145.2689350  53.7595070  69.9451940 145.1397300
  53.8630630  71.4113330 145.5024880  55.4240150  70.4697280 148.3234740
  54.7942890  69.7684590 148.4904870  54.8845290  71.2301410 148.1067900
  66.5977160  86.6262080 147.9919600  66.7729350  85.9399820 147.3480520
  65.8998730  87.1509130 147.5996270  54.4404810  87.0156920 145.5454910
  55.1723630  86.7316200 144.9978800  54.6998480  86.7770200 146.4354290
  53.6019600  83.1321650 145.5501240  52.9728480  83.6006750 146.0987070
  53.7167430  82.2870870 145.9847430  61.0569320  77.1827310 131.7002440
  60.9763370  76.2681920 131.4294150  60.6433740  77.6794380 130.9942150
  63.2094790  83.3666520 132.3610840  62.7476320  82.5953760 132.6898010
  64.0220340  83.3932590 132.8663290  49.5778150  76.8333680 134.1269560
  50.1494260  76.0655880 134.1273200  49.5779690  77.1322440 133.2176170
  59.4358100  85.6524530 131.9814830  58.8169540  86.1082030 131.4109270
  60.2909880  85.8075990 131.5804530  50.8203020  72.2418040 135.9138490
  50.6405860  71.3443790 136.1941250  50.4183100  72.7889910 136.5885440
  59.6601520  74.4433900 133.8150800  60.0366340  73.5705780 133.7024470
  59.5621030  74.7792600 132.9241240  53.7906530  72.8159530 129.2768240
  53.8973280  73.7163260 129.5837000  52.8798890  72.7677500 128.9862890
  51.4389690  74.7378540 134.5220830  52.1199800  75.0016910 135.1408230
  51.1237740  73.8979410 134.8558840  67.7325190  73.9551090 137.3122770
  67.0277360  74.3432800 136.7937880  67.9983110  74.6501380 137.9143700
  53.9150360  70.4244460 137.8756840  53.9168800  70.9416850 137.0702740
  53.0854670  69.9474640 137.8526770  55.1653210  80.0639640 136.0530340
  54.8322590  80.6908560 136.6951410  55.3419890  80.5901520 135.2732010
  53.5965690  72.1354420 135.8827290  53.9382500  72.9796470 135.5881160
  52.6581500  72.2838160 135.9992630  54.3772310  82.0320440 137.8679520
  54.9946310  82.7071520 137.5863970  53.5165430  82.4408420 137.7767020
  49.6704650  81.2220300 126.7486370  49.2932630  81.7107400 126.0171270
  49.9277720  81.8945580 127.3792900  62.8308640  85.3403980 134.4979340
  62.8435800  84.9366270 133.6301600  62.2783860  86.1151270 134.3940770
  64.1254060  82.0620200 129.5869510  64.0150390  81.1194530 129.7118930
  64.1222310  82.4235840 130.4732270  62.2294080  80.2433820 135.8261950
  62.6462870  80.0293930 134.9915410  62.9533900  80.5006610 136.3970570
  66.1756180  78.6421040 135.9178190  65.3474810  78.7114130 135.4428320
  66.7706660  79.2275350 135.4494020  63.6971630  79.2505820 129.4467250
  63.0784050  78.9125370 128.7993550  63.6796080  78.6065580 130.1546440
  63.1398190  75.4290360 136.8633060  62.7269370  76.2544070 137.1173050
  62.4074140  74.8435400 136.6709420  53.9859600  74.9893470 135.5050770
  54.5374190  75.0988810 134.7304020  54.5003110  75.3631070 136.2206000
  54.8331110  81.6399510 140.5398740  53.9359640  81.8639480 140.7872140
  54.8583980  81.7634450 139.5910140  61.8736330  78.4892630 126.4540000
  62.3129610  77.6515060 126.3077820  62.5864750  79.1222030 126.5404140
  53.6602330  78.5112830 139.1156110  53.5210100  79.3835630 139.4843510
  52.7783690  78.1685640 138.9704050  59.9831710  83.4288700 130.4221240
  60.4227620  84.1713030 130.0076630  59.9218600  83.6715270 131.3460200
  55.4582680  84.4534530 141.3241260  55.4298110  84.8577480 140.4569690
  55.2947650  83.5244890 141.1612860  49.6120980  80.2810380 135.0327020
  49.6901400  80.4159150 134.0882740  50.2262660  79.5726270 135.2255140
  60.6747490  86.1302480 138.3500250  61.1892160  86.0410490 139.1522680
  59.8316570  86.4762180 138.6428160  62.6501890  86.4157820 127.7784250
  62.4903030  86.1260760 128.6766080  62.4848600  85.6397950 127.2429480
  61.9177950  85.5508090 130.4130740  62.3734900  84.7697470 130.7269360
  62.2570470  86.2614910 130.9571920  66.6654760  74.4806940 140.7455180
  66.0499030  74.9886610 140.2170640  66.3451180  73.5805270 140.6881120
  49.6680500  81.3224550 137.5721480  49.8311540  80.8529910 136.7540850
  50.1332950  80.8148110 138.2370320  54.4399270  70.4530310 132.6082050
  53.9967420  71.2339850 132.2766570  54.9984260  70.7760200 133.3152990
  58.7269080  73.3198830 138.2117370  58.2648450  73.5281850 139.0237310
  58.3247190  72.5058180 137.9088040  63.7273590  74.5407780 139.3414030
  62.8767180  74.2413530 139.6623100  63.5675380  74.7849790 138.4297850
  60.8223300  76.0409530 141.4412820  61.1476710  75.2073280 141.1015050
  61.6103630  76.5638050 141.5891150  56.4775170  70.9977640 134.4671650
  56.7747500  71.9040470 134.3863670  57.0260730  70.5096420 133.8531220
  61.4611250  75.5827250 128.9353950  60.8620140  76.3063050 128.7517570
  62.0090860  75.5204030 128.1530400  56.6712700  76.4749460 141.0023570
  56.5756300  75.5344190 140.8523970  57.5144680  76.6964530 140.6071640
  51.8023240  72.8863130 139.1557350  51.4086630  73.7338340 139.3630130
  51.1141640  72.2489500 139.3465990  58.3768290  72.9698100 142.2254090
  57.6866610  72.7770300 142.8600180  59.1200590  73.2532740 142.7578390
  60.6531260  76.8096540 135.0608010  59.9212380  77.3183350 135.4098110
  60.2555600  75.9926520 134.7596790  57.0908650  73.4850740 133.4660500
  57.0944710  73.0440690 132.6165040  57.9859770  73.8068070 133.5732320
  52.9411030  73.3677230 132.4254710  52.6011080  73.8452460 133.1821760
  52.1788350  72.9142350 132.0655810  61.1157170  72.2630220 134.4730950
  61.1329910  72.7138870 135.3172800  60.8672750  71.3635860 134.6864390
  64.5427920  69.6762400 140.3117330  64.8673690  68.9452060 140.8375310
  64.5784430  69.3576040 139.4098320  51.2419480  80.6975980 139.7317290
  50.8574270  80.0569650 140.3300250  51.5531670  81.4012100 140.3012020
  55.1815990  76.5861160 137.5310120  54.8773060  77.4653140 137.7560480
  56.1362450  76.6460950 137.5667560  64.4685760  79.7887510 133.9203360
  65.1884880  80.2842800 133.5299470  64.2667580  79.1105400 133.2757230
  59.8504560  79.8596570 139.8072360  59.7841870  78.9392240 139.5529950
  59.2209700  79.9572010 140.5217000  58.6404680  81.7268810 127.0383080
  58.9820380  82.4711040 126.5426400  57.8117390  82.0399930 127.4007910
  51.2379720  77.4263900 138.6781480  50.8794660  78.0917750 139.2654820
  50.9434280  76.5947450 139.0494100  54.4392840  77.8848140 141.5621030
  54.1392980  78.0305320 140.6648850  55.2104080  77.3253430 141.4694420
  59.7821290  82.6817140 139.5576160  59.7965830  81.7498100 139.3395070
  59.0746390  82.7676900 140.1965930  64.9158360  76.8656960 125.8274770
  64.8322080  77.2971180 124.9771210  65.6352550  77.3255310 126.2601590
  65.9932500  79.3224480 138.9044740  65.2680690  79.9153260 138.7074130
  66.5207960  79.3148020 138.1058110  65.9445610  83.7199220 128.5556900
  65.3021770  83.0654840 128.8300620  65.5576270  84.1254310 127.7797570
  61.5232090  81.0484650 132.4028590  61.8755910  80.4512780 131.7429960
  60.6394420  80.7228880 132.5736840  59.2155190  84.3234710 136.6516660
  59.8597410  84.5294090 137.3290080  59.5784630  83.5623110 136.1987510
  52.8134360  69.1566020 129.8946880  52.6848990  69.1483920 130.8431800
  51.9896380  69.4949110 129.5437890  60.4887270  82.3267060 135.3694110
  61.1309500  81.6260220 135.4826280  61.0136620  83.1065500 135.1891000
  64.3342990  82.6115680 125.0933250  64.1080570  81.8946120 125.6857890
  63.9439190  82.3628120 124.2555000  62.2624890  83.1261960 138.5730170
  62.5981130  83.7128650 139.2508090  61.3425230  82.9954670 138.8027960
  50.1159020  86.6382540 125.8677710  50.4756660  87.2371880 125.2134980
  49.9751360  87.1842430 126.6412740  49.8128290  70.9157140 139.3553580
  49.0986810  71.1154060 139.9606190  50.2323330  70.1396710 139.7268380
  63.9159240  80.5287620 126.7547410  63.6280940  80.9900310 127.5425290
  64.7111410  80.0685390 127.0231630  50.1000880  84.9037400 140.3420110
  50.2092000  83.9632140 140.2015500  49.4481440  85.1692150 139.6933840
  58.0913470  83.1753290 141.7418230  57.7710340  82.4562530 142.2863920
  57.4171830  83.8508360 141.8154290  56.1327640  84.0213740 126.6851380
  56.1237740  84.7543430 126.0695890  55.2126000  83.7745320 126.7778340
  51.7334280  79.2428630 127.4298140  51.1262230  79.9827530 127.4393440
  52.2083630  79.3327990 126.6036340  61.3067070  73.4079450 137.1055030
  61.6747890  72.5874660 137.4334600  60.4465270  73.4681340 137.5210680
  58.2669060  76.0619040 137.3293000  58.7654310  76.5364860 137.9944850
  58.4092010  75.1382560 137.5363030  57.7605350  86.6028300 130.0424240
  58.0146850  86.5649690 129.1203610  56.8117830  86.4761630 130.0352490
  54.8448150  72.9507420 126.7051180  55.6938680  73.3877570 126.6391370
  54.4779420  73.2627680 127.5323240  65.4735920  72.2787000 138.1721390
  64.9709520  73.0192400 138.5115200  66.2892580  72.6671000 137.8558180
  63.7657930  77.5220180 131.6182750  62.8248070  77.5370410 131.7930440
  64.0802000  76.7356140 132.0643050  53.7439570  79.2039780 125.1786710
  54.5102840  79.0921140 125.7412140  53.8214260  78.5077750 124.5263480
  52.4386330  76.6364850 125.8619600  52.5189920  75.6892360 125.9737000
  53.3306080  76.9671730 125.9680260  65.7683510  84.6929030 133.2937010
  65.8930930  85.5160200 133.7660820  66.6349070  84.4819760 132.9461160
  50.1246520  82.8533810 128.8395650  49.1986300  83.0954950 128.8301060
  50.5902950  83.6808070 128.7180400  52.2459320  85.9706310 142.1539720
  53.0472050  86.2918360 142.5675120  51.7311140  85.6101890 142.8759630
  56.3503350  85.9590550 124.7879710  57.1431960  86.2479380 124.3361500
  55.8307700  85.5282720 124.1092190  61.0823950  82.0786180 142.1015130
  60.4762110  82.1017780 141.3610880  60.7778060  81.3469220 142.6382380
  65.4033520  85.1860680 126.2116450  65.1175030  84.7725820 125.3970630
  65.2053070  86.1148390 126.0916970  49.9657130  78.4579770 141.0975770
  50.4696150  77.8787050 141.6692000  49.2264550  78.7420000 141.6352140
  56.8680750  81.1793960 124.6522060  56.7631390  80.5646310 125.3783440
  56.7004970  80.6559850 123.8685070  57.0195070  79.8650760 140.6311290
  56.2540740  80.4335760 140.5465960  57.2011030  79.5726970 139.7379520
  60.1083480  80.2413990 125.2564050  59.5593580  80.6883290 125.9006790
  60.7302740  79.7363240 125.7801720  51.9980210  76.6009360 141.9925840
  52.0385550  76.3023230 142.9011070  52.8525710  77.0016970 141.8333360
  53.9386020  75.1801460 139.9600330  53.4082480  74.6892410 139.3323670
  54.6074090  75.6085660 139.4258260  58.2886240  78.2242520 124.4006450
  58.8091900  77.5091540 124.0347600  58.9354640  78.8628390 124.7006960
  62.8364080  79.6470920 139.7241520  63.2505100  79.8016000 140.5731940
  61.9015080  79.7726140 139.8867300  63.3086250  76.9867080 141.7280670
  63.8907020  76.2319400 141.6401150  63.4848020  77.5174520 140.9512150
  54.4258320  72.1463830 140.0397620  54.3315190  71.5284580 139.3148490
  53.8455710  72.8730120 139.8127530  57.1919760  70.7037070 137.0725010
  56.7437060  70.7261330 136.2270560  56.5584960  70.3056090 137.6695310
  57.5979310  79.5991400 137.6937450  58.0167420  80.4424130 137.5213690
  56.6787940  79.7363440 137.4644230  59.9343210  77.3307580 139.0775290
  60.0539420  76.7348720 139.8170130  60.7937210  77.3677270 138.6576590
  62.2731110  77.8844770 137.6537800  61.7466330  78.4087390 137.0502940
  62.6162450  78.5172160 138.2847530  54.6717500  75.2738140 124.0987510
  54.4706560  74.4105500 124.4600850  54.5009550  75.1871500 123.1609110
  55.4486730  85.9044410 138.8095180  54.9107820  86.6290470 138.4903880
  55.7020690  85.4274750 138.0192520  56.7011980  73.8728930 140.3351110
  57.2911670  73.5644780 141.0228930  55.8832220  73.4008680 140.4911010
  61.5205410  73.4894740 140.5684130  60.8320930  72.8276280 140.5034120
  62.2411430  73.0433010 141.0132590  53.4700300  72.3738760 124.0865390
  53.7726200  72.3806190 123.1784540  54.2094890  72.0236620 124.5833050
  58.3048940  87.1395620 139.0681830  58.2307640  88.0430760 139.3754200
  57.4027780  86.8207520 139.0403900  52.4930430  81.6781180 124.9195190
  52.9305300  82.2210850 125.5752770  52.9778160  80.8528130 124.9291530
  67.0730070  82.5775620 124.7344100  66.2423030  82.6452270 125.2051330
  67.2501900  83.4679740 124.4310960  67.5346500  80.1773200 132.0820230
  67.9055330  79.3940520 131.6756200  68.1748430  80.8662300 131.9037530
  66.5805700  79.6157470 124.3950820  66.8554540  80.5236350 124.2670040
  66.3916440  79.5520000 125.3312810  51.0666800  78.2313600 136.0089300
  51.4339840  78.1441000 136.8885320  50.4977620  77.4680150 135.9096160
  65.8670660  76.6997980 139.0219770  65.6356750  76.4710730 138.1217720
  66.1275210  77.6197530 138.9764660  50.6182800  75.1422690 139.9147720
  49.7238850  75.1089450 140.2541430  51.1580350  75.3409480 140.6798970
  64.3058730  71.9254410 141.7999470  65.1828910  71.9337810 142.1833470
  64.3179570  71.1885250 141.1891820  51.7856160  74.1125500 125.3205670
  52.4947860  73.6908720 124.8352950  51.0696100  74.1800730 124.6889020
  51.4330320  70.1664830 124.3608320  52.1558450  70.7073770 124.6789540
  51.7054840  69.8928250 123.4849860  51.1222510  69.4171020 134.2630940
  51.7698700  68.8668400 133.8226100  51.5424350  69.6714170 135.0846750
  65.0174850  69.6112380 137.6200580  65.6547070  70.2246520 137.9859770
  65.1649740  69.6473040 136.6749810  67.5599400  71.5026170 124.4023720
  68.4848710  71.3707350 124.1942010  67.5375190  71.5818990 125.3560170
  64.5756310  86.3128380 131.0218820  65.1715380  85.9912950 130.3453240
  64.8334460  85.8400200 131.8132090  50.8754510  69.5726690 137.0056260
  50.5269330  70.0290510 137.7714440  50.5442210  68.6783820 137.0878690
  52.4818880  82.7446290 141.1709450  52.4388510  82.3739200 142.0523910
  52.6129890  83.6823860 141.3111270  56.1824910  84.3005880 136.7719170
  55.9416270  84.5680440 135.8849690  57.1227550  84.4711610 136.8270030
  58.3879330  70.7638570 140.5275680  58.3268220  71.3560400 141.2771090
  59.3279710  70.6564530 140.3825940  61.0253890  70.4208630 140.1667970
  61.6394300  70.7387920 139.5049050  61.5703450  69.9357220 140.7863830
  51.5475150  69.1002890 140.2807030  52.0958140  68.9190940 139.5173140
  51.6130460  68.3097000 140.8163340  52.3206910  85.6908540 138.2907230
  51.7267230  85.5593240 139.0297270  52.3130750  84.8546680 137.8249330
  61.7661930  68.9840770 136.4937260  60.8921770  69.3175880 136.2910190
  61.6572680  68.5113950 137.3189130  62.6733910  71.1911640 137.8778980
  62.3447270  70.3763400 137.4980710  63.6216210  71.1481450 137.7544670
  58.2959740  86.1620410 134.8533660  58.5837550  85.9074710 133.9766670
  58.8082960  85.6097770 135.4439230  59.5136750  69.9010610 135.4330170
  58.7308540  70.3756110 135.7126930  59.2199680  68.9965440 135.3243350
  53.2302310  70.7322140 126.4945860  53.7595070  69.9451940 126.3653810
  53.8630630  71.4113330 126.7281390  58.3632100  87.0836510 142.2201860
  59.2899410  86.8480780 142.2637820  58.3482530  87.9108510 141.7387890
  55.5495710  69.7481260 141.9843740  55.2679980  70.2514860 141.2204560
  55.9315410  68.9503010 141.6185870  54.4404810  87.0156920 126.7711420
  55.1723630  86.7316200 126.2235310  54.6998480  86.7770200 127.6610800
  53.6019600  83.1321650 126.7757750  52.9728480  83.6006750 127.3243580
  53.7167430  82.2870870 127.2103940  62.1511170  69.1634840 142.5624210
  62.0376620  69.4829450 143.4575730  62.9680910  69.5647350 142.2661490
  63.2094790  83.3666520 113.5867350  62.7476320  82.5953760 113.9154520
  64.0220340  83.3932590 114.0919800  53.1854450  83.3066230 115.8802000
  53.4882490  82.4163970 115.7012220  53.9298040  83.8636450 115.6524250
  49.5778150  76.8333680 115.3526070  50.1494260  76.0655880 115.3529710
  49.5779690  77.1322440 114.4432680  58.6296350  81.6363520 114.8138380
  58.5604630  80.6953460 114.6527510  59.3916210  81.7264930 115.3860950
  67.7325190  73.9551090 118.5379280  67.0277360  74.3432800 118.0194390
  67.9983110  74.6501380 119.1400210  60.3021450  80.5363770 110.6003250
  59.6838720  81.0013220 110.0365970  60.8144700  81.2291250 111.0172760
  54.3772310  82.0320440 119.0936030  54.9946310  82.7071520 118.8120480
  53.5165430  82.4408420 119.0023530  49.6704650  81.2220300 107.9742880
  49.2932630  81.7107400 107.2427780  49.9277720  81.8945580 108.6049410
  65.2949900  83.4959850 117.0090670  64.6113420  84.1658960 117.0007340
  65.8344190  83.6940500 116.2435530  62.8308640  85.3403980 115.7235850
  62.8435800  84.9366270 114.8558110  62.2783860  86.1151270 115.6197280
  64.1254060  82.0620200 110.8126020  64.0150390  81.1194530 110.9375440
  64.1222310  82.4235840 111.6988780  62.2294080  80.2433820 117.0518460
  62.6462870  80.0293930 116.2171920  62.9533900  80.5006610 117.6227080
  66.1756180  78.6421040 117.1434700  65.3474810  78.7114130 116.6684830
  66.7706660  79.2275350 116.6750530  63.1398190  75.4290360 118.0889570
  62.7269370  76.2544070 118.3429560  62.4074140  74.8435400 117.8965930
  54.8331110  81.6399510 121.7655250  53.9359640  81.8639480 122.0128650
  54.8583980  81.7634450 120.8166650  55.4582680  84.4534530 122.5497770
  55.4298110  84.8577480 121.6826200  55.2947650  83.5244890 122.3869370
  51.9735610  77.1095240 110.4514890  51.8533210  77.8357330 109.8396160
  51.6636500  76.3398150 109.9742800  67.4097500  85.2361630 123.8461940
  67.8857220  85.7144520 124.5251020  68.0304660  85.1679120 123.1207440
  49.6120980  80.2810380 116.2583530  49.6901400  80.4159150 115.3139250
  50.2262660  79.5726270 116.4511650  50.8568610  81.9810570 112.6689710
  50.4496690  82.1225160 111.8143310  51.7481620  81.6970730 112.4660920
  66.8130750  82.4274480 121.0061950  66.9393810  82.1886360 120.0879130
  66.8552130  81.5959020 121.4784030  62.6501890  86.4157820 109.0040760
  62.4903030  86.1260760 109.9022590  62.4848600  85.6397950 108.4685990
  62.3528020  83.9245380 107.5638760  61.6593180  83.9222670 106.9041040
  63.0950880  83.5004700 107.1332930  61.9177950  85.5508090 111.6387250
  62.3734900  84.7697470 111.9525870  62.2570470  86.2614910 112.1828430
  66.6654760  74.4806940 121.9711690  66.0499030  74.9886610 121.4427150
  66.3451180  73.5805270 121.9137630  49.6680500  81.3224550 118.7977990
  49.8311540  80.8529910 117.9797360  50.1332950  80.8148110 119.4626830
  63.7273590  74.5407780 120.5670540  62.8767180  74.2413530 120.8879610
  63.5675380  74.7849790 119.6554360  60.8223300  76.0409530 122.6669330
  61.1476710  75.2073280 122.3271560  61.6103630  76.5638050 122.8147660
  49.1040290  70.8091590 114.4143940  48.8153340  71.3794450 115.1268920
  49.8486050  70.3296040 114.7775170  64.5427920  69.6762400 121.5373840
  64.8673690  68.9452060 122.0631820  64.5784430  69.3576040 120.6354830
  51.2419480  80.6975980 120.9573800  50.8574270  80.0569650 121.5556760
  51.5531670  81.4012100 121.5268530  53.7097780  80.7922150 109.3533480
  52.9360040  80.2519770 109.1932200  54.4392410  80.2728760 109.0151240
  64.4685760  79.7887510 115.1459870  65.1884880  80.2842800 114.7555980
  64.2667580  79.1105400 114.5013740  59.8504560  79.8596570 121.0328870
  59.7841870  78.9392240 120.7786460  59.2209700  79.9572010 121.7473510
  53.7535180  80.4602530 112.9912290  54.2713850  79.6570790 112.9369180
  53.3019200  80.3981670 113.8329120  58.6404680  81.7268810 108.2639590
  58.9820380  82.4711040 107.7682910  57.8117390  82.0399930 108.6264420
  54.4392840  77.8848140 122.7877540  54.1392980  78.0305320 121.8905360
  55.2104080  77.3253430 122.6950930  65.9932500  79.3224480 120.1301250
  65.2680690  79.9153260 119.9330640  66.5207960  79.3148020 119.3314620
  65.9445610  83.7199220 109.7813410  65.3021770  83.0654840 110.0557130
  65.5576270  84.1254310 109.0054080  61.5232090  81.0484650 113.6285100
  61.8755910  80.4512780 112.9686470  60.6394420  80.7228880 113.7993350
  57.6095370  81.8082340 111.0355510  58.2966500  82.3551550 111.4163100
  56.8227790  82.3523070 111.0705120  56.9122580  78.8128370 110.6480870
  57.3685360  79.6233620 110.8741060  56.5610790  78.4951510 111.4799360
  59.2155190  84.3234710 117.8773170  59.8597410  84.5294090 118.5546590
  59.5784630  83.5623110 117.4244020  52.8134360  69.1566020 111.1203390
  52.6848990  69.1483920 112.0688310  51.9896380  69.4949110 110.7694400
  60.4887270  82.3267060 116.5950620  61.1309500  81.6260220 116.7082790
  61.0136620  83.1065500 116.4147510  64.3342990  82.6115680 106.3189760
  64.1080570  81.8946120 106.9114400  63.9439190  82.3628120 105.4811510
  50.1159020  86.6382540 107.0934220  50.4756660  87.2371880 106.4391490
  49.9751360  87.1842430 107.8669250  49.8128290  70.9157140 120.5810090
  49.0986810  71.1154060 121.1862700  50.2323330  70.1396710 120.9524890
  56.1327640  84.0213740 107.9107890  56.1237740  84.7543430 107.2952400
  55.2126000  83.7745320 108.0034850  51.7334280  79.2428630 108.6554650
  51.1262230  79.9827530 108.6649950  52.2083630  79.3327990 107.8292850
  61.3067070  73.4079450 118.3311540  61.6747890  72.5874660 118.6591110
  60.4465270  73.4681340 118.7467190  59.1187240  84.0841980 106.5733080
  59.2199220  83.8805970 105.6435060  58.2188980  83.8300260 106.7780860
  56.6413130  74.6422340 110.5556980  55.9329280  75.1108680 110.9970590
  56.9257610  73.9844350 111.1902170  65.4735920  72.2787000 119.3977900
  64.9709520  73.0192400 119.7371710  66.2892580  72.6671000 119.0814690
  53.7439570  79.2039780 106.4043220  54.5102840  79.0921140 106.9668650
  53.8214260  78.5077750 105.7519990  52.4386330  76.6364850 107.0876110
  52.5189920  75.6892360 107.1993510  53.3306080  76.9671730 107.1936770
  65.7683510  84.6929030 114.5193520  65.8930930  85.5160200 114.9917330
  66.6349070  84.4819760 114.1717670  50.1246520  82.8533810 110.0652160
  49.1986300  83.0954950 110.0557570  50.5902950  83.6808070 109.9436910
  52.2459320  85.9706310 123.3796230  53.0472050  86.2918360 123.7931630
  51.7311140  85.6101890 124.1016140  56.3503350  85.9590550 106.0136220
  57.1431960  86.2479380 105.5618010  55.8307700  85.5282720 105.3348700
  61.0823950  82.0786180 123.3271640  60.4762110  82.1017780 122.5867390
  60.7778060  81.3469220 123.8638890  65.4033520  85.1860680 107.4372960
  65.1175030  84.7725820 106.6227140  65.2053070  86.1148390 107.3173480
  56.8680750  81.1793960 105.8778570  56.7631390  80.5646310 106.6039950
  56.7004970  80.6559850 105.0941580  60.1083480  80.2413990 106.4820560
  59.5593580  80.6883290 107.1263300  60.7302740  79.7363240 107.0058230
  64.1618420  81.5956090 122.4142820  64.9027890  81.9331850 121.9110280
  63.3991100  81.7648150 121.8612590  55.7758600  79.2004910 108.3785860
  56.1975020  79.0344780 109.2217250  55.9009440  78.3905140 107.8841000
  62.8364080  79.6470920 120.9498030  63.2505100  79.8016000 121.7988450
  61.9015080  79.7726140 121.1123810  63.3086250  76.9867080 122.9537180
  63.8907020  76.2319400 122.8657660  63.4848020  77.5174520 122.1768660
  54.4258320  72.1463830 121.2654130  54.3315190  71.5284580 120.5405000
  53.8455710  72.8730120 121.0384040  62.2731110  77.8844770 118.8794310
  61.7466330  78.4087390 118.2759450  62.6162450  78.5172160 119.5104040
  55.4486730  85.9044410 120.0351690  54.9107820  86.6290470 119.7160390
  55.7020690  85.4274750 119.2449030  56.7011980  73.8728930 121.5607620
  57.2911670  73.5644780 122.2485440  55.8832220  73.4008680 121.7167520
  58.8534270  86.3054130 107.9164700  59.7485060  86.6439100 107.9383460
  58.8851900  85.5833540 107.2888980  52.4930430  81.6781180 106.1451700
  52.9305300  82.2210850 106.8009280  52.9778160  80.8528130 106.1548040
  49.7076230  84.4670210 113.5971960  50.0379240  83.5991270 113.3650600
  50.1367230  84.6728730 114.4276920  54.3038150  82.7979220 111.2573930
  54.0033690  82.6744190 112.1577840  54.1975640  81.9387810 110.8489660
  65.8328620  84.8357800 120.6230900  65.2330610  84.8950360 119.8794820
  65.9622520  83.8962780 120.7527750  50.0290870  77.8461030 112.6942470
  49.3739710  77.5772670 112.0502170  50.8668820  77.7365510 112.2444450
  67.5346500  80.1773200 113.3076740  67.9055330  79.3940520 112.9012710
  68.1748430  80.8662300 113.1294040  64.5180260  81.5609780 118.7207060
  63.7040100  81.9906940 118.9832850  64.9254460  82.1728190 118.1076110
  65.8670660  76.6997980 120.2476280  65.6356750  76.4710730 119.3474230
  66.1275210  77.6197530 120.2021170  65.7522000  75.7783950 113.9144000
  66.2759480  75.2846600 113.2834170  66.3381420  75.9134310 114.6591570
  65.9311720  75.8623820 117.4363550  64.9814430  75.8287360 117.5508540
  66.1124730  76.7723930 117.2013320  51.4330320  70.1664830 105.5864830
  52.1558450  70.7073770 105.9046050  51.7054840  69.8928250 104.7106370
  51.1222510  69.4171020 115.4887450  51.7698700  68.8668400 115.0482610
  51.5424350  69.6714170 116.3103260  65.0174850  69.6112380 118.8457090
  65.6547070  70.2246520 119.2116280  65.1649740  69.6473040 117.9006320
  64.5756310  86.3128380 112.2475330  65.1715380  85.9912950 111.5709750
  64.8334460  85.8400200 113.0388600  50.8754510  69.5726690 118.2312770
  50.5269330  70.0290510 118.9970950  50.5442210  68.6783820 118.3135200
  52.4818880  82.7446290 122.3965960  52.4388510  82.3739200 123.2780420
  52.6129890  83.6823860 122.5367780  56.1824910  84.3005880 117.9975680
  55.9416270  84.5680440 117.1106200  57.1227550  84.4711610 118.0526540
  67.4429070  86.3200260 118.7986320  66.9487350  86.7169130 118.0813450
  66.8342360  85.6949470 119.1923600  51.5475150  69.1002890 121.5063540
  52.0958140  68.9190940 120.7429650  51.6130460  68.3097000 122.0419850
  52.3206910  85.6908540 119.5163740  51.7267230  85.5593240 120.2553780
  52.3130750  84.8546680 119.0505840  61.7661930  68.9840770 117.7193770
  60.8921770  69.3175880 117.5166700  61.6572680  68.5113950 118.5445640
  62.6733910  71.1911640 119.1035490  62.3447270  70.3763400 118.7237220
  63.6216210  71.1481450 118.9801180  65.1268520  86.9623680 116.0773060
  64.6671490  87.7139490 115.7031080  64.4980980  86.2430150 116.0187860
  51.9519140  83.0566920 118.4671780  51.2253200  82.4372210 118.3997730
  52.0128290  83.4507530 117.5969860  59.5136750  69.9010610 116.6586680
  58.7308540  70.3756110 116.9383440  59.2199680  68.9965440 116.5499860
  50.2349140  86.3741310 111.6768540  50.0671180  85.7411990 112.3750430
  49.3683650  86.5800710 111.3262730  51.8411840  85.0674540 109.1218680
  51.3159460  85.4482570 108.4180640  51.7656420  85.6925310 109.8428390
  66.5977160  86.6262080 110.4432620  66.7729350  85.9399820 109.7993540
  65.8998730  87.1509130 110.0509290  55.5495710  69.7481260 123.2100250
  55.2679980  70.2514860 122.4461070  55.9315410  68.9503010 122.8442380
  54.4404810  87.0156920 107.9967930  55.1723630  86.7316200 107.4491820
  54.6998480  86.7770200 108.8867310  53.6019600  83.1321650 108.0014260
  52.9728480  83.6006750 108.5500090  53.7167430  82.2870870 108.4360450
  53.2053190  79.2726140  96.9100490  52.3738070  79.0174850  97.3097000
  53.8134170  79.3436910  97.6458410  53.1854450  83.3066230  97.1058510
  53.4882490  82.4163970  96.9268730  53.9298040  83.8636450  96.8780760
  49.5778150  76.8333680  96.5782580  50.1494260  76.0655880  96.5786220
  49.5779690  77.1322440  95.6689190  50.8203020  72.2418040  98.3651510
  50.6405860  71.3443790  98.6454270  50.4183100  72.7889910  99.0398460
  51.4389690  74.7378540  96.9733850  52.1199800  75.0016910  97.5921250
  51.1237740  73.8979410  97.3071860  55.1653210  80.0639640  98.5043360
  54.8322590  80.6908560  99.1464430  55.3419890  80.5901520  97.7245030
  54.3772310  82.0320440 100.3192540  54.9946310  82.7071520 100.0376990
  53.5165430  82.4408420 100.2280040  49.6704650  81.2220300  89.1999390
  49.2932630  81.7107400  88.4684290  49.9277720  81.8945580  89.8305920
  55.7412680  81.9017820  96.3403960  55.4440970  81.2963290  95.6611740
  56.6912500  81.9395130  96.2293320  53.9859600  74.9893470  97.9563790
  54.5374190  75.0988810  97.1817040  54.5003110  75.3631070  98.6719020
  63.8298290  85.4749690 100.0027060  63.3528850  86.2821880  99.8099670
  63.1460080  84.8228020 100.1553270  54.8331110  81.6399510 102.9911760
  53.9359640  81.8639480 103.2385160  54.8583980  81.7634450 102.0423160
  53.6602330  78.5112830 101.5669130  53.5210100  79.3835630 101.9356530
  52.7783690  78.1685640 101.4217070  55.4582680  84.4534530 103.7754280
  55.4298110  84.8577480 102.9082710  55.2947650  83.5244890 103.6125880
  49.6120980  80.2810380  97.4840040  49.6901400  80.4159150  96.5395760
  50.2262660  79.5726270  97.6768160  50.8568610  81.9810570  93.8946220
  50.4496690  82.1225160  93.0399820  51.7481620  81.6970730  93.6917430
  60.6747490  86.1302480 100.8013270  61.1892160  86.0410490 101.6035700
  59.8316570  86.4762180 101.0941180  55.1290270  86.1956350  92.0068890
  54.9532750  85.2791890  91.7936690  54.2746010  86.5543640  92.2466690
  49.6680500  81.3224550 100.0234500  49.8311540  80.8529910  99.2053870
  50.1332950  80.8148110 100.6883340  54.4399270  70.4530310  95.0595070
  53.9967420  71.2339850  94.7279590  54.9984260  70.7760200  95.7666010
  57.5558090  70.0741010  89.9400900  56.9312270  70.0700880  90.6654210
  57.4688210  69.2071970  89.5436870  51.8023240  72.8863130 101.6070370
  51.4086630  73.7338340 101.8143150  51.1141640  72.2489500 101.7979010
  49.1040290  70.8091590  95.6400450  48.8153340  71.3794450  96.3525430
  49.8486050  70.3296040  96.0031680  49.2910520  74.7511710  86.8503170
  49.2085190  75.6942470  86.9918160  48.9393580  74.6086620  85.9715520
  51.2419480  80.6975980 102.1830310  50.8574270  80.0569650 102.7813270
  51.5531670  81.4012100 102.7525040  50.2557110  72.2896210  93.7932400
  49.9704030  71.9251880  94.6311020  50.1935970  71.5576670  93.1795540
  55.1815990  76.5861160  99.9823140  54.8773060  77.4653140 100.2073500
  56.1362450  76.6460950 100.0180580  53.7097780  80.7922150  90.5789990
  52.9360040  80.2519770  90.4188710  54.4392410  80.2728760  90.2407750
  53.7535180  80.4602530  94.2168800  54.2713850  79.6570790  94.1625690
  53.3019200  80.3981670  95.0585630  58.6404680  81.7268810  89.4896100
  58.9820380  82.4711040  88.9939420  57.8117390  82.0399930  89.8520930
  51.2379720  77.4263900 101.1294500  50.8794660  78.0917750 101.7167840
  50.9434280  76.5947450 101.5007120  54.4392840  77.8848140 104.0134050
  54.1392980  78.0305320 103.1161870  55.2104080  77.3253430 103.9207440
  49.7487770  77.4255160  87.7529100  50.6182620  77.7079960  88.0365020
  49.2578090  78.2391030  87.6377910  52.8134360  69.1566020  92.3459900
  52.6848990  69.1483920  93.2944820  51.9896380  69.4949110  91.9950910
  49.8128290  70.9157140 101.8066600  49.0986810  71.1154060 102.4119210
  50.2323330  70.1396710 102.1781400  50.1000880  84.9037400 102.7933130
  50.2092000  83.9632140 102.6528520  49.4481440  85.1692150 102.1446860
  58.0913470  83.1753290 104.1931250  57.7710340  82.4562530 104.7376940
  57.4171830  83.8508360 104.2667310  56.1327640  84.0213740  89.1364400
  56.1237740  84.7543430  88.5208910  55.2126000  83.7745320  89.2291360
  59.1187240  84.0841980  87.7989590  59.2199220  83.8805970  86.8691570
  58.2188980  83.8300260  88.0037370  57.7605350  86.6028300  92.4937260
  58.0146850  86.5649690  91.5716630  56.8117830  86.4761630  92.4865510
  54.8448150  72.9507420  89.1564200  55.6938680  73.3877570  89.0904390
  54.4779420  73.2627680  89.9836260  53.7439570  79.2039780  87.6299730
  54.5102840  79.0921140  88.1925160  53.8214260  78.5077750  86.9776500
  50.1246520  82.8533810  91.2908670  49.1986300  83.0954950  91.2814080
  50.5902950  83.6808070  91.1693420  52.2459320  85.9706310 104.6052740
  53.0472050  86.2918360 105.0188140  51.7311140  85.6101890 105.3272650
  56.3503350  85.9590550  87.2392730  57.1431960  86.2479380  86.7874520
  55.8307700  85.5282720  86.5605210  61.0823950  82.0786180 104.5528150
  60.4762110  82.1017780 103.8123900  60.7778060  81.3469220 105.0895400
  62.5124320  85.8066470 103.1637560  63.4646070  85.7224490 103.1137800
  62.3652540  86.4708180 103.8371350  49.9657130  78.4579770 103.5488790
  50.4696150  77.8787050 104.1205020  49.2264550  78.7420000 104.0865160
  56.8680750  81.1793960  87.1035080  56.7631390  80.5646310  87.8296460
  56.7004970  80.6559850  86.3198090  57.0195070  79.8650760 103.0824310
  56.2540740  80.4335760 102.9978980  57.2011030  79.5726970 102.1892540
  60.1083480  80.2413990  87.7077070  59.5593580  80.6883290  88.3519810
  60.7302740  79.7363240  88.2314740  51.9980210  76.6009360 104.4438860
  52.0385550  76.3023230 105.3524090  52.8525710  77.0016970 104.2846380
  55.7758600  79.2004910  89.6042370  56.1975020  79.0344780  90.4473760
  55.9009440  78.3905140  89.1097510  53.9386020  75.1801460 102.4113350
  53.4082480  74.6892410 101.7836690  54.6074090  75.6085660 101.8771280
  58.2886240  78.2242520  86.8519470  58.8091900  77.5091540  86.4860620
  58.9354640  78.8628390  87.1519980  54.6717500  75.2738140  86.5500530
  54.4706560  74.4105500  86.9113870  54.5009550  75.1871500  85.6122130
  55.4486730  85.9044410 101.2608200  54.9107820  86.6290470 100.9416900
  55.7020690  85.4274750 100.4705540  53.4700300  72.3738760  86.5378410
  53.7726200  72.3806190  85.6297560  54.2094890  72.0236620  87.0346070
  58.3048940  87.1395620 101.5194850  58.2307640  88.0430760 101.8267220
  57.4027780  86.8207520 101.4916920  56.6885230  71.3173380  87.5234610
  56.3407230  70.6397370  86.9437060  56.8898000  70.8562890  88.3378000
  58.8534270  86.3054130  89.1421210  59.7485060  86.6439100  89.1639970
  58.8851900  85.5833540  88.5145490  52.4930430  81.6781180  87.3708210
  52.9305300  82.2210850  88.0265790  52.9778160  80.8528130  87.3804550
  49.7076230  84.4670210  94.8228470  50.0379240  83.5991270  94.5907110
  50.1367230  84.6728730  95.6533430  54.3038150  82.7979220  92.4830440
  54.0033690  82.6744190  93.3834350  54.1975640  81.9387810  92.0746170
  50.1966440  85.3340800  97.5610100  49.7597430  85.5141600  98.3934250
  50.7644120  86.0915420  97.4191820  65.8328620  84.8357800 101.8487410
  65.2330610  84.8950360 101.1051330  65.9622520  83.8962780 101.9784260
  50.0290870  77.8461030  93.9198980  49.3739710  77.5772670  93.2758680
  50.8668820  77.7365510  93.4700960  51.0666800  78.2313600  98.4602320
  51.4339840  78.1441000  99.3398340  50.4977620  77.4680150  98.3609180
  50.6182800  75.1422690 102.3660740  49.7238850  75.1089450 102.7054450
  51.1580350  75.3409480 103.1311990  49.2428950  75.0559960  89.8624310
  48.3393030  75.3190160  89.6875970  49.7269570  75.3271130  89.0824270
  51.7856160  74.1125500  87.7718690  52.4947860  73.6908720  87.2865970
  51.0696100  74.1800730  87.1402040  51.4330320  70.1664830  86.8121340
  52.1558450  70.7073770  87.1302560  51.7054840  69.8928250  85.9362880
  51.1222510  69.4171020  96.7143960  51.7698700  68.8668400  96.2739120
  51.5424350  69.6714170  97.5359770  50.8754510  69.5726690  99.4569280
  50.5269330  70.0290510 100.2227460  50.5442210  68.6783820  99.5391710
  52.4818880  82.7446290 103.6222470  52.4388510  82.3739200 104.5036930
  52.6129890  83.6823860 103.7624290  56.1824910  84.3005880  99.2232190
  55.9416270  84.5680440  98.3362710  57.1227550  84.4711610  99.2783050
  51.5475150  69.1002890 102.7320050  52.0958140  68.9190940 101.9686160
  51.6130460  68.3097000 103.2676360  52.3206910  85.6908540 100.7420250
  51.7267230  85.5593240 101.4810290  52.3130750  84.8546680 100.2762350
  51.9519140  83.0566920  99.6928290  51.2253200  82.4372210  99.6254240
  52.0128290  83.4507530  98.8226370  55.5564240  85.2711920  96.4777700
  56.0729260  84.6599280  95.9525960  56.2061620  85.7740700  96.9688710
  58.2959740  86.1620410  97.3046680  58.5837550  85.9074710  96.4279690
  58.8082960  85.6097770  97.8952250  51.8411840  85.0674540  90.3475190
  51.3159460  85.4482570  89.6437150  51.7656420  85.6925310  91.0684900
  53.2302310  70.7322140  88.9458880  53.7595070  69.9451940  88.8166830
  53.8630630  71.4113330  89.1794410  55.4240150  70.4697280  92.0004270
  54.7942890  69.7684590  92.1674400  54.8845290  71.2301410  91.7837430
  58.3632100  87.0836510 104.6714880  59.2899410  86.8480780 104.7150840
  58.3482530  87.9108510 104.1900910  53.6019600  83.1321650  89.2270770
  52.9728480  83.6006750  89.7756600  53.7167430  82.2870870  89.6616960
  64.9309660  86.3106370 104.4955920  65.7234980  85.8155600 104.2881880
  65.2242810  86.9896510 105.1031530  61.0569320  77.1827310  75.3771970
  60.9763370  76.2681920  75.1063680  60.6433740  77.6794380  74.6711680
  59.1887360  78.9606330  77.2581240  58.4129460  78.4806770  77.5479810
  59.8400290  78.2811980  77.0837400  53.2053190  79.2726140  78.1357000
  52.3738070  79.0174850  78.5353510  53.8134170  79.3436910  78.8714920
  63.2094790  83.3666520  76.0380370  62.7476320  82.5953760  76.3667540
  64.0220340  83.3932590  76.5432820  53.1854450  83.3066230  78.3315020
  53.4882490  82.4163970  78.1525240  53.9298040  83.8636450  78.1037270
  49.5778150  76.8333680  77.8039090  50.1494260  76.0655880  77.8042730
  49.5779690  77.1322440  76.8945700  59.4358100  85.6524530  75.6584360
  58.8169540  86.1082030  75.0878800  60.2909880  85.8075990  75.2574060
  58.6296350  81.6363520  77.2651400  58.5604630  80.6953460  77.1040530
  59.3916210  81.7264930  77.8373970  50.8203020  72.2418040  79.5908020
  50.6405860  71.3443790  79.8710780  50.4183100  72.7889910  80.2654970
  59.6601520  74.4433900  77.4920330  60.0366340  73.5705780  77.3794000
  59.5621030  74.7792600  76.6010770  63.4425640  71.9384340  74.4248670
  64.2635260  71.4480910  74.4674150  63.4759720  72.5282000  75.1780510
  51.4389690  74.7378540  78.1990360  52.1199800  75.0016910  78.8177760
  51.1237740  73.8979410  78.5328370  55.6314260  75.7845900  77.2862950
  56.1392480  76.2826870  77.9267970  56.1627500  75.0081100  77.1102310
  53.9150360  70.4244460  81.5526370  53.9168800  70.9416850  80.7472270
  53.0854670  69.9474640  81.5296300  60.3021450  80.5363770  73.0516270
  59.6838720  81.0013220  72.4878990  60.8144700  81.2291250  73.4685780
  55.1653210  80.0639640  79.7299870  54.8322590  80.6908560  80.3720940
  55.3419890  80.5901520  78.9501540  63.6787120  73.8784720  77.1976210
  62.9742690  74.1669610  77.7779320  64.0399280  74.6884830  76.8375770
  53.5965690  72.1354420  79.5596820  53.9382500  72.9796470  79.2650690
  52.6581500  72.2838160  79.6762160  54.3772310  82.0320440  81.5449050
  54.9946310  82.7071520  81.2633500  53.5165430  82.4408420  81.4536550
  65.2949900  83.4959850  79.4603690  64.6113420  84.1658960  79.4520360
  65.8344190  83.6940500  78.6948550  66.7474040  73.3239510  77.5885420
  65.7998950  73.3578490  77.7200850  67.0724030  74.1378460  77.9734780
  62.8308640  85.3403980  78.1748870  62.8435800  84.9366270  77.3071130
  62.2783860  86.1151270  78.0710300  64.1254060  82.0620200  73.2639040
  64.0150390  81.1194530  73.3888460  64.1222310  82.4235840  74.1501800
  62.2294080  80.2433820  79.5031480  62.6462870  80.0293930  78.6684940
  62.9533900  80.5006610  80.0740100  59.6674340  77.6885520  72.6201530
  58.7403620  77.6222900  72.8490000  59.8199160  78.6265650  72.5056770
  59.6543420  73.9602520  69.6168690  58.7147090  74.1216480  69.7021150
  59.9726680  74.6788200  69.0704680  66.1756180  78.6421040  79.5947720
  65.3474810  78.7114130  79.1197850  66.7706660  79.2275350  79.1263550
  63.6971630  79.2505820  73.1236780  63.0784050  78.9125370  72.4763080
  63.6796080  78.6065580  73.8315970  63.1398190  75.4290360  80.5402590
  62.7269370  76.2544070  80.7942580  62.4074140  74.8435400  80.3478950
  55.2730980  78.2150260  75.4021260  54.8687980  77.5027510  74.9067160
  55.3594100  77.8703500  76.2909300  55.7412680  81.9017820  77.5660470
  55.4440970  81.2963290  76.8868250  56.6912500  81.9395130  77.4549830
  53.9859600  74.9893470  79.1820300  54.5374190  75.0988810  78.4073550
  54.5003110  75.3631070  79.8975530  63.8298290  85.4749690  81.2283570
  63.3528850  86.2821880  81.0356180  63.1460080  84.8228020  81.3809780
  54.8331110  81.6399510  84.2168270  53.9359640  81.8639480  84.4641670
  54.8583980  81.7634450  83.2679670  61.8736330  78.4892630  70.1309530
  62.3129610  77.6515060  69.9847350  62.5864750  79.1222030  70.2173670
  53.6602330  78.5112830  82.7925640  53.5210100  79.3835630  83.1613040
  52.7783690  78.1685640  82.6473580  59.9831710  83.4288700  74.0990770
  60.4227620  84.1713030  73.6846160  59.9218600  83.6715270  75.0229730
  55.4582680  84.4534530  85.0010790  55.4298110  84.8577480  84.1339220
  55.2947650  83.5244890  84.8382390  51.9735610  77.1095240  72.9027910
  51.8533210  77.8357330  72.2909180  51.6636500  76.3398150  72.4255820
  49.6120980  80.2810380  78.7096550  49.6901400  80.4159150  77.7652270
  50.2262660  79.5726270  78.9024670  50.8568610  81.9810570  75.1202730
  50.4496690  82.1225160  74.2656330  51.7481620  81.6970730  74.9173940
  60.6747490  86.1302480  82.0269780  61.1892160  86.0410490  82.8292210
  59.8316570  86.4762180  82.3197690  55.1290270  86.1956350  73.2325400
  54.9532750  85.2791890  73.0193200  54.2746010  86.5543640  73.4723200
  61.9177950  85.5508090  74.0900270  62.3734900  84.7697470  74.4038890
  62.2570470  86.2614910  74.6341450  49.6680500  81.3224550  81.2491010
  49.8311540  80.8529910  80.4310380  50.1332950  80.8148110  81.9139850
  58.7269080  73.3198830  81.8886900  58.2648450  73.5281850  82.7006840
  58.3247190  72.5058180  81.5857570  63.7273590  74.5407780  83.0183560
  62.8767180  74.2413530  83.3392630  63.5675380  74.7849790  82.1067380
  60.8223300  76.0409530  85.1182350  61.1476710  75.2073280  84.7784580
  61.6103630  76.5638050  85.2660680  57.5558090  70.0741010  71.1657410
  56.9312270  70.0700880  71.8910720  57.4688210  69.2071970  70.7693380
  61.4611250  75.5827250  72.6123480  60.8620140  76.3063050  72.4287100
  62.0090860  75.5204030  71.8299930  56.6712700  76.4749460  84.6793100
  56.5756300  75.5344190  84.5293500  57.5144680  76.6964530  84.2841170
  60.0676120  74.2190790  74.6426760  60.4605690  74.5362990  73.8295450
  60.4292970  73.3402670  74.7571280  51.8023240  72.8863130  82.8326880
  51.4086630  73.7338340  83.0399660  51.1141640  72.2489500  83.0235520
  58.3768290  72.9698100  85.9023620  57.6866610  72.7770300  86.5369710
  59.1200590  73.2532740  86.4347920  60.6531260  76.8096540  78.7377540
  59.9212380  77.3183350  79.0867640  60.2555600  75.9926520  78.4366320
  57.0908650  73.4850740  77.1430030  57.0944710  73.0440690  76.2934570
  57.9859770  73.8068070  77.2501850  61.1157170  72.2630220  78.1500480
  61.1329910  72.7138870  78.9942330  60.8672750  71.3635860  78.3633920
  56.1650300  76.7963960  69.5320090  55.5967200  76.3482210  68.9056000
  56.8739300  77.1556740  68.9985240  51.2419480  80.6975980  83.4086820
  50.8574270  80.0569650  84.0069780  51.5531670  81.4012100  83.9781550
  57.3916620  77.5452520  78.8895440  57.7586750  77.0711090  79.6356780
  57.2021680  78.4194090  79.2303780  55.1815990  76.5861160  81.2079650
  54.8773060  77.4653140  81.4330010  56.1362450  76.6460950  81.2437090
  53.7097780  80.7922150  71.8046500  52.9360040  80.2519770  71.6445220
  54.4392410  80.2728760  71.4664260  64.4685760  79.7887510  77.5972890
  65.1884880  80.2842800  77.2069000  64.2667580  79.1105400  76.9526760
  59.9295700  71.1825470  71.7402280  59.1160310  70.6838640  71.6647590
  59.7357650  72.0223720  71.3238630  59.8504560  79.8596570  83.4841890
  59.7841870  78.9392240  83.2299480  59.2209700  79.9572010  84.1986530
  53.7535180  80.4602530  75.4425310  54.2713850  79.6570790  75.3882200
  53.3019200  80.3981670  76.2842140  58.6404680  81.7268810  70.7152610
  58.9820380  82.4711040  70.2195930  57.8117390  82.0399930  71.0777440
  51.2379720  77.4263900  82.3551010  50.8794660  78.0917750  82.9424350
  50.9434280  76.5947450  82.7263630  54.4392840  77.8848140  85.2390560
  54.1392980  78.0305320  84.3418380  55.2104080  77.3253430  85.1463950
  59.7821290  82.6817140  83.2345690  59.7965830  81.7498100  83.0164600
  59.0746390  82.7676900  83.8735460  61.5232090  81.0484650  76.0798120
  61.8755910  80.4512780  75.4199490  60.6394420  80.7228880  76.2506370
  57.6095370  81.8082340  73.4868530  58.2966500  82.3551550  73.8676120
  56.8227790  82.3523070  73.5218140  56.9122580  78.8128370  73.0993890
  57.3685360  79.6233620  73.3254080  56.5610790  78.4951510  73.9312380
  59.2155190  84.3234710  80.3286190  59.8597410  84.5294090  81.0059610
  59.5784630  83.5623110  79.8757040  60.4887270  82.3267060  79.0463640
  61.1309500  81.6260220  79.1595810  61.0136620  83.1065500  78.8660530
  62.2624890  83.1261960  82.2499700  62.5981130  83.7128650  82.9277620
  61.3425230  82.9954670  82.4797490  49.8128290  70.9157140  83.0323110
  49.0986810  71.1154060  83.6375720  50.2323330  70.1396710  83.4037910
  63.9159240  80.5287620  70.4316940  63.6280940  80.9900310  71.2194820
  64.7111410  80.0685390  70.7001160  58.0913470  83.1753290  85.4187760
  57.7710340  82.4562530  85.9633450  57.4171830  83.8508360  85.4923820
  56.1327640  84.0213740  70.3620910  56.1237740  84.7543430  69.7465420
  55.2126000  83.7745320  70.4547870  51.7334280  79.2428630  71.1067670
  51.1262230  79.9827530  71.1162970  52.2083630  79.3327990  70.2805870
  61.3067070  73.4079450  80.7824560  61.6747890  72.5874660  81.1104130
  60.4465270  73.4681340  81.1980210  58.2669060  76.0619040  81.0062530
  58.7654310  76.5364860  81.6714380  58.4092010  75.1382560  81.2132560
  60.6728560  71.3673000  74.4465790  60.5496340  71.3859130  73.4975300
  61.6213120  71.4151940  74.5664190  57.7605350  86.6028300  73.7193770
  58.0146850  86.5649690  72.7973140  56.8117830  86.4761630  73.7122020
  63.7657930  77.5220180  75.2952280  62.8248070  77.5370410  75.4699970
  64.0802000  76.7356140  75.7412580  53.7439570  79.2039780  68.8556240
  54.5102840  79.0921140  69.4181670  53.8214260  78.5077750  68.2033010
  65.7683510  84.6929030  76.9706540  65.8930930  85.5160200  77.4430350
  66.6349070  84.4819760  76.6230690  53.2401040  86.7860240  76.6423670
  53.9763520  86.2375700  76.9132240  53.6241960  87.6516250  76.5029660
  50.1246520  82.8533810  72.5165180  49.1986300  83.0954950  72.5070590
  50.5902950  83.6808070  72.3949930  61.0823950  82.0786180  85.7784660
  60.4762110  82.1017780  85.0380410  60.7778060  81.3469220  86.3151910
  49.9657130  78.4579770  84.7745300  50.4696150  77.8787050  85.3461530
  49.2264550  78.7420000  85.3121670  56.8680750  81.1793960  68.3291590
  56.7631390  80.5646310  69.0552970  56.7004970  80.6559850  67.5454600
  57.0195070  79.8650760  84.3080820  56.2540740  80.4335760  84.2235490
  57.2011030  79.5726970  83.4149050  51.9980210  76.6009360  85.6695370
  52.0385550  76.3023230  86.5780600  52.8525710  77.0016970  85.5102890
  55.7758600  79.2004910  70.8298880  56.1975020  79.0344780  71.6730270
  55.9009440  78.3905140  70.3354020  53.9386020  75.1801460  83.6369860
  53.4082480  74.6892410  83.0093200  54.6074090  75.6085660  83.1027790
  62.8364080  79.6470920  83.4011050  63.2505100  79.8016000  84.2501470
  61.9015080  79.7726140  83.5636830  54.4258320  72.1463830  83.7167150
  54.3315190  71.5284580  82.9918020  53.8455710  72.8730120  83.4897060
  57.1919760  70.7037070  80.7494540  56.7437060  70.7261330  79.9040090
  56.5584960  70.3056090  81.3464840  57.5979310  79.5991400  81.3706980
  58.0167420  80.4424130  81.1983220  56.6787940  79.7363440  81.1413760
  59.9343210  77.3307580  82.7544820  60.0539420  76.7348720  83.4939660
  60.7937210  77.3677270  82.3346120  62.2731110  77.8844770  81.3307330
  61.7466330  78.4087390  80.7272470  62.6162450  78.5172160  81.9617060
  56.7011980  73.8728930  84.0120640  57.2911670  73.5644780  84.6998460
  55.8832220  73.4008680  84.1680540  58.3048940  87.1395620  82.7451360
  58.2307640  88.0430760  83.0523730  57.4027780  86.8207520  82.7173430
  49.7076230  84.4670210  76.0484980  50.0379240  83.5991270  75.8163620
  50.1367230  84.6728730  76.8789940  54.3038150  82.7979220  73.7086950
  54.0033690  82.6744190  74.6090860  54.1975640  81.9387810  73.3002680
  50.1966440  85.3340800  78.7866610  49.7597430  85.5141600  79.6190760
  50.7644120  86.0915420  78.6448330  50.0290870  77.8461030  75.1455490
  49.3739710  77.5772670  74.5015190  50.8668820  77.7365510  74.6957470
  67.5346500  80.1773200  75.7589760  67.9055330  79.3940520  75.3525730
  68.1748430  80.8662300  75.5807060  64.5180260  81.5609780  81.1720080
  63.7040100  81.9906940  81.4345870  64.9254460  82.1728190  80.5589130
  66.4771040  77.5526460  73.0649780  66.1014640  76.7854390  72.6331070
  65.7474160  77.9349160  73.5524710  51.0666800  78.2313600  79.6858830
  51.4339840  78.1441000  80.5654850  50.4977620  77.4680150  79.5865690
  50.6182800  75.1422690  83.5917250  49.7238850  75.1089450  83.9310960
  51.1580350  75.3409480  84.3568500  64.3058730  71.9254410  85.4769000
  65.1828910  71.9337810  85.8603000  64.3179570  71.1885250  84.8661350
  65.7522000  75.7783950  76.3657020  66.2759480  75.2846600  75.7347190
  66.3381420  75.9134310  77.1104590  65.9311720  75.8623820  79.8876570
  64.9814430  75.8287360  80.0021560  66.1124730  76.7723930  79.6526340
  65.2421970  75.0357300  72.3049430  65.7381090  74.8028170  73.0898310
  65.0438040  74.1969140  71.8887070  66.6709130  73.6718250  74.8387110
  66.5608410  73.5174290  75.7769380  67.4316720  73.1439190  74.5962520
  50.8754510  69.5726690  80.6825790  50.5269330  70.0290510  81.4483970
  50.5442210  68.6783820  80.7648220  52.4818880  82.7446290  84.8478980
  52.4388510  82.3739200  85.7293440  52.6129890  83.6823860  84.9880800
  56.1824910  84.3005880  80.4488700  55.9416270  84.5680440  79.5619220
  57.1227550  84.4711610  80.5039560  58.3879330  70.7638570  84.2045210
  58.3268220  71.3560400  84.9540620  59.3279710  70.6564530  84.0595470
  61.0253890  70.4208630  83.8437500  61.6394300  70.7387920  83.1818580
  61.5703450  69.9357220  84.4633360  51.5475150  69.1002890  83.9576560
  52.0958140  68.9190940  83.1942670  51.6130460  68.3097000  84.4932870
  61.7661930  68.9840770  80.1706790  60.8921770  69.3175880  79.9679720
  61.6572680  68.5113950  80.9958660  62.6733910  71.1911640  81.5548510
  62.3447270  70.3763400  81.1750240  63.6216210  71.1481450  81.4314200
  51.9519140  83.0566920  80.9184800  51.2253200  82.4372210  80.8510750
  52.0128290  83.4507530  80.0482880  55.5564240  85.2711920  77.7034210
  56.0729260  84.6599280  77.1782470  56.2061620  85.7740700  78.1945220
  58.2959740  86.1620410  78.5303190  58.5837550  85.9074710  77.6536200
  58.8082960  85.6097770  79.1208760  59.5136750  69.9010610  79.1099700
  58.7308540  70.3756110  79.3896460  59.2199680  68.9965440  79.0012880
  64.0657820  70.6033710  77.1548790  64.5065910  70.5478810  76.3070390
  63.7965410  71.5191720  77.2258970  65.9296390  70.2348950  75.1657610
  65.8684790  69.2910170  75.0188630  66.7088420  70.3429040  75.7111070
  50.2349140  86.3741310  74.1281560  50.0671180  85.7411990  74.8263450
  49.3683650  86.5800710  73.7775750  61.9015950  68.9839810  75.8598800
  62.5045320  69.5560020  76.3347320  61.1608940  69.5479250  75.6372700
  58.3632100  87.0836510  85.8971390  59.2899410  86.8480780  85.9407350
  58.3482530  87.9108510  85.4157420  55.5495710  69.7481260  85.6613270
  55.2679980  70.2514860  84.8974090  55.9315410  68.9503010  85.2955400
  54.4404810  87.0156920  70.4480950  55.1723630  86.7316200  69.9004840
  54.6998480  86.7770200  71.3380330  53.1854450  83.3066230  59.5571530
  53.4882490  82.4163970  59.3781750  53.9298040  83.8636450  59.3293780
  51.6145140  74.2328030  53.1455900  50.7261840  74.5744000  53.0435780
  51.8986330  74.0328350  52.2536730  49.5778150  76.8333680  59.0295600
  50.1494260  76.0655880  59.0299240  49.5779690  77.1322440  58.1202210
  50.8203020  72.2418040  60.8164530  50.6405860  71.3443790  61.0967290
  50.4183100  72.7889910  61.4911480  53.7906530  72.8159530  54.1794280
  53.8973280  73.7163260  54.4863040  52.8798890  72.7677500  53.8888930
  51.4389690  74.7378540  59.4246870  52.1199800  75.0016910  60.0434270
  51.1237740  73.8979410  59.7584880  53.9150360  70.4244460  62.7782880
  53.9168800  70.9416850  61.9728780  53.0854670  69.9474640  62.7552810
  53.5965690  72.1354420  60.7853330  53.9382500  72.9796470  60.4907200
  52.6581500  72.2838160  60.9018670  49.6704650  81.2220300  51.6512410
  49.2932630  81.7107400  50.9197310  49.9277720  81.8945580  52.2818940
  53.9859600  74.9893470  60.4076810  54.5374190  75.0988810  59.6330060
  54.5003110  75.3631070  61.1232040  51.9735610  77.1095240  54.1284420
  51.8533210  77.8357330  53.5165690  51.6636500  76.3398150  53.6512330
  49.6120980  80.2810380  59.9353060  49.6901400  80.4159150  58.9908780
  50.2262660  79.5726270  60.1281180  50.8568610  81.9810570  56.3459240
  50.4496690  82.1225160  55.4912840  51.7481620  81.6970730  56.1430450
  49.6680500  81.3224550  62.4747520  49.8311540  80.8529910  61.6566890
  50.1332950  80.8148110  63.1396360  54.4399270  70.4530310  57.5108090
  53.9967420  71.2339850  57.1792610  54.9984260  70.7760200  58.2179030
  57.5558090  70.0741010  52.3913920  56.9312270  70.0700880  53.1167230
  57.4688210  69.2071970  51.9949890  54.2313490  75.5763880  55.2389340
  54.0054410  75.3601050  56.1435960  53.4506020  76.0092340  54.8935310
  51.8023240  72.8863130  64.0583390  51.4086630  73.7338340  64.2656170
  51.1141640  72.2489500  64.2492030  58.3768290  72.9698100  67.1280130
  57.6866610  72.7770300  67.7626220  59.1200590  73.2532740  67.6604430
  49.1040290  70.8091590  58.0913470  48.8153340  71.3794450  58.8038450
  49.8486050  70.3296040  58.4544700  49.2910520  74.7511710  49.3016190
  49.2085190  75.6942470  49.4431180  48.9393580  74.6086620  48.4228540
  52.9411030  73.3677230  57.3280750  52.6011080  73.8452460  58.0847800
  52.1788350  72.9142350  56.9681850  50.2557110  72.2896210  56.2445420
  49.9704030  71.9251880  57.0824040  50.1935970  71.5576670  55.6308560
  49.7487770  77.4255160  50.2042120  50.6182620  77.7079960  50.4878040
  49.2578090  78.2391030  50.0890930  52.8134360  69.1566020  54.7972920
  52.6848990  69.1483920  55.7457840  51.9896380  69.4949110  54.4463930
  49.8128290  70.9157140  64.2579620  49.0986810  71.1154060  64.8632230
  50.2323330  70.1396710  64.6294420  58.0913470  83.1753290  66.6444270
  57.7710340  82.4562530  67.1889960  57.4171830  83.8508360  66.7180330
  51.7334280  79.2428630  52.3324180  51.1262230  79.9827530  52.3419480
  52.2083630  79.3327990  51.5062380  54.8448150  72.9507420  51.6077220
  55.6938680  73.3877570  51.5417410  54.4779420  73.2627680  52.4349280
  52.4386330  76.6364850  50.7645640  52.5189920  75.6892360  50.8763040
  53.3306080  76.9671730  50.8706300  53.2401040  86.7860240  57.8680180
  53.9763520  86.2375700  58.1388750  53.6241960  87.6516250  57.7286170
  54.4258320  72.1463830  64.9423660  54.3315190  71.5284580  64.2174530
  53.8455710  72.8730120  64.7153570  57.1919760  70.7037070  61.9751050
  56.7437060  70.7261330  61.1296600  56.5584960  70.3056090  62.5721350
  55.4486730  85.9044410  63.7121220  54.9107820  86.6290470  63.3929920
  55.7020690  85.4274750  62.9218560  56.7011980  73.8728930  65.2377150
  57.2911670  73.5644780  65.9254970  55.8832220  73.4008680  65.3937050
  62.1505810  70.0846370  51.5300430  62.4308100  69.2414270  51.8859850
  61.3771540  70.3169480  52.0439180  53.4700300  72.3738760  48.9891430
  53.7726200  72.3806190  48.0810580  54.2094890  72.0236620  49.4859090
  56.6885230  71.3173380  49.9747630  56.3407230  70.6397370  49.3950080
  56.8898000  70.8562890  50.7891020  49.7076230  84.4670210  57.2741490
  50.0379240  83.5991270  57.0420130  50.1367230  84.6728730  58.1046450
  50.0290870  77.8461030  56.3712000  49.3739710  77.5772670  55.7271700
  50.8668820  77.7365510  55.9213980  49.2428950  75.0559960  52.3137330
  48.3393030  75.3190160  52.1388990  49.7269570  75.3271130  51.5337290
  51.7856160  74.1125500  50.2231710  52.4947860  73.6908720  49.7378990
  51.0696100  74.1800730  49.5915060  51.4330320  70.1664830  49.2634360
  52.1558450  70.7073770  49.5815580  51.7054840  69.8928250  48.3875900
  58.3879330  70.7638570  65.4301720  58.3268220  71.3560400  66.1797130
  59.3279710  70.6564530  65.2851980  51.5475150  69.1002890  65.1833070
  52.0958140  68.9190940  64.4199180  51.6130460  68.3097000  65.7189380
  50.2349140  86.3741310  55.3538070  50.0671180  85.7411990  56.0519960
  49.3683650  86.5800710  55.0032260  50.8577160  70.2058090  52.8569930
  51.6156520  70.3186970  52.2833960  50.3954330  71.0427290  52.8113360
  53.2302310  70.7322140  51.3971900  53.7595070  69.9451940  51.2679850
  53.8630630  71.4113330  51.6307430  55.4240150  70.4697280  54.4517290
  54.7942890  69.7684590  54.6187420  54.8845290  71.2301410  54.2350450
  61.0569320  77.1827310  37.8284990  60.9763370  76.2681920  37.5576700
  60.6433740  77.6794380  37.1224700  53.2053190  79.2726140  40.5870020
  52.3738070  79.0174850  40.9866530  53.8134170  79.3436910  41.3227940
  53.1854450  83.3066230  40.7828040  53.4882490  82.4163970  40.6038260
  53.9298040  83.8636450  40.5550290  49.5778150  76.8333680  40.2552110
  50.1494260  76.0655880  40.2555750  49.5779690  77.1322440  39.3458720
  59.4358100  85.6524530  38.1097380  58.8169540  86.1082030  37.5391820
  60.2909880  85.8075990  37.7087080  50.8203020  72.2418040  42.0421040
  50.6405860  71.3443790  42.3223800  50.4183100  72.7889910  42.7167990
  59.6601520  74.4433900  39.9433350  60.0366340  73.5705780  39.8307020
  59.5621030  74.7792600  39.0523790  63.4425640  71.9384340  36.8761690
  64.2635260  71.4480910  36.9187170  63.4759720  72.5282000  37.6293530
  51.4389690  74.7378540  40.6503380  52.1199800  75.0016910  41.2690780
  51.1237740  73.8979410  40.9841390  55.6314260  75.7845900  39.7375970
  56.1392480  76.2826870  40.3780990  56.1627500  75.0081100  39.5615330
  67.7325190  73.9551090  43.4405320  67.0277360  74.3432800  42.9220430
  67.9983110  74.6501380  44.0426250  60.3021450  80.5363770  35.5029290
  59.6838720  81.0013220  34.9392010  60.8144700  81.2291250  35.9198800
  63.6787120  73.8784720  39.6489230  62.9742690  74.1669610  40.2292340
  64.0399280  74.6884830  39.2888790  53.5965690  72.1354420  42.0109840
  53.9382500  72.9796470  41.7163710  52.6581500  72.2838160  42.1275180
  66.7474040  73.3239510  40.0398440  65.7998950  73.3578490  40.1713870
  67.0724030  74.1378460  40.4247800  57.2793580  69.6236690  38.3354430
  57.5868560  69.0683580  37.6189930  56.3494280  69.7581150  38.1527420
  64.1254060  82.0620200  35.7152060  64.0150390  81.1194530  35.8401480
  64.1222310  82.4235840  36.6014820  59.6674340  77.6885520  35.0714550
  58.7403620  77.6222900  35.3003020  59.8199160  78.6265650  34.9569790
  59.6543420  73.9602520  32.0681710  58.7147090  74.1216480  32.1534170
  59.9726680  74.6788200  31.5217700  63.6971630  79.2505820  35.5749800
  63.0784050  78.9125370  34.9276100  63.6796080  78.6065580  36.2828990
  55.2730980  78.2150260  37.8534280  54.8687980  77.5027510  37.3580180
  55.3594100  77.8703500  38.7422320  55.7412680  81.9017820  40.0173490
  55.4440970  81.2963290  39.3381270  56.6912500  81.9395130  39.9062850
  53.9859600  74.9893470  41.6333320  54.5374190  75.0988810  40.8586570
  54.5003110  75.3631070  42.3488550  53.6602330  78.5112830  45.2438660
  53.5210100  79.3835630  45.6126060  52.7783690  78.1685640  45.0986600
  59.9831710  83.4288700  36.5503790  60.4227620  84.1713030  36.1359180
  59.9218600  83.6715270  37.4742750  65.4553470  69.7435440  30.8963590
  65.1426130  69.8362270  31.7962660  66.2165940  70.3216470  30.8461020
  49.6120980  80.2810380  41.1609570  49.6901400  80.4159150  40.2165290
  50.2262660  79.5726270  41.3537690  50.8568610  81.9810570  37.5715750
  50.4496690  82.1225160  36.7169350  51.7481620  81.6970730  37.3686960
  55.1290270  86.1956350  35.6838420  54.9532750  85.2791890  35.4706220
  54.2746010  86.5543640  35.9236220  49.6680500  81.3224550  43.7004030
  49.8311540  80.8529910  42.8823400  50.1332950  80.8148110  44.3652870
  54.4399270  70.4530310  38.7364600  53.9967420  71.2339850  38.4049120
  54.9984260  70.7760200  39.4435540  58.7269080  73.3198830  44.3399920
  58.2648450  73.5281850  45.1519860  58.3247190  72.5058180  44.0370590
  57.5558090  70.0741010  33.6170430  56.9312270  70.0700880  34.3423740
  57.4688210  69.2071970  33.2206400  56.4775170  70.9977640  40.5954200
  56.7747500  71.9040470  40.5146220  57.0260730  70.5096420  39.9813770
  61.4611250  75.5827250  35.0636500  60.8620140  76.3063050  34.8800120
  62.0090860  75.5204030  34.2812950  60.0676120  74.2190790  37.0939780
  60.4605690  74.5362990  36.2808470  60.4292970  73.3402670  37.2084300
  51.8023240  72.8863130  45.2839900  51.4086630  73.7338340  45.4912680
  51.1141640  72.2489500  45.4748540  49.1040290  70.8091590  39.3169980
  48.8153340  71.3794450  40.0294960  49.8486050  70.3296040  39.6801210
  57.0908650  73.4850740  39.5943050  57.0944710  73.0440690  38.7447590
  57.9859770  73.8068070  39.7014870  52.9411030  73.3677230  38.5537260
  52.6011080  73.8452460  39.3104310  52.1788350  72.9142350  38.1938360
  57.1528800  74.4862820  32.5849810  57.2741620  74.4449300  33.5335630
  56.7677310  75.3486970  32.4296540  61.1157170  72.2630220  40.6013500
  61.1329910  72.7138870  41.4455350  60.8672750  71.3635860  40.8146940
  56.1650300  76.7963960  31.9833110  55.5967200  76.3482210  31.3569020
  56.8739300  77.1556740  31.4498260  64.5427920  69.6762400  46.4399880
  64.8673690  68.9452060  46.9657860  64.5784430  69.3576040  45.5380870
  55.1815990  76.5861160  43.6592670  54.8773060  77.4653140  43.8843030
  56.1362450  76.6460950  43.6950110  53.7097780  80.7922150  34.2559520
  52.9360040  80.2519770  34.0958240  54.4392410  80.2728760  33.9177280
  59.9295700  71.1825470  34.1915300  59.1160310  70.6838640  34.1160610
  59.7357650  72.0223720  33.7751650  62.6444090  75.5545120  32.4877460
  63.5323710  75.8662350  32.3128800  62.6149180  74.6817370  32.0958040
  53.7535180  80.4602530  37.8938330  54.2713850  79.6570790  37.8395220
  53.3019200  80.3981670  38.7355160  51.2379720  77.4263900  44.8064030
  50.8794660  78.0917750  45.3937370  50.9434280  76.5947450  45.1776650
  64.9158360  76.8656960  31.9557320  64.8322080  77.2971180  31.1053760
  65.6352550  77.3255310  32.3884140  65.9445610  83.7199220  34.6839450
  65.3021770  83.0654840  34.9583170  65.5576270  84.1254310  33.9080120
  57.6095370  81.8082340  35.9381550  58.2966500  82.3551550  36.3189140
  56.8227790  82.3523070  35.9731160  56.9122580  78.8128370  35.5506910
  57.3685360  79.6233620  35.7767100  56.5610790  78.4951510  36.3825400
  49.8128290  70.9157140  45.4836130  49.0986810  71.1154060  46.0888740
  50.2323330  70.1396710  45.8550930  56.1327640  84.0213740  32.8133930
  56.1237740  84.7543430  32.1978440  55.2126000  83.7745320  32.9060890
  61.3067070  73.4079450  43.2337580  61.6747890  72.5874660  43.5617150
  60.4465270  73.4681340  43.6493230  64.6729100  72.3636390  34.0425140
  64.0442260  72.4682060  33.3283370  64.1781020  72.5833170  34.8319020
  56.6413130  74.6422340  35.4583020  55.9329280  75.1108680  35.8996630
  56.9257610  73.9844350  36.0928210  60.6728560  71.3673000  36.8978810
  60.5496340  71.3859130  35.9488320  61.6213120  71.4151940  37.0177210
  57.7605350  86.6028300  36.1706790  58.0146850  86.5649690  35.2486160
  56.8117830  86.4761630  36.1635040  54.8448150  72.9507420  32.8333730
  55.6938680  73.3877570  32.7673920  54.4779420  73.2627680  33.6605790
  65.4735920  72.2787000  44.3003940  64.9709520  73.0192400  44.6397750
  66.2892580  72.6671000  43.9840730  63.7657930  77.5220180  37.7465300
  62.8248070  77.5370410  37.9212990  64.0802000  76.7356140  38.1925600
  53.2401040  86.7860240  39.0936690  53.9763520  86.2375700  39.3645260
  53.6241960  87.6516250  38.9542680  56.3503350  85.9590550  30.9162260
  57.1431960  86.2479380  30.4644050  55.8307700  85.5282720  30.2374740
  49.9657130  78.4579770  47.2258320  50.4696150  77.8787050  47.7974550
  49.2264550  78.7420000  47.7634690  56.8680750  81.1793960  30.7804610
  56.7631390  80.5646310  31.5065990  56.7004970  80.6559850  29.9967620
  51.9980210  76.6009360  48.1208390  52.0385550  76.3023230  49.0293620
  52.8525710  77.0016970  47.9615910  55.7758600  79.2004910  33.2811900
  56.1975020  79.0344780  34.1243290  55.9009440  78.3905140  32.7867040
  53.9386020  75.1801460  46.0882880  53.4082480  74.6892410  45.4606220
  54.6074090  75.6085660  45.5540810  58.2886240  78.2242520  30.5289000
  58.8091900  77.5091540  30.1630150  58.9354640  78.8628390  30.8289510
  56.7011980  73.8728930  46.4633660  57.2911670  73.5644780  47.1511480
  55.8832220  73.4008680  46.6193560  62.1505810  70.0846370  32.7556940
  62.4308100  69.2414270  33.1116360  61.3771540  70.3169480  33.2695690
  53.4700300  72.3738760  30.2147940  53.7726200  72.3806190  29.3067090
  54.2094890  72.0236620  30.7115600  56.6885230  71.3173380  31.2004140
  56.3407230  70.6397370  30.6206590  56.8898000  70.8562890  32.0147530
  52.4930430  81.6781180  31.0477740  52.9305300  82.2210850  31.7035320
  52.9778160  80.8528130  31.0574080  49.7076230  84.4670210  38.4998000
  50.0379240  83.5991270  38.2676640  50.1367230  84.6728730  39.3302960
  54.3038150  82.7979220  36.1599970  54.0033690  82.6744190  37.0603880
  54.1975640  81.9387810  35.7515700  50.1966440  85.3340800  41.2379630
  49.7597430  85.5141600  42.0703780  50.7644120  86.0915420  41.0961350
  66.5286530  79.3223100  33.3660850  67.2905440  79.8919750  33.4720540
  66.5440900  78.7550300  34.1369160  67.5346500  80.1773200  38.2102780
  67.9055330  79.3940520  37.8038750  68.1748430  80.8662300  38.0320080
  66.5805700  79.6157470  30.5233370  66.8554540  80.5236350  30.3952590
  66.3916440  79.5520000  31.4595360  62.9781310  72.6402320  31.8187000
  63.3966190  72.4533300  30.9783660  62.6717370  71.7881370  32.1289930
  66.4771040  77.5526460  35.5162800  66.1014640  76.7854390  35.0844090
  65.7474160  77.9349160  36.0037730  51.0666800  78.2313600  42.1371850
  51.4339840  78.1441000  43.0167870  50.4977620  77.4680150  42.0378710
  50.6182800  75.1422690  46.0430270  49.7238850  75.1089450  46.3823980
  51.1580350  75.3409480  46.8081520  65.7522000  75.7783950  38.8170040
  66.2759480  75.2846600  38.1860210  66.3381420  75.9134310  39.5617610
  65.9311720  75.8623820  42.3389590  64.9814430  75.8287360  42.4534580
  66.1124730  76.7723930  42.1039360  51.4330320  70.1664830  30.4890870
  52.1558450  70.7073770  30.8072090  51.7054840  69.8928250  29.6132410
  65.2421970  75.0357300  34.7562450  65.7381090  74.8028170  35.5411330
  65.0438040  74.1969140  34.3400090  51.1222510  69.4171020  40.3913490
  51.7698700  68.8668400  39.9508650  51.5424350  69.6714170  41.2129300
  66.6709130  73.6718250  37.2900130  66.5608410  73.5174290  38.2282400
  67.4316720  73.1439190  37.0475540  65.0174850  69.6112380  43.7483130
  65.6547070  70.2246520  44.1142320  65.1649740  69.6473040  42.8032360
  67.5599400  71.5026170  30.5306270  68.4848710  71.3707350  30.3224560
  67.5375190  71.5818990  31.4842720  67.6337890  72.2736830  33.1562980
  66.8389390  72.2081950  33.6855890  67.8381170  73.2087470  33.1448330
  50.8754510  69.5726690  43.1338810  50.5269330  70.0290510  43.8996990
  50.5442210  68.6783820  43.2161240  61.0253890  70.4208630  46.2950520
  61.6394300  70.7387920  45.6331600  61.5703450  69.9357220  46.9146380
  61.7661930  68.9840770  42.6219810  60.8921770  69.3175880  42.4192740
  61.6572680  68.5113950  43.4471680  62.6733910  71.1911640  44.0061530
  62.3447270  70.3763400  43.6263260  63.6216210  71.1481450  43.8827220
  64.0657820  70.6033710  39.6061810  64.5065910  70.5478810  38.7583410
  63.7965410  71.5191720  39.6771990  65.9296390  70.2348950  37.6170630
  65.8684790  69.2910170  37.4701650  66.7088420  70.3429040  38.1624090
  50.8577160  70.2058090  34.0826440  51.6156520  70.3186970  33.5090470
  50.3954330  71.0427290  34.0369870  57.3990970  72.3197360  37.0728750
  56.5865480  71.9454250  36.7324630  57.9032610  71.5642440  37.3749940
  61.9015950  68.9839810  38.3111820  62.5045320  69.5560020  38.7860340
  61.1608940  69.5479250  38.0885720  65.0450550  69.3861370  33.5852100
  65.2401180  70.2844820  33.8519530  64.2580420  69.1548450  34.0785050
  53.2302310  70.7322140  32.6228410  53.7595070  69.9451940  32.4936360
  53.8630630  71.4113330  32.8563940  55.4240150  70.4697280  35.6773800
  54.7942890  69.7684590  35.8443930  54.8845290  71.2301410  35.4606960
  66.5977160  86.6262080  35.3458660  66.7729350  85.9399820  34.7019580
  65.8998730  87.1509130  34.9535330  53.6019600  83.1321650  32.9040300
  52.9728480  83.6006750  33.4526130  53.7167430  82.2870870  33.3386490
  62.1511170  69.1634840  48.6906760  62.0376620  69.4829450  49.5858280
  62.9680910  69.5647350  48.3944040  61.0569320  77.1827310  19.0541500
  60.9763370  76.2681920  18.7833210  60.6433740  77.6794380  18.3481210
  59.1887360  78.9606330  20.9350770  58.4129460  78.4806770  21.2249340
  59.8400290  78.2811980  20.7606930  53.2053190  79.2726140  21.8126530
  52.3738070  79.0174850  22.2123040  53.8134170  79.3436910  22.5484450
  53.1854450  83.3066230  22.0084550  53.4882490  82.4163970  21.8294770
  53.9298040  83.8636450  21.7806800  51.6145140  74.2328030  15.5968920
  50.7261840  74.5744000  15.4948800  51.8986330  74.0328350  14.7049750
  49.5778150  76.8333680  21.4808620  50.1494260  76.0655880  21.4812260
  49.5779690  77.1322440  20.5715230  59.6601520  74.4433900  21.1689860
  60.0366340  73.5705780  21.0563530  59.5621030  74.7792600  20.2780300
  53.7906530  72.8159530  16.6307300  53.8973280  73.7163260  16.9376060
  52.8798890  72.7677500  16.3401950  55.6314260  75.7845900  20.9632480
  56.1392480  76.2826870  21.6037500  56.1627500  75.0081100  20.7871840
  67.7325190  73.9551090  24.6661830  67.0277360  74.3432800  24.1476940
  67.9983110  74.6501380  25.2682760  53.9150360  70.4244460  25.2295900
  53.9168800  70.9416850  24.4241800  53.0854670  69.9474640  25.2065830
  60.3021450  80.5363770  16.7285800  59.6838720  81.0013220  16.1648520
  60.8144700  81.2291250  17.1455310  55.1653210  80.0639640  23.4069400
  54.8322590  80.6908560  24.0490470  55.3419890  80.5901520  22.6271070
  63.6787120  73.8784720  20.8745740  62.9742690  74.1669610  21.4548850
  64.0399280  74.6884830  20.5145300  53.5965690  72.1354420  23.2366350
  53.9382500  72.9796470  22.9420220  52.6581500  72.2838160  23.3531690
  54.3772310  82.0320440  25.2218580  54.9946310  82.7071520  24.9403030
  53.5165430  82.4408420  25.1306080  49.6704650  81.2220300  14.1025430
  49.2932630  81.7107400  13.3710330  49.9277720  81.8945580  14.7331960
  66.7474040  73.3239510  21.2654950  65.7998950  73.3578490  21.3970380
  67.0724030  74.1378460  21.6504310  57.2793580  69.6236690  19.5610940
  57.5868560  69.0683580  18.8446440  56.3494280  69.7581150  19.3783930
  62.2294080  80.2433820  23.1801010  62.6462870  80.0293930  22.3454470
  62.9533900  80.5006610  23.7509630  59.6674340  77.6885520  16.2971060
  58.7403620  77.6222900  16.5259530  59.8199160  78.6265650  16.1826300
  59.6543420  73.9602520  13.2938220  58.7147090  74.1216480  13.3790680
  59.9726680  74.6788200  12.7474210  66.1756180  78.6421040  23.2717250
  65.3474810  78.7114130  22.7967380  66.7706660  79.2275350  22.8033080
  63.6971630  79.2505820  16.8006310  63.0784050  78.9125370  16.1532610
  63.6796080  78.6065580  17.5085500  63.1398190  75.4290360  24.2172120
  62.7269370  76.2544070  24.4712110  62.4074140  74.8435400  24.0248480
  55.2730980  78.2150260  19.0790790  54.8687980  77.5027510  18.5836690
  55.3594100  77.8703500  19.9678830  55.7412680  81.9017820  21.2430000
  55.4440970  81.2963290  20.5637780  56.6912500  81.9395130  21.1319360
  53.9859600  74.9893470  22.8589830  54.5374190  75.0988810  22.0843080
  54.5003110  75.3631070  23.5745060  54.8331110  81.6399510  27.8937800
  53.9359640  81.8639480  28.1411200  54.8583980  81.7634450  26.9449200
  61.8736330  78.4892630  13.8079060  62.3129610  77.6515060  13.6616880
  62.5864750  79.1222030  13.8943200  51.9735610  77.1095240  16.5797440
  51.8533210  77.8357330  15.9678710  51.6636500  76.3398150  16.1025350
  49.6120980  80.2810380  22.3866080  49.6901400  80.4159150  21.4421800
  50.2262660  79.5726270  22.5794200  50.8568610  81.9810570  18.7972260
  50.4496690  82.1225160  17.9425860  51.7481620  81.6970730  18.5943470
  66.6654760  74.4806940  28.0994240  66.0499030  74.9886610  27.5709700
  66.3451180  73.5805270  28.0420180  49.6680500  81.3224550  24.9260540
  49.8311540  80.8529910  24.1079910  50.1332950  80.8148110  25.5909380
  54.4399270  70.4530310  19.9621110  53.9967420  71.2339850  19.6305630
  54.9984260  70.7760200  20.6692050  58.7269080  73.3198830  25.5656430
  58.2648450  73.5281850  26.3776370  58.3247190  72.5058180  25.2627100
  63.7273590  74.5407780  26.6953090  62.8767180  74.2413530  27.0162160
  63.5675380  74.7849790  25.7836910  60.8223300  76.0409530  28.7951880
  61.1476710  75.2073280  28.4554110  61.6103630  76.5638050  28.9430210
  56.4775170  70.9977640  21.8210710  56.7747500  71.9040470  21.7402730
  57.0260730  70.5096420  21.2070280  54.2313490  75.5763880  17.6902360
  54.0054410  75.3601050  18.5948980  53.4506020  76.0092340  17.3448330
  61.4611250  75.5827250  16.2893010  60.8620140  76.3063050  16.1056630
  62.0090860  75.5204030  15.5069460  56.6712700  76.4749460  28.3562630
  56.5756300  75.5344190  28.2063030  57.5144680  76.6964530  27.9610700
  58.3768290  72.9698100  29.5793150  57.6866610  72.7770300  30.2139240
  59.1200590  73.2532740  30.1117450  49.1040290  70.8091590  20.5426490
  48.8153340  71.3794450  21.2551470  49.8486050  70.3296040  20.9057720
  49.2910520  74.7511710  11.7529210  49.2085190  75.6942470  11.8944200
  48.9393580  74.6086620  10.8741560  60.6531260  76.8096540  22.4147070
  59.9212380  77.3183350  22.7637170  60.2555600  75.9926520  22.1135850
  57.0908650  73.4850740  20.8199560  57.0944710  73.0440690  19.9704100
  57.9859770  73.8068070  20.9271380  52.9411030  73.3677230  19.7793770
  52.6011080  73.8452460  20.5360820  52.1788350  72.9142350  19.4194870
  57.1528800  74.4862820  13.8106320  57.2741620  74.4449300  14.7592140
  56.7677310  75.3486970  13.6553050  61.1157170  72.2630220  21.8270010
  61.1329910  72.7138870  22.6711860  60.8672750  71.3635860  22.0403450
  56.1650300  76.7963960  13.2089620  55.5967200  76.3482210  12.5825530
  56.8739300  77.1556740  12.6754770  64.5427920  69.6762400  27.6656390
  64.8673690  68.9452060  28.1914370  64.5784430  69.3576040  26.7637380
  57.3916620  77.5452520  22.5664970  57.7586750  77.0711090  23.3126310
  57.2021680  78.4194090  22.9073310  50.2557110  72.2896210  18.6958440
  49.9704030  71.9251880  19.5337060  50.1935970  71.5576670  18.0821580
  55.1815990  76.5861160  24.8849180  54.8773060  77.4653140  25.1099540
  56.1362450  76.6460950  24.9206620  53.7097780  80.7922150  15.4816030
  52.9360040  80.2519770  15.3214750  54.4392410  80.2728760  15.1433790
  64.4685760  79.7887510  21.2742420  65.1884880  80.2842800  20.8838530
  64.2667580  79.1105400  20.6296290  62.6444090  75.5545120  13.7133970
  63.5323710  75.8662350  13.5385310  62.6149180  74.6817370  13.3214550
  53.7535180  80.4602530  19.1194840  54.2713850  79.6570790  19.0651730
  53.3019200  80.3981670  19.9611670  58.6404680  81.7268810  14.3922140
  58.9820380  82.4711040  13.8965460  57.8117390  82.0399930  14.7546970
  54.4392840  77.8848140  28.9160090  54.1392980  78.0305320  28.0187910
  55.2104080  77.3253430  28.8233480  64.9158360  76.8656960  13.1813830
  64.8322080  77.2971180  12.3310270  65.6352550  77.3255310  13.6140650
  65.9932500  79.3224480  26.2583800  65.2680690  79.9153260  26.0613190
  66.5207960  79.3148020  25.4597170  49.7487770  77.4255160  12.6555140
  50.6182620  77.7079960  12.9391060  49.2578090  78.2391030  12.5403950
  56.9122580  78.8128370  16.7763420  57.3685360  79.6233620  17.0023610
  56.5610790  78.4951510  17.6081910  52.8134360  69.1566020  17.2485940
  52.6848990  69.1483920  18.1970860  51.9896380  69.4949110  16.8976950
  60.4887270  82.3267060  22.7233170  61.1309500  81.6260220  22.8365340
  61.0136620  83.1065500  22.5430060  50.1159020  86.6382540  13.2216770
  50.4756660  87.2371880  12.5674040  49.9751360  87.1842430  13.9951800
  63.9159240  80.5287620  14.1086470  63.6280940  80.9900310  14.8964350
  64.7111410  80.0685390  14.3770690  56.1327640  84.0213740  14.0390440
  56.1237740  84.7543430  13.4234950  55.2126000  83.7745320  14.1317400
  51.7334280  79.2428630  14.7837200  51.1262230  79.9827530  14.7932500
  52.2083630  79.3327990  13.9575400  61.3067070  73.4079450  24.4594090
  61.6747890  72.5874660  24.7873660  60.4465270  73.4681340  24.8749740
  59.1187240  84.0841980  12.7015630  59.2199220  83.8805970  11.7717610
  58.2188980  83.8300260  12.9063410  56.6413130  74.6422340  16.6839530
  55.9329280  75.1108680  17.1253140  56.9257610  73.9844350  17.3184720
  58.2669060  76.0619040  24.6832060  58.7654310  76.5364860  25.3483910
  58.4092010  75.1382560  24.8902090  54.8448150  72.9507420  14.0590240
  55.6938680  73.3877570  13.9930430  54.4779420  73.2627680  14.8862300
  65.4735920  72.2787000  25.5260450  64.9709520  73.0192400  25.8654260
  66.2892580  72.6671000  25.2097240  63.7657930  77.5220180  18.9721810
  62.8248070  77.5370410  19.1469500  64.0802000  76.7356140  19.4182110
  53.7439570  79.2039780  12.5325770  54.5102840  79.0921140  13.0951200
  53.8214260  78.5077750  11.8802540  52.4386330  76.6364850  13.2158660
  52.5189920  75.6892360  13.3276060  53.3306080  76.9671730  13.3219320
  53.2401040  86.7860240  20.3193200  53.9763520  86.2375700  20.5901770
  53.6241960  87.6516250  20.1799190  50.1246520  82.8533810  16.1934710
  49.1986300  83.0954950  16.1840120  50.5902950  83.6808070  16.0719460
  56.3503350  85.9590550  12.1418770  57.1431960  86.2479380  11.6900560
  55.8307700  85.5282720  11.4631250  56.8680750  81.1793960  12.0061120
  56.7631390  80.5646310  12.7322500  56.7004970  80.6559850  11.2224130
  57.0195070  79.8650760  27.9850350  56.2540740  80.4335760  27.9005020
  57.2011030  79.5726970  27.0918580  60.1083480  80.2413990  12.6103110
  59.5593580  80.6883290  13.2545850  60.7302740  79.7363240  13.1340780
  55.7758600  79.2004910  14.5068410  56.1975020  79.0344780  15.3499800
  55.9009440  78.3905140  14.0123550  58.2886240  78.2242520  11.7545510
  58.8091900  77.5091540  11.3886660  58.9354640  78.8628390  12.0546020
  63.3086250  76.9867080  29.0819730  63.8907020  76.2319400  28.9940210
  63.4848020  77.5174520  28.3051210  54.4258320  72.1463830  27.3936680
  54.3315190  71.5284580  26.6687550  53.8455710  72.8730120  27.1666590
  57.1919760  70.7037070  24.4264070  56.7437060  70.7261330  23.5809620
  56.5584960  70.3056090  25.0234370  57.5979310  79.5991400  25.0476510
  58.0167420  80.4424130  24.8752750  56.6787940  79.7363440  24.8183290
  59.9343210  77.3307580  26.4314350  60.0539420  76.7348720  27.1709190
  60.7937210  77.3677270  26.0115650  62.2731110  77.8844770  25.0076860
  61.7466330  78.4087390  24.4042000  62.6162450  78.5172160  25.6386590
  54.6717500  75.2738140  11.4526570  54.4706560  74.4105500  11.8139910
  54.5009550  75.1871500  10.5148170  56.7011980  73.8728930  27.6890170
  57.2911670  73.5644780  28.3767990  55.8832220  73.4008680  27.8450070
  61.5205410  73.4894740  27.9223190  60.8320930  72.8276280  27.8573180
  62.2411430  73.0433010  28.3671650  53.4700300  72.3738760  11.4404450
  53.7726200  72.3806190  10.5323600  54.2094890  72.0236620  11.9372110
  56.6885230  71.3173380  12.4260650  56.3407230  70.6397370  11.8463100
  56.8898000  70.8562890  13.2404040  52.4930430  81.6781180  12.2734250
  52.9305300  82.2210850  12.9291830  52.9778160  80.8528130  12.2830590
  49.7076230  84.4670210  19.7254510  50.0379240  83.5991270  19.4933150
  50.1367230  84.6728730  20.5559470  54.3038150  82.7979220  17.3856480
  54.0033690  82.6744190  18.2860390  54.1975640  81.9387810  16.9772210
  66.5286530  79.3223100  14.5917360  67.2905440  79.8919750  14.6977050
  66.5440900  78.7550300  15.3625670  50.0290870  77.8461030  18.8225020
  49.3739710  77.5772670  18.1784720  50.8668820  77.7365510  18.3727000
  66.5805700  79.6157470  11.7489880  66.8554540  80.5236350  11.6209100
  66.3916440  79.5520000  12.6851870  66.4771040  77.5526460  16.7419310
  66.1014640  76.7854390  16.3100600  65.7474160  77.9349160  17.2294240
  65.8670660  76.6997980  26.3758830  65.6356750  76.4710730  25.4756780
  66.1275210  77.6197530  26.3303720  64.3058730  71.9254410  29.1538530
  65.1828910  71.9337810  29.5372530  64.3179570  71.1885250  28.5430880
  49.2428950  75.0559960  14.7650350  48.3393030  75.3190160  14.5902010
  49.7269570  75.3271130  13.9850310  65.7522000  75.7783950  20.0426550
  66.2759480  75.2846600  19.4116720  66.3381420  75.9134310  20.7874120
  65.9311720  75.8623820  23.5646100  64.9814430  75.8287360  23.6791090
  66.1124730  76.7723930  23.3295870  51.7856160  74.1125500  12.6744730
  52.4947860  73.6908720  12.1892010  51.0696100  74.1800730  12.0428080
  51.4330320  70.1664830  11.7147380  52.1558450  70.7073770  12.0328600
  51.7054840  69.8928250  10.8388920  65.2421970  75.0357300  15.9818960
  65.7381090  74.8028170  16.7667840  65.0438040  74.1969140  15.5656600
  51.1222510  69.4171020  21.6170000  51.7698700  68.8668400  21.1765160
  51.5424350  69.6714170  22.4385810  66.6709130  73.6718250  18.5156640
  66.5608410  73.5174290  19.4538910  67.4316720  73.1439190  18.2732050
  65.0174850  69.6112380  24.9739640  65.6547070  70.2246520  25.3398830
  65.1649740  69.6473040  24.0288870  67.5599400  71.5026170  11.7562780
  68.4848710  71.3707350  11.5481070  67.5375190  71.5818990  12.7099230
  67.6337890  72.2736830  14.3819490  66.8389390  72.2081950  14.9112400
  67.8381170  73.2087470  14.3704840  56.1824910  84.3005880  24.1258230
  55.9416270  84.5680440  23.2388750  57.1227550  84.4711610  24.1809090
  58.3879330  70.7638570  27.8814740  58.3268220  71.3560400  28.6310150
  59.3279710  70.6564530  27.7365000  61.0253890  70.4208630  27.5207030
  61.6394300  70.7387920  26.8588110  61.5703450  69.9357220  28.1402890
  51.5475150  69.1002890  27.6346090  52.0958140  68.9190940  26.8712200
  51.6130460  68.3097000  28.1702400  61.7661930  68.9840770  23.8476320
  60.8921770  69.3175880  23.6449250  61.6572680  68.5113950  24.6728190
  62.6733910  71.1911640  25.2318040  62.3447270  70.3763400  24.8519770
  63.6216210  71.1481450  25.1083730  55.5564240  85.2711920  21.3803740
  56.0729260  84.6599280  20.8552000  56.2061620  85.7740700  21.8714750
  59.5136750  69.9010610  22.7869230  58.7308540  70.3756110  23.0665990
  59.2199680  68.9965440  22.6782410  64.0657820  70.6033710  20.8318320
  64.5065910  70.5478810  19.9839920  63.7965410  71.5191720  20.9028500
  50.2349140  86.3741310  17.8051090  50.0671180  85.7411990  18.5032980
  49.3683650  86.5800710  17.4545280  50.8577160  70.2058090  15.3082950
  51.6156520  70.3186970  14.7346980  50.3954330  71.0427290  15.2626380
  57.3990970  72.3197360  18.2985260  56.5865480  71.9454250  17.9581140
  57.9032610  71.5642440  18.6006450  51.8411840  85.0674540  15.2501230
  51.3159460  85.4482570  14.5463190  51.7656420  85.6925310  15.9710940
  53.2302310  70.7322140  13.8484920  53.7595070  69.9451940  13.7192870
  53.8630630  71.4113330  14.0820450  55.4240150  70.4697280  16.9030310
  54.7942890  69.7684590  17.0700440  54.8845290  71.2301410  16.6863470
  55.5495710  69.7481260  29.3382800  55.2679980  70.2514860  28.5743620
  55.9315410  68.9503010  28.9724930  54.4404810  87.0156920  14.1250480
  55.1723630  86.7316200  13.5774370  54.6998480  86.7770200  15.0149860
  53.6019600  83.1321650  14.1296810  52.9728480  83.6006750  14.6782640
  53.7167430  82.2870870  14.5643000  62.1511170  69.1634840  29.9163270
  62.0376620  69.4829450  30.8114790  62.9680910  69.5647350  29.6200550
  59.1887360  78.9606330   2.1607280  58.4129460  78.4806770   2.4505850
  59.8400290  78.2811980   1.9863440  53.2053190  79.2726140   3.0383040
  52.3738070  79.0174850   3.4379550  53.8134170  79.3436910   3.7740960
  53.1854450  83.3066230   3.2341060  53.4882490  82.4163970   3.0551280
  53.9298040  83.8636450   3.0063310  49.5778150  76.8333680   2.7065130
  50.1494260  76.0655880   2.7068770  49.5779690  77.1322440   1.7971740
  58.6296350  81.6363520   2.1677440  58.5604630  80.6953460   2.0066570
  59.3916210  81.7264930   2.7400010  50.8203020  72.2418040   4.4934060
  50.6405860  71.3443790   4.7736820  50.4183100  72.7889910   5.1681010
  51.4389690  74.7378540   3.1016400  52.1199800  75.0016910   3.7203800
  51.1237740  73.8979410   3.4354410  55.6314260  75.7845900   2.1888990
  56.1392480  76.2826870   2.8294010  56.1627500  75.0081100   2.0128350
  67.7325190  73.9551090   5.8918340  67.0277360  74.3432800   5.3733450
  67.9983110  74.6501380   6.4939270  53.9150360  70.4244460   6.4552410
  53.9168800  70.9416850   5.6498310  53.0854670  69.9474640   6.4322340
  55.1653210  80.0639640   4.6325910  54.8322590  80.6908560   5.2746980
  55.3419890  80.5901520   3.8527580  63.6787120  73.8784720   2.1002250
  62.9742690  74.1669610   2.6805360  64.0399280  74.6884830   1.7401810
  53.5965690  72.1354420   4.4622860  53.9382500  72.9796470   4.1676730
  52.6581500  72.2838160   4.5788200  54.3772310  82.0320440   6.4475090
  54.9946310  82.7071520   6.1659540  53.5165430  82.4408420   6.3562590
  65.2949900  83.4959850   4.3629730  64.6113420  84.1658960   4.3546400
  65.8344190  83.6940500   3.5974590  66.7474040  73.3239510   2.4911460
  65.7998950  73.3578490   2.6226890  67.0724030  74.1378460   2.8760820
  62.8308640  85.3403980   3.0774910  62.8435800  84.9366270   2.2097170
  62.2783860  86.1151270   2.9736340  62.2294080  80.2433820   4.4057520
  62.6462870  80.0293930   3.5710980  62.9533900  80.5006610   4.9766140
  66.1756180  78.6421040   4.4973760  65.3474810  78.7114130   4.0223890
  66.7706660  79.2275350   4.0289590  63.1398190  75.4290360   5.4428630
  62.7269370  76.2544070   5.6968620  62.4074140  74.8435400   5.2504990
  55.7412680  81.9017820   2.4686510  55.4440970  81.2963290   1.7894290
  56.6912500  81.9395130   2.3575870  53.9859600  74.9893470   4.0846340
  54.5374190  75.0988810   3.3099590  54.5003110  75.3631070   4.8001570
  63.8298290  85.4749690   6.1309610  63.3528850  86.2821880   5.9382220
  63.1460080  84.8228020   6.2835820  54.8331110  81.6399510   9.1194310
  53.9359640  81.8639480   9.3667710  54.8583980  81.7634450   8.1705710
  53.6602330  78.5112830   7.6951680  53.5210100  79.3835630   8.0639080
  52.7783690  78.1685640   7.5499620  55.4582680  84.4534530   9.9036830
  55.4298110  84.8577480   9.0365260  55.2947650  83.5244890   9.7408430
  49.6120980  80.2810380   3.6122590  49.6901400  80.4159150   2.6678310
  50.2262660  79.5726270   3.8050710  66.8130750  82.4274480   8.3601010
  66.9393810  82.1886360   7.4418190  66.8552130  81.5959020   8.8323090
  60.6747490  86.1302480   6.9295820  61.1892160  86.0410490   7.7318250
  59.8316570  86.4762180   7.2223730  66.6654760  74.4806940   9.3250750
  66.0499030  74.9886610   8.7966210  66.3451180  73.5805270   9.2676690
  49.6680500  81.3224550   6.1517050  49.8311540  80.8529910   5.3336420
  50.1332950  80.8148110   6.8165890  58.7269080  73.3198830   6.7912940
  58.2648450  73.5281850   7.6032880  58.3247190  72.5058180   6.4883610
  63.7273590  74.5407780   7.9209600  62.8767180  74.2413530   8.2418670
  63.5675380  74.7849790   7.0093420  60.8223300  76.0409530  10.0208390
  61.1476710  75.2073280   9.6810620  61.6103630  76.5638050  10.1686720
  56.4775170  70.9977640   3.0467220  56.7747500  71.9040470   2.9659240
  57.0260730  70.5096420   2.4326790  56.6712700  76.4749460   9.5819140
  56.5756300  75.5344190   9.4319540  57.5144680  76.6964530   9.1867210
  51.8023240  72.8863130   7.7352920  51.4086630  73.7338340   7.9425700
  51.1141640  72.2489500   7.9261560  58.3768290  72.9698100  10.8049660
  57.6866610  72.7770300  11.4395750  59.1200590  73.2532740  11.3373960
  49.1040290  70.8091590   1.7683000  48.8153340  71.3794450   2.4807980
  49.8486050  70.3296040   2.1314230  60.6531260  76.8096540   3.6403580
  59.9212380  77.3183350   3.9893680  60.2555600  75.9926520   3.3392360
  61.1157170  72.2630220   3.0526520  61.1329910  72.7138870   3.8968370
  60.8672750  71.3635860   3.2659960  64.5427920  69.6762400   8.8912900
  64.8673690  68.9452060   9.4170880  64.5784430  69.3576040   7.9893890
  51.2419480  80.6975980   8.3112860  50.8574270  80.0569650   8.9095820
  51.5531670  81.4012100   8.8807590  57.3916620  77.5452520   3.7921480
  57.7586750  77.0711090   4.5382820  57.2021680  78.4194090   4.1329820
  55.1815990  76.5861160   6.1105690  54.8773060  77.4653140   6.3356050
  56.1362450  76.6460950   6.1463130  64.4685760  79.7887510   2.4998930
  65.1884880  80.2842800   2.1095040  64.2667580  79.1105400   1.8552800
  59.8504560  79.8596570   8.3867930  59.7841870  78.9392240   8.1325520
  59.2209700  79.9572010   9.1012570  51.2379720  77.4263900   7.2577050
  50.8794660  78.0917750   7.8450390  50.9434280  76.5947450   7.6289670
  54.4392840  77.8848140  10.1416600  54.1392980  78.0305320   9.2444420
  55.2104080  77.3253430  10.0489990  59.7821290  82.6817140   8.1371730
  59.7965830  81.7498100   7.9190640  59.0746390  82.7676900   8.7761500
  65.9932500  79.3224480   7.4840310  65.2680690  79.9153260   7.2869700
  66.5207960  79.3148020   6.6853680  59.2155190  84.3234710   5.2312230
  59.8597410  84.5294090   5.9085650  59.5784630  83.5623110   4.7783080
  60.4887270  82.3267060   3.9489680  61.1309500  81.6260220   4.0621850
  61.0136620  83.1065500   3.7686570  62.2624890  83.1261960   7.1525740
  62.5981130  83.7128650   7.8303660  61.3425230  82.9954670   7.3823530
  49.8128290  70.9157140   7.9349150  49.0986810  71.1154060   8.5401760
  50.2323330  70.1396710   8.3063950  50.1000880  84.9037400   8.9215680
  50.2092000  83.9632140   8.7811070  49.4481440  85.1692150   8.2729410
  58.0913470  83.1753290  10.3213800  57.7710340  82.4562530  10.8659490
  57.4171830  83.8508360  10.3949860  61.3067070  73.4079450   5.6850600
  61.6747890  72.5874660   6.0130170  60.4465270  73.4681340   6.1006250
  58.2669060  76.0619040   5.9088570  58.7654310  76.5364860   6.5740420
  58.4092010  75.1382560   6.1158600  65.4735920  72.2787000   6.7516960
  64.9709520  73.0192400   7.0910770  66.2892580  72.6671000   6.4353750
  52.2459320  85.9706310  10.7335290  53.0472050  86.2918360  11.1470690
  51.7311140  85.6101890  11.4555200  61.0823950  82.0786180  10.6810700
  60.4762110  82.1017780   9.9406450  60.7778060  81.3469220  11.2177950
  62.5124320  85.8066470   9.2920110  63.4646070  85.7224490   9.2420350
  62.3652540  86.4708180   9.9653900  49.9657130  78.4579770   9.6771340
  50.4696150  77.8787050  10.2487570  49.2264550  78.7420000  10.2147710
  57.0195070  79.8650760   9.2106860  56.2540740  80.4335760   9.1261530
  57.2011030  79.5726970   8.3175090  64.1618420  81.5956090   9.7681880
  64.9027890  81.9331850   9.2649340  63.3991100  81.7648150   9.2151650
  51.9980210  76.6009360  10.5721410  52.0385550  76.3023230  11.4806640
  52.8525710  77.0016970  10.4128930  53.9386020  75.1801460   8.5395900
  53.4082480  74.6892410   7.9119240  54.6074090  75.6085660   8.0053830
  62.8364080  79.6470920   8.3037090  63.2505100  79.8016000   9.1527510
  61.9015080  79.7726140   8.4662870  63.3086250  76.9867080  10.3076240
  63.8907020  76.2319400  10.2196720  63.4848020  77.5174520   9.5307720
  54.4258320  72.1463830   8.6193190  54.3315190  71.5284580   7.8944060
  53.8455710  72.8730120   8.3923100  57.1919760  70.7037070   5.6520580
  56.7437060  70.7261330   4.8066130  56.5584960  70.3056090   6.2490880
  57.5979310  79.5991400   6.2733020  58.0167420  80.4424130   6.1009260
  56.6787940  79.7363440   6.0439800  59.9343210  77.3307580   7.6570860
  60.0539420  76.7348720   8.3965700  60.7937210  77.3677270   7.2372160
  62.2731110  77.8844770   6.2333370  61.7466330  78.4087390   5.6298510
  62.6162450  78.5172160   6.8643100  55.4486730  85.9044410   7.3890750
  54.9107820  86.6290470   7.0699450  55.7020690  85.4274750   6.5988090
  56.7011980  73.8728930   8.9146680  57.2911670  73.5644780   9.6024500
  55.8832220  73.4008680   9.0706580  61.5205410  73.4894740   9.1479700
  60.8320930  72.8276280   9.0829690  62.2411430  73.0433010   9.5928160
  58.3048940  87.1395620   7.6477400  58.2307640  88.0430760   7.9549770
  57.4027780  86.8207520   7.6199470  50.1966440  85.3340800   3.6892650
  49.7597430  85.5141600   4.5216800  50.7644120  86.0915420   3.5474370
  65.8328620  84.8357800   7.9769960  65.2330610  84.8950360   7.2333880
  65.9622520  83.8962780   8.1066810  64.5180260  81.5609780   6.0746120
  63.7040100  81.9906940   6.3371910  64.9254460  82.1728190   5.4615170
  51.0666800  78.2313600   4.5884870  51.4339840  78.1441000   5.4680890
  50.4977620  77.4680150   4.4891730  65.8670660  76.6997980   7.6015340
  65.6356750  76.4710730   6.7013290  66.1275210  77.6197530   7.5560230
  50.6182800  75.1422690   8.4943290  49.7238850  75.1089450   8.8337000
  51.1580350  75.3409480   9.2594540  64.3058730  71.9254410  10.3795040
  65.1828910  71.9337810  10.7629040  64.3179570  71.1885250   9.7687390
  65.9311720  75.8623820   4.7902610  64.9814430  75.8287360   4.9047600
  66.1124730  76.7723930   4.5552380  51.1222510  69.4171020   2.8426510
  51.7698700  68.8668400   2.4021670  51.5424350  69.6714170   3.6642320
  65.0174850  69.6112380   6.1996150  65.6547070  70.2246520   6.5655340
  65.1649740  69.6473040   5.2545380  50.8754510  69.5726690   5.5851830
  50.5269330  70.0290510   6.3510010  50.5442210  68.6783820   5.6674260
  52.4818880  82.7446290   9.7505020  52.4388510  82.3739200  10.6319480
  52.6129890  83.6823860   9.8906840  56.1824910  84.3005880   5.3514740
  55.9416270  84.5680440   4.4645260  57.1227550  84.4711610   5.4065600
  58.3879330  70.7638570   9.1071250  58.3268220  71.3560400   9.8566660
  59.3279710  70.6564530   8.9621510  61.0253890  70.4208630   8.7463540
  61.6394300  70.7387920   8.0844620  61.5703450  69.9357220   9.3659400
  67.4429070  86.3200260   6.1525380  66.9487350  86.7169130   5.4352510
  66.8342360  85.6949470   6.5462660  51.5475150  69.1002890   8.8602600
  52.0958140  68.9190940   8.0968710  51.6130460  68.3097000   9.3958910
  52.3206910  85.6908540   6.8702800  51.7267230  85.5593240   7.6092840
  52.3130750  84.8546680   6.4044900  61.7661930  68.9840770   5.0732830
  60.8921770  69.3175880   4.8705760  61.6572680  68.5113950   5.8984700
  62.6733910  71.1911640   6.4574550  62.3447270  70.3763400   6.0776280
  63.6216210  71.1481450   6.3340240  65.1268520  86.9623680   3.4312120
  64.6671490  87.7139490   3.0570140  64.4980980  86.2430150   3.3726920
  51.9519140  83.0566920   5.8210840  51.2253200  82.4372210   5.7536790
  52.0128290  83.4507530   4.9508920  55.5564240  85.2711920   2.6060250
  56.0729260  84.6599280   2.0808510  56.2061620  85.7740700   3.0971260
  58.2959740  86.1620410   3.4329230  58.5837550  85.9074710   2.5562240
  58.8082960  85.6097770   4.0234800  59.5136750  69.9010610   4.0125740
  58.7308540  70.3756110   4.2922500  59.2199680  68.9965440   3.9038920
  58.3632100  87.0836510  10.7997430  59.2899410  86.8480780  10.8433390
  58.3482530  87.9108510  10.3183460  55.5495710  69.7481260  10.5639310
  55.2679980  70.2514860   9.8000130  55.9315410  68.9503010  10.1981440
  64.9309660  86.3106370  10.6238470  65.7234980  85.8155600  10.4164430
  65.2242810  86.9896510  11.2314080  61.0569320  58.4083820 150.4745930
  60.9763370  57.4938430 150.2037640  60.6433740  58.9050890 149.7685640
  63.2094790  64.5923030 151.1354330  62.7476320  63.8210270 151.4641500
  64.0220340  64.6189100 151.6406780  51.6145140  55.4584540 147.0173350
  50.7261840  55.8000510 146.9153230  51.8986330  55.2584860 146.1254180
  59.4358100  66.8781040 150.7558320  58.8169540  67.3338540 150.1852760
  60.2909880  67.0332500 150.3548020  53.7906530  54.0416040 148.0511730
  53.8973280  54.9419770 148.3580490  52.8798890  53.9934010 147.7606380
  63.4425640  53.1640850 149.5222630  64.2635260  52.6737420 149.5648110
  63.4759720  53.7538510 150.2754470  60.3021450  61.7620280 148.1490230
  59.6838720  62.2269730 147.5852950  60.8144700  62.4547760 148.5659740
  49.6704650  62.4476810 145.5229860  49.2932630  62.9363910 144.7914760
  49.9277720  63.1202090 146.1536390  57.2793580  50.8493200 150.9815370
  57.5868560  50.2940090 150.2650870  56.3494280  50.9837660 150.7988360
  64.1254060  63.2876710 148.3613000  64.0150390  62.3451040 148.4862420
  64.1222310  63.6492350 149.2475760  59.6674340  58.9142030 147.7175490
  58.7403620  58.8479410 147.9463960  59.8199160  59.8522160 147.6030730
  59.6543420  55.1859030 144.7142650  58.7147090  55.3472990 144.7995110
  59.9726680  55.9044710 144.1678640  63.6971630  60.4762330 148.2210740
  63.0784050  60.1381880 147.5737040  63.6796080  59.8322090 148.9289930
  55.2730980  59.4406770 150.4995220  54.8687980  58.7284020 150.0041120
  55.3594100  59.0960010 151.3883260  61.8736330  59.7149140 145.2283490
  62.3129610  58.8771570 145.0821310  62.5864750  60.3478540 145.3147630
  59.9831710  64.6545210 149.1964730  60.4227620  65.3969540 148.7820120
  59.9218600  64.8971780 150.1203690  65.4553470  50.9691950 143.5424530
  65.1426130  51.0618780 144.4423600  66.2165940  51.5472980 143.4921960
  51.9735610  58.3351750 148.0001870  51.8533210  59.0613840 147.3883140
  51.6636500  57.5654660 147.5229780  50.8568610  63.2067080 150.2176690
  50.4496690  63.3481670 149.3630290  51.7481620  62.9227240 150.0147900
  62.6501890  67.6414330 146.5527740  62.4903030  67.3517270 147.4509570
  62.4848600  66.8654460 146.0172970  55.1290270  67.4212860 148.3299360
  54.9532750  66.5048400 148.1167160  54.2746010  67.7800150 148.5697160
  62.3528020  65.1501890 145.1125740  61.6593180  65.1479180 144.4528020
  63.0950880  64.7261210 144.6819910  61.9177950  66.7764600 149.1874230
  62.3734900  65.9953980 149.5012850  62.2570470  67.4871420 149.7315410
  54.4399270  51.6786820 151.3825540  53.9967420  52.4596360 151.0510060
  54.9984260  52.0016710 152.0896480  57.5558090  51.2997520 146.2631370
  56.9312270  51.2957390 146.9884680  57.4688210  50.4328480 145.8667340
  54.2313490  56.8020390 149.1106790  54.0054410  56.5857560 150.0153410
  53.4506020  57.2348850 148.7652760  61.4611250  56.8083760 147.7097440
  60.8620140  57.5319560 147.5261060  62.0090860  56.7460540 146.9273890
  60.0676120  55.4447300 149.7400720  60.4605690  55.7619500 148.9269410
  60.4292970  54.5659180 149.8545240  49.2910520  55.9768220 143.1733640
  49.2085190  56.9198980 143.3148630  48.9393580  55.8343130 142.2945990
  57.0908650  54.7107250 152.2403990  57.0944710  54.2697200 151.3908530
  57.9859770  55.0324580 152.3475810  52.9411030  54.5933740 151.1998200
  52.6011080  55.0708970 151.9565250  52.1788350  54.1398860 150.8399300
  57.1528800  55.7119330 145.2310750  57.2741620  55.6705810 146.1796570
  56.7677310  56.5743480 145.0757480  56.1650300  58.0220470 144.6294050
  55.5967200  57.5738720 144.0029960  56.8739300  58.3813250 144.0959200
  50.2557110  53.5152720 150.1162870  49.9704030  53.1508390 150.9541490
  50.1935970  52.7833180 149.5026010  53.7097780  62.0178660 146.9020460
  52.9360040  61.4776280 146.7419180  54.4392410  61.4985270 146.5638220
  59.9295700  52.4081980 146.8376240  59.1160310  51.9095150 146.7621550
  59.7357650  53.2480230 146.4212590  62.6444090  56.7801630 145.1338400
  63.5323710  57.0918860 144.9589740  62.6149180  55.9073880 144.7418980
  53.7535180  61.6859040 150.5399270  54.2713850  60.8827300 150.4856160
  53.3019200  61.6238180 151.3816100  58.6404680  62.9525320 145.8126570
  58.9820380  63.6967550 145.3169890  57.8117390  63.2656440 146.1751400
  64.9158360  58.0913470 144.6018260  64.8322080  58.5227690 143.7514700
  65.6352550  58.5511820 145.0345080  65.9445610  64.9455730 147.3300390
  65.3021770  64.2911350 147.6044110  65.5576270  65.3510820 146.5541060
  61.5232090  62.2741160 151.1772080  61.8755910  61.6769290 150.5173450
  60.6394420  61.9485390 151.3480330  57.6095370  63.0338850 148.5842490
  58.2966500  63.5808060 148.9650080  56.8227790  63.5779580 148.6192100
  49.7487770  58.6511670 144.0759570  50.6182620  58.9336470 144.3595490
  49.2578090  59.4647540 143.9608380  56.9122580  60.0384880 148.1967850
  57.3685360  60.8490130 148.4228040  56.5610790  59.7208020 149.0286340
  52.8134360  50.3822530 148.6690370  52.6848990  50.3740430 149.6175290
  51.9896380  50.7205620 148.3181380  64.3342990  63.8372190 143.8676740
  64.1080570  63.1202630 144.4601380  63.9439190  63.5884630 143.0298490
  50.1159020  67.8639050 144.6421200  50.4756660  68.4628390 143.9878470
  49.9751360  68.4098940 145.4156230  63.9159240  61.7544130 145.5290900
  63.6280940  62.2156820 146.3168780  64.7111410  61.2941900 145.7975120
  56.1327640  65.2470250 145.4594870  56.1237740  65.9799940 144.8439380
  55.2126000  65.0001830 145.5521830  51.7334280  60.4685140 146.2041630
  51.1262230  61.2084040 146.2136930  52.2083630  60.5584500 145.3779830
  64.6729100  53.5892900 146.6886080  64.0442260  53.6938570 145.9744310
  64.1781020  53.8089680 147.4779960  59.1187240  65.3098490 144.1220060
  59.2199220  65.1062480 143.1922040  58.2188980  65.0556770 144.3267840
  56.6413130  55.8678850 148.1043960  55.9329280  56.3365190 148.5457570
  56.9257610  55.2100860 148.7389150  60.6728560  52.5929510 149.5439750
  60.5496340  52.6115640 148.5949260  61.6213120  52.6408450 149.6638150
  57.7605350  67.8284810 148.8167730  58.0146850  67.7906200 147.8947100
  56.8117830  67.7018140 148.8095980  54.8448150  54.1763930 145.4794670
  55.6938680  54.6134080 145.4134860  54.4779420  54.4884190 146.3066730
  63.7657930  58.7476690 150.3926240  62.8248070  58.7626920 150.5673930
  64.0802000  57.9612650 150.8386540  53.7439570  60.4296290 143.9530200
  54.5102840  60.3177650 144.5155630  53.8214260  59.7334260 143.3006970
  52.4386330  57.8621360 144.6363090  52.5189920  56.9148870 144.7480490
  53.3306080  58.1928240 144.7423750  53.2401040  68.0116750 151.7397630
  53.9763520  67.4632210 152.0106200  53.6241960  68.8772760 151.6003620
  50.1246520  64.0790320 147.6139140  49.1986300  64.3211460 147.6044550
  50.5902950  64.9064580 147.4923890  56.3503350  67.1847060 143.5623200
  57.1431960  67.4735890 143.1104990  55.8307700  66.7539230 142.8835680
  65.4033520  66.4117190 144.9859940  65.1175030  65.9982330 144.1714120
  65.2053070  67.3404900 144.8660460  56.8680750  62.4050470 143.4265550
  56.7631390  61.7902820 144.1526930  56.7004970  61.8816360 142.6428560
  60.1083480  61.4670500 144.0307540  59.5593580  61.9139800 144.6750280
  60.7302740  60.9619750 144.5545210  55.7758600  60.4261420 145.9272840
  56.1975020  60.2601290 146.7704230  55.9009440  59.6161650 145.4327980
  58.2886240  59.4499030 143.1749940  58.8091900  58.7348050 142.8091090
  58.9354640  60.0884900 143.4750450  54.6717500  56.4994650 142.8731000
  54.4706560  55.6362010 143.2344340  54.5009550  56.4128010 141.9352600
  62.1505810  51.3102880 145.4017880  62.4308100  50.4670780 145.7577300
  61.3771540  51.5425990 145.9156630  53.4700300  53.5995270 142.8608880
  53.7726200  53.6062700 141.9528030  54.2094890  53.2493130 143.3576540
  56.6885230  52.5429890 143.8465080  56.3407230  51.8653880 143.2667530
  56.8898000  52.0819400 144.6608470  58.8534270  67.5310640 145.4651680
  59.7485060  67.8695610 145.4870440  58.8851900  66.8090050 144.8375960
  52.4930430  62.9037690 143.6938680  52.9305300  63.4467360 144.3496260
  52.9778160  62.0784640 143.7035020  49.7076230  65.6926720 151.1458940
  50.0379240  64.8247780 150.9137580  50.1367230  65.8985240 151.9763900
  54.3038150  64.0235730 148.8060910  54.0033690  63.9000700 149.7064820
  54.1975640  63.1644320 148.3976640  67.0730070  63.8032130 143.5087590
  66.2423030  63.8708780 143.9794820  67.2501900  64.6936250 143.2054450
  66.5286530  60.5479610 146.0121790  67.2905440  61.1176260 146.1181480
  66.5440900  59.9806810 146.7830100  50.0290870  59.0717540 150.2429450
  49.3739710  58.8029180 149.5989150  50.8668820  58.9622020 149.7931430
  67.5346500  61.4029710 150.8563720  67.9055330  60.6197030 150.4499690
  68.1748430  62.0918810 150.6781020  66.5805700  60.8413980 143.1694310
  66.8554540  61.7492860 143.0413530  66.3916440  60.7776510 144.1056300
  62.9781310  53.8658830 144.4647940  63.3966190  53.6789810 143.6244600
  62.6717370  53.0137880 144.7750870  66.4771040  58.7782970 148.1623740
  66.1014640  58.0110900 147.7305030  65.7474160  59.1605670 148.6498670
  49.2428950  56.2816470 146.1854780  48.3393030  56.5446670 146.0106440
  49.7269570  56.5527640 145.4054740  65.7522000  57.0040460 151.4630980
  66.2759480  56.5103110 150.8321150  66.3381420  57.1390820 152.2078550
  51.7856160  55.3382010 144.0949160  52.4947860  54.9165230 143.6096440
  51.0696100  55.4057240 143.4632510  51.4330320  51.3921340 143.1351810
  52.1558450  51.9330280 143.4533030  51.7054840  51.1184760 142.2593350
  65.2421970  56.2613810 147.4023390  65.7381090  56.0284680 148.1872270
  65.0438040  55.4225650 146.9861030  66.6709130  54.8974760 149.9361070
  66.5608410  54.7430800 150.8743340  67.4316720  54.3695700 149.6936480
  67.5599400  52.7282680 143.1767210  68.4848710  52.5963860 142.9685500
  67.5375190  52.8075500 144.1303660  67.6337890  53.4993340 145.8023920
  66.8389390  53.4338460 146.3316830  67.8381170  54.4343980 145.7909270
  64.5756310  67.5384890 149.7962310  65.1715380  67.2169460 149.1196730
  64.8334460  67.0656710 150.5875580  64.0657820  51.8290220 152.2522750
  64.5065910  51.7735320 151.4044350  63.7965410  52.7448230 152.3232930
  65.9296390  51.4605460 150.2631570  65.8684790  50.5166680 150.1162590
  66.7088420  51.5685550 150.8085030  50.2349140  67.5997820 149.2255520
  50.0671180  66.9668500 149.9237410  49.3683650  67.8057220 148.8749710
  50.8577160  51.4314600 146.7287380  51.6156520  51.5443480 146.1551410
  50.3954330  52.2683800 146.6830810  57.3990970  53.5453870 149.7189690
  56.5865480  53.1710760 149.3785570  57.9032610  52.7898950 150.0210880
  61.9015950  50.2096320 150.9572760  62.5045320  50.7816530 151.4321280
  61.1608940  50.7735760 150.7346660  65.0450550  50.6117880 146.2313040
  65.2401180  51.5101330 146.4980470  64.2580420  50.3804960 146.7245990
  51.8411840  66.2931050 146.6705660  51.3159460  66.6739080 145.9667620
  51.7656420  66.9181820 147.3915370  53.2302310  51.9578650 145.2689350
  53.7595070  51.1708450 145.1397300  53.8630630  52.6369840 145.5024880
  55.4240150  51.6953790 148.3234740  54.7942890  50.9941100 148.4904870
  54.8845290  52.4557920 148.1067900  66.5977160  67.8518590 147.9919600
  66.7729350  67.1656330 147.3480520  65.8998730  68.3765640 147.5996270
  54.4404810  68.2413430 145.5454910  55.1723630  67.9572710 144.9978800
  54.6998480  68.0026710 146.4354290  53.6019600  64.3578160 145.5501240
  52.9728480  64.8263260 146.0987070  53.7167430  63.5127380 145.9847430
  61.0569320  58.4083820 131.7002440  60.9763370  57.4938430 131.4294150
  60.6433740  58.9050890 130.9942150  59.1887360  60.1862840 133.5811710
  58.4129460  59.7063280 133.8710280  59.8400290  59.5068490 133.4067870
  53.2053190  60.4982650 134.4587470  52.3738070  60.2431360 134.8583980
  53.8134170  60.5693420 135.1945390  63.2094790  64.5923030 132.3610840
  62.7476320  63.8210270 132.6898010  64.0220340  64.6189100 132.8663290
  53.1854450  64.5322740 134.6545490  53.4882490  63.6420480 134.4755710
  53.9298040  65.0892960 134.4267740  51.6145140  55.4584540 128.2429860
  50.7261840  55.8000510 128.1409740  51.8986330  55.2584860 127.3510690
  49.5778150  58.0590190 134.1269560  50.1494260  57.2912390 134.1273200
  49.5779690  58.3578950 133.2176170  58.6296350  62.8620030 133.5881870
  58.5604630  61.9209970 133.4271000  59.3916210  62.9521440 134.1604440
  50.8203020  53.4674550 135.9138490  50.6405860  52.5700300 136.1941250
  50.4183100  54.0146420 136.5885440  59.6601520  55.6690410 133.8150800
  60.0366340  54.7962290 133.7024470  59.5621030  56.0049110 132.9241240
  53.7906530  54.0416040 129.2768240  53.8973280  54.9419770 129.5837000
  52.8798890  53.9934010 128.9862890  51.4389690  55.9635050 134.5220830
  52.1199800  56.2273420 135.1408230  51.1237740  55.1235920 134.8558840
  55.6314260  57.0102410 133.6093420  56.1392480  57.5083380 134.2498440
  56.1627500  56.2337610 133.4332780  67.7325190  55.1807600 137.3122770
  67.0277360  55.5689310 136.7937880  67.9983110  55.8757890 137.9143700
  53.9150360  51.6500970 137.8756840  53.9168800  52.1673360 137.0702740
  53.0854670  51.1731150 137.8526770  60.3021450  61.7620280 129.3746740
  59.6838720  62.2269730 128.8109460  60.8144700  62.4547760 129.7916250
  55.1653210  61.2896150 136.0530340  54.8322590  61.9165070 136.6951410
  55.3419890  61.8158030 135.2732010  63.6787120  55.1041230 133.5206680
  62.9742690  55.3926120 134.1009790  64.0399280  55.9141340 133.1606240
  53.5965690  53.3610930 135.8827290  53.9382500  54.2052980 135.5881160
  52.6581500  53.5094670 135.9992630  54.3772310  63.2576950 137.8679520
  54.9946310  63.9328030 137.5863970  53.5165430  63.6664930 137.7767020
  49.6704650  62.4476810 126.7486370  49.2932630  62.9363910 126.0171270
  49.9277720  63.1202090 127.3792900  65.2949900  64.7216360 135.7834160
  64.6113420  65.3915470 135.7750830  65.8344190  64.9197010 135.0179020
  66.7474040  54.5496020 133.9115890  65.7998950  54.5835000 134.0431320
  67.0724030  55.3634970 134.2965250  57.2793580  50.8493200 132.2071880
  57.5868560  50.2940090 131.4907380  56.3494280  50.9837660 132.0244870
  62.8308640  66.5660490 134.4979340  62.8435800  66.1622780 133.6301600
  62.2783860  67.3407780 134.3940770  64.1254060  63.2876710 129.5869510
  64.0150390  62.3451040 129.7118930  64.1222310  63.6492350 130.4732270
  62.2294080  61.4690330 135.8261950  62.6462870  61.2550440 134.9915410
  62.9533900  61.7263120 136.3970570  66.1756180  59.8677550 135.9178190
  65.3474810  59.9370640 135.4428320  66.7706660  60.4531860 135.4494020
  63.6971630  60.4762330 129.4467250  63.0784050  60.1381880 128.7993550
  63.6796080  59.8322090 130.1546440  63.1398190  56.6546870 136.8633060
  62.7269370  57.4800580 137.1173050  62.4074140  56.0691910 136.6709420
  55.2730980  59.4406770 131.7251730  54.8687980  58.7284020 131.2297630
  55.3594100  59.0960010 132.6139770  55.7412680  63.1274330 133.8890940
  55.4440970  62.5219800 133.2098720  56.6912500  63.1651640 133.7780300
  53.9859600  56.2149980 135.5050770  54.5374190  56.3245320 134.7304020
  54.5003110  56.5887580 136.2206000  63.8298290  66.7006200 137.5514040
  63.3528850  67.5078390 137.3586650  63.1460080  66.0484530 137.7040250
  54.8331110  62.8656020 140.5398740  53.9359640  63.0895990 140.7872140
  54.8583980  62.9890960 139.5910140  53.6602330  59.7369340 139.1156110
  53.5210100  60.6092140 139.4843510  52.7783690  59.3942150 138.9704050
  55.4582680  65.6791040 141.3241260  55.4298110  66.0833990 140.4569690
  55.2947650  64.7501400 141.1612860  51.9735610  58.3351750 129.2258380
  51.8533210  59.0613840 128.6139650  51.6636500  57.5654660 128.7486290
  67.4097500  66.4618140 142.6205430  67.8857220  66.9401030 143.2994510
  68.0304660  66.3935630 141.8950930  49.6120980  61.5066890 135.0327020
  49.6901400  61.6415660 134.0882740  50.2262660  60.7982780 135.2255140
  50.8568610  63.2067080 131.4433200  50.4496690  63.3481670 130.5886800
  51.7481620  62.9227240 131.2404410  66.8130750  63.6530990 139.7805440
  66.9393810  63.4142870 138.8622620  66.8552130  62.8215530 140.2527520
  60.6747490  67.3558990 138.3500250  61.1892160  67.2667000 139.1522680
  59.8316570  67.7018690 138.6428160  66.6654760  55.7063450 140.7455180
  66.0499030  56.2143120 140.2170640  66.3451180  54.8061780 140.6881120
  49.6680500  62.5481060 137.5721480  49.8311540  62.0786420 136.7540850
  50.1332950  62.0404620 138.2370320  54.4399270  51.6786820 132.6082050
  53.9967420  52.4596360 132.2766570  54.9984260  52.0016710 133.3152990
  58.7269080  54.5455340 138.2117370  58.2648450  54.7538360 139.0237310
  58.3247190  53.7314690 137.9088040  63.7273590  55.7664290 139.3414030
  62.8767180  55.4670040 139.6623100  63.5675380  56.0106300 138.4297850
  60.8223300  57.2666040 141.4412820  61.1476710  56.4329790 141.1015050
  61.6103630  57.7894560 141.5891150  56.4775170  52.2234150 134.4671650
  56.7747500  53.1296980 134.3863670  57.0260730  51.7352930 133.8531220
  54.2313490  56.8020390 130.3363300  54.0054410  56.5857560 131.2409920
  53.4506020  57.2348850 129.9909270  56.6712700  57.7005970 141.0023570
  56.5756300  56.7600700 140.8523970  57.5144680  57.9221040 140.6071640
  51.8023240  54.1119640 139.1557350  51.4086630  54.9594850 139.3630130
  51.1141640  53.4746010 139.3465990  58.3768290  54.1954610 142.2254090
  57.6866610  54.0026810 142.8600180  59.1200590  54.4789250 142.7578390
  49.1040290  52.0348100 133.1887430  48.8153340  52.6050960 133.9012410
  49.8486050  51.5552550 133.5518660  49.2910520  55.9768220 124.3990150
  49.2085190  56.9198980 124.5405140  48.9393580  55.8343130 123.5202500
  60.6531260  58.0353050 135.0608010  59.9212380  58.5439860 135.4098110
  60.2555600  57.2183030 134.7596790  57.0908650  54.7107250 133.4660500
  57.0944710  54.2697200 132.6165040  57.9859770  55.0324580 133.5732320
  52.9411030  54.5933740 132.4254710  52.6011080  55.0708970 133.1821760
  52.1788350  54.1398860 132.0655810  61.1157170  53.4886730 134.4730950
  61.1329910  53.9395380 135.3172800  60.8672750  52.5892370 134.6864390
  64.5427920  50.9018910 140.3117330  64.8673690  50.1708570 140.8375310
  64.5784430  50.5832550 139.4098320  51.2419480  61.9232490 139.7317290
  50.8574270  61.2826160 140.3300250  51.5531670  62.6268610 140.3012020
  57.3916620  58.7709030 135.2125910  57.7586750  58.2967600 135.9587250
  57.2021680  59.6450600 135.5534250  50.2557110  53.5152720 131.3419380
  49.9704030  53.1508390 132.1798000  50.1935970  52.7833180 130.7282520
  55.1815990  57.8117670 137.5310120  54.8773060  58.6909650 137.7560480
  56.1362450  57.8717460 137.5667560  53.7097780  62.0178660 128.1276970
  52.9360040  61.4776280 127.9675690  54.4392410  61.4985270 127.7894730
  64.4685760  61.0144020 133.9203360  65.1884880  61.5099310 133.5299470
  64.2667580  60.3361910 133.2757230  59.8504560  61.0853080 139.8072360
  59.7841870  60.1648750 139.5529950  59.2209700  61.1828520 140.5217000
  53.7535180  61.6859040 131.7655780  54.2713850  60.8827300 131.7112670
  53.3019200  61.6238180 132.6072610  51.2379720  58.6520410 138.6781480
  50.8794660  59.3174260 139.2654820  50.9434280  57.8203960 139.0494100
  54.4392840  59.1104650 141.5621030  54.1392980  59.2561830 140.6648850
  55.2104080  58.5509940 141.4694420  59.7821290  63.9073650 139.5576160
  59.7965830  62.9754610 139.3395070  59.0746390  63.9933410 140.1965930
  64.9158360  58.0913470 125.8274770  64.8322080  58.5227690 124.9771210
  65.6352550  58.5511820 126.2601590  65.9932500  60.5480990 138.9044740
  65.2680690  61.1409770 138.7074130  66.5207960  60.5404530 138.1058110
  65.9445610  64.9455730 128.5556900  65.3021770  64.2911350 128.8300620
  65.5576270  65.3510820 127.7797570  61.5232090  62.2741160 132.4028590
  61.8755910  61.6769290 131.7429960  60.6394420  61.9485390 132.5736840
  57.6095370  63.0338850 129.8099000  58.2966500  63.5808060 130.1906590
  56.8227790  63.5779580 129.8448610  49.7487770  58.6511670 125.3016080
  50.6182620  58.9336470 125.5852000  49.2578090  59.4647540 125.1864890
  59.2155190  65.5491220 136.6516660  59.8597410  65.7550600 137.3290080
  59.5784630  64.7879620 136.1987510  52.8134360  50.3822530 129.8946880
  52.6848990  50.3740430 130.8431800  51.9896380  50.7205620 129.5437890
  60.4887270  63.5523570 135.3694110  61.1309500  62.8516730 135.4826280
  61.0136620  64.3322010 135.1891000  62.2624890  64.3518470 138.5730170
  62.5981130  64.9385160 139.2508090  61.3425230  64.2211180 138.8027960
  50.1159020  67.8639050 125.8677710  50.4756660  68.4628390 125.2134980
  49.9751360  68.4098940 126.6412740  49.8128290  52.1413650 139.3553580
  49.0986810  52.3410570 139.9606190  50.2323330  51.3653220 139.7268380
  63.9159240  61.7544130 126.7547410  63.6280940  62.2156820 127.5425290
  64.7111410  61.2941900 127.0231630  50.1000880  66.1293910 140.3420110
  50.2092000  65.1888650 140.2015500  49.4481440  66.3948660 139.6933840
  58.0913470  64.4009800 141.7418230  57.7710340  63.6819040 142.2863920
  57.4171830  65.0764870 141.8154290  56.1327640  65.2470250 126.6851380
  56.1237740  65.9799940 126.0695890  55.2126000  65.0001830 126.7778340
  51.7334280  60.4685140 127.4298140  51.1262230  61.2084040 127.4393440
  52.2083630  60.5584500 126.6036340  61.3067070  54.6335960 137.1055030
  61.6747890  53.8131170 137.4334600  60.4465270  54.6937850 137.5210680
  58.2669060  57.2875550 137.3293000  58.7654310  57.7621370 137.9944850
  58.4092010  56.3639070 137.5363030  65.4735920  53.5043510 138.1721390
  64.9709520  54.2448910 138.5115200  66.2892580  53.8927510 137.8558180
  63.7657930  58.7476690 131.6182750  62.8248070  58.7626920 131.7930440
  64.0802000  57.9612650 132.0643050  53.7439570  60.4296290 125.1786710
  54.5102840  60.3177650 125.7412140  53.8214260  59.7334260 124.5263480
  52.4386330  57.8621360 125.8619600  52.5189920  56.9148870 125.9737000
  53.3306080  58.1928240 125.9680260  65.7683510  65.9185540 133.2937010
  65.8930930  66.7416710 133.7660820  66.6349070  65.7076270 132.9461160
  53.2401040  68.0116750 132.9654140  53.9763520  67.4632210 133.2362710
  53.6241960  68.8772760 132.8260130  50.1246520  64.0790320 128.8395650
  49.1986300  64.3211460 128.8301060  50.5902950  64.9064580 128.7180400
  52.2459320  67.1962820 142.1539720  53.0472050  67.5174870 142.5675120
  51.7311140  66.8358400 142.8759630  56.3503350  67.1847060 124.7879710
  57.1431960  67.4735890 124.3361500  55.8307700  66.7539230 124.1092190
  61.0823950  63.3042690 142.1015130  60.4762110  63.3274290 141.3610880
  60.7778060  62.5725730 142.6382380  62.5124320  67.0322980 140.7124540
  63.4646070  66.9481000 140.6624780  62.3652540  67.6964690 141.3858330
  49.9657130  59.6836280 141.0975770  50.4696150  59.1043560 141.6692000
  49.2264550  59.9676510 141.6352140  57.0195070  61.0907270 140.6311290
  56.2540740  61.6592270 140.5465960  57.2011030  60.7983480 139.7379520
  64.1618420  62.8212600 141.1886310  64.9027890  63.1588360 140.6853770
  63.3991100  62.9904660 140.6356080  51.9980210  57.8265870 141.9925840
  52.0385550  57.5279740 142.9011070  52.8525710  58.2273480 141.8333360
  53.9386020  56.4057970 139.9600330  53.4082480  55.9148920 139.3323670
  54.6074090  56.8342170 139.4258260  62.8364080  60.8727430 139.7241520
  63.2505100  61.0272510 140.5731940  61.9015080  60.9982650 139.8867300
  63.3086250  58.2123590 141.7280670  63.8907020  57.4575910 141.6401150
  63.4848020  58.7431030 140.9512150  54.4258320  53.3720340 140.0397620
  54.3315190  52.7541090 139.3148490  53.8455710  54.0986630 139.8127530
  57.1919760  51.9293580 137.0725010  56.7437060  51.9517840 136.2270560
  56.5584960  51.5312600 137.6695310  57.5979310  60.8247910 137.6937450
  58.0167420  61.6680640 137.5213690  56.6787940  60.9619950 137.4644230
  59.9343210  58.5564090 139.0775290  60.0539420  57.9605230 139.8170130
  60.7937210  58.5933780 138.6576590  62.2731110  59.1101280 137.6537800
  61.7466330  59.6343900 137.0502940  62.6162450  59.7428670 138.2847530
  54.6717500  56.4994650 124.0987510  54.4706560  55.6362010 124.4600850
  54.5009550  56.4128010 123.1609110  55.4486730  67.1300920 138.8095180
  54.9107820  67.8546980 138.4903880  55.7020690  66.6531260 138.0192520
  56.7011980  55.0985440 140.3351110  57.2911670  54.7901290 141.0228930
  55.8832220  54.6265190 140.4911010  61.5205410  54.7151250 140.5684130
  60.8320930  54.0532790 140.5034120  62.2411430  54.2689520 141.0132590
  58.3048940  68.3652130 139.0681830  58.2307640  69.2687270 139.3754200
  57.4027780  68.0464030 139.0403900  52.4930430  62.9037690 124.9195190
  52.9305300  63.4467360 125.5752770  52.9778160  62.0784640 124.9291530
  49.7076230  65.6926720 132.3715450  50.0379240  64.8247780 132.1394090
  50.1367230  65.8985240 133.2020410  54.3038150  64.0235730 130.0317420
  54.0033690  63.9000700 130.9321330  54.1975640  63.1644320 129.6233150
  50.1966440  66.5597310 135.1097080  49.7597430  66.7398110 135.9421230
  50.7644120  67.3171930 134.9678800  65.8328620  66.0614310 139.3974390
  65.2330610  66.1206870 138.6538310  65.9622520  65.1219290 139.5271240
  66.5286530  60.5479610 127.2378300  67.2905440  61.1176260 127.3437990
  66.5440900  59.9806810 128.0086610  50.0290870  59.0717540 131.4685960
  49.3739710  58.8029180 130.8245660  50.8668820  58.9622020 131.0187940
  67.5346500  61.4029710 132.0820230  67.9055330  60.6197030 131.6756200
  68.1748430  62.0918810 131.9037530  64.5180260  62.7866290 137.4950550
  63.7040100  63.2163450 137.7576340  64.9254460  63.3984700 136.8819600
  66.4771040  58.7782970 129.3880250  66.1014640  58.0110900 128.9561540
  65.7474160  59.1605670 129.8755180  51.0666800  59.4570110 136.0089300
  51.4339840  59.3697510 136.8885320  50.4977620  58.6936660 135.9096160
  65.8670660  57.9254490 139.0219770  65.6356750  57.6967240 138.1217720
  66.1275210  58.8454040 138.9764660  50.6182800  56.3679200 139.9147720
  49.7238850  56.3345960 140.2541430  51.1580350  56.5665990 140.6798970
  64.3058730  53.1510920 141.7999470  65.1828910  53.1594320 142.1833470
  64.3179570  52.4141760 141.1891820  49.2428950  56.2816470 127.4111290
  48.3393030  56.5446670 127.2362950  49.7269570  56.5527640 126.6311250
  65.7522000  57.0040460 132.6887490  66.2759480  56.5103110 132.0577660
  66.3381420  57.1390820 133.4335060  65.9311720  57.0880330 136.2107040
  64.9814430  57.0543870 136.3252030  66.1124730  57.9980440 135.9756810
  51.7856160  55.3382010 125.3205670  52.4947860  54.9165230 124.8352950
  51.0696100  55.4057240 124.6889020  51.4330320  51.3921340 124.3608320
  52.1558450  51.9330280 124.6789540  51.7054840  51.1184760 123.4849860
  51.1222510  50.6427530 134.2630940  51.7698700  50.0924910 133.8226100
  51.5424350  50.8970680 135.0846750  65.0174850  50.8368890 137.6200580
  65.6547070  51.4503030 137.9859770  65.1649740  50.8729550 136.6749810
  64.5756310  67.5384890 131.0218820  65.1715380  67.2169460 130.3453240
  64.8334460  67.0656710 131.8132090  50.8754510  50.7983200 137.0056260
  50.5269330  51.2547020 137.7714440  50.5442210  49.9040330 137.0878690
  52.4818880  63.9702800 141.1709450  52.4388510  63.5995710 142.0523910
  52.6129890  64.9080370 141.3111270  56.1824910  65.5262390 136.7719170
  55.9416270  65.7936950 135.8849690  57.1227550  65.6968120 136.8270030
  58.3879330  51.9895080 140.5275680  58.3268220  52.5816910 141.2771090
  59.3279710  51.8821040 140.3825940  61.0253890  51.6465140 140.1667970
  61.6394300  51.9644430 139.5049050  61.5703450  51.1613730 140.7863830
  67.4429070  67.5456770 137.5729810  66.9487350  67.9425640 136.8556940
  66.8342360  66.9205980 137.9667090  51.5475150  50.3259400 140.2807030
  52.0958140  50.1447450 139.5173140  51.6130460  49.5353510 140.8163340
  52.3206910  66.9165050 138.2907230  51.7267230  66.7849750 139.0297270
  52.3130750  66.0803190 137.8249330  61.7661930  50.2097280 136.4937260
  60.8921770  50.5432390 136.2910190  61.6572680  49.7370460 137.3189130
  62.6733910  52.4168150 137.8778980  62.3447270  51.6019910 137.4980710
  63.6216210  52.3737960 137.7544670  65.1268520  68.1880190 134.8516550
  64.6671490  68.9396000 134.4774570  64.4980980  67.4686660 134.7931350
  51.9519140  64.2823430 137.2415270  51.2253200  63.6628720 137.1741220
  52.0128290  64.6764040 136.3713350  55.5564240  66.4968430 134.0264680
  56.0729260  65.8855790 133.5012940  56.2061620  66.9997210 134.5175690
  58.2959740  67.3876920 134.8533660  58.5837550  67.1331220 133.9766670
  58.8082960  66.8354280 135.4439230  59.5136750  51.1267120 135.4330170
  58.7308540  51.6012620 135.7126930  59.2199680  50.2221950 135.3243350
  64.0657820  51.8290220 133.4779260  64.5065910  51.7735320 132.6300860
  63.7965410  52.7448230 133.5489440  50.2349140  67.5997820 130.4512030
  50.0671180  66.9668500 131.1493920  49.3683650  67.8057220 130.1006220
  50.8577160  51.4314600 127.9543890  51.6156520  51.5443480 127.3807920
  50.3954330  52.2683800 127.9087320  57.3990970  53.5453870 130.9446200
  56.5865480  53.1710760 130.6042080  57.9032610  52.7898950 131.2467390
  51.8411840  66.2931050 127.8962170  51.3159460  66.6739080 127.1924130
  51.7656420  66.9181820 128.6171880  53.2302310  51.9578650 126.4945860
  53.7595070  51.1708450 126.3653810  53.8630630  52.6369840 126.7281390
  55.4240150  51.6953790 129.5491250  54.7942890  50.9941100 129.7161380
  54.8845290  52.4557920 129.3324410  58.3632100  68.3093020 142.2201860
  59.2899410  68.0737290 142.2637820  58.3482530  69.1365020 141.7387890
  66.5977160  67.8518590 129.2176110  66.7729350  67.1656330 128.5737030
  65.8998730  68.3765640 128.8252780  55.5495710  50.9737770 141.9843740
  55.2679980  51.4771370 141.2204560  55.9315410  50.1759520 141.6185870
  54.4404810  68.2413430 126.7711420  55.1723630  67.9572710 126.2235310
  54.6998480  68.0026710 127.6610800  53.6019600  64.3578160 126.7757750
  52.9728480  64.8263260 127.3243580  53.7167430  63.5127380 127.2103940
  62.1511170  50.3891350 142.5624210  62.0376620  50.7085960 143.4575730
  62.9680910  50.7903860 142.2661490  64.9309660  67.5362880 142.0442900
  65.7234980  67.0412110 141.8368860  65.2242810  68.2153020 142.6518510
  53.2053190  60.4982650 115.6843980  52.3738070  60.2431360 116.0840490
  53.8134170  60.5693420 116.4201900  53.1854450  64.5322740 115.8802000
  53.4882490  63.6420480 115.7012220  53.9298040  65.0892960 115.6524250
  51.6145140  55.4584540 109.4686370  50.7261840  55.8000510 109.3666250
  51.8986330  55.2584860 108.5767200  49.5778150  58.0590190 115.3526070
  50.1494260  57.2912390 115.3529710  49.5779690  58.3578950 114.4432680
  50.8203020  53.4674550 117.1395000  50.6405860  52.5700300 117.4197760
  50.4183100  54.0146420 117.8141950  59.6601520  55.6690410 115.0407310
  60.0366340  54.7962290 114.9280980  59.5621030  56.0049110 114.1497750
  53.7906530  54.0416040 110.5024750  53.8973280  54.9419770 110.8093510
  52.8798890  53.9934010 110.2119400  63.4425640  53.1640850 111.9735650
  64.2635260  52.6737420 112.0161130  63.4759720  53.7538510 112.7267490
  51.4389690  55.9635050 115.7477340  52.1199800  56.2273420 116.3664740
  51.1237740  55.1235920 116.0815350  55.6314260  57.0102410 114.8349930
  56.1392480  57.5083380 115.4754950  56.1627500  56.2337610 114.6589290
  67.7325190  55.1807600 118.5379280  67.0277360  55.5689310 118.0194390
  67.9983110  55.8757890 119.1400210  55.1653210  61.2896150 117.2786850
  54.8322590  61.9165070 117.9207920  55.3419890  61.8158030 116.4988520
  63.6787120  55.1041230 114.7463190  62.9742690  55.3926120 115.3266300
  64.0399280  55.9141340 114.3862750  54.3772310  63.2576950 119.0936030
  54.9946310  63.9328030 118.8120480  53.5165430  63.6664930 119.0023530
  49.6704650  62.4476810 107.9742880  49.2932630  62.9363910 107.2427780
  49.9277720  63.1202090 108.6049410  65.2949900  64.7216360 117.0090670
  64.6113420  65.3915470 117.0007340  65.8344190  64.9197010 116.2435530
  66.7474040  54.5496020 115.1372400  65.7998950  54.5835000 115.2687830
  67.0724030  55.3634970 115.5221760  62.8308640  66.5660490 115.7235850
  62.8435800  66.1622780 114.8558110  62.2783860  67.3407780 115.6197280
  62.2294080  61.4690330 117.0518460  62.6462870  61.2550440 116.2171920
  62.9533900  61.7263120 117.6227080  66.1756180  59.8677550 117.1434700
  65.3474810  59.9370640 116.6684830  66.7706660  60.4531860 116.6750530
  53.9859600  56.2149980 116.7307280  54.5374190  56.3245320 115.9560530
  54.5003110  56.5887580 117.4462510  54.8331110  62.8656020 121.7655250
  53.9359640  63.0895990 122.0128650  54.8583980  62.9890960 120.8166650
  53.6602330  59.7369340 120.3412620  53.5210100  60.6092140 120.7100020
  52.7783690  59.3942150 120.1960560  55.4582680  65.6791040 122.5497770
  55.4298110  66.0833990 121.6826200  55.2947650  64.7501400 122.3869370
  51.9735610  58.3351750 110.4514890  51.8533210  59.0613840 109.8396160
  51.6636500  57.5654660 109.9742800  49.6120980  61.5066890 116.2583530
  49.6901400  61.6415660 115.3139250  50.2262660  60.7982780 116.4511650
  50.8568610  63.2067080 112.6689710  50.4496690  63.3481670 111.8143310
  51.7481620  62.9227240 112.4660920  60.6747490  67.3558990 119.5756760
  61.1892160  67.2667000 120.3779190  59.8316570  67.7018690 119.8684670
  49.6680500  62.5481060 118.7977990  49.8311540  62.0786420 117.9797360
  50.1332950  62.0404620 119.4626830  57.5558090  51.2997520 108.7144390
  56.9312270  51.2957390 109.4397700  57.4688210  50.4328480 108.3180360
  54.2313490  56.8020390 111.5619810  54.0054410  56.5857560 112.4666430
  53.4506020  57.2348850 111.2165780  51.8023240  54.1119640 120.3813860
  51.4086630  54.9594850 120.5886640  51.1141640  53.4746010 120.5722500
  49.1040290  52.0348100 114.4143940  48.8153340  52.6050960 115.1268920
  49.8486050  51.5552550 114.7775170  57.0908650  54.7107250 114.6917010
  57.0944710  54.2697200 113.8421550  57.9859770  55.0324580 114.7988830
  52.9411030  54.5933740 113.6511220  52.6011080  55.0708970 114.4078270
  52.1788350  54.1398860 113.2912320  61.1157170  53.4886730 115.6987460
  61.1329910  53.9395380 116.5429310  60.8672750  52.5892370 115.9120900
  51.2419480  61.9232490 120.9573800  50.8574270  61.2826160 121.5556760
  51.5531670  62.6268610 121.5268530  50.2557110  53.5152720 112.5675890
  49.9704030  53.1508390 113.4054510  50.1935970  52.7833180 111.9539030
  55.1815990  57.8117670 118.7566630  54.8773060  58.6909650 118.9816990
  56.1362450  57.8717460 118.7924070  59.9295700  52.4081980 109.2889260
  59.1160310  51.9095150 109.2134570  59.7357650  53.2480230 108.8725610
  59.8504560  61.0853080 121.0328870  59.7841870  60.1648750 120.7786460
  59.2209700  61.1828520 121.7473510  51.2379720  58.6520410 119.9037990
  50.8794660  59.3174260 120.4911330  50.9434280  57.8203960 120.2750610
  54.4392840  59.1104650 122.7877540  54.1392980  59.2561830 121.8905360
  55.2104080  58.5509940 122.6950930  59.7821290  63.9073650 120.7832670
  59.7965830  62.9754610 120.5651580  59.0746390  63.9933410 121.4222440
  59.2155190  65.5491220 117.8773170  59.8597410  65.7550600 118.5546590
  59.5784630  64.7879620 117.4244020  60.4887270  63.5523570 116.5950620
  61.1309500  62.8516730 116.7082790  61.0136620  64.3322010 116.4147510
  50.1159020  67.8639050 107.0934220  50.4756660  68.4628390 106.4391490
  49.9751360  68.4098940 107.8669250  49.8128290  52.1413650 120.5810090
  49.0986810  52.3410570 121.1862700  50.2323330  51.3653220 120.9524890
  50.1000880  66.1293910 121.5676620  50.2092000  65.1888650 121.4272010
  49.4481440  66.3948660 120.9190350  58.0913470  64.4009800 122.9674740
  57.7710340  63.6819040 123.5120430  57.4171830  65.0764870 123.0410800
  51.7334280  60.4685140 108.6554650  51.1262230  61.2084040 108.6649950
  52.2083630  60.5584500 107.8292850  64.6729100  53.5892900 109.1399100
  64.0442260  53.6938570 108.4257330  64.1781020  53.8089680 109.9292980
  58.2669060  57.2875550 118.5549510  58.7654310  57.7621370 119.2201360
  58.4092010  56.3639070 118.7619540  60.6728560  52.5929510 111.9952770
  60.5496340  52.6115640 111.0462280  61.6213120  52.6408450 112.1151170
  54.8448150  54.1763930 107.9307690  55.6938680  54.6134080 107.8647880
  54.4779420  54.4884190 108.7579750  53.7439570  60.4296290 106.4043220
  54.5102840  60.3177650 106.9668650  53.8214260  59.7334260 105.7519990
  53.2401040  68.0116750 114.1910650  53.9763520  67.4632210 114.4619220
  53.6241960  68.8772760 114.0516640  52.2459320  67.1962820 123.3796230
  53.0472050  67.5174870 123.7931630  51.7311140  66.8358400 124.1016140
  61.0823950  63.3042690 123.3271640  60.4762110  63.3274290 122.5867390
  60.7778060  62.5725730 123.8638890  49.9657130  59.6836280 122.3232280
  50.4696150  59.1043560 122.8948510  49.2264550  59.9676510 122.8608650
  57.0195070  61.0907270 121.8567800  56.2540740  61.6592270 121.7722470
  57.2011030  60.7983480 120.9636030  51.9980210  57.8265870 123.2182350
  52.0385550  57.5279740 124.1267580  52.8525710  58.2273480 123.0589870
  53.9386020  56.4057970 121.1856840  53.4082480  55.9148920 120.5580180
  54.6074090  56.8342170 120.6514770  62.8364080  60.8727430 120.9498030
  63.2505100  61.0272510 121.7988450  61.9015080  60.9982650 121.1123810
  63.3086250  58.2123590 122.9537180  63.8907020  57.4575910 122.8657660
  63.4848020  58.7431030 122.1768660  57.5979310  60.8247910 118.9193960
  58.0167420  61.6680640 118.7470200  56.6787940  60.9619950 118.6900740
  59.9343210  58.5564090 120.3031800  60.0539420  57.9605230 121.0426640
  60.7937210  58.5933780 119.8833100  62.2731110  59.1101280 118.8794310
  61.7466330  59.6343900 118.2759450  62.6162450  59.7428670 119.5104040
  54.6717500  56.4994650 105.3244020  54.4706560  55.6362010 105.6857360
  54.5009550  56.4128010 104.3865620  55.4486730  67.1300920 120.0351690
  54.9107820  67.8546980 119.7160390  55.7020690  66.6531260 119.2449030
  62.1505810  51.3102880 107.8530900  62.4308100  50.4670780 108.2090320
  61.3771540  51.5425990 108.3669650  58.3048940  68.3652130 120.2938340
  58.2307640  69.2687270 120.6010710  57.4027780  68.0464030 120.2660410
  56.6885230  52.5429890 106.2978100  56.3407230  51.8653880 105.7180550
  56.8898000  52.0819400 107.1121490  50.1966440  66.5597310 116.3353590
  49.7597430  66.7398110 117.1677740  50.7644120  67.3171930 116.1935310
  50.0290870  59.0717540 112.6942470  49.3739710  58.8029180 112.0502170
  50.8668820  58.9622020 112.2444450  51.0666800  59.4570110 117.2345810
  51.4339840  59.3697510 118.1141830  50.4977620  58.6936660 117.1352670
  65.8670660  57.9254490 120.2476280  65.6356750  57.6967240 119.3474230
  66.1275210  58.8454040 120.2021170  50.6182800  56.3679200 121.1404230
  49.7238850  56.3345960 121.4797940  51.1580350  56.5665990 121.9055480
  65.7522000  57.0040460 113.9144000  66.2759480  56.5103110 113.2834170
  66.3381420  57.1390820 114.6591570  65.9311720  57.0880330 117.4363550
  64.9814430  57.0543870 117.5508540  66.1124730  57.9980440 117.2013320
  51.4330320  51.3921340 105.5864830  52.1558450  51.9330280 105.9046050
  51.7054840  51.1184760 104.7106370  51.1222510  50.6427530 115.4887450
  51.7698700  50.0924910 115.0482610  51.5424350  50.8970680 116.3103260
  67.5599400  52.7282680 105.6280230  68.4848710  52.5963860 105.4198520
  67.5375190  52.8075500 106.5816680  67.6337890  53.4993340 108.2536940
  66.8389390  53.4338460 108.7829850  67.8381170  54.4343980 108.2422290
  50.8754510  50.7983200 118.2312770  50.5269330  51.2547020 118.9970950
  50.5442210  49.9040330 118.3135200  52.4818880  63.9702800 122.3965960
  52.4388510  63.5995710 123.2780420  52.6129890  64.9080370 122.5367780
  56.1824910  65.5262390 117.9975680  55.9416270  65.7936950 117.1106200
  57.1227550  65.6968120 118.0526540  67.4429070  67.5456770 118.7986320
  66.9487350  67.9425640 118.0813450  66.8342360  66.9205980 119.1923600
  52.3206910  66.9165050 119.5163740  51.7267230  66.7849750 120.2553780
  52.3130750  66.0803190 119.0505840  65.1268520  68.1880190 116.0773060
  64.6671490  68.9396000 115.7031080  64.4980980  67.4686660 116.0187860
  51.9519140  64.2823430 118.4671780  51.2253200  63.6628720 118.3997730
  52.0128290  64.6764040 117.5969860  55.5564240  66.4968430 115.2521190
  56.0729260  65.8855790 114.7269450  56.2061620  66.9997210 115.7432200
  58.2959740  67.3876920 116.0790170  58.5837550  67.1331220 115.2023180
  58.8082960  66.8354280 116.6695740  64.0657820  51.8290220 114.7035770
  64.5065910  51.7735320 113.8557370  63.7965410  52.7448230 114.7745950
  65.9296390  51.4605460 112.7144590  65.8684790  50.5166680 112.5675610
  66.7088420  51.5685550 113.2598050  50.8577160  51.4314600 109.1800400
  51.6156520  51.5443480 108.6064430  50.3954330  52.2683800 109.1343830
  57.3990970  53.5453870 112.1702710  56.5865480  53.1710760 111.8298590
  57.9032610  52.7898950 112.4723900  61.9015950  50.2096320 113.4085780
  62.5045320  50.7816530 113.8834300  61.1608940  50.7735760 113.1859680
  65.0450550  50.6117880 108.6826060  65.2401180  51.5101330 108.9493490
  64.2580420  50.3804960 109.1759010  51.8411840  66.2931050 109.1218680
  51.3159460  66.6739080 108.4180640  51.7656420  66.9181820 109.8428390
  53.2302310  51.9578650 107.7202370  53.7595070  51.1708450 107.5910320
  53.8630630  52.6369840 107.9537900  55.4240150  51.6953790 110.7747760
  54.7942890  50.9941100 110.9417890  54.8845290  52.4557920 110.5580920
  61.0569320  58.4083820  94.1515460  60.9763370  57.4938430  93.8807170
  60.6433740  58.9050890  93.4455170  53.2053190  60.4982650  96.9100490
  52.3738070  60.2431360  97.3097000  53.8134170  60.5693420  97.6458410
  53.1854450  64.5322740  97.1058510  53.4882490  63.6420480  96.9268730
  53.9298040  65.0892960  96.8780760  51.6145140  55.4584540  90.6942880
  50.7261840  55.8000510  90.5922760  51.8986330  55.2584860  89.8023710
  49.5778150  58.0590190  96.5782580  50.1494260  57.2912390  96.5786220
  49.5779690  58.3578950  95.6689190  50.8203020  53.4674550  98.3651510
  50.6405860  52.5700300  98.6454270  50.4183100  54.0146420  99.0398460
  59.6601520  55.6690410  96.2663820  60.0366340  54.7962290  96.1537490
  59.5621030  56.0049110  95.3754260  53.7906530  54.0416040  91.7281260
  53.8973280  54.9419770  92.0350020  52.8798890  53.9934010  91.4375910
  63.4425640  53.1640850  93.1992160  64.2635260  52.6737420  93.2417640
  63.4759720  53.7538510  93.9524000  51.4389690  55.9635050  96.9733850
  52.1199800  56.2273420  97.5921250  51.1237740  55.1235920  97.3071860
  55.6314260  57.0102410  96.0606440  56.1392480  57.5083380  96.7011460
  56.1627500  56.2337610  95.8845800  53.9150360  51.6500970 100.3269860
  53.9168800  52.1673360  99.5215760  53.0854670  51.1731150 100.3039790
  53.5965690  53.3610930  98.3340310  53.9382500  54.2052980  98.0394180
  52.6581500  53.5094670  98.4505650  54.3772310  63.2576950 100.3192540
  54.9946310  63.9328030 100.0376990  53.5165430  63.6664930 100.2280040
  57.2793580  50.8493200  94.6584900  57.5868560  50.2940090  93.9420400
  56.3494280  50.9837660  94.4757890  59.6543420  55.1859030  88.3912180
  58.7147090  55.3472990  88.4764640  59.9726680  55.9044710  87.8448170
  55.2730980  59.4406770  94.1764750  54.8687980  58.7284020  93.6810650
  55.3594100  59.0960010  95.0652790  55.7412680  63.1274330  96.3403960
  55.4440970  62.5219800  95.6611740  56.6912500  63.1651640  96.2293320
  53.9859600  56.2149980  97.9563790  54.5374190  56.3245320  97.1817040
  54.5003110  56.5887580  98.6719020  53.6602330  59.7369340 101.5669130
  53.5210100  60.6092140 101.9356530  52.7783690  59.3942150 101.4217070
  50.8568610  63.2067080  93.8946220  50.4496690  63.3481670  93.0399820
  51.7481620  62.9227240  93.6917430  55.1290270  67.4212860  92.0068890
  54.9532750  66.5048400  91.7936690  54.2746010  67.7800150  92.2466690
  66.6654760  55.7063450 103.1968200  66.0499030  56.2143120 102.6683660
  66.3451180  54.8061780 103.1394140  54.4399270  51.6786820  95.0595070
  53.9967420  52.4596360  94.7279590  54.9984260  52.0016710  95.7666010
  58.7269080  54.5455340 100.6630390  58.2648450  54.7538360 101.4750330
  58.3247190  53.7314690 100.3601060  57.5558090  51.2997520  89.9400900
  56.9312270  51.2957390  90.6654210  57.4688210  50.4328480  89.5436870
  56.4775170  52.2234150  96.9184670  56.7747500  53.1296980  96.8376690
  57.0260730  51.7352930  96.3044240  54.2313490  56.8020390  92.7876320
  54.0054410  56.5857560  93.6922940  53.4506020  57.2348850  92.4422290
  61.4611250  56.8083760  91.3866970  60.8620140  57.5319560  91.2030590
  62.0090860  56.7460540  90.6043420  56.6712700  57.7005970 103.4536590
  56.5756300  56.7600700 103.3036990  57.5144680  57.9221040 103.0584660
  60.0676120  55.4447300  93.4170250  60.4605690  55.7619500  92.6038940
  60.4292970  54.5659180  93.5314770  58.3768290  54.1954610 104.6767110
  57.6866610  54.0026810 105.3113200  59.1200590  54.4789250 105.2091410
  49.1040290  52.0348100  95.6400450  48.8153340  52.6050960  96.3525430
  49.8486050  51.5552550  96.0031680  57.0908650  54.7107250  95.9173520
  57.0944710  54.2697200  95.0678060  57.9859770  55.0324580  96.0245340
  52.9411030  54.5933740  94.8767730  52.6011080  55.0708970  95.6334780
  52.1788350  54.1398860  94.5168830  57.1528800  55.7119330  88.9080280
  57.2741620  55.6705810  89.8566100  56.7677310  56.5743480  88.7527010
  61.1157170  53.4886730  96.9243970  61.1329910  53.9395380  97.7685820
  60.8672750  52.5892370  97.1377410  56.1650300  58.0220470  88.3063580
  55.5967200  57.5738720  87.6799490  56.8739300  58.3813250  87.7728730
  50.2557110  53.5152720  93.7932400  49.9704030  53.1508390  94.6311020
  50.1935970  52.7833180  93.1795540  59.9295700  52.4081980  90.5145770
  59.1160310  51.9095150  90.4391080  59.7357650  53.2480230  90.0982120
  53.7535180  61.6859040  94.2168800  54.2713850  60.8827300  94.1625690
  53.3019200  61.6238180  95.0585630  54.4392840  59.1104650 104.0134050
  54.1392980  59.2561830 103.1161870  55.2104080  58.5509940 103.9207440
  57.6095370  63.0338850  92.2612020  58.2966500  63.5808060  92.6419610
  56.8227790  63.5779580  92.2961630  56.9122580  60.0384880  91.8737380
  57.3685360  60.8490130  92.0997570  56.5610790  59.7208020  92.7055870
  52.8134360  50.3822530  92.3459900  52.6848990  50.3740430  93.2944820
  51.9896380  50.7205620  91.9950910  56.1327640  65.2470250  89.1364400
  56.1237740  65.9799940  88.5208910  55.2126000  65.0001830  89.2291360
  64.6729100  53.5892900  90.3655610  64.0442260  53.6938570  89.6513840
  64.1781020  53.8089680  91.1549490  56.6413130  55.8678850  91.7813490
  55.9329280  56.3365190  92.2227100  56.9257610  55.2100860  92.4158680
  60.6728560  52.5929510  93.2209280  60.5496340  52.6115640  92.2718790
  61.6213120  52.6408450  93.3407680  54.8448150  54.1763930  89.1564200
  55.6938680  54.6134080  89.0904390  54.4779420  54.4884190  89.9836260
  53.2401040  68.0116750  95.4167160  53.9763520  67.4632210  95.6875730
  53.6241960  68.8772760  95.2773150  56.8680750  62.4050470  87.1035080
  56.7631390  61.7902820  87.8296460  56.7004970  61.8816360  86.3198090
  57.0195070  61.0907270 103.0824310  56.2540740  61.6592270 102.9978980
  57.2011030  60.7983480 102.1892540  55.7758600  60.4261420  89.6042370
  56.1975020  60.2601290  90.4473760  55.9009440  59.6161650  89.1097510
  53.9386020  56.4057970 102.4113350  53.4082480  55.9148920 101.7836690
  54.6074090  56.8342170 101.8771280  58.2886240  59.4499030  86.8519470
  58.8091900  58.7348050  86.4860620  58.9354640  60.0884900  87.1519980
  54.4258320  53.3720340 102.4910640  54.3315190  52.7541090 101.7661510
  53.8455710  54.0986630 102.2640550  57.1919760  51.9293580  99.5238030
  56.7437060  51.9517840  98.6783580  56.5584960  51.5312600 100.1208330
  56.7011980  55.0985440 102.7864130  57.2911670  54.7901290 103.4741950
  55.8832220  54.6265190 102.9424030  61.5205410  54.7151250 103.0197150
  60.8320930  54.0532790 102.9547140  62.2411430  54.2689520 103.4645610
  62.1505810  51.3102880  89.0787410  62.4308100  50.4670780  89.4346830
  61.3771540  51.5425990  89.5926160  56.6885230  52.5429890  87.5234610
  56.3407230  51.8653880  86.9437060  56.8898000  52.0819400  88.3378000
  49.7076230  65.6926720  94.8228470  50.0379240  64.8247780  94.5907110
  50.1367230  65.8985240  95.6533430  54.3038150  64.0235730  92.4830440
  54.0033690  63.9000700  93.3834350  54.1975640  63.1644320  92.0746170
  50.1966440  66.5597310  97.5610100  49.7597430  66.7398110  98.3934250
  50.7644120  67.3171930  97.4191820  62.9781310  53.8658830  88.1417470
  63.3966190  53.6789810  87.3014130  62.6717370  53.0137880  88.4520400
  51.0666800  59.4570110  98.4602320  51.4339840  59.3697510  99.3398340
  50.4977620  58.6936660  98.3609180  64.3058730  53.1510920 104.2512490
  65.1828910  53.1594320 104.6346490  64.3179570  52.4141760 103.6404840
  51.7856160  55.3382010  87.7718690  52.4947860  54.9165230  87.2865970
  51.0696100  55.4057240  87.1402040  51.4330320  51.3921340  86.8121340
  52.1558450  51.9330280  87.1302560  51.7054840  51.1184760  85.9362880
  65.2421970  56.2613810  91.0792920  65.7381090  56.0284680  91.8641800
  65.0438040  55.4225650  90.6630560  51.1222510  50.6427530  96.7143960
  51.7698700  50.0924910  96.2739120  51.5424350  50.8970680  97.5359770
  66.6709130  54.8974760  93.6130600  66.5608410  54.7430800  94.5512870
  67.4316720  54.3695700  93.3706010  67.6337890  53.4993340  89.4793450
  66.8389390  53.4338460  90.0086360  67.8381170  54.4343980  89.4678800
  50.8754510  50.7983200  99.4569280  50.5269330  51.2547020 100.2227460
  50.5442210  49.9040330  99.5391710  58.3879330  51.9895080 102.9788700
  58.3268220  52.5816910 103.7284110  59.3279710  51.8821040 102.8338960
  51.5475150  50.3259400 102.7320050  52.0958140  50.1447450 101.9686160
  51.6130460  49.5353510 103.2676360  52.3206910  66.9165050 100.7420250
  51.7267230  66.7849750 101.4810290  52.3130750  66.0803190 100.2762350
  62.6733910  52.4168150 100.3292000  62.3447270  51.6019910  99.9493730
  63.6216210  52.3737960 100.2057690  51.9519140  64.2823430  99.6928290
  51.2253200  63.6628720  99.6254240  52.0128290  64.6764040  98.8226370
  59.5136750  51.1267120  97.8843190  58.7308540  51.6012620  98.1639950
  59.2199680  50.2221950  97.7756370  50.2349140  67.5997820  92.9025050
  50.0671180  66.9668500  93.6006940  49.3683650  67.8057220  92.5519240
  50.8577160  51.4314600  90.4056910  51.6156520  51.5443480  89.8320940
  50.3954330  52.2683800  90.3600340  57.3990970  53.5453870  93.3959220
  56.5865480  53.1710760  93.0555100  57.9032610  52.7898950  93.6980410
  65.0450550  50.6117880  89.9082570  65.2401180  51.5101330  90.1750000
  64.2580420  50.3804960  90.4015520  51.8411840  66.2931050  90.3475190
  51.3159460  66.6739080  89.6437150  51.7656420  66.9181820  91.0684900
  53.2302310  51.9578650  88.9458880  53.7595070  51.1708450  88.8166830
  53.8630630  52.6369840  89.1794410  55.4240150  51.6953790  92.0004270
  54.7942890  50.9941100  92.1674400  54.8845290  52.4557920  91.7837430
  55.5495710  50.9737770 104.4356760  55.2679980  51.4771370 103.6717580
  55.9315410  50.1759520 104.0698890  54.4404810  68.2413430  89.2224440
  55.1723630  67.9572710  88.6748330  54.6998480  68.0026710  90.1123820
  53.6019600  64.3578160  89.2270770  52.9728480  64.8263260  89.7756600
  53.7167430  63.5127380  89.6616960  61.0569320  58.4083820  75.3771970
  60.9763370  57.4938430  75.1063680  60.6433740  58.9050890  74.6711680
  59.1887360  60.1862840  77.2581240  58.4129460  59.7063280  77.5479810
  59.8400290  59.5068490  77.0837400  53.2053190  60.4982650  78.1357000
  52.3738070  60.2431360  78.5353510  53.8134170  60.5693420  78.8714920
  63.2094790  64.5923030  76.0380370  62.7476320  63.8210270  76.3667540
  64.0220340  64.6189100  76.5432820  59.4358100  66.8781040  75.6584360
  58.8169540  67.3338540  75.0878800  60.2909880  67.0332500  75.2574060
  58.6296350  62.8620030  77.2651400  58.5604630  61.9209970  77.1040530
  59.3916210  62.9521440  77.8373970  50.8203020  53.4674550  79.5908020
  50.6405860  52.5700300  79.8710780  50.4183100  54.0146420  80.2654970
  59.6601520  55.6690410  77.4920330  60.0366340  54.7962290  77.3794000
  59.5621030  56.0049110  76.6010770  63.4425640  53.1640850  74.4248670
  64.2635260  52.6737420  74.4674150  63.4759720  53.7538510  75.1780510
  51.4389690  55.9635050  78.1990360  52.1199800  56.2273420  78.8177760
  51.1237740  55.1235920  78.5328370  55.6314260  57.0102410  77.2862950
  56.1392480  57.5083380  77.9267970  56.1627500  56.2337610  77.1102310
  53.9150360  51.6500970  81.5526370  53.9168800  52.1673360  80.7472270
  53.0854670  51.1731150  81.5296300  60.3021450  61.7620280  73.0516270
  59.6838720  62.2269730  72.4878990  60.8144700  62.4547760  73.4685780
  55.1653210  61.2896150  79.7299870  54.8322590  61.9165070  80.3720940
  55.3419890  61.8158030  78.9501540  63.6787120  55.1041230  77.1976210
  62.9742690  55.3926120  77.7779320  64.0399280  55.9141340  76.8375770
  53.5965690  53.3610930  79.5596820  53.9382500  54.2052980  79.2650690
  52.6581500  53.5094670  79.6762160  54.3772310  63.2576950  81.5449050
  54.9946310  63.9328030  81.2633500  53.5165430  63.6664930  81.4536550
  66.7474040  54.5496020  77.5885420  65.7998950  54.5835000  77.7200850
  67.0724030  55.3634970  77.9734780  57.2793580  50.8493200  75.8841410
  57.5868560  50.2940090  75.1676910  56.3494280  50.9837660  75.7014400
  62.8308640  66.5660490  78.1748870  62.8435800  66.1622780  77.3071130
  62.2783860  67.3407780  78.0710300  62.2294080  61.4690330  79.5031480
  62.6462870  61.2550440  78.6684940  62.9533900  61.7263120  80.0740100
  59.6674340  58.9142030  72.6201530  58.7403620  58.8479410  72.8490000
  59.8199160  59.8522160  72.5056770  63.1398190  56.6546870  80.5402590
  62.7269370  57.4800580  80.7942580  62.4074140  56.0691910  80.3478950
  55.2730980  59.4406770  75.4021260  54.8687980  58.7284020  74.9067160
  55.3594100  59.0960010  76.2909300  55.7412680  63.1274330  77.5660470
  55.4440970  62.5219800  76.8868250  56.6912500  63.1651640  77.4549830
  53.9859600  56.2149980  79.1820300  54.5374190  56.3245320  78.4073550
  54.5003110  56.5887580  79.8975530  54.8331110  62.8656020  84.2168270
  53.9359640  63.0895990  84.4641670  54.8583980  62.9890960  83.2679670
  59.9831710  64.6545210  74.0990770  60.4227620  65.3969540  73.6846160
  59.9218600  64.8971780  75.0229730  55.4582680  65.6791040  85.0010790
  55.4298110  66.0833990  84.1339220  55.2947650  64.7501400  84.8382390
  51.9735610  58.3351750  72.9027910  51.8533210  59.0613840  72.2909180
  51.6636500  57.5654660  72.4255820  50.8568610  63.2067080  75.1202730
  50.4496690  63.3481670  74.2656330  51.7481620  62.9227240  74.9173940
  62.6501890  67.6414330  71.4553780  62.4903030  67.3517270  72.3535610
  62.4848600  66.8654460  70.9199010  62.3528020  65.1501890  70.0151780
  61.6593180  65.1479180  69.3554060  63.0950880  64.7261210  69.5845950
  61.9177950  66.7764600  74.0900270  62.3734900  65.9953980  74.4038890
  62.2570470  67.4871420  74.6341450  66.6654760  55.7063450  84.4224710
  66.0499030  56.2143120  83.8940170  66.3451180  54.8061780  84.3650650
  49.6680500  62.5481060  81.2491010  49.8311540  62.0786420  80.4310380
  50.1332950  62.0404620  81.9139850  54.4399270  51.6786820  76.2851580
  53.9967420  52.4596360  75.9536100  54.9984260  52.0016710  76.9922520
  63.7273590  55.7664290  83.0183560  62.8767180  55.4670040  83.3392630
  63.5675380  56.0106300  82.1067380  60.8223300  57.2666040  85.1182350
  61.1476710  56.4329790  84.7784580  61.6103630  57.7894560  85.2660680
  56.4775170  52.2234150  78.1441180  56.7747500  53.1296980  78.0633200
  57.0260730  51.7352930  77.5300750  61.4611250  56.8083760  72.6123480
  60.8620140  57.5319560  72.4287100  62.0090860  56.7460540  71.8299930
  60.0676120  55.4447300  74.6426760  60.4605690  55.7619500  73.8295450
  60.4292970  54.5659180  74.7571280  49.1040290  52.0348100  76.8656960
  48.8153340  52.6050960  77.5781940  49.8486050  51.5552550  77.2288190
  49.2910520  55.9768220  68.0759680  49.2085190  56.9198980  68.2174670
  48.9393580  55.8343130  67.1972030  60.6531260  58.0353050  78.7377540
  59.9212380  58.5439860  79.0867640  60.2555600  57.2183030  78.4366320
  57.0908650  54.7107250  77.1430030  57.0944710  54.2697200  76.2934570
  57.9859770  55.0324580  77.2501850  52.9411030  54.5933740  76.1024240
  52.6011080  55.0708970  76.8591290  52.1788350  54.1398860  75.7425340
  61.1157170  53.4886730  78.1500480  61.1329910  53.9395380  78.9942330
  60.8672750  52.5892370  78.3633920  56.1650300  58.0220470  69.5320090
  55.5967200  57.5738720  68.9056000  56.8739300  58.3813250  68.9985240
  51.2419480  61.9232490  83.4086820  50.8574270  61.2826160  84.0069780
  51.5531670  62.6268610  83.9781550  57.3916620  58.7709030  78.8895440
  57.7586750  58.2967600  79.6356780  57.2021680  59.6450600  79.2303780
  50.2557110  53.5152720  75.0188910  49.9704030  53.1508390  75.8567530
  50.1935970  52.7833180  74.4052050  53.7097780  62.0178660  71.8046500
  52.9360040  61.4776280  71.6445220  54.4392410  61.4985270  71.4664260
  59.8504560  61.0853080  83.4841890  59.7841870  60.1648750  83.2299480
  59.2209700  61.1828520  84.1986530  53.7535180  61.6859040  75.4425310
  54.2713850  60.8827300  75.3882200  53.3019200  61.6238180  76.2842140
  58.6404680  62.9525320  70.7152610  58.9820380  63.6967550  70.2195930
  57.8117390  63.2656440  71.0777440  61.5232090  62.2741160  76.0798120
  61.8755910  61.6769290  75.4199490  60.6394420  61.9485390  76.2506370
  57.6095370  63.0338850  73.4868530  58.2966500  63.5808060  73.8676120
  56.8227790  63.5779580  73.5218140  49.7487770  58.6511670  68.9785610
  50.6182620  58.9336470  69.2621530  49.2578090  59.4647540  68.8634420
  56.9122580  60.0384880  73.0993890  57.3685360  60.8490130  73.3254080
  56.5610790  59.7208020  73.9312380  59.2155190  65.5491220  80.3286190
  59.8597410  65.7550600  81.0059610  59.5784630  64.7879620  79.8757040
  52.8134360  50.3822530  73.5716410  52.6848990  50.3740430  74.5201330
  51.9896380  50.7205620  73.2207420  60.4887270  63.5523570  79.0463640
  61.1309500  62.8516730  79.1595810  61.0136620  64.3322010  78.8660530
  62.2624890  64.3518470  82.2499700  62.5981130  64.9385160  82.9277620
  61.3425230  64.2211180  82.4797490  49.8128290  52.1413650  83.0323110
  49.0986810  52.3410570  83.6375720  50.2323330  51.3653220  83.4037910
  50.1000880  66.1293910  84.0189640  50.2092000  65.1888650  83.8785030
  49.4481440  66.3948660  83.3703370  51.7334280  60.4685140  71.1067670
  51.1262230  61.2084040  71.1162970  52.2083630  60.5584500  70.2805870
  61.3067070  54.6335960  80.7824560  61.6747890  53.8131170  81.1104130
  60.4465270  54.6937850  81.1980210  64.6729100  53.5892900  71.5912120
  64.0442260  53.6938570  70.8770350  64.1781020  53.8089680  72.3806000
  59.1187240  65.3098490  69.0246100  59.2199220  65.1062480  68.0948080
  58.2188980  65.0556770  69.2293880  60.6728560  52.5929510  74.4465790
  60.5496340  52.6115640  73.4975300  61.6213120  52.6408450  74.5664190
  65.4735920  53.5043510  81.8490920  64.9709520  54.2448910  82.1884730
  66.2892580  53.8927510  81.5327710  52.4386330  57.8621360  69.5389130
  52.5189920  56.9148870  69.6506530  53.3306080  58.1928240  69.6449790
  52.2459320  67.1962820  85.8309250  53.0472050  67.5174870  86.2444650
  51.7311140  66.8358400  86.5529160  60.1083480  61.4670500  68.9333580
  59.5593580  61.9139800  69.5776320  60.7302740  60.9619750  69.4571250
  55.7758600  60.4261420  70.8298880  56.1975020  60.2601290  71.6730270
  55.9009440  59.6161650  70.3354020  58.2886240  59.4499030  68.0775980
  58.8091900  58.7348050  67.7117130  58.9354640  60.0884900  68.3776490
  62.8364080  60.8727430  83.4011050  63.2505100  61.0272510  84.2501470
  61.9015080  60.9982650  83.5636830  57.1919760  51.9293580  80.7494540
  56.7437060  51.9517840  79.9040090  56.5584960  51.5312600  81.3464840
  57.5979310  60.8247910  81.3706980  58.0167420  61.6680640  81.1983220
  56.6787940  60.9619950  81.1413760  62.2731110  59.1101280  81.3307330
  61.7466330  59.6343900  80.7272470  62.6162450  59.7428670  81.9617060
  54.6717500  56.4994650  67.7757040  54.4706560  55.6362010  68.1370380
  54.5009550  56.4128010  66.8378640  55.4486730  67.1300920  82.4864710
  54.9107820  67.8546980  82.1673410  55.7020690  66.6531260  81.6962050
  61.5205410  54.7151250  84.2453660  60.8320930  54.0532790  84.1803650
  62.2411430  54.2689520  84.6902120  62.1505810  51.3102880  70.3043920
  62.4308100  50.4670780  70.6603340  61.3771540  51.5425990  70.8182670
  58.3048940  68.3652130  82.7451360  58.2307640  69.2687270  83.0523730
  57.4027780  68.0464030  82.7173430  58.8534270  67.5310640  70.3677720
  59.7485060  67.8695610  70.3896480  58.8851900  66.8090050  69.7402000
  62.9781310  53.8658830  69.3673980  63.3966190  53.6789810  68.5270640
  62.6717370  53.0137880  69.6776910  51.0666800  59.4570110  79.6858830
  51.4339840  59.3697510  80.5654850  50.4977620  58.6936660  79.5865690
  65.8670660  57.9254490  82.6989300  65.6356750  57.6967240  81.7987250
  66.1275210  58.8454040  82.6534190  64.3058730  53.1510920  85.4769000
  65.1828910  53.1594320  85.8603000  64.3179570  52.4141760  84.8661350
  49.2428950  56.2816470  71.0880820  48.3393030  56.5446670  70.9132480
  49.7269570  56.5527640  70.3080780  65.7522000  57.0040460  76.3657020
  66.2759480  56.5103110  75.7347190  66.3381420  57.1390820  77.1104590
  65.9311720  57.0880330  79.8876570  64.9814430  57.0543870  80.0021560
  66.1124730  57.9980440  79.6526340  51.7856160  55.3382010  68.9975200
  52.4947860  54.9165230  68.5122480  51.0696100  55.4057240  68.3658550
  51.1222510  50.6427530  77.9400470  51.7698700  50.0924910  77.4995630
  51.5424350  50.8970680  78.7616280  66.6709130  54.8974760  74.8387110
  66.5608410  54.7430800  75.7769380  67.4316720  54.3695700  74.5962520
  64.5756310  67.5384890  74.6988350  65.1715380  67.2169460  74.0222770
  64.8334460  67.0656710  75.4901620  50.8754510  50.7983200  80.6825790
  50.5269330  51.2547020  81.4483970  50.5442210  49.9040330  80.7648220
  52.4818880  63.9702800  84.8478980  52.4388510  63.5995710  85.7293440
  52.6129890  64.9080370  84.9880800  56.1824910  65.5262390  80.4488700
  55.9416270  65.7936950  79.5619220  57.1227550  65.6968120  80.5039560
  61.0253890  51.6465140  83.8437500  61.6394300  51.9644430  83.1818580
  61.5703450  51.1613730  84.4633360  51.5475150  50.3259400  83.9576560
  52.0958140  50.1447450  83.1942670  51.6130460  49.5353510  84.4932870
  52.3206910  66.9165050  81.9676760  51.7267230  66.7849750  82.7066800
  52.3130750  66.0803190  81.5018860  61.7661930  50.2097280  80.1706790
  60.8921770  50.5432390  79.9679720  61.6572680  49.7370460  80.9958660
  62.6733910  52.4168150  81.5548510  62.3447270  51.6019910  81.1750240
  63.6216210  52.3737960  81.4314200  51.9519140  64.2823430  80.9184800
  51.2253200  63.6628720  80.8510750  52.0128290  64.6764040  80.0482880
  58.2959740  67.3876920  78.5303190  58.5837550  67.1331220  77.6536200
  58.8082960  66.8354280  79.1208760  59.5136750  51.1267120  79.1099700
  58.7308540  51.6012620  79.3896460  59.2199680  50.2221950  79.0012880
  64.0657820  51.8290220  77.1548790  64.5065910  51.7735320  76.3070390
  63.7965410  52.7448230  77.2258970  65.9296390  51.4605460  75.1657610
  65.8684790  50.5166680  75.0188630  66.7088420  51.5685550  75.7111070
  61.9015950  50.2096320  75.8598800  62.5045320  50.7816530  76.3347320
  61.1608940  50.7735760  75.6372700  55.5495710  50.9737770  85.6613270
  55.2679980  51.4771370  84.8974090  55.9315410  50.1759520  85.2955400
  62.1511170  50.3891350  86.2393740  62.0376620  50.7085960  87.1345260
  62.9680910  50.7903860  85.9431020  59.1887360  60.1862840  58.4837750
  58.4129460  59.7063280  58.7736320  59.8400290  59.5068490  58.3093910
  51.6145140  55.4584540  53.1455900  50.7261840  55.8000510  53.0435780
  51.8986330  55.2584860  52.2536730  49.5778150  58.0590190  59.0295600
  50.1494260  57.2912390  59.0299240  49.5779690  58.3578950  58.1202210
  59.4358100  66.8781040  56.8840870  58.8169540  67.3338540  56.3135310
  60.2909880  67.0332500  56.4830570  58.6296350  62.8620030  58.4907910
  58.5604630  61.9209970  58.3297040  59.3916210  62.9521440  59.0630480
  59.6601520  55.6690410  58.7176840  60.0366340  54.7962290  58.6050510
  59.5621030  56.0049110  57.8267280  53.7906530  54.0416040  54.1794280
  53.8973280  54.9419770  54.4863040  52.8798890  53.9934010  53.8888930
  55.6314260  57.0102410  58.5119460  56.1392480  57.5083380  59.1524480
  56.1627500  56.2337610  58.3358820  63.6787120  55.1041230  58.4232720
  62.9742690  55.3926120  59.0035830  64.0399280  55.9141340  58.0632280
  49.6704650  62.4476810  51.6512410  49.2932630  62.9363910  50.9197310
  49.9277720  63.1202090  52.2818940  57.2793580  50.8493200  57.1097920
  57.5868560  50.2940090  56.3933420  56.3494280  50.9837660  56.9270910
  64.1254060  63.2876710  54.4895550  64.0150390  62.3451040  54.6144970
  64.1222310  63.6492350  55.3758310  62.2294080  61.4690330  60.7287990
  62.6462870  61.2550440  59.8941450  62.9533900  61.7263120  61.2996610
  63.1398190  56.6546870  61.7659100  62.7269370  57.4800580  62.0199090
  62.4074140  56.0691910  61.5735460  55.2730980  59.4406770  56.6277770
  54.8687980  58.7284020  56.1323670  55.3594100  59.0960010  57.5165810
  55.7412680  63.1274330  58.7916980  55.4440970  62.5219800  58.1124760
  56.6912500  63.1651640  58.6806340  59.9831710  64.6545210  55.3247280
  60.4227620  65.3969540  54.9102670  59.9218600  64.8971780  56.2486240
  51.9735610  58.3351750  54.1284420  51.8533210  59.0613840  53.5165690
  51.6636500  57.5654660  53.6512330  62.6501890  67.6414330  52.6810290
  62.4903030  67.3517270  53.5792120  62.4848600  66.8654460  52.1455520
  55.1290270  67.4212860  54.4581910  54.9532750  66.5048400  54.2449710
  54.2746010  67.7800150  54.6979710  62.3528020  65.1501890  51.2408290
  61.6593180  65.1479180  50.5810570  63.0950880  64.7261210  50.8102460
  61.9177950  66.7764600  55.3156780  62.3734900  65.9953980  55.6295400
  62.2570470  67.4871420  55.8597960  54.4399270  51.6786820  57.5108090
  53.9967420  52.4596360  57.1792610  54.9984260  52.0016710  58.2179030
  58.7269080  54.5455340  63.1143410  58.2648450  54.7538360  63.9263350
  58.3247190  53.7314690  62.8114080  60.8223300  57.2666040  66.3438860
  61.1476710  56.4329790  66.0041090  61.6103630  57.7894560  66.4917190
  57.5558090  51.2997520  52.3913920  56.9312270  51.2957390  53.1167230
  57.4688210  50.4328480  51.9949890  54.2313490  56.8020390  55.2389340
  54.0054410  56.5857560  56.1435960  53.4506020  57.2348850  54.8935310
  56.6712700  57.7005970  65.9049610  56.5756300  56.7600700  65.7550010
  57.5144680  57.9221040  65.5097680  60.0676120  55.4447300  55.8683270
  60.4605690  55.7619500  55.0551960  60.4292970  54.5659180  55.9827790
  60.6531260  58.0353050  59.9634050  59.9212380  58.5439860  60.3124150
  60.2555600  57.2183030  59.6622830  57.0908650  54.7107250  58.3686540
  57.0944710  54.2697200  57.5191080  57.9859770  55.0324580  58.4758360
  52.9411030  54.5933740  57.3280750  52.6011080  55.0708970  58.0847800
  52.1788350  54.1398860  56.9681850  57.1528800  55.7119330  51.3593300
  57.2741620  55.6705810  52.3079120  56.7677310  56.5743480  51.2040030
  61.1157170  53.4886730  59.3756990  61.1329910  53.9395380  60.2198840
  60.8672750  52.5892370  59.5890430  56.1650300  58.0220470  50.7576600
  55.5967200  57.5738720  50.1312510  56.8739300  58.3813250  50.2241750
  57.3916620  58.7709030  60.1151950  57.7586750  58.2967600  60.8613290
  57.2021680  59.6450600  60.4560290  50.2557110  53.5152720  56.2445420
  49.9704030  53.1508390  57.0824040  50.1935970  52.7833180  55.6308560
  53.7097780  62.0178660  53.0303010  52.9360040  61.4776280  52.8701730
  54.4392410  61.4985270  52.6920770  59.8504560  61.0853080  64.7098400
  59.7841870  60.1648750  64.4555990  59.2209700  61.1828520  65.4243040
  58.6404680  62.9525320  51.9409120  58.9820380  63.6967550  51.4452440
  57.8117390  63.2656440  52.3033950  61.5232090  62.2741160  57.3054630
  61.8755910  61.6769290  56.6456000  60.6394420  61.9485390  57.4762880
  57.6095370  63.0338850  54.7125040  58.2966500  63.5808060  55.0932630
  56.8227790  63.5779580  54.7474650  49.7487770  58.6511670  50.2042120
  50.6182620  58.9336470  50.4878040  49.2578090  59.4647540  50.0890930
  56.9122580  60.0384880  54.3250400  57.3685360  60.8490130  54.5510590
  56.5610790  59.7208020  55.1568890  52.8134360  50.3822530  54.7972920
  52.6848990  50.3740430  55.7457840  51.9896380  50.7205620  54.4463930
  64.3342990  63.8372190  49.9959290  64.1080570  63.1202630  50.5883930
  63.9439190  63.5884630  49.1581040  56.1327640  65.2470250  51.5877420
  56.1237740  65.9799940  50.9721930  55.2126000  65.0001830  51.6804380
  51.7334280  60.4685140  52.3324180  51.1262230  61.2084040  52.3419480
  52.2083630  60.5584500  51.5062380  61.3067070  54.6335960  62.0081070
  61.6747890  53.8131170  62.3360640  60.4465270  54.6937850  62.4236720
  59.1187240  65.3098490  50.2502610  59.2199220  65.1062480  49.3204590
  58.2188980  65.0556770  50.4550390  56.6413130  55.8678850  54.2326510
  55.9329280  56.3365190  54.6740120  56.9257610  55.2100860  54.8671700
  58.2669060  57.2875550  62.2319040  58.7654310  57.7621370  62.8970890
  58.4092010  56.3639070  62.4389070  57.7605350  67.8284810  54.9450280
  58.0146850  67.7906200  54.0229650  56.8117830  67.7018140  54.9378530
  54.8448150  54.1763930  51.6077220  55.6938680  54.6134080  51.5417410
  54.4779420  54.4884190  52.4349280  53.7439570  60.4296290  50.0812750
  54.5102840  60.3177650  50.6438180  53.8214260  59.7334260  49.4289520
  52.4386330  57.8621360  50.7645640  52.5189920  56.9148870  50.8763040
  53.3306080  58.1928240  50.8706300  49.9657130  59.6836280  66.0001810
  50.4696150  59.1043560  66.5718040  49.2264550  59.9676510  66.5378180
  56.8680750  62.4050470  49.5548100  56.7631390  61.7902820  50.2809480
  56.7004970  61.8816360  48.7711110  51.9980210  57.8265870  66.8951880
  52.0385550  57.5279740  67.8037110  52.8525710  58.2273480  66.7359400
  55.7758600  60.4261420  52.0555390  56.1975020  60.2601290  52.8986780
  55.9009440  59.6161650  51.5610530  58.2886240  59.4499030  49.3032490
  58.8091900  58.7348050  48.9373640  58.9354640  60.0884900  49.6033000
  57.5979310  60.8247910  62.5963490  58.0167420  61.6680640  62.4239730
  56.6787940  60.9619950  62.3670270  59.9343210  58.5564090  63.9801330
  60.0539420  57.9605230  64.7196170  60.7937210  58.5933780  63.5602630
  62.2731110  59.1101280  62.5563840  61.7466330  59.6343900  61.9528980
  62.6162450  59.7428670  63.1873570  54.6717500  56.4994650  49.0013550
  54.4706560  55.6362010  49.3626890  54.5009550  56.4128010  48.0635150
  61.5205410  54.7151250  65.4710170  60.8320930  54.0532790  65.4060160
  62.2411430  54.2689520  65.9158630  53.4700300  53.5995270  48.9891430
  53.7726200  53.6062700  48.0810580  54.2094890  53.2493130  49.4859090
  58.3048940  68.3652130  63.9707870  58.2307640  69.2687270  64.2780240
  57.4027780  68.0464030  63.9429940  56.6885230  52.5429890  49.9747630
  56.3407230  51.8653880  49.3950080  56.8898000  52.0819400  50.7891020
  58.8534270  67.5310640  51.5934230  59.7485060  67.8695610  51.6152990
  58.8851900  66.8090050  50.9658510  52.4930430  62.9037690  49.8221230
  52.9305300  63.4467360  50.4778810  52.9778160  62.0784640  49.8317570
  54.3038150  64.0235730  54.9343460  54.0033690  63.9000700  55.8347370
  54.1975640  63.1644320  54.5259190  67.0730070  63.8032130  49.6370140
  66.2423030  63.8708780  50.1077370  67.2501900  64.6936250  49.3337000
  50.0290870  59.0717540  56.3712000  49.3739710  58.8029180  55.7271700
  50.8668820  58.9622020  55.9213980  51.0666800  59.4570110  60.9115340
  51.4339840  59.3697510  61.7911360  50.4977620  58.6936660  60.8122200
  49.2428950  56.2816470  52.3137330  48.3393030  56.5446670  52.1388990
  49.7269570  56.5527640  51.5337290  51.7856160  55.3382010  50.2231710
  52.4947860  54.9165230  49.7378990  51.0696100  55.4057240  49.5915060
  51.4330320  51.3921340  49.2634360  52.1558450  51.9330280  49.5815580
  51.7054840  51.1184760  48.3875900  61.7661930  50.2097280  61.3963300
  60.8921770  50.5432390  61.1936230  61.6572680  49.7370460  62.2215170
  62.6733910  52.4168150  62.7805020  62.3447270  51.6019910  62.4006750
  63.6216210  52.3737960  62.6570710  59.5136750  51.1267120  60.3356210
  58.7308540  51.6012620  60.6152970  59.2199680  50.2221950  60.2269390
  50.8577160  51.4314600  52.8569930  51.6156520  51.5443480  52.2833960
  50.3954330  52.2683800  52.8113360  57.3990970  53.5453870  55.8472240
  56.5865480  53.1710760  55.5068120  57.9032610  52.7898950  56.1493430
  51.8411840  66.2931050  52.7988210  51.3159460  66.6739080  52.0950170
  51.7656420  66.9181820  53.5197920  53.2302310  51.9578650  51.3971900
  53.7595070  51.1708450  51.2679850  53.8630630  52.6369840  51.6307430
  55.4240150  51.6953790  54.4517290  54.7942890  50.9941100  54.6187420
  54.8845290  52.4557920  54.2350450  58.3632100  68.3093020  67.1227900
  59.2899410  68.0737290  67.1663860  58.3482530  69.1365020  66.6413930
  54.4404810  68.2413430  51.6737460  55.1723630  67.9572710  51.1261350
  54.6998480  68.0026710  52.5636840  53.6019600  64.3578160  51.6783790
  52.9728480  64.8263260  52.2269620  53.7167430  63.5127380  52.1129980
  62.1511170  50.3891350  67.4650250  62.0376620  50.7085960  68.3601770
  62.9680910  50.7903860  67.1687530  61.0569320  58.4083820  37.8284990
  60.9763370  57.4938430  37.5576700  60.6433740  58.9050890  37.1224700
  59.1887360  60.1862840  39.7094260  58.4129460  59.7063280  39.9992830
  59.8400290  59.5068490  39.5350420  51.6145140  55.4584540  34.3712410
  50.7261840  55.8000510  34.2692290  51.8986330  55.2584860  33.4793240
  59.6601520  55.6690410  39.9433350  60.0366340  54.7962290  39.8307020
  59.5621030  56.0049110  39.0523790  53.7906530  54.0416040  35.4050790
  53.8973280  54.9419770  35.7119550  52.8798890  53.9934010  35.1145440
  63.4425640  53.1640850  36.8761690  64.2635260  52.6737420  36.9187170
  63.4759720  53.7538510  37.6293530  67.7325190  55.1807600  43.4405320
  67.0277360  55.5689310  42.9220430  67.9983110  55.8757890  44.0426250
  53.9150360  51.6500970  44.0039390  53.9168800  52.1673360  43.1985290
  53.0854670  51.1731150  43.9809320  55.1653210  61.2896150  42.1812890
  54.8322590  61.9165070  42.8233960  55.3419890  61.8158030  41.4014560
  63.6787120  55.1041230  39.6489230  62.9742690  55.3926120  40.2292340
  64.0399280  55.9141340  39.2888790  54.3772310  63.2576950  43.9962070
  54.9946310  63.9328030  43.7146520  53.5165430  63.6664930  43.9049570
  65.2949900  64.7216360  41.9116710  64.6113420  65.3915470  41.9033380
  65.8344190  64.9197010  41.1461570  66.7474040  54.5496020  40.0398440
  65.7998950  54.5835000  40.1713870  67.0724030  55.3634970  40.4247800
  57.2793580  50.8493200  38.3354430  57.5868560  50.2940090  37.6189930
  56.3494280  50.9837660  38.1527420  62.2294080  61.4690330  41.9544500
  62.6462870  61.2550440  41.1197960  62.9533900  61.7263120  42.5253120
  59.6674340  58.9142030  35.0714550  58.7403620  58.8479410  35.3003020
  59.8199160  59.8522160  34.9569790  59.6543420  55.1859030  32.0681710
  58.7147090  55.3472990  32.1534170  59.9726680  55.9044710  31.5217700
  66.1756180  59.8677550  42.0460740  65.3474810  59.9370640  41.5710870
  66.7706660  60.4531860  41.5776570  63.1398190  56.6546870  42.9915610
  62.7269370  57.4800580  43.2455600  62.4074140  56.0691910  42.7991970
  63.8298290  66.7006200  43.6796590  63.3528850  67.5078390  43.4869200
  63.1460080  66.0484530  43.8322800  54.8331110  62.8656020  46.6681290
  53.9359640  63.0895990  46.9154690  54.8583980  62.9890960  45.7192690
  61.8736330  59.7149140  32.5822550  62.3129610  58.8771570  32.4360370
  62.5864750  60.3478540  32.6686690  53.6602330  59.7369340  45.2438660
  53.5210100  60.6092140  45.6126060  52.7783690  59.3942150  45.0986600
  66.8130750  63.6530990  45.9087990  66.9393810  63.4142870  44.9905170
  66.8552130  62.8215530  46.3810070  66.6654760  55.7063450  46.8737730
  66.0499030  56.2143120  46.3453190  66.3451180  54.8061780  46.8163670
  54.4399270  51.6786820  38.7364600  53.9967420  52.4596360  38.4049120
  54.9984260  52.0016710  39.4435540  58.7269080  54.5455340  44.3399920
  58.2648450  54.7538360  45.1519860  58.3247190  53.7314690  44.0370590
  63.7273590  55.7664290  45.4696580  62.8767180  55.4670040  45.7905650
  63.5675380  56.0106300  44.5580400  60.8223300  57.2666040  47.5695370
  61.1476710  56.4329790  47.2297600  61.6103630  57.7894560  47.7173700
  56.4775170  52.2234150  40.5954200  56.7747500  53.1296980  40.5146220
  57.0260730  51.7352930  39.9813770  61.4611250  56.8083760  35.0636500
  60.8620140  57.5319560  34.8800120  62.0090860  56.7460540  34.2812950
  56.6712700  57.7005970  47.1306120  56.5756300  56.7600700  46.9806520
  57.5144680  57.9221040  46.7354190  60.0676120  55.4447300  37.0939780
  60.4605690  55.7619500  36.2808470  60.4292970  54.5659180  37.2084300
  51.8023240  54.1119640  45.2839900  51.4086630  54.9594850  45.4912680
  51.1141640  53.4746010  45.4748540  58.3768290  54.1954610  48.3536640
  57.6866610  54.0026810  48.9882730  59.1200590  54.4789250  48.8860940
  49.2910520  55.9768220  30.5272700  49.2085190  56.9198980  30.6687690
  48.9393580  55.8343130  29.6485050  60.6531260  58.0353050  41.1890560
  59.9212380  58.5439860  41.5380660  60.2555600  57.2183030  40.8879340
  57.0908650  54.7107250  39.5943050  57.0944710  54.2697200  38.7447590
  57.9859770  55.0324580  39.7014870  57.1528800  55.7119330  32.5849810
  57.2741620  55.6705810  33.5335630  56.7677310  56.5743480  32.4296540
  61.1157170  53.4886730  40.6013500  61.1329910  53.9395380  41.4455350
  60.8672750  52.5892370  40.8146940  56.1650300  58.0220470  31.9833110
  55.5967200  57.5738720  31.3569020  56.8739300  58.3813250  31.4498260
  64.5427920  50.9018910  46.4399880  64.8673690  50.1708570  46.9657860
  64.5784430  50.5832550  45.5380870  51.2419480  61.9232490  45.8599840
  50.8574270  61.2826160  46.4582800  51.5531670  62.6268610  46.4294570
  57.3916620  58.7709030  41.3408460  57.7586750  58.2967600  42.0869800
  57.2021680  59.6450600  41.6816800  55.1815990  57.8117670  43.6592670
  54.8773060  58.6909650  43.8843030  56.1362450  57.8717460  43.6950110
  59.8504560  61.0853080  45.9354910  59.7841870  60.1648750  45.6812500
  59.2209700  61.1828520  46.6499550  62.6444090  56.7801630  32.4877460
  63.5323710  57.0918860  32.3128800  62.6149180  55.9073880  32.0958040
  51.2379720  58.6520410  44.8064030  50.8794660  59.3174260  45.3937370
  50.9434280  57.8203960  45.1776650  54.4392840  59.1104650  47.6903580
  54.1392980  59.2561830  46.7931400  55.2104080  58.5509940  47.5976970
  64.9158360  58.0913470  31.9557320  64.8322080  58.5227690  31.1053760
  65.6352550  58.5511820  32.3884140  65.9932500  60.5480990  45.0327290
  65.2680690  61.1409770  44.8356680  66.5207960  60.5404530  44.2340660
  49.7487770  58.6511670  31.4298630  50.6182620  58.9336470  31.7134550
  49.2578090  59.4647540  31.3147440  52.8134360  50.3822530  36.0229430
  52.6848990  50.3740430  36.9714350  51.9896380  50.7205620  35.6720440
  60.4887270  63.5523570  41.4976660  61.1309500  62.8516730  41.6108830
  61.0136620  64.3322010  41.3173550  64.3342990  63.8372190  31.2215800
  64.1080570  63.1202630  31.8140440  63.9439190  63.5884630  30.3837550
  62.2624890  64.3518470  44.7012720  62.5981130  64.9385160  45.3790640
  61.3425230  64.2211180  44.9310510  50.1159020  67.8639050  31.9960260
  50.4756660  68.4628390  31.3417530  49.9751360  68.4098940  32.7695290
  49.8128290  52.1413650  45.4836130  49.0986810  52.3410570  46.0888740
  50.2323330  51.3653220  45.8550930  61.3067070  54.6335960  43.2337580
  61.6747890  53.8131170  43.5617150  60.4465270  54.6937850  43.6493230
  56.6413130  55.8678850  35.4583020  55.9329280  56.3365190  35.8996630
  56.9257610  55.2100860  36.0928210  58.2669060  57.2875550  43.4575550
  58.7654310  57.7621370  44.1227400  58.4092010  56.3639070  43.6645580
  60.6728560  52.5929510  36.8978810  60.5496340  52.6115640  35.9488320
  61.6213120  52.6408450  37.0177210  54.8448150  54.1763930  32.8333730
  55.6938680  54.6134080  32.7673920  54.4779420  54.4884190  33.6605790
  65.4735920  53.5043510  44.3003940  64.9709520  54.2448910  44.6397750
  66.2892580  53.8927510  43.9840730  53.7439570  60.4296290  31.3069260
  54.5102840  60.3177650  31.8694690  53.8214260  59.7334260  30.6546030
  52.4386330  57.8621360  31.9902150  52.5189920  56.9148870  32.1019550
  53.3306080  58.1928240  32.0962810  52.2459320  67.1962820  48.2822270
  53.0472050  67.5174870  48.6957670  51.7311140  66.8358400  49.0042180
  56.3503350  67.1847060  30.9162260  57.1431960  67.4735890  30.4644050
  55.8307700  66.7539230  30.2374740  61.0823950  63.3042690  48.2297680
  60.4762110  63.3274290  47.4893430  60.7778060  62.5725730  48.7664930
  62.5124320  67.0322980  46.8407090  63.4646070  66.9481000  46.7907330
  62.3652540  67.6964690  47.5140880  65.4033520  66.4117190  32.3399000
  65.1175030  65.9982330  31.5253180  65.2053070  67.3404900  32.2199520
  49.9657130  59.6836280  47.2258320  50.4696150  59.1043560  47.7974550
  49.2264550  59.9676510  47.7634690  57.0195070  61.0907270  46.7593840
  56.2540740  61.6592270  46.6748510  57.2011030  60.7983480  45.8662070
  64.1618420  62.8212600  47.3168860  64.9027890  63.1588360  46.8136320
  63.3991100  62.9904660  46.7638630  51.9980210  57.8265870  48.1208390
  52.0385550  57.5279740  49.0293620  52.8525710  58.2273480  47.9615910
  53.9386020  56.4057970  46.0882880  53.4082480  55.9148920  45.4606220
  54.6074090  56.8342170  45.5540810  58.2886240  59.4499030  30.5289000
  58.8091900  58.7348050  30.1630150  58.9354640  60.0884900  30.8289510
  62.8364080  60.8727430  45.8524070  63.2505100  61.0272510  46.7014490
  61.9015080  60.9982650  46.0149850  63.3086250  58.2123590  47.8563220
  63.8907020  57.4575910  47.7683700  63.4848020  58.7431030  47.0794700
  54.4258320  53.3720340  46.1680170  54.3315190  52.7541090  45.4431040
  53.8455710  54.0986630  45.9410080  57.1919760  51.9293580  43.2007560
  56.7437060  51.9517840  42.3553110  56.5584960  51.5312600  43.7977860
  57.5979310  60.8247910  43.8220000  58.0167420  61.6680640  43.6496240
  56.6787940  60.9619950  43.5926780  59.9343210  58.5564090  45.2057840
  60.0539420  57.9605230  45.9452680  60.7937210  58.5933780  44.7859140
  62.2731110  59.1101280  43.7820350  61.7466330  59.6343900  43.1785490
  62.6162450  59.7428670  44.4130080  54.6717500  56.4994650  30.2270060
  54.4706560  55.6362010  30.5883400  54.5009550  56.4128010  29.2891660
  56.7011980  55.0985440  46.4633660  57.2911670  54.7901290  47.1511480
  55.8832220  54.6265190  46.6193560  61.5205410  54.7151250  46.6966680
  60.8320930  54.0532790  46.6316670  62.2411430  54.2689520  47.1415140
  53.4700300  53.5995270  30.2147940  53.7726200  53.6062700  29.3067090
  54.2094890  53.2493130  30.7115600  52.4930430  62.9037690  31.0477740
  52.9305300  63.4467360  31.7035320  52.9778160  62.0784640  31.0574080
  65.8328620  66.0614310  45.5256940  65.2330610  66.1206870  44.7820860
  65.9622520  65.1219290  45.6553790  67.0730070  63.8032130  30.8626650
  66.2423030  63.8708780  31.3333880  67.2501900  64.6936250  30.5593510
  66.5286530  60.5479610  33.3660850  67.2905440  61.1176260  33.4720540
  66.5440900  59.9806810  34.1369160  64.5180260  62.7866290  43.6233100
  63.7040100  63.2163450  43.8858890  64.9254460  63.3984700  43.0102150
  66.5805700  60.8413980  30.5233370  66.8554540  61.7492860  30.3952590
  66.3916440  60.7776510  31.4595360  66.4771040  58.7782970  35.5162800
  66.1014640  58.0110900  35.0844090  65.7474160  59.1605670  36.0037730
  65.8670660  57.9254490  45.1502320  65.6356750  57.6967240  44.2500270
  66.1275210  58.8454040  45.1047210  50.6182800  56.3679200  46.0430270
  49.7238850  56.3345960  46.3823980  51.1580350  56.5665990  46.8081520
  64.3058730  53.1510920  47.9282020  65.1828910  53.1594320  48.3116020
  64.3179570  52.4141760  47.3174370  49.2428950  56.2816470  33.5393840
  48.3393030  56.5446670  33.3645500  49.7269570  56.5527640  32.7593800
  65.7522000  57.0040460  38.8170040  66.2759480  56.5103110  38.1860210
  66.3381420  57.1390820  39.5617610  65.9311720  57.0880330  42.3389590
  64.9814430  57.0543870  42.4534580  66.1124730  57.9980440  42.1039360
  51.7856160  55.3382010  31.4488220  52.4947860  54.9165230  30.9635500
  51.0696100  55.4057240  30.8171570  51.4330320  51.3921340  30.4890870
  52.1558450  51.9330280  30.8072090  51.7054840  51.1184760  29.6132410
  65.2421970  56.2613810  34.7562450  65.7381090  56.0284680  35.5411330
  65.0438040  55.4225650  34.3400090  66.6709130  54.8974760  37.2900130
  66.5608410  54.7430800  38.2282400  67.4316720  54.3695700  37.0475540
  65.0174850  50.8368890  43.7483130  65.6547070  51.4503030  44.1142320
  65.1649740  50.8729550  42.8032360  50.8754510  50.7983200  43.1338810
  50.5269330  51.2547020  43.8996990  50.5442210  49.9040330  43.2161240
  52.4818880  63.9702800  47.2992000  52.4388510  63.5995710  48.1806460
  52.6129890  64.9080370  47.4393820  58.3879330  51.9895080  46.6558230
  58.3268220  52.5816910  47.4053640  59.3279710  51.8821040  46.5108490
  61.0253890  51.6465140  46.2950520  61.6394300  51.9644430  45.6331600
  61.5703450  51.1613730  46.9146380  67.4429070  67.5456770  43.7012360
  66.9487350  67.9425640  42.9839490  66.8342360  66.9205980  44.0949640
  51.5475150  50.3259400  46.4089580  52.0958140  50.1447450  45.6455690
  51.6130460  49.5353510  46.9445890  61.7661930  50.2097280  42.6219810
  60.8921770  50.5432390  42.4192740  61.6572680  49.7370460  43.4471680
  62.6733910  52.4168150  44.0061530  62.3447270  51.6019910  43.6263260
  63.6216210  52.3737960  43.8827220  65.1268520  68.1880190  40.9799100
  64.6671490  68.9396000  40.6057120  64.4980980  67.4686660  40.9213900
  59.5136750  51.1267120  41.5612720  58.7308540  51.6012620  41.8409480
  59.2199680  50.2221950  41.4525900  64.0657820  51.8290220  39.6061810
  64.5065910  51.7735320  38.7583410  63.7965410  52.7448230  39.6771990
  65.9296390  51.4605460  37.6170630  65.8684790  50.5166680  37.4701650
  66.7088420  51.5685550  38.1624090  57.3990970  53.5453870  37.0728750
  56.5865480  53.1710760  36.7324630  57.9032610  52.7898950  37.3749940
  61.9015950  50.2096320  38.3111820  62.5045320  50.7816530  38.7860340
  61.1608940  50.7735760  38.0885720  66.5977160  67.8518590  35.3458660
  66.7729350  67.1656330  34.7019580  65.8998730  68.3765640  34.9535330
  55.5495710  50.9737770  48.1126290  55.2679980  51.4771370  47.3487110
  55.9315410  50.1759520  47.7468420  54.4404810  68.2413430  32.8993970
  55.1723630  67.9572710  32.3517860  54.6998480  68.0026710  33.7893350
  62.1511170  50.3891350  48.6906760  62.0376620  50.7085960  49.5858280
  62.9680910  50.7903860  48.3944040  64.9309660  67.5362880  48.1725450
  65.7234980  67.0412110  47.9651410  65.2242810  68.2153020  48.7801060
  61.0569320  58.4083820  19.0541500  60.9763370  57.4938430  18.7833210
  60.6433740  58.9050890  18.3481210  53.2053190  60.4982650  21.8126530
  52.3738070  60.2431360  22.2123040  53.8134170  60.5693420  22.5484450
  63.2094790  64.5923030  19.7149900  62.7476320  63.8210270  20.0437070
  64.0220340  64.6189100  20.2202350  53.1854450  64.5322740  22.0084550
  53.4882490  63.6420480  21.8294770  53.9298040  65.0892960  21.7806800
  51.6145140  55.4584540  15.5968920  50.7261840  55.8000510  15.4948800
  51.8986330  55.2584860  14.7049750  49.5778150  58.0590190  21.4808620
  50.1494260  57.2912390  21.4812260  49.5779690  58.3578950  20.5715230
  50.8203020  53.4674550  23.2677550  50.6405860  52.5700300  23.5480310
  50.4183100  54.0146420  23.9424500  59.6601520  55.6690410  21.1689860
  60.0366340  54.7962290  21.0563530  59.5621030  56.0049110  20.2780300
  53.7906530  54.0416040  16.6307300  53.8973280  54.9419770  16.9376060
  52.8798890  53.9934010  16.3401950  63.4425640  53.1640850  18.1018200
  64.2635260  52.6737420  18.1443680  63.4759720  53.7538510  18.8550040
  51.4389690  55.9635050  21.8759890  52.1199800  56.2273420  22.4947290
  51.1237740  55.1235920  22.2097900  55.6314260  57.0102410  20.9632480
  56.1392480  57.5083380  21.6037500  56.1627500  56.2337610  20.7871840
  67.7325190  55.1807600  24.6661830  67.0277360  55.5689310  24.1476940
  67.9983110  55.8757890  25.2682760  53.9150360  51.6500970  25.2295900
  53.9168800  52.1673360  24.4241800  53.0854670  51.1731150  25.2065830
  55.1653210  61.2896150  23.4069400  54.8322590  61.9165070  24.0490470
  55.3419890  61.8158030  22.6271070  63.6787120  55.1041230  20.8745740
  62.9742690  55.3926120  21.4548850  64.0399280  55.9141340  20.5145300
  53.5965690  53.3610930  23.2366350  53.9382500  54.2052980  22.9420220
  52.6581500  53.5094670  23.3531690  54.3772310  63.2576950  25.2218580
  54.9946310  63.9328030  24.9403030  53.5165430  63.6664930  25.1306080
  49.6704650  62.4476810  14.1025430  49.2932630  62.9363910  13.3710330
  49.9277720  63.1202090  14.7331960  65.2949900  64.7216360  23.1373220
  64.6113420  65.3915470  23.1289890  65.8344190  64.9197010  22.3718080
  66.7474040  54.5496020  21.2654950  65.7998950  54.5835000  21.3970380
  67.0724030  55.3634970  21.6504310  57.2793580  50.8493200  19.5610940
  57.5868560  50.2940090  18.8446440  56.3494280  50.9837660  19.3783930
  62.8308640  66.5660490  21.8518400  62.8435800  66.1622780  20.9840660
  62.2783860  67.3407780  21.7479830  64.1254060  63.2876710  16.9408570
  64.0150390  62.3451040  17.0657990  64.1222310  63.6492350  17.8271330
  62.2294080  61.4690330  23.1801010  62.6462870  61.2550440  22.3454470
  62.9533900  61.7263120  23.7509630  59.6674340  58.9142030  16.2971060
  58.7403620  58.8479410  16.5259530  59.8199160  59.8522160  16.1826300
  59.6543420  55.1859030  13.2938220  58.7147090  55.3472990  13.3790680
  59.9726680  55.9044710  12.7474210  66.1756180  59.8677550  23.2717250
  65.3474810  59.9370640  22.7967380  66.7706660  60.4531860  22.8033080
  63.6971630  60.4762330  16.8006310  63.0784050  60.1381880  16.1532610
  63.6796080  59.8322090  17.5085500  63.1398190  56.6546870  24.2172120
  62.7269370  57.4800580  24.4712110  62.4074140  56.0691910  24.0248480
  55.2730980  59.4406770  19.0790790  54.8687980  58.7284020  18.5836690
  55.3594100  59.0960010  19.9678830  53.9859600  56.2149980  22.8589830
  54.5374190  56.3245320  22.0843080  54.5003110  56.5887580  23.5745060
  63.8298290  66.7006200  24.9053100  63.3528850  67.5078390  24.7125710
  63.1460080  66.0484530  25.0579310  54.8331110  62.8656020  27.8937800
  53.9359640  63.0895990  28.1411200  54.8583980  62.9890960  26.9449200
  61.8736330  59.7149140  13.8079060  62.3129610  58.8771570  13.6616880
  62.5864750  60.3478540  13.8943200  53.6602330  59.7369340  26.4695170
  53.5210100  60.6092140  26.8382570  52.7783690  59.3942150  26.3243110
  55.4582680  65.6791040  28.6780320  55.4298110  66.0833990  27.8108750
  55.2947650  64.7501400  28.5151920  65.4553470  50.9691950  12.1220100
  65.1426130  51.0618780  13.0219170  66.2165940  51.5472980  12.0717530
  51.9735610  58.3351750  16.5797440  51.8533210  59.0613840  15.9678710
  51.6636500  57.5654660  16.1025350  67.4097500  66.4618140  29.9744490
  67.8857220  66.9401030  30.6533570  68.0304660  66.3935630  29.2489990
  49.6120980  61.5066890  22.3866080  49.6901400  61.6415660  21.4421800
  50.2262660  60.7982780  22.5794200  50.8568610  63.2067080  18.7972260
  50.4496690  63.3481670  17.9425860  51.7481620  62.9227240  18.5943470
  66.8130750  63.6530990  27.1344500  66.9393810  63.4142870  26.2161680
  66.8552130  62.8215530  27.6066580  60.6747490  67.3558990  25.7039310
  61.1892160  67.2667000  26.5061740  59.8316570  67.7018690  25.9967220
  62.3528020  65.1501890  13.6921310  61.6593180  65.1479180  13.0323590
  63.0950880  64.7261210  13.2615480  66.6654760  55.7063450  28.0994240
  66.0499030  56.2143120  27.5709700  66.3451180  54.8061780  28.0420180
  54.4399270  51.6786820  19.9621110  53.9967420  52.4596360  19.6305630
  54.9984260  52.0016710  20.6692050  58.7269080  54.5455340  25.5656430
  58.2648450  54.7538360  26.3776370  58.3247190  53.7314690  25.2627100
  63.7273590  55.7664290  26.6953090  62.8767180  55.4670040  27.0162160
  63.5675380  56.0106300  25.7836910  60.8223300  57.2666040  28.7951880
  61.1476710  56.4329790  28.4554110  61.6103630  57.7894560  28.9430210
  57.5558090  51.2997520  14.8426940  56.9312270  51.2957390  15.5680250
  57.4688210  50.4328480  14.4462910  56.4775170  52.2234150  21.8210710
  56.7747500  53.1296980  21.7402730  57.0260730  51.7352930  21.2070280
  54.2313490  56.8020390  17.6902360  54.0054410  56.5857560  18.5948980
  53.4506020  57.2348850  17.3448330  61.4611250  56.8083760  16.2893010
  60.8620140  57.5319560  16.1056630  62.0090860  56.7460540  15.5069460
  56.6712700  57.7005970  28.3562630  56.5756300  56.7600700  28.2063030
  57.5144680  57.9221040  27.9610700  60.0676120  55.4447300  18.3196290
  60.4605690  55.7619500  17.5064980  60.4292970  54.5659180  18.4340810
  51.8023240  54.1119640  26.5096410  51.4086630  54.9594850  26.7169190
  51.1141640  53.4746010  26.7005050  58.3768290  54.1954610  29.5793150
  57.6866610  54.0026810  30.2139240  59.1200590  54.4789250  30.1117450
  49.1040290  52.0348100  20.5426490  48.8153340  52.6050960  21.2551470
  49.8486050  51.5552550  20.9057720  49.2910520  55.9768220  11.7529210
  49.2085190  56.9198980  11.8944200  48.9393580  55.8343130  10.8741560
  60.6531260  58.0353050  22.4147070  59.9212380  58.5439860  22.7637170
  60.2555600  57.2183030  22.1135850  57.0908650  54.7107250  20.8199560
  57.0944710  54.2697200  19.9704100  57.9859770  55.0324580  20.9271380
  52.9411030  54.5933740  19.7793770  52.6011080  55.0708970  20.5360820
  52.1788350  54.1398860  19.4194870  57.1528800  55.7119330  13.8106320
  57.2741620  55.6705810  14.7592140  56.7677310  56.5743480  13.6553050
  61.1157170  53.4886730  21.8270010  61.1329910  53.9395380  22.6711860
  60.8672750  52.5892370  22.0403450  56.1650300  58.0220470  13.2089620
  55.5967200  57.5738720  12.5825530  56.8739300  58.3813250  12.6754770
  64.5427920  50.9018910  27.6656390  64.8673690  50.1708570  28.1914370
  64.5784430  50.5832550  26.7637380  51.2419480  61.9232490  27.0856350
  50.8574270  61.2826160  27.6839310  51.5531670  62.6268610  27.6551080
  57.3916620  58.7709030  22.5664970  57.7586750  58.2967600  23.3126310
  57.2021680  59.6450600  22.9073310  50.2557110  53.5152720  18.6958440
  49.9704030  53.1508390  19.5337060  50.1935970  52.7833180  18.0821580
  55.1815990  57.8117670  24.8849180  54.8773060  58.6909650  25.1099540
  56.1362450  57.8717460  24.9206620  53.7097780  62.0178660  15.4816030
  52.9360040  61.4776280  15.3214750  54.4392410  61.4985270  15.1433790
  64.4685760  61.0144020  21.2742420  65.1884880  61.5099310  20.8838530
  64.2667580  60.3361910  20.6296290  59.9295700  52.4081980  15.4171810
  59.1160310  51.9095150  15.3417120  59.7357650  53.2480230  15.0008160
  59.8504560  61.0853080  27.1611420  59.7841870  60.1648750  26.9069010
  59.2209700  61.1828520  27.8756060  62.6444090  56.7801630  13.7133970
  63.5323710  57.0918860  13.5385310  62.6149180  55.9073880  13.3214550
  53.7535180  61.6859040  19.1194840  54.2713850  60.8827300  19.0651730
  53.3019200  61.6238180  19.9611670  51.2379720  58.6520410  26.0320540
  50.8794660  59.3174260  26.6193880  50.9434280  57.8203960  26.4033160
  54.4392840  59.1104650  28.9160090  54.1392980  59.2561830  28.0187910
  55.2104080  58.5509940  28.8233480  59.7821290  63.9073650  26.9115220
  59.7965830  62.9754610  26.6934130  59.0746390  63.9933410  27.5504990
  64.9158360  58.0913470  13.1813830  64.8322080  58.5227690  12.3310270
  65.6352550  58.5511820  13.6140650  65.9932500  60.5480990  26.2583800
  65.2680690  61.1409770  26.0613190  66.5207960  60.5404530  25.4597170
  65.9445610  64.9455730  15.9095960  65.3021770  64.2911350  16.1839680
  65.5576270  65.3510820  15.1336630  49.7487770  58.6511670  12.6555140
  50.6182620  58.9336470  12.9391060  49.2578090  59.4647540  12.5403950
  59.2155190  65.5491220  24.0055720  59.8597410  65.7550600  24.6829140
  59.5784630  64.7879620  23.5526570  52.8134360  50.3822530  17.2485940
  52.6848990  50.3740430  18.1970860  51.9896380  50.7205620  16.8976950
  64.3342990  63.8372190  12.4472310  64.1080570  63.1202630  13.0396950
  63.9439190  63.5884630  11.6094060  62.2624890  64.3518470  25.9269230
  62.5981130  64.9385160  26.6047150  61.3425230  64.2211180  26.1567020
  50.1159020  67.8639050  13.2216770  50.4756660  68.4628390  12.5674040
  49.9751360  68.4098940  13.9951800  49.8128290  52.1413650  26.7092640
  49.0986810  52.3410570  27.3145250  50.2323330  51.3653220  27.0807440
  63.9159240  61.7544130  14.1086470  63.6280940  62.2156820  14.8964350
  64.7111410  61.2941900  14.3770690  51.7334280  60.4685140  14.7837200
  51.1262230  61.2084040  14.7932500  52.2083630  60.5584500  13.9575400
  61.3067070  54.6335960  24.4594090  61.6747890  53.8131170  24.7873660
  60.4465270  54.6937850  24.8749740  64.6729100  53.5892900  15.2681650
  64.0442260  53.6938570  14.5539880  64.1781020  53.8089680  16.0575530
  59.1187240  65.3098490  12.7015630  59.2199220  65.1062480  11.7717610
  58.2188980  65.0556770  12.9063410  56.6413130  55.8678850  16.6839530
  55.9329280  56.3365190  17.1253140  56.9257610  55.2100860  17.3184720
  58.2669060  57.2875550  24.6832060  58.7654310  57.7621370  25.3483910
  58.4092010  56.3639070  24.8902090  60.6728560  52.5929510  18.1235320
  60.5496340  52.6115640  17.1744830  61.6213120  52.6408450  18.2433720
  54.8448150  54.1763930  14.0590240  55.6938680  54.6134080  13.9930430
  54.4779420  54.4884190  14.8862300  65.4735920  53.5043510  25.5260450
  64.9709520  54.2448910  25.8654260  66.2892580  53.8927510  25.2097240
  63.7657930  58.7476690  18.9721810  62.8248070  58.7626920  19.1469500
  64.0802000  57.9612650  19.4182110  53.7439570  60.4296290  12.5325770
  54.5102840  60.3177650  13.0951200  53.8214260  59.7334260  11.8802540
  52.4386330  57.8621360  13.2158660  52.5189920  56.9148870  13.3276060
  53.3306080  58.1928240  13.3219320  65.7683510  65.9185540  20.6476070
  65.8930930  66.7416710  21.1199880  66.6349070  65.7076270  20.3000220
  53.2401040  68.0116750  20.3193200  53.9763520  67.4632210  20.5901770
  53.6241960  68.8772760  20.1799190  50.1246520  64.0790320  16.1934710
  49.1986300  64.3211460  16.1840120  50.5902950  64.9064580  16.0719460
  52.2459320  67.1962820  29.5078780  53.0472050  67.5174870  29.9214180
  51.7311140  66.8358400  30.2298690  56.3503350  67.1847060  12.1418770
  57.1431960  67.4735890  11.6900560  55.8307700  66.7539230  11.4631250
  62.5124320  67.0322980  28.0663600  63.4646070  66.9481000  28.0163840
  62.3652540  67.6964690  28.7397390  65.4033520  66.4117190  13.5655510
  65.1175030  65.9982330  12.7509690  65.2053070  67.3404900  13.4456030
  49.9657130  59.6836280  28.4514830  50.4696150  59.1043560  29.0231060
  49.2264550  59.9676510  28.9891200  56.8680750  62.4050470  12.0061120
  56.7631390  61.7902820  12.7322500  56.7004970  61.8816360  11.2224130
  57.0195070  61.0907270  27.9850350  56.2540740  61.6592270  27.9005020
  57.2011030  60.7983480  27.0918580  60.1083480  61.4670500  12.6103110
  59.5593580  61.9139800  13.2545850  60.7302740  60.9619750  13.1340780
  64.1618420  62.8212600  28.5425370  64.9027890  63.1588360  28.0392830
  63.3991100  62.9904660  27.9895140  51.9980210  57.8265870  29.3464900
  52.0385550  57.5279740  30.2550130  52.8525710  58.2273480  29.1872420
  55.7758600  60.4261420  14.5068410  56.1975020  60.2601290  15.3499800
  55.9009440  59.6161650  14.0123550  53.9386020  56.4057970  27.3139390
  53.4082480  55.9148920  26.6862730  54.6074090  56.8342170  26.7797320
  58.2886240  59.4499030  11.7545510  58.8091900  58.7348050  11.3886660
  58.9354640  60.0884900  12.0546020  62.8364080  60.8727430  27.0780580
  63.2505100  61.0272510  27.9271000  61.9015080  60.9982650  27.2406360
  63.3086250  58.2123590  29.0819730  63.8907020  57.4575910  28.9940210
  63.4848020  58.7431030  28.3051210  54.4258320  53.3720340  27.3936680
  54.3315190  52.7541090  26.6687550  53.8455710  54.0986630  27.1666590
  57.1919760  51.9293580  24.4264070  56.7437060  51.9517840  23.5809620
  56.5584960  51.5312600  25.0234370  57.5979310  60.8247910  25.0476510
  58.0167420  61.6680640  24.8752750  56.6787940  60.9619950  24.8183290
  59.9343210  58.5564090  26.4314350  60.0539420  57.9605230  27.1709190
  60.7937210  58.5933780  26.0115650  62.2731110  59.1101280  25.0076860
  61.7466330  59.6343900  24.4042000  62.6162450  59.7428670  25.6386590
  54.6717500  56.4994650  11.4526570  54.4706560  55.6362010  11.8139910
  54.5009550  56.4128010  10.5148170  55.4486730  67.1300920  26.1634240
  54.9107820  67.8546980  25.8442940  55.7020690  66.6531260  25.3731580
  56.7011980  55.0985440  27.6890170  57.2911670  54.7901290  28.3767990
  55.8832220  54.6265190  27.8450070  61.5205410  54.7151250  27.9223190
  60.8320930  54.0532790  27.8573180  62.2411430  54.2689520  28.3671650
  62.1505810  51.3102880  13.9813450  62.4308100  50.4670780  14.3372870
  61.3771540  51.5425990  14.4952200  53.4700300  53.5995270  11.4404450
  53.7726200  53.6062700  10.5323600  54.2094890  53.2493130  11.9372110
  58.3048940  68.3652130  26.4220890  58.2307640  69.2687270  26.7293260
  57.4027780  68.0464030  26.3942960  56.6885230  52.5429890  12.4260650
  56.3407230  51.8653880  11.8463100  56.8898000  52.0819400  13.2404040
  52.4930430  62.9037690  12.2734250  52.9305300  63.4467360  12.9291830
  52.9778160  62.0784640  12.2830590  49.7076230  65.6926720  19.7254510
  50.0379240  64.8247780  19.4933150  50.1367230  65.8985240  20.5559470
  65.8328620  66.0614310  26.7513450  65.2330610  66.1206870  26.0077370
  65.9622520  65.1219290  26.8810300  67.0730070  63.8032130  12.0883160
  66.2423030  63.8708780  12.5590390  67.2501900  64.6936250  11.7850020
  66.5286530  60.5479610  14.5917360  67.2905440  61.1176260  14.6977050
  66.5440900  59.9806810  15.3625670  50.0290870  59.0717540  18.8225020
  49.3739710  58.8029180  18.1784720  50.8668820  58.9622020  18.3727000
  67.5346500  61.4029710  19.4359290  67.9055330  60.6197030  19.0295260
  68.1748430  62.0918810  19.2576590  64.5180260  62.7866290  24.8489610
  63.7040100  63.2163450  25.1115400  64.9254460  63.3984700  24.2358660
  66.5805700  60.8413980  11.7489880  66.8554540  61.7492860  11.6209100
  66.3916440  60.7776510  12.6851870  62.9781310  53.8658830  13.0443510
  63.3966190  53.6789810  12.2040170  62.6717370  53.0137880  13.3546440
  66.4771040  58.7782970  16.7419310  66.1014640  58.0110900  16.3100600
  65.7474160  59.1605670  17.2294240  51.0666800  59.4570110  23.3628360
  51.4339840  59.3697510  24.2424380  50.4977620  58.6936660  23.2635220
  65.8670660  57.9254490  26.3758830  65.6356750  57.6967240  25.4756780
  66.1275210  58.8454040  26.3303720  50.6182800  56.3679200  27.2686780
  49.7238850  56.3345960  27.6080490  51.1580350  56.5665990  28.0338030
  49.2428950  56.2816470  14.7650350  48.3393030  56.5446670  14.5902010
  49.7269570  56.5527640  13.9850310  65.7522000  57.0040460  20.0426550
  66.2759480  56.5103110  19.4116720  66.3381420  57.1390820  20.7874120
  65.9311720  57.0880330  23.5646100  64.9814430  57.0543870  23.6791090
  66.1124730  57.9980440  23.3295870  51.7856160  55.3382010  12.6744730
  52.4947860  54.9165230  12.1892010  51.0696100  55.4057240  12.0428080
  51.4330320  51.3921340  11.7147380  52.1558450  51.9330280  12.0328600
  51.7054840  51.1184760  10.8388920  65.2421970  56.2613810  15.9818960
  65.7381090  56.0284680  16.7667840  65.0438040  55.4225650  15.5656600
  51.1222510  50.6427530  21.6170000  51.7698700  50.0924910  21.1765160
  51.5424350  50.8970680  22.4385810  66.6709130  54.8974760  18.5156640
  66.5608410  54.7430800  19.4538910  67.4316720  54.3695700  18.2732050
  65.0174850  50.8368890  24.9739640  65.6547070  51.4503030  25.3398830
  65.1649740  50.8729550  24.0288870  67.5599400  52.7282680  11.7562780
  68.4848710  52.5963860  11.5481070  67.5375190  52.8075500  12.7099230
  67.6337890  53.4993340  14.3819490  66.8389390  53.4338460  14.9112400
  67.8381170  54.4343980  14.3704840  64.5756310  67.5384890  18.3757880
  65.1715380  67.2169460  17.6992300  64.8334460  67.0656710  19.1671150
  50.8754510  50.7983200  24.3595320  50.5269330  51.2547020  25.1253500
  50.5442210  49.9040330  24.4417750  52.4818880  63.9702800  28.5248510
  52.4388510  63.5995710  29.4062970  52.6129890  64.9080370  28.6650330
  56.1824910  65.5262390  24.1258230  55.9416270  65.7936950  23.2388750
  57.1227550  65.6968120  24.1809090  61.0253890  51.6465140  27.5207030
  61.6394300  51.9644430  26.8588110  61.5703450  51.1613730  28.1402890
  67.4429070  67.5456770  24.9268870  66.9487350  67.9425640  24.2096000
  66.8342360  66.9205980  25.3206150  51.5475150  50.3259400  27.6346090
  52.0958140  50.1447450  26.8712200  51.6130460  49.5353510  28.1702400
  61.7661930  50.2097280  23.8476320  60.8921770  50.5432390  23.6449250
  61.6572680  49.7370460  24.6728190  62.6733910  52.4168150  25.2318040
  62.3447270  51.6019910  24.8519770  63.6216210  52.3737960  25.1083730
  65.1268520  68.1880190  22.2055610  64.6671490  68.9396000  21.8313630
  64.4980980  67.4686660  22.1470410  55.5564240  66.4968430  21.3803740
  56.0729260  65.8855790  20.8552000  56.2061620  66.9997210  21.8714750
  58.2959740  67.3876920  22.2072720  58.5837550  67.1331220  21.3305730
  58.8082960  66.8354280  22.7978290  59.5136750  51.1267120  22.7869230
  58.7308540  51.6012620  23.0665990  59.2199680  50.2221950  22.6782410
  64.0657820  51.8290220  20.8318320  64.5065910  51.7735320  19.9839920
  63.7965410  52.7448230  20.9028500  65.9296390  51.4605460  18.8427140
  65.8684790  50.5166680  18.6958160  66.7088420  51.5685550  19.3880600
  50.2349140  67.5997820  17.8051090  50.0671180  66.9668500  18.5032980
  49.3683650  67.8057220  17.4545280  50.8577160  51.4314600  15.3082950
  51.6156520  51.5443480  14.7346980  50.3954330  52.2683800  15.2626380
  57.3990970  53.5453870  18.2985260  56.5865480  53.1710760  17.9581140
  57.9032610  52.7898950  18.6006450  61.9015950  50.2096320  19.5368330
  62.5045320  50.7816530  20.0116850  61.1608940  50.7735760  19.3142230
  65.0450550  50.6117880  14.8108610  65.2401180  51.5101330  15.0776040
  64.2580420  50.3804960  15.3041560  51.8411840  66.2931050  15.2501230
  51.3159460  66.6739080  14.5463190  51.7656420  66.9181820  15.9710940
  53.2302310  51.9578650  13.8484920  53.7595070  51.1708450  13.7192870
  53.8630630  52.6369840  14.0820450  55.4240150  51.6953790  16.9030310
  54.7942890  50.9941100  17.0700440  54.8845290  52.4557920  16.6863470
  58.3632100  68.3093020  29.5740920  59.2899410  68.0737290  29.6176880
  58.3482530  69.1365020  29.0926950  66.5977160  67.8518590  16.5715170
  66.7729350  67.1656330  15.9276090  65.8998730  68.3765640  16.1791840
  54.4404810  68.2413430  14.1250480  55.1723630  67.9572710  13.5774370
  54.6998480  68.0026710  15.0149860  53.6019600  64.3578160  14.1296810
  52.9728480  64.8263260  14.6782640  53.7167430  63.5127380  14.5643000
  64.9309660  67.5362880  29.3981960  65.7234980  67.0412110  29.1907920
  65.2242810  68.2153020  30.0057570  59.1887360  60.1862840   2.1607280
  58.4129460  59.7063280   2.4505850  59.8400290  59.5068490   1.9863440
  53.2053190  60.4982650   3.0383040  52.3738070  60.2431360   3.4379550
  53.8134170  60.5693420   3.7740960  53.1854450  64.5322740   3.2341060
  53.4882490  63.6420480   3.0551280  53.9298040  65.0892960   3.0063310
  49.5778150  58.0590190   2.7065130  50.1494260  57.2912390   2.7068770
  49.5779690  58.3578950   1.7971740  58.6296350  62.8620030   2.1677440
  58.5604630  61.9209970   2.0066570  59.3916210  62.9521440   2.7400010
  50.8203020  53.4674550   4.4934060  50.6405860  52.5700300   4.7736820
  50.4183100  54.0146420   5.1681010  51.4389690  55.9635050   3.1016400
  52.1199800  56.2273420   3.7203800  51.1237740  55.1235920   3.4354410
  55.6314260  57.0102410   2.1888990  56.1392480  57.5083380   2.8294010
  56.1627500  56.2337610   2.0128350  67.7325190  55.1807600   5.8918340
  67.0277360  55.5689310   5.3733450  67.9983110  55.8757890   6.4939270
  53.9150360  51.6500970   6.4552410  53.9168800  52.1673360   5.6498310
  53.0854670  51.1731150   6.4322340  55.1653210  61.2896150   4.6325910
  54.8322590  61.9165070   5.2746980  55.3419890  61.8158030   3.8527580
  63.6787120  55.1041230   2.1002250  62.9742690  55.3926120   2.6805360
  64.0399280  55.9141340   1.7401810  53.5965690  53.3610930   4.4622860
  53.9382500  54.2052980   4.1676730  52.6581500  53.5094670   4.5788200
  54.3772310  63.2576950   6.4475090  54.9946310  63.9328030   6.1659540
  53.5165430  63.6664930   6.3562590  65.2949900  64.7216360   4.3629730
  64.6113420  65.3915470   4.3546400  65.8344190  64.9197010   3.5974590
  66.7474040  54.5496020   2.4911460  65.7998950  54.5835000   2.6226890
  67.0724030  55.3634970   2.8760820  62.8308640  66.5660490   3.0774910
  62.8435800  66.1622780   2.2097170  62.2783860  67.3407780   2.9736340
  62.2294080  61.4690330   4.4057520  62.6462870  61.2550440   3.5710980
  62.9533900  61.7263120   4.9766140  66.1756180  59.8677550   4.4973760
  65.3474810  59.9370640   4.0223890  66.7706660  60.4531860   4.0289590
  63.1398190  56.6546870   5.4428630  62.7269370  57.4800580   5.6968620
  62.4074140  56.0691910   5.2504990  55.7412680  63.1274330   2.4686510
  55.4440970  62.5219800   1.7894290  56.6912500  63.1651640   2.3575870
  53.9859600  56.2149980   4.0846340  54.5374190  56.3245320   3.3099590
  54.5003110  56.5887580   4.8001570  63.8298290  66.7006200   6.1309610
  63.3528850  67.5078390   5.9382220  63.1460080  66.0484530   6.2835820
  54.8331110  62.8656020   9.1194310  53.9359640  63.0895990   9.3667710
  54.8583980  62.9890960   8.1705710  53.6602330  59.7369340   7.6951680
  53.5210100  60.6092140   8.0639080  52.7783690  59.3942150   7.5499620
  55.4582680  65.6791040   9.9036830  55.4298110  66.0833990   9.0365260
  55.2947650  64.7501400   9.7408430  67.4097500  66.4618140  11.2001000
  67.8857220  66.9401030  11.8790080  68.0304660  66.3935630  10.4746500
  49.6120980  61.5066890   3.6122590  49.6901400  61.6415660   2.6678310
  50.2262660  60.7982780   3.8050710  66.8130750  63.6530990   8.3601010
  66.9393810  63.4142870   7.4418190  66.8552130  62.8215530   8.8323090
  60.6747490  67.3558990   6.9295820  61.1892160  67.2667000   7.7318250
  59.8316570  67.7018690   7.2223730  66.6654760  55.7063450   9.3250750
  66.0499030  56.2143120   8.7966210  66.3451180  54.8061780   9.2676690
  49.6680500  62.5481060   6.1517050  49.8311540  62.0786420   5.3336420
  50.1332950  62.0404620   6.8165890  58.7269080  54.5455340   6.7912940
  58.2648450  54.7538360   7.6032880  58.3247190  53.7314690   6.4883610
  63.7273590  55.7664290   7.9209600  62.8767180  55.4670040   8.2418670
  63.5675380  56.0106300   7.0093420  60.8223300  57.2666040  10.0208390
  61.1476710  56.4329790   9.6810620  61.6103630  57.7894560  10.1686720
  56.4775170  52.2234150   3.0467220  56.7747500  53.1296980   2.9659240
  57.0260730  51.7352930   2.4326790  56.6712700  57.7005970   9.5819140
  56.5756300  56.7600700   9.4319540  57.5144680  57.9221040   9.1867210
  51.8023240  54.1119640   7.7352920  51.4086630  54.9594850   7.9425700
  51.1141640  53.4746010   7.9261560  58.3768290  54.1954610  10.8049660
  57.6866610  54.0026810  11.4395750  59.1200590  54.4789250  11.3373960
  49.1040290  52.0348100   1.7683000  48.8153340  52.6050960   2.4807980
  49.8486050  51.5552550   2.1314230  60.6531260  58.0353050   3.6403580
  59.9212380  58.5439860   3.9893680  60.2555600  57.2183030   3.3392360
  61.1157170  53.4886730   3.0526520  61.1329910  53.9395380   3.8968370
  60.8672750  52.5892370   3.2659960  64.5427920  50.9018910   8.8912900
  64.8673690  50.1708570   9.4170880  64.5784430  50.5832550   7.9893890
  51.2419480  61.9232490   8.3112860  50.8574270  61.2826160   8.9095820
  51.5531670  62.6268610   8.8807590  57.3916620  58.7709030   3.7921480
  57.7586750  58.2967600   4.5382820  57.2021680  59.6450600   4.1329820
  55.1815990  57.8117670   6.1105690  54.8773060  58.6909650   6.3356050
  56.1362450  57.8717460   6.1463130  64.4685760  61.0144020   2.4998930
  65.1884880  61.5099310   2.1095040  64.2667580  60.3361910   1.8552800
  59.8504560  61.0853080   8.3867930  59.7841870  60.1648750   8.1325520
  59.2209700  61.1828520   9.1012570  51.2379720  58.6520410   7.2577050
  50.8794660  59.3174260   7.8450390  50.9434280  57.8203960   7.6289670
  54.4392840  59.1104650  10.1416600  54.1392980  59.2561830   9.2444420
  55.2104080  58.5509940  10.0489990  59.7821290  63.9073650   8.1371730
  59.7965830  62.9754610   7.9190640  59.0746390  63.9933410   8.7761500
  65.9932500  60.5480990   7.4840310  65.2680690  61.1409770   7.2869700
  66.5207960  60.5404530   6.6853680  59.2155190  65.5491220   5.2312230
  59.8597410  65.7550600   5.9085650  59.5784630  64.7879620   4.7783080
  60.4887270  63.5523570   3.9489680  61.1309500  62.8516730   4.0621850
  61.0136620  64.3322010   3.7686570  62.2624890  64.3518470   7.1525740
  62.5981130  64.9385160   7.8303660  61.3425230  64.2211180   7.3823530
  49.8128290  52.1413650   7.9349150  49.0986810  52.3410570   8.5401760
  50.2323330  51.3653220   8.3063950  50.1000880  66.1293910   8.9215680
  50.2092000  65.1888650   8.7811070  49.4481440  66.3948660   8.2729410
  58.0913470  64.4009800  10.3213800  57.7710340  63.6819040  10.8659490
  57.4171830  65.0764870  10.3949860  61.3067070  54.6335960   5.6850600
  61.6747890  53.8131170   6.0130170  60.4465270  54.6937850   6.1006250
  58.2669060  57.2875550   5.9088570  58.7654310  57.7621370   6.5740420
  58.4092010  56.3639070   6.1158600  65.4735920  53.5043510   6.7516960
  64.9709520  54.2448910   7.0910770  66.2892580  53.8927510   6.4353750
  52.2459320  67.1962820  10.7335290  53.0472050  67.5174870  11.1470690
  51.7311140  66.8358400  11.4555200  61.0823950  63.3042690  10.6810700
  60.4762110  63.3274290   9.9406450  60.7778060  62.5725730  11.2177950
  62.5124320  67.0322980   9.2920110  63.4646070  66.9481000   9.2420350
  62.3652540  67.6964690   9.9653900  49.9657130  59.6836280   9.6771340
  50.4696150  59.1043560  10.2487570  49.2264550  59.9676510  10.2147710
  57.0195070  61.0907270   9.2106860  56.2540740  61.6592270   9.1261530
  57.2011030  60.7983480   8.3175090  64.1618420  62.8212600   9.7681880
  64.9027890  63.1588360   9.2649340  63.3991100  62.9904660   9.2151650
  51.9980210  57.8265870  10.5721410  52.0385550  57.5279740  11.4806640
  52.8525710  58.2273480  10.4128930  53.9386020  56.4057970   8.5395900
  53.4082480  55.9148920   7.9119240  54.6074090  56.8342170   8.0053830
  62.8364080  60.8727430   8.3037090  63.2505100  61.0272510   9.1527510
  61.9015080  60.9982650   8.4662870  63.3086250  58.2123590  10.3076240
  63.8907020  57.4575910  10.2196720  63.4848020  58.7431030   9.5307720
  54.4258320  53.3720340   8.6193190  54.3315190  52.7541090   7.8944060
  53.8455710  54.0986630   8.3923100  57.1919760  51.9293580   5.6520580
  56.7437060  51.9517840   4.8066130  56.5584960  51.5312600   6.2490880
  57.5979310  60.8247910   6.2733020  58.0167420  61.6680640   6.1009260
  56.6787940  60.9619950   6.0439800  59.9343210  58.5564090   7.6570860
  60.0539420  57.9605230   8.3965700  60.7937210  58.5933780   7.2372160
  62.2731110  59.1101280   6.2333370  61.7466330  59.6343900   5.6298510
  62.6162450  59.7428670   6.8643100  55.4486730  67.1300920   7.3890750
  54.9107820  67.8546980   7.0699450  55.7020690  66.6531260   6.5988090
  56.7011980  55.0985440   8.9146680  57.2911670  54.7901290   9.6024500
  55.8832220  54.6265190   9.0706580  61.5205410  54.7151250   9.1479700
  60.8320930  54.0532790   9.0829690  62.2411430  54.2689520   9.5928160
  58.3048940  68.3652130   7.6477400  58.2307640  69.2687270   7.9549770
  57.4027780  68.0464030   7.6199470  50.1966440  66.5597310   3.6892650
  49.7597430  66.7398110   4.5216800  50.7644120  67.3171930   3.5474370
  65.8328620  66.0614310   7.9769960  65.2330610  66.1206870   7.2333880
  65.9622520  65.1219290   8.1066810  64.5180260  62.7866290   6.0746120
  63.7040100  63.2163450   6.3371910  64.9254460  63.3984700   5.4615170
  51.0666800  59.4570110   4.5884870  51.4339840  59.3697510   5.4680890
  50.4977620  58.6936660   4.4891730  65.8670660  57.9254490   7.6015340
  65.6356750  57.6967240   6.7013290  66.1275210  58.8454040   7.5560230
  50.6182800  56.3679200   8.4943290  49.7238850  56.3345960   8.8337000
  51.1580350  56.5665990   9.2594540  64.3058730  53.1510920  10.3795040
  65.1828910  53.1594320  10.7629040  64.3179570  52.4141760   9.7687390
  65.9311720  57.0880330   4.7902610  64.9814430  57.0543870   4.9047600
  66.1124730  57.9980440   4.5552380  51.1222510  50.6427530   2.8426510
  51.7698700  50.0924910   2.4021670  51.5424350  50.8970680   3.6642320
  65.0174850  50.8368890   6.1996150  65.6547070  51.4503030   6.5655340
  65.1649740  50.8729550   5.2545380  50.8754510  50.7983200   5.5851830
  50.5269330  51.2547020   6.3510010  50.5442210  49.9040330   5.6674260
  52.4818880  63.9702800   9.7505020  52.4388510  63.5995710  10.6319480
  52.6129890  64.9080370   9.8906840  56.1824910  65.5262390   5.3514740
  55.9416270  65.7936950   4.4645260  57.1227550  65.6968120   5.4065600
  58.3879330  51.9895080   9.1071250  58.3268220  52.5816910   9.8566660
  59.3279710  51.8821040   8.9621510  61.0253890  51.6465140   8.7463540
  61.6394300  51.9644430   8.0844620  61.5703450  51.1613730   9.3659400
  67.4429070  67.5456770   6.1525380  66.9487350  67.9425640   5.4352510
  66.8342360  66.9205980   6.5462660  51.5475150  50.3259400   8.8602600
  52.0958140  50.1447450   8.0968710  51.6130460  49.5353510   9.3958910
  52.3206910  66.9165050   6.8702800  51.7267230  66.7849750   7.6092840
  52.3130750  66.0803190   6.4044900  61.7661930  50.2097280   5.0732830
  60.8921770  50.5432390   4.8705760  61.6572680  49.7370460   5.8984700
  62.6733910  52.4168150   6.4574550  62.3447270  51.6019910   6.0776280
  63.6216210  52.3737960   6.3340240  65.1268520  68.1880190   3.4312120
  64.6671490  68.9396000   3.0570140  64.4980980  67.4686660   3.3726920
  51.9519140  64.2823430   5.8210840  51.2253200  63.6628720   5.7536790
  52.0128290  64.6764040   4.9508920  55.5564240  66.4968430   2.6060250
  56.0729260  65.8855790   2.0808510  56.2061620  66.9997210   3.0971260
  58.2959740  67.3876920   3.4329230  58.5837550  67.1331220   2.5562240
  58.8082960  66.8354280   4.0234800  59.5136750  51.1267120   4.0125740
  58.7308540  51.6012620   4.2922500  59.2199680  50.2221950   3.9038920
  58.3632100  68.3093020  10.7997430  59.2899410  68.0737290  10.8433390
  58.3482530  69.1365020  10.3183460  55.5495710  50.9737770  10.5639310
  55.2679980  51.4771370   9.8000130  55.9315410  50.1759520  10.1981440
  62.1511170  50.3891350  11.1419780  62.0376620  50.7085960  12.0371300
  62.9680910  50.7903860  10.8457060  64.9309660  67.5362880  10.6238470
  65.7234980  67.0412110  10.4164430  65.2242810  68.2153020  11.2314080
  61.0569320  39.6340330 150.4745930  60.9763370  38.7194940 150.2037640
  60.6433740  40.1307400 149.7685640  63.2094790  45.8179540 151.1354330
  62.7476320  45.0466780 151.4641500  64.0220340  45.8445610 151.6406780
  51.6145140  36.6841050 147.0173350  50.7261840  37.0257020 146.9153230
  51.8986330  36.4841370 146.1254180  59.4358100  48.1037550 150.7558320
  58.8169540  48.5595050 150.1852760  60.2909880  48.2589010 150.3548020
  53.7906530  35.2672550 148.0511730  53.8973280  36.1676280 148.3580490
  52.8798890  35.2190520 147.7606380  63.4425640  34.3897360 149.5222630
  64.2635260  33.8993930 149.5648110  63.4759720  34.9795020 150.2754470
  60.3021450  42.9876790 148.1490230  59.6838720  43.4526240 147.5852950
  60.8144700  43.6804270 148.5659740  49.6704650  43.6733320 145.5229860
  49.2932630  44.1620420 144.7914760  49.9277720  44.3458600 146.1536390
  57.2793580  32.0749710 150.9815370  57.5868560  31.5196600 150.2650870
  56.3494280  32.2094170 150.7988360  64.1254060  44.5133220 148.3613000
  64.0150390  43.5707550 148.4862420  64.1222310  44.8748860 149.2475760
  59.6674340  40.1398540 147.7175490  58.7403620  40.0735920 147.9463960
  59.8199160  41.0778670 147.6030730  59.6543420  36.4115540 144.7142650
  58.7147090  36.5729500 144.7995110  59.9726680  37.1301220 144.1678640
  63.6971630  41.7018840 148.2210740  63.0784050  41.3638390 147.5737040
  63.6796080  41.0578600 148.9289930  55.2730980  40.6663280 150.4995220
  54.8687980  39.9540530 150.0041120  55.3594100  40.3216520 151.3883260
  61.8736330  40.9405650 145.2283490  62.3129610  40.1028080 145.0821310
  62.5864750  41.5735050 145.3147630  59.9831710  45.8801720 149.1964730
  60.4227620  46.6226050 148.7820120  59.9218600  46.1228290 150.1203690
  65.4553470  32.1948460 143.5424530  65.1426130  32.2875290 144.4423600
  66.2165940  32.7729490 143.4921960  51.9735610  39.5608260 148.0001870
  51.8533210  40.2870350 147.3883140  51.6636500  38.7911170 147.5229780
  50.8568610  44.4323590 150.2176690  50.4496690  44.5738180 149.3630290
  51.7481620  44.1483750 150.0147900  62.6501890  48.8670840 146.5527740
  62.4903030  48.5773780 147.4509570  62.4848600  48.0910970 146.0172970
  55.1290270  48.6469370 148.3299360  54.9532750  47.7304910 148.1167160
  54.2746010  49.0056660 148.5697160  62.3528020  46.3758400 145.1125740
  61.6593180  46.3735690 144.4528020  63.0950880  45.9517720 144.6819910
  61.9177950  48.0021110 149.1874230  62.3734900  47.2210490 149.5012850
  62.2570470  48.7127930 149.7315410  54.4399270  32.9043330 151.3825540
  53.9967420  33.6852870 151.0510060  54.9984260  33.2273220 152.0896480
  57.5558090  32.5254030 146.2631370  56.9312270  32.5213900 146.9884680
  57.4688210  31.6584990 145.8667340  54.2313490  38.0276900 149.1106790
  54.0054410  37.8114070 150.0153410  53.4506020  38.4605360 148.7652760
  61.4611250  38.0340270 147.7097440  60.8620140  38.7576070 147.5261060
  62.0090860  37.9717050 146.9273890  60.0676120  36.6703810 149.7400720
  60.4605690  36.9876010 148.9269410  60.4292970  35.7915690 149.8545240
  49.2910520  37.2024730 143.1733640  49.2085190  38.1455490 143.3148630
  48.9393580  37.0599640 142.2945990  57.0908650  35.9363760 152.2403990
  57.0944710  35.4953710 151.3908530  57.9859770  36.2581090 152.3475810
  52.9411030  35.8190250 151.1998200  52.6011080  36.2965480 151.9565250
  52.1788350  35.3655370 150.8399300  57.1528800  36.9375840 145.2310750
  57.2741620  36.8962320 146.1796570  56.7677310  37.7999990 145.0757480
  56.1650300  39.2476980 144.6294050  55.5967200  38.7995230 144.0029960
  56.8739300  39.6069760 144.0959200  50.2557110  34.7409230 150.1162870
  49.9704030  34.3764900 150.9541490  50.1935970  34.0089690 149.5026010
  53.7097780  43.2435170 146.9020460  52.9360040  42.7032790 146.7419180
  54.4392410  42.7241780 146.5638220  59.9295700  33.6338490 146.8376240
  59.1160310  33.1351660 146.7621550  59.7357650  34.4736740 146.4212590
  62.6444090  38.0058140 145.1338400  63.5323710  38.3175370 144.9589740
  62.6149180  37.1330390 144.7418980  53.7535180  42.9115550 150.5399270
  54.2713850  42.1083810 150.4856160  53.3019200  42.8494690 151.3816100
  58.6404680  44.1781830 145.8126570  58.9820380  44.9224060 145.3169890
  57.8117390  44.4912950 146.1751400  64.9158360  39.3169980 144.6018260
  64.8322080  39.7484200 143.7514700  65.6352550  39.7768330 145.0345080
  65.9445610  46.1712240 147.3300390  65.3021770  45.5167860 147.6044110
  65.5576270  46.5767330 146.5541060  61.5232090  43.4997670 151.1772080
  61.8755910  42.9025800 150.5173450  60.6394420  43.1741900 151.3480330
  57.6095370  44.2595360 148.5842490  58.2966500  44.8064570 148.9650080
  56.8227790  44.8036090 148.6192100  49.7487770  39.8768180 144.0759570
  50.6182620  40.1592980 144.3595490  49.2578090  40.6904050 143.9608380
  56.9122580  41.2641390 148.1967850  57.3685360  42.0746640 148.4228040
  56.5610790  40.9464530 149.0286340  52.8134360  31.6079040 148.6690370
  52.6848990  31.5996940 149.6175290  51.9896380  31.9462130 148.3181380
  64.3342990  45.0628700 143.8676740  64.1080570  44.3459140 144.4601380
  63.9439190  44.8141140 143.0298490  50.1159020  49.0895560 144.6421200
  50.4756660  49.6884900 143.9878470  49.9751360  49.6355450 145.4156230
  63.9159240  42.9800640 145.5290900  63.6280940  43.4413330 146.3168780
  64.7111410  42.5198410 145.7975120  56.1327640  46.4726760 145.4594870
  56.1237740  47.2056450 144.8439380  55.2126000  46.2258340 145.5521830
  51.7334280  41.6941650 146.2041630  51.1262230  42.4340550 146.2136930
  52.2083630  41.7841010 145.3779830  64.6729100  34.8149410 146.6886080
  64.0442260  34.9195080 145.9744310  64.1781020  35.0346190 147.4779960
  59.1187240  46.5355000 144.1220060  59.2199220  46.3318990 143.1922040
  58.2188980  46.2813280 144.3267840  56.6413130  37.0935360 148.1043960
  55.9329280  37.5621700 148.5457570  56.9257610  36.4357370 148.7389150
  60.6728560  33.8186020 149.5439750  60.5496340  33.8372150 148.5949260
  61.6213120  33.8664960 149.6638150  57.7605350  49.0541320 148.8167730
  58.0146850  49.0162710 147.8947100  56.8117830  48.9274650 148.8095980
  54.8448150  35.4020440 145.4794670  55.6938680  35.8390590 145.4134860
  54.4779420  35.7140700 146.3066730  63.7657930  39.9733200 150.3926240
  62.8248070  39.9883430 150.5673930  64.0802000  39.1869160 150.8386540
  53.7439570  41.6552800 143.9530200  54.5102840  41.5434160 144.5155630
  53.8214260  40.9590770 143.3006970  52.4386330  39.0877870 144.6363090
  52.5189920  38.1405380 144.7480490  53.3306080  39.4184750 144.7423750
  53.2401040  49.2373260 151.7397630  53.9763520  48.6888720 152.0106200
  53.6241960  50.1029270 151.6003620  50.1246520  45.3046830 147.6139140
  49.1986300  45.5467970 147.6044550  50.5902950  46.1321090 147.4923890
  56.3503350  48.4103570 143.5623200  57.1431960  48.6992400 143.1104990
  55.8307700  47.9795740 142.8835680  65.4033520  47.6373700 144.9859940
  65.1175030  47.2238840 144.1714120  65.2053070  48.5661410 144.8660460
  56.8680750  43.6306980 143.4265550  56.7631390  43.0159330 144.1526930
  56.7004970  43.1072870 142.6428560  60.1083480  42.6927010 144.0307540
  59.5593580  43.1396310 144.6750280  60.7302740  42.1876260 144.5545210
  55.7758600  41.6517930 145.9272840  56.1975020  41.4857800 146.7704230
  55.9009440  40.8418160 145.4327980  58.2886240  40.6755540 143.1749940
  58.8091900  39.9604560 142.8091090  58.9354640  41.3141410 143.4750450
  54.6717500  37.7251160 142.8731000  54.4706560  36.8618520 143.2344340
  54.5009550  37.6384520 141.9352600  62.1505810  32.5359390 145.4017880
  62.4308100  31.6927290 145.7577300  61.3771540  32.7682500 145.9156630
  53.4700300  34.8251780 142.8608880  53.7726200  34.8319210 141.9528030
  54.2094890  34.4749640 143.3576540  56.6885230  33.7686400 143.8465080
  56.3407230  33.0910390 143.2667530  56.8898000  33.3075910 144.6608470
  58.8534270  48.7567150 145.4651680  59.7485060  49.0952120 145.4870440
  58.8851900  48.0346560 144.8375960  52.4930430  44.1294200 143.6938680
  52.9305300  44.6723870 144.3496260  52.9778160  43.3041150 143.7035020
  49.7076230  46.9183230 151.1458940  50.0379240  46.0504290 150.9137580
  50.1367230  47.1241750 151.9763900  54.3038150  45.2492240 148.8060910
  54.0033690  45.1257210 149.7064820  54.1975640  44.3900830 148.3976640
  67.0730070  45.0288640 143.5087590  66.2423030  45.0965290 143.9794820
  67.2501900  45.9192760 143.2054450  66.5286530  41.7736120 146.0121790
  67.2905440  42.3432770 146.1181480  66.5440900  41.2063320 146.7830100
  50.0290870  40.2974050 150.2429450  49.3739710  40.0285690 149.5989150
  50.8668820  40.1878530 149.7931430  67.5346500  42.6286220 150.8563720
  67.9055330  41.8453540 150.4499690  68.1748430  43.3175320 150.6781020
  66.5805700  42.0670490 143.1694310  66.8554540  42.9749370 143.0413530
  66.3916440  42.0033020 144.1056300  62.9781310  35.0915340 144.4647940
  63.3966190  34.9046320 143.6244600  62.6717370  34.2394390 144.7750870
  66.4771040  40.0039480 148.1623740  66.1014640  39.2367410 147.7305030
  65.7474160  40.3862180 148.6498670  49.2428950  37.5072980 146.1854780
  48.3393030  37.7703180 146.0106440  49.7269570  37.7784150 145.4054740
  65.7522000  38.2296970 151.4630980  66.2759480  37.7359620 150.8321150
  66.3381420  38.3647330 152.2078550  51.7856160  36.5638520 144.0949160
  52.4947860  36.1421740 143.6096440  51.0696100  36.6313750 143.4632510
  51.4330320  32.6177850 143.1351810  52.1558450  33.1586790 143.4533030
  51.7054840  32.3441270 142.2593350  65.2421970  37.4870320 147.4023390
  65.7381090  37.2541190 148.1872270  65.0438040  36.6482160 146.9861030
  66.6709130  36.1231270 149.9361070  66.5608410  35.9687310 150.8743340
  67.4316720  35.5952210 149.6936480  67.5599400  33.9539190 143.1767210
  68.4848710  33.8220370 142.9685500  67.5375190  34.0332010 144.1303660
  67.6337890  34.7249850 145.8023920  66.8389390  34.6594970 146.3316830
  67.8381170  35.6600490 145.7909270  64.5756310  48.7641400 149.7962310
  65.1715380  48.4425970 149.1196730  64.8334460  48.2913220 150.5875580
  64.0657820  33.0546730 152.2522750  64.5065910  32.9991830 151.4044350
  63.7965410  33.9704740 152.3232930  65.9296390  32.6861970 150.2631570
  65.8684790  31.7423190 150.1162590  66.7088420  32.7942060 150.8085030
  50.2349140  48.8254330 149.2255520  50.0671180  48.1925010 149.9237410
  49.3683650  49.0313730 148.8749710  50.8577160  32.6571110 146.7287380
  51.6156520  32.7699990 146.1551410  50.3954330  33.4940310 146.6830810
  57.3990970  34.7710380 149.7189690  56.5865480  34.3967270 149.3785570
  57.9032610  34.0155460 150.0210880  61.9015950  31.4352830 150.9572760
  62.5045320  32.0073040 151.4321280  61.1608940  31.9992270 150.7346660
  65.0450550  31.8374390 146.2313040  65.2401180  32.7357840 146.4980470
  64.2580420  31.6061470 146.7245990  51.8411840  47.5187560 146.6705660
  51.3159460  47.8995590 145.9667620  51.7656420  48.1438330 147.3915370
  53.2302310  33.1835160 145.2689350  53.7595070  32.3964960 145.1397300
  53.8630630  33.8626350 145.5024880  55.4240150  32.9210300 148.3234740
  54.7942890  32.2197610 148.4904870  54.8845290  33.6814430 148.1067900
  66.5977160  49.0775100 147.9919600  66.7729350  48.3912840 147.3480520
  65.8998730  49.6022150 147.5996270  54.4404810  49.4669940 145.5454910
  55.1723630  49.1829220 144.9978800  54.6998480  49.2283220 146.4354290
  53.6019600  45.5834670 145.5501240  52.9728480  46.0519770 146.0987070
  53.7167430  44.7383890 145.9847430  61.0569320  39.6340330 131.7002440
  60.9763370  38.7194940 131.4294150  60.6433740  40.1307400 130.9942150
  59.1887360  41.4119350 133.5811710  58.4129460  40.9319790 133.8710280
  59.8400290  40.7325000 133.4067870  53.2053190  41.7239160 134.4587470
  52.3738070  41.4687870 134.8583980  53.8134170  41.7949930 135.1945390
  63.2094790  45.8179540 132.3610840  62.7476320  45.0466780 132.6898010
  64.0220340  45.8445610 132.8663290  53.1854450  45.7579250 134.6545490
  53.4882490  44.8676990 134.4755710  53.9298040  46.3149470 134.4267740
  51.6145140  36.6841050 128.2429860  50.7261840  37.0257020 128.1409740
  51.8986330  36.4841370 127.3510690  49.5778150  39.2846700 134.1269560
  50.1494260  38.5168900 134.1273200  49.5779690  39.5835460 133.2176170
  59.4358100  48.1037550 131.9814830  58.8169540  48.5595050 131.4109270
  60.2909880  48.2589010 131.5804530  58.6296350  44.0876540 133.5881870
  58.5604630  43.1466480 133.4271000  59.3916210  44.1777950 134.1604440
  50.8203020  34.6931060 135.9138490  50.6405860  33.7956810 136.1941250
  50.4183100  35.2402930 136.5885440  59.6601520  36.8946920 133.8150800
  60.0366340  36.0218800 133.7024470  59.5621030  37.2305620 132.9241240
  53.7906530  35.2672550 129.2768240  53.8973280  36.1676280 129.5837000
  52.8798890  35.2190520 128.9862890  63.4425640  34.3897360 130.7479140
  64.2635260  33.8993930 130.7904620  63.4759720  34.9795020 131.5010980
  51.4389690  37.1891560 134.5220830  52.1199800  37.4529930 135.1408230
  51.1237740  36.3492430 134.8558840  55.6314260  38.2358920 133.6093420
  56.1392480  38.7339890 134.2498440  56.1627500  37.4594120 133.4332780
  67.7325190  36.4064110 137.3122770  67.0277360  36.7945820 136.7937880
  67.9983110  37.1014400 137.9143700  53.9150360  32.8757480 137.8756840
  53.9168800  33.3929870 137.0702740  53.0854670  32.3987660 137.8526770
  60.3021450  42.9876790 129.3746740  59.6838720  43.4526240 128.8109460
  60.8144700  43.6804270 129.7916250  55.1653210  42.5152660 136.0530340
  54.8322590  43.1421580 136.6951410  55.3419890  43.0414540 135.2732010
  63.6787120  36.3297740 133.5206680  62.9742690  36.6182630 134.1009790
  64.0399280  37.1397850 133.1606240  53.5965690  34.5867440 135.8827290
  53.9382500  35.4309490 135.5881160  52.6581500  34.7351180 135.9992630
  54.3772310  44.4833460 137.8679520  54.9946310  45.1584540 137.5863970
  53.5165430  44.8921440 137.7767020  49.6704650  43.6733320 126.7486370
  49.2932630  44.1620420 126.0171270  49.9277720  44.3458600 127.3792900
  65.2949900  45.9472870 135.7834160  64.6113420  46.6171980 135.7750830
  65.8344190  46.1453520 135.0179020  66.7474040  35.7752530 133.9115890
  65.7998950  35.8091510 134.0431320  67.0724030  36.5891480 134.2965250
  57.2793580  32.0749710 132.2071880  57.5868560  31.5196600 131.4907380
  56.3494280  32.2094170 132.0244870  62.8308640  47.7917000 134.4979340
  62.8435800  47.3879290 133.6301600  62.2783860  48.5664290 134.3940770
  64.1254060  44.5133220 129.5869510  64.0150390  43.5707550 129.7118930
  64.1222310  44.8748860 130.4732270  62.2294080  42.6946840 135.8261950
  62.6462870  42.4806950 134.9915410  62.9533900  42.9519630 136.3970570
  59.6674340  40.1398540 128.9432000  58.7403620  40.0735920 129.1720470
  59.8199160  41.0778670 128.8287240  59.6543420  36.4115540 125.9399160
  58.7147090  36.5729500 126.0251620  59.9726680  37.1301220 125.3935150
  66.1756180  41.0934060 135.9178190  65.3474810  41.1627150 135.4428320
  66.7706660  41.6788370 135.4494020  63.1398190  37.8803380 136.8633060
  62.7269370  38.7057090 137.1173050  62.4074140  37.2948420 136.6709420
  55.2730980  40.6663280 131.7251730  54.8687980  39.9540530 131.2297630
  55.3594100  40.3216520 132.6139770  55.7412680  44.3530840 133.8890940
  55.4440970  43.7476310 133.2098720  56.6912500  44.3908150 133.7780300
  53.9859600  37.4406490 135.5050770  54.5374190  37.5501830 134.7304020
  54.5003110  37.8144090 136.2206000  63.8298290  47.9262710 137.5514040
  63.3528850  48.7334900 137.3586650  63.1460080  47.2741040 137.7040250
  54.8331110  44.0912530 140.5398740  53.9359640  44.3152500 140.7872140
  54.8583980  44.2147470 139.5910140  61.8736330  40.9405650 126.4540000
  62.3129610  40.1028080 126.3077820  62.5864750  41.5735050 126.5404140
  53.6602330  40.9625850 139.1156110  53.5210100  41.8348650 139.4843510
  52.7783690  40.6198660 138.9704050  59.9831710  45.8801720 130.4221240
  60.4227620  46.6226050 130.0076630  59.9218600  46.1228290 131.3460200
  55.4582680  46.9047550 141.3241260  55.4298110  47.3090500 140.4569690
  55.2947650  45.9757910 141.1612860  65.4553470  32.1948460 124.7681040
  65.1426130  32.2875290 125.6680110  66.2165940  32.7729490 124.7178470
  51.9735610  39.5608260 129.2258380  51.8533210  40.2870350 128.6139650
  51.6636500  38.7911170 128.7486290  67.4097500  47.6874650 142.6205430
  67.8857220  48.1657540 143.2994510  68.0304660  47.6192140 141.8950930
  49.6120980  42.7323400 135.0327020  49.6901400  42.8672170 134.0882740
  50.2262660  42.0239290 135.2255140  50.8568610  44.4323590 131.4433200
  50.4496690  44.5738180 130.5886800  51.7481620  44.1483750 131.2404410
  66.8130750  44.8787500 139.7805440  66.9393810  44.6399380 138.8622620
  66.8552130  44.0472040 140.2527520  60.6747490  48.5815500 138.3500250
  61.1892160  48.4923510 139.1522680  59.8316570  48.9275200 138.6428160
  55.1290270  48.6469370 129.5555870  54.9532750  47.7304910 129.3423670
  54.2746010  49.0056660 129.7953670  62.3528020  46.3758400 126.3382250
  61.6593180  46.3735690 125.6784530  63.0950880  45.9517720 125.9076420
  61.9177950  48.0021110 130.4130740  62.3734900  47.2210490 130.7269360
  62.2570470  48.7127930 130.9571920  66.6654760  36.9319960 140.7455180
  66.0499030  37.4399630 140.2170640  66.3451180  36.0318290 140.6881120
  49.6680500  43.7737570 137.5721480  49.8311540  43.3042930 136.7540850
  50.1332950  43.2661130 138.2370320  54.4399270  32.9043330 132.6082050
  53.9967420  33.6852870 132.2766570  54.9984260  33.2273220 133.3152990
  58.7269080  35.7711850 138.2117370  58.2648450  35.9794870 139.0237310
  58.3247190  34.9571200 137.9088040  63.7273590  36.9920800 139.3414030
  62.8767180  36.6926550 139.6623100  63.5675380  37.2362810 138.4297850
  60.8223300  38.4922550 141.4412820  61.1476710  37.6586300 141.1015050
  61.6103630  39.0151070 141.5891150  57.5558090  32.5254030 127.4887880
  56.9312270  32.5213900 128.2141190  57.4688210  31.6584990 127.0923850
  56.4775170  33.4490660 134.4671650  56.7747500  34.3553490 134.3863670
  57.0260730  32.9609440 133.8531220  54.2313490  38.0276900 130.3363300
  54.0054410  37.8114070 131.2409920  53.4506020  38.4605360 129.9909270
  61.4611250  38.0340270 128.9353950  60.8620140  38.7576070 128.7517570
  62.0090860  37.9717050 128.1530400  56.6712700  38.9262480 141.0023570
  56.5756300  37.9857210 140.8523970  57.5144680  39.1477550 140.6071640
  60.0676120  36.6703810 130.9657230  60.4605690  36.9876010 130.1525920
  60.4292970  35.7915690 131.0801750  51.8023240  35.3376150 139.1557350
  51.4086630  36.1851360 139.3630130  51.1141640  34.7002520 139.3465990
  58.3768290  35.4211120 142.2254090  57.6866610  35.2283320 142.8600180
  59.1200590  35.7045760 142.7578390  49.1040290  33.2604610 133.1887430
  48.8153340  33.8307470 133.9012410  49.8486050  32.7809060 133.5518660
  49.2910520  37.2024730 124.3990150  49.2085190  38.1455490 124.5405140
  48.9393580  37.0599640 123.5202500  60.6531260  39.2609560 135.0608010
  59.9212380  39.7696370 135.4098110  60.2555600  38.4439540 134.7596790
  57.0908650  35.9363760 133.4660500  57.0944710  35.4953710 132.6165040
  57.9859770  36.2581090 133.5732320  52.9411030  35.8190250 132.4254710
  52.6011080  36.2965480 133.1821760  52.1788350  35.3655370 132.0655810
  57.1528800  36.9375840 126.4567260  57.2741620  36.8962320 127.4053080
  56.7677310  37.7999990 126.3013990  61.1157170  34.7143240 134.4730950
  61.1329910  35.1651890 135.3172800  60.8672750  33.8148880 134.6864390
  56.1650300  39.2476980 125.8550560  55.5967200  38.7995230 125.2286470
  56.8739300  39.6069760 125.3215710  64.5427920  32.1275420 140.3117330
  64.8673690  31.3965080 140.8375310  64.5784430  31.8089060 139.4098320
  51.2419480  43.1489000 139.7317290  50.8574270  42.5082670 140.3300250
  51.5531670  43.8525120 140.3012020  57.3916620  39.9965540 135.2125910
  57.7586750  39.5224110 135.9587250  57.2021680  40.8707110 135.5534250
  50.2557110  34.7409230 131.3419380  49.9704030  34.3764900 132.1798000
  50.1935970  34.0089690 130.7282520  55.1815990  39.0374180 137.5310120
  54.8773060  39.9166160 137.7560480  56.1362450  39.0973970 137.5667560
  53.7097780  43.2435170 128.1276970  52.9360040  42.7032790 127.9675690
  54.4392410  42.7241780 127.7894730  64.4685760  42.2400530 133.9203360
  65.1884880  42.7355820 133.5299470  64.2667580  41.5618420 133.2757230
  59.9295700  33.6338490 128.0632750  59.1160310  33.1351660 127.9878060
  59.7357650  34.4736740 127.6469100  59.8504560  42.3109590 139.8072360
  59.7841870  41.3905260 139.5529950  59.2209700  42.4085030 140.5217000
  62.6444090  38.0058140 126.3594910  63.5323710  38.3175370 126.1846250
  62.6149180  37.1330390 125.9675490  53.7535180  42.9115550 131.7655780
  54.2713850  42.1083810 131.7112670  53.3019200  42.8494690 132.6072610
  58.6404680  44.1781830 127.0383080  58.9820380  44.9224060 126.5426400
  57.8117390  44.4912950 127.4007910  51.2379720  39.8776920 138.6781480
  50.8794660  40.5430770 139.2654820  50.9434280  39.0460470 139.0494100
  54.4392840  40.3361160 141.5621030  54.1392980  40.4818340 140.6648850
  55.2104080  39.7766450 141.4694420  59.7821290  45.1330160 139.5576160
  59.7965830  44.2011120 139.3395070  59.0746390  45.2189920 140.1965930
  65.9932500  41.7737500 138.9044740  65.2680690  42.3666280 138.7074130
  66.5207960  41.7661040 138.1058110  61.5232090  43.4997670 132.4028590
  61.8755910  42.9025800 131.7429960  60.6394420  43.1741900 132.5736840
  57.6095370  44.2595360 129.8099000  58.2966500  44.8064570 130.1906590
  56.8227790  44.8036090 129.8448610  49.7487770  39.8768180 125.3016080
  50.6182620  40.1592980 125.5852000  49.2578090  40.6904050 125.1864890
  56.9122580  41.2641390 129.4224360  57.3685360  42.0746640 129.6484550
  56.5610790  40.9464530 130.2542850  59.2155190  46.7747730 136.6516660
  59.8597410  46.9807110 137.3290080  59.5784630  46.0136130 136.1987510
  52.8134360  31.6079040 129.8946880  52.6848990  31.5996940 130.8431800
  51.9896380  31.9462130 129.5437890  60.4887270  44.7780080 135.3694110
  61.1309500  44.0773240 135.4826280  61.0136620  45.5578520 135.1891000
  64.3342990  45.0628700 125.0933250  64.1080570  44.3459140 125.6857890
  63.9439190  44.8141140 124.2555000  62.2624890  45.5774980 138.5730170
  62.5981130  46.1641670 139.2508090  61.3425230  45.4467690 138.8027960
  50.1159020  49.0895560 125.8677710  50.4756660  49.6884900 125.2134980
  49.9751360  49.6355450 126.6412740  49.8128290  33.3670160 139.3553580
  49.0986810  33.5667080 139.9606190  50.2323330  32.5909730 139.7268380
  50.1000880  47.3550420 140.3420110  50.2092000  46.4145160 140.2015500
  49.4481440  47.6205170 139.6933840  58.0913470  45.6266310 141.7418230
  57.7710340  44.9075550 142.2863920  57.4171830  46.3021380 141.8154290
  51.7334280  41.6941650 127.4298140  51.1262230  42.4340550 127.4393440
  52.2083630  41.7841010 126.6036340  61.3067070  35.8592470 137.1055030
  61.6747890  35.0387680 137.4334600  60.4465270  35.9194360 137.5210680
  64.6729100  34.8149410 127.9142590  64.0442260  34.9195080 127.2000820
  64.1781020  35.0346190 128.7036470  56.6413130  37.0935360 129.3300470
  55.9329280  37.5621700 129.7714080  56.9257610  36.4357370 129.9645660
  58.2669060  38.5132060 137.3293000  58.7654310  38.9877880 137.9944850
  58.4092010  37.5895580 137.5363030  60.6728560  33.8186020 130.7696260
  60.5496340  33.8372150 129.8205770  61.6213120  33.8664960 130.8894660
  57.7605350  49.0541320 130.0424240  58.0146850  49.0162710 129.1203610
  56.8117830  48.9274650 130.0352490  54.8448150  35.4020440 126.7051180
  55.6938680  35.8390590 126.6391370  54.4779420  35.7140700 127.5323240
  65.4735920  34.7300020 138.1721390  64.9709520  35.4705420 138.5115200
  66.2892580  35.1184020 137.8558180  63.7657930  39.9733200 131.6182750
  62.8248070  39.9883430 131.7930440  64.0802000  39.1869160 132.0643050
  52.4386330  39.0877870 125.8619600  52.5189920  38.1405380 125.9737000
  53.3306080  39.4184750 125.9680260  53.2401040  49.2373260 132.9654140
  53.9763520  48.6888720 133.2362710  53.6241960  50.1029270 132.8260130
  50.1246520  45.3046830 128.8395650  49.1986300  45.5467970 128.8301060
  50.5902950  46.1321090 128.7180400  52.2459320  48.4219330 142.1539720
  53.0472050  48.7431380 142.5675120  51.7311140  48.0614910 142.8759630
  61.0823950  44.5299200 142.1015130  60.4762110  44.5530800 141.3610880
  60.7778060  43.7982240 142.6382380  62.5124320  48.2579490 140.7124540
  63.4646070  48.1737510 140.6624780  62.3652540  48.9221200 141.3858330
  65.4033520  47.6373700 126.2116450  65.1175030  47.2238840 125.3970630
  65.2053070  48.5661410 126.0916970  49.9657130  40.9092790 141.0975770
  50.4696150  40.3300070 141.6692000  49.2264550  41.1933020 141.6352140
  57.0195070  42.3163780 140.6311290  56.2540740  42.8848780 140.5465960
  57.2011030  42.0239990 139.7379520  60.1083480  42.6927010 125.2564050
  59.5593580  43.1396310 125.9006790  60.7302740  42.1876260 125.7801720
  64.1618420  44.0469110 141.1886310  64.9027890  44.3844870 140.6853770
  63.3991100  44.2161170 140.6356080  51.9980210  39.0522380 141.9925840
  52.0385550  38.7536250 142.9011070  52.8525710  39.4529990 141.8333360
  55.7758600  41.6517930 127.1529350  56.1975020  41.4857800 127.9960740
  55.9009440  40.8418160 126.6584490  53.9386020  37.6314480 139.9600330
  53.4082480  37.1405430 139.3323670  54.6074090  38.0598680 139.4258260
  62.8364080  42.0983940 139.7241520  63.2505100  42.2529020 140.5731940
  61.9015080  42.2239160 139.8867300  63.3086250  39.4380100 141.7280670
  63.8907020  38.6832420 141.6401150  63.4848020  39.9687540 140.9512150
  54.4258320  34.5976850 140.0397620  54.3315190  33.9797600 139.3148490
  53.8455710  35.3243140 139.8127530  57.1919760  33.1550090 137.0725010
  56.7437060  33.1774350 136.2270560  56.5584960  32.7569110 137.6695310
  57.5979310  42.0504420 137.6937450  58.0167420  42.8937150 137.5213690
  56.6787940  42.1876460 137.4644230  59.9343210  39.7820600 139.0775290
  60.0539420  39.1861740 139.8170130  60.7937210  39.8190290 138.6576590
  62.2731110  40.3357790 137.6537800  61.7466330  40.8600410 137.0502940
  62.6162450  40.9685180 138.2847530  54.6717500  37.7251160 124.0987510
  54.4706560  36.8618520 124.4600850  54.5009550  37.6384520 123.1609110
  55.4486730  48.3557430 138.8095180  54.9107820  49.0803490 138.4903880
  55.7020690  47.8787770 138.0192520  56.7011980  36.3241950 140.3351110
  57.2911670  36.0157800 141.0228930  55.8832220  35.8521700 140.4911010
  61.5205410  35.9407760 140.5684130  60.8320930  35.2789300 140.5034120
  62.2411430  35.4946030 141.0132590  62.1505810  32.5359390 126.6274390
  62.4308100  31.6927290 126.9833810  61.3771540  32.7682500 127.1413140
  53.4700300  34.8251780 124.0865390  53.7726200  34.8319210 123.1784540
  54.2094890  34.4749640 124.5833050  58.3048940  49.5908640 139.0681830
  58.2307640  50.4943780 139.3754200  57.4027780  49.2720540 139.0403900
  56.6885230  33.7686400 125.0721590  56.3407230  33.0910390 124.4924040
  56.8898000  33.3075910 125.8864980  49.7076230  46.9183230 132.3715450
  50.0379240  46.0504290 132.1394090  50.1367230  47.1241750 133.2020410
  54.3038150  45.2492240 130.0317420  54.0033690  45.1257210 130.9321330
  54.1975640  44.3900830 129.6233150  50.1966440  47.7853820 135.1097080
  49.7597430  47.9654620 135.9421230  50.7644120  48.5428440 134.9678800
  65.8328620  47.2870820 139.3974390  65.2330610  47.3463380 138.6538310
  65.9622520  46.3475800 139.5271240  50.0290870  40.2974050 131.4685960
  49.3739710  40.0285690 130.8245660  50.8668820  40.1878530 131.0187940
  64.5180260  44.0122800 137.4950550  63.7040100  44.4419960 137.7576340
  64.9254460  44.6241210 136.8819600  51.0666800  40.6826620 136.0089300
  51.4339840  40.5954020 136.8885320  50.4977620  39.9193170 135.9096160
  65.8670660  39.1511000 139.0219770  65.6356750  38.9223750 138.1217720
  66.1275210  40.0710550 138.9764660  50.6182800  37.5935710 139.9147720
  49.7238850  37.5602470 140.2541430  51.1580350  37.7922500 140.6798970
  64.3058730  34.3767430 141.7999470  65.1828910  34.3850830 142.1833470
  64.3179570  33.6398270 141.1891820  49.2428950  37.5072980 127.4111290
  48.3393030  37.7703180 127.2362950  49.7269570  37.7784150 126.6311250
  65.7522000  38.2296970 132.6887490  66.2759480  37.7359620 132.0577660
  66.3381420  38.3647330 133.4335060  65.9311720  38.3136840 136.2107040
  64.9814430  38.2800380 136.3252030  66.1124730  39.2236950 135.9756810
  51.7856160  36.5638520 125.3205670  52.4947860  36.1421740 124.8352950
  51.0696100  36.6313750 124.6889020  51.4330320  32.6177850 124.3608320
  52.1558450  33.1586790 124.6789540  51.7054840  32.3441270 123.4849860
  65.2421970  37.4870320 128.6279900  65.7381090  37.2541190 129.4128780
  65.0438040  36.6482160 128.2117540  51.1222510  31.8684040 134.2630940
  51.7698700  31.3181420 133.8226100  51.5424350  32.1227190 135.0846750
  66.6709130  36.1231270 131.1617580  66.5608410  35.9687310 132.0999850
  67.4316720  35.5952210 130.9192990  65.0174850  32.0625400 137.6200580
  65.6547070  32.6759540 137.9859770  65.1649740  32.0986060 136.6749810
  67.6337890  34.7249850 127.0280430  66.8389390  34.6594970 127.5573340
  67.8381170  35.6600490 127.0165780  64.5756310  48.7641400 131.0218820
  65.1715380  48.4425970 130.3453240  64.8334460  48.2913220 131.8132090
  50.8754510  32.0239710 137.0056260  50.5269330  32.4803530 137.7714440
  50.5442210  31.1296840 137.0878690  52.4818880  45.1959310 141.1709450
  52.4388510  44.8252220 142.0523910  52.6129890  46.1336880 141.3111270
  56.1824910  46.7518900 136.7719170  55.9416270  47.0193460 135.8849690
  57.1227550  46.9224630 136.8270030  58.3879330  33.2151590 140.5275680
  58.3268220  33.8073420 141.2771090  59.3279710  33.1077550 140.3825940
  61.0253890  32.8721650 140.1667970  61.6394300  33.1900940 139.5049050
  61.5703450  32.3870240 140.7863830  67.4429070  48.7713280 137.5729810
  66.9487350  49.1682150 136.8556940  66.8342360  48.1462490 137.9667090
  51.5475150  31.5515910 140.2807030  52.0958140  31.3703960 139.5173140
  51.6130460  30.7610020 140.8163340  52.3206910  48.1421560 138.2907230
  51.7267230  48.0106260 139.0297270  52.3130750  47.3059700 137.8249330
  61.7661930  31.4353790 136.4937260  60.8921770  31.7688900 136.2910190
  61.6572680  30.9626970 137.3189130  62.6733910  33.6424660 137.8778980
  62.3447270  32.8276420 137.4980710  63.6216210  33.5994470 137.7544670
  65.1268520  49.4136700 134.8516550  64.6671490  50.1652510 134.4774570
  64.4980980  48.6943170 134.7931350  51.9519140  45.5079940 137.2415270
  51.2253200  44.8885230 137.1741220  52.0128290  45.9020550 136.3713350
  55.5564240  47.7224940 134.0264680  56.0729260  47.1112300 133.5012940
  56.2061620  48.2253720 134.5175690  58.2959740  48.6133430 134.8533660
  58.5837550  48.3587730 133.9766670  58.8082960  48.0610790 135.4439230
  59.5136750  32.3523630 135.4330170  58.7308540  32.8269130 135.7126930
  59.2199680  31.4478460 135.3243350  64.0657820  33.0546730 133.4779260
  64.5065910  32.9991830 132.6300860  63.7965410  33.9704740 133.5489440
  65.9296390  32.6861970 131.4888080  65.8684790  31.7423190 131.3419100
  66.7088420  32.7942060 132.0341540  50.2349140  48.8254330 130.4512030
  50.0671180  48.1925010 131.1493920  49.3683650  49.0313730 130.1006220
  50.8577160  32.6571110 127.9543890  51.6156520  32.7699990 127.3807920
  50.3954330  33.4940310 127.9087320  57.3990970  34.7710380 130.9446200
  56.5865480  34.3967270 130.6042080  57.9032610  34.0155460 131.2467390
  61.9015950  31.4352830 132.1829270  62.5045320  32.0073040 132.6577790
  61.1608940  31.9992270 131.9603170  65.0450550  31.8374390 127.4569550
  65.2401180  32.7357840 127.7236980  64.2580420  31.6061470 127.9502500
  51.8411840  47.5187560 127.8962170  51.3159460  47.8995590 127.1924130
  51.7656420  48.1438330 128.6171880  53.2302310  33.1835160 126.4945860
  53.7595070  32.3964960 126.3653810  53.8630630  33.8626350 126.7281390
  55.4240150  32.9210300 129.5491250  54.7942890  32.2197610 129.7161380
  54.8845290  33.6814430 129.3324410  58.3632100  49.5349530 142.2201860
  59.2899410  49.2993800 142.2637820  58.3482530  50.3621530 141.7387890
  55.5495710  32.1994280 141.9843740  55.2679980  32.7027880 141.2204560
  55.9315410  31.4016030 141.6185870  62.1511170  31.6147860 142.5624210
  62.0376620  31.9342470 143.4575730  62.9680910  32.0160370 142.2661490
  64.9309660  48.7619390 142.0442900  65.7234980  48.2668620 141.8368860
  65.2242810  49.4409530 142.6518510  61.0569320  39.6340330 112.9258950
  60.9763370  38.7194940 112.6550660  60.6433740  40.1307400 112.2198660
  59.1887360  41.4119350 114.8068220  58.4129460  40.9319790 115.0966790
  59.8400290  40.7325000 114.6324380  53.2053190  41.7239160 115.6843980
  52.3738070  41.4687870 116.0840490  53.8134170  41.7949930 116.4201900
  63.2094790  45.8179540 113.5867350  62.7476320  45.0466780 113.9154520
  64.0220340  45.8445610 114.0919800  51.6145140  36.6841050 109.4686370
  50.7261840  37.0257020 109.3666250  51.8986330  36.4841370 108.5767200
  49.5778150  39.2846700 115.3526070  50.1494260  38.5168900 115.3529710
  49.5779690  39.5835460 114.4432680  50.8203020  34.6931060 117.1395000
  50.6405860  33.7956810 117.4197760  50.4183100  35.2402930 117.8141950
  59.6601520  36.8946920 115.0407310  60.0366340  36.0218800 114.9280980
  59.5621030  37.2305620 114.1497750  53.7906530  35.2672550 110.5024750
  53.8973280  36.1676280 110.8093510  52.8798890  35.2190520 110.2119400
  63.4425640  34.3897360 111.9735650  64.2635260  33.8993930 112.0161130
  63.4759720  34.9795020 112.7267490  51.4389690  37.1891560 115.7477340
  52.1199800  37.4529930 116.3664740  51.1237740  36.3492430 116.0815350
  55.6314260  38.2358920 114.8349930  56.1392480  38.7339890 115.4754950
  56.1627500  37.4594120 114.6589290  53.9150360  32.8757480 119.1013350
  53.9168800  33.3929870 118.2959250  53.0854670  32.3987660 119.0783280
  63.6787120  36.3297740 114.7463190  62.9742690  36.6182630 115.3266300
  64.0399280  37.1397850 114.3862750  53.5965690  34.5867440 117.1083800
  53.9382500  35.4309490 116.8137670  52.6581500  34.7351180 117.2249140
  49.6704650  43.6733320 107.9742880  49.2932630  44.1620420 107.2427780
  49.9277720  44.3458600 108.6049410  65.2949900  45.9472870 117.0090670
  64.6113420  46.6171980 117.0007340  65.8344190  46.1453520 116.2435530
  66.7474040  35.7752530 115.1372400  65.7998950  35.8091510 115.2687830
  67.0724030  36.5891480 115.5221760  62.8308640  47.7917000 115.7235850
  62.8435800  47.3879290 114.8558110  62.2783860  48.5664290 115.6197280
  62.2294080  42.6946840 117.0518460  62.6462870  42.4806950 116.2171920
  62.9533900  42.9519630 117.6227080  59.6674340  40.1398540 110.1688510
  58.7403620  40.0735920 110.3976980  59.8199160  41.0778670 110.0543750
  59.6543420  36.4115540 107.1655670  58.7147090  36.5729500 107.2508130
  59.9726680  37.1301220 106.6191660  66.1756180  41.0934060 117.1434700
  65.3474810  41.1627150 116.6684830  66.7706660  41.6788370 116.6750530
  63.6971630  41.7018840 110.6723760  63.0784050  41.3638390 110.0250060
  63.6796080  41.0578600 111.3802950  55.2730980  40.6663280 112.9508240
  54.8687980  39.9540530 112.4554140  55.3594100  40.3216520 113.8396280
  53.9859600  37.4406490 116.7307280  54.5374190  37.5501830 115.9560530
  54.5003110  37.8144090 117.4462510  63.8298290  47.9262710 118.7770550
  63.3528850  48.7334900 118.5843160  63.1460080  47.2741040 118.9296760
  65.4553470  32.1948460 105.9937550  65.1426130  32.2875290 106.8936620
  66.2165940  32.7729490 105.9434980  51.9735610  39.5608260 110.4514890
  51.8533210  40.2870350 109.8396160  51.6636500  38.7911170 109.9742800
  67.4097500  47.6874650 123.8461940  67.8857220  48.1657540 124.5251020
  68.0304660  47.6192140 123.1207440  49.6120980  42.7323400 116.2583530
  49.6901400  42.8672170 115.3139250  50.2262660  42.0239290 116.4511650
  66.8130750  44.8787500 121.0061950  66.9393810  44.6399380 120.0879130
  66.8552130  44.0472040 121.4784030  49.6680500  43.7737570 118.7977990
  49.8311540  43.3042930 117.9797360  50.1332950  43.2661130 119.4626830
  54.4399270  32.9043330 113.8338560  53.9967420  33.6852870 113.5023080
  54.9984260  33.2273220 114.5409500  58.7269080  35.7711850 119.4373880
  58.2648450  35.9794870 120.2493820  58.3247190  34.9571200 119.1344550
  57.5558090  32.5254030 108.7144390  56.9312270  32.5213900 109.4397700
  57.4688210  31.6584990 108.3180360  56.4775170  33.4490660 115.6928160
  56.7747500  34.3553490 115.6120180  57.0260730  32.9609440 115.0787730
  54.2313490  38.0276900 111.5619810  54.0054410  37.8114070 112.4666430
  53.4506020  38.4605360 111.2165780  61.4611250  38.0340270 110.1610460
  60.8620140  38.7576070 109.9774080  62.0090860  37.9717050 109.3786910
  60.0676120  36.6703810 112.1913740  60.4605690  36.9876010 111.3782430
  60.4292970  35.7915690 112.3058260  51.8023240  35.3376150 120.3813860
  51.4086630  36.1851360 120.5886640  51.1141640  34.7002520 120.5722500
  58.3768290  35.4211120 123.4510600  57.6866610  35.2283320 124.0856690
  59.1200590  35.7045760 123.9834900  49.1040290  33.2604610 114.4143940
  48.8153340  33.8307470 115.1268920  49.8486050  32.7809060 114.7775170
  49.2910520  37.2024730 105.6246660  49.2085190  38.1455490 105.7661650
  48.9393580  37.0599640 104.7459010  60.6531260  39.2609560 116.2864520
  59.9212380  39.7696370 116.6354620  60.2555600  38.4439540 115.9853300
  57.0908650  35.9363760 114.6917010  57.0944710  35.4953710 113.8421550
  57.9859770  36.2581090 114.7988830  52.9411030  35.8190250 113.6511220
  52.6011080  36.2965480 114.4078270  52.1788350  35.3655370 113.2912320
  57.1528800  36.9375840 107.6823770  57.2741620  36.8962320 108.6309590
  56.7677310  37.7999990 107.5270500  61.1157170  34.7143240 115.6987460
  61.1329910  35.1651890 116.5429310  60.8672750  33.8148880 115.9120900
  56.1650300  39.2476980 107.0807070  55.5967200  38.7995230 106.4542980
  56.8739300  39.6069760 106.5472220  57.3916620  39.9965540 116.4382420
  57.7586750  39.5224110 117.1843760  57.2021680  40.8707110 116.7790760
  50.2557110  34.7409230 112.5675890  49.9704030  34.3764900 113.4054510
  50.1935970  34.0089690 111.9539030  53.7097780  43.2435170 109.3533480
  52.9360040  42.7032790 109.1932200  54.4392410  42.7241780 109.0151240
  64.4685760  42.2400530 115.1459870  65.1884880  42.7355820 114.7555980
  64.2667580  41.5618420 114.5013740  59.9295700  33.6338490 109.2889260
  59.1160310  33.1351660 109.2134570  59.7357650  34.4736740 108.8725610
  62.6444090  38.0058140 107.5851420  63.5323710  38.3175370 107.4102760
  62.6149180  37.1330390 107.1932000  64.9158360  39.3169980 107.0531280
  64.8322080  39.7484200 106.2027720  65.6352550  39.7768330 107.4858100
  65.9932500  41.7737500 120.1301250  65.2680690  42.3666280 119.9330640
  66.5207960  41.7661040 119.3314620  61.5232090  43.4997670 113.6285100
  61.8755910  42.9025800 112.9686470  60.6394420  43.1741900 113.7993350
  56.9122580  41.2641390 110.6480870  57.3685360  42.0746640 110.8741060
  56.5610790  40.9464530 111.4799360  52.8134360  31.6079040 111.1203390
  52.6848990  31.5996940 112.0688310  51.9896380  31.9462130 110.7694400
  60.4887270  44.7780080 116.5950620  61.1309500  44.0773240 116.7082790
  61.0136620  45.5578520 116.4147510  62.2624890  45.5774980 119.7986680
  62.5981130  46.1641670 120.4764600  61.3425230  45.4467690 120.0284470
  50.1159020  49.0895560 107.0934220  50.4756660  49.6884900 106.4391490
  49.9751360  49.6355450 107.8669250  49.8128290  33.3670160 120.5810090
  49.0986810  33.5667080 121.1862700  50.2323330  32.5909730 120.9524890
  50.1000880  47.3550420 121.5676620  50.2092000  46.4145160 121.4272010
  49.4481440  47.6205170 120.9190350  51.7334280  41.6941650 108.6554650
  51.1262230  42.4340550 108.6649950  52.2083630  41.7841010 107.8292850
  61.3067070  35.8592470 118.3311540  61.6747890  35.0387680 118.6591110
  60.4465270  35.9194360 118.7467190  64.6729100  34.8149410 109.1399100
  64.0442260  34.9195080 108.4257330  64.1781020  35.0346190 109.9292980
  56.6413130  37.0935360 110.5556980  55.9329280  37.5621700 110.9970590
  56.9257610  36.4357370 111.1902170  58.2669060  38.5132060 118.5549510
  58.7654310  38.9877880 119.2201360  58.4092010  37.5895580 118.7619540
  60.6728560  33.8186020 111.9952770  60.5496340  33.8372150 111.0462280
  61.6213120  33.8664960 112.1151170  54.8448150  35.4020440 107.9307690
  55.6938680  35.8390590 107.8647880  54.4779420  35.7140700 108.7579750
  63.7657930  39.9733200 112.8439260  62.8248070  39.9883430 113.0186950
  64.0802000  39.1869160 113.2899560  53.7439570  41.6552800 106.4043220
  54.5102840  41.5434160 106.9668650  53.8214260  40.9590770 105.7519990
  52.4386330  39.0877870 107.0876110  52.5189920  38.1405380 107.1993510
  53.3306080  39.4184750 107.1936770  65.7683510  47.1442050 114.5193520
  65.8930930  47.9673220 114.9917330  66.6349070  46.9332780 114.1717670
  50.1246520  45.3046830 110.0652160  49.1986300  45.5467970 110.0557570
  50.5902950  46.1321090 109.9436910  56.3503350  48.4103570 106.0136220
  57.1431960  48.6992400 105.5618010  55.8307700  47.9795740 105.3348700
  61.0823950  44.5299200 123.3271640  60.4762110  44.5530800 122.5867390
  60.7778060  43.7982240 123.8638890  49.9657130  40.9092790 122.3232280
  50.4696150  40.3300070 122.8948510  49.2264550  41.1933020 122.8608650
  56.8680750  43.6306980 105.8778570  56.7631390  43.0159330 106.6039950
  56.7004970  43.1072870 105.0941580  64.1618420  44.0469110 122.4142820
  64.9027890  44.3844870 121.9110280  63.3991100  44.2161170 121.8612590
  55.7758600  41.6517930 108.3785860  56.1975020  41.4857800 109.2217250
  55.9009440  40.8418160 107.8841000  58.2886240  40.6755540 105.6262960
  58.8091900  39.9604560 105.2604110  58.9354640  41.3141410 105.9263470
  62.8364080  42.0983940 120.9498030  63.2505100  42.2529020 121.7988450
  61.9015080  42.2239160 121.1123810  54.4258320  34.5976850 121.2654130
  54.3315190  33.9797600 120.5405000  53.8455710  35.3243140 121.0384040
  57.1919760  33.1550090 118.2981520  56.7437060  33.1774350 117.4527070
  56.5584960  32.7569110 118.8951820  59.9343210  39.7820600 120.3031800
  60.0539420  39.1861740 121.0426640  60.7937210  39.8190290 119.8833100
  62.2731110  40.3357790 118.8794310  61.7466330  40.8600410 118.2759450
  62.6162450  40.9685180 119.5104040  54.6717500  37.7251160 105.3244020
  54.4706560  36.8618520 105.6857360  54.5009550  37.6384520 104.3865620
  56.7011980  36.3241950 121.5607620  57.2911670  36.0157800 122.2485440
  55.8832220  35.8521700 121.7167520  62.1505810  32.5359390 107.8530900
  62.4308100  31.6927290 108.2090320  61.3771540  32.7682500 108.3669650
  53.4700300  34.8251780 105.3121900  53.7726200  34.8319210 104.4041050
  54.2094890  34.4749640 105.8089560  56.6885230  33.7686400 106.2978100
  56.3407230  33.0910390 105.7180550  56.8898000  33.3075910 107.1121490
  52.4930430  44.1294200 106.1451700  52.9305300  44.6723870 106.8009280
  52.9778160  43.3041150 106.1548040  49.7076230  46.9183230 113.5971960
  50.0379240  46.0504290 113.3650600  50.1367230  47.1241750 114.4276920
  50.1966440  47.7853820 116.3353590  49.7597430  47.9654620 117.1677740
  50.7644120  48.5428440 116.1935310  65.8328620  47.2870820 120.6230900
  65.2330610  47.3463380 119.8794820  65.9622520  46.3475800 120.7527750
  66.5286530  41.7736120 108.4634810  67.2905440  42.3432770 108.5694500
  66.5440900  41.2063320 109.2343120  50.0290870  40.2974050 112.6942470
  49.3739710  40.0285690 112.0502170  50.8668820  40.1878530 112.2444450
  67.5346500  42.6286220 113.3076740  67.9055330  41.8453540 112.9012710
  68.1748430  43.3175320 113.1294040  64.5180260  44.0122800 118.7207060
  63.7040100  44.4419960 118.9832850  64.9254460  44.6241210 118.1076110
  62.9781310  35.0915340 106.9160960  63.3966190  34.9046320 106.0757620
  62.6717370  34.2394390 107.2263890  66.4771040  40.0039480 110.6136760
  66.1014640  39.2367410 110.1818050  65.7474160  40.3862180 111.1011690
  51.0666800  40.6826620 117.2345810  51.4339840  40.5954020 118.1141830
  50.4977620  39.9193170 117.1352670  50.6182800  37.5935710 121.1404230
  49.7238850  37.5602470 121.4797940  51.1580350  37.7922500 121.9055480
  65.7522000  38.2296970 113.9144000  66.2759480  37.7359620 113.2834170
  66.3381420  38.3647330 114.6591570  51.7856160  36.5638520 106.5462180
  52.4947860  36.1421740 106.0609460  51.0696100  36.6313750 105.9145530
  51.4330320  32.6177850 105.5864830  52.1558450  33.1586790 105.9046050
  51.7054840  32.3441270 104.7106370  65.2421970  37.4870320 109.8536410
  65.7381090  37.2541190 110.6385290  65.0438040  36.6482160 109.4374050
  51.1222510  31.8684040 115.4887450  51.7698700  31.3181420 115.0482610
  51.5424350  32.1227190 116.3103260  66.6709130  36.1231270 112.3874090
  66.5608410  35.9687310 113.3256360  67.4316720  35.5952210 112.1449500
  65.0174850  32.0625400 118.8457090  65.6547070  32.6759540 119.2116280
  65.1649740  32.0986060 117.9006320  67.5599400  33.9539190 105.6280230
  68.4848710  33.8220370 105.4198520  67.5375190  34.0332010 106.5816680
  67.6337890  34.7249850 108.2536940  66.8389390  34.6594970 108.7829850
  67.8381170  35.6600490 108.2422290  64.5756310  48.7641400 112.2475330
  65.1715380  48.4425970 111.5709750  64.8334460  48.2913220 113.0388600
  50.8754510  32.0239710 118.2312770  50.5269330  32.4803530 118.9970950
  50.5442210  31.1296840 118.3135200  58.3879330  33.2151590 121.7532190
  58.3268220  33.8073420 122.5027600  59.3279710  33.1077550 121.6082450
  61.0253890  32.8721650 121.3924480  61.6394300  33.1900940 120.7305560
  61.5703450  32.3870240 122.0120340  67.4429070  48.7713280 118.7986320
  66.9487350  49.1682150 118.0813450  66.8342360  48.1462490 119.1923600
  51.5475150  31.5515910 121.5063540  52.0958140  31.3703960 120.7429650
  51.6130460  30.7610020 122.0419850  61.7661930  31.4353790 117.7193770
  60.8921770  31.7688900 117.5166700  61.6572680  30.9626970 118.5445640
  65.1268520  49.4136700 116.0773060  64.6671490  50.1652510 115.7031080
  64.4980980  48.6943170 116.0187860  51.9519140  45.5079940 118.4671780
  51.2253200  44.8885230 118.3997730  52.0128290  45.9020550 117.5969860
  59.5136750  32.3523630 116.6586680  58.7308540  32.8269130 116.9383440
  59.2199680  31.4478460 116.5499860  64.0657820  33.0546730 114.7035770
  64.5065910  32.9991830 113.8557370  63.7965410  33.9704740 114.7745950
  65.9296390  32.6861970 112.7144590  65.8684790  31.7423190 112.5675610
  66.7088420  32.7942060 113.2598050  50.2349140  48.8254330 111.6768540
  50.0671180  48.1925010 112.3750430  49.3683650  49.0313730 111.3262730
  50.8577160  32.6571110 109.1800400  51.6156520  32.7699990 108.6064430
  50.3954330  33.4940310 109.1343830  57.3990970  34.7710380 112.1702710
  56.5865480  34.3967270 111.8298590  57.9032610  34.0155460 112.4723900
  65.0450550  31.8374390 108.6826060  65.2401180  32.7357840 108.9493490
  64.2580420  31.6061470 109.1759010  53.2302310  33.1835160 107.7202370
  53.7595070  32.3964960 107.5910320  53.8630630  33.8626350 107.9537900
  55.4240150  32.9210300 110.7747760  54.7942890  32.2197610 110.9417890
  54.8845290  33.6814430 110.5580920  66.5977160  49.0775100 110.4432620
  66.7729350  48.3912840 109.7993540  65.8998730  49.6022150 110.0509290
  55.5495710  32.1994280 123.2100250  55.2679980  32.7027880 122.4461070
  55.9315410  31.4016030 122.8442380  54.4404810  49.4669940 107.9967930
  55.1723630  49.1829220 107.4491820  54.6998480  49.2283220 108.8867310
  62.1511170  31.6147860 123.7880720  62.0376620  31.9342470 124.6832240
  62.9680910  32.0160370 123.4918000  64.9309660  48.7619390 123.2699410
  65.7234980  48.2668620 123.0625370  65.2242810  49.4409530 123.8775020
  53.2053190  41.7239160  96.9100490  52.3738070  41.4687870  97.3097000
  53.8134170  41.7949930  97.6458410  53.1854450  45.7579250  97.1058510
  53.4882490  44.8676990  96.9268730  53.9298040  46.3149470  96.8780760
  51.6145140  36.6841050  90.6942880  50.7261840  37.0257020  90.5922760
  51.8986330  36.4841370  89.8023710  53.7906530  35.2672550  91.7281260
  53.8973280  36.1676280  92.0350020  52.8798890  35.2190520  91.4375910
  63.4425640  34.3897360  93.1992160  64.2635260  33.8993930  93.2417640
  63.4759720  34.9795020  93.9524000  55.6314260  38.2358920  96.0606440
  56.1392480  38.7339890  96.7011460  56.1627500  37.4594120  95.8845800
  67.7325190  36.4064110  99.7635790  67.0277360  36.7945820  99.2450900
  67.9983110  37.1014400 100.3656720  55.1653210  42.5152660  98.5043360
  54.8322590  43.1421580  99.1464430  55.3419890  43.0414540  97.7245030
  54.3772310  44.4833460 100.3192540  54.9946310  45.1584540 100.0376990
  53.5165430  44.8921440 100.2280040  57.2793580  32.0749710  94.6584900
  57.5868560  31.5196600  93.9420400  56.3494280  32.2094170  94.4757890
  59.6543420  36.4115540  88.3912180  58.7147090  36.5729500  88.4764640
  59.9726680  37.1301220  87.8448170  54.8331110  44.0912530 102.9911760
  53.9359640  44.3152500 103.2385160  54.8583980  44.2147470 102.0423160
  61.8736330  40.9405650  88.9053020  62.3129610  40.1028080  88.7590840
  62.5864750  41.5735050  88.9917160  53.6602330  40.9625850 101.5669130
  53.5210100  41.8348650 101.9356530  52.7783690  40.6198660 101.4217070
  55.4582680  46.9047550 103.7754280  55.4298110  47.3090500 102.9082710
  55.2947650  45.9757910 103.6125880  51.9735610  39.5608260  91.6771400
  51.8533210  40.2870350  91.0652670  51.6636500  38.7911170  91.1999310
  50.8568610  44.4323590  93.8946220  50.4496690  44.5738180  93.0399820
  51.7481620  44.1483750  93.6917430  55.1290270  48.6469370  92.0068890
  54.9532750  47.7304910  91.7936690  54.2746010  49.0056660  92.2466690
  66.6654760  36.9319960 103.1968200  66.0499030  37.4399630 102.6683660
  66.3451180  36.0318290 103.1394140  49.6680500  43.7737570 100.0234500
  49.8311540  43.3042930  99.2053870  50.1332950  43.2661130 100.6883340
  57.5558090  32.5254030  89.9400900  56.9312270  32.5213900  90.6654210
  57.4688210  31.6584990  89.5436870  54.2313490  38.0276900  92.7876320
  54.0054410  37.8114070  93.6922940  53.4506020  38.4605360  92.4422290
  61.4611250  38.0340270  91.3866970  60.8620140  38.7576070  91.2030590
  62.0090860  37.9717050  90.6043420  56.6712700  38.9262480 103.4536590
  56.5756300  37.9857210 103.3036990  57.5144680  39.1477550 103.0584660
  58.3768290  35.4211120 104.6767110  57.6866610  35.2283320 105.3113200
  59.1200590  35.7045760 105.2091410  49.2910520  37.2024730  86.8503170
  49.2085190  38.1455490  86.9918160  48.9393580  37.0599640  85.9715520
  57.1528800  36.9375840  88.9080280  57.2741620  36.8962320  89.8566100
  56.7677310  37.7999990  88.7527010  64.5427920  32.1275420 102.7630350
  64.8673690  31.3965080 103.2888330  64.5784430  31.8089060 101.8611340
  51.2419480  43.1489000 102.1830310  50.8574270  42.5082670 102.7813270
  51.5531670  43.8525120 102.7525040  57.3916620  39.9965540  97.6638930
  57.7586750  39.5224110  98.4100270  57.2021680  40.8707110  98.0047270
  50.2557110  34.7409230  93.7932400  49.9704030  34.3764900  94.6311020
  50.1935970  34.0089690  93.1795540  55.1815990  39.0374180  99.9823140
  54.8773060  39.9166160 100.2073500  56.1362450  39.0973970 100.0180580
  59.9295700  33.6338490  90.5145770  59.1160310  33.1351660  90.4391080
  59.7357650  34.4736740  90.0982120  62.6444090  38.0058140  88.8107930
  63.5323710  38.3175370  88.6359270  62.6149180  37.1330390  88.4188510
  51.2379720  39.8776920 101.1294500  50.8794660  40.5430770 101.7167840
  50.9434280  39.0460470 101.5007120  54.4392840  40.3361160 104.0134050
  54.1392980  40.4818340 103.1161870  55.2104080  39.7766450 103.9207440
  64.9158360  39.3169980  88.2787790  64.8322080  39.7484200  87.4284230
  65.6352550  39.7768330  88.7114610  49.7487770  39.8768180  87.7529100
  50.6182620  40.1592980  88.0365020  49.2578090  40.6904050  87.6377910
  52.8134360  31.6079040  92.3459900  52.6848990  31.5996940  93.2944820
  51.9896380  31.9462130  91.9950910  50.1159020  49.0895560  88.3190730
  50.4756660  49.6884900  87.6648000  49.9751360  49.6355450  89.0925760
  50.1000880  47.3550420 102.7933130  50.2092000  46.4145160 102.6528520
  49.4481440  47.6205170 102.1446860  58.0913470  45.6266310 104.1931250
  57.7710340  44.9075550 104.7376940  57.4171830  46.3021380 104.2667310
  56.1327640  46.4726760  89.1364400  56.1237740  47.2056450  88.5208910
  55.2126000  46.2258340  89.2291360  59.1187240  46.5355000  87.7989590
  59.2199220  46.3318990  86.8691570  58.2188980  46.2813280  88.0037370
  56.6413130  37.0935360  91.7813490  55.9329280  37.5621700  92.2227100
  56.9257610  36.4357370  92.4158680  57.7605350  49.0541320  92.4937260
  58.0146850  49.0162710  91.5716630  56.8117830  48.9274650  92.4865510
  54.8448150  35.4020440  89.1564200  55.6938680  35.8390590  89.0904390
  54.4779420  35.7140700  89.9836260  63.7657930  39.9733200  94.0695770
  62.8248070  39.9883430  94.2443460  64.0802000  39.1869160  94.5156070
  53.7439570  41.6552800  87.6299730  54.5102840  41.5434160  88.1925160
  53.8214260  40.9590770  86.9776500  52.4386330  39.0877870  88.3132620
  52.5189920  38.1405380  88.4250020  53.3306080  39.4184750  88.4193280
  53.2401040  49.2373260  95.4167160  53.9763520  48.6888720  95.6875730
  53.6241960  50.1029270  95.2773150  52.2459320  48.4219330 104.6052740
  53.0472050  48.7431380 105.0188140  51.7311140  48.0614910 105.3272650
  56.3503350  48.4103570  87.2392730  57.1431960  48.6992400  86.7874520
  55.8307700  47.9795740  86.5605210  49.9657130  40.9092790 103.5488790
  50.4696150  40.3300070 104.1205020  49.2264550  41.1933020 104.0865160
  60.1083480  42.6927010  87.7077070  59.5593580  43.1396310  88.3519810
  60.7302740  42.1876260  88.2314740  51.9980210  39.0522380 104.4438860
  52.0385550  38.7536250 105.3524090  52.8525710  39.4529990 104.2846380
  53.9386020  37.6314480 102.4113350  53.4082480  37.1405430 101.7836690
  54.6074090  38.0598680 101.8771280  63.3086250  39.4380100 104.1793690
  63.8907020  38.6832420 104.0914170  63.4848020  39.9687540 103.4025170
  54.6717500  37.7251160  86.5500530  54.4706560  36.8618520  86.9113870
  54.5009550  37.6384520  85.6122130  55.4486730  48.3557430 101.2608200
  54.9107820  49.0803490 100.9416900  55.7020690  47.8787770 100.4705540
  56.7011980  36.3241950 102.7864130  57.2911670  36.0157800 103.4741950
  55.8832220  35.8521700 102.9424030  61.5205410  35.9407760 103.0197150
  60.8320930  35.2789300 102.9547140  62.2411430  35.4946030 103.4645610
  62.1505810  32.5359390  89.0787410  62.4308100  31.6927290  89.4346830
  61.3771540  32.7682500  89.5926160  53.4700300  34.8251780  86.5378410
  53.7726200  34.8319210  85.6297560  54.2094890  34.4749640  87.0346070
  58.3048940  49.5908640 101.5194850  58.2307640  50.4943780 101.8267220
  57.4027780  49.2720540 101.4916920  56.6885230  33.7686400  87.5234610
  56.3407230  33.0910390  86.9437060  56.8898000  33.3075910  88.3378000
  58.8534270  48.7567150  89.1421210  59.7485060  49.0952120  89.1639970
  58.8851900  48.0346560  88.5145490  49.7076230  46.9183230  94.8228470
  50.0379240  46.0504290  94.5907110  50.1367230  47.1241750  95.6533430
  50.1966440  47.7853820  97.5610100  49.7597430  47.9654620  98.3934250
  50.7644120  48.5428440  97.4191820  50.0290870  40.2974050  93.9198980
  49.3739710  40.0285690  93.2758680  50.8668820  40.1878530  93.4700960
  62.9781310  35.0915340  88.1417470  63.3966190  34.9046320  87.3014130
  62.6717370  34.2394390  88.4520400  66.4771040  40.0039480  91.8393270
  66.1014640  39.2367410  91.4074560  65.7474160  40.3862180  92.3268200
  51.0666800  40.6826620  98.4602320  51.4339840  40.5954020  99.3398340
  50.4977620  39.9193170  98.3609180  65.8670660  39.1511000 101.4732790
  65.6356750  38.9223750 100.5730740  66.1275210  40.0710550 101.4277680
  50.6182800  37.5935710 102.3660740  49.7238850  37.5602470 102.7054450
  51.1580350  37.7922500 103.1311990  64.3058730  34.3767430 104.2512490
  65.1828910  34.3850830 104.6346490  64.3179570  33.6398270 103.6404840
  49.2428950  37.5072980  89.8624310  48.3393030  37.7703180  89.6875970
  49.7269570  37.7784150  89.0824270  51.7856160  36.5638520  87.7718690
  52.4947860  36.1421740  87.2865970  51.0696100  36.6313750  87.1402040
  51.4330320  32.6177850  86.8121340  52.1558450  33.1586790  87.1302560
  51.7054840  32.3441270  85.9362880  65.2421970  37.4870320  91.0792920
  65.7381090  37.2541190  91.8641800  65.0438040  36.6482160  90.6630560
  52.4818880  45.1959310 103.6222470  52.4388510  44.8252220 104.5036930
  52.6129890  46.1336880 103.7624290  56.1824910  46.7518900  99.2232190
  55.9416270  47.0193460  98.3362710  57.1227550  46.9224630  99.2783050
  58.3879330  33.2151590 102.9788700  58.3268220  33.8073420 103.7284110
  59.3279710  33.1077550 102.8338960  61.0253890  32.8721650 102.6180990
  61.6394300  33.1900940 101.9562070  61.5703450  32.3870240 103.2376850
  52.3206910  48.1421560 100.7420250  51.7267230  48.0106260 101.4810290
  52.3130750  47.3059700 100.2762350  51.9519140  45.5079940  99.6928290
  51.2253200  44.8885230  99.6254240  52.0128290  45.9020550  98.8226370
  55.5564240  47.7224940  96.4777700  56.0729260  47.1112300  95.9525960
  56.2061620  48.2253720  96.9688710  58.2959740  48.6133430  97.3046680
  58.5837550  48.3587730  96.4279690  58.8082960  48.0610790  97.8952250
  50.2349140  48.8254330  92.9025050  50.0671180  48.1925010  93.6006940
  49.3683650  49.0313730  92.5519240  50.8577160  32.6571110  90.4056910
  51.6156520  32.7699990  89.8320940  50.3954330  33.4940310  90.3600340
  57.3990970  34.7710380  93.3959220  56.5865480  34.3967270  93.0555100
  57.9032610  34.0155460  93.6980410  51.8411840  47.5187560  90.3475190
  51.3159460  47.8995590  89.6437150  51.7656420  48.1438330  91.0684900
  53.2302310  33.1835160  88.9458880  53.7595070  32.3964960  88.8166830
  53.8630630  33.8626350  89.1794410  55.4240150  32.9210300  92.0004270
  54.7942890  32.2197610  92.1674400  54.8845290  33.6814430  91.7837430
  58.3632100  49.5349530 104.6714880  59.2899410  49.2993800 104.7150840
  58.3482530  50.3621530 104.1900910  55.5495710  32.1994280 104.4356760
  55.2679980  32.7027880 103.6717580  55.9315410  31.4016030 104.0698890
  54.4404810  49.4669940  89.2224440  55.1723630  49.1829220  88.6748330
  54.6998480  49.2283220  90.1123820  53.6019600  45.5834670  89.2270770
  52.9728480  46.0519770  89.7756600  53.7167430  44.7383890  89.6616960
  62.1511170  31.6147860 105.0137230  62.0376620  31.9342470 105.9088750
  62.9680910  32.0160370 104.7174510  59.1887360  41.4119350  77.2581240
  58.4129460  40.9319790  77.5479810  59.8400290  40.7325000  77.0837400
  53.2053190  41.7239160  78.1357000  52.3738070  41.4687870  78.5353510
  53.8134170  41.7949930  78.8714920  63.2094790  45.8179540  76.0380370
  62.7476320  45.0466780  76.3667540  64.0220340  45.8445610  76.5432820
  53.1854450  45.7579250  78.3315020  53.4882490  44.8676990  78.1525240
  53.9298040  46.3149470  78.1037270  58.6296350  44.0876540  77.2651400
  58.5604630  43.1466480  77.1040530  59.3916210  44.1777950  77.8373970
  50.8203020  34.6931060  79.5908020  50.6405860  33.7956810  79.8710780
  50.4183100  35.2402930  80.2654970  51.4389690  37.1891560  78.1990360
  52.1199800  37.4529930  78.8177760  51.1237740  36.3492430  78.5328370
  55.6314260  38.2358920  77.2862950  56.1392480  38.7339890  77.9267970
  56.1627500  37.4594120  77.1102310  53.9150360  32.8757480  81.5526370
  53.9168800  33.3929870  80.7472270  53.0854670  32.3987660  81.5296300
  55.1653210  42.5152660  79.7299870  54.8322590  43.1421580  80.3720940
  55.3419890  43.0414540  78.9501540  53.5965690  34.5867440  79.5596820
  53.9382500  35.4309490  79.2650690  52.6581500  34.7351180  79.6762160
  65.2949900  45.9472870  79.4603690  64.6113420  46.6171980  79.4520360
  65.8344190  46.1453520  78.6948550  62.8308640  47.7917000  78.1748870
  62.8435800  47.3879290  77.3071130  62.2783860  48.5664290  78.0710300
  62.2294080  42.6946840  79.5031480  62.6462870  42.4806950  78.6684940
  62.9533900  42.9519630  80.0740100  66.1756180  41.0934060  79.5947720
  65.3474810  41.1627150  79.1197850  66.7706660  41.6788370  79.1263550
  63.1398190  37.8803380  80.5402590  62.7269370  38.7057090  80.7942580
  62.4074140  37.2948420  80.3478950  55.2730980  40.6663280  75.4021260
  54.8687980  39.9540530  74.9067160  55.3594100  40.3216520  76.2909300
  55.7412680  44.3530840  77.5660470  55.4440970  43.7476310  76.8868250
  56.6912500  44.3908150  77.4549830  53.9859600  37.4406490  79.1820300
  54.5374190  37.5501830  78.4073550  54.5003110  37.8144090  79.8975530
  55.4582680  46.9047550  85.0010790  55.4298110  47.3090500  84.1339220
  55.2947650  45.9757910  84.8382390  65.4553470  32.1948460  68.4450570
  65.1426130  32.2875290  69.3449640  66.2165940  32.7729490  68.3948000
  60.6747490  48.5815500  82.0269780  61.1892160  48.4923510  82.8292210
  59.8316570  48.9275200  82.3197690  61.9177950  48.0021110  74.0900270
  62.3734900  47.2210490  74.4038890  62.2570470  48.7127930  74.6341450
  58.7269080  35.7711850  81.8886900  58.2648450  35.9794870  82.7006840
  58.3247190  34.9571200  81.5857570  63.7273590  36.9920800  83.0183560
  62.8767180  36.6926550  83.3392630  63.5675380  37.2362810  82.1067380
  60.8223300  38.4922550  85.1182350  61.1476710  37.6586300  84.7784580
  61.6103630  39.0151070  85.2660680  56.4775170  33.4490660  78.1441180
  56.7747500  34.3553490  78.0633200  57.0260730  32.9609440  77.5300750
  56.6712700  38.9262480  84.6793100  56.5756300  37.9857210  84.5293500
  57.5144680  39.1477550  84.2841170  51.8023240  35.3376150  82.8326880
  51.4086630  36.1851360  83.0399660  51.1141640  34.7002520  83.0235520
  58.3768290  35.4211120  85.9023620  57.6866610  35.2283320  86.5369710
  59.1200590  35.7045760  86.4347920  49.1040290  33.2604610  76.8656960
  48.8153340  33.8307470  77.5781940  49.8486050  32.7809060  77.2288190
  60.6531260  39.2609560  78.7377540  59.9212380  39.7696370  79.0867640
  60.2555600  38.4439540  78.4366320  57.0908650  35.9363760  77.1430030
  57.0944710  35.4953710  76.2934570  57.9859770  36.2581090  77.2501850
  57.1528800  36.9375840  70.1336790  57.2741620  36.8962320  71.0822610
  56.7677310  37.7999990  69.9783520  64.5427920  32.1275420  83.9886860
  64.8673690  31.3965080  84.5144840  64.5784430  31.8089060  83.0867850
  57.3916620  39.9965540  78.8895440  57.7586750  39.5224110  79.6356780
  57.2021680  40.8707110  79.2303780  55.1815990  39.0374180  81.2079650
  54.8773060  39.9166160  81.4330010  56.1362450  39.0973970  81.2437090
  53.7097780  43.2435170  71.8046500  52.9360040  42.7032790  71.6445220
  54.4392410  42.7241780  71.4664260  64.4685760  42.2400530  77.5972890
  65.1884880  42.7355820  77.2069000  64.2667580  41.5618420  76.9526760
  59.8504560  42.3109590  83.4841890  59.7841870  41.3905260  83.2299480
  59.2209700  42.4085030  84.1986530  53.7535180  42.9115550  75.4425310
  54.2713850  42.1083810  75.3882200  53.3019200  42.8494690  76.2842140
  51.2379720  39.8776920  82.3551010  50.8794660  40.5430770  82.9424350
  50.9434280  39.0460470  82.7263630  54.4392840  40.3361160  85.2390560
  54.1392980  40.4818340  84.3418380  55.2104080  39.7766450  85.1463950
  59.7821290  45.1330160  83.2345690  59.7965830  44.2011120  83.0164600
  59.0746390  45.2189920  83.8735460  61.5232090  43.4997670  76.0798120
  61.8755910  42.9025800  75.4199490  60.6394420  43.1741900  76.2506370
  59.2155190  46.7747730  80.3286190  59.8597410  46.9807110  81.0059610
  59.5784630  46.0136130  79.8757040  60.4887270  44.7780080  79.0463640
  61.1309500  44.0773240  79.1595810  61.0136620  45.5578520  78.8660530
  62.2624890  45.5774980  82.2499700  62.5981130  46.1641670  82.9277620
  61.3425230  45.4467690  82.4797490  50.1159020  49.0895560  69.5447240
  50.4756660  49.6884900  68.8904510  49.9751360  49.6355450  70.3182270
  49.8128290  33.3670160  83.0323110  49.0986810  33.5667080  83.6375720
  50.2323330  32.5909730  83.4037910  58.0913470  45.6266310  85.4187760
  57.7710340  44.9075550  85.9633450  57.4171830  46.3021380  85.4923820
  61.3067070  35.8592470  80.7824560  61.6747890  35.0387680  81.1104130
  60.4465270  35.9194360  81.1980210  58.2669060  38.5132060  81.0062530
  58.7654310  38.9877880  81.6714380  58.4092010  37.5895580  81.2132560
  63.7657930  39.9733200  75.2952280  62.8248070  39.9883430  75.4699970
  64.0802000  39.1869160  75.7412580  65.7683510  47.1442050  76.9706540
  65.8930930  47.9673220  77.4430350  66.6349070  46.9332780  76.6230690
  53.2401040  49.2373260  76.6423670  53.9763520  48.6888720  76.9132240
  53.6241960  50.1029270  76.5029660  57.0195070  42.3163780  84.3080820
  56.2540740  42.8848780  84.2235490  57.2011030  42.0239990  83.4149050
  51.9980210  39.0522380  85.6695370  52.0385550  38.7536250  86.5780600
  52.8525710  39.4529990  85.5102890  53.9386020  37.6314480  83.6369860
  53.4082480  37.1405430  83.0093200  54.6074090  38.0598680  83.1027790
  62.8364080  42.0983940  83.4011050  63.2505100  42.2529020  84.2501470
  61.9015080  42.2239160  83.5636830  63.3086250  39.4380100  85.4050200
  63.8907020  38.6832420  85.3170680  63.4848020  39.9687540  84.6281680
  54.4258320  34.5976850  83.7167150  54.3315190  33.9797600  82.9918020
  53.8455710  35.3243140  83.4897060  57.1919760  33.1550090  80.7494540
  56.7437060  33.1774350  79.9040090  56.5584960  32.7569110  81.3464840
  57.5979310  42.0504420  81.3706980  58.0167420  42.8937150  81.1983220
  56.6787940  42.1876460  81.1413760  59.9343210  39.7820600  82.7544820
  60.0539420  39.1861740  83.4939660  60.7937210  39.8190290  82.3346120
  62.2731110  40.3357790  81.3307330  61.7466330  40.8600410  80.7272470
  62.6162450  40.9685180  81.9617060  55.4486730  48.3557430  82.4864710
  54.9107820  49.0803490  82.1673410  55.7020690  47.8787770  81.6962050
  56.7011980  36.3241950  84.0120640  57.2911670  36.0157800  84.6998460
  55.8832220  35.8521700  84.1680540  61.5205410  35.9407760  84.2453660
  60.8320930  35.2789300  84.1803650  62.2411430  35.4946030  84.6902120
  58.3048940  49.5908640  82.7451360  58.2307640  50.4943780  83.0523730
  57.4027780  49.2720540  82.7173430  56.6885230  33.7686400  68.7491120
  56.3407230  33.0910390  68.1693570  56.8898000  33.3075910  69.5634510
  54.3038150  45.2492240  73.7086950  54.0033690  45.1257210  74.6090860
  54.1975640  44.3900830  73.3002680  50.0290870  40.2974050  75.1455490
  49.3739710  40.0285690  74.5015190  50.8668820  40.1878530  74.6957470
  67.5346500  42.6286220  75.7589760  67.9055330  41.8453540  75.3525730
  68.1748430  43.3175320  75.5807060  64.5180260  44.0122800  81.1720080
  63.7040100  44.4419960  81.4345870  64.9254460  44.6241210  80.5589130
  66.4771040  40.0039480  73.0649780  66.1014640  39.2367410  72.6331070
  65.7474160  40.3862180  73.5524710  51.0666800  40.6826620  79.6858830
  51.4339840  40.5954020  80.5654850  50.4977620  39.9193170  79.5865690
  65.8670660  39.1511000  82.6989300  65.6356750  38.9223750  81.7987250
  66.1275210  40.0710550  82.6534190  50.6182800  37.5935710  83.5917250
  49.7238850  37.5602470  83.9310960  51.1580350  37.7922500  84.3568500
  64.3058730  34.3767430  85.4769000  65.1828910  34.3850830  85.8603000
  64.3179570  33.6398270  84.8661350  65.7522000  38.2296970  76.3657020
  66.2759480  37.7359620  75.7347190  66.3381420  38.3647330  77.1104590
  51.1222510  31.8684040  77.9400470  51.7698700  31.3181420  77.4995630
  51.5424350  32.1227190  78.7616280  66.6709130  36.1231270  74.8387110
  66.5608410  35.9687310  75.7769380  67.4316720  35.5952210  74.5962520
  65.0174850  32.0625400  81.2970110  65.6547070  32.6759540  81.6629300
  65.1649740  32.0986060  80.3519340  64.5756310  48.7641400  74.6988350
  65.1715380  48.4425970  74.0222770  64.8334460  48.2913220  75.4901620
  50.8754510  32.0239710  80.6825790  50.5269330  32.4803530  81.4483970
  50.5442210  31.1296840  80.7648220  56.1824910  46.7518900  80.4488700
  55.9416270  47.0193460  79.5619220  57.1227550  46.9224630  80.5039560
  58.3879330  33.2151590  84.2045210  58.3268220  33.8073420  84.9540620
  59.3279710  33.1077550  84.0595470  61.0253890  32.8721650  83.8437500
  61.6394300  33.1900940  83.1818580  61.5703450  32.3870240  84.4633360
  51.5475150  31.5515910  83.9576560  52.0958140  31.3703960  83.1942670
  51.6130460  30.7610020  84.4932870  62.6733910  33.6424660  81.5548510
  62.3447270  32.8276420  81.1750240  63.6216210  33.5994470  81.4314200
  65.1268520  49.4136700  78.5286080  64.6671490  50.1652510  78.1544100
  64.4980980  48.6943170  78.4700880  55.5564240  47.7224940  77.7034210
  56.0729260  47.1112300  77.1782470  56.2061620  48.2253720  78.1945220
  58.2959740  48.6133430  78.5303190  58.5837550  48.3587730  77.6536200
  58.8082960  48.0610790  79.1208760  65.9296390  32.6861970  75.1657610
  65.8684790  31.7423190  75.0188630  66.7088420  32.7942060  75.7111070
  65.0450550  31.8374390  71.1339080  65.2401180  32.7357840  71.4006510
  64.2580420  31.6061470  71.6272030  51.8411840  47.5187560  71.5731700
  51.3159460  47.8995590  70.8693660  51.7656420  48.1438330  72.2941410
  58.3632100  49.5349530  85.8971390  59.2899410  49.2993800  85.9407350
  58.3482530  50.3621530  85.4157420  66.5977160  49.0775100  72.8945640
  66.7729350  48.3912840  72.2506560  65.8998730  49.6022150  72.5022310
  55.5495710  32.1994280  85.6613270  55.2679980  32.7027880  84.8974090
  55.9315410  31.4016030  85.2955400  62.1511170  31.6147860  86.2393740
  62.0376620  31.9342470  87.1345260  62.9680910  32.0160370  85.9431020
  61.0569320  39.6340330  56.6028480  60.9763370  38.7194940  56.3320190
  60.6433740  40.1307400  55.8968190  59.1887360  41.4119350  58.4837750
  58.4129460  40.9319790  58.7736320  59.8400290  40.7325000  58.3093910
  63.2094790  45.8179540  57.2636880  62.7476320  45.0466780  57.5924050
  64.0220340  45.8445610  57.7689330  53.1854450  45.7579250  59.5571530
  53.4882490  44.8676990  59.3781750  53.9298040  46.3149470  59.3293780
  59.4358100  48.1037550  56.8840870  58.8169540  48.5595050  56.3135310
  60.2909880  48.2589010  56.4830570  58.6296350  44.0876540  58.4907910
  58.5604630  43.1466480  58.3297040  59.3916210  44.1777950  59.0630480
  50.8203020  34.6931060  60.8164530  50.6405860  33.7956810  61.0967290
  50.4183100  35.2402930  61.4911480  67.7325190  36.4064110  62.2148810
  67.0277360  36.7945820  61.6963920  67.9983110  37.1014400  62.8169740
  53.9150360  32.8757480  62.7782880  53.9168800  33.3929870  61.9728780
  53.0854670  32.3987660  62.7552810  60.3021450  42.9876790  54.2772780
  59.6838720  43.4526240  53.7135500  60.8144700  43.6804270  54.6942290
  55.1653210  42.5152660  60.9556380  54.8322590  43.1421580  61.5977450
  55.3419890  43.0414540  60.1758050  63.6787120  36.3297740  58.4232720
  62.9742690  36.6182630  59.0035830  64.0399280  37.1397850  58.0632280
  49.6704650  43.6733320  51.6512410  49.2932630  44.1620420  50.9197310
  49.9277720  44.3458600  52.2818940  66.7474040  35.7752530  58.8141930
  65.7998950  35.8091510  58.9457360  67.0724030  36.5891480  59.1991290
  62.8308640  47.7917000  59.4005380  62.8435800  47.3879290  58.5327640
  62.2783860  48.5664290  59.2966810  62.2294080  42.6946840  60.7287990
  62.6462870  42.4806950  59.8941450  62.9533900  42.9519630  61.2996610
  59.6674340  40.1398540  53.8458040  58.7403620  40.0735920  54.0746510
  59.8199160  41.0778670  53.7313280  66.1756180  41.0934060  60.8204230
  65.3474810  41.1627150  60.3454360  66.7706660  41.6788370  60.3520060
  63.6971630  41.7018840  54.3493290  63.0784050  41.3638390  53.7019590
  63.6796080  41.0578600  55.0572480  63.1398190  37.8803380  61.7659100
  62.7269370  38.7057090  62.0199090  62.4074140  37.2948420  61.5735460
  61.8736330  40.9405650  51.3566040  62.3129610  40.1028080  51.2103860
  62.5864750  41.5735050  51.4430180  59.9831710  45.8801720  55.3247280
  60.4227620  46.6226050  54.9102670  59.9218600  46.1228290  56.2486240
  49.6120980  42.7323400  59.9353060  49.6901400  42.8672170  58.9908780
  50.2262660  42.0239290  60.1281180  50.8568610  44.4323590  56.3459240
  50.4496690  44.5738180  55.4912840  51.7481620  44.1483750  56.1430450
  66.8130750  44.8787500  64.6831480  66.9393810  44.6399380  63.7648660
  66.8552130  44.0472040  65.1553560  60.6747490  48.5815500  63.2526290
  61.1892160  48.4923510  64.0548720  59.8316570  48.9275200  63.5454200
  55.1290270  48.6469370  54.4581910  54.9532750  47.7304910  54.2449710
  54.2746010  49.0056660  54.6979710  66.6654760  36.9319960  65.6481220
  66.0499030  37.4399630  65.1196680  66.3451180  36.0318290  65.5907160
  49.6680500  43.7737570  62.4747520  49.8311540  43.3042930  61.6566890
  50.1332950  43.2661130  63.1396360  63.7273590  36.9920800  64.2440070
  62.8767180  36.6926550  64.5649140  63.5675380  37.2362810  63.3323890
  60.8223300  38.4922550  66.3438860  61.1476710  37.6586300  66.0041090
  61.6103630  39.0151070  66.4917190  49.1040290  33.2604610  58.0913470
  48.8153340  33.8307470  58.8038450  49.8486050  32.7809060  58.4544700
  60.6531260  39.2609560  59.9634050  59.9212380  39.7696370  60.3124150
  60.2555600  38.4439540  59.6622830  61.1157170  34.7143240  59.3756990
  61.1329910  35.1651890  60.2198840  60.8672750  33.8148880  59.5890430
  56.1650300  39.2476980  50.7576600  55.5967200  38.7995230  50.1312510
  56.8739300  39.6069760  50.2241750  64.5427920  32.1275420  65.2143370
  64.8673690  31.3965080  65.7401350  64.5784430  31.8089060  64.3124360
  64.4685760  42.2400530  58.8229400  65.1884880  42.7355820  58.4325510
  64.2667580  41.5618420  58.1783270  62.6444090  38.0058140  51.2620950
  63.5323710  38.3175370  51.0872290  62.6149180  37.1330390  50.8701530
  58.6404680  44.1781830  51.9409120  58.9820380  44.9224060  51.4452440
  57.8117390  44.4912950  52.3033950  64.9158360  39.3169980  50.7300810
  64.8322080  39.7484200  49.8797250  65.6352550  39.7768330  51.1627630
  65.9932500  41.7737500  63.8070780  65.2680690  42.3666280  63.6100170
  66.5207960  41.7661040  63.0084150  61.5232090  43.4997670  57.3054630
  61.8755910  42.9025800  56.6456000  60.6394420  43.1741900  57.4762880
  57.6095370  44.2595360  54.7125040  58.2966500  44.8064570  55.0932630
  56.8227790  44.8036090  54.7474650  59.2155190  46.7747730  61.5542700
  59.8597410  46.9807110  62.2316120  59.5784630  46.0136130  61.1013550
  60.4887270  44.7780080  60.2720150  61.1309500  44.0773240  60.3852320
  61.0136620  45.5578520  60.0917040  62.2624890  45.5774980  63.4756210
  62.5981130  46.1641670  64.1534130  61.3425230  45.4467690  63.7054000
  50.1159020  49.0895560  50.7703750  50.4756660  49.6884900  50.1161020
  49.9751360  49.6355450  51.5438780  50.1000880  47.3550420  65.2446150
  50.2092000  46.4145160  65.1041540  49.4481440  47.6205170  64.5959880
  56.1327640  46.4726760  51.5877420  56.1237740  47.2056450  50.9721930
  55.2126000  46.2258340  51.6804380  51.7334280  41.6941650  52.3324180
  51.1262230  42.4340550  52.3419480  52.2083630  41.7841010  51.5062380
  64.6729100  34.8149410  52.8168630  64.0442260  34.9195080  52.1026860
  64.1781020  35.0346190  53.6062510  59.1187240  46.5355000  50.2502610
  59.2199220  46.3318990  49.3204590  58.2188980  46.2813280  50.4550390
  57.7605350  49.0541320  54.9450280  58.0146850  49.0162710  54.0229650
  56.8117830  48.9274650  54.9378530  65.4735920  34.7300020  63.0747430
  64.9709520  35.4705420  63.4141240  66.2892580  35.1184020  62.7584220
  63.7657930  39.9733200  56.5208790  62.8248070  39.9883430  56.6956480
  64.0802000  39.1869160  56.9669090  53.7439570  41.6552800  50.0812750
  54.5102840  41.5434160  50.6438180  53.8214260  40.9590770  49.4289520
  52.4386330  39.0877870  50.7645640  52.5189920  38.1405380  50.8763040
  53.3306080  39.4184750  50.8706300  53.2401040  49.2373260  57.8680180
  53.9763520  48.6888720  58.1388750  53.6241960  50.1029270  57.7286170
  50.1246520  45.3046830  53.7421690  49.1986300  45.5467970  53.7327100
  50.5902950  46.1321090  53.6206440  56.3503350  48.4103570  49.6905750
  57.1431960  48.6992400  49.2387540  55.8307700  47.9795740  49.0118230
  62.5124320  48.2579490  65.6150580  63.4646070  48.1737510  65.5650820
  62.3652540  48.9221200  66.2884370  56.8680750  43.6306980  49.5548100
  56.7631390  43.0159330  50.2809480  56.7004970  43.1072870  48.7711110
  60.1083480  42.6927010  50.1590090  59.5593580  43.1396310  50.8032830
  60.7302740  42.1876260  50.6827760  55.7758600  41.6517930  52.0555390
  56.1975020  41.4857800  52.8986780  55.9009440  40.8418160  51.5610530
  58.2886240  40.6755540  49.3032490  58.8091900  39.9604560  48.9373640
  58.9354640  41.3141410  49.6033000  62.8364080  42.0983940  64.6267560
  63.2505100  42.2529020  65.4757980  61.9015080  42.2239160  64.7893340
  62.2731110  40.3357790  62.5563840  61.7466330  40.8600410  61.9528980
  62.6162450  40.9685180  63.1873570  54.6717500  37.7251160  49.0013550
  54.4706560  36.8618520  49.3626890  54.5009550  37.6384520  48.0635150
  61.5205410  35.9407760  65.4710170  60.8320930  35.2789300  65.4060160
  62.2411430  35.4946030  65.9158630  53.4700300  34.8251780  48.9891430
  53.7726200  34.8319210  48.0810580  54.2094890  34.4749640  49.4859090
  58.8534270  48.7567150  51.5934230  59.7485060  49.0952120  51.6152990
  58.8851900  48.0346560  50.9658510  52.4930430  44.1294200  49.8221230
  52.9305300  44.6723870  50.4778810  52.9778160  43.3041150  49.8317570
  49.7076230  46.9183230  57.2741490  50.0379240  46.0504290  57.0420130
  50.1367230  47.1241750  58.1046450  54.3038150  45.2492240  54.9343460
  54.0033690  45.1257210  55.8347370  54.1975640  44.3900830  54.5259190
  50.1966440  47.7853820  60.0123120  49.7597430  47.9654620  60.8447270
  50.7644120  48.5428440  59.8704840  67.5346500  42.6286220  56.9846270
  67.9055330  41.8453540  56.5782240  68.1748430  43.3175320  56.8063570
  64.5180260  44.0122800  62.3976590  63.7040100  44.4419960  62.6602380
  64.9254460  44.6241210  61.7845640  66.4771040  40.0039480  54.2906290
  66.1014640  39.2367410  53.8587580  65.7474160  40.3862180  54.7781220
  65.8670660  39.1511000  63.9245810  65.6356750  38.9223750  63.0243760
  66.1275210  40.0710550  63.8790700  64.3058730  34.3767430  66.7025510
  65.1828910  34.3850830  67.0859510  64.3179570  33.6398270  66.0917860
  65.7522000  38.2296970  57.5913530  66.2759480  37.7359620  56.9603700
  66.3381420  38.3647330  58.3361100  65.9311720  38.3136840  61.1133080
  64.9814430  38.2800380  61.2278070  66.1124730  39.2236950  60.8782850
  51.7856160  36.5638520  50.2231710  52.4947860  36.1421740  49.7378990
  51.0696100  36.6313750  49.5915060  51.4330320  32.6177850  49.2634360
  52.1558450  33.1586790  49.5815580  51.7054840  32.3441270  48.3875900
  65.2421970  37.4870320  53.5305940  65.7381090  37.2541190  54.3154820
  65.0438040  36.6482160  53.1143580  66.6709130  36.1231270  56.0643620
  66.5608410  35.9687310  57.0025890  67.4316720  35.5952210  55.8219030
  65.0174850  32.0625400  62.5226620  65.6547070  32.6759540  62.8885810
  65.1649740  32.0986060  61.5775850  50.8754510  32.0239710  61.9082300
  50.5269330  32.4803530  62.6740480  50.5442210  31.1296840  61.9904730
  56.1824910  46.7518900  61.6745210  55.9416270  47.0193460  60.7875730
  57.1227550  46.9224630  61.7296070  58.3879330  33.2151590  65.4301720
  58.3268220  33.8073420  66.1797130  59.3279710  33.1077550  65.2851980
  61.0253890  32.8721650  65.0694010  61.6394300  33.1900940  64.4075090
  61.5703450  32.3870240  65.6889870  61.7661930  31.4353790  61.3963300
  60.8921770  31.7688900  61.1936230  61.6572680  30.9626970  62.2215170
  62.6733910  33.6424660  62.7805020  62.3447270  32.8276420  62.4006750
  63.6216210  33.5994470  62.6570710  51.9519140  45.5079940  62.1441310
  51.2253200  44.8885230  62.0767260  52.0128290  45.9020550  61.2739390
  55.5564240  47.7224940  58.9290720  56.0729260  47.1112300  58.4038980
  56.2061620  48.2253720  59.4201730  58.2959740  48.6133430  59.7559700
  58.5837550  48.3587730  58.8792710  58.8082960  48.0610790  60.3465270
  59.5136750  32.3523630  60.3356210  58.7308540  32.8269130  60.6152970
  59.2199680  31.4478460  60.2269390  64.0657820  33.0546730  58.3805300
  64.5065910  32.9991830  57.5326900  63.7965410  33.9704740  58.4515480
  65.9296390  32.6861970  56.3914120  65.8684790  31.7423190  56.2445140
  66.7088420  32.7942060  56.9367580  50.2349140  48.8254330  55.3538070
  50.0671180  48.1925010  56.0519960  49.3683650  49.0313730  55.0032260
  61.9015950  31.4352830  57.0855310  62.5045320  32.0073040  57.5603830
  61.1608940  31.9992270  56.8629210  65.0450550  31.8374390  52.3595590
  65.2401180  32.7357840  52.6263020  64.2580420  31.6061470  52.8528540
  51.8411840  47.5187560  52.7988210  51.3159460  47.8995590  52.0950170
  51.7656420  48.1438330  53.5197920  55.5495710  32.1994280  66.8869780
  55.2679980  32.7027880  66.1230600  55.9315410  31.4016030  66.5211910
  54.4404810  49.4669940  51.6737460  55.1723630  49.1829220  51.1261350
  54.6998480  49.2283220  52.5636840  53.6019600  45.5834670  51.6783790
  52.9728480  46.0519770  52.2269620  53.7167430  44.7383890  52.1129980
  62.1511170  31.6147860  67.4650250  62.0376620  31.9342470  68.3601770
  62.9680910  32.0160370  67.1687530  64.9309660  48.7619390  66.9468940
  65.7234980  48.2668620  66.7394900  65.2242810  49.4409530  67.5544550
  61.0569320  39.6340330  37.8284990  60.9763370  38.7194940  37.5576700
  60.6433740  40.1307400  37.1224700  59.1887360  41.4119350  39.7094260
  58.4129460  40.9319790  39.9992830  59.8400290  40.7325000  39.5350420
  63.2094790  45.8179540  38.4893390  62.7476320  45.0466780  38.8180560
  64.0220340  45.8445610  38.9945840  51.6145140  36.6841050  34.3712410
  50.7261840  37.0257020  34.2692290  51.8986330  36.4841370  33.4793240
  49.5778150  39.2846700  40.2552110  50.1494260  38.5168900  40.2555750
  49.5779690  39.5835460  39.3458720  59.4358100  48.1037550  38.1097380
  58.8169540  48.5595050  37.5391820  60.2909880  48.2589010  37.7087080
  58.6296350  44.0876540  39.7164420  58.5604630  43.1466480  39.5553550
  59.3916210  44.1777950  40.2886990  50.8203020  34.6931060  42.0421040
  50.6405860  33.7956810  42.3223800  50.4183100  35.2402930  42.7167990
  59.6601520  36.8946920  39.9433350  60.0366340  36.0218800  39.8307020
  59.5621030  37.2305620  39.0523790  53.7906530  35.2672550  35.4050790
  53.8973280  36.1676280  35.7119550  52.8798890  35.2190520  35.1145440
  63.4425640  34.3897360  36.8761690  64.2635260  33.8993930  36.9187170
  63.4759720  34.9795020  37.6293530  51.4389690  37.1891560  40.6503380
  52.1199800  37.4529930  41.2690780  51.1237740  36.3492430  40.9841390
  55.6314260  38.2358920  39.7375970  56.1392480  38.7339890  40.3780990
  56.1627500  37.4594120  39.5615330  67.7325190  36.4064110  43.4405320
  67.0277360  36.7945820  42.9220430  67.9983110  37.1014400  44.0426250
  53.9150360  32.8757480  44.0039390  53.9168800  33.3929870  43.1985290
  53.0854670  32.3987660  43.9809320  60.3021450  42.9876790  35.5029290
  59.6838720  43.4526240  34.9392010  60.8144700  43.6804270  35.9198800
  63.6787120  36.3297740  39.6489230  62.9742690  36.6182630  40.2292340
  64.0399280  37.1397850  39.2888790  53.5965690  34.5867440  42.0109840
  53.9382500  35.4309490  41.7163710  52.6581500  34.7351180  42.1275180
  65.2949900  45.9472870  41.9116710  64.6113420  46.6171980  41.9033380
  65.8344190  46.1453520  41.1461570  66.7474040  35.7752530  40.0398440
  65.7998950  35.8091510  40.1713870  67.0724030  36.5891480  40.4247800
  57.2793580  32.0749710  38.3354430  57.5868560  31.5196600  37.6189930
  56.3494280  32.2094170  38.1527420  62.8308640  47.7917000  40.6261890
  62.8435800  47.3879290  39.7584150  62.2783860  48.5664290  40.5223320
  62.2294080  42.6946840  41.9544500  62.6462870  42.4806950  41.1197960
  62.9533900  42.9519630  42.5253120  59.6674340  40.1398540  35.0714550
  58.7403620  40.0735920  35.3003020  59.8199160  41.0778670  34.9569790
  59.6543420  36.4115540  32.0681710  58.7147090  36.5729500  32.1534170
  59.9726680  37.1301220  31.5217700  66.1756180  41.0934060  42.0460740
  65.3474810  41.1627150  41.5710870  66.7706660  41.6788370  41.5776570
  63.6971630  41.7018840  35.5749800  63.0784050  41.3638390  34.9276100
  63.6796080  41.0578600  36.2828990  63.1398190  37.8803380  42.9915610
  62.7269370  38.7057090  43.2455600  62.4074140  37.2948420  42.7991970
  55.2730980  40.6663280  37.8534280  54.8687980  39.9540530  37.3580180
  55.3594100  40.3216520  38.7422320  53.9859600  37.4406490  41.6333320
  54.5374190  37.5501830  40.8586570  54.5003110  37.8144090  42.3488550
  63.8298290  47.9262710  43.6796590  63.3528850  48.7334900  43.4869200
  63.1460080  47.2741040  43.8322800  61.8736330  40.9405650  32.5822550
  62.3129610  40.1028080  32.4360370  62.5864750  41.5735050  32.6686690
  65.4553470  32.1948460  30.8963590  65.1426130  32.2875290  31.7962660
  66.2165940  32.7729490  30.8461020  51.9735610  39.5608260  35.3540930
  51.8533210  40.2870350  34.7422200  51.6636500  38.7911170  34.8768840
  50.8568610  44.4323590  37.5715750  50.4496690  44.5738180  36.7169350
  51.7481620  44.1483750  37.3686960  60.6747490  48.5815500  44.4782800
  61.1892160  48.4923510  45.2805230  59.8316570  48.9275200  44.7710710
  54.4399270  32.9043330  38.7364600  53.9967420  33.6852870  38.4049120
  54.9984260  33.2273220  39.4435540  58.7269080  35.7711850  44.3399920
  58.2648450  35.9794870  45.1519860  58.3247190  34.9571200  44.0370590
  63.7273590  36.9920800  45.4696580  62.8767180  36.6926550  45.7905650
  63.5675380  37.2362810  44.5580400  60.8223300  38.4922550  47.5695370
  61.1476710  37.6586300  47.2297600  61.6103630  39.0151070  47.7173700
  57.5558090  32.5254030  33.6170430  56.9312270  32.5213900  34.3423740
  57.4688210  31.6584990  33.2206400  56.4775170  33.4490660  40.5954200
  56.7747500  34.3553490  40.5146220  57.0260730  32.9609440  39.9813770
  54.2313490  38.0276900  36.4645850  54.0054410  37.8114070  37.3692470
  53.4506020  38.4605360  36.1191820  61.4611250  38.0340270  35.0636500
  60.8620140  38.7576070  34.8800120  62.0090860  37.9717050  34.2812950
  56.6712700  38.9262480  47.1306120  56.5756300  37.9857210  46.9806520
  57.5144680  39.1477550  46.7354190  60.0676120  36.6703810  37.0939780
  60.4605690  36.9876010  36.2808470  60.4292970  35.7915690  37.2084300
  51.8023240  35.3376150  45.2839900  51.4086630  36.1851360  45.4912680
  51.1141640  34.7002520  45.4748540  49.1040290  33.2604610  39.3169980
  48.8153340  33.8307470  40.0294960  49.8486050  32.7809060  39.6801210
  49.2910520  37.2024730  30.5272700  49.2085190  38.1455490  30.6687690
  48.9393580  37.0599640  29.6485050  60.6531260  39.2609560  41.1890560
  59.9212380  39.7696370  41.5380660  60.2555600  38.4439540  40.8879340
  57.0908650  35.9363760  39.5943050  57.0944710  35.4953710  38.7447590
  57.9859770  36.2581090  39.7014870  52.9411030  35.8190250  38.5537260
  52.6011080  36.2965480  39.3104310  52.1788350  35.3655370  38.1938360
  57.1528800  36.9375840  32.5849810  57.2741620  36.8962320  33.5335630
  56.7677310  37.7999990  32.4296540  61.1157170  34.7143240  40.6013500
  61.1329910  35.1651890  41.4455350  60.8672750  33.8148880  40.8146940
  56.1650300  39.2476980  31.9833110  55.5967200  38.7995230  31.3569020
  56.8739300  39.6069760  31.4498260  57.3916620  39.9965540  41.3408460
  57.7586750  39.5224110  42.0869800  57.2021680  40.8707110  41.6816800
  50.2557110  34.7409230  37.4701930  49.9704030  34.3764900  38.3080550
  50.1935970  34.0089690  36.8565070  55.1815990  39.0374180  43.6592670
  54.8773060  39.9166160  43.8843030  56.1362450  39.0973970  43.6950110
  64.4685760  42.2400530  40.0485910  65.1884880  42.7355820  39.6582020
  64.2667580  41.5618420  39.4039780  59.9295700  33.6338490  34.1915300
  59.1160310  33.1351660  34.1160610  59.7357650  34.4736740  33.7751650
  59.8504560  42.3109590  45.9354910  59.7841870  41.3905260  45.6812500
  59.2209700  42.4085030  46.6499550  62.6444090  38.0058140  32.4877460
  63.5323710  38.3175370  32.3128800  62.6149180  37.1330390  32.0958040
  53.7535180  42.9115550  37.8938330  54.2713850  42.1083810  37.8395220
  53.3019200  42.8494690  38.7355160  54.4392840  40.3361160  47.6903580
  54.1392980  40.4818340  46.7931400  55.2104080  39.7766450  47.5976970
  59.7821290  45.1330160  45.6858710  59.7965830  44.2011120  45.4677620
  59.0746390  45.2189920  46.3248480  64.9158360  39.3169980  31.9557320
  64.8322080  39.7484200  31.1053760  65.6352550  39.7768330  32.3884140
  65.9932500  41.7737500  45.0327290  65.2680690  42.3666280  44.8356680
  66.5207960  41.7661040  44.2340660  61.5232090  43.4997670  38.5311140
  61.8755910  42.9025800  37.8712510  60.6394420  43.1741900  38.7019390
  57.6095370  44.2595360  35.9381550  58.2966500  44.8064570  36.3189140
  56.8227790  44.8036090  35.9731160  56.9122580  41.2641390  35.5506910
  57.3685360  42.0746640  35.7767100  56.5610790  40.9464530  36.3825400
  59.2155190  46.7747730  42.7799210  59.8597410  46.9807110  43.4572630
  59.5784630  46.0136130  42.3270060  52.8134360  31.6079040  36.0229430
  52.6848990  31.5996940  36.9714350  51.9896380  31.9462130  35.6720440
  60.4887270  44.7780080  41.4976660  61.1309500  44.0773240  41.6108830
  61.0136620  45.5578520  41.3173550  62.2624890  45.5774980  44.7012720
  62.5981130  46.1641670  45.3790640  61.3425230  45.4467690  44.9310510
  58.0913470  45.6266310  47.8700780  57.7710340  44.9075550  48.4146470
  57.4171830  46.3021380  47.9436840  64.6729100  34.8149410  34.0425140
  64.0442260  34.9195080  33.3283370  64.1781020  35.0346190  34.8319020
  56.6413130  37.0935360  35.4583020  55.9329280  37.5621700  35.8996630
  56.9257610  36.4357370  36.0928210  58.2669060  38.5132060  43.4575550
  58.7654310  38.9877880  44.1227400  58.4092010  37.5895580  43.6645580
  60.6728560  33.8186020  36.8978810  60.5496340  33.8372150  35.9488320
  61.6213120  33.8664960  37.0177210  54.8448150  35.4020440  32.8333730
  55.6938680  35.8390590  32.7673920  54.4779420  35.7140700  33.6605790
  65.4735920  34.7300020  44.3003940  64.9709520  35.4705420  44.6397750
  66.2892580  35.1184020  43.9840730  63.7657930  39.9733200  37.7465300
  62.8248070  39.9883430  37.9212990  64.0802000  39.1869160  38.1925600
  52.4386330  39.0877870  31.9902150  52.5189920  38.1405380  32.1019550
  53.3306080  39.4184750  32.0962810  65.7683510  47.1442050  39.4219560
  65.8930930  47.9673220  39.8943370  66.6349070  46.9332780  39.0743710
  53.2401040  49.2373260  39.0936690  53.9763520  48.6888720  39.3645260
  53.6241960  50.1029270  38.9542680  52.2459320  48.4219330  48.2822270
  53.0472050  48.7431380  48.6957670  51.7311140  48.0614910  49.0042180
  61.0823950  44.5299200  48.2297680  60.4762110  44.5530800  47.4893430
  60.7778060  43.7982240  48.7664930  62.5124320  48.2579490  46.8407090
  63.4646070  48.1737510  46.7907330  62.3652540  48.9221200  47.5140880
  49.9657130  40.9092790  47.2258320  50.4696150  40.3300070  47.7974550
  49.2264550  41.1933020  47.7634690  57.0195070  42.3163780  46.7593840
  56.2540740  42.8848780  46.6748510  57.2011030  42.0239990  45.8662070
  64.1618420  44.0469110  47.3168860  64.9027890  44.3844870  46.8136320
  63.3991100  44.2161170  46.7638630  51.9980210  39.0522380  48.1208390
  52.0385550  38.7536250  49.0293620  52.8525710  39.4529990  47.9615910
  55.7758600  41.6517930  33.2811900  56.1975020  41.4857800  34.1243290
  55.9009440  40.8418160  32.7867040  53.9386020  37.6314480  46.0882880
  53.4082480  37.1405430  45.4606220  54.6074090  38.0598680  45.5540810
  62.8364080  42.0983940  45.8524070  63.2505100  42.2529020  46.7014490
  61.9015080  42.2239160  46.0149850  63.3086250  39.4380100  47.8563220
  63.8907020  38.6832420  47.7683700  63.4848020  39.9687540  47.0794700
  54.4258320  34.5976850  46.1680170  54.3315190  33.9797600  45.4431040
  53.8455710  35.3243140  45.9410080  57.1919760  33.1550090  43.2007560
  56.7437060  33.1774350  42.3553110  56.5584960  32.7569110  43.7977860
  57.5979310  42.0504420  43.8220000  58.0167420  42.8937150  43.6496240
  56.6787940  42.1876460  43.5926780  59.9343210  39.7820600  45.2057840
  60.0539420  39.1861740  45.9452680  60.7937210  39.8190290  44.7859140
  62.2731110  40.3357790  43.7820350  61.7466330  40.8600410  43.1785490
  62.6162450  40.9685180  44.4130080  54.6717500  37.7251160  30.2270060
  54.4706560  36.8618520  30.5883400  54.5009550  37.6384520  29.2891660
  56.7011980  36.3241950  46.4633660  57.2911670  36.0157800  47.1511480
  55.8832220  35.8521700  46.6193560  62.1505810  32.5359390  32.7556940
  62.4308100  31.6927290  33.1116360  61.3771540  32.7682500  33.2695690
  53.4700300  34.8251780  30.2147940  53.7726200  34.8319210  29.3067090
  54.2094890  34.4749640  30.7115600  58.3048940  49.5908640  45.1964380
  58.2307640  50.4943780  45.5036750  57.4027780  49.2720540  45.1686450
  56.6885230  33.7686400  31.2004140  56.3407230  33.0910390  30.6206590
  56.8898000  33.3075910  32.0147530  49.7076230  46.9183230  38.4998000
  50.0379240  46.0504290  38.2676640  50.1367230  47.1241750  39.3302960
  54.3038150  45.2492240  36.1599970  54.0033690  45.1257210  37.0603880
  54.1975640  44.3900830  35.7515700  65.8328620  47.2870820  45.5256940
  65.2330610  47.3463380  44.7820860  65.9622520  46.3475800  45.6553790
  66.5286530  41.7736120  33.3660850  67.2905440  42.3432770  33.4720540
  66.5440900  41.2063320  34.1369160  50.0290870  40.2974050  37.5968510
  49.3739710  40.0285690  36.9528210  50.8668820  40.1878530  37.1470490
  67.5346500  42.6286220  38.2102780  67.9055330  41.8453540  37.8038750
  68.1748430  43.3175320  38.0320080  64.5180260  44.0122800  43.6233100
  63.7040100  44.4419960  43.8858890  64.9254460  44.6241210  43.0102150
  66.5805700  42.0670490  30.5233370  66.8554540  42.9749370  30.3952590
  66.3916440  42.0033020  31.4595360  62.9781310  35.0915340  31.8187000
  63.3966190  34.9046320  30.9783660  62.6717370  34.2394390  32.1289930
  66.4771040  40.0039480  35.5162800  66.1014640  39.2367410  35.0844090
  65.7474160  40.3862180  36.0037730  65.8670660  39.1511000  45.1502320
  65.6356750  38.9223750  44.2500270  66.1275210  40.0710550  45.1047210
  49.2428950  37.5072980  33.5393840  48.3393030  37.7703180  33.3645500
  49.7269570  37.7784150  32.7593800  65.7522000  38.2296970  38.8170040
  66.2759480  37.7359620  38.1860210  66.3381420  38.3647330  39.5617610
  65.9311720  38.3136840  42.3389590  64.9814430  38.2800380  42.4534580
  66.1124730  39.2236950  42.1039360  51.7856160  36.5638520  31.4488220
  52.4947860  36.1421740  30.9635500  51.0696100  36.6313750  30.8171570
  51.4330320  32.6177850  30.4890870  52.1558450  33.1586790  30.8072090
  51.7054840  32.3441270  29.6132410  65.2421970  37.4870320  34.7562450
  65.7381090  37.2541190  35.5411330  65.0438040  36.6482160  34.3400090
  51.1222510  31.8684040  40.3913490  51.7698700  31.3181420  39.9508650
  51.5424350  32.1227190  41.2129300  66.6709130  36.1231270  37.2900130
  66.5608410  35.9687310  38.2282400  67.4316720  35.5952210  37.0475540
  67.5599400  33.9539190  30.5306270  68.4848710  33.8220370  30.3224560
  67.5375190  34.0332010  31.4842720  67.6337890  34.7249850  33.1562980
  66.8389390  34.6594970  33.6855890  67.8381170  35.6600490  33.1448330
  50.8754510  32.0239710  43.1338810  50.5269330  32.4803530  43.8996990
  50.5442210  31.1296840  43.2161240  67.4429070  48.7713280  43.7012360
  66.9487350  49.1682150  42.9839490  66.8342360  48.1462490  44.0949640
  51.5475150  31.5515910  46.4089580  52.0958140  31.3703960  45.6455690
  51.6130460  30.7610020  46.9445890  65.1268520  49.4136700  40.9799100
  64.6671490  50.1652510  40.6057120  64.4980980  48.6943170  40.9213900
  55.5564240  47.7224940  40.1547230  56.0729260  47.1112300  39.6295490
  56.2061620  48.2253720  40.6458240  58.2959740  48.6133430  40.9816210
  58.5837550  48.3587730  40.1049220  58.8082960  48.0610790  41.5721780
  59.5136750  32.3523630  41.5612720  58.7308540  32.8269130  41.8409480
  59.2199680  31.4478460  41.4525900  64.0657820  33.0546730  39.6061810
  64.5065910  32.9991830  38.7583410  63.7965410  33.9704740  39.6771990
  65.9296390  32.6861970  37.6170630  65.8684790  31.7423190  37.4701650
  66.7088420  32.7942060  38.1624090  50.8577160  32.6571110  34.0826440
  51.6156520  32.7699990  33.5090470  50.3954330  33.4940310  34.0369870
  57.3990970  34.7710380  37.0728750  56.5865480  34.3967270  36.7324630
  57.9032610  34.0155460  37.3749940  61.9015950  31.4352830  38.3111820
  62.5045320  32.0073040  38.7860340  61.1608940  31.9992270  38.0885720
  65.0450550  31.8374390  33.5852100  65.2401180  32.7357840  33.8519530
  64.2580420  31.6061470  34.0785050  53.2302310  33.1835160  32.6228410
  53.7595070  32.3964960  32.4936360  53.8630630  33.8626350  32.8563940
  55.4240150  32.9210300  35.6773800  54.7942890  32.2197610  35.8443930
  54.8845290  33.6814430  35.4606960  58.3632100  49.5349530  48.3484410
  59.2899410  49.2993800  48.3920370  58.3482530  50.3621530  47.8670440
  55.5495710  32.1994280  48.1126290  55.2679980  32.7027880  47.3487110
  55.9315410  31.4016030  47.7468420  61.0569320  39.6340330  19.0541500
  60.9763370  38.7194940  18.7833210  60.6433740  40.1307400  18.3481210
  59.1887360  41.4119350  20.9350770  58.4129460  40.9319790  21.2249340
  59.8400290  40.7325000  20.7606930  53.2053190  41.7239160  21.8126530
  52.3738070  41.4687870  22.2123040  53.8134170  41.7949930  22.5484450
  63.2094790  45.8179540  19.7149900  62.7476320  45.0466780  20.0437070
  64.0220340  45.8445610  20.2202350  53.1854450  45.7579250  22.0084550
  53.4882490  44.8676990  21.8294770  53.9298040  46.3149470  21.7806800
  51.6145140  36.6841050  15.5968920  50.7261840  37.0257020  15.4948800
  51.8986330  36.4841370  14.7049750  49.5778150  39.2846700  21.4808620
  50.1494260  38.5168900  21.4812260  49.5779690  39.5835460  20.5715230
  59.4358100  48.1037550  19.3353890  58.8169540  48.5595050  18.7648330
  60.2909880  48.2589010  18.9343590  58.6296350  44.0876540  20.9420930
  58.5604630  43.1466480  20.7810060  59.3916210  44.1777950  21.5143500
  50.8203020  34.6931060  23.2677550  50.6405860  33.7956810  23.5480310
  50.4183100  35.2402930  23.9424500  59.6601520  36.8946920  21.1689860
  60.0366340  36.0218800  21.0563530  59.5621030  37.2305620  20.2780300
  53.7906530  35.2672550  16.6307300  53.8973280  36.1676280  16.9376060
  52.8798890  35.2190520  16.3401950  63.4425640  34.3897360  18.1018200
  64.2635260  33.8993930  18.1443680  63.4759720  34.9795020  18.8550040
  51.4389690  37.1891560  21.8759890  52.1199800  37.4529930  22.4947290
  51.1237740  36.3492430  22.2097900  55.6314260  38.2358920  20.9632480
  56.1392480  38.7339890  21.6037500  56.1627500  37.4594120  20.7871840
  67.7325190  36.4064110  24.6661830  67.0277360  36.7945820  24.1476940
  67.9983110  37.1014400  25.2682760  53.9150360  32.8757480  25.2295900
  53.9168800  33.3929870  24.4241800  53.0854670  32.3987660  25.2065830
  60.3021450  42.9876790  16.7285800  59.6838720  43.4526240  16.1648520
  60.8144700  43.6804270  17.1455310  55.1653210  42.5152660  23.4069400
  54.8322590  43.1421580  24.0490470  55.3419890  43.0414540  22.6271070
  63.6787120  36.3297740  20.8745740  62.9742690  36.6182630  21.4548850
  64.0399280  37.1397850  20.5145300  53.5965690  34.5867440  23.2366350
  53.9382500  35.4309490  22.9420220  52.6581500  34.7351180  23.3531690
  54.3772310  44.4833460  25.2218580  54.9946310  45.1584540  24.9403030
  53.5165430  44.8921440  25.1306080  49.6704650  43.6733320  14.1025430
  49.2932630  44.1620420  13.3710330  49.9277720  44.3458600  14.7331960
  65.2949900  45.9472870  23.1373220  64.6113420  46.6171980  23.1289890
  65.8344190  46.1453520  22.3718080  66.7474040  35.7752530  21.2654950
  65.7998950  35.8091510  21.3970380  67.0724030  36.5891480  21.6504310
  57.2793580  32.0749710  19.5610940  57.5868560  31.5196600  18.8446440
  56.3494280  32.2094170  19.3783930  62.8308640  47.7917000  21.8518400
  62.8435800  47.3879290  20.9840660  62.2783860  48.5664290  21.7479830
  64.1254060  44.5133220  16.9408570  64.0150390  43.5707550  17.0657990
  64.1222310  44.8748860  17.8271330  62.2294080  42.6946840  23.1801010
  62.6462870  42.4806950  22.3454470  62.9533900  42.9519630  23.7509630
  59.6674340  40.1398540  16.2971060  58.7403620  40.0735920  16.5259530
  59.8199160  41.0778670  16.1826300  59.6543420  36.4115540  13.2938220
  58.7147090  36.5729500  13.3790680  59.9726680  37.1301220  12.7474210
  66.1756180  41.0934060  23.2717250  65.3474810  41.1627150  22.7967380
  66.7706660  41.6788370  22.8033080  63.6971630  41.7018840  16.8006310
  63.0784050  41.3638390  16.1532610  63.6796080  41.0578600  17.5085500
  63.1398190  37.8803380  24.2172120  62.7269370  38.7057090  24.4712110
  62.4074140  37.2948420  24.0248480  55.2730980  40.6663280  19.0790790
  54.8687980  39.9540530  18.5836690  55.3594100  40.3216520  19.9678830
  55.7412680  44.3530840  21.2430000  55.4440970  43.7476310  20.5637780
  56.6912500  44.3908150  21.1319360  53.9859600  37.4406490  22.8589830
  54.5374190  37.5501830  22.0843080  54.5003110  37.8144090  23.5745060
  63.8298290  47.9262710  24.9053100  63.3528850  48.7334900  24.7125710
  63.1460080  47.2741040  25.0579310  61.8736330  40.9405650  13.8079060
  62.3129610  40.1028080  13.6616880  62.5864750  41.5735050  13.8943200
  59.9831710  45.8801720  17.7760300  60.4227620  46.6226050  17.3615690
  59.9218600  46.1228290  18.6999260  65.4553470  32.1948460  12.1220100
  65.1426130  32.2875290  13.0219170  66.2165940  32.7729490  12.0717530
  51.9735610  39.5608260  16.5797440  51.8533210  40.2870350  15.9678710
  51.6636500  38.7911170  16.1025350  49.6120980  42.7323400  22.3866080
  49.6901400  42.8672170  21.4421800  50.2262660  42.0239290  22.5794200
  50.8568610  44.4323590  18.7972260  50.4496690  44.5738180  17.9425860
  51.7481620  44.1483750  18.5943470  66.8130750  44.8787500  27.1344500
  66.9393810  44.6399380  26.2161680  66.8552130  44.0472040  27.6066580
  60.6747490  48.5815500  25.7039310  61.1892160  48.4923510  26.5061740
  59.8316570  48.9275200  25.9967220  62.6501890  48.8670840  15.1323310
  62.4903030  48.5773780  16.0305140  62.4848600  48.0910970  14.5968540
  55.1290270  48.6469370  16.9094930  54.9532750  47.7304910  16.6962730
  54.2746010  49.0056660  17.1492730  62.3528020  46.3758400  13.6921310
  61.6593180  46.3735690  13.0323590  63.0950880  45.9517720  13.2615480
  61.9177950  48.0021110  17.7669800  62.3734900  47.2210490  18.0808420
  62.2570470  48.7127930  18.3110980  66.6654760  36.9319960  28.0994240
  66.0499030  37.4399630  27.5709700  66.3451180  36.0318290  28.0420180
  49.6680500  43.7737570  24.9260540  49.8311540  43.3042930  24.1079910
  50.1332950  43.2661130  25.5909380  54.4399270  32.9043330  19.9621110
  53.9967420  33.6852870  19.6305630  54.9984260  33.2273220  20.6692050
  58.7269080  35.7711850  25.5656430  58.2648450  35.9794870  26.3776370
  58.3247190  34.9571200  25.2627100  63.7273590  36.9920800  26.6953090
  62.8767180  36.6926550  27.0162160  63.5675380  37.2362810  25.7836910
  57.5558090  32.5254030  14.8426940  56.9312270  32.5213900  15.5680250
  57.4688210  31.6584990  14.4462910  56.4775170  33.4490660  21.8210710
  56.7747500  34.3553490  21.7402730  57.0260730  32.9609440  21.2070280
  54.2313490  38.0276900  17.6902360  54.0054410  37.8114070  18.5948980
  53.4506020  38.4605360  17.3448330  61.4611250  38.0340270  16.2893010
  60.8620140  38.7576070  16.1056630  62.0090860  37.9717050  15.5069460
  60.0676120  36.6703810  18.3196290  60.4605690  36.9876010  17.5064980
  60.4292970  35.7915690  18.4340810  51.8023240  35.3376150  26.5096410
  51.4086630  36.1851360  26.7169190  51.1141640  34.7002520  26.7005050
  58.3768290  35.4211120  29.5793150  57.6866610  35.2283320  30.2139240
  59.1200590  35.7045760  30.1117450  49.1040290  33.2604610  20.5426490
  48.8153340  33.8307470  21.2551470  49.8486050  32.7809060  20.9057720
  49.2910520  37.2024730  11.7529210  49.2085190  38.1455490  11.8944200
  48.9393580  37.0599640  10.8741560  60.6531260  39.2609560  22.4147070
  59.9212380  39.7696370  22.7637170  60.2555600  38.4439540  22.1135850
  57.0908650  35.9363760  20.8199560  57.0944710  35.4953710  19.9704100
  57.9859770  36.2581090  20.9271380  52.9411030  35.8190250  19.7793770
  52.6011080  36.2965480  20.5360820  52.1788350  35.3655370  19.4194870
  57.1528800  36.9375840  13.8106320  57.2741620  36.8962320  14.7592140
  56.7677310  37.7999990  13.6553050  61.1157170  34.7143240  21.8270010
  61.1329910  35.1651890  22.6711860  60.8672750  33.8148880  22.0403450
  56.1650300  39.2476980  13.2089620  55.5967200  38.7995230  12.5825530
  56.8739300  39.6069760  12.6754770  64.5427920  32.1275420  27.6656390
  64.8673690  31.3965080  28.1914370  64.5784430  31.8089060  26.7637380
  57.3916620  39.9965540  22.5664970  57.7586750  39.5224110  23.3126310
  57.2021680  40.8707110  22.9073310  50.2557110  34.7409230  18.6958440
  49.9704030  34.3764900  19.5337060  50.1935970  34.0089690  18.0821580
  55.1815990  39.0374180  24.8849180  54.8773060  39.9166160  25.1099540
  56.1362450  39.0973970  24.9206620  53.7097780  43.2435170  15.4816030
  52.9360040  42.7032790  15.3214750  54.4392410  42.7241780  15.1433790
  64.4685760  42.2400530  21.2742420  65.1884880  42.7355820  20.8838530
  64.2667580  41.5618420  20.6296290  59.9295700  33.6338490  15.4171810
  59.1160310  33.1351660  15.3417120  59.7357650  34.4736740  15.0008160
  62.6444090  38.0058140  13.7133970  63.5323710  38.3175370  13.5385310
  62.6149180  37.1330390  13.3214550  53.7535180  42.9115550  19.1194840
  54.2713850  42.1083810  19.0651730  53.3019200  42.8494690  19.9611670
  58.6404680  44.1781830  14.3922140  58.9820380  44.9224060  13.8965460
  57.8117390  44.4912950  14.7546970  51.2379720  39.8776920  26.0320540
  50.8794660  40.5430770  26.6193880  50.9434280  39.0460470  26.4033160
  64.9158360  39.3169980  13.1813830  64.8322080  39.7484200  12.3310270
  65.6352550  39.7768330  13.6140650  65.9932500  41.7737500  26.2583800
  65.2680690  42.3666280  26.0613190  66.5207960  41.7661040  25.4597170
  65.9445610  46.1712240  15.9095960  65.3021770  45.5167860  16.1839680
  65.5576270  46.5767330  15.1336630  61.5232090  43.4997670  19.7567650
  61.8755910  42.9025800  19.0969020  60.6394420  43.1741900  19.9275900
  57.6095370  44.2595360  17.1638060  58.2966500  44.8064570  17.5445650
  56.8227790  44.8036090  17.1987670  49.7487770  39.8768180  12.6555140
  50.6182620  40.1592980  12.9391060  49.2578090  40.6904050  12.5403950
  56.9122580  41.2641390  16.7763420  57.3685360  42.0746640  17.0023610
  56.5610790  40.9464530  17.6081910  59.2155190  46.7747730  24.0055720
  59.8597410  46.9807110  24.6829140  59.5784630  46.0136130  23.5526570
  52.8134360  31.6079040  17.2485940  52.6848990  31.5996940  18.1970860
  51.9896380  31.9462130  16.8976950  60.4887270  44.7780080  22.7233170
  61.1309500  44.0773240  22.8365340  61.0136620  45.5578520  22.5430060
  64.3342990  45.0628700  12.4472310  64.1080570  44.3459140  13.0396950
  63.9439190  44.8141140  11.6094060  50.1159020  49.0895560  13.2216770
  50.4756660  49.6884900  12.5674040  49.9751360  49.6355450  13.9951800
  49.8128290  33.3670160  26.7092640  49.0986810  33.5667080  27.3145250
  50.2323330  32.5909730  27.0807440  63.9159240  42.9800640  14.1086470
  63.6280940  43.4413330  14.8964350  64.7111410  42.5198410  14.3770690
  56.1327640  46.4726760  14.0390440  56.1237740  47.2056450  13.4234950
  55.2126000  46.2258340  14.1317400  51.7334280  41.6941650  14.7837200
  51.1262230  42.4340550  14.7932500  52.2083630  41.7841010  13.9575400
  61.3067070  35.8592470  24.4594090  61.6747890  35.0387680  24.7873660
  60.4465270  35.9194360  24.8749740  64.6729100  34.8149410  15.2681650
  64.0442260  34.9195080  14.5539880  64.1781020  35.0346190  16.0575530
  59.1187240  46.5355000  12.7015630  59.2199220  46.3318990  11.7717610
  58.2188980  46.2813280  12.9063410  56.6413130  37.0935360  16.6839530
  55.9329280  37.5621700  17.1253140  56.9257610  36.4357370  17.3184720
  58.2669060  38.5132060  24.6832060  58.7654310  38.9877880  25.3483910
  58.4092010  37.5895580  24.8902090  60.6728560  33.8186020  18.1235320
  60.5496340  33.8372150  17.1744830  61.6213120  33.8664960  18.2433720
  57.7605350  49.0541320  17.3963300  58.0146850  49.0162710  16.4742670
  56.8117830  48.9274650  17.3891550  54.8448150  35.4020440  14.0590240
  55.6938680  35.8390590  13.9930430  54.4779420  35.7140700  14.8862300
  65.4735920  34.7300020  25.5260450  64.9709520  35.4705420  25.8654260
  66.2892580  35.1184020  25.2097240  63.7657930  39.9733200  18.9721810
  62.8248070  39.9883430  19.1469500  64.0802000  39.1869160  19.4182110
  53.7439570  41.6552800  12.5325770  54.5102840  41.5434160  13.0951200
  53.8214260  40.9590770  11.8802540  52.4386330  39.0877870  13.2158660
  52.5189920  38.1405380  13.3276060  53.3306080  39.4184750  13.3219320
  65.7683510  47.1442050  20.6476070  65.8930930  47.9673220  21.1199880
  66.6349070  46.9332780  20.3000220  53.2401040  49.2373260  20.3193200
  53.9763520  48.6888720  20.5901770  53.6241960  50.1029270  20.1799190
  50.1246520  45.3046830  16.1934710  49.1986300  45.5467970  16.1840120
  50.5902950  46.1321090  16.0719460  56.3503350  48.4103570  12.1418770
  57.1431960  48.6992400  11.6900560  55.8307700  47.9795740  11.4631250
  65.4033520  47.6373700  13.5655510  65.1175030  47.2238840  12.7509690
  65.2053070  48.5661410  13.4456030  56.8680750  43.6306980  12.0061120
  56.7631390  43.0159330  12.7322500  56.7004970  43.1072870  11.2224130
  60.1083480  42.6927010  12.6103110  59.5593580  43.1396310  13.2545850
  60.7302740  42.1876260  13.1340780  51.9980210  39.0522380  29.3464900
  52.0385550  38.7536250  30.2550130  52.8525710  39.4529990  29.1872420
  55.7758600  41.6517930  14.5068410  56.1975020  41.4857800  15.3499800
  55.9009440  40.8418160  14.0123550  53.9386020  37.6314480  27.3139390
  53.4082480  37.1405430  26.6862730  54.6074090  38.0598680  26.7797320
  58.2886240  40.6755540  11.7545510  58.8091900  39.9604560  11.3886660
  58.9354640  41.3141410  12.0546020  54.4258320  34.5976850  27.3936680
  54.3315190  33.9797600  26.6687550  53.8455710  35.3243140  27.1666590
  57.1919760  33.1550090  24.4264070  56.7437060  33.1774350  23.5809620
  56.5584960  32.7569110  25.0234370  54.6717500  37.7251160  11.4526570
  54.4706560  36.8618520  11.8139910  54.5009550  37.6384520  10.5148170
  55.4486730  48.3557430  26.1634240  54.9107820  49.0803490  25.8442940
  55.7020690  47.8787770  25.3731580  56.7011980  36.3241950  27.6890170
  57.2911670  36.0157800  28.3767990  55.8832220  35.8521700  27.8450070
  61.5205410  35.9407760  27.9223190  60.8320930  35.2789300  27.8573180
  62.2411430  35.4946030  28.3671650  62.1505810  32.5359390  13.9813450
  62.4308100  31.6927290  14.3372870  61.3771540  32.7682500  14.4952200
  53.4700300  34.8251780  11.4404450  53.7726200  34.8319210  10.5323600
  54.2094890  34.4749640  11.9372110  58.3048940  49.5908640  26.4220890
  58.2307640  50.4943780  26.7293260  57.4027780  49.2720540  26.3942960
  56.6885230  33.7686400  12.4260650  56.3407230  33.0910390  11.8463100
  56.8898000  33.3075910  13.2404040  58.8534270  48.7567150  14.0447250
  59.7485060  49.0952120  14.0666010  58.8851900  48.0346560  13.4171530
  52.4930430  44.1294200  12.2734250  52.9305300  44.6723870  12.9291830
  52.9778160  43.3041150  12.2830590  49.7076230  46.9183230  19.7254510
  50.0379240  46.0504290  19.4933150  50.1367230  47.1241750  20.5559470
  54.3038150  45.2492240  17.3856480  54.0033690  45.1257210  18.2860390
  54.1975640  44.3900830  16.9772210  50.1966440  47.7853820  22.4636140
  49.7597430  47.9654620  23.2960290  50.7644120  48.5428440  22.3217860
  65.8328620  47.2870820  26.7513450  65.2330610  47.3463380  26.0077370
  65.9622520  46.3475800  26.8810300  67.0730070  45.0288640  12.0883160
  66.2423030  45.0965290  12.5590390  67.2501900  45.9192760  11.7850020
  66.5286530  41.7736120  14.5917360  67.2905440  42.3432770  14.6977050
  66.5440900  41.2063320  15.3625670  50.0290870  40.2974050  18.8225020
  49.3739710  40.0285690  18.1784720  50.8668820  40.1878530  18.3727000
  67.5346500  42.6286220  19.4359290  67.9055330  41.8453540  19.0295260
  68.1748430  43.3175320  19.2576590  64.5180260  44.0122800  24.8489610
  63.7040100  44.4419960  25.1115400  64.9254460  44.6241210  24.2358660
  66.5805700  42.0670490  11.7489880  66.8554540  42.9749370  11.6209100
  66.3916440  42.0033020  12.6851870  62.9781310  35.0915340  13.0443510
  63.3966190  34.9046320  12.2040170  62.6717370  34.2394390  13.3546440
  66.4771040  40.0039480  16.7419310  66.1014640  39.2367410  16.3100600
  65.7474160  40.3862180  17.2294240  51.0666800  40.6826620  23.3628360
  51.4339840  40.5954020  24.2424380  50.4977620  39.9193170  23.2635220
  65.8670660  39.1511000  26.3758830  65.6356750  38.9223750  25.4756780
  66.1275210  40.0710550  26.3303720  50.6182800  37.5935710  27.2686780
  49.7238850  37.5602470  27.6080490  51.1580350  37.7922500  28.0338030
  64.3058730  34.3767430  29.1538530  65.1828910  34.3850830  29.5372530
  64.3179570  33.6398270  28.5430880  49.2428950  37.5072980  14.7650350
  48.3393030  37.7703180  14.5902010  49.7269570  37.7784150  13.9850310
  65.7522000  38.2296970  20.0426550  66.2759480  37.7359620  19.4116720
  66.3381420  38.3647330  20.7874120  65.9311720  38.3136840  23.5646100
  64.9814430  38.2800380  23.6791090  66.1124730  39.2236950  23.3295870
  51.7856160  36.5638520  12.6744730  52.4947860  36.1421740  12.1892010
  51.0696100  36.6313750  12.0428080  51.4330320  32.6177850  11.7147380
  52.1558450  33.1586790  12.0328600  51.7054840  32.3441270  10.8388920
  65.2421970  37.4870320  15.9818960  65.7381090  37.2541190  16.7667840
  65.0438040  36.6482160  15.5656600  51.1222510  31.8684040  21.6170000
  51.7698700  31.3181420  21.1765160  51.5424350  32.1227190  22.4385810
  66.6709130  36.1231270  18.5156640  66.5608410  35.9687310  19.4538910
  67.4316720  35.5952210  18.2732050  65.0174850  32.0625400  24.9739640
  65.6547070  32.6759540  25.3398830  65.1649740  32.0986060  24.0288870
  67.5599400  33.9539190  11.7562780  68.4848710  33.8220370  11.5481070
  67.5375190  34.0332010  12.7099230  67.6337890  34.7249850  14.3819490
  66.8389390  34.6594970  14.9112400  67.8381170  35.6600490  14.3704840
  64.5756310  48.7641400  18.3757880  65.1715380  48.4425970  17.6992300
  64.8334460  48.2913220  19.1671150  50.8754510  32.0239710  24.3595320
  50.5269330  32.4803530  25.1253500  50.5442210  31.1296840  24.4417750
  56.1824910  46.7518900  24.1258230  55.9416270  47.0193460  23.2388750
  57.1227550  46.9224630  24.1809090  58.3879330  33.2151590  27.8814740
  58.3268220  33.8073420  28.6310150  59.3279710  33.1077550  27.7365000
  61.0253890  32.8721650  27.5207030  61.6394300  33.1900940  26.8588110
  61.5703450  32.3870240  28.1402890  67.4429070  48.7713280  24.9268870
  66.9487350  49.1682150  24.2096000  66.8342360  48.1462490  25.3206150
  51.5475150  31.5515910  27.6346090  52.0958140  31.3703960  26.8712200
  51.6130460  30.7610020  28.1702400  52.3206910  48.1421560  25.6446290
  51.7267230  48.0106260  26.3836330  52.3130750  47.3059700  25.1788390
  61.7661930  31.4353790  23.8476320  60.8921770  31.7688900  23.6449250
  61.6572680  30.9626970  24.6728190  62.6733910  33.6424660  25.2318040
  62.3447270  32.8276420  24.8519770  63.6216210  33.5994470  25.1083730
  65.1268520  49.4136700  22.2055610  64.6671490  50.1652510  21.8313630
  64.4980980  48.6943170  22.1470410  51.9519140  45.5079940  24.5954330
  51.2253200  44.8885230  24.5280280  52.0128290  45.9020550  23.7252410
  55.5564240  47.7224940  21.3803740  56.0729260  47.1112300  20.8552000
  56.2061620  48.2253720  21.8714750  58.2959740  48.6133430  22.2072720
  58.5837550  48.3587730  21.3305730  58.8082960  48.0610790  22.7978290
  59.5136750  32.3523630  22.7869230  58.7308540  32.8269130  23.0665990
  59.2199680  31.4478460  22.6782410  64.0657820  33.0546730  20.8318320
  64.5065910  32.9991830  19.9839920  63.7965410  33.9704740  20.9028500
  65.9296390  32.6861970  18.8427140  65.8684790  31.7423190  18.6958160
  66.7088420  32.7942060  19.3880600  50.2349140  48.8254330  17.8051090
  50.0671180  48.1925010  18.5032980  49.3683650  49.0313730  17.4545280
  50.8577160  32.6571110  15.3082950  51.6156520  32.7699990  14.7346980
  50.3954330  33.4940310  15.2626380  57.3990970  34.7710380  18.2985260
  56.5865480  34.3967270  17.9581140  57.9032610  34.0155460  18.6006450
  61.9015950  31.4352830  19.5368330  62.5045320  32.0073040  20.0116850
  61.1608940  31.9992270  19.3142230  65.0450550  31.8374390  14.8108610
  65.2401180  32.7357840  15.0776040  64.2580420  31.6061470  15.3041560
  51.8411840  47.5187560  15.2501230  51.3159460  47.8995590  14.5463190
  51.7656420  48.1438330  15.9710940  53.2302310  33.1835160  13.8484920
  53.7595070  32.3964960  13.7192870  53.8630630  33.8626350  14.0820450
  55.4240150  32.9210300  16.9030310  54.7942890  32.2197610  17.0700440
  54.8845290  33.6814430  16.6863470  66.5977160  49.0775100  16.5715170
  66.7729350  48.3912840  15.9276090  65.8998730  49.6022150  16.1791840
  55.5495710  32.1994280  29.3382800  55.2679980  32.7027880  28.5743620
  55.9315410  31.4016030  28.9724930  54.4404810  49.4669940  14.1250480
  55.1723630  49.1829220  13.5774370  54.6998480  49.2283220  15.0149860
  53.6019600  45.5834670  14.1296810  52.9728480  46.0519770  14.6782640
  53.7167430  44.7383890  14.5643000  62.1511170  31.6147860  29.9163270
  62.0376620  31.9342470  30.8114790  62.9680910  32.0160370  29.6200550
  59.1887360  41.4119350   2.1607280  58.4129460  40.9319790   2.4505850
  59.8400290  40.7325000   1.9863440  53.2053190  41.7239160   3.0383040
  52.3738070  41.4687870   3.4379550  53.8134170  41.7949930   3.7740960
  53.1854450  45.7579250   3.2341060  53.4882490  44.8676990   3.0551280
  53.9298040  46.3149470   3.0063310  49.5778150  39.2846700   2.7065130
  50.1494260  38.5168900   2.7068770  49.5779690  39.5835460   1.7971740
  58.6296350  44.0876540   2.1677440  58.5604630  43.1466480   2.0066570
  59.3916210  44.1777950   2.7400010  50.8203020  34.6931060   4.4934060
  50.6405860  33.7956810   4.7736820  50.4183100  35.2402930   5.1681010
  51.4389690  37.1891560   3.1016400  52.1199800  37.4529930   3.7203800
  51.1237740  36.3492430   3.4354410  55.6314260  38.2358920   2.1888990
  56.1392480  38.7339890   2.8294010  56.1627500  37.4594120   2.0128350
  67.7325190  36.4064110   5.8918340  67.0277360  36.7945820   5.3733450
  67.9983110  37.1014400   6.4939270  53.9150360  32.8757480   6.4552410
  53.9168800  33.3929870   5.6498310  53.0854670  32.3987660   6.4322340
  55.1653210  42.5152660   4.6325910  54.8322590  43.1421580   5.2746980
  55.3419890  43.0414540   3.8527580  63.6787120  36.3297740   2.1002250
  62.9742690  36.6182630   2.6805360  64.0399280  37.1397850   1.7401810
  53.5965690  34.5867440   4.4622860  53.9382500  35.4309490   4.1676730
  52.6581500  34.7351180   4.5788200  54.3772310  44.4833460   6.4475090
  54.9946310  45.1584540   6.1659540  53.5165430  44.8921440   6.3562590
  65.2949900  45.9472870   4.3629730  64.6113420  46.6171980   4.3546400
  65.8344190  46.1453520   3.5974590  66.7474040  35.7752530   2.4911460
  65.7998950  35.8091510   2.6226890  67.0724030  36.5891480   2.8760820
  62.8308640  47.7917000   3.0774910  62.8435800  47.3879290   2.2097170
  62.2783860  48.5664290   2.9736340  62.2294080  42.6946840   4.4057520
  62.6462870  42.4806950   3.5710980  62.9533900  42.9519630   4.9766140
  66.1756180  41.0934060   4.4973760  65.3474810  41.1627150   4.0223890
  66.7706660  41.6788370   4.0289590  63.1398190  37.8803380   5.4428630
  62.7269370  38.7057090   5.6968620  62.4074140  37.2948420   5.2504990
  55.7412680  44.3530840   2.4686510  55.4440970  43.7476310   1.7894290
  56.6912500  44.3908150   2.3575870  53.9859600  37.4406490   4.0846340
  54.5374190  37.5501830   3.3099590  54.5003110  37.8144090   4.8001570
  63.8298290  47.9262710   6.1309610  63.3528850  48.7334900   5.9382220
  63.1460080  47.2741040   6.2835820  54.8331110  44.0912530   9.1194310
  53.9359640  44.3152500   9.3667710  54.8583980  44.2147470   8.1705710
  53.6602330  40.9625850   7.6951680  53.5210100  41.8348650   8.0639080
  52.7783690  40.6198660   7.5499620  55.4582680  46.9047550   9.9036830
  55.4298110  47.3090500   9.0365260  55.2947650  45.9757910   9.7408430
  67.4097500  47.6874650  11.2001000  67.8857220  48.1657540  11.8790080
  68.0304660  47.6192140  10.4746500  49.6120980  42.7323400   3.6122590
  49.6901400  42.8672170   2.6678310  50.2262660  42.0239290   3.8050710
  66.8130750  44.8787500   8.3601010  66.9393810  44.6399380   7.4418190
  66.8552130  44.0472040   8.8323090  60.6747490  48.5815500   6.9295820
  61.1892160  48.4923510   7.7318250  59.8316570  48.9275200   7.2223730
  66.6654760  36.9319960   9.3250750  66.0499030  37.4399630   8.7966210
  66.3451180  36.0318290   9.2676690  49.6680500  43.7737570   6.1517050
  49.8311540  43.3042930   5.3336420  50.1332950  43.2661130   6.8165890
  58.7269080  35.7711850   6.7912940  58.2648450  35.9794870   7.6032880
  58.3247190  34.9571200   6.4883610  63.7273590  36.9920800   7.9209600
  62.8767180  36.6926550   8.2418670  63.5675380  37.2362810   7.0093420
  60.8223300  38.4922550  10.0208390  61.1476710  37.6586300   9.6810620
  61.6103630  39.0151070  10.1686720  56.4775170  33.4490660   3.0467220
  56.7747500  34.3553490   2.9659240  57.0260730  32.9609440   2.4326790
  56.6712700  38.9262480   9.5819140  56.5756300  37.9857210   9.4319540
  57.5144680  39.1477550   9.1867210  51.8023240  35.3376150   7.7352920
  51.4086630  36.1851360   7.9425700  51.1141640  34.7002520   7.9261560
  58.3768290  35.4211120  10.8049660  57.6866610  35.2283320  11.4395750
  59.1200590  35.7045760  11.3373960  49.1040290  33.2604610   1.7683000
  48.8153340  33.8307470   2.4807980  49.8486050  32.7809060   2.1314230
  60.6531260  39.2609560   3.6403580  59.9212380  39.7696370   3.9893680
  60.2555600  38.4439540   3.3392360  61.1157170  34.7143240   3.0526520
  61.1329910  35.1651890   3.8968370  60.8672750  33.8148880   3.2659960
  64.5427920  32.1275420   8.8912900  64.8673690  31.3965080   9.4170880
  64.5784430  31.8089060   7.9893890  51.2419480  43.1489000   8.3112860
  50.8574270  42.5082670   8.9095820  51.5531670  43.8525120   8.8807590
  57.3916620  39.9965540   3.7921480  57.7586750  39.5224110   4.5382820
  57.2021680  40.8707110   4.1329820  55.1815990  39.0374180   6.1105690
  54.8773060  39.9166160   6.3356050  56.1362450  39.0973970   6.1463130
  64.4685760  42.2400530   2.4998930  65.1884880  42.7355820   2.1095040
  64.2667580  41.5618420   1.8552800  59.8504560  42.3109590   8.3867930
  59.7841870  41.3905260   8.1325520  59.2209700  42.4085030   9.1012570
  51.2379720  39.8776920   7.2577050  50.8794660  40.5430770   7.8450390
  50.9434280  39.0460470   7.6289670  54.4392840  40.3361160  10.1416600
  54.1392980  40.4818340   9.2444420  55.2104080  39.7766450  10.0489990
  59.7821290  45.1330160   8.1371730  59.7965830  44.2011120   7.9190640
  59.0746390  45.2189920   8.7761500  65.9932500  41.7737500   7.4840310
  65.2680690  42.3666280   7.2869700  66.5207960  41.7661040   6.6853680
  59.2155190  46.7747730   5.2312230  59.8597410  46.9807110   5.9085650
  59.5784630  46.0136130   4.7783080  60.4887270  44.7780080   3.9489680
  61.1309500  44.0773240   4.0621850  61.0136620  45.5578520   3.7686570
  62.2624890  45.5774980   7.1525740  62.5981130  46.1641670   7.8303660
  61.3425230  45.4467690   7.3823530  49.8128290  33.3670160   7.9349150
  49.0986810  33.5667080   8.5401760  50.2323330  32.5909730   8.3063950
  50.1000880  47.3550420   8.9215680  50.2092000  46.4145160   8.7811070
  49.4481440  47.6205170   8.2729410  58.0913470  45.6266310  10.3213800
  57.7710340  44.9075550  10.8659490  57.4171830  46.3021380  10.3949860
  61.3067070  35.8592470   5.6850600  61.6747890  35.0387680   6.0130170
  60.4465270  35.9194360   6.1006250  58.2669060  38.5132060   5.9088570
  58.7654310  38.9877880   6.5740420  58.4092010  37.5895580   6.1158600
  65.4735920  34.7300020   6.7516960  64.9709520  35.4705420   7.0910770
  66.2892580  35.1184020   6.4353750  52.2459320  48.4219330  10.7335290
  53.0472050  48.7431380  11.1470690  51.7311140  48.0614910  11.4555200
  61.0823950  44.5299200  10.6810700  60.4762110  44.5530800   9.9406450
  60.7778060  43.7982240  11.2177950  62.5124320  48.2579490   9.2920110
  63.4646070  48.1737510   9.2420350  62.3652540  48.9221200   9.9653900
  49.9657130  40.9092790   9.6771340  50.4696150  40.3300070  10.2487570
  49.2264550  41.1933020  10.2147710  57.0195070  42.3163780   9.2106860
  56.2540740  42.8848780   9.1261530  57.2011030  42.0239990   8.3175090
  64.1618420  44.0469110   9.7681880  64.9027890  44.3844870   9.2649340
  63.3991100  44.2161170   9.2151650  51.9980210  39.0522380  10.5721410
  52.0385550  38.7536250  11.4806640  52.8525710  39.4529990  10.4128930
  53.9386020  37.6314480   8.5395900  53.4082480  37.1405430   7.9119240
  54.6074090  38.0598680   8.0053830  62.8364080  42.0983940   8.3037090
  63.2505100  42.2529020   9.1527510  61.9015080  42.2239160   8.4662870
  63.3086250  39.4380100  10.3076240  63.8907020  38.6832420  10.2196720
  63.4848020  39.9687540   9.5307720  54.4258320  34.5976850   8.6193190
  54.3315190  33.9797600   7.8944060  53.8455710  35.3243140   8.3923100
  57.1919760  33.1550090   5.6520580  56.7437060  33.1774350   4.8066130
  56.5584960  32.7569110   6.2490880  57.5979310  42.0504420   6.2733020
  58.0167420  42.8937150   6.1009260  56.6787940  42.1876460   6.0439800
  59.9343210  39.7820600   7.6570860  60.0539420  39.1861740   8.3965700
  60.7937210  39.8190290   7.2372160  62.2731110  40.3357790   6.2333370
  61.7466330  40.8600410   5.6298510  62.6162450  40.9685180   6.8643100
  55.4486730  48.3557430   7.3890750  54.9107820  49.0803490   7.0699450
  55.7020690  47.8787770   6.5988090  56.7011980  36.3241950   8.9146680
  57.2911670  36.0157800   9.6024500  55.8832220  35.8521700   9.0706580
  61.5205410  35.9407760   9.1479700  60.8320930  35.2789300   9.0829690
  62.2411430  35.4946030   9.5928160  58.3048940  49.5908640   7.6477400
  58.2307640  50.4943780   7.9549770  57.4027780  49.2720540   7.6199470
  50.1966440  47.7853820   3.6892650  49.7597430  47.9654620   4.5216800
  50.7644120  48.5428440   3.5474370  65.8328620  47.2870820   7.9769960
  65.2330610  47.3463380   7.2333880  65.9622520  46.3475800   8.1066810
  64.5180260  44.0122800   6.0746120  63.7040100  44.4419960   6.3371910
  64.9254460  44.6241210   5.4615170  51.0666800  40.6826620   4.5884870
  51.4339840  40.5954020   5.4680890  50.4977620  39.9193170   4.4891730
  65.8670660  39.1511000   7.6015340  65.6356750  38.9223750   6.7013290
  66.1275210  40.0710550   7.5560230  50.6182800  37.5935710   8.4943290
  49.7238850  37.5602470   8.8337000  51.1580350  37.7922500   9.2594540
  64.3058730  34.3767430  10.3795040  65.1828910  34.3850830  10.7629040
  64.3179570  33.6398270   9.7687390  65.9311720  38.3136840   4.7902610
  64.9814430  38.2800380   4.9047600  66.1124730  39.2236950   4.5552380
  51.1222510  31.8684040   2.8426510  51.7698700  31.3181420   2.4021670
  51.5424350  32.1227190   3.6642320  65.0174850  32.0625400   6.1996150
  65.6547070  32.6759540   6.5655340  65.1649740  32.0986060   5.2545380
  50.8754510  32.0239710   5.5851830  50.5269330  32.4803530   6.3510010
  50.5442210  31.1296840   5.6674260  52.4818880  45.1959310   9.7505020
  52.4388510  44.8252220  10.6319480  52.6129890  46.1336880   9.8906840
  56.1824910  46.7518900   5.3514740  55.9416270  47.0193460   4.4645260
  57.1227550  46.9224630   5.4065600  58.3879330  33.2151590   9.1071250
  58.3268220  33.8073420   9.8566660  59.3279710  33.1077550   8.9621510
  61.0253890  32.8721650   8.7463540  61.6394300  33.1900940   8.0844620
  61.5703450  32.3870240   9.3659400  67.4429070  48.7713280   6.1525380
  66.9487350  49.1682150   5.4352510  66.8342360  48.1462490   6.5462660
  51.5475150  31.5515910   8.8602600  52.0958140  31.3703960   8.0968710
  51.6130460  30.7610020   9.3958910  52.3206910  48.1421560   6.8702800
  51.7267230  48.0106260   7.6092840  52.3130750  47.3059700   6.4044900
  61.7661930  31.4353790   5.0732830  60.8921770  31.7688900   4.8705760
  61.6572680  30.9626970   5.8984700  62.6733910  33.6424660   6.4574550
  62.3447270  32.8276420   6.0776280  63.6216210  33.5994470   6.3340240
  65.1268520  49.4136700   3.4312120  64.6671490  50.1652510   3.0570140
  64.4980980  48.6943170   3.3726920  51.9519140  45.5079940   5.8210840
  51.2253200  44.8885230   5.7536790  52.0128290  45.9020550   4.9508920
  55.5564240  47.7224940   2.6060250  56.0729260  47.1112300   2.0808510
  56.2061620  48.2253720   3.0971260  58.2959740  48.6133430   3.4329230
  58.5837550  48.3587730   2.5562240  58.8082960  48.0610790   4.0234800
  59.5136750  32.3523630   4.0125740  58.7308540  32.8269130   4.2922500
  59.2199680  31.4478460   3.9038920  58.3632100  49.5349530  10.7997430
  59.2899410  49.2993800  10.8433390  58.3482530  50.3621530  10.3183460
  55.5495710  32.1994280  10.5639310  55.2679980  32.7027880   9.8000130
  55.9315410  31.4016030  10.1981440  62.1511170  31.6147860  11.1419780
  62.0376620  31.9342470  12.0371300  62.9680910  32.0160370  10.8457060
  64.9309660  48.7619390  10.6238470  65.7234980  48.2668620  10.4164430
  65.2242810  49.4409530  11.2314080  61.0569320  20.8596840 150.4745930
  60.9763370  19.9451450 150.2037640  60.6433740  21.3563910 149.7685640
  63.2094790  27.0436050 151.1354330  62.7476320  26.2723290 151.4641500
  64.0220340  27.0702120 151.6406780  51.6145140  17.9097560 147.0173350
  50.7261840  18.2513530 146.9153230  51.8986330  17.7097880 146.1254180
  59.4358100  29.3294060 150.7558320  58.8169540  29.7851560 150.1852760
  60.2909880  29.4845520 150.3548020  53.7906530  16.4929060 148.0511730
  53.8973280  17.3932790 148.3580490  52.8798890  16.4447030 147.7606380
  63.4425640  15.6153870 149.5222630  64.2635260  15.1250440 149.5648110
  63.4759720  16.2051530 150.2754470  60.3021450  24.2133300 148.1490230
  59.6838720  24.6782750 147.5852950  60.8144700  24.9060780 148.5659740
  49.6704650  24.8989830 145.5229860  49.2932630  25.3876930 144.7914760
  49.9277720  25.5715110 146.1536390  57.2793580  13.3006220 150.9815370
  57.5868560  12.7453110 150.2650870  56.3494280  13.4350680 150.7988360
  64.1254060  25.7389730 148.3613000  64.0150390  24.7964060 148.4862420
  64.1222310  26.1005370 149.2475760  59.6674340  21.3655050 147.7175490
  58.7403620  21.2992430 147.9463960  59.8199160  22.3035180 147.6030730
  59.6543420  17.6372050 144.7142650  58.7147090  17.7986010 144.7995110
  59.9726680  18.3557730 144.1678640  63.6971630  22.9275350 148.2210740
  63.0784050  22.5894900 147.5737040  63.6796080  22.2835110 148.9289930
  55.2730980  21.8919790 150.4995220  54.8687980  21.1797040 150.0041120
  55.3594100  21.5473030 151.3883260  61.8736330  22.1662160 145.2283490
  62.3129610  21.3284590 145.0821310  62.5864750  22.7991560 145.3147630
  59.9831710  27.1058230 149.1964730  60.4227620  27.8482560 148.7820120
  59.9218600  27.3484800 150.1203690  65.4553470  13.4204970 143.5424530
  65.1426130  13.5131800 144.4423600  66.2165940  13.9986000 143.4921960
  51.9735610  20.7864770 148.0001870  51.8533210  21.5126860 147.3883140
  51.6636500  20.0167680 147.5229780  50.8568610  25.6580100 150.2176690
  50.4496690  25.7994690 149.3630290  51.7481620  25.3740260 150.0147900
  62.6501890  30.0927350 146.5527740  62.4903030  29.8030290 147.4509570
  62.4848600  29.3167480 146.0172970  55.1290270  29.8725880 148.3299360
  54.9532750  28.9561420 148.1167160  54.2746010  30.2313170 148.5697160
  62.3528020  27.6014910 145.1125740  61.6593180  27.5992200 144.4528020
  63.0950880  27.1774230 144.6819910  61.9177950  29.2277620 149.1874230
  62.3734900  28.4467000 149.5012850  62.2570470  29.9384440 149.7315410
  54.4399270  14.1299840 151.3825540  53.9967420  14.9109380 151.0510060
  54.9984260  14.4529730 152.0896480  57.5558090  13.7510540 146.2631370
  56.9312270  13.7470410 146.9884680  57.4688210  12.8841500 145.8667340
  54.2313490  19.2533410 149.1106790  54.0054410  19.0370580 150.0153410
  53.4506020  19.6861870 148.7652760  61.4611250  19.2596780 147.7097440
  60.8620140  19.9832580 147.5261060  62.0090860  19.1973560 146.9273890
  60.0676120  17.8960320 149.7400720  60.4605690  18.2132520 148.9269410
  60.4292970  17.0172200 149.8545240  49.2910520  18.4281240 143.1733640
  49.2085190  19.3712000 143.3148630  48.9393580  18.2856150 142.2945990
  57.0908650  17.1620270 152.2403990  57.0944710  16.7210220 151.3908530
  57.9859770  17.4837600 152.3475810  52.9411030  17.0446760 151.1998200
  52.6011080  17.5221990 151.9565250  52.1788350  16.5911880 150.8399300
  57.1528800  18.1632350 145.2310750  57.2741620  18.1218830 146.1796570
  56.7677310  19.0256500 145.0757480  56.1650300  20.4733490 144.6294050
  55.5967200  20.0251740 144.0029960  56.8739300  20.8326270 144.0959200
  50.2557110  15.9665740 150.1162870  49.9704030  15.6021410 150.9541490
  50.1935970  15.2346200 149.5026010  53.7097780  24.4691680 146.9020460
  52.9360040  23.9289300 146.7419180  54.4392410  23.9498290 146.5638220
  59.9295700  14.8595000 146.8376240  59.1160310  14.3608170 146.7621550
  59.7357650  15.6993250 146.4212590  62.6444090  19.2314650 145.1338400
  63.5323710  19.5431880 144.9589740  62.6149180  18.3586900 144.7418980
  53.7535180  24.1372060 150.5399270  54.2713850  23.3340320 150.4856160
  53.3019200  24.0751200 151.3816100  58.6404680  25.4038340 145.8126570
  58.9820380  26.1480570 145.3169890  57.8117390  25.7169460 146.1751400
  64.9158360  20.5426490 144.6018260  64.8322080  20.9740710 143.7514700
  65.6352550  21.0024840 145.0345080  65.9445610  27.3968750 147.3300390
  65.3021770  26.7424370 147.6044110  65.5576270  27.8023840 146.5541060
  61.5232090  24.7254180 151.1772080  61.8755910  24.1282310 150.5173450
  60.6394420  24.3998410 151.3480330  57.6095370  25.4851870 148.5842490
  58.2966500  26.0321080 148.9650080  56.8227790  26.0292600 148.6192100
  49.7487770  21.1024690 144.0759570  50.6182620  21.3849490 144.3595490
  49.2578090  21.9160560 143.9608380  56.9122580  22.4897900 148.1967850
  57.3685360  23.3003150 148.4228040  56.5610790  22.1721040 149.0286340
  52.8134360  12.8335550 148.6690370  52.6848990  12.8253450 149.6175290
  51.9896380  13.1718640 148.3181380  64.3342990  26.2885210 143.8676740
  64.1080570  25.5715650 144.4601380  63.9439190  26.0397650 143.0298490
  50.1159020  30.3152070 144.6421200  50.4756660  30.9141410 143.9878470
  49.9751360  30.8611960 145.4156230  63.9159240  24.2057150 145.5290900
  63.6280940  24.6669840 146.3168780  64.7111410  23.7454920 145.7975120
  56.1327640  27.6983270 145.4594870  56.1237740  28.4312960 144.8439380
  55.2126000  27.4514850 145.5521830  51.7334280  22.9198160 146.2041630
  51.1262230  23.6597060 146.2136930  52.2083630  23.0097520 145.3779830
  64.6729100  16.0405920 146.6886080  64.0442260  16.1451590 145.9744310
  64.1781020  16.2602700 147.4779960  59.1187240  27.7611510 144.1220060
  59.2199220  27.5575500 143.1922040  58.2188980  27.5069790 144.3267840
  56.6413130  18.3191870 148.1043960  55.9329280  18.7878210 148.5457570
  56.9257610  17.6613880 148.7389150  60.6728560  15.0442530 149.5439750
  60.5496340  15.0628660 148.5949260  61.6213120  15.0921470 149.6638150
  57.7605350  30.2797830 148.8167730  58.0146850  30.2419220 147.8947100
  56.8117830  30.1531160 148.8095980  54.8448150  16.6276950 145.4794670
  55.6938680  17.0647100 145.4134860  54.4779420  16.9397210 146.3066730
  63.7657930  21.1989710 150.3926240  62.8248070  21.2139940 150.5673930
  64.0802000  20.4125670 150.8386540  53.7439570  22.8809310 143.9530200
  54.5102840  22.7690670 144.5155630  53.8214260  22.1847280 143.3006970
  52.4386330  20.3134380 144.6363090  52.5189920  19.3661890 144.7480490
  53.3306080  20.6441260 144.7423750  53.2401040  30.4629770 151.7397630
  53.9763520  29.9145230 152.0106200  53.6241960  31.3285780 151.6003620
  50.1246520  26.5303340 147.6139140  49.1986300  26.7724480 147.6044550
  50.5902950  27.3577600 147.4923890  56.3503350  29.6360080 143.5623200
  57.1431960  29.9248910 143.1104990  55.8307700  29.2052250 142.8835680
  65.4033520  28.8630210 144.9859940  65.1175030  28.4495350 144.1714120
  65.2053070  29.7917920 144.8660460  56.8680750  24.8563490 143.4265550
  56.7631390  24.2415840 144.1526930  56.7004970  24.3329380 142.6428560
  60.1083480  23.9183520 144.0307540  59.5593580  24.3652820 144.6750280
  60.7302740  23.4132770 144.5545210  55.7758600  22.8774440 145.9272840
  56.1975020  22.7114310 146.7704230  55.9009440  22.0674670 145.4327980
  58.2886240  21.9012050 143.1749940  58.8091900  21.1861070 142.8091090
  58.9354640  22.5397920 143.4750450  54.6717500  18.9507670 142.8731000
  54.4706560  18.0875030 143.2344340  54.5009550  18.8641030 141.9352600
  62.1505810  13.7615900 145.4017880  62.4308100  12.9183800 145.7577300
  61.3771540  13.9939010 145.9156630  53.4700300  16.0508290 142.8608880
  53.7726200  16.0575720 141.9528030  54.2094890  15.7006150 143.3576540
  56.6885230  14.9942910 143.8465080  56.3407230  14.3166900 143.2667530
  56.8898000  14.5332420 144.6608470  58.8534270  29.9823660 145.4651680
  59.7485060  30.3208630 145.4870440  58.8851900  29.2603070 144.8375960
  52.4930430  25.3550710 143.6938680  52.9305300  25.8980380 144.3496260
  52.9778160  24.5297660 143.7035020  49.7076230  28.1439740 151.1458940
  50.0379240  27.2760800 150.9137580  50.1367230  28.3498260 151.9763900
  54.3038150  26.4748750 148.8060910  54.0033690  26.3513720 149.7064820
  54.1975640  25.6157340 148.3976640  67.0730070  26.2545150 143.5087590
  66.2423030  26.3221800 143.9794820  67.2501900  27.1449270 143.2054450
  66.5286530  22.9992630 146.0121790  67.2905440  23.5689280 146.1181480
  66.5440900  22.4319830 146.7830100  50.0290870  21.5230560 150.2429450
  49.3739710  21.2542200 149.5989150  50.8668820  21.4135040 149.7931430
  67.5346500  23.8542730 150.8563720  67.9055330  23.0710050 150.4499690
  68.1748430  24.5431830 150.6781020  66.5805700  23.2927000 143.1694310
  66.8554540  24.2005880 143.0413530  66.3916440  23.2289530 144.1056300
  62.9781310  16.3171850 144.4647940  63.3966190  16.1302830 143.6244600
  62.6717370  15.4650900 144.7750870  66.4771040  21.2295990 148.1623740
  66.1014640  20.4623920 147.7305030  65.7474160  21.6118690 148.6498670
  49.2428950  18.7329490 146.1854780  48.3393030  18.9959690 146.0106440
  49.7269570  19.0040660 145.4054740  65.7522000  19.4553480 151.4630980
  66.2759480  18.9616130 150.8321150  66.3381420  19.5903840 152.2078550
  51.7856160  17.7895030 144.0949160  52.4947860  17.3678250 143.6096440
  51.0696100  17.8570260 143.4632510  51.4330320  13.8434360 143.1351810
  52.1558450  14.3843300 143.4533030  51.7054840  13.5697780 142.2593350
  65.2421970  18.7126830 147.4023390  65.7381090  18.4797700 148.1872270
  65.0438040  17.8738670 146.9861030  66.6709130  17.3487780 149.9361070
  66.5608410  17.1943820 150.8743340  67.4316720  16.8208720 149.6936480
  67.5599400  15.1795700 143.1767210  68.4848710  15.0476880 142.9685500
  67.5375190  15.2588520 144.1303660  67.6337890  15.9506360 145.8023920
  66.8389390  15.8851480 146.3316830  67.8381170  16.8857000 145.7909270
  64.5756310  29.9897910 149.7962310  65.1715380  29.6682480 149.1196730
  64.8334460  29.5169730 150.5875580  64.0657820  14.2803240 152.2522750
  64.5065910  14.2248340 151.4044350  63.7965410  15.1961250 152.3232930
  65.9296390  13.9118480 150.2631570  65.8684790  12.9679700 150.1162590
  66.7088420  14.0198570 150.8085030  50.2349140  30.0510840 149.2255520
  50.0671180  29.4181520 149.9237410  49.3683650  30.2570240 148.8749710
  50.8577160  13.8827620 146.7287380  51.6156520  13.9956500 146.1551410
  50.3954330  14.7196820 146.6830810  57.3990970  15.9966890 149.7189690
  56.5865480  15.6223780 149.3785570  57.9032610  15.2411970 150.0210880
  61.9015950  12.6609340 150.9572760  62.5045320  13.2329550 151.4321280
  61.1608940  13.2248780 150.7346660  65.0450550  13.0630900 146.2313040
  65.2401180  13.9614350 146.4980470  64.2580420  12.8317980 146.7245990
  51.8411840  28.7444070 146.6705660  51.3159460  29.1252100 145.9667620
  51.7656420  29.3694840 147.3915370  53.2302310  14.4091670 145.2689350
  53.7595070  13.6221470 145.1397300  53.8630630  15.0882860 145.5024880
  55.4240150  14.1466810 148.3234740  54.7942890  13.4454120 148.4904870
  54.8845290  14.9070940 148.1067900  66.5977160  30.3031610 147.9919600
  66.7729350  29.6169350 147.3480520  65.8998730  30.8278660 147.5996270
  54.4404810  30.6926450 145.5454910  55.1723630  30.4085730 144.9978800
  54.6998480  30.4539730 146.4354290  53.6019600  26.8091180 145.5501240
  52.9728480  27.2776280 146.0987070  53.7167430  25.9640400 145.9847430
  61.0569320  20.8596840 131.7002440  60.9763370  19.9451450 131.4294150
  60.6433740  21.3563910 130.9942150  59.1887360  22.6375860 133.5811710
  58.4129460  22.1576300 133.8710280  59.8400290  21.9581510 133.4067870
  53.2053190  22.9495670 134.4587470  52.3738070  22.6944380 134.8583980
  53.8134170  23.0206440 135.1945390  63.2094790  27.0436050 132.3610840
  62.7476320  26.2723290 132.6898010  64.0220340  27.0702120 132.8663290
  53.1854450  26.9835760 134.6545490  53.4882490  26.0933500 134.4755710
  53.9298040  27.5405980 134.4267740  51.6145140  17.9097560 128.2429860
  50.7261840  18.2513530 128.1409740  51.8986330  17.7097880 127.3510690
  49.5778150  20.5103210 134.1269560  50.1494260  19.7425410 134.1273200
  49.5779690  20.8091970 133.2176170  59.4358100  29.3294060 131.9814830
  58.8169540  29.7851560 131.4109270  60.2909880  29.4845520 131.5804530
  58.6296350  25.3133050 133.5881870  58.5604630  24.3722990 133.4271000
  59.3916210  25.4034460 134.1604440  50.8203020  15.9187570 135.9138490
  50.6405860  15.0213320 136.1941250  50.4183100  16.4659440 136.5885440
  59.6601520  18.1203430 133.8150800  60.0366340  17.2475310 133.7024470
  59.5621030  18.4562130 132.9241240  53.7906530  16.4929060 129.2768240
  53.8973280  17.3932790 129.5837000  52.8798890  16.4447030 128.9862890
  63.4425640  15.6153870 130.7479140  64.2635260  15.1250440 130.7904620
  63.4759720  16.2051530 131.5010980  51.4389690  18.4148070 134.5220830
  52.1199800  18.6786440 135.1408230  51.1237740  17.5748940 134.8558840
  55.6314260  19.4615430 133.6093420  56.1392480  19.9596400 134.2498440
  56.1627500  18.6850630 133.4332780  67.7325190  17.6320620 137.3122770
  67.0277360  18.0202330 136.7937880  67.9983110  18.3270910 137.9143700
  53.9150360  14.1013990 137.8756840  53.9168800  14.6186380 137.0702740
  53.0854670  13.6244170 137.8526770  60.3021450  24.2133300 129.3746740
  59.6838720  24.6782750 128.8109460  60.8144700  24.9060780 129.7916250
  55.1653210  23.7409170 136.0530340  54.8322590  24.3678090 136.6951410
  55.3419890  24.2671050 135.2732010  63.6787120  17.5554250 133.5206680
  62.9742690  17.8439140 134.1009790  64.0399280  18.3654360 133.1606240
  53.5965690  15.8123950 135.8827290  53.9382500  16.6566000 135.5881160
  52.6581500  15.9607690 135.9992630  54.3772310  25.7089970 137.8679520
  54.9946310  26.3841050 137.5863970  53.5165430  26.1177950 137.7767020
  49.6704650  24.8989830 126.7486370  49.2932630  25.3876930 126.0171270
  49.9277720  25.5715110 127.3792900  65.2949900  27.1729380 135.7834160
  64.6113420  27.8428490 135.7750830  65.8344190  27.3710030 135.0179020
  66.7474040  17.0009040 133.9115890  65.7998950  17.0348020 134.0431320
  67.0724030  17.8147990 134.2965250  57.2793580  13.3006220 132.2071880
  57.5868560  12.7453110 131.4907380  56.3494280  13.4350680 132.0244870
  62.8308640  29.0173510 134.4979340  62.8435800  28.6135800 133.6301600
  62.2783860  29.7920800 134.3940770  64.1254060  25.7389730 129.5869510
  64.0150390  24.7964060 129.7118930  64.1222310  26.1005370 130.4732270
  62.2294080  23.9203350 135.8261950  62.6462870  23.7063460 134.9915410
  62.9533900  24.1776140 136.3970570  59.6674340  21.3655050 128.9432000
  58.7403620  21.2992430 129.1720470  59.8199160  22.3035180 128.8287240
  59.6543420  17.6372050 125.9399160  58.7147090  17.7986010 126.0251620
  59.9726680  18.3557730 125.3935150  66.1756180  22.3190570 135.9178190
  65.3474810  22.3883660 135.4428320  66.7706660  22.9044880 135.4494020
  63.6971630  22.9275350 129.4467250  63.0784050  22.5894900 128.7993550
  63.6796080  22.2835110 130.1546440  63.1398190  19.1059890 136.8633060
  62.7269370  19.9313600 137.1173050  62.4074140  18.5204930 136.6709420
  55.2730980  21.8919790 131.7251730  54.8687980  21.1797040 131.2297630
  55.3594100  21.5473030 132.6139770  55.7412680  25.5787350 133.8890940
  55.4440970  24.9732820 133.2098720  56.6912500  25.6164660 133.7780300
  53.9859600  18.6663000 135.5050770  54.5374190  18.7758340 134.7304020
  54.5003110  19.0400600 136.2206000  63.8298290  29.1519220 137.5514040
  63.3528850  29.9591410 137.3586650  63.1460080  28.4997550 137.7040250
  54.8331110  25.3169040 140.5398740  53.9359640  25.5409010 140.7872140
  54.8583980  25.4403980 139.5910140  61.8736330  22.1662160 126.4540000
  62.3129610  21.3284590 126.3077820  62.5864750  22.7991560 126.5404140
  53.6602330  22.1882360 139.1156110  53.5210100  23.0605160 139.4843510
  52.7783690  21.8455170 138.9704050  59.9831710  27.1058230 130.4221240
  60.4227620  27.8482560 130.0076630  59.9218600  27.3484800 131.3460200
  55.4582680  28.1304060 141.3241260  55.4298110  28.5347010 140.4569690
  55.2947650  27.2014420 141.1612860  65.4553470  13.4204970 124.7681040
  65.1426130  13.5131800 125.6680110  66.2165940  13.9986000 124.7178470
  51.9735610  20.7864770 129.2258380  51.8533210  21.5126860 128.6139650
  51.6636500  20.0167680 128.7486290  67.4097500  28.9131160 142.6205430
  67.8857220  29.3914050 143.2994510  68.0304660  28.8448650 141.8950930
  49.6120980  23.9579910 135.0327020  49.6901400  24.0928680 134.0882740
  50.2262660  23.2495800 135.2255140  50.8568610  25.6580100 131.4433200
  50.4496690  25.7994690 130.5886800  51.7481620  25.3740260 131.2404410
  66.8130750  26.1044010 139.7805440  66.9393810  25.8655890 138.8622620
  66.8552130  25.2728550 140.2527520  60.6747490  29.8072010 138.3500250
  61.1892160  29.7180020 139.1522680  59.8316570  30.1531710 138.6428160
  62.6501890  30.0927350 127.7784250  62.4903030  29.8030290 128.6766080
  62.4848600  29.3167480 127.2429480  55.1290270  29.8725880 129.5555870
  54.9532750  28.9561420 129.3423670  54.2746010  30.2313170 129.7953670
  62.3528020  27.6014910 126.3382250  61.6593180  27.5992200 125.6784530
  63.0950880  27.1774230 125.9076420  61.9177950  29.2277620 130.4130740
  62.3734900  28.4467000 130.7269360  62.2570470  29.9384440 130.9571920
  66.6654760  18.1576470 140.7455180  66.0499030  18.6656140 140.2170640
  66.3451180  17.2574800 140.6881120  49.6680500  24.9994080 137.5721480
  49.8311540  24.5299440 136.7540850  50.1332950  24.4917640 138.2370320
  54.4399270  14.1299840 132.6082050  53.9967420  14.9109380 132.2766570
  54.9984260  14.4529730 133.3152990  58.7269080  16.9968360 138.2117370
  58.2648450  17.2051380 139.0237310  58.3247190  16.1827710 137.9088040
  63.7273590  18.2177310 139.3414030  62.8767180  17.9183060 139.6623100
  63.5675380  18.4619320 138.4297850  60.8223300  19.7179060 141.4412820
  61.1476710  18.8842810 141.1015050  61.6103630  20.2407580 141.5891150
  57.5558090  13.7510540 127.4887880  56.9312270  13.7470410 128.2141190
  57.4688210  12.8841500 127.0923850  56.4775170  14.6747170 134.4671650
  56.7747500  15.5810000 134.3863670  57.0260730  14.1865950 133.8531220
  54.2313490  19.2533410 130.3363300  54.0054410  19.0370580 131.2409920
  53.4506020  19.6861870 129.9909270  61.4611250  19.2596780 128.9353950
  60.8620140  19.9832580 128.7517570  62.0090860  19.1973560 128.1530400
  56.6712700  20.1518990 141.0023570  56.5756300  19.2113720 140.8523970
  57.5144680  20.3734060 140.6071640  60.0676120  17.8960320 130.9657230
  60.4605690  18.2132520 130.1525920  60.4292970  17.0172200 131.0801750
  51.8023240  16.5632660 139.1557350  51.4086630  17.4107870 139.3630130
  51.1141640  15.9259030 139.3465990  58.3768290  16.6467630 142.2254090
  57.6866610  16.4539830 142.8600180  59.1200590  16.9302270 142.7578390
  49.1040290  14.4861120 133.1887430  48.8153340  15.0563980 133.9012410
  49.8486050  14.0065570 133.5518660  49.2910520  18.4281240 124.3990150
  49.2085190  19.3712000 124.5405140  48.9393580  18.2856150 123.5202500
  60.6531260  20.4866070 135.0608010  59.9212380  20.9952880 135.4098110
  60.2555600  19.6696050 134.7596790  57.0908650  17.1620270 133.4660500
  57.0944710  16.7210220 132.6165040  57.9859770  17.4837600 133.5732320
  52.9411030  17.0446760 132.4254710  52.6011080  17.5221990 133.1821760
  52.1788350  16.5911880 132.0655810  57.1528800  18.1632350 126.4567260
  57.2741620  18.1218830 127.4053080  56.7677310  19.0256500 126.3013990
  61.1157170  15.9399750 134.4730950  61.1329910  16.3908400 135.3172800
  60.8672750  15.0405390 134.6864390  56.1650300  20.4733490 125.8550560
  55.5967200  20.0251740 125.2286470  56.8739300  20.8326270 125.3215710
  64.5427920  13.3531930 140.3117330  64.8673690  12.6221590 140.8375310
  64.5784430  13.0345570 139.4098320  51.2419480  24.3745510 139.7317290
  50.8574270  23.7339180 140.3300250  51.5531670  25.0781630 140.3012020
  57.3916620  21.2222050 135.2125910  57.7586750  20.7480620 135.9587250
  57.2021680  22.0963620 135.5534250  50.2557110  15.9665740 131.3419380
  49.9704030  15.6021410 132.1798000  50.1935970  15.2346200 130.7282520
  55.1815990  20.2630690 137.5310120  54.8773060  21.1422670 137.7560480
  56.1362450  20.3230480 137.5667560  53.7097780  24.4691680 128.1276970
  52.9360040  23.9289300 127.9675690  54.4392410  23.9498290 127.7894730
  64.4685760  23.4657040 133.9203360  65.1884880  23.9612330 133.5299470
  64.2667580  22.7874930 133.2757230  59.9295700  14.8595000 128.0632750
  59.1160310  14.3608170 127.9878060  59.7357650  15.6993250 127.6469100
  59.8504560  23.5366100 139.8072360  59.7841870  22.6161770 139.5529950
  59.2209700  23.6341540 140.5217000  62.6444090  19.2314650 126.3594910
  63.5323710  19.5431880 126.1846250  62.6149180  18.3586900 125.9675490
  53.7535180  24.1372060 131.7655780  54.2713850  23.3340320 131.7112670
  53.3019200  24.0751200 132.6072610  58.6404680  25.4038340 127.0383080
  58.9820380  26.1480570 126.5426400  57.8117390  25.7169460 127.4007910
  51.2379720  21.1033430 138.6781480  50.8794660  21.7687280 139.2654820
  50.9434280  20.2716980 139.0494100  54.4392840  21.5617670 141.5621030
  54.1392980  21.7074850 140.6648850  55.2104080  21.0022960 141.4694420
  59.7821290  26.3586670 139.5576160  59.7965830  25.4267630 139.3395070
  59.0746390  26.4446430 140.1965930  64.9158360  20.5426490 125.8274770
  64.8322080  20.9740710 124.9771210  65.6352550  21.0024840 126.2601590
  65.9932500  22.9994010 138.9044740  65.2680690  23.5922790 138.7074130
  66.5207960  22.9917550 138.1058110  65.9445610  27.3968750 128.5556900
  65.3021770  26.7424370 128.8300620  65.5576270  27.8023840 127.7797570
  61.5232090  24.7254180 132.4028590  61.8755910  24.1282310 131.7429960
  60.6394420  24.3998410 132.5736840  57.6095370  25.4851870 129.8099000
  58.2966500  26.0321080 130.1906590  56.8227790  26.0292600 129.8448610
  49.7487770  21.1024690 125.3016080  50.6182620  21.3849490 125.5852000
  49.2578090  21.9160560 125.1864890  56.9122580  22.4897900 129.4224360
  57.3685360  23.3003150 129.6484550  56.5610790  22.1721040 130.2542850
  59.2155190  28.0004240 136.6516660  59.8597410  28.2063620 137.3290080
  59.5784630  27.2392640 136.1987510  52.8134360  12.8335550 129.8946880
  52.6848990  12.8253450 130.8431800  51.9896380  13.1718640 129.5437890
  60.4887270  26.0036590 135.3694110  61.1309500  25.3029750 135.4826280
  61.0136620  26.7835030 135.1891000  64.3342990  26.2885210 125.0933250
  64.1080570  25.5715650 125.6857890  63.9439190  26.0397650 124.2555000
  62.2624890  26.8031490 138.5730170  62.5981130  27.3898180 139.2508090
  61.3425230  26.6724200 138.8027960  50.1159020  30.3152070 125.8677710
  50.4756660  30.9141410 125.2134980  49.9751360  30.8611960 126.6412740
  49.8128290  14.5926670 139.3553580  49.0986810  14.7923590 139.9606190
  50.2323330  13.8166240 139.7268380  63.9159240  24.2057150 126.7547410
  63.6280940  24.6669840 127.5425290  64.7111410  23.7454920 127.0231630
  50.1000880  28.5806930 140.3420110  50.2092000  27.6401670 140.2015500
  49.4481440  28.8461680 139.6933840  58.0913470  26.8522820 141.7418230
  57.7710340  26.1332060 142.2863920  57.4171830  27.5277890 141.8154290
  56.1327640  27.6983270 126.6851380  56.1237740  28.4312960 126.0695890
  55.2126000  27.4514850 126.7778340  51.7334280  22.9198160 127.4298140
  51.1262230  23.6597060 127.4393440  52.2083630  23.0097520 126.6036340
  61.3067070  17.0848980 137.1055030  61.6747890  16.2644190 137.4334600
  60.4465270  17.1450870 137.5210680  64.6729100  16.0405920 127.9142590
  64.0442260  16.1451590 127.2000820  64.1781020  16.2602700 128.7036470
  59.1187240  27.7611510 125.3476570  59.2199220  27.5575500 124.4178550
  58.2188980  27.5069790 125.5524350  56.6413130  18.3191870 129.3300470
  55.9329280  18.7878210 129.7714080  56.9257610  17.6613880 129.9645660
  58.2669060  19.7388570 137.3293000  58.7654310  20.2134390 137.9944850
  58.4092010  18.8152090 137.5363030  60.6728560  15.0442530 130.7696260
  60.5496340  15.0628660 129.8205770  61.6213120  15.0921470 130.8894660
  57.7605350  30.2797830 130.0424240  58.0146850  30.2419220 129.1203610
  56.8117830  30.1531160 130.0352490  54.8448150  16.6276950 126.7051180
  55.6938680  17.0647100 126.6391370  54.4779420  16.9397210 127.5323240
  65.4735920  15.9556530 138.1721390  64.9709520  16.6961930 138.5115200
  66.2892580  16.3440530 137.8558180  63.7657930  21.1989710 131.6182750
  62.8248070  21.2139940 131.7930440  64.0802000  20.4125670 132.0643050
  53.7439570  22.8809310 125.1786710  54.5102840  22.7690670 125.7412140
  53.8214260  22.1847280 124.5263480  52.4386330  20.3134380 125.8619600
  52.5189920  19.3661890 125.9737000  53.3306080  20.6441260 125.9680260
  65.7683510  28.3698560 133.2937010  65.8930930  29.1929730 133.7660820
  66.6349070  28.1589290 132.9461160  53.2401040  30.4629770 132.9654140
  53.9763520  29.9145230 133.2362710  53.6241960  31.3285780 132.8260130
  50.1246520  26.5303340 128.8395650  49.1986300  26.7724480 128.8301060
  50.5902950  27.3577600 128.7180400  52.2459320  29.6475840 142.1539720
  53.0472050  29.9687890 142.5675120  51.7311140  29.2871420 142.8759630
  56.3503350  29.6360080 124.7879710  57.1431960  29.9248910 124.3361500
  55.8307700  29.2052250 124.1092190  61.0823950  25.7555710 142.1015130
  60.4762110  25.7787310 141.3610880  60.7778060  25.0238750 142.6382380
  62.5124320  29.4836000 140.7124540  63.4646070  29.3994020 140.6624780
  62.3652540  30.1477710 141.3858330  65.4033520  28.8630210 126.2116450
  65.1175030  28.4495350 125.3970630  65.2053070  29.7917920 126.0916970
  49.9657130  22.1349300 141.0975770  50.4696150  21.5556580 141.6692000
  49.2264550  22.4189530 141.6352140  56.8680750  24.8563490 124.6522060
  56.7631390  24.2415840 125.3783440  56.7004970  24.3329380 123.8685070
  57.0195070  23.5420290 140.6311290  56.2540740  24.1105290 140.5465960
  57.2011030  23.2496500 139.7379520  60.1083480  23.9183520 125.2564050
  59.5593580  24.3652820 125.9006790  60.7302740  23.4132770 125.7801720
  64.1618420  25.2725620 141.1886310  64.9027890  25.6101380 140.6853770
  63.3991100  25.4417680 140.6356080  51.9980210  20.2778890 141.9925840
  52.0385550  19.9792760 142.9011070  52.8525710  20.6786500 141.8333360
  55.7758600  22.8774440 127.1529350  56.1975020  22.7114310 127.9960740
  55.9009440  22.0674670 126.6584490  53.9386020  18.8570990 139.9600330
  53.4082480  18.3661940 139.3323670  54.6074090  19.2855190 139.4258260
  58.2886240  21.9012050 124.4006450  58.8091900  21.1861070 124.0347600
  58.9354640  22.5397920 124.7006960  62.8364080  23.3240450 139.7241520
  63.2505100  23.4785530 140.5731940  61.9015080  23.4495670 139.8867300
  63.3086250  20.6636610 141.7280670  63.8907020  19.9088930 141.6401150
  63.4848020  21.1944050 140.9512150  54.4258320  15.8233360 140.0397620
  54.3315190  15.2054110 139.3148490  53.8455710  16.5499650 139.8127530
  57.1919760  14.3806600 137.0725010  56.7437060  14.4030860 136.2270560
  56.5584960  13.9825620 137.6695310  57.5979310  23.2760930 137.6937450
  58.0167420  24.1193660 137.5213690  56.6787940  23.4132970 137.4644230
  59.9343210  21.0077110 139.0775290  60.0539420  20.4118250 139.8170130
  60.7937210  21.0446800 138.6576590  62.2731110  21.5614300 137.6537800
  61.7466330  22.0856920 137.0502940  62.6162450  22.1941690 138.2847530
  54.6717500  18.9507670 124.0987510  54.4706560  18.0875030 124.4600850
  54.5009550  18.8641030 123.1609110  55.4486730  29.5813940 138.8095180
  54.9107820  30.3060000 138.4903880  55.7020690  29.1044280 138.0192520
  56.7011980  17.5498460 140.3351110  57.2911670  17.2414310 141.0228930
  55.8832220  17.0778210 140.4911010  61.5205410  17.1664270 140.5684130
  60.8320930  16.5045810 140.5034120  62.2411430  16.7202540 141.0132590
  62.1505810  13.7615900 126.6274390  62.4308100  12.9183800 126.9833810
  61.3771540  13.9939010 127.1413140  53.4700300  16.0508290 124.0865390
  53.7726200  16.0575720 123.1784540  54.2094890  15.7006150 124.5833050
  58.3048940  30.8165150 139.0681830  58.2307640  31.7200290 139.3754200
  57.4027780  30.4977050 139.0403900  56.6885230  14.9942910 125.0721590
  56.3407230  14.3166900 124.4924040  56.8898000  14.5332420 125.8864980
  58.8534270  29.9823660 126.6908190  59.7485060  30.3208630 126.7126950
  58.8851900  29.2603070 126.0632470  52.4930430  25.3550710 124.9195190
  52.9305300  25.8980380 125.5752770  52.9778160  24.5297660 124.9291530
  49.7076230  28.1439740 132.3715450  50.0379240  27.2760800 132.1394090
  50.1367230  28.3498260 133.2020410  54.3038150  26.4748750 130.0317420
  54.0033690  26.3513720 130.9321330  54.1975640  25.6157340 129.6233150
  50.1966440  29.0110330 135.1097080  49.7597430  29.1911130 135.9421230
  50.7644120  29.7684950 134.9678800  65.8328620  28.5127330 139.3974390
  65.2330610  28.5719890 138.6538310  65.9622520  27.5732310 139.5271240
  67.0730070  26.2545150 124.7344100  66.2423030  26.3221800 125.2051330
  67.2501900  27.1449270 124.4310960  66.5286530  22.9992630 127.2378300
  67.2905440  23.5689280 127.3437990  66.5440900  22.4319830 128.0086610
  50.0290870  21.5230560 131.4685960  49.3739710  21.2542200 130.8245660
  50.8668820  21.4135040 131.0187940  67.5346500  23.8542730 132.0820230
  67.9055330  23.0710050 131.6756200  68.1748430  24.5431830 131.9037530
  64.5180260  25.2379310 137.4950550  63.7040100  25.6676470 137.7576340
  64.9254460  25.8497720 136.8819600  66.5805700  23.2927000 124.3950820
  66.8554540  24.2005880 124.2670040  66.3916440  23.2289530 125.3312810
  62.9781310  16.3171850 125.6904450  63.3966190  16.1302830 124.8501110
  62.6717370  15.4650900 126.0007380  66.4771040  21.2295990 129.3880250
  66.1014640  20.4623920 128.9561540  65.7474160  21.6118690 129.8755180
  51.0666800  21.9083130 136.0089300  51.4339840  21.8210530 136.8885320
  50.4977620  21.1449680 135.9096160  65.8670660  20.3767510 139.0219770
  65.6356750  20.1480260 138.1217720  66.1275210  21.2967060 138.9764660
  50.6182800  18.8192220 139.9147720  49.7238850  18.7858980 140.2541430
  51.1580350  19.0179010 140.6798970  64.3058730  15.6023940 141.7999470
  65.1828910  15.6107340 142.1833470  64.3179570  14.8654780 141.1891820
  49.2428950  18.7329490 127.4111290  48.3393030  18.9959690 127.2362950
  49.7269570  19.0040660 126.6311250  65.7522000  19.4553480 132.6887490
  66.2759480  18.9616130 132.0577660  66.3381420  19.5903840 133.4335060
  65.9311720  19.5393350 136.2107040  64.9814430  19.5056890 136.3252030
  66.1124730  20.4493460 135.9756810  51.7856160  17.7895030 125.3205670
  52.4947860  17.3678250 124.8352950  51.0696100  17.8570260 124.6889020
  51.4330320  13.8434360 124.3608320  52.1558450  14.3843300 124.6789540
  51.7054840  13.5697780 123.4849860  65.2421970  18.7126830 128.6279900
  65.7381090  18.4797700 129.4128780  65.0438040  17.8738670 128.2117540
  51.1222510  13.0940550 134.2630940  51.7698700  12.5437930 133.8226100
  51.5424350  13.3483700 135.0846750  66.6709130  17.3487780 131.1617580
  66.5608410  17.1943820 132.0999850  67.4316720  16.8208720 130.9192990
  65.0174850  13.2881910 137.6200580  65.6547070  13.9016050 137.9859770
  65.1649740  13.3242570 136.6749810  67.5599400  15.1795700 124.4023720
  68.4848710  15.0476880 124.1942010  67.5375190  15.2588520 125.3560170
  67.6337890  15.9506360 127.0280430  66.8389390  15.8851480 127.5573340
  67.8381170  16.8857000 127.0165780  64.5756310  29.9897910 131.0218820
  65.1715380  29.6682480 130.3453240  64.8334460  29.5169730 131.8132090
  50.8754510  13.2496220 137.0056260  50.5269330  13.7060040 137.7714440
  50.5442210  12.3553350 137.0878690  52.4818880  26.4215820 141.1709450
  52.4388510  26.0508730 142.0523910  52.6129890  27.3593390 141.3111270
  56.1824910  27.9775410 136.7719170  55.9416270  28.2449970 135.8849690
  57.1227550  28.1481140 136.8270030  58.3879330  14.4408100 140.5275680
  58.3268220  15.0329930 141.2771090  59.3279710  14.3334060 140.3825940
  61.0253890  14.0978160 140.1667970  61.6394300  14.4157450 139.5049050
  61.5703450  13.6126750 140.7863830  67.4429070  29.9969790 137.5729810
  66.9487350  30.3938660 136.8556940  66.8342360  29.3719000 137.9667090
  51.5475150  12.7772420 140.2807030  52.0958140  12.5960470 139.5173140
  51.6130460  11.9866530 140.8163340  52.3206910  29.3678070 138.2907230
  51.7267230  29.2362770 139.0297270  52.3130750  28.5316210 137.8249330
  61.7661930  12.6610300 136.4937260  60.8921770  12.9945410 136.2910190
  61.6572680  12.1883480 137.3189130  62.6733910  14.8681170 137.8778980
  62.3447270  14.0532930 137.4980710  63.6216210  14.8250980 137.7544670
  65.1268520  30.6393210 134.8516550  64.6671490  31.3909020 134.4774570
  64.4980980  29.9199680 134.7931350  51.9519140  26.7336450 137.2415270
  51.2253200  26.1141740 137.1741220  52.0128290  27.1277060 136.3713350
  55.5564240  28.9481450 134.0264680  56.0729260  28.3368810 133.5012940
  56.2061620  29.4510230 134.5175690  58.2959740  29.8389940 134.8533660
  58.5837550  29.5844240 133.9766670  58.8082960  29.2867300 135.4439230
  59.5136750  13.5780140 135.4330170  58.7308540  14.0525640 135.7126930
  59.2199680  12.6734970 135.3243350  64.0657820  14.2803240 133.4779260
  64.5065910  14.2248340 132.6300860  63.7965410  15.1961250 133.5489440
  65.9296390  13.9118480 131.4888080  65.8684790  12.9679700 131.3419100
  66.7088420  14.0198570 132.0341540  50.2349140  30.0510840 130.4512030
  50.0671180  29.4181520 131.1493920  49.3683650  30.2570240 130.1006220
  50.8577160  13.8827620 127.9543890  51.6156520  13.9956500 127.3807920
  50.3954330  14.7196820 127.9087320  57.3990970  15.9966890 130.9446200
  56.5865480  15.6223780 130.6042080  57.9032610  15.2411970 131.2467390
  61.9015950  12.6609340 132.1829270  62.5045320  13.2329550 132.6577790
  61.1608940  13.2248780 131.9603170  65.0450550  13.0630900 127.4569550
  65.2401180  13.9614350 127.7236980  64.2580420  12.8317980 127.9502500
  51.8411840  28.7444070 127.8962170  51.3159460  29.1252100 127.1924130
  51.7656420  29.3694840 128.6171880  53.2302310  14.4091670 126.4945860
  53.7595070  13.6221470 126.3653810  53.8630630  15.0882860 126.7281390
  55.4240150  14.1466810 129.5491250  54.7942890  13.4454120 129.7161380
  54.8845290  14.9070940 129.3324410  58.3632100  30.7606040 142.2201860
  59.2899410  30.5250310 142.2637820  58.3482530  31.5878040 141.7387890
  66.5977160  30.3031610 129.2176110  66.7729350  29.6169350 128.5737030
  65.8998730  30.8278660 128.8252780  55.5495710  13.4250790 141.9843740
  55.2679980  13.9284390 141.2204560  55.9315410  12.6272540 141.6185870
  54.4404810  30.6926450 126.7711420  55.1723630  30.4085730 126.2235310
  54.6998480  30.4539730 127.6610800  53.6019600  26.8091180 126.7757750
  52.9728480  27.2776280 127.3243580  53.7167430  25.9640400 127.2103940
  62.1511170  12.8404370 142.5624210  62.0376620  13.1598980 143.4575730
  62.9680910  13.2416880 142.2661490  64.9309660  29.9875900 142.0442900
  65.7234980  29.4925130 141.8368860  65.2242810  30.6666040 142.6518510
  61.0569320  20.8596840 112.9258950  60.9763370  19.9451450 112.6550660
  60.6433740  21.3563910 112.2198660  59.1887360  22.6375860 114.8068220
  58.4129460  22.1576300 115.0966790  59.8400290  21.9581510 114.6324380
  53.2053190  22.9495670 115.6843980  52.3738070  22.6944380 116.0840490
  53.8134170  23.0206440 116.4201900  53.1854450  26.9835760 115.8802000
  53.4882490  26.0933500 115.7012220  53.9298040  27.5405980 115.6524250
  51.6145140  17.9097560 109.4686370  50.7261840  18.2513530 109.3666250
  51.8986330  17.7097880 108.5767200  49.5778150  20.5103210 115.3526070
  50.1494260  19.7425410 115.3529710  49.5779690  20.8091970 114.4432680
  50.8203020  15.9187570 117.1395000  50.6405860  15.0213320 117.4197760
  50.4183100  16.4659440 117.8141950  59.6601520  18.1203430 115.0407310
  60.0366340  17.2475310 114.9280980  59.5621030  18.4562130 114.1497750
  53.7906530  16.4929060 110.5024750  53.8973280  17.3932790 110.8093510
  52.8798890  16.4447030 110.2119400  63.4425640  15.6153870 111.9735650
  64.2635260  15.1250440 112.0161130  63.4759720  16.2051530 112.7267490
  51.4389690  18.4148070 115.7477340  52.1199800  18.6786440 116.3664740
  51.1237740  17.5748940 116.0815350  55.6314260  19.4615430 114.8349930
  56.1392480  19.9596400 115.4754950  56.1627500  18.6850630 114.6589290
  67.7325190  17.6320620 118.5379280  67.0277360  18.0202330 118.0194390
  67.9983110  18.3270910 119.1400210  53.9150360  14.1013990 119.1013350
  53.9168800  14.6186380 118.2959250  53.0854670  13.6244170 119.0783280
  55.1653210  23.7409170 117.2786850  54.8322590  24.3678090 117.9207920
  55.3419890  24.2671050 116.4988520  63.6787120  17.5554250 114.7463190
  62.9742690  17.8439140 115.3266300  64.0399280  18.3654360 114.3862750
  53.5965690  15.8123950 117.1083800  53.9382500  16.6566000 116.8137670
  52.6581500  15.9607690 117.2249140  54.3772310  25.7089970 119.0936030
  54.9946310  26.3841050 118.8120480  53.5165430  26.1177950 119.0023530
  49.6704650  24.8989830 107.9742880  49.2932630  25.3876930 107.2427780
  49.9277720  25.5715110 108.6049410  65.2949900  27.1729380 117.0090670
  64.6113420  27.8428490 117.0007340  65.8344190  27.3710030 116.2435530
  66.7474040  17.0009040 115.1372400  65.7998950  17.0348020 115.2687830
  67.0724030  17.8147990 115.5221760  57.2793580  13.3006220 113.4328390
  57.5868560  12.7453110 112.7163890  56.3494280  13.4350680 113.2501380
  64.1254060  25.7389730 110.8126020  64.0150390  24.7964060 110.9375440
  64.1222310  26.1005370 111.6988780  62.2294080  23.9203350 117.0518460
  62.6462870  23.7063460 116.2171920  62.9533900  24.1776140 117.6227080
  59.6674340  21.3655050 110.1688510  58.7403620  21.2992430 110.3976980
  59.8199160  22.3035180 110.0543750  59.6543420  17.6372050 107.1655670
  58.7147090  17.7986010 107.2508130  59.9726680  18.3557730 106.6191660
  66.1756180  22.3190570 117.1434700  65.3474810  22.3883660 116.6684830
  66.7706660  22.9044880 116.6750530  63.6971630  22.9275350 110.6723760
  63.0784050  22.5894900 110.0250060  63.6796080  22.2835110 111.3802950
  63.1398190  19.1059890 118.0889570  62.7269370  19.9313600 118.3429560
  62.4074140  18.5204930 117.8965930  55.2730980  21.8919790 112.9508240
  54.8687980  21.1797040 112.4554140  55.3594100  21.5473030 113.8396280
  53.9859600  18.6663000 116.7307280  54.5374190  18.7758340 115.9560530
  54.5003110  19.0400600 117.4462510  63.8298290  29.1519220 118.7770550
  63.3528850  29.9591410 118.5843160  63.1460080  28.4997550 118.9296760
  54.8331110  25.3169040 121.7655250  53.9359640  25.5409010 122.0128650
  54.8583980  25.4403980 120.8166650  61.8736330  22.1662160 107.6796510
  62.3129610  21.3284590 107.5334330  62.5864750  22.7991560 107.7660650
  53.6602330  22.1882360 120.3412620  53.5210100  23.0605160 120.7100020
  52.7783690  21.8455170 120.1960560  55.4582680  28.1304060 122.5497770
  55.4298110  28.5347010 121.6826200  55.2947650  27.2014420 122.3869370
  65.4553470  13.4204970 105.9937550  65.1426130  13.5131800 106.8936620
  66.2165940  13.9986000 105.9434980  51.9735610  20.7864770 110.4514890
  51.8533210  21.5126860 109.8396160  51.6636500  20.0167680 109.9742800
  67.4097500  28.9131160 123.8461940  67.8857220  29.3914050 124.5251020
  68.0304660  28.8448650 123.1207440  49.6120980  23.9579910 116.2583530
  49.6901400  24.0928680 115.3139250  50.2262660  23.2495800 116.4511650
  50.8568610  25.6580100 112.6689710  50.4496690  25.7994690 111.8143310
  51.7481620  25.3740260 112.4660920  66.8130750  26.1044010 121.0061950
  66.9393810  25.8655890 120.0879130  66.8552130  25.2728550 121.4784030
  60.6747490  29.8072010 119.5756760  61.1892160  29.7180020 120.3779190
  59.8316570  30.1531710 119.8684670  66.6654760  18.1576470 121.9711690
  66.0499030  18.6656140 121.4427150  66.3451180  17.2574800 121.9137630
  49.6680500  24.9994080 118.7977990  49.8311540  24.5299440 117.9797360
  50.1332950  24.4917640 119.4626830  54.4399270  14.1299840 113.8338560
  53.9967420  14.9109380 113.5023080  54.9984260  14.4529730 114.5409500
  58.7269080  16.9968360 119.4373880  58.2648450  17.2051380 120.2493820
  58.3247190  16.1827710 119.1344550  63.7273590  18.2177310 120.5670540
  62.8767180  17.9183060 120.8879610  63.5675380  18.4619320 119.6554360
  60.8223300  19.7179060 122.6669330  61.1476710  18.8842810 122.3271560
  61.6103630  20.2407580 122.8147660  57.5558090  13.7510540 108.7144390
  56.9312270  13.7470410 109.4397700  57.4688210  12.8841500 108.3180360
  56.4775170  14.6747170 115.6928160  56.7747500  15.5810000 115.6120180
  57.0260730  14.1865950 115.0787730  54.2313490  19.2533410 111.5619810
  54.0054410  19.0370580 112.4666430  53.4506020  19.6861870 111.2165780
  61.4611250  19.2596780 110.1610460  60.8620140  19.9832580 109.9774080
  62.0090860  19.1973560 109.3786910  56.6712700  20.1518990 122.2280080
  56.5756300  19.2113720 122.0780480  57.5144680  20.3734060 121.8328150
  60.0676120  17.8960320 112.1913740  60.4605690  18.2132520 111.3782430
  60.4292970  17.0172200 112.3058260  51.8023240  16.5632660 120.3813860
  51.4086630  17.4107870 120.5886640  51.1141640  15.9259030 120.5722500
  58.3768290  16.6467630 123.4510600  57.6866610  16.4539830 124.0856690
  59.1200590  16.9302270 123.9834900  49.1040290  14.4861120 114.4143940
  48.8153340  15.0563980 115.1268920  49.8486050  14.0065570 114.7775170
  49.2910520  18.4281240 105.6246660  49.2085190  19.3712000 105.7661650
  48.9393580  18.2856150 104.7459010  60.6531260  20.4866070 116.2864520
  59.9212380  20.9952880 116.6354620  60.2555600  19.6696050 115.9853300
  57.0908650  17.1620270 114.6917010  57.0944710  16.7210220 113.8421550
  57.9859770  17.4837600 114.7988830  52.9411030  17.0446760 113.6511220
  52.6011080  17.5221990 114.4078270  52.1788350  16.5911880 113.2912320
  57.1528800  18.1632350 107.6823770  57.2741620  18.1218830 108.6309590
  56.7677310  19.0256500 107.5270500  61.1157170  15.9399750 115.6987460
  61.1329910  16.3908400 116.5429310  60.8672750  15.0405390 115.9120900
  56.1650300  20.4733490 107.0807070  55.5967200  20.0251740 106.4542980
  56.8739300  20.8326270 106.5472220  64.5427920  13.3531930 121.5373840
  64.8673690  12.6221590 122.0631820  64.5784430  13.0345570 120.6354830
  51.2419480  24.3745510 120.9573800  50.8574270  23.7339180 121.5556760
  51.5531670  25.0781630 121.5268530  57.3916620  21.2222050 116.4382420
  57.7586750  20.7480620 117.1843760  57.2021680  22.0963620 116.7790760
  50.2557110  15.9665740 112.5675890  49.9704030  15.6021410 113.4054510
  50.1935970  15.2346200 111.9539030  55.1815990  20.2630690 118.7566630
  54.8773060  21.1422670 118.9816990  56.1362450  20.3230480 118.7924070
  53.7097780  24.4691680 109.3533480  52.9360040  23.9289300 109.1932200
  54.4392410  23.9498290 109.0151240  64.4685760  23.4657040 115.1459870
  65.1884880  23.9612330 114.7555980  64.2667580  22.7874930 114.5013740
  59.9295700  14.8595000 109.2889260  59.1160310  14.3608170 109.2134570
  59.7357650  15.6993250 108.8725610  59.8504560  23.5366100 121.0328870
  59.7841870  22.6161770 120.7786460  59.2209700  23.6341540 121.7473510
  62.6444090  19.2314650 107.5851420  63.5323710  19.5431880 107.4102760
  62.6149180  18.3586900 107.1932000  53.7535180  24.1372060 112.9912290
  54.2713850  23.3340320 112.9369180  53.3019200  24.0751200 113.8329120
  51.2379720  21.1033430 119.9037990  50.8794660  21.7687280 120.4911330
  50.9434280  20.2716980 120.2750610  54.4392840  21.5617670 122.7877540
  54.1392980  21.7074850 121.8905360  55.2104080  21.0022960 122.6950930
  59.7821290  26.3586670 120.7832670  59.7965830  25.4267630 120.5651580
  59.0746390  26.4446430 121.4222440  64.9158360  20.5426490 107.0531280
  64.8322080  20.9740710 106.2027720  65.6352550  21.0024840 107.4858100
  65.9932500  22.9994010 120.1301250  65.2680690  23.5922790 119.9330640
  66.5207960  22.9917550 119.3314620  65.9445610  27.3968750 109.7813410
  65.3021770  26.7424370 110.0557130  65.5576270  27.8023840 109.0054080
  49.7487770  21.1024690 106.5272590  50.6182620  21.3849490 106.8108510
  49.2578090  21.9160560 106.4121400  56.9122580  22.4897900 110.6480870
  57.3685360  23.3003150 110.8741060  56.5610790  22.1721040 111.4799360
  52.8134360  12.8335550 111.1203390  52.6848990  12.8253450 112.0688310
  51.9896380  13.1718640 110.7694400  62.2624890  26.8031490 119.7986680
  62.5981130  27.3898180 120.4764600  61.3425230  26.6724200 120.0284470
  50.1159020  30.3152070 107.0934220  50.4756660  30.9141410 106.4391490
  49.9751360  30.8611960 107.8669250  49.8128290  14.5926670 120.5810090
  49.0986810  14.7923590 121.1862700  50.2323330  13.8166240 120.9524890
  63.9159240  24.2057150 107.9803920  63.6280940  24.6669840 108.7681800
  64.7111410  23.7454920 108.2488140  50.1000880  28.5806930 121.5676620
  50.2092000  27.6401670 121.4272010  49.4481440  28.8461680 120.9190350
  58.0913470  26.8522820 122.9674740  57.7710340  26.1332060 123.5120430
  57.4171830  27.5277890 123.0410800  51.7334280  22.9198160 108.6554650
  51.1262230  23.6597060 108.6649950  52.2083630  23.0097520 107.8292850
  61.3067070  17.0848980 118.3311540  61.6747890  16.2644190 118.6591110
  60.4465270  17.1450870 118.7467190  64.6729100  16.0405920 109.1399100
  64.0442260  16.1451590 108.4257330  64.1781020  16.2602700 109.9292980
  56.6413130  18.3191870 110.5556980  55.9329280  18.7878210 110.9970590
  56.9257610  17.6613880 111.1902170  58.2669060  19.7388570 118.5549510
  58.7654310  20.2134390 119.2201360  58.4092010  18.8152090 118.7619540
  60.6728560  15.0442530 111.9952770  60.5496340  15.0628660 111.0462280
  61.6213120  15.0921470 112.1151170  54.8448150  16.6276950 107.9307690
  55.6938680  17.0647100 107.8647880  54.4779420  16.9397210 108.7579750
  65.4735920  15.9556530 119.3977900  64.9709520  16.6961930 119.7371710
  66.2892580  16.3440530 119.0814690  63.7657930  21.1989710 112.8439260
  62.8248070  21.2139940 113.0186950  64.0802000  20.4125670 113.2899560
  53.7439570  22.8809310 106.4043220  54.5102840  22.7690670 106.9668650
  53.8214260  22.1847280 105.7519990  52.4386330  20.3134380 107.0876110
  52.5189920  19.3661890 107.1993510  53.3306080  20.6441260 107.1936770
  65.7683510  28.3698560 114.5193520  65.8930930  29.1929730 114.9917330
  66.6349070  28.1589290 114.1717670  53.2401040  30.4629770 114.1910650
  53.9763520  29.9145230 114.4619220  53.6241960  31.3285780 114.0516640
  50.1246520  26.5303340 110.0652160  49.1986300  26.7724480 110.0557570
  50.5902950  27.3577600 109.9436910  52.2459320  29.6475840 123.3796230
  53.0472050  29.9687890 123.7931630  51.7311140  29.2871420 124.1016140
  61.0823950  25.7555710 123.3271640  60.4762110  25.7787310 122.5867390
  60.7778060  25.0238750 123.8638890  62.5124320  29.4836000 121.9381050
  63.4646070  29.3994020 121.8881290  62.3652540  30.1477710 122.6114840
  65.4033520  28.8630210 107.4372960  65.1175030  28.4495350 106.6227140
  65.2053070  29.7917920 107.3173480  49.9657130  22.1349300 122.3232280
  50.4696150  21.5556580 122.8948510  49.2264550  22.4189530 122.8608650
  57.0195070  23.5420290 121.8567800  56.2540740  24.1105290 121.7722470
  57.2011030  23.2496500 120.9636030  64.1618420  25.2725620 122.4142820
  64.9027890  25.6101380 121.9110280  63.3991100  25.4417680 121.8612590
  51.9980210  20.2778890 123.2182350  52.0385550  19.9792760 124.1267580
  52.8525710  20.6786500 123.0589870  55.7758600  22.8774440 108.3785860
  56.1975020  22.7114310 109.2217250  55.9009440  22.0674670 107.8841000
  53.9386020  18.8570990 121.1856840  53.4082480  18.3661940 120.5580180
  54.6074090  19.2855190 120.6514770  58.2886240  21.9012050 105.6262960
  58.8091900  21.1861070 105.2604110  58.9354640  22.5397920 105.9263470
  62.8364080  23.3240450 120.9498030  63.2505100  23.4785530 121.7988450
  61.9015080  23.4495670 121.1123810  63.3086250  20.6636610 122.9537180
  63.8907020  19.9088930 122.8657660  63.4848020  21.1944050 122.1768660
  54.4258320  15.8233360 121.2654130  54.3315190  15.2054110 120.5405000
  53.8455710  16.5499650 121.0384040  57.1919760  14.3806600 118.2981520
  56.7437060  14.4030860 117.4527070  56.5584960  13.9825620 118.8951820
  57.5979310  23.2760930 118.9193960  58.0167420  24.1193660 118.7470200
  56.6787940  23.4132970 118.6900740  59.9343210  21.0077110 120.3031800
  60.0539420  20.4118250 121.0426640  60.7937210  21.0446800 119.8833100
  62.2731110  21.5614300 118.8794310  61.7466330  22.0856920 118.2759450
  62.6162450  22.1941690 119.5104040  54.6717500  18.9507670 105.3244020
  54.4706560  18.0875030 105.6857360  54.5009550  18.8641030 104.3865620
  55.4486730  29.5813940 120.0351690  54.9107820  30.3060000 119.7160390
  55.7020690  29.1044280 119.2449030  56.7011980  17.5498460 121.5607620
  57.2911670  17.2414310 122.2485440  55.8832220  17.0778210 121.7167520
  61.5205410  17.1664270 121.7940640  60.8320930  16.5045810 121.7290630
  62.2411430  16.7202540 122.2389100  62.1505810  13.7615900 107.8530900
  62.4308100  12.9183800 108.2090320  61.3771540  13.9939010 108.3669650
  53.4700300  16.0508290 105.3121900  53.7726200  16.0575720 104.4041050
  54.2094890  15.7006150 105.8089560  58.3048940  30.8165150 120.2938340
  58.2307640  31.7200290 120.6010710  57.4027780  30.4977050 120.2660410
  56.6885230  14.9942910 106.2978100  56.3407230  14.3166900 105.7180550
  56.8898000  14.5332420 107.1121490  52.4930430  25.3550710 106.1451700
  52.9305300  25.8980380 106.8009280  52.9778160  24.5297660 106.1548040
  49.7076230  28.1439740 113.5971960  50.0379240  27.2760800 113.3650600
  50.1367230  28.3498260 114.4276920  50.1966440  29.0110330 116.3353590
  49.7597430  29.1911130 117.1677740  50.7644120  29.7684950 116.1935310
  65.8328620  28.5127330 120.6230900  65.2330610  28.5719890 119.8794820
  65.9622520  27.5732310 120.7527750  67.0730070  26.2545150 105.9600610
  66.2423030  26.3221800 106.4307840  67.2501900  27.1449270 105.6567470
  66.5286530  22.9992630 108.4634810  67.2905440  23.5689280 108.5694500
  66.5440900  22.4319830 109.2343120  50.0290870  21.5230560 112.6942470
  49.3739710  21.2542200 112.0502170  50.8668820  21.4135040 112.2444450
  67.5346500  23.8542730 113.3076740  67.9055330  23.0710050 112.9012710
  68.1748430  24.5431830 113.1294040  64.5180260  25.2379310 118.7207060
  63.7040100  25.6676470 118.9832850  64.9254460  25.8497720 118.1076110
  66.5805700  23.2927000 105.6207330  66.8554540  24.2005880 105.4926550
  66.3916440  23.2289530 106.5569320  62.9781310  16.3171850 106.9160960
  63.3966190  16.1302830 106.0757620  62.6717370  15.4650900 107.2263890
  66.4771040  21.2295990 110.6136760  66.1014640  20.4623920 110.1818050
  65.7474160  21.6118690 111.1011690  51.0666800  21.9083130 117.2345810
  51.4339840  21.8210530 118.1141830  50.4977620  21.1449680 117.1352670
  65.8670660  20.3767510 120.2476280  65.6356750  20.1480260 119.3474230
  66.1275210  21.2967060 120.2021170  50.6182800  18.8192220 121.1404230
  49.7238850  18.7858980 121.4797940  51.1580350  19.0179010 121.9055480
  64.3058730  15.6023940 123.0255980  65.1828910  15.6107340 123.4089980
  64.3179570  14.8654780 122.4148330  49.2428950  18.7329490 108.6367800
  48.3393030  18.9959690 108.4619460  49.7269570  19.0040660 107.8567760
  65.7522000  19.4553480 113.9144000  66.2759480  18.9616130 113.2834170
  66.3381420  19.5903840 114.6591570  65.9311720  19.5393350 117.4363550
  64.9814430  19.5056890 117.5508540  66.1124730  20.4493460 117.2013320
  51.7856160  17.7895030 106.5462180  52.4947860  17.3678250 106.0609460
  51.0696100  17.8570260 105.9145530  51.4330320  13.8434360 105.5864830
  52.1558450  14.3843300 105.9046050  51.7054840  13.5697780 104.7106370
  65.2421970  18.7126830 109.8536410  65.7381090  18.4797700 110.6385290
  65.0438040  17.8738670 109.4374050  51.1222510  13.0940550 115.4887450
  51.7698700  12.5437930 115.0482610  51.5424350  13.3483700 116.3103260
  66.6709130  17.3487780 112.3874090  66.5608410  17.1943820 113.3256360
  67.4316720  16.8208720 112.1449500  65.0174850  13.2881910 118.8457090
  65.6547070  13.9016050 119.2116280  65.1649740  13.3242570 117.9006320
  67.5599400  15.1795700 105.6280230  68.4848710  15.0476880 105.4198520
  67.5375190  15.2588520 106.5816680  67.6337890  15.9506360 108.2536940
  66.8389390  15.8851480 108.7829850  67.8381170  16.8857000 108.2422290
  64.5756310  29.9897910 112.2475330  65.1715380  29.6682480 111.5709750
  64.8334460  29.5169730 113.0388600  50.8754510  13.2496220 118.2312770
  50.5269330  13.7060040 118.9970950  50.5442210  12.3553350 118.3135200
  52.4818880  26.4215820 122.3965960  52.4388510  26.0508730 123.2780420
  52.6129890  27.3593390 122.5367780  56.1824910  27.9775410 117.9975680
  55.9416270  28.2449970 117.1106200  57.1227550  28.1481140 118.0526540
  58.3879330  14.4408100 121.7532190  58.3268220  15.0329930 122.5027600
  59.3279710  14.3334060 121.6082450  61.0253890  14.0978160 121.3924480
  61.6394300  14.4157450 120.7305560  61.5703450  13.6126750 122.0120340
  67.4429070  29.9969790 118.7986320  66.9487350  30.3938660 118.0813450
  66.8342360  29.3719000 119.1923600  51.5475150  12.7772420 121.5063540
  52.0958140  12.5960470 120.7429650  51.6130460  11.9866530 122.0419850
  52.3206910  29.3678070 119.5163740  51.7267230  29.2362770 120.2553780
  52.3130750  28.5316210 119.0505840  61.7661930  12.6610300 117.7193770
  60.8921770  12.9945410 117.5166700  61.6572680  12.1883480 118.5445640
  62.6733910  14.8681170 119.1035490  62.3447270  14.0532930 118.7237220
  63.6216210  14.8250980 118.9801180  65.1268520  30.6393210 116.0773060
  64.6671490  31.3909020 115.7031080  64.4980980  29.9199680 116.0187860
  51.9519140  26.7336450 118.4671780  51.2253200  26.1141740 118.3997730
  52.0128290  27.1277060 117.5969860  59.5136750  13.5780140 116.6586680
  58.7308540  14.0525640 116.9383440  59.2199680  12.6734970 116.5499860
  64.0657820  14.2803240 114.7035770  64.5065910  14.2248340 113.8557370
  63.7965410  15.1961250 114.7745950  65.9296390  13.9118480 112.7144590
  65.8684790  12.9679700 112.5675610  66.7088420  14.0198570 113.2598050
  50.2349140  30.0510840 111.6768540  50.0671180  29.4181520 112.3750430
  49.3683650  30.2570240 111.3262730  50.8577160  13.8827620 109.1800400
  51.6156520  13.9956500 108.6064430  50.3954330  14.7196820 109.1343830
  57.3990970  15.9966890 112.1702710  56.5865480  15.6223780 111.8298590
  57.9032610  15.2411970 112.4723900  61.9015950  12.6609340 113.4085780
  62.5045320  13.2329550 113.8834300  61.1608940  13.2248780 113.1859680
  65.0450550  13.0630900 108.6826060  65.2401180  13.9614350 108.9493490
  64.2580420  12.8317980 109.1759010  51.8411840  28.7444070 109.1218680
  51.3159460  29.1252100 108.4180640  51.7656420  29.3694840 109.8428390
  53.2302310  14.4091670 107.7202370  53.7595070  13.6221470 107.5910320
  53.8630630  15.0882860 107.9537900  55.4240150  14.1466810 110.7747760
  54.7942890  13.4454120 110.9417890  54.8845290  14.9070940 110.5580920
  58.3632100  30.7606040 123.4458370  59.2899410  30.5250310 123.4894330
  58.3482530  31.5878040 122.9644400  55.5495710  13.4250790 123.2100250
  55.2679980  13.9284390 122.4461070  55.9315410  12.6272540 122.8442380
  54.4404810  30.6926450 107.9967930  55.1723630  30.4085730 107.4491820
  54.6998480  30.4539730 108.8867310  53.6019600  26.8091180 108.0014260
  52.9728480  27.2776280 108.5500090  53.7167430  25.9640400 108.4360450
  62.1511170  12.8404370 123.7880720  62.0376620  13.1598980 124.6832240
  62.9680910  13.2416880 123.4918000  64.9309660  29.9875900 123.2699410
  65.7234980  29.4925130 123.0625370  65.2242810  30.6666040 123.8775020
  61.0569320  20.8596840  94.1515460  60.9763370  19.9451450  93.8807170
  60.6433740  21.3563910  93.4455170  59.1887360  22.6375860  96.0324730
  58.4129460  22.1576300  96.3223300  59.8400290  21.9581510  95.8580890
  53.2053190  22.9495670  96.9100490  52.3738070  22.6944380  97.3097000
  53.8134170  23.0206440  97.6458410  53.1854450  26.9835760  97.1058510
  53.4882490  26.0933500  96.9268730  53.9298040  27.5405980  96.8780760
  49.5778150  20.5103210  96.5782580  50.1494260  19.7425410  96.5786220
  49.5779690  20.8091970  95.6689190  58.6296350  25.3133050  96.0394890
  58.5604630  24.3722990  95.8784020  59.3916210  25.4034460  96.6117460
  50.8203020  15.9187570  98.3651510  50.6405860  15.0213320  98.6454270
  50.4183100  16.4659440  99.0398460  59.6601520  18.1203430  96.2663820
  60.0366340  17.2475310  96.1537490  59.5621030  18.4562130  95.3754260
  53.7906530  16.4929060  91.7281260  53.8973280  17.3932790  92.0350020
  52.8798890  16.4447030  91.4375910  63.4425640  15.6153870  93.1992160
  64.2635260  15.1250440  93.2417640  63.4759720  16.2051530  93.9524000
  51.4389690  18.4148070  96.9733850  52.1199800  18.6786440  97.5921250
  51.1237740  17.5748940  97.3071860  55.6314260  19.4615430  96.0606440
  56.1392480  19.9596400  96.7011460  56.1627500  18.6850630  95.8845800
  67.7325190  17.6320620  99.7635790  67.0277360  18.0202330  99.2450900
  67.9983110  18.3270910 100.3656720  53.9150360  14.1013990 100.3269860
  53.9168800  14.6186380  99.5215760  53.0854670  13.6244170 100.3039790
  60.3021450  24.2133300  91.8259760  59.6838720  24.6782750  91.2622480
  60.8144700  24.9060780  92.2429270  55.1653210  23.7409170  98.5043360
  54.8322590  24.3678090  99.1464430  55.3419890  24.2671050  97.7245030
  63.6787120  17.5554250  95.9719700  62.9742690  17.8439140  96.5522810
  64.0399280  18.3654360  95.6119260  53.5965690  15.8123950  98.3340310
  53.9382500  16.6566000  98.0394180  52.6581500  15.9607690  98.4505650
  54.3772310  25.7089970 100.3192540  54.9946310  26.3841050 100.0376990
  53.5165430  26.1177950 100.2280040  66.7474040  17.0009040  96.3628910
  65.7998950  17.0348020  96.4944340  67.0724030  17.8147990  96.7478270
  57.2793580  13.3006220  94.6584900  57.5868560  12.7453110  93.9420400
  56.3494280  13.4350680  94.4757890  59.6674340  21.3655050  91.3945020
  58.7403620  21.2992430  91.6233490  59.8199160  22.3035180  91.2800260
  59.6543420  17.6372050  88.3912180  58.7147090  17.7986010  88.4764640
  59.9726680  18.3557730  87.8448170  66.1756180  22.3190570  98.3691210
  65.3474810  22.3883660  97.8941340  66.7706660  22.9044880  97.9007040
  63.1398190  19.1059890  99.3146080  62.7269370  19.9313600  99.5686070
  62.4074140  18.5204930  99.1222440  55.2730980  21.8919790  94.1764750
  54.8687980  21.1797040  93.6810650  55.3594100  21.5473030  95.0652790
  55.7412680  25.5787350  96.3403960  55.4440970  24.9732820  95.6611740
  56.6912500  25.6164660  96.2293320  53.9859600  18.6663000  97.9563790
  54.5374190  18.7758340  97.1817040  54.5003110  19.0400600  98.6719020
  54.8331110  25.3169040 102.9911760  53.9359640  25.5409010 103.2385160
  54.8583980  25.4403980 102.0423160  53.6602330  22.1882360 101.5669130
  53.5210100  23.0605160 101.9356530  52.7783690  21.8455170 101.4217070
  59.9831710  27.1058230  92.8734260  60.4227620  27.8482560  92.4589650
  59.9218600  27.3484800  93.7973220  65.4553470  13.4204970  87.2194060
  65.1426130  13.5131800  88.1193130  66.2165940  13.9986000  87.1691490
  67.4097500  28.9131160 105.0718450  67.8857220  29.3914050 105.7507530
  68.0304660  28.8448650 104.3463950  49.6120980  23.9579910  97.4840040
  49.6901400  24.0928680  96.5395760  50.2262660  23.2495800  97.6768160
  66.8130750  26.1044010 102.2318460  66.9393810  25.8655890 101.3135640
  66.8552130  25.2728550 102.7040540  55.1290270  29.8725880  92.0068890
  54.9532750  28.9561420  91.7936690  54.2746010  30.2313170  92.2466690
  66.6654760  18.1576470 103.1968200  66.0499030  18.6656140 102.6683660
  66.3451180  17.2574800 103.1394140  54.4399270  14.1299840  95.0595070
  53.9967420  14.9109380  94.7279590  54.9984260  14.4529730  95.7666010
  58.7269080  16.9968360 100.6630390  58.2648450  17.2051380 101.4750330
  58.3247190  16.1827710 100.3601060  63.7273590  18.2177310 101.7927050
  62.8767180  17.9183060 102.1136120  63.5675380  18.4619320 100.8810870
  60.8223300  19.7179060 103.8925840  61.1476710  18.8842810 103.5528070
  61.6103630  20.2407580 104.0404170  57.5558090  13.7510540  89.9400900
  56.9312270  13.7470410  90.6654210  57.4688210  12.8841500  89.5436870
  56.4775170  14.6747170  96.9184670  56.7747500  15.5810000  96.8376690
  57.0260730  14.1865950  96.3044240  61.4611250  19.2596780  91.3866970
  60.8620140  19.9832580  91.2030590  62.0090860  19.1973560  90.6043420
  56.6712700  20.1518990 103.4536590  56.5756300  19.2113720 103.3036990
  57.5144680  20.3734060 103.0584660  60.0676120  17.8960320  93.4170250
  60.4605690  18.2132520  92.6038940  60.4292970  17.0172200  93.5314770
  51.8023240  16.5632660 101.6070370  51.4086630  17.4107870 101.8143150
  51.1141640  15.9259030 101.7979010  58.3768290  16.6467630 104.6767110
  57.6866610  16.4539830 105.3113200  59.1200590  16.9302270 105.2091410
  49.1040290  14.4861120  95.6400450  48.8153340  15.0563980  96.3525430
  49.8486050  14.0065570  96.0031680  60.6531260  20.4866070  97.5121030
  59.9212380  20.9952880  97.8611130  60.2555600  19.6696050  97.2109810
  57.0908650  17.1620270  95.9173520  57.0944710  16.7210220  95.0678060
  57.9859770  17.4837600  96.0245340  52.9411030  17.0446760  94.8767730
  52.6011080  17.5221990  95.6334780  52.1788350  16.5911880  94.5168830
  61.1157170  15.9399750  96.9243970  61.1329910  16.3908400  97.7685820
  60.8672750  15.0405390  97.1377410  64.5427920  13.3531930 102.7630350
  64.8673690  12.6221590 103.2888330  64.5784430  13.0345570 101.8611340
  57.3916620  21.2222050  97.6638930  57.7586750  20.7480620  98.4100270
  57.2021680  22.0963620  98.0047270  50.2557110  15.9665740  93.7932400
  49.9704030  15.6021410  94.6311020  50.1935970  15.2346200  93.1795540
  55.1815990  20.2630690  99.9823140  54.8773060  21.1422670 100.2073500
  56.1362450  20.3230480 100.0180580  64.4685760  23.4657040  96.3716380
  65.1884880  23.9612330  95.9812490  64.2667580  22.7874930  95.7270250
  59.9295700  14.8595000  90.5145770  59.1160310  14.3608170  90.4391080
  59.7357650  15.6993250  90.0982120  59.8504560  23.5366100 102.2585380
  59.7841870  22.6161770 102.0042970  59.2209700  23.6341540 102.9730020
  53.7535180  24.1372060  94.2168800  54.2713850  23.3340320  94.1625690
  53.3019200  24.0751200  95.0585630  51.2379720  21.1033430 101.1294500
  50.8794660  21.7687280 101.7167840  50.9434280  20.2716980 101.5007120
  54.4392840  21.5617670 104.0134050  54.1392980  21.7074850 103.1161870
  55.2104080  21.0022960 103.9207440  65.9932500  22.9994010 101.3557760
  65.2680690  23.5922790 101.1587150  66.5207960  22.9917550 100.5571130
  57.6095370  25.4851870  92.2612020  58.2966500  26.0321080  92.6419610
  56.8227790  26.0292600  92.2961630  56.9122580  22.4897900  91.8737380
  57.3685360  23.3003150  92.0997570  56.5610790  22.1721040  92.7055870
  52.8134360  12.8335550  92.3459900  52.6848990  12.8253450  93.2944820
  51.9896380  13.1718640  91.9950910  49.8128290  14.5926670 101.8066600
  49.0986810  14.7923590 102.4119210  50.2323330  13.8166240 102.1781400
  61.3067070  17.0848980  99.5568050  61.6747890  16.2644190  99.8847620
  60.4465270  17.1450870  99.9723700  64.6729100  16.0405920  90.3655610
  64.0442260  16.1451590  89.6513840  64.1781020  16.2602700  91.1549490
  58.2669060  19.7388570  99.7806020  58.7654310  20.2134390 100.4457870
  58.4092010  18.8152090  99.9876050  60.6728560  15.0442530  93.2209280
  60.5496340  15.0628660  92.2718790  61.6213120  15.0921470  93.3407680
  57.7605350  30.2797830  92.4937260  58.0146850  30.2419220  91.5716630
  56.8117830  30.1531160  92.4865510  65.4735920  15.9556530 100.6234410
  64.9709520  16.6961930 100.9628220  66.2892580  16.3440530 100.3071200
  63.7657930  21.1989710  94.0695770  62.8248070  21.2139940  94.2443460
  64.0802000  20.4125670  94.5156070  52.2459320  29.6475840 104.6052740
  53.0472050  29.9687890 105.0188140  51.7311140  29.2871420 105.3272650
  49.9657130  22.1349300 103.5488790  50.4696150  21.5556580 104.1205020
  49.2264550  22.4189530 104.0865160  57.0195070  23.5420290 103.0824310
  56.2540740  24.1105290 102.9978980  57.2011030  23.2496500 102.1892540
  64.1618420  25.2725620 103.6399330  64.9027890  25.6101380 103.1366790
  63.3991100  25.4417680 103.0869100  51.9980210  20.2778890 104.4438860
  52.0385550  19.9792760 105.3524090  52.8525710  20.6786500 104.2846380
  53.9386020  18.8570990 102.4113350  53.4082480  18.3661940 101.7836690
  54.6074090  19.2855190 101.8771280  62.8364080  23.3240450 102.1754540
  63.2505100  23.4785530 103.0244960  61.9015080  23.4495670 102.3380320
  63.3086250  20.6636610 104.1793690  63.8907020  19.9088930 104.0914170
  63.4848020  21.1944050 103.4025170  54.4258320  15.8233360 102.4910640
  54.3315190  15.2054110 101.7661510  53.8455710  16.5499650 102.2640550
  57.1919760  14.3806600  99.5238030  56.7437060  14.4030860  98.6783580
  56.5584960  13.9825620 100.1208330  57.5979310  23.2760930 100.1450470
  58.0167420  24.1193660  99.9726710  56.6787940  23.4132970  99.9157250
  59.9343210  21.0077110 101.5288310  60.0539420  20.4118250 102.2683150
  60.7937210  21.0446800 101.1089610  62.2731110  21.5614300 100.1050820
  61.7466330  22.0856920  99.5015960  62.6162450  22.1941690 100.7360550
  55.4486730  29.5813940 101.2608200  54.9107820  30.3060000 100.9416900
  55.7020690  29.1044280 100.4705540  56.7011980  17.5498460 102.7864130
  57.2911670  17.2414310 103.4741950  55.8832220  17.0778210 102.9424030
  61.5205410  17.1664270 103.0197150  60.8320930  16.5045810 102.9547140
  62.2411430  16.7202540 103.4645610  62.1505810  13.7615900  89.0787410
  62.4308100  12.9183800  89.4346830  61.3771540  13.9939010  89.5926160
  53.4700300  16.0508290  86.5378410  53.7726200  16.0575720  85.6297560
  54.2094890  15.7006150  87.0346070  58.3048940  30.8165150 101.5194850
  58.2307640  31.7200290 101.8267220  57.4027780  30.4977050 101.4916920
  56.6885230  14.9942910  87.5234610  56.3407230  14.3166900  86.9437060
  56.8898000  14.5332420  88.3378000  58.8534270  29.9823660  89.1421210
  59.7485060  30.3208630  89.1639970  58.8851900  29.2603070  88.5145490
  50.0290870  21.5230560  93.9198980  49.3739710  21.2542200  93.2758680
  50.8668820  21.4135040  93.4700960  62.9781310  16.3171850  88.1417470
  63.3966190  16.1302830  87.3014130  62.6717370  15.4650900  88.4520400
  66.4771040  21.2295990  91.8393270  66.1014640  20.4623920  91.4074560
  65.7474160  21.6118690  92.3268200  51.0666800  21.9083130  98.4602320
  51.4339840  21.8210530  99.3398340  50.4977620  21.1449680  98.3609180
  65.8670660  20.3767510 101.4732790  65.6356750  20.1480260 100.5730740
  66.1275210  21.2967060 101.4277680  50.6182800  18.8192220 102.3660740
  49.7238850  18.7858980 102.7054450  51.1580350  19.0179010 103.1311990
  64.3058730  15.6023940 104.2512490  65.1828910  15.6107340 104.6346490
  64.3179570  14.8654780 103.6404840  65.7522000  19.4553480  95.1400510
  66.2759480  18.9616130  94.5090680  66.3381420  19.5903840  95.8848080
  65.9311720  19.5393350  98.6620060  64.9814430  19.5056890  98.7765050
  66.1124730  20.4493460  98.4269830  51.4330320  13.8434360  86.8121340
  52.1558450  14.3843300  87.1302560  51.7054840  13.5697780  85.9362880
  65.2421970  18.7126830  91.0792920  65.7381090  18.4797700  91.8641800
  65.0438040  17.8738670  90.6630560  51.1222510  13.0940550  96.7143960
  51.7698700  12.5437930  96.2739120  51.5424350  13.3483700  97.5359770
  66.6709130  17.3487780  93.6130600  66.5608410  17.1943820  94.5512870
  67.4316720  16.8208720  93.3706010  65.0174850  13.2881910 100.0713600
  65.6547070  13.9016050 100.4372790  65.1649740  13.3242570  99.1262830
  67.5599400  15.1795700  86.8536740  68.4848710  15.0476880  86.6455030
  67.5375190  15.2588520  87.8073190  67.6337890  15.9506360  89.4793450
  66.8389390  15.8851480  90.0086360  67.8381170  16.8857000  89.4678800
  50.8754510  13.2496220  99.4569280  50.5269330  13.7060040 100.2227460
  50.5442210  12.3553350  99.5391710  52.4818880  26.4215820 103.6222470
  52.4388510  26.0508730 104.5036930  52.6129890  27.3593390 103.7624290
  56.1824910  27.9775410  99.2232190  55.9416270  28.2449970  98.3362710
  57.1227550  28.1481140  99.2783050  58.3879330  14.4408100 102.9788700
  58.3268220  15.0329930 103.7284110  59.3279710  14.3334060 102.8338960
  61.0253890  14.0978160 102.6180990  61.6394300  14.4157450 101.9562070
  61.5703450  13.6126750 103.2376850  51.5475150  12.7772420 102.7320050
  52.0958140  12.5960470 101.9686160  51.6130460  11.9866530 103.2676360
  61.7661930  12.6610300  98.9450280  60.8921770  12.9945410  98.7423210
  61.6572680  12.1883480  99.7702150  62.6733910  14.8681170 100.3292000
  62.3447270  14.0532930  99.9493730  63.6216210  14.8250980 100.2057690
  55.5564240  28.9481450  96.4777700  56.0729260  28.3368810  95.9525960
  56.2061620  29.4510230  96.9688710  59.5136750  13.5780140  97.8843190
  58.7308540  14.0525640  98.1639950  59.2199680  12.6734970  97.7756370
  64.0657820  14.2803240  95.9292280  64.5065910  14.2248340  95.0813880
  63.7965410  15.1961250  96.0002460  65.9296390  13.9118480  93.9401100
  65.8684790  12.9679700  93.7932120  66.7088420  14.0198570  94.4854560
  50.8577160  13.8827620  90.4056910  51.6156520  13.9956500  89.8320940
  50.3954330  14.7196820  90.3600340  57.3990970  15.9966890  93.3959220
  56.5865480  15.6223780  93.0555100  57.9032610  15.2411970  93.6980410
  61.9015950  12.6609340  94.6342290  62.5045320  13.2329550  95.1090810
  61.1608940  13.2248780  94.4116190  65.0450550  13.0630900  89.9082570
  65.2401180  13.9614350  90.1750000  64.2580420  12.8317980  90.4015520
  53.2302310  14.4091670  88.9458880  53.7595070  13.6221470  88.8166830
  53.8630630  15.0882860  89.1794410  55.4240150  14.1466810  92.0004270
  54.7942890  13.4454120  92.1674400  54.8845290  14.9070940  91.7837430
  55.5495710  13.4250790 104.4356760  55.2679980  13.9284390 103.6717580
  55.9315410  12.6272540 104.0698890  54.4404810  30.6926450  89.2224440
  55.1723630  30.4085730  88.6748330  54.6998480  30.4539730  90.1123820
  62.1511170  12.8404370 105.0137230  62.0376620  13.1598980 105.9088750
  62.9680910  13.2416880 104.7174510  64.9309660  29.9875900 104.4955920
  65.7234980  29.4925130 104.2881880  65.2242810  30.6666040 105.1031530
  53.2053190  22.9495670  78.1357000  52.3738070  22.6944380  78.5353510
  53.8134170  23.0206440  78.8714920  53.1854450  26.9835760  78.3315020
  53.4882490  26.0933500  78.1525240  53.9298040  27.5405980  78.1037270
  49.5778150  20.5103210  77.8039090  50.1494260  19.7425410  77.8042730
  49.5779690  20.8091970  76.8945700  50.8203020  15.9187570  79.5908020
  50.6405860  15.0213320  79.8710780  50.4183100  16.4659440  80.2654970
  59.6601520  18.1203430  77.4920330  60.0366340  17.2475310  77.3794000
  59.5621030  18.4562130  76.6010770  53.7906530  16.4929060  72.9537770
  53.8973280  17.3932790  73.2606530  52.8798890  16.4447030  72.6632420
  51.4389690  18.4148070  78.1990360  52.1199800  18.6786440  78.8177760
  51.1237740  17.5748940  78.5328370  55.6314260  19.4615430  77.2862950
  56.1392480  19.9596400  77.9267970  56.1627500  18.6850630  77.1102310
  67.7325190  17.6320620  80.9892300  67.0277360  18.0202330  80.4707410
  67.9983110  18.3270910  81.5913230  53.9150360  14.1013990  81.5526370
  53.9168800  14.6186380  80.7472270  53.0854670  13.6244170  81.5296300
  55.1653210  23.7409170  79.7299870  54.8322590  24.3678090  80.3720940
  55.3419890  24.2671050  78.9501540  63.6787120  17.5554250  77.1976210
  62.9742690  17.8439140  77.7779320  64.0399280  18.3654360  76.8375770
  53.5965690  15.8123950  79.5596820  53.9382500  16.6566000  79.2650690
  52.6581500  15.9607690  79.6762160  54.3772310  25.7089970  81.5449050
  54.9946310  26.3841050  81.2633500  53.5165430  26.1177950  81.4536550
  66.7474040  17.0009040  77.5885420  65.7998950  17.0348020  77.7200850
  67.0724030  17.8147990  77.9734780  57.2793580  13.3006220  75.8841410
  57.5868560  12.7453110  75.1676910  56.3494280  13.4350680  75.7014400
  55.2730980  21.8919790  75.4021260  54.8687980  21.1797040  74.9067160
  55.3594100  21.5473030  76.2909300  55.7412680  25.5787350  77.5660470
  55.4440970  24.9732820  76.8868250  56.6912500  25.6164660  77.4549830
  53.9859600  18.6663000  79.1820300  54.5374190  18.7758340  78.4073550
  54.5003110  19.0400600  79.8975530  63.8298290  29.1519220  81.2283570
  63.3528850  29.9591410  81.0356180  63.1460080  28.4997550  81.3809780
  53.6602330  22.1882360  82.7925640  53.5210100  23.0605160  83.1613040
  52.7783690  21.8455170  82.6473580  51.9735610  20.7864770  72.9027910
  51.8533210  21.5126860  72.2909180  51.6636500  20.0167680  72.4255820
  49.6120980  23.9579910  78.7096550  49.6901400  24.0928680  77.7652270
  50.2262660  23.2495800  78.9024670  60.6747490  29.8072010  82.0269780
  61.1892160  29.7180020  82.8292210  59.8316570  30.1531710  82.3197690
  62.3528020  27.6014910  70.0151780  61.6593180  27.5992200  69.3554060
  63.0950880  27.1774230  69.5845950  66.6654760  18.1576470  84.4224710
  66.0499030  18.6656140  83.8940170  66.3451180  17.2574800  84.3650650
  49.6680500  24.9994080  81.2491010  49.8311540  24.5299440  80.4310380
  50.1332950  24.4917640  81.9139850  54.4399270  14.1299840  76.2851580
  53.9967420  14.9109380  75.9536100  54.9984260  14.4529730  76.9922520
  58.7269080  16.9968360  81.8886900  58.2648450  17.2051380  82.7006840
  58.3247190  16.1827710  81.5857570  63.7273590  18.2177310  83.0183560
  62.8767180  17.9183060  83.3392630  63.5675380  18.4619320  82.1067380
  60.8223300  19.7179060  85.1182350  61.1476710  18.8842810  84.7784580
  61.6103630  20.2407580  85.2660680  57.5558090  13.7510540  71.1657410
  56.9312270  13.7470410  71.8910720  57.4688210  12.8841500  70.7693380
  56.4775170  14.6747170  78.1441180  56.7747500  15.5810000  78.0633200
  57.0260730  14.1865950  77.5300750  54.2313490  19.2533410  74.0132830
  54.0054410  19.0370580  74.9179450  53.4506020  19.6861870  73.6678800
  60.0676120  17.8960320  74.6426760  60.4605690  18.2132520  73.8295450
  60.4292970  17.0172200  74.7571280  51.8023240  16.5632660  82.8326880
  51.4086630  17.4107870  83.0399660  51.1141640  15.9259030  83.0235520
  58.3768290  16.6467630  85.9023620  57.6866610  16.4539830  86.5369710
  59.1200590  16.9302270  86.4347920  49.1040290  14.4861120  76.8656960
  48.8153340  15.0563980  77.5781940  49.8486050  14.0065570  77.2288190
  49.2910520  18.4281240  68.0759680  49.2085190  19.3712000  68.2174670
  48.9393580  18.2856150  67.1972030  57.0908650  17.1620270  77.1430030
  57.0944710  16.7210220  76.2934570  57.9859770  17.4837600  77.2501850
  52.9411030  17.0446760  76.1024240  52.6011080  17.5221990  76.8591290
  52.1788350  16.5911880  75.7425340  61.1157170  15.9399750  78.1500480
  61.1329910  16.3908400  78.9942330  60.8672750  15.0405390  78.3633920
  64.5427920  13.3531930  83.9886860  64.8673690  12.6221590  84.5144840
  64.5784430  13.0345570  83.0867850  51.2419480  24.3745510  83.4086820
  50.8574270  23.7339180  84.0069780  51.5531670  25.0781630  83.9781550
  50.2557110  15.9665740  75.0188910  49.9704030  15.6021410  75.8567530
  50.1935970  15.2346200  74.4052050  55.1815990  20.2630690  81.2079650
  54.8773060  21.1422670  81.4330010  56.1362450  20.3230480  81.2437090
  59.9295700  14.8595000  71.7402280  59.1160310  14.3608170  71.6647590
  59.7357650  15.6993250  71.3238630  58.6404680  25.4038340  70.7152610
  58.9820380  26.1480570  70.2195930  57.8117390  25.7169460  71.0777440
  51.2379720  21.1033430  82.3551010  50.8794660  21.7687280  82.9424350
  50.9434280  20.2716980  82.7263630  57.6095370  25.4851870  73.4868530
  58.2966500  26.0321080  73.8676120  56.8227790  26.0292600  73.5218140
  56.9122580  22.4897900  73.0993890  57.3685360  23.3003150  73.3254080
  56.5610790  22.1721040  73.9312380  52.8134360  12.8335550  73.5716410
  52.6848990  12.8253450  74.5201330  51.9896380  13.1718640  73.2207420
  64.3342990  26.2885210  68.7702780  64.1080570  25.5715650  69.3627420
  63.9439190  26.0397650  67.9324530  49.8128290  14.5926670  83.0323110
  49.0986810  14.7923590  83.6375720  50.2323330  13.8166240  83.4037910
  50.1000880  28.5806930  84.0189640  50.2092000  27.6401670  83.8785030
  49.4481440  28.8461680  83.3703370  61.3067070  17.0848980  80.7824560
  61.6747890  16.2644190  81.1104130  60.4465270  17.1450870  81.1980210
  59.1187240  27.7611510  69.0246100  59.2199220  27.5575500  68.0948080
  58.2188980  27.5069790  69.2293880  58.2669060  19.7388570  81.0062530
  58.7654310  20.2134390  81.6714380  58.4092010  18.8152090  81.2132560
  65.4735920  15.9556530  81.8490920  64.9709520  16.6961930  82.1884730
  66.2892580  16.3440530  81.5327710  53.2401040  30.4629770  76.6423670
  53.9763520  29.9145230  76.9132240  53.6241960  31.3285780  76.5029660
  56.3503350  29.6360080  68.4649240  57.1431960  29.9248910  68.0131030
  55.8307700  29.2052250  67.7861720  62.5124320  29.4836000  84.3894070
  63.4646070  29.3994020  84.3394310  62.3652540  30.1477710  85.0627860
  65.4033520  28.8630210  69.8885980  65.1175030  28.4495350  69.0740160
  65.2053070  29.7917920  69.7686500  56.8680750  24.8563490  68.3291590
  56.7631390  24.2415840  69.0552970  56.7004970  24.3329380  67.5454600
  60.1083480  23.9183520  68.9333580  59.5593580  24.3652820  69.5776320
  60.7302740  23.4132770  69.4571250  54.4258320  15.8233360  83.7167150
  54.3315190  15.2054110  82.9918020  53.8455710  16.5499650  83.4897060
  57.1919760  14.3806600  80.7494540  56.7437060  14.4030860  79.9040090
  56.5584960  13.9825620  81.3464840  59.9343210  21.0077110  82.7544820
  60.0539420  20.4118250  83.4939660  60.7937210  21.0446800  82.3346120
  55.4486730  29.5813940  82.4864710  54.9107820  30.3060000  82.1673410
  55.7020690  29.1044280  81.6962050  56.7011980  17.5498460  84.0120640
  57.2911670  17.2414310  84.6998460  55.8832220  17.0778210  84.1680540
  61.5205410  17.1664270  84.2453660  60.8320930  16.5045810  84.1803650
  62.2411430  16.7202540  84.6902120  58.3048940  30.8165150  82.7451360
  58.2307640  31.7200290  83.0523730  57.4027780  30.4977050  82.7173430
  56.6885230  14.9942910  68.7491120  56.3407230  14.3166900  68.1693570
  56.8898000  14.5332420  69.5634510  50.1966440  29.0110330  78.7866610
  49.7597430  29.1911130  79.6190760  50.7644120  29.7684950  78.6448330
  67.0730070  26.2545150  68.4113630  66.2423030  26.3221800  68.8820860
  67.2501900  27.1449270  68.1080490  66.5805700  23.2927000  68.0720350
  66.8554540  24.2005880  67.9439570  66.3916440  23.2289530  69.0082340
  51.0666800  21.9083130  79.6858830  51.4339840  21.8210530  80.5654850
  50.4977620  21.1449680  79.5865690  65.8670660  20.3767510  82.6989300
  65.6356750  20.1480260  81.7987250  66.1275210  21.2967060  82.6534190
  50.6182800  18.8192220  83.5917250  49.7238850  18.7858980  83.9310960
  51.1580350  19.0179010  84.3568500  64.3058730  15.6023940  85.4769000
  65.1828910  15.6107340  85.8603000  64.3179570  14.8654780  84.8661350
  49.2428950  18.7329490  71.0880820  48.3393030  18.9959690  70.9132480
  49.7269570  19.0040660  70.3080780  51.4330320  13.8434360  68.0377850
  52.1558450  14.3843300  68.3559070  51.7054840  13.5697780  67.1619390
  51.1222510  13.0940550  77.9400470  51.7698700  12.5437930  77.4995630
  51.5424350  13.3483700  78.7616280  65.0174850  13.2881910  81.2970110
  65.6547070  13.9016050  81.6629300  65.1649740  13.3242570  80.3519340
  50.8754510  13.2496220  80.6825790  50.5269330  13.7060040  81.4483970
  50.5442210  12.3553350  80.7648220  56.1824910  27.9775410  80.4488700
  55.9416270  28.2449970  79.5619220  57.1227550  28.1481140  80.5039560
  58.3879330  14.4408100  84.2045210  58.3268220  15.0329930  84.9540620
  59.3279710  14.3334060  84.0595470  61.0253890  14.0978160  83.8437500
  61.6394300  14.4157450  83.1818580  61.5703450  13.6126750  84.4633360
  51.5475150  12.7772420  83.9576560  52.0958140  12.5960470  83.1942670
  51.6130460  11.9866530  84.4932870  52.3206910  29.3678070  81.9676760
  51.7267230  29.2362770  82.7066800  52.3130750  28.5316210  81.5018860
  61.7661930  12.6610300  80.1706790  60.8921770  12.9945410  79.9679720
  61.6572680  12.1883480  80.9958660  62.6733910  14.8681170  81.5548510
  62.3447270  14.0532930  81.1750240  63.6216210  14.8250980  81.4314200
  51.9519140  26.7336450  80.9184800  51.2253200  26.1141740  80.8510750
  52.0128290  27.1277060  80.0482880  55.5564240  28.9481450  77.7034210
  56.0729260  28.3368810  77.1782470  56.2061620  29.4510230  78.1945220
  59.5136750  13.5780140  79.1099700  58.7308540  14.0525640  79.3896460
  59.2199680  12.6734970  79.0012880  64.0657820  14.2803240  77.1548790
  64.5065910  14.2248340  76.3070390  63.7965410  15.1961250  77.2258970
  50.8577160  13.8827620  71.6313420  51.6156520  13.9956500  71.0577450
  50.3954330  14.7196820  71.5856850  57.3990970  15.9966890  74.6215730
  56.5865480  15.6223780  74.2811610  57.9032610  15.2411970  74.9236920
  61.9015950  12.6609340  75.8598800  62.5045320  13.2329550  76.3347320
  61.1608940  13.2248780  75.6372700  53.2302310  14.4091670  70.1715390
  53.7595070  13.6221470  70.0423340  53.8630630  15.0882860  70.4050920
  55.4240150  14.1466810  73.2260780  54.7942890  13.4454120  73.3930910
  54.8845290  14.9070940  73.0093940  66.5977160  30.3031610  72.8945640
  66.7729350  29.6169350  72.2506560  65.8998730  30.8278660  72.5022310
  55.5495710  13.4250790  85.6613270  55.2679980  13.9284390  84.8974090
  55.9315410  12.6272540  85.2955400  62.1511170  12.8404370  86.2393740
  62.0376620  13.1598980  87.1345260  62.9680910  13.2416880  85.9431020
  64.9309660  29.9875900  85.7212430  65.7234980  29.4925130  85.5138390
  65.2242810  30.6666040  86.3288040  61.0569320  20.8596840  56.6028480
  60.9763370  19.9451450  56.3320190  60.6433740  21.3563910  55.8968190
  53.2053190  22.9495670  59.3613510  52.3738070  22.6944380  59.7610020
  53.8134170  23.0206440  60.0971430  51.6145140  17.9097560  53.1455900
  50.7261840  18.2513530  53.0435780  51.8986330  17.7097880  52.2536730
  49.5778150  20.5103210  59.0295600  50.1494260  19.7425410  59.0299240
  49.5779690  20.8091970  58.1202210  50.8203020  15.9187570  60.8164530
  50.6405860  15.0213320  61.0967290  50.4183100  16.4659440  61.4911480
  59.6601520  18.1203430  58.7176840  60.0366340  17.2475310  58.6050510
  59.5621030  18.4562130  57.8267280  53.7906530  16.4929060  54.1794280
  53.8973280  17.3932790  54.4863040  52.8798890  16.4447030  53.8888930
  63.4425640  15.6153870  55.6505180  64.2635260  15.1250440  55.6930660
  63.4759720  16.2051530  56.4037020  51.4389690  18.4148070  59.4246870
  52.1199800  18.6786440  60.0434270  51.1237740  17.5748940  59.7584880
  55.6314260  19.4615430  58.5119460  56.1392480  19.9596400  59.1524480
  56.1627500  18.6850630  58.3358820  67.7325190  17.6320620  62.2148810
  67.0277360  18.0202330  61.6963920  67.9983110  18.3270910  62.8169740
  53.9150360  14.1013990  62.7782880  53.9168800  14.6186380  61.9728780
  53.0854670  13.6244170  62.7552810  63.6787120  17.5554250  58.4232720
  62.9742690  17.8439140  59.0035830  64.0399280  18.3654360  58.0632280
  53.5965690  15.8123950  60.7853330  53.9382500  16.6566000  60.4907200
  52.6581500  15.9607690  60.9018670  65.2949900  27.1729380  60.6860200
  64.6113420  27.8428490  60.6776870  65.8344190  27.3710030  59.9205060
  66.7474040  17.0009040  58.8141930  65.7998950  17.0348020  58.9457360
  67.0724030  17.8147990  59.1991290  57.2793580  13.3006220  57.1097920
  57.5868560  12.7453110  56.3933420  56.3494280  13.4350680  56.9270910
  62.8308640  29.0173510  59.4005380  62.8435800  28.6135800  58.5327640
  62.2783860  29.7920800  59.2966810  64.1254060  25.7389730  54.4895550
  64.0150390  24.7964060  54.6144970  64.1222310  26.1005370  55.3758310
  59.6674340  21.3655050  53.8458040  58.7403620  21.2992430  54.0746510
  59.8199160  22.3035180  53.7313280  59.6543420  17.6372050  50.8425200
  58.7147090  17.7986010  50.9277660  59.9726680  18.3557730  50.2961190
  66.1756180  22.3190570  60.8204230  65.3474810  22.3883660  60.3454360
  66.7706660  22.9044880  60.3520060  63.6971630  22.9275350  54.3493290
  63.0784050  22.5894900  53.7019590  63.6796080  22.2835110  55.0572480
  55.2730980  21.8919790  56.6277770  54.8687980  21.1797040  56.1323670
  55.3594100  21.5473030  57.5165810  53.9859600  18.6663000  60.4076810
  54.5374190  18.7758340  59.6330060  54.5003110  19.0400600  61.1232040
  63.8298290  29.1519220  62.4540080  63.3528850  29.9591410  62.2612690
  63.1460080  28.4997550  62.6066290  54.8331110  25.3169040  65.4424780
  53.9359640  25.5409010  65.6898180  54.8583980  25.4403980  64.4936180
  61.8736330  22.1662160  51.3566040  62.3129610  21.3284590  51.2103860
  62.5864750  22.7991560  51.4430180  55.4582680  28.1304060  66.2267300
  55.4298110  28.5347010  65.3595730  55.2947650  27.2014420  66.0638900
  65.4553470  13.4204970  49.6707080  65.1426130  13.5131800  50.5706150
  66.2165940  13.9986000  49.6204510  51.9735610  20.7864770  54.1284420
  51.8533210  21.5126860  53.5165690  51.6636500  20.0167680  53.6512330
  67.4097500  28.9131160  67.5231470  67.8857220  29.3914050  68.2020550
  68.0304660  28.8448650  66.7976970  49.6120980  23.9579910  59.9353060
  49.6901400  24.0928680  58.9908780  50.2262660  23.2495800  60.1281180
  66.8130750  26.1044010  64.6831480  66.9393810  25.8655890  63.7648660
  66.8552130  25.2728550  65.1553560  60.6747490  29.8072010  63.2526290
  61.1892160  29.7180020  64.0548720  59.8316570  30.1531710  63.5454200
  66.6654760  18.1576470  65.6481220  66.0499030  18.6656140  65.1196680
  66.3451180  17.2574800  65.5907160  49.6680500  24.9994080  62.4747520
  49.8311540  24.5299440  61.6566890  50.1332950  24.4917640  63.1396360
  54.4399270  14.1299840  57.5108090  53.9967420  14.9109380  57.1792610
  54.9984260  14.4529730  58.2179030  57.5558090  13.7510540  52.3913920
  56.9312270  13.7470410  53.1167230  57.4688210  12.8841500  51.9949890
  56.4775170  14.6747170  59.3697690  56.7747500  15.5810000  59.2889710
  57.0260730  14.1865950  58.7557260  54.2313490  19.2533410  55.2389340
  54.0054410  19.0370580  56.1435960  53.4506020  19.6861870  54.8935310
  61.4611250  19.2596780  53.8379990  60.8620140  19.9832580  53.6543610
  62.0090860  19.1973560  53.0556440  60.0676120  17.8960320  55.8683270
  60.4605690  18.2132520  55.0551960  60.4292970  17.0172200  55.9827790
  51.8023240  16.5632660  64.0583390  51.4086630  17.4107870  64.2656170
  51.1141640  15.9259030  64.2492030  49.1040290  14.4861120  58.0913470
  48.8153340  15.0563980  58.8038450  49.8486050  14.0065570  58.4544700
  49.2910520  18.4281240  49.3016190  49.2085190  19.3712000  49.4431180
  48.9393580  18.2856150  48.4228540  57.0908650  17.1620270  58.3686540
  57.0944710  16.7210220  57.5191080  57.9859770  17.4837600  58.4758360
  52.9411030  17.0446760  57.3280750  52.6011080  17.5221990  58.0847800
  52.1788350  16.5911880  56.9681850  57.1528800  18.1632350  51.3593300
  57.2741620  18.1218830  52.3079120  56.7677310  19.0256500  51.2040030
  61.1157170  15.9399750  59.3756990  61.1329910  16.3908400  60.2198840
  60.8672750  15.0405390  59.5890430  56.1650300  20.4733490  50.7576600
  55.5967200  20.0251740  50.1312510  56.8739300  20.8326270  50.2241750
  64.5427920  13.3531930  65.2143370  64.8673690  12.6221590  65.7401350
  64.5784430  13.0345570  64.3124360  51.2419480  24.3745510  64.6343330
  50.8574270  23.7339180  65.2326290  51.5531670  25.0781630  65.2038060
  50.2557110  15.9665740  56.2445420  49.9704030  15.6021410  57.0824040
  50.1935970  15.2346200  55.6308560  64.4685760  23.4657040  58.8229400
  65.1884880  23.9612330  58.4325510  64.2667580  22.7874930  58.1783270
  59.9295700  14.8595000  52.9658790  59.1160310  14.3608170  52.8904100
  59.7357650  15.6993250  52.5495140  62.6444090  19.2314650  51.2620950
  63.5323710  19.5431880  51.0872290  62.6149180  18.3586900  50.8701530
  53.7535180  24.1372060  56.6681820  54.2713850  23.3340320  56.6138710
  53.3019200  24.0751200  57.5098650  51.2379720  21.1033430  63.5807520
  50.8794660  21.7687280  64.1680860  50.9434280  20.2716980  63.9520140
  59.7821290  26.3586670  64.4602200  59.7965830  25.4267630  64.2421110
  59.0746390  26.4446430  65.0991970  64.9158360  20.5426490  50.7300810
  64.8322080  20.9740710  49.8797250  65.6352550  21.0024840  51.1627630
  65.9932500  22.9994010  63.8070780  65.2680690  23.5922790  63.6100170
  66.5207960  22.9917550  63.0084150  65.9445610  27.3968750  53.4582940
  65.3021770  26.7424370  53.7326660  65.5576270  27.8023840  52.6823610
  49.7487770  21.1024690  50.2042120  50.6182620  21.3849490  50.4878040
  49.2578090  21.9160560  50.0890930  52.8134360  12.8335550  54.7972920
  52.6848990  12.8253450  55.7457840  51.9896380  13.1718640  54.4463930
  64.3342990  26.2885210  49.9959290  64.1080570  25.5715650  50.5883930
  63.9439190  26.0397650  49.1581040  62.2624890  26.8031490  63.4756210
  62.5981130  27.3898180  64.1534130  61.3425230  26.6724200  63.7054000
  49.8128290  14.5926670  64.2579620  49.0986810  14.7923590  64.8632230
  50.2323330  13.8166240  64.6294420  63.9159240  24.2057150  51.6573450
  63.6280940  24.6669840  52.4451330  64.7111410  23.7454920  51.9257670
  58.0913470  26.8522820  66.6444270  57.7710340  26.1332060  67.1889960
  57.4171830  27.5277890  66.7180330  51.7334280  22.9198160  52.3324180
  51.1262230  23.6597060  52.3419480  52.2083630  23.0097520  51.5062380
  64.6729100  16.0405920  52.8168630  64.0442260  16.1451590  52.1026860
  64.1781020  16.2602700  53.6062510  56.6413130  18.3191870  54.2326510
  55.9329280  18.7878210  54.6740120  56.9257610  17.6613880  54.8671700
  60.6728560  15.0442530  55.6722300  60.5496340  15.0628660  54.7231810
  61.6213120  15.0921470  55.7920700  54.8448150  16.6276950  51.6077220
  55.6938680  17.0647100  51.5417410  54.4779420  16.9397210  52.4349280
  65.4735920  15.9556530  63.0747430  64.9709520  16.6961930  63.4141240
  66.2892580  16.3440530  62.7584220  63.7657930  21.1989710  56.5208790
  62.8248070  21.2139940  56.6956480  64.0802000  20.4125670  56.9669090
  53.7439570  22.8809310  50.0812750  54.5102840  22.7690670  50.6438180
  53.8214260  22.1847280  49.4289520  52.4386330  20.3134380  50.7645640
  52.5189920  19.3661890  50.8763040  53.3306080  20.6441260  50.8706300
  65.7683510  28.3698560  58.1963050  65.8930930  29.1929730  58.6686860
  66.6349070  28.1589290  57.8487200  52.2459320  29.6475840  67.0565760
  53.0472050  29.9687890  67.4701160  51.7311140  29.2871420  67.7785670
  61.0823950  25.7555710  67.0041170  60.4762110  25.7787310  66.2636920
  60.7778060  25.0238750  67.5408420  62.5124320  29.4836000  65.6150580
  63.4646070  29.3994020  65.5650820  62.3652540  30.1477710  66.2884370
  65.4033520  28.8630210  51.1142490  65.1175030  28.4495350  50.2996670
  65.2053070  29.7917920  50.9943010  57.0195070  23.5420290  65.5337330
  56.2540740  24.1105290  65.4492000  57.2011030  23.2496500  64.6405560
  64.1618420  25.2725620  66.0912350  64.9027890  25.6101380  65.5879810
  63.3991100  25.4417680  65.5382120  58.2886240  21.9012050  49.3032490
  58.8091900  21.1861070  48.9373640  58.9354640  22.5397920  49.6033000
  54.4258320  15.8233360  64.9423660  54.3315190  15.2054110  64.2174530
  53.8455710  16.5499650  64.7153570  57.1919760  14.3806600  61.9751050
  56.7437060  14.4030860  61.1296600  56.5584960  13.9825620  62.5721350
  54.6717500  18.9507670  49.0013550  54.4706560  18.0875030  49.3626890
  54.5009550  18.8641030  48.0635150  55.4486730  29.5813940  63.7121220
  54.9107820  30.3060000  63.3929920  55.7020690  29.1044280  62.9218560
  62.1505810  13.7615900  51.5300430  62.4308100  12.9183800  51.8859850
  61.3771540  13.9939010  52.0439180  53.4700300  16.0508290  48.9891430
  53.7726200  16.0575720  48.0810580  54.2094890  15.7006150  49.4859090
  58.3048940  30.8165150  63.9707870  58.2307640  31.7200290  64.2780240
  57.4027780  30.4977050  63.9429940  56.6885230  14.9942910  49.9747630
  56.3407230  14.3166900  49.3950080  56.8898000  14.5332420  50.7891020
  52.4930430  25.3550710  49.8221230  52.9305300  25.8980380  50.4778810
  52.9778160  24.5297660  49.8317570  50.1966440  29.0110330  60.0123120
  49.7597430  29.1911130  60.8447270  50.7644120  29.7684950  59.8704840
  65.8328620  28.5127330  64.3000430  65.2330610  28.5719890  63.5564350
  65.9622520  27.5732310  64.4297280  67.0730070  26.2545150  49.6370140
  66.2423030  26.3221800  50.1077370  67.2501900  27.1449270  49.3337000
  66.5286530  22.9992630  52.1404340  67.2905440  23.5689280  52.2464030
  66.5440900  22.4319830  52.9112650  50.0290870  21.5230560  56.3712000
  49.3739710  21.2542200  55.7271700  50.8668820  21.4135040  55.9213980
  64.5180260  25.2379310  62.3976590  63.7040100  25.6676470  62.6602380
  64.9254460  25.8497720  61.7845640  66.5805700  23.2927000  49.2976860
  66.8554540  24.2005880  49.1696080  66.3916440  23.2289530  50.2338850
  62.9781310  16.3171850  50.5930490  63.3966190  16.1302830  49.7527150
  62.6717370  15.4650900  50.9033420  51.0666800  21.9083130  60.9115340
  51.4339840  21.8210530  61.7911360  50.4977620  21.1449680  60.8122200
  65.8670660  20.3767510  63.9245810  65.6356750  20.1480260  63.0243760
  66.1275210  21.2967060  63.8790700  49.2428950  18.7329490  52.3137330
  48.3393030  18.9959690  52.1388990  49.7269570  19.0040660  51.5337290
  65.7522000  19.4553480  57.5913530  66.2759480  18.9616130  56.9603700
  66.3381420  19.5903840  58.3361100  65.9311720  19.5393350  61.1133080
  64.9814430  19.5056890  61.2278070  66.1124730  20.4493460  60.8782850
  51.7856160  17.7895030  50.2231710  52.4947860  17.3678250  49.7378990
  51.0696100  17.8570260  49.5915060  51.4330320  13.8434360  49.2634360
  52.1558450  14.3843300  49.5815580  51.7054840  13.5697780  48.3875900
  65.2421970  18.7126830  53.5305940  65.7381090  18.4797700  54.3154820
  65.0438040  17.8738670  53.1143580  51.1222510  13.0940550  59.1656980
  51.7698700  12.5437930  58.7252140  51.5424350  13.3483700  59.9872790
  65.0174850  13.2881910  62.5226620  65.6547070  13.9016050  62.8885810
  65.1649740  13.3242570  61.5775850  67.5599400  15.1795700  49.3049760
  68.4848710  15.0476880  49.0968050  67.5375190  15.2588520  50.2586210
  67.6337890  15.9506360  51.9306470  66.8389390  15.8851480  52.4599380
  67.8381170  16.8857000  51.9191820  64.5756310  29.9897910  55.9244860
  65.1715380  29.6682480  55.2479280  64.8334460  29.5169730  56.7158130
  50.8754510  13.2496220  61.9082300  50.5269330  13.7060040  62.6740480
  50.5442210  12.3553350  61.9904730  52.4818880  26.4215820  66.0735490
  52.4388510  26.0508730  66.9549950  52.6129890  27.3593390  66.2137310
  67.4429070  29.9969790  62.4755850  66.9487350  30.3938660  61.7582980
  66.8342360  29.3719000  62.8693130  51.5475150  12.7772420  65.1833070
  52.0958140  12.5960470  64.4199180  51.6130460  11.9866530  65.7189380
  52.3206910  29.3678070  63.1933270  51.7267230  29.2362770  63.9323310
  52.3130750  28.5316210  62.7275370  61.7661930  12.6610300  61.3963300
  60.8921770  12.9945410  61.1936230  61.6572680  12.1883480  62.2215170
  62.6733910  14.8681170  62.7805020  62.3447270  14.0532930  62.4006750
  63.6216210  14.8250980  62.6570710  65.1268520  30.6393210  59.7542590
  64.6671490  31.3909020  59.3800610  64.4980980  29.9199680  59.6957390
  51.9519140  26.7336450  62.1441310  51.2253200  26.1141740  62.0767260
  52.0128290  27.1277060  61.2739390  59.5136750  13.5780140  60.3356210
  58.7308540  14.0525640  60.6152970  59.2199680  12.6734970  60.2269390
  64.0657820  14.2803240  58.3805300  64.5065910  14.2248340  57.5326900
  63.7965410  15.1961250  58.4515480  65.9296390  13.9118480  56.3914120
  65.8684790  12.9679700  56.2445140  66.7088420  14.0198570  56.9367580
  50.8577160  13.8827620  52.8569930  51.6156520  13.9956500  52.2833960
  50.3954330  14.7196820  52.8113360  57.3990970  15.9966890  55.8472240
  56.5865480  15.6223780  55.5068120  57.9032610  15.2411970  56.1493430
  61.9015950  12.6609340  57.0855310  62.5045320  13.2329550  57.5603830
  61.1608940  13.2248780  56.8629210  65.0450550  13.0630900  52.3595590
  65.2401180  13.9614350  52.6263020  64.2580420  12.8317980  52.8528540
  53.2302310  14.4091670  51.3971900  53.7595070  13.6221470  51.2679850
  53.8630630  15.0882860  51.6307430  55.4240150  14.1466810  54.4517290
  54.7942890  13.4454120  54.6187420  54.8845290  14.9070940  54.2350450
  58.3632100  30.7606040  67.1227900  59.2899410  30.5250310  67.1663860
  58.3482530  31.5878040  66.6413930  66.5977160  30.3031610  54.1202150
  66.7729350  29.6169350  53.4763070  65.8998730  30.8278660  53.7278820
  55.5495710  13.4250790  66.8869780  55.2679980  13.9284390  66.1230600
  55.9315410  12.6272540  66.5211910  62.1511170  12.8404370  67.4650250
  62.0376620  13.1598980  68.3601770  62.9680910  13.2416880  67.1687530
  64.9309660  29.9875900  66.9468940  65.7234980  29.4925130  66.7394900
  65.2242810  30.6666040  67.5544550  61.0569320  20.8596840  37.8284990
  60.9763370  19.9451450  37.5576700  60.6433740  21.3563910  37.1224700
  59.1887360  22.6375860  39.7094260  58.4129460  22.1576300  39.9992830
  59.8400290  21.9581510  39.5350420  53.2053190  22.9495670  40.5870020
  52.3738070  22.6944380  40.9866530  53.8134170  23.0206440  41.3227940
  63.2094790  27.0436050  38.4893390  62.7476320  26.2723290  38.8180560
  64.0220340  27.0702120  38.9945840  53.1854450  26.9835760  40.7828040
  53.4882490  26.0933500  40.6038260  53.9298040  27.5405980  40.5550290
  51.6145140  17.9097560  34.3712410  50.7261840  18.2513530  34.2692290
  51.8986330  17.7097880  33.4793240  49.5778150  20.5103210  40.2552110
  50.1494260  19.7425410  40.2555750  49.5779690  20.8091970  39.3458720
  59.4358100  29.3294060  38.1097380  58.8169540  29.7851560  37.5391820
  60.2909880  29.4845520  37.7087080  58.6296350  25.3133050  39.7164420
  58.5604630  24.3722990  39.5553550  59.3916210  25.4034460  40.2886990
  50.8203020  15.9187570  42.0421040  50.6405860  15.0213320  42.3223800
  50.4183100  16.4659440  42.7167990  59.6601520  18.1203430  39.9433350
  60.0366340  17.2475310  39.8307020  59.5621030  18.4562130  39.0523790
  53.7906530  16.4929060  35.4050790  53.8973280  17.3932790  35.7119550
  52.8798890  16.4447030  35.1145440  63.4425640  15.6153870  36.8761690
  64.2635260  15.1250440  36.9187170  63.4759720  16.2051530  37.6293530
  51.4389690  18.4148070  40.6503380  52.1199800  18.6786440  41.2690780
  51.1237740  17.5748940  40.9841390  55.6314260  19.4615430  39.7375970
  56.1392480  19.9596400  40.3780990  56.1627500  18.6850630  39.5615330
  67.7325190  17.6320620  43.4405320  67.0277360  18.0202330  42.9220430
  67.9983110  18.3270910  44.0426250  53.9150360  14.1013990  44.0039390
  53.9168800  14.6186380  43.1985290  53.0854670  13.6244170  43.9809320
  60.3021450  24.2133300  35.5029290  59.6838720  24.6782750  34.9392010
  60.8144700  24.9060780  35.9198800  55.1653210  23.7409170  42.1812890
  54.8322590  24.3678090  42.8233960  55.3419890  24.2671050  41.4014560
  63.6787120  17.5554250  39.6489230  62.9742690  17.8439140  40.2292340
  64.0399280  18.3654360  39.2888790  53.5965690  15.8123950  42.0109840
  53.9382500  16.6566000  41.7163710  52.6581500  15.9607690  42.1275180
  54.3772310  25.7089970  43.9962070  54.9946310  26.3841050  43.7146520
  53.5165430  26.1177950  43.9049570  49.6704650  24.8989830  32.8768920
  49.2932630  25.3876930  32.1453820  49.9277720  25.5715110  33.5075450
  65.2949900  27.1729380  41.9116710  64.6113420  27.8428490  41.9033380
  65.8344190  27.3710030  41.1461570  66.7474040  17.0009040  40.0398440
  65.7998950  17.0348020  40.1713870  67.0724030  17.8147990  40.4247800
  57.2793580  13.3006220  38.3354430  57.5868560  12.7453110  37.6189930
  56.3494280  13.4350680  38.1527420  62.8308640  29.0173510  40.6261890
  62.8435800  28.6135800  39.7584150  62.2783860  29.7920800  40.5223320
  64.1254060  25.7389730  35.7152060  64.0150390  24.7964060  35.8401480
  64.1222310  26.1005370  36.6014820  62.2294080  23.9203350  41.9544500
  62.6462870  23.7063460  41.1197960  62.9533900  24.1776140  42.5253120
  59.6674340  21.3655050  35.0714550  58.7403620  21.2992430  35.3003020
  59.8199160  22.3035180  34.9569790  59.6543420  17.6372050  32.0681710
  58.7147090  17.7986010  32.1534170  59.9726680  18.3557730  31.5217700
  66.1756180  22.3190570  42.0460740  65.3474810  22.3883660  41.5710870
  66.7706660  22.9044880  41.5776570  63.6971630  22.9275350  35.5749800
  63.0784050  22.5894900  34.9276100  63.6796080  22.2835110  36.2828990
  63.1398190  19.1059890  42.9915610  62.7269370  19.9313600  43.2455600
  62.4074140  18.5204930  42.7991970  55.2730980  21.8919790  37.8534280
  54.8687980  21.1797040  37.3580180  55.3594100  21.5473030  38.7422320
  55.7412680  25.5787350  40.0173490  55.4440970  24.9732820  39.3381270
  56.6912500  25.6164660  39.9062850  53.9859600  18.6663000  41.6333320
  54.5374190  18.7758340  40.8586570  54.5003110  19.0400600  42.3488550
  54.8331110  25.3169040  46.6681290  53.9359640  25.5409010  46.9154690
  54.8583980  25.4403980  45.7192690  61.8736330  22.1662160  32.5822550
  62.3129610  21.3284590  32.4360370  62.5864750  22.7991560  32.6686690
  53.6602330  22.1882360  45.2438660  53.5210100  23.0605160  45.6126060
  52.7783690  21.8455170  45.0986600  59.9831710  27.1058230  36.5503790
  60.4227620  27.8482560  36.1359180  59.9218600  27.3484800  37.4742750
  55.4582680  28.1304060  47.4523810  55.4298110  28.5347010  46.5852240
  55.2947650  27.2014420  47.2895410  65.4553470  13.4204970  30.8963590
  65.1426130  13.5131800  31.7962660  66.2165940  13.9986000  30.8461020
  51.9735610  20.7864770  35.3540930  51.8533210  21.5126860  34.7422200
  51.6636500  20.0167680  34.8768840  67.4097500  28.9131160  48.7487980
  67.8857220  29.3914050  49.4277060  68.0304660  28.8448650  48.0233480
  49.6120980  23.9579910  41.1609570  49.6901400  24.0928680  40.2165290
  50.2262660  23.2495800  41.3537690  50.8568610  25.6580100  37.5715750
  50.4496690  25.7994690  36.7169350  51.7481620  25.3740260  37.3686960
  66.8130750  26.1044010  45.9087990  66.9393810  25.8655890  44.9905170
  66.8552130  25.2728550  46.3810070  62.6501890  30.0927350  33.9066800
  62.4903030  29.8030290  34.8048630  62.4848600  29.3167480  33.3712030
  55.1290270  29.8725880  35.6838420  54.9532750  28.9561420  35.4706220
  54.2746010  30.2313170  35.9236220  62.3528020  27.6014910  32.4664800
  61.6593180  27.5992200  31.8067080  63.0950880  27.1774230  32.0358970
  61.9177950  29.2277620  36.5413290  62.3734900  28.4467000  36.8551910
  62.2570470  29.9384440  37.0854470  66.6654760  18.1576470  46.8737730
  66.0499030  18.6656140  46.3453190  66.3451180  17.2574800  46.8163670
  49.6680500  24.9994080  43.7004030  49.8311540  24.5299440  42.8823400
  50.1332950  24.4917640  44.3652870  54.4399270  14.1299840  38.7364600
  53.9967420  14.9109380  38.4049120  54.9984260  14.4529730  39.4435540
  58.7269080  16.9968360  44.3399920  58.2648450  17.2051380  45.1519860
  58.3247190  16.1827710  44.0370590  63.7273590  18.2177310  45.4696580
  62.8767180  17.9183060  45.7905650  63.5675380  18.4619320  44.5580400
  60.8223300  19.7179060  47.5695370  61.1476710  18.8842810  47.2297600
  61.6103630  20.2407580  47.7173700  57.5558090  13.7510540  33.6170430
  56.9312270  13.7470410  34.3423740  57.4688210  12.8841500  33.2206400
  56.4775170  14.6747170  40.5954200  56.7747500  15.5810000  40.5146220
  57.0260730  14.1865950  39.9813770  54.2313490  19.2533410  36.4645850
  54.0054410  19.0370580  37.3692470  53.4506020  19.6861870  36.1191820
  61.4611250  19.2596780  35.0636500  60.8620140  19.9832580  34.8800120
  62.0090860  19.1973560  34.2812950  56.6712700  20.1518990  47.1306120
  56.5756300  19.2113720  46.9806520  57.5144680  20.3734060  46.7354190
  60.0676120  17.8960320  37.0939780  60.4605690  18.2132520  36.2808470
  60.4292970  17.0172200  37.2084300  51.8023240  16.5632660  45.2839900
  51.4086630  17.4107870  45.4912680  51.1141640  15.9259030  45.4748540
  58.3768290  16.6467630  48.3536640  57.6866610  16.4539830  48.9882730
  59.1200590  16.9302270  48.8860940  49.1040290  14.4861120  39.3169980
  48.8153340  15.0563980  40.0294960  49.8486050  14.0065570  39.6801210
  49.2910520  18.4281240  30.5272700  49.2085190  19.3712000  30.6687690
  48.9393580  18.2856150  29.6485050  60.6531260  20.4866070  41.1890560
  59.9212380  20.9952880  41.5380660  60.2555600  19.6696050  40.8879340
  57.0908650  17.1620270  39.5943050  57.0944710  16.7210220  38.7447590
  57.9859770  17.4837600  39.7014870  52.9411030  17.0446760  38.5537260
  52.6011080  17.5221990  39.3104310  52.1788350  16.5911880  38.1938360
  57.1528800  18.1632350  32.5849810  57.2741620  18.1218830  33.5335630
  56.7677310  19.0256500  32.4296540  61.1157170  15.9399750  40.6013500
  61.1329910  16.3908400  41.4455350  60.8672750  15.0405390  40.8146940
  56.1650300  20.4733490  31.9833110  55.5967200  20.0251740  31.3569020
  56.8739300  20.8326270  31.4498260  64.5427920  13.3531930  46.4399880
  64.8673690  12.6221590  46.9657860  64.5784430  13.0345570  45.5380870
  51.2419480  24.3745510  45.8599840  50.8574270  23.7339180  46.4582800
  51.5531670  25.0781630  46.4294570  57.3916620  21.2222050  41.3408460
  57.7586750  20.7480620  42.0869800  57.2021680  22.0963620  41.6816800
  50.2557110  15.9665740  37.4701930  49.9704030  15.6021410  38.3080550
  50.1935970  15.2346200  36.8565070  55.1815990  20.2630690  43.6592670
  54.8773060  21.1422670  43.8843030  56.1362450  20.3230480  43.6950110
  53.7097780  24.4691680  34.2559520  52.9360040  23.9289300  34.0958240
  54.4392410  23.9498290  33.9177280  64.4685760  23.4657040  40.0485910
  65.1884880  23.9612330  39.6582020  64.2667580  22.7874930  39.4039780
  59.9295700  14.8595000  34.1915300  59.1160310  14.3608170  34.1160610
  59.7357650  15.6993250  33.7751650  59.8504560  23.5366100  45.9354910
  59.7841870  22.6161770  45.6812500  59.2209700  23.6341540  46.6499550
  62.6444090  19.2314650  32.4877460  63.5323710  19.5431880  32.3128800
  62.6149180  18.3586900  32.0958040  53.7535180  24.1372060  37.8938330
  54.2713850  23.3340320  37.8395220  53.3019200  24.0751200  38.7355160
  58.6404680  25.4038340  33.1665630  58.9820380  26.1480570  32.6708950
  57.8117390  25.7169460  33.5290460  51.2379720  21.1033430  44.8064030
  50.8794660  21.7687280  45.3937370  50.9434280  20.2716980  45.1776650
  54.4392840  21.5617670  47.6903580  54.1392980  21.7074850  46.7931400
  55.2104080  21.0022960  47.5976970  59.7821290  26.3586670  45.6858710
  59.7965830  25.4267630  45.4677620  59.0746390  26.4446430  46.3248480
  64.9158360  20.5426490  31.9557320  64.8322080  20.9740710  31.1053760
  65.6352550  21.0024840  32.3884140  65.9932500  22.9994010  45.0327290
  65.2680690  23.5922790  44.8356680  66.5207960  22.9917550  44.2340660
  65.9445610  27.3968750  34.6839450  65.3021770  26.7424370  34.9583170
  65.5576270  27.8023840  33.9080120  61.5232090  24.7254180  38.5311140
  61.8755910  24.1282310  37.8712510  60.6394420  24.3998410  38.7019390
  57.6095370  25.4851870  35.9381550  58.2966500  26.0321080  36.3189140
  56.8227790  26.0292600  35.9731160  49.7487770  21.1024690  31.4298630
  50.6182620  21.3849490  31.7134550  49.2578090  21.9160560  31.3147440
  56.9122580  22.4897900  35.5506910  57.3685360  23.3003150  35.7767100
  56.5610790  22.1721040  36.3825400  59.2155190  28.0004240  42.7799210
  59.8597410  28.2063620  43.4572630  59.5784630  27.2392640  42.3270060
  52.8134360  12.8335550  36.0229430  52.6848990  12.8253450  36.9714350
  51.9896380  13.1718640  35.6720440  60.4887270  26.0036590  41.4976660
  61.1309500  25.3029750  41.6108830  61.0136620  26.7835030  41.3173550
  64.3342990  26.2885210  31.2215800  64.1080570  25.5715650  31.8140440
  63.9439190  26.0397650  30.3837550  50.1159020  30.3152070  31.9960260
  50.4756660  30.9141410  31.3417530  49.9751360  30.8611960  32.7695290
  49.8128290  14.5926670  45.4836130  49.0986810  14.7923590  46.0888740
  50.2323330  13.8166240  45.8550930  63.9159240  24.2057150  32.8829960
  63.6280940  24.6669840  33.6707840  64.7111410  23.7454920  33.1514180
  50.1000880  28.5806930  46.4702660  50.2092000  27.6401670  46.3298050
  49.4481440  28.8461680  45.8216390  58.0913470  26.8522820  47.8700780
  57.7710340  26.1332060  48.4146470  57.4171830  27.5277890  47.9436840
  56.1327640  27.6983270  32.8133930  56.1237740  28.4312960  32.1978440
  55.2126000  27.4514850  32.9060890  51.7334280  22.9198160  33.5580690
  51.1262230  23.6597060  33.5675990  52.2083630  23.0097520  32.7318890
  61.3067070  17.0848980  43.2337580  61.6747890  16.2644190  43.5617150
  60.4465270  17.1450870  43.6493230  64.6729100  16.0405920  34.0425140
  64.0442260  16.1451590  33.3283370  64.1781020  16.2602700  34.8319020
  59.1187240  27.7611510  31.4759120  59.2199220  27.5575500  30.5461100
  58.2188980  27.5069790  31.6806900  56.6413130  18.3191870  35.4583020
  55.9329280  18.7878210  35.8996630  56.9257610  17.6613880  36.0928210
  58.2669060  19.7388570  43.4575550  58.7654310  20.2134390  44.1227400
  58.4092010  18.8152090  43.6645580  60.6728560  15.0442530  36.8978810
  60.5496340  15.0628660  35.9488320  61.6213120  15.0921470  37.0177210
  57.7605350  30.2797830  36.1706790  58.0146850  30.2419220  35.2486160
  56.8117830  30.1531160  36.1635040  54.8448150  16.6276950  32.8333730
  55.6938680  17.0647100  32.7673920  54.4779420  16.9397210  33.6605790
  65.4735920  15.9556530  44.3003940  64.9709520  16.6961930  44.6397750
  66.2892580  16.3440530  43.9840730  63.7657930  21.1989710  37.7465300
  62.8248070  21.2139940  37.9212990  64.0802000  20.4125670  38.1925600
  53.7439570  22.8809310  31.3069260  54.5102840  22.7690670  31.8694690
  53.8214260  22.1847280  30.6546030  52.4386330  20.3134380  31.9902150
  52.5189920  19.3661890  32.1019550  53.3306080  20.6441260  32.0962810
  65.7683510  28.3698560  39.4219560  65.8930930  29.1929730  39.8943370
  66.6349070  28.1589290  39.0743710  53.2401040  30.4629770  39.0936690
  53.9763520  29.9145230  39.3645260  53.6241960  31.3285780  38.9542680
  50.1246520  26.5303340  34.9678200  49.1986300  26.7724480  34.9583610
  50.5902950  27.3577600  34.8462950  52.2459320  29.6475840  48.2822270
  53.0472050  29.9687890  48.6957670  51.7311140  29.2871420  49.0042180
  56.3503350  29.6360080  30.9162260  57.1431960  29.9248910  30.4644050
  55.8307700  29.2052250  30.2374740  61.0823950  25.7555710  48.2297680
  60.4762110  25.7787310  47.4893430  60.7778060  25.0238750  48.7664930
  65.4033520  28.8630210  32.3399000  65.1175030  28.4495350  31.5253180
  65.2053070  29.7917920  32.2199520  49.9657130  22.1349300  47.2258320
  50.4696150  21.5556580  47.7974550  49.2264550  22.4189530  47.7634690
  56.8680750  24.8563490  30.7804610  56.7631390  24.2415840  31.5065990
  56.7004970  24.3329380  29.9967620  57.0195070  23.5420290  46.7593840
  56.2540740  24.1105290  46.6748510  57.2011030  23.2496500  45.8662070
  60.1083480  23.9183520  31.3846600  59.5593580  24.3652820  32.0289340
  60.7302740  23.4132770  31.9084270  64.1618420  25.2725620  47.3168860
  64.9027890  25.6101380  46.8136320  63.3991100  25.4417680  46.7638630
  51.9980210  20.2778890  48.1208390  52.0385550  19.9792760  49.0293620
  52.8525710  20.6786500  47.9615910  55.7758600  22.8774440  33.2811900
  56.1975020  22.7114310  34.1243290  55.9009440  22.0674670  32.7867040
  53.9386020  18.8570990  46.0882880  53.4082480  18.3661940  45.4606220
  54.6074090  19.2855190  45.5540810  58.2886240  21.9012050  30.5289000
  58.8091900  21.1861070  30.1630150  58.9354640  22.5397920  30.8289510
  62.8364080  23.3240450  45.8524070  63.2505100  23.4785530  46.7014490
  61.9015080  23.4495670  46.0149850  63.3086250  20.6636610  47.8563220
  63.8907020  19.9088930  47.7683700  63.4848020  21.1944050  47.0794700
  54.4258320  15.8233360  46.1680170  54.3315190  15.2054110  45.4431040
  53.8455710  16.5499650  45.9410080  57.1919760  14.3806600  43.2007560
  56.7437060  14.4030860  42.3553110  56.5584960  13.9825620  43.7977860
  57.5979310  23.2760930  43.8220000  58.0167420  24.1193660  43.6496240
  56.6787940  23.4132970  43.5926780  59.9343210  21.0077110  45.2057840
  60.0539420  20.4118250  45.9452680  60.7937210  21.0446800  44.7859140
  62.2731110  21.5614300  43.7820350  61.7466330  22.0856920  43.1785490
  62.6162450  22.1941690  44.4130080  54.6717500  18.9507670  30.2270060
  54.4706560  18.0875030  30.5883400  54.5009550  18.8641030  29.2891660
  55.4486730  29.5813940  44.9377730  54.9107820  30.3060000  44.6186430
  55.7020690  29.1044280  44.1475070  56.7011980  17.5498460  46.4633660
  57.2911670  17.2414310  47.1511480  55.8832220  17.0778210  46.6193560
  61.5205410  17.1664270  46.6966680  60.8320930  16.5045810  46.6316670
  62.2411430  16.7202540  47.1415140  62.1505810  13.7615900  32.7556940
  62.4308100  12.9183800  33.1116360  61.3771540  13.9939010  33.2695690
  53.4700300  16.0508290  30.2147940  53.7726200  16.0575720  29.3067090
  54.2094890  15.7006150  30.7115600  56.6885230  14.9942910  31.2004140
  56.3407230  14.3166900  30.6206590  56.8898000  14.5332420  32.0147530
  58.8534270  29.9823660  32.8190740  59.7485060  30.3208630  32.8409500
  58.8851900  29.2603070  32.1915020  52.4930430  25.3550710  31.0477740
  52.9305300  25.8980380  31.7035320  52.9778160  24.5297660  31.0574080
  49.7076230  28.1439740  38.4998000  50.0379240  27.2760800  38.2676640
  50.1367230  28.3498260  39.3302960  54.3038150  26.4748750  36.1599970
  54.0033690  26.3513720  37.0603880  54.1975640  25.6157340  35.7515700
  50.1966440  29.0110330  41.2379630  49.7597430  29.1911130  42.0703780
  50.7644120  29.7684950  41.0961350  67.0730070  26.2545150  30.8626650
  66.2423030  26.3221800  31.3333880  67.2501900  27.1449270  30.5593510
  66.5286530  22.9992630  33.3660850  67.2905440  23.5689280  33.4720540
  66.5440900  22.4319830  34.1369160  50.0290870  21.5230560  37.5968510
  49.3739710  21.2542200  36.9528210  50.8668820  21.4135040  37.1470490
  67.5346500  23.8542730  38.2102780  67.9055330  23.0710050  37.8038750
  68.1748430  24.5431830  38.0320080  64.5180260  25.2379310  43.6233100
  63.7040100  25.6676470  43.8858890  64.9254460  25.8497720  43.0102150
  66.5805700  23.2927000  30.5233370  66.8554540  24.2005880  30.3952590
  66.3916440  23.2289530  31.4595360  62.9781310  16.3171850  31.8187000
  63.3966190  16.1302830  30.9783660  62.6717370  15.4650900  32.1289930
  66.4771040  21.2295990  35.5162800  66.1014640  20.4623920  35.0844090
  65.7474160  21.6118690  36.0037730  51.0666800  21.9083130  42.1371850
  51.4339840  21.8210530  43.0167870  50.4977620  21.1449680  42.0378710
  65.8670660  20.3767510  45.1502320  65.6356750  20.1480260  44.2500270
  66.1275210  21.2967060  45.1047210  50.6182800  18.8192220  46.0430270
  49.7238850  18.7858980  46.3823980  51.1580350  19.0179010  46.8081520
  64.3058730  15.6023940  47.9282020  65.1828910  15.6107340  48.3116020
  64.3179570  14.8654780  47.3174370  49.2428950  18.7329490  33.5393840
  48.3393030  18.9959690  33.3645500  49.7269570  19.0040660  32.7593800
  65.7522000  19.4553480  38.8170040  66.2759480  18.9616130  38.1860210
  66.3381420  19.5903840  39.5617610  65.9311720  19.5393350  42.3389590
  64.9814430  19.5056890  42.4534580  66.1124730  20.4493460  42.1039360
  51.7856160  17.7895030  31.4488220  52.4947860  17.3678250  30.9635500
  51.0696100  17.8570260  30.8171570  51.4330320  13.8434360  30.4890870
  52.1558450  14.3843300  30.8072090  51.7054840  13.5697780  29.6132410
  65.2421970  18.7126830  34.7562450  65.7381090  18.4797700  35.5411330
  65.0438040  17.8738670  34.3400090  51.1222510  13.0940550  40.3913490
  51.7698700  12.5437930  39.9508650  51.5424350  13.3483700  41.2129300
  66.6709130  17.3487780  37.2900130  66.5608410  17.1943820  38.2282400
  67.4316720  16.8208720  37.0475540  65.0174850  13.2881910  43.7483130
  65.6547070  13.9016050  44.1142320  65.1649740  13.3242570  42.8032360
  67.5599400  15.1795700  30.5306270  68.4848710  15.0476880  30.3224560
  67.5375190  15.2588520  31.4842720  67.6337890  15.9506360  33.1562980
  66.8389390  15.8851480  33.6855890  67.8381170  16.8857000  33.1448330
  64.5756310  29.9897910  37.1501370  65.1715380  29.6682480  36.4735790
  64.8334460  29.5169730  37.9414640  50.8754510  13.2496220  43.1338810
  50.5269330  13.7060040  43.8996990  50.5442210  12.3553350  43.2161240
  52.4818880  26.4215820  47.2992000  52.4388510  26.0508730  48.1806460
  52.6129890  27.3593390  47.4393820  56.1824910  27.9775410  42.9001720
  55.9416270  28.2449970  42.0132240  57.1227550  28.1481140  42.9552580
  58.3879330  14.4408100  46.6558230  58.3268220  15.0329930  47.4053640
  59.3279710  14.3334060  46.5108490  61.0253890  14.0978160  46.2950520
  61.6394300  14.4157450  45.6331600  61.5703450  13.6126750  46.9146380
  51.5475150  12.7772420  46.4089580  52.0958140  12.5960470  45.6455690
  51.6130460  11.9866530  46.9445890  52.3206910  29.3678070  44.4189780
  51.7267230  29.2362770  45.1579820  52.3130750  28.5316210  43.9531880
  61.7661930  12.6610300  42.6219810  60.8921770  12.9945410  42.4192740
  61.6572680  12.1883480  43.4471680  62.6733910  14.8681170  44.0061530
  62.3447270  14.0532930  43.6263260  63.6216210  14.8250980  43.8827220
  65.1268520  30.6393210  40.9799100  64.6671490  31.3909020  40.6057120
  64.4980980  29.9199680  40.9213900  51.9519140  26.7336450  43.3697820
  51.2253200  26.1141740  43.3023770  52.0128290  27.1277060  42.4995900
  55.5564240  28.9481450  40.1547230  56.0729260  28.3368810  39.6295490
  56.2061620  29.4510230  40.6458240  58.2959740  29.8389940  40.9816210
  58.5837550  29.5844240  40.1049220  58.8082960  29.2867300  41.5721780
  59.5136750  13.5780140  41.5612720  58.7308540  14.0525640  41.8409480
  59.2199680  12.6734970  41.4525900  64.0657820  14.2803240  39.6061810
  64.5065910  14.2248340  38.7583410  63.7965410  15.1961250  39.6771990
  65.9296390  13.9118480  37.6170630  65.8684790  12.9679700  37.4701650
  66.7088420  14.0198570  38.1624090  50.2349140  30.0510840  36.5794580
  50.0671180  29.4181520  37.2776470  49.3683650  30.2570240  36.2288770
  50.8577160  13.8827620  34.0826440  51.6156520  13.9956500  33.5090470
  50.3954330  14.7196820  34.0369870  57.3990970  15.9966890  37.0728750
  56.5865480  15.6223780  36.7324630  57.9032610  15.2411970  37.3749940
  61.9015950  12.6609340  38.3111820  62.5045320  13.2329550  38.7860340
  61.1608940  13.2248780  38.0885720  65.0450550  13.0630900  33.5852100
  65.2401180  13.9614350  33.8519530  64.2580420  12.8317980  34.0785050
  51.8411840  28.7444070  34.0244720  51.3159460  29.1252100  33.3206680
  51.7656420  29.3694840  34.7454430  53.2302310  14.4091670  32.6228410
  53.7595070  13.6221470  32.4936360  53.8630630  15.0882860  32.8563940
  55.4240150  14.1466810  35.6773800  54.7942890  13.4454120  35.8443930
  54.8845290  14.9070940  35.4606960  66.5977160  30.3031610  35.3458660
  66.7729350  29.6169350  34.7019580  65.8998730  30.8278660  34.9535330
  55.5495710  13.4250790  48.1126290  55.2679980  13.9284390  47.3487110
  55.9315410  12.6272540  47.7468420  54.4404810  30.6926450  32.8993970
  55.1723630  30.4085730  32.3517860  54.6998480  30.4539730  33.7893350
  53.6019600  26.8091180  32.9040300  52.9728480  27.2776280  33.4526130
  53.7167430  25.9640400  33.3386490  62.1511170  12.8404370  48.6906760
  62.0376620  13.1598980  49.5858280  62.9680910  13.2416880  48.3944040
  61.0569320  20.8596840  19.0541500  60.9763370  19.9451450  18.7833210
  60.6433740  21.3563910  18.3481210  59.1887360  22.6375860  20.9350770
  58.4129460  22.1576300  21.2249340  59.8400290  21.9581510  20.7606930
  53.2053190  22.9495670  21.8126530  52.3738070  22.6944380  22.2123040
  53.8134170  23.0206440  22.5484450  63.2094790  27.0436050  19.7149900
  62.7476320  26.2723290  20.0437070  64.0220340  27.0702120  20.2202350
  53.1854450  26.9835760  22.0084550  53.4882490  26.0933500  21.8294770
  53.9298040  27.5405980  21.7806800  51.6145140  17.9097560  15.5968920
  50.7261840  18.2513530  15.4948800  51.8986330  17.7097880  14.7049750
  49.5778150  20.5103210  21.4808620  50.1494260  19.7425410  21.4812260
  49.5779690  20.8091970  20.5715230  59.4358100  29.3294060  19.3353890
  58.8169540  29.7851560  18.7648330  60.2909880  29.4845520  18.9343590
  58.6296350  25.3133050  20.9420930  58.5604630  24.3722990  20.7810060
  59.3916210  25.4034460  21.5143500  50.8203020  15.9187570  23.2677550
  50.6405860  15.0213320  23.5480310  50.4183100  16.4659440  23.9424500
  59.6601520  18.1203430  21.1689860  60.0366340  17.2475310  21.0563530
  59.5621030  18.4562130  20.2780300  53.7906530  16.4929060  16.6307300
  53.8973280  17.3932790  16.9376060  52.8798890  16.4447030  16.3401950
  63.4425640  15.6153870  18.1018200  64.2635260  15.1250440  18.1443680
  63.4759720  16.2051530  18.8550040  51.4389690  18.4148070  21.8759890
  52.1199800  18.6786440  22.4947290  51.1237740  17.5748940  22.2097900
  55.6314260  19.4615430  20.9632480  56.1392480  19.9596400  21.6037500
  56.1627500  18.6850630  20.7871840  67.7325190  17.6320620  24.6661830
  67.0277360  18.0202330  24.1476940  67.9983110  18.3270910  25.2682760
  53.9150360  14.1013990  25.2295900  53.9168800  14.6186380  24.4241800
  53.0854670  13.6244170  25.2065830  60.3021450  24.2133300  16.7285800
  59.6838720  24.6782750  16.1648520  60.8144700  24.9060780  17.1455310
  55.1653210  23.7409170  23.4069400  54.8322590  24.3678090  24.0490470
  55.3419890  24.2671050  22.6271070  63.6787120  17.5554250  20.8745740
  62.9742690  17.8439140  21.4548850  64.0399280  18.3654360  20.5145300
  53.5965690  15.8123950  23.2366350  53.9382500  16.6566000  22.9420220
  52.6581500  15.9607690  23.3531690  54.3772310  25.7089970  25.2218580
  54.9946310  26.3841050  24.9403030  53.5165430  26.1177950  25.1306080
  49.6704650  24.8989830  14.1025430  49.2932630  25.3876930  13.3710330
  49.9277720  25.5715110  14.7331960  65.2949900  27.1729380  23.1373220
  64.6113420  27.8428490  23.1289890  65.8344190  27.3710030  22.3718080
  66.7474040  17.0009040  21.2654950  65.7998950  17.0348020  21.3970380
  67.0724030  17.8147990  21.6504310  57.2793580  13.3006220  19.5610940
  57.5868560  12.7453110  18.8446440  56.3494280  13.4350680  19.3783930
  62.8308640  29.0173510  21.8518400  62.8435800  28.6135800  20.9840660
  62.2783860  29.7920800  21.7479830  64.1254060  25.7389730  16.9408570
  64.0150390  24.7964060  17.0657990  64.1222310  26.1005370  17.8271330
  62.2294080  23.9203350  23.1801010  62.6462870  23.7063460  22.3454470
  62.9533900  24.1776140  23.7509630  59.6674340  21.3655050  16.2971060
  58.7403620  21.2992430  16.5259530  59.8199160  22.3035180  16.1826300
  59.6543420  17.6372050  13.2938220  58.7147090  17.7986010  13.3790680
  59.9726680  18.3557730  12.7474210  66.1756180  22.3190570  23.2717250
  65.3474810  22.3883660  22.7967380  66.7706660  22.9044880  22.8033080
  63.6971630  22.9275350  16.8006310  63.0784050  22.5894900  16.1532610
  63.6796080  22.2835110  17.5085500  63.1398190  19.1059890  24.2172120
  62.7269370  19.9313600  24.4712110  62.4074140  18.5204930  24.0248480
  55.2730980  21.8919790  19.0790790  54.8687980  21.1797040  18.5836690
  55.3594100  21.5473030  19.9678830  55.7412680  25.5787350  21.2430000
  55.4440970  24.9732820  20.5637780  56.6912500  25.6164660  21.1319360
  53.9859600  18.6663000  22.8589830  54.5374190  18.7758340  22.0843080
  54.5003110  19.0400600  23.5745060  63.8298290  29.1519220  24.9053100
  63.3528850  29.9591410  24.7125710  63.1460080  28.4997550  25.0579310
  54.8331110  25.3169040  27.8937800  53.9359640  25.5409010  28.1411200
  54.8583980  25.4403980  26.9449200  61.8736330  22.1662160  13.8079060
  62.3129610  21.3284590  13.6616880  62.5864750  22.7991560  13.8943200
  53.6602330  22.1882360  26.4695170  53.5210100  23.0605160  26.8382570
  52.7783690  21.8455170  26.3243110  59.9831710  27.1058230  17.7760300
  60.4227620  27.8482560  17.3615690  59.9218600  27.3484800  18.6999260
  55.4582680  28.1304060  28.6780320  55.4298110  28.5347010  27.8108750
  55.2947650  27.2014420  28.5151920  65.4553470  13.4204970  12.1220100
  65.1426130  13.5131800  13.0219170  66.2165940  13.9986000  12.0717530
  51.9735610  20.7864770  16.5797440  51.8533210  21.5126860  15.9678710
  51.6636500  20.0167680  16.1025350  67.4097500  28.9131160  29.9744490
  67.8857220  29.3914050  30.6533570  68.0304660  28.8448650  29.2489990
  49.6120980  23.9579910  22.3866080  49.6901400  24.0928680  21.4421800
  50.2262660  23.2495800  22.5794200  50.8568610  25.6580100  18.7972260
  50.4496690  25.7994690  17.9425860  51.7481620  25.3740260  18.5943470
  66.8130750  26.1044010  27.1344500  66.9393810  25.8655890  26.2161680
  66.8552130  25.2728550  27.6066580  60.6747490  29.8072010  25.7039310
  61.1892160  29.7180020  26.5061740  59.8316570  30.1531710  25.9967220
  62.6501890  30.0927350  15.1323310  62.4903030  29.8030290  16.0305140
  62.4848600  29.3167480  14.5968540  55.1290270  29.8725880  16.9094930
  54.9532750  28.9561420  16.6962730  54.2746010  30.2313170  17.1492730
  62.3528020  27.6014910  13.6921310  61.6593180  27.5992200  13.0323590
  63.0950880  27.1774230  13.2615480  61.9177950  29.2277620  17.7669800
  62.3734900  28.4467000  18.0808420  62.2570470  29.9384440  18.3110980
  66.6654760  18.1576470  28.0994240  66.0499030  18.6656140  27.5709700
  66.3451180  17.2574800  28.0420180  49.6680500  24.9994080  24.9260540
  49.8311540  24.5299440  24.1079910  50.1332950  24.4917640  25.5909380
  54.4399270  14.1299840  19.9621110  53.9967420  14.9109380  19.6305630
  54.9984260  14.4529730  20.6692050  58.7269080  16.9968360  25.5656430
  58.2648450  17.2051380  26.3776370  58.3247190  16.1827710  25.2627100
  63.7273590  18.2177310  26.6953090  62.8767180  17.9183060  27.0162160
  63.5675380  18.4619320  25.7836910  60.8223300  19.7179060  28.7951880
  61.1476710  18.8842810  28.4554110  61.6103630  20.2407580  28.9430210
  57.5558090  13.7510540  14.8426940  56.9312270  13.7470410  15.5680250
  57.4688210  12.8841500  14.4462910  56.4775170  14.6747170  21.8210710
  56.7747500  15.5810000  21.7402730  57.0260730  14.1865950  21.2070280
  54.2313490  19.2533410  17.6902360  54.0054410  19.0370580  18.5948980
  53.4506020  19.6861870  17.3448330  61.4611250  19.2596780  16.2893010
  60.8620140  19.9832580  16.1056630  62.0090860  19.1973560  15.5069460
  56.6712700  20.1518990  28.3562630  56.5756300  19.2113720  28.2063030
  57.5144680  20.3734060  27.9610700  60.0676120  17.8960320  18.3196290
  60.4605690  18.2132520  17.5064980  60.4292970  17.0172200  18.4340810
  51.8023240  16.5632660  26.5096410  51.4086630  17.4107870  26.7169190
  51.1141640  15.9259030  26.7005050  58.3768290  16.6467630  29.5793150
  57.6866610  16.4539830  30.2139240  59.1200590  16.9302270  30.1117450
  49.1040290  14.4861120  20.5426490  48.8153340  15.0563980  21.2551470
  49.8486050  14.0065570  20.9057720  49.2910520  18.4281240  11.7529210
  49.2085190  19.3712000  11.8944200  48.9393580  18.2856150  10.8741560
  60.6531260  20.4866070  22.4147070  59.9212380  20.9952880  22.7637170
  60.2555600  19.6696050  22.1135850  57.0908650  17.1620270  20.8199560
  57.0944710  16.7210220  19.9704100  57.9859770  17.4837600  20.9271380
  52.9411030  17.0446760  19.7793770  52.6011080  17.5221990  20.5360820
  52.1788350  16.5911880  19.4194870  57.1528800  18.1632350  13.8106320
  57.2741620  18.1218830  14.7592140  56.7677310  19.0256500  13.6553050
  61.1157170  15.9399750  21.8270010  61.1329910  16.3908400  22.6711860
  60.8672750  15.0405390  22.0403450  56.1650300  20.4733490  13.2089620
  55.5967200  20.0251740  12.5825530  56.8739300  20.8326270  12.6754770
  64.5427920  13.3531930  27.6656390  64.8673690  12.6221590  28.1914370
  64.5784430  13.0345570  26.7637380  51.2419480  24.3745510  27.0856350
  50.8574270  23.7339180  27.6839310  51.5531670  25.0781630  27.6551080
  57.3916620  21.2222050  22.5664970  57.7586750  20.7480620  23.3126310
  57.2021680  22.0963620  22.9073310  50.2557110  15.9665740  18.6958440
  49.9704030  15.6021410  19.5337060  50.1935970  15.2346200  18.0821580
  55.1815990  20.2630690  24.8849180  54.8773060  21.1422670  25.1099540
  56.1362450  20.3230480  24.9206620  53.7097780  24.4691680  15.4816030
  52.9360040  23.9289300  15.3214750  54.4392410  23.9498290  15.1433790
  64.4685760  23.4657040  21.2742420  65.1884880  23.9612330  20.8838530
  64.2667580  22.7874930  20.6296290  59.9295700  14.8595000  15.4171810
  59.1160310  14.3608170  15.3417120  59.7357650  15.6993250  15.0008160
  59.8504560  23.5366100  27.1611420  59.7841870  22.6161770  26.9069010
  59.2209700  23.6341540  27.8756060  62.6444090  19.2314650  13.7133970
  63.5323710  19.5431880  13.5385310  62.6149180  18.3586900  13.3214550
  53.7535180  24.1372060  19.1194840  54.2713850  23.3340320  19.0651730
  53.3019200  24.0751200  19.9611670  58.6404680  25.4038340  14.3922140
  58.9820380  26.1480570  13.8965460  57.8117390  25.7169460  14.7546970
  51.2379720  21.1033430  26.0320540  50.8794660  21.7687280  26.6193880
  50.9434280  20.2716980  26.4033160  54.4392840  21.5617670  28.9160090
  54.1392980  21.7074850  28.0187910  55.2104080  21.0022960  28.8233480
  59.7821290  26.3586670  26.9115220  59.7965830  25.4267630  26.6934130
  59.0746390  26.4446430  27.5504990  64.9158360  20.5426490  13.1813830
  64.8322080  20.9740710  12.3310270  65.6352550  21.0024840  13.6140650
  65.9932500  22.9994010  26.2583800  65.2680690  23.5922790  26.0613190
  66.5207960  22.9917550  25.4597170  65.9445610  27.3968750  15.9095960
  65.3021770  26.7424370  16.1839680  65.5576270  27.8023840  15.1336630
  61.5232090  24.7254180  19.7567650  61.8755910  24.1282310  19.0969020
  60.6394420  24.3998410  19.9275900  57.6095370  25.4851870  17.1638060
  58.2966500  26.0321080  17.5445650  56.8227790  26.0292600  17.1987670
  49.7487770  21.1024690  12.6555140  50.6182620  21.3849490  12.9391060
  49.2578090  21.9160560  12.5403950  56.9122580  22.4897900  16.7763420
  57.3685360  23.3003150  17.0023610  56.5610790  22.1721040  17.6081910
  59.2155190  28.0004240  24.0055720  59.8597410  28.2063620  24.6829140
  59.5784630  27.2392640  23.5526570  52.8134360  12.8335550  17.2485940
  52.6848990  12.8253450  18.1970860  51.9896380  13.1718640  16.8976950
  60.4887270  26.0036590  22.7233170  61.1309500  25.3029750  22.8365340
  61.0136620  26.7835030  22.5430060  64.3342990  26.2885210  12.4472310
  64.1080570  25.5715650  13.0396950  63.9439190  26.0397650  11.6094060
  62.2624890  26.8031490  25.9269230  62.5981130  27.3898180  26.6047150
  61.3425230  26.6724200  26.1567020  50.1159020  30.3152070  13.2216770
  50.4756660  30.9141410  12.5674040  49.9751360  30.8611960  13.9951800
  49.8128290  14.5926670  26.7092640  49.0986810  14.7923590  27.3145250
  50.2323330  13.8166240  27.0807440  63.9159240  24.2057150  14.1086470
  63.6280940  24.6669840  14.8964350  64.7111410  23.7454920  14.3770690
  50.1000880  28.5806930  27.6959170  50.2092000  27.6401670  27.5554560
  49.4481440  28.8461680  27.0472900  58.0913470  26.8522820  29.0957290
  57.7710340  26.1332060  29.6402980  57.4171830  27.5277890  29.1693350
  56.1327640  27.6983270  14.0390440  56.1237740  28.4312960  13.4234950
  55.2126000  27.4514850  14.1317400  51.7334280  22.9198160  14.7837200
  51.1262230  23.6597060  14.7932500  52.2083630  23.0097520  13.9575400
  61.3067070  17.0848980  24.4594090  61.6747890  16.2644190  24.7873660
  60.4465270  17.1450870  24.8749740  64.6729100  16.0405920  15.2681650
  64.0442260  16.1451590  14.5539880  64.1781020  16.2602700  16.0575530
  59.1187240  27.7611510  12.7015630  59.2199220  27.5575500  11.7717610
  58.2188980  27.5069790  12.9063410  56.6413130  18.3191870  16.6839530
  55.9329280  18.7878210  17.1253140  56.9257610  17.6613880  17.3184720
  58.2669060  19.7388570  24.6832060  58.7654310  20.2134390  25.3483910
  58.4092010  18.8152090  24.8902090  60.6728560  15.0442530  18.1235320
  60.5496340  15.0628660  17.1744830  61.6213120  15.0921470  18.2433720
  57.7605350  30.2797830  17.3963300  58.0146850  30.2419220  16.4742670
  56.8117830  30.1531160  17.3891550  54.8448150  16.6276950  14.0590240
  55.6938680  17.0647100  13.9930430  54.4779420  16.9397210  14.8862300
  65.4735920  15.9556530  25.5260450  64.9709520  16.6961930  25.8654260
  66.2892580  16.3440530  25.2097240  63.7657930  21.1989710  18.9721810
  62.8248070  21.2139940  19.1469500  64.0802000  20.4125670  19.4182110
  53.7439570  22.8809310  12.5325770  54.5102840  22.7690670  13.0951200
  53.8214260  22.1847280  11.8802540  52.4386330  20.3134380  13.2158660
  52.5189920  19.3661890  13.3276060  53.3306080  20.6441260  13.3219320
  65.7683510  28.3698560  20.6476070  65.8930930  29.1929730  21.1199880
  66.6349070  28.1589290  20.3000220  53.2401040  30.4629770  20.3193200
  53.9763520  29.9145230  20.5901770  53.6241960  31.3285780  20.1799190
  50.1246520  26.5303340  16.1934710  49.1986300  26.7724480  16.1840120
  50.5902950  27.3577600  16.0719460  52.2459320  29.6475840  29.5078780
  53.0472050  29.9687890  29.9214180  51.7311140  29.2871420  30.2298690
  56.3503350  29.6360080  12.1418770  57.1431960  29.9248910  11.6900560
  55.8307700  29.2052250  11.4631250  61.0823950  25.7555710  29.4554190
  60.4762110  25.7787310  28.7149940  60.7778060  25.0238750  29.9921440
  62.5124320  29.4836000  28.0663600  63.4646070  29.3994020  28.0163840
  62.3652540  30.1477710  28.7397390  65.4033520  28.8630210  13.5655510
  65.1175030  28.4495350  12.7509690  65.2053070  29.7917920  13.4456030
  49.9657130  22.1349300  28.4514830  50.4696150  21.5556580  29.0231060
  49.2264550  22.4189530  28.9891200  56.8680750  24.8563490  12.0061120
  56.7631390  24.2415840  12.7322500  56.7004970  24.3329380  11.2224130
  57.0195070  23.5420290  27.9850350  56.2540740  24.1105290  27.9005020
  57.2011030  23.2496500  27.0918580  60.1083480  23.9183520  12.6103110
  59.5593580  24.3652820  13.2545850  60.7302740  23.4132770  13.1340780
  64.1618420  25.2725620  28.5425370  64.9027890  25.6101380  28.0392830
  63.3991100  25.4417680  27.9895140  51.9980210  20.2778890  29.3464900
  52.0385550  19.9792760  30.2550130  52.8525710  20.6786500  29.1872420
  55.7758600  22.8774440  14.5068410  56.1975020  22.7114310  15.3499800
  55.9009440  22.0674670  14.0123550  53.9386020  18.8570990  27.3139390
  53.4082480  18.3661940  26.6862730  54.6074090  19.2855190  26.7797320
  58.2886240  21.9012050  11.7545510  58.8091900  21.1861070  11.3886660
  58.9354640  22.5397920  12.0546020  62.8364080  23.3240450  27.0780580
  63.2505100  23.4785530  27.9271000  61.9015080  23.4495670  27.2406360
  63.3086250  20.6636610  29.0819730  63.8907020  19.9088930  28.9940210
  63.4848020  21.1944050  28.3051210  54.4258320  15.8233360  27.3936680
  54.3315190  15.2054110  26.6687550  53.8455710  16.5499650  27.1666590
  57.1919760  14.3806600  24.4264070  56.7437060  14.4030860  23.5809620
  56.5584960  13.9825620  25.0234370  57.5979310  23.2760930  25.0476510
  58.0167420  24.1193660  24.8752750  56.6787940  23.4132970  24.8183290
  59.9343210  21.0077110  26.4314350  60.0539420  20.4118250  27.1709190
  60.7937210  21.0446800  26.0115650  62.2731110  21.5614300  25.0076860
  61.7466330  22.0856920  24.4042000  62.6162450  22.1941690  25.6386590
  54.6717500  18.9507670  11.4526570  54.4706560  18.0875030  11.8139910
  54.5009550  18.8641030  10.5148170  55.4486730  29.5813940  26.1634240
  54.9107820  30.3060000  25.8442940  55.7020690  29.1044280  25.3731580
  56.7011980  17.5498460  27.6890170  57.2911670  17.2414310  28.3767990
  55.8832220  17.0778210  27.8450070  61.5205410  17.1664270  27.9223190
  60.8320930  16.5045810  27.8573180  62.2411430  16.7202540  28.3671650
  62.1505810  13.7615900  13.9813450  62.4308100  12.9183800  14.3372870
  61.3771540  13.9939010  14.4952200  53.4700300  16.0508290  11.4404450
  53.7726200  16.0575720  10.5323600  54.2094890  15.7006150  11.9372110
  58.3048940  30.8165150  26.4220890  58.2307640  31.7200290  26.7293260
  57.4027780  30.4977050  26.3942960  56.6885230  14.9942910  12.4260650
  56.3407230  14.3166900  11.8463100  56.8898000  14.5332420  13.2404040
  58.8534270  29.9823660  14.0447250  59.7485060  30.3208630  14.0666010
  58.8851900  29.2603070  13.4171530  52.4930430  25.3550710  12.2734250
  52.9305300  25.8980380  12.9291830  52.9778160  24.5297660  12.2830590
  49.7076230  28.1439740  19.7254510  50.0379240  27.2760800  19.4933150
  50.1367230  28.3498260  20.5559470  54.3038150  26.4748750  17.3856480
  54.0033690  26.3513720  18.2860390  54.1975640  25.6157340  16.9772210
  50.1966440  29.0110330  22.4636140  49.7597430  29.1911130  23.2960290
  50.7644120  29.7684950  22.3217860  65.8328620  28.5127330  26.7513450
  65.2330610  28.5719890  26.0077370  65.9622520  27.5732310  26.8810300
  67.0730070  26.2545150  12.0883160  66.2423030  26.3221800  12.5590390
  67.2501900  27.1449270  11.7850020  66.5286530  22.9992630  14.5917360
  67.2905440  23.5689280  14.6977050  66.5440900  22.4319830  15.3625670
  50.0290870  21.5230560  18.8225020  49.3739710  21.2542200  18.1784720
  50.8668820  21.4135040  18.3727000  67.5346500  23.8542730  19.4359290
  67.9055330  23.0710050  19.0295260  68.1748430  24.5431830  19.2576590
  64.5180260  25.2379310  24.8489610  63.7040100  25.6676470  25.1115400
  64.9254460  25.8497720  24.2358660  66.5805700  23.2927000  11.7489880
  66.8554540  24.2005880  11.6209100  66.3916440  23.2289530  12.6851870
  62.9781310  16.3171850  13.0443510  63.3966190  16.1302830  12.2040170
  62.6717370  15.4650900  13.3546440  66.4771040  21.2295990  16.7419310
  66.1014640  20.4623920  16.3100600  65.7474160  21.6118690  17.2294240
  51.0666800  21.9083130  23.3628360  51.4339840  21.8210530  24.2424380
  50.4977620  21.1449680  23.2635220  65.8670660  20.3767510  26.3758830
  65.6356750  20.1480260  25.4756780  66.1275210  21.2967060  26.3303720
  50.6182800  18.8192220  27.2686780  49.7238850  18.7858980  27.6080490
  51.1580350  19.0179010  28.0338030  64.3058730  15.6023940  29.1538530
  65.1828910  15.6107340  29.5372530  64.3179570  14.8654780  28.5430880
  49.2428950  18.7329490  14.7650350  48.3393030  18.9959690  14.5902010
  49.7269570  19.0040660  13.9850310  65.7522000  19.4553480  20.0426550
  66.2759480  18.9616130  19.4116720  66.3381420  19.5903840  20.7874120
  65.9311720  19.5393350  23.5646100  64.9814430  19.5056890  23.6791090
  66.1124730  20.4493460  23.3295870  51.7856160  17.7895030  12.6744730
  52.4947860  17.3678250  12.1892010  51.0696100  17.8570260  12.0428080
  51.4330320  13.8434360  11.7147380  52.1558450  14.3843300  12.0328600
  51.7054840  13.5697780  10.8388920  65.2421970  18.7126830  15.9818960
  65.7381090  18.4797700  16.7667840  65.0438040  17.8738670  15.5656600
  51.1222510  13.0940550  21.6170000  51.7698700  12.5437930  21.1765160
  51.5424350  13.3483700  22.4385810  66.6709130  17.3487780  18.5156640
  66.5608410  17.1943820  19.4538910  67.4316720  16.8208720  18.2732050
  65.0174850  13.2881910  24.9739640  65.6547070  13.9016050  25.3398830
  65.1649740  13.3242570  24.0288870  67.5599400  15.1795700  11.7562780
  68.4848710  15.0476880  11.5481070  67.5375190  15.2588520  12.7099230
  67.6337890  15.9506360  14.3819490  66.8389390  15.8851480  14.9112400
  67.8381170  16.8857000  14.3704840  64.5756310  29.9897910  18.3757880
  65.1715380  29.6682480  17.6992300  64.8334460  29.5169730  19.1671150
  50.8754510  13.2496220  24.3595320  50.5269330  13.7060040  25.1253500
  50.5442210  12.3553350  24.4417750  52.4818880  26.4215820  28.5248510
  52.4388510  26.0508730  29.4062970  52.6129890  27.3593390  28.6650330
  56.1824910  27.9775410  24.1258230  55.9416270  28.2449970  23.2388750
  57.1227550  28.1481140  24.1809090  58.3879330  14.4408100  27.8814740
  58.3268220  15.0329930  28.6310150  59.3279710  14.3334060  27.7365000
  61.0253890  14.0978160  27.5207030  61.6394300  14.4157450  26.8588110
  61.5703450  13.6126750  28.1402890  67.4429070  29.9969790  24.9268870
  66.9487350  30.3938660  24.2096000  66.8342360  29.3719000  25.3206150
  51.5475150  12.7772420  27.6346090  52.0958140  12.5960470  26.8712200
  51.6130460  11.9866530  28.1702400  52.3206910  29.3678070  25.6446290
  51.7267230  29.2362770  26.3836330  52.3130750  28.5316210  25.1788390
  61.7661930  12.6610300  23.8476320  60.8921770  12.9945410  23.6449250
  61.6572680  12.1883480  24.6728190  62.6733910  14.8681170  25.2318040
  62.3447270  14.0532930  24.8519770  63.6216210  14.8250980  25.1083730
  65.1268520  30.6393210  22.2055610  64.6671490  31.3909020  21.8313630
  64.4980980  29.9199680  22.1470410  51.9519140  26.7336450  24.5954330
  51.2253200  26.1141740  24.5280280  52.0128290  27.1277060  23.7252410
  55.5564240  28.9481450  21.3803740  56.0729260  28.3368810  20.8552000
  56.2061620  29.4510230  21.8714750  58.2959740  29.8389940  22.2072720
  58.5837550  29.5844240  21.3305730  58.8082960  29.2867300  22.7978290
  59.5136750  13.5780140  22.7869230  58.7308540  14.0525640  23.0665990
  59.2199680  12.6734970  22.6782410  64.0657820  14.2803240  20.8318320
  64.5065910  14.2248340  19.9839920  63.7965410  15.1961250  20.9028500
  65.9296390  13.9118480  18.8427140  65.8684790  12.9679700  18.6958160
  66.7088420  14.0198570  19.3880600  50.2349140  30.0510840  17.8051090
  50.0671180  29.4181520  18.5032980  49.3683650  30.2570240  17.4545280
  50.8577160  13.8827620  15.3082950  51.6156520  13.9956500  14.7346980
  50.3954330  14.7196820  15.2626380  57.3990970  15.9966890  18.2985260
  56.5865480  15.6223780  17.9581140  57.9032610  15.2411970  18.6006450
  61.9015950  12.6609340  19.5368330  62.5045320  13.2329550  20.0116850
  61.1608940  13.2248780  19.3142230  65.0450550  13.0630900  14.8108610
  65.2401180  13.9614350  15.0776040  64.2580420  12.8317980  15.3041560
  51.8411840  28.7444070  15.2501230  51.3159460  29.1252100  14.5463190
  51.7656420  29.3694840  15.9710940  53.2302310  14.4091670  13.8484920
  53.7595070  13.6221470  13.7192870  53.8630630  15.0882860  14.0820450
  55.4240150  14.1466810  16.9030310  54.7942890  13.4454120  17.0700440
  54.8845290  14.9070940  16.6863470  58.3632100  30.7606040  29.5740920
  59.2899410  30.5250310  29.6176880  58.3482530  31.5878040  29.0926950
  66.5977160  30.3031610  16.5715170  66.7729350  29.6169350  15.9276090
  65.8998730  30.8278660  16.1791840  55.5495710  13.4250790  29.3382800
  55.2679980  13.9284390  28.5743620  55.9315410  12.6272540  28.9724930
  54.4404810  30.6926450  14.1250480  55.1723630  30.4085730  13.5774370
  54.6998480  30.4539730  15.0149860  53.6019600  26.8091180  14.1296810
  52.9728480  27.2776280  14.6782640  53.7167430  25.9640400  14.5643000
  62.1511170  12.8404370  29.9163270  62.0376620  13.1598980  30.8114790
  62.9680910  13.2416880  29.6200550  64.9309660  29.9875900  29.3981960
  65.7234980  29.4925130  29.1907920  65.2242810  30.6666040  30.0057570
  59.1887360  22.6375860   2.1607280  58.4129460  22.1576300   2.4505850
  59.8400290  21.9581510   1.9863440  53.2053190  22.9495670   3.0383040
  52.3738070  22.6944380   3.4379550  53.8134170  23.0206440   3.7740960
  53.1854450  26.9835760   3.2341060  53.4882490  26.0933500   3.0551280
  53.9298040  27.5405980   3.0063310  49.5778150  20.5103210   2.7065130
  50.1494260  19.7425410   2.7068770  49.5779690  20.8091970   1.7971740
  58.6296350  25.3133050   2.1677440  58.5604630  24.3722990   2.0066570
  59.3916210  25.4034460   2.7400010  50.8203020  15.9187570   4.4934060
  50.6405860  15.0213320   4.7736820  50.4183100  16.4659440   5.1681010
  51.4389690  18.4148070   3.1016400  52.1199800  18.6786440   3.7203800
  51.1237740  17.5748940   3.4354410  55.6314260  19.4615430   2.1888990
  56.1392480  19.9596400   2.8294010  56.1627500  18.6850630   2.0128350
  67.7325190  17.6320620   5.8918340  67.0277360  18.0202330   5.3733450
  67.9983110  18.3270910   6.4939270  53.9150360  14.1013990   6.4552410
  53.9168800  14.6186380   5.6498310  53.0854670  13.6244170   6.4322340
  55.1653210  23.7409170   4.6325910  54.8322590  24.3678090   5.2746980
  55.3419890  24.2671050   3.8527580  63.6787120  17.5554250   2.1002250
  62.9742690  17.8439140   2.6805360  64.0399280  18.3654360   1.7401810
  53.5965690  15.8123950   4.4622860  53.9382500  16.6566000   4.1676730
  52.6581500  15.9607690   4.5788200  54.3772310  25.7089970   6.4475090
  54.9946310  26.3841050   6.1659540  53.5165430  26.1177950   6.3562590
  65.2949900  27.1729380   4.3629730  64.6113420  27.8428490   4.3546400
  65.8344190  27.3710030   3.5974590  66.7474040  17.0009040   2.4911460
  65.7998950  17.0348020   2.6226890  67.0724030  17.8147990   2.8760820
  62.8308640  29.0173510   3.0774910  62.8435800  28.6135800   2.2097170
  62.2783860  29.7920800   2.9736340  62.2294080  23.9203350   4.4057520
  62.6462870  23.7063460   3.5710980  62.9533900  24.1776140   4.9766140
  66.1756180  22.3190570   4.4973760  65.3474810  22.3883660   4.0223890
  66.7706660  22.9044880   4.0289590  63.1398190  19.1059890   5.4428630
  62.7269370  19.9313600   5.6968620  62.4074140  18.5204930   5.2504990
  55.7412680  25.5787350   2.4686510  55.4440970  24.9732820   1.7894290
  56.6912500  25.6164660   2.3575870  53.9859600  18.6663000   4.0846340
  54.5374190  18.7758340   3.3099590  54.5003110  19.0400600   4.8001570
  63.8298290  29.1519220   6.1309610  63.3528850  29.9591410   5.9382220
  63.1460080  28.4997550   6.2835820  54.8331110  25.3169040   9.1194310
  53.9359640  25.5409010   9.3667710  54.8583980  25.4403980   8.1705710
  53.6602330  22.1882360   7.6951680  53.5210100  23.0605160   8.0639080
  52.7783690  21.8455170   7.5499620  55.4582680  28.1304060   9.9036830
  55.4298110  28.5347010   9.0365260  55.2947650  27.2014420   9.7408430
  67.4097500  28.9131160  11.2001000  67.8857220  29.3914050  11.8790080
  68.0304660  28.8448650  10.4746500  49.6120980  23.9579910   3.6122590
  49.6901400  24.0928680   2.6678310  50.2262660  23.2495800   3.8050710
  66.8130750  26.1044010   8.3601010  66.9393810  25.8655890   7.4418190
  66.8552130  25.2728550   8.8323090  60.6747490  29.8072010   6.9295820
  61.1892160  29.7180020   7.7318250  59.8316570  30.1531710   7.2223730
  66.6654760  18.1576470   9.3250750  66.0499030  18.6656140   8.7966210
  66.3451180  17.2574800   9.2676690  49.6680500  24.9994080   6.1517050
  49.8311540  24.5299440   5.3336420  50.1332950  24.4917640   6.8165890
  58.7269080  16.9968360   6.7912940  58.2648450  17.2051380   7.6032880
  58.3247190  16.1827710   6.4883610  63.7273590  18.2177310   7.9209600
  62.8767180  17.9183060   8.2418670  63.5675380  18.4619320   7.0093420
  60.8223300  19.7179060  10.0208390  61.1476710  18.8842810   9.6810620
  61.6103630  20.2407580  10.1686720  56.4775170  14.6747170   3.0467220
  56.7747500  15.5810000   2.9659240  57.0260730  14.1865950   2.4326790
  56.6712700  20.1518990   9.5819140  56.5756300  19.2113720   9.4319540
  57.5144680  20.3734060   9.1867210  51.8023240  16.5632660   7.7352920
  51.4086630  17.4107870   7.9425700  51.1141640  15.9259030   7.9261560
  58.3768290  16.6467630  10.8049660  57.6866610  16.4539830  11.4395750
  59.1200590  16.9302270  11.3373960  49.1040290  14.4861120   1.7683000
  48.8153340  15.0563980   2.4807980  49.8486050  14.0065570   2.1314230
  60.6531260  20.4866070   3.6403580  59.9212380  20.9952880   3.9893680
  60.2555600  19.6696050   3.3392360  61.1157170  15.9399750   3.0526520
  61.1329910  16.3908400   3.8968370  60.8672750  15.0405390   3.2659960
  64.5427920  13.3531930   8.8912900  64.8673690  12.6221590   9.4170880
  64.5784430  13.0345570   7.9893890  51.2419480  24.3745510   8.3112860
  50.8574270  23.7339180   8.9095820  51.5531670  25.0781630   8.8807590
  57.3916620  21.2222050   3.7921480  57.7586750  20.7480620   4.5382820
  57.2021680  22.0963620   4.1329820  55.1815990  20.2630690   6.1105690
  54.8773060  21.1422670   6.3356050  56.1362450  20.3230480   6.1463130
  64.4685760  23.4657040   2.4998930  65.1884880  23.9612330   2.1095040
  64.2667580  22.7874930   1.8552800  59.8504560  23.5366100   8.3867930
  59.7841870  22.6161770   8.1325520  59.2209700  23.6341540   9.1012570
  51.2379720  21.1033430   7.2577050  50.8794660  21.7687280   7.8450390
  50.9434280  20.2716980   7.6289670  54.4392840  21.5617670  10.1416600
  54.1392980  21.7074850   9.2444420  55.2104080  21.0022960  10.0489990
  59.7821290  26.3586670   8.1371730  59.7965830  25.4267630   7.9190640
  59.0746390  26.4446430   8.7761500  65.9932500  22.9994010   7.4840310
  65.2680690  23.5922790   7.2869700  66.5207960  22.9917550   6.6853680
  59.2155190  28.0004240   5.2312230  59.8597410  28.2063620   5.9085650
  59.5784630  27.2392640   4.7783080  60.4887270  26.0036590   3.9489680
  61.1309500  25.3029750   4.0621850  61.0136620  26.7835030   3.7686570
  62.2624890  26.8031490   7.1525740  62.5981130  27.3898180   7.8303660
  61.3425230  26.6724200   7.3823530  49.8128290  14.5926670   7.9349150
  49.0986810  14.7923590   8.5401760  50.2323330  13.8166240   8.3063950
  50.1000880  28.5806930   8.9215680  50.2092000  27.6401670   8.7811070
  49.4481440  28.8461680   8.2729410  58.0913470  26.8522820  10.3213800
  57.7710340  26.1332060  10.8659490  57.4171830  27.5277890  10.3949860
  61.3067070  17.0848980   5.6850600  61.6747890  16.2644190   6.0130170
  60.4465270  17.1450870   6.1006250  58.2669060  19.7388570   5.9088570
  58.7654310  20.2134390   6.5740420  58.4092010  18.8152090   6.1158600
  65.4735920  15.9556530   6.7516960  64.9709520  16.6961930   7.0910770
  66.2892580  16.3440530   6.4353750  52.2459320  29.6475840  10.7335290
  53.0472050  29.9687890  11.1470690  51.7311140  29.2871420  11.4555200
  61.0823950  25.7555710  10.6810700  60.4762110  25.7787310   9.9406450
  60.7778060  25.0238750  11.2177950  62.5124320  29.4836000   9.2920110
  63.4646070  29.3994020   9.2420350  62.3652540  30.1477710   9.9653900
  49.9657130  22.1349300   9.6771340  50.4696150  21.5556580  10.2487570
  49.2264550  22.4189530  10.2147710  57.0195070  23.5420290   9.2106860
  56.2540740  24.1105290   9.1261530  57.2011030  23.2496500   8.3175090
  64.1618420  25.2725620   9.7681880  64.9027890  25.6101380   9.2649340
  63.3991100  25.4417680   9.2151650  51.9980210  20.2778890  10.5721410
  52.0385550  19.9792760  11.4806640  52.8525710  20.6786500  10.4128930
  53.9386020  18.8570990   8.5395900  53.4082480  18.3661940   7.9119240
  54.6074090  19.2855190   8.0053830  62.8364080  23.3240450   8.3037090
  63.2505100  23.4785530   9.1527510  61.9015080  23.4495670   8.4662870
  63.3086250  20.6636610  10.3076240  63.8907020  19.9088930  10.2196720
  63.4848020  21.1944050   9.5307720  54.4258320  15.8233360   8.6193190
  54.3315190  15.2054110   7.8944060  53.8455710  16.5499650   8.3923100
  57.1919760  14.3806600   5.6520580  56.7437060  14.4030860   4.8066130
  56.5584960  13.9825620   6.2490880  57.5979310  23.2760930   6.2733020
  58.0167420  24.1193660   6.1009260  56.6787940  23.4132970   6.0439800
  59.9343210  21.0077110   7.6570860  60.0539420  20.4118250   8.3965700
  60.7937210  21.0446800   7.2372160  62.2731110  21.5614300   6.2333370
  61.7466330  22.0856920   5.6298510  62.6162450  22.1941690   6.8643100
  55.4486730  29.5813940   7.3890750  54.9107820  30.3060000   7.0699450
  55.7020690  29.1044280   6.5988090  56.7011980  17.5498460   8.9146680
  57.2911670  17.2414310   9.6024500  55.8832220  17.0778210   9.0706580
  61.5205410  17.1664270   9.1479700  60.8320930  16.5045810   9.0829690
  62.2411430  16.7202540   9.5928160  58.3048940  30.8165150   7.6477400
  58.2307640  31.7200290   7.9549770  57.4027780  30.4977050   7.6199470
  50.1966440  29.0110330   3.6892650  49.7597430  29.1911130   4.5216800
  50.7644120  29.7684950   3.5474370  65.8328620  28.5127330   7.9769960
  65.2330610  28.5719890   7.2333880  65.9622520  27.5732310   8.1066810
  64.5180260  25.2379310   6.0746120  63.7040100  25.6676470   6.3371910
  64.9254460  25.8497720   5.4615170  51.0666800  21.9083130   4.5884870
  51.4339840  21.8210530   5.4680890  50.4977620  21.1449680   4.4891730
  65.8670660  20.3767510   7.6015340  65.6356750  20.1480260   6.7013290
  66.1275210  21.2967060   7.5560230  50.6182800  18.8192220   8.4943290
  49.7238850  18.7858980   8.8337000  51.1580350  19.0179010   9.2594540
  64.3058730  15.6023940  10.3795040  65.1828910  15.6107340  10.7629040
  64.3179570  14.8654780   9.7687390  65.9311720  19.5393350   4.7902610
  64.9814430  19.5056890   4.9047600  66.1124730  20.4493460   4.5552380
  51.1222510  13.0940550   2.8426510  51.7698700  12.5437930   2.4021670
  51.5424350  13.3483700   3.6642320  65.0174850  13.2881910   6.1996150
  65.6547070  13.9016050   6.5655340  65.1649740  13.3242570   5.2545380
  50.8754510  13.2496220   5.5851830  50.5269330  13.7060040   6.3510010
  50.5442210  12.3553350   5.6674260  52.4818880  26.4215820   9.7505020
  52.4388510  26.0508730  10.6319480  52.6129890  27.3593390   9.8906840
  56.1824910  27.9775410   5.3514740  55.9416270  28.2449970   4.4645260
  57.1227550  28.1481140   5.4065600  58.3879330  14.4408100   9.1071250
  58.3268220  15.0329930   9.8566660  59.3279710  14.3334060   8.9621510
  61.0253890  14.0978160   8.7463540  61.6394300  14.4157450   8.0844620
  61.5703450  13.6126750   9.3659400  67.4429070  29.9969790   6.1525380
  66.9487350  30.3938660   5.4352510  66.8342360  29.3719000   6.5462660
  51.5475150  12.7772420   8.8602600  52.0958140  12.5960470   8.0968710
  51.6130460  11.9866530   9.3958910  52.3206910  29.3678070   6.8702800
  51.7267230  29.2362770   7.6092840  52.3130750  28.5316210   6.4044900
  61.7661930  12.6610300   5.0732830  60.8921770  12.9945410   4.8705760
  61.6572680  12.1883480   5.8984700  62.6733910  14.8681170   6.4574550
  62.3447270  14.0532930   6.0776280  63.6216210  14.8250980   6.3340240
  65.1268520  30.6393210   3.4312120  64.6671490  31.3909020   3.0570140
  64.4980980  29.9199680   3.3726920  51.9519140  26.7336450   5.8210840
  51.2253200  26.1141740   5.7536790  52.0128290  27.1277060   4.9508920
  55.5564240  28.9481450   2.6060250  56.0729260  28.3368810   2.0808510
  56.2061620  29.4510230   3.0971260  58.2959740  29.8389940   3.4329230
  58.5837550  29.5844240   2.5562240  58.8082960  29.2867300   4.0234800
  59.5136750  13.5780140   4.0125740  58.7308540  14.0525640   4.2922500
  59.2199680  12.6734970   3.9038920  58.3632100  30.7606040  10.7997430
  59.2899410  30.5250310  10.8433390  58.3482530  31.5878040  10.3183460
  55.5495710  13.4250790  10.5639310  55.2679980  13.9284390   9.8000130
  55.9315410  12.6272540  10.1981440  62.1511170  12.8404370  11.1419780
  62.0376620  13.1598980  12.0371300  62.9680910  13.2416880  10.8457060
  64.9309660  29.9875900  10.6238470  65.7234980  29.4925130  10.4164430
  65.2242810  30.6666040  11.2314080  63.2094790   8.2692560 151.1354330
  62.7476320   7.4979800 151.4641500  64.0220340   8.2958630 151.6406780
  59.4358100  10.5550570 150.7558320  58.8169540  11.0108070 150.1852760
  60.2909880  10.7102030 150.3548020  60.3021450   5.4389810 148.1490230
  59.6838720   5.9039260 147.5852950  60.8144700   6.1317290 148.5659740
  49.6704650   6.1246340 145.5229860  49.2932630   6.6133440 144.7914760
  49.9277720   6.7971620 146.1536390  64.1254060   6.9646240 148.3613000
  64.0150390   6.0220570 148.4862420  64.1222310   7.3261880 149.2475760
  59.6674340   2.5911560 147.7175490  58.7403620   2.5248940 147.9463960
  59.8199160   3.5291690 147.6030730  63.6971630   4.1531860 148.2210740
  63.0784050   3.8151410 147.5737040  63.6796080   3.5091620 148.9289930
  55.2730980   3.1176300 150.4995220  54.8687980   2.4053550 150.0041120
  55.3594100   2.7729540 151.3883260  61.8736330   3.3918670 145.2283490
  62.3129610   2.5541100 145.0821310  62.5864750   4.0248070 145.3147630
  59.9831710   8.3314740 149.1964730  60.4227620   9.0739070 148.7820120
  59.9218600   8.5741310 150.1203690  50.8568610   6.8836610 150.2176690
  50.4496690   7.0251200 149.3630290  51.7481620   6.5996770 150.0147900
  62.6501890  11.3183860 146.5527740  62.4903030  11.0286800 147.4509570
  62.4848600  10.5423990 146.0172970  55.1290270  11.0982390 148.3299360
  54.9532750  10.1817930 148.1167160  54.2746010  11.4569680 148.5697160
  62.3528020   8.8271420 145.1125740  61.6593180   8.8248710 144.4528020
  63.0950880   8.4030740 144.6819910  61.9177950  10.4534130 149.1874230
  62.3734900   9.6723510 149.5012850  62.2570470  11.1640950 149.7315410
  53.7097780   5.6948190 146.9020460  52.9360040   5.1545810 146.7419180
  54.4392410   5.1754800 146.5638220  53.7535180   5.3628570 150.5399270
  54.2713850   4.5596830 150.4856160  53.3019200   5.3007710 151.3816100
  58.6404680   6.6294850 145.8126570  58.9820380   7.3737080 145.3169890
  57.8117390   6.9425970 146.1751400  64.9158360   1.7683000 144.6018260
  64.8322080   2.1997220 143.7514700  65.6352550   2.2281350 145.0345080
  65.9445610   8.6225260 147.3300390  65.3021770   7.9680880 147.6044110
  65.5576270   9.0280350 146.5541060  61.5232090   5.9510690 151.1772080
  61.8755910   5.3538820 150.5173450  60.6394420   5.6254920 151.3480330
  57.6095370   6.7108380 148.5842490  58.2966500   7.2577590 148.9650080
  56.8227790   7.2549110 148.6192100  49.7487770   2.3281200 144.0759570
  50.6182620   2.6106000 144.3595490  49.2578090   3.1417070 143.9608380
  56.9122580   3.7154410 148.1967850  57.3685360   4.5259660 148.4228040
  56.5610790   3.3977550 149.0286340  64.3342990   7.5141720 143.8676740
  64.1080570   6.7972160 144.4601380  63.9439190   7.2654160 143.0298490
  50.1159020  11.5408580 144.6421200  50.4756660  12.1397920 143.9878470
  49.9751360  12.0868470 145.4156230  63.9159240   5.4313660 145.5290900
  63.6280940   5.8926350 146.3168780  64.7111410   4.9711430 145.7975120
  56.1327640   8.9239780 145.4594870  56.1237740   9.6569470 144.8439380
  55.2126000   8.6771360 145.5521830  51.7334280   4.1454670 146.2041630
  51.1262230   4.8853570 146.2136930  52.2083630   4.2354030 145.3779830
  59.1187240   8.9868020 144.1220060  59.2199220   8.7832010 143.1922040
  58.2188980   8.7326300 144.3267840  57.7605350  11.5054340 148.8167730
  58.0146850  11.4675730 147.8947100  56.8117830  11.3787670 148.8095980
  53.7439570   4.1065820 143.9530200  54.5102840   3.9947180 144.5155630
  53.8214260   3.4103790 143.3006970  53.2401040  11.6886280 151.7397630
  53.9763520  11.1401740 152.0106200  53.6241960  12.5542290 151.6003620
  50.1246520   7.7559850 147.6139140  49.1986300   7.9980990 147.6044550
  50.5902950   8.5834110 147.4923890  56.3503350  10.8616590 143.5623200
  57.1431960  11.1505420 143.1104990  55.8307700  10.4308760 142.8835680
  65.4033520  10.0886720 144.9859940  65.1175030   9.6751860 144.1714120
  65.2053070  11.0174430 144.8660460  56.8680750   6.0820000 143.4265550
  56.7631390   5.4672350 144.1526930  56.7004970   5.5585890 142.6428560
  60.1083480   5.1440030 144.0307540  59.5593580   5.5909330 144.6750280
  60.7302740   4.6389280 144.5545210  55.7758600   4.1030950 145.9272840
  56.1975020   3.9370820 146.7704230  55.9009440   3.2931180 145.4327980
  58.2886240   3.1268560 143.1749940  58.8091900   2.4117580 142.8091090
  58.9354640   3.7654430 143.4750450  58.8534270  11.2080170 145.4651680
  59.7485060  11.5465140 145.4870440  58.8851900  10.4859580 144.8375960
  52.4930430   6.5807220 143.6938680  52.9305300   7.1236890 144.3496260
  52.9778160   5.7554170 143.7035020  49.7076230   9.3696250 151.1458940
  50.0379240   8.5017310 150.9137580  50.1367230   9.5754770 151.9763900
  54.3038150   7.7005260 148.8060910  54.0033690   7.5770230 149.7064820
  54.1975640   6.8413850 148.3976640  67.0730070   7.4801660 143.5087590
  66.2423030   7.5478310 143.9794820  67.2501900   8.3705780 143.2054450
  66.5286530   4.2249140 146.0121790  67.2905440   4.7945790 146.1181480
  66.5440900   3.6576340 146.7830100  50.0290870   2.7487070 150.2429450
  49.3739710   2.4798710 149.5989150  50.8668820   2.6391550 149.7931430
  67.5346500   5.0799240 150.8563720  67.9055330   4.2966560 150.4499690
  68.1748430   5.7688340 150.6781020  66.5805700   4.5183510 143.1694310
  66.8554540   5.4262390 143.0413530  66.3916440   4.4546040 144.1056300
  66.4771040   2.4552500 148.1623740  66.1014640   1.6880430 147.7305030
  65.7474160   2.8375200 148.6498670  64.5756310  11.2154420 149.7962310
  65.1715380  10.8938990 149.1196730  64.8334460  10.7426240 150.5875580
  50.2349140  11.2767350 149.2255520  50.0671180  10.6438030 149.9237410
  49.3683650  11.4826750 148.8749710  51.8411840   9.9700580 146.6705660
  51.3159460  10.3508610 145.9667620  51.7656420  10.5951350 147.3915370
  66.5977160  11.5288120 147.9919600  66.7729350  10.8425860 147.3480520
  65.8998730  12.0535170 147.5996270  54.4404810  11.9182960 145.5454910
  55.1723630  11.6342240 144.9978800  54.6998480  11.6796240 146.4354290
  53.6019600   8.0347690 145.5501240  52.9728480   8.5032790 146.0987070
  53.7167430   7.1896910 145.9847430  59.1887360   3.8632370 133.5811710
  58.4129460   3.3832810 133.8710280  59.8400290   3.1838020 133.4067870
  53.2053190   4.1752180 134.4587470  52.3738070   3.9200890 134.8583980
  53.8134170   4.2462950 135.1945390  63.2094790   8.2692560 132.3610840
  62.7476320   7.4979800 132.6898010  64.0220340   8.2958630 132.8663290
  53.1854450   8.2092270 134.6545490  53.4882490   7.3190010 134.4755710
  53.9298040   8.7662490 134.4267740  59.4358100  10.5550570 131.9814830
  58.8169540  11.0108070 131.4109270  60.2909880  10.7102030 131.5804530
  58.6296350   6.5389560 133.5881870  58.5604630   5.5979500 133.4271000
  59.3916210   6.6290970 134.1604440  60.3021450   5.4389810 129.3746740
  59.6838720   5.9039260 128.8109460  60.8144700   6.1317290 129.7916250
  55.1653210   4.9665680 136.0530340  54.8322590   5.5934600 136.6951410
  55.3419890   5.4927560 135.2732010  54.3772310   6.9346480 137.8679520
  54.9946310   7.6097560 137.5863970  53.5165430   7.3434460 137.7767020
  49.6704650   6.1246340 126.7486370  49.2932630   6.6133440 126.0171270
  49.9277720   6.7971620 127.3792900  65.2949900   8.3985890 135.7834160
  64.6113420   9.0685000 135.7750830  65.8344190   8.5966540 135.0179020
  62.8308640  10.2430020 134.4979340  62.8435800   9.8392310 133.6301600
  62.2783860  11.0177310 134.3940770  64.1254060   6.9646240 129.5869510
  64.0150390   6.0220570 129.7118930  64.1222310   7.3261880 130.4732270
  62.2294080   5.1459860 135.8261950  62.6462870   4.9319970 134.9915410
  62.9533900   5.4032650 136.3970570  59.6674340   2.5911560 128.9432000
  58.7403620   2.5248940 129.1720470  59.8199160   3.5291690 128.8287240
  66.1756180   3.5447080 135.9178190  65.3474810   3.6140170 135.4428320
  66.7706660   4.1301390 135.4494020  63.6971630   4.1531860 129.4467250
  63.0784050   3.8151410 128.7993550  63.6796080   3.5091620 130.1546440
  55.2730980   3.1176300 131.7251730  54.8687980   2.4053550 131.2297630
  55.3594100   2.7729540 132.6139770  55.7412680   6.8043860 133.8890940
  55.4440970   6.1989330 133.2098720  56.6912500   6.8421170 133.7780300
  63.8298290  10.3775730 137.5514040  63.3528850  11.1847920 137.3586650
  63.1460080   9.7254060 137.7040250  54.8331110   6.5425550 140.5398740
  53.9359640   6.7665520 140.7872140  54.8583980   6.6660490 139.5910140
  61.8736330   3.3918670 126.4540000  62.3129610   2.5541100 126.3077820
  62.5864750   4.0248070 126.5404140  53.6602330   3.4138870 139.1156110
  53.5210100   4.2861670 139.4843510  52.7783690   3.0711680 138.9704050
  59.9831710   8.3314740 130.4221240  60.4227620   9.0739070 130.0076630
  59.9218600   8.5741310 131.3460200  55.4582680   9.3560570 141.3241260
  55.4298110   9.7603520 140.4569690  55.2947650   8.4270930 141.1612860
  67.4097500  10.1387670 142.6205430  67.8857220  10.6170560 143.2994510
  68.0304660  10.0705160 141.8950930  49.6120980   5.1836420 135.0327020
  49.6901400   5.3185190 134.0882740  50.2262660   4.4752310 135.2255140
  50.8568610   6.8836610 131.4433200  50.4496690   7.0251200 130.5886800
  51.7481620   6.5996770 131.2404410  66.8130750   7.3300520 139.7805440
  66.9393810   7.0912400 138.8622620  66.8552130   6.4985060 140.2527520
  60.6747490  11.0328520 138.3500250  61.1892160  10.9436530 139.1522680
  59.8316570  11.3788220 138.6428160  62.6501890  11.3183860 127.7784250
  62.4903030  11.0286800 128.6766080  62.4848600  10.5423990 127.2429480
  55.1290270  11.0982390 129.5555870  54.9532750  10.1817930 129.3423670
  54.2746010  11.4569680 129.7953670  62.3528020   8.8271420 126.3382250
  61.6593180   8.8248710 125.6784530  63.0950880   8.4030740 125.9076420
  61.9177950  10.4534130 130.4130740  62.3734900   9.6723510 130.7269360
  62.2570470  11.1640950 130.9571920  49.6680500   6.2250590 137.5721480
  49.8311540   5.7555950 136.7540850  50.1332950   5.7174150 138.2370320
  51.2419480   5.6002020 139.7317290  50.8574270   4.9595690 140.3300250
  51.5531670   6.3038140 140.3012020  57.3916620   2.4478560 135.2125910
  57.7586750   1.9737130 135.9587250  57.2021680   3.3220130 135.5534250
  53.7097780   5.6948190 128.1276970  52.9360040   5.1545810 127.9675690
  54.4392410   5.1754800 127.7894730  64.4685760   4.6913550 133.9203360
  65.1884880   5.1868840 133.5299470  64.2667580   4.0131440 133.2757230
  59.8504560   4.7622610 139.8072360  59.7841870   3.8418280 139.5529950
  59.2209700   4.8598050 140.5217000  53.7535180   5.3628570 131.7655780
  54.2713850   4.5596830 131.7112670  53.3019200   5.3007710 132.6072610
  58.6404680   6.6294850 127.0383080  58.9820380   7.3737080 126.5426400
  57.8117390   6.9425970 127.4007910  54.4392840   2.7874180 141.5621030
  54.1392980   2.9331360 140.6648850  55.2104080   2.2279470 141.4694420
  59.7821290   7.5843180 139.5576160  59.7965830   6.6524140 139.3395070
  59.0746390   7.6702940 140.1965930  64.9158360   1.7683000 125.8274770
  64.8322080   2.1997220 124.9771210  65.6352550   2.2281350 126.2601590
  65.9932500   4.2250520 138.9044740  65.2680690   4.8179300 138.7074130
  66.5207960   4.2174060 138.1058110  65.9445610   8.6225260 128.5556900
  65.3021770   7.9680880 128.8300620  65.5576270   9.0280350 127.7797570
  61.5232090   5.9510690 132.4028590  61.8755910   5.3538820 131.7429960
  60.6394420   5.6254920 132.5736840  57.6095370   6.7108380 129.8099000
  58.2966500   7.2577590 130.1906590  56.8227790   7.2549110 129.8448610
  49.7487770   2.3281200 125.3016080  50.6182620   2.6106000 125.5852000
  49.2578090   3.1417070 125.1864890  56.9122580   3.7154410 129.4224360
  57.3685360   4.5259660 129.6484550  56.5610790   3.3977550 130.2542850
  59.2155190   9.2260750 136.6516660  59.8597410   9.4320130 137.3290080
  59.5784630   8.4649150 136.1987510  60.4887270   7.2293100 135.3694110
  61.1309500   6.5286260 135.4826280  61.0136620   8.0091540 135.1891000
  64.3342990   7.5141720 125.0933250  64.1080570   6.7972160 125.6857890
  63.9439190   7.2654160 124.2555000  62.2624890   8.0288000 138.5730170
  62.5981130   8.6154690 139.2508090  61.3425230   7.8980710 138.8027960
  50.1159020  11.5408580 125.8677710  50.4756660  12.1397920 125.2134980
  49.9751360  12.0868470 126.6412740  63.9159240   5.4313660 126.7547410
  63.6280940   5.8926350 127.5425290  64.7111410   4.9711430 127.0231630
  50.1000880   9.8063440 140.3420110  50.2092000   8.8658180 140.2015500
  49.4481440  10.0718190 139.6933840  58.0913470   8.0779330 141.7418230
  57.7710340   7.3588570 142.2863920  57.4171830   8.7534400 141.8154290
  56.1327640   8.9239780 126.6851380  56.1237740   9.6569470 126.0695890
  55.2126000   8.6771360 126.7778340  51.7334280   4.1454670 127.4298140
  51.1262230   4.8853570 127.4393440  52.2083630   4.2354030 126.6036340
  59.1187240   8.9868020 125.3476570  59.2199220   8.7832010 124.4178550
  58.2188980   8.7326300 125.5524350  57.7605350  11.5054340 130.0424240
  58.0146850  11.4675730 129.1203610  56.8117830  11.3787670 130.0352490
  53.7439570   4.1065820 125.1786710  54.5102840   3.9947180 125.7412140
  53.8214260   3.4103790 124.5263480  65.7683510   9.5955070 133.2937010
  65.8930930  10.4186240 133.7660820  66.6349070   9.3845800 132.9461160
  53.2401040  11.6886280 132.9654140  53.9763520  11.1401740 133.2362710
  53.6241960  12.5542290 132.8260130  50.1246520   7.7559850 128.8395650
  49.1986300   7.9980990 128.8301060  50.5902950   8.5834110 128.7180400
  52.2459320  10.8732350 142.1539720  53.0472050  11.1944400 142.5675120
  51.7311140  10.5127930 142.8759630  56.3503350  10.8616590 124.7879710
  57.1431960  11.1505420 124.3361500  55.8307700  10.4308760 124.1092190
  61.0823950   6.9812220 142.1015130  60.4762110   7.0043820 141.3610880
  60.7778060   6.2495260 142.6382380  62.5124320  10.7092510 140.7124540
  63.4646070  10.6250530 140.6624780  62.3652540  11.3734220 141.3858330
  65.4033520  10.0886720 126.2116450  65.1175030   9.6751860 125.3970630
  65.2053070  11.0174430 126.0916970  49.9657130   3.3605810 141.0975770
  50.4696150   2.7813090 141.6692000  49.2264550   3.6446040 141.6352140
  56.8680750   6.0820000 124.6522060  56.7631390   5.4672350 125.3783440
  56.7004970   5.5585890 123.8685070  57.0195070   4.7676800 140.6311290
  56.2540740   5.3361800 140.5465960  57.2011030   4.4753010 139.7379520
  60.1083480   5.1440030 125.2564050  59.5593580   5.5909330 125.9006790
  60.7302740   4.6389280 125.7801720  64.1618420   6.4982130 141.1886310
  64.9027890   6.8357890 140.6853770  63.3991100   6.6674190 140.6356080
  55.7758600   4.1030950 127.1529350  56.1975020   3.9370820 127.9960740
  55.9009440   3.2931180 126.6584490  58.2886240   3.1268560 124.4006450
  58.8091900   2.4117580 124.0347600  58.9354640   3.7654430 124.7006960
  62.8364080   4.5496960 139.7241520  63.2505100   4.7042040 140.5731940
  61.9015080   4.6752180 139.8867300  57.5979310   4.5017440 137.6937450
  58.0167420   5.3450170 137.5213690  56.6787940   4.6389480 137.4644230
  62.2731110   2.7870810 137.6537800  61.7466330   3.3113430 137.0502940
  62.6162450   3.4198200 138.2847530  55.4486730  10.8070450 138.8095180
  54.9107820  11.5316510 138.4903880  55.7020690  10.3300790 138.0192520
  58.3048940  12.0421660 139.0681830  58.2307640  12.9456800 139.3754200
  57.4027780  11.7233560 139.0403900  58.8534270  11.2080170 126.6908190
  59.7485060  11.5465140 126.7126950  58.8851900  10.4859580 126.0632470
  52.4930430   6.5807220 124.9195190  52.9305300   7.1236890 125.5752770
  52.9778160   5.7554170 124.9291530  49.7076230   9.3696250 132.3715450
  50.0379240   8.5017310 132.1394090  50.1367230   9.5754770 133.2020410
  54.3038150   7.7005260 130.0317420  54.0033690   7.5770230 130.9321330
  54.1975640   6.8413850 129.6233150  50.1966440  10.2366840 135.1097080
  49.7597430  10.4167640 135.9421230  50.7644120  10.9941460 134.9678800
  65.8328620   9.7383840 139.3974390  65.2330610   9.7976400 138.6538310
  65.9622520   8.7988820 139.5271240  67.0730070   7.4801660 124.7344100
  66.2423030   7.5478310 125.2051330  67.2501900   8.3705780 124.4310960
  66.5286530   4.2249140 127.2378300  67.2905440   4.7945790 127.3437990
  66.5440900   3.6576340 128.0086610  50.0290870   2.7487070 131.4685960
  49.3739710   2.4798710 130.8245660  50.8668820   2.6391550 131.0187940
  67.5346500   5.0799240 132.0820230  67.9055330   4.2966560 131.6756200
  68.1748430   5.7688340 131.9037530  64.5180260   6.4635820 137.4950550
  63.7040100   6.8932980 137.7576340  64.9254460   7.0754230 136.8819600
  66.5805700   4.5183510 124.3950820  66.8554540   5.4262390 124.2670040
  66.3916440   4.4546040 125.3312810  66.4771040   2.4552500 129.3880250
  66.1014640   1.6880430 128.9561540  65.7474160   2.8375200 129.8755180
  51.0666800   3.1339640 136.0089300  51.4339840   3.0467040 136.8885320
  50.4977620   2.3706190 135.9096160  64.5756310  11.2154420 131.0218820
  65.1715380  10.8938990 130.3453240  64.8334460  10.7426240 131.8132090
  52.4818880   7.6472330 141.1709450  52.4388510   7.2765240 142.0523910
  52.6129890   8.5849900 141.3111270  56.1824910   9.2031920 136.7719170
  55.9416270   9.4706480 135.8849690  57.1227550   9.3737650 136.8270030
  67.4429070  11.2226300 137.5729810  66.9487350  11.6195170 136.8556940
  66.8342360  10.5975510 137.9667090  52.3206910  10.5934580 138.2907230
  51.7267230  10.4619280 139.0297270  52.3130750   9.7572720 137.8249330
  65.1268520  11.8649720 134.8516550  64.6671490  12.6165530 134.4774570
  64.4980980  11.1456190 134.7931350  51.9519140   7.9592960 137.2415270
  51.2253200   7.3398250 137.1741220  52.0128290   8.3533570 136.3713350
  55.5564240  10.1737960 134.0264680  56.0729260   9.5625320 133.5012940
  56.2061620  10.6766740 134.5175690  58.2959740  11.0646450 134.8533660
  58.5837550  10.8100750 133.9766670  58.8082960  10.5123810 135.4439230
  50.2349140  11.2767350 130.4512030  50.0671180  10.6438030 131.1493920
  49.3683650  11.4826750 130.1006220  51.8411840   9.9700580 127.8962170
  51.3159460  10.3508610 127.1924130  51.7656420  10.5951350 128.6171880
  58.3632100  11.9862550 142.2201860  59.2899410  11.7506820 142.2637820
  58.3482530  12.8134550 141.7387890  66.5977160  11.5288120 129.2176110
  66.7729350  10.8425860 128.5737030  65.8998730  12.0535170 128.8252780
  54.4404810  11.9182960 126.7711420  55.1723630  11.6342240 126.2235310
  54.6998480  11.6796240 127.6610800  53.6019600   8.0347690 126.7757750
  52.9728480   8.5032790 127.3243580  53.7167430   7.1896910 127.2103940
  64.9309660  11.2132410 142.0442900  65.7234980  10.7181640 141.8368860
  65.2242810  11.8922550 142.6518510  59.1887360   3.8632370 114.8068220
  58.4129460   3.3832810 115.0966790  59.8400290   3.1838020 114.6324380
  53.2053190   4.1752180 115.6843980  52.3738070   3.9200890 116.0840490
  53.8134170   4.2462950 116.4201900  63.2094790   8.2692560 113.5867350
  62.7476320   7.4979800 113.9154520  64.0220340   8.2958630 114.0919800
  53.1854450   8.2092270 115.8802000  53.4882490   7.3190010 115.7012220
  53.9298040   8.7662490 115.6524250  59.4358100  10.5550570 113.2071340
  58.8169540  11.0108070 112.6365780  60.2909880  10.7102030 112.8061040
  58.6296350   6.5389560 114.8138380  58.5604630   5.5979500 114.6527510
  59.3916210   6.6290970 115.3860950  60.3021450   5.4389810 110.6003250
  59.6838720   5.9039260 110.0365970  60.8144700   6.1317290 111.0172760
  55.1653210   4.9665680 117.2786850  54.8322590   5.5934600 117.9207920
  55.3419890   5.4927560 116.4988520  54.3772310   6.9346480 119.0936030
  54.9946310   7.6097560 118.8120480  53.5165430   7.3434460 119.0023530
  49.6704650   6.1246340 107.9742880  49.2932630   6.6133440 107.2427780
  49.9277720   6.7971620 108.6049410  65.2949900   8.3985890 117.0090670
  64.6113420   9.0685000 117.0007340  65.8344190   8.5966540 116.2435530
  62.8308640  10.2430020 115.7235850  62.8435800   9.8392310 114.8558110
  62.2783860  11.0177310 115.6197280  64.1254060   6.9646240 110.8126020
  64.0150390   6.0220570 110.9375440  64.1222310   7.3261880 111.6988780
  62.2294080   5.1459860 117.0518460  62.6462870   4.9319970 116.2171920
  62.9533900   5.4032650 117.6227080  59.6674340   2.5911560 110.1688510
  58.7403620   2.5248940 110.3976980  59.8199160   3.5291690 110.0543750
  66.1756180   3.5447080 117.1434700  65.3474810   3.6140170 116.6684830
  66.7706660   4.1301390 116.6750530  63.6971630   4.1531860 110.6723760
  63.0784050   3.8151410 110.0250060  63.6796080   3.5091620 111.3802950
  55.2730980   3.1176300 112.9508240  54.8687980   2.4053550 112.4554140
  55.3594100   2.7729540 113.8396280  55.7412680   6.8043860 115.1147450
  55.4440970   6.1989330 114.4355230  56.6912500   6.8421170 115.0036810
  63.8298290  10.3775730 118.7770550  63.3528850  11.1847920 118.5843160
  63.1460080   9.7254060 118.9296760  54.8331110   6.5425550 121.7655250
  53.9359640   6.7665520 122.0128650  54.8583980   6.6660490 120.8166650
  61.8736330   3.3918670 107.6796510  62.3129610   2.5541100 107.5334330
  62.5864750   4.0248070 107.7660650  53.6602330   3.4138870 120.3412620
  53.5210100   4.2861670 120.7100020  52.7783690   3.0711680 120.1960560
  59.9831710   8.3314740 111.6477750  60.4227620   9.0739070 111.2333140
  59.9218600   8.5741310 112.5716710  55.4582680   9.3560570 122.5497770
  55.4298110   9.7603520 121.6826200  55.2947650   8.4270930 122.3869370
  67.4097500  10.1387670 123.8461940  67.8857220  10.6170560 124.5251020
  68.0304660  10.0705160 123.1207440  49.6120980   5.1836420 116.2583530
  49.6901400   5.3185190 115.3139250  50.2262660   4.4752310 116.4511650
  50.8568610   6.8836610 112.6689710  50.4496690   7.0251200 111.8143310
  51.7481620   6.5996770 112.4660920  66.8130750   7.3300520 121.0061950
  66.9393810   7.0912400 120.0879130  66.8552130   6.4985060 121.4784030
  60.6747490  11.0328520 119.5756760  61.1892160  10.9436530 120.3779190
  59.8316570  11.3788220 119.8684670  62.6501890  11.3183860 109.0040760
  62.4903030  11.0286800 109.9022590  62.4848600  10.5423990 108.4685990
  55.1290270  11.0982390 110.7812380  54.9532750  10.1817930 110.5680180
  54.2746010  11.4569680 111.0210180  62.3528020   8.8271420 107.5638760
  61.6593180   8.8248710 106.9041040  63.0950880   8.4030740 107.1332930
  61.9177950  10.4534130 111.6387250  62.3734900   9.6723510 111.9525870
  62.2570470  11.1640950 112.1828430  49.6680500   6.2250590 118.7977990
  49.8311540   5.7555950 117.9797360  50.1332950   5.7174150 119.4626830
  51.2419480   5.6002020 120.9573800  50.8574270   4.9595690 121.5556760
  51.5531670   6.3038140 121.5268530  57.3916620   2.4478560 116.4382420
  57.7586750   1.9737130 117.1843760  57.2021680   3.3220130 116.7790760
  53.7097780   5.6948190 109.3533480  52.9360040   5.1545810 109.1932200
  54.4392410   5.1754800 109.0151240  64.4685760   4.6913550 115.1459870
  65.1884880   5.1868840 114.7555980  64.2667580   4.0131440 114.5013740
  59.8504560   4.7622610 121.0328870  59.7841870   3.8418280 120.7786460
  59.2209700   4.8598050 121.7473510  53.7535180   5.3628570 112.9912290
  54.2713850   4.5596830 112.9369180  53.3019200   5.3007710 113.8329120
  58.6404680   6.6294850 108.2639590  58.9820380   7.3737080 107.7682910
  57.8117390   6.9425970 108.6264420  54.4392840   2.7874180 122.7877540
  54.1392980   2.9331360 121.8905360  55.2104080   2.2279470 122.6950930
  59.7821290   7.5843180 120.7832670  59.7965830   6.6524140 120.5651580
  59.0746390   7.6702940 121.4222440  64.9158360   1.7683000 107.0531280
  64.8322080   2.1997220 106.2027720  65.6352550   2.2281350 107.4858100
  65.9932500   4.2250520 120.1301250  65.2680690   4.8179300 119.9330640
  66.5207960   4.2174060 119.3314620  65.9445610   8.6225260 109.7813410
  65.3021770   7.9680880 110.0557130  65.5576270   9.0280350 109.0054080
  61.5232090   5.9510690 113.6285100  61.8755910   5.3538820 112.9686470
  60.6394420   5.6254920 113.7993350  57.6095370   6.7108380 111.0355510
  58.2966500   7.2577590 111.4163100  56.8227790   7.2549110 111.0705120
  49.7487770   2.3281200 106.5272590  50.6182620   2.6106000 106.8108510
  49.2578090   3.1417070 106.4121400  56.9122580   3.7154410 110.6480870
  57.3685360   4.5259660 110.8741060  56.5610790   3.3977550 111.4799360
  59.2155190   9.2260750 117.8773170  59.8597410   9.4320130 118.5546590
  59.5784630   8.4649150 117.4244020  60.4887270   7.2293100 116.5950620
  61.1309500   6.5286260 116.7082790  61.0136620   8.0091540 116.4147510
  64.3342990   7.5141720 106.3189760  64.1080570   6.7972160 106.9114400
  63.9439190   7.2654160 105.4811510  62.2624890   8.0288000 119.7986680
  62.5981130   8.6154690 120.4764600  61.3425230   7.8980710 120.0284470
  50.1159020  11.5408580 107.0934220  50.4756660  12.1397920 106.4391490
  49.9751360  12.0868470 107.8669250  63.9159240   5.4313660 107.9803920
  63.6280940   5.8926350 108.7681800  64.7111410   4.9711430 108.2488140
  50.1000880   9.8063440 121.5676620  50.2092000   8.8658180 121.4272010
  49.4481440  10.0718190 120.9190350  58.0913470   8.0779330 122.9674740
  57.7710340   7.3588570 123.5120430  57.4171830   8.7534400 123.0410800
  56.1327640   8.9239780 107.9107890  56.1237740   9.6569470 107.2952400
  55.2126000   8.6771360 108.0034850  51.7334280   4.1454670 108.6554650
  51.1262230   4.8853570 108.6649950  52.2083630   4.2354030 107.8292850
  59.1187240   8.9868020 106.5733080  59.2199220   8.7832010 105.6435060
  58.2188980   8.7326300 106.7780860  57.7605350  11.5054340 111.2680750
  58.0146850  11.4675730 110.3460120  56.8117830  11.3787670 111.2609000
  53.7439570   4.1065820 106.4043220  54.5102840   3.9947180 106.9668650
  53.8214260   3.4103790 105.7519990  65.7683510   9.5955070 114.5193520
  65.8930930  10.4186240 114.9917330  66.6349070   9.3845800 114.1717670
  53.2401040  11.6886280 114.1910650  53.9763520  11.1401740 114.4619220
  53.6241960  12.5542290 114.0516640  50.1246520   7.7559850 110.0652160
  49.1986300   7.9980990 110.0557570  50.5902950   8.5834110 109.9436910
  52.2459320  10.8732350 123.3796230  53.0472050  11.1944400 123.7931630
  51.7311140  10.5127930 124.1016140  56.3503350  10.8616590 106.0136220
  57.1431960  11.1505420 105.5618010  55.8307700  10.4308760 105.3348700
  61.0823950   6.9812220 123.3271640  60.4762110   7.0043820 122.5867390
  60.7778060   6.2495260 123.8638890  62.5124320  10.7092510 121.9381050
  63.4646070  10.6250530 121.8881290  62.3652540  11.3734220 122.6114840
  65.4033520  10.0886720 107.4372960  65.1175030   9.6751860 106.6227140
  65.2053070  11.0174430 107.3173480  49.9657130   3.3605810 122.3232280
  50.4696150   2.7813090 122.8948510  49.2264550   3.6446040 122.8608650
  56.8680750   6.0820000 105.8778570  56.7631390   5.4672350 106.6039950
  56.7004970   5.5585890 105.0941580  57.0195070   4.7676800 121.8567800
  56.2540740   5.3361800 121.7722470  57.2011030   4.4753010 120.9636030
  60.1083480   5.1440030 106.4820560  59.5593580   5.5909330 107.1263300
  60.7302740   4.6389280 107.0058230  64.1618420   6.4982130 122.4142820
  64.9027890   6.8357890 121.9110280  63.3991100   6.6674190 121.8612590
  55.7758600   4.1030950 108.3785860  56.1975020   3.9370820 109.2217250
  55.9009440   3.2931180 107.8841000  58.2886240   3.1268560 105.6262960
  58.8091900   2.4117580 105.2604110  58.9354640   3.7654430 105.9263470
  62.8364080   4.5496960 120.9498030  63.2505100   4.7042040 121.7988450
  61.9015080   4.6752180 121.1123810  57.5979310   4.5017440 118.9193960
  58.0167420   5.3450170 118.7470200  56.6787940   4.6389480 118.6900740
  62.2731110   2.7870810 118.8794310  61.7466330   3.3113430 118.2759450
  62.6162450   3.4198200 119.5104040  55.4486730  10.8070450 120.0351690
  54.9107820  11.5316510 119.7160390  55.7020690  10.3300790 119.2449030
  58.3048940  12.0421660 120.2938340  58.2307640  12.9456800 120.6010710
  57.4027780  11.7233560 120.2660410  58.8534270  11.2080170 107.9164700
  59.7485060  11.5465140 107.9383460  58.8851900  10.4859580 107.2888980
  52.4930430   6.5807220 106.1451700  52.9305300   7.1236890 106.8009280
  52.9778160   5.7554170 106.1548040  49.7076230   9.3696250 113.5971960
  50.0379240   8.5017310 113.3650600  50.1367230   9.5754770 114.4276920
  54.3038150   7.7005260 111.2573930  54.0033690   7.5770230 112.1577840
  54.1975640   6.8413850 110.8489660  50.1966440  10.2366840 116.3353590
  49.7597430  10.4167640 117.1677740  50.7644120  10.9941460 116.1935310
  65.8328620   9.7383840 120.6230900  65.2330610   9.7976400 119.8794820
  65.9622520   8.7988820 120.7527750  67.0730070   7.4801660 105.9600610
  66.2423030   7.5478310 106.4307840  67.2501900   8.3705780 105.6567470
  66.5286530   4.2249140 108.4634810  67.2905440   4.7945790 108.5694500
  66.5440900   3.6576340 109.2343120  50.0290870   2.7487070 112.6942470
  49.3739710   2.4798710 112.0502170  50.8668820   2.6391550 112.2444450
  67.5346500   5.0799240 113.3076740  67.9055330   4.2966560 112.9012710
  68.1748430   5.7688340 113.1294040  64.5180260   6.4635820 118.7207060
  63.7040100   6.8932980 118.9832850  64.9254460   7.0754230 118.1076110
  66.5805700   4.5183510 105.6207330  66.8554540   5.4262390 105.4926550
  66.3916440   4.4546040 106.5569320  66.4771040   2.4552500 110.6136760
  66.1014640   1.6880430 110.1818050  65.7474160   2.8375200 111.1011690
  51.0666800   3.1339640 117.2345810  51.4339840   3.0467040 118.1141830
  50.4977620   2.3706190 117.1352670  64.5756310  11.2154420 112.2475330
  65.1715380  10.8938990 111.5709750  64.8334460  10.7426240 113.0388600
  52.4818880   7.6472330 122.3965960  52.4388510   7.2765240 123.2780420
  52.6129890   8.5849900 122.5367780  56.1824910   9.2031920 117.9975680
  55.9416270   9.4706480 117.1106200  57.1227550   9.3737650 118.0526540
  67.4429070  11.2226300 118.7986320  66.9487350  11.6195170 118.0813450
  66.8342360  10.5975510 119.1923600  52.3206910  10.5934580 119.5163740
  51.7267230  10.4619280 120.2553780  52.3130750   9.7572720 119.0505840
  65.1268520  11.8649720 116.0773060  64.6671490  12.6165530 115.7031080
  64.4980980  11.1456190 116.0187860  51.9519140   7.9592960 118.4671780
  51.2253200   7.3398250 118.3997730  52.0128290   8.3533570 117.5969860
  55.5564240  10.1737960 115.2521190  56.0729260   9.5625320 114.7269450
  56.2061620  10.6766740 115.7432200  58.2959740  11.0646450 116.0790170
  58.5837550  10.8100750 115.2023180  58.8082960  10.5123810 116.6695740
  50.2349140  11.2767350 111.6768540  50.0671180  10.6438030 112.3750430
  49.3683650  11.4826750 111.3262730  51.8411840   9.9700580 109.1218680
  51.3159460  10.3508610 108.4180640  51.7656420  10.5951350 109.8428390
  58.3632100  11.9862550 123.4458370  59.2899410  11.7506820 123.4894330
  58.3482530  12.8134550 122.9644400  66.5977160  11.5288120 110.4432620
  66.7729350  10.8425860 109.7993540  65.8998730  12.0535170 110.0509290
  54.4404810  11.9182960 107.9967930  55.1723630  11.6342240 107.4491820
  54.6998480  11.6796240 108.8867310  53.6019600   8.0347690 108.0014260
  52.9728480   8.5032790 108.5500090  53.7167430   7.1896910 108.4360450
  64.9309660  11.2132410 123.2699410  65.7234980  10.7181640 123.0625370
  65.2242810  11.8922550 123.8775020  59.1887360   3.8632370  96.0324730
  58.4129460   3.3832810  96.3223300  59.8400290   3.1838020  95.8580890
  53.2053190   4.1752180  96.9100490  52.3738070   3.9200890  97.3097000
  53.8134170   4.2462950  97.6458410  63.2094790   8.2692560  94.8123860
  62.7476320   7.4979800  95.1411030  64.0220340   8.2958630  95.3176310
  53.1854450   8.2092270  97.1058510  53.4882490   7.3190010  96.9268730
  53.9298040   8.7662490  96.8780760  59.4358100  10.5550570  94.4327850
  58.8169540  11.0108070  93.8622290  60.2909880  10.7102030  94.0317550
  58.6296350   6.5389560  96.0394890  58.5604630   5.5979500  95.8784020
  59.3916210   6.6290970  96.6117460  60.3021450   5.4389810  91.8259760
  59.6838720   5.9039260  91.2622480  60.8144700   6.1317290  92.2429270
  55.1653210   4.9665680  98.5043360  54.8322590   5.5934600  99.1464430
  55.3419890   5.4927560  97.7245030  54.3772310   6.9346480 100.3192540
  54.9946310   7.6097560 100.0376990  53.5165430   7.3434460 100.2280040
  49.6704650   6.1246340  89.1999390  49.2932630   6.6133440  88.4684290
  49.9277720   6.7971620  89.8305920  65.2949900   8.3985890  98.2347180
  64.6113420   9.0685000  98.2263850  65.8344190   8.5966540  97.4692040
  62.8308640  10.2430020  96.9492360  62.8435800   9.8392310  96.0814620
  62.2783860  11.0177310  96.8453790  64.1254060   6.9646240  92.0382530
  64.0150390   6.0220570  92.1631950  64.1222310   7.3261880  92.9245290
  62.2294080   5.1459860  98.2774970  62.6462870   4.9319970  97.4428430
  62.9533900   5.4032650  98.8483590  59.6674340   2.5911560  91.3945020
  58.7403620   2.5248940  91.6233490  59.8199160   3.5291690  91.2800260
  66.1756180   3.5447080  98.3691210  65.3474810   3.6140170  97.8941340
  66.7706660   4.1301390  97.9007040  63.6971630   4.1531860  91.8980270
  63.0784050   3.8151410  91.2506570  63.6796080   3.5091620  92.6059460
  55.2730980   3.1176300  94.1764750  54.8687980   2.4053550  93.6810650
  55.3594100   2.7729540  95.0652790  55.7412680   6.8043860  96.3403960
  55.4440970   6.1989330  95.6611740  56.6912500   6.8421170  96.2293320
  63.8298290  10.3775730 100.0027060  63.3528850  11.1847920  99.8099670
  63.1460080   9.7254060 100.1553270  54.8331110   6.5425550 102.9911760
  53.9359640   6.7665520 103.2385160  54.8583980   6.6660490 102.0423160
  61.8736330   3.3918670  88.9053020  62.3129610   2.5541100  88.7590840
  62.5864750   4.0248070  88.9917160  53.6602330   3.4138870 101.5669130
  53.5210100   4.2861670 101.9356530  52.7783690   3.0711680 101.4217070
  59.9831710   8.3314740  92.8734260  60.4227620   9.0739070  92.4589650
  59.9218600   8.5741310  93.7973220  55.4582680   9.3560570 103.7754280
  55.4298110   9.7603520 102.9082710  55.2947650   8.4270930 103.6125880
  67.4097500  10.1387670 105.0718450  67.8857220  10.6170560 105.7507530
  68.0304660  10.0705160 104.3463950  49.6120980   5.1836420  97.4840040
  49.6901400   5.3185190  96.5395760  50.2262660   4.4752310  97.6768160
  50.8568610   6.8836610  93.8946220  50.4496690   7.0251200  93.0399820
  51.7481620   6.5996770  93.6917430  66.8130750   7.3300520 102.2318460
  66.9393810   7.0912400 101.3135640  66.8552130   6.4985060 102.7040540
  60.6747490  11.0328520 100.8013270  61.1892160  10.9436530 101.6035700
  59.8316570  11.3788220 101.0941180  62.6501890  11.3183860  90.2297270
  62.4903030  11.0286800  91.1279100  62.4848600  10.5423990  89.6942500
  55.1290270  11.0982390  92.0068890  54.9532750  10.1817930  91.7936690
  54.2746010  11.4569680  92.2466690  62.3528020   8.8271420  88.7895270
  61.6593180   8.8248710  88.1297550  63.0950880   8.4030740  88.3589440
  61.9177950  10.4534130  92.8643760  62.3734900   9.6723510  93.1782380
  62.2570470  11.1640950  93.4084940  49.6680500   6.2250590 100.0234500
  49.8311540   5.7555950  99.2053870  50.1332950   5.7174150 100.6883340
  51.2419480   5.6002020 102.1830310  50.8574270   4.9595690 102.7813270
  51.5531670   6.3038140 102.7525040  57.3916620   2.4478560  97.6638930
  57.7586750   1.9737130  98.4100270  57.2021680   3.3220130  98.0047270
  53.7097780   5.6948190  90.5789990  52.9360040   5.1545810  90.4188710
  54.4392410   5.1754800  90.2407750  64.4685760   4.6913550  96.3716380
  65.1884880   5.1868840  95.9812490  64.2667580   4.0131440  95.7270250
  59.8504560   4.7622610 102.2585380  59.7841870   3.8418280 102.0042970
  59.2209700   4.8598050 102.9730020  53.7535180   5.3628570  94.2168800
  54.2713850   4.5596830  94.1625690  53.3019200   5.3007710  95.0585630
  58.6404680   6.6294850  89.4896100  58.9820380   7.3737080  88.9939420
  57.8117390   6.9425970  89.8520930  54.4392840   2.7874180 104.0134050
  54.1392980   2.9331360 103.1161870  55.2104080   2.2279470 103.9207440
  59.7821290   7.5843180 102.0089180  59.7965830   6.6524140 101.7908090
  59.0746390   7.6702940 102.6478950  64.9158360   1.7683000  88.2787790
  64.8322080   2.1997220  87.4284230  65.6352550   2.2281350  88.7114610
  65.9932500   4.2250520 101.3557760  65.2680690   4.8179300 101.1587150
  66.5207960   4.2174060 100.5571130  65.9445610   8.6225260  91.0069920
  65.3021770   7.9680880  91.2813640  65.5576270   9.0280350  90.2310590
  61.5232090   5.9510690  94.8541610  61.8755910   5.3538820  94.1942980
  60.6394420   5.6254920  95.0249860  57.6095370   6.7108380  92.2612020
  58.2966500   7.2577590  92.6419610  56.8227790   7.2549110  92.2961630
  49.7487770   2.3281200  87.7529100  50.6182620   2.6106000  88.0365020
  49.2578090   3.1417070  87.6377910  56.9122580   3.7154410  91.8737380
  57.3685360   4.5259660  92.0997570  56.5610790   3.3977550  92.7055870
  59.2155190   9.2260750  99.1029680  59.8597410   9.4320130  99.7803100
  59.5784630   8.4649150  98.6500530  60.4887270   7.2293100  97.8207130
  61.1309500   6.5286260  97.9339300  61.0136620   8.0091540  97.6404020
  64.3342990   7.5141720  87.5446270  64.1080570   6.7972160  88.1370910
  63.9439190   7.2654160  86.7068020  62.2624890   8.0288000 101.0243190
  62.5981130   8.6154690 101.7021110  61.3425230   7.8980710 101.2540980
  50.1159020  11.5408580  88.3190730  50.4756660  12.1397920  87.6648000
  49.9751360  12.0868470  89.0925760  63.9159240   5.4313660  89.2060430
  63.6280940   5.8926350  89.9938310  64.7111410   4.9711430  89.4744650
  50.1000880   9.8063440 102.7933130  50.2092000   8.8658180 102.6528520
  49.4481440  10.0718190 102.1446860  58.0913470   8.0779330 104.1931250
  57.7710340   7.3588570 104.7376940  57.4171830   8.7534400 104.2667310
  56.1327640   8.9239780  89.1364400  56.1237740   9.6569470  88.5208910
  55.2126000   8.6771360  89.2291360  51.7334280   4.1454670  89.8811160
  51.1262230   4.8853570  89.8906460  52.2083630   4.2354030  89.0549360
  59.1187240   8.9868020  87.7989590  59.2199220   8.7832010  86.8691570
  58.2188980   8.7326300  88.0037370  57.7605350  11.5054340  92.4937260
  58.0146850  11.4675730  91.5716630  56.8117830  11.3787670  92.4865510
  53.7439570   4.1065820  87.6299730  54.5102840   3.9947180  88.1925160
  53.8214260   3.4103790  86.9776500  65.7683510   9.5955070  95.7450030
  65.8930930  10.4186240  96.2173840  66.6349070   9.3845800  95.3974180
  53.2401040  11.6886280  95.4167160  53.9763520  11.1401740  95.6875730
  53.6241960  12.5542290  95.2773150  50.1246520   7.7559850  91.2908670
  49.1986300   7.9980990  91.2814080  50.5902950   8.5834110  91.1693420
  52.2459320  10.8732350 104.6052740  53.0472050  11.1944400 105.0188140
  51.7311140  10.5127930 105.3272650  56.3503350  10.8616590  87.2392730
  57.1431960  11.1505420  86.7874520  55.8307700  10.4308760  86.5605210
  61.0823950   6.9812220 104.5528150  60.4762110   7.0043820 103.8123900
  60.7778060   6.2495260 105.0895400  62.5124320  10.7092510 103.1637560
  63.4646070  10.6250530 103.1137800  62.3652540  11.3734220 103.8371350
  65.4033520  10.0886720  88.6629470  65.1175030   9.6751860  87.8483650
  65.2053070  11.0174430  88.5429990  49.9657130   3.3605810 103.5488790
  50.4696150   2.7813090 104.1205020  49.2264550   3.6446040 104.0865160
  56.8680750   6.0820000  87.1035080  56.7631390   5.4672350  87.8296460
  56.7004970   5.5585890  86.3198090  57.0195070   4.7676800 103.0824310
  56.2540740   5.3361800 102.9978980  57.2011030   4.4753010 102.1892540
  60.1083480   5.1440030  87.7077070  59.5593580   5.5909330  88.3519810
  60.7302740   4.6389280  88.2314740  64.1618420   6.4982130 103.6399330
  64.9027890   6.8357890 103.1366790  63.3991100   6.6674190 103.0869100
  55.7758600   4.1030950  89.6042370  56.1975020   3.9370820  90.4473760
  55.9009440   3.2931180  89.1097510  58.2886240   3.1268560  86.8519470
  58.8091900   2.4117580  86.4860620  58.9354640   3.7654430  87.1519980
  62.8364080   4.5496960 102.1754540  63.2505100   4.7042040 103.0244960
  61.9015080   4.6752180 102.3380320  57.5979310   4.5017440 100.1450470
  58.0167420   5.3450170  99.9726710  56.6787940   4.6389480  99.9157250
  62.2731110   2.7870810 100.1050820  61.7466330   3.3113430  99.5015960
  62.6162450   3.4198200 100.7360550  55.4486730  10.8070450 101.2608200
  54.9107820  11.5316510 100.9416900  55.7020690  10.3300790 100.4705540
  58.3048940  12.0421660 101.5194850  58.2307640  12.9456800 101.8267220
  57.4027780  11.7233560 101.4916920  58.8534270  11.2080170  89.1421210
  59.7485060  11.5465140  89.1639970  58.8851900  10.4859580  88.5145490
  52.4930430   6.5807220  87.3708210  52.9305300   7.1236890  88.0265790
  52.9778160   5.7554170  87.3804550  49.7076230   9.3696250  94.8228470
  50.0379240   8.5017310  94.5907110  50.1367230   9.5754770  95.6533430
  54.3038150   7.7005260  92.4830440  54.0033690   7.5770230  93.3834350
  54.1975640   6.8413850  92.0746170  50.1966440  10.2366840  97.5610100
  49.7597430  10.4167640  98.3934250  50.7644120  10.9941460  97.4191820
  65.8328620   9.7383840 101.8487410  65.2330610   9.7976400 101.1051330
  65.9622520   8.7988820 101.9784260  67.0730070   7.4801660  87.1857120
  66.2423030   7.5478310  87.6564350  67.2501900   8.3705780  86.8823980
  66.5286530   4.2249140  89.6891320  67.2905440   4.7945790  89.7951010
  66.5440900   3.6576340  90.4599630  50.0290870   2.7487070  93.9198980
  49.3739710   2.4798710  93.2758680  50.8668820   2.6391550  93.4700960
  67.5346500   5.0799240  94.5333250  67.9055330   4.2966560  94.1269220
  68.1748430   5.7688340  94.3550550  64.5180260   6.4635820  99.9463570
  63.7040100   6.8932980 100.2089360  64.9254460   7.0754230  99.3332620
  66.5805700   4.5183510  86.8463840  66.8554540   5.4262390  86.7183060
  66.3916440   4.4546040  87.7825830  66.4771040   2.4552500  91.8393270
  66.1014640   1.6880430  91.4074560  65.7474160   2.8375200  92.3268200
  51.0666800   3.1339640  98.4602320  51.4339840   3.0467040  99.3398340
  50.4977620   2.3706190  98.3609180  64.5756310  11.2154420  93.4731840
  65.1715380  10.8938990  92.7966260  64.8334460  10.7426240  94.2645110
  52.4818880   7.6472330 103.6222470  52.4388510   7.2765240 104.5036930
  52.6129890   8.5849900 103.7624290  56.1824910   9.2031920  99.2232190
  55.9416270   9.4706480  98.3362710  57.1227550   9.3737650  99.2783050
  67.4429070  11.2226300 100.0242830  66.9487350  11.6195170  99.3069960
  66.8342360  10.5975510 100.4180110  52.3206910  10.5934580 100.7420250
  51.7267230  10.4619280 101.4810290  52.3130750   9.7572720 100.2762350
  65.1268520  11.8649720  97.3029570  64.6671490  12.6165530  96.9287590
  64.4980980  11.1456190  97.2444370  51.9519140   7.9592960  99.6928290
  51.2253200   7.3398250  99.6254240  52.0128290   8.3533570  98.8226370
  55.5564240  10.1737960  96.4777700  56.0729260   9.5625320  95.9525960
  56.2061620  10.6766740  96.9688710  58.2959740  11.0646450  97.3046680
  58.5837550  10.8100750  96.4279690  58.8082960  10.5123810  97.8952250
  50.2349140  11.2767350  92.9025050  50.0671180  10.6438030  93.6006940
  49.3683650  11.4826750  92.5519240  51.8411840   9.9700580  90.3475190
  51.3159460  10.3508610  89.6437150  51.7656420  10.5951350  91.0684900
  58.3632100  11.9862550 104.6714880  59.2899410  11.7506820 104.7150840
  58.3482530  12.8134550 104.1900910  66.5977160  11.5288120  91.6689130
  66.7729350  10.8425860  91.0250050  65.8998730  12.0535170  91.2765800
  54.4404810  11.9182960  89.2224440  55.1723630  11.6342240  88.6748330
  54.6998480  11.6796240  90.1123820  53.6019600   8.0347690  89.2270770
  52.9728480   8.5032790  89.7756600  53.7167430   7.1896910  89.6616960
  64.9309660  11.2132410 104.4955920  65.7234980  10.7181640 104.2881880
  65.2242810  11.8922550 105.1031530  59.1887360   3.8632370  77.2581240
  58.4129460   3.3832810  77.5479810  59.8400290   3.1838020  77.0837400
  53.2053190   4.1752180  78.1357000  52.3738070   3.9200890  78.5353510
  53.8134170   4.2462950  78.8714920  63.2094790   8.2692560  76.0380370
  62.7476320   7.4979800  76.3667540  64.0220340   8.2958630  76.5432820
  53.1854450   8.2092270  78.3315020  53.4882490   7.3190010  78.1525240
  53.9298040   8.7662490  78.1037270  59.4358100  10.5550570  75.6584360
  58.8169540  11.0108070  75.0878800  60.2909880  10.7102030  75.2574060
  58.6296350   6.5389560  77.2651400  58.5604630   5.5979500  77.1040530
  59.3916210   6.6290970  77.8373970  60.3021450   5.4389810  73.0516270
  59.6838720   5.9039260  72.4878990  60.8144700   6.1317290  73.4685780
  55.1653210   4.9665680  79.7299870  54.8322590   5.5934600  80.3720940
  55.3419890   5.4927560  78.9501540  54.3772310   6.9346480  81.5449050
  54.9946310   7.6097560  81.2633500  53.5165430   7.3434460  81.4536550
  49.6704650   6.1246340  70.4255900  49.2932630   6.6133440  69.6940800
  49.9277720   6.7971620  71.0562430  65.2949900   8.3985890  79.4603690
  64.6113420   9.0685000  79.4520360  65.8344190   8.5966540  78.6948550
  62.8308640  10.2430020  78.1748870  62.8435800   9.8392310  77.3071130
  62.2783860  11.0177310  78.0710300  64.1254060   6.9646240  73.2639040
  64.0150390   6.0220570  73.3888460  64.1222310   7.3261880  74.1501800
  62.2294080   5.1459860  79.5031480  62.6462870   4.9319970  78.6684940
  62.9533900   5.4032650  80.0740100  59.6674340   2.5911560  72.6201530
  58.7403620   2.5248940  72.8490000  59.8199160   3.5291690  72.5056770
  66.1756180   3.5447080  79.5947720  65.3474810   3.6140170  79.1197850
  66.7706660   4.1301390  79.1263550  63.6971630   4.1531860  73.1236780
  63.0784050   3.8151410  72.4763080  63.6796080   3.5091620  73.8315970
  55.2730980   3.1176300  75.4021260  54.8687980   2.4053550  74.9067160
  55.3594100   2.7729540  76.2909300  55.7412680   6.8043860  77.5660470
  55.4440970   6.1989330  76.8868250  56.6912500   6.8421170  77.4549830
  63.8298290  10.3775730  81.2283570  63.3528850  11.1847920  81.0356180
  63.1460080   9.7254060  81.3809780  54.8331110   6.5425550  84.2168270
  53.9359640   6.7665520  84.4641670  54.8583980   6.6660490  83.2679670
  61.8736330   3.3918670  70.1309530  62.3129610   2.5541100  69.9847350
  62.5864750   4.0248070  70.2173670  53.6602330   3.4138870  82.7925640
  53.5210100   4.2861670  83.1613040  52.7783690   3.0711680  82.6473580
  59.9831710   8.3314740  74.0990770  60.4227620   9.0739070  73.6846160
  59.9218600   8.5741310  75.0229730  55.4582680   9.3560570  85.0010790
  55.4298110   9.7603520  84.1339220  55.2947650   8.4270930  84.8382390
  67.4097500  10.1387670  86.2974960  67.8857220  10.6170560  86.9764040
  68.0304660  10.0705160  85.5720460  49.6120980   5.1836420  78.7096550
  49.6901400   5.3185190  77.7652270  50.2262660   4.4752310  78.9024670
  50.8568610   6.8836610  75.1202730  50.4496690   7.0251200  74.2656330
  51.7481620   6.5996770  74.9173940  66.8130750   7.3300520  83.4574970
  66.9393810   7.0912400  82.5392150  66.8552130   6.4985060  83.9297050
  60.6747490  11.0328520  82.0269780  61.1892160  10.9436530  82.8292210
  59.8316570  11.3788220  82.3197690  55.1290270  11.0982390  73.2325400
  54.9532750  10.1817930  73.0193200  54.2746010  11.4569680  73.4723200
  62.3528020   8.8271420  70.0151780  61.6593180   8.8248710  69.3554060
  63.0950880   8.4030740  69.5845950  61.9177950  10.4534130  74.0900270
  62.3734900   9.6723510  74.4038890  62.2570470  11.1640950  74.6341450
  49.6680500   6.2250590  81.2491010  49.8311540   5.7555950  80.4310380
  50.1332950   5.7174150  81.9139850  51.2419480   5.6002020  83.4086820
  50.8574270   4.9595690  84.0069780  51.5531670   6.3038140  83.9781550
  57.3916620   2.4478560  78.8895440  57.7586750   1.9737130  79.6356780
  57.2021680   3.3220130  79.2303780  53.7097780   5.6948190  71.8046500
  52.9360040   5.1545810  71.6445220  54.4392410   5.1754800  71.4664260
  64.4685760   4.6913550  77.5972890  65.1884880   5.1868840  77.2069000
  64.2667580   4.0131440  76.9526760  59.8504560   4.7622610  83.4841890
  59.7841870   3.8418280  83.2299480  59.2209700   4.8598050  84.1986530
  53.7535180   5.3628570  75.4425310  54.2713850   4.5596830  75.3882200
  53.3019200   5.3007710  76.2842140  58.6404680   6.6294850  70.7152610
  58.9820380   7.3737080  70.2195930  57.8117390   6.9425970  71.0777440
  54.4392840   2.7874180  85.2390560  54.1392980   2.9331360  84.3418380
  55.2104080   2.2279470  85.1463950  59.7821290   7.5843180  83.2345690
  59.7965830   6.6524140  83.0164600  59.0746390   7.6702940  83.8735460
  64.9158360   1.7683000  69.5044300  64.8322080   2.1997220  68.6540740
  65.6352550   2.2281350  69.9371120  65.9932500   4.2250520  82.5814270
  65.2680690   4.8179300  82.3843660  66.5207960   4.2174060  81.7827640
  65.9445610   8.6225260  72.2326430  65.3021770   7.9680880  72.5070150
  65.5576270   9.0280350  71.4567100  61.5232090   5.9510690  76.0798120
  61.8755910   5.3538820  75.4199490  60.6394420   5.6254920  76.2506370
  57.6095370   6.7108380  73.4868530  58.2966500   7.2577590  73.8676120
  56.8227790   7.2549110  73.5218140  49.7487770   2.3281200  68.9785610
  50.6182620   2.6106000  69.2621530  49.2578090   3.1417070  68.8634420
  56.9122580   3.7154410  73.0993890  57.3685360   4.5259660  73.3254080
  56.5610790   3.3977550  73.9312380  59.2155190   9.2260750  80.3286190
  59.8597410   9.4320130  81.0059610  59.5784630   8.4649150  79.8757040
  60.4887270   7.2293100  79.0463640  61.1309500   6.5286260  79.1595810
  61.0136620   8.0091540  78.8660530  64.3342990   7.5141720  68.7702780
  64.1080570   6.7972160  69.3627420  63.9439190   7.2654160  67.9324530
  62.2624890   8.0288000  82.2499700  62.5981130   8.6154690  82.9277620
  61.3425230   7.8980710  82.4797490  50.1159020  11.5408580  69.5447240
  50.4756660  12.1397920  68.8904510  49.9751360  12.0868470  70.3182270
  63.9159240   5.4313660  70.4316940  63.6280940   5.8926350  71.2194820
  64.7111410   4.9711430  70.7001160  50.1000880   9.8063440  84.0189640
  50.2092000   8.8658180  83.8785030  49.4481440  10.0718190  83.3703370
  58.0913470   8.0779330  85.4187760  57.7710340   7.3588570  85.9633450
  57.4171830   8.7534400  85.4923820  56.1327640   8.9239780  70.3620910
  56.1237740   9.6569470  69.7465420  55.2126000   8.6771360  70.4547870
  51.7334280   4.1454670  71.1067670  51.1262230   4.8853570  71.1162970
  52.2083630   4.2354030  70.2805870  59.1187240   8.9868020  69.0246100
  59.2199220   8.7832010  68.0948080  58.2188980   8.7326300  69.2293880
  57.7605350  11.5054340  73.7193770  58.0146850  11.4675730  72.7973140
  56.8117830  11.3787670  73.7122020  53.7439570   4.1065820  68.8556240
  54.5102840   3.9947180  69.4181670  53.8214260   3.4103790  68.2033010
  65.7683510   9.5955070  76.9706540  65.8930930  10.4186240  77.4430350
  66.6349070   9.3845800  76.6230690  53.2401040  11.6886280  76.6423670
  53.9763520  11.1401740  76.9132240  53.6241960  12.5542290  76.5029660
  50.1246520   7.7559850  72.5165180  49.1986300   7.9980990  72.5070590
  50.5902950   8.5834110  72.3949930  52.2459320  10.8732350  85.8309250
  53.0472050  11.1944400  86.2444650  51.7311140  10.5127930  86.5529160
  56.3503350  10.8616590  68.4649240  57.1431960  11.1505420  68.0131030
  55.8307700  10.4308760  67.7861720  61.0823950   6.9812220  85.7784660
  60.4762110   7.0043820  85.0380410  60.7778060   6.2495260  86.3151910
  62.5124320  10.7092510  84.3894070  63.4646070  10.6250530  84.3394310
  62.3652540  11.3734220  85.0627860  65.4033520  10.0886720  69.8885980
  65.1175030   9.6751860  69.0740160  65.2053070  11.0174430  69.7686500
  49.9657130   3.3605810  84.7745300  50.4696150   2.7813090  85.3461530
  49.2264550   3.6446040  85.3121670  56.8680750   6.0820000  68.3291590
  56.7631390   5.4672350  69.0552970  56.7004970   5.5585890  67.5454600
  57.0195070   4.7676800  84.3080820  56.2540740   5.3361800  84.2235490
  57.2011030   4.4753010  83.4149050  60.1083480   5.1440030  68.9333580
  59.5593580   5.5909330  69.5776320  60.7302740   4.6389280  69.4571250
  64.1618420   6.4982130  84.8655840  64.9027890   6.8357890  84.3623300
  63.3991100   6.6674190  84.3125610  55.7758600   4.1030950  70.8298880
  56.1975020   3.9370820  71.6730270  55.9009440   3.2931180  70.3354020
  58.2886240   3.1268560  68.0775980  58.8091900   2.4117580  67.7117130
  58.9354640   3.7654430  68.3776490  62.8364080   4.5496960  83.4011050
  63.2505100   4.7042040  84.2501470  61.9015080   4.6752180  83.5636830
  57.5979310   4.5017440  81.3706980  58.0167420   5.3450170  81.1983220
  56.6787940   4.6389480  81.1413760  62.2731110   2.7870810  81.3307330
  61.7466330   3.3113430  80.7272470  62.6162450   3.4198200  81.9617060
  55.4486730  10.8070450  82.4864710  54.9107820  11.5316510  82.1673410
  55.7020690  10.3300790  81.6962050  58.3048940  12.0421660  82.7451360
  58.2307640  12.9456800  83.0523730  57.4027780  11.7233560  82.7173430
  58.8534270  11.2080170  70.3677720  59.7485060  11.5465140  70.3896480
  58.8851900  10.4859580  69.7402000  52.4930430   6.5807220  68.5964720
  52.9305300   7.1236890  69.2522300  52.9778160   5.7554170  68.6061060
  49.7076230   9.3696250  76.0484980  50.0379240   8.5017310  75.8163620
  50.1367230   9.5754770  76.8789940  54.3038150   7.7005260  73.7086950
  54.0033690   7.5770230  74.6090860  54.1975640   6.8413850  73.3002680
  50.1966440  10.2366840  78.7866610  49.7597430  10.4167640  79.6190760
  50.7644120  10.9941460  78.6448330  65.8328620   9.7383840  83.0743920
  65.2330610   9.7976400  82.3307840  65.9622520   8.7988820  83.2040770
  67.0730070   7.4801660  68.4113630  66.2423030   7.5478310  68.8820860
  67.2501900   8.3705780  68.1080490  66.5286530   4.2249140  70.9147830
  67.2905440   4.7945790  71.0207520  66.5440900   3.6576340  71.6856140
  50.0290870   2.7487070  75.1455490  49.3739710   2.4798710  74.5015190
  50.8668820   2.6391550  74.6957470  67.5346500   5.0799240  75.7589760
  67.9055330   4.2966560  75.3525730  68.1748430   5.7688340  75.5807060
  64.5180260   6.4635820  81.1720080  63.7040100   6.8932980  81.4345870
  64.9254460   7.0754230  80.5589130  66.5805700   4.5183510  68.0720350
  66.8554540   5.4262390  67.9439570  66.3916440   4.4546040  69.0082340
  66.4771040   2.4552500  73.0649780  66.1014640   1.6880430  72.6331070
  65.7474160   2.8375200  73.5524710  51.0666800   3.1339640  79.6858830
  51.4339840   3.0467040  80.5654850  50.4977620   2.3706190  79.5865690
  64.5756310  11.2154420  74.6988350  65.1715380  10.8938990  74.0222770
  64.8334460  10.7426240  75.4901620  52.4818880   7.6472330  84.8478980
  52.4388510   7.2765240  85.7293440  52.6129890   8.5849900  84.9880800
  56.1824910   9.2031920  80.4488700  55.9416270   9.4706480  79.5619220
  57.1227550   9.3737650  80.5039560  67.4429070  11.2226300  81.2499340
  66.9487350  11.6195170  80.5326470  66.8342360  10.5975510  81.6436620
  52.3206910  10.5934580  81.9676760  51.7267230  10.4619280  82.7066800
  52.3130750   9.7572720  81.5018860  65.1268520  11.8649720  78.5286080
  64.6671490  12.6165530  78.1544100  64.4980980  11.1456190  78.4700880
  51.9519140   7.9592960  80.9184800  51.2253200   7.3398250  80.8510750
  52.0128290   8.3533570  80.0482880  55.5564240  10.1737960  77.7034210
  56.0729260   9.5625320  77.1782470  56.2061620  10.6766740  78.1945220
  58.2959740  11.0646450  78.5303190  58.5837550  10.8100750  77.6536200
  58.8082960  10.5123810  79.1208760  50.2349140  11.2767350  74.1281560
  50.0671180  10.6438030  74.8263450  49.3683650  11.4826750  73.7775750
  51.8411840   9.9700580  71.5731700  51.3159460  10.3508610  70.8693660
  51.7656420  10.5951350  72.2941410  58.3632100  11.9862550  85.8971390
  59.2899410  11.7506820  85.9407350  58.3482530  12.8134550  85.4157420
  66.5977160  11.5288120  72.8945640  66.7729350  10.8425860  72.2506560
  65.8998730  12.0535170  72.5022310  54.4404810  11.9182960  70.4480950
  55.1723630  11.6342240  69.9004840  54.6998480  11.6796240  71.3380330
  53.6019600   8.0347690  70.4527280  52.9728480   8.5032790  71.0013110
  53.7167430   7.1896910  70.8873470  64.9309660  11.2132410  85.7212430
  65.7234980  10.7181640  85.5138390  65.2242810  11.8922550  86.3288040
  59.1887360   3.8632370  58.4837750  58.4129460   3.3832810  58.7736320
  59.8400290   3.1838020  58.3093910  53.2053190   4.1752180  59.3613510
  52.3738070   3.9200890  59.7610020  53.8134170   4.2462950  60.0971430
  63.2094790   8.2692560  57.2636880  62.7476320   7.4979800  57.5924050
  64.0220340   8.2958630  57.7689330  53.1854450   8.2092270  59.5571530
  53.4882490   7.3190010  59.3781750  53.9298040   8.7662490  59.3293780
  59.4358100  10.5550570  56.8840870  58.8169540  11.0108070  56.3135310
  60.2909880  10.7102030  56.4830570  58.6296350   6.5389560  58.4907910
  58.5604630   5.5979500  58.3297040  59.3916210   6.6290970  59.0630480
  60.3021450   5.4389810  54.2772780  59.6838720   5.9039260  53.7135500
  60.8144700   6.1317290  54.6942290  55.1653210   4.9665680  60.9556380
  54.8322590   5.5934600  61.5977450  55.3419890   5.4927560  60.1758050
  54.3772310   6.9346480  62.7705560  54.9946310   7.6097560  62.4890010
  53.5165430   7.3434460  62.6793060  49.6704650   6.1246340  51.6512410
  49.2932630   6.6133440  50.9197310  49.9277720   6.7971620  52.2818940
  65.2949900   8.3985890  60.6860200  64.6113420   9.0685000  60.6776870
  65.8344190   8.5966540  59.9205060  62.8308640  10.2430020  59.4005380
  62.8435800   9.8392310  58.5327640  62.2783860  11.0177310  59.2966810
  64.1254060   6.9646240  54.4895550  64.0150390   6.0220570  54.6144970
  64.1222310   7.3261880  55.3758310  62.2294080   5.1459860  60.7287990
  62.6462870   4.9319970  59.8941450  62.9533900   5.4032650  61.2996610
  59.6674340   2.5911560  53.8458040  58.7403620   2.5248940  54.0746510
  59.8199160   3.5291690  53.7313280  66.1756180   3.5447080  60.8204230
  65.3474810   3.6140170  60.3454360  66.7706660   4.1301390  60.3520060
  63.6971630   4.1531860  54.3493290  63.0784050   3.8151410  53.7019590
  63.6796080   3.5091620  55.0572480  55.2730980   3.1176300  56.6277770
  54.8687980   2.4053550  56.1323670  55.3594100   2.7729540  57.5165810
  55.7412680   6.8043860  58.7916980  55.4440970   6.1989330  58.1124760
  56.6912500   6.8421170  58.6806340  63.8298290  10.3775730  62.4540080
  63.3528850  11.1847920  62.2612690  63.1460080   9.7254060  62.6066290
  54.8331110   6.5425550  65.4424780  53.9359640   6.7665520  65.6898180
  54.8583980   6.6660490  64.4936180  61.8736330   3.3918670  51.3566040
  62.3129610   2.5541100  51.2103860  62.5864750   4.0248070  51.4430180
  53.6602330   3.4138870  64.0182150  53.5210100   4.2861670  64.3869550
  52.7783690   3.0711680  63.8730090  59.9831710   8.3314740  55.3247280
  60.4227620   9.0739070  54.9102670  59.9218600   8.5741310  56.2486240
  55.4582680   9.3560570  66.2267300  55.4298110   9.7603520  65.3595730
  55.2947650   8.4270930  66.0638900  67.4097500  10.1387670  67.5231470
  67.8857220  10.6170560  68.2020550  68.0304660  10.0705160  66.7976970
  49.6120980   5.1836420  59.9353060  49.6901400   5.3185190  58.9908780
  50.2262660   4.4752310  60.1281180  50.8568610   6.8836610  56.3459240
  50.4496690   7.0251200  55.4912840  51.7481620   6.5996770  56.1430450
  66.8130750   7.3300520  64.6831480  66.9393810   7.0912400  63.7648660
  66.8552130   6.4985060  65.1553560  60.6747490  11.0328520  63.2526290
  61.1892160  10.9436530  64.0548720  59.8316570  11.3788220  63.5454200
  62.6501890  11.3183860  52.6810290  62.4903030  11.0286800  53.5792120
  62.4848600  10.5423990  52.1455520  55.1290270  11.0982390  54.4581910
  54.9532750  10.1817930  54.2449710  54.2746010  11.4569680  54.6979710
  62.3528020   8.8271420  51.2408290  61.6593180   8.8248710  50.5810570
  63.0950880   8.4030740  50.8102460  61.9177950  10.4534130  55.3156780
  62.3734900   9.6723510  55.6295400  62.2570470  11.1640950  55.8597960
  49.6680500   6.2250590  62.4747520  49.8311540   5.7555950  61.6566890
  50.1332950   5.7174150  63.1396360  51.2419480   5.6002020  64.6343330
  50.8574270   4.9595690  65.2326290  51.5531670   6.3038140  65.2038060
  57.3916620   2.4478560  60.1151950  57.7586750   1.9737130  60.8613290
  57.2021680   3.3220130  60.4560290  53.7097780   5.6948190  53.0303010
  52.9360040   5.1545810  52.8701730  54.4392410   5.1754800  52.6920770
  64.4685760   4.6913550  58.8229400  65.1884880   5.1868840  58.4325510
  64.2667580   4.0131440  58.1783270  59.8504560   4.7622610  64.7098400
  59.7841870   3.8418280  64.4555990  59.2209700   4.8598050  65.4243040
  53.7535180   5.3628570  56.6681820  54.2713850   4.5596830  56.6138710
  53.3019200   5.3007710  57.5098650  58.6404680   6.6294850  51.9409120
  58.9820380   7.3737080  51.4452440  57.8117390   6.9425970  52.3033950
  54.4392840   2.7874180  66.4647070  54.1392980   2.9331360  65.5674890
  55.2104080   2.2279470  66.3720460  59.7821290   7.5843180  64.4602200
  59.7965830   6.6524140  64.2421110  59.0746390   7.6702940  65.0991970
  64.9158360   1.7683000  50.7300810  64.8322080   2.1997220  49.8797250
  65.6352550   2.2281350  51.1627630  65.9932500   4.2250520  63.8070780
  65.2680690   4.8179300  63.6100170  66.5207960   4.2174060  63.0084150
  65.9445610   8.6225260  53.4582940  65.3021770   7.9680880  53.7326660
  65.5576270   9.0280350  52.6823610  61.5232090   5.9510690  57.3054630
  61.8755910   5.3538820  56.6456000  60.6394420   5.6254920  57.4762880
  57.6095370   6.7108380  54.7125040  58.2966500   7.2577590  55.0932630
  56.8227790   7.2549110  54.7474650  49.7487770   2.3281200  50.2042120
  50.6182620   2.6106000  50.4878040  49.2578090   3.1417070  50.0890930
  56.9122580   3.7154410  54.3250400  57.3685360   4.5259660  54.5510590
  56.5610790   3.3977550  55.1568890  59.2155190   9.2260750  61.5542700
  59.8597410   9.4320130  62.2316120  59.5784630   8.4649150  61.1013550
  60.4887270   7.2293100  60.2720150  61.1309500   6.5286260  60.3852320
  61.0136620   8.0091540  60.0917040  64.3342990   7.5141720  49.9959290
  64.1080570   6.7972160  50.5883930  63.9439190   7.2654160  49.1581040
  62.2624890   8.0288000  63.4756210  62.5981130   8.6154690  64.1534130
  61.3425230   7.8980710  63.7054000  50.1159020  11.5408580  50.7703750
  50.4756660  12.1397920  50.1161020  49.9751360  12.0868470  51.5438780
  63.9159240   5.4313660  51.6573450  63.6280940   5.8926350  52.4451330
  64.7111410   4.9711430  51.9257670  50.1000880   9.8063440  65.2446150
  50.2092000   8.8658180  65.1041540  49.4481440  10.0718190  64.5959880
  58.0913470   8.0779330  66.6444270  57.7710340   7.3588570  67.1889960
  57.4171830   8.7534400  66.7180330  56.1327640   8.9239780  51.5877420
  56.1237740   9.6569470  50.9721930  55.2126000   8.6771360  51.6804380
  51.7334280   4.1454670  52.3324180  51.1262230   4.8853570  52.3419480
  52.2083630   4.2354030  51.5062380  59.1187240   8.9868020  50.2502610
  59.2199220   8.7832010  49.3204590  58.2188980   8.7326300  50.4550390
  57.7605350  11.5054340  54.9450280  58.0146850  11.4675730  54.0229650
  56.8117830  11.3787670  54.9378530  53.7439570   4.1065820  50.0812750
  54.5102840   3.9947180  50.6438180  53.8214260   3.4103790  49.4289520
  65.7683510   9.5955070  58.1963050  65.8930930  10.4186240  58.6686860
  66.6349070   9.3845800  57.8487200  53.2401040  11.6886280  57.8680180
  53.9763520  11.1401740  58.1388750  53.6241960  12.5542290  57.7286170
  50.1246520   7.7559850  53.7421690  49.1986300   7.9980990  53.7327100
  50.5902950   8.5834110  53.6206440  52.2459320  10.8732350  67.0565760
  53.0472050  11.1944400  67.4701160  51.7311140  10.5127930  67.7785670
  56.3503350  10.8616590  49.6905750  57.1431960  11.1505420  49.2387540
  55.8307700  10.4308760  49.0118230  61.0823950   6.9812220  67.0041170
  60.4762110   7.0043820  66.2636920  60.7778060   6.2495260  67.5408420
  62.5124320  10.7092510  65.6150580  63.4646070  10.6250530  65.5650820
  62.3652540  11.3734220  66.2884370  65.4033520  10.0886720  51.1142490
  65.1175030   9.6751860  50.2996670  65.2053070  11.0174430  50.9943010
  49.9657130   3.3605810  66.0001810  50.4696150   2.7813090  66.5718040
  49.2264550   3.6446040  66.5378180  56.8680750   6.0820000  49.5548100
  56.7631390   5.4672350  50.2809480  56.7004970   5.5585890  48.7711110
  57.0195070   4.7676800  65.5337330  56.2540740   5.3361800  65.4492000
  57.2011030   4.4753010  64.6405560  60.1083480   5.1440030  50.1590090
  59.5593580   5.5909330  50.8032830  60.7302740   4.6389280  50.6827760
  64.1618420   6.4982130  66.0912350  64.9027890   6.8357890  65.5879810
  63.3991100   6.6674190  65.5382120  55.7758600   4.1030950  52.0555390
  56.1975020   3.9370820  52.8986780  55.9009440   3.2931180  51.5610530
  58.2886240   3.1268560  49.3032490  58.8091900   2.4117580  48.9373640
  58.9354640   3.7654430  49.6033000  62.8364080   4.5496960  64.6267560
  63.2505100   4.7042040  65.4757980  61.9015080   4.6752180  64.7893340
  57.5979310   4.5017440  62.5963490  58.0167420   5.3450170  62.4239730
  56.6787940   4.6389480  62.3670270  62.2731110   2.7870810  62.5563840
  61.7466330   3.3113430  61.9528980  62.6162450   3.4198200  63.1873570
  55.4486730  10.8070450  63.7121220  54.9107820  11.5316510  63.3929920
  55.7020690  10.3300790  62.9218560  58.3048940  12.0421660  63.9707870
  58.2307640  12.9456800  64.2780240  57.4027780  11.7233560  63.9429940
  58.8534270  11.2080170  51.5934230  59.7485060  11.5465140  51.6152990
  58.8851900  10.4859580  50.9658510  52.4930430   6.5807220  49.8221230
  52.9305300   7.1236890  50.4778810  52.9778160   5.7554170  49.8317570
  49.7076230   9.3696250  57.2741490  50.0379240   8.5017310  57.0420130
  50.1367230   9.5754770  58.1046450  54.3038150   7.7005260  54.9343460
  54.0033690   7.5770230  55.8347370  54.1975640   6.8413850  54.5259190
  50.1966440  10.2366840  60.0123120  49.7597430  10.4167640  60.8447270
  50.7644120  10.9941460  59.8704840  65.8328620   9.7383840  64.3000430
  65.2330610   9.7976400  63.5564350  65.9622520   8.7988820  64.4297280
  67.0730070   7.4801660  49.6370140  66.2423030   7.5478310  50.1077370
  67.2501900   8.3705780  49.3337000  66.5286530   4.2249140  52.1404340
  67.2905440   4.7945790  52.2464030  66.5440900   3.6576340  52.9112650
  50.0290870   2.7487070  56.3712000  49.3739710   2.4798710  55.7271700
  50.8668820   2.6391550  55.9213980  67.5346500   5.0799240  56.9846270
  67.9055330   4.2966560  56.5782240  68.1748430   5.7688340  56.8063570
  64.5180260   6.4635820  62.3976590  63.7040100   6.8932980  62.6602380
  64.9254460   7.0754230  61.7845640  66.5805700   4.5183510  49.2976860
  66.8554540   5.4262390  49.1696080  66.3916440   4.4546040  50.2338850
  66.4771040   2.4552500  54.2906290  66.1014640   1.6880430  53.8587580
  65.7474160   2.8375200  54.7781220  51.0666800   3.1339640  60.9115340
  51.4339840   3.0467040  61.7911360  50.4977620   2.3706190  60.8122200
  64.5756310  11.2154420  55.9244860  65.1715380  10.8938990  55.2479280
  64.8334460  10.7426240  56.7158130  52.4818880   7.6472330  66.0735490
  52.4388510   7.2765240  66.9549950  52.6129890   8.5849900  66.2137310
  56.1824910   9.2031920  61.6745210  55.9416270   9.4706480  60.7875730
  57.1227550   9.3737650  61.7296070  67.4429070  11.2226300  62.4755850
  66.9487350  11.6195170  61.7582980  66.8342360  10.5975510  62.8693130
  52.3206910  10.5934580  63.1933270  51.7267230  10.4619280  63.9323310
  52.3130750   9.7572720  62.7275370  65.1268520  11.8649720  59.7542590
  64.6671490  12.6165530  59.3800610  64.4980980  11.1456190  59.6957390
  51.9519140   7.9592960  62.1441310  51.2253200   7.3398250  62.0767260
  52.0128290   8.3533570  61.2739390  55.5564240  10.1737960  58.9290720
  56.0729260   9.5625320  58.4038980  56.2061620  10.6766740  59.4201730
  58.2959740  11.0646450  59.7559700  58.5837550  10.8100750  58.8792710
  58.8082960  10.5123810  60.3465270  50.2349140  11.2767350  55.3538070
  50.0671180  10.6438030  56.0519960  49.3683650  11.4826750  55.0032260
  51.8411840   9.9700580  52.7988210  51.3159460  10.3508610  52.0950170
  51.7656420  10.5951350  53.5197920  58.3632100  11.9862550  67.1227900
  59.2899410  11.7506820  67.1663860  58.3482530  12.8134550  66.6413930
  66.5977160  11.5288120  54.1202150  66.7729350  10.8425860  53.4763070
  65.8998730  12.0535170  53.7278820  54.4404810  11.9182960  51.6737460
  55.1723630  11.6342240  51.1261350  54.6998480  11.6796240  52.5636840
  53.6019600   8.0347690  51.6783790  52.9728480   8.5032790  52.2269620
  53.7167430   7.1896910  52.1129980  64.9309660  11.2132410  66.9468940
  65.7234980  10.7181640  66.7394900  65.2242810  11.8922550  67.5544550
  59.1887360   3.8632370  39.7094260  58.4129460   3.3832810  39.9992830
  59.8400290   3.1838020  39.5350420  53.2053190   4.1752180  40.5870020
  52.3738070   3.9200890  40.9866530  53.8134170   4.2462950  41.3227940
  63.2094790   8.2692560  38.4893390  62.7476320   7.4979800  38.8180560
  64.0220340   8.2958630  38.9945840  53.1854450   8.2092270  40.7828040
  53.4882490   7.3190010  40.6038260  53.9298040   8.7662490  40.5550290
  59.4358100  10.5550570  38.1097380  58.8169540  11.0108070  37.5391820
  60.2909880  10.7102030  37.7087080  58.6296350   6.5389560  39.7164420
  58.5604630   5.5979500  39.5553550  59.3916210   6.6290970  40.2886990
  60.3021450   5.4389810  35.5029290  59.6838720   5.9039260  34.9392010
  60.8144700   6.1317290  35.9198800  55.1653210   4.9665680  42.1812890
  54.8322590   5.5934600  42.8233960  55.3419890   5.4927560  41.4014560
  54.3772310   6.9346480  43.9962070  54.9946310   7.6097560  43.7146520
  53.5165430   7.3434460  43.9049570  49.6704650   6.1246340  32.8768920
  49.2932630   6.6133440  32.1453820  49.9277720   6.7971620  33.5075450
  65.2949900   8.3985890  41.9116710  64.6113420   9.0685000  41.9033380
  65.8344190   8.5966540  41.1461570  62.8308640  10.2430020  40.6261890
  62.8435800   9.8392310  39.7584150  62.2783860  11.0177310  40.5223320
  64.1254060   6.9646240  35.7152060  64.0150390   6.0220570  35.8401480
  64.1222310   7.3261880  36.6014820  62.2294080   5.1459860  41.9544500
  62.6462870   4.9319970  41.1197960  62.9533900   5.4032650  42.5253120
  59.6674340   2.5911560  35.0714550  58.7403620   2.5248940  35.3003020
  59.8199160   3.5291690  34.9569790  66.1756180   3.5447080  42.0460740
  65.3474810   3.6140170  41.5710870  66.7706660   4.1301390  41.5776570
  63.6971630   4.1531860  35.5749800  63.0784050   3.8151410  34.9276100
  63.6796080   3.5091620  36.2828990  55.2730980   3.1176300  37.8534280
  54.8687980   2.4053550  37.3580180  55.3594100   2.7729540  38.7422320
  55.7412680   6.8043860  40.0173490  55.4440970   6.1989330  39.3381270
  56.6912500   6.8421170  39.9062850  63.8298290  10.3775730  43.6796590
  63.3528850  11.1847920  43.4869200  63.1460080   9.7254060  43.8322800
  54.8331110   6.5425550  46.6681290  53.9359640   6.7665520  46.9154690
  54.8583980   6.6660490  45.7192690  61.8736330   3.3918670  32.5822550
  62.3129610   2.5541100  32.4360370  62.5864750   4.0248070  32.6686690
  53.6602330   3.4138870  45.2438660  53.5210100   4.2861670  45.6126060
  52.7783690   3.0711680  45.0986600  59.9831710   8.3314740  36.5503790
  60.4227620   9.0739070  36.1359180  59.9218600   8.5741310  37.4742750
  55.4582680   9.3560570  47.4523810  55.4298110   9.7603520  46.5852240
  55.2947650   8.4270930  47.2895410  67.4097500  10.1387670  48.7487980
  67.8857220  10.6170560  49.4277060  68.0304660  10.0705160  48.0233480
  49.6120980   5.1836420  41.1609570  49.6901400   5.3185190  40.2165290
  50.2262660   4.4752310  41.3537690  50.8568610   6.8836610  37.5715750
  50.4496690   7.0251200  36.7169350  51.7481620   6.5996770  37.3686960
  66.8130750   7.3300520  45.9087990  66.9393810   7.0912400  44.9905170
  66.8552130   6.4985060  46.3810070  60.6747490  11.0328520  44.4782800
  61.1892160  10.9436530  45.2805230  59.8316570  11.3788220  44.7710710
  62.6501890  11.3183860  33.9066800  62.4903030  11.0286800  34.8048630
  62.4848600  10.5423990  33.3712030  55.1290270  11.0982390  35.6838420
  54.9532750  10.1817930  35.4706220  54.2746010  11.4569680  35.9236220
  62.3528020   8.8271420  32.4664800  61.6593180   8.8248710  31.8067080
  63.0950880   8.4030740  32.0358970  61.9177950  10.4534130  36.5413290
  62.3734900   9.6723510  36.8551910  62.2570470  11.1640950  37.0854470
  49.6680500   6.2250590  43.7004030  49.8311540   5.7555950  42.8823400
  50.1332950   5.7174150  44.3652870  51.2419480   5.6002020  45.8599840
  50.8574270   4.9595690  46.4582800  51.5531670   6.3038140  46.4294570
  57.3916620   2.4478560  41.3408460  57.7586750   1.9737130  42.0869800
  57.2021680   3.3220130  41.6816800  53.7097780   5.6948190  34.2559520
  52.9360040   5.1545810  34.0958240  54.4392410   5.1754800  33.9177280
  64.4685760   4.6913550  40.0485910  65.1884880   5.1868840  39.6582020
  64.2667580   4.0131440  39.4039780  59.8504560   4.7622610  45.9354910
  59.7841870   3.8418280  45.6812500  59.2209700   4.8598050  46.6499550
  53.7535180   5.3628570  37.8938330  54.2713850   4.5596830  37.8395220
  53.3019200   5.3007710  38.7355160  58.6404680   6.6294850  33.1665630
  58.9820380   7.3737080  32.6708950  57.8117390   6.9425970  33.5290460
  54.4392840   2.7874180  47.6903580  54.1392980   2.9331360  46.7931400
  55.2104080   2.2279470  47.5976970  59.7821290   7.5843180  45.6858710
  59.7965830   6.6524140  45.4677620  59.0746390   7.6702940  46.3248480
  64.9158360   1.7683000  31.9557320  64.8322080   2.1997220  31.1053760
  65.6352550   2.2281350  32.3884140  65.9932500   4.2250520  45.0327290
  65.2680690   4.8179300  44.8356680  66.5207960   4.2174060  44.2340660
  65.9445610   8.6225260  34.6839450  65.3021770   7.9680880  34.9583170
  65.5576270   9.0280350  33.9080120  61.5232090   5.9510690  38.5311140
  61.8755910   5.3538820  37.8712510  60.6394420   5.6254920  38.7019390
  57.6095370   6.7108380  35.9381550  58.2966500   7.2577590  36.3189140
  56.8227790   7.2549110  35.9731160  49.7487770   2.3281200  31.4298630
  50.6182620   2.6106000  31.7134550  49.2578090   3.1417070  31.3147440
  56.9122580   3.7154410  35.5506910  57.3685360   4.5259660  35.7767100
  56.5610790   3.3977550  36.3825400  59.2155190   9.2260750  42.7799210
  59.8597410   9.4320130  43.4572630  59.5784630   8.4649150  42.3270060
  60.4887270   7.2293100  41.4976660  61.1309500   6.5286260  41.6108830
  61.0136620   8.0091540  41.3173550  64.3342990   7.5141720  31.2215800
  64.1080570   6.7972160  31.8140440  63.9439190   7.2654160  30.3837550
  62.2624890   8.0288000  44.7012720  62.5981130   8.6154690  45.3790640
  61.3425230   7.8980710  44.9310510  50.1159020  11.5408580  31.9960260
  50.4756660  12.1397920  31.3417530  49.9751360  12.0868470  32.7695290
  63.9159240   5.4313660  32.8829960  63.6280940   5.8926350  33.6707840
  64.7111410   4.9711430  33.1514180  50.1000880   9.8063440  46.4702660
  50.2092000   8.8658180  46.3298050  49.4481440  10.0718190  45.8216390
  58.0913470   8.0779330  47.8700780  57.7710340   7.3588570  48.4146470
  57.4171830   8.7534400  47.9436840  56.1327640   8.9239780  32.8133930
  56.1237740   9.6569470  32.1978440  55.2126000   8.6771360  32.9060890
  51.7334280   4.1454670  33.5580690  51.1262230   4.8853570  33.5675990
  52.2083630   4.2354030  32.7318890  59.1187240   8.9868020  31.4759120
  59.2199220   8.7832010  30.5461100  58.2188980   8.7326300  31.6806900
  57.7605350  11.5054340  36.1706790  58.0146850  11.4675730  35.2486160
  56.8117830  11.3787670  36.1635040  53.7439570   4.1065820  31.3069260
  54.5102840   3.9947180  31.8694690  53.8214260   3.4103790  30.6546030
  65.7683510   9.5955070  39.4219560  65.8930930  10.4186240  39.8943370
  66.6349070   9.3845800  39.0743710  53.2401040  11.6886280  39.0936690
  53.9763520  11.1401740  39.3645260  53.6241960  12.5542290  38.9542680
  50.1246520   7.7559850  34.9678200  49.1986300   7.9980990  34.9583610
  50.5902950   8.5834110  34.8462950  52.2459320  10.8732350  48.2822270
  53.0472050  11.1944400  48.6957670  51.7311140  10.5127930  49.0042180
  56.3503350  10.8616590  30.9162260  57.1431960  11.1505420  30.4644050
  55.8307700  10.4308760  30.2374740  61.0823950   6.9812220  48.2297680
  60.4762110   7.0043820  47.4893430  60.7778060   6.2495260  48.7664930
  62.5124320  10.7092510  46.8407090  63.4646070  10.6250530  46.7907330
  62.3652540  11.3734220  47.5140880  65.4033520  10.0886720  32.3399000
  65.1175030   9.6751860  31.5253180  65.2053070  11.0174430  32.2199520
  49.9657130   3.3605810  47.2258320  50.4696150   2.7813090  47.7974550
  49.2264550   3.6446040  47.7634690  56.8680750   6.0820000  30.7804610
  56.7631390   5.4672350  31.5065990  56.7004970   5.5585890  29.9967620
  57.0195070   4.7676800  46.7593840  56.2540740   5.3361800  46.6748510
  57.2011030   4.4753010  45.8662070  60.1083480   5.1440030  31.3846600
  59.5593580   5.5909330  32.0289340  60.7302740   4.6389280  31.9084270
  64.1618420   6.4982130  47.3168860  64.9027890   6.8357890  46.8136320
  63.3991100   6.6674190  46.7638630  55.7758600   4.1030950  33.2811900
  56.1975020   3.9370820  34.1243290  55.9009440   3.2931180  32.7867040
  58.2886240   3.1268560  30.5289000  58.8091900   2.4117580  30.1630150
  58.9354640   3.7654430  30.8289510  62.8364080   4.5496960  45.8524070
  63.2505100   4.7042040  46.7014490  61.9015080   4.6752180  46.0149850
  57.5979310   4.5017440  43.8220000  58.0167420   5.3450170  43.6496240
  56.6787940   4.6389480  43.5926780  62.2731110   2.7870810  43.7820350
  61.7466330   3.3113430  43.1785490  62.6162450   3.4198200  44.4130080
  55.4486730  10.8070450  44.9377730  54.9107820  11.5316510  44.6186430
  55.7020690  10.3300790  44.1475070  58.3048940  12.0421660  45.1964380
  58.2307640  12.9456800  45.5036750  57.4027780  11.7233560  45.1686450
  58.8534270  11.2080170  32.8190740  59.7485060  11.5465140  32.8409500
  58.8851900  10.4859580  32.1915020  52.4930430   6.5807220  31.0477740
  52.9305300   7.1236890  31.7035320  52.9778160   5.7554170  31.0574080
  49.7076230   9.3696250  38.4998000  50.0379240   8.5017310  38.2676640
  50.1367230   9.5754770  39.3302960  54.3038150   7.7005260  36.1599970
  54.0033690   7.5770230  37.0603880  54.1975640   6.8413850  35.7515700
  50.1966440  10.2366840  41.2379630  49.7597430  10.4167640  42.0703780
  50.7644120  10.9941460  41.0961350  65.8328620   9.7383840  45.5256940
  65.2330610   9.7976400  44.7820860  65.9622520   8.7988820  45.6553790
  67.0730070   7.4801660  30.8626650  66.2423030   7.5478310  31.3333880
  67.2501900   8.3705780  30.5593510  66.5286530   4.2249140  33.3660850
  67.2905440   4.7945790  33.4720540  66.5440900   3.6576340  34.1369160
  50.0290870   2.7487070  37.5968510  49.3739710   2.4798710  36.9528210
  50.8668820   2.6391550  37.1470490  67.5346500   5.0799240  38.2102780
  67.9055330   4.2966560  37.8038750  68.1748430   5.7688340  38.0320080
  64.5180260   6.4635820  43.6233100  63.7040100   6.8932980  43.8858890
  64.9254460   7.0754230  43.0102150  66.5805700   4.5183510  30.5233370
  66.8554540   5.4262390  30.3952590  66.3916440   4.4546040  31.4595360
  66.4771040   2.4552500  35.5162800  66.1014640   1.6880430  35.0844090
  65.7474160   2.8375200  36.0037730  51.0666800   3.1339640  42.1371850
  51.4339840   3.0467040  43.0167870  50.4977620   2.3706190  42.0378710
  64.5756310  11.2154420  37.1501370  65.1715380  10.8938990  36.4735790
  64.8334460  10.7426240  37.9414640  52.4818880   7.6472330  47.2992000
  52.4388510   7.2765240  48.1806460  52.6129890   8.5849900  47.4393820
  56.1824910   9.2031920  42.9001720  55.9416270   9.4706480  42.0132240
  57.1227550   9.3737650  42.9552580  67.4429070  11.2226300  43.7012360
  66.9487350  11.6195170  42.9839490  66.8342360  10.5975510  44.0949640
  52.3206910  10.5934580  44.4189780  51.7267230  10.4619280  45.1579820
  52.3130750   9.7572720  43.9531880  65.1268520  11.8649720  40.9799100
  64.6671490  12.6165530  40.6057120  64.4980980  11.1456190  40.9213900
  51.9519140   7.9592960  43.3697820  51.2253200   7.3398250  43.3023770
  52.0128290   8.3533570  42.4995900  55.5564240  10.1737960  40.1547230
  56.0729260   9.5625320  39.6295490  56.2061620  10.6766740  40.6458240
  58.2959740  11.0646450  40.9816210  58.5837550  10.8100750  40.1049220
  58.8082960  10.5123810  41.5721780  50.2349140  11.2767350  36.5794580
  50.0671180  10.6438030  37.2776470  49.3683650  11.4826750  36.2288770
  51.8411840   9.9700580  34.0244720  51.3159460  10.3508610  33.3206680
  51.7656420  10.5951350  34.7454430  58.3632100  11.9862550  48.3484410
  59.2899410  11.7506820  48.3920370  58.3482530  12.8134550  47.8670440
  66.5977160  11.5288120  35.3458660  66.7729350  10.8425860  34.7019580
  65.8998730  12.0535170  34.9535330  54.4404810  11.9182960  32.8993970
  55.1723630  11.6342240  32.3517860  54.6998480  11.6796240  33.7893350
  53.6019600   8.0347690  32.9040300  52.9728480   8.5032790  33.4526130
  53.7167430   7.1896910  33.3386490  64.9309660  11.2132410  48.1725450
  65.7234980  10.7181640  47.9651410  65.2242810  11.8922550  48.7801060
  59.1887360   3.8632370  20.9350770  58.4129460   3.3832810  21.2249340
  59.8400290   3.1838020  20.7606930  53.2053190   4.1752180  21.8126530
  52.3738070   3.9200890  22.2123040  53.8134170   4.2462950  22.5484450
  63.2094790   8.2692560  19.7149900  62.7476320   7.4979800  20.0437070
  64.0220340   8.2958630  20.2202350  53.1854450   8.2092270  22.0084550
  53.4882490   7.3190010  21.8294770  53.9298040   8.7662490  21.7806800
  59.4358100  10.5550570  19.3353890  58.8169540  11.0108070  18.7648330
  60.2909880  10.7102030  18.9343590  58.6296350   6.5389560  20.9420930
  58.5604630   5.5979500  20.7810060  59.3916210   6.6290970  21.5143500
  60.3021450   5.4389810  16.7285800  59.6838720   5.9039260  16.1648520
  60.8144700   6.1317290  17.1455310  55.1653210   4.9665680  23.4069400
  54.8322590   5.5934600  24.0490470  55.3419890   5.4927560  22.6271070
  54.3772310   6.9346480  25.2218580  54.9946310   7.6097560  24.9403030
  53.5165430   7.3434460  25.1306080  49.6704650   6.1246340  14.1025430
  49.2932630   6.6133440  13.3710330  49.9277720   6.7971620  14.7331960
  65.2949900   8.3985890  23.1373220  64.6113420   9.0685000  23.1289890
  65.8344190   8.5966540  22.3718080  62.8308640  10.2430020  21.8518400
  62.8435800   9.8392310  20.9840660  62.2783860  11.0177310  21.7479830
  64.1254060   6.9646240  16.9408570  64.0150390   6.0220570  17.0657990
  64.1222310   7.3261880  17.8271330  62.2294080   5.1459860  23.1801010
  62.6462870   4.9319970  22.3454470  62.9533900   5.4032650  23.7509630
  59.6674340   2.5911560  16.2971060  58.7403620   2.5248940  16.5259530
  59.8199160   3.5291690  16.1826300  66.1756180   3.5447080  23.2717250
  65.3474810   3.6140170  22.7967380  66.7706660   4.1301390  22.8033080
  63.6971630   4.1531860  16.8006310  63.0784050   3.8151410  16.1532610
  63.6796080   3.5091620  17.5085500  55.2730980   3.1176300  19.0790790
  54.8687980   2.4053550  18.5836690  55.3594100   2.7729540  19.9678830
  55.7412680   6.8043860  21.2430000  55.4440970   6.1989330  20.5637780
  56.6912500   6.8421170  21.1319360  63.8298290  10.3775730  24.9053100
  63.3528850  11.1847920  24.7125710  63.1460080   9.7254060  25.0579310
  54.8331110   6.5425550  27.8937800  53.9359640   6.7665520  28.1411200
  54.8583980   6.6660490  26.9449200  61.8736330   3.3918670  13.8079060
  62.3129610   2.5541100  13.6616880  62.5864750   4.0248070  13.8943200
  53.6602330   3.4138870  26.4695170  53.5210100   4.2861670  26.8382570
  52.7783690   3.0711680  26.3243110  59.9831710   8.3314740  17.7760300
  60.4227620   9.0739070  17.3615690  59.9218600   8.5741310  18.6999260
  55.4582680   9.3560570  28.6780320  55.4298110   9.7603520  27.8108750
  55.2947650   8.4270930  28.5151920  67.4097500  10.1387670  29.9744490
  67.8857220  10.6170560  30.6533570  68.0304660  10.0705160  29.2489990
  49.6120980   5.1836420  22.3866080  49.6901400   5.3185190  21.4421800
  50.2262660   4.4752310  22.5794200  50.8568610   6.8836610  18.7972260
  50.4496690   7.0251200  17.9425860  51.7481620   6.5996770  18.5943470
  66.8130750   7.3300520  27.1344500  66.9393810   7.0912400  26.2161680
  66.8552130   6.4985060  27.6066580  60.6747490  11.0328520  25.7039310
  61.1892160  10.9436530  26.5061740  59.8316570  11.3788220  25.9967220
  62.6501890  11.3183860  15.1323310  62.4903030  11.0286800  16.0305140
  62.4848600  10.5423990  14.5968540  55.1290270  11.0982390  16.9094930
  54.9532750  10.1817930  16.6962730  54.2746010  11.4569680  17.1492730
  62.3528020   8.8271420  13.6921310  61.6593180   8.8248710  13.0323590
  63.0950880   8.4030740  13.2615480  61.9177950  10.4534130  17.7669800
  62.3734900   9.6723510  18.0808420  62.2570470  11.1640950  18.3110980
  49.6680500   6.2250590  24.9260540  49.8311540   5.7555950  24.1079910
  50.1332950   5.7174150  25.5909380  51.2419480   5.6002020  27.0856350
  50.8574270   4.9595690  27.6839310  51.5531670   6.3038140  27.6551080
  57.3916620   2.4478560  22.5664970  57.7586750   1.9737130  23.3126310
  57.2021680   3.3220130  22.9073310  53.7097780   5.6948190  15.4816030
  52.9360040   5.1545810  15.3214750  54.4392410   5.1754800  15.1433790
  64.4685760   4.6913550  21.2742420  65.1884880   5.1868840  20.8838530
  64.2667580   4.0131440  20.6296290  59.8504560   4.7622610  27.1611420
  59.7841870   3.8418280  26.9069010  59.2209700   4.8598050  27.8756060
  53.7535180   5.3628570  19.1194840  54.2713850   4.5596830  19.0651730
  53.3019200   5.3007710  19.9611670  58.6404680   6.6294850  14.3922140
  58.9820380   7.3737080  13.8965460  57.8117390   6.9425970  14.7546970
  54.4392840   2.7874180  28.9160090  54.1392980   2.9331360  28.0187910
  55.2104080   2.2279470  28.8233480  59.7821290   7.5843180  26.9115220
  59.7965830   6.6524140  26.6934130  59.0746390   7.6702940  27.5504990
  64.9158360   1.7683000  13.1813830  64.8322080   2.1997220  12.3310270
  65.6352550   2.2281350  13.6140650  65.9932500   4.2250520  26.2583800
  65.2680690   4.8179300  26.0613190  66.5207960   4.2174060  25.4597170
  65.9445610   8.6225260  15.9095960  65.3021770   7.9680880  16.1839680
  65.5576270   9.0280350  15.1336630  61.5232090   5.9510690  19.7567650
  61.8755910   5.3538820  19.0969020  60.6394420   5.6254920  19.9275900
  57.6095370   6.7108380  17.1638060  58.2966500   7.2577590  17.5445650
  56.8227790   7.2549110  17.1987670  49.7487770   2.3281200  12.6555140
  50.6182620   2.6106000  12.9391060  49.2578090   3.1417070  12.5403950
  56.9122580   3.7154410  16.7763420  57.3685360   4.5259660  17.0023610
  56.5610790   3.3977550  17.6081910  59.2155190   9.2260750  24.0055720
  59.8597410   9.4320130  24.6829140  59.5784630   8.4649150  23.5526570
  60.4887270   7.2293100  22.7233170  61.1309500   6.5286260  22.8365340
  61.0136620   8.0091540  22.5430060  64.3342990   7.5141720  12.4472310
  64.1080570   6.7972160  13.0396950  63.9439190   7.2654160  11.6094060
  62.2624890   8.0288000  25.9269230  62.5981130   8.6154690  26.6047150
  61.3425230   7.8980710  26.1567020  50.1159020  11.5408580  13.2216770
  50.4756660  12.1397920  12.5674040  49.9751360  12.0868470  13.9951800
  63.9159240   5.4313660  14.1086470  63.6280940   5.8926350  14.8964350
  64.7111410   4.9711430  14.3770690  50.1000880   9.8063440  27.6959170
  50.2092000   8.8658180  27.5554560  49.4481440  10.0718190  27.0472900
  58.0913470   8.0779330  29.0957290  57.7710340   7.3588570  29.6402980
  57.4171830   8.7534400  29.1693350  56.1327640   8.9239780  14.0390440
  56.1237740   9.6569470  13.4234950  55.2126000   8.6771360  14.1317400
  51.7334280   4.1454670  14.7837200  51.1262230   4.8853570  14.7932500
  52.2083630   4.2354030  13.9575400  59.1187240   8.9868020  12.7015630
  59.2199220   8.7832010  11.7717610  58.2188980   8.7326300  12.9063410
  57.7605350  11.5054340  17.3963300  58.0146850  11.4675730  16.4742670
  56.8117830  11.3787670  17.3891550  53.7439570   4.1065820  12.5325770
  54.5102840   3.9947180  13.0951200  53.8214260   3.4103790  11.8802540
  65.7683510   9.5955070  20.6476070  65.8930930  10.4186240  21.1199880
  66.6349070   9.3845800  20.3000220  53.2401040  11.6886280  20.3193200
  53.9763520  11.1401740  20.5901770  53.6241960  12.5542290  20.1799190
  50.1246520   7.7559850  16.1934710  49.1986300   7.9980990  16.1840120
  50.5902950   8.5834110  16.0719460  52.2459320  10.8732350  29.5078780
  53.0472050  11.1944400  29.9214180  51.7311140  10.5127930  30.2298690
  56.3503350  10.8616590  12.1418770  57.1431960  11.1505420  11.6900560
  55.8307700  10.4308760  11.4631250  61.0823950   6.9812220  29.4554190
  60.4762110   7.0043820  28.7149940  60.7778060   6.2495260  29.9921440
  62.5124320  10.7092510  28.0663600  63.4646070  10.6250530  28.0163840
  62.3652540  11.3734220  28.7397390  65.4033520  10.0886720  13.5655510
  65.1175030   9.6751860  12.7509690  65.2053070  11.0174430  13.4456030
  49.9657130   3.3605810  28.4514830  50.4696150   2.7813090  29.0231060
  49.2264550   3.6446040  28.9891200  56.8680750   6.0820000  12.0061120
  56.7631390   5.4672350  12.7322500  56.7004970   5.5585890  11.2224130
  57.0195070   4.7676800  27.9850350  56.2540740   5.3361800  27.9005020
  57.2011030   4.4753010  27.0918580  60.1083480   5.1440030  12.6103110
  59.5593580   5.5909330  13.2545850  60.7302740   4.6389280  13.1340780
  64.1618420   6.4982130  28.5425370  64.9027890   6.8357890  28.0392830
  63.3991100   6.6674190  27.9895140  55.7758600   4.1030950  14.5068410
  56.1975020   3.9370820  15.3499800  55.9009440   3.2931180  14.0123550
  58.2886240   3.1268560  11.7545510  58.8091900   2.4117580  11.3886660
  58.9354640   3.7654430  12.0546020  62.8364080   4.5496960  27.0780580
  63.2505100   4.7042040  27.9271000  61.9015080   4.6752180  27.2406360
  57.5979310   4.5017440  25.0476510  58.0167420   5.3450170  24.8752750
  56.6787940   4.6389480  24.8183290  62.2731110   2.7870810  25.0076860
  61.7466330   3.3113430  24.4042000  62.6162450   3.4198200  25.6386590
  55.4486730  10.8070450  26.1634240  54.9107820  11.5316510  25.8442940
  55.7020690  10.3300790  25.3731580  58.3048940  12.0421660  26.4220890
  58.2307640  12.9456800  26.7293260  57.4027780  11.7233560  26.3942960
  58.8534270  11.2080170  14.0447250  59.7485060  11.5465140  14.0666010
  58.8851900  10.4859580  13.4171530  52.4930430   6.5807220  12.2734250
  52.9305300   7.1236890  12.9291830  52.9778160   5.7554170  12.2830590
  49.7076230   9.3696250  19.7254510  50.0379240   8.5017310  19.4933150
  50.1367230   9.5754770  20.5559470  54.3038150   7.7005260  17.3856480
  54.0033690   7.5770230  18.2860390  54.1975640   6.8413850  16.9772210
  50.1966440  10.2366840  22.4636140  49.7597430  10.4167640  23.2960290
  50.7644120  10.9941460  22.3217860  65.8328620   9.7383840  26.7513450
  65.2330610   9.7976400  26.0077370  65.9622520   8.7988820  26.8810300
  67.0730070   7.4801660  12.0883160  66.2423030   7.5478310  12.5590390
  67.2501900   8.3705780  11.7850020  66.5286530   4.2249140  14.5917360
  67.2905440   4.7945790  14.6977050  66.5440900   3.6576340  15.3625670
  50.0290870   2.7487070  18.8225020  49.3739710   2.4798710  18.1784720
  50.8668820   2.6391550  18.3727000  67.5346500   5.0799240  19.4359290
  67.9055330   4.2966560  19.0295260  68.1748430   5.7688340  19.2576590
  64.5180260   6.4635820  24.8489610  63.7040100   6.8932980  25.1115400
  64.9254460   7.0754230  24.2358660  66.5805700   4.5183510  11.7489880
  66.8554540   5.4262390  11.6209100  66.3916440   4.4546040  12.6851870
  66.4771040   2.4552500  16.7419310  66.1014640   1.6880430  16.3100600
  65.7474160   2.8375200  17.2294240  51.0666800   3.1339640  23.3628360
  51.4339840   3.0467040  24.2424380  50.4977620   2.3706190  23.2635220
  64.5756310  11.2154420  18.3757880  65.1715380  10.8938990  17.6992300
  64.8334460  10.7426240  19.1671150  52.4818880   7.6472330  28.5248510
  52.4388510   7.2765240  29.4062970  52.6129890   8.5849900  28.6650330
  56.1824910   9.2031920  24.1258230  55.9416270   9.4706480  23.2388750
  57.1227550   9.3737650  24.1809090  67.4429070  11.2226300  24.9268870
  66.9487350  11.6195170  24.2096000  66.8342360  10.5975510  25.3206150
  52.3206910  10.5934580  25.6446290  51.7267230  10.4619280  26.3836330
  52.3130750   9.7572720  25.1788390  65.1268520  11.8649720  22.2055610
  64.6671490  12.6165530  21.8313630  64.4980980  11.1456190  22.1470410
  51.9519140   7.9592960  24.5954330  51.2253200   7.3398250  24.5280280
  52.0128290   8.3533570  23.7252410  55.5564240  10.1737960  21.3803740
  56.0729260   9.5625320  20.8552000  56.2061620  10.6766740  21.8714750
  58.2959740  11.0646450  22.2072720  58.5837550  10.8100750  21.3305730
  58.8082960  10.5123810  22.7978290  50.2349140  11.2767350  17.8051090
  50.0671180  10.6438030  18.5032980  49.3683650  11.4826750  17.4545280
  51.8411840   9.9700580  15.2501230  51.3159460  10.3508610  14.5463190
  51.7656420  10.5951350  15.9710940  58.3632100  11.9862550  29.5740920
  59.2899410  11.7506820  29.6176880  58.3482530  12.8134550  29.0926950
  66.5977160  11.5288120  16.5715170  66.7729350  10.8425860  15.9276090
  65.8998730  12.0535170  16.1791840  54.4404810  11.9182960  14.1250480
  55.1723630  11.6342240  13.5774370  54.6998480  11.6796240  15.0149860
  53.6019600   8.0347690  14.1296810  52.9728480   8.5032790  14.6782640
  53.7167430   7.1896910  14.5643000  64.9309660  11.2132410  29.3981960
  65.7234980  10.7181640  29.1907920  65.2242810  11.8922550  30.0057570
  59.1887360   3.8632370   2.1607280  58.4129460   3.3832810   2.4505850
  59.8400290   3.1838020   1.9863440  53.2053190   4.1752180   3.0383040
  52.3738070   3.9200890   3.4379550  53.8134170   4.2462950   3.7740960
  53.1854450   8.2092270   3.2341060  53.4882490   7.3190010   3.0551280
  53.9298040   8.7662490   3.0063310  58.6296350   6.5389560   2.1677440
  58.5604630   5.5979500   2.0066570  59.3916210   6.6290970   2.7400010
  55.1653210   4.9665680   4.6325910  54.8322590   5.5934600   5.2746980
  55.3419890   5.4927560   3.8527580  54.3772310   6.9346480   6.4475090
  54.9946310   7.6097560   6.1659540  53.5165430   7.3434460   6.3562590
  65.2949900   8.3985890   4.3629730  64.6113420   9.0685000   4.3546400
  65.8344190   8.5966540   3.5974590  62.8308640  10.2430020   3.0774910
  62.8435800   9.8392310   2.2097170  62.2783860  11.0177310   2.9736340
  62.2294080   5.1459860   4.4057520  62.6462870   4.9319970   3.5710980
  62.9533900   5.4032650   4.9766140  66.1756180   3.5447080   4.4973760
  65.3474810   3.6140170   4.0223890  66.7706660   4.1301390   4.0289590
  55.7412680   6.8043860   2.4686510  55.4440970   6.1989330   1.7894290
  56.6912500   6.8421170   2.3575870  63.8298290  10.3775730   6.1309610
  63.3528850  11.1847920   5.9382220  63.1460080   9.7254060   6.2835820
  54.8331110   6.5425550   9.1194310  53.9359640   6.7665520   9.3667710
  54.8583980   6.6660490   8.1705710  53.6602330   3.4138870   7.6951680
  53.5210100   4.2861670   8.0639080  52.7783690   3.0711680   7.5499620
  55.4582680   9.3560570   9.9036830  55.4298110   9.7603520   9.0365260
  55.2947650   8.4270930   9.7408430  67.4097500  10.1387670  11.2001000
  67.8857220  10.6170560  11.8790080  68.0304660  10.0705160  10.4746500
  49.6120980   5.1836420   3.6122590  49.6901400   5.3185190   2.6678310
  50.2262660   4.4752310   3.8050710  66.8130750   7.3300520   8.3601010
  66.9393810   7.0912400   7.4418190  66.8552130   6.4985060   8.8323090
  60.6747490  11.0328520   6.9295820  61.1892160  10.9436530   7.7318250
  59.8316570  11.3788220   7.2223730  49.6680500   6.2250590   6.1517050
  49.8311540   5.7555950   5.3336420  50.1332950   5.7174150   6.8165890
  51.2419480   5.6002020   8.3112860  50.8574270   4.9595690   8.9095820
  51.5531670   6.3038140   8.8807590  57.3916620   2.4478560   3.7921480
  57.7586750   1.9737130   4.5382820  57.2021680   3.3220130   4.1329820
  64.4685760   4.6913550   2.4998930  65.1884880   5.1868840   2.1095040
  64.2667580   4.0131440   1.8552800  59.8504560   4.7622610   8.3867930
  59.7841870   3.8418280   8.1325520  59.2209700   4.8598050   9.1012570
  54.4392840   2.7874180  10.1416600  54.1392980   2.9331360   9.2444420
  55.2104080   2.2279470  10.0489990  59.7821290   7.5843180   8.1371730
  59.7965830   6.6524140   7.9190640  59.0746390   7.6702940   8.7761500
  65.9932500   4.2250520   7.4840310  65.2680690   4.8179300   7.2869700
  66.5207960   4.2174060   6.6853680  59.2155190   9.2260750   5.2312230
  59.8597410   9.4320130   5.9085650  59.5784630   8.4649150   4.7783080
  60.4887270   7.2293100   3.9489680  61.1309500   6.5286260   4.0621850
  61.0136620   8.0091540   3.7686570  62.2624890   8.0288000   7.1525740
  62.5981130   8.6154690   7.8303660  61.3425230   7.8980710   7.3823530
  50.1000880   9.8063440   8.9215680  50.2092000   8.8658180   8.7811070
  49.4481440  10.0718190   8.2729410  58.0913470   8.0779330  10.3213800
  57.7710340   7.3588570  10.8659490  57.4171830   8.7534400  10.3949860
  52.2459320  10.8732350  10.7335290  53.0472050  11.1944400  11.1470690
  51.7311140  10.5127930  11.4555200  61.0823950   6.9812220  10.6810700
  60.4762110   7.0043820   9.9406450  60.7778060   6.2495260  11.2177950
  62.5124320  10.7092510   9.2920110  63.4646070  10.6250530   9.2420350
  62.3652540  11.3734220   9.9653900  49.9657130   3.3605810   9.6771340
  50.4696150   2.7813090  10.2487570  49.2264550   3.6446040  10.2147710
  57.0195070   4.7676800   9.2106860  56.2540740   5.3361800   9.1261530
  57.2011030   4.4753010   8.3175090  64.1618420   6.4982130   9.7681880
  64.9027890   6.8357890   9.2649340  63.3991100   6.6674190   9.2151650
  62.8364080   4.5496960   8.3037090  63.2505100   4.7042040   9.1527510
  61.9015080   4.6752180   8.4662870  57.5979310   4.5017440   6.2733020
  58.0167420   5.3450170   6.1009260  56.6787940   4.6389480   6.0439800
  62.2731110   2.7870810   6.2333370  61.7466330   3.3113430   5.6298510
  62.6162450   3.4198200   6.8643100  55.4486730  10.8070450   7.3890750
  54.9107820  11.5316510   7.0699450  55.7020690  10.3300790   6.5988090
  58.3048940  12.0421660   7.6477400  58.2307640  12.9456800   7.9549770
  57.4027780  11.7233560   7.6199470  50.1966440  10.2366840   3.6892650
  49.7597430  10.4167640   4.5216800  50.7644120  10.9941460   3.5474370
  65.8328620   9.7383840   7.9769960  65.2330610   9.7976400   7.2333880
  65.9622520   8.7988820   8.1066810  64.5180260   6.4635820   6.0746120
  63.7040100   6.8932980   6.3371910  64.9254460   7.0754230   5.4615170
  51.0666800   3.1339640   4.5884870  51.4339840   3.0467040   5.4680890
  50.4977620   2.3706190   4.4891730  52.4818880   7.6472330   9.7505020
  52.4388510   7.2765240  10.6319480  52.6129890   8.5849900   9.8906840
  56.1824910   9.2031920   5.3514740  55.9416270   9.4706480   4.4645260
  57.1227550   9.3737650   5.4065600  67.4429070  11.2226300   6.1525380
  66.9487350  11.6195170   5.4352510  66.8342360  10.5975510   6.5462660
  52.3206910  10.5934580   6.8702800  51.7267230  10.4619280   7.6092840
  52.3130750   9.7572720   6.4044900  65.1268520  11.8649720   3.4312120
  64.6671490  12.6165530   3.0570140  64.4980980  11.1456190   3.3726920
  51.9519140   7.9592960   5.8210840  51.2253200   7.3398250   5.7536790
  52.0128290   8.3533570   4.9508920  55.5564240  10.1737960   2.6060250
  56.0729260   9.5625320   2.0808510  56.2061620  10.6766740   3.0971260
  58.2959740  11.0646450   3.4329230  58.5837550  10.8100750   2.5562240
  58.8082960  10.5123810   4.0234800  58.3632100  11.9862550  10.7997430
  59.2899410  11.7506820  10.8433390  58.3482530  12.8134550  10.3183460
  64.9309660  11.2132410  10.6238470  65.7234980  10.7181640  10.4164430
  65.2242810  11.8922550  11.2314080  42.2825830 152.2801270 150.4745930
  42.2019880 151.3655880 150.2037640  41.8690250 152.7768340 149.7685640
  32.8401650 149.3301990 147.0173350  31.9518350 149.6717960 146.9153230
  33.1242840 149.1302310 146.1254180  35.0163040 147.9133490 148.0511730
  35.1229790 148.8137220 148.3580490  34.1055400 147.8651460 147.7606380
  44.6682150 147.0358300 149.5222630  45.4891770 146.5454870 149.5648110
  44.7016230 147.6255960 150.2754470  38.5050090 144.7210650 150.9815370
  38.8125070 144.1657540 150.2650870  37.5750790 144.8555110 150.7988360
  40.8930850 152.7859480 147.7175490  39.9660130 152.7196860 147.9463960
  41.0455670 153.7239610 147.6030730  40.8799930 149.0576480 144.7142650
  39.9403600 149.2190440 144.7995110  41.1983190 149.7762160 144.1678640
  36.4987490 153.3124220 150.4995220  36.0944490 152.6001470 150.0041120
  36.5850610 152.9677460 151.3883260  43.0992840 153.5866590 145.2283490
  43.5386120 152.7489020 145.0821310  43.8121260 154.2195990 145.3147630
  46.6809980 144.8409400 143.5424530  46.3682640 144.9336230 144.4423600
  47.4422450 145.4190430 143.4921960  33.1992120 152.2069200 148.0001870
  33.0789720 152.9331290 147.3883140  32.8893010 151.4372110 147.5229780
  35.6655780 145.5504270 151.3825540  35.2223930 146.3313810 151.0510060
  36.2240770 145.8734160 152.0896480  38.7814600 145.1714970 146.2631370
  38.1568780 145.1674840 146.9884680  38.6944720 144.3045930 145.8667340
  35.4570000 150.6737840 149.1106790  35.2310920 150.4575010 150.0153410
  34.6762530 151.1066300 148.7652760  42.6867760 150.6801210 147.7097440
  42.0876650 151.4037010 147.5261060  43.2347370 150.6177990 146.9273890
  41.2932630 149.3164750 149.7400720  41.6862200 149.6336950 148.9269410
  41.6549480 148.4376630 149.8545240  30.5167030 149.8485670 143.1733640
  30.4341700 150.7916430 143.3148630  30.1650090 149.7060580 142.2945990
  38.3165160 148.5824700 152.2403990  38.3201220 148.1414650 151.3908530
  39.2116280 148.9042030 152.3475810  34.1667540 148.4651190 151.1998200
  33.8267590 148.9426420 151.9565250  33.4044860 148.0116310 150.8399300
  38.3785310 149.5836780 145.2310750  38.4998130 149.5423260 146.1796570
  37.9933820 150.4460930 145.0757480  37.3906810 151.8937920 144.6294050
  36.8223710 151.4456170 144.0029960  38.0995810 152.2530700 144.0959200
  31.4813620 147.3870170 150.1162870  31.1960540 147.0225840 150.9541490
  31.4192480 146.6550630 149.5026010  41.1552210 146.2799430 146.8376240
  40.3416820 145.7812600 146.7621550  40.9614160 147.1197680 146.4212590
  43.8700600 150.6519080 145.1338400  44.7580220 150.9636310 144.9589740
  43.8405690 149.7791330 144.7418980  46.1414870 151.9630920 144.6018260
  46.0578590 152.3945140 143.7514700  46.8609060 152.4229270 145.0345080
  30.9744280 152.5229120 144.0759570  31.8439130 152.8053920 144.3595490
  30.4834600 153.3364990 143.9608380  34.0390870 144.2539980 148.6690370
  33.9105500 144.2457880 149.6175290  33.2152890 144.5923070 148.3181380
  45.8985610 147.4610350 146.6886080  45.2698770 147.5656020 145.9744310
  45.4037530 147.6807130 147.4779960  37.8669640 149.7396300 148.1043960
  37.1585790 150.2082640 148.5457570  38.1514120 149.0818310 148.7389150
  41.8985070 146.4646960 149.5439750  41.7752850 146.4833090 148.5949260
  42.8469630 146.5125900 149.6638150  36.0704660 148.0481380 145.4794670
  36.9195190 148.4851530 145.4134860  35.7035930 148.3601640 146.3066730
  44.9914440 152.6194140 150.3926240  44.0504580 152.6344370 150.5673930
  45.3058510 151.8330100 150.8386540  34.9696080 154.3013740 143.9530200
  35.7359350 154.1895100 144.5155630  35.0470770 153.6051710 143.3006970
  33.6642840 151.7338810 144.6363090  33.7446430 150.7866320 144.7480490
  34.5562590 152.0645690 144.7423750  37.0015110 154.2978870 145.9272840
  37.4231530 154.1318740 146.7704230  37.1265950 153.4879100 145.4327980
  39.5142750 153.3216480 143.1749940  40.0348410 152.6065500 142.8091090
  40.1611150 153.9602350 143.4750450  35.8974010 150.3712100 142.8731000
  35.6963070 149.5079460 143.2344340  35.7266060 150.2845460 141.9352600
  43.3762320 145.1820330 145.4017880  43.6564610 144.3388230 145.7577300
  42.6028050 145.4143440 145.9156630  34.6956810 147.4712720 142.8608880
  34.9982710 147.4780150 141.9528030  35.4351400 147.1210580 143.3576540
  37.9141740 146.4147340 143.8465080  37.5663740 145.7371330 143.2667530
  38.1154510 145.9536850 144.6608470  31.2547380 152.9434990 150.2429450
  30.5996220 152.6746630 149.5989150  32.0925330 152.8339470 149.7931430
  44.2037820 147.7376280 144.4647940  44.6222700 147.5507260 143.6244600
  43.8973880 146.8855330 144.7750870  47.7027550 152.6500420 148.1623740
  47.3271150 151.8828350 147.7305030  46.9730670 153.0323120 148.6498670
  30.4685460 150.1533920 146.1854780  29.5649540 150.4164120 146.0106440
  30.9526080 150.4245090 145.4054740  46.9778510 150.8757910 151.4630980
  47.5015990 150.3820560 150.8321150  47.5637930 151.0108270 152.2078550
  33.0112670 149.2099460 144.0949160  33.7204370 148.7882680 143.6096440
  32.2952610 149.2774690 143.4632510  32.6586830 145.2638790 143.1351810
  33.3814960 145.8047730 143.4533030  32.9311350 144.9902210 142.2593350
  46.4678480 150.1331260 147.4023390  46.9637600 149.9002130 148.1872270
  46.2694550 149.2943100 146.9861030  47.8965640 148.7692210 149.9361070
  47.7864920 148.6148250 150.8743340  48.6573230 148.2413150 149.6936480
  48.7855910 146.6000130 143.1767210  49.7105220 146.4681310 142.9685500
  48.7631700 146.6792950 144.1303660  48.8594400 147.3710790 145.8023920
  48.0645900 147.3055910 146.3316830  49.0637680 148.3061430 145.7909270
  45.2914330 145.7007670 152.2522750  45.7322420 145.6452770 151.4044350
  45.0221920 146.6165680 152.3232930  47.1552900 145.3322910 150.2631570
  47.0941300 144.3884130 150.1162590  47.9344930 145.4403000 150.8085030
  32.0833670 145.3032050 146.7287380  32.8413030 145.4160930 146.1551410
  31.6210840 146.1401250 146.6830810  38.6247480 147.4171320 149.7189690
  37.8121990 147.0428210 149.3785570  39.1289120 146.6616400 150.0210880
  43.1272460 144.0813770 150.9572760  43.7301830 144.6533980 151.4321280
  42.3865450 144.6453210 150.7346660  46.2707060 144.4835330 146.2313040
  46.4657690 145.3818780 146.4980470  45.4836930 144.2522410 146.7245990
  34.4558820 145.8296100 145.2689350  34.9851580 145.0425900 145.1397300
  35.0887140 146.5087290 145.5024880  36.6496660 145.5671240 148.3234740
  36.0199400 144.8658550 148.4904870  36.1101800 146.3275370 148.1067900
  42.2825830 152.2801270 131.7002440  42.2019880 151.3655880 131.4294150
  41.8690250 152.7768340 130.9942150  40.4143870 154.0580290 133.5811710
  39.6385970 153.5780730 133.8710280  41.0656800 153.3785940 133.4067870
  32.8401650 149.3301990 128.2429860  31.9518350 149.6717960 128.1409740
  33.1242840 149.1302310 127.3510690  30.8034660 151.9307640 134.1269560
  31.3750770 151.1629840 134.1273200  30.8036200 152.2296400 133.2176170
  32.0459530 147.3392000 135.9138490  31.8662370 146.4417750 136.1941250
  31.6439610 147.8863870 136.5885440  40.8858030 149.5407860 133.8150800
  41.2622850 148.6679740 133.7024470  40.7877540 149.8766560 132.9241240
  35.0163040 147.9133490 129.2768240  35.1229790 148.8137220 129.5837000
  34.1055400 147.8651460 128.9862890  44.6682150 147.0358300 130.7479140
  45.4891770 146.5454870 130.7904620  44.7016230 147.6255960 131.5010980
  32.6646200 149.8352500 134.5220830  33.3456310 150.0990870 135.1408230
  32.3494250 148.9953370 134.8558840  36.8570770 150.8819860 133.6093420
  37.3648990 151.3800830 134.2498440  37.3884010 150.1055060 133.4332780
  48.9581700 149.0525050 137.3122770  48.2533870 149.4406760 136.7937880
  49.2239620 149.7475340 137.9143700  35.1406870 145.5218420 137.8756840
  35.1425310 146.0390810 137.0702740  34.3111180 145.0448600 137.8526770
  44.9043630 148.9758680 133.5206680  44.1999200 149.2643570 134.1009790
  45.2655790 149.7858790 133.1606240  34.8222200 147.2328380 135.8827290
  35.1639010 148.0770430 135.5881160  33.8838010 147.3812120 135.9992630
  47.9730550 148.4213470 133.9115890  47.0255460 148.4552450 134.0431320
  48.2980540 149.2352420 134.2965250  38.5050090 144.7210650 132.2071880
  38.8125070 144.1657540 131.4907380  37.5750790 144.8555110 132.0244870
  40.8930850 152.7859480 128.9432000  39.9660130 152.7196860 129.1720470
  41.0455670 153.7239610 128.8287240  40.8799930 149.0576480 125.9399160
  39.9403600 149.2190440 126.0251620  41.1983190 149.7762160 125.3935150
  44.3654700 150.5264320 136.8633060  43.9525880 151.3518030 137.1173050
  43.6330650 149.9409360 136.6709420  36.4987490 153.3124220 131.7251730
  36.0944490 152.6001470 131.2297630  36.5850610 152.9677460 132.6139770
  35.2116110 150.0867430 135.5050770  35.7630700 150.1962770 134.7304020
  35.7259620 150.4605030 136.2206000  43.0992840 153.5866590 126.4540000
  43.5386120 152.7489020 126.3077820  43.8121260 154.2195990 126.5404140
  46.6809980 144.8409400 124.7681040  46.3682640 144.9336230 125.6680110
  47.4422450 145.4190430 124.7178470  33.1992120 152.2069200 129.2258380
  33.0789720 152.9331290 128.6139650  32.8893010 151.4372110 128.7486290
  47.8911270 149.5780900 140.7455180  47.2755540 150.0860570 140.2170640
  47.5707690 148.6779230 140.6881120  35.6655780 145.5504270 132.6082050
  35.2223930 146.3313810 132.2766570  36.2240770 145.8734160 133.3152990
  39.9525590 148.4172790 138.2117370  39.4904960 148.6255810 139.0237310
  39.5503700 147.6032140 137.9088040  44.9530100 149.6381740 139.3414030
  44.1023690 149.3387490 139.6623100  44.7931890 149.8823750 138.4297850
  42.0479810 151.1383490 141.4412820  42.3733220 150.3047240 141.1015050
  42.8360140 151.6612010 141.5891150  38.7814600 145.1714970 127.4887880
  38.1568780 145.1674840 128.2141190  38.6944720 144.3045930 127.0923850
  37.7031680 146.0951600 134.4671650  38.0004010 147.0014430 134.3863670
  38.2517240 145.6070380 133.8531220  35.4570000 150.6737840 130.3363300
  35.2310920 150.4575010 131.2409920  34.6762530 151.1066300 129.9909270
  42.6867760 150.6801210 128.9353950  42.0876650 151.4037010 128.7517570
  43.2347370 150.6177990 128.1530400  37.8969210 151.5723420 141.0023570
  37.8012810 150.6318150 140.8523970  38.7401190 151.7938490 140.6071640
  41.2932630 149.3164750 130.9657230  41.6862200 149.6336950 130.1525920
  41.6549480 148.4376630 131.0801750  33.0279750 147.9837090 139.1557350
  32.6343140 148.8312300 139.3630130  32.3398150 147.3463460 139.3465990
  39.6024800 148.0672060 142.2254090  38.9123120 147.8744260 142.8600180
  40.3457100 148.3506700 142.7578390  30.3296800 145.9065550 133.1887430
  30.0409850 146.4768410 133.9012410  31.0742560 145.4270000 133.5518660
  30.5167030 149.8485670 124.3990150  30.4341700 150.7916430 124.5405140
  30.1650090 149.7060580 123.5202500  41.8787770 151.9070500 135.0608010
  41.1468890 152.4157310 135.4098110  41.4812110 151.0900480 134.7596790
  38.3165160 148.5824700 133.4660500  38.3201220 148.1414650 132.6165040
  39.2116280 148.9042030 133.5732320  34.1667540 148.4651190 132.4254710
  33.8267590 148.9426420 133.1821760  33.4044860 148.0116310 132.0655810
  38.3785310 149.5836780 126.4567260  38.4998130 149.5423260 127.4053080
  37.9933820 150.4460930 126.3013990  42.3413680 147.3604180 134.4730950
  42.3586420 147.8112830 135.3172800  42.0929260 146.4609820 134.6864390
  37.3906810 151.8937920 125.8550560  36.8223710 151.4456170 125.2286470
  38.0995810 152.2530700 125.3215710  45.7684430 144.7736360 140.3117330
  46.0930200 144.0426020 140.8375310  45.8040940 144.4550000 139.4098320
  38.6173130 152.6426480 135.2125910  38.9843260 152.1685050 135.9587250
  38.4278190 153.5168050 135.5534250  31.4813620 147.3870170 131.3419380
  31.1960540 147.0225840 132.1798000  31.4192480 146.6550630 130.7282520
  36.4072500 151.6835120 137.5310120  36.1029570 152.5627100 137.7560480
  37.3618960 151.7434910 137.5667560  41.1552210 146.2799430 128.0632750
  40.3416820 145.7812600 127.9878060  40.9614160 147.1197680 127.6469100
  43.8700600 150.6519080 126.3594910  44.7580220 150.9636310 126.1846250
  43.8405690 149.7791330 125.9675490  32.4636230 152.5237860 138.6781480
  32.1051170 153.1891710 139.2654820  32.1690790 151.6921410 139.0494100
  35.6649350 152.9822100 141.5621030  35.3649490 153.1279280 140.6648850
  36.4360590 152.4227390 141.4694420  46.1414870 151.9630920 125.8274770
  46.0578590 152.3945140 124.9771210  46.8609060 152.4229270 126.2601590
  30.9744280 152.5229120 125.3016080  31.8439130 152.8053920 125.5852000
  30.4834600 153.3364990 125.1864890  34.0390870 144.2539980 129.8946880
  33.9105500 144.2457880 130.8431800  33.2152890 144.5923070 129.5437890
  31.0384800 146.0131100 139.3553580  30.3243320 146.2128020 139.9606190
  31.4579840 145.2370670 139.7268380  42.5323580 148.5053410 137.1055030
  42.9004400 147.6848620 137.4334600  41.6721780 148.5655300 137.5210680
  45.8985610 147.4610350 127.9142590  45.2698770 147.5656020 127.2000820
  45.4037530 147.6807130 128.7036470  37.8669640 149.7396300 129.3300470
  37.1585790 150.2082640 129.7714080  38.1514120 149.0818310 129.9645660
  39.4925570 151.1593000 137.3293000  39.9910820 151.6338820 137.9944850
  39.6348520 150.2356520 137.5363030  41.8985070 146.4646960 130.7696260
  41.7752850 146.4833090 129.8205770  42.8469630 146.5125900 130.8894660
  36.0704660 148.0481380 126.7051180  36.9195190 148.4851530 126.6391370
  35.7035930 148.3601640 127.5323240  46.6992430 147.3760960 138.1721390
  46.1966030 148.1166360 138.5115200  47.5149090 147.7644960 137.8558180
  44.9914440 152.6194140 131.6182750  44.0504580 152.6344370 131.7930440
  45.3058510 151.8330100 132.0643050  34.9696080 154.3013740 125.1786710
  35.7359350 154.1895100 125.7412140  35.0470770 153.6051710 124.5263480
  33.6642840 151.7338810 125.8619600  33.7446430 150.7866320 125.9737000
  34.5562590 152.0645690 125.9680260  31.1913640 153.5553730 141.0975770
  31.6952660 152.9761010 141.6692000  30.4521060 153.8393960 141.6352140
  33.2236720 151.6983320 141.9925840  33.2642060 151.3997190 142.9011070
  34.0782220 152.0990930 141.8333360  37.0015110 154.2978870 127.1529350
  37.4231530 154.1318740 127.9960740  37.1265950 153.4879100 126.6584490
  35.1642530 150.2775420 139.9600330  34.6338990 149.7866370 139.3323670
  35.8330600 150.7059620 139.4258260  39.5142750 153.3216480 124.4006450
  40.0348410 152.6065500 124.0347600  40.1611150 153.9602350 124.7006960
  44.5342760 152.0841040 141.7280670  45.1163530 151.3293360 141.6401150
  44.7104530 152.6148480 140.9512150  35.6514830 147.2437790 140.0397620
  35.5571700 146.6258540 139.3148490  35.0712220 147.9704080 139.8127530
  38.4176270 145.8011030 137.0725010  37.9693570 145.8235290 136.2270560
  37.7841470 145.4030050 137.6695310  41.1599720 152.4281540 139.0775290
  41.2795930 151.8322680 139.8170130  42.0193720 152.4651230 138.6576590
  43.4987620 152.9818730 137.6537800  42.9722840 153.5061350 137.0502940
  43.8418960 153.6146120 138.2847530  35.8974010 150.3712100 124.0987510
  35.6963070 149.5079460 124.4600850  35.7266060 150.2845460 123.1609110
  37.9268490 148.9702890 140.3351110  38.5168180 148.6618740 141.0228930
  37.1088730 148.4982640 140.4911010  42.7461920 148.5868700 140.5684130
  42.0577440 147.9250240 140.5034120  43.4667940 148.1406970 141.0132590
  43.3762320 145.1820330 126.6274390  43.6564610 144.3388230 126.9833810
  42.6028050 145.4143440 127.1413140  34.6956810 147.4712720 124.0865390
  34.9982710 147.4780150 123.1784540  35.4351400 147.1210580 124.5833050
  37.9141740 146.4147340 125.0721590  37.5663740 145.7371330 124.4924040
  38.1154510 145.9536850 125.8864980  31.2547380 152.9434990 131.4685960
  30.5996220 152.6746630 130.8245660  32.0925330 152.8339470 131.0187940
  44.2037820 147.7376280 125.6904450  44.6222700 147.5507260 124.8501110
  43.8973880 146.8855330 126.0007380  47.7027550 152.6500420 129.3880250
  47.3271150 151.8828350 128.9561540  46.9730670 153.0323120 129.8755180
  32.2923310 153.3287560 136.0089300  32.6596350 153.2414960 136.8885320
  31.7234130 152.5654110 135.9096160  47.0927170 151.7971940 139.0219770
  46.8613260 151.5684690 138.1217720  47.3531720 152.7171490 138.9764660
  31.8439310 150.2396650 139.9147720  30.9495360 150.2063410 140.2541430
  32.3836860 150.4383440 140.6798970  45.5315240 147.0228370 141.7999470
  46.4085420 147.0311770 142.1833470  45.5436080 146.2859210 141.1891820
  30.4685460 150.1533920 127.4111290  29.5649540 150.4164120 127.2362950
  30.9526080 150.4245090 126.6311250  46.9778510 150.8757910 132.6887490
  47.5015990 150.3820560 132.0577660  47.5637930 151.0108270 133.4335060
  47.1568230 150.9597780 136.2107040  46.2070940 150.9261320 136.3252030
  47.3381240 151.8697890 135.9756810  33.0112670 149.2099460 125.3205670
  33.7204370 148.7882680 124.8352950  32.2952610 149.2774690 124.6889020
  32.6586830 145.2638790 124.3608320  33.3814960 145.8047730 124.6789540
  32.9311350 144.9902210 123.4849860  46.4678480 150.1331260 128.6279900
  46.9637600 149.9002130 129.4128780  46.2694550 149.2943100 128.2117540
  32.3479020 144.5144980 134.2630940  32.9955210 143.9642360 133.8226100
  32.7680860 144.7688130 135.0846750  47.8965640 148.7692210 131.1617580
  47.7864920 148.6148250 132.0999850  48.6573230 148.2413150 130.9192990
  46.2431360 144.7086340 137.6200580  46.8803580 145.3220480 137.9859770
  46.3906250 144.7447000 136.6749810  48.7855910 146.6000130 124.4023720
  49.7105220 146.4681310 124.1942010  48.7631700 146.6792950 125.3560170
  48.8594400 147.3710790 127.0280430  48.0645900 147.3055910 127.5573340
  49.0637680 148.3061430 127.0165780  32.1011020 144.6700650 137.0056260
  31.7525840 145.1264470 137.7714440  31.7698720 143.7757780 137.0878690
  39.6135840 145.8612530 140.5275680  39.5524730 146.4534360 141.2771090
  40.5536220 145.7538490 140.3825940  42.2510400 145.5182590 140.1667970
  42.8650810 145.8361880 139.5049050  42.7959960 145.0331180 140.7863830
  32.7731660 144.1976850 140.2807030  33.3214650 144.0164900 139.5173140
  32.8386970 143.4070960 140.8163340  42.9918440 144.0814730 136.4937260
  42.1178280 144.4149840 136.2910190  42.8829190 143.6087910 137.3189130
  43.8990420 146.2885600 137.8778980  43.5703780 145.4737360 137.4980710
  44.8472720 146.2455410 137.7544670  40.7393260 144.9984570 135.4330170
  39.9565050 145.4730070 135.7126930  40.4456190 144.0939400 135.3243350
  45.2914330 145.7007670 133.4779260  45.7322420 145.6452770 132.6300860
  45.0221920 146.6165680 133.5489440  47.1552900 145.3322910 131.4888080
  47.0941300 144.3884130 131.3419100  47.9344930 145.4403000 132.0341540
  32.0833670 145.3032050 127.9543890  32.8413030 145.4160930 127.3807920
  31.6210840 146.1401250 127.9087320  38.6247480 147.4171320 130.9446200
  37.8121990 147.0428210 130.6042080  39.1289120 146.6616400 131.2467390
  43.1272460 144.0813770 132.1829270  43.7301830 144.6533980 132.6577790
  42.3865450 144.6453210 131.9603170  46.2707060 144.4835330 127.4569550
  46.4657690 145.3818780 127.7236980  45.4836930 144.2522410 127.9502500
  34.4558820 145.8296100 126.4945860  34.9851580 145.0425900 126.3653810
  35.0887140 146.5087290 126.7281390  36.6496660 145.5671240 129.5491250
  36.0199400 144.8658550 129.7161380  36.1101800 146.3275370 129.3324410
  36.7752220 144.8455220 141.9843740  36.4936490 145.3488820 141.2204560
  37.1571920 144.0476970 141.6185870  43.3767680 144.2608800 142.5624210
  43.2633130 144.5803410 143.4575730  44.1937420 144.6621310 142.2661490
  42.2825830 152.2801270 112.9258950  42.2019880 151.3655880 112.6550660
  41.8690250 152.7768340 112.2198660  40.4143870 154.0580290 114.8068220
  39.6385970 153.5780730 115.0966790  41.0656800 153.3785940 114.6324380
  32.8401650 149.3301990 109.4686370  31.9518350 149.6717960 109.3666250
  33.1242840 149.1302310 108.5767200  30.8034660 151.9307640 115.3526070
  31.3750770 151.1629840 115.3529710  30.8036200 152.2296400 114.4432680
  32.0459530 147.3392000 117.1395000  31.8662370 146.4417750 117.4197760
  31.6439610 147.8863870 117.8141950  40.8858030 149.5407860 115.0407310
  41.2622850 148.6679740 114.9280980  40.7877540 149.8766560 114.1497750
  35.0163040 147.9133490 110.5024750  35.1229790 148.8137220 110.8093510
  34.1055400 147.8651460 110.2119400  44.6682150 147.0358300 111.9735650
  45.4891770 146.5454870 112.0161130  44.7016230 147.6255960 112.7267490
  32.6646200 149.8352500 115.7477340  33.3456310 150.0990870 116.3664740
  32.3494250 148.9953370 116.0815350  36.8570770 150.8819860 114.8349930
  37.3648990 151.3800830 115.4754950  37.3884010 150.1055060 114.6589290
  48.9581700 149.0525050 118.5379280  48.2533870 149.4406760 118.0194390
  49.2239620 149.7475340 119.1400210  35.1406870 145.5218420 119.1013350
  35.1425310 146.0390810 118.2959250  34.3111180 145.0448600 119.0783280
  44.9043630 148.9758680 114.7463190  44.1999200 149.2643570 115.3266300
  45.2655790 149.7858790 114.3862750  34.8222200 147.2328380 117.1083800
  35.1639010 148.0770430 116.8137670  33.8838010 147.3812120 117.2249140
  47.9730550 148.4213470 115.1372400  47.0255460 148.4552450 115.2687830
  48.2980540 149.2352420 115.5221760  38.5050090 144.7210650 113.4328390
  38.8125070 144.1657540 112.7163890  37.5750790 144.8555110 113.2501380
  40.8930850 152.7859480 110.1688510  39.9660130 152.7196860 110.3976980
  41.0455670 153.7239610 110.0543750  40.8799930 149.0576480 107.1655670
  39.9403600 149.2190440 107.2508130  41.1983190 149.7762160 106.6191660
  44.3654700 150.5264320 118.0889570  43.9525880 151.3518030 118.3429560
  43.6330650 149.9409360 117.8965930  36.4987490 153.3124220 112.9508240
  36.0944490 152.6001470 112.4554140  36.5850610 152.9677460 113.8396280
  35.2116110 150.0867430 116.7307280  35.7630700 150.1962770 115.9560530
  35.7259620 150.4605030 117.4462510  43.0992840 153.5866590 107.6796510
  43.5386120 152.7489020 107.5334330  43.8121260 154.2195990 107.7660650
  46.6809980 144.8409400 105.9937550  46.3682640 144.9336230 106.8936620
  47.4422450 145.4190430 105.9434980  33.1992120 152.2069200 110.4514890
  33.0789720 152.9331290 109.8396160  32.8893010 151.4372110 109.9742800
  47.8911270 149.5780900 121.9711690  47.2755540 150.0860570 121.4427150
  47.5707690 148.6779230 121.9137630  35.6655780 145.5504270 113.8338560
  35.2223930 146.3313810 113.5023080  36.2240770 145.8734160 114.5409500
  39.9525590 148.4172790 119.4373880  39.4904960 148.6255810 120.2493820
  39.5503700 147.6032140 119.1344550  44.9530100 149.6381740 120.5670540
  44.1023690 149.3387490 120.8879610  44.7931890 149.8823750 119.6554360
  42.0479810 151.1383490 122.6669330  42.3733220 150.3047240 122.3271560
  42.8360140 151.6612010 122.8147660  38.7814600 145.1714970 108.7144390
  38.1568780 145.1674840 109.4397700  38.6944720 144.3045930 108.3180360
  37.7031680 146.0951600 115.6928160  38.0004010 147.0014430 115.6120180
  38.2517240 145.6070380 115.0787730  35.4570000 150.6737840 111.5619810
  35.2310920 150.4575010 112.4666430  34.6762530 151.1066300 111.2165780
  42.6867760 150.6801210 110.1610460  42.0876650 151.4037010 109.9774080
  43.2347370 150.6177990 109.3786910  37.8969210 151.5723420 122.2280080
  37.8012810 150.6318150 122.0780480  38.7401190 151.7938490 121.8328150
  41.2932630 149.3164750 112.1913740  41.6862200 149.6336950 111.3782430
  41.6549480 148.4376630 112.3058260  33.0279750 147.9837090 120.3813860
  32.6343140 148.8312300 120.5886640  32.3398150 147.3463460 120.5722500
  39.6024800 148.0672060 123.4510600  38.9123120 147.8744260 124.0856690
  40.3457100 148.3506700 123.9834900  30.3296800 145.9065550 114.4143940
  30.0409850 146.4768410 115.1268920  31.0742560 145.4270000 114.7775170
  30.5167030 149.8485670 105.6246660  30.4341700 150.7916430 105.7661650
  30.1650090 149.7060580 104.7459010  41.8787770 151.9070500 116.2864520
  41.1468890 152.4157310 116.6354620  41.4812110 151.0900480 115.9853300
  38.3165160 148.5824700 114.6917010  38.3201220 148.1414650 113.8421550
  39.2116280 148.9042030 114.7988830  34.1667540 148.4651190 113.6511220
  33.8267590 148.9426420 114.4078270  33.4044860 148.0116310 113.2912320
  38.3785310 149.5836780 107.6823770  38.4998130 149.5423260 108.6309590
  37.9933820 150.4460930 107.5270500  42.3413680 147.3604180 115.6987460
  42.3586420 147.8112830 116.5429310  42.0929260 146.4609820 115.9120900
  37.3906810 151.8937920 107.0807070  36.8223710 151.4456170 106.4542980
  38.0995810 152.2530700 106.5472220  45.7684430 144.7736360 121.5373840
  46.0930200 144.0426020 122.0631820  45.8040940 144.4550000 120.6354830
  38.6173130 152.6426480 116.4382420  38.9843260 152.1685050 117.1843760
  38.4278190 153.5168050 116.7790760  31.4813620 147.3870170 112.5675890
  31.1960540 147.0225840 113.4054510  31.4192480 146.6550630 111.9539030
  36.4072500 151.6835120 118.7566630  36.1029570 152.5627100 118.9816990
  37.3618960 151.7434910 118.7924070  41.1552210 146.2799430 109.2889260
  40.3416820 145.7812600 109.2134570  40.9614160 147.1197680 108.8725610
  43.8700600 150.6519080 107.5851420  44.7580220 150.9636310 107.4102760
  43.8405690 149.7791330 107.1932000  32.4636230 152.5237860 119.9037990
  32.1051170 153.1891710 120.4911330  32.1690790 151.6921410 120.2750610
  35.6649350 152.9822100 122.7877540  35.3649490 153.1279280 121.8905360
  36.4360590 152.4227390 122.6950930  46.1414870 151.9630920 107.0531280
  46.0578590 152.3945140 106.2027720  46.8609060 152.4229270 107.4858100
  30.9744280 152.5229120 106.5272590  31.8439130 152.8053920 106.8108510
  30.4834600 153.3364990 106.4121400  34.0390870 144.2539980 111.1203390
  33.9105500 144.2457880 112.0688310  33.2152890 144.5923070 110.7694400
  31.0384800 146.0131100 120.5810090  30.3243320 146.2128020 121.1862700
  31.4579840 145.2370670 120.9524890  42.5323580 148.5053410 118.3311540
  42.9004400 147.6848620 118.6591110  41.6721780 148.5655300 118.7467190
  45.8985610 147.4610350 109.1399100  45.2698770 147.5656020 108.4257330
  45.4037530 147.6807130 109.9292980  37.8669640 149.7396300 110.5556980
  37.1585790 150.2082640 110.9970590  38.1514120 149.0818310 111.1902170
  39.4925570 151.1593000 118.5549510  39.9910820 151.6338820 119.2201360
  39.6348520 150.2356520 118.7619540  41.8985070 146.4646960 111.9952770
  41.7752850 146.4833090 111.0462280  42.8469630 146.5125900 112.1151170
  36.0704660 148.0481380 107.9307690  36.9195190 148.4851530 107.8647880
  35.7035930 148.3601640 108.7579750  46.6992430 147.3760960 119.3977900
  46.1966030 148.1166360 119.7371710  47.5149090 147.7644960 119.0814690
  44.9914440 152.6194140 112.8439260  44.0504580 152.6344370 113.0186950
  45.3058510 151.8330100 113.2899560  34.9696080 154.3013740 106.4043220
  35.7359350 154.1895100 106.9668650  35.0470770 153.6051710 105.7519990
  33.6642840 151.7338810 107.0876110  33.7446430 150.7866320 107.1993510
  34.5562590 152.0645690 107.1936770  31.1913640 153.5553730 122.3232280
  31.6952660 152.9761010 122.8948510  30.4521060 153.8393960 122.8608650
  33.2236720 151.6983320 123.2182350  33.2642060 151.3997190 124.1267580
  34.0782220 152.0990930 123.0589870  37.0015110 154.2978870 108.3785860
  37.4231530 154.1318740 109.2217250  37.1265950 153.4879100 107.8841000
  35.1642530 150.2775420 121.1856840  34.6338990 149.7866370 120.5580180
  35.8330600 150.7059620 120.6514770  39.5142750 153.3216480 105.6262960
  40.0348410 152.6065500 105.2604110  40.1611150 153.9602350 105.9263470
  44.5342760 152.0841040 122.9537180  45.1163530 151.3293360 122.8657660
  44.7104530 152.6148480 122.1768660  35.6514830 147.2437790 121.2654130
  35.5571700 146.6258540 120.5405000  35.0712220 147.9704080 121.0384040
  38.4176270 145.8011030 118.2981520  37.9693570 145.8235290 117.4527070
  37.7841470 145.4030050 118.8951820  41.1599720 152.4281540 120.3031800
  41.2795930 151.8322680 121.0426640  42.0193720 152.4651230 119.8833100
  43.4987620 152.9818730 118.8794310  42.9722840 153.5061350 118.2759450
  43.8418960 153.6146120 119.5104040  35.8974010 150.3712100 105.3244020
  35.6963070 149.5079460 105.6857360  35.7266060 150.2845460 104.3865620
  37.9268490 148.9702890 121.5607620  38.5168180 148.6618740 122.2485440
  37.1088730 148.4982640 121.7167520  42.7461920 148.5868700 121.7940640
  42.0577440 147.9250240 121.7290630  43.4667940 148.1406970 122.2389100
  43.3762320 145.1820330 107.8530900  43.6564610 144.3388230 108.2090320
  42.6028050 145.4143440 108.3669650  34.6956810 147.4712720 105.3121900
  34.9982710 147.4780150 104.4041050  35.4351400 147.1210580 105.8089560
  37.9141740 146.4147340 106.2978100  37.5663740 145.7371330 105.7180550
  38.1154510 145.9536850 107.1121490  31.2547380 152.9434990 112.6942470
  30.5996220 152.6746630 112.0502170  32.0925330 152.8339470 112.2444450
  44.2037820 147.7376280 106.9160960  44.6222700 147.5507260 106.0757620
  43.8973880 146.8855330 107.2263890  47.7027550 152.6500420 110.6136760
  47.3271150 151.8828350 110.1818050  46.9730670 153.0323120 111.1011690
  32.2923310 153.3287560 117.2345810  32.6596350 153.2414960 118.1141830
  31.7234130 152.5654110 117.1352670  47.0927170 151.7971940 120.2476280
  46.8613260 151.5684690 119.3474230  47.3531720 152.7171490 120.2021170
  31.8439310 150.2396650 121.1404230  30.9495360 150.2063410 121.4797940
  32.3836860 150.4383440 121.9055480  45.5315240 147.0228370 123.0255980
  46.4085420 147.0311770 123.4089980  45.5436080 146.2859210 122.4148330
  30.4685460 150.1533920 108.6367800  29.5649540 150.4164120 108.4619460
  30.9526080 150.4245090 107.8567760  46.9778510 150.8757910 113.9144000
  47.5015990 150.3820560 113.2834170  47.5637930 151.0108270 114.6591570
  47.1568230 150.9597780 117.4363550  46.2070940 150.9261320 117.5508540
  47.3381240 151.8697890 117.2013320  33.0112670 149.2099460 106.5462180
  33.7204370 148.7882680 106.0609460  32.2952610 149.2774690 105.9145530
  32.6586830 145.2638790 105.5864830  33.3814960 145.8047730 105.9046050
  32.9311350 144.9902210 104.7106370  46.4678480 150.1331260 109.8536410
  46.9637600 149.9002130 110.6385290  46.2694550 149.2943100 109.4374050
  32.3479020 144.5144980 115.4887450  32.9955210 143.9642360 115.0482610
  32.7680860 144.7688130 116.3103260  47.8965640 148.7692210 112.3874090
  47.7864920 148.6148250 113.3256360  48.6573230 148.2413150 112.1449500
  46.2431360 144.7086340 118.8457090  46.8803580 145.3220480 119.2116280
  46.3906250 144.7447000 117.9006320  48.7855910 146.6000130 105.6280230
  49.7105220 146.4681310 105.4198520  48.7631700 146.6792950 106.5816680
  48.8594400 147.3710790 108.2536940  48.0645900 147.3055910 108.7829850
  49.0637680 148.3061430 108.2422290  32.1011020 144.6700650 118.2312770
  31.7525840 145.1264470 118.9970950  31.7698720 143.7757780 118.3135200
  39.6135840 145.8612530 121.7532190  39.5524730 146.4534360 122.5027600
  40.5536220 145.7538490 121.6082450  42.2510400 145.5182590 121.3924480
  42.8650810 145.8361880 120.7305560  42.7959960 145.0331180 122.0120340
  32.7731660 144.1976850 121.5063540  33.3214650 144.0164900 120.7429650
  32.8386970 143.4070960 122.0419850  42.9918440 144.0814730 117.7193770
  42.1178280 144.4149840 117.5166700  42.8829190 143.6087910 118.5445640
  43.8990420 146.2885600 119.1035490  43.5703780 145.4737360 118.7237220
  44.8472720 146.2455410 118.9801180  40.7393260 144.9984570 116.6586680
  39.9565050 145.4730070 116.9383440  40.4456190 144.0939400 116.5499860
  45.2914330 145.7007670 114.7035770  45.7322420 145.6452770 113.8557370
  45.0221920 146.6165680 114.7745950  47.1552900 145.3322910 112.7144590
  47.0941300 144.3884130 112.5675610  47.9344930 145.4403000 113.2598050
  32.0833670 145.3032050 109.1800400  32.8413030 145.4160930 108.6064430
  31.6210840 146.1401250 109.1343830  38.6247480 147.4171320 112.1702710
  37.8121990 147.0428210 111.8298590  39.1289120 146.6616400 112.4723900
  43.1272460 144.0813770 113.4085780  43.7301830 144.6533980 113.8834300
  42.3865450 144.6453210 113.1859680  46.2707060 144.4835330 108.6826060
  46.4657690 145.3818780 108.9493490  45.4836930 144.2522410 109.1759010
  34.4558820 145.8296100 107.7202370  34.9851580 145.0425900 107.5910320
  35.0887140 146.5087290 107.9537900  36.6496660 145.5671240 110.7747760
  36.0199400 144.8658550 110.9417890  36.1101800 146.3275370 110.5580920
  36.7752220 144.8455220 123.2100250  36.4936490 145.3488820 122.4461070
  37.1571920 144.0476970 122.8442380  43.3767680 144.2608800 123.7880720
  43.2633130 144.5803410 124.6832240  44.1937420 144.6621310 123.4918000
  42.2825830 152.2801270  94.1515460  42.2019880 151.3655880  93.8807170
  41.8690250 152.7768340  93.4455170  40.4143870 154.0580290  96.0324730
  39.6385970 153.5780730  96.3223300  41.0656800 153.3785940  95.8580890
  32.8401650 149.3301990  90.6942880  31.9518350 149.6717960  90.5922760
  33.1242840 149.1302310  89.8023710  30.8034660 151.9307640  96.5782580
  31.3750770 151.1629840  96.5786220  30.8036200 152.2296400  95.6689190
  32.0459530 147.3392000  98.3651510  31.8662370 146.4417750  98.6454270
  31.6439610 147.8863870  99.0398460  40.8858030 149.5407860  96.2663820
  41.2622850 148.6679740  96.1537490  40.7877540 149.8766560  95.3754260
  35.0163040 147.9133490  91.7281260  35.1229790 148.8137220  92.0350020
  34.1055400 147.8651460  91.4375910  44.6682150 147.0358300  93.1992160
  45.4891770 146.5454870  93.2417640  44.7016230 147.6255960  93.9524000
  32.6646200 149.8352500  96.9733850  33.3456310 150.0990870  97.5921250
  32.3494250 148.9953370  97.3071860  36.8570770 150.8819860  96.0606440
  37.3648990 151.3800830  96.7011460  37.3884010 150.1055060  95.8845800
  48.9581700 149.0525050  99.7635790  48.2533870 149.4406760  99.2450900
  49.2239620 149.7475340 100.3656720  35.1406870 145.5218420 100.3269860
  35.1425310 146.0390810  99.5215760  34.3111180 145.0448600 100.3039790
  44.9043630 148.9758680  95.9719700  44.1999200 149.2643570  96.5522810
  45.2655790 149.7858790  95.6119260  34.8222200 147.2328380  98.3340310
  35.1639010 148.0770430  98.0394180  33.8838010 147.3812120  98.4505650
  47.9730550 148.4213470  96.3628910  47.0255460 148.4552450  96.4944340
  48.2980540 149.2352420  96.7478270  38.5050090 144.7210650  94.6584900
  38.8125070 144.1657540  93.9420400  37.5750790 144.8555110  94.4757890
  40.8930850 152.7859480  91.3945020  39.9660130 152.7196860  91.6233490
  41.0455670 153.7239610  91.2800260  40.8799930 149.0576480  88.3912180
  39.9403600 149.2190440  88.4764640  41.1983190 149.7762160  87.8448170
  44.3654700 150.5264320  99.3146080  43.9525880 151.3518030  99.5686070
  43.6330650 149.9409360  99.1222440  36.4987490 153.3124220  94.1764750
  36.0944490 152.6001470  93.6810650  36.5850610 152.9677460  95.0652790
  35.2116110 150.0867430  97.9563790  35.7630700 150.1962770  97.1817040
  35.7259620 150.4605030  98.6719020  43.0992840 153.5866590  88.9053020
  43.5386120 152.7489020  88.7590840  43.8121260 154.2195990  88.9917160
  46.6809980 144.8409400  87.2194060  46.3682640 144.9336230  88.1193130
  47.4422450 145.4190430  87.1691490  33.1992120 152.2069200  91.6771400
  33.0789720 152.9331290  91.0652670  32.8893010 151.4372110  91.1999310
  47.8911270 149.5780900 103.1968200  47.2755540 150.0860570 102.6683660
  47.5707690 148.6779230 103.1394140  35.6655780 145.5504270  95.0595070
  35.2223930 146.3313810  94.7279590  36.2240770 145.8734160  95.7666010
  39.9525590 148.4172790 100.6630390  39.4904960 148.6255810 101.4750330
  39.5503700 147.6032140 100.3601060  44.9530100 149.6381740 101.7927050
  44.1023690 149.3387490 102.1136120  44.7931890 149.8823750 100.8810870
  42.0479810 151.1383490 103.8925840  42.3733220 150.3047240 103.5528070
  42.8360140 151.6612010 104.0404170  38.7814600 145.1714970  89.9400900
  38.1568780 145.1674840  90.6654210  38.6944720 144.3045930  89.5436870
  37.7031680 146.0951600  96.9184670  38.0004010 147.0014430  96.8376690
  38.2517240 145.6070380  96.3044240  35.4570000 150.6737840  92.7876320
  35.2310920 150.4575010  93.6922940  34.6762530 151.1066300  92.4422290
  42.6867760 150.6801210  91.3866970  42.0876650 151.4037010  91.2030590
  43.2347370 150.6177990  90.6043420  37.8969210 151.5723420 103.4536590
  37.8012810 150.6318150 103.3036990  38.7401190 151.7938490 103.0584660
  41.2932630 149.3164750  93.4170250  41.6862200 149.6336950  92.6038940
  41.6549480 148.4376630  93.5314770  33.0279750 147.9837090 101.6070370
  32.6343140 148.8312300 101.8143150  32.3398150 147.3463460 101.7979010
  39.6024800 148.0672060 104.6767110  38.9123120 147.8744260 105.3113200
  40.3457100 148.3506700 105.2091410  30.3296800 145.9065550  95.6400450
  30.0409850 146.4768410  96.3525430  31.0742560 145.4270000  96.0031680
  30.5167030 149.8485670  86.8503170  30.4341700 150.7916430  86.9918160
  30.1650090 149.7060580  85.9715520  41.8787770 151.9070500  97.5121030
  41.1468890 152.4157310  97.8611130  41.4812110 151.0900480  97.2109810
  38.3165160 148.5824700  95.9173520  38.3201220 148.1414650  95.0678060
  39.2116280 148.9042030  96.0245340  34.1667540 148.4651190  94.8767730
  33.8267590 148.9426420  95.6334780  33.4044860 148.0116310  94.5168830
  38.3785310 149.5836780  88.9080280  38.4998130 149.5423260  89.8566100
  37.9933820 150.4460930  88.7527010  42.3413680 147.3604180  96.9243970
  42.3586420 147.8112830  97.7685820  42.0929260 146.4609820  97.1377410
  37.3906810 151.8937920  88.3063580  36.8223710 151.4456170  87.6799490
  38.0995810 152.2530700  87.7728730  45.7684430 144.7736360 102.7630350
  46.0930200 144.0426020 103.2888330  45.8040940 144.4550000 101.8611340
  38.6173130 152.6426480  97.6638930  38.9843260 152.1685050  98.4100270
  38.4278190 153.5168050  98.0047270  31.4813620 147.3870170  93.7932400
  31.1960540 147.0225840  94.6311020  31.4192480 146.6550630  93.1795540
  36.4072500 151.6835120  99.9823140  36.1029570 152.5627100 100.2073500
  37.3618960 151.7434910 100.0180580  41.1552210 146.2799430  90.5145770
  40.3416820 145.7812600  90.4391080  40.9614160 147.1197680  90.0982120
  43.8700600 150.6519080  88.8107930  44.7580220 150.9636310  88.6359270
  43.8405690 149.7791330  88.4188510  32.4636230 152.5237860 101.1294500
  32.1051170 153.1891710 101.7167840  32.1690790 151.6921410 101.5007120
  35.6649350 152.9822100 104.0134050  35.3649490 153.1279280 103.1161870
  36.4360590 152.4227390 103.9207440  46.1414870 151.9630920  88.2787790
  46.0578590 152.3945140  87.4284230  46.8609060 152.4229270  88.7114610
  30.9744280 152.5229120  87.7529100  31.8439130 152.8053920  88.0365020
  30.4834600 153.3364990  87.6377910  34.0390870 144.2539980  92.3459900
  33.9105500 144.2457880  93.2944820  33.2152890 144.5923070  91.9950910
  31.0384800 146.0131100 101.8066600  30.3243320 146.2128020 102.4119210
  31.4579840 145.2370670 102.1781400  42.5323580 148.5053410  99.5568050
  42.9004400 147.6848620  99.8847620  41.6721780 148.5655300  99.9723700
  45.8985610 147.4610350  90.3655610  45.2698770 147.5656020  89.6513840
  45.4037530 147.6807130  91.1549490  37.8669640 149.7396300  91.7813490
  37.1585790 150.2082640  92.2227100  38.1514120 149.0818310  92.4158680
  39.4925570 151.1593000  99.7806020  39.9910820 151.6338820 100.4457870
  39.6348520 150.2356520  99.9876050  41.8985070 146.4646960  93.2209280
  41.7752850 146.4833090  92.2718790  42.8469630 146.5125900  93.3407680
  36.0704660 148.0481380  89.1564200  36.9195190 148.4851530  89.0904390
  35.7035930 148.3601640  89.9836260  46.6992430 147.3760960 100.6234410
  46.1966030 148.1166360 100.9628220  47.5149090 147.7644960 100.3071200
  44.9914440 152.6194140  94.0695770  44.0504580 152.6344370  94.2443460
  45.3058510 151.8330100  94.5156070  34.9696080 154.3013740  87.6299730
  35.7359350 154.1895100  88.1925160  35.0470770 153.6051710  86.9776500
  33.6642840 151.7338810  88.3132620  33.7446430 150.7866320  88.4250020
  34.5562590 152.0645690  88.4193280  31.1913640 153.5553730 103.5488790
  31.6952660 152.9761010 104.1205020  30.4521060 153.8393960 104.0865160
  33.2236720 151.6983320 104.4438860  33.2642060 151.3997190 105.3524090
  34.0782220 152.0990930 104.2846380  37.0015110 154.2978870  89.6042370
  37.4231530 154.1318740  90.4473760  37.1265950 153.4879100  89.1097510
  35.1642530 150.2775420 102.4113350  34.6338990 149.7866370 101.7836690
  35.8330600 150.7059620 101.8771280  39.5142750 153.3216480  86.8519470
  40.0348410 152.6065500  86.4860620  40.1611150 153.9602350  87.1519980
  44.5342760 152.0841040 104.1793690  45.1163530 151.3293360 104.0914170
  44.7104530 152.6148480 103.4025170  35.6514830 147.2437790 102.4910640
  35.5571700 146.6258540 101.7661510  35.0712220 147.9704080 102.2640550
  38.4176270 145.8011030  99.5238030  37.9693570 145.8235290  98.6783580
  37.7841470 145.4030050 100.1208330  41.1599720 152.4281540 101.5288310
  41.2795930 151.8322680 102.2683150  42.0193720 152.4651230 101.1089610
  43.4987620 152.9818730 100.1050820  42.9722840 153.5061350  99.5015960
  43.8418960 153.6146120 100.7360550  35.8974010 150.3712100  86.5500530
  35.6963070 149.5079460  86.9113870  35.7266060 150.2845460  85.6122130
  37.9268490 148.9702890 102.7864130  38.5168180 148.6618740 103.4741950
  37.1088730 148.4982640 102.9424030  42.7461920 148.5868700 103.0197150
  42.0577440 147.9250240 102.9547140  43.4667940 148.1406970 103.4645610
  43.3762320 145.1820330  89.0787410  43.6564610 144.3388230  89.4346830
  42.6028050 145.4143440  89.5926160  34.6956810 147.4712720  86.5378410
  34.9982710 147.4780150  85.6297560  35.4351400 147.1210580  87.0346070
  37.9141740 146.4147340  87.5234610  37.5663740 145.7371330  86.9437060
  38.1154510 145.9536850  88.3378000  31.2547380 152.9434990  93.9198980
  30.5996220 152.6746630  93.2758680  32.0925330 152.8339470  93.4700960
  44.2037820 147.7376280  88.1417470  44.6222700 147.5507260  87.3014130
  43.8973880 146.8855330  88.4520400  47.7027550 152.6500420  91.8393270
  47.3271150 151.8828350  91.4074560  46.9730670 153.0323120  92.3268200
  32.2923310 153.3287560  98.4602320  32.6596350 153.2414960  99.3398340
  31.7234130 152.5654110  98.3609180  47.0927170 151.7971940 101.4732790
  46.8613260 151.5684690 100.5730740  47.3531720 152.7171490 101.4277680
  31.8439310 150.2396650 102.3660740  30.9495360 150.2063410 102.7054450
  32.3836860 150.4383440 103.1311990  45.5315240 147.0228370 104.2512490
  46.4085420 147.0311770 104.6346490  45.5436080 146.2859210 103.6404840
  30.4685460 150.1533920  89.8624310  29.5649540 150.4164120  89.6875970
  30.9526080 150.4245090  89.0824270  46.9778510 150.8757910  95.1400510
  47.5015990 150.3820560  94.5090680  47.5637930 151.0108270  95.8848080
  47.1568230 150.9597780  98.6620060  46.2070940 150.9261320  98.7765050
  47.3381240 151.8697890  98.4269830  33.0112670 149.2099460  87.7718690
  33.7204370 148.7882680  87.2865970  32.2952610 149.2774690  87.1402040
  32.6586830 145.2638790  86.8121340  33.3814960 145.8047730  87.1302560
  32.9311350 144.9902210  85.9362880  46.4678480 150.1331260  91.0792920
  46.9637600 149.9002130  91.8641800  46.2694550 149.2943100  90.6630560
  32.3479020 144.5144980  96.7143960  32.9955210 143.9642360  96.2739120
  32.7680860 144.7688130  97.5359770  47.8965640 148.7692210  93.6130600
  47.7864920 148.6148250  94.5512870  48.6573230 148.2413150  93.3706010
  46.2431360 144.7086340 100.0713600  46.8803580 145.3220480 100.4372790
  46.3906250 144.7447000  99.1262830  48.7855910 146.6000130  86.8536740
  49.7105220 146.4681310  86.6455030  48.7631700 146.6792950  87.8073190
  48.8594400 147.3710790  89.4793450  48.0645900 147.3055910  90.0086360
  49.0637680 148.3061430  89.4678800  32.1011020 144.6700650  99.4569280
  31.7525840 145.1264470 100.2227460  31.7698720 143.7757780  99.5391710
  39.6135840 145.8612530 102.9788700  39.5524730 146.4534360 103.7284110
  40.5536220 145.7538490 102.8338960  42.2510400 145.5182590 102.6180990
  42.8650810 145.8361880 101.9562070  42.7959960 145.0331180 103.2376850
  32.7731660 144.1976850 102.7320050  33.3214650 144.0164900 101.9686160
  32.8386970 143.4070960 103.2676360  42.9918440 144.0814730  98.9450280
  42.1178280 144.4149840  98.7423210  42.8829190 143.6087910  99.7702150
  43.8990420 146.2885600 100.3292000  43.5703780 145.4737360  99.9493730
  44.8472720 146.2455410 100.2057690  40.7393260 144.9984570  97.8843190
  39.9565050 145.4730070  98.1639950  40.4456190 144.0939400  97.7756370
  45.2914330 145.7007670  95.9292280  45.7322420 145.6452770  95.0813880
  45.0221920 146.6165680  96.0002460  47.1552900 145.3322910  93.9401100
  47.0941300 144.3884130  93.7932120  47.9344930 145.4403000  94.4854560
  32.0833670 145.3032050  90.4056910  32.8413030 145.4160930  89.8320940
  31.6210840 146.1401250  90.3600340  38.6247480 147.4171320  93.3959220
  37.8121990 147.0428210  93.0555100  39.1289120 146.6616400  93.6980410
  43.1272460 144.0813770  94.6342290  43.7301830 144.6533980  95.1090810
  42.3865450 144.6453210  94.4116190  46.2707060 144.4835330  89.9082570
  46.4657690 145.3818780  90.1750000  45.4836930 144.2522410  90.4015520
  34.4558820 145.8296100  88.9458880  34.9851580 145.0425900  88.8166830
  35.0887140 146.5087290  89.1794410  36.6496660 145.5671240  92.0004270
  36.0199400 144.8658550  92.1674400  36.1101800 146.3275370  91.7837430
  36.7752220 144.8455220 104.4356760  36.4936490 145.3488820 103.6717580
  37.1571920 144.0476970 104.0698890  43.3767680 144.2608800 105.0137230
  43.2633130 144.5803410 105.9088750  44.1937420 144.6621310 104.7174510
  42.2825830 152.2801270  75.3771970  42.2019880 151.3655880  75.1063680
  41.8690250 152.7768340  74.6711680  40.4143870 154.0580290  77.2581240
  39.6385970 153.5780730  77.5479810  41.0656800 153.3785940  77.0837400
  32.8401650 149.3301990  71.9199390  31.9518350 149.6717960  71.8179270
  33.1242840 149.1302310  71.0280220  30.8034660 151.9307640  77.8039090
  31.3750770 151.1629840  77.8042730  30.8036200 152.2296400  76.8945700
  32.0459530 147.3392000  79.5908020  31.8662370 146.4417750  79.8710780
  31.6439610 147.8863870  80.2654970  40.8858030 149.5407860  77.4920330
  41.2622850 148.6679740  77.3794000  40.7877540 149.8766560  76.6010770
  35.0163040 147.9133490  72.9537770  35.1229790 148.8137220  73.2606530
  34.1055400 147.8651460  72.6632420  44.6682150 147.0358300  74.4248670
  45.4891770 146.5454870  74.4674150  44.7016230 147.6255960  75.1780510
  32.6646200 149.8352500  78.1990360  33.3456310 150.0990870  78.8177760
  32.3494250 148.9953370  78.5328370  36.8570770 150.8819860  77.2862950
  37.3648990 151.3800830  77.9267970  37.3884010 150.1055060  77.1102310
  48.9581700 149.0525050  80.9892300  48.2533870 149.4406760  80.4707410
  49.2239620 149.7475340  81.5913230  35.1406870 145.5218420  81.5526370
  35.1425310 146.0390810  80.7472270  34.3111180 145.0448600  81.5296300
  44.9043630 148.9758680  77.1976210  44.1999200 149.2643570  77.7779320
  45.2655790 149.7858790  76.8375770  34.8222200 147.2328380  79.5596820
  35.1639010 148.0770430  79.2650690  33.8838010 147.3812120  79.6762160
  47.9730550 148.4213470  77.5885420  47.0255460 148.4552450  77.7200850
  48.2980540 149.2352420  77.9734780  38.5050090 144.7210650  75.8841410
  38.8125070 144.1657540  75.1676910  37.5750790 144.8555110  75.7014400
  40.8930850 152.7859480  72.6201530  39.9660130 152.7196860  72.8490000
  41.0455670 153.7239610  72.5056770  40.8799930 149.0576480  69.6168690
  39.9403600 149.2190440  69.7021150  41.1983190 149.7762160  69.0704680
  44.3654700 150.5264320  80.5402590  43.9525880 151.3518030  80.7942580
  43.6330650 149.9409360  80.3478950  36.4987490 153.3124220  75.4021260
  36.0944490 152.6001470  74.9067160  36.5850610 152.9677460  76.2909300
  35.2116110 150.0867430  79.1820300  35.7630700 150.1962770  78.4073550
  35.7259620 150.4605030  79.8975530  43.0992840 153.5866590  70.1309530
  43.5386120 152.7489020  69.9847350  43.8121260 154.2195990  70.2173670
  46.6809980 144.8409400  68.4450570  46.3682640 144.9336230  69.3449640
  47.4422450 145.4190430  68.3948000  33.1992120 152.2069200  72.9027910
  33.0789720 152.9331290  72.2909180  32.8893010 151.4372110  72.4255820
  47.8911270 149.5780900  84.4224710  47.2755540 150.0860570  83.8940170
  47.5707690 148.6779230  84.3650650  35.6655780 145.5504270  76.2851580
  35.2223930 146.3313810  75.9536100  36.2240770 145.8734160  76.9922520
  39.9525590 148.4172790  81.8886900  39.4904960 148.6255810  82.7006840
  39.5503700 147.6032140  81.5857570  44.9530100 149.6381740  83.0183560
  44.1023690 149.3387490  83.3392630  44.7931890 149.8823750  82.1067380
  42.0479810 151.1383490  85.1182350  42.3733220 150.3047240  84.7784580
  42.8360140 151.6612010  85.2660680  38.7814600 145.1714970  71.1657410
  38.1568780 145.1674840  71.8910720  38.6944720 144.3045930  70.7693380
  37.7031680 146.0951600  78.1441180  38.0004010 147.0014430  78.0633200
  38.2517240 145.6070380  77.5300750  35.4570000 150.6737840  74.0132830
  35.2310920 150.4575010  74.9179450  34.6762530 151.1066300  73.6678800
  42.6867760 150.6801210  72.6123480  42.0876650 151.4037010  72.4287100
  43.2347370 150.6177990  71.8299930  37.8969210 151.5723420  84.6793100
  37.8012810 150.6318150  84.5293500  38.7401190 151.7938490  84.2841170
  41.2932630 149.3164750  74.6426760  41.6862200 149.6336950  73.8295450
  41.6549480 148.4376630  74.7571280  33.0279750 147.9837090  82.8326880
  32.6343140 148.8312300  83.0399660  32.3398150 147.3463460  83.0235520
  39.6024800 148.0672060  85.9023620  38.9123120 147.8744260  86.5369710
  40.3457100 148.3506700  86.4347920  30.3296800 145.9065550  76.8656960
  30.0409850 146.4768410  77.5781940  31.0742560 145.4270000  77.2288190
  30.5167030 149.8485670  68.0759680  30.4341700 150.7916430  68.2174670
  30.1650090 149.7060580  67.1972030  41.8787770 151.9070500  78.7377540
  41.1468890 152.4157310  79.0867640  41.4812110 151.0900480  78.4366320
  38.3165160 148.5824700  77.1430030  38.3201220 148.1414650  76.2934570
  39.2116280 148.9042030  77.2501850  34.1667540 148.4651190  76.1024240
  33.8267590 148.9426420  76.8591290  33.4044860 148.0116310  75.7425340
  38.3785310 149.5836780  70.1336790  38.4998130 149.5423260  71.0822610
  37.9933820 150.4460930  69.9783520  42.3413680 147.3604180  78.1500480
  42.3586420 147.8112830  78.9942330  42.0929260 146.4609820  78.3633920
  37.3906810 151.8937920  69.5320090  36.8223710 151.4456170  68.9056000
  38.0995810 152.2530700  68.9985240  45.7684430 144.7736360  83.9886860
  46.0930200 144.0426020  84.5144840  45.8040940 144.4550000  83.0867850
  38.6173130 152.6426480  78.8895440  38.9843260 152.1685050  79.6356780
  38.4278190 153.5168050  79.2303780  31.4813620 147.3870170  75.0188910
  31.1960540 147.0225840  75.8567530  31.4192480 146.6550630  74.4052050
  36.4072500 151.6835120  81.2079650  36.1029570 152.5627100  81.4330010
  37.3618960 151.7434910  81.2437090  41.1552210 146.2799430  71.7402280
  40.3416820 145.7812600  71.6647590  40.9614160 147.1197680  71.3238630
  43.8700600 150.6519080  70.0364440  44.7580220 150.9636310  69.8615780
  43.8405690 149.7791330  69.6445020  32.4636230 152.5237860  82.3551010
  32.1051170 153.1891710  82.9424350  32.1690790 151.6921410  82.7263630
  35.6649350 152.9822100  85.2390560  35.3649490 153.1279280  84.3418380
  36.4360590 152.4227390  85.1463950  46.1414870 151.9630920  69.5044300
  46.0578590 152.3945140  68.6540740  46.8609060 152.4229270  69.9371120
  30.9744280 152.5229120  68.9785610  31.8439130 152.8053920  69.2621530
  30.4834600 153.3364990  68.8634420  34.0390870 144.2539980  73.5716410
  33.9105500 144.2457880  74.5201330  33.2152890 144.5923070  73.2207420
  31.0384800 146.0131100  83.0323110  30.3243320 146.2128020  83.6375720
  31.4579840 145.2370670  83.4037910  42.5323580 148.5053410  80.7824560
  42.9004400 147.6848620  81.1104130  41.6721780 148.5655300  81.1980210
  45.8985610 147.4610350  71.5912120  45.2698770 147.5656020  70.8770350
  45.4037530 147.6807130  72.3806000  37.8669640 149.7396300  73.0070000
  37.1585790 150.2082640  73.4483610  38.1514120 149.0818310  73.6415190
  39.4925570 151.1593000  81.0062530  39.9910820 151.6338820  81.6714380
  39.6348520 150.2356520  81.2132560  41.8985070 146.4646960  74.4465790
  41.7752850 146.4833090  73.4975300  42.8469630 146.5125900  74.5664190
  36.0704660 148.0481380  70.3820710  36.9195190 148.4851530  70.3160900
  35.7035930 148.3601640  71.2092770  46.6992430 147.3760960  81.8490920
  46.1966030 148.1166360  82.1884730  47.5149090 147.7644960  81.5327710
  44.9914440 152.6194140  75.2952280  44.0504580 152.6344370  75.4699970
  45.3058510 151.8330100  75.7412580  34.9696080 154.3013740  68.8556240
  35.7359350 154.1895100  69.4181670  35.0470770 153.6051710  68.2033010
  33.6642840 151.7338810  69.5389130  33.7446430 150.7866320  69.6506530
  34.5562590 152.0645690  69.6449790  31.1913640 153.5553730  84.7745300
  31.6952660 152.9761010  85.3461530  30.4521060 153.8393960  85.3121670
  33.2236720 151.6983320  85.6695370  33.2642060 151.3997190  86.5780600
  34.0782220 152.0990930  85.5102890  37.0015110 154.2978870  70.8298880
  37.4231530 154.1318740  71.6730270  37.1265950 153.4879100  70.3354020
  35.1642530 150.2775420  83.6369860  34.6338990 149.7866370  83.0093200
  35.8330600 150.7059620  83.1027790  39.5142750 153.3216480  68.0775980
  40.0348410 152.6065500  67.7117130  40.1611150 153.9602350  68.3776490
  44.5342760 152.0841040  85.4050200  45.1163530 151.3293360  85.3170680
  44.7104530 152.6148480  84.6281680  35.6514830 147.2437790  83.7167150
  35.5571700 146.6258540  82.9918020  35.0712220 147.9704080  83.4897060
  38.4176270 145.8011030  80.7494540  37.9693570 145.8235290  79.9040090
  37.7841470 145.4030050  81.3464840  41.1599720 152.4281540  82.7544820
  41.2795930 151.8322680  83.4939660  42.0193720 152.4651230  82.3346120
  43.4987620 152.9818730  81.3307330  42.9722840 153.5061350  80.7272470
  43.8418960 153.6146120  81.9617060  35.8974010 150.3712100  67.7757040
  35.6963070 149.5079460  68.1370380  35.7266060 150.2845460  66.8378640
  37.9268490 148.9702890  84.0120640  38.5168180 148.6618740  84.6998460
  37.1088730 148.4982640  84.1680540  42.7461920 148.5868700  84.2453660
  42.0577440 147.9250240  84.1803650  43.4667940 148.1406970  84.6902120
  43.3762320 145.1820330  70.3043920  43.6564610 144.3388230  70.6603340
  42.6028050 145.4143440  70.8182670  34.6956810 147.4712720  67.7634920
  34.9982710 147.4780150  66.8554070  35.4351400 147.1210580  68.2602580
  37.9141740 146.4147340  68.7491120  37.5663740 145.7371330  68.1693570
  38.1154510 145.9536850  69.5634510  31.2547380 152.9434990  75.1455490
  30.5996220 152.6746630  74.5015190  32.0925330 152.8339470  74.6957470
  44.2037820 147.7376280  69.3673980  44.6222700 147.5507260  68.5270640
  43.8973880 146.8855330  69.6776910  47.7027550 152.6500420  73.0649780
  47.3271150 151.8828350  72.6331070  46.9730670 153.0323120  73.5524710
  32.2923310 153.3287560  79.6858830  32.6596350 153.2414960  80.5654850
  31.7234130 152.5654110  79.5865690  47.0927170 151.7971940  82.6989300
  46.8613260 151.5684690  81.7987250  47.3531720 152.7171490  82.6534190
  31.8439310 150.2396650  83.5917250  30.9495360 150.2063410  83.9310960
  32.3836860 150.4383440  84.3568500  45.5315240 147.0228370  85.4769000
  46.4085420 147.0311770  85.8603000  45.5436080 146.2859210  84.8661350
  30.4685460 150.1533920  71.0880820  29.5649540 150.4164120  70.9132480
  30.9526080 150.4245090  70.3080780  46.9778510 150.8757910  76.3657020
  47.5015990 150.3820560  75.7347190  47.5637930 151.0108270  77.1104590
  47.1568230 150.9597780  79.8876570  46.2070940 150.9261320  80.0021560
  47.3381240 151.8697890  79.6526340  33.0112670 149.2099460  68.9975200
  33.7204370 148.7882680  68.5122480  32.2952610 149.2774690  68.3658550
  32.6586830 145.2638790  68.0377850  33.3814960 145.8047730  68.3559070
  32.9311350 144.9902210  67.1619390  46.4678480 150.1331260  72.3049430
  46.9637600 149.9002130  73.0898310  46.2694550 149.2943100  71.8887070
  32.3479020 144.5144980  77.9400470  32.9955210 143.9642360  77.4995630
  32.7680860 144.7688130  78.7616280  47.8965640 148.7692210  74.8387110
  47.7864920 148.6148250  75.7769380  48.6573230 148.2413150  74.5962520
  46.2431360 144.7086340  81.2970110  46.8803580 145.3220480  81.6629300
  46.3906250 144.7447000  80.3519340  48.7855910 146.6000130  68.0793250
  49.7105220 146.4681310  67.8711540  48.7631700 146.6792950  69.0329700
  48.8594400 147.3710790  70.7049960  48.0645900 147.3055910  71.2342870
  49.0637680 148.3061430  70.6935310  32.1011020 144.6700650  80.6825790
  31.7525840 145.1264470  81.4483970  31.7698720 143.7757780  80.7648220
  39.6135840 145.8612530  84.2045210  39.5524730 146.4534360  84.9540620
  40.5536220 145.7538490  84.0595470  42.2510400 145.5182590  83.8437500
  42.8650810 145.8361880  83.1818580  42.7959960 145.0331180  84.4633360
  32.7731660 144.1976850  83.9576560  33.3214650 144.0164900  83.1942670
  32.8386970 143.4070960  84.4932870  42.9918440 144.0814730  80.1706790
  42.1178280 144.4149840  79.9679720  42.8829190 143.6087910  80.9958660
  43.8990420 146.2885600  81.5548510  43.5703780 145.4737360  81.1750240
  44.8472720 146.2455410  81.4314200  40.7393260 144.9984570  79.1099700
  39.9565050 145.4730070  79.3896460  40.4456190 144.0939400  79.0012880
  45.2914330 145.7007670  77.1548790  45.7322420 145.6452770  76.3070390
  45.0221920 146.6165680  77.2258970  47.1552900 145.3322910  75.1657610
  47.0941300 144.3884130  75.0188630  47.9344930 145.4403000  75.7111070
  32.0833670 145.3032050  71.6313420  32.8413030 145.4160930  71.0577450
  31.6210840 146.1401250  71.5856850  38.6247480 147.4171320  74.6215730
  37.8121990 147.0428210  74.2811610  39.1289120 146.6616400  74.9236920
  43.1272460 144.0813770  75.8598800  43.7301830 144.6533980  76.3347320
  42.3865450 144.6453210  75.6372700  46.2707060 144.4835330  71.1339080
  46.4657690 145.3818780  71.4006510  45.4836930 144.2522410  71.6272030
  34.4558820 145.8296100  70.1715390  34.9851580 145.0425900  70.0423340
  35.0887140 146.5087290  70.4050920  36.6496660 145.5671240  73.2260780
  36.0199400 144.8658550  73.3930910  36.1101800 146.3275370  73.0093940
  36.7752220 144.8455220  85.6613270  36.4936490 145.3488820  84.8974090
  37.1571920 144.0476970  85.2955400  43.3767680 144.2608800  86.2393740
  43.2633130 144.5803410  87.1345260  44.1937420 144.6621310  85.9431020
  42.2825830 152.2801270  56.6028480  42.2019880 151.3655880  56.3320190
  41.8690250 152.7768340  55.8968190  40.4143870 154.0580290  58.4837750
  39.6385970 153.5780730  58.7736320  41.0656800 153.3785940  58.3093910
  32.8401650 149.3301990  53.1455900  31.9518350 149.6717960  53.0435780
  33.1242840 149.1302310  52.2536730  30.8034660 151.9307640  59.0295600
  31.3750770 151.1629840  59.0299240  30.8036200 152.2296400  58.1202210
  32.0459530 147.3392000  60.8164530  31.8662370 146.4417750  61.0967290
  31.6439610 147.8863870  61.4911480  40.8858030 149.5407860  58.7176840
  41.2622850 148.6679740  58.6050510  40.7877540 149.8766560  57.8267280
  35.0163040 147.9133490  54.1794280  35.1229790 148.8137220  54.4863040
  34.1055400 147.8651460  53.8888930  44.6682150 147.0358300  55.6505180
  45.4891770 146.5454870  55.6930660  44.7016230 147.6255960  56.4037020
  32.6646200 149.8352500  59.4246870  33.3456310 150.0990870  60.0434270
  32.3494250 148.9953370  59.7584880  36.8570770 150.8819860  58.5119460
  37.3648990 151.3800830  59.1524480  37.3884010 150.1055060  58.3358820
  48.9581700 149.0525050  62.2148810  48.2533870 149.4406760  61.6963920
  49.2239620 149.7475340  62.8169740  35.1406870 145.5218420  62.7782880
  35.1425310 146.0390810  61.9728780  34.3111180 145.0448600  62.7552810
  44.9043630 148.9758680  58.4232720  44.1999200 149.2643570  59.0035830
  45.2655790 149.7858790  58.0632280  34.8222200 147.2328380  60.7853330
  35.1639010 148.0770430  60.4907200  33.8838010 147.3812120  60.9018670
  47.9730550 148.4213470  58.8141930  47.0255460 148.4552450  58.9457360
  48.2980540 149.2352420  59.1991290  38.5050090 144.7210650  57.1097920
  38.8125070 144.1657540  56.3933420  37.5750790 144.8555110  56.9270910
  40.8930850 152.7859480  53.8458040  39.9660130 152.7196860  54.0746510
  41.0455670 153.7239610  53.7313280  40.8799930 149.0576480  50.8425200
  39.9403600 149.2190440  50.9277660  41.1983190 149.7762160  50.2961190
  44.3654700 150.5264320  61.7659100  43.9525880 151.3518030  62.0199090
  43.6330650 149.9409360  61.5735460  36.4987490 153.3124220  56.6277770
  36.0944490 152.6001470  56.1323670  36.5850610 152.9677460  57.5165810
  35.2116110 150.0867430  60.4076810  35.7630700 150.1962770  59.6330060
  35.7259620 150.4605030  61.1232040  43.0992840 153.5866590  51.3566040
  43.5386120 152.7489020  51.2103860  43.8121260 154.2195990  51.4430180
  46.6809980 144.8409400  49.6707080  46.3682640 144.9336230  50.5706150
  47.4422450 145.4190430  49.6204510  33.1992120 152.2069200  54.1284420
  33.0789720 152.9331290  53.5165690  32.8893010 151.4372110  53.6512330
  47.8911270 149.5780900  65.6481220  47.2755540 150.0860570  65.1196680
  47.5707690 148.6779230  65.5907160  35.6655780 145.5504270  57.5108090
  35.2223930 146.3313810  57.1792610  36.2240770 145.8734160  58.2179030
  39.9525590 148.4172790  63.1143410  39.4904960 148.6255810  63.9263350
  39.5503700 147.6032140  62.8114080  44.9530100 149.6381740  64.2440070
  44.1023690 149.3387490  64.5649140  44.7931890 149.8823750  63.3323890
  42.0479810 151.1383490  66.3438860  42.3733220 150.3047240  66.0041090
  42.8360140 151.6612010  66.4917190  38.7814600 145.1714970  52.3913920
  38.1568780 145.1674840  53.1167230  38.6944720 144.3045930  51.9949890
  37.7031680 146.0951600  59.3697690  38.0004010 147.0014430  59.2889710
  38.2517240 145.6070380  58.7557260  35.4570000 150.6737840  55.2389340
  35.2310920 150.4575010  56.1435960  34.6762530 151.1066300  54.8935310
  42.6867760 150.6801210  53.8379990  42.0876650 151.4037010  53.6543610
  43.2347370 150.6177990  53.0556440  37.8969210 151.5723420  65.9049610
  37.8012810 150.6318150  65.7550010  38.7401190 151.7938490  65.5097680
  41.2932630 149.3164750  55.8683270  41.6862200 149.6336950  55.0551960
  41.6549480 148.4376630  55.9827790  33.0279750 147.9837090  64.0583390
  32.6343140 148.8312300  64.2656170  32.3398150 147.3463460  64.2492030
  39.6024800 148.0672060  67.1280130  38.9123120 147.8744260  67.7626220
  40.3457100 148.3506700  67.6604430  30.3296800 145.9065550  58.0913470
  30.0409850 146.4768410  58.8038450  31.0742560 145.4270000  58.4544700
  30.5167030 149.8485670  49.3016190  30.4341700 150.7916430  49.4431180
  30.1650090 149.7060580  48.4228540  41.8787770 151.9070500  59.9634050
  41.1468890 152.4157310  60.3124150  41.4812110 151.0900480  59.6622830
  38.3165160 148.5824700  58.3686540  38.3201220 148.1414650  57.5191080
  39.2116280 148.9042030  58.4758360  34.1667540 148.4651190  57.3280750
  33.8267590 148.9426420  58.0847800  33.4044860 148.0116310  56.9681850
  38.3785310 149.5836780  51.3593300  38.4998130 149.5423260  52.3079120
  37.9933820 150.4460930  51.2040030  42.3413680 147.3604180  59.3756990
  42.3586420 147.8112830  60.2198840  42.0929260 146.4609820  59.5890430
  37.3906810 151.8937920  50.7576600  36.8223710 151.4456170  50.1312510
  38.0995810 152.2530700  50.2241750  45.7684430 144.7736360  65.2143370
  46.0930200 144.0426020  65.7401350  45.8040940 144.4550000  64.3124360
  38.6173130 152.6426480  60.1151950  38.9843260 152.1685050  60.8613290
  38.4278190 153.5168050  60.4560290  31.4813620 147.3870170  56.2445420
  31.1960540 147.0225840  57.0824040  31.4192480 146.6550630  55.6308560
  36.4072500 151.6835120  62.4336160  36.1029570 152.5627100  62.6586520
  37.3618960 151.7434910  62.4693600  41.1552210 146.2799430  52.9658790
  40.3416820 145.7812600  52.8904100  40.9614160 147.1197680  52.5495140
  43.8700600 150.6519080  51.2620950  44.7580220 150.9636310  51.0872290
  43.8405690 149.7791330  50.8701530  32.4636230 152.5237860  63.5807520
  32.1051170 153.1891710  64.1680860  32.1690790 151.6921410  63.9520140
  35.6649350 152.9822100  66.4647070  35.3649490 153.1279280  65.5674890
  36.4360590 152.4227390  66.3720460  46.1414870 151.9630920  50.7300810
  46.0578590 152.3945140  49.8797250  46.8609060 152.4229270  51.1627630
  30.9744280 152.5229120  50.2042120  31.8439130 152.8053920  50.4878040
  30.4834600 153.3364990  50.0890930  34.0390870 144.2539980  54.7972920
  33.9105500 144.2457880  55.7457840  33.2152890 144.5923070  54.4463930
  31.0384800 146.0131100  64.2579620  30.3243320 146.2128020  64.8632230
  31.4579840 145.2370670  64.6294420  42.5323580 148.5053410  62.0081070
  42.9004400 147.6848620  62.3360640  41.6721780 148.5655300  62.4236720
  45.8985610 147.4610350  52.8168630  45.2698770 147.5656020  52.1026860
  45.4037530 147.6807130  53.6062510  37.8669640 149.7396300  54.2326510
  37.1585790 150.2082640  54.6740120  38.1514120 149.0818310  54.8671700
  39.4925570 151.1593000  62.2319040  39.9910820 151.6338820  62.8970890
  39.6348520 150.2356520  62.4389070  41.8985070 146.4646960  55.6722300
  41.7752850 146.4833090  54.7231810  42.8469630 146.5125900  55.7920700
  36.0704660 148.0481380  51.6077220  36.9195190 148.4851530  51.5417410
  35.7035930 148.3601640  52.4349280  46.6992430 147.3760960  63.0747430
  46.1966030 148.1166360  63.4141240  47.5149090 147.7644960  62.7584220
  44.9914440 152.6194140  56.5208790  44.0504580 152.6344370  56.6956480
  45.3058510 151.8330100  56.9669090  34.9696080 154.3013740  50.0812750
  35.7359350 154.1895100  50.6438180  35.0470770 153.6051710  49.4289520
  33.6642840 151.7338810  50.7645640  33.7446430 150.7866320  50.8763040
  34.5562590 152.0645690  50.8706300  31.1913640 153.5553730  66.0001810
  31.6952660 152.9761010  66.5718040  30.4521060 153.8393960  66.5378180
  33.2236720 151.6983320  66.8951880  33.2642060 151.3997190  67.8037110
  34.0782220 152.0990930  66.7359400  37.0015110 154.2978870  52.0555390
  37.4231530 154.1318740  52.8986780  37.1265950 153.4879100  51.5610530
  35.1642530 150.2775420  64.8626370  34.6338990 149.7866370  64.2349710
  35.8330600 150.7059620  64.3284300  39.5142750 153.3216480  49.3032490
  40.0348410 152.6065500  48.9373640  40.1611150 153.9602350  49.6033000
  44.5342760 152.0841040  66.6306710  45.1163530 151.3293360  66.5427190
  44.7104530 152.6148480  65.8538190  35.6514830 147.2437790  64.9423660
  35.5571700 146.6258540  64.2174530  35.0712220 147.9704080  64.7153570
  38.4176270 145.8011030  61.9751050  37.9693570 145.8235290  61.1296600
  37.7841470 145.4030050  62.5721350  41.1599720 152.4281540  63.9801330
  41.2795930 151.8322680  64.7196170  42.0193720 152.4651230  63.5602630
  43.4987620 152.9818730  62.5563840  42.9722840 153.5061350  61.9528980
  43.8418960 153.6146120  63.1873570  35.8974010 150.3712100  49.0013550
  35.6963070 149.5079460  49.3626890  35.7266060 150.2845460  48.0635150
  37.9268490 148.9702890  65.2377150  38.5168180 148.6618740  65.9254970
  37.1088730 148.4982640  65.3937050  42.7461920 148.5868700  65.4710170
  42.0577440 147.9250240  65.4060160  43.4667940 148.1406970  65.9158630
  43.3762320 145.1820330  51.5300430  43.6564610 144.3388230  51.8859850
  42.6028050 145.4143440  52.0439180  34.6956810 147.4712720  48.9891430
  34.9982710 147.4780150  48.0810580  35.4351400 147.1210580  49.4859090
  37.9141740 146.4147340  49.9747630  37.5663740 145.7371330  49.3950080
  38.1154510 145.9536850  50.7891020  31.2547380 152.9434990  56.3712000
  30.5996220 152.6746630  55.7271700  32.0925330 152.8339470  55.9213980
  44.2037820 147.7376280  50.5930490  44.6222700 147.5507260  49.7527150
  43.8973880 146.8855330  50.9033420  47.7027550 152.6500420  54.2906290
  47.3271150 151.8828350  53.8587580  46.9730670 153.0323120  54.7781220
  32.2923310 153.3287560  60.9115340  32.6596350 153.2414960  61.7911360
  31.7234130 152.5654110  60.8122200  47.0927170 151.7971940  63.9245810
  46.8613260 151.5684690  63.0243760  47.3531720 152.7171490  63.8790700
  31.8439310 150.2396650  64.8173760  30.9495360 150.2063410  65.1567470
  32.3836860 150.4383440  65.5825010  45.5315240 147.0228370  66.7025510
  46.4085420 147.0311770  67.0859510  45.5436080 146.2859210  66.0917860
  30.4685460 150.1533920  52.3137330  29.5649540 150.4164120  52.1388990
  30.9526080 150.4245090  51.5337290  46.9778510 150.8757910  57.5913530
  47.5015990 150.3820560  56.9603700  47.5637930 151.0108270  58.3361100
  47.1568230 150.9597780  61.1133080  46.2070940 150.9261320  61.2278070
  47.3381240 151.8697890  60.8782850  33.0112670 149.2099460  50.2231710
  33.7204370 148.7882680  49.7378990  32.2952610 149.2774690  49.5915060
  32.6586830 145.2638790  49.2634360  33.3814960 145.8047730  49.5815580
  32.9311350 144.9902210  48.3875900  46.4678480 150.1331260  53.5305940
  46.9637600 149.9002130  54.3154820  46.2694550 149.2943100  53.1143580
  32.3479020 144.5144980  59.1656980  32.9955210 143.9642360  58.7252140
  32.7680860 144.7688130  59.9872790  47.8965640 148.7692210  56.0643620
  47.7864920 148.6148250  57.0025890  48.6573230 148.2413150  55.8219030
  46.2431360 144.7086340  62.5226620  46.8803580 145.3220480  62.8885810
  46.3906250 144.7447000  61.5775850  48.7855910 146.6000130  49.3049760
  49.7105220 146.4681310  49.0968050  48.7631700 146.6792950  50.2586210
  48.8594400 147.3710790  51.9306470  48.0645900 147.3055910  52.4599380
  49.0637680 148.3061430  51.9191820  32.1011020 144.6700650  61.9082300
  31.7525840 145.1264470  62.6740480  31.7698720 143.7757780  61.9904730
  39.6135840 145.8612530  65.4301720  39.5524730 146.4534360  66.1797130
  40.5536220 145.7538490  65.2851980  42.2510400 145.5182590  65.0694010
  42.8650810 145.8361880  64.4075090  42.7959960 145.0331180  65.6889870
  32.7731660 144.1976850  65.1833070  33.3214650 144.0164900  64.4199180
  32.8386970 143.4070960  65.7189380  42.9918440 144.0814730  61.3963300
  42.1178280 144.4149840  61.1936230  42.8829190 143.6087910  62.2215170
  43.8990420 146.2885600  62.7805020  43.5703780 145.4737360  62.4006750
  44.8472720 146.2455410  62.6570710  40.7393260 144.9984570  60.3356210
  39.9565050 145.4730070  60.6152970  40.4456190 144.0939400  60.2269390
  45.2914330 145.7007670  58.3805300  45.7322420 145.6452770  57.5326900
  45.0221920 146.6165680  58.4515480  47.1552900 145.3322910  56.3914120
  47.0941300 144.3884130  56.2445140  47.9344930 145.4403000  56.9367580
  32.0833670 145.3032050  52.8569930  32.8413030 145.4160930  52.2833960
  31.6210840 146.1401250  52.8113360  38.6247480 147.4171320  55.8472240
  37.8121990 147.0428210  55.5068120  39.1289120 146.6616400  56.1493430
  43.1272460 144.0813770  57.0855310  43.7301830 144.6533980  57.5603830
  42.3865450 144.6453210  56.8629210  46.2707060 144.4835330  52.3595590
  46.4657690 145.3818780  52.6263020  45.4836930 144.2522410  52.8528540
  34.4558820 145.8296100  51.3971900  34.9851580 145.0425900  51.2679850
  35.0887140 146.5087290  51.6307430  36.6496660 145.5671240  54.4517290
  36.0199400 144.8658550  54.6187420  36.1101800 146.3275370  54.2350450
  36.7752220 144.8455220  66.8869780  36.4936490 145.3488820  66.1230600
  37.1571920 144.0476970  66.5211910  43.3767680 144.2608800  67.4650250
  43.2633130 144.5803410  68.3601770  44.1937420 144.6621310  67.1687530
  42.2825830 152.2801270  37.8284990  42.2019880 151.3655880  37.5576700
  41.8690250 152.7768340  37.1224700  40.4143870 154.0580290  39.7094260
  39.6385970 153.5780730  39.9992830  41.0656800 153.3785940  39.5350420
  32.8401650 149.3301990  34.3712410  31.9518350 149.6717960  34.2692290
  33.1242840 149.1302310  33.4793240  30.8034660 151.9307640  40.2552110
  31.3750770 151.1629840  40.2555750  30.8036200 152.2296400  39.3458720
  32.0459530 147.3392000  42.0421040  31.8662370 146.4417750  42.3223800
  31.6439610 147.8863870  42.7167990  40.8858030 149.5407860  39.9433350
  41.2622850 148.6679740  39.8307020  40.7877540 149.8766560  39.0523790
  35.0163040 147.9133490  35.4050790  35.1229790 148.8137220  35.7119550
  34.1055400 147.8651460  35.1145440  44.6682150 147.0358300  36.8761690
  45.4891770 146.5454870  36.9187170  44.7016230 147.6255960  37.6293530
  32.6646200 149.8352500  40.6503380  33.3456310 150.0990870  41.2690780
  32.3494250 148.9953370  40.9841390  36.8570770 150.8819860  39.7375970
  37.3648990 151.3800830  40.3780990  37.3884010 150.1055060  39.5615330
  48.9581700 149.0525050  43.4405320  48.2533870 149.4406760  42.9220430
  49.2239620 149.7475340  44.0426250  35.1406870 145.5218420  44.0039390
  35.1425310 146.0390810  43.1985290  34.3111180 145.0448600  43.9809320
  44.9043630 148.9758680  39.6489230  44.1999200 149.2643570  40.2292340
  45.2655790 149.7858790  39.2888790  34.8222200 147.2328380  42.0109840
  35.1639010 148.0770430  41.7163710  33.8838010 147.3812120  42.1275180
  47.9730550 148.4213470  40.0398440  47.0255460 148.4552450  40.1713870
  48.2980540 149.2352420  40.4247800  38.5050090 144.7210650  38.3354430
  38.8125070 144.1657540  37.6189930  37.5750790 144.8555110  38.1527420
  40.8930850 152.7859480  35.0714550  39.9660130 152.7196860  35.3003020
  41.0455670 153.7239610  34.9569790  40.8799930 149.0576480  32.0681710
  39.9403600 149.2190440  32.1534170  41.1983190 149.7762160  31.5217700
  44.3654700 150.5264320  42.9915610  43.9525880 151.3518030  43.2455600
  43.6330650 149.9409360  42.7991970  36.4987490 153.3124220  37.8534280
  36.0944490 152.6001470  37.3580180  36.5850610 152.9677460  38.7422320
  35.2116110 150.0867430  41.6333320  35.7630700 150.1962770  40.8586570
  35.7259620 150.4605030  42.3488550  43.0992840 153.5866590  32.5822550
  43.5386120 152.7489020  32.4360370  43.8121260 154.2195990  32.6686690
  46.6809980 144.8409400  30.8963590  46.3682640 144.9336230  31.7962660
  47.4422450 145.4190430  30.8461020  33.1992120 152.2069200  35.3540930
  33.0789720 152.9331290  34.7422200  32.8893010 151.4372110  34.8768840
  47.8911270 149.5780900  46.8737730  47.2755540 150.0860570  46.3453190
  47.5707690 148.6779230  46.8163670  35.6655780 145.5504270  38.7364600
  35.2223930 146.3313810  38.4049120  36.2240770 145.8734160  39.4435540
  39.9525590 148.4172790  44.3399920  39.4904960 148.6255810  45.1519860
  39.5503700 147.6032140  44.0370590  44.9530100 149.6381740  45.4696580
  44.1023690 149.3387490  45.7905650  44.7931890 149.8823750  44.5580400
  42.0479810 151.1383490  47.5695370  42.3733220 150.3047240  47.2297600
  42.8360140 151.6612010  47.7173700  38.7814600 145.1714970  33.6170430
  38.1568780 145.1674840  34.3423740  38.6944720 144.3045930  33.2206400
  37.7031680 146.0951600  40.5954200  38.0004010 147.0014430  40.5146220
  38.2517240 145.6070380  39.9813770  35.4570000 150.6737840  36.4645850
  35.2310920 150.4575010  37.3692470  34.6762530 151.1066300  36.1191820
  42.6867760 150.6801210  35.0636500  42.0876650 151.4037010  34.8800120
  43.2347370 150.6177990  34.2812950  37.8969210 151.5723420  47.1306120
  37.8012810 150.6318150  46.9806520  38.7401190 151.7938490  46.7354190
  41.2932630 149.3164750  37.0939780  41.6862200 149.6336950  36.2808470
  41.6549480 148.4376630  37.2084300  33.0279750 147.9837090  45.2839900
  32.6343140 148.8312300  45.4912680  32.3398150 147.3463460  45.4748540
  39.6024800 148.0672060  48.3536640  38.9123120 147.8744260  48.9882730
  40.3457100 148.3506700  48.8860940  30.3296800 145.9065550  39.3169980
  30.0409850 146.4768410  40.0294960  31.0742560 145.4270000  39.6801210
  30.5167030 149.8485670  30.5272700  30.4341700 150.7916430  30.6687690
  30.1650090 149.7060580  29.6485050  41.8787770 151.9070500  41.1890560
  41.1468890 152.4157310  41.5380660  41.4812110 151.0900480  40.8879340
  38.3165160 148.5824700  39.5943050  38.3201220 148.1414650  38.7447590
  39.2116280 148.9042030  39.7014870  34.1667540 148.4651190  38.5537260
  33.8267590 148.9426420  39.3104310  33.4044860 148.0116310  38.1938360
  38.3785310 149.5836780  32.5849810  38.4998130 149.5423260  33.5335630
  37.9933820 150.4460930  32.4296540  42.3413680 147.3604180  40.6013500
  42.3586420 147.8112830  41.4455350  42.0929260 146.4609820  40.8146940
  37.3906810 151.8937920  31.9833110  36.8223710 151.4456170  31.3569020
  38.0995810 152.2530700  31.4498260  45.7684430 144.7736360  46.4399880
  46.0930200 144.0426020  46.9657860  45.8040940 144.4550000  45.5380870
  38.6173130 152.6426480  41.3408460  38.9843260 152.1685050  42.0869800
  38.4278190 153.5168050  41.6816800  31.4813620 147.3870170  37.4701930
  31.1960540 147.0225840  38.3080550  31.4192480 146.6550630  36.8565070
  36.4072500 151.6835120  43.6592670  36.1029570 152.5627100  43.8843030
  37.3618960 151.7434910  43.6950110  41.1552210 146.2799430  34.1915300
  40.3416820 145.7812600  34.1160610  40.9614160 147.1197680  33.7751650
  43.8700600 150.6519080  32.4877460  44.7580220 150.9636310  32.3128800
  43.8405690 149.7791330  32.0958040  32.4636230 152.5237860  44.8064030
  32.1051170 153.1891710  45.3937370  32.1690790 151.6921410  45.1776650
  35.6649350 152.9822100  47.6903580  35.3649490 153.1279280  46.7931400
  36.4360590 152.4227390  47.5976970  46.1414870 151.9630920  31.9557320
  46.0578590 152.3945140  31.1053760  46.8609060 152.4229270  32.3884140
  30.9744280 152.5229120  31.4298630  31.8439130 152.8053920  31.7134550
  30.4834600 153.3364990  31.3147440  34.0390870 144.2539980  36.0229430
  33.9105500 144.2457880  36.9714350  33.2152890 144.5923070  35.6720440
  31.0384800 146.0131100  45.4836130  30.3243320 146.2128020  46.0888740
  31.4579840 145.2370670  45.8550930  42.5323580 148.5053410  43.2337580
  42.9004400 147.6848620  43.5617150  41.6721780 148.5655300  43.6493230
  45.8985610 147.4610350  34.0425140  45.2698770 147.5656020  33.3283370
  45.4037530 147.6807130  34.8319020  37.8669640 149.7396300  35.4583020
  37.1585790 150.2082640  35.8996630  38.1514120 149.0818310  36.0928210
  39.4925570 151.1593000  43.4575550  39.9910820 151.6338820  44.1227400
  39.6348520 150.2356520  43.6645580  41.8985070 146.4646960  36.8978810
  41.7752850 146.4833090  35.9488320  42.8469630 146.5125900  37.0177210
  36.0704660 148.0481380  32.8333730  36.9195190 148.4851530  32.7673920
  35.7035930 148.3601640  33.6605790  46.6992430 147.3760960  44.3003940
  46.1966030 148.1166360  44.6397750  47.5149090 147.7644960  43.9840730
  44.9914440 152.6194140  37.7465300  44.0504580 152.6344370  37.9212990
  45.3058510 151.8330100  38.1925600  34.9696080 154.3013740  31.3069260
  35.7359350 154.1895100  31.8694690  35.0470770 153.6051710  30.6546030
  33.6642840 151.7338810  31.9902150  33.7446430 150.7866320  32.1019550
  34.5562590 152.0645690  32.0962810  31.1913640 153.5553730  47.2258320
  31.6952660 152.9761010  47.7974550  30.4521060 153.8393960  47.7634690
  33.2236720 151.6983320  48.1208390  33.2642060 151.3997190  49.0293620
  34.0782220 152.0990930  47.9615910  37.0015110 154.2978870  33.2811900
  37.4231530 154.1318740  34.1243290  37.1265950 153.4879100  32.7867040
  35.1642530 150.2775420  46.0882880  34.6338990 149.7866370  45.4606220
  35.8330600 150.7059620  45.5540810  39.5142750 153.3216480  30.5289000
  40.0348410 152.6065500  30.1630150  40.1611150 153.9602350  30.8289510
  44.5342760 152.0841040  47.8563220  45.1163530 151.3293360  47.7683700
  44.7104530 152.6148480  47.0794700  35.6514830 147.2437790  46.1680170
  35.5571700 146.6258540  45.4431040  35.0712220 147.9704080  45.9410080
  38.4176270 145.8011030  43.2007560  37.9693570 145.8235290  42.3553110
  37.7841470 145.4030050  43.7977860  41.1599720 152.4281540  45.2057840
  41.2795930 151.8322680  45.9452680  42.0193720 152.4651230  44.7859140
  43.4987620 152.9818730  43.7820350  42.9722840 153.5061350  43.1785490
  43.8418960 153.6146120  44.4130080  35.8974010 150.3712100  30.2270060
  35.6963070 149.5079460  30.5883400  35.7266060 150.2845460  29.2891660
  37.9268490 148.9702890  46.4633660  38.5168180 148.6618740  47.1511480
  37.1088730 148.4982640  46.6193560  42.7461920 148.5868700  46.6966680
  42.0577440 147.9250240  46.6316670  43.4667940 148.1406970  47.1415140
  43.3762320 145.1820330  32.7556940  43.6564610 144.3388230  33.1116360
  42.6028050 145.4143440  33.2695690  34.6956810 147.4712720  30.2147940
  34.9982710 147.4780150  29.3067090  35.4351400 147.1210580  30.7115600
  37.9141740 146.4147340  31.2004140  37.5663740 145.7371330  30.6206590
  38.1154510 145.9536850  32.0147530  31.2547380 152.9434990  37.5968510
  30.5996220 152.6746630  36.9528210  32.0925330 152.8339470  37.1470490
  44.2037820 147.7376280  31.8187000  44.6222700 147.5507260  30.9783660
  43.8973880 146.8855330  32.1289930  47.7027550 152.6500420  35.5162800
  47.3271150 151.8828350  35.0844090  46.9730670 153.0323120  36.0037730
  32.2923310 153.3287560  42.1371850  32.6596350 153.2414960  43.0167870
  31.7234130 152.5654110  42.0378710  47.0927170 151.7971940  45.1502320
  46.8613260 151.5684690  44.2500270  47.3531720 152.7171490  45.1047210
  31.8439310 150.2396650  46.0430270  30.9495360 150.2063410  46.3823980
  32.3836860 150.4383440  46.8081520  45.5315240 147.0228370  47.9282020
  46.4085420 147.0311770  48.3116020  45.5436080 146.2859210  47.3174370
  30.4685460 150.1533920  33.5393840  29.5649540 150.4164120  33.3645500
  30.9526080 150.4245090  32.7593800  46.9778510 150.8757910  38.8170040
  47.5015990 150.3820560  38.1860210  47.5637930 151.0108270  39.5617610
  47.1568230 150.9597780  42.3389590  46.2070940 150.9261320  42.4534580
  47.3381240 151.8697890  42.1039360  33.0112670 149.2099460  31.4488220
  33.7204370 148.7882680  30.9635500  32.2952610 149.2774690  30.8171570
  32.6586830 145.2638790  30.4890870  33.3814960 145.8047730  30.8072090
  32.9311350 144.9902210  29.6132410  46.4678480 150.1331260  34.7562450
  46.9637600 149.9002130  35.5411330  46.2694550 149.2943100  34.3400090
  32.3479020 144.5144980  40.3913490  32.9955210 143.9642360  39.9508650
  32.7680860 144.7688130  41.2129300  47.8965640 148.7692210  37.2900130
  47.7864920 148.6148250  38.2282400  48.6573230 148.2413150  37.0475540
  46.2431360 144.7086340  43.7483130  46.8803580 145.3220480  44.1142320
  46.3906250 144.7447000  42.8032360  48.7855910 146.6000130  30.5306270
  49.7105220 146.4681310  30.3224560  48.7631700 146.6792950  31.4842720
  48.8594400 147.3710790  33.1562980  48.0645900 147.3055910  33.6855890
  49.0637680 148.3061430  33.1448330  32.1011020 144.6700650  43.1338810
  31.7525840 145.1264470  43.8996990  31.7698720 143.7757780  43.2161240
  39.6135840 145.8612530  46.6558230  39.5524730 146.4534360  47.4053640
  40.5536220 145.7538490  46.5108490  42.2510400 145.5182590  46.2950520
  42.8650810 145.8361880  45.6331600  42.7959960 145.0331180  46.9146380
  32.7731660 144.1976850  46.4089580  33.3214650 144.0164900  45.6455690
  32.8386970 143.4070960  46.9445890  42.9918440 144.0814730  42.6219810
  42.1178280 144.4149840  42.4192740  42.8829190 143.6087910  43.4471680
  43.8990420 146.2885600  44.0061530  43.5703780 145.4737360  43.6263260
  44.8472720 146.2455410  43.8827220  40.7393260 144.9984570  41.5612720
  39.9565050 145.4730070  41.8409480  40.4456190 144.0939400  41.4525900
  45.2914330 145.7007670  39.6061810  45.7322420 145.6452770  38.7583410
  45.0221920 146.6165680  39.6771990  47.1552900 145.3322910  37.6170630
  47.0941300 144.3884130  37.4701650  47.9344930 145.4403000  38.1624090
  32.0833670 145.3032050  34.0826440  32.8413030 145.4160930  33.5090470
  31.6210840 146.1401250  34.0369870  38.6247480 147.4171320  37.0728750
  37.8121990 147.0428210  36.7324630  39.1289120 146.6616400  37.3749940
  43.1272460 144.0813770  38.3111820  43.7301830 144.6533980  38.7860340
  42.3865450 144.6453210  38.0885720  46.2707060 144.4835330  33.5852100
  46.4657690 145.3818780  33.8519530  45.4836930 144.2522410  34.0785050
  34.4558820 145.8296100  32.6228410  34.9851580 145.0425900  32.4936360
  35.0887140 146.5087290  32.8563940  36.6496660 145.5671240  35.6773800
  36.0199400 144.8658550  35.8443930  36.1101800 146.3275370  35.4606960
  36.7752220 144.8455220  48.1126290  36.4936490 145.3488820  47.3487110
  37.1571920 144.0476970  47.7468420  43.3767680 144.2608800  48.6906760
  43.2633130 144.5803410  49.5858280  44.1937420 144.6621310  48.3944040
  42.2825830 152.2801270  19.0541500  42.2019880 151.3655880  18.7833210
  41.8690250 152.7768340  18.3481210  40.4143870 154.0580290  20.9350770
  39.6385970 153.5780730  21.2249340  41.0656800 153.3785940  20.7606930
  32.8401650 149.3301990  15.5968920  31.9518350 149.6717960  15.4948800
  33.1242840 149.1302310  14.7049750  30.8034660 151.9307640  21.4808620
  31.3750770 151.1629840  21.4812260  30.8036200 152.2296400  20.5715230
  32.0459530 147.3392000  23.2677550  31.8662370 146.4417750  23.5480310
  31.6439610 147.8863870  23.9424500  40.8858030 149.5407860  21.1689860
  41.2622850 148.6679740  21.0563530  40.7877540 149.8766560  20.2780300
  35.0163040 147.9133490  16.6307300  35.1229790 148.8137220  16.9376060
  34.1055400 147.8651460  16.3401950  44.6682150 147.0358300  18.1018200
  45.4891770 146.5454870  18.1443680  44.7016230 147.6255960  18.8550040
  32.6646200 149.8352500  21.8759890  33.3456310 150.0990870  22.4947290
  32.3494250 148.9953370  22.2097900  36.8570770 150.8819860  20.9632480
  37.3648990 151.3800830  21.6037500  37.3884010 150.1055060  20.7871840
  48.9581700 149.0525050  24.6661830  48.2533870 149.4406760  24.1476940
  49.2239620 149.7475340  25.2682760  35.1406870 145.5218420  25.2295900
  35.1425310 146.0390810  24.4241800  34.3111180 145.0448600  25.2065830
  44.9043630 148.9758680  20.8745740  44.1999200 149.2643570  21.4548850
  45.2655790 149.7858790  20.5145300  34.8222200 147.2328380  23.2366350
  35.1639010 148.0770430  22.9420220  33.8838010 147.3812120  23.3531690
  47.9730550 148.4213470  21.2654950  47.0255460 148.4552450  21.3970380
  48.2980540 149.2352420  21.6504310  38.5050090 144.7210650  19.5610940
  38.8125070 144.1657540  18.8446440  37.5750790 144.8555110  19.3783930
  40.8930850 152.7859480  16.2971060  39.9660130 152.7196860  16.5259530
  41.0455670 153.7239610  16.1826300  40.8799930 149.0576480  13.2938220
  39.9403600 149.2190440  13.3790680  41.1983190 149.7762160  12.7474210
  44.3654700 150.5264320  24.2172120  43.9525880 151.3518030  24.4712110
  43.6330650 149.9409360  24.0248480  36.4987490 153.3124220  19.0790790
  36.0944490 152.6001470  18.5836690  36.5850610 152.9677460  19.9678830
  35.2116110 150.0867430  22.8589830  35.7630700 150.1962770  22.0843080
  35.7259620 150.4605030  23.5745060  43.0992840 153.5866590  13.8079060
  43.5386120 152.7489020  13.6616880  43.8121260 154.2195990  13.8943200
  46.6809980 144.8409400  12.1220100  46.3682640 144.9336230  13.0219170
  47.4422450 145.4190430  12.0717530  33.1992120 152.2069200  16.5797440
  33.0789720 152.9331290  15.9678710  32.8893010 151.4372110  16.1025350
  47.8911270 149.5780900  28.0994240  47.2755540 150.0860570  27.5709700
  47.5707690 148.6779230  28.0420180  35.6655780 145.5504270  19.9621110
  35.2223930 146.3313810  19.6305630  36.2240770 145.8734160  20.6692050
  39.9525590 148.4172790  25.5656430  39.4904960 148.6255810  26.3776370
  39.5503700 147.6032140  25.2627100  44.9530100 149.6381740  26.6953090
  44.1023690 149.3387490  27.0162160  44.7931890 149.8823750  25.7836910
  42.0479810 151.1383490  28.7951880  42.3733220 150.3047240  28.4554110
  42.8360140 151.6612010  28.9430210  38.7814600 145.1714970  14.8426940
  38.1568780 145.1674840  15.5680250  38.6944720 144.3045930  14.4462910
  37.7031680 146.0951600  21.8210710  38.0004010 147.0014430  21.7402730
  38.2517240 145.6070380  21.2070280  35.4570000 150.6737840  17.6902360
  35.2310920 150.4575010  18.5948980  34.6762530 151.1066300  17.3448330
  42.6867760 150.6801210  16.2893010  42.0876650 151.4037010  16.1056630
  43.2347370 150.6177990  15.5069460  37.8969210 151.5723420  28.3562630
  37.8012810 150.6318150  28.2063030  38.7401190 151.7938490  27.9610700
  41.2932630 149.3164750  18.3196290  41.6862200 149.6336950  17.5064980
  41.6549480 148.4376630  18.4340810  33.0279750 147.9837090  26.5096410
  32.6343140 148.8312300  26.7169190  32.3398150 147.3463460  26.7005050
  39.6024800 148.0672060  29.5793150  38.9123120 147.8744260  30.2139240
  40.3457100 148.3506700  30.1117450  30.3296800 145.9065550  20.5426490
  30.0409850 146.4768410  21.2551470  31.0742560 145.4270000  20.9057720
  30.5167030 149.8485670  11.7529210  30.4341700 150.7916430  11.8944200
  30.1650090 149.7060580  10.8741560  41.8787770 151.9070500  22.4147070
  41.1468890 152.4157310  22.7637170  41.4812110 151.0900480  22.1135850
  38.3165160 148.5824700  20.8199560  38.3201220 148.1414650  19.9704100
  39.2116280 148.9042030  20.9271380  34.1667540 148.4651190  19.7793770
  33.8267590 148.9426420  20.5360820  33.4044860 148.0116310  19.4194870
  38.3785310 149.5836780  13.8106320  38.4998130 149.5423260  14.7592140
  37.9933820 150.4460930  13.6553050  42.3413680 147.3604180  21.8270010
  42.3586420 147.8112830  22.6711860  42.0929260 146.4609820  22.0403450
  37.3906810 151.8937920  13.2089620  36.8223710 151.4456170  12.5825530
  38.0995810 152.2530700  12.6754770  45.7684430 144.7736360  27.6656390
  46.0930200 144.0426020  28.1914370  45.8040940 144.4550000  26.7637380
  38.6173130 152.6426480  22.5664970  38.9843260 152.1685050  23.3126310
  38.4278190 153.5168050  22.9073310  31.4813620 147.3870170  18.6958440
  31.1960540 147.0225840  19.5337060  31.4192480 146.6550630  18.0821580
  36.4072500 151.6835120  24.8849180  36.1029570 152.5627100  25.1099540
  37.3618960 151.7434910  24.9206620  41.1552210 146.2799430  15.4171810
  40.3416820 145.7812600  15.3417120  40.9614160 147.1197680  15.0008160
  43.8700600 150.6519080  13.7133970  44.7580220 150.9636310  13.5385310
  43.8405690 149.7791330  13.3214550  32.4636230 152.5237860  26.0320540
  32.1051170 153.1891710  26.6193880  32.1690790 151.6921410  26.4033160
  35.6649350 152.9822100  28.9160090  35.3649490 153.1279280  28.0187910
  36.4360590 152.4227390  28.8233480  46.1414870 151.9630920  13.1813830
  46.0578590 152.3945140  12.3310270  46.8609060 152.4229270  13.6140650
  30.9744280 152.5229120  12.6555140  31.8439130 152.8053920  12.9391060
  30.4834600 153.3364990  12.5403950  34.0390870 144.2539980  17.2485940
  33.9105500 144.2457880  18.1970860  33.2152890 144.5923070  16.8976950
  31.0384800 146.0131100  26.7092640  30.3243320 146.2128020  27.3145250
  31.4579840 145.2370670  27.0807440  42.5323580 148.5053410  24.4594090
  42.9004400 147.6848620  24.7873660  41.6721780 148.5655300  24.8749740
  45.8985610 147.4610350  15.2681650  45.2698770 147.5656020  14.5539880
  45.4037530 147.6807130  16.0575530  37.8669640 149.7396300  16.6839530
  37.1585790 150.2082640  17.1253140  38.1514120 149.0818310  17.3184720
  39.4925570 151.1593000  24.6832060  39.9910820 151.6338820  25.3483910
  39.6348520 150.2356520  24.8902090  41.8985070 146.4646960  18.1235320
  41.7752850 146.4833090  17.1744830  42.8469630 146.5125900  18.2433720
  36.0704660 148.0481380  14.0590240  36.9195190 148.4851530  13.9930430
  35.7035930 148.3601640  14.8862300  46.6992430 147.3760960  25.5260450
  46.1966030 148.1166360  25.8654260  47.5149090 147.7644960  25.2097240
  44.9914440 152.6194140  18.9721810  44.0504580 152.6344370  19.1469500
  45.3058510 151.8330100  19.4182110  34.9696080 154.3013740  12.5325770
  35.7359350 154.1895100  13.0951200  35.0470770 153.6051710  11.8802540
  33.6642840 151.7338810  13.2158660  33.7446430 150.7866320  13.3276060
  34.5562590 152.0645690  13.3219320  31.1913640 153.5553730  28.4514830
  31.6952660 152.9761010  29.0231060  30.4521060 153.8393960  28.9891200
  33.2236720 151.6983320  29.3464900  33.2642060 151.3997190  30.2550130
  34.0782220 152.0990930  29.1872420  37.0015110 154.2978870  14.5068410
  37.4231530 154.1318740  15.3499800  37.1265950 153.4879100  14.0123550
  35.1642530 150.2775420  27.3139390  34.6338990 149.7866370  26.6862730
  35.8330600 150.7059620  26.7797320  39.5142750 153.3216480  11.7545510
  40.0348410 152.6065500  11.3886660  40.1611150 153.9602350  12.0546020
  44.5342760 152.0841040  29.0819730  45.1163530 151.3293360  28.9940210
  44.7104530 152.6148480  28.3051210  35.6514830 147.2437790  27.3936680
  35.5571700 146.6258540  26.6687550  35.0712220 147.9704080  27.1666590
  38.4176270 145.8011030  24.4264070  37.9693570 145.8235290  23.5809620
  37.7841470 145.4030050  25.0234370  41.1599720 152.4281540  26.4314350
  41.2795930 151.8322680  27.1709190  42.0193720 152.4651230  26.0115650
  43.4987620 152.9818730  25.0076860  42.9722840 153.5061350  24.4042000
  43.8418960 153.6146120  25.6386590  35.8974010 150.3712100  11.4526570
  35.6963070 149.5079460  11.8139910  35.7266060 150.2845460  10.5148170
  37.9268490 148.9702890  27.6890170  38.5168180 148.6618740  28.3767990
  37.1088730 148.4982640  27.8450070  42.7461920 148.5868700  27.9223190
  42.0577440 147.9250240  27.8573180  43.4667940 148.1406970  28.3671650
  43.3762320 145.1820330  13.9813450  43.6564610 144.3388230  14.3372870
  42.6028050 145.4143440  14.4952200  34.6956810 147.4712720  11.4404450
  34.9982710 147.4780150  10.5323600  35.4351400 147.1210580  11.9372110
  37.9141740 146.4147340  12.4260650  37.5663740 145.7371330  11.8463100
  38.1154510 145.9536850  13.2404040  31.2547380 152.9434990  18.8225020
  30.5996220 152.6746630  18.1784720  32.0925330 152.8339470  18.3727000
  44.2037820 147.7376280  13.0443510  44.6222700 147.5507260  12.2040170
  43.8973880 146.8855330  13.3546440  47.7027550 152.6500420  16.7419310
  47.3271150 151.8828350  16.3100600  46.9730670 153.0323120  17.2294240
  32.2923310 153.3287560  23.3628360  32.6596350 153.2414960  24.2424380
  31.7234130 152.5654110  23.2635220  47.0927170 151.7971940  26.3758830
  46.8613260 151.5684690  25.4756780  47.3531720 152.7171490  26.3303720
  31.8439310 150.2396650  27.2686780  30.9495360 150.2063410  27.6080490
  32.3836860 150.4383440  28.0338030  45.5315240 147.0228370  29.1538530
  46.4085420 147.0311770  29.5372530  45.5436080 146.2859210  28.5430880
  30.4685460 150.1533920  14.7650350  29.5649540 150.4164120  14.5902010
  30.9526080 150.4245090  13.9850310  46.9778510 150.8757910  20.0426550
  47.5015990 150.3820560  19.4116720  47.5637930 151.0108270  20.7874120
  47.1568230 150.9597780  23.5646100  46.2070940 150.9261320  23.6791090
  47.3381240 151.8697890  23.3295870  33.0112670 149.2099460  12.6744730
  33.7204370 148.7882680  12.1892010  32.2952610 149.2774690  12.0428080
  32.6586830 145.2638790  11.7147380  33.3814960 145.8047730  12.0328600
  32.9311350 144.9902210  10.8388920  46.4678480 150.1331260  15.9818960
  46.9637600 149.9002130  16.7667840  46.2694550 149.2943100  15.5656600
  32.3479020 144.5144980  21.6170000  32.9955210 143.9642360  21.1765160
  32.7680860 144.7688130  22.4385810  47.8965640 148.7692210  18.5156640
  47.7864920 148.6148250  19.4538910  48.6573230 148.2413150  18.2732050
  46.2431360 144.7086340  24.9739640  46.8803580 145.3220480  25.3398830
  46.3906250 144.7447000  24.0288870  48.7855910 146.6000130  11.7562780
  49.7105220 146.4681310  11.5481070  48.7631700 146.6792950  12.7099230
  48.8594400 147.3710790  14.3819490  48.0645900 147.3055910  14.9112400
  49.0637680 148.3061430  14.3704840  32.1011020 144.6700650  24.3595320
  31.7525840 145.1264470  25.1253500  31.7698720 143.7757780  24.4417750
  39.6135840 145.8612530  27.8814740  39.5524730 146.4534360  28.6310150
  40.5536220 145.7538490  27.7365000  42.2510400 145.5182590  27.5207030
  42.8650810 145.8361880  26.8588110  42.7959960 145.0331180  28.1402890
  32.7731660 144.1976850  27.6346090  33.3214650 144.0164900  26.8712200
  32.8386970 143.4070960  28.1702400  42.9918440 144.0814730  23.8476320
  42.1178280 144.4149840  23.6449250  42.8829190 143.6087910  24.6728190
  43.8990420 146.2885600  25.2318040  43.5703780 145.4737360  24.8519770
  44.8472720 146.2455410  25.1083730  40.7393260 144.9984570  22.7869230
  39.9565050 145.4730070  23.0665990  40.4456190 144.0939400  22.6782410
  45.2914330 145.7007670  20.8318320  45.7322420 145.6452770  19.9839920
  45.0221920 146.6165680  20.9028500  47.1552900 145.3322910  18.8427140
  47.0941300 144.3884130  18.6958160  47.9344930 145.4403000  19.3880600
  32.0833670 145.3032050  15.3082950  32.8413030 145.4160930  14.7346980
  31.6210840 146.1401250  15.2626380  38.6247480 147.4171320  18.2985260
  37.8121990 147.0428210  17.9581140  39.1289120 146.6616400  18.6006450
  43.1272460 144.0813770  19.5368330  43.7301830 144.6533980  20.0116850
  42.3865450 144.6453210  19.3142230  46.2707060 144.4835330  14.8108610
  46.4657690 145.3818780  15.0776040  45.4836930 144.2522410  15.3041560
  34.4558820 145.8296100  13.8484920  34.9851580 145.0425900  13.7192870
  35.0887140 146.5087290  14.0820450  36.6496660 145.5671240  16.9030310
  36.0199400 144.8658550  17.0700440  36.1101800 146.3275370  16.6863470
  36.7752220 144.8455220  29.3382800  36.4936490 145.3488820  28.5743620
  37.1571920 144.0476970  28.9724930  43.3767680 144.2608800  29.9163270
  43.2633130 144.5803410  30.8114790  44.1937420 144.6621310  29.6200550
  40.4143870 154.0580290   2.1607280  39.6385970 153.5780730   2.4505850
  41.0656800 153.3785940   1.9863440  30.8034660 151.9307640   2.7065130
  31.3750770 151.1629840   2.7068770  30.8036200 152.2296400   1.7971740
  32.0459530 147.3392000   4.4934060  31.8662370 146.4417750   4.7736820
  31.6439610 147.8863870   5.1681010  32.6646200 149.8352500   3.1016400
  33.3456310 150.0990870   3.7203800  32.3494250 148.9953370   3.4354410
  36.8570770 150.8819860   2.1888990  37.3648990 151.3800830   2.8294010
  37.3884010 150.1055060   2.0128350  48.9581700 149.0525050   5.8918340
  48.2533870 149.4406760   5.3733450  49.2239620 149.7475340   6.4939270
  35.1406870 145.5218420   6.4552410  35.1425310 146.0390810   5.6498310
  34.3111180 145.0448600   6.4322340  44.9043630 148.9758680   2.1002250
  44.1999200 149.2643570   2.6805360  45.2655790 149.7858790   1.7401810
  34.8222200 147.2328380   4.4622860  35.1639010 148.0770430   4.1676730
  33.8838010 147.3812120   4.5788200  47.9730550 148.4213470   2.4911460
  47.0255460 148.4552450   2.6226890  48.2980540 149.2352420   2.8760820
  44.3654700 150.5264320   5.4428630  43.9525880 151.3518030   5.6968620
  43.6330650 149.9409360   5.2504990  35.2116110 150.0867430   4.0846340
  35.7630700 150.1962770   3.3099590  35.7259620 150.4605030   4.8001570
  47.8911270 149.5780900   9.3250750  47.2755540 150.0860570   8.7966210
  47.5707690 148.6779230   9.2676690  39.9525590 148.4172790   6.7912940
  39.4904960 148.6255810   7.6032880  39.5503700 147.6032140   6.4883610
  44.9530100 149.6381740   7.9209600  44.1023690 149.3387490   8.2418670
  44.7931890 149.8823750   7.0093420  42.0479810 151.1383490  10.0208390
  42.3733220 150.3047240   9.6810620  42.8360140 151.6612010  10.1686720
  37.7031680 146.0951600   3.0467220  38.0004010 147.0014430   2.9659240
  38.2517240 145.6070380   2.4326790  37.8969210 151.5723420   9.5819140
  37.8012810 150.6318150   9.4319540  38.7401190 151.7938490   9.1867210
  33.0279750 147.9837090   7.7352920  32.6343140 148.8312300   7.9425700
  32.3398150 147.3463460   7.9261560  39.6024800 148.0672060  10.8049660
  38.9123120 147.8744260  11.4395750  40.3457100 148.3506700  11.3373960
  30.3296800 145.9065550   1.7683000  30.0409850 146.4768410   2.4807980
  31.0742560 145.4270000   2.1314230  41.8787770 151.9070500   3.6403580
  41.1468890 152.4157310   3.9893680  41.4812110 151.0900480   3.3392360
  42.3413680 147.3604180   3.0526520  42.3586420 147.8112830   3.8968370
  42.0929260 146.4609820   3.2659960  45.7684430 144.7736360   8.8912900
  46.0930200 144.0426020   9.4170880  45.8040940 144.4550000   7.9893890
  38.6173130 152.6426480   3.7921480  38.9843260 152.1685050   4.5382820
  38.4278190 153.5168050   4.1329820  36.4072500 151.6835120   6.1105690
  36.1029570 152.5627100   6.3356050  37.3618960 151.7434910   6.1463130
  32.4636230 152.5237860   7.2577050  32.1051170 153.1891710   7.8450390
  32.1690790 151.6921410   7.6289670  35.6649350 152.9822100  10.1416600
  35.3649490 153.1279280   9.2444420  36.4360590 152.4227390  10.0489990
  31.0384800 146.0131100   7.9349150  30.3243320 146.2128020   8.5401760
  31.4579840 145.2370670   8.3063950  42.5323580 148.5053410   5.6850600
  42.9004400 147.6848620   6.0130170  41.6721780 148.5655300   6.1006250
  39.4925570 151.1593000   5.9088570  39.9910820 151.6338820   6.5740420
  39.6348520 150.2356520   6.1158600  46.6992430 147.3760960   6.7516960
  46.1966030 148.1166360   7.0910770  47.5149090 147.7644960   6.4353750
  31.1913640 153.5553730   9.6771340  31.6952660 152.9761010  10.2487570
  30.4521060 153.8393960  10.2147710  33.2236720 151.6983320  10.5721410
  33.2642060 151.3997190  11.4806640  34.0782220 152.0990930  10.4128930
  35.1642530 150.2775420   8.5395900  34.6338990 149.7866370   7.9119240
  35.8330600 150.7059620   8.0053830  44.5342760 152.0841040  10.3076240
  45.1163530 151.3293360  10.2196720  44.7104530 152.6148480   9.5307720
  35.6514830 147.2437790   8.6193190  35.5571700 146.6258540   7.8944060
  35.0712220 147.9704080   8.3923100  38.4176270 145.8011030   5.6520580
  37.9693570 145.8235290   4.8066130  37.7841470 145.4030050   6.2490880
  41.1599720 152.4281540   7.6570860  41.2795930 151.8322680   8.3965700
  42.0193720 152.4651230   7.2372160  43.4987620 152.9818730   6.2333370
  42.9722840 153.5061350   5.6298510  43.8418960 153.6146120   6.8643100
  37.9268490 148.9702890   8.9146680  38.5168180 148.6618740   9.6024500
  37.1088730 148.4982640   9.0706580  42.7461920 148.5868700   9.1479700
  42.0577440 147.9250240   9.0829690  43.4667940 148.1406970   9.5928160
  32.2923310 153.3287560   4.5884870  32.6596350 153.2414960   5.4680890
  31.7234130 152.5654110   4.4891730  47.0927170 151.7971940   7.6015340
  46.8613260 151.5684690   6.7013290  47.3531720 152.7171490   7.5560230
  31.8439310 150.2396650   8.4943290  30.9495360 150.2063410   8.8337000
  32.3836860 150.4383440   9.2594540  45.5315240 147.0228370  10.3795040
  46.4085420 147.0311770  10.7629040  45.5436080 146.2859210   9.7687390
  47.1568230 150.9597780   4.7902610  46.2070940 150.9261320   4.9047600
  47.3381240 151.8697890   4.5552380  32.3479020 144.5144980   2.8426510
  32.9955210 143.9642360   2.4021670  32.7680860 144.7688130   3.6642320
  46.2431360 144.7086340   6.1996150  46.8803580 145.3220480   6.5655340
  46.3906250 144.7447000   5.2545380  32.1011020 144.6700650   5.5851830
  31.7525840 145.1264470   6.3510010  31.7698720 143.7757780   5.6674260
  39.6135840 145.8612530   9.1071250  39.5524730 146.4534360   9.8566660
  40.5536220 145.7538490   8.9621510  42.2510400 145.5182590   8.7463540
  42.8650810 145.8361880   8.0844620  42.7959960 145.0331180   9.3659400
  32.7731660 144.1976850   8.8602600  33.3214650 144.0164900   8.0968710
  32.8386970 143.4070960   9.3958910  42.9918440 144.0814730   5.0732830
  42.1178280 144.4149840   4.8705760  42.8829190 143.6087910   5.8984700
  43.8990420 146.2885600   6.4574550  43.5703780 145.4737360   6.0776280
  44.8472720 146.2455410   6.3340240  40.7393260 144.9984570   4.0125740
  39.9565050 145.4730070   4.2922500  40.4456190 144.0939400   3.9038920
  36.7752220 144.8455220  10.5639310  36.4936490 145.3488820   9.8000130
  37.1571920 144.0476970  10.1981440  43.3767680 144.2608800  11.1419780
  43.2633130 144.5803410  12.0371300  44.1937420 144.6621310  10.8457060
  42.2825830 133.5057780 150.4745930  42.2019880 132.5912390 150.2037640
  41.8690250 134.0024850 149.7685640  44.4351300 139.6896990 151.1354330
  43.9732830 138.9184230 151.4641500  45.2476850 139.7163060 151.6406780
  32.8401650 130.5558500 147.0173350  31.9518350 130.8974470 146.9153230
  33.1242840 130.3558820 146.1254180  40.6614610 141.9755000 150.7558320
  40.0426050 142.4312500 150.1852760  41.5166390 142.1306460 150.3548020
  35.0163040 129.1390000 148.0511730  35.1229790 130.0393730 148.3580490
  34.1055400 129.0907970 147.7606380  44.6682150 128.2614810 149.5222630
  45.4891770 127.7711380 149.5648110  44.7016230 128.8512470 150.2754470
  41.5277960 136.8594240 148.1490230  40.9095230 137.3243690 147.5852950
  42.0401210 137.5521720 148.5659740  30.8961160 137.5450770 145.5229860
  30.5189140 138.0337870 144.7914760  31.1534230 138.2176050 146.1536390
  38.5050090 125.9467160 150.9815370  38.8125070 125.3914050 150.2650870
  37.5750790 126.0811620 150.7988360  45.3510570 138.3850670 148.3613000
  45.2406900 137.4425000 148.4862420  45.3478820 138.7466310 149.2475760
  40.8930850 134.0115990 147.7175490  39.9660130 133.9453370 147.9463960
  41.0455670 134.9496120 147.6030730  40.8799930 130.2832990 144.7142650
  39.9403600 130.4446950 144.7995110  41.1983190 131.0018670 144.1678640
  44.9228140 135.5736290 148.2210740  44.3040560 135.2355840 147.5737040
  44.9052590 134.9296050 148.9289930  36.4987490 134.5380730 150.4995220
  36.0944490 133.8257980 150.0041120  36.5850610 134.1933970 151.3883260
  43.0992840 134.8123100 145.2283490  43.5386120 133.9745530 145.0821310
  43.8121260 135.4452500 145.3147630  41.2088220 139.7519170 149.1964730
  41.6484130 140.4943500 148.7820120  41.1475110 139.9945740 150.1203690
  46.6809980 126.0665910 143.5424530  46.3682640 126.1592740 144.4423600
  47.4422450 126.6446940 143.4921960  33.1992120 133.4325710 148.0001870
  33.0789720 134.1587800 147.3883140  32.8893010 132.6628620 147.5229780
  32.0825120 138.3041040 150.2176690  31.6753200 138.4455630 149.3630290
  32.9738130 138.0201200 150.0147900  43.8758400 142.7388290 146.5527740
  43.7159540 142.4491230 147.4509570  43.7105110 141.9628420 146.0172970
  36.3546780 142.5186820 148.3299360  36.1789260 141.6022360 148.1167160
  35.5002520 142.8774110 148.5697160  43.5784530 140.2475850 145.1125740
  42.8849690 140.2453140 144.4528020  44.3207390 139.8235170 144.6819910
  43.1434460 141.8738560 149.1874230  43.5991410 141.0927940 149.5012850
  43.4826980 142.5845380 149.7315410  35.6655780 126.7760780 151.3825540
  35.2223930 127.5570320 151.0510060  36.2240770 127.0990670 152.0896480
  38.7814600 126.3971480 146.2631370  38.1568780 126.3931350 146.9884680
  38.6944720 125.5302440 145.8667340  35.4570000 131.8994350 149.1106790
  35.2310920 131.6831520 150.0153410  34.6762530 132.3322810 148.7652760
  42.6867760 131.9057720 147.7097440  42.0876650 132.6293520 147.5261060
  43.2347370 131.8434500 146.9273890  41.2932630 130.5421260 149.7400720
  41.6862200 130.8593460 148.9269410  41.6549480 129.6633140 149.8545240
  30.5167030 131.0742180 143.1733640  30.4341700 132.0172940 143.3148630
  30.1650090 130.9317090 142.2945990  38.3165160 129.8081210 152.2403990
  38.3201220 129.3671160 151.3908530  39.2116280 130.1298540 152.3475810
  34.1667540 129.6907700 151.1998200  33.8267590 130.1682930 151.9565250
  33.4044860 129.2372820 150.8399300  38.3785310 130.8093290 145.2310750
  38.4998130 130.7679770 146.1796570  37.9933820 131.6717440 145.0757480
  37.3906810 133.1194430 144.6294050  36.8223710 132.6712680 144.0029960
  38.0995810 133.4787210 144.0959200  31.4813620 128.6126680 150.1162870
  31.1960540 128.2482350 150.9541490  31.4192480 127.8807140 149.5026010
  34.9354290 137.1152620 146.9020460  34.1616550 136.5750240 146.7419180
  35.6648920 136.5959230 146.5638220  41.1552210 127.5055940 146.8376240
  40.3416820 127.0069110 146.7621550  40.9614160 128.3454190 146.4212590
  43.8700600 131.8775590 145.1338400  44.7580220 132.1892820 144.9589740
  43.8405690 131.0047840 144.7418980  34.9791690 136.7833000 150.5399270
  35.4970360 135.9801260 150.4856160  34.5275710 136.7212140 151.3816100
  39.8661190 138.0499280 145.8126570  40.2076890 138.7941510 145.3169890
  39.0373900 138.3630400 146.1751400  46.1414870 133.1887430 144.6018260
  46.0578590 133.6201650 143.7514700  46.8609060 133.6485780 145.0345080
  47.1702120 140.0429690 147.3300390  46.5278280 139.3885310 147.6044110
  46.7832780 140.4484780 146.5541060  42.7488600 137.3715120 151.1772080
  43.1012420 136.7743250 150.5173450  41.8650930 137.0459350 151.3480330
  38.8351880 138.1312810 148.5842490  39.5223010 138.6782020 148.9650080
  38.0484300 138.6753540 148.6192100  30.9744280 133.7485630 144.0759570
  31.8439130 134.0310430 144.3595490  30.4834600 134.5621500 143.9608380
  38.1379090 135.1358840 148.1967850  38.5941870 135.9464090 148.4228040
  37.7867300 134.8181980 149.0286340  34.0390870 125.4796490 148.6690370
  33.9105500 125.4714390 149.6175290  33.2152890 125.8179580 148.3181380
  45.5599500 138.9346150 143.8676740  45.3337080 138.2176590 144.4601380
  45.1695700 138.6858590 143.0298490  31.3415530 142.9613010 144.6421200
  31.7013170 143.5602350 143.9878470  31.2007870 143.5072900 145.4156230
  45.1415750 136.8518090 145.5290900  44.8537450 137.3130780 146.3168780
  45.9367920 136.3915860 145.7975120  37.3584150 140.3444210 145.4594870
  37.3494250 141.0773900 144.8439380  36.4382510 140.0975790 145.5521830
  32.9590790 135.5659100 146.2041630  32.3518740 136.3058000 146.2136930
  33.4340140 135.6558460 145.3779830  45.8985610 128.6866860 146.6886080
  45.2698770 128.7912530 145.9744310  45.4037530 128.9063640 147.4779960
  40.3443750 140.4072450 144.1220060  40.4455730 140.2036440 143.1922040
  39.4445490 140.1530730 144.3267840  37.8669640 130.9652810 148.1043960
  37.1585790 131.4339150 148.5457570  38.1514120 130.3074820 148.7389150
  41.8985070 127.6903470 149.5439750  41.7752850 127.7089600 148.5949260
  42.8469630 127.7382410 149.6638150  38.9861860 142.9258770 148.8167730
  39.2403360 142.8880160 147.8947100  38.0374340 142.7992100 148.8095980
  36.0704660 129.2737890 145.4794670  36.9195190 129.7108040 145.4134860
  35.7035930 129.5858150 146.3066730  44.9914440 133.8450650 150.3926240
  44.0504580 133.8600880 150.5673930  45.3058510 133.0586610 150.8386540
  34.9696080 135.5270250 143.9530200  35.7359350 135.4151610 144.5155630
  35.0470770 134.8308220 143.3006970  33.6642840 132.9595320 144.6363090
  33.7446430 132.0122830 144.7480490  34.5562590 133.2902200 144.7423750
  34.4657550 143.1090710 151.7397630  35.2020030 142.5606170 152.0106200
  34.8498470 143.9746720 151.6003620  31.3503030 139.1764280 147.6139140
  30.4242810 139.4185420 147.6044550  31.8159460 140.0038540 147.4923890
  37.5759860 142.2821020 143.5623200  38.3688470 142.5709850 143.1104990
  37.0564210 141.8513190 142.8835680  46.6290030 141.5091150 144.9859940
  46.3431540 141.0956290 144.1714120  46.4309580 142.4378860 144.8660460
  38.0937260 137.5024430 143.4265550  37.9887900 136.8876780 144.1526930
  37.9261480 136.9790320 142.6428560  41.3339990 136.5644460 144.0307540
  40.7850090 137.0113760 144.6750280  41.9559250 136.0593710 144.5545210
  37.0015110 135.5235380 145.9272840  37.4231530 135.3575250 146.7704230
  37.1265950 134.7135610 145.4327980  39.5142750 134.5472990 143.1749940
  40.0348410 133.8322010 142.8091090  40.1611150 135.1858860 143.4750450
  35.8974010 131.5968610 142.8731000  35.6963070 130.7335970 143.2344340
  35.7266060 131.5101970 141.9352600  43.3762320 126.4076840 145.4017880
  43.6564610 125.5644740 145.7577300  42.6028050 126.6399950 145.9156630
  34.6956810 128.6969230 142.8608880  34.9982710 128.7036660 141.9528030
  35.4351400 128.3467090 143.3576540  37.9141740 127.6403850 143.8465080
  37.5663740 126.9627840 143.2667530  38.1154510 127.1793360 144.6608470
  40.0790780 142.6284600 145.4651680  40.9741570 142.9669570 145.4870440
  40.1108410 141.9064010 144.8375960  33.7186940 138.0011650 143.6938680
  34.1561810 138.5441320 144.3496260  34.2034670 137.1758600 143.7035020
  30.9332740 140.7900680 151.1458940  31.2635750 139.9221740 150.9137580
  31.3623740 140.9959200 151.9763900  35.5294660 139.1209690 148.8060910
  35.2290200 138.9974660 149.7064820  35.4232150 138.2618280 148.3976640
  48.2986580 138.9006090 143.5087590  47.4679540 138.9682740 143.9794820
  48.4758410 139.7910210 143.2054450  47.7543040 135.6453570 146.0121790
  48.5161950 136.2150220 146.1181480  47.7697410 135.0780770 146.7830100
  31.2547380 134.1691500 150.2429450  30.5996220 133.9003140 149.5989150
  32.0925330 134.0595980 149.7931430  48.7603010 136.5003670 150.8563720
  49.1311840 135.7170990 150.4499690  49.4004940 137.1892770 150.6781020
  47.8062210 135.9387940 143.1694310  48.0811050 136.8466820 143.0413530
  47.6172950 135.8750470 144.1056300  44.2037820 128.9632790 144.4647940
  44.6222700 128.7763770 143.6244600  43.8973880 128.1111840 144.7750870
  47.7027550 133.8756930 148.1623740  47.3271150 133.1084860 147.7305030
  46.9730670 134.2579630 148.6498670  30.4685460 131.3790430 146.1854780
  29.5649540 131.6420630 146.0106440  30.9526080 131.6501600 145.4054740
  46.9778510 132.1014420 151.4630980  47.5015990 131.6077070 150.8321150
  47.5637930 132.2364780 152.2078550  33.0112670 130.4355970 144.0949160
  33.7204370 130.0139190 143.6096440  32.2952610 130.5031200 143.4632510
  32.6586830 126.4895300 143.1351810  33.3814960 127.0304240 143.4533030
  32.9311350 126.2158720 142.2593350  46.4678480 131.3587770 147.4023390
  46.9637600 131.1258640 148.1872270  46.2694550 130.5199610 146.9861030
  47.8965640 129.9948720 149.9361070  47.7864920 129.8404760 150.8743340
  48.6573230 129.4669660 149.6936480  48.7855910 127.8256640 143.1767210
  49.7105220 127.6937820 142.9685500  48.7631700 127.9049460 144.1303660
  48.8594400 128.5967300 145.8023920  48.0645900 128.5312420 146.3316830
  49.0637680 129.5317940 145.7909270  45.8012820 142.6358850 149.7962310
  46.3971890 142.3143420 149.1196730  46.0590970 142.1630670 150.5875580
  45.2914330 126.9264180 152.2522750  45.7322420 126.8709280 151.4044350
  45.0221920 127.8422190 152.3232930  47.1552900 126.5579420 150.2631570
  47.0941300 125.6140640 150.1162590  47.9344930 126.6659510 150.8085030
  31.4605650 142.6971780 149.2255520  31.2927690 142.0642460 149.9237410
  30.5940160 142.9031180 148.8749710  32.0833670 126.5288560 146.7287380
  32.8413030 126.6417440 146.1551410  31.6210840 127.3657760 146.6830810
  38.6247480 128.6427830 149.7189690  37.8121990 128.2684720 149.3785570
  39.1289120 127.8872910 150.0210880  43.1272460 125.3070280 150.9572760
  43.7301830 125.8790490 151.4321280  42.3865450 125.8709720 150.7346660
  46.2707060 125.7091840 146.2313040  46.4657690 126.6075290 146.4980470
  45.4836930 125.4778920 146.7245990  33.0668350 141.3905010 146.6705660
  32.5415970 141.7713040 145.9667620  32.9912930 142.0155780 147.3915370
  34.4558820 127.0552610 145.2689350  34.9851580 126.2682410 145.1397300
  35.0887140 127.7343800 145.5024880  36.6496660 126.7927750 148.3234740
  36.0199400 126.0915060 148.4904870  36.1101800 127.5531880 148.1067900
  47.8233670 142.9492550 147.9919600  47.9985860 142.2630290 147.3480520
  47.1255240 143.4739600 147.5996270  35.6661320 143.3387390 145.5454910
  36.3980140 143.0546670 144.9978800  35.9254990 143.1000670 146.4354290
  34.8276110 139.4552120 145.5501240  34.1984990 139.9237220 146.0987070
  34.9423940 138.6101340 145.9847430  42.2825830 133.5057780 131.7002440
  42.2019880 132.5912390 131.4294150  41.8690250 134.0024850 130.9942150
  40.4143870 135.2836800 133.5811710  39.6385970 134.8037240 133.8710280
  41.0656800 134.6042450 133.4067870  34.4309700 135.5956610 134.4587470
  33.5994580 135.3405320 134.8583980  35.0390680 135.6667380 135.1945390
  44.4351300 139.6896990 132.3610840  43.9732830 138.9184230 132.6898010
  45.2476850 139.7163060 132.8663290  34.4110960 139.6296700 134.6545490
  34.7139000 138.7394440 134.4755710  35.1554550 140.1866920 134.4267740
  32.8401650 130.5558500 128.2429860  31.9518350 130.8974470 128.1409740
  33.1242840 130.3558820 127.3510690  30.8034660 133.1564150 134.1269560
  31.3750770 132.3886350 134.1273200  30.8036200 133.4552910 133.2176170
  40.6614610 141.9755000 131.9814830  40.0426050 142.4312500 131.4109270
  41.5166390 142.1306460 131.5804530  39.8552860 137.9593990 133.5881870
  39.7861140 137.0183930 133.4271000  40.6172720 138.0495400 134.1604440
  32.0459530 128.5648510 135.9138490  31.8662370 127.6674260 136.1941250
  31.6439610 129.1120380 136.5885440  40.8858030 130.7664370 133.8150800
  41.2622850 129.8936250 133.7024470  40.7877540 131.1023070 132.9241240
  35.0163040 129.1390000 129.2768240  35.1229790 130.0393730 129.5837000
  34.1055400 129.0907970 128.9862890  44.6682150 128.2614810 130.7479140
  45.4891770 127.7711380 130.7904620  44.7016230 128.8512470 131.5010980
  32.6646200 131.0609010 134.5220830  33.3456310 131.3247380 135.1408230
  32.3494250 130.2209880 134.8558840  36.8570770 132.1076370 133.6093420
  37.3648990 132.6057340 134.2498440  37.3884010 131.3311570 133.4332780
  48.9581700 130.2781560 137.3122770  48.2533870 130.6663270 136.7937880
  49.2239620 130.9731850 137.9143700  35.1406870 126.7474930 137.8756840
  35.1425310 127.2647320 137.0702740  34.3111180 126.2705110 137.8526770
  41.5277960 136.8594240 129.3746740  40.9095230 137.3243690 128.8109460
  42.0401210 137.5521720 129.7916250  36.3909720 136.3870110 136.0530340
  36.0579100 137.0139030 136.6951410  36.5676400 136.9131990 135.2732010
  44.9043630 130.2015190 133.5206680  44.1999200 130.4900080 134.1009790
  45.2655790 131.0115300 133.1606240  34.8222200 128.4584890 135.8827290
  35.1639010 129.3026940 135.5881160  33.8838010 128.6068630 135.9992630
  35.6028820 138.3550910 137.8679520  36.2202820 139.0301990 137.5863970
  34.7421940 138.7638890 137.7767020  30.8961160 137.5450770 126.7486370
  30.5189140 138.0337870 126.0171270  31.1534230 138.2176050 127.3792900
  46.5206410 139.8190320 135.7834160  45.8369930 140.4889430 135.7750830
  47.0600700 140.0170970 135.0179020  47.9730550 129.6469980 133.9115890
  47.0255460 129.6808960 134.0431320  48.2980540 130.4608930 134.2965250
  38.5050090 125.9467160 132.2071880  38.8125070 125.3914050 131.4907380
  37.5750790 126.0811620 132.0244870  44.0565150 141.6634450 134.4979340
  44.0692310 141.2596740 133.6301600  43.5040370 142.4381740 134.3940770
  45.3510570 138.3850670 129.5869510  45.2406900 137.4425000 129.7118930
  45.3478820 138.7466310 130.4732270  43.4550590 136.5664290 135.8261950
  43.8719380 136.3524400 134.9915410  44.1790410 136.8237080 136.3970570
  40.8930850 134.0115990 128.9432000  39.9660130 133.9453370 129.1720470
  41.0455670 134.9496120 128.8287240  40.8799930 130.2832990 125.9399160
  39.9403600 130.4446950 126.0251620  41.1983190 131.0018670 125.3935150
  47.4012690 134.9651510 135.9178190  46.5731320 135.0344600 135.4428320
  47.9963170 135.5505820 135.4494020  44.9228140 135.5736290 129.4467250
  44.3040560 135.2355840 128.7993550  44.9052590 134.9296050 130.1546440
  44.3654700 131.7520830 136.8633060  43.9525880 132.5774540 137.1173050
  43.6330650 131.1665870 136.6709420  36.4987490 134.5380730 131.7251730
  36.0944490 133.8257980 131.2297630  36.5850610 134.1933970 132.6139770
  36.9669190 138.2248290 133.8890940  36.6697480 137.6193760 133.2098720
  37.9169010 138.2625600 133.7780300  35.2116110 131.3123940 135.5050770
  35.7630700 131.4219280 134.7304020  35.7259620 131.6861540 136.2206000
  45.0554800 141.7980160 137.5514040  44.5785360 142.6052350 137.3586650
  44.3716590 141.1458490 137.7040250  36.0587620 137.9629980 140.5398740
  35.1616150 138.1869950 140.7872140  36.0840490 138.0864920 139.5910140
  43.0992840 134.8123100 126.4540000  43.5386120 133.9745530 126.3077820
  43.8121260 135.4452500 126.5404140  34.8858840 134.8343300 139.1156110
  34.7466610 135.7066100 139.4843510  34.0040200 134.4916110 138.9704050
  41.2088220 139.7519170 130.4221240  41.6484130 140.4943500 130.0076630
  41.1475110 139.9945740 131.3460200  36.6839190 140.7765000 141.3241260
  36.6554620 141.1807950 140.4569690  36.5204160 139.8475360 141.1612860
  46.6809980 126.0665910 124.7681040  46.3682640 126.1592740 125.6680110
  47.4422450 126.6446940 124.7178470  33.1992120 133.4325710 129.2258380
  33.0789720 134.1587800 128.6139650  32.8893010 132.6628620 128.7486290
  48.6354010 141.5592100 142.6205430  49.1113730 142.0374990 143.2994510
  49.2561170 141.4909590 141.8950930  30.8377490 136.6040850 135.0327020
  30.9157910 136.7389620 134.0882740  31.4519170 135.8956740 135.2255140
  32.0825120 138.3041040 131.4433200  31.6753200 138.4455630 130.5886800
  32.9738130 138.0201200 131.2404410  48.0387260 138.7504950 139.7805440
  48.1650320 138.5116830 138.8622620  48.0808640 137.9189490 140.2527520
  41.9004000 142.4532950 138.3500250  42.4148670 142.3640960 139.1522680
  41.0573080 142.7992650 138.6428160  43.8758400 142.7388290 127.7784250
  43.7159540 142.4491230 128.6766080  43.7105110 141.9628420 127.2429480
  36.3546780 142.5186820 129.5555870  36.1789260 141.6022360 129.3423670
  35.5002520 142.8774110 129.7953670  43.5784530 140.2475850 126.3382250
  42.8849690 140.2453140 125.6784530  44.3207390 139.8235170 125.9076420
  43.1434460 141.8738560 130.4130740  43.5991410 141.0927940 130.7269360
  43.4826980 142.5845380 130.9571920  47.8911270 130.8037410 140.7455180
  47.2755540 131.3117080 140.2170640  47.5707690 129.9035740 140.6881120
  30.8937010 137.6455020 137.5721480  31.0568050 137.1760380 136.7540850
  31.3589460 137.1378580 138.2370320  35.6655780 126.7760780 132.6082050
  35.2223930 127.5570320 132.2766570  36.2240770 127.0990670 133.3152990
  39.9525590 129.6429300 138.2117370  39.4904960 129.8512320 139.0237310
  39.5503700 128.8288650 137.9088040  44.9530100 130.8638250 139.3414030
  44.1023690 130.5644000 139.6623100  44.7931890 131.1080260 138.4297850
  42.0479810 132.3640000 141.4412820  42.3733220 131.5303750 141.1015050
  42.8360140 132.8868520 141.5891150  38.7814600 126.3971480 127.4887880
  38.1568780 126.3931350 128.2141190  38.6944720 125.5302440 127.0923850
  37.7031680 127.3208110 134.4671650  38.0004010 128.2270940 134.3863670
  38.2517240 126.8326890 133.8531220  35.4570000 131.8994350 130.3363300
  35.2310920 131.6831520 131.2409920  34.6762530 132.3322810 129.9909270
  42.6867760 131.9057720 128.9353950  42.0876650 132.6293520 128.7517570
  43.2347370 131.8434500 128.1530400  37.8969210 132.7979930 141.0023570
  37.8012810 131.8574660 140.8523970  38.7401190 133.0195000 140.6071640
  41.2932630 130.5421260 130.9657230  41.6862200 130.8593460 130.1525920
  41.6549480 129.6633140 131.0801750  33.0279750 129.2093600 139.1557350
  32.6343140 130.0568810 139.3630130  32.3398150 128.5719970 139.3465990
  39.6024800 129.2928570 142.2254090  38.9123120 129.1000770 142.8600180
  40.3457100 129.5763210 142.7578390  30.3296800 127.1322060 133.1887430
  30.0409850 127.7024920 133.9012410  31.0742560 126.6526510 133.5518660
  30.5167030 131.0742180 124.3990150  30.4341700 132.0172940 124.5405140
  30.1650090 130.9317090 123.5202500  41.8787770 133.1327010 135.0608010
  41.1468890 133.6413820 135.4098110  41.4812110 132.3156990 134.7596790
  38.3165160 129.8081210 133.4660500  38.3201220 129.3671160 132.6165040
  39.2116280 130.1298540 133.5732320  34.1667540 129.6907700 132.4254710
  33.8267590 130.1682930 133.1821760  33.4044860 129.2372820 132.0655810
  38.3785310 130.8093290 126.4567260  38.4998130 130.7679770 127.4053080
  37.9933820 131.6717440 126.3013990  42.3413680 128.5860690 134.4730950
  42.3586420 129.0369340 135.3172800  42.0929260 127.6866330 134.6864390
  37.3906810 133.1194430 125.8550560  36.8223710 132.6712680 125.2286470
  38.0995810 133.4787210 125.3215710  45.7684430 125.9992870 140.3117330
  46.0930200 125.2682530 140.8375310  45.8040940 125.6806510 139.4098320
  32.4675990 137.0206450 139.7317290  32.0830780 136.3800120 140.3300250
  32.7788180 137.7242570 140.3012020  38.6173130 133.8682990 135.2125910
  38.9843260 133.3941560 135.9587250  38.4278190 134.7424560 135.5534250
  31.4813620 128.6126680 131.3419380  31.1960540 128.2482350 132.1798000
  31.4192480 127.8807140 130.7282520  36.4072500 132.9091630 137.5310120
  36.1029570 133.7883610 137.7560480  37.3618960 132.9691420 137.5667560
  34.9354290 137.1152620 128.1276970  34.1616550 136.5750240 127.9675690
  35.6648920 136.5959230 127.7894730  45.6942270 136.1117980 133.9203360
  46.4141390 136.6073270 133.5299470  45.4924090 135.4335870 133.2757230
  41.1552210 127.5055940 128.0632750  40.3416820 127.0069110 127.9878060
  40.9614160 128.3454190 127.6469100  41.0761070 136.1827040 139.8072360
  41.0098380 135.2622710 139.5529950  40.4466210 136.2802480 140.5217000
  43.8700600 131.8775590 126.3594910  44.7580220 132.1892820 126.1846250
  43.8405690 131.0047840 125.9675490  34.9791690 136.7833000 131.7655780
  35.4970360 135.9801260 131.7112670  34.5275710 136.7212140 132.6072610
  39.8661190 138.0499280 127.0383080  40.2076890 138.7941510 126.5426400
  39.0373900 138.3630400 127.4007910  32.4636230 133.7494370 138.6781480
  32.1051170 134.4148220 139.2654820  32.1690790 132.9177920 139.0494100
  35.6649350 134.2078610 141.5621030  35.3649490 134.3535790 140.6648850
  36.4360590 133.6483900 141.4694420  41.0077800 139.0047610 139.5576160
  41.0222340 138.0728570 139.3395070  40.3002900 139.0907370 140.1965930
  46.1414870 133.1887430 125.8274770  46.0578590 133.6201650 124.9771210
  46.8609060 133.6485780 126.2601590  47.2189010 135.6454950 138.9044740
  46.4937200 136.2383730 138.7074130  47.7464470 135.6378490 138.1058110
  47.1702120 140.0429690 128.5556900  46.5278280 139.3885310 128.8300620
  46.7832780 140.4484780 127.7797570  42.7488600 137.3715120 132.4028590
  43.1012420 136.7743250 131.7429960  41.8650930 137.0459350 132.5736840
  38.8351880 138.1312810 129.8099000  39.5223010 138.6782020 130.1906590
  38.0484300 138.6753540 129.8448610  30.9744280 133.7485630 125.3016080
  31.8439130 134.0310430 125.5852000  30.4834600 134.5621500 125.1864890
  38.1379090 135.1358840 129.4224360  38.5941870 135.9464090 129.6484550
  37.7867300 134.8181980 130.2542850  40.4411700 140.6465180 136.6516660
  41.0853920 140.8524560 137.3290080  40.8041140 139.8853580 136.1987510
  34.0390870 125.4796490 129.8946880  33.9105500 125.4714390 130.8431800
  33.2152890 125.8179580 129.5437890  41.7143780 138.6497530 135.3694110
  42.3566010 137.9490690 135.4826280  42.2393130 139.4295970 135.1891000
  45.5599500 138.9346150 125.0933250  45.3337080 138.2176590 125.6857890
  45.1695700 138.6858590 124.2555000  43.4881400 139.4492430 138.5730170
  43.8237640 140.0359120 139.2508090  42.5681740 139.3185140 138.8027960
  31.3415530 142.9613010 125.8677710  31.7013170 143.5602350 125.2134980
  31.2007870 143.5072900 126.6412740  31.0384800 127.2387610 139.3553580
  30.3243320 127.4384530 139.9606190  31.4579840 126.4627180 139.7268380
  45.1415750 136.8518090 126.7547410  44.8537450 137.3130780 127.5425290
  45.9367920 136.3915860 127.0231630  31.3257390 141.2267870 140.3420110
  31.4348510 140.2862610 140.2015500  30.6737950 141.4922620 139.6933840
  39.3169980 139.4983760 141.7418230  38.9966850 138.7793000 142.2863920
  38.6428340 140.1738830 141.8154290  37.3584150 140.3444210 126.6851380
  37.3494250 141.0773900 126.0695890  36.4382510 140.0975790 126.7778340
  32.9590790 135.5659100 127.4298140  32.3518740 136.3058000 127.4393440
  33.4340140 135.6558460 126.6036340  42.5323580 129.7309920 137.1055030
  42.9004400 128.9105130 137.4334600  41.6721780 129.7911810 137.5210680
  45.8985610 128.6866860 127.9142590  45.2698770 128.7912530 127.2000820
  45.4037530 128.9063640 128.7036470  40.3443750 140.4072450 125.3476570
  40.4455730 140.2036440 124.4178550  39.4445490 140.1530730 125.5524350
  37.8669640 130.9652810 129.3300470  37.1585790 131.4339150 129.7714080
  38.1514120 130.3074820 129.9645660  39.4925570 132.3849510 137.3293000
  39.9910820 132.8595330 137.9944850  39.6348520 131.4613030 137.5363030
  41.8985070 127.6903470 130.7696260  41.7752850 127.7089600 129.8205770
  42.8469630 127.7382410 130.8894660  38.9861860 142.9258770 130.0424240
  39.2403360 142.8880160 129.1203610  38.0374340 142.7992100 130.0352490
  36.0704660 129.2737890 126.7051180  36.9195190 129.7108040 126.6391370
  35.7035930 129.5858150 127.5323240  46.6992430 128.6017470 138.1721390
  46.1966030 129.3422870 138.5115200  47.5149090 128.9901470 137.8558180
  44.9914440 133.8450650 131.6182750  44.0504580 133.8600880 131.7930440
  45.3058510 133.0586610 132.0643050  34.9696080 135.5270250 125.1786710
  35.7359350 135.4151610 125.7412140  35.0470770 134.8308220 124.5263480
  33.6642840 132.9595320 125.8619600  33.7446430 132.0122830 125.9737000
  34.5562590 133.2902200 125.9680260  46.9940020 141.0159500 133.2937010
  47.1187440 141.8390670 133.7660820  47.8605580 140.8050230 132.9461160
  34.4657550 143.1090710 132.9654140  35.2020030 142.5606170 133.2362710
  34.8498470 143.9746720 132.8260130  31.3503030 139.1764280 128.8395650
  30.4242810 139.4185420 128.8301060  31.8159460 140.0038540 128.7180400
  33.4715830 142.2936780 142.1539720  34.2728560 142.6148830 142.5675120
  32.9567650 141.9332360 142.8759630  37.5759860 142.2821020 124.7879710
  38.3688470 142.5709850 124.3361500  37.0564210 141.8513190 124.1092190
  42.3080460 138.4016650 142.1015130  41.7018620 138.4248250 141.3610880
  42.0034570 137.6699690 142.6382380  43.7380830 142.1296940 140.7124540
  44.6902580 142.0454960 140.6624780  43.5909050 142.7938650 141.3858330
  46.6290030 141.5091150 126.2116450  46.3431540 141.0956290 125.3970630
  46.4309580 142.4378860 126.0916970  31.1913640 134.7810240 141.0975770
  31.6952660 134.2017520 141.6692000  30.4521060 135.0650470 141.6352140
  38.0937260 137.5024430 124.6522060  37.9887900 136.8876780 125.3783440
  37.9261480 136.9790320 123.8685070  38.2451580 136.1881230 140.6311290
  37.4797250 136.7566230 140.5465960  38.4267540 135.8957440 139.7379520
  41.3339990 136.5644460 125.2564050  40.7850090 137.0113760 125.9006790
  41.9559250 136.0593710 125.7801720  45.3874930 137.9186560 141.1886310
  46.1284400 138.2562320 140.6853770  44.6247610 138.0878620 140.6356080
  33.2236720 132.9239830 141.9925840  33.2642060 132.6253700 142.9011070
  34.0782220 133.3247440 141.8333360  37.0015110 135.5235380 127.1529350
  37.4231530 135.3575250 127.9960740  37.1265950 134.7135610 126.6584490
  35.1642530 131.5031930 139.9600330  34.6338990 131.0122880 139.3323670
  35.8330600 131.9316130 139.4258260  39.5142750 134.5472990 124.4006450
  40.0348410 133.8322010 124.0347600  40.1611150 135.1858860 124.7006960
  44.0620590 135.9701390 139.7241520  44.4761610 136.1246470 140.5731940
  43.1271590 136.0956610 139.8867300  44.5342760 133.3097550 141.7280670
  45.1163530 132.5549870 141.6401150  44.7104530 133.8404990 140.9512150
  35.6514830 128.4694300 140.0397620  35.5571700 127.8515050 139.3148490
  35.0712220 129.1960590 139.8127530  38.4176270 127.0267540 137.0725010
  37.9693570 127.0491800 136.2270560  37.7841470 126.6286560 137.6695310
  38.8235820 135.9221870 137.6937450  39.2423930 136.7654600 137.5213690
  37.9044450 136.0593910 137.4644230  41.1599720 133.6538050 139.0775290
  41.2795930 133.0579190 139.8170130  42.0193720 133.6907740 138.6576590
  43.4987620 134.2075240 137.6537800  42.9722840 134.7317860 137.0502940
  43.8418960 134.8402630 138.2847530  35.8974010 131.5968610 124.0987510
  35.6963070 130.7335970 124.4600850  35.7266060 131.5101970 123.1609110
  36.6743240 142.2274880 138.8095180  36.1364330 142.9520940 138.4903880
  36.9277200 141.7505220 138.0192520  37.9268490 130.1959400 140.3351110
  38.5168180 129.8875250 141.0228930  37.1088730 129.7239150 140.4911010
  42.7461920 129.8125210 140.5684130  42.0577440 129.1506750 140.5034120
  43.4667940 129.3663480 141.0132590  43.3762320 126.4076840 126.6274390
  43.6564610 125.5644740 126.9833810  42.6028050 126.6399950 127.1413140
  34.6956810 128.6969230 124.0865390  34.9982710 128.7036660 123.1784540
  35.4351400 128.3467090 124.5833050  39.5305450 143.4626090 139.0681830
  39.4564150 144.3661230 139.3754200  38.6284290 143.1437990 139.0403900
  37.9141740 127.6403850 125.0721590  37.5663740 126.9627840 124.4924040
  38.1154510 127.1793360 125.8864980  40.0790780 142.6284600 126.6908190
  40.9741570 142.9669570 126.7126950  40.1108410 141.9064010 126.0632470
  33.7186940 138.0011650 124.9195190  34.1561810 138.5441320 125.5752770
  34.2034670 137.1758600 124.9291530  30.9332740 140.7900680 132.3715450
  31.2635750 139.9221740 132.1394090  31.3623740 140.9959200 133.2020410
  35.5294660 139.1209690 130.0317420  35.2290200 138.9974660 130.9321330
  35.4232150 138.2618280 129.6233150  31.4222950 141.6571270 135.1097080
  30.9853940 141.8372070 135.9421230  31.9900630 142.4145890 134.9678800
  47.0585130 141.1588270 139.3974390  46.4587120 141.2180830 138.6538310
  47.1879030 140.2193250 139.5271240  48.2986580 138.9006090 124.7344100
  47.4679540 138.9682740 125.2051330  48.4758410 139.7910210 124.4310960
  47.7543040 135.6453570 127.2378300  48.5161950 136.2150220 127.3437990
  47.7697410 135.0780770 128.0086610  31.2547380 134.1691500 131.4685960
  30.5996220 133.9003140 130.8245660  32.0925330 134.0595980 131.0187940
  48.7603010 136.5003670 132.0820230  49.1311840 135.7170990 131.6756200
  49.4004940 137.1892770 131.9037530  45.7436770 137.8840250 137.4950550
  44.9296610 138.3137410 137.7576340  46.1510970 138.4958660 136.8819600
  47.8062210 135.9387940 124.3950820  48.0811050 136.8466820 124.2670040
  47.6172950 135.8750470 125.3312810  44.2037820 128.9632790 125.6904450
  44.6222700 128.7763770 124.8501110  43.8973880 128.1111840 126.0007380
  47.7027550 133.8756930 129.3880250  47.3271150 133.1084860 128.9561540
  46.9730670 134.2579630 129.8755180  32.2923310 134.5544070 136.0089300
  32.6596350 134.4671470 136.8885320  31.7234130 133.7910620 135.9096160
  47.0927170 133.0228450 139.0219770  46.8613260 132.7941200 138.1217720
  47.3531720 133.9428000 138.9764660  31.8439310 131.4653160 139.9147720
  30.9495360 131.4319920 140.2541430  32.3836860 131.6639950 140.6798970
  45.5315240 128.2484880 141.7999470  46.4085420 128.2568280 142.1833470
  45.5436080 127.5115720 141.1891820  30.4685460 131.3790430 127.4111290
  29.5649540 131.6420630 127.2362950  30.9526080 131.6501600 126.6311250
  46.9778510 132.1014420 132.6887490  47.5015990 131.6077070 132.0577660
  47.5637930 132.2364780 133.4335060  47.1568230 132.1854290 136.2107040
  46.2070940 132.1517830 136.3252030  47.3381240 133.0954400 135.9756810
  33.0112670 130.4355970 125.3205670  33.7204370 130.0139190 124.8352950
  32.2952610 130.5031200 124.6889020  32.6586830 126.4895300 124.3608320
  33.3814960 127.0304240 124.6789540  32.9311350 126.2158720 123.4849860
  46.4678480 131.3587770 128.6279900  46.9637600 131.1258640 129.4128780
  46.2694550 130.5199610 128.2117540  32.3479020 125.7401490 134.2630940
  32.9955210 125.1898870 133.8226100  32.7680860 125.9944640 135.0846750
  47.8965640 129.9948720 131.1617580  47.7864920 129.8404760 132.0999850
  48.6573230 129.4669660 130.9192990  46.2431360 125.9342850 137.6200580
  46.8803580 126.5476990 137.9859770  46.3906250 125.9703510 136.6749810
  48.7855910 127.8256640 124.4023720  49.7105220 127.6937820 124.1942010
  48.7631700 127.9049460 125.3560170  48.8594400 128.5967300 127.0280430
  48.0645900 128.5312420 127.5573340  49.0637680 129.5317940 127.0165780
  45.8012820 142.6358850 131.0218820  46.3971890 142.3143420 130.3453240
  46.0590970 142.1630670 131.8132090  32.1011020 125.8957160 137.0056260
  31.7525840 126.3520980 137.7714440  31.7698720 125.0014290 137.0878690
  33.7075390 139.0676760 141.1709450  33.6645020 138.6969670 142.0523910
  33.8386400 140.0054330 141.3111270  37.4081420 140.6236350 136.7719170
  37.1672780 140.8910910 135.8849690  38.3484060 140.7942080 136.8270030
  39.6135840 127.0869040 140.5275680  39.5524730 127.6790870 141.2771090
  40.5536220 126.9795000 140.3825940  42.2510400 126.7439100 140.1667970
  42.8650810 127.0618390 139.5049050  42.7959960 126.2587690 140.7863830
  48.6685580 142.6430730 137.5729810  48.1743860 143.0399600 136.8556940
  48.0598870 142.0179940 137.9667090  32.7731660 125.4233360 140.2807030
  33.3214650 125.2421410 139.5173140  32.8386970 124.6327470 140.8163340
  33.5463420 142.0139010 138.2907230  32.9523740 141.8823710 139.0297270
  33.5387260 141.1777150 137.8249330  42.9918440 125.3071240 136.4937260
  42.1178280 125.6406350 136.2910190  42.8829190 124.8344420 137.3189130
  43.8990420 127.5142110 137.8778980  43.5703780 126.6993870 137.4980710
  44.8472720 127.4711920 137.7544670  46.3525030 143.2854150 134.8516550
  45.8928000 144.0369960 134.4774570  45.7237490 142.5660620 134.7931350
  33.1775650 139.3797390 137.2415270  32.4509710 138.7602680 137.1741220
  33.2384800 139.7738000 136.3713350  36.7820750 141.5942390 134.0264680
  37.2985770 140.9829750 133.5012940  37.4318130 142.0971170 134.5175690
  39.5216250 142.4850880 134.8533660  39.8094060 142.2305180 133.9766670
  40.0339470 141.9328240 135.4439230  40.7393260 126.2241080 135.4330170
  39.9565050 126.6986580 135.7126930  40.4456190 125.3195910 135.3243350
  45.2914330 126.9264180 133.4779260  45.7322420 126.8709280 132.6300860
  45.0221920 127.8422190 133.5489440  47.1552900 126.5579420 131.4888080
  47.0941300 125.6140640 131.3419100  47.9344930 126.6659510 132.0341540
  31.4605650 142.6971780 130.4512030  31.2927690 142.0642460 131.1493920
  30.5940160 142.9031180 130.1006220  32.0833670 126.5288560 127.9543890
  32.8413030 126.6417440 127.3807920  31.6210840 127.3657760 127.9087320
  38.6247480 128.6427830 130.9446200  37.8121990 128.2684720 130.6042080
  39.1289120 127.8872910 131.2467390  43.1272460 125.3070280 132.1829270
  43.7301830 125.8790490 132.6577790  42.3865450 125.8709720 131.9603170
  46.2707060 125.7091840 127.4569550  46.4657690 126.6075290 127.7236980
  45.4836930 125.4778920 127.9502500  33.0668350 141.3905010 127.8962170
  32.5415970 141.7713040 127.1924130  32.9912930 142.0155780 128.6171880
  34.4558820 127.0552610 126.4945860  34.9851580 126.2682410 126.3653810
  35.0887140 127.7343800 126.7281390  36.6496660 126.7927750 129.5491250
  36.0199400 126.0915060 129.7161380  36.1101800 127.5531880 129.3324410
  39.5888610 143.4066980 142.2201860  40.5155920 143.1711250 142.2637820
  39.5739040 144.2338980 141.7387890  47.8233670 142.9492550 129.2176110
  47.9985860 142.2630290 128.5737030  47.1255240 143.4739600 128.8252780
  36.7752220 126.0711730 141.9843740  36.4936490 126.5745330 141.2204560
  37.1571920 125.2733480 141.6185870  35.6661320 143.3387390 126.7711420
  36.3980140 143.0546670 126.2235310  35.9254990 143.1000670 127.6610800
  34.8276110 139.4552120 126.7757750  34.1984990 139.9237220 127.3243580
  34.9423940 138.6101340 127.2103940  43.3767680 125.4865310 142.5624210
  43.2633130 125.8059920 143.4575730  44.1937420 125.8877820 142.2661490
  46.1566170 142.6336840 142.0442900  46.9491490 142.1386070 141.8368860
  46.4499320 143.3126980 142.6518510  42.2825830 133.5057780 112.9258950
  42.2019880 132.5912390 112.6550660  41.8690250 134.0024850 112.2198660
  40.4143870 135.2836800 114.8068220  39.6385970 134.8037240 115.0966790
  41.0656800 134.6042450 114.6324380  34.4309700 135.5956610 115.6843980
  33.5994580 135.3405320 116.0840490  35.0390680 135.6667380 116.4201900
  44.4351300 139.6896990 113.5867350  43.9732830 138.9184230 113.9154520
  45.2476850 139.7163060 114.0919800  34.4110960 139.6296700 115.8802000
  34.7139000 138.7394440 115.7012220  35.1554550 140.1866920 115.6524250
  32.8401650 130.5558500 109.4686370  31.9518350 130.8974470 109.3666250
  33.1242840 130.3558820 108.5767200  30.8034660 133.1564150 115.3526070
  31.3750770 132.3886350 115.3529710  30.8036200 133.4552910 114.4432680
  40.6614610 141.9755000 113.2071340  40.0426050 142.4312500 112.6365780
  41.5166390 142.1306460 112.8061040  39.8552860 137.9593990 114.8138380
  39.7861140 137.0183930 114.6527510  40.6172720 138.0495400 115.3860950
  32.0459530 128.5648510 117.1395000  31.8662370 127.6674260 117.4197760
  31.6439610 129.1120380 117.8141950  40.8858030 130.7664370 115.0407310
  41.2622850 129.8936250 114.9280980  40.7877540 131.1023070 114.1497750
  35.0163040 129.1390000 110.5024750  35.1229790 130.0393730 110.8093510
  34.1055400 129.0907970 110.2119400  44.6682150 128.2614810 111.9735650
  45.4891770 127.7711380 112.0161130  44.7016230 128.8512470 112.7267490
  32.6646200 131.0609010 115.7477340  33.3456310 131.3247380 116.3664740
  32.3494250 130.2209880 116.0815350  36.8570770 132.1076370 114.8349930
  37.3648990 132.6057340 115.4754950  37.3884010 131.3311570 114.6589290
  48.9581700 130.2781560 118.5379280  48.2533870 130.6663270 118.0194390
  49.2239620 130.9731850 119.1400210  35.1406870 126.7474930 119.1013350
  35.1425310 127.2647320 118.2959250  34.3111180 126.2705110 119.0783280
  41.5277960 136.8594240 110.6003250  40.9095230 137.3243690 110.0365970
  42.0401210 137.5521720 111.0172760  36.3909720 136.3870110 117.2786850
  36.0579100 137.0139030 117.9207920  36.5676400 136.9131990 116.4988520
  44.9043630 130.2015190 114.7463190  44.1999200 130.4900080 115.3266300
  45.2655790 131.0115300 114.3862750  34.8222200 128.4584890 117.1083800
  35.1639010 129.3026940 116.8137670  33.8838010 128.6068630 117.2249140
  35.6028820 138.3550910 119.0936030  36.2202820 139.0301990 118.8120480
  34.7421940 138.7638890 119.0023530  30.8961160 137.5450770 107.9742880
  30.5189140 138.0337870 107.2427780  31.1534230 138.2176050 108.6049410
  46.5206410 139.8190320 117.0090670  45.8369930 140.4889430 117.0007340
  47.0600700 140.0170970 116.2435530  47.9730550 129.6469980 115.1372400
  47.0255460 129.6808960 115.2687830  48.2980540 130.4608930 115.5221760
  38.5050090 125.9467160 113.4328390  38.8125070 125.3914050 112.7163890
  37.5750790 126.0811620 113.2501380  44.0565150 141.6634450 115.7235850
  44.0692310 141.2596740 114.8558110  43.5040370 142.4381740 115.6197280
  45.3510570 138.3850670 110.8126020  45.2406900 137.4425000 110.9375440
  45.3478820 138.7466310 111.6988780  43.4550590 136.5664290 117.0518460
  43.8719380 136.3524400 116.2171920  44.1790410 136.8237080 117.6227080
  40.8930850 134.0115990 110.1688510  39.9660130 133.9453370 110.3976980
  41.0455670 134.9496120 110.0543750  40.8799930 130.2832990 107.1655670
  39.9403600 130.4446950 107.2508130  41.1983190 131.0018670 106.6191660
  47.4012690 134.9651510 117.1434700  46.5731320 135.0344600 116.6684830
  47.9963170 135.5505820 116.6750530  44.9228140 135.5736290 110.6723760
  44.3040560 135.2355840 110.0250060  44.9052590 134.9296050 111.3802950
  44.3654700 131.7520830 118.0889570  43.9525880 132.5774540 118.3429560
  43.6330650 131.1665870 117.8965930  36.4987490 134.5380730 112.9508240
  36.0944490 133.8257980 112.4554140  36.5850610 134.1933970 113.8396280
  36.9669190 138.2248290 115.1147450  36.6697480 137.6193760 114.4355230
  37.9169010 138.2625600 115.0036810  35.2116110 131.3123940 116.7307280
  35.7630700 131.4219280 115.9560530  35.7259620 131.6861540 117.4462510
  45.0554800 141.7980160 118.7770550  44.5785360 142.6052350 118.5843160
  44.3716590 141.1458490 118.9296760  36.0587620 137.9629980 121.7655250
  35.1616150 138.1869950 122.0128650  36.0840490 138.0864920 120.8166650
  43.0992840 134.8123100 107.6796510  43.5386120 133.9745530 107.5334330
  43.8121260 135.4452500 107.7660650  34.8858840 134.8343300 120.3412620
  34.7466610 135.7066100 120.7100020  34.0040200 134.4916110 120.1960560
  41.2088220 139.7519170 111.6477750  41.6484130 140.4943500 111.2333140
  41.1475110 139.9945740 112.5716710  36.6839190 140.7765000 122.5497770
  36.6554620 141.1807950 121.6826200  36.5204160 139.8475360 122.3869370
  46.6809980 126.0665910 105.9937550  46.3682640 126.1592740 106.8936620
  47.4422450 126.6446940 105.9434980  33.1992120 133.4325710 110.4514890
  33.0789720 134.1587800 109.8396160  32.8893010 132.6628620 109.9742800
  48.6354010 141.5592100 123.8461940  49.1113730 142.0374990 124.5251020
  49.2561170 141.4909590 123.1207440  30.8377490 136.6040850 116.2583530
  30.9157910 136.7389620 115.3139250  31.4519170 135.8956740 116.4511650
  32.0825120 138.3041040 112.6689710  31.6753200 138.4455630 111.8143310
  32.9738130 138.0201200 112.4660920  48.0387260 138.7504950 121.0061950
  48.1650320 138.5116830 120.0879130  48.0808640 137.9189490 121.4784030
  41.9004000 142.4532950 119.5756760  42.4148670 142.3640960 120.3779190
  41.0573080 142.7992650 119.8684670  43.8758400 142.7388290 109.0040760
  43.7159540 142.4491230 109.9022590  43.7105110 141.9628420 108.4685990
  36.3546780 142.5186820 110.7812380  36.1789260 141.6022360 110.5680180
  35.5002520 142.8774110 111.0210180  43.5784530 140.2475850 107.5638760
  42.8849690 140.2453140 106.9041040  44.3207390 139.8235170 107.1332930
  43.1434460 141.8738560 111.6387250  43.5991410 141.0927940 111.9525870
  43.4826980 142.5845380 112.1828430  47.8911270 130.8037410 121.9711690
  47.2755540 131.3117080 121.4427150  47.5707690 129.9035740 121.9137630
  30.8937010 137.6455020 118.7977990  31.0568050 137.1760380 117.9797360
  31.3589460 137.1378580 119.4626830  35.6655780 126.7760780 113.8338560
  35.2223930 127.5570320 113.5023080  36.2240770 127.0990670 114.5409500
  39.9525590 129.6429300 119.4373880  39.4904960 129.8512320 120.2493820
  39.5503700 128.8288650 119.1344550  44.9530100 130.8638250 120.5670540
  44.1023690 130.5644000 120.8879610  44.7931890 131.1080260 119.6554360
  42.0479810 132.3640000 122.6669330  42.3733220 131.5303750 122.3271560
  42.8360140 132.8868520 122.8147660  38.7814600 126.3971480 108.7144390
  38.1568780 126.3931350 109.4397700  38.6944720 125.5302440 108.3180360
  37.7031680 127.3208110 115.6928160  38.0004010 128.2270940 115.6120180
  38.2517240 126.8326890 115.0787730  35.4570000 131.8994350 111.5619810
  35.2310920 131.6831520 112.4666430  34.6762530 132.3322810 111.2165780
  42.6867760 131.9057720 110.1610460  42.0876650 132.6293520 109.9774080
  43.2347370 131.8434500 109.3786910  37.8969210 132.7979930 122.2280080
  37.8012810 131.8574660 122.0780480  38.7401190 133.0195000 121.8328150
  41.2932630 130.5421260 112.1913740  41.6862200 130.8593460 111.3782430
  41.6549480 129.6633140 112.3058260  33.0279750 129.2093600 120.3813860
  32.6343140 130.0568810 120.5886640  32.3398150 128.5719970 120.5722500
  39.6024800 129.2928570 123.4510600  38.9123120 129.1000770 124.0856690
  40.3457100 129.5763210 123.9834900  30.3296800 127.1322060 114.4143940
  30.0409850 127.7024920 115.1268920  31.0742560 126.6526510 114.7775170
  30.5167030 131.0742180 105.6246660  30.4341700 132.0172940 105.7661650
  30.1650090 130.9317090 104.7459010  41.8787770 133.1327010 116.2864520
  41.1468890 133.6413820 116.6354620  41.4812110 132.3156990 115.9853300
  38.3165160 129.8081210 114.6917010  38.3201220 129.3671160 113.8421550
  39.2116280 130.1298540 114.7988830  34.1667540 129.6907700 113.6511220
  33.8267590 130.1682930 114.4078270  33.4044860 129.2372820 113.2912320
  38.3785310 130.8093290 107.6823770  38.4998130 130.7679770 108.6309590
  37.9933820 131.6717440 107.5270500  42.3413680 128.5860690 115.6987460
  42.3586420 129.0369340 116.5429310  42.0929260 127.6866330 115.9120900
  37.3906810 133.1194430 107.0807070  36.8223710 132.6712680 106.4542980
  38.0995810 133.4787210 106.5472220  45.7684430 125.9992870 121.5373840
  46.0930200 125.2682530 122.0631820  45.8040940 125.6806510 120.6354830
  32.4675990 137.0206450 120.9573800  32.0830780 136.3800120 121.5556760
  32.7788180 137.7242570 121.5268530  38.6173130 133.8682990 116.4382420
  38.9843260 133.3941560 117.1843760  38.4278190 134.7424560 116.7790760
  31.4813620 128.6126680 112.5675890  31.1960540 128.2482350 113.4054510
  31.4192480 127.8807140 111.9539030  36.4072500 132.9091630 118.7566630
  36.1029570 133.7883610 118.9816990  37.3618960 132.9691420 118.7924070
  34.9354290 137.1152620 109.3533480  34.1616550 136.5750240 109.1932200
  35.6648920 136.5959230 109.0151240  45.6942270 136.1117980 115.1459870
  46.4141390 136.6073270 114.7555980  45.4924090 135.4335870 114.5013740
  41.1552210 127.5055940 109.2889260  40.3416820 127.0069110 109.2134570
  40.9614160 128.3454190 108.8725610  41.0761070 136.1827040 121.0328870
  41.0098380 135.2622710 120.7786460  40.4466210 136.2802480 121.7473510
  43.8700600 131.8775590 107.5851420  44.7580220 132.1892820 107.4102760
  43.8405690 131.0047840 107.1932000  34.9791690 136.7833000 112.9912290
  35.4970360 135.9801260 112.9369180  34.5275710 136.7212140 113.8329120
  39.8661190 138.0499280 108.2639590  40.2076890 138.7941510 107.7682910
  39.0373900 138.3630400 108.6264420  32.4636230 133.7494370 119.9037990
  32.1051170 134.4148220 120.4911330  32.1690790 132.9177920 120.2750610
  35.6649350 134.2078610 122.7877540  35.3649490 134.3535790 121.8905360
  36.4360590 133.6483900 122.6950930  41.0077800 139.0047610 120.7832670
  41.0222340 138.0728570 120.5651580  40.3002900 139.0907370 121.4222440
  46.1414870 133.1887430 107.0531280  46.0578590 133.6201650 106.2027720
  46.8609060 133.6485780 107.4858100  47.2189010 135.6454950 120.1301250
  46.4937200 136.2383730 119.9330640  47.7464470 135.6378490 119.3314620
  47.1702120 140.0429690 109.7813410  46.5278280 139.3885310 110.0557130
  46.7832780 140.4484780 109.0054080  42.7488600 137.3715120 113.6285100
  43.1012420 136.7743250 112.9686470  41.8650930 137.0459350 113.7993350
  38.8351880 138.1312810 111.0355510  39.5223010 138.6782020 111.4163100
  38.0484300 138.6753540 111.0705120  30.9744280 133.7485630 106.5272590
  31.8439130 134.0310430 106.8108510  30.4834600 134.5621500 106.4121400
  38.1379090 135.1358840 110.6480870  38.5941870 135.9464090 110.8741060
  37.7867300 134.8181980 111.4799360  40.4411700 140.6465180 117.8773170
  41.0853920 140.8524560 118.5546590  40.8041140 139.8853580 117.4244020
  34.0390870 125.4796490 111.1203390  33.9105500 125.4714390 112.0688310
  33.2152890 125.8179580 110.7694400  41.7143780 138.6497530 116.5950620
  42.3566010 137.9490690 116.7082790  42.2393130 139.4295970 116.4147510
  45.5599500 138.9346150 106.3189760  45.3337080 138.2176590 106.9114400
  45.1695700 138.6858590 105.4811510  43.4881400 139.4492430 119.7986680
  43.8237640 140.0359120 120.4764600  42.5681740 139.3185140 120.0284470
  31.3415530 142.9613010 107.0934220  31.7013170 143.5602350 106.4391490
  31.2007870 143.5072900 107.8669250  31.0384800 127.2387610 120.5810090
  30.3243320 127.4384530 121.1862700  31.4579840 126.4627180 120.9524890
  45.1415750 136.8518090 107.9803920  44.8537450 137.3130780 108.7681800
  45.9367920 136.3915860 108.2488140  31.3257390 141.2267870 121.5676620
  31.4348510 140.2862610 121.4272010  30.6737950 141.4922620 120.9190350
  39.3169980 139.4983760 122.9674740  38.9966850 138.7793000 123.5120430
  38.6428340 140.1738830 123.0410800  37.3584150 140.3444210 107.9107890
  37.3494250 141.0773900 107.2952400  36.4382510 140.0975790 108.0034850
  32.9590790 135.5659100 108.6554650  32.3518740 136.3058000 108.6649950
  33.4340140 135.6558460 107.8292850  42.5323580 129.7309920 118.3311540
  42.9004400 128.9105130 118.6591110  41.6721780 129.7911810 118.7467190
  45.8985610 128.6866860 109.1399100  45.2698770 128.7912530 108.4257330
  45.4037530 128.9063640 109.9292980  40.3443750 140.4072450 106.5733080
  40.4455730 140.2036440 105.6435060  39.4445490 140.1530730 106.7780860
  37.8669640 130.9652810 110.5556980  37.1585790 131.4339150 110.9970590
  38.1514120 130.3074820 111.1902170  39.4925570 132.3849510 118.5549510
  39.9910820 132.8595330 119.2201360  39.6348520 131.4613030 118.7619540
  41.8985070 127.6903470 111.9952770  41.7752850 127.7089600 111.0462280
  42.8469630 127.7382410 112.1151170  38.9861860 142.9258770 111.2680750
  39.2403360 142.8880160 110.3460120  38.0374340 142.7992100 111.2609000
  36.0704660 129.2737890 107.9307690  36.9195190 129.7108040 107.8647880
  35.7035930 129.5858150 108.7579750  46.6992430 128.6017470 119.3977900
  46.1966030 129.3422870 119.7371710  47.5149090 128.9901470 119.0814690
  44.9914440 133.8450650 112.8439260  44.0504580 133.8600880 113.0186950
  45.3058510 133.0586610 113.2899560  34.9696080 135.5270250 106.4043220
  35.7359350 135.4151610 106.9668650  35.0470770 134.8308220 105.7519990
  33.6642840 132.9595320 107.0876110  33.7446430 132.0122830 107.1993510
  34.5562590 133.2902200 107.1936770  46.9940020 141.0159500 114.5193520
  47.1187440 141.8390670 114.9917330  47.8605580 140.8050230 114.1717670
  34.4657550 143.1090710 114.1910650  35.2020030 142.5606170 114.4619220
  34.8498470 143.9746720 114.0516640  31.3503030 139.1764280 110.0652160
  30.4242810 139.4185420 110.0557570  31.8159460 140.0038540 109.9436910
  33.4715830 142.2936780 123.3796230  34.2728560 142.6148830 123.7931630
  32.9567650 141.9332360 124.1016140  37.5759860 142.2821020 106.0136220
  38.3688470 142.5709850 105.5618010  37.0564210 141.8513190 105.3348700
  42.3080460 138.4016650 123.3271640  41.7018620 138.4248250 122.5867390
  42.0034570 137.6699690 123.8638890  43.7380830 142.1296940 121.9381050
  44.6902580 142.0454960 121.8881290  43.5909050 142.7938650 122.6114840
  46.6290030 141.5091150 107.4372960  46.3431540 141.0956290 106.6227140
  46.4309580 142.4378860 107.3173480  31.1913640 134.7810240 122.3232280
  31.6952660 134.2017520 122.8948510  30.4521060 135.0650470 122.8608650
  38.0937260 137.5024430 105.8778570  37.9887900 136.8876780 106.6039950
  37.9261480 136.9790320 105.0941580  38.2451580 136.1881230 121.8567800
  37.4797250 136.7566230 121.7722470  38.4267540 135.8957440 120.9636030
  41.3339990 136.5644460 106.4820560  40.7850090 137.0113760 107.1263300
  41.9559250 136.0593710 107.0058230  45.3874930 137.9186560 122.4142820
  46.1284400 138.2562320 121.9110280  44.6247610 138.0878620 121.8612590
  33.2236720 132.9239830 123.2182350  33.2642060 132.6253700 124.1267580
  34.0782220 133.3247440 123.0589870  37.0015110 135.5235380 108.3785860
  37.4231530 135.3575250 109.2217250  37.1265950 134.7135610 107.8841000
  35.1642530 131.5031930 121.1856840  34.6338990 131.0122880 120.5580180
  35.8330600 131.9316130 120.6514770  39.5142750 134.5472990 105.6262960
  40.0348410 133.8322010 105.2604110  40.1611150 135.1858860 105.9263470
  44.0620590 135.9701390 120.9498030  44.4761610 136.1246470 121.7988450
  43.1271590 136.0956610 121.1123810  44.5342760 133.3097550 122.9537180
  45.1163530 132.5549870 122.8657660  44.7104530 133.8404990 122.1768660
  35.6514830 128.4694300 121.2654130  35.5571700 127.8515050 120.5405000
  35.0712220 129.1960590 121.0384040  38.4176270 127.0267540 118.2981520
  37.9693570 127.0491800 117.4527070  37.7841470 126.6286560 118.8951820
  38.8235820 135.9221870 118.9193960  39.2423930 136.7654600 118.7470200
  37.9044450 136.0593910 118.6900740  41.1599720 133.6538050 120.3031800
  41.2795930 133.0579190 121.0426640  42.0193720 133.6907740 119.8833100
  43.4987620 134.2075240 118.8794310  42.9722840 134.7317860 118.2759450
  43.8418960 134.8402630 119.5104040  35.8974010 131.5968610 105.3244020
  35.6963070 130.7335970 105.6857360  35.7266060 131.5101970 104.3865620
  36.6743240 142.2274880 120.0351690  36.1364330 142.9520940 119.7160390
  36.9277200 141.7505220 119.2449030  37.9268490 130.1959400 121.5607620
  38.5168180 129.8875250 122.2485440  37.1088730 129.7239150 121.7167520
  42.7461920 129.8125210 121.7940640  42.0577440 129.1506750 121.7290630
  43.4667940 129.3663480 122.2389100  43.3762320 126.4076840 107.8530900
  43.6564610 125.5644740 108.2090320  42.6028050 126.6399950 108.3669650
  34.6956810 128.6969230 105.3121900  34.9982710 128.7036660 104.4041050
  35.4351400 128.3467090 105.8089560  39.5305450 143.4626090 120.2938340
  39.4564150 144.3661230 120.6010710  38.6284290 143.1437990 120.2660410
  37.9141740 127.6403850 106.2978100  37.5663740 126.9627840 105.7180550
  38.1154510 127.1793360 107.1121490  40.0790780 142.6284600 107.9164700
  40.9741570 142.9669570 107.9383460  40.1108410 141.9064010 107.2888980
  33.7186940 138.0011650 106.1451700  34.1561810 138.5441320 106.8009280
  34.2034670 137.1758600 106.1548040  30.9332740 140.7900680 113.5971960
  31.2635750 139.9221740 113.3650600  31.3623740 140.9959200 114.4276920
  35.5294660 139.1209690 111.2573930  35.2290200 138.9974660 112.1577840
  35.4232150 138.2618280 110.8489660  31.4222950 141.6571270 116.3353590
  30.9853940 141.8372070 117.1677740  31.9900630 142.4145890 116.1935310
  47.0585130 141.1588270 120.6230900  46.4587120 141.2180830 119.8794820
  47.1879030 140.2193250 120.7527750  48.2986580 138.9006090 105.9600610
  47.4679540 138.9682740 106.4307840  48.4758410 139.7910210 105.6567470
  47.7543040 135.6453570 108.4634810  48.5161950 136.2150220 108.5694500
  47.7697410 135.0780770 109.2343120  31.2547380 134.1691500 112.6942470
  30.5996220 133.9003140 112.0502170  32.0925330 134.0595980 112.2444450
  48.7603010 136.5003670 113.3076740  49.1311840 135.7170990 112.9012710
  49.4004940 137.1892770 113.1294040  45.7436770 137.8840250 118.7207060
  44.9296610 138.3137410 118.9832850  46.1510970 138.4958660 118.1076110
  47.8062210 135.9387940 105.6207330  48.0811050 136.8466820 105.4926550
  47.6172950 135.8750470 106.5569320  44.2037820 128.9632790 106.9160960
  44.6222700 128.7763770 106.0757620  43.8973880 128.1111840 107.2263890
  47.7027550 133.8756930 110.6136760  47.3271150 133.1084860 110.1818050
  46.9730670 134.2579630 111.1011690  32.2923310 134.5544070 117.2345810
  32.6596350 134.4671470 118.1141830  31.7234130 133.7910620 117.1352670
  47.0927170 133.0228450 120.2476280  46.8613260 132.7941200 119.3474230
  47.3531720 133.9428000 120.2021170  31.8439310 131.4653160 121.1404230
  30.9495360 131.4319920 121.4797940  32.3836860 131.6639950 121.9055480
  45.5315240 128.2484880 123.0255980  46.4085420 128.2568280 123.4089980
  45.5436080 127.5115720 122.4148330  30.4685460 131.3790430 108.6367800
  29.5649540 131.6420630 108.4619460  30.9526080 131.6501600 107.8567760
  46.9778510 132.1014420 113.9144000  47.5015990 131.6077070 113.2834170
  47.5637930 132.2364780 114.6591570  47.1568230 132.1854290 117.4363550
  46.2070940 132.1517830 117.5508540  47.3381240 133.0954400 117.2013320
  33.0112670 130.4355970 106.5462180  33.7204370 130.0139190 106.0609460
  32.2952610 130.5031200 105.9145530  32.6586830 126.4895300 105.5864830
  33.3814960 127.0304240 105.9046050  32.9311350 126.2158720 104.7106370
  46.4678480 131.3587770 109.8536410  46.9637600 131.1258640 110.6385290
  46.2694550 130.5199610 109.4374050  32.3479020 125.7401490 115.4887450
  32.9955210 125.1898870 115.0482610  32.7680860 125.9944640 116.3103260
  47.8965640 129.9948720 112.3874090  47.7864920 129.8404760 113.3256360
  48.6573230 129.4669660 112.1449500  46.2431360 125.9342850 118.8457090
  46.8803580 126.5476990 119.2116280  46.3906250 125.9703510 117.9006320
  48.7855910 127.8256640 105.6280230  49.7105220 127.6937820 105.4198520
  48.7631700 127.9049460 106.5816680  48.8594400 128.5967300 108.2536940
  48.0645900 128.5312420 108.7829850  49.0637680 129.5317940 108.2422290
  45.8012820 142.6358850 112.2475330  46.3971890 142.3143420 111.5709750
  46.0590970 142.1630670 113.0388600  32.1011020 125.8957160 118.2312770
  31.7525840 126.3520980 118.9970950  31.7698720 125.0014290 118.3135200
  33.7075390 139.0676760 122.3965960  33.6645020 138.6969670 123.2780420
  33.8386400 140.0054330 122.5367780  37.4081420 140.6236350 117.9975680
  37.1672780 140.8910910 117.1106200  38.3484060 140.7942080 118.0526540
  39.6135840 127.0869040 121.7532190  39.5524730 127.6790870 122.5027600
  40.5536220 126.9795000 121.6082450  42.2510400 126.7439100 121.3924480
  42.8650810 127.0618390 120.7305560  42.7959960 126.2587690 122.0120340
  48.6685580 142.6430730 118.7986320  48.1743860 143.0399600 118.0813450
  48.0598870 142.0179940 119.1923600  32.7731660 125.4233360 121.5063540
  33.3214650 125.2421410 120.7429650  32.8386970 124.6327470 122.0419850
  33.5463420 142.0139010 119.5163740  32.9523740 141.8823710 120.2553780
  33.5387260 141.1777150 119.0505840  42.9918440 125.3071240 117.7193770
  42.1178280 125.6406350 117.5166700  42.8829190 124.8344420 118.5445640
  43.8990420 127.5142110 119.1035490  43.5703780 126.6993870 118.7237220
  44.8472720 127.4711920 118.9801180  46.3525030 143.2854150 116.0773060
  45.8928000 144.0369960 115.7031080  45.7237490 142.5660620 116.0187860
  33.1775650 139.3797390 118.4671780  32.4509710 138.7602680 118.3997730
  33.2384800 139.7738000 117.5969860  36.7820750 141.5942390 115.2521190
  37.2985770 140.9829750 114.7269450  37.4318130 142.0971170 115.7432200
  39.5216250 142.4850880 116.0790170  39.8094060 142.2305180 115.2023180
  40.0339470 141.9328240 116.6695740  40.7393260 126.2241080 116.6586680
  39.9565050 126.6986580 116.9383440  40.4456190 125.3195910 116.5499860
  45.2914330 126.9264180 114.7035770  45.7322420 126.8709280 113.8557370
  45.0221920 127.8422190 114.7745950  31.4605650 142.6971780 111.6768540
  31.2927690 142.0642460 112.3750430  30.5940160 142.9031180 111.3262730
  32.0833670 126.5288560 109.1800400  32.8413030 126.6417440 108.6064430
  31.6210840 127.3657760 109.1343830  38.6247480 128.6427830 112.1702710
  37.8121990 128.2684720 111.8298590  39.1289120 127.8872910 112.4723900
  43.1272460 125.3070280 113.4085780  43.7301830 125.8790490 113.8834300
  42.3865450 125.8709720 113.1859680  33.0668350 141.3905010 109.1218680
  32.5415970 141.7713040 108.4180640  32.9912930 142.0155780 109.8428390
  34.4558820 127.0552610 107.7202370  34.9851580 126.2682410 107.5910320
  35.0887140 127.7343800 107.9537900  36.6496660 126.7927750 110.7747760
  36.0199400 126.0915060 110.9417890  36.1101800 127.5531880 110.5580920
  39.5888610 143.4066980 123.4458370  40.5155920 143.1711250 123.4894330
  39.5739040 144.2338980 122.9644400  47.8233670 142.9492550 110.4432620
  47.9985860 142.2630290 109.7993540  47.1255240 143.4739600 110.0509290
  36.7752220 126.0711730 123.2100250  36.4936490 126.5745330 122.4461070
  37.1571920 125.2733480 122.8442380  35.6661320 143.3387390 107.9967930
  36.3980140 143.0546670 107.4491820  35.9254990 143.1000670 108.8867310
  34.8276110 139.4552120 108.0014260  34.1984990 139.9237220 108.5500090
  34.9423940 138.6101340 108.4360450  43.3767680 125.4865310 123.7880720
  43.2633130 125.8059920 124.6832240  44.1937420 125.8877820 123.4918000
  46.1566170 142.6336840 123.2699410  46.9491490 142.1386070 123.0625370
  46.4499320 143.3126980 123.8775020  42.2825830 133.5057780  94.1515460
  42.2019880 132.5912390  93.8807170  41.8690250 134.0024850  93.4455170
  40.4143870 135.2836800  96.0324730  39.6385970 134.8037240  96.3223300
  41.0656800 134.6042450  95.8580890  34.4309700 135.5956610  96.9100490
  33.5994580 135.3405320  97.3097000  35.0390680 135.6667380  97.6458410
  44.4351300 139.6896990  94.8123860  43.9732830 138.9184230  95.1411030
  45.2476850 139.7163060  95.3176310  34.4110960 139.6296700  97.1058510
  34.7139000 138.7394440  96.9268730  35.1554550 140.1866920  96.8780760
  32.8401650 130.5558500  90.6942880  31.9518350 130.8974470  90.5922760
  33.1242840 130.3558820  89.8023710  30.8034660 133.1564150  96.5782580
  31.3750770 132.3886350  96.5786220  30.8036200 133.4552910  95.6689190
  40.6614610 141.9755000  94.4327850  40.0426050 142.4312500  93.8622290
  41.5166390 142.1306460  94.0317550  39.8552860 137.9593990  96.0394890
  39.7861140 137.0183930  95.8784020  40.6172720 138.0495400  96.6117460
  32.0459530 128.5648510  98.3651510  31.8662370 127.6674260  98.6454270
  31.6439610 129.1120380  99.0398460  40.8858030 130.7664370  96.2663820
  41.2622850 129.8936250  96.1537490  40.7877540 131.1023070  95.3754260
  35.0163040 129.1390000  91.7281260  35.1229790 130.0393730  92.0350020
  34.1055400 129.0907970  91.4375910  44.6682150 128.2614810  93.1992160
  45.4891770 127.7711380  93.2417640  44.7016230 128.8512470  93.9524000
  32.6646200 131.0609010  96.9733850  33.3456310 131.3247380  97.5921250
  32.3494250 130.2209880  97.3071860  36.8570770 132.1076370  96.0606440
  37.3648990 132.6057340  96.7011460  37.3884010 131.3311570  95.8845800
  48.9581700 130.2781560  99.7635790  48.2533870 130.6663270  99.2450900
  49.2239620 130.9731850 100.3656720  35.1406870 126.7474930 100.3269860
  35.1425310 127.2647320  99.5215760  34.3111180 126.2705110 100.3039790
  41.5277960 136.8594240  91.8259760  40.9095230 137.3243690  91.2622480
  42.0401210 137.5521720  92.2429270  36.3909720 136.3870110  98.5043360
  36.0579100 137.0139030  99.1464430  36.5676400 136.9131990  97.7245030
  44.9043630 130.2015190  95.9719700  44.1999200 130.4900080  96.5522810
  45.2655790 131.0115300  95.6119260  34.8222200 128.4584890  98.3340310
  35.1639010 129.3026940  98.0394180  33.8838010 128.6068630  98.4505650
  35.6028820 138.3550910 100.3192540  36.2202820 139.0301990 100.0376990
  34.7421940 138.7638890 100.2280040  30.8961160 137.5450770  89.1999390
  30.5189140 138.0337870  88.4684290  31.1534230 138.2176050  89.8305920
  46.5206410 139.8190320  98.2347180  45.8369930 140.4889430  98.2263850
  47.0600700 140.0170970  97.4692040  47.9730550 129.6469980  96.3628910
  47.0255460 129.6808960  96.4944340  48.2980540 130.4608930  96.7478270
  38.5050090 125.9467160  94.6584900  38.8125070 125.3914050  93.9420400
  37.5750790 126.0811620  94.4757890  44.0565150 141.6634450  96.9492360
  44.0692310 141.2596740  96.0814620  43.5040370 142.4381740  96.8453790
  45.3510570 138.3850670  92.0382530  45.2406900 137.4425000  92.1631950
  45.3478820 138.7466310  92.9245290  43.4550590 136.5664290  98.2774970
  43.8719380 136.3524400  97.4428430  44.1790410 136.8237080  98.8483590
  40.8930850 134.0115990  91.3945020  39.9660130 133.9453370  91.6233490
  41.0455670 134.9496120  91.2800260  40.8799930 130.2832990  88.3912180
  39.9403600 130.4446950  88.4764640  41.1983190 131.0018670  87.8448170
  47.4012690 134.9651510  98.3691210  46.5731320 135.0344600  97.8941340
  47.9963170 135.5505820  97.9007040  44.9228140 135.5736290  91.8980270
  44.3040560 135.2355840  91.2506570  44.9052590 134.9296050  92.6059460
  44.3654700 131.7520830  99.3146080  43.9525880 132.5774540  99.5686070
  43.6330650 131.1665870  99.1222440  36.4987490 134.5380730  94.1764750
  36.0944490 133.8257980  93.6810650  36.5850610 134.1933970  95.0652790
  36.9669190 138.2248290  96.3403960  36.6697480 137.6193760  95.6611740
  37.9169010 138.2625600  96.2293320  35.2116110 131.3123940  97.9563790
  35.7630700 131.4219280  97.1817040  35.7259620 131.6861540  98.6719020
  45.0554800 141.7980160 100.0027060  44.5785360 142.6052350  99.8099670
  44.3716590 141.1458490 100.1553270  36.0587620 137.9629980 102.9911760
  35.1616150 138.1869950 103.2385160  36.0840490 138.0864920 102.0423160
  43.0992840 134.8123100  88.9053020  43.5386120 133.9745530  88.7590840
  43.8121260 135.4452500  88.9917160  34.8858840 134.8343300 101.5669130
  34.7466610 135.7066100 101.9356530  34.0040200 134.4916110 101.4217070
  41.2088220 139.7519170  92.8734260  41.6484130 140.4943500  92.4589650
  41.1475110 139.9945740  93.7973220  36.6839190 140.7765000 103.7754280
  36.6554620 141.1807950 102.9082710  36.5204160 139.8475360 103.6125880
  46.6809980 126.0665910  87.2194060  46.3682640 126.1592740  88.1193130
  47.4422450 126.6446940  87.1691490  33.1992120 133.4325710  91.6771400
  33.0789720 134.1587800  91.0652670  32.8893010 132.6628620  91.1999310
  48.6354010 141.5592100 105.0718450  49.1113730 142.0374990 105.7507530
  49.2561170 141.4909590 104.3463950  30.8377490 136.6040850  97.4840040
  30.9157910 136.7389620  96.5395760  31.4519170 135.8956740  97.6768160
  32.0825120 138.3041040  93.8946220  31.6753200 138.4455630  93.0399820
  32.9738130 138.0201200  93.6917430  48.0387260 138.7504950 102.2318460
  48.1650320 138.5116830 101.3135640  48.0808640 137.9189490 102.7040540
  41.9004000 142.4532950 100.8013270  42.4148670 142.3640960 101.6035700
  41.0573080 142.7992650 101.0941180  43.8758400 142.7388290  90.2297270
  43.7159540 142.4491230  91.1279100  43.7105110 141.9628420  89.6942500
  36.3546780 142.5186820  92.0068890  36.1789260 141.6022360  91.7936690
  35.5002520 142.8774110  92.2466690  43.5784530 140.2475850  88.7895270
  42.8849690 140.2453140  88.1297550  44.3207390 139.8235170  88.3589440
  43.1434460 141.8738560  92.8643760  43.5991410 141.0927940  93.1782380
  43.4826980 142.5845380  93.4084940  47.8911270 130.8037410 103.1968200
  47.2755540 131.3117080 102.6683660  47.5707690 129.9035740 103.1394140
  30.8937010 137.6455020 100.0234500  31.0568050 137.1760380  99.2053870
  31.3589460 137.1378580 100.6883340  35.6655780 126.7760780  95.0595070
  35.2223930 127.5570320  94.7279590  36.2240770 127.0990670  95.7666010
  39.9525590 129.6429300 100.6630390  39.4904960 129.8512320 101.4750330
  39.5503700 128.8288650 100.3601060  44.9530100 130.8638250 101.7927050
  44.1023690 130.5644000 102.1136120  44.7931890 131.1080260 100.8810870
  42.0479810 132.3640000 103.8925840  42.3733220 131.5303750 103.5528070
  42.8360140 132.8868520 104.0404170  37.7031680 127.3208110  96.9184670
  38.0004010 128.2270940  96.8376690  38.2517240 126.8326890  96.3044240
  35.4570000 131.8994350  92.7876320  35.2310920 131.6831520  93.6922940
  34.6762530 132.3322810  92.4422290  42.6867760 131.9057720  91.3866970
  42.0876650 132.6293520  91.2030590  43.2347370 131.8434500  90.6043420
  37.8969210 132.7979930 103.4536590  37.8012810 131.8574660 103.3036990
  38.7401190 133.0195000 103.0584660  41.2932630 130.5421260  93.4170250
  41.6862200 130.8593460  92.6038940  41.6549480 129.6633140  93.5314770
  33.0279750 129.2093600 101.6070370  32.6343140 130.0568810 101.8143150
  32.3398150 128.5719970 101.7979010  39.6024800 129.2928570 104.6767110
  38.9123120 129.1000770 105.3113200  40.3457100 129.5763210 105.2091410
  30.3296800 127.1322060  95.6400450  30.0409850 127.7024920  96.3525430
  31.0742560 126.6526510  96.0031680  30.5167030 131.0742180  86.8503170
  30.4341700 132.0172940  86.9918160  30.1650090 130.9317090  85.9715520
  41.8787770 133.1327010  97.5121030  41.1468890 133.6413820  97.8611130
  41.4812110 132.3156990  97.2109810  38.3165160 129.8081210  95.9173520
  38.3201220 129.3671160  95.0678060  39.2116280 130.1298540  96.0245340
  34.1667540 129.6907700  94.8767730  33.8267590 130.1682930  95.6334780
  33.4044860 129.2372820  94.5168830  38.3785310 130.8093290  88.9080280
  38.4998130 130.7679770  89.8566100  37.9933820 131.6717440  88.7527010
  42.3413680 128.5860690  96.9243970  42.3586420 129.0369340  97.7685820
  42.0929260 127.6866330  97.1377410  37.3906810 133.1194430  88.3063580
  36.8223710 132.6712680  87.6799490  38.0995810 133.4787210  87.7728730
  32.4675990 137.0206450 102.1830310  32.0830780 136.3800120 102.7813270
  32.7788180 137.7242570 102.7525040  38.6173130 133.8682990  97.6638930
  38.9843260 133.3941560  98.4100270  38.4278190 134.7424560  98.0047270
  31.4813620 128.6126680  93.7932400  31.1960540 128.2482350  94.6311020
  31.4192480 127.8807140  93.1795540  36.4072500 132.9091630  99.9823140
  36.1029570 133.7883610 100.2073500  37.3618960 132.9691420 100.0180580
  34.9354290 137.1152620  90.5789990  34.1616550 136.5750240  90.4188710
  35.6648920 136.5959230  90.2407750  45.6942270 136.1117980  96.3716380
  46.4141390 136.6073270  95.9812490  45.4924090 135.4335870  95.7270250
  41.1552210 127.5055940  90.5145770  40.3416820 127.0069110  90.4391080
  40.9614160 128.3454190  90.0982120  41.0761070 136.1827040 102.2585380
  41.0098380 135.2622710 102.0042970  40.4466210 136.2802480 102.9730020
  43.8700600 131.8775590  88.8107930  44.7580220 132.1892820  88.6359270
  43.8405690 131.0047840  88.4188510  34.9791690 136.7833000  94.2168800
  35.4970360 135.9801260  94.1625690  34.5275710 136.7212140  95.0585630
  39.8661190 138.0499280  89.4896100  40.2076890 138.7941510  88.9939420
  39.0373900 138.3630400  89.8520930  32.4636230 133.7494370 101.1294500
  32.1051170 134.4148220 101.7167840  32.1690790 132.9177920 101.5007120
  35.6649350 134.2078610 104.0134050  35.3649490 134.3535790 103.1161870
  36.4360590 133.6483900 103.9207440  41.0077800 139.0047610 102.0089180
  41.0222340 138.0728570 101.7908090  40.3002900 139.0907370 102.6478950
  46.1414870 133.1887430  88.2787790  46.0578590 133.6201650  87.4284230
  46.8609060 133.6485780  88.7114610  47.2189010 135.6454950 101.3557760
  46.4937200 136.2383730 101.1587150  47.7464470 135.6378490 100.5571130
  47.1702120 140.0429690  91.0069920  46.5278280 139.3885310  91.2813640
  46.7832780 140.4484780  90.2310590  42.7488600 137.3715120  94.8541610
  43.1012420 136.7743250  94.1942980  41.8650930 137.0459350  95.0249860
  38.8351880 138.1312810  92.2612020  39.5223010 138.6782020  92.6419610
  38.0484300 138.6753540  92.2961630  30.9744280 133.7485630  87.7529100
  31.8439130 134.0310430  88.0365020  30.4834600 134.5621500  87.6377910
  38.1379090 135.1358840  91.8737380  38.5941870 135.9464090  92.0997570
  37.7867300 134.8181980  92.7055870  40.4411700 140.6465180  99.1029680
  41.0853920 140.8524560  99.7803100  40.8041140 139.8853580  98.6500530
  34.0390870 125.4796490  92.3459900  33.9105500 125.4714390  93.2944820
  33.2152890 125.8179580  91.9950910  41.7143780 138.6497530  97.8207130
  42.3566010 137.9490690  97.9339300  42.2393130 139.4295970  97.6404020
  45.5599500 138.9346150  87.5446270  45.3337080 138.2176590  88.1370910
  45.1695700 138.6858590  86.7068020  43.4881400 139.4492430 101.0243190
  43.8237640 140.0359120 101.7021110  42.5681740 139.3185140 101.2540980
  31.3415530 142.9613010  88.3190730  31.7013170 143.5602350  87.6648000
  31.2007870 143.5072900  89.0925760  31.0384800 127.2387610 101.8066600
  30.3243320 127.4384530 102.4119210  31.4579840 126.4627180 102.1781400
  45.1415750 136.8518090  89.2060430  44.8537450 137.3130780  89.9938310
  45.9367920 136.3915860  89.4744650  31.3257390 141.2267870 102.7933130
  31.4348510 140.2862610 102.6528520  30.6737950 141.4922620 102.1446860
  39.3169980 139.4983760 104.1931250  38.9966850 138.7793000 104.7376940
  38.6428340 140.1738830 104.2667310  37.3584150 140.3444210  89.1364400
  37.3494250 141.0773900  88.5208910  36.4382510 140.0975790  89.2291360
  32.9590790 135.5659100  89.8811160  32.3518740 136.3058000  89.8906460
  33.4340140 135.6558460  89.0549360  42.5323580 129.7309920  99.5568050
  42.9004400 128.9105130  99.8847620  41.6721780 129.7911810  99.9723700
  45.8985610 128.6866860  90.3655610  45.2698770 128.7912530  89.6513840
  45.4037530 128.9063640  91.1549490  40.3443750 140.4072450  87.7989590
  40.4455730 140.2036440  86.8691570  39.4445490 140.1530730  88.0037370
  37.8669640 130.9652810  91.7813490  37.1585790 131.4339150  92.2227100
  38.1514120 130.3074820  92.4158680  39.4925570 132.3849510  99.7806020
  39.9910820 132.8595330 100.4457870  39.6348520 131.4613030  99.9876050
  41.8985070 127.6903470  93.2209280  41.7752850 127.7089600  92.2718790
  42.8469630 127.7382410  93.3407680  38.9861860 142.9258770  92.4937260
  39.2403360 142.8880160  91.5716630  38.0374340 142.7992100  92.4865510
  46.6992430 128.6017470 100.6234410  46.1966030 129.3422870 100.9628220
  47.5149090 128.9901470 100.3071200  44.9914440 133.8450650  94.0695770
  44.0504580 133.8600880  94.2443460  45.3058510 133.0586610  94.5156070
  34.9696080 135.5270250  87.6299730  35.7359350 135.4151610  88.1925160
  35.0470770 134.8308220  86.9776500  33.6642840 132.9595320  88.3132620
  33.7446430 132.0122830  88.4250020  34.5562590 133.2902200  88.4193280
  46.9940020 141.0159500  95.7450030  47.1187440 141.8390670  96.2173840
  47.8605580 140.8050230  95.3974180  34.4657550 143.1090710  95.4167160
  35.2020030 142.5606170  95.6875730  34.8498470 143.9746720  95.2773150
  31.3503030 139.1764280  91.2908670  30.4242810 139.4185420  91.2814080
  31.8159460 140.0038540  91.1693420  33.4715830 142.2936780 104.6052740
  34.2728560 142.6148830 105.0188140  32.9567650 141.9332360 105.3272650
  37.5759860 142.2821020  87.2392730  38.3688470 142.5709850  86.7874520
  37.0564210 141.8513190  86.5605210  42.3080460 138.4016650 104.5528150
  41.7018620 138.4248250 103.8123900  42.0034570 137.6699690 105.0895400
  43.7380830 142.1296940 103.1637560  44.6902580 142.0454960 103.1137800
  43.5909050 142.7938650 103.8371350  46.6290030 141.5091150  88.6629470
  46.3431540 141.0956290  87.8483650  46.4309580 142.4378860  88.5429990
  31.1913640 134.7810240 103.5488790  31.6952660 134.2017520 104.1205020
  30.4521060 135.0650470 104.0865160  38.0937260 137.5024430  87.1035080
  37.9887900 136.8876780  87.8296460  37.9261480 136.9790320  86.3198090
  38.2451580 136.1881230 103.0824310  37.4797250 136.7566230 102.9978980
  38.4267540 135.8957440 102.1892540  41.3339990 136.5644460  87.7077070
  40.7850090 137.0113760  88.3519810  41.9559250 136.0593710  88.2314740
  45.3874930 137.9186560 103.6399330  46.1284400 138.2562320 103.1366790
  44.6247610 138.0878620 103.0869100  33.2236720 132.9239830 104.4438860
  33.2642060 132.6253700 105.3524090  34.0782220 133.3247440 104.2846380
  37.0015110 135.5235380  89.6042370  37.4231530 135.3575250  90.4473760
  37.1265950 134.7135610  89.1097510  35.1642530 131.5031930 102.4113350
  34.6338990 131.0122880 101.7836690  35.8330600 131.9316130 101.8771280
  39.5142750 134.5472990  86.8519470  40.0348410 133.8322010  86.4860620
  40.1611150 135.1858860  87.1519980  44.0620590 135.9701390 102.1754540
  44.4761610 136.1246470 103.0244960  43.1271590 136.0956610 102.3380320
  44.5342760 133.3097550 104.1793690  45.1163530 132.5549870 104.0914170
  44.7104530 133.8404990 103.4025170  35.6514830 128.4694300 102.4910640
  35.5571700 127.8515050 101.7661510  35.0712220 129.1960590 102.2640550
  38.4176270 127.0267540  99.5238030  37.9693570 127.0491800  98.6783580
  37.7841470 126.6286560 100.1208330  38.8235820 135.9221870 100.1450470
  39.2423930 136.7654600  99.9726710  37.9044450 136.0593910  99.9157250
  41.1599720 133.6538050 101.5288310  41.2795930 133.0579190 102.2683150
  42.0193720 133.6907740 101.1089610  43.4987620 134.2075240 100.1050820
  42.9722840 134.7317860  99.5015960  43.8418960 134.8402630 100.7360550
  35.8974010 131.5968610  86.5500530  35.6963070 130.7335970  86.9113870
  35.7266060 131.5101970  85.6122130  36.6743240 142.2274880 101.2608200
  36.1364330 142.9520940 100.9416900  36.9277200 141.7505220 100.4705540
  37.9268490 130.1959400 102.7864130  38.5168180 129.8875250 103.4741950
  37.1088730 129.7239150 102.9424030  42.7461920 129.8125210 103.0197150
  42.0577440 129.1506750 102.9547140  43.4667940 129.3663480 103.4645610
  43.3762320 126.4076840  89.0787410  43.6564610 125.5644740  89.4346830
  42.6028050 126.6399950  89.5926160  39.5305450 143.4626090 101.5194850
  39.4564150 144.3661230 101.8267220  38.6284290 143.1437990 101.4916920
  40.0790780 142.6284600  89.1421210  40.9741570 142.9669570  89.1639970
  40.1108410 141.9064010  88.5145490  33.7186940 138.0011650  87.3708210
  34.1561810 138.5441320  88.0265790  34.2034670 137.1758600  87.3804550
  30.9332740 140.7900680  94.8228470  31.2635750 139.9221740  94.5907110
  31.3623740 140.9959200  95.6533430  35.5294660 139.1209690  92.4830440
  35.2290200 138.9974660  93.3834350  35.4232150 138.2618280  92.0746170
  31.4222950 141.6571270  97.5610100  30.9853940 141.8372070  98.3934250
  31.9900630 142.4145890  97.4191820  47.0585130 141.1588270 101.8487410
  46.4587120 141.2180830 101.1051330  47.1879030 140.2193250 101.9784260
  48.2986580 138.9006090  87.1857120  47.4679540 138.9682740  87.6564350
  48.4758410 139.7910210  86.8823980  47.7543040 135.6453570  89.6891320
  48.5161950 136.2150220  89.7951010  47.7697410 135.0780770  90.4599630
  31.2547380 134.1691500  93.9198980  30.5996220 133.9003140  93.2758680
  32.0925330 134.0595980  93.4700960  48.7603010 136.5003670  94.5333250
  49.1311840 135.7170990  94.1269220  49.4004940 137.1892770  94.3550550
  45.7436770 137.8840250  99.9463570  44.9296610 138.3137410 100.2089360
  46.1510970 138.4958660  99.3332620  47.8062210 135.9387940  86.8463840
  48.0811050 136.8466820  86.7183060  47.6172950 135.8750470  87.7825830
  44.2037820 128.9632790  88.1417470  44.6222700 128.7763770  87.3014130
  43.8973880 128.1111840  88.4520400  47.7027550 133.8756930  91.8393270
  47.3271150 133.1084860  91.4074560  46.9730670 134.2579630  92.3268200
  32.2923310 134.5544070  98.4602320  32.6596350 134.4671470  99.3398340
  31.7234130 133.7910620  98.3609180  47.0927170 133.0228450 101.4732790
  46.8613260 132.7941200 100.5730740  47.3531720 133.9428000 101.4277680
  31.8439310 131.4653160 102.3660740  30.9495360 131.4319920 102.7054450
  32.3836860 131.6639950 103.1311990  45.5315240 128.2484880 104.2512490
  46.4085420 128.2568280 104.6346490  45.5436080 127.5115720 103.6404840
  30.4685460 131.3790430  89.8624310  29.5649540 131.6420630  89.6875970
  30.9526080 131.6501600  89.0824270  46.9778510 132.1014420  95.1400510
  47.5015990 131.6077070  94.5090680  47.5637930 132.2364780  95.8848080
  47.1568230 132.1854290  98.6620060  46.2070940 132.1517830  98.7765050
  47.3381240 133.0954400  98.4269830  33.0112670 130.4355970  87.7718690
  33.7204370 130.0139190  87.2865970  32.2952610 130.5031200  87.1402040
  46.4678480 131.3587770  91.0792920  46.9637600 131.1258640  91.8641800
  46.2694550 130.5199610  90.6630560  32.3479020 125.7401490  96.7143960
  32.9955210 125.1898870  96.2739120  32.7680860 125.9944640  97.5359770
  48.7855910 127.8256640  86.8536740  49.7105220 127.6937820  86.6455030
  48.7631700 127.9049460  87.8073190  48.8594400 128.5967300  89.4793450
  48.0645900 128.5312420  90.0086360  49.0637680 129.5317940  89.4678800
  45.8012820 142.6358850  93.4731840  46.3971890 142.3143420  92.7966260
  46.0590970 142.1630670  94.2645110  32.1011020 125.8957160  99.4569280
  31.7525840 126.3520980 100.2227460  31.7698720 125.0014290  99.5391710
  33.7075390 139.0676760 103.6222470  33.6645020 138.6969670 104.5036930
  33.8386400 140.0054330 103.7624290  37.4081420 140.6236350  99.2232190
  37.1672780 140.8910910  98.3362710  38.3484060 140.7942080  99.2783050
  39.6135840 127.0869040 102.9788700  39.5524730 127.6790870 103.7284110
  40.5536220 126.9795000 102.8338960  42.2510400 126.7439100 102.6180990
  42.8650810 127.0618390 101.9562070  42.7959960 126.2587690 103.2376850
  48.6685580 142.6430730 100.0242830  48.1743860 143.0399600  99.3069960
  48.0598870 142.0179940 100.4180110  32.7731660 125.4233360 102.7320050
  33.3214650 125.2421410 101.9686160  32.8386970 124.6327470 103.2676360
  33.5463420 142.0139010 100.7420250  32.9523740 141.8823710 101.4810290
  33.5387260 141.1777150 100.2762350  43.8990420 127.5142110 100.3292000
  43.5703780 126.6993870  99.9493730  44.8472720 127.4711920 100.2057690
  46.3525030 143.2854150  97.3029570  45.8928000 144.0369960  96.9287590
  45.7237490 142.5660620  97.2444370  33.1775650 139.3797390  99.6928290
  32.4509710 138.7602680  99.6254240  33.2384800 139.7738000  98.8226370
  36.7820750 141.5942390  96.4777700  37.2985770 140.9829750  95.9525960
  37.4318130 142.0971170  96.9688710  39.5216250 142.4850880  97.3046680
  39.8094060 142.2305180  96.4279690  40.0339470 141.9328240  97.8952250
  40.7393260 126.2241080  97.8843190  39.9565050 126.6986580  98.1639950
  40.4456190 125.3195910  97.7756370  45.2914330 126.9264180  95.9292280
  45.7322420 126.8709280  95.0813880  45.0221920 127.8422190  96.0002460
  47.1552900 126.5579420  93.9401100  47.0941300 125.6140640  93.7932120
  47.9344930 126.6659510  94.4854560  31.4605650 142.6971780  92.9025050
  31.2927690 142.0642460  93.6006940  30.5940160 142.9031180  92.5519240
  32.0833670 126.5288560  90.4056910  32.8413030 126.6417440  89.8320940
  31.6210840 127.3657760  90.3600340  38.6247480 128.6427830  93.3959220
  37.8121990 128.2684720  93.0555100  39.1289120 127.8872910  93.6980410
  43.1272460 125.3070280  94.6342290  43.7301830 125.8790490  95.1090810
  42.3865450 125.8709720  94.4116190  46.2707060 125.7091840  89.9082570
  46.4657690 126.6075290  90.1750000  45.4836930 125.4778920  90.4015520
  33.0668350 141.3905010  90.3475190  32.5415970 141.7713040  89.6437150
  32.9912930 142.0155780  91.0684900  36.6496660 126.7927750  92.0004270
  36.0199400 126.0915060  92.1674400  36.1101800 127.5531880  91.7837430
  39.5888610 143.4066980 104.6714880  40.5155920 143.1711250 104.7150840
  39.5739040 144.2338980 104.1900910  47.8233670 142.9492550  91.6689130
  47.9985860 142.2630290  91.0250050  47.1255240 143.4739600  91.2765800
  36.7752220 126.0711730 104.4356760  36.4936490 126.5745330 103.6717580
  37.1571920 125.2733480 104.0698890  35.6661320 143.3387390  89.2224440
  36.3980140 143.0546670  88.6748330  35.9254990 143.1000670  90.1123820
  34.8276110 139.4552120  89.2270770  34.1984990 139.9237220  89.7756600
  34.9423940 138.6101340  89.6616960  43.3767680 125.4865310 105.0137230
  43.2633130 125.8059920 105.9088750  44.1937420 125.8877820 104.7174510
  46.1566170 142.6336840 104.4955920  46.9491490 142.1386070 104.2881880
  46.4499320 143.3126980 105.1031530  42.2825830 133.5057780  75.3771970
  42.2019880 132.5912390  75.1063680  41.8690250 134.0024850  74.6711680
  40.4143870 135.2836800  77.2581240  39.6385970 134.8037240  77.5479810
  41.0656800 134.6042450  77.0837400  34.4309700 135.5956610  78.1357000
  33.5994580 135.3405320  78.5353510  35.0390680 135.6667380  78.8714920
  44.4351300 139.6896990  76.0380370  43.9732830 138.9184230  76.3667540
  45.2476850 139.7163060  76.5432820  34.4110960 139.6296700  78.3315020
  34.7139000 138.7394440  78.1525240  35.1554550 140.1866920  78.1037270
  32.8401650 130.5558500  71.9199390  31.9518350 130.8974470  71.8179270
  33.1242840 130.3558820  71.0280220  30.8034660 133.1564150  77.8039090
  31.3750770 132.3886350  77.8042730  30.8036200 133.4552910  76.8945700
  40.6614610 141.9755000  75.6584360  40.0426050 142.4312500  75.0878800
  41.5166390 142.1306460  75.2574060  39.8552860 137.9593990  77.2651400
  39.7861140 137.0183930  77.1040530  40.6172720 138.0495400  77.8373970
  32.0459530 128.5648510  79.5908020  31.8662370 127.6674260  79.8710780
  31.6439610 129.1120380  80.2654970  40.8858030 130.7664370  77.4920330
  41.2622850 129.8936250  77.3794000  40.7877540 131.1023070  76.6010770
  35.0163040 129.1390000  72.9537770  35.1229790 130.0393730  73.2606530
  34.1055400 129.0907970  72.6632420  44.6682150 128.2614810  74.4248670
  45.4891770 127.7711380  74.4674150  44.7016230 128.8512470  75.1780510
  32.6646200 131.0609010  78.1990360  33.3456310 131.3247380  78.8177760
  32.3494250 130.2209880  78.5328370  36.8570770 132.1076370  77.2862950
  37.3648990 132.6057340  77.9267970  37.3884010 131.3311570  77.1102310
  48.9581700 130.2781560  80.9892300  48.2533870 130.6663270  80.4707410
  49.2239620 130.9731850  81.5913230  35.1406870 126.7474930  81.5526370
  35.1425310 127.2647320  80.7472270  34.3111180 126.2705110  81.5296300
  41.5277960 136.8594240  73.0516270  40.9095230 137.3243690  72.4878990
  42.0401210 137.5521720  73.4685780  36.3909720 136.3870110  79.7299870
  36.0579100 137.0139030  80.3720940  36.5676400 136.9131990  78.9501540
  44.9043630 130.2015190  77.1976210  44.1999200 130.4900080  77.7779320
  45.2655790 131.0115300  76.8375770  34.8222200 128.4584890  79.5596820
  35.1639010 129.3026940  79.2650690  33.8838010 128.6068630  79.6762160
  35.6028820 138.3550910  81.5449050  36.2202820 139.0301990  81.2633500
  34.7421940 138.7638890  81.4536550  30.8961160 137.5450770  70.4255900
  30.5189140 138.0337870  69.6940800  31.1534230 138.2176050  71.0562430
  46.5206410 139.8190320  79.4603690  45.8369930 140.4889430  79.4520360
  47.0600700 140.0170970  78.6948550  38.5050090 125.9467160  75.8841410
  38.8125070 125.3914050  75.1676910  37.5750790 126.0811620  75.7014400
  44.0565150 141.6634450  78.1748870  44.0692310 141.2596740  77.3071130
  43.5040370 142.4381740  78.0710300  45.3510570 138.3850670  73.2639040
  45.2406900 137.4425000  73.3888460  45.3478820 138.7466310  74.1501800
  43.4550590 136.5664290  79.5031480  43.8719380 136.3524400  78.6684940
  44.1790410 136.8237080  80.0740100  40.8930850 134.0115990  72.6201530
  39.9660130 133.9453370  72.8490000  41.0455670 134.9496120  72.5056770
  40.8799930 130.2832990  69.6168690  39.9403600 130.4446950  69.7021150
  41.1983190 131.0018670  69.0704680  47.4012690 134.9651510  79.5947720
  46.5731320 135.0344600  79.1197850  47.9963170 135.5505820  79.1263550
  44.9228140 135.5736290  73.1236780  44.3040560 135.2355840  72.4763080
  44.9052590 134.9296050  73.8315970  44.3654700 131.7520830  80.5402590
  43.9525880 132.5774540  80.7942580  43.6330650 131.1665870  80.3478950
  36.4987490 134.5380730  75.4021260  36.0944490 133.8257980  74.9067160
  36.5850610 134.1933970  76.2909300  36.9669190 138.2248290  77.5660470
  36.6697480 137.6193760  76.8868250  37.9169010 138.2625600  77.4549830
  35.2116110 131.3123940  79.1820300  35.7630700 131.4219280  78.4073550
  35.7259620 131.6861540  79.8975530  45.0554800 141.7980160  81.2283570
  44.5785360 142.6052350  81.0356180  44.3716590 141.1458490  81.3809780
  36.0587620 137.9629980  84.2168270  35.1616150 138.1869950  84.4641670
  36.0840490 138.0864920  83.2679670  43.0992840 134.8123100  70.1309530
  43.5386120 133.9745530  69.9847350  43.8121260 135.4452500  70.2173670
  34.8858840 134.8343300  82.7925640  34.7466610 135.7066100  83.1613040
  34.0040200 134.4916110  82.6473580  41.2088220 139.7519170  74.0990770
  41.6484130 140.4943500  73.6846160  41.1475110 139.9945740  75.0229730
  36.6839190 140.7765000  85.0010790  36.6554620 141.1807950  84.1339220
  36.5204160 139.8475360  84.8382390  33.1992120 133.4325710  72.9027910
  33.0789720 134.1587800  72.2909180  32.8893010 132.6628620  72.4255820
  48.6354010 141.5592100  86.2974960  49.1113730 142.0374990  86.9764040
  49.2561170 141.4909590  85.5720460  30.8377490 136.6040850  78.7096550
  30.9157910 136.7389620  77.7652270  31.4519170 135.8956740  78.9024670
  32.0825120 138.3041040  75.1202730  31.6753200 138.4455630  74.2656330
  32.9738130 138.0201200  74.9173940  48.0387260 138.7504950  83.4574970
  48.1650320 138.5116830  82.5392150  48.0808640 137.9189490  83.9297050
  41.9004000 142.4532950  82.0269780  42.4148670 142.3640960  82.8292210
  41.0573080 142.7992650  82.3197690  43.8758400 142.7388290  71.4553780
  43.7159540 142.4491230  72.3535610  43.7105110 141.9628420  70.9199010
  36.3546780 142.5186820  73.2325400  36.1789260 141.6022360  73.0193200
  35.5002520 142.8774110  73.4723200  43.5784530 140.2475850  70.0151780
  42.8849690 140.2453140  69.3554060  44.3207390 139.8235170  69.5845950
  43.1434460 141.8738560  74.0900270  43.5991410 141.0927940  74.4038890
  43.4826980 142.5845380  74.6341450  47.8911270 130.8037410  84.4224710
  47.2755540 131.3117080  83.8940170  47.5707690 129.9035740  84.3650650
  30.8937010 137.6455020  81.2491010  31.0568050 137.1760380  80.4310380
  31.3589460 137.1378580  81.9139850  35.6655780 126.7760780  76.2851580
  35.2223930 127.5570320  75.9536100  36.2240770 127.0990670  76.9922520
  39.9525590 129.6429300  81.8886900  39.4904960 129.8512320  82.7006840
  39.5503700 128.8288650  81.5857570  44.9530100 130.8638250  83.0183560
  44.1023690 130.5644000  83.3392630  44.7931890 131.1080260  82.1067380
  42.0479810 132.3640000  85.1182350  42.3733220 131.5303750  84.7784580
  42.8360140 132.8868520  85.2660680  37.7031680 127.3208110  78.1441180
  38.0004010 128.2270940  78.0633200  38.2517240 126.8326890  77.5300750
  35.4570000 131.8994350  74.0132830  35.2310920 131.6831520  74.9179450
  34.6762530 132.3322810  73.6678800  42.6867760 131.9057720  72.6123480
  42.0876650 132.6293520  72.4287100  43.2347370 131.8434500  71.8299930
  37.8969210 132.7979930  84.6793100  37.8012810 131.8574660  84.5293500
  38.7401190 133.0195000  84.2841170  41.2932630 130.5421260  74.6426760
  41.6862200 130.8593460  73.8295450  41.6549480 129.6633140  74.7571280
  33.0279750 129.2093600  82.8326880  32.6343140 130.0568810  83.0399660
  32.3398150 128.5719970  83.0235520  39.6024800 129.2928570  85.9023620
  38.9123120 129.1000770  86.5369710  40.3457100 129.5763210  86.4347920
  30.3296800 127.1322060  76.8656960  30.0409850 127.7024920  77.5781940
  31.0742560 126.6526510  77.2288190  30.5167030 131.0742180  68.0759680
  30.4341700 132.0172940  68.2174670  30.1650090 130.9317090  67.1972030
  41.8787770 133.1327010  78.7377540  41.1468890 133.6413820  79.0867640
  41.4812110 132.3156990  78.4366320  38.3165160 129.8081210  77.1430030
  38.3201220 129.3671160  76.2934570  39.2116280 130.1298540  77.2501850
  34.1667540 129.6907700  76.1024240  33.8267590 130.1682930  76.8591290
  33.4044860 129.2372820  75.7425340  38.3785310 130.8093290  70.1336790
  38.4998130 130.7679770  71.0822610  37.9933820 131.6717440  69.9783520
  42.3413680 128.5860690  78.1500480  42.3586420 129.0369340  78.9942330
  42.0929260 127.6866330  78.3633920  37.3906810 133.1194430  69.5320090
  36.8223710 132.6712680  68.9056000  38.0995810 133.4787210  68.9985240
  45.7684430 125.9992870  83.9886860  46.0930200 125.2682530  84.5144840
  45.8040940 125.6806510  83.0867850  32.4675990 137.0206450  83.4086820
  32.0830780 136.3800120  84.0069780  32.7788180 137.7242570  83.9781550
  38.6173130 133.8682990  78.8895440  38.9843260 133.3941560  79.6356780
  38.4278190 134.7424560  79.2303780  31.4813620 128.6126680  75.0188910
  31.1960540 128.2482350  75.8567530  31.4192480 127.8807140  74.4052050
  36.4072500 132.9091630  81.2079650  36.1029570 133.7883610  81.4330010
  37.3618960 132.9691420  81.2437090  34.9354290 137.1152620  71.8046500
  34.1616550 136.5750240  71.6445220  35.6648920 136.5959230  71.4664260
  45.6942270 136.1117980  77.5972890  46.4141390 136.6073270  77.2069000
  45.4924090 135.4335870  76.9526760  41.1552210 127.5055940  71.7402280
  40.3416820 127.0069110  71.6647590  40.9614160 128.3454190  71.3238630
  41.0761070 136.1827040  83.4841890  41.0098380 135.2622710  83.2299480
  40.4466210 136.2802480  84.1986530  43.8700600 131.8775590  70.0364440
  44.7580220 132.1892820  69.8615780  43.8405690 131.0047840  69.6445020
  34.9791690 136.7833000  75.4425310  35.4970360 135.9801260  75.3882200
  34.5275710 136.7212140  76.2842140  39.8661190 138.0499280  70.7152610
  40.2076890 138.7941510  70.2195930  39.0373900 138.3630400  71.0777440
  32.4636230 133.7494370  82.3551010  32.1051170 134.4148220  82.9424350
  32.1690790 132.9177920  82.7263630  35.6649350 134.2078610  85.2390560
  35.3649490 134.3535790  84.3418380  36.4360590 133.6483900  85.1463950
  41.0077800 139.0047610  83.2345690  41.0222340 138.0728570  83.0164600
  40.3002900 139.0907370  83.8735460  46.1414870 133.1887430  69.5044300
  46.0578590 133.6201650  68.6540740  46.8609060 133.6485780  69.9371120
  47.2189010 135.6454950  82.5814270  46.4937200 136.2383730  82.3843660
  47.7464470 135.6378490  81.7827640  47.1702120 140.0429690  72.2326430
  46.5278280 139.3885310  72.5070150  46.7832780 140.4484780  71.4567100
  42.7488600 137.3715120  76.0798120  43.1012420 136.7743250  75.4199490
  41.8650930 137.0459350  76.2506370  38.8351880 138.1312810  73.4868530
  39.5223010 138.6782020  73.8676120  38.0484300 138.6753540  73.5218140
  30.9744280 133.7485630  68.9785610  31.8439130 134.0310430  69.2621530
  30.4834600 134.5621500  68.8634420  38.1379090 135.1358840  73.0993890
  38.5941870 135.9464090  73.3254080  37.7867300 134.8181980  73.9312380
  40.4411700 140.6465180  80.3286190  41.0853920 140.8524560  81.0059610
  40.8041140 139.8853580  79.8757040  34.0390870 125.4796490  73.5716410
  33.9105500 125.4714390  74.5201330  33.2152890 125.8179580  73.2207420
  41.7143780 138.6497530  79.0463640  42.3566010 137.9490690  79.1595810
  42.2393130 139.4295970  78.8660530  45.5599500 138.9346150  68.7702780
  45.3337080 138.2176590  69.3627420  45.1695700 138.6858590  67.9324530
  43.4881400 139.4492430  82.2499700  43.8237640 140.0359120  82.9277620
  42.5681740 139.3185140  82.4797490  31.3415530 142.9613010  69.5447240
  31.7013170 143.5602350  68.8904510  31.2007870 143.5072900  70.3182270
  31.0384800 127.2387610  83.0323110  30.3243320 127.4384530  83.6375720
  31.4579840 126.4627180  83.4037910  45.1415750 136.8518090  70.4316940
  44.8537450 137.3130780  71.2194820  45.9367920 136.3915860  70.7001160
  31.3257390 141.2267870  84.0189640  31.4348510 140.2862610  83.8785030
  30.6737950 141.4922620  83.3703370  39.3169980 139.4983760  85.4187760
  38.9966850 138.7793000  85.9633450  38.6428340 140.1738830  85.4923820
  37.3584150 140.3444210  70.3620910  37.3494250 141.0773900  69.7465420
  36.4382510 140.0975790  70.4547870  32.9590790 135.5659100  71.1067670
  32.3518740 136.3058000  71.1162970  33.4340140 135.6558460  70.2805870
  42.5323580 129.7309920  80.7824560  42.9004400 128.9105130  81.1104130
  41.6721780 129.7911810  81.1980210  40.3443750 140.4072450  69.0246100
  40.4455730 140.2036440  68.0948080  39.4445490 140.1530730  69.2293880
  37.8669640 130.9652810  73.0070000  37.1585790 131.4339150  73.4483610
  38.1514120 130.3074820  73.6415190  39.4925570 132.3849510  81.0062530
  39.9910820 132.8595330  81.6714380  39.6348520 131.4613030  81.2132560
  41.8985070 127.6903470  74.4465790  41.7752850 127.7089600  73.4975300
  42.8469630 127.7382410  74.5664190  38.9861860 142.9258770  73.7193770
  39.2403360 142.8880160  72.7973140  38.0374340 142.7992100  73.7122020
  46.6992430 128.6017470  81.8490920  46.1966030 129.3422870  82.1884730
  47.5149090 128.9901470  81.5327710  44.9914440 133.8450650  75.2952280
  44.0504580 133.8600880  75.4699970  45.3058510 133.0586610  75.7412580
  34.9696080 135.5270250  68.8556240  35.7359350 135.4151610  69.4181670
  35.0470770 134.8308220  68.2033010  33.6642840 132.9595320  69.5389130
  33.7446430 132.0122830  69.6506530  34.5562590 133.2902200  69.6449790
  46.9940020 141.0159500  76.9706540  47.1187440 141.8390670  77.4430350
  47.8605580 140.8050230  76.6230690  34.4657550 143.1090710  76.6423670
  35.2020030 142.5606170  76.9132240  34.8498470 143.9746720  76.5029660
  31.3503030 139.1764280  72.5165180  30.4242810 139.4185420  72.5070590
  31.8159460 140.0038540  72.3949930  33.4715830 142.2936780  85.8309250
  34.2728560 142.6148830  86.2444650  32.9567650 141.9332360  86.5529160
  37.5759860 142.2821020  68.4649240  38.3688470 142.5709850  68.0131030
  37.0564210 141.8513190  67.7861720  42.3080460 138.4016650  85.7784660
  41.7018620 138.4248250  85.0380410  42.0034570 137.6699690  86.3151910
  43.7380830 142.1296940  84.3894070  44.6902580 142.0454960  84.3394310
  43.5909050 142.7938650  85.0627860  46.6290030 141.5091150  69.8885980
  46.3431540 141.0956290  69.0740160  46.4309580 142.4378860  69.7686500
  31.1913640 134.7810240  84.7745300  31.6952660 134.2017520  85.3461530
  30.4521060 135.0650470  85.3121670  38.0937260 137.5024430  68.3291590
  37.9887900 136.8876780  69.0552970  37.9261480 136.9790320  67.5454600
  38.2451580 136.1881230  84.3080820  37.4797250 136.7566230  84.2235490
  38.4267540 135.8957440  83.4149050  41.3339990 136.5644460  68.9333580
  40.7850090 137.0113760  69.5776320  41.9559250 136.0593710  69.4571250
  45.3874930 137.9186560  84.8655840  46.1284400 138.2562320  84.3623300
  44.6247610 138.0878620  84.3125610  33.2236720 132.9239830  85.6695370
  33.2642060 132.6253700  86.5780600  34.0782220 133.3247440  85.5102890
  37.0015110 135.5235380  70.8298880  37.4231530 135.3575250  71.6730270
  37.1265950 134.7135610  70.3354020  35.1642530 131.5031930  83.6369860
  34.6338990 131.0122880  83.0093200  35.8330600 131.9316130  83.1027790
  39.5142750 134.5472990  68.0775980  40.0348410 133.8322010  67.7117130
  40.1611150 135.1858860  68.3776490  44.0620590 135.9701390  83.4011050
  44.4761610 136.1246470  84.2501470  43.1271590 136.0956610  83.5636830
  44.5342760 133.3097550  85.4050200  45.1163530 132.5549870  85.3170680
  44.7104530 133.8404990  84.6281680  38.4176270 127.0267540  80.7494540
  37.9693570 127.0491800  79.9040090  37.7841470 126.6286560  81.3464840
  38.8235820 135.9221870  81.3706980  39.2423930 136.7654600  81.1983220
  37.9044450 136.0593910  81.1413760  41.1599720 133.6538050  82.7544820
  41.2795930 133.0579190  83.4939660  42.0193720 133.6907740  82.3346120
  43.4987620 134.2075240  81.3307330  42.9722840 134.7317860  80.7272470
  43.8418960 134.8402630  81.9617060  35.8974010 131.5968610  67.7757040
  35.6963070 130.7335970  68.1370380  35.7266060 131.5101970  66.8378640
  36.6743240 142.2274880  82.4864710  36.1364330 142.9520940  82.1673410
  36.9277200 141.7505220  81.6962050  37.9268490 130.1959400  84.0120640
  38.5168180 129.8875250  84.6998460  37.1088730 129.7239150  84.1680540
  42.7461920 129.8125210  84.2453660  42.0577440 129.1506750  84.1803650
  43.4667940 129.3663480  84.6902120  39.5305450 143.4626090  82.7451360
  39.4564150 144.3661230  83.0523730  38.6284290 143.1437990  82.7173430
  40.0790780 142.6284600  70.3677720  40.9741570 142.9669570  70.3896480
  40.1108410 141.9064010  69.7402000  33.7186940 138.0011650  68.5964720
  34.1561810 138.5441320  69.2522300  34.2034670 137.1758600  68.6061060
  30.9332740 140.7900680  76.0484980  31.2635750 139.9221740  75.8163620
  31.3623740 140.9959200  76.8789940  35.5294660 139.1209690  73.7086950
  35.2290200 138.9974660  74.6090860  35.4232150 138.2618280  73.3002680
  31.4222950 141.6571270  78.7866610  30.9853940 141.8372070  79.6190760
  31.9900630 142.4145890  78.6448330  47.0585130 141.1588270  83.0743920
  46.4587120 141.2180830  82.3307840  47.1879030 140.2193250  83.2040770
  48.2986580 138.9006090  68.4113630  47.4679540 138.9682740  68.8820860
  48.4758410 139.7910210  68.1080490  47.7543040 135.6453570  70.9147830
  48.5161950 136.2150220  71.0207520  47.7697410 135.0780770  71.6856140
  31.2547380 134.1691500  75.1455490  30.5996220 133.9003140  74.5015190
  32.0925330 134.0595980  74.6957470  45.7436770 137.8840250  81.1720080
  44.9296610 138.3137410  81.4345870  46.1510970 138.4958660  80.5589130
  47.8062210 135.9387940  68.0720350  48.0811050 136.8466820  67.9439570
  47.6172950 135.8750470  69.0082340  32.2923310 134.5544070  79.6858830
  32.6596350 134.4671470  80.5654850  31.7234130 133.7910620  79.5865690
  47.0927170 133.0228450  82.6989300  46.8613260 132.7941200  81.7987250
  47.3531720 133.9428000  82.6534190  31.8439310 131.4653160  83.5917250
  30.9495360 131.4319920  83.9310960  32.3836860 131.6639950  84.3568500
  45.5315240 128.2484880  85.4769000  46.4085420 128.2568280  85.8603000
  45.5436080 127.5115720  84.8661350  30.4685460 131.3790430  71.0880820
  29.5649540 131.6420630  70.9132480  30.9526080 131.6501600  70.3080780
  47.1568230 132.1854290  79.8876570  46.2070940 132.1517830  80.0021560
  47.3381240 133.0954400  79.6526340  33.0112670 130.4355970  68.9975200
  33.7204370 130.0139190  68.5122480  32.2952610 130.5031200  68.3658550
  32.6586830 126.4895300  68.0377850  33.3814960 127.0304240  68.3559070
  32.9311350 126.2158720  67.1619390  46.4678480 131.3587770  72.3049430
  46.9637600 131.1258640  73.0898310  46.2694550 130.5199610  71.8887070
  32.3479020 125.7401490  77.9400470  32.9955210 125.1898870  77.4995630
  32.7680860 125.9944640  78.7616280  46.2431360 125.9342850  81.2970110
  46.8803580 126.5476990  81.6629300  46.3906250 125.9703510  80.3519340
  45.8012820 142.6358850  74.6988350  46.3971890 142.3143420  74.0222770
  46.0590970 142.1630670  75.4901620  32.1011020 125.8957160  80.6825790
  31.7525840 126.3520980  81.4483970  31.7698720 125.0014290  80.7648220
  33.7075390 139.0676760  84.8478980  33.6645020 138.6969670  85.7293440
  33.8386400 140.0054330  84.9880800  37.4081420 140.6236350  80.4488700
  37.1672780 140.8910910  79.5619220  38.3484060 140.7942080  80.5039560
  42.2510400 126.7439100  83.8437500  42.8650810 127.0618390  83.1818580
  42.7959960 126.2587690  84.4633360  48.6685580 142.6430730  81.2499340
  48.1743860 143.0399600  80.5326470  48.0598870 142.0179940  81.6436620
  33.5463420 142.0139010  81.9676760  32.9523740 141.8823710  82.7066800
  33.5387260 141.1777150  81.5018860  43.8990420 127.5142110  81.5548510
  43.5703780 126.6993870  81.1750240  44.8472720 127.4711920  81.4314200
  46.3525030 143.2854150  78.5286080  45.8928000 144.0369960  78.1544100
  45.7237490 142.5660620  78.4700880  33.1775650 139.3797390  80.9184800
  32.4509710 138.7602680  80.8510750  33.2384800 139.7738000  80.0482880
  36.7820750 141.5942390  77.7034210  37.2985770 140.9829750  77.1782470
  37.4318130 142.0971170  78.1945220  39.5216250 142.4850880  78.5303190
  39.8094060 142.2305180  77.6536200  40.0339470 141.9328240  79.1208760
  47.1552900 126.5579420  75.1657610  47.0941300 125.6140640  75.0188630
  47.9344930 126.6659510  75.7111070  31.4605650 142.6971780  74.1281560
  31.2927690 142.0642460  74.8263450  30.5940160 142.9031180  73.7775750
  32.0833670 126.5288560  71.6313420  32.8413030 126.6417440  71.0577450
  31.6210840 127.3657760  71.5856850  38.6247480 128.6427830  74.6215730
  37.8121990 128.2684720  74.2811610  39.1289120 127.8872910  74.9236920
  33.0668350 141.3905010  71.5731700  32.5415970 141.7713040  70.8693660
  32.9912930 142.0155780  72.2941410  36.6496660 126.7927750  73.2260780
  36.0199400 126.0915060  73.3930910  36.1101800 127.5531880  73.0093940
  39.5888610 143.4066980  85.8971390  40.5155920 143.1711250  85.9407350
  39.5739040 144.2338980  85.4157420  47.8233670 142.9492550  72.8945640
  47.9985860 142.2630290  72.2506560  47.1255240 143.4739600  72.5022310
  35.6661320 143.3387390  70.4480950  36.3980140 143.0546670  69.9004840
  35.9254990 143.1000670  71.3380330  34.8276110 139.4552120  70.4527280
  34.1984990 139.9237220  71.0013110  34.9423940 138.6101340  70.8873470
  43.3767680 125.4865310  86.2393740  43.2633130 125.8059920  87.1345260
  44.1937420 125.8877820  85.9431020  46.1566170 142.6336840  85.7212430
  46.9491490 142.1386070  85.5138390  46.4499320 143.3126980  86.3288040
  42.2825830 133.5057780  56.6028480  42.2019880 132.5912390  56.3320190
  41.8690250 134.0024850  55.8968190  40.4143870 135.2836800  58.4837750
  39.6385970 134.8037240  58.7736320  41.0656800 134.6042450  58.3093910
  34.4309700 135.5956610  59.3613510  33.5994580 135.3405320  59.7610020
  35.0390680 135.6667380  60.0971430  44.4351300 139.6896990  57.2636880
  43.9732830 138.9184230  57.5924050  45.2476850 139.7163060  57.7689330
  34.4110960 139.6296700  59.5571530  34.7139000 138.7394440  59.3781750
  35.1554550 140.1866920  59.3293780  32.8401650 130.5558500  53.1455900
  31.9518350 130.8974470  53.0435780  33.1242840 130.3558820  52.2536730
  30.8034660 133.1564150  59.0295600  31.3750770 132.3886350  59.0299240
  30.8036200 133.4552910  58.1202210  40.6614610 141.9755000  56.8840870
  40.0426050 142.4312500  56.3135310  41.5166390 142.1306460  56.4830570
  39.8552860 137.9593990  58.4907910  39.7861140 137.0183930  58.3297040
  40.6172720 138.0495400  59.0630480  32.0459530 128.5648510  60.8164530
  31.8662370 127.6674260  61.0967290  31.6439610 129.1120380  61.4911480
  40.8858030 130.7664370  58.7176840  41.2622850 129.8936250  58.6050510
  40.7877540 131.1023070  57.8267280  35.0163040 129.1390000  54.1794280
  35.1229790 130.0393730  54.4863040  34.1055400 129.0907970  53.8888930
  32.6646200 131.0609010  59.4246870  33.3456310 131.3247380  60.0434270
  32.3494250 130.2209880  59.7584880  36.8570770 132.1076370  58.5119460
  37.3648990 132.6057340  59.1524480  37.3884010 131.3311570  58.3358820
  48.9581700 130.2781560  62.2148810  48.2533870 130.6663270  61.6963920
  49.2239620 130.9731850  62.8169740  41.5277960 136.8594240  54.2772780
  40.9095230 137.3243690  53.7135500  42.0401210 137.5521720  54.6942290
  36.3909720 136.3870110  60.9556380  36.0579100 137.0139030  61.5977450
  36.5676400 136.9131990  60.1758050  44.9043630 130.2015190  58.4232720
  44.1999200 130.4900080  59.0035830  45.2655790 131.0115300  58.0632280
  34.8222200 128.4584890  60.7853330  35.1639010 129.3026940  60.4907200
  33.8838010 128.6068630  60.9018670  35.6028820 138.3550910  62.7705560
  36.2202820 139.0301990  62.4890010  34.7421940 138.7638890  62.6793060
  30.8961160 137.5450770  51.6512410  30.5189140 138.0337870  50.9197310
  31.1534230 138.2176050  52.2818940  46.5206410 139.8190320  60.6860200
  45.8369930 140.4889430  60.6776870  47.0600700 140.0170970  59.9205060
  47.9730550 129.6469980  58.8141930  47.0255460 129.6808960  58.9457360
  48.2980540 130.4608930  59.1991290  38.5050090 125.9467160  57.1097920
  38.8125070 125.3914050  56.3933420  37.5750790 126.0811620  56.9270910
  44.0565150 141.6634450  59.4005380  44.0692310 141.2596740  58.5327640
  43.5040370 142.4381740  59.2966810  45.3510570 138.3850670  54.4895550
  45.2406900 137.4425000  54.6144970  45.3478820 138.7466310  55.3758310
  43.4550590 136.5664290  60.7287990  43.8719380 136.3524400  59.8941450
  44.1790410 136.8237080  61.2996610  40.8930850 134.0115990  53.8458040
  39.9660130 133.9453370  54.0746510  41.0455670 134.9496120  53.7313280
  40.8799930 130.2832990  50.8425200  39.9403600 130.4446950  50.9277660
  41.1983190 131.0018670  50.2961190  47.4012690 134.9651510  60.8204230
  46.5731320 135.0344600  60.3454360  47.9963170 135.5505820  60.3520060
  44.9228140 135.5736290  54.3493290  44.3040560 135.2355840  53.7019590
  44.9052590 134.9296050  55.0572480  44.3654700 131.7520830  61.7659100
  43.9525880 132.5774540  62.0199090  43.6330650 131.1665870  61.5735460
  36.4987490 134.5380730  56.6277770  36.0944490 133.8257980  56.1323670
  36.5850610 134.1933970  57.5165810  36.9669190 138.2248290  58.7916980
  36.6697480 137.6193760  58.1124760  37.9169010 138.2625600  58.6806340
  35.2116110 131.3123940  60.4076810  35.7630700 131.4219280  59.6330060
  35.7259620 131.6861540  61.1232040  45.0554800 141.7980160  62.4540080
  44.5785360 142.6052350  62.2612690  44.3716590 141.1458490  62.6066290
  36.0587620 137.9629980  65.4424780  35.1616150 138.1869950  65.6898180
  36.0840490 138.0864920  64.4936180  43.0992840 134.8123100  51.3566040
  43.5386120 133.9745530  51.2103860  43.8121260 135.4452500  51.4430180
  34.8858840 134.8343300  64.0182150  34.7466610 135.7066100  64.3869550
  34.0040200 134.4916110  63.8730090  41.2088220 139.7519170  55.3247280
  41.6484130 140.4943500  54.9102670  41.1475110 139.9945740  56.2486240
  36.6839190 140.7765000  66.2267300  36.6554620 141.1807950  65.3595730
  36.5204160 139.8475360  66.0638900  46.6809980 126.0665910  49.6707080
  46.3682640 126.1592740  50.5706150  47.4422450 126.6446940  49.6204510
  33.1992120 133.4325710  54.1284420  33.0789720 134.1587800  53.5165690
  32.8893010 132.6628620  53.6512330  48.6354010 141.5592100  67.5231470
  49.1113730 142.0374990  68.2020550  49.2561170 141.4909590  66.7976970
  30.8377490 136.6040850  59.9353060  30.9157910 136.7389620  58.9908780
  31.4519170 135.8956740  60.1281180  32.0825120 138.3041040  56.3459240
  31.6753200 138.4455630  55.4912840  32.9738130 138.0201200  56.1430450
  48.0387260 138.7504950  64.6831480  48.1650320 138.5116830  63.7648660
  48.0808640 137.9189490  65.1553560  41.9004000 142.4532950  63.2526290
  42.4148670 142.3640960  64.0548720  41.0573080 142.7992650  63.5454200
  43.8758400 142.7388290  52.6810290  43.7159540 142.4491230  53.5792120
  43.7105110 141.9628420  52.1455520  36.3546780 142.5186820  54.4581910
  36.1789260 141.6022360  54.2449710  35.5002520 142.8774110  54.6979710
  43.5784530 140.2475850  51.2408290  42.8849690 140.2453140  50.5810570
  44.3207390 139.8235170  50.8102460  43.1434460 141.8738560  55.3156780
  43.5991410 141.0927940  55.6295400  43.4826980 142.5845380  55.8597960
  30.8937010 137.6455020  62.4747520  31.0568050 137.1760380  61.6566890
  31.3589460 137.1378580  63.1396360  35.6655780 126.7760780  57.5108090
  35.2223930 127.5570320  57.1792610  36.2240770 127.0990670  58.2179030
  44.9530100 130.8638250  64.2440070  44.1023690 130.5644000  64.5649140
  44.7931890 131.1080260  63.3323890  42.0479810 132.3640000  66.3438860
  42.3733220 131.5303750  66.0041090  42.8360140 132.8868520  66.4917190
  38.7814600 126.3971480  52.3913920  38.1568780 126.3931350  53.1167230
  38.6944720 125.5302440  51.9949890  37.7031680 127.3208110  59.3697690
  38.0004010 128.2270940  59.2889710  38.2517240 126.8326890  58.7557260
  35.4570000 131.8994350  55.2389340  35.2310920 131.6831520  56.1435960
  34.6762530 132.3322810  54.8935310  42.6867760 131.9057720  53.8379990
  42.0876650 132.6293520  53.6543610  43.2347370 131.8434500  53.0556440
  37.8969210 132.7979930  65.9049610  37.8012810 131.8574660  65.7550010
  38.7401190 133.0195000  65.5097680  41.2932630 130.5421260  55.8683270
  41.6862200 130.8593460  55.0551960  41.6549480 129.6633140  55.9827790
  33.0279750 129.2093600  64.0583390  32.6343140 130.0568810  64.2656170
  32.3398150 128.5719970  64.2492030  30.3296800 127.1322060  58.0913470
  30.0409850 127.7024920  58.8038450  31.0742560 126.6526510  58.4544700
  30.5167030 131.0742180  49.3016190  30.4341700 132.0172940  49.4431180
  30.1650090 130.9317090  48.4228540  41.8787770 133.1327010  59.9634050
  41.1468890 133.6413820  60.3124150  41.4812110 132.3156990  59.6622830
  38.3165160 129.8081210  58.3686540  38.3201220 129.3671160  57.5191080
  39.2116280 130.1298540  58.4758360  34.1667540 129.6907700  57.3280750
  33.8267590 130.1682930  58.0847800  33.4044860 129.2372820  56.9681850
  38.3785310 130.8093290  51.3593300  38.4998130 130.7679770  52.3079120
  37.9933820 131.6717440  51.2040030  42.3413680 128.5860690  59.3756990
  42.3586420 129.0369340  60.2198840  42.0929260 127.6866330  59.5890430
  37.3906810 133.1194430  50.7576600  36.8223710 132.6712680  50.1312510
  38.0995810 133.4787210  50.2241750  32.4675990 137.0206450  64.6343330
  32.0830780 136.3800120  65.2326290  32.7788180 137.7242570  65.2038060
  38.6173130 133.8682990  60.1151950  38.9843260 133.3941560  60.8613290
  38.4278190 134.7424560  60.4560290  31.4813620 128.6126680  56.2445420
  31.1960540 128.2482350  57.0824040  31.4192480 127.8807140  55.6308560
  36.4072500 132.9091630  62.4336160  36.1029570 133.7883610  62.6586520
  37.3618960 132.9691420  62.4693600  34.9354290 137.1152620  53.0303010
  34.1616550 136.5750240  52.8701730  35.6648920 136.5959230  52.6920770
  45.6942270 136.1117980  58.8229400  46.4141390 136.6073270  58.4325510
  45.4924090 135.4335870  58.1783270  41.1552210 127.5055940  52.9658790
  40.3416820 127.0069110  52.8904100  40.9614160 128.3454190  52.5495140
  41.0761070 136.1827040  64.7098400  41.0098380 135.2622710  64.4555990
  40.4466210 136.2802480  65.4243040  43.8700600 131.8775590  51.2620950
  44.7580220 132.1892820  51.0872290  43.8405690 131.0047840  50.8701530
  34.9791690 136.7833000  56.6681820  35.4970360 135.9801260  56.6138710
  34.5275710 136.7212140  57.5098650  39.8661190 138.0499280  51.9409120
  40.2076890 138.7941510  51.4452440  39.0373900 138.3630400  52.3033950
  32.4636230 133.7494370  63.5807520  32.1051170 134.4148220  64.1680860
  32.1690790 132.9177920  63.9520140  35.6649350 134.2078610  66.4647070
  35.3649490 134.3535790  65.5674890  36.4360590 133.6483900  66.3720460
  41.0077800 139.0047610  64.4602200  41.0222340 138.0728570  64.2421110
  40.3002900 139.0907370  65.0991970  46.1414870 133.1887430  50.7300810
  46.0578590 133.6201650  49.8797250  46.8609060 133.6485780  51.1627630
  47.2189010 135.6454950  63.8070780  46.4937200 136.2383730  63.6100170
  47.7464470 135.6378490  63.0084150  47.1702120 140.0429690  53.4582940
  46.5278280 139.3885310  53.7326660  46.7832780 140.4484780  52.6823610
  42.7488600 137.3715120  57.3054630  43.1012420 136.7743250  56.6456000
  41.8650930 137.0459350  57.4762880  38.8351880 138.1312810  54.7125040
  39.5223010 138.6782020  55.0932630  38.0484300 138.6753540  54.7474650
  30.9744280 133.7485630  50.2042120  31.8439130 134.0310430  50.4878040
  30.4834600 134.5621500  50.0890930  38.1379090 135.1358840  54.3250400
  38.5941870 135.9464090  54.5510590  37.7867300 134.8181980  55.1568890
  40.4411700 140.6465180  61.5542700  41.0853920 140.8524560  62.2316120
  40.8041140 139.8853580  61.1013550  34.0390870 125.4796490  54.7972920
  33.9105500 125.4714390  55.7457840  33.2152890 125.8179580  54.4463930
  41.7143780 138.6497530  60.2720150  42.3566010 137.9490690  60.3852320
  42.2393130 139.4295970  60.0917040  45.5599500 138.9346150  49.9959290
  45.3337080 138.2176590  50.5883930  45.1695700 138.6858590  49.1581040
  43.4881400 139.4492430  63.4756210  43.8237640 140.0359120  64.1534130
  42.5681740 139.3185140  63.7054000  31.3415530 142.9613010  50.7703750
  31.7013170 143.5602350  50.1161020  31.2007870 143.5072900  51.5438780
  31.0384800 127.2387610  64.2579620  30.3243320 127.4384530  64.8632230
  31.4579840 126.4627180  64.6294420  45.1415750 136.8518090  51.6573450
  44.8537450 137.3130780  52.4451330  45.9367920 136.3915860  51.9257670
  31.3257390 141.2267870  65.2446150  31.4348510 140.2862610  65.1041540
  30.6737950 141.4922620  64.5959880  39.3169980 139.4983760  66.6444270
  38.9966850 138.7793000  67.1889960  38.6428340 140.1738830  66.7180330
  37.3584150 140.3444210  51.5877420  37.3494250 141.0773900  50.9721930
  36.4382510 140.0975790  51.6804380  32.9590790 135.5659100  52.3324180
  32.3518740 136.3058000  52.3419480  33.4340140 135.6558460  51.5062380
  42.5323580 129.7309920  62.0081070  42.9004400 128.9105130  62.3360640
  41.6721780 129.7911810  62.4236720  45.8985610 128.6866860  52.8168630
  45.2698770 128.7912530  52.1026860  45.4037530 128.9063640  53.6062510
  40.3443750 140.4072450  50.2502610  40.4455730 140.2036440  49.3204590
  39.4445490 140.1530730  50.4550390  37.8669640 130.9652810  54.2326510
  37.1585790 131.4339150  54.6740120  38.1514120 130.3074820  54.8671700
  39.4925570 132.3849510  62.2319040  39.9910820 132.8595330  62.8970890
  39.6348520 131.4613030  62.4389070  41.8985070 127.6903470  55.6722300
  41.7752850 127.7089600  54.7231810  42.8469630 127.7382410  55.7920700
  38.9861860 142.9258770  54.9450280  39.2403360 142.8880160  54.0229650
  38.0374340 142.7992100  54.9378530  36.0704660 129.2737890  51.6077220
  36.9195190 129.7108040  51.5417410  35.7035930 129.5858150  52.4349280
  44.9914440 133.8450650  56.5208790  44.0504580 133.8600880  56.6956480
  45.3058510 133.0586610  56.9669090  34.9696080 135.5270250  50.0812750
  35.7359350 135.4151610  50.6438180  35.0470770 134.8308220  49.4289520
  33.6642840 132.9595320  50.7645640  33.7446430 132.0122830  50.8763040
  34.5562590 133.2902200  50.8706300  46.9940020 141.0159500  58.1963050
  47.1187440 141.8390670  58.6686860  47.8605580 140.8050230  57.8487200
  34.4657550 143.1090710  57.8680180  35.2020030 142.5606170  58.1388750
  34.8498470 143.9746720  57.7286170  31.3503030 139.1764280  53.7421690
  30.4242810 139.4185420  53.7327100  31.8159460 140.0038540  53.6206440
  33.4715830 142.2936780  67.0565760  34.2728560 142.6148830  67.4701160
  32.9567650 141.9332360  67.7785670  37.5759860 142.2821020  49.6905750
  38.3688470 142.5709850  49.2387540  37.0564210 141.8513190  49.0118230
  42.3080460 138.4016650  67.0041170  41.7018620 138.4248250  66.2636920
  42.0034570 137.6699690  67.5408420  43.7380830 142.1296940  65.6150580
  44.6902580 142.0454960  65.5650820  43.5909050 142.7938650  66.2884370
  46.6290030 141.5091150  51.1142490  46.3431540 141.0956290  50.2996670
  46.4309580 142.4378860  50.9943010  31.1913640 134.7810240  66.0001810
  31.6952660 134.2017520  66.5718040  30.4521060 135.0650470  66.5378180
  38.0937260 137.5024430  49.5548100  37.9887900 136.8876780  50.2809480
  37.9261480 136.9790320  48.7711110  38.2451580 136.1881230  65.5337330
  37.4797250 136.7566230  65.4492000  38.4267540 135.8957440  64.6405560
  41.3339990 136.5644460  50.1590090  40.7850090 137.0113760  50.8032830
  41.9559250 136.0593710  50.6827760  45.3874930 137.9186560  66.0912350
  46.1284400 138.2562320  65.5879810  44.6247610 138.0878620  65.5382120
  33.2236720 132.9239830  66.8951880  33.2642060 132.6253700  67.8037110
  34.0782220 133.3247440  66.7359400  37.0015110 135.5235380  52.0555390
  37.4231530 135.3575250  52.8986780  37.1265950 134.7135610  51.5610530
  35.1642530 131.5031930  64.8626370  34.6338990 131.0122880  64.2349710
  35.8330600 131.9316130  64.3284300  39.5142750 134.5472990  49.3032490
  40.0348410 133.8322010  48.9373640  40.1611150 135.1858860  49.6033000
  44.0620590 135.9701390  64.6267560  44.4761610 136.1246470  65.4757980
  43.1271590 136.0956610  64.7893340  44.5342760 133.3097550  66.6306710
  45.1163530 132.5549870  66.5427190  44.7104530 133.8404990  65.8538190
  38.8235820 135.9221870  62.5963490  39.2423930 136.7654600  62.4239730
  37.9044450 136.0593910  62.3670270  41.1599720 133.6538050  63.9801330
  41.2795930 133.0579190  64.7196170  42.0193720 133.6907740  63.5602630
  43.4987620 134.2075240  62.5563840  42.9722840 134.7317860  61.9528980
  43.8418960 134.8402630  63.1873570  35.8974010 131.5968610  49.0013550
  35.6963070 130.7335970  49.3626890  35.7266060 131.5101970  48.0635150
  36.6743240 142.2274880  63.7121220  36.1364330 142.9520940  63.3929920
  36.9277200 141.7505220  62.9218560  42.7461920 129.8125210  65.4710170
  42.0577440 129.1506750  65.4060160  43.4667940 129.3663480  65.9158630
  43.3762320 126.4076840  51.5300430  43.6564610 125.5644740  51.8859850
  42.6028050 126.6399950  52.0439180  34.6956810 128.6969230  48.9891430
  34.9982710 128.7036660  48.0810580  35.4351400 128.3467090  49.4859090
  39.5305450 143.4626090  63.9707870  39.4564150 144.3661230  64.2780240
  38.6284290 143.1437990  63.9429940  37.9141740 127.6403850  49.9747630
  37.5663740 126.9627840  49.3950080  38.1154510 127.1793360  50.7891020
  40.0790780 142.6284600  51.5934230  40.9741570 142.9669570  51.6152990
  40.1108410 141.9064010  50.9658510  33.7186940 138.0011650  49.8221230
  34.1561810 138.5441320  50.4778810  34.2034670 137.1758600  49.8317570
  30.9332740 140.7900680  57.2741490  31.2635750 139.9221740  57.0420130
  31.3623740 140.9959200  58.1046450  35.5294660 139.1209690  54.9343460
  35.2290200 138.9974660  55.8347370  35.4232150 138.2618280  54.5259190
  31.4222950 141.6571270  60.0123120  30.9853940 141.8372070  60.8447270
  31.9900630 142.4145890  59.8704840  47.0585130 141.1588270  64.3000430
  46.4587120 141.2180830  63.5564350  47.1879030 140.2193250  64.4297280
  48.2986580 138.9006090  49.6370140  47.4679540 138.9682740  50.1077370
  48.4758410 139.7910210  49.3337000  47.7543040 135.6453570  52.1404340
  48.5161950 136.2150220  52.2464030  47.7697410 135.0780770  52.9112650
  31.2547380 134.1691500  56.3712000  30.5996220 133.9003140  55.7271700
  32.0925330 134.0595980  55.9213980  48.7603010 136.5003670  56.9846270
  49.1311840 135.7170990  56.5782240  49.4004940 137.1892770  56.8063570
  45.7436770 137.8840250  62.3976590  44.9296610 138.3137410  62.6602380
  46.1510970 138.4958660  61.7845640  47.8062210 135.9387940  49.2976860
  48.0811050 136.8466820  49.1696080  47.6172950 135.8750470  50.2338850
  44.2037820 128.9632790  50.5930490  44.6222700 128.7763770  49.7527150
  43.8973880 128.1111840  50.9033420  47.7027550 133.8756930  54.2906290
  47.3271150 133.1084860  53.8587580  46.9730670 134.2579630  54.7781220
  32.2923310 134.5544070  60.9115340  32.6596350 134.4671470  61.7911360
  31.7234130 133.7910620  60.8122200  47.0927170 133.0228450  63.9245810
  46.8613260 132.7941200  63.0243760  47.3531720 133.9428000  63.8790700
  31.8439310 131.4653160  64.8173760  30.9495360 131.4319920  65.1567470
  32.3836860 131.6639950  65.5825010  30.4685460 131.3790430  52.3137330
  29.5649540 131.6420630  52.1388990  30.9526080 131.6501600  51.5337290
  46.9778510 132.1014420  57.5913530  47.5015990 131.6077070  56.9603700
  47.5637930 132.2364780  58.3361100  47.1568230 132.1854290  61.1133080
  46.2070940 132.1517830  61.2278070  47.3381240 133.0954400  60.8782850
  33.0112670 130.4355970  50.2231710  33.7204370 130.0139190  49.7378990
  32.2952610 130.5031200  49.5915060  32.6586830 126.4895300  49.2634360
  33.3814960 127.0304240  49.5815580  32.9311350 126.2158720  48.3875900
  46.4678480 131.3587770  53.5305940  46.9637600 131.1258640  54.3154820
  46.2694550 130.5199610  53.1143580  32.3479020 125.7401490  59.1656980
  32.9955210 125.1898870  58.7252140  32.7680860 125.9944640  59.9872790
  47.8965640 129.9948720  56.0643620  47.7864920 129.8404760  57.0025890
  48.6573230 129.4669660  55.8219030  48.7855910 127.8256640  49.3049760
  49.7105220 127.6937820  49.0968050  48.7631700 127.9049460  50.2586210
  48.8594400 128.5967300  51.9306470  48.0645900 128.5312420  52.4599380
  49.0637680 129.5317940  51.9191820  45.8012820 142.6358850  55.9244860
  46.3971890 142.3143420  55.2479280  46.0590970 142.1630670  56.7158130
  32.1011020 125.8957160  61.9082300  31.7525840 126.3520980  62.6740480
  31.7698720 125.0014290  61.9904730  33.7075390 139.0676760  66.0735490
  33.6645020 138.6969670  66.9549950  33.8386400 140.0054330  66.2137310
  37.4081420 140.6236350  61.6745210  37.1672780 140.8910910  60.7875730
  38.3484060 140.7942080  61.7296070  42.2510400 126.7439100  65.0694010
  42.8650810 127.0618390  64.4075090  42.7959960 126.2587690  65.6889870
  48.6685580 142.6430730  62.4755850  48.1743860 143.0399600  61.7582980
  48.0598870 142.0179940  62.8693130  33.5463420 142.0139010  63.1933270
  32.9523740 141.8823710  63.9323310  33.5387260 141.1777150  62.7275370
  42.9918440 125.3071240  61.3963300  42.1178280 125.6406350  61.1936230
  42.8829190 124.8344420  62.2215170  43.8990420 127.5142110  62.7805020
  43.5703780 126.6993870  62.4006750  44.8472720 127.4711920  62.6570710
  46.3525030 143.2854150  59.7542590  45.8928000 144.0369960  59.3800610
  45.7237490 142.5660620  59.6957390  33.1775650 139.3797390  62.1441310
  32.4509710 138.7602680  62.0767260  33.2384800 139.7738000  61.2739390
  36.7820750 141.5942390  58.9290720  37.2985770 140.9829750  58.4038980
  37.4318130 142.0971170  59.4201730  39.5216250 142.4850880  59.7559700
  39.8094060 142.2305180  58.8792710  40.0339470 141.9328240  60.3465270
  40.7393260 126.2241080  60.3356210  39.9565050 126.6986580  60.6152970
  40.4456190 125.3195910  60.2269390  31.4605650 142.6971780  55.3538070
  31.2927690 142.0642460  56.0519960  30.5940160 142.9031180  55.0032260
  32.0833670 126.5288560  52.8569930  32.8413030 126.6417440  52.2833960
  31.6210840 127.3657760  52.8113360  38.6247480 128.6427830  55.8472240
  37.8121990 128.2684720  55.5068120  39.1289120 127.8872910  56.1493430
  33.0668350 141.3905010  52.7988210  32.5415970 141.7713040  52.0950170
  32.9912930 142.0155780  53.5197920  34.4558820 127.0552610  51.3971900
  34.9851580 126.2682410  51.2679850  35.0887140 127.7343800  51.6307430
  36.6496660 126.7927750  54.4517290  36.0199400 126.0915060  54.6187420
  36.1101800 127.5531880  54.2350450  39.5888610 143.4066980  67.1227900
  40.5155920 143.1711250  67.1663860  39.5739040 144.2338980  66.6413930
  47.8233670 142.9492550  54.1202150  47.9985860 142.2630290  53.4763070
  47.1255240 143.4739600  53.7278820  35.6661320 143.3387390  51.6737460
  36.3980140 143.0546670  51.1261350  35.9254990 143.1000670  52.5636840
  34.8276110 139.4552120  51.6783790  34.1984990 139.9237220  52.2269620
  34.9423940 138.6101340  52.1129980  46.1566170 142.6336840  66.9468940
  46.9491490 142.1386070  66.7394900  46.4499320 143.3126980  67.5544550
  42.2825830 133.5057780  37.8284990  42.2019880 132.5912390  37.5576700
  41.8690250 134.0024850  37.1224700  40.4143870 135.2836800  39.7094260
  39.6385970 134.8037240  39.9992830  41.0656800 134.6042450  39.5350420
  34.4309700 135.5956610  40.5870020  33.5994580 135.3405320  40.9866530
  35.0390680 135.6667380  41.3227940  44.4351300 139.6896990  38.4893390
  43.9732830 138.9184230  38.8180560  45.2476850 139.7163060  38.9945840
  34.4110960 139.6296700  40.7828040  34.7139000 138.7394440  40.6038260
  35.1554550 140.1866920  40.5550290  32.8401650 130.5558500  34.3712410
  31.9518350 130.8974470  34.2692290  33.1242840 130.3558820  33.4793240
  30.8034660 133.1564150  40.2552110  31.3750770 132.3886350  40.2555750
  30.8036200 133.4552910  39.3458720  40.6614610 141.9755000  38.1097380
  40.0426050 142.4312500  37.5391820  41.5166390 142.1306460  37.7087080
  39.8552860 137.9593990  39.7164420  39.7861140 137.0183930  39.5553550
  40.6172720 138.0495400  40.2886990  32.0459530 128.5648510  42.0421040
  31.8662370 127.6674260  42.3223800  31.6439610 129.1120380  42.7167990
  40.8858030 130.7664370  39.9433350  41.2622850 129.8936250  39.8307020
  40.7877540 131.1023070  39.0523790  35.0163040 129.1390000  35.4050790
  35.1229790 130.0393730  35.7119550  34.1055400 129.0907970  35.1145440
  44.6682150 128.2614810  36.8761690  45.4891770 127.7711380  36.9187170
  44.7016230 128.8512470  37.6293530  32.6646200 131.0609010  40.6503380
  33.3456310 131.3247380  41.2690780  32.3494250 130.2209880  40.9841390
  36.8570770 132.1076370  39.7375970  37.3648990 132.6057340  40.3780990
  37.3884010 131.3311570  39.5615330  48.9581700 130.2781560  43.4405320
  48.2533870 130.6663270  42.9220430  49.2239620 130.9731850  44.0426250
  35.1406870 126.7474930  44.0039390  35.1425310 127.2647320  43.1985290
  34.3111180 126.2705110  43.9809320  41.5277960 136.8594240  35.5029290
  40.9095230 137.3243690  34.9392010  42.0401210 137.5521720  35.9198800
  36.3909720 136.3870110  42.1812890  36.0579100 137.0139030  42.8233960
  36.5676400 136.9131990  41.4014560  44.9043630 130.2015190  39.6489230
  44.1999200 130.4900080  40.2292340  45.2655790 131.0115300  39.2888790
  34.8222200 128.4584890  42.0109840  35.1639010 129.3026940  41.7163710
  33.8838010 128.6068630  42.1275180  35.6028820 138.3550910  43.9962070
  36.2202820 139.0301990  43.7146520  34.7421940 138.7638890  43.9049570
  30.8961160 137.5450770  32.8768920  30.5189140 138.0337870  32.1453820
  31.1534230 138.2176050  33.5075450  46.5206410 139.8190320  41.9116710
  45.8369930 140.4889430  41.9033380  47.0600700 140.0170970  41.1461570
  47.9730550 129.6469980  40.0398440  47.0255460 129.6808960  40.1713870
  48.2980540 130.4608930  40.4247800  38.5050090 125.9467160  38.3354430
  38.8125070 125.3914050  37.6189930  37.5750790 126.0811620  38.1527420
  44.0565150 141.6634450  40.6261890  44.0692310 141.2596740  39.7584150
  43.5040370 142.4381740  40.5223320  45.3510570 138.3850670  35.7152060
  45.2406900 137.4425000  35.8401480  45.3478820 138.7466310  36.6014820
  43.4550590 136.5664290  41.9544500  43.8719380 136.3524400  41.1197960
  44.1790410 136.8237080  42.5253120  40.8930850 134.0115990  35.0714550
  39.9660130 133.9453370  35.3003020  41.0455670 134.9496120  34.9569790
  40.8799930 130.2832990  32.0681710  39.9403600 130.4446950  32.1534170
  41.1983190 131.0018670  31.5217700  47.4012690 134.9651510  42.0460740
  46.5731320 135.0344600  41.5710870  47.9963170 135.5505820  41.5776570
  44.9228140 135.5736290  35.5749800  44.3040560 135.2355840  34.9276100
  44.9052590 134.9296050  36.2828990  44.3654700 131.7520830  42.9915610
  43.9525880 132.5774540  43.2455600  43.6330650 131.1665870  42.7991970
  36.4987490 134.5380730  37.8534280  36.0944490 133.8257980  37.3580180
  36.5850610 134.1933970  38.7422320  36.9669190 138.2248290  40.0173490
  36.6697480 137.6193760  39.3381270  37.9169010 138.2625600  39.9062850
  35.2116110 131.3123940  41.6333320  35.7630700 131.4219280  40.8586570
  35.7259620 131.6861540  42.3488550  45.0554800 141.7980160  43.6796590
  44.5785360 142.6052350  43.4869200  44.3716590 141.1458490  43.8322800
  36.0587620 137.9629980  46.6681290  35.1616150 138.1869950  46.9154690
  36.0840490 138.0864920  45.7192690  43.0992840 134.8123100  32.5822550
  43.5386120 133.9745530  32.4360370  43.8121260 135.4452500  32.6686690
  34.8858840 134.8343300  45.2438660  34.7466610 135.7066100  45.6126060
  34.0040200 134.4916110  45.0986600  41.2088220 139.7519170  36.5503790
  41.6484130 140.4943500  36.1359180  41.1475110 139.9945740  37.4742750
  36.6839190 140.7765000  47.4523810  36.6554620 141.1807950  46.5852240
  36.5204160 139.8475360  47.2895410  46.6809980 126.0665910  30.8963590
  46.3682640 126.1592740  31.7962660  47.4422450 126.6446940  30.8461020
  33.1992120 133.4325710  35.3540930  33.0789720 134.1587800  34.7422200
  32.8893010 132.6628620  34.8768840  48.6354010 141.5592100  48.7487980
  49.1113730 142.0374990  49.4277060  49.2561170 141.4909590  48.0233480
  30.8377490 136.6040850  41.1609570  30.9157910 136.7389620  40.2165290
  31.4519170 135.8956740  41.3537690  32.0825120 138.3041040  37.5715750
  31.6753200 138.4455630  36.7169350  32.9738130 138.0201200  37.3686960
  48.0387260 138.7504950  45.9087990  48.1650320 138.5116830  44.9905170
  48.0808640 137.9189490  46.3810070  41.9004000 142.4532950  44.4782800
  42.4148670 142.3640960  45.2805230  41.0573080 142.7992650  44.7710710
  43.8758400 142.7388290  33.9066800  43.7159540 142.4491230  34.8048630
  43.7105110 141.9628420  33.3712030  36.3546780 142.5186820  35.6838420
  36.1789260 141.6022360  35.4706220  35.5002520 142.8774110  35.9236220
  43.5784530 140.2475850  32.4664800  42.8849690 140.2453140  31.8067080
  44.3207390 139.8235170  32.0358970  43.1434460 141.8738560  36.5413290
  43.5991410 141.0927940  36.8551910  43.4826980 142.5845380  37.0854470
  47.8911270 130.8037410  46.8737730  47.2755540 131.3117080  46.3453190
  47.5707690 129.9035740  46.8163670  30.8937010 137.6455020  43.7004030
  31.0568050 137.1760380  42.8823400  31.3589460 137.1378580  44.3652870
  35.6655780 126.7760780  38.7364600  35.2223930 127.5570320  38.4049120
  36.2240770 127.0990670  39.4435540  39.9525590 129.6429300  44.3399920
  39.4904960 129.8512320  45.1519860  39.5503700 128.8288650  44.0370590
  44.9530100 130.8638250  45.4696580  44.1023690 130.5644000  45.7905650
  44.7931890 131.1080260  44.5580400  42.0479810 132.3640000  47.5695370
  42.3733220 131.5303750  47.2297600  42.8360140 132.8868520  47.7173700
  38.7814600 126.3971480  33.6170430  38.1568780 126.3931350  34.3423740
  38.6944720 125.5302440  33.2206400  37.7031680 127.3208110  40.5954200
  38.0004010 128.2270940  40.5146220  38.2517240 126.8326890  39.9813770
  35.4570000 131.8994350  36.4645850  35.2310920 131.6831520  37.3692470
  34.6762530 132.3322810  36.1191820  42.6867760 131.9057720  35.0636500
  42.0876650 132.6293520  34.8800120  43.2347370 131.8434500  34.2812950
  37.8969210 132.7979930  47.1306120  37.8012810 131.8574660  46.9806520
  38.7401190 133.0195000  46.7354190  41.2932630 130.5421260  37.0939780
  41.6862200 130.8593460  36.2808470  41.6549480 129.6633140  37.2084300
  33.0279750 129.2093600  45.2839900  32.6343140 130.0568810  45.4912680
  32.3398150 128.5719970  45.4748540  39.6024800 129.2928570  48.3536640
  38.9123120 129.1000770  48.9882730  40.3457100 129.5763210  48.8860940
  30.3296800 127.1322060  39.3169980  30.0409850 127.7024920  40.0294960
  31.0742560 126.6526510  39.6801210  30.5167030 131.0742180  30.5272700
  30.4341700 132.0172940  30.6687690  30.1650090 130.9317090  29.6485050
  41.8787770 133.1327010  41.1890560  41.1468890 133.6413820  41.5380660
  41.4812110 132.3156990  40.8879340  38.3165160 129.8081210  39.5943050
  38.3201220 129.3671160  38.7447590  39.2116280 130.1298540  39.7014870
  34.1667540 129.6907700  38.5537260  33.8267590 130.1682930  39.3104310
  33.4044860 129.2372820  38.1938360  38.3785310 130.8093290  32.5849810
  38.4998130 130.7679770  33.5335630  37.9933820 131.6717440  32.4296540
  42.3413680 128.5860690  40.6013500  42.3586420 129.0369340  41.4455350
  42.0929260 127.6866330  40.8146940  37.3906810 133.1194430  31.9833110
  36.8223710 132.6712680  31.3569020  38.0995810 133.4787210  31.4498260
  45.7684430 125.9992870  46.4399880  46.0930200 125.2682530  46.9657860
  45.8040940 125.6806510  45.5380870  32.4675990 137.0206450  45.8599840
  32.0830780 136.3800120  46.4582800  32.7788180 137.7242570  46.4294570
  38.6173130 133.8682990  41.3408460  38.9843260 133.3941560  42.0869800
  38.4278190 134.7424560  41.6816800  31.4813620 128.6126680  37.4701930
  31.1960540 128.2482350  38.3080550  31.4192480 127.8807140  36.8565070
  36.4072500 132.9091630  43.6592670  36.1029570 133.7883610  43.8843030
  37.3618960 132.9691420  43.6950110  34.9354290 137.1152620  34.2559520
  34.1616550 136.5750240  34.0958240  35.6648920 136.5959230  33.9177280
  45.6942270 136.1117980  40.0485910  46.4141390 136.6073270  39.6582020
  45.4924090 135.4335870  39.4039780  41.1552210 127.5055940  34.1915300
  40.3416820 127.0069110  34.1160610  40.9614160 128.3454190  33.7751650
  41.0761070 136.1827040  45.9354910  41.0098380 135.2622710  45.6812500
  40.4466210 136.2802480  46.6499550  43.8700600 131.8775590  32.4877460
  44.7580220 132.1892820  32.3128800  43.8405690 131.0047840  32.0958040
  34.9791690 136.7833000  37.8938330  35.4970360 135.9801260  37.8395220
  34.5275710 136.7212140  38.7355160  39.8661190 138.0499280  33.1665630
  40.2076890 138.7941510  32.6708950  39.0373900 138.3630400  33.5290460
  32.4636230 133.7494370  44.8064030  32.1051170 134.4148220  45.3937370
  32.1690790 132.9177920  45.1776650  35.6649350 134.2078610  47.6903580
  35.3649490 134.3535790  46.7931400  36.4360590 133.6483900  47.5976970
  41.0077800 139.0047610  45.6858710  41.0222340 138.0728570  45.4677620
  40.3002900 139.0907370  46.3248480  46.1414870 133.1887430  31.9557320
  46.0578590 133.6201650  31.1053760  46.8609060 133.6485780  32.3884140
  47.2189010 135.6454950  45.0327290  46.4937200 136.2383730  44.8356680
  47.7464470 135.6378490  44.2340660  47.1702120 140.0429690  34.6839450
  46.5278280 139.3885310  34.9583170  46.7832780 140.4484780  33.9080120
  42.7488600 137.3715120  38.5311140  43.1012420 136.7743250  37.8712510
  41.8650930 137.0459350  38.7019390  38.8351880 138.1312810  35.9381550
  39.5223010 138.6782020  36.3189140  38.0484300 138.6753540  35.9731160
  30.9744280 133.7485630  31.4298630  31.8439130 134.0310430  31.7134550
  30.4834600 134.5621500  31.3147440  38.1379090 135.1358840  35.5506910
  38.5941870 135.9464090  35.7767100  37.7867300 134.8181980  36.3825400
  40.4411700 140.6465180  42.7799210  41.0853920 140.8524560  43.4572630
  40.8041140 139.8853580  42.3270060  34.0390870 125.4796490  36.0229430
  33.9105500 125.4714390  36.9714350  33.2152890 125.8179580  35.6720440
  41.7143780 138.6497530  41.4976660  42.3566010 137.9490690  41.6108830
  42.2393130 139.4295970  41.3173550  45.5599500 138.9346150  31.2215800
  45.3337080 138.2176590  31.8140440  45.1695700 138.6858590  30.3837550
  43.4881400 139.4492430  44.7012720  43.8237640 140.0359120  45.3790640
  42.5681740 139.3185140  44.9310510  31.3415530 142.9613010  31.9960260
  31.7013170 143.5602350  31.3417530  31.2007870 143.5072900  32.7695290
  31.0384800 127.2387610  45.4836130  30.3243320 127.4384530  46.0888740
  31.4579840 126.4627180  45.8550930  45.1415750 136.8518090  32.8829960
  44.8537450 137.3130780  33.6707840  45.9367920 136.3915860  33.1514180
  31.3257390 141.2267870  46.4702660  31.4348510 140.2862610  46.3298050
  30.6737950 141.4922620  45.8216390  39.3169980 139.4983760  47.8700780
  38.9966850 138.7793000  48.4146470  38.6428340 140.1738830  47.9436840
  37.3584150 140.3444210  32.8133930  37.3494250 141.0773900  32.1978440
  36.4382510 140.0975790  32.9060890  32.9590790 135.5659100  33.5580690
  32.3518740 136.3058000  33.5675990  33.4340140 135.6558460  32.7318890
  42.5323580 129.7309920  43.2337580  42.9004400 128.9105130  43.5617150
  41.6721780 129.7911810  43.6493230  45.8985610 128.6866860  34.0425140
  45.2698770 128.7912530  33.3283370  45.4037530 128.9063640  34.8319020
  40.3443750 140.4072450  31.4759120  40.4455730 140.2036440  30.5461100
  39.4445490 140.1530730  31.6806900  37.8669640 130.9652810  35.4583020
  37.1585790 131.4339150  35.8996630  38.1514120 130.3074820  36.0928210
  39.4925570 132.3849510  43.4575550  39.9910820 132.8595330  44.1227400
  39.6348520 131.4613030  43.6645580  41.8985070 127.6903470  36.8978810
  41.7752850 127.7089600  35.9488320  42.8469630 127.7382410  37.0177210
  38.9861860 142.9258770  36.1706790  39.2403360 142.8880160  35.2486160
  38.0374340 142.7992100  36.1635040  36.0704660 129.2737890  32.8333730
  36.9195190 129.7108040  32.7673920  35.7035930 129.5858150  33.6605790
  46.6992430 128.6017470  44.3003940  46.1966030 129.3422870  44.6397750
  47.5149090 128.9901470  43.9840730  44.9914440 133.8450650  37.7465300
  44.0504580 133.8600880  37.9212990  45.3058510 133.0586610  38.1925600
  34.9696080 135.5270250  31.3069260  35.7359350 135.4151610  31.8694690
  35.0470770 134.8308220  30.6546030  33.6642840 132.9595320  31.9902150
  33.7446430 132.0122830  32.1019550  34.5562590 133.2902200  32.0962810
  46.9940020 141.0159500  39.4219560  47.1187440 141.8390670  39.8943370
  47.8605580 140.8050230  39.0743710  34.4657550 143.1090710  39.0936690
  35.2020030 142.5606170  39.3645260  34.8498470 143.9746720  38.9542680
  31.3503030 139.1764280  34.9678200  30.4242810 139.4185420  34.9583610
  31.8159460 140.0038540  34.8462950  33.4715830 142.2936780  48.2822270
  34.2728560 142.6148830  48.6957670  32.9567650 141.9332360  49.0042180
  37.5759860 142.2821020  30.9162260  38.3688470 142.5709850  30.4644050
  37.0564210 141.8513190  30.2374740  42.3080460 138.4016650  48.2297680
  41.7018620 138.4248250  47.4893430  42.0034570 137.6699690  48.7664930
  43.7380830 142.1296940  46.8407090  44.6902580 142.0454960  46.7907330
  43.5909050 142.7938650  47.5140880  46.6290030 141.5091150  32.3399000
  46.3431540 141.0956290  31.5253180  46.4309580 142.4378860  32.2199520
  31.1913640 134.7810240  47.2258320  31.6952660 134.2017520  47.7974550
  30.4521060 135.0650470  47.7634690  38.0937260 137.5024430  30.7804610
  37.9887900 136.8876780  31.5065990  37.9261480 136.9790320  29.9967620
  38.2451580 136.1881230  46.7593840  37.4797250 136.7566230  46.6748510
  38.4267540 135.8957440  45.8662070  41.3339990 136.5644460  31.3846600
  40.7850090 137.0113760  32.0289340  41.9559250 136.0593710  31.9084270
  45.3874930 137.9186560  47.3168860  46.1284400 138.2562320  46.8136320
  44.6247610 138.0878620  46.7638630  33.2236720 132.9239830  48.1208390
  33.2642060 132.6253700  49.0293620  34.0782220 133.3247440  47.9615910
  37.0015110 135.5235380  33.2811900  37.4231530 135.3575250  34.1243290
  37.1265950 134.7135610  32.7867040  35.1642530 131.5031930  46.0882880
  34.6338990 131.0122880  45.4606220  35.8330600 131.9316130  45.5540810
  39.5142750 134.5472990  30.5289000  40.0348410 133.8322010  30.1630150
  40.1611150 135.1858860  30.8289510  44.0620590 135.9701390  45.8524070
  44.4761610 136.1246470  46.7014490  43.1271590 136.0956610  46.0149850
  44.5342760 133.3097550  47.8563220  45.1163530 132.5549870  47.7683700
  44.7104530 133.8404990  47.0794700  35.6514830 128.4694300  46.1680170
  35.5571700 127.8515050  45.4431040  35.0712220 129.1960590  45.9410080
  38.4176270 127.0267540  43.2007560  37.9693570 127.0491800  42.3553110
  37.7841470 126.6286560  43.7977860  38.8235820 135.9221870  43.8220000
  39.2423930 136.7654600  43.6496240  37.9044450 136.0593910  43.5926780
  41.1599720 133.6538050  45.2057840  41.2795930 133.0579190  45.9452680
  42.0193720 133.6907740  44.7859140  43.4987620 134.2075240  43.7820350
  42.9722840 134.7317860  43.1785490  43.8418960 134.8402630  44.4130080
  35.8974010 131.5968610  30.2270060  35.6963070 130.7335970  30.5883400
  35.7266060 131.5101970  29.2891660  36.6743240 142.2274880  44.9377730
  36.1364330 142.9520940  44.6186430  36.9277200 141.7505220  44.1475070
  37.9268490 130.1959400  46.4633660  38.5168180 129.8875250  47.1511480
  37.1088730 129.7239150  46.6193560  42.7461920 129.8125210  46.6966680
  42.0577440 129.1506750  46.6316670  43.4667940 129.3663480  47.1415140
  43.3762320 126.4076840  32.7556940  43.6564610 125.5644740  33.1116360
  42.6028050 126.6399950  33.2695690  34.6956810 128.6969230  30.2147940
  34.9982710 128.7036660  29.3067090  35.4351400 128.3467090  30.7115600
  39.5305450 143.4626090  45.1964380  39.4564150 144.3661230  45.5036750
  38.6284290 143.1437990  45.1686450  37.9141740 127.6403850  31.2004140
  37.5663740 126.9627840  30.6206590  38.1154510 127.1793360  32.0147530
  40.0790780 142.6284600  32.8190740  40.9741570 142.9669570  32.8409500
  40.1108410 141.9064010  32.1915020  33.7186940 138.0011650  31.0477740
  34.1561810 138.5441320  31.7035320  34.2034670 137.1758600  31.0574080
  30.9332740 140.7900680  38.4998000  31.2635750 139.9221740  38.2676640
  31.3623740 140.9959200  39.3302960  35.5294660 139.1209690  36.1599970
  35.2290200 138.9974660  37.0603880  35.4232150 138.2618280  35.7515700
  31.4222950 141.6571270  41.2379630  30.9853940 141.8372070  42.0703780
  31.9900630 142.4145890  41.0961350  47.0585130 141.1588270  45.5256940
  46.4587120 141.2180830  44.7820860  47.1879030 140.2193250  45.6553790
  48.2986580 138.9006090  30.8626650  47.4679540 138.9682740  31.3333880
  48.4758410 139.7910210  30.5593510  47.7543040 135.6453570  33.3660850
  48.5161950 136.2150220  33.4720540  47.7697410 135.0780770  34.1369160
  31.2547380 134.1691500  37.5968510  30.5996220 133.9003140  36.9528210
  32.0925330 134.0595980  37.1470490  48.7603010 136.5003670  38.2102780
  49.1311840 135.7170990  37.8038750  49.4004940 137.1892770  38.0320080
  45.7436770 137.8840250  43.6233100  44.9296610 138.3137410  43.8858890
  46.1510970 138.4958660  43.0102150  47.8062210 135.9387940  30.5233370
  48.0811050 136.8466820  30.3952590  47.6172950 135.8750470  31.4595360
  44.2037820 128.9632790  31.8187000  44.6222700 128.7763770  30.9783660
  43.8973880 128.1111840  32.1289930  47.7027550 133.8756930  35.5162800
  47.3271150 133.1084860  35.0844090  46.9730670 134.2579630  36.0037730
  32.2923310 134.5544070  42.1371850  32.6596350 134.4671470  43.0167870
  31.7234130 133.7910620  42.0378710  47.0927170 133.0228450  45.1502320
  46.8613260 132.7941200  44.2500270  47.3531720 133.9428000  45.1047210
  31.8439310 131.4653160  46.0430270  30.9495360 131.4319920  46.3823980
  32.3836860 131.6639950  46.8081520  45.5315240 128.2484880  47.9282020
  46.4085420 128.2568280  48.3116020  45.5436080 127.5115720  47.3174370
  30.4685460 131.3790430  33.5393840  29.5649540 131.6420630  33.3645500
  30.9526080 131.6501600  32.7593800  46.9778510 132.1014420  38.8170040
  47.5015990 131.6077070  38.1860210  47.5637930 132.2364780  39.5617610
  47.1568230 132.1854290  42.3389590  46.2070940 132.1517830  42.4534580
  47.3381240 133.0954400  42.1039360  33.0112670 130.4355970  31.4488220
  33.7204370 130.0139190  30.9635500  32.2952610 130.5031200  30.8171570
  32.6586830 126.4895300  30.4890870  33.3814960 127.0304240  30.8072090
  32.9311350 126.2158720  29.6132410  46.4678480 131.3587770  34.7562450
  46.9637600 131.1258640  35.5411330  46.2694550 130.5199610  34.3400090
  32.3479020 125.7401490  40.3913490  32.9955210 125.1898870  39.9508650
  32.7680860 125.9944640  41.2129300  47.8965640 129.9948720  37.2900130
  47.7864920 129.8404760  38.2282400  48.6573230 129.4669660  37.0475540
  48.7855910 127.8256640  30.5306270  49.7105220 127.6937820  30.3224560
  48.7631700 127.9049460  31.4842720  48.8594400 128.5967300  33.1562980
  48.0645900 128.5312420  33.6855890  49.0637680 129.5317940  33.1448330
  45.8012820 142.6358850  37.1501370  46.3971890 142.3143420  36.4735790
  46.0590970 142.1630670  37.9414640  32.1011020 125.8957160  43.1338810
  31.7525840 126.3520980  43.8996990  31.7698720 125.0014290  43.2161240
  33.7075390 139.0676760  47.2992000  33.6645020 138.6969670  48.1806460
  33.8386400 140.0054330  47.4393820  37.4081420 140.6236350  42.9001720
  37.1672780 140.8910910  42.0132240  38.3484060 140.7942080  42.9552580
  39.6135840 127.0869040  46.6558230  39.5524730 127.6790870  47.4053640
  40.5536220 126.9795000  46.5108490  42.2510400 126.7439100  46.2950520
  42.8650810 127.0618390  45.6331600  42.7959960 126.2587690  46.9146380
  48.6685580 142.6430730  43.7012360  48.1743860 143.0399600  42.9839490
  48.0598870 142.0179940  44.0949640  32.7731660 125.4233360  46.4089580
  33.3214650 125.2421410  45.6455690  32.8386970 124.6327470  46.9445890
  33.5463420 142.0139010  44.4189780  32.9523740 141.8823710  45.1579820
  33.5387260 141.1777150  43.9531880  42.9918440 125.3071240  42.6219810
  42.1178280 125.6406350  42.4192740  42.8829190 124.8344420  43.4471680
  43.8990420 127.5142110  44.0061530  43.5703780 126.6993870  43.6263260
  44.8472720 127.4711920  43.8827220  46.3525030 143.2854150  40.9799100
  45.8928000 144.0369960  40.6057120  45.7237490 142.5660620  40.9213900
  33.1775650 139.3797390  43.3697820  32.4509710 138.7602680  43.3023770
  33.2384800 139.7738000  42.4995900  36.7820750 141.5942390  40.1547230
  37.2985770 140.9829750  39.6295490  37.4318130 142.0971170  40.6458240
  39.5216250 142.4850880  40.9816210  39.8094060 142.2305180  40.1049220
  40.0339470 141.9328240  41.5721780  40.7393260 126.2241080  41.5612720
  39.9565050 126.6986580  41.8409480  40.4456190 125.3195910  41.4525900
  45.2914330 126.9264180  39.6061810  45.7322420 126.8709280  38.7583410
  45.0221920 127.8422190  39.6771990  47.1552900 126.5579420  37.6170630
  47.0941300 125.6140640  37.4701650  47.9344930 126.6659510  38.1624090
  31.4605650 142.6971780  36.5794580  31.2927690 142.0642460  37.2776470
  30.5940160 142.9031180  36.2288770  32.0833670 126.5288560  34.0826440
  32.8413030 126.6417440  33.5090470  31.6210840 127.3657760  34.0369870
  38.6247480 128.6427830  37.0728750  37.8121990 128.2684720  36.7324630
  39.1289120 127.8872910  37.3749940  43.1272460 125.3070280  38.3111820
  43.7301830 125.8790490  38.7860340  42.3865450 125.8709720  38.0885720
  46.2707060 125.7091840  33.5852100  46.4657690 126.6075290  33.8519530
  45.4836930 125.4778920  34.0785050  33.0668350 141.3905010  34.0244720
  32.5415970 141.7713040  33.3206680  32.9912930 142.0155780  34.7454430
  34.4558820 127.0552610  32.6228410  34.9851580 126.2682410  32.4936360
  35.0887140 127.7343800  32.8563940  36.6496660 126.7927750  35.6773800
  36.0199400 126.0915060  35.8443930  36.1101800 127.5531880  35.4606960
  39.5888610 143.4066980  48.3484410  40.5155920 143.1711250  48.3920370
  39.5739040 144.2338980  47.8670440  47.8233670 142.9492550  35.3458660
  47.9985860 142.2630290  34.7019580  47.1255240 143.4739600  34.9535330
  36.7752220 126.0711730  48.1126290  36.4936490 126.5745330  47.3487110
  37.1571920 125.2733480  47.7468420  35.6661320 143.3387390  32.8993970
  36.3980140 143.0546670  32.3517860  35.9254990 143.1000670  33.7893350
  34.8276110 139.4552120  32.9040300  34.1984990 139.9237220  33.4526130
  34.9423940 138.6101340  33.3386490  43.3767680 125.4865310  48.6906760
  43.2633130 125.8059920  49.5858280  44.1937420 125.8877820  48.3944040
  46.1566170 142.6336840  48.1725450  46.9491490 142.1386070  47.9651410
  46.4499320 143.3126980  48.7801060  42.2825830 133.5057780  19.0541500
  42.2019880 132.5912390  18.7833210  41.8690250 134.0024850  18.3481210
  40.4143870 135.2836800  20.9350770  39.6385970 134.8037240  21.2249340
  41.0656800 134.6042450  20.7606930  34.4309700 135.5956610  21.8126530
  33.5994580 135.3405320  22.2123040  35.0390680 135.6667380  22.5484450
  44.4351300 139.6896990  19.7149900  43.9732830 138.9184230  20.0437070
  45.2476850 139.7163060  20.2202350  34.4110960 139.6296700  22.0084550
  34.7139000 138.7394440  21.8294770  35.1554550 140.1866920  21.7806800
  32.8401650 130.5558500  15.5968920  31.9518350 130.8974470  15.4948800
  33.1242840 130.3558820  14.7049750  30.8034660 133.1564150  21.4808620
  31.3750770 132.3886350  21.4812260  30.8036200 133.4552910  20.5715230
  40.6614610 141.9755000  19.3353890  40.0426050 142.4312500  18.7648330
  41.5166390 142.1306460  18.9343590  39.8552860 137.9593990  20.9420930
  39.7861140 137.0183930  20.7810060  40.6172720 138.0495400  21.5143500
  32.0459530 128.5648510  23.2677550  31.8662370 127.6674260  23.5480310
  31.6439610 129.1120380  23.9424500  40.8858030 130.7664370  21.1689860
  41.2622850 129.8936250  21.0563530  40.7877540 131.1023070  20.2780300
  35.0163040 129.1390000  16.6307300  35.1229790 130.0393730  16.9376060
  34.1055400 129.0907970  16.3401950  44.6682150 128.2614810  18.1018200
  45.4891770 127.7711380  18.1443680  44.7016230 128.8512470  18.8550040
  32.6646200 131.0609010  21.8759890  33.3456310 131.3247380  22.4947290
  32.3494250 130.2209880  22.2097900  36.8570770 132.1076370  20.9632480
  37.3648990 132.6057340  21.6037500  37.3884010 131.3311570  20.7871840
  48.9581700 130.2781560  24.6661830  48.2533870 130.6663270  24.1476940
  49.2239620 130.9731850  25.2682760  35.1406870 126.7474930  25.2295900
  35.1425310 127.2647320  24.4241800  34.3111180 126.2705110  25.2065830
  41.5277960 136.8594240  16.7285800  40.9095230 137.3243690  16.1648520
  42.0401210 137.5521720  17.1455310  36.3909720 136.3870110  23.4069400
  36.0579100 137.0139030  24.0490470  36.5676400 136.9131990  22.6271070
  44.9043630 130.2015190  20.8745740  44.1999200 130.4900080  21.4548850
  45.2655790 131.0115300  20.5145300  34.8222200 128.4584890  23.2366350
  35.1639010 129.3026940  22.9420220  33.8838010 128.6068630  23.3531690
  35.6028820 138.3550910  25.2218580  36.2202820 139.0301990  24.9403030
  34.7421940 138.7638890  25.1306080  30.8961160 137.5450770  14.1025430
  30.5189140 138.0337870  13.3710330  31.1534230 138.2176050  14.7331960
  46.5206410 139.8190320  23.1373220  45.8369930 140.4889430  23.1289890
  47.0600700 140.0170970  22.3718080  47.9730550 129.6469980  21.2654950
  47.0255460 129.6808960  21.3970380  48.2980540 130.4608930  21.6504310
  38.5050090 125.9467160  19.5610940  38.8125070 125.3914050  18.8446440
  37.5750790 126.0811620  19.3783930  44.0565150 141.6634450  21.8518400
  44.0692310 141.2596740  20.9840660  43.5040370 142.4381740  21.7479830
  45.3510570 138.3850670  16.9408570  45.2406900 137.4425000  17.0657990
  45.3478820 138.7466310  17.8271330  43.4550590 136.5664290  23.1801010
  43.8719380 136.3524400  22.3454470  44.1790410 136.8237080  23.7509630
  40.8930850 134.0115990  16.2971060  39.9660130 133.9453370  16.5259530
  41.0455670 134.9496120  16.1826300  40.8799930 130.2832990  13.2938220
  39.9403600 130.4446950  13.3790680  41.1983190 131.0018670  12.7474210
  47.4012690 134.9651510  23.2717250  46.5731320 135.0344600  22.7967380
  47.9963170 135.5505820  22.8033080  44.9228140 135.5736290  16.8006310
  44.3040560 135.2355840  16.1532610  44.9052590 134.9296050  17.5085500
  44.3654700 131.7520830  24.2172120  43.9525880 132.5774540  24.4712110
  43.6330650 131.1665870  24.0248480  36.4987490 134.5380730  19.0790790
  36.0944490 133.8257980  18.5836690  36.5850610 134.1933970  19.9678830
  36.9669190 138.2248290  21.2430000  36.6697480 137.6193760  20.5637780
  37.9169010 138.2625600  21.1319360  35.2116110 131.3123940  22.8589830
  35.7630700 131.4219280  22.0843080  35.7259620 131.6861540  23.5745060
  45.0554800 141.7980160  24.9053100  44.5785360 142.6052350  24.7125710
  44.3716590 141.1458490  25.0579310  36.0587620 137.9629980  27.8937800
  35.1616150 138.1869950  28.1411200  36.0840490 138.0864920  26.9449200
  43.0992840 134.8123100  13.8079060  43.5386120 133.9745530  13.6616880
  43.8121260 135.4452500  13.8943200  34.8858840 134.8343300  26.4695170
  34.7466610 135.7066100  26.8382570  34.0040200 134.4916110  26.3243110
  41.2088220 139.7519170  17.7760300  41.6484130 140.4943500  17.3615690
  41.1475110 139.9945740  18.6999260  36.6839190 140.7765000  28.6780320
  36.6554620 141.1807950  27.8108750  36.5204160 139.8475360  28.5151920
  46.6809980 126.0665910  12.1220100  46.3682640 126.1592740  13.0219170
  47.4422450 126.6446940  12.0717530  33.1992120 133.4325710  16.5797440
  33.0789720 134.1587800  15.9678710  32.8893010 132.6628620  16.1025350
  48.6354010 141.5592100  29.9744490  49.1113730 142.0374990  30.6533570
  49.2561170 141.4909590  29.2489990  30.8377490 136.6040850  22.3866080
  30.9157910 136.7389620  21.4421800  31.4519170 135.8956740  22.5794200
  32.0825120 138.3041040  18.7972260  31.6753200 138.4455630  17.9425860
  32.9738130 138.0201200  18.5943470  48.0387260 138.7504950  27.1344500
  48.1650320 138.5116830  26.2161680  48.0808640 137.9189490  27.6066580
  41.9004000 142.4532950  25.7039310  42.4148670 142.3640960  26.5061740
  41.0573080 142.7992650  25.9967220  43.8758400 142.7388290  15.1323310
  43.7159540 142.4491230  16.0305140  43.7105110 141.9628420  14.5968540
  36.3546780 142.5186820  16.9094930  36.1789260 141.6022360  16.6962730
  35.5002520 142.8774110  17.1492730  43.5784530 140.2475850  13.6921310
  42.8849690 140.2453140  13.0323590  44.3207390 139.8235170  13.2615480
  43.1434460 141.8738560  17.7669800  43.5991410 141.0927940  18.0808420
  43.4826980 142.5845380  18.3110980  47.8911270 130.8037410  28.0994240
  47.2755540 131.3117080  27.5709700  47.5707690 129.9035740  28.0420180
  30.8937010 137.6455020  24.9260540  31.0568050 137.1760380  24.1079910
  31.3589460 137.1378580  25.5909380  35.6655780 126.7760780  19.9621110
  35.2223930 127.5570320  19.6305630  36.2240770 127.0990670  20.6692050
  39.9525590 129.6429300  25.5656430  39.4904960 129.8512320  26.3776370
  39.5503700 128.8288650  25.2627100  44.9530100 130.8638250  26.6953090
  44.1023690 130.5644000  27.0162160  44.7931890 131.1080260  25.7836910
  42.0479810 132.3640000  28.7951880  42.3733220 131.5303750  28.4554110
  42.8360140 132.8868520  28.9430210  38.7814600 126.3971480  14.8426940
  38.1568780 126.3931350  15.5680250  38.6944720 125.5302440  14.4462910
  37.7031680 127.3208110  21.8210710  38.0004010 128.2270940  21.7402730
  38.2517240 126.8326890  21.2070280  35.4570000 131.8994350  17.6902360
  35.2310920 131.6831520  18.5948980  34.6762530 132.3322810  17.3448330
  42.6867760 131.9057720  16.2893010  42.0876650 132.6293520  16.1056630
  43.2347370 131.8434500  15.5069460  37.8969210 132.7979930  28.3562630
  37.8012810 131.8574660  28.2063030  38.7401190 133.0195000  27.9610700
  41.2932630 130.5421260  18.3196290  41.6862200 130.8593460  17.5064980
  41.6549480 129.6633140  18.4340810  33.0279750 129.2093600  26.5096410
  32.6343140 130.0568810  26.7169190  32.3398150 128.5719970  26.7005050
  39.6024800 129.2928570  29.5793150  38.9123120 129.1000770  30.2139240
  40.3457100 129.5763210  30.1117450  30.3296800 127.1322060  20.5426490
  30.0409850 127.7024920  21.2551470  31.0742560 126.6526510  20.9057720
  30.5167030 131.0742180  11.7529210  30.4341700 132.0172940  11.8944200
  30.1650090 130.9317090  10.8741560  41.8787770 133.1327010  22.4147070
  41.1468890 133.6413820  22.7637170  41.4812110 132.3156990  22.1135850
  38.3165160 129.8081210  20.8199560  38.3201220 129.3671160  19.9704100
  39.2116280 130.1298540  20.9271380  34.1667540 129.6907700  19.7793770
  33.8267590 130.1682930  20.5360820  33.4044860 129.2372820  19.4194870
  38.3785310 130.8093290  13.8106320  38.4998130 130.7679770  14.7592140
  37.9933820 131.6717440  13.6553050  42.3413680 128.5860690  21.8270010
  42.3586420 129.0369340  22.6711860  42.0929260 127.6866330  22.0403450
  37.3906810 133.1194430  13.2089620  36.8223710 132.6712680  12.5825530
  38.0995810 133.4787210  12.6754770  45.7684430 125.9992870  27.6656390
  46.0930200 125.2682530  28.1914370  45.8040940 125.6806510  26.7637380
  32.4675990 137.0206450  27.0856350  32.0830780 136.3800120  27.6839310
  32.7788180 137.7242570  27.6551080  38.6173130 133.8682990  22.5664970
  38.9843260 133.3941560  23.3126310  38.4278190 134.7424560  22.9073310
  31.4813620 128.6126680  18.6958440  31.1960540 128.2482350  19.5337060
  31.4192480 127.8807140  18.0821580  36.4072500 132.9091630  24.8849180
  36.1029570 133.7883610  25.1099540  37.3618960 132.9691420  24.9206620
  34.9354290 137.1152620  15.4816030  34.1616550 136.5750240  15.3214750
  35.6648920 136.5959230  15.1433790  45.6942270 136.1117980  21.2742420
  46.4141390 136.6073270  20.8838530  45.4924090 135.4335870  20.6296290
  41.1552210 127.5055940  15.4171810  40.3416820 127.0069110  15.3417120
  40.9614160 128.3454190  15.0008160  41.0761070 136.1827040  27.1611420
  41.0098380 135.2622710  26.9069010  40.4466210 136.2802480  27.8756060
  43.8700600 131.8775590  13.7133970  44.7580220 132.1892820  13.5385310
  43.8405690 131.0047840  13.3214550  34.9791690 136.7833000  19.1194840
  35.4970360 135.9801260  19.0651730  34.5275710 136.7212140  19.9611670
  39.8661190 138.0499280  14.3922140  40.2076890 138.7941510  13.8965460
  39.0373900 138.3630400  14.7546970  32.4636230 133.7494370  26.0320540
  32.1051170 134.4148220  26.6193880  32.1690790 132.9177920  26.4033160
  35.6649350 134.2078610  28.9160090  35.3649490 134.3535790  28.0187910
  36.4360590 133.6483900  28.8233480  41.0077800 139.0047610  26.9115220
  41.0222340 138.0728570  26.6934130  40.3002900 139.0907370  27.5504990
  46.1414870 133.1887430  13.1813830  46.0578590 133.6201650  12.3310270
  46.8609060 133.6485780  13.6140650  47.2189010 135.6454950  26.2583800
  46.4937200 136.2383730  26.0613190  47.7464470 135.6378490  25.4597170
  47.1702120 140.0429690  15.9095960  46.5278280 139.3885310  16.1839680
  46.7832780 140.4484780  15.1336630  42.7488600 137.3715120  19.7567650
  43.1012420 136.7743250  19.0969020  41.8650930 137.0459350  19.9275900
  38.8351880 138.1312810  17.1638060  39.5223010 138.6782020  17.5445650
  38.0484300 138.6753540  17.1987670  30.9744280 133.7485630  12.6555140
  31.8439130 134.0310430  12.9391060  30.4834600 134.5621500  12.5403950
  38.1379090 135.1358840  16.7763420  38.5941870 135.9464090  17.0023610
  37.7867300 134.8181980  17.6081910  40.4411700 140.6465180  24.0055720
  41.0853920 140.8524560  24.6829140  40.8041140 139.8853580  23.5526570
  34.0390870 125.4796490  17.2485940  33.9105500 125.4714390  18.1970860
  33.2152890 125.8179580  16.8976950  41.7143780 138.6497530  22.7233170
  42.3566010 137.9490690  22.8365340  42.2393130 139.4295970  22.5430060
  45.5599500 138.9346150  12.4472310  45.3337080 138.2176590  13.0396950
  45.1695700 138.6858590  11.6094060  43.4881400 139.4492430  25.9269230
  43.8237640 140.0359120  26.6047150  42.5681740 139.3185140  26.1567020
  31.3415530 142.9613010  13.2216770  31.7013170 143.5602350  12.5674040
  31.2007870 143.5072900  13.9951800  31.0384800 127.2387610  26.7092640
  30.3243320 127.4384530  27.3145250  31.4579840 126.4627180  27.0807440
  45.1415750 136.8518090  14.1086470  44.8537450 137.3130780  14.8964350
  45.9367920 136.3915860  14.3770690  31.3257390 141.2267870  27.6959170
  31.4348510 140.2862610  27.5554560  30.6737950 141.4922620  27.0472900
  39.3169980 139.4983760  29.0957290  38.9966850 138.7793000  29.6402980
  38.6428340 140.1738830  29.1693350  37.3584150 140.3444210  14.0390440
  37.3494250 141.0773900  13.4234950  36.4382510 140.0975790  14.1317400
  32.9590790 135.5659100  14.7837200  32.3518740 136.3058000  14.7932500
  33.4340140 135.6558460  13.9575400  42.5323580 129.7309920  24.4594090
  42.9004400 128.9105130  24.7873660  41.6721780 129.7911810  24.8749740
  45.8985610 128.6866860  15.2681650  45.2698770 128.7912530  14.5539880
  45.4037530 128.9063640  16.0575530  40.3443750 140.4072450  12.7015630
  40.4455730 140.2036440  11.7717610  39.4445490 140.1530730  12.9063410
  37.8669640 130.9652810  16.6839530  37.1585790 131.4339150  17.1253140
  38.1514120 130.3074820  17.3184720  39.4925570 132.3849510  24.6832060
  39.9910820 132.8595330  25.3483910  39.6348520 131.4613030  24.8902090
  41.8985070 127.6903470  18.1235320  41.7752850 127.7089600  17.1744830
  42.8469630 127.7382410  18.2433720  38.9861860 142.9258770  17.3963300
  39.2403360 142.8880160  16.4742670  38.0374340 142.7992100  17.3891550
  36.0704660 129.2737890  14.0590240  36.9195190 129.7108040  13.9930430
  35.7035930 129.5858150  14.8862300  46.6992430 128.6017470  25.5260450
  46.1966030 129.3422870  25.8654260  47.5149090 128.9901470  25.2097240
  44.9914440 133.8450650  18.9721810  44.0504580 133.8600880  19.1469500
  45.3058510 133.0586610  19.4182110  34.9696080 135.5270250  12.5325770
  35.7359350 135.4151610  13.0951200  35.0470770 134.8308220  11.8802540
  33.6642840 132.9595320  13.2158660  33.7446430 132.0122830  13.3276060
  34.5562590 133.2902200  13.3219320  46.9940020 141.0159500  20.6476070
  47.1187440 141.8390670  21.1199880  47.8605580 140.8050230  20.3000220
  34.4657550 143.1090710  20.3193200  35.2020030 142.5606170  20.5901770
  34.8498470 143.9746720  20.1799190  31.3503030 139.1764280  16.1934710
  30.4242810 139.4185420  16.1840120  31.8159460 140.0038540  16.0719460
  33.4715830 142.2936780  29.5078780  34.2728560 142.6148830  29.9214180
  32.9567650 141.9332360  30.2298690  37.5759860 142.2821020  12.1418770
  38.3688470 142.5709850  11.6900560  37.0564210 141.8513190  11.4631250
  42.3080460 138.4016650  29.4554190  41.7018620 138.4248250  28.7149940
  42.0034570 137.6699690  29.9921440  43.7380830 142.1296940  28.0663600
  44.6902580 142.0454960  28.0163840  43.5909050 142.7938650  28.7397390
  46.6290030 141.5091150  13.5655510  46.3431540 141.0956290  12.7509690
  46.4309580 142.4378860  13.4456030  31.1913640 134.7810240  28.4514830
  31.6952660 134.2017520  29.0231060  30.4521060 135.0650470  28.9891200
  38.0937260 137.5024430  12.0061120  37.9887900 136.8876780  12.7322500
  37.9261480 136.9790320  11.2224130  38.2451580 136.1881230  27.9850350
  37.4797250 136.7566230  27.9005020  38.4267540 135.8957440  27.0918580
  41.3339990 136.5644460  12.6103110  40.7850090 137.0113760  13.2545850
  41.9559250 136.0593710  13.1340780  45.3874930 137.9186560  28.5425370
  46.1284400 138.2562320  28.0392830  44.6247610 138.0878620  27.9895140
  33.2236720 132.9239830  29.3464900  33.2642060 132.6253700  30.2550130
  34.0782220 133.3247440  29.1872420  37.0015110 135.5235380  14.5068410
  37.4231530 135.3575250  15.3499800  37.1265950 134.7135610  14.0123550
  35.1642530 131.5031930  27.3139390  34.6338990 131.0122880  26.6862730
  35.8330600 131.9316130  26.7797320  39.5142750 134.5472990  11.7545510
  40.0348410 133.8322010  11.3886660  40.1611150 135.1858860  12.0546020
  44.0620590 135.9701390  27.0780580  44.4761610 136.1246470  27.9271000
  43.1271590 136.0956610  27.2406360  44.5342760 133.3097550  29.0819730
  45.1163530 132.5549870  28.9940210  44.7104530 133.8404990  28.3051210
  35.6514830 128.4694300  27.3936680  35.5571700 127.8515050  26.6687550
  35.0712220 129.1960590  27.1666590  38.4176270 127.0267540  24.4264070
  37.9693570 127.0491800  23.5809620  37.7841470 126.6286560  25.0234370
  38.8235820 135.9221870  25.0476510  39.2423930 136.7654600  24.8752750
  37.9044450 136.0593910  24.8183290  41.1599720 133.6538050  26.4314350
  41.2795930 133.0579190  27.1709190  42.0193720 133.6907740  26.0115650
  43.4987620 134.2075240  25.0076860  42.9722840 134.7317860  24.4042000
  43.8418960 134.8402630  25.6386590  35.8974010 131.5968610  11.4526570
  35.6963070 130.7335970  11.8139910  35.7266060 131.5101970  10.5148170
  36.6743240 142.2274880  26.1634240  36.1364330 142.9520940  25.8442940
  36.9277200 141.7505220  25.3731580  37.9268490 130.1959400  27.6890170
  38.5168180 129.8875250  28.3767990  37.1088730 129.7239150  27.8450070
  42.7461920 129.8125210  27.9223190  42.0577440 129.1506750  27.8573180
  43.4667940 129.3663480  28.3671650  43.3762320 126.4076840  13.9813450
  43.6564610 125.5644740  14.3372870  42.6028050 126.6399950  14.4952200
  34.6956810 128.6969230  11.4404450  34.9982710 128.7036660  10.5323600
  35.4351400 128.3467090  11.9372110  39.5305450 143.4626090  26.4220890
  39.4564150 144.3661230  26.7293260  38.6284290 143.1437990  26.3942960
  37.9141740 127.6403850  12.4260650  37.5663740 126.9627840  11.8463100
  38.1154510 127.1793360  13.2404040  40.0790780 142.6284600  14.0447250
  40.9741570 142.9669570  14.0666010  40.1108410 141.9064010  13.4171530
  33.7186940 138.0011650  12.2734250  34.1561810 138.5441320  12.9291830
  34.2034670 137.1758600  12.2830590  30.9332740 140.7900680  19.7254510
  31.2635750 139.9221740  19.4933150  31.3623740 140.9959200  20.5559470
  35.5294660 139.1209690  17.3856480  35.2290200 138.9974660  18.2860390
  35.4232150 138.2618280  16.9772210  31.4222950 141.6571270  22.4636140
  30.9853940 141.8372070  23.2960290  31.9900630 142.4145890  22.3217860
  47.0585130 141.1588270  26.7513450  46.4587120 141.2180830  26.0077370
  47.1879030 140.2193250  26.8810300  48.2986580 138.9006090  12.0883160
  47.4679540 138.9682740  12.5590390  48.4758410 139.7910210  11.7850020
  47.7543040 135.6453570  14.5917360  48.5161950 136.2150220  14.6977050
  47.7697410 135.0780770  15.3625670  31.2547380 134.1691500  18.8225020
  30.5996220 133.9003140  18.1784720  32.0925330 134.0595980  18.3727000
  48.7603010 136.5003670  19.4359290  49.1311840 135.7170990  19.0295260
  49.4004940 137.1892770  19.2576590  45.7436770 137.8840250  24.8489610
  44.9296610 138.3137410  25.1115400  46.1510970 138.4958660  24.2358660
  47.8062210 135.9387940  11.7489880  48.0811050 136.8466820  11.6209100
  47.6172950 135.8750470  12.6851870  44.2037820 128.9632790  13.0443510
  44.6222700 128.7763770  12.2040170  43.8973880 128.1111840  13.3546440
  47.7027550 133.8756930  16.7419310  47.3271150 133.1084860  16.3100600
  46.9730670 134.2579630  17.2294240  32.2923310 134.5544070  23.3628360
  32.6596350 134.4671470  24.2424380  31.7234130 133.7910620  23.2635220
  47.0927170 133.0228450  26.3758830  46.8613260 132.7941200  25.4756780
  47.3531720 133.9428000  26.3303720  31.8439310 131.4653160  27.2686780
  30.9495360 131.4319920  27.6080490  32.3836860 131.6639950  28.0338030
  45.5315240 128.2484880  29.1538530  46.4085420 128.2568280  29.5372530
  45.5436080 127.5115720  28.5430880  30.4685460 131.3790430  14.7650350
  29.5649540 131.6420630  14.5902010  30.9526080 131.6501600  13.9850310
  46.9778510 132.1014420  20.0426550  47.5015990 131.6077070  19.4116720
  47.5637930 132.2364780  20.7874120  47.1568230 132.1854290  23.5646100
  46.2070940 132.1517830  23.6791090  47.3381240 133.0954400  23.3295870
  33.0112670 130.4355970  12.6744730  33.7204370 130.0139190  12.1892010
  32.2952610 130.5031200  12.0428080  32.6586830 126.4895300  11.7147380
  33.3814960 127.0304240  12.0328600  32.9311350 126.2158720  10.8388920
  46.4678480 131.3587770  15.9818960  46.9637600 131.1258640  16.7667840
  46.2694550 130.5199610  15.5656600  32.3479020 125.7401490  21.6170000
  32.9955210 125.1898870  21.1765160  32.7680860 125.9944640  22.4385810
  47.8965640 129.9948720  18.5156640  47.7864920 129.8404760  19.4538910
  48.6573230 129.4669660  18.2732050  46.2431360 125.9342850  24.9739640
  46.8803580 126.5476990  25.3398830  46.3906250 125.9703510  24.0288870
  48.7855910 127.8256640  11.7562780  49.7105220 127.6937820  11.5481070
  48.7631700 127.9049460  12.7099230  48.8594400 128.5967300  14.3819490
  48.0645900 128.5312420  14.9112400  49.0637680 129.5317940  14.3704840
  45.8012820 142.6358850  18.3757880  46.3971890 142.3143420  17.6992300
  46.0590970 142.1630670  19.1671150  32.1011020 125.8957160  24.3595320
  31.7525840 126.3520980  25.1253500  31.7698720 125.0014290  24.4417750
  33.7075390 139.0676760  28.5248510  33.6645020 138.6969670  29.4062970
  33.8386400 140.0054330  28.6650330  37.4081420 140.6236350  24.1258230
  37.1672780 140.8910910  23.2388750  38.3484060 140.7942080  24.1809090
  39.6135840 127.0869040  27.8814740  39.5524730 127.6790870  28.6310150
  40.5536220 126.9795000  27.7365000  42.2510400 126.7439100  27.5207030
  42.8650810 127.0618390  26.8588110  42.7959960 126.2587690  28.1402890
  48.6685580 142.6430730  24.9268870  48.1743860 143.0399600  24.2096000
  48.0598870 142.0179940  25.3206150  32.7731660 125.4233360  27.6346090
  33.3214650 125.2421410  26.8712200  32.8386970 124.6327470  28.1702400
  33.5463420 142.0139010  25.6446290  32.9523740 141.8823710  26.3836330
  33.5387260 141.1777150  25.1788390  42.9918440 125.3071240  23.8476320
  42.1178280 125.6406350  23.6449250  42.8829190 124.8344420  24.6728190
  43.8990420 127.5142110  25.2318040  43.5703780 126.6993870  24.8519770
  44.8472720 127.4711920  25.1083730  46.3525030 143.2854150  22.2055610
  45.8928000 144.0369960  21.8313630  45.7237490 142.5660620  22.1470410
  33.1775650 139.3797390  24.5954330  32.4509710 138.7602680  24.5280280
  33.2384800 139.7738000  23.7252410  36.7820750 141.5942390  21.3803740
  37.2985770 140.9829750  20.8552000  37.4318130 142.0971170  21.8714750
  39.5216250 142.4850880  22.2072720  39.8094060 142.2305180  21.3305730
  40.0339470 141.9328240  22.7978290  40.7393260 126.2241080  22.7869230
  39.9565050 126.6986580  23.0665990  40.4456190 125.3195910  22.6782410
  45.2914330 126.9264180  20.8318320  45.7322420 126.8709280  19.9839920
  45.0221920 127.8422190  20.9028500  47.1552900 126.5579420  18.8427140
  47.0941300 125.6140640  18.6958160  47.9344930 126.6659510  19.3880600
  31.4605650 142.6971780  17.8051090  31.2927690 142.0642460  18.5032980
  30.5940160 142.9031180  17.4545280  32.0833670 126.5288560  15.3082950
  32.8413030 126.6417440  14.7346980  31.6210840 127.3657760  15.2626380
  38.6247480 128.6427830  18.2985260  37.8121990 128.2684720  17.9581140
  39.1289120 127.8872910  18.6006450  43.1272460 125.3070280  19.5368330
  43.7301830 125.8790490  20.0116850  42.3865450 125.8709720  19.3142230
  46.2707060 125.7091840  14.8108610  46.4657690 126.6075290  15.0776040
  45.4836930 125.4778920  15.3041560  33.0668350 141.3905010  15.2501230
  32.5415970 141.7713040  14.5463190  32.9912930 142.0155780  15.9710940
  34.4558820 127.0552610  13.8484920  34.9851580 126.2682410  13.7192870
  35.0887140 127.7343800  14.0820450  36.6496660 126.7927750  16.9030310
  36.0199400 126.0915060  17.0700440  36.1101800 127.5531880  16.6863470
  39.5888610 143.4066980  29.5740920  40.5155920 143.1711250  29.6176880
  39.5739040 144.2338980  29.0926950  47.8233670 142.9492550  16.5715170
  47.9985860 142.2630290  15.9276090  47.1255240 143.4739600  16.1791840
  36.7752220 126.0711730  29.3382800  36.4936490 126.5745330  28.5743620
  37.1571920 125.2733480  28.9724930  35.6661320 143.3387390  14.1250480
  36.3980140 143.0546670  13.5774370  35.9254990 143.1000670  15.0149860
  34.8276110 139.4552120  14.1296810  34.1984990 139.9237220  14.6782640
  34.9423940 138.6101340  14.5643000  43.3767680 125.4865310  29.9163270
  43.2633130 125.8059920  30.8114790  44.1937420 125.8877820  29.6200550
  46.1566170 142.6336840  29.3981960  46.9491490 142.1386070  29.1907920
  46.4499320 143.3126980  30.0057570  40.4143870 135.2836800   2.1607280
  39.6385970 134.8037240   2.4505850  41.0656800 134.6042450   1.9863440
  34.4309700 135.5956610   3.0383040  33.5994580 135.3405320   3.4379550
  35.0390680 135.6667380   3.7740960  34.4110960 139.6296700   3.2341060
  34.7139000 138.7394440   3.0551280  35.1554550 140.1866920   3.0063310
  30.8034660 133.1564150   2.7065130  31.3750770 132.3886350   2.7068770
  30.8036200 133.4552910   1.7971740  39.8552860 137.9593990   2.1677440
  39.7861140 137.0183930   2.0066570  40.6172720 138.0495400   2.7400010
  32.0459530 128.5648510   4.4934060  31.8662370 127.6674260   4.7736820
  31.6439610 129.1120380   5.1681010  32.6646200 131.0609010   3.1016400
  33.3456310 131.3247380   3.7203800  32.3494250 130.2209880   3.4354410
  36.8570770 132.1076370   2.1888990  37.3648990 132.6057340   2.8294010
  37.3884010 131.3311570   2.0128350  48.9581700 130.2781560   5.8918340
  48.2533870 130.6663270   5.3733450  49.2239620 130.9731850   6.4939270
  35.1406870 126.7474930   6.4552410  35.1425310 127.2647320   5.6498310
  34.3111180 126.2705110   6.4322340  36.3909720 136.3870110   4.6325910
  36.0579100 137.0139030   5.2746980  36.5676400 136.9131990   3.8527580
  44.9043630 130.2015190   2.1002250  44.1999200 130.4900080   2.6805360
  45.2655790 131.0115300   1.7401810  34.8222200 128.4584890   4.4622860
  35.1639010 129.3026940   4.1676730  33.8838010 128.6068630   4.5788200
  35.6028820 138.3550910   6.4475090  36.2202820 139.0301990   6.1659540
  34.7421940 138.7638890   6.3562590  46.5206410 139.8190320   4.3629730
  45.8369930 140.4889430   4.3546400  47.0600700 140.0170970   3.5974590
  47.9730550 129.6469980   2.4911460  47.0255460 129.6808960   2.6226890
  48.2980540 130.4608930   2.8760820  44.0565150 141.6634450   3.0774910
  44.0692310 141.2596740   2.2097170  43.5040370 142.4381740   2.9736340
  43.4550590 136.5664290   4.4057520  43.8719380 136.3524400   3.5710980
  44.1790410 136.8237080   4.9766140  47.4012690 134.9651510   4.4973760
  46.5731320 135.0344600   4.0223890  47.9963170 135.5505820   4.0289590
  44.3654700 131.7520830   5.4428630  43.9525880 132.5774540   5.6968620
  43.6330650 131.1665870   5.2504990  36.9669190 138.2248290   2.4686510
  36.6697480 137.6193760   1.7894290  37.9169010 138.2625600   2.3575870
  35.2116110 131.3123940   4.0846340  35.7630700 131.4219280   3.3099590
  35.7259620 131.6861540   4.8001570  45.0554800 141.7980160   6.1309610
  44.5785360 142.6052350   5.9382220  44.3716590 141.1458490   6.2835820
  36.0587620 137.9629980   9.1194310  35.1616150 138.1869950   9.3667710
  36.0840490 138.0864920   8.1705710  34.8858840 134.8343300   7.6951680
  34.7466610 135.7066100   8.0639080  34.0040200 134.4916110   7.5499620
  36.6839190 140.7765000   9.9036830  36.6554620 141.1807950   9.0365260
  36.5204160 139.8475360   9.7408430  48.6354010 141.5592100  11.2001000
  49.1113730 142.0374990  11.8790080  49.2561170 141.4909590  10.4746500
  30.8377490 136.6040850   3.6122590  30.9157910 136.7389620   2.6678310
  31.4519170 135.8956740   3.8050710  48.0387260 138.7504950   8.3601010
  48.1650320 138.5116830   7.4418190  48.0808640 137.9189490   8.8323090
  41.9004000 142.4532950   6.9295820  42.4148670 142.3640960   7.7318250
  41.0573080 142.7992650   7.2223730  47.8911270 130.8037410   9.3250750
  47.2755540 131.3117080   8.7966210  47.5707690 129.9035740   9.2676690
  30.8937010 137.6455020   6.1517050  31.0568050 137.1760380   5.3336420
  31.3589460 137.1378580   6.8165890  39.9525590 129.6429300   6.7912940
  39.4904960 129.8512320   7.6032880  39.5503700 128.8288650   6.4883610
  44.9530100 130.8638250   7.9209600  44.1023690 130.5644000   8.2418670
  44.7931890 131.1080260   7.0093420  42.0479810 132.3640000  10.0208390
  42.3733220 131.5303750   9.6810620  42.8360140 132.8868520  10.1686720
  37.7031680 127.3208110   3.0467220  38.0004010 128.2270940   2.9659240
  38.2517240 126.8326890   2.4326790  37.8969210 132.7979930   9.5819140
  37.8012810 131.8574660   9.4319540  38.7401190 133.0195000   9.1867210
  33.0279750 129.2093600   7.7352920  32.6343140 130.0568810   7.9425700
  32.3398150 128.5719970   7.9261560  39.6024800 129.2928570  10.8049660
  38.9123120 129.1000770  11.4395750  40.3457100 129.5763210  11.3373960
  30.3296800 127.1322060   1.7683000  30.0409850 127.7024920   2.4807980
  31.0742560 126.6526510   2.1314230  41.8787770 133.1327010   3.6403580
  41.1468890 133.6413820   3.9893680  41.4812110 132.3156990   3.3392360
  42.3413680 128.5860690   3.0526520  42.3586420 129.0369340   3.8968370
  42.0929260 127.6866330   3.2659960  45.7684430 125.9992870   8.8912900
  46.0930200 125.2682530   9.4170880  45.8040940 125.6806510   7.9893890
  32.4675990 137.0206450   8.3112860  32.0830780 136.3800120   8.9095820
  32.7788180 137.7242570   8.8807590  38.6173130 133.8682990   3.7921480
  38.9843260 133.3941560   4.5382820  38.4278190 134.7424560   4.1329820
  36.4072500 132.9091630   6.1105690  36.1029570 133.7883610   6.3356050
  37.3618960 132.9691420   6.1463130  45.6942270 136.1117980   2.4998930
  46.4141390 136.6073270   2.1095040  45.4924090 135.4335870   1.8552800
  41.0761070 136.1827040   8.3867930  41.0098380 135.2622710   8.1325520
  40.4466210 136.2802480   9.1012570  32.4636230 133.7494370   7.2577050
  32.1051170 134.4148220   7.8450390  32.1690790 132.9177920   7.6289670
  35.6649350 134.2078610  10.1416600  35.3649490 134.3535790   9.2444420
  36.4360590 133.6483900  10.0489990  41.0077800 139.0047610   8.1371730
  41.0222340 138.0728570   7.9190640  40.3002900 139.0907370   8.7761500
  47.2189010 135.6454950   7.4840310  46.4937200 136.2383730   7.2869700
  47.7464470 135.6378490   6.6853680  40.4411700 140.6465180   5.2312230
  41.0853920 140.8524560   5.9085650  40.8041140 139.8853580   4.7783080
  41.7143780 138.6497530   3.9489680  42.3566010 137.9490690   4.0621850
  42.2393130 139.4295970   3.7686570  43.4881400 139.4492430   7.1525740
  43.8237640 140.0359120   7.8303660  42.5681740 139.3185140   7.3823530
  31.0384800 127.2387610   7.9349150  30.3243320 127.4384530   8.5401760
  31.4579840 126.4627180   8.3063950  31.3257390 141.2267870   8.9215680
  31.4348510 140.2862610   8.7811070  30.6737950 141.4922620   8.2729410
  39.3169980 139.4983760  10.3213800  38.9966850 138.7793000  10.8659490
  38.6428340 140.1738830  10.3949860  42.5323580 129.7309920   5.6850600
  42.9004400 128.9105130   6.0130170  41.6721780 129.7911810   6.1006250
  39.4925570 132.3849510   5.9088570  39.9910820 132.8595330   6.5740420
  39.6348520 131.4613030   6.1158600  46.6992430 128.6017470   6.7516960
  46.1966030 129.3422870   7.0910770  47.5149090 128.9901470   6.4353750
  33.4715830 142.2936780  10.7335290  34.2728560 142.6148830  11.1470690
  32.9567650 141.9332360  11.4555200  42.3080460 138.4016650  10.6810700
  41.7018620 138.4248250   9.9406450  42.0034570 137.6699690  11.2177950
  43.7380830 142.1296940   9.2920110  44.6902580 142.0454960   9.2420350
  43.5909050 142.7938650   9.9653900  31.1913640 134.7810240   9.6771340
  31.6952660 134.2017520  10.2487570  30.4521060 135.0650470  10.2147710
  38.2451580 136.1881230   9.2106860  37.4797250 136.7566230   9.1261530
  38.4267540 135.8957440   8.3175090  45.3874930 137.9186560   9.7681880
  46.1284400 138.2562320   9.2649340  44.6247610 138.0878620   9.2151650
  33.2236720 132.9239830  10.5721410  33.2642060 132.6253700  11.4806640
  34.0782220 133.3247440  10.4128930  35.1642530 131.5031930   8.5395900
  34.6338990 131.0122880   7.9119240  35.8330600 131.9316130   8.0053830
  44.0620590 135.9701390   8.3037090  44.4761610 136.1246470   9.1527510
  43.1271590 136.0956610   8.4662870  44.5342760 133.3097550  10.3076240
  45.1163530 132.5549870  10.2196720  44.7104530 133.8404990   9.5307720
  35.6514830 128.4694300   8.6193190  35.5571700 127.8515050   7.8944060
  35.0712220 129.1960590   8.3923100  38.4176270 127.0267540   5.6520580
  37.9693570 127.0491800   4.8066130  37.7841470 126.6286560   6.2490880
  38.8235820 135.9221870   6.2733020  39.2423930 136.7654600   6.1009260
  37.9044450 136.0593910   6.0439800  41.1599720 133.6538050   7.6570860
  41.2795930 133.0579190   8.3965700  42.0193720 133.6907740   7.2372160
  43.4987620 134.2075240   6.2333370  42.9722840 134.7317860   5.6298510
  43.8418960 134.8402630   6.8643100  36.6743240 142.2274880   7.3890750
  36.1364330 142.9520940   7.0699450  36.9277200 141.7505220   6.5988090
  37.9268490 130.1959400   8.9146680  38.5168180 129.8875250   9.6024500
  37.1088730 129.7239150   9.0706580  42.7461920 129.8125210   9.1479700
  42.0577440 129.1506750   9.0829690  43.4667940 129.3663480   9.5928160
  39.5305450 143.4626090   7.6477400  39.4564150 144.3661230   7.9549770
  38.6284290 143.1437990   7.6199470  31.4222950 141.6571270   3.6892650
  30.9853940 141.8372070   4.5216800  31.9900630 142.4145890   3.5474370
  47.0585130 141.1588270   7.9769960  46.4587120 141.2180830   7.2333880
  47.1879030 140.2193250   8.1066810  45.7436770 137.8840250   6.0746120
  44.9296610 138.3137410   6.3371910  46.1510970 138.4958660   5.4615170
  32.2923310 134.5544070   4.5884870  32.6596350 134.4671470   5.4680890
  31.7234130 133.7910620   4.4891730  47.0927170 133.0228450   7.6015340
  46.8613260 132.7941200   6.7013290  47.3531720 133.9428000   7.5560230
  31.8439310 131.4653160   8.4943290  30.9495360 131.4319920   8.8337000
  32.3836860 131.6639950   9.2594540  45.5315240 128.2484880  10.3795040
  46.4085420 128.2568280  10.7629040  45.5436080 127.5115720   9.7687390
  47.1568230 132.1854290   4.7902610  46.2070940 132.1517830   4.9047600
  47.3381240 133.0954400   4.5552380  32.3479020 125.7401490   2.8426510
  32.9955210 125.1898870   2.4021670  32.7680860 125.9944640   3.6642320
  46.2431360 125.9342850   6.1996150  46.8803580 126.5476990   6.5655340
  46.3906250 125.9703510   5.2545380  32.1011020 125.8957160   5.5851830
  31.7525840 126.3520980   6.3510010  31.7698720 125.0014290   5.6674260
  33.7075390 139.0676760   9.7505020  33.6645020 138.6969670  10.6319480
  33.8386400 140.0054330   9.8906840  37.4081420 140.6236350   5.3514740
  37.1672780 140.8910910   4.4645260  38.3484060 140.7942080   5.4065600
  39.6135840 127.0869040   9.1071250  39.5524730 127.6790870   9.8566660
  40.5536220 126.9795000   8.9621510  42.2510400 126.7439100   8.7463540
  42.8650810 127.0618390   8.0844620  42.7959960 126.2587690   9.3659400
  48.6685580 142.6430730   6.1525380  48.1743860 143.0399600   5.4352510
  48.0598870 142.0179940   6.5462660  32.7731660 125.4233360   8.8602600
  33.3214650 125.2421410   8.0968710  32.8386970 124.6327470   9.3958910
  33.5463420 142.0139010   6.8702800  32.9523740 141.8823710   7.6092840
  33.5387260 141.1777150   6.4044900  42.9918440 125.3071240   5.0732830
  42.1178280 125.6406350   4.8705760  42.8829190 124.8344420   5.8984700
  43.8990420 127.5142110   6.4574550  43.5703780 126.6993870   6.0776280
  44.8472720 127.4711920   6.3340240  46.3525030 143.2854150   3.4312120
  45.8928000 144.0369960   3.0570140  45.7237490 142.5660620   3.3726920
  33.1775650 139.3797390   5.8210840  32.4509710 138.7602680   5.7536790
  33.2384800 139.7738000   4.9508920  36.7820750 141.5942390   2.6060250
  37.2985770 140.9829750   2.0808510  37.4318130 142.0971170   3.0971260
  39.5216250 142.4850880   3.4329230  39.8094060 142.2305180   2.5562240
  40.0339470 141.9328240   4.0234800  40.7393260 126.2241080   4.0125740
  39.9565050 126.6986580   4.2922500  40.4456190 125.3195910   3.9038920
  39.5888610 143.4066980  10.7997430  40.5155920 143.1711250  10.8433390
  39.5739040 144.2338980  10.3183460  36.7752220 126.0711730  10.5639310
  36.4936490 126.5745330   9.8000130  37.1571920 125.2733480  10.1981440
  43.3767680 125.4865310  11.1419780  43.2633130 125.8059920  12.0371300
  44.1937420 125.8877820  10.8457060  46.1566170 142.6336840  10.6238470
  46.9491490 142.1386070  10.4164430  46.4499320 143.3126980  11.2314080
  42.2825830 114.7314290 150.4745930  42.2019880 113.8168900 150.2037640
  41.8690250 115.2281360 149.7685640  44.4351300 120.9153500 151.1354330
  43.9732830 120.1440740 151.4641500  45.2476850 120.9419570 151.6406780
  32.8401650 111.7815010 147.0173350  31.9518350 112.1230980 146.9153230
  33.1242840 111.5815330 146.1254180  40.6614610 123.2011510 150.7558320
  40.0426050 123.6569010 150.1852760  41.5166390 123.3562970 150.3548020
  35.0163040 110.3646510 148.0511730  35.1229790 111.2650240 148.3580490
  34.1055400 110.3164480 147.7606380  44.6682150 109.4871320 149.5222630
  45.4891770 108.9967890 149.5648110  44.7016230 110.0768980 150.2754470
  41.5277960 118.0850750 148.1490230  40.9095230 118.5500200 147.5852950
  42.0401210 118.7778230 148.5659740  30.8961160 118.7707280 145.5229860
  30.5189140 119.2594380 144.7914760  31.1534230 119.4432560 146.1536390
  38.5050090 107.1723670 150.9815370  38.8125070 106.6170560 150.2650870
  37.5750790 107.3068130 150.7988360  45.3510570 119.6107180 148.3613000
  45.2406900 118.6681510 148.4862420  45.3478820 119.9722820 149.2475760
  40.8930850 115.2372500 147.7175490  39.9660130 115.1709880 147.9463960
  41.0455670 116.1752630 147.6030730  40.8799930 111.5089500 144.7142650
  39.9403600 111.6703460 144.7995110  41.1983190 112.2275180 144.1678640
  44.9228140 116.7992800 148.2210740  44.3040560 116.4612350 147.5737040
  44.9052590 116.1552560 148.9289930  36.4987490 115.7637240 150.4995220
  36.0944490 115.0514490 150.0041120  36.5850610 115.4190480 151.3883260
  43.0992840 116.0379610 145.2283490  43.5386120 115.2002040 145.0821310
  43.8121260 116.6709010 145.3147630  41.2088220 120.9775680 149.1964730
  41.6484130 121.7200010 148.7820120  41.1475110 121.2202250 150.1203690
  46.6809980 107.2922420 143.5424530  46.3682640 107.3849250 144.4423600
  47.4422450 107.8703450 143.4921960  33.1992120 114.6582220 148.0001870
  33.0789720 115.3844310 147.3883140  32.8893010 113.8885130 147.5229780
  32.0825120 119.5297550 150.2176690  31.6753200 119.6712140 149.3630290
  32.9738130 119.2457710 150.0147900  43.8758400 123.9644800 146.5527740
  43.7159540 123.6747740 147.4509570  43.7105110 123.1884930 146.0172970
  36.3546780 123.7443330 148.3299360  36.1789260 122.8278870 148.1167160
  35.5002520 124.1030620 148.5697160  43.5784530 121.4732360 145.1125740
  42.8849690 121.4709650 144.4528020  44.3207390 121.0491680 144.6819910
  43.1434460 123.0995070 149.1874230  43.5991410 122.3184450 149.5012850
  43.4826980 123.8101890 149.7315410  35.6655780 108.0017290 151.3825540
  35.2223930 108.7826830 151.0510060  36.2240770 108.3247180 152.0896480
  38.7814600 107.6227990 146.2631370  38.1568780 107.6187860 146.9884680
  38.6944720 106.7558950 145.8667340  35.4570000 113.1250860 149.1106790
  35.2310920 112.9088030 150.0153410  34.6762530 113.5579320 148.7652760
  42.6867760 113.1314230 147.7097440  42.0876650 113.8550030 147.5261060
  43.2347370 113.0691010 146.9273890  41.2932630 111.7677770 149.7400720
  41.6862200 112.0849970 148.9269410  41.6549480 110.8889650 149.8545240
  30.5167030 112.2998690 143.1733640  30.4341700 113.2429450 143.3148630
  30.1650090 112.1573600 142.2945990  38.3165160 111.0337720 152.2403990
  38.3201220 110.5927670 151.3908530  39.2116280 111.3555050 152.3475810
  34.1667540 110.9164210 151.1998200  33.8267590 111.3939440 151.9565250
  33.4044860 110.4629330 150.8399300  38.3785310 112.0349800 145.2310750
  38.4998130 111.9936280 146.1796570  37.9933820 112.8973950 145.0757480
  37.3906810 114.3450940 144.6294050  36.8223710 113.8969190 144.0029960
  38.0995810 114.7043720 144.0959200  31.4813620 109.8383190 150.1162870
  31.1960540 109.4738860 150.9541490  31.4192480 109.1063650 149.5026010
  34.9354290 118.3409130 146.9020460  34.1616550 117.8006750 146.7419180
  35.6648920 117.8215740 146.5638220  41.1552210 108.7312450 146.8376240
  40.3416820 108.2325620 146.7621550  40.9614160 109.5710700 146.4212590
  43.8700600 113.1032100 145.1338400  44.7580220 113.4149330 144.9589740
  43.8405690 112.2304350 144.7418980  34.9791690 118.0089510 150.5399270
  35.4970360 117.2057770 150.4856160  34.5275710 117.9468650 151.3816100
  39.8661190 119.2755790 145.8126570  40.2076890 120.0198020 145.3169890
  39.0373900 119.5886910 146.1751400  46.1414870 114.4143940 144.6018260
  46.0578590 114.8458160 143.7514700  46.8609060 114.8742290 145.0345080
  47.1702120 121.2686200 147.3300390  46.5278280 120.6141820 147.6044110
  46.7832780 121.6741290 146.5541060  42.7488600 118.5971630 151.1772080
  43.1012420 117.9999760 150.5173450  41.8650930 118.2715860 151.3480330
  38.8351880 119.3569320 148.5842490  39.5223010 119.9038530 148.9650080
  38.0484300 119.9010050 148.6192100  30.9744280 114.9742140 144.0759570
  31.8439130 115.2566940 144.3595490  30.4834600 115.7878010 143.9608380
  38.1379090 116.3615350 148.1967850  38.5941870 117.1720600 148.4228040
  37.7867300 116.0438490 149.0286340  34.0390870 106.7053000 148.6690370
  33.9105500 106.6970900 149.6175290  33.2152890 107.0436090 148.3181380
  45.5599500 120.1602660 143.8676740  45.3337080 119.4433100 144.4601380
  45.1695700 119.9115100 143.0298490  31.3415530 124.1869520 144.6421200
  31.7013170 124.7858860 143.9878470  31.2007870 124.7329410 145.4156230
  45.1415750 118.0774600 145.5290900  44.8537450 118.5387290 146.3168780
  45.9367920 117.6172370 145.7975120  37.3584150 121.5700720 145.4594870
  37.3494250 122.3030410 144.8439380  36.4382510 121.3232300 145.5521830
  32.9590790 116.7915610 146.2041630  32.3518740 117.5314510 146.2136930
  33.4340140 116.8814970 145.3779830  45.8985610 109.9123370 146.6886080
  45.2698770 110.0169040 145.9744310  45.4037530 110.1320150 147.4779960
  40.3443750 121.6328960 144.1220060  40.4455730 121.4292950 143.1922040
  39.4445490 121.3787240 144.3267840  37.8669640 112.1909320 148.1043960
  37.1585790 112.6595660 148.5457570  38.1514120 111.5331330 148.7389150
  41.8985070 108.9159980 149.5439750  41.7752850 108.9346110 148.5949260
  42.8469630 108.9638920 149.6638150  38.9861860 124.1515280 148.8167730
  39.2403360 124.1136670 147.8947100  38.0374340 124.0248610 148.8095980
  36.0704660 110.4994400 145.4794670  36.9195190 110.9364550 145.4134860
  35.7035930 110.8114660 146.3066730  44.9914440 115.0707160 150.3926240
  44.0504580 115.0857390 150.5673930  45.3058510 114.2843120 150.8386540
  34.9696080 116.7526760 143.9530200  35.7359350 116.6408120 144.5155630
  35.0470770 116.0564730 143.3006970  33.6642840 114.1851830 144.6363090
  33.7446430 113.2379340 144.7480490  34.5562590 114.5158710 144.7423750
  34.4657550 124.3347220 151.7397630  35.2020030 123.7862680 152.0106200
  34.8498470 125.2003230 151.6003620  31.3503030 120.4020790 147.6139140
  30.4242810 120.6441930 147.6044550  31.8159460 121.2295050 147.4923890
  37.5759860 123.5077530 143.5623200  38.3688470 123.7966360 143.1104990
  37.0564210 123.0769700 142.8835680  46.6290030 122.7347660 144.9859940
  46.3431540 122.3212800 144.1714120  46.4309580 123.6635370 144.8660460
  38.0937260 118.7280940 143.4265550  37.9887900 118.1133290 144.1526930
  37.9261480 118.2046830 142.6428560  41.3339990 117.7900970 144.0307540
  40.7850090 118.2370270 144.6750280  41.9559250 117.2850220 144.5545210
  37.0015110 116.7491890 145.9272840  37.4231530 116.5831760 146.7704230
  37.1265950 115.9392120 145.4327980  39.5142750 115.7729500 143.1749940
  40.0348410 115.0578520 142.8091090  40.1611150 116.4115370 143.4750450
  35.8974010 112.8225120 142.8731000  35.6963070 111.9592480 143.2344340
  35.7266060 112.7358480 141.9352600  43.3762320 107.6333350 145.4017880
  43.6564610 106.7901250 145.7577300  42.6028050 107.8656460 145.9156630
  34.6956810 109.9225740 142.8608880  34.9982710 109.9293170 141.9528030
  35.4351400 109.5723600 143.3576540  37.9141740 108.8660360 143.8465080
  37.5663740 108.1884350 143.2667530  38.1154510 108.4049870 144.6608470
  40.0790780 123.8541110 145.4651680  40.9741570 124.1926080 145.4870440
  40.1108410 123.1320520 144.8375960  33.7186940 119.2268160 143.6938680
  34.1561810 119.7697830 144.3496260  34.2034670 118.4015110 143.7035020
  30.9332740 122.0157190 151.1458940  31.2635750 121.1478250 150.9137580
  31.3623740 122.2215710 151.9763900  35.5294660 120.3466200 148.8060910
  35.2290200 120.2231170 149.7064820  35.4232150 119.4874790 148.3976640
  48.2986580 120.1262600 143.5087590  47.4679540 120.1939250 143.9794820
  48.4758410 121.0166720 143.2054450  47.7543040 116.8710080 146.0121790
  48.5161950 117.4406730 146.1181480  47.7697410 116.3037280 146.7830100
  31.2547380 115.3948010 150.2429450  30.5996220 115.1259650 149.5989150
  32.0925330 115.2852490 149.7931430  48.7603010 117.7260180 150.8563720
  49.1311840 116.9427500 150.4499690  49.4004940 118.4149280 150.6781020
  47.8062210 117.1644450 143.1694310  48.0811050 118.0723330 143.0413530
  47.6172950 117.1006980 144.1056300  44.2037820 110.1889300 144.4647940
  44.6222700 110.0020280 143.6244600  43.8973880 109.3368350 144.7750870
  47.7027550 115.1013440 148.1623740  47.3271150 114.3341370 147.7305030
  46.9730670 115.4836140 148.6498670  30.4685460 112.6046940 146.1854780
  29.5649540 112.8677140 146.0106440  30.9526080 112.8758110 145.4054740
  46.9778510 113.3270930 151.4630980  47.5015990 112.8333580 150.8321150
  47.5637930 113.4621290 152.2078550  33.0112670 111.6612480 144.0949160
  33.7204370 111.2395700 143.6096440  32.2952610 111.7287710 143.4632510
  32.6586830 107.7151810 143.1351810  33.3814960 108.2560750 143.4533030
  32.9311350 107.4415230 142.2593350  46.4678480 112.5844280 147.4023390
  46.9637600 112.3515150 148.1872270  46.2694550 111.7456120 146.9861030
  47.8965640 111.2205230 149.9361070  47.7864920 111.0661270 150.8743340
  48.6573230 110.6926170 149.6936480  48.7855910 109.0513150 143.1767210
  49.7105220 108.9194330 142.9685500  48.7631700 109.1305970 144.1303660
  48.8594400 109.8223810 145.8023920  48.0645900 109.7568930 146.3316830
  49.0637680 110.7574450 145.7909270  45.8012820 123.8615360 149.7962310
  46.3971890 123.5399930 149.1196730  46.0590970 123.3887180 150.5875580
  45.2914330 108.1520690 152.2522750  45.7322420 108.0965790 151.4044350
  45.0221920 109.0678700 152.3232930  47.1552900 107.7835930 150.2631570
  47.0941300 106.8397150 150.1162590  47.9344930 107.8916020 150.8085030
  31.4605650 123.9228290 149.2255520  31.2927690 123.2898970 149.9237410
  30.5940160 124.1287690 148.8749710  32.0833670 107.7545070 146.7287380
  32.8413030 107.8673950 146.1551410  31.6210840 108.5914270 146.6830810
  38.6247480 109.8684340 149.7189690  37.8121990 109.4941230 149.3785570
  39.1289120 109.1129420 150.0210880  43.1272460 106.5326790 150.9572760
  43.7301830 107.1047000 151.4321280  42.3865450 107.0966230 150.7346660
  46.2707060 106.9348350 146.2313040  46.4657690 107.8331800 146.4980470
  45.4836930 106.7035430 146.7245990  33.0668350 122.6161520 146.6705660
  32.5415970 122.9969550 145.9667620  32.9912930 123.2412290 147.3915370
  34.4558820 108.2809120 145.2689350  34.9851580 107.4938920 145.1397300
  35.0887140 108.9600310 145.5024880  36.6496660 108.0184260 148.3234740
  36.0199400 107.3171570 148.4904870  36.1101800 108.7788390 148.1067900
  47.8233670 124.1749060 147.9919600  47.9985860 123.4886800 147.3480520
  47.1255240 124.6996110 147.5996270  35.6661320 124.5643900 145.5454910
  36.3980140 124.2803180 144.9978800  35.9254990 124.3257180 146.4354290
  34.8276110 120.6808630 145.5501240  34.1984990 121.1493730 146.0987070
  34.9423940 119.8357850 145.9847430  42.2825830 114.7314290 131.7002440
  42.2019880 113.8168900 131.4294150  41.8690250 115.2281360 130.9942150
  40.4143870 116.5093310 133.5811710  39.6385970 116.0293750 133.8710280
  41.0656800 115.8298960 133.4067870  34.4309700 116.8213120 134.4587470
  33.5994580 116.5661830 134.8583980  35.0390680 116.8923890 135.1945390
  44.4351300 120.9153500 132.3610840  43.9732830 120.1440740 132.6898010
  45.2476850 120.9419570 132.8663290  34.4110960 120.8553210 134.6545490
  34.7139000 119.9650950 134.4755710  35.1554550 121.4123430 134.4267740
  32.8401650 111.7815010 128.2429860  31.9518350 112.1230980 128.1409740
  33.1242840 111.5815330 127.3510690  30.8034660 114.3820660 134.1269560
  31.3750770 113.6142860 134.1273200  30.8036200 114.6809420 133.2176170
  40.6614610 123.2011510 131.9814830  40.0426050 123.6569010 131.4109270
  41.5166390 123.3562970 131.5804530  39.8552860 119.1850500 133.5881870
  39.7861140 118.2440440 133.4271000  40.6172720 119.2751910 134.1604440
  32.0459530 109.7905020 135.9138490  31.8662370 108.8930770 136.1941250
  31.6439610 110.3376890 136.5885440  40.8858030 111.9920880 133.8150800
  41.2622850 111.1192760 133.7024470  40.7877540 112.3279580 132.9241240
  35.0163040 110.3646510 129.2768240  35.1229790 111.2650240 129.5837000
  34.1055400 110.3164480 128.9862890  44.6682150 109.4871320 130.7479140
  45.4891770 108.9967890 130.7904620  44.7016230 110.0768980 131.5010980
  32.6646200 112.2865520 134.5220830  33.3456310 112.5503890 135.1408230
  32.3494250 111.4466390 134.8558840  36.8570770 113.3332880 133.6093420
  37.3648990 113.8313850 134.2498440  37.3884010 112.5568080 133.4332780
  48.9581700 111.5038070 137.3122770  48.2533870 111.8919780 136.7937880
  49.2239620 112.1988360 137.9143700  35.1406870 107.9731440 137.8756840
  35.1425310 108.4903830 137.0702740  34.3111180 107.4961620 137.8526770
  41.5277960 118.0850750 129.3746740  40.9095230 118.5500200 128.8109460
  42.0401210 118.7778230 129.7916250  36.3909720 117.6126620 136.0530340
  36.0579100 118.2395540 136.6951410  36.5676400 118.1388500 135.2732010
  44.9043630 111.4271700 133.5206680  44.1999200 111.7156590 134.1009790
  45.2655790 112.2371810 133.1606240  34.8222200 109.6841400 135.8827290
  35.1639010 110.5283450 135.5881160  33.8838010 109.8325140 135.9992630
  35.6028820 119.5807420 137.8679520  36.2202820 120.2558500 137.5863970
  34.7421940 119.9895400 137.7767020  30.8961160 118.7707280 126.7486370
  30.5189140 119.2594380 126.0171270  31.1534230 119.4432560 127.3792900
  46.5206410 121.0446830 135.7834160  45.8369930 121.7145940 135.7750830
  47.0600700 121.2427480 135.0179020  47.9730550 110.8726490 133.9115890
  47.0255460 110.9065470 134.0431320  48.2980540 111.6865440 134.2965250
  38.5050090 107.1723670 132.2071880  38.8125070 106.6170560 131.4907380
  37.5750790 107.3068130 132.0244870  44.0565150 122.8890960 134.4979340
  44.0692310 122.4853250 133.6301600  43.5040370 123.6638250 134.3940770
  45.3510570 119.6107180 129.5869510  45.2406900 118.6681510 129.7118930
  45.3478820 119.9722820 130.4732270  43.4550590 117.7920800 135.8261950
  43.8719380 117.5780910 134.9915410  44.1790410 118.0493590 136.3970570
  40.8930850 115.2372500 128.9432000  39.9660130 115.1709880 129.1720470
  41.0455670 116.1752630 128.8287240  40.8799930 111.5089500 125.9399160
  39.9403600 111.6703460 126.0251620  41.1983190 112.2275180 125.3935150
  47.4012690 116.1908020 135.9178190  46.5731320 116.2601110 135.4428320
  47.9963170 116.7762330 135.4494020  44.9228140 116.7992800 129.4467250
  44.3040560 116.4612350 128.7993550  44.9052590 116.1552560 130.1546440
  44.3654700 112.9777340 136.8633060  43.9525880 113.8031050 137.1173050
  43.6330650 112.3922380 136.6709420  36.4987490 115.7637240 131.7251730
  36.0944490 115.0514490 131.2297630  36.5850610 115.4190480 132.6139770
  36.9669190 119.4504800 133.8890940  36.6697480 118.8450270 133.2098720
  37.9169010 119.4882110 133.7780300  35.2116110 112.5380450 135.5050770
  35.7630700 112.6475790 134.7304020  35.7259620 112.9118050 136.2206000
  45.0554800 123.0236670 137.5514040  44.5785360 123.8308860 137.3586650
  44.3716590 122.3715000 137.7040250  36.0587620 119.1886490 140.5398740
  35.1616150 119.4126460 140.7872140  36.0840490 119.3121430 139.5910140
  43.0992840 116.0379610 126.4540000  43.5386120 115.2002040 126.3077820
  43.8121260 116.6709010 126.5404140  34.8858840 116.0599810 139.1156110
  34.7466610 116.9322610 139.4843510  34.0040200 115.7172620 138.9704050
  41.2088220 120.9775680 130.4221240  41.6484130 121.7200010 130.0076630
  41.1475110 121.2202250 131.3460200  36.6839190 122.0021510 141.3241260
  36.6554620 122.4064460 140.4569690  36.5204160 121.0731870 141.1612860
  46.6809980 107.2922420 124.7681040  46.3682640 107.3849250 125.6680110
  47.4422450 107.8703450 124.7178470  33.1992120 114.6582220 129.2258380
  33.0789720 115.3844310 128.6139650  32.8893010 113.8885130 128.7486290
  48.6354010 122.7848610 142.6205430  49.1113730 123.2631500 143.2994510
  49.2561170 122.7166100 141.8950930  30.8377490 117.8297360 135.0327020
  30.9157910 117.9646130 134.0882740  31.4519170 117.1213250 135.2255140
  32.0825120 119.5297550 131.4433200  31.6753200 119.6712140 130.5886800
  32.9738130 119.2457710 131.2404410  48.0387260 119.9761460 139.7805440
  48.1650320 119.7373340 138.8622620  48.0808640 119.1446000 140.2527520
  41.9004000 123.6789460 138.3500250  42.4148670 123.5897470 139.1522680
  41.0573080 124.0249160 138.6428160  43.8758400 123.9644800 127.7784250
  43.7159540 123.6747740 128.6766080  43.7105110 123.1884930 127.2429480
  36.3546780 123.7443330 129.5555870  36.1789260 122.8278870 129.3423670
  35.5002520 124.1030620 129.7953670  43.5784530 121.4732360 126.3382250
  42.8849690 121.4709650 125.6784530  44.3207390 121.0491680 125.9076420
  43.1434460 123.0995070 130.4130740  43.5991410 122.3184450 130.7269360
  43.4826980 123.8101890 130.9571920  47.8911270 112.0293920 140.7455180
  47.2755540 112.5373590 140.2170640  47.5707690 111.1292250 140.6881120
  30.8937010 118.8711530 137.5721480  31.0568050 118.4016890 136.7540850
  31.3589460 118.3635090 138.2370320  35.6655780 108.0017290 132.6082050
  35.2223930 108.7826830 132.2766570  36.2240770 108.3247180 133.3152990
  39.9525590 110.8685810 138.2117370  39.4904960 111.0768830 139.0237310
  39.5503700 110.0545160 137.9088040  44.9530100 112.0894760 139.3414030
  44.1023690 111.7900510 139.6623100  44.7931890 112.3336770 138.4297850
  42.0479810 113.5896510 141.4412820  42.3733220 112.7560260 141.1015050
  42.8360140 114.1125030 141.5891150  38.7814600 107.6227990 127.4887880
  38.1568780 107.6187860 128.2141190  38.6944720 106.7558950 127.0923850
  37.7031680 108.5464620 134.4671650  38.0004010 109.4527450 134.3863670
  38.2517240 108.0583400 133.8531220  35.4570000 113.1250860 130.3363300
  35.2310920 112.9088030 131.2409920  34.6762530 113.5579320 129.9909270
  42.6867760 113.1314230 128.9353950  42.0876650 113.8550030 128.7517570
  43.2347370 113.0691010 128.1530400  37.8969210 114.0236440 141.0023570
  37.8012810 113.0831170 140.8523970  38.7401190 114.2451510 140.6071640
  41.2932630 111.7677770 130.9657230  41.6862200 112.0849970 130.1525920
  41.6549480 110.8889650 131.0801750  33.0279750 110.4350110 139.1557350
  32.6343140 111.2825320 139.3630130  32.3398150 109.7976480 139.3465990
  39.6024800 110.5185080 142.2254090  38.9123120 110.3257280 142.8600180
  40.3457100 110.8019720 142.7578390  30.3296800 108.3578570 133.1887430
  30.0409850 108.9281430 133.9012410  31.0742560 107.8783020 133.5518660
  30.5167030 112.2998690 124.3990150  30.4341700 113.2429450 124.5405140
  30.1650090 112.1573600 123.5202500  41.8787770 114.3583520 135.0608010
  41.1468890 114.8670330 135.4098110  41.4812110 113.5413500 134.7596790
  38.3165160 111.0337720 133.4660500  38.3201220 110.5927670 132.6165040
  39.2116280 111.3555050 133.5732320  34.1667540 110.9164210 132.4254710
  33.8267590 111.3939440 133.1821760  33.4044860 110.4629330 132.0655810
  38.3785310 112.0349800 126.4567260  38.4998130 111.9936280 127.4053080
  37.9933820 112.8973950 126.3013990  42.3413680 109.8117200 134.4730950
  42.3586420 110.2625850 135.3172800  42.0929260 108.9122840 134.6864390
  37.3906810 114.3450940 125.8550560  36.8223710 113.8969190 125.2286470
  38.0995810 114.7043720 125.3215710  45.7684430 107.2249380 140.3117330
  46.0930200 106.4939040 140.8375310  45.8040940 106.9063020 139.4098320
  32.4675990 118.2462960 139.7317290  32.0830780 117.6056630 140.3300250
  32.7788180 118.9499080 140.3012020  38.6173130 115.0939500 135.2125910
  38.9843260 114.6198070 135.9587250  38.4278190 115.9681070 135.5534250
  31.4813620 109.8383190 131.3419380  31.1960540 109.4738860 132.1798000
  31.4192480 109.1063650 130.7282520  36.4072500 114.1348140 137.5310120
  36.1029570 115.0140120 137.7560480  37.3618960 114.1947930 137.5667560
  34.9354290 118.3409130 128.1276970  34.1616550 117.8006750 127.9675690
  35.6648920 117.8215740 127.7894730  45.6942270 117.3374490 133.9203360
  46.4141390 117.8329780 133.5299470  45.4924090 116.6592380 133.2757230
  41.1552210 108.7312450 128.0632750  40.3416820 108.2325620 127.9878060
  40.9614160 109.5710700 127.6469100  41.0761070 117.4083550 139.8072360
  41.0098380 116.4879220 139.5529950  40.4466210 117.5058990 140.5217000
  43.8700600 113.1032100 126.3594910  44.7580220 113.4149330 126.1846250
  43.8405690 112.2304350 125.9675490  34.9791690 118.0089510 131.7655780
  35.4970360 117.2057770 131.7112670  34.5275710 117.9468650 132.6072610
  39.8661190 119.2755790 127.0383080  40.2076890 120.0198020 126.5426400
  39.0373900 119.5886910 127.4007910  32.4636230 114.9750880 138.6781480
  32.1051170 115.6404730 139.2654820  32.1690790 114.1434430 139.0494100
  35.6649350 115.4335120 141.5621030  35.3649490 115.5792300 140.6648850
  36.4360590 114.8740410 141.4694420  41.0077800 120.2304120 139.5576160
  41.0222340 119.2985080 139.3395070  40.3002900 120.3163880 140.1965930
  46.1414870 114.4143940 125.8274770  46.0578590 114.8458160 124.9771210
  46.8609060 114.8742290 126.2601590  47.2189010 116.8711460 138.9044740
  46.4937200 117.4640240 138.7074130  47.7464470 116.8635000 138.1058110
  47.1702120 121.2686200 128.5556900  46.5278280 120.6141820 128.8300620
  46.7832780 121.6741290 127.7797570  42.7488600 118.5971630 132.4028590
  43.1012420 117.9999760 131.7429960  41.8650930 118.2715860 132.5736840
  38.8351880 119.3569320 129.8099000  39.5223010 119.9038530 130.1906590
  38.0484300 119.9010050 129.8448610  30.9744280 114.9742140 125.3016080
  31.8439130 115.2566940 125.5852000  30.4834600 115.7878010 125.1864890
  38.1379090 116.3615350 129.4224360  38.5941870 117.1720600 129.6484550
  37.7867300 116.0438490 130.2542850  40.4411700 121.8721690 136.6516660
  41.0853920 122.0781070 137.3290080  40.8041140 121.1110090 136.1987510
  34.0390870 106.7053000 129.8946880  33.9105500 106.6970900 130.8431800
  33.2152890 107.0436090 129.5437890  41.7143780 119.8754040 135.3694110
  42.3566010 119.1747200 135.4826280  42.2393130 120.6552480 135.1891000
  45.5599500 120.1602660 125.0933250  45.3337080 119.4433100 125.6857890
  45.1695700 119.9115100 124.2555000  43.4881400 120.6748940 138.5730170
  43.8237640 121.2615630 139.2508090  42.5681740 120.5441650 138.8027960
  31.3415530 124.1869520 125.8677710  31.7013170 124.7858860 125.2134980
  31.2007870 124.7329410 126.6412740  31.0384800 108.4644120 139.3553580
  30.3243320 108.6641040 139.9606190  31.4579840 107.6883690 139.7268380
  45.1415750 118.0774600 126.7547410  44.8537450 118.5387290 127.5425290
  45.9367920 117.6172370 127.0231630  31.3257390 122.4524380 140.3420110
  31.4348510 121.5119120 140.2015500  30.6737950 122.7179130 139.6933840
  39.3169980 120.7240270 141.7418230  38.9966850 120.0049510 142.2863920
  38.6428340 121.3995340 141.8154290  37.3584150 121.5700720 126.6851380
  37.3494250 122.3030410 126.0695890  36.4382510 121.3232300 126.7778340
  32.9590790 116.7915610 127.4298140  32.3518740 117.5314510 127.4393440
  33.4340140 116.8814970 126.6036340  42.5323580 110.9566430 137.1055030
  42.9004400 110.1361640 137.4334600  41.6721780 111.0168320 137.5210680
  45.8985610 109.9123370 127.9142590  45.2698770 110.0169040 127.2000820
  45.4037530 110.1320150 128.7036470  40.3443750 121.6328960 125.3476570
  40.4455730 121.4292950 124.4178550  39.4445490 121.3787240 125.5524350
  37.8669640 112.1909320 129.3300470  37.1585790 112.6595660 129.7714080
  38.1514120 111.5331330 129.9645660  39.4925570 113.6106020 137.3293000
  39.9910820 114.0851840 137.9944850  39.6348520 112.6869540 137.5363030
  41.8985070 108.9159980 130.7696260  41.7752850 108.9346110 129.8205770
  42.8469630 108.9638920 130.8894660  38.9861860 124.1515280 130.0424240
  39.2403360 124.1136670 129.1203610  38.0374340 124.0248610 130.0352490
  36.0704660 110.4994400 126.7051180  36.9195190 110.9364550 126.6391370
  35.7035930 110.8114660 127.5323240  46.6992430 109.8273980 138.1721390
  46.1966030 110.5679380 138.5115200  47.5149090 110.2157980 137.8558180
  44.9914440 115.0707160 131.6182750  44.0504580 115.0857390 131.7930440
  45.3058510 114.2843120 132.0643050  34.9696080 116.7526760 125.1786710
  35.7359350 116.6408120 125.7412140  35.0470770 116.0564730 124.5263480
  33.6642840 114.1851830 125.8619600  33.7446430 113.2379340 125.9737000
  34.5562590 114.5158710 125.9680260  46.9940020 122.2416010 133.2937010
  47.1187440 123.0647180 133.7660820  47.8605580 122.0306740 132.9461160
  34.4657550 124.3347220 132.9654140  35.2020030 123.7862680 133.2362710
  34.8498470 125.2003230 132.8260130  31.3503030 120.4020790 128.8395650
  30.4242810 120.6441930 128.8301060  31.8159460 121.2295050 128.7180400
  33.4715830 123.5193290 142.1539720  34.2728560 123.8405340 142.5675120
  32.9567650 123.1588870 142.8759630  37.5759860 123.5077530 124.7879710
  38.3688470 123.7966360 124.3361500  37.0564210 123.0769700 124.1092190
  42.3080460 119.6273160 142.1015130  41.7018620 119.6504760 141.3610880
  42.0034570 118.8956200 142.6382380  43.7380830 123.3553450 140.7124540
  44.6902580 123.2711470 140.6624780  43.5909050 124.0195160 141.3858330
  46.6290030 122.7347660 126.2116450  46.3431540 122.3212800 125.3970630
  46.4309580 123.6635370 126.0916970  31.1913640 116.0066750 141.0975770
  31.6952660 115.4274030 141.6692000  30.4521060 116.2906980 141.6352140
  38.0937260 118.7280940 124.6522060  37.9887900 118.1133290 125.3783440
  37.9261480 118.2046830 123.8685070  38.2451580 117.4137740 140.6311290
  37.4797250 117.9822740 140.5465960  38.4267540 117.1213950 139.7379520
  41.3339990 117.7900970 125.2564050  40.7850090 118.2370270 125.9006790
  41.9559250 117.2850220 125.7801720  45.3874930 119.1443070 141.1886310
  46.1284400 119.4818830 140.6853770  44.6247610 119.3135130 140.6356080
  33.2236720 114.1496340 141.9925840  33.2642060 113.8510210 142.9011070
  34.0782220 114.5503950 141.8333360  37.0015110 116.7491890 127.1529350
  37.4231530 116.5831760 127.9960740  37.1265950 115.9392120 126.6584490
  35.1642530 112.7288440 139.9600330  34.6338990 112.2379390 139.3323670
  35.8330600 113.1572640 139.4258260  39.5142750 115.7729500 124.4006450
  40.0348410 115.0578520 124.0347600  40.1611150 116.4115370 124.7006960
  44.0620590 117.1957900 139.7241520  44.4761610 117.3502980 140.5731940
  43.1271590 117.3213120 139.8867300  44.5342760 114.5354060 141.7280670
  45.1163530 113.7806380 141.6401150  44.7104530 115.0661500 140.9512150
  35.6514830 109.6950810 140.0397620  35.5571700 109.0771560 139.3148490
  35.0712220 110.4217100 139.8127530  38.4176270 108.2524050 137.0725010
  37.9693570 108.2748310 136.2270560  37.7841470 107.8543070 137.6695310
  38.8235820 117.1478380 137.6937450  39.2423930 117.9911110 137.5213690
  37.9044450 117.2850420 137.4644230  41.1599720 114.8794560 139.0775290
  41.2795930 114.2835700 139.8170130  42.0193720 114.9164250 138.6576590
  43.4987620 115.4331750 137.6537800  42.9722840 115.9574370 137.0502940
  43.8418960 116.0659140 138.2847530  35.8974010 112.8225120 124.0987510
  35.6963070 111.9592480 124.4600850  35.7266060 112.7358480 123.1609110
  36.6743240 123.4531390 138.8095180  36.1364330 124.1777450 138.4903880
  36.9277200 122.9761730 138.0192520  37.9268490 111.4215910 140.3351110
  38.5168180 111.1131760 141.0228930  37.1088730 110.9495660 140.4911010
  42.7461920 111.0381720 140.5684130  42.0577440 110.3763260 140.5034120
  43.4667940 110.5919990 141.0132590  43.3762320 107.6333350 126.6274390
  43.6564610 106.7901250 126.9833810  42.6028050 107.8656460 127.1413140
  34.6956810 109.9225740 124.0865390  34.9982710 109.9293170 123.1784540
  35.4351400 109.5723600 124.5833050  39.5305450 124.6882600 139.0681830
  39.4564150 125.5917740 139.3754200  38.6284290 124.3694500 139.0403900
  37.9141740 108.8660360 125.0721590  37.5663740 108.1884350 124.4924040
  38.1154510 108.4049870 125.8864980  40.0790780 123.8541110 126.6908190
  40.9741570 124.1926080 126.7126950  40.1108410 123.1320520 126.0632470
  33.7186940 119.2268160 124.9195190  34.1561810 119.7697830 125.5752770
  34.2034670 118.4015110 124.9291530  30.9332740 122.0157190 132.3715450
  31.2635750 121.1478250 132.1394090  31.3623740 122.2215710 133.2020410
  35.5294660 120.3466200 130.0317420  35.2290200 120.2231170 130.9321330
  35.4232150 119.4874790 129.6233150  31.4222950 122.8827780 135.1097080
  30.9853940 123.0628580 135.9421230  31.9900630 123.6402400 134.9678800
  47.0585130 122.3844780 139.3974390  46.4587120 122.4437340 138.6538310
  47.1879030 121.4449760 139.5271240  48.2986580 120.1262600 124.7344100
  47.4679540 120.1939250 125.2051330  48.4758410 121.0166720 124.4310960
  47.7543040 116.8710080 127.2378300  48.5161950 117.4406730 127.3437990
  47.7697410 116.3037280 128.0086610  31.2547380 115.3948010 131.4685960
  30.5996220 115.1259650 130.8245660  32.0925330 115.2852490 131.0187940
  48.7603010 117.7260180 132.0820230  49.1311840 116.9427500 131.6756200
  49.4004940 118.4149280 131.9037530  45.7436770 119.1096760 137.4950550
  44.9296610 119.5393920 137.7576340  46.1510970 119.7215170 136.8819600
  47.8062210 117.1644450 124.3950820  48.0811050 118.0723330 124.2670040
  47.6172950 117.1006980 125.3312810  44.2037820 110.1889300 125.6904450
  44.6222700 110.0020280 124.8501110  43.8973880 109.3368350 126.0007380
  47.7027550 115.1013440 129.3880250  47.3271150 114.3341370 128.9561540
  46.9730670 115.4836140 129.8755180  32.2923310 115.7800580 136.0089300
  32.6596350 115.6927980 136.8885320  31.7234130 115.0167130 135.9096160
  47.0927170 114.2484960 139.0219770  46.8613260 114.0197710 138.1217720
  47.3531720 115.1684510 138.9764660  31.8439310 112.6909670 139.9147720
  30.9495360 112.6576430 140.2541430  32.3836860 112.8896460 140.6798970
  45.5315240 109.4741390 141.7999470  46.4085420 109.4824790 142.1833470
  45.5436080 108.7372230 141.1891820  30.4685460 112.6046940 127.4111290
  29.5649540 112.8677140 127.2362950  30.9526080 112.8758110 126.6311250
  46.9778510 113.3270930 132.6887490  47.5015990 112.8333580 132.0577660
  47.5637930 113.4621290 133.4335060  47.1568230 113.4110800 136.2107040
  46.2070940 113.3774340 136.3252030  47.3381240 114.3210910 135.9756810
  33.0112670 111.6612480 125.3205670  33.7204370 111.2395700 124.8352950
  32.2952610 111.7287710 124.6889020  32.6586830 107.7151810 124.3608320
  33.3814960 108.2560750 124.6789540  32.9311350 107.4415230 123.4849860
  46.4678480 112.5844280 128.6279900  46.9637600 112.3515150 129.4128780
  46.2694550 111.7456120 128.2117540  32.3479020 106.9658000 134.2630940
  32.9955210 106.4155380 133.8226100  32.7680860 107.2201150 135.0846750
  47.8965640 111.2205230 131.1617580  47.7864920 111.0661270 132.0999850
  48.6573230 110.6926170 130.9192990  46.2431360 107.1599360 137.6200580
  46.8803580 107.7733500 137.9859770  46.3906250 107.1960020 136.6749810
  48.7855910 109.0513150 124.4023720  49.7105220 108.9194330 124.1942010
  48.7631700 109.1305970 125.3560170  48.8594400 109.8223810 127.0280430
  48.0645900 109.7568930 127.5573340  49.0637680 110.7574450 127.0165780
  45.8012820 123.8615360 131.0218820  46.3971890 123.5399930 130.3453240
  46.0590970 123.3887180 131.8132090  32.1011020 107.1213670 137.0056260
  31.7525840 107.5777490 137.7714440  31.7698720 106.2270800 137.0878690
  33.7075390 120.2933270 141.1709450  33.6645020 119.9226180 142.0523910
  33.8386400 121.2310840 141.3111270  37.4081420 121.8492860 136.7719170
  37.1672780 122.1167420 135.8849690  38.3484060 122.0198590 136.8270030
  39.6135840 108.3125550 140.5275680  39.5524730 108.9047380 141.2771090
  40.5536220 108.2051510 140.3825940  42.2510400 107.9695610 140.1667970
  42.8650810 108.2874900 139.5049050  42.7959960 107.4844200 140.7863830
  48.6685580 123.8687240 137.5729810  48.1743860 124.2656110 136.8556940
  48.0598870 123.2436450 137.9667090  32.7731660 106.6489870 140.2807030
  33.3214650 106.4677920 139.5173140  32.8386970 105.8583980 140.8163340
  33.5463420 123.2395520 138.2907230  32.9523740 123.1080220 139.0297270
  33.5387260 122.4033660 137.8249330  42.9918440 106.5327750 136.4937260
  42.1178280 106.8662860 136.2910190  42.8829190 106.0600930 137.3189130
  43.8990420 108.7398620 137.8778980  43.5703780 107.9250380 137.4980710
  44.8472720 108.6968430 137.7544670  46.3525030 124.5110660 134.8516550
  45.8928000 125.2626470 134.4774570  45.7237490 123.7917130 134.7931350
  33.1775650 120.6053900 137.2415270  32.4509710 119.9859190 137.1741220
  33.2384800 120.9994510 136.3713350  36.7820750 122.8198900 134.0264680
  37.2985770 122.2086260 133.5012940  37.4318130 123.3227680 134.5175690
  39.5216250 123.7107390 134.8533660  39.8094060 123.4561690 133.9766670
  40.0339470 123.1584750 135.4439230  40.7393260 107.4497590 135.4330170
  39.9565050 107.9243090 135.7126930  40.4456190 106.5452420 135.3243350
  45.2914330 108.1520690 133.4779260  45.7322420 108.0965790 132.6300860
  45.0221920 109.0678700 133.5489440  47.1552900 107.7835930 131.4888080
  47.0941300 106.8397150 131.3419100  47.9344930 107.8916020 132.0341540
  31.4605650 123.9228290 130.4512030  31.2927690 123.2898970 131.1493920
  30.5940160 124.1287690 130.1006220  32.0833670 107.7545070 127.9543890
  32.8413030 107.8673950 127.3807920  31.6210840 108.5914270 127.9087320
  38.6247480 109.8684340 130.9446200  37.8121990 109.4941230 130.6042080
  39.1289120 109.1129420 131.2467390  43.1272460 106.5326790 132.1829270
  43.7301830 107.1047000 132.6577790  42.3865450 107.0966230 131.9603170
  46.2707060 106.9348350 127.4569550  46.4657690 107.8331800 127.7236980
  45.4836930 106.7035430 127.9502500  33.0668350 122.6161520 127.8962170
  32.5415970 122.9969550 127.1924130  32.9912930 123.2412290 128.6171880
  34.4558820 108.2809120 126.4945860  34.9851580 107.4938920 126.3653810
  35.0887140 108.9600310 126.7281390  36.6496660 108.0184260 129.5491250
  36.0199400 107.3171570 129.7161380  36.1101800 108.7788390 129.3324410
  39.5888610 124.6323490 142.2201860  40.5155920 124.3967760 142.2637820
  39.5739040 125.4595490 141.7387890  47.8233670 124.1749060 129.2176110
  47.9985860 123.4886800 128.5737030  47.1255240 124.6996110 128.8252780
  36.7752220 107.2968240 141.9843740  36.4936490 107.8001840 141.2204560
  37.1571920 106.4989990 141.6185870  35.6661320 124.5643900 126.7711420
  36.3980140 124.2803180 126.2235310  35.9254990 124.3257180 127.6610800
  34.8276110 120.6808630 126.7757750  34.1984990 121.1493730 127.3243580
  34.9423940 119.8357850 127.2103940  43.3767680 106.7121820 142.5624210
  43.2633130 107.0316430 143.4575730  44.1937420 107.1134330 142.2661490
  46.1566170 123.8593350 142.0442900  46.9491490 123.3642580 141.8368860
  46.4499320 124.5383490 142.6518510  42.2825830 114.7314290 112.9258950
  42.2019880 113.8168900 112.6550660  41.8690250 115.2281360 112.2198660
  40.4143870 116.5093310 114.8068220  39.6385970 116.0293750 115.0966790
  41.0656800 115.8298960 114.6324380  34.4309700 116.8213120 115.6843980
  33.5994580 116.5661830 116.0840490  35.0390680 116.8923890 116.4201900
  34.4110960 120.8553210 115.8802000  34.7139000 119.9650950 115.7012220
  35.1554550 121.4123430 115.6524250  32.8401650 111.7815010 109.4686370
  31.9518350 112.1230980 109.3666250  33.1242840 111.5815330 108.5767200
  30.8034660 114.3820660 115.3526070  31.3750770 113.6142860 115.3529710
  30.8036200 114.6809420 114.4432680  40.6614610 123.2011510 113.2071340
  40.0426050 123.6569010 112.6365780  41.5166390 123.3562970 112.8061040
  39.8552860 119.1850500 114.8138380  39.7861140 118.2440440 114.6527510
  40.6172720 119.2751910 115.3860950  32.0459530 109.7905020 117.1395000
  31.8662370 108.8930770 117.4197760  31.6439610 110.3376890 117.8141950
  40.8858030 111.9920880 115.0407310  41.2622850 111.1192760 114.9280980
  40.7877540 112.3279580 114.1497750  35.0163040 110.3646510 110.5024750
  35.1229790 111.2650240 110.8093510  34.1055400 110.3164480 110.2119400
  32.6646200 112.2865520 115.7477340  33.3456310 112.5503890 116.3664740
  32.3494250 111.4466390 116.0815350  36.8570770 113.3332880 114.8349930
  37.3648990 113.8313850 115.4754950  37.3884010 112.5568080 114.6589290
  48.9581700 111.5038070 118.5379280  48.2533870 111.8919780 118.0194390
  49.2239620 112.1988360 119.1400210  35.1406870 107.9731440 119.1013350
  35.1425310 108.4903830 118.2959250  34.3111180 107.4961620 119.0783280
  41.5277960 118.0850750 110.6003250  40.9095230 118.5500200 110.0365970
  42.0401210 118.7778230 111.0172760  36.3909720 117.6126620 117.2786850
  36.0579100 118.2395540 117.9207920  36.5676400 118.1388500 116.4988520
  44.9043630 111.4271700 114.7463190  44.1999200 111.7156590 115.3266300
  45.2655790 112.2371810 114.3862750  34.8222200 109.6841400 117.1083800
  35.1639010 110.5283450 116.8137670  33.8838010 109.8325140 117.2249140
  35.6028820 119.5807420 119.0936030  36.2202820 120.2558500 118.8120480
  34.7421940 119.9895400 119.0023530  30.8961160 118.7707280 107.9742880
  30.5189140 119.2594380 107.2427780  31.1534230 119.4432560 108.6049410
  46.5206410 121.0446830 117.0090670  45.8369930 121.7145940 117.0007340
  47.0600700 121.2427480 116.2435530  47.9730550 110.8726490 115.1372400
  47.0255460 110.9065470 115.2687830  48.2980540 111.6865440 115.5221760
  44.0565150 122.8890960 115.7235850  44.0692310 122.4853250 114.8558110
  43.5040370 123.6638250 115.6197280  43.4550590 117.7920800 117.0518460
  43.8719380 117.5780910 116.2171920  44.1790410 118.0493590 117.6227080
  40.8930850 115.2372500 110.1688510  39.9660130 115.1709880 110.3976980
  41.0455670 116.1752630 110.0543750  40.8799930 111.5089500 107.1655670
  39.9403600 111.6703460 107.2508130  41.1983190 112.2275180 106.6191660
  44.9228140 116.7992800 110.6723760  44.3040560 116.4612350 110.0250060
  44.9052590 116.1552560 111.3802950  44.3654700 112.9777340 118.0889570
  43.9525880 113.8031050 118.3429560  43.6330650 112.3922380 117.8965930
  36.4987490 115.7637240 112.9508240  36.0944490 115.0514490 112.4554140
  36.5850610 115.4190480 113.8396280  36.9669190 119.4504800 115.1147450
  36.6697480 118.8450270 114.4355230  37.9169010 119.4882110 115.0036810
  35.2116110 112.5380450 116.7307280  35.7630700 112.6475790 115.9560530
  35.7259620 112.9118050 117.4462510  45.0554800 123.0236670 118.7770550
  44.5785360 123.8308860 118.5843160  44.3716590 122.3715000 118.9296760
  36.0587620 119.1886490 121.7655250  35.1616150 119.4126460 122.0128650
  36.0840490 119.3121430 120.8166650  43.0992840 116.0379610 107.6796510
  43.5386120 115.2002040 107.5334330  43.8121260 116.6709010 107.7660650
  34.8858840 116.0599810 120.3412620  34.7466610 116.9322610 120.7100020
  34.0040200 115.7172620 120.1960560  41.2088220 120.9775680 111.6477750
  41.6484130 121.7200010 111.2333140  41.1475110 121.2202250 112.5716710
  36.6839190 122.0021510 122.5497770  36.6554620 122.4064460 121.6826200
  36.5204160 121.0731870 122.3869370  33.1992120 114.6582220 110.4514890
  33.0789720 115.3844310 109.8396160  32.8893010 113.8885130 109.9742800
  48.6354010 122.7848610 123.8461940  49.1113730 123.2631500 124.5251020
  49.2561170 122.7166100 123.1207440  30.8377490 117.8297360 116.2583530
  30.9157910 117.9646130 115.3139250  31.4519170 117.1213250 116.4511650
  32.0825120 119.5297550 112.6689710  31.6753200 119.6712140 111.8143310
  32.9738130 119.2457710 112.4660920  48.0387260 119.9761460 121.0061950
  48.1650320 119.7373340 120.0879130  48.0808640 119.1446000 121.4784030
  41.9004000 123.6789460 119.5756760  42.4148670 123.5897470 120.3779190
  41.0573080 124.0249160 119.8684670  43.8758400 123.9644800 109.0040760
  43.7159540 123.6747740 109.9022590  43.7105110 123.1884930 108.4685990
  36.3546780 123.7443330 110.7812380  36.1789260 122.8278870 110.5680180
  35.5002520 124.1030620 111.0210180  43.5784530 121.4732360 107.5638760
  42.8849690 121.4709650 106.9041040  44.3207390 121.0491680 107.1332930
  43.1434460 123.0995070 111.6387250  43.5991410 122.3184450 111.9525870
  43.4826980 123.8101890 112.1828430  47.8911270 112.0293920 121.9711690
  47.2755540 112.5373590 121.4427150  47.5707690 111.1292250 121.9137630
  30.8937010 118.8711530 118.7977990  31.0568050 118.4016890 117.9797360
  31.3589460 118.3635090 119.4626830  35.6655780 108.0017290 113.8338560
  35.2223930 108.7826830 113.5023080  36.2240770 108.3247180 114.5409500
  39.9525590 110.8685810 119.4373880  39.4904960 111.0768830 120.2493820
  39.5503700 110.0545160 119.1344550  44.9530100 112.0894760 120.5670540
  44.1023690 111.7900510 120.8879610  44.7931890 112.3336770 119.6554360
  42.0479810 113.5896510 122.6669330  42.3733220 112.7560260 122.3271560
  42.8360140 114.1125030 122.8147660  35.4570000 113.1250860 111.5619810
  35.2310920 112.9088030 112.4666430  34.6762530 113.5579320 111.2165780
  42.6867760 113.1314230 110.1610460  42.0876650 113.8550030 109.9774080
  43.2347370 113.0691010 109.3786910  37.8969210 114.0236440 122.2280080
  37.8012810 113.0831170 122.0780480  38.7401190 114.2451510 121.8328150
  33.0279750 110.4350110 120.3813860  32.6343140 111.2825320 120.5886640
  32.3398150 109.7976480 120.5722500  39.6024800 110.5185080 123.4510600
  38.9123120 110.3257280 124.0856690  40.3457100 110.8019720 123.9834900
  30.3296800 108.3578570 114.4143940  30.0409850 108.9281430 115.1268920
  31.0742560 107.8783020 114.7775170  30.5167030 112.2998690 105.6246660
  30.4341700 113.2429450 105.7661650  30.1650090 112.1573600 104.7459010
  41.8787770 114.3583520 116.2864520  41.1468890 114.8670330 116.6354620
  41.4812110 113.5413500 115.9853300  34.1667540 110.9164210 113.6511220
  33.8267590 111.3939440 114.4078270  33.4044860 110.4629330 113.2912320
  38.3785310 112.0349800 107.6823770  38.4998130 111.9936280 108.6309590
  37.9933820 112.8973950 107.5270500  37.3906810 114.3450940 107.0807070
  36.8223710 113.8969190 106.4542980  38.0995810 114.7043720 106.5472220
  45.7684430 107.2249380 121.5373840  46.0930200 106.4939040 122.0631820
  45.8040940 106.9063020 120.6354830  32.4675990 118.2462960 120.9573800
  32.0830780 117.6056630 121.5556760  32.7788180 118.9499080 121.5268530
  38.6173130 115.0939500 116.4382420  38.9843260 114.6198070 117.1843760
  38.4278190 115.9681070 116.7790760  31.4813620 109.8383190 112.5675890
  31.1960540 109.4738860 113.4054510  31.4192480 109.1063650 111.9539030
  36.4072500 114.1348140 118.7566630  36.1029570 115.0140120 118.9816990
  37.3618960 114.1947930 118.7924070  34.9354290 118.3409130 109.3533480
  34.1616550 117.8006750 109.1932200  35.6648920 117.8215740 109.0151240
  45.6942270 117.3374490 115.1459870  46.4141390 117.8329780 114.7555980
  45.4924090 116.6592380 114.5013740  41.0761070 117.4083550 121.0328870
  41.0098380 116.4879220 120.7786460  40.4466210 117.5058990 121.7473510
  34.9791690 118.0089510 112.9912290  35.4970360 117.2057770 112.9369180
  34.5275710 117.9468650 113.8329120  39.8661190 119.2755790 108.2639590
  40.2076890 120.0198020 107.7682910  39.0373900 119.5886910 108.6264420
  32.4636230 114.9750880 119.9037990  32.1051170 115.6404730 120.4911330
  32.1690790 114.1434430 120.2750610  35.6649350 115.4335120 122.7877540
  35.3649490 115.5792300 121.8905360  36.4360590 114.8740410 122.6950930
  41.0077800 120.2304120 120.7832670  41.0222340 119.2985080 120.5651580
  40.3002900 120.3163880 121.4222440  42.7488600 118.5971630 113.6285100
  43.1012420 117.9999760 112.9686470  41.8650930 118.2715860 113.7993350
  38.8351880 119.3569320 111.0355510  39.5223010 119.9038530 111.4163100
  38.0484300 119.9010050 111.0705120  30.9744280 114.9742140 106.5272590
  31.8439130 115.2566940 106.8108510  30.4834600 115.7878010 106.4121400
  38.1379090 116.3615350 110.6480870  38.5941870 117.1720600 110.8741060
  37.7867300 116.0438490 111.4799360  40.4411700 121.8721690 117.8773170
  41.0853920 122.0781070 118.5546590  40.8041140 121.1110090 117.4244020
  34.0390870 106.7053000 111.1203390  33.9105500 106.6970900 112.0688310
  33.2152890 107.0436090 110.7694400  41.7143780 119.8754040 116.5950620
  42.3566010 119.1747200 116.7082790  42.2393130 120.6552480 116.4147510
  45.5599500 120.1602660 106.3189760  45.3337080 119.4433100 106.9114400
  45.1695700 119.9115100 105.4811510  43.4881400 120.6748940 119.7986680
  43.8237640 121.2615630 120.4764600  42.5681740 120.5441650 120.0284470
  31.3415530 124.1869520 107.0934220  31.7013170 124.7858860 106.4391490
  31.2007870 124.7329410 107.8669250  31.0384800 108.4644120 120.5810090
  30.3243320 108.6641040 121.1862700  31.4579840 107.6883690 120.9524890
  31.3257390 122.4524380 121.5676620  31.4348510 121.5119120 121.4272010
  30.6737950 122.7179130 120.9190350  39.3169980 120.7240270 122.9674740
  38.9966850 120.0049510 123.5120430  38.6428340 121.3995340 123.0410800
  37.3584150 121.5700720 107.9107890  37.3494250 122.3030410 107.2952400
  36.4382510 121.3232300 108.0034850  32.9590790 116.7915610 108.6554650
  32.3518740 117.5314510 108.6649950  33.4340140 116.8814970 107.8292850
  42.5323580 110.9566430 118.3311540  42.9004400 110.1361640 118.6591110
  41.6721780 111.0168320 118.7467190  40.3443750 121.6328960 106.5733080
  40.4455730 121.4292950 105.6435060  39.4445490 121.3787240 106.7780860
  39.4925570 113.6106020 118.5549510  39.9910820 114.0851840 119.2201360
  39.6348520 112.6869540 118.7619540  38.9861860 124.1515280 111.2680750
  39.2403360 124.1136670 110.3460120  38.0374340 124.0248610 111.2609000
  36.0704660 110.4994400 107.9307690  36.9195190 110.9364550 107.8647880
  35.7035930 110.8114660 108.7579750  46.6992430 109.8273980 119.3977900
  46.1966030 110.5679380 119.7371710  47.5149090 110.2157980 119.0814690
  44.9914440 115.0707160 112.8439260  44.0504580 115.0857390 113.0186950
  45.3058510 114.2843120 113.2899560  34.9696080 116.7526760 106.4043220
  35.7359350 116.6408120 106.9668650  35.0470770 116.0564730 105.7519990
  33.6642840 114.1851830 107.0876110  33.7446430 113.2379340 107.1993510
  34.5562590 114.5158710 107.1936770  34.4657550 124.3347220 114.1910650
  35.2020030 123.7862680 114.4619220  34.8498470 125.2003230 114.0516640
  31.3503030 120.4020790 110.0652160  30.4242810 120.6441930 110.0557570
  31.8159460 121.2295050 109.9436910  33.4715830 123.5193290 123.3796230
  34.2728560 123.8405340 123.7931630  32.9567650 123.1588870 124.1016140
  37.5759860 123.5077530 106.0136220  38.3688470 123.7966360 105.5618010
  37.0564210 123.0769700 105.3348700  42.3080460 119.6273160 123.3271640
  41.7018620 119.6504760 122.5867390  42.0034570 118.8956200 123.8638890
  43.7380830 123.3553450 121.9381050  44.6902580 123.2711470 121.8881290
  43.5909050 124.0195160 122.6114840  31.1913640 116.0066750 122.3232280
  31.6952660 115.4274030 122.8948510  30.4521060 116.2906980 122.8608650
  38.0937260 118.7280940 105.8778570  37.9887900 118.1133290 106.6039950
  37.9261480 118.2046830 105.0941580  38.2451580 117.4137740 121.8567800
  37.4797250 117.9822740 121.7722470  38.4267540 117.1213950 120.9636030
  41.3339990 117.7900970 106.4820560  40.7850090 118.2370270 107.1263300
  41.9559250 117.2850220 107.0058230  45.3874930 119.1443070 122.4142820
  46.1284400 119.4818830 121.9110280  44.6247610 119.3135130 121.8612590
  33.2236720 114.1496340 123.2182350  33.2642060 113.8510210 124.1267580
  34.0782220 114.5503950 123.0589870  37.0015110 116.7491890 108.3785860
  37.4231530 116.5831760 109.2217250  37.1265950 115.9392120 107.8841000
  35.1642530 112.7288440 121.1856840  34.6338990 112.2379390 120.5580180
  35.8330600 113.1572640 120.6514770  39.5142750 115.7729500 105.6262960
  40.0348410 115.0578520 105.2604110  40.1611150 116.4115370 105.9263470
  44.0620590 117.1957900 120.9498030  44.4761610 117.3502980 121.7988450
  43.1271590 117.3213120 121.1123810  44.5342760 114.5354060 122.9537180
  45.1163530 113.7806380 122.8657660  44.7104530 115.0661500 122.1768660
  35.6514830 109.6950810 121.2654130  35.5571700 109.0771560 120.5405000
  35.0712220 110.4217100 121.0384040  38.4176270 108.2524050 118.2981520
  37.9693570 108.2748310 117.4527070  37.7841470 107.8543070 118.8951820
  38.8235820 117.1478380 118.9193960  39.2423930 117.9911110 118.7470200
  37.9044450 117.2850420 118.6900740  41.1599720 114.8794560 120.3031800
  41.2795930 114.2835700 121.0426640  42.0193720 114.9164250 119.8833100
  43.4987620 115.4331750 118.8794310  42.9722840 115.9574370 118.2759450
  43.8418960 116.0659140 119.5104040  35.8974010 112.8225120 105.3244020
  35.6963070 111.9592480 105.6857360  35.7266060 112.7358480 104.3865620
  36.6743240 123.4531390 120.0351690  36.1364330 124.1777450 119.7160390
  36.9277200 122.9761730 119.2449030  37.9268490 111.4215910 121.5607620
  38.5168180 111.1131760 122.2485440  37.1088730 110.9495660 121.7167520
  42.7461920 111.0381720 121.7940640  42.0577440 110.3763260 121.7290630
  43.4667940 110.5919990 122.2389100  34.6956810 109.9225740 105.3121900
  34.9982710 109.9293170 104.4041050  35.4351400 109.5723600 105.8089560
  39.5305450 124.6882600 120.2938340  39.4564150 125.5917740 120.6010710
  38.6284290 124.3694500 120.2660410  37.9141740 108.8660360 106.2978100
  37.5663740 108.1884350 105.7180550  38.1154510 108.4049870 107.1121490
  40.0790780 123.8541110 107.9164700  40.9741570 124.1926080 107.9383460
  40.1108410 123.1320520 107.2888980  33.7186940 119.2268160 106.1451700
  34.1561810 119.7697830 106.8009280  34.2034670 118.4015110 106.1548040
  30.9332740 122.0157190 113.5971960  31.2635750 121.1478250 113.3650600
  31.3623740 122.2215710 114.4276920  35.5294660 120.3466200 111.2573930
  35.2290200 120.2231170 112.1577840  35.4232150 119.4874790 110.8489660
  31.4222950 122.8827780 116.3353590  30.9853940 123.0628580 117.1677740
  31.9900630 123.6402400 116.1935310  47.0585130 122.3844780 120.6230900
  46.4587120 122.4437340 119.8794820  47.1879030 121.4449760 120.7527750
  31.2547380 115.3948010 112.6942470  30.5996220 115.1259650 112.0502170
  32.0925330 115.2852490 112.2444450  45.7436770 119.1096760 118.7207060
  44.9296610 119.5393920 118.9832850  46.1510970 119.7215170 118.1076110
  32.2923310 115.7800580 117.2345810  32.6596350 115.6927980 118.1141830
  31.7234130 115.0167130 117.1352670  47.0927170 114.2484960 120.2476280
  46.8613260 114.0197710 119.3474230  47.3531720 115.1684510 120.2021170
  31.8439310 112.6909670 121.1404230  30.9495360 112.6576430 121.4797940
  32.3836860 112.8896460 121.9055480  45.5315240 109.4741390 123.0255980
  46.4085420 109.4824790 123.4089980  45.5436080 108.7372230 122.4148330
  30.4685460 112.6046940 108.6367800  29.5649540 112.8677140 108.4619460
  30.9526080 112.8758110 107.8567760  46.9778510 113.3270930 113.9144000
  47.5015990 112.8333580 113.2834170  47.5637930 113.4621290 114.6591570
  47.1568230 113.4110800 117.4363550  46.2070940 113.3774340 117.5508540
  47.3381240 114.3210910 117.2013320  33.0112670 111.6612480 106.5462180
  33.7204370 111.2395700 106.0609460  32.2952610 111.7287710 105.9145530
  32.3479020 106.9658000 115.4887450  32.9955210 106.4155380 115.0482610
  32.7680860 107.2201150 116.3103260  46.2431360 107.1599360 118.8457090
  46.8803580 107.7733500 119.2116280  46.3906250 107.1960020 117.9006320
  32.1011020 107.1213670 118.2312770  31.7525840 107.5777490 118.9970950
  31.7698720 106.2270800 118.3135200  33.7075390 120.2933270 122.3965960
  33.6645020 119.9226180 123.2780420  33.8386400 121.2310840 122.5367780
  37.4081420 121.8492860 117.9975680  37.1672780 122.1167420 117.1106200
  38.3484060 122.0198590 118.0526540  39.6135840 108.3125550 121.7532190
  39.5524730 108.9047380 122.5027600  40.5536220 108.2051510 121.6082450
  42.2510400 107.9695610 121.3924480  42.8650810 108.2874900 120.7305560
  42.7959960 107.4844200 122.0120340  48.6685580 123.8687240 118.7986320
  48.1743860 124.2656110 118.0813450  48.0598870 123.2436450 119.1923600
  32.7731660 106.6489870 121.5063540  33.3214650 106.4677920 120.7429650
  32.8386970 105.8583980 122.0419850  33.5463420 123.2395520 119.5163740
  32.9523740 123.1080220 120.2553780  33.5387260 122.4033660 119.0505840
  42.9918440 106.5327750 117.7193770  42.1178280 106.8662860 117.5166700
  42.8829190 106.0600930 118.5445640  43.8990420 108.7398620 119.1035490
  43.5703780 107.9250380 118.7237220  44.8472720 108.6968430 118.9801180
  46.3525030 124.5110660 116.0773060  45.8928000 125.2626470 115.7031080
  45.7237490 123.7917130 116.0187860  33.1775650 120.6053900 118.4671780
  32.4509710 119.9859190 118.3997730  33.2384800 120.9994510 117.5969860
  36.7820750 122.8198900 115.2521190  37.2985770 122.2086260 114.7269450
  37.4318130 123.3227680 115.7432200  39.5216250 123.7107390 116.0790170
  39.8094060 123.4561690 115.2023180  40.0339470 123.1584750 116.6695740
  47.1552900 107.7835930 112.7144590  47.0941300 106.8397150 112.5675610
  47.9344930 107.8916020 113.2598050  31.4605650 123.9228290 111.6768540
  31.2927690 123.2898970 112.3750430  30.5940160 124.1287690 111.3262730
  32.0833670 107.7545070 109.1800400  32.8413030 107.8673950 108.6064430
  31.6210840 108.5914270 109.1343830  33.0668350 122.6161520 109.1218680
  32.5415970 122.9969550 108.4180640  32.9912930 123.2412290 109.8428390
  34.4558820 108.2809120 107.7202370  34.9851580 107.4938920 107.5910320
  35.0887140 108.9600310 107.9537900  39.5888610 124.6323490 123.4458370
  40.5155920 124.3967760 123.4894330  39.5739040 125.4595490 122.9644400
  36.7752220 107.2968240 123.2100250  36.4936490 107.8001840 122.4461070
  37.1571920 106.4989990 122.8442380  35.6661320 124.5643900 107.9967930
  36.3980140 124.2803180 107.4491820  35.9254990 124.3257180 108.8867310
  34.8276110 120.6808630 108.0014260  34.1984990 121.1493730 108.5500090
  34.9423940 119.8357850 108.4360450  43.3767680 106.7121820 123.7880720
  43.2633130 107.0316430 124.6832240  44.1937420 107.1134330 123.4918000
  46.1566170 123.8593350 123.2699410  46.9491490 123.3642580 123.0625370
  46.4499320 124.5383490 123.8775020  42.2825830 114.7314290  94.1515460
  42.2019880 113.8168900  93.8807170  41.8690250 115.2281360  93.4455170
  40.4143870 116.5093310  96.0324730  39.6385970 116.0293750  96.3223300
  41.0656800 115.8298960  95.8580890  34.4110960 120.8553210  97.1058510
  34.7139000 119.9650950  96.9268730  35.1554550 121.4123430  96.8780760
  32.8401650 111.7815010  90.6942880  31.9518350 112.1230980  90.5922760
  33.1242840 111.5815330  89.8023710  40.6614610 123.2011510  94.4327850
  40.0426050 123.6569010  93.8622290  41.5166390 123.3562970  94.0317550
  39.8552860 119.1850500  96.0394890  39.7861140 118.2440440  95.8784020
  40.6172720 119.2751910  96.6117460  44.6682150 109.4871320  93.1992160
  45.4891770 108.9967890  93.2417640  44.7016230 110.0768980  93.9524000
  41.5277960 118.0850750  91.8259760  40.9095230 118.5500200  91.2622480
  42.0401210 118.7778230  92.2429270  44.9043630 111.4271700  95.9719700
  44.1999200 111.7156590  96.5522810  45.2655790 112.2371810  95.6119260
  35.6028820 119.5807420 100.3192540  36.2202820 120.2558500 100.0376990
  34.7421940 119.9895400 100.2280040  30.8961160 118.7707280  89.1999390
  30.5189140 119.2594380  88.4684290  31.1534230 119.4432560  89.8305920
  40.8930850 115.2372500  91.3945020  39.9660130 115.1709880  91.6233490
  41.0455670 116.1752630  91.2800260  47.4012690 116.1908020  98.3691210
  46.5731320 116.2601110  97.8941340  47.9963170 116.7762330  97.9007040
  44.3654700 112.9777340  99.3146080  43.9525880 113.8031050  99.5686070
  43.6330650 112.3922380  99.1222440  36.9669190 119.4504800  96.3403960
  36.6697480 118.8450270  95.6611740  37.9169010 119.4882110  96.2293320
  36.0587620 119.1886490 102.9911760  35.1616150 119.4126460 103.2385160
  36.0840490 119.3121430 102.0423160  41.2088220 120.9775680  92.8734260
  41.6484130 121.7200010  92.4589650  41.1475110 121.2202250  93.7973220
  36.6839190 122.0021510 103.7754280  36.6554620 122.4064460 102.9082710
  36.5204160 121.0731870 103.6125880  33.1992120 114.6582220  91.6771400
  33.0789720 115.3844310  91.0652670  32.8893010 113.8885130  91.1999310
  32.0825120 119.5297550  93.8946220  31.6753200 119.6712140  93.0399820
  32.9738130 119.2457710  93.6917430  41.9004000 123.6789460 100.8013270
  42.4148670 123.5897470 101.6035700  41.0573080 124.0249160 101.0941180
  43.8758400 123.9644800  90.2297270  43.7159540 123.6747740  91.1279100
  43.7105110 123.1884930  89.6942500  36.3546780 123.7443330  92.0068890
  36.1789260 122.8278870  91.7936690  35.5002520 124.1030620  92.2466690
  43.5784530 121.4732360  88.7895270  42.8849690 121.4709650  88.1297550
  44.3207390 121.0491680  88.3589440  43.1434460 123.0995070  92.8643760
  43.5991410 122.3184450  93.1782380  43.4826980 123.8101890  93.4084940
  47.8911270 112.0293920 103.1968200  47.2755540 112.5373590 102.6683660
  47.5707690 111.1292250 103.1394140  30.8937010 118.8711530 100.0234500
  31.0568050 118.4016890  99.2053870  31.3589460 118.3635090 100.6883340
  44.9530100 112.0894760 101.7927050  44.1023690 111.7900510 102.1136120
  44.7931890 112.3336770 100.8810870  42.0479810 113.5896510 103.8925840
  42.3733220 112.7560260 103.5528070  42.8360140 114.1125030 104.0404170
  42.6867760 113.1314230  91.3866970  42.0876650 113.8550030  91.2030590
  43.2347370 113.0691010  90.6043420  37.8969210 114.0236440 103.4536590
  37.8012810 113.0831170 103.3036990  38.7401190 114.2451510 103.0584660
  39.6024800 110.5185080 104.6767110  38.9123120 110.3257280 105.3113200
  40.3457100 110.8019720 105.2091410  30.5167030 112.2998690  86.8503170
  30.4341700 113.2429450  86.9918160  30.1650090 112.1573600  85.9715520
  41.8787770 114.3583520  97.5121030  41.1468890 114.8670330  97.8611130
  41.4812110 113.5413500  97.2109810  45.7684430 107.2249380 102.7630350
  46.0930200 106.4939040 103.2888330  45.8040940 106.9063020 101.8611340
  32.4675990 118.2462960 102.1830310  32.0830780 117.6056630 102.7813270
  32.7788180 118.9499080 102.7525040  31.4813620 109.8383190  93.7932400
  31.1960540 109.4738860  94.6311020  31.4192480 109.1063650  93.1795540
  34.9354290 118.3409130  90.5789990  34.1616550 117.8006750  90.4188710
  35.6648920 117.8215740  90.2407750  45.6942270 117.3374490  96.3716380
  46.4141390 117.8329780  95.9812490  45.4924090 116.6592380  95.7270250
  41.0761070 117.4083550 102.2585380  41.0098380 116.4879220 102.0042970
  40.4466210 117.5058990 102.9730020  39.8661190 119.2755790  89.4896100
  40.2076890 120.0198020  88.9939420  39.0373900 119.5886910  89.8520930
  35.6649350 115.4335120 104.0134050  35.3649490 115.5792300 103.1161870
  36.4360590 114.8740410 103.9207440  41.0077800 120.2304120 102.0089180
  41.0222340 119.2985080 101.7908090  40.3002900 120.3163880 102.6478950
  47.2189010 116.8711460 101.3557760  46.4937200 117.4640240 101.1587150
  47.7464470 116.8635000 100.5571130  47.1702120 121.2686200  91.0069920
  46.5278280 120.6141820  91.2813640  46.7832780 121.6741290  90.2310590
  42.7488600 118.5971630  94.8541610  43.1012420 117.9999760  94.1942980
  41.8650930 118.2715860  95.0249860  38.8351880 119.3569320  92.2612020
  39.5223010 119.9038530  92.6419610  38.0484300 119.9010050  92.2961630
  30.9744280 114.9742140  87.7529100  31.8439130 115.2566940  88.0365020
  30.4834600 115.7878010  87.6377910  38.1379090 116.3615350  91.8737380
  38.5941870 117.1720600  92.0997570  37.7867300 116.0438490  92.7055870
  40.4411700 121.8721690  99.1029680  41.0853920 122.0781070  99.7803100
  40.8041140 121.1110090  98.6500530  41.7143780 119.8754040  97.8207130
  42.3566010 119.1747200  97.9339300  42.2393130 120.6552480  97.6404020
  31.3415530 124.1869520  88.3190730  31.7013170 124.7858860  87.6648000
  31.2007870 124.7329410  89.0925760  31.3257390 122.4524380 102.7933130
  31.4348510 121.5119120 102.6528520  30.6737950 122.7179130 102.1446860
  39.3169980 120.7240270 104.1931250  38.9966850 120.0049510 104.7376940
  38.6428340 121.3995340 104.2667310  32.9590790 116.7915610  89.8811160
  32.3518740 117.5314510  89.8906460  33.4340140 116.8814970  89.0549360
  45.8985610 109.9123370  90.3655610  45.2698770 110.0169040  89.6513840
  45.4037530 110.1320150  91.1549490  40.3443750 121.6328960  87.7989590
  40.4455730 121.4292950  86.8691570  39.4445490 121.3787240  88.0037370
  38.9861860 124.1515280  92.4937260  39.2403360 124.1136670  91.5716630
  38.0374340 124.0248610  92.4865510  46.6992430 109.8273980 100.6234410
  46.1966030 110.5679380 100.9628220  47.5149090 110.2157980 100.3071200
  44.9914440 115.0707160  94.0695770  44.0504580 115.0857390  94.2443460
  45.3058510 114.2843120  94.5156070  34.9696080 116.7526760  87.6299730
  35.7359350 116.6408120  88.1925160  35.0470770 116.0564730  86.9776500
  33.6642840 114.1851830  88.3132620  33.7446430 113.2379340  88.4250020
  34.5562590 114.5158710  88.4193280  34.4657550 124.3347220  95.4167160
  35.2020030 123.7862680  95.6875730  34.8498470 125.2003230  95.2773150
  31.3503030 120.4020790  91.2908670  30.4242810 120.6441930  91.2814080
  31.8159460 121.2295050  91.1693420  33.4715830 123.5193290 104.6052740
  34.2728560 123.8405340 105.0188140  32.9567650 123.1588870 105.3272650
  42.3080460 119.6273160 104.5528150  41.7018620 119.6504760 103.8123900
  42.0034570 118.8956200 105.0895400  46.6290030 122.7347660  88.6629470
  46.3431540 122.3212800  87.8483650  46.4309580 123.6635370  88.5429990
  31.1913640 116.0066750 103.5488790  31.6952660 115.4274030 104.1205020
  30.4521060 116.2906980 104.0865160  38.0937260 118.7280940  87.1035080
  37.9887900 118.1133290  87.8296460  37.9261480 118.2046830  86.3198090
  38.2451580 117.4137740 103.0824310  37.4797250 117.9822740 102.9978980
  38.4267540 117.1213950 102.1892540  33.2236720 114.1496340 104.4438860
  33.2642060 113.8510210 105.3524090  34.0782220 114.5503950 104.2846380
  37.0015110 116.7491890  89.6042370  37.4231530 116.5831760  90.4473760
  37.1265950 115.9392120  89.1097510  44.0620590 117.1957900 102.1754540
  44.4761610 117.3502980 103.0244960  43.1271590 117.3213120 102.3380320
  44.5342760 114.5354060 104.1793690  45.1163530 113.7806380 104.0914170
  44.7104530 115.0661500 103.4025170  41.1599720 114.8794560 101.5288310
  41.2795930 114.2835700 102.2683150  42.0193720 114.9164250 101.1089610
  43.4987620 115.4331750 100.1050820  42.9722840 115.9574370  99.5015960
  43.8418960 116.0659140 100.7360550  35.8974010 112.8225120  86.5500530
  35.6963070 111.9592480  86.9113870  35.7266060 112.7358480  85.6122130
  36.6743240 123.4531390 101.2608200  36.1364330 124.1777450 100.9416900
  36.9277200 122.9761730 100.4705540  37.9268490 111.4215910 102.7864130
  38.5168180 111.1131760 103.4741950  37.1088730 110.9495660 102.9424030
  42.7461920 111.0381720 103.0197150  42.0577440 110.3763260 102.9547140
  43.4667940 110.5919990 103.4645610  34.6956810 109.9225740  86.5378410
  34.9982710 109.9293170  85.6297560  35.4351400 109.5723600  87.0346070
  39.5305450 124.6882600 101.5194850  39.4564150 125.5917740 101.8267220
  38.6284290 124.3694500 101.4916920  33.7186940 119.2268160  87.3708210
  34.1561810 119.7697830  88.0265790  34.2034670 118.4015110  87.3804550
  30.9332740 122.0157190  94.8228470  31.2635750 121.1478250  94.5907110
  31.3623740 122.2215710  95.6533430  35.5294660 120.3466200  92.4830440
  35.2290200 120.2231170  93.3834350  35.4232150 119.4874790  92.0746170
  31.4222950 122.8827780  97.5610100  30.9853940 123.0628580  98.3934250
  31.9900630 123.6402400  97.4191820  48.2986580 120.1262600  87.1857120
  47.4679540 120.1939250  87.6564350  48.4758410 121.0166720  86.8823980
  48.7603010 117.7260180  94.5333250  49.1311840 116.9427500  94.1269220
  49.4004940 118.4149280  94.3550550  47.0927170 114.2484960 101.4732790
  46.8613260 114.0197710 100.5730740  47.3531720 115.1684510 101.4277680
  30.4685460 112.6046940  89.8624310  29.5649540 112.8677140  89.6875970
  30.9526080 112.8758110  89.0824270  46.9778510 113.3270930  95.1400510
  47.5015990 112.8333580  94.5090680  47.5637930 113.4621290  95.8848080
  47.1568230 113.4110800  98.6620060  46.2070940 113.3774340  98.7765050
  47.3381240 114.3210910  98.4269830  33.0112670 111.6612480  87.7718690
  33.7204370 111.2395700  87.2865970  32.2952610 111.7287710  87.1402040
  47.8965640 111.2205230  93.6130600  47.7864920 111.0661270  94.5512870
  48.6573230 110.6926170  93.3706010  46.2431360 107.1599360 100.0713600
  46.8803580 107.7733500 100.4372790  46.3906250 107.1960020  99.1262830
  45.8012820 123.8615360  93.4731840  46.3971890 123.5399930  92.7966260
  46.0590970 123.3887180  94.2645110  33.7075390 120.2933270 103.6222470
  33.6645020 119.9226180 104.5036930  33.8386400 121.2310840 103.7624290
  37.4081420 121.8492860  99.2232190  37.1672780 122.1167420  98.3362710
  38.3484060 122.0198590  99.2783050  42.2510400 107.9695610 102.6180990
  42.8650810 108.2874900 101.9562070  42.7959960 107.4844200 103.2376850
  33.5463420 123.2395520 100.7420250  32.9523740 123.1080220 101.4810290
  33.5387260 122.4033660 100.2762350  42.9918440 106.5327750  98.9450280
  42.1178280 106.8662860  98.7423210  42.8829190 106.0600930  99.7702150
  43.8990420 108.7398620 100.3292000  43.5703780 107.9250380  99.9493730
  44.8472720 108.6968430 100.2057690  33.1775650 120.6053900  99.6928290
  32.4509710 119.9859190  99.6254240  33.2384800 120.9994510  98.8226370
  36.7820750 122.8198900  96.4777700  37.2985770 122.2086260  95.9525960
  37.4318130 123.3227680  96.9688710  39.5216250 123.7107390  97.3046680
  39.8094060 123.4561690  96.4279690  40.0339470 123.1584750  97.8952250
  45.2914330 108.1520690  95.9292280  45.7322420 108.0965790  95.0813880
  45.0221920 109.0678700  96.0002460  47.1552900 107.7835930  93.9401100
  47.0941300 106.8397150  93.7932120  47.9344930 107.8916020  94.4854560
  31.4605650 123.9228290  92.9025050  31.2927690 123.2898970  93.6006940
  30.5940160 124.1287690  92.5519240  43.1272460 106.5326790  94.6342290
  43.7301830 107.1047000  95.1090810  42.3865450 107.0966230  94.4116190
  33.0668350 122.6161520  90.3475190  32.5415970 122.9969550  89.6437150
  32.9912930 123.2412290  91.0684900  39.5888610 124.6323490 104.6714880
  40.5155920 124.3967760 104.7150840  39.5739040 125.4595490 104.1900910
  47.8233670 124.1749060  91.6689130  47.9985860 123.4886800  91.0250050
  47.1255240 124.6996110  91.2765800  36.7752220 107.2968240 104.4356760
  36.4936490 107.8001840 103.6717580  37.1571920 106.4989990 104.0698890
  43.3767680 106.7121820 105.0137230  43.2633130 107.0316430 105.9088750
  44.1937420 107.1134330 104.7174510  34.4110960 120.8553210  78.3315020
  34.7139000 119.9650950  78.1525240  35.1554550 121.4123430  78.1037270
  32.8401650 111.7815010  71.9199390  31.9518350 112.1230980  71.8179270
  33.1242840 111.5815330  71.0280220  30.8034660 114.3820660  77.8039090
  31.3750770 113.6142860  77.8042730  30.8036200 114.6809420  76.8945700
  32.0459530 109.7905020  79.5908020  31.8662370 108.8930770  79.8710780
  31.6439610 110.3376890  80.2654970  35.0163040 110.3646510  72.9537770
  35.1229790 111.2650240  73.2606530  34.1055400 110.3164480  72.6632420
  32.6646200 112.2865520  78.1990360  33.3456310 112.5503890  78.8177760
  32.3494250 111.4466390  78.5328370  35.1406870 107.9731440  81.5526370
  35.1425310 108.4903830  80.7472270  34.3111180 107.4961620  81.5296300
  36.3909720 117.6126620  79.7299870  36.0579100 118.2395540  80.3720940
  36.5676400 118.1388500  78.9501540  34.8222200 109.6841400  79.5596820
  35.1639010 110.5283450  79.2650690  33.8838010 109.8325140  79.6762160
  30.8961160 118.7707280  70.4255900  30.5189140 119.2594380  69.6940800
  31.1534230 119.4432560  71.0562430  38.5050090 107.1723670  75.8841410
  38.8125070 106.6170560  75.1676910  37.5750790 107.3068130  75.7014400
  40.8799930 111.5089500  69.6168690  39.9403600 111.6703460  69.7021150
  41.1983190 112.2275180  69.0704680  47.4012690 116.1908020  79.5947720
  46.5731320 116.2601110  79.1197850  47.9963170 116.7762330  79.1263550
  44.9228140 116.7992800  73.1236780  44.3040560 116.4612350  72.4763080
  44.9052590 116.1552560  73.8315970  35.2116110 112.5380450  79.1820300
  35.7630700 112.6475790  78.4073550  35.7259620 112.9118050  79.8975530
  43.0992840 116.0379610  70.1309530  43.5386120 115.2002040  69.9847350
  43.8121260 116.6709010  70.2173670  34.8858840 116.0599810  82.7925640
  34.7466610 116.9322610  83.1613040  34.0040200 115.7172620  82.6473580
  46.6809980 107.2922420  68.4450570  46.3682640 107.3849250  69.3449640
  47.4422450 107.8703450  68.3948000  33.1992120 114.6582220  72.9027910
  33.0789720 115.3844310  72.2909180  32.8893010 113.8885130  72.4255820
  48.6354010 122.7848610  86.2974960  49.1113730 123.2631500  86.9764040
  49.2561170 122.7166100  85.5720460  30.8377490 117.8297360  78.7096550
  30.9157910 117.9646130  77.7652270  31.4519170 117.1213250  78.9024670
  32.0825120 119.5297550  75.1202730  31.6753200 119.6712140  74.2656330
  32.9738130 119.2457710  74.9173940  48.0387260 119.9761460  83.4574970
  48.1650320 119.7373340  82.5392150  48.0808640 119.1446000  83.9297050
  36.3546780 123.7443330  73.2325400  36.1789260 122.8278870  73.0193200
  35.5002520 124.1030620  73.4723200  30.8937010 118.8711530  81.2491010
  31.0568050 118.4016890  80.4310380  31.3589460 118.3635090  81.9139850
  35.6655780 108.0017290  76.2851580  35.2223930 108.7826830  75.9536100
  36.2240770 108.3247180  76.9922520  39.9525590 110.8685810  81.8886900
  39.4904960 111.0768830  82.7006840  39.5503700 110.0545160  81.5857570
  38.7814600 107.6227990  71.1657410  38.1568780 107.6187860  71.8910720
  38.6944720 106.7558950  70.7693380  37.7031680 108.5464620  78.1441180
  38.0004010 109.4527450  78.0633200  38.2517240 108.0583400  77.5300750
  42.6867760 113.1314230  72.6123480  42.0876650 113.8550030  72.4287100
  43.2347370 113.0691010  71.8299930  41.2932630 111.7677770  74.6426760
  41.6862200 112.0849970  73.8295450  41.6549480 110.8889650  74.7571280
  33.0279750 110.4350110  82.8326880  32.6343140 111.2825320  83.0399660
  32.3398150 109.7976480  83.0235520  30.3296800 108.3578570  76.8656960
  30.0409850 108.9281430  77.5781940  31.0742560 107.8783020  77.2288190
  30.5167030 112.2998690  68.0759680  30.4341700 113.2429450  68.2174670
  30.1650090 112.1573600  67.1972030  41.8787770 114.3583520  78.7377540
  41.1468890 114.8670330  79.0867640  41.4812110 113.5413500  78.4366320
  38.3165160 111.0337720  77.1430030  38.3201220 110.5927670  76.2934570
  39.2116280 111.3555050  77.2501850  34.1667540 110.9164210  76.1024240
  33.8267590 111.3939440  76.8591290  33.4044860 110.4629330  75.7425340
  38.3785310 112.0349800  70.1336790  38.4998130 111.9936280  71.0822610
  37.9933820 112.8973950  69.9783520  37.3906810 114.3450940  69.5320090
  36.8223710 113.8969190  68.9056000  38.0995810 114.7043720  68.9985240
  32.4675990 118.2462960  83.4086820  32.0830780 117.6056630  84.0069780
  32.7788180 118.9499080  83.9781550  31.4813620 109.8383190  75.0188910
  31.1960540 109.4738860  75.8567530  31.4192480 109.1063650  74.4052050
  36.4072500 114.1348140  81.2079650  36.1029570 115.0140120  81.4330010
  37.3618960 114.1947930  81.2437090  45.6942270 117.3374490  77.5972890
  46.4141390 117.8329780  77.2069000  45.4924090 116.6592380  76.9526760
  41.1552210 108.7312450  71.7402280  40.3416820 108.2325620  71.6647590
  40.9614160 109.5710700  71.3238630  43.8700600 113.1032100  70.0364440
  44.7580220 113.4149330  69.8615780  43.8405690 112.2304350  69.6445020
  32.4636230 114.9750880  82.3551010  32.1051170 115.6404730  82.9424350
  32.1690790 114.1434430  82.7263630  35.6649350 115.4335120  85.2390560
  35.3649490 115.5792300  84.3418380  36.4360590 114.8740410  85.1463950
  46.1414870 114.4143940  69.5044300  46.0578590 114.8458160  68.6540740
  46.8609060 114.8742290  69.9371120  47.2189010 116.8711460  82.5814270
  46.4937200 117.4640240  82.3843660  47.7464470 116.8635000  81.7827640
  30.9744280 114.9742140  68.9785610  31.8439130 115.2566940  69.2621530
  30.4834600 115.7878010  68.8634420  34.0390870 106.7053000  73.5716410
  33.9105500 106.6970900  74.5201330  33.2152890 107.0436090  73.2207420
  31.3415530 124.1869520  69.5447240  31.7013170 124.7858860  68.8904510
  31.2007870 124.7329410  70.3182270  31.3257390 122.4524380  84.0189640
  31.4348510 121.5119120  83.8785030  30.6737950 122.7179130  83.3703370
  37.3584150 121.5700720  70.3620910  37.3494250 122.3030410  69.7465420
  36.4382510 121.3232300  70.4547870  32.9590790 116.7915610  71.1067670
  32.3518740 117.5314510  71.1162970  33.4340140 116.8814970  70.2805870
  45.8985610 109.9123370  71.5912120  45.2698770 110.0169040  70.8770350
  45.4037530 110.1320150  72.3806000  39.4925570 113.6106020  81.0062530
  39.9910820 114.0851840  81.6714380  39.6348520 112.6869540  81.2132560
  41.8985070 108.9159980  74.4465790  41.7752850 108.9346110  73.4975300
  42.8469630 108.9638920  74.5664190  38.9861860 124.1515280  73.7193770
  39.2403360 124.1136670  72.7973140  38.0374340 124.0248610  73.7122020
  36.0704660 110.4994400  70.3820710  36.9195190 110.9364550  70.3160900
  35.7035930 110.8114660  71.2092770  44.9914440 115.0707160  75.2952280
  44.0504580 115.0857390  75.4699970  45.3058510 114.2843120  75.7412580
  33.6642840 114.1851830  69.5389130  33.7446430 113.2379340  69.6506530
  34.5562590 114.5158710  69.6449790  34.4657550 124.3347220  76.6423670
  35.2020030 123.7862680  76.9132240  34.8498470 125.2003230  76.5029660
  31.3503030 120.4020790  72.5165180  30.4242810 120.6441930  72.5070590
  31.8159460 121.2295050  72.3949930  31.1913640 116.0066750  84.7745300
  31.6952660 115.4274030  85.3461530  30.4521060 116.2906980  85.3121670
  45.3874930 119.1443070  84.8655840  46.1284400 119.4818830  84.3623300
  44.6247610 119.3135130  84.3125610  33.2236720 114.1496340  85.6695370
  33.2642060 113.8510210  86.5780600  34.0782220 114.5503950  85.5102890
  35.1642530 112.7288440  83.6369860  34.6338990 112.2379390  83.0093200
  35.8330600 113.1572640  83.1027790  39.5142750 115.7729500  68.0775980
  40.0348410 115.0578520  67.7117130  40.1611150 116.4115370  68.3776490
  35.6514830 109.6950810  83.7167150  35.5571700 109.0771560  82.9918020
  35.0712220 110.4217100  83.4897060  38.4176270 108.2524050  80.7494540
  37.9693570 108.2748310  79.9040090  37.7841470 107.8543070  81.3464840
  43.4987620 115.4331750  81.3307330  42.9722840 115.9574370  80.7272470
  43.8418960 116.0659140  81.9617060  35.8974010 112.8225120  67.7757040
  35.6963070 111.9592480  68.1370380  35.7266060 112.7358480  66.8378640
  37.9268490 111.4215910  84.0120640  38.5168180 111.1131760  84.6998460
  37.1088730 110.9495660  84.1680540  43.3762320 107.6333350  70.3043920
  43.6564610 106.7901250  70.6603340  42.6028050 107.8656460  70.8182670
  34.6956810 109.9225740  67.7634920  34.9982710 109.9293170  66.8554070
  35.4351400 109.5723600  68.2602580  37.9141740 108.8660360  68.7491120
  37.5663740 108.1884350  68.1693570  38.1154510 108.4049870  69.5634510
  30.9332740 122.0157190  76.0484980  31.2635750 121.1478250  75.8163620
  31.3623740 122.2215710  76.8789940  35.5294660 120.3466200  73.7086950
  35.2290200 120.2231170  74.6090860  35.4232150 119.4874790  73.3002680
  31.4222950 122.8827780  78.7866610  30.9853940 123.0628580  79.6190760
  31.9900630 123.6402400  78.6448330  47.0585130 122.3844780  83.0743920
  46.4587120 122.4437340  82.3307840  47.1879030 121.4449760  83.2040770
  48.2986580 120.1262600  68.4113630  47.4679540 120.1939250  68.8820860
  48.4758410 121.0166720  68.1080490  47.7543040 116.8710080  70.9147830
  48.5161950 117.4406730  71.0207520  47.7697410 116.3037280  71.6856140
  31.2547380 115.3948010  75.1455490  30.5996220 115.1259650  74.5015190
  32.0925330 115.2852490  74.6957470  48.7603010 117.7260180  75.7589760
  49.1311840 116.9427500  75.3525730  49.4004940 118.4149280  75.5807060
  47.8062210 117.1644450  68.0720350  48.0811050 118.0723330  67.9439570
  47.6172950 117.1006980  69.0082340  44.2037820 110.1889300  69.3673980
  44.6222700 110.0020280  68.5270640  43.8973880 109.3368350  69.6776910
  47.7027550 115.1013440  73.0649780  47.3271150 114.3341370  72.6331070
  46.9730670 115.4836140  73.5524710  32.2923310 115.7800580  79.6858830
  32.6596350 115.6927980  80.5654850  31.7234130 115.0167130  79.5865690
  47.0927170 114.2484960  82.6989300  46.8613260 114.0197710  81.7987250
  47.3531720 115.1684510  82.6534190  31.8439310 112.6909670  83.5917250
  30.9495360 112.6576430  83.9310960  32.3836860 112.8896460  84.3568500
  30.4685460 112.6046940  71.0880820  29.5649540 112.8677140  70.9132480
  30.9526080 112.8758110  70.3080780  46.9778510 113.3270930  76.3657020
  47.5015990 112.8333580  75.7347190  47.5637930 113.4621290  77.1104590
  33.0112670 111.6612480  68.9975200  33.7204370 111.2395700  68.5122480
  32.2952610 111.7287710  68.3658550  32.6586830 107.7151810  68.0377850
  33.3814960 108.2560750  68.3559070  32.9311350 107.4415230  67.1619390
  46.4678480 112.5844280  72.3049430  46.9637600 112.3515150  73.0898310
  46.2694550 111.7456120  71.8887070  32.3479020 106.9658000  77.9400470
  32.9955210 106.4155380  77.4995630  32.7680860 107.2201150  78.7616280
  47.8965640 111.2205230  74.8387110  47.7864920 111.0661270  75.7769380
  48.6573230 110.6926170  74.5962520  48.7855910 109.0513150  68.0793250
  49.7105220 108.9194330  67.8711540  48.7631700 109.1305970  69.0329700
  48.8594400 109.8223810  70.7049960  48.0645900 109.7568930  71.2342870
  49.0637680 110.7574450  70.6935310  32.1011020 107.1213670  80.6825790
  31.7525840 107.5777490  81.4483970  31.7698720 106.2270800  80.7648220
  39.6135840 108.3125550  84.2045210  39.5524730 108.9047380  84.9540620
  40.5536220 108.2051510  84.0595470  48.6685580 123.8687240  81.2499340
  48.1743860 124.2656110  80.5326470  48.0598870 123.2436450  81.6436620
  33.1775650 120.6053900  80.9184800  32.4509710 119.9859190  80.8510750
  33.2384800 120.9994510  80.0482880  36.7820750 122.8198900  77.7034210
  37.2985770 122.2086260  77.1782470  37.4318130 123.3227680  78.1945220
  40.7393260 107.4497590  79.1099700  39.9565050 107.9243090  79.3896460
  40.4456190 106.5452420  79.0012880  31.4605650 123.9228290  74.1281560
  31.2927690 123.2898970  74.8263450  30.5940160 124.1287690  73.7775750
  32.0833670 107.7545070  71.6313420  32.8413030 107.8673950  71.0577450
  31.6210840 108.5914270  71.5856850  38.6247480 109.8684340  74.6215730
  37.8121990 109.4941230  74.2811610  39.1289120 109.1129420  74.9236920
  46.2707060 106.9348350  71.1339080  46.4657690 107.8331800  71.4006510
  45.4836930 106.7035430  71.6272030  33.0668350 122.6161520  71.5731700
  32.5415970 122.9969550  70.8693660  32.9912930 123.2412290  72.2941410
  34.4558820 108.2809120  70.1715390  34.9851580 107.4938920  70.0423340
  35.0887140 108.9600310  70.4050920  36.6496660 108.0184260  73.2260780
  36.0199400 107.3171570  73.3930910  36.1101800 108.7788390  73.0093940
  47.8233670 124.1749060  72.8945640  47.9985860 123.4886800  72.2506560
  47.1255240 124.6996110  72.5022310  36.7752220 107.2968240  85.6613270
  36.4936490 107.8001840  84.8974090  37.1571920 106.4989990  85.2955400
  34.8276110 120.6808630  70.4527280  34.1984990 121.1493730  71.0013110
  34.9423940 119.8357850  70.8873470  43.3767680 106.7121820  86.2393740
  43.2633130 107.0316430  87.1345260  44.1937420 107.1134330  85.9431020
  46.1566170 123.8593350  85.7212430  46.9491490 123.3642580  85.5138390
  46.4499320 124.5383490  86.3288040  30.8961160 118.7707280  51.6512410
  30.5189140 119.2594380  50.9197310  31.1534230 119.4432560  52.2818940
  40.8930850 115.2372500  53.8458040  39.9660130 115.1709880  54.0746510
  41.0455670 116.1752630  53.7313280  40.8799930 111.5089500  50.8425200
  39.9403600 111.6703460  50.9277660  41.1983190 112.2275180  50.2961190
  45.0554800 123.0236670  62.4540080  44.5785360 123.8308860  62.2612690
  44.3716590 122.3715000  62.6066290  43.0992840 116.0379610  51.3566040
  43.5386120 115.2002040  51.2103860  43.8121260 116.6709010  51.4430180
  47.8911270 112.0293920  65.6481220  47.2755540 112.5373590  65.1196680
  47.5707690 111.1292250  65.5907160  44.9530100 112.0894760  64.2440070
  44.1023690 111.7900510  64.5649140  44.7931890 112.3336770  63.3323890
  42.0479810 113.5896510  66.3438860  42.3733220 112.7560260  66.0041090
  42.8360140 114.1125030  66.4917190  37.8969210 114.0236440  65.9049610
  37.8012810 113.0831170  65.7550010  38.7401190 114.2451510  65.5097680
  33.0279750 110.4350110  64.0583390  32.6343140 111.2825320  64.2656170
  32.3398150 109.7976480  64.2492030  39.6024800 110.5185080  67.1280130
  38.9123120 110.3257280  67.7626220  40.3457100 110.8019720  67.6604430
  38.3785310 112.0349800  51.3593300  38.4998130 111.9936280  52.3079120
  37.9933820 112.8973950  51.2040030  37.3906810 114.3450940  50.7576600
  36.8223710 113.8969190  50.1312510  38.0995810 114.7043720  50.2241750
  45.7684430 107.2249380  65.2143370  46.0930200 106.4939040  65.7401350
  45.8040940 106.9063020  64.3124360  32.4636230 114.9750880  63.5807520
  32.1051170 115.6404730  64.1680860  32.1690790 114.1434430  63.9520140
  46.1414870 114.4143940  50.7300810  46.0578590 114.8458160  49.8797250
  46.8609060 114.8742290  51.1627630  40.4411700 121.8721690  61.5542700
  41.0853920 122.0781070  62.2316120  40.8041140 121.1110090  61.1013550
  31.3415530 124.1869520  50.7703750  31.7013170 124.7858860  50.1161020
  31.2007870 124.7329410  51.5438780  31.0384800 108.4644120  64.2579620
  30.3243320 108.6641040  64.8632230  31.4579840 107.6883690  64.6294420
  40.3443750 121.6328960  50.2502610  40.4455730 121.4292950  49.3204590
  39.4445490 121.3787240  50.4550390  46.6992430 109.8273980  63.0747430
  46.1966030 110.5679380  63.4141240  47.5149090 110.2157980  62.7584220
  34.9696080 116.7526760  50.0812750  35.7359350 116.6408120  50.6438180
  35.0470770 116.0564730  49.4289520  34.4657550 124.3347220  57.8680180
  35.2020030 123.7862680  58.1388750  34.8498470 125.2003230  57.7286170
  37.5759860 123.5077530  49.6905750  38.3688470 123.7966360  49.2387540
  37.0564210 123.0769700  49.0118230  31.1913640 116.0066750  66.0001810
  31.6952660 115.4274030  66.5718040  30.4521060 116.2906980  66.5378180
  41.3339990 117.7900970  50.1590090  40.7850090 118.2370270  50.8032830
  41.9559250 117.2850220  50.6827760  33.2236720 114.1496340  66.8951880
  33.2642060 113.8510210  67.8037110  34.0782220 114.5503950  66.7359400
  35.1642530 112.7288440  64.8626370  34.6338990 112.2379390  64.2349710
  35.8330600 113.1572640  64.3284300  39.5142750 115.7729500  49.3032490
  40.0348410 115.0578520  48.9373640  40.1611150 116.4115370  49.6033000
  44.5342760 114.5354060  66.6306710  45.1163530 113.7806380  66.5427190
  44.7104530 115.0661500  65.8538190  35.6514830 109.6950810  64.9423660
  35.5571700 109.0771560  64.2174530  35.0712220 110.4217100  64.7153570
  38.8235820 117.1478380  62.5963490  39.2423930 117.9911110  62.4239730
  37.9044450 117.2850420  62.3670270  41.1599720 114.8794560  63.9801330
  41.2795930 114.2835700  64.7196170  42.0193720 114.9164250  63.5602630
  43.4987620 115.4331750  62.5563840  42.9722840 115.9574370  61.9528980
  43.8418960 116.0659140  63.1873570  35.8974010 112.8225120  49.0013550
  35.6963070 111.9592480  49.3626890  35.7266060 112.7358480  48.0635150
  37.9268490 111.4215910  65.2377150  38.5168180 111.1131760  65.9254970
  37.1088730 110.9495660  65.3937050  42.7461920 111.0381720  65.4710170
  42.0577440 110.3763260  65.4060160  43.4667940 110.5919990  65.9158630
  40.0790780 123.8541110  51.5934230  40.9741570 124.1926080  51.6152990
  40.1108410 123.1320520  50.9658510  31.4222950 122.8827780  60.0123120
  30.9853940 123.0628580  60.8447270  31.9900630 123.6402400  59.8704840
  47.0585130 122.3844780  64.3000430  46.4587120 122.4437340  63.5564350
  47.1879030 121.4449760  64.4297280  47.7543040 116.8710080  52.1404340
  48.5161950 117.4406730  52.2464030  47.7697410 116.3037280  52.9112650
  47.7027550 115.1013440  54.2906290  47.3271150 114.3341370  53.8587580
  46.9730670 115.4836140  54.7781220  31.8439310 112.6909670  64.8173760
  30.9495360 112.6576430  65.1567470  32.3836860 112.8896460  65.5825010
  45.5315240 109.4741390  66.7025510  46.4085420 109.4824790  67.0859510
  45.5436080 108.7372230  66.0917860  46.2431360 107.1599360  62.5226620
  46.8803580 107.7733500  62.8885810  46.3906250 107.1960020  61.5775850
  39.6135840 108.3125550  65.4301720  39.5524730 108.9047380  66.1797130
  40.5536220 108.2051510  65.2851980  42.2510400 107.9695610  65.0694010
  42.8650810 108.2874900  64.4075090  42.7959960 107.4844200  65.6889870
  48.6685580 123.8687240  62.4755850  48.1743860 124.2656110  61.7582980
  48.0598870 123.2436450  62.8693130  32.7731660 106.6489870  65.1833070
  33.3214650 106.4677920  64.4199180  32.8386970 105.8583980  65.7189380
  42.9918440 106.5327750  61.3963300  42.1178280 106.8662860  61.1936230
  42.8829190 106.0600930  62.2215170  43.8990420 108.7398620  62.7805020
  43.5703780 107.9250380  62.4006750  44.8472720 108.6968430  62.6570710
  46.3525030 124.5110660  59.7542590  45.8928000 125.2626470  59.3800610
  45.7237490 123.7917130  59.6957390  36.7820750 122.8198900  58.9290720
  37.2985770 122.2086260  58.4038980  37.4318130 123.3227680  59.4201730
  39.5216250 123.7107390  59.7559700  39.8094060 123.4561690  58.8792710
  40.0339470 123.1584750  60.3465270  31.4605650 123.9228290  55.3538070
  31.2927690 123.2898970  56.0519960  30.5940160 124.1287690  55.0032260
  36.7752220 107.2968240  66.8869780  36.4936490 107.8001840  66.1230600
  37.1571920 106.4989990  66.5211910  43.3767680 106.7121820  67.4650250
  43.2633130 107.0316430  68.3601770  44.1937420 107.1134330  67.1687530
  42.2825830 114.7314290  37.8284990  42.2019880 113.8168900  37.5576700
  41.8690250 115.2281360  37.1224700  40.4143870 116.5093310  39.7094260
  39.6385970 116.0293750  39.9992830  41.0656800 115.8298960  39.5350420
  34.4309700 116.8213120  40.5870020  33.5994580 116.5661830  40.9866530
  35.0390680 116.8923890  41.3227940  44.4351300 120.9153500  38.4893390
  43.9732830 120.1440740  38.8180560  45.2476850 120.9419570  38.9945840
  34.4110960 120.8553210  40.7828040  34.7139000 119.9650950  40.6038260
  35.1554550 121.4123430  40.5550290  32.8401650 111.7815010  34.3712410
  31.9518350 112.1230980  34.2692290  33.1242840 111.5815330  33.4793240
  30.8034660 114.3820660  40.2552110  31.3750770 113.6142860  40.2555750
  30.8036200 114.6809420  39.3458720  40.6614610 123.2011510  38.1097380
  40.0426050 123.6569010  37.5391820  41.5166390 123.3562970  37.7087080
  39.8552860 119.1850500  39.7164420  39.7861140 118.2440440  39.5553550
  40.6172720 119.2751910  40.2886990  32.0459530 109.7905020  42.0421040
  31.8662370 108.8930770  42.3223800  31.6439610 110.3376890  42.7167990
  35.0163040 110.3646510  35.4050790  35.1229790 111.2650240  35.7119550
  34.1055400 110.3164480  35.1145440  32.6646200 112.2865520  40.6503380
  33.3456310 112.5503890  41.2690780  32.3494250 111.4466390  40.9841390
  36.8570770 113.3332880  39.7375970  37.3648990 113.8313850  40.3780990
  37.3884010 112.5568080  39.5615330  41.5277960 118.0850750  35.5029290
  40.9095230 118.5500200  34.9392010  42.0401210 118.7778230  35.9198800
  36.3909720 117.6126620  42.1812890  36.0579100 118.2395540  42.8233960
  36.5676400 118.1388500  41.4014560  34.8222200 109.6841400  42.0109840
  35.1639010 110.5283450  41.7163710  33.8838010 109.8325140  42.1275180
  35.6028820 119.5807420  43.9962070  36.2202820 120.2558500  43.7146520
  34.7421940 119.9895400  43.9049570  30.8961160 118.7707280  32.8768920
  30.5189140 119.2594380  32.1453820  31.1534230 119.4432560  33.5075450
  44.0565150 122.8890960  40.6261890  44.0692310 122.4853250  39.7584150
  43.5040370 123.6638250  40.5223320  45.3510570 119.6107180  35.7152060
  45.2406900 118.6681510  35.8401480  45.3478820 119.9722820  36.6014820
  40.8930850 115.2372500  35.0714550  39.9660130 115.1709880  35.3003020
  41.0455670 116.1752630  34.9569790  40.8799930 111.5089500  32.0681710
  39.9403600 111.6703460  32.1534170  41.1983190 112.2275180  31.5217700
  44.9228140 116.7992800  35.5749800  44.3040560 116.4612350  34.9276100
  44.9052590 116.1552560  36.2828990  44.3654700 112.9777340  42.9915610
  43.9525880 113.8031050  43.2455600  43.6330650 112.3922380  42.7991970
  36.4987490 115.7637240  37.8534280  36.0944490 115.0514490  37.3580180
  36.5850610 115.4190480  38.7422320  36.9669190 119.4504800  40.0173490
  36.6697480 118.8450270  39.3381270  37.9169010 119.4882110  39.9062850
  35.2116110 112.5380450  41.6333320  35.7630700 112.6475790  40.8586570
  35.7259620 112.9118050  42.3488550  36.0587620 119.1886490  46.6681290
  35.1616150 119.4126460  46.9154690  36.0840490 119.3121430  45.7192690
  43.0992840 116.0379610  32.5822550  43.5386120 115.2002040  32.4360370
  43.8121260 116.6709010  32.6686690  34.8858840 116.0599810  45.2438660
  34.7466610 116.9322610  45.6126060  34.0040200 115.7172620  45.0986600
  41.2088220 120.9775680  36.5503790  41.6484130 121.7200010  36.1359180
  41.1475110 121.2202250  37.4742750  36.6839190 122.0021510  47.4523810
  36.6554620 122.4064460  46.5852240  36.5204160 121.0731870  47.2895410
  46.6809980 107.2922420  30.8963590  46.3682640 107.3849250  31.7962660
  47.4422450 107.8703450  30.8461020  33.1992120 114.6582220  35.3540930
  33.0789720 115.3844310  34.7422200  32.8893010 113.8885130  34.8768840
  48.6354010 122.7848610  48.7487980  49.1113730 123.2631500  49.4277060
  49.2561170 122.7166100  48.0233480  30.8377490 117.8297360  41.1609570
  30.9157910 117.9646130  40.2165290  31.4519170 117.1213250  41.3537690
  32.0825120 119.5297550  37.5715750  31.6753200 119.6712140  36.7169350
  32.9738130 119.2457710  37.3686960  41.9004000 123.6789460  44.4782800
  42.4148670 123.5897470  45.2805230  41.0573080 124.0249160  44.7710710
  43.8758400 123.9644800  33.9066800  43.7159540 123.6747740  34.8048630
  43.7105110 123.1884930  33.3712030  36.3546780 123.7443330  35.6838420
  36.1789260 122.8278870  35.4706220  35.5002520 124.1030620  35.9236220
  43.5784530 121.4732360  32.4664800  42.8849690 121.4709650  31.8067080
  44.3207390 121.0491680  32.0358970  43.1434460 123.0995070  36.5413290
  43.5991410 122.3184450  36.8551910  43.4826980 123.8101890  37.0854470
  47.8911270 112.0293920  46.8737730  47.2755540 112.5373590  46.3453190
  47.5707690 111.1292250  46.8163670  30.8937010 118.8711530  43.7004030
  31.0568050 118.4016890  42.8823400  31.3589460 118.3635090  44.3652870
  39.9525590 110.8685810  44.3399920  39.4904960 111.0768830  45.1519860
  39.5503700 110.0545160  44.0370590  44.9530100 112.0894760  45.4696580
  44.1023690 111.7900510  45.7905650  44.7931890 112.3336770  44.5580400
  42.0479810 113.5896510  47.5695370  42.3733220 112.7560260  47.2297600
  42.8360140 114.1125030  47.7173700  37.7031680 108.5464620  40.5954200
  38.0004010 109.4527450  40.5146220  38.2517240 108.0583400  39.9813770
  35.4570000 113.1250860  36.4645850  35.2310920 112.9088030  37.3692470
  34.6762530 113.5579320  36.1191820  37.8969210 114.0236440  47.1306120
  37.8012810 113.0831170  46.9806520  38.7401190 114.2451510  46.7354190
  33.0279750 110.4350110  45.2839900  32.6343140 111.2825320  45.4912680
  32.3398150 109.7976480  45.4748540  39.6024800 110.5185080  48.3536640
  38.9123120 110.3257280  48.9882730  40.3457100 110.8019720  48.8860940
  30.3296800 108.3578570  39.3169980  30.0409850 108.9281430  40.0294960
  31.0742560 107.8783020  39.6801210  30.5167030 112.2998690  30.5272700
  30.4341700 113.2429450  30.6687690  30.1650090 112.1573600  29.6485050
  41.8787770 114.3583520  41.1890560  41.1468890 114.8670330  41.5380660
  41.4812110 113.5413500  40.8879340  38.3165160 111.0337720  39.5943050
  38.3201220 110.5927670  38.7447590  39.2116280 111.3555050  39.7014870
  34.1667540 110.9164210  38.5537260  33.8267590 111.3939440  39.3104310
  33.4044860 110.4629330  38.1938360  38.3785310 112.0349800  32.5849810
  38.4998130 111.9936280  33.5335630  37.9933820 112.8973950  32.4296540
  37.3906810 114.3450940  31.9833110  36.8223710 113.8969190  31.3569020
  38.0995810 114.7043720  31.4498260  45.7684430 107.2249380  46.4399880
  46.0930200 106.4939040  46.9657860  45.8040940 106.9063020  45.5380870
  32.4675990 118.2462960  45.8599840  32.0830780 117.6056630  46.4582800
  32.7788180 118.9499080  46.4294570  38.6173130 115.0939500  41.3408460
  38.9843260 114.6198070  42.0869800  38.4278190 115.9681070  41.6816800
  31.4813620 109.8383190  37.4701930  31.1960540 109.4738860  38.3080550
  31.4192480 109.1063650  36.8565070  36.4072500 114.1348140  43.6592670
  36.1029570 115.0140120  43.8843030  37.3618960 114.1947930  43.6950110
  34.9354290 118.3409130  34.2559520  34.1616550 117.8006750  34.0958240
  35.6648920 117.8215740  33.9177280  45.6942270 117.3374490  40.0485910
  46.4141390 117.8329780  39.6582020  45.4924090 116.6592380  39.4039780
  41.0761070 117.4083550  45.9354910  41.0098380 116.4879220  45.6812500
  40.4466210 117.5058990  46.6499550  43.8700600 113.1032100  32.4877460
  44.7580220 113.4149330  32.3128800  43.8405690 112.2304350  32.0958040
  34.9791690 118.0089510  37.8938330  35.4970360 117.2057770  37.8395220
  34.5275710 117.9468650  38.7355160  39.8661190 119.2755790  33.1665630
  40.2076890 120.0198020  32.6708950  39.0373900 119.5886910  33.5290460
  32.4636230 114.9750880  44.8064030  32.1051170 115.6404730  45.3937370
  32.1690790 114.1434430  45.1776650  35.6649350 115.4335120  47.6903580
  35.3649490 115.5792300  46.7931400  36.4360590 114.8740410  47.5976970
  41.0077800 120.2304120  45.6858710  41.0222340 119.2985080  45.4677620
  40.3002900 120.3163880  46.3248480  46.1414870 114.4143940  31.9557320
  46.0578590 114.8458160  31.1053760  46.8609060 114.8742290  32.3884140
  47.1702120 121.2686200  34.6839450  46.5278280 120.6141820  34.9583170
  46.7832780 121.6741290  33.9080120  42.7488600 118.5971630  38.5311140
  43.1012420 117.9999760  37.8712510  41.8650930 118.2715860  38.7019390
  38.8351880 119.3569320  35.9381550  39.5223010 119.9038530  36.3189140
  38.0484300 119.9010050  35.9731160  30.9744280 114.9742140  31.4298630
  31.8439130 115.2566940  31.7134550  30.4834600 115.7878010  31.3147440
  38.1379090 116.3615350  35.5506910  38.5941870 117.1720600  35.7767100
  37.7867300 116.0438490  36.3825400  40.4411700 121.8721690  42.7799210
  41.0853920 122.0781070  43.4572630  40.8041140 121.1110090  42.3270060
  41.7143780 119.8754040  41.4976660  42.3566010 119.1747200  41.6108830
  42.2393130 120.6552480  41.3173550  45.5599500 120.1602660  31.2215800
  45.3337080 119.4433100  31.8140440  45.1695700 119.9115100  30.3837550
  31.3415530 124.1869520  31.9960260  31.7013170 124.7858860  31.3417530
  31.2007870 124.7329410  32.7695290  45.1415750 118.0774600  32.8829960
  44.8537450 118.5387290  33.6707840  45.9367920 117.6172370  33.1514180
  31.3257390 122.4524380  46.4702660  31.4348510 121.5119120  46.3298050
  30.6737950 122.7179130  45.8216390  39.3169980 120.7240270  47.8700780
  38.9966850 120.0049510  48.4146470  38.6428340 121.3995340  47.9436840
  37.3584150 121.5700720  32.8133930  37.3494250 122.3030410  32.1978440
  36.4382510 121.3232300  32.9060890  32.9590790 116.7915610  33.5580690
  32.3518740 117.5314510  33.5675990  33.4340140 116.8814970  32.7318890
  42.5323580 110.9566430  43.2337580  42.9004400 110.1361640  43.5617150
  41.6721780 111.0168320  43.6493230  40.3443750 121.6328960  31.4759120
  40.4455730 121.4292950  30.5461100  39.4445490 121.3787240  31.6806900
  37.8669640 112.1909320  35.4583020  37.1585790 112.6595660  35.8996630
  38.1514120 111.5331330  36.0928210  39.4925570 113.6106020  43.4575550
  39.9910820 114.0851840  44.1227400  39.6348520 112.6869540  43.6645580
  38.9861860 124.1515280  36.1706790  39.2403360 124.1136670  35.2486160
  38.0374340 124.0248610  36.1635040  36.0704660 110.4994400  32.8333730
  36.9195190 110.9364550  32.7673920  35.7035930 110.8114660  33.6605790
  46.6992430 109.8273980  44.3003940  46.1966030 110.5679380  44.6397750
  47.5149090 110.2157980  43.9840730  44.9914440 115.0707160  37.7465300
  44.0504580 115.0857390  37.9212990  45.3058510 114.2843120  38.1925600
  34.9696080 116.7526760  31.3069260  35.7359350 116.6408120  31.8694690
  35.0470770 116.0564730  30.6546030  33.6642840 114.1851830  31.9902150
  33.7446430 113.2379340  32.1019550  34.5562590 114.5158710  32.0962810
  34.4657550 124.3347220  39.0936690  35.2020030 123.7862680  39.3645260
  34.8498470 125.2003230  38.9542680  31.3503030 120.4020790  34.9678200
  30.4242810 120.6441930  34.9583610  31.8159460 121.2295050  34.8462950
  33.4715830 123.5193290  48.2822270  34.2728560 123.8405340  48.6957670
  32.9567650 123.1588870  49.0042180  37.5759860 123.5077530  30.9162260
  38.3688470 123.7966360  30.4644050  37.0564210 123.0769700  30.2374740
  43.7380830 123.3553450  46.8407090  44.6902580 123.2711470  46.7907330
  43.5909050 124.0195160  47.5140880  46.6290030 122.7347660  32.3399000
  46.3431540 122.3212800  31.5253180  46.4309580 123.6635370  32.2199520
  31.1913640 116.0066750  47.2258320  31.6952660 115.4274030  47.7974550
  30.4521060 116.2906980  47.7634690  38.0937260 118.7280940  30.7804610
  37.9887900 118.1133290  31.5065990  37.9261480 118.2046830  29.9967620
  38.2451580 117.4137740  46.7593840  37.4797250 117.9822740  46.6748510
  38.4267540 117.1213950  45.8662070  41.3339990 117.7900970  31.3846600
  40.7850090 118.2370270  32.0289340  41.9559250 117.2850220  31.9084270
  33.2236720 114.1496340  48.1208390  33.2642060 113.8510210  49.0293620
  34.0782220 114.5503950  47.9615910  37.0015110 116.7491890  33.2811900
  37.4231530 116.5831760  34.1243290  37.1265950 115.9392120  32.7867040
  35.1642530 112.7288440  46.0882880  34.6338990 112.2379390  45.4606220
  35.8330600 113.1572640  45.5540810  39.5142750 115.7729500  30.5289000
  40.0348410 115.0578520  30.1630150  40.1611150 116.4115370  30.8289510
  38.4176270 108.2524050  43.2007560  37.9693570 108.2748310  42.3553110
  37.7841470 107.8543070  43.7977860  38.8235820 117.1478380  43.8220000
  39.2423930 117.9911110  43.6496240  37.9044450 117.2850420  43.5926780
  41.1599720 114.8794560  45.2057840  41.2795930 114.2835700  45.9452680
  42.0193720 114.9164250  44.7859140  35.8974010 112.8225120  30.2270060
  35.6963070 111.9592480  30.5883400  35.7266060 112.7358480  29.2891660
  36.6743240 123.4531390  44.9377730  36.1364330 124.1777450  44.6186430
  36.9277200 122.9761730  44.1475070  37.9268490 111.4215910  46.4633660
  38.5168180 111.1131760  47.1511480  37.1088730 110.9495660  46.6193560
  42.7461920 111.0381720  46.6966680  42.0577440 110.3763260  46.6316670
  43.4667940 110.5919990  47.1415140  34.6956810 109.9225740  30.2147940
  34.9982710 109.9293170  29.3067090  35.4351400 109.5723600  30.7115600
  39.5305450 124.6882600  45.1964380  39.4564150 125.5917740  45.5036750
  38.6284290 124.3694500  45.1686450  37.9141740 108.8660360  31.2004140
  37.5663740 108.1884350  30.6206590  38.1154510 108.4049870  32.0147530
  40.0790780 123.8541110  32.8190740  40.9741570 124.1926080  32.8409500
  40.1108410 123.1320520  32.1915020  33.7186940 119.2268160  31.0477740
  34.1561810 119.7697830  31.7035320  34.2034670 118.4015110  31.0574080
  30.9332740 122.0157190  38.4998000  31.2635750 121.1478250  38.2676640
  31.3623740 122.2215710  39.3302960  35.5294660 120.3466200  36.1599970
  35.2290200 120.2231170  37.0603880  35.4232150 119.4874790  35.7515700
  31.4222950 122.8827780  41.2379630  30.9853940 123.0628580  42.0703780
  31.9900630 123.6402400  41.0961350  48.2986580 120.1262600  30.8626650
  47.4679540 120.1939250  31.3333880  48.4758410 121.0166720  30.5593510
  47.7543040 116.8710080  33.3660850  48.5161950 117.4406730  33.4720540
  47.7697410 116.3037280  34.1369160  31.2547380 115.3948010  37.5968510
  30.5996220 115.1259650  36.9528210  32.0925330 115.2852490  37.1470490
  48.7603010 117.7260180  38.2102780  49.1311840 116.9427500  37.8038750
  49.4004940 118.4149280  38.0320080  47.8062210 117.1644450  30.5233370
  48.0811050 118.0723330  30.3952590  47.6172950 117.1006980  31.4595360
  44.2037820 110.1889300  31.8187000  44.6222700 110.0020280  30.9783660
  43.8973880 109.3368350  32.1289930  47.7027550 115.1013440  35.5162800
  47.3271150 114.3341370  35.0844090  46.9730670 115.4836140  36.0037730
  32.2923310 115.7800580  42.1371850  32.6596350 115.6927980  43.0167870
  31.7234130 115.0167130  42.0378710  31.8439310 112.6909670  46.0430270
  30.9495360 112.6576430  46.3823980  32.3836860 112.8896460  46.8081520
  30.4685460 112.6046940  33.5393840  29.5649540 112.8677140  33.3645500
  30.9526080 112.8758110  32.7593800  33.0112670 111.6612480  31.4488220
  33.7204370 111.2395700  30.9635500  32.2952610 111.7287710  30.8171570
  32.6586830 107.7151810  30.4890870  33.3814960 108.2560750  30.8072090
  32.9311350 107.4415230  29.6132410  46.4678480 112.5844280  34.7562450
  46.9637600 112.3515150  35.5411330  46.2694550 111.7456120  34.3400090
  32.3479020 106.9658000  40.3913490  32.9955210 106.4155380  39.9508650
  32.7680860 107.2201150  41.2129300  48.7855910 109.0513150  30.5306270
  49.7105220 108.9194330  30.3224560  48.7631700 109.1305970  31.4842720
  48.8594400 109.8223810  33.1562980  48.0645900 109.7568930  33.6855890
  49.0637680 110.7574450  33.1448330  45.8012820 123.8615360  37.1501370
  46.3971890 123.5399930  36.4735790  46.0590970 123.3887180  37.9414640
  33.7075390 120.2933270  47.2992000  33.6645020 119.9226180  48.1806460
  33.8386400 121.2310840  47.4393820  37.4081420 121.8492860  42.9001720
  37.1672780 122.1167420  42.0132240  38.3484060 122.0198590  42.9552580
  39.6135840 108.3125550  46.6558230  39.5524730 108.9047380  47.4053640
  40.5536220 108.2051510  46.5108490  42.2510400 107.9695610  46.2950520
  42.8650810 108.2874900  45.6331600  42.7959960 107.4844200  46.9146380
  33.5463420 123.2395520  44.4189780  32.9523740 123.1080220  45.1579820
  33.5387260 122.4033660  43.9531880  43.8990420 108.7398620  44.0061530
  43.5703780 107.9250380  43.6263260  44.8472720 108.6968430  43.8827220
  33.1775650 120.6053900  43.3697820  32.4509710 119.9859190  43.3023770
  33.2384800 120.9994510  42.4995900  36.7820750 122.8198900  40.1547230
  37.2985770 122.2086260  39.6295490  37.4318130 123.3227680  40.6458240
  39.5216250 123.7107390  40.9816210  39.8094060 123.4561690  40.1049220
  40.0339470 123.1584750  41.5721780  31.4605650 123.9228290  36.5794580
  31.2927690 123.2898970  37.2776470  30.5940160 124.1287690  36.2288770
  32.0833670 107.7545070  34.0826440  32.8413030 107.8673950  33.5090470
  31.6210840 108.5914270  34.0369870  38.6247480 109.8684340  37.0728750
  37.8121990 109.4941230  36.7324630  39.1289120 109.1129420  37.3749940
  46.2707060 106.9348350  33.5852100  46.4657690 107.8331800  33.8519530
  45.4836930 106.7035430  34.0785050  33.0668350 122.6161520  34.0244720
  32.5415970 122.9969550  33.3206680  32.9912930 123.2412290  34.7454430
  34.4558820 108.2809120  32.6228410  34.9851580 107.4938920  32.4936360
  35.0887140 108.9600310  32.8563940  39.5888610 124.6323490  48.3484410
  40.5155920 124.3967760  48.3920370  39.5739040 125.4595490  47.8670440
  47.8233670 124.1749060  35.3458660  47.9985860 123.4886800  34.7019580
  47.1255240 124.6996110  34.9535330  35.6661320 124.5643900  32.8993970
  36.3980140 124.2803180  32.3517860  35.9254990 124.3257180  33.7893350
  34.8276110 120.6808630  32.9040300  34.1984990 121.1493730  33.4526130
  34.9423940 119.8357850  33.3386490  46.1566170 123.8593350  48.1725450
  46.9491490 123.3642580  47.9651410  46.4499320 124.5383490  48.7801060
  42.2825830 114.7314290  19.0541500  42.2019880 113.8168900  18.7833210
  41.8690250 115.2281360  18.3481210  40.4143870 116.5093310  20.9350770
  39.6385970 116.0293750  21.2249340  41.0656800 115.8298960  20.7606930
  34.4309700 116.8213120  21.8126530  33.5994580 116.5661830  22.2123040
  35.0390680 116.8923890  22.5484450  44.4351300 120.9153500  19.7149900
  43.9732830 120.1440740  20.0437070  45.2476850 120.9419570  20.2202350
  34.4110960 120.8553210  22.0084550  34.7139000 119.9650950  21.8294770
  35.1554550 121.4123430  21.7806800  32.8401650 111.7815010  15.5968920
  31.9518350 112.1230980  15.4948800  33.1242840 111.5815330  14.7049750
  30.8034660 114.3820660  21.4808620  31.3750770 113.6142860  21.4812260
  30.8036200 114.6809420  20.5715230  40.6614610 123.2011510  19.3353890
  40.0426050 123.6569010  18.7648330  41.5166390 123.3562970  18.9343590
  39.8552860 119.1850500  20.9420930  39.7861140 118.2440440  20.7810060
  40.6172720 119.2751910  21.5143500  32.0459530 109.7905020  23.2677550
  31.8662370 108.8930770  23.5480310  31.6439610 110.3376890  23.9424500
  40.8858030 111.9920880  21.1689860  41.2622850 111.1192760  21.0563530
  40.7877540 112.3279580  20.2780300  35.0163040 110.3646510  16.6307300
  35.1229790 111.2650240  16.9376060  34.1055400 110.3164480  16.3401950
  44.6682150 109.4871320  18.1018200  45.4891770 108.9967890  18.1443680
  44.7016230 110.0768980  18.8550040  32.6646200 112.2865520  21.8759890
  33.3456310 112.5503890  22.4947290  32.3494250 111.4466390  22.2097900
  36.8570770 113.3332880  20.9632480  37.3648990 113.8313850  21.6037500
  37.3884010 112.5568080  20.7871840  48.9581700 111.5038070  24.6661830
  48.2533870 111.8919780  24.1476940  49.2239620 112.1988360  25.2682760
  35.1406870 107.9731440  25.2295900  35.1425310 108.4903830  24.4241800
  34.3111180 107.4961620  25.2065830  41.5277960 118.0850750  16.7285800
  40.9095230 118.5500200  16.1648520  42.0401210 118.7778230  17.1455310
  36.3909720 117.6126620  23.4069400  36.0579100 118.2395540  24.0490470
  36.5676400 118.1388500  22.6271070  44.9043630 111.4271700  20.8745740
  44.1999200 111.7156590  21.4548850  45.2655790 112.2371810  20.5145300
  34.8222200 109.6841400  23.2366350  35.1639010 110.5283450  22.9420220
  33.8838010 109.8325140  23.3531690  35.6028820 119.5807420  25.2218580
  36.2202820 120.2558500  24.9403030  34.7421940 119.9895400  25.1306080
  30.8961160 118.7707280  14.1025430  30.5189140 119.2594380  13.3710330
  31.1534230 119.4432560  14.7331960  46.5206410 121.0446830  23.1373220
  45.8369930 121.7145940  23.1289890  47.0600700 121.2427480  22.3718080
  47.9730550 110.8726490  21.2654950  47.0255460 110.9065470  21.3970380
  48.2980540 111.6865440  21.6504310  38.5050090 107.1723670  19.5610940
  38.8125070 106.6170560  18.8446440  37.5750790 107.3068130  19.3783930
  44.0565150 122.8890960  21.8518400  44.0692310 122.4853250  20.9840660
  43.5040370 123.6638250  21.7479830  45.3510570 119.6107180  16.9408570
  45.2406900 118.6681510  17.0657990  45.3478820 119.9722820  17.8271330
  43.4550590 117.7920800  23.1801010  43.8719380 117.5780910  22.3454470
  44.1790410 118.0493590  23.7509630  40.8930850 115.2372500  16.2971060
  39.9660130 115.1709880  16.5259530  41.0455670 116.1752630  16.1826300
  40.8799930 111.5089500  13.2938220  39.9403600 111.6703460  13.3790680
  41.1983190 112.2275180  12.7474210  47.4012690 116.1908020  23.2717250
  46.5731320 116.2601110  22.7967380  47.9963170 116.7762330  22.8033080
  44.9228140 116.7992800  16.8006310  44.3040560 116.4612350  16.1532610
  44.9052590 116.1552560  17.5085500  44.3654700 112.9777340  24.2172120
  43.9525880 113.8031050  24.4712110  43.6330650 112.3922380  24.0248480
  36.4987490 115.7637240  19.0790790  36.0944490 115.0514490  18.5836690
  36.5850610 115.4190480  19.9678830  36.9669190 119.4504800  21.2430000
  36.6697480 118.8450270  20.5637780  37.9169010 119.4882110  21.1319360
  35.2116110 112.5380450  22.8589830  35.7630700 112.6475790  22.0843080
  35.7259620 112.9118050  23.5745060  45.0554800 123.0236670  24.9053100
  44.5785360 123.8308860  24.7125710  44.3716590 122.3715000  25.0579310
  36.0587620 119.1886490  27.8937800  35.1616150 119.4126460  28.1411200
  36.0840490 119.3121430  26.9449200  43.0992840 116.0379610  13.8079060
  43.5386120 115.2002040  13.6616880  43.8121260 116.6709010  13.8943200
  34.8858840 116.0599810  26.4695170  34.7466610 116.9322610  26.8382570
  34.0040200 115.7172620  26.3243110  41.2088220 120.9775680  17.7760300
  41.6484130 121.7200010  17.3615690  41.1475110 121.2202250  18.6999260
  36.6839190 122.0021510  28.6780320  36.6554620 122.4064460  27.8108750
  36.5204160 121.0731870  28.5151920  46.6809980 107.2922420  12.1220100
  46.3682640 107.3849250  13.0219170  47.4422450 107.8703450  12.0717530
  33.1992120 114.6582220  16.5797440  33.0789720 115.3844310  15.9678710
  32.8893010 113.8885130  16.1025350  48.6354010 122.7848610  29.9744490
  49.1113730 123.2631500  30.6533570  49.2561170 122.7166100  29.2489990
  30.8377490 117.8297360  22.3866080  30.9157910 117.9646130  21.4421800
  31.4519170 117.1213250  22.5794200  32.0825120 119.5297550  18.7972260
  31.6753200 119.6712140  17.9425860  32.9738130 119.2457710  18.5943470
  48.0387260 119.9761460  27.1344500  48.1650320 119.7373340  26.2161680
  48.0808640 119.1446000  27.6066580  41.9004000 123.6789460  25.7039310
  42.4148670 123.5897470  26.5061740  41.0573080 124.0249160  25.9967220
  43.8758400 123.9644800  15.1323310  43.7159540 123.6747740  16.0305140
  43.7105110 123.1884930  14.5968540  36.3546780 123.7443330  16.9094930
  36.1789260 122.8278870  16.6962730  35.5002520 124.1030620  17.1492730
  43.5784530 121.4732360  13.6921310  42.8849690 121.4709650  13.0323590
  44.3207390 121.0491680  13.2615480  43.1434460 123.0995070  17.7669800
  43.5991410 122.3184450  18.0808420  43.4826980 123.8101890  18.3110980
  47.8911270 112.0293920  28.0994240  47.2755540 112.5373590  27.5709700
  47.5707690 111.1292250  28.0420180  30.8937010 118.8711530  24.9260540
  31.0568050 118.4016890  24.1079910  31.3589460 118.3635090  25.5909380
  35.6655780 108.0017290  19.9621110  35.2223930 108.7826830  19.6305630
  36.2240770 108.3247180  20.6692050  39.9525590 110.8685810  25.5656430
  39.4904960 111.0768830  26.3776370  39.5503700 110.0545160  25.2627100
  44.9530100 112.0894760  26.6953090  44.1023690 111.7900510  27.0162160
  44.7931890 112.3336770  25.7836910  42.0479810 113.5896510  28.7951880
  42.3733220 112.7560260  28.4554110  42.8360140 114.1125030  28.9430210
  38.7814600 107.6227990  14.8426940  38.1568780 107.6187860  15.5680250
  38.6944720 106.7558950  14.4462910  37.7031680 108.5464620  21.8210710
  38.0004010 109.4527450  21.7402730  38.2517240 108.0583400  21.2070280
  35.4570000 113.1250860  17.6902360  35.2310920 112.9088030  18.5948980
  34.6762530 113.5579320  17.3448330  42.6867760 113.1314230  16.2893010
  42.0876650 113.8550030  16.1056630  43.2347370 113.0691010  15.5069460
  37.8969210 114.0236440  28.3562630  37.8012810 113.0831170  28.2063030
  38.7401190 114.2451510  27.9610700  41.2932630 111.7677770  18.3196290
  41.6862200 112.0849970  17.5064980  41.6549480 110.8889650  18.4340810
  33.0279750 110.4350110  26.5096410  32.6343140 111.2825320  26.7169190
  32.3398150 109.7976480  26.7005050  39.6024800 110.5185080  29.5793150
  38.9123120 110.3257280  30.2139240  40.3457100 110.8019720  30.1117450
  30.3296800 108.3578570  20.5426490  30.0409850 108.9281430  21.2551470
  31.0742560 107.8783020  20.9057720  30.5167030 112.2998690  11.7529210
  30.4341700 113.2429450  11.8944200  30.1650090 112.1573600  10.8741560
  41.8787770 114.3583520  22.4147070  41.1468890 114.8670330  22.7637170
  41.4812110 113.5413500  22.1135850  38.3165160 111.0337720  20.8199560
  38.3201220 110.5927670  19.9704100  39.2116280 111.3555050  20.9271380
  34.1667540 110.9164210  19.7793770  33.8267590 111.3939440  20.5360820
  33.4044860 110.4629330  19.4194870  38.3785310 112.0349800  13.8106320
  38.4998130 111.9936280  14.7592140  37.9933820 112.8973950  13.6553050
  42.3413680 109.8117200  21.8270010  42.3586420 110.2625850  22.6711860
  42.0929260 108.9122840  22.0403450  37.3906810 114.3450940  13.2089620
  36.8223710 113.8969190  12.5825530  38.0995810 114.7043720  12.6754770
  45.7684430 107.2249380  27.6656390  46.0930200 106.4939040  28.1914370
  45.8040940 106.9063020  26.7637380  32.4675990 118.2462960  27.0856350
  32.0830780 117.6056630  27.6839310  32.7788180 118.9499080  27.6551080
  38.6173130 115.0939500  22.5664970  38.9843260 114.6198070  23.3126310
  38.4278190 115.9681070  22.9073310  31.4813620 109.8383190  18.6958440
  31.1960540 109.4738860  19.5337060  31.4192480 109.1063650  18.0821580
  36.4072500 114.1348140  24.8849180  36.1029570 115.0140120  25.1099540
  37.3618960 114.1947930  24.9206620  34.9354290 118.3409130  15.4816030
  34.1616550 117.8006750  15.3214750  35.6648920 117.8215740  15.1433790
  45.6942270 117.3374490  21.2742420  46.4141390 117.8329780  20.8838530
  45.4924090 116.6592380  20.6296290  41.1552210 108.7312450  15.4171810
  40.3416820 108.2325620  15.3417120  40.9614160 109.5710700  15.0008160
  41.0761070 117.4083550  27.1611420  41.0098380 116.4879220  26.9069010
  40.4466210 117.5058990  27.8756060  43.8700600 113.1032100  13.7133970
  44.7580220 113.4149330  13.5385310  43.8405690 112.2304350  13.3214550
  34.9791690 118.0089510  19.1194840  35.4970360 117.2057770  19.0651730
  34.5275710 117.9468650  19.9611670  39.8661190 119.2755790  14.3922140
  40.2076890 120.0198020  13.8965460  39.0373900 119.5886910  14.7546970
  32.4636230 114.9750880  26.0320540  32.1051170 115.6404730  26.6193880
  32.1690790 114.1434430  26.4033160  35.6649350 115.4335120  28.9160090
  35.3649490 115.5792300  28.0187910  36.4360590 114.8740410  28.8233480
  41.0077800 120.2304120  26.9115220  41.0222340 119.2985080  26.6934130
  40.3002900 120.3163880  27.5504990  46.1414870 114.4143940  13.1813830
  46.0578590 114.8458160  12.3310270  46.8609060 114.8742290  13.6140650
  47.2189010 116.8711460  26.2583800  46.4937200 117.4640240  26.0613190
  47.7464470 116.8635000  25.4597170  47.1702120 121.2686200  15.9095960
  46.5278280 120.6141820  16.1839680  46.7832780 121.6741290  15.1336630
  42.7488600 118.5971630  19.7567650  43.1012420 117.9999760  19.0969020
  41.8650930 118.2715860  19.9275900  38.8351880 119.3569320  17.1638060
  39.5223010 119.9038530  17.5445650  38.0484300 119.9010050  17.1987670
  30.9744280 114.9742140  12.6555140  31.8439130 115.2566940  12.9391060
  30.4834600 115.7878010  12.5403950  38.1379090 116.3615350  16.7763420
  38.5941870 117.1720600  17.0023610  37.7867300 116.0438490  17.6081910
  40.4411700 121.8721690  24.0055720  41.0853920 122.0781070  24.6829140
  40.8041140 121.1110090  23.5526570  34.0390870 106.7053000  17.2485940
  33.9105500 106.6970900  18.1970860  33.2152890 107.0436090  16.8976950
  41.7143780 119.8754040  22.7233170  42.3566010 119.1747200  22.8365340
  42.2393130 120.6552480  22.5430060  45.5599500 120.1602660  12.4472310
  45.3337080 119.4433100  13.0396950  45.1695700 119.9115100  11.6094060
  43.4881400 120.6748940  25.9269230  43.8237640 121.2615630  26.6047150
  42.5681740 120.5441650  26.1567020  31.3415530 124.1869520  13.2216770
  31.7013170 124.7858860  12.5674040  31.2007870 124.7329410  13.9951800
  31.0384800 108.4644120  26.7092640  30.3243320 108.6641040  27.3145250
  31.4579840 107.6883690  27.0807440  45.1415750 118.0774600  14.1086470
  44.8537450 118.5387290  14.8964350  45.9367920 117.6172370  14.3770690
  31.3257390 122.4524380  27.6959170  31.4348510 121.5119120  27.5554560
  30.6737950 122.7179130  27.0472900  39.3169980 120.7240270  29.0957290
  38.9966850 120.0049510  29.6402980  38.6428340 121.3995340  29.1693350
  37.3584150 121.5700720  14.0390440  37.3494250 122.3030410  13.4234950
  36.4382510 121.3232300  14.1317400  32.9590790 116.7915610  14.7837200
  32.3518740 117.5314510  14.7932500  33.4340140 116.8814970  13.9575400
  42.5323580 110.9566430  24.4594090  42.9004400 110.1361640  24.7873660
  41.6721780 111.0168320  24.8749740  45.8985610 109.9123370  15.2681650
  45.2698770 110.0169040  14.5539880  45.4037530 110.1320150  16.0575530
  40.3443750 121.6328960  12.7015630  40.4455730 121.4292950  11.7717610
  39.4445490 121.3787240  12.9063410  37.8669640 112.1909320  16.6839530
  37.1585790 112.6595660  17.1253140  38.1514120 111.5331330  17.3184720
  39.4925570 113.6106020  24.6832060  39.9910820 114.0851840  25.3483910
  39.6348520 112.6869540  24.8902090  41.8985070 108.9159980  18.1235320
  41.7752850 108.9346110  17.1744830  42.8469630 108.9638920  18.2433720
  38.9861860 124.1515280  17.3963300  39.2403360 124.1136670  16.4742670
  38.0374340 124.0248610  17.3891550  36.0704660 110.4994400  14.0590240
  36.9195190 110.9364550  13.9930430  35.7035930 110.8114660  14.8862300
  46.6992430 109.8273980  25.5260450  46.1966030 110.5679380  25.8654260
  47.5149090 110.2157980  25.2097240  44.9914440 115.0707160  18.9721810
  44.0504580 115.0857390  19.1469500  45.3058510 114.2843120  19.4182110
  34.9696080 116.7526760  12.5325770  35.7359350 116.6408120  13.0951200
  35.0470770 116.0564730  11.8802540  33.6642840 114.1851830  13.2158660
  33.7446430 113.2379340  13.3276060  34.5562590 114.5158710  13.3219320
  46.9940020 122.2416010  20.6476070  47.1187440 123.0647180  21.1199880
  47.8605580 122.0306740  20.3000220  34.4657550 124.3347220  20.3193200
  35.2020030 123.7862680  20.5901770  34.8498470 125.2003230  20.1799190
  31.3503030 120.4020790  16.1934710  30.4242810 120.6441930  16.1840120
  31.8159460 121.2295050  16.0719460  33.4715830 123.5193290  29.5078780
  34.2728560 123.8405340  29.9214180  32.9567650 123.1588870  30.2298690
  37.5759860 123.5077530  12.1418770  38.3688470 123.7966360  11.6900560
  37.0564210 123.0769700  11.4631250  42.3080460 119.6273160  29.4554190
  41.7018620 119.6504760  28.7149940  42.0034570 118.8956200  29.9921440
  43.7380830 123.3553450  28.0663600  44.6902580 123.2711470  28.0163840
  43.5909050 124.0195160  28.7397390  46.6290030 122.7347660  13.5655510
  46.3431540 122.3212800  12.7509690  46.4309580 123.6635370  13.4456030
  31.1913640 116.0066750  28.4514830  31.6952660 115.4274030  29.0231060
  30.4521060 116.2906980  28.9891200  38.0937260 118.7280940  12.0061120
  37.9887900 118.1133290  12.7322500  37.9261480 118.2046830  11.2224130
  38.2451580 117.4137740  27.9850350  37.4797250 117.9822740  27.9005020
  38.4267540 117.1213950  27.0918580  41.3339990 117.7900970  12.6103110
  40.7850090 118.2370270  13.2545850  41.9559250 117.2850220  13.1340780
  45.3874930 119.1443070  28.5425370  46.1284400 119.4818830  28.0392830
  44.6247610 119.3135130  27.9895140  33.2236720 114.1496340  29.3464900
  33.2642060 113.8510210  30.2550130  34.0782220 114.5503950  29.1872420
  37.0015110 116.7491890  14.5068410  37.4231530 116.5831760  15.3499800
  37.1265950 115.9392120  14.0123550  35.1642530 112.7288440  27.3139390
  34.6338990 112.2379390  26.6862730  35.8330600 113.1572640  26.7797320
  39.5142750 115.7729500  11.7545510  40.0348410 115.0578520  11.3886660
  40.1611150 116.4115370  12.0546020  44.0620590 117.1957900  27.0780580
  44.4761610 117.3502980  27.9271000  43.1271590 117.3213120  27.2406360
  44.5342760 114.5354060  29.0819730  45.1163530 113.7806380  28.9940210
  44.7104530 115.0661500  28.3051210  35.6514830 109.6950810  27.3936680
  35.5571700 109.0771560  26.6687550  35.0712220 110.4217100  27.1666590
  38.4176270 108.2524050  24.4264070  37.9693570 108.2748310  23.5809620
  37.7841470 107.8543070  25.0234370  38.8235820 117.1478380  25.0476510
  39.2423930 117.9911110  24.8752750  37.9044450 117.2850420  24.8183290
  41.1599720 114.8794560  26.4314350  41.2795930 114.2835700  27.1709190
  42.0193720 114.9164250  26.0115650  43.4987620 115.4331750  25.0076860
  42.9722840 115.9574370  24.4042000  43.8418960 116.0659140  25.6386590
  35.8974010 112.8225120  11.4526570  35.6963070 111.9592480  11.8139910
  35.7266060 112.7358480  10.5148170  36.6743240 123.4531390  26.1634240
  36.1364330 124.1777450  25.8442940  36.9277200 122.9761730  25.3731580
  37.9268490 111.4215910  27.6890170  38.5168180 111.1131760  28.3767990
  37.1088730 110.9495660  27.8450070  42.7461920 111.0381720  27.9223190
  42.0577440 110.3763260  27.8573180  43.4667940 110.5919990  28.3671650
  43.3762320 107.6333350  13.9813450  43.6564610 106.7901250  14.3372870
  42.6028050 107.8656460  14.4952200  34.6956810 109.9225740  11.4404450
  34.9982710 109.9293170  10.5323600  35.4351400 109.5723600  11.9372110
  39.5305450 124.6882600  26.4220890  39.4564150 125.5917740  26.7293260
  38.6284290 124.3694500  26.3942960  37.9141740 108.8660360  12.4260650
  37.5663740 108.1884350  11.8463100  38.1154510 108.4049870  13.2404040
  40.0790780 123.8541110  14.0447250  40.9741570 124.1926080  14.0666010
  40.1108410 123.1320520  13.4171530  33.7186940 119.2268160  12.2734250
  34.1561810 119.7697830  12.9291830  34.2034670 118.4015110  12.2830590
  30.9332740 122.0157190  19.7254510  31.2635750 121.1478250  19.4933150
  31.3623740 122.2215710  20.5559470  35.5294660 120.3466200  17.3856480
  35.2290200 120.2231170  18.2860390  35.4232150 119.4874790  16.9772210
  31.4222950 122.8827780  22.4636140  30.9853940 123.0628580  23.2960290
  31.9900630 123.6402400  22.3217860  47.0585130 122.3844780  26.7513450
  46.4587120 122.4437340  26.0077370  47.1879030 121.4449760  26.8810300
  48.2986580 120.1262600  12.0883160  47.4679540 120.1939250  12.5590390
  48.4758410 121.0166720  11.7850020  47.7543040 116.8710080  14.5917360
  48.5161950 117.4406730  14.6977050  47.7697410 116.3037280  15.3625670
  31.2547380 115.3948010  18.8225020  30.5996220 115.1259650  18.1784720
  32.0925330 115.2852490  18.3727000  48.7603010 117.7260180  19.4359290
  49.1311840 116.9427500  19.0295260  49.4004940 118.4149280  19.2576590
  45.7436770 119.1096760  24.8489610  44.9296610 119.5393920  25.1115400
  46.1510970 119.7215170  24.2358660  47.8062210 117.1644450  11.7489880
  48.0811050 118.0723330  11.6209100  47.6172950 117.1006980  12.6851870
  44.2037820 110.1889300  13.0443510  44.6222700 110.0020280  12.2040170
  43.8973880 109.3368350  13.3546440  47.7027550 115.1013440  16.7419310
  47.3271150 114.3341370  16.3100600  46.9730670 115.4836140  17.2294240
  32.2923310 115.7800580  23.3628360  32.6596350 115.6927980  24.2424380
  31.7234130 115.0167130  23.2635220  47.0927170 114.2484960  26.3758830
  46.8613260 114.0197710  25.4756780  47.3531720 115.1684510  26.3303720
  31.8439310 112.6909670  27.2686780  30.9495360 112.6576430  27.6080490
  32.3836860 112.8896460  28.0338030  45.5315240 109.4741390  29.1538530
  46.4085420 109.4824790  29.5372530  45.5436080 108.7372230  28.5430880
  30.4685460 112.6046940  14.7650350  29.5649540 112.8677140  14.5902010
  30.9526080 112.8758110  13.9850310  46.9778510 113.3270930  20.0426550
  47.5015990 112.8333580  19.4116720  47.5637930 113.4621290  20.7874120
  47.1568230 113.4110800  23.5646100  46.2070940 113.3774340  23.6791090
  47.3381240 114.3210910  23.3295870  33.0112670 111.6612480  12.6744730
  33.7204370 111.2395700  12.1892010  32.2952610 111.7287710  12.0428080
  32.6586830 107.7151810  11.7147380  33.3814960 108.2560750  12.0328600
  32.9311350 107.4415230  10.8388920  46.4678480 112.5844280  15.9818960
  46.9637600 112.3515150  16.7667840  46.2694550 111.7456120  15.5656600
  32.3479020 106.9658000  21.6170000  32.9955210 106.4155380  21.1765160
  32.7680860 107.2201150  22.4385810  47.8965640 111.2205230  18.5156640
  47.7864920 111.0661270  19.4538910  48.6573230 110.6926170  18.2732050
  46.2431360 107.1599360  24.9739640  46.8803580 107.7733500  25.3398830
  46.3906250 107.1960020  24.0288870  48.7855910 109.0513150  11.7562780
  49.7105220 108.9194330  11.5481070  48.7631700 109.1305970  12.7099230
  48.8594400 109.8223810  14.3819490  48.0645900 109.7568930  14.9112400
  49.0637680 110.7574450  14.3704840  45.8012820 123.8615360  18.3757880
  46.3971890 123.5399930  17.6992300  46.0590970 123.3887180  19.1671150
  32.1011020 107.1213670  24.3595320  31.7525840 107.5777490  25.1253500
  31.7698720 106.2270800  24.4417750  33.7075390 120.2933270  28.5248510
  33.6645020 119.9226180  29.4062970  33.8386400 121.2310840  28.6650330
  37.4081420 121.8492860  24.1258230  37.1672780 122.1167420  23.2388750
  38.3484060 122.0198590  24.1809090  39.6135840 108.3125550  27.8814740
  39.5524730 108.9047380  28.6310150  40.5536220 108.2051510  27.7365000
  42.2510400 107.9695610  27.5207030  42.8650810 108.2874900  26.8588110
  42.7959960 107.4844200  28.1402890  48.6685580 123.8687240  24.9268870
  48.1743860 124.2656110  24.2096000  48.0598870 123.2436450  25.3206150
  32.7731660 106.6489870  27.6346090  33.3214650 106.4677920  26.8712200
  32.8386970 105.8583980  28.1702400  33.5463420 123.2395520  25.6446290
  32.9523740 123.1080220  26.3836330  33.5387260 122.4033660  25.1788390
  42.9918440 106.5327750  23.8476320  42.1178280 106.8662860  23.6449250
  42.8829190 106.0600930  24.6728190  43.8990420 108.7398620  25.2318040
  43.5703780 107.9250380  24.8519770  44.8472720 108.6968430  25.1083730
  46.3525030 124.5110660  22.2055610  45.8928000 125.2626470  21.8313630
  45.7237490 123.7917130  22.1470410  33.1775650 120.6053900  24.5954330
  32.4509710 119.9859190  24.5280280  33.2384800 120.9994510  23.7252410
  36.7820750 122.8198900  21.3803740  37.2985770 122.2086260  20.8552000
  37.4318130 123.3227680  21.8714750  39.5216250 123.7107390  22.2072720
  39.8094060 123.4561690  21.3305730  40.0339470 123.1584750  22.7978290
  40.7393260 107.4497590  22.7869230  39.9565050 107.9243090  23.0665990
  40.4456190 106.5452420  22.6782410  45.2914330 108.1520690  20.8318320
  45.7322420 108.0965790  19.9839920  45.0221920 109.0678700  20.9028500
  47.1552900 107.7835930  18.8427140  47.0941300 106.8397150  18.6958160
  47.9344930 107.8916020  19.3880600  31.4605650 123.9228290  17.8051090
  31.2927690 123.2898970  18.5032980  30.5940160 124.1287690  17.4545280
  32.0833670 107.7545070  15.3082950  32.8413030 107.8673950  14.7346980
  31.6210840 108.5914270  15.2626380  38.6247480 109.8684340  18.2985260
  37.8121990 109.4941230  17.9581140  39.1289120 109.1129420  18.6006450
  43.1272460 106.5326790  19.5368330  43.7301830 107.1047000  20.0116850
  42.3865450 107.0966230  19.3142230  46.2707060 106.9348350  14.8108610
  46.4657690 107.8331800  15.0776040  45.4836930 106.7035430  15.3041560
  33.0668350 122.6161520  15.2501230  32.5415970 122.9969550  14.5463190
  32.9912930 123.2412290  15.9710940  34.4558820 108.2809120  13.8484920
  34.9851580 107.4938920  13.7192870  35.0887140 108.9600310  14.0820450
  36.6496660 108.0184260  16.9030310  36.0199400 107.3171570  17.0700440
  36.1101800 108.7788390  16.6863470  39.5888610 124.6323490  29.5740920
  40.5155920 124.3967760  29.6176880  39.5739040 125.4595490  29.0926950
  47.8233670 124.1749060  16.5715170  47.9985860 123.4886800  15.9276090
  47.1255240 124.6996110  16.1791840  36.7752220 107.2968240  29.3382800
  36.4936490 107.8001840  28.5743620  37.1571920 106.4989990  28.9724930
  35.6661320 124.5643900  14.1250480  36.3980140 124.2803180  13.5774370
  35.9254990 124.3257180  15.0149860  34.8276110 120.6808630  14.1296810
  34.1984990 121.1493730  14.6782640  34.9423940 119.8357850  14.5643000
  46.1566170 123.8593350  29.3981960  46.9491490 123.3642580  29.1907920
  46.4499320 124.5383490  30.0057570  40.4143870 116.5093310   2.1607280
  39.6385970 116.0293750   2.4505850  41.0656800 115.8298960   1.9863440
  34.4309700 116.8213120   3.0383040  33.5994580 116.5661830   3.4379550
  35.0390680 116.8923890   3.7740960  34.4110960 120.8553210   3.2341060
  34.7139000 119.9650950   3.0551280  35.1554550 121.4123430   3.0063310
  30.8034660 114.3820660   2.7065130  31.3750770 113.6142860   2.7068770
  30.8036200 114.6809420   1.7971740  39.8552860 119.1850500   2.1677440
  39.7861140 118.2440440   2.0066570  40.6172720 119.2751910   2.7400010
  32.0459530 109.7905020   4.4934060  31.8662370 108.8930770   4.7736820
  31.6439610 110.3376890   5.1681010  32.6646200 112.2865520   3.1016400
  33.3456310 112.5503890   3.7203800  32.3494250 111.4466390   3.4354410
  36.8570770 113.3332880   2.1888990  37.3648990 113.8313850   2.8294010
  37.3884010 112.5568080   2.0128350  48.9581700 111.5038070   5.8918340
  48.2533870 111.8919780   5.3733450  49.2239620 112.1988360   6.4939270
  35.1406870 107.9731440   6.4552410  35.1425310 108.4903830   5.6498310
  34.3111180 107.4961620   6.4322340  36.3909720 117.6126620   4.6325910
  36.0579100 118.2395540   5.2746980  36.5676400 118.1388500   3.8527580
  44.9043630 111.4271700   2.1002250  44.1999200 111.7156590   2.6805360
  45.2655790 112.2371810   1.7401810  34.8222200 109.6841400   4.4622860
  35.1639010 110.5283450   4.1676730  33.8838010 109.8325140   4.5788200
  35.6028820 119.5807420   6.4475090  36.2202820 120.2558500   6.1659540
  34.7421940 119.9895400   6.3562590  46.5206410 121.0446830   4.3629730
  45.8369930 121.7145940   4.3546400  47.0600700 121.2427480   3.5974590
  47.9730550 110.8726490   2.4911460  47.0255460 110.9065470   2.6226890
  48.2980540 111.6865440   2.8760820  44.0565150 122.8890960   3.0774910
  44.0692310 122.4853250   2.2097170  43.5040370 123.6638250   2.9736340
  43.4550590 117.7920800   4.4057520  43.8719380 117.5780910   3.5710980
  44.1790410 118.0493590   4.9766140  47.4012690 116.1908020   4.4973760
  46.5731320 116.2601110   4.0223890  47.9963170 116.7762330   4.0289590
  44.3654700 112.9777340   5.4428630  43.9525880 113.8031050   5.6968620
  43.6330650 112.3922380   5.2504990  36.9669190 119.4504800   2.4686510
  36.6697480 118.8450270   1.7894290  37.9169010 119.4882110   2.3575870
  35.2116110 112.5380450   4.0846340  35.7630700 112.6475790   3.3099590
  35.7259620 112.9118050   4.8001570  45.0554800 123.0236670   6.1309610
  44.5785360 123.8308860   5.9382220  44.3716590 122.3715000   6.2835820
  36.0587620 119.1886490   9.1194310  35.1616150 119.4126460   9.3667710
  36.0840490 119.3121430   8.1705710  34.8858840 116.0599810   7.6951680
  34.7466610 116.9322610   8.0639080  34.0040200 115.7172620   7.5499620
  36.6839190 122.0021510   9.9036830  36.6554620 122.4064460   9.0365260
  36.5204160 121.0731870   9.7408430  48.6354010 122.7848610  11.2001000
  49.1113730 123.2631500  11.8790080  49.2561170 122.7166100  10.4746500
  30.8377490 117.8297360   3.6122590  30.9157910 117.9646130   2.6678310
  31.4519170 117.1213250   3.8050710  48.0387260 119.9761460   8.3601010
  48.1650320 119.7373340   7.4418190  48.0808640 119.1446000   8.8323090
  41.9004000 123.6789460   6.9295820  42.4148670 123.5897470   7.7318250
  41.0573080 124.0249160   7.2223730  47.8911270 112.0293920   9.3250750
  47.2755540 112.5373590   8.7966210  47.5707690 111.1292250   9.2676690
  30.8937010 118.8711530   6.1517050  31.0568050 118.4016890   5.3336420
  31.3589460 118.3635090   6.8165890  39.9525590 110.8685810   6.7912940
  39.4904960 111.0768830   7.6032880  39.5503700 110.0545160   6.4883610
  44.9530100 112.0894760   7.9209600  44.1023690 111.7900510   8.2418670
  44.7931890 112.3336770   7.0093420  42.0479810 113.5896510  10.0208390
  42.3733220 112.7560260   9.6810620  42.8360140 114.1125030  10.1686720
  37.7031680 108.5464620   3.0467220  38.0004010 109.4527450   2.9659240
  38.2517240 108.0583400   2.4326790  37.8969210 114.0236440   9.5819140
  37.8012810 113.0831170   9.4319540  38.7401190 114.2451510   9.1867210
  33.0279750 110.4350110   7.7352920  32.6343140 111.2825320   7.9425700
  32.3398150 109.7976480   7.9261560  39.6024800 110.5185080  10.8049660
  38.9123120 110.3257280  11.4395750  40.3457100 110.8019720  11.3373960
  30.3296800 108.3578570   1.7683000  30.0409850 108.9281430   2.4807980
  31.0742560 107.8783020   2.1314230  41.8787770 114.3583520   3.6403580
  41.1468890 114.8670330   3.9893680  41.4812110 113.5413500   3.3392360
  42.3413680 109.8117200   3.0526520  42.3586420 110.2625850   3.8968370
  42.0929260 108.9122840   3.2659960  45.7684430 107.2249380   8.8912900
  46.0930200 106.4939040   9.4170880  45.8040940 106.9063020   7.9893890
  32.4675990 118.2462960   8.3112860  32.0830780 117.6056630   8.9095820
  32.7788180 118.9499080   8.8807590  38.6173130 115.0939500   3.7921480
  38.9843260 114.6198070   4.5382820  38.4278190 115.9681070   4.1329820
  36.4072500 114.1348140   6.1105690  36.1029570 115.0140120   6.3356050
  37.3618960 114.1947930   6.1463130  45.6942270 117.3374490   2.4998930
  46.4141390 117.8329780   2.1095040  45.4924090 116.6592380   1.8552800
  41.0761070 117.4083550   8.3867930  41.0098380 116.4879220   8.1325520
  40.4466210 117.5058990   9.1012570  32.4636230 114.9750880   7.2577050
  32.1051170 115.6404730   7.8450390  32.1690790 114.1434430   7.6289670
  35.6649350 115.4335120  10.1416600  35.3649490 115.5792300   9.2444420
  36.4360590 114.8740410  10.0489990  41.0077800 120.2304120   8.1371730
  41.0222340 119.2985080   7.9190640  40.3002900 120.3163880   8.7761500
  47.2189010 116.8711460   7.4840310  46.4937200 117.4640240   7.2869700
  47.7464470 116.8635000   6.6853680  40.4411700 121.8721690   5.2312230
  41.0853920 122.0781070   5.9085650  40.8041140 121.1110090   4.7783080
  41.7143780 119.8754040   3.9489680  42.3566010 119.1747200   4.0621850
  42.2393130 120.6552480   3.7686570  43.4881400 120.6748940   7.1525740
  43.8237640 121.2615630   7.8303660  42.5681740 120.5441650   7.3823530
  31.0384800 108.4644120   7.9349150  30.3243320 108.6641040   8.5401760
  31.4579840 107.6883690   8.3063950  31.3257390 122.4524380   8.9215680
  31.4348510 121.5119120   8.7811070  30.6737950 122.7179130   8.2729410
  39.3169980 120.7240270  10.3213800  38.9966850 120.0049510  10.8659490
  38.6428340 121.3995340  10.3949860  42.5323580 110.9566430   5.6850600
  42.9004400 110.1361640   6.0130170  41.6721780 111.0168320   6.1006250
  39.4925570 113.6106020   5.9088570  39.9910820 114.0851840   6.5740420
  39.6348520 112.6869540   6.1158600  46.6992430 109.8273980   6.7516960
  46.1966030 110.5679380   7.0910770  47.5149090 110.2157980   6.4353750
  33.4715830 123.5193290  10.7335290  34.2728560 123.8405340  11.1470690
  32.9567650 123.1588870  11.4555200  42.3080460 119.6273160  10.6810700
  41.7018620 119.6504760   9.9406450  42.0034570 118.8956200  11.2177950
  43.7380830 123.3553450   9.2920110  44.6902580 123.2711470   9.2420350
  43.5909050 124.0195160   9.9653900  31.1913640 116.0066750   9.6771340
  31.6952660 115.4274030  10.2487570  30.4521060 116.2906980  10.2147710
  38.2451580 117.4137740   9.2106860  37.4797250 117.9822740   9.1261530
  38.4267540 117.1213950   8.3175090  45.3874930 119.1443070   9.7681880
  46.1284400 119.4818830   9.2649340  44.6247610 119.3135130   9.2151650
  33.2236720 114.1496340  10.5721410  33.2642060 113.8510210  11.4806640
  34.0782220 114.5503950  10.4128930  35.1642530 112.7288440   8.5395900
  34.6338990 112.2379390   7.9119240  35.8330600 113.1572640   8.0053830
  44.0620590 117.1957900   8.3037090  44.4761610 117.3502980   9.1527510
  43.1271590 117.3213120   8.4662870  44.5342760 114.5354060  10.3076240
  45.1163530 113.7806380  10.2196720  44.7104530 115.0661500   9.5307720
  35.6514830 109.6950810   8.6193190  35.5571700 109.0771560   7.8944060
  35.0712220 110.4217100   8.3923100  38.4176270 108.2524050   5.6520580
  37.9693570 108.2748310   4.8066130  37.7841470 107.8543070   6.2490880
  38.8235820 117.1478380   6.2733020  39.2423930 117.9911110   6.1009260
  37.9044450 117.2850420   6.0439800  41.1599720 114.8794560   7.6570860
  41.2795930 114.2835700   8.3965700  42.0193720 114.9164250   7.2372160
  43.4987620 115.4331750   6.2333370  42.9722840 115.9574370   5.6298510
  43.8418960 116.0659140   6.8643100  36.6743240 123.4531390   7.3890750
  36.1364330 124.1777450   7.0699450  36.9277200 122.9761730   6.5988090
  37.9268490 111.4215910   8.9146680  38.5168180 111.1131760   9.6024500
  37.1088730 110.9495660   9.0706580  42.7461920 111.0381720   9.1479700
  42.0577440 110.3763260   9.0829690  43.4667940 110.5919990   9.5928160
  39.5305450 124.6882600   7.6477400  39.4564150 125.5917740   7.9549770
  38.6284290 124.3694500   7.6199470  31.4222950 122.8827780   3.6892650
  30.9853940 123.0628580   4.5216800  31.9900630 123.6402400   3.5474370
  47.0585130 122.3844780   7.9769960  46.4587120 122.4437340   7.2333880
  47.1879030 121.4449760   8.1066810  45.7436770 119.1096760   6.0746120
  44.9296610 119.5393920   6.3371910  46.1510970 119.7215170   5.4615170
  32.2923310 115.7800580   4.5884870  32.6596350 115.6927980   5.4680890
  31.7234130 115.0167130   4.4891730  47.0927170 114.2484960   7.6015340
  46.8613260 114.0197710   6.7013290  47.3531720 115.1684510   7.5560230
  31.8439310 112.6909670   8.4943290  30.9495360 112.6576430   8.8337000
  32.3836860 112.8896460   9.2594540  45.5315240 109.4741390  10.3795040
  46.4085420 109.4824790  10.7629040  45.5436080 108.7372230   9.7687390
  47.1568230 113.4110800   4.7902610  46.2070940 113.3774340   4.9047600
  47.3381240 114.3210910   4.5552380  32.3479020 106.9658000   2.8426510
  32.9955210 106.4155380   2.4021670  32.7680860 107.2201150   3.6642320
  46.2431360 107.1599360   6.1996150  46.8803580 107.7733500   6.5655340
  46.3906250 107.1960020   5.2545380  32.1011020 107.1213670   5.5851830
  31.7525840 107.5777490   6.3510010  31.7698720 106.2270800   5.6674260
  33.7075390 120.2933270   9.7505020  33.6645020 119.9226180  10.6319480
  33.8386400 121.2310840   9.8906840  37.4081420 121.8492860   5.3514740
  37.1672780 122.1167420   4.4645260  38.3484060 122.0198590   5.4065600
  39.6135840 108.3125550   9.1071250  39.5524730 108.9047380   9.8566660
  40.5536220 108.2051510   8.9621510  42.2510400 107.9695610   8.7463540
  42.8650810 108.2874900   8.0844620  42.7959960 107.4844200   9.3659400
  48.6685580 123.8687240   6.1525380  48.1743860 124.2656110   5.4352510
  48.0598870 123.2436450   6.5462660  32.7731660 106.6489870   8.8602600
  33.3214650 106.4677920   8.0968710  32.8386970 105.8583980   9.3958910
  33.5463420 123.2395520   6.8702800  32.9523740 123.1080220   7.6092840
  33.5387260 122.4033660   6.4044900  42.9918440 106.5327750   5.0732830
  42.1178280 106.8662860   4.8705760  42.8829190 106.0600930   5.8984700
  43.8990420 108.7398620   6.4574550  43.5703780 107.9250380   6.0776280
  44.8472720 108.6968430   6.3340240  46.3525030 124.5110660   3.4312120
  45.8928000 125.2626470   3.0570140  45.7237490 123.7917130   3.3726920
  33.1775650 120.6053900   5.8210840  32.4509710 119.9859190   5.7536790
  33.2384800 120.9994510   4.9508920  36.7820750 122.8198900   2.6060250
  37.2985770 122.2086260   2.0808510  37.4318130 123.3227680   3.0971260
  39.5216250 123.7107390   3.4329230  39.8094060 123.4561690   2.5562240
  40.0339470 123.1584750   4.0234800  40.7393260 107.4497590   4.0125740
  39.9565050 107.9243090   4.2922500  40.4456190 106.5452420   3.9038920
  39.5888610 124.6323490  10.7997430  40.5155920 124.3967760  10.8433390
  39.5739040 125.4595490  10.3183460  36.7752220 107.2968240  10.5639310
  36.4936490 107.8001840   9.8000130  37.1571920 106.4989990  10.1981440
  43.3767680 106.7121820  11.1419780  43.2633130 107.0316430  12.0371300
  44.1937420 107.1134330  10.8457060  46.1566170 123.8593350  10.6238470
  46.9491490 123.3642580  10.4164430  46.4499320 124.5383490  11.2314080
  42.2825830  95.9570800 150.4745930  42.2019880  95.0425410 150.2037640
  41.8690250  96.4537870 149.7685640  44.4351300 102.1410010 151.1354330
  43.9732830 101.3697250 151.4641500  45.2476850 102.1676080 151.6406780
  32.8401650  93.0071520 147.0173350  31.9518350  93.3487490 146.9153230
  33.1242840  92.8071840 146.1254180  40.6614610 104.4268020 150.7558320
  40.0426050 104.8825520 150.1852760  41.5166390 104.5819480 150.3548020
  35.0163040  91.5903020 148.0511730  35.1229790  92.4906750 148.3580490
  34.1055400  91.5420990 147.7606380  44.6682150  90.7127830 149.5222630
  45.4891770  90.2224400 149.5648110  44.7016230  91.3025490 150.2754470
  41.5277960  99.3107260 148.1490230  40.9095230  99.7756710 147.5852950
  42.0401210 100.0034740 148.5659740  30.8961160  99.9963790 145.5229860
  30.5189140 100.4850890 144.7914760  31.1534230 100.6689070 146.1536390
  38.5050090  88.3980180 150.9815370  38.8125070  87.8427070 150.2650870
  37.5750790  88.5324640 150.7988360  45.3510570 100.8363690 148.3613000
  45.2406900  99.8938020 148.4862420  45.3478820 101.1979330 149.2475760
  40.8930850  96.4629010 147.7175490  39.9660130  96.3966390 147.9463960
  41.0455670  97.4009140 147.6030730  40.8799930  92.7346010 144.7142650
  39.9403600  92.8959970 144.7995110  41.1983190  93.4531690 144.1678640
  44.9228140  98.0249310 148.2210740  44.3040560  97.6868860 147.5737040
  44.9052590  97.3809070 148.9289930  36.4987490  96.9893750 150.4995220
  36.0944490  96.2771000 150.0041120  36.5850610  96.6446990 151.3883260
  43.0992840  97.2636120 145.2283490  43.5386120  96.4258550 145.0821310
  43.8121260  97.8965520 145.3147630  41.2088220 102.2032190 149.1964730
  41.6484130 102.9456520 148.7820120  41.1475110 102.4458760 150.1203690
  46.6809980  88.5178930 143.5424530  46.3682640  88.6105760 144.4423600
  47.4422450  89.0959960 143.4921960  33.1992120  95.8838730 148.0001870
  33.0789720  96.6100820 147.3883140  32.8893010  95.1141640 147.5229780
  32.0825120 100.7554060 150.2176690  31.6753200 100.8968650 149.3630290
  32.9738130 100.4714220 150.0147900  43.8758400 105.1901310 146.5527740
  43.7159540 104.9004250 147.4509570  43.7105110 104.4141440 146.0172970
  36.3546780 104.9699840 148.3299360  36.1789260 104.0535380 148.1167160
  35.5002520 105.3287130 148.5697160  43.5784530 102.6988870 145.1125740
  42.8849690 102.6966160 144.4528020  44.3207390 102.2748190 144.6819910
  43.1434460 104.3251580 149.1874230  43.5991410 103.5440960 149.5012850
  43.4826980 105.0358400 149.7315410  35.6655780  89.2273800 151.3825540
  35.2223930  90.0083340 151.0510060  36.2240770  89.5503690 152.0896480
  38.7814600  88.8484500 146.2631370  38.1568780  88.8444370 146.9884680
  38.6944720  87.9815460 145.8667340  35.4570000  94.3507370 149.1106790
  35.2310920  94.1344540 150.0153410  34.6762530  94.7835830 148.7652760
  42.6867760  94.3570740 147.7097440  42.0876650  95.0806540 147.5261060
  43.2347370  94.2947520 146.9273890  41.2932630  92.9934280 149.7400720
  41.6862200  93.3106480 148.9269410  41.6549480  92.1146160 149.8545240
  30.5167030  93.5255200 143.1733640  30.4341700  94.4685960 143.3148630
  30.1650090  93.3830110 142.2945990  38.3165160  92.2594230 152.2403990
  38.3201220  91.8184180 151.3908530  39.2116280  92.5811560 152.3475810
  34.1667540  92.1420720 151.1998200  33.8267590  92.6195950 151.9565250
  33.4044860  91.6885840 150.8399300  38.3785310  93.2606310 145.2310750
  38.4998130  93.2192790 146.1796570  37.9933820  94.1230460 145.0757480
  37.3906810  95.5707450 144.6294050  36.8223710  95.1225700 144.0029960
  38.0995810  95.9300230 144.0959200  31.4813620  91.0639700 150.1162870
  31.1960540  90.6995370 150.9541490  31.4192480  90.3320160 149.5026010
  34.9354290  99.5665640 146.9020460  34.1616550  99.0263260 146.7419180
  35.6648920  99.0472250 146.5638220  41.1552210  89.9568960 146.8376240
  40.3416820  89.4582130 146.7621550  40.9614160  90.7967210 146.4212590
  43.8700600  94.3288610 145.1338400  44.7580220  94.6405840 144.9589740
  43.8405690  93.4560860 144.7418980  34.9791690  99.2346020 150.5399270
  35.4970360  98.4314280 150.4856160  34.5275710  99.1725160 151.3816100
  39.8661190 100.5012300 145.8126570  40.2076890 101.2454530 145.3169890
  39.0373900 100.8143420 146.1751400  46.1414870  95.6400450 144.6018260
  46.0578590  96.0714670 143.7514700  46.8609060  96.0998800 145.0345080
  47.1702120 102.4942710 147.3300390  46.5278280 101.8398330 147.6044110
  46.7832780 102.8997800 146.5541060  42.7488600  99.8228140 151.1772080
  43.1012420  99.2256270 150.5173450  41.8650930  99.4972370 151.3480330
  38.8351880 100.5825830 148.5842490  39.5223010 101.1295040 148.9650080
  38.0484300 101.1266560 148.6192100  30.9744280  96.1998650 144.0759570
  31.8439130  96.4823450 144.3595490  30.4834600  97.0134520 143.9608380
  38.1379090  97.5871860 148.1967850  38.5941870  98.3977110 148.4228040
  37.7867300  97.2695000 149.0286340  34.0390870  87.9309510 148.6690370
  33.9105500  87.9227410 149.6175290  33.2152890  88.2692600 148.3181380
  45.5599500 101.3859170 143.8676740  45.3337080 100.6689610 144.4601380
  45.1695700 101.1371610 143.0298490  31.3415530 105.4126030 144.6421200
  31.7013170 106.0115370 143.9878470  31.2007870 105.9585920 145.4156230
  45.1415750  99.3031110 145.5290900  44.8537450  99.7643800 146.3168780
  45.9367920  98.8428880 145.7975120  37.3584150 102.7957230 145.4594870
  37.3494250 103.5286920 144.8439380  36.4382510 102.5488810 145.5521830
  32.9590790  98.0172120 146.2041630  32.3518740  98.7571020 146.2136930
  33.4340140  98.1071480 145.3779830  45.8985610  91.1379880 146.6886080
  45.2698770  91.2425550 145.9744310  45.4037530  91.3576660 147.4779960
  40.3443750 102.8585470 144.1220060  40.4455730 102.6549460 143.1922040
  39.4445490 102.6043750 144.3267840  37.8669640  93.4165830 148.1043960
  37.1585790  93.8852170 148.5457570  38.1514120  92.7587840 148.7389150
  41.8985070  90.1416490 149.5439750  41.7752850  90.1602620 148.5949260
  42.8469630  90.1895430 149.6638150  38.9861860 105.3771790 148.8167730
  39.2403360 105.3393180 147.8947100  38.0374340 105.2505120 148.8095980
  36.0704660  91.7250910 145.4794670  36.9195190  92.1621060 145.4134860
  35.7035930  92.0371170 146.3066730  44.9914440  96.2963670 150.3926240
  44.0504580  96.3113900 150.5673930  45.3058510  95.5099630 150.8386540
  34.9696080  97.9783270 143.9530200  35.7359350  97.8664630 144.5155630
  35.0470770  97.2821240 143.3006970  33.6642840  95.4108340 144.6363090
  33.7446430  94.4635850 144.7480490  34.5562590  95.7415220 144.7423750
  34.4657550 105.5603730 151.7397630  35.2020030 105.0119190 152.0106200
  34.8498470 106.4259740 151.6003620  31.3503030 101.6277300 147.6139140
  30.4242810 101.8698440 147.6044550  31.8159460 102.4551560 147.4923890
  37.5759860 104.7334040 143.5623200  38.3688470 105.0222870 143.1104990
  37.0564210 104.3026210 142.8835680  46.6290030 103.9604170 144.9859940
  46.3431540 103.5469310 144.1714120  46.4309580 104.8891880 144.8660460
  38.0937260  99.9537450 143.4265550  37.9887900  99.3389800 144.1526930
  37.9261480  99.4303340 142.6428560  41.3339990  99.0157480 144.0307540
  40.7850090  99.4626780 144.6750280  41.9559250  98.5106730 144.5545210
  37.0015110  97.9748400 145.9272840  37.4231530  97.8088270 146.7704230
  37.1265950  97.1648630 145.4327980  39.5142750  96.9986010 143.1749940
  40.0348410  96.2835030 142.8091090  40.1611150  97.6371880 143.4750450
  35.8974010  94.0481630 142.8731000  35.6963070  93.1848990 143.2344340
  35.7266060  93.9614990 141.9352600  43.3762320  88.8589860 145.4017880
  43.6564610  88.0157760 145.7577300  42.6028050  89.0912970 145.9156630
  34.6956810  91.1482250 142.8608880  34.9982710  91.1549680 141.9528030
  35.4351400  90.7980110 143.3576540  37.9141740  90.0916870 143.8465080
  37.5663740  89.4140860 143.2667530  38.1154510  89.6306380 144.6608470
  40.0790780 105.0797620 145.4651680  40.9741570 105.4182590 145.4870440
  40.1108410 104.3577030 144.8375960  33.7186940 100.4524670 143.6938680
  34.1561810 100.9954340 144.3496260  34.2034670  99.6271620 143.7035020
  30.9332740 103.2413700 151.1458940  31.2635750 102.3734760 150.9137580
  31.3623740 103.4472220 151.9763900  35.5294660 101.5722710 148.8060910
  35.2290200 101.4487680 149.7064820  35.4232150 100.7131300 148.3976640
  48.2986580 101.3519110 143.5087590  47.4679540 101.4195760 143.9794820
  48.4758410 102.2423230 143.2054450  47.7543040  98.0966590 146.0121790
  48.5161950  98.6663240 146.1181480  47.7697410  97.5293790 146.7830100
  31.2547380  96.6204520 150.2429450  30.5996220  96.3516160 149.5989150
  32.0925330  96.5109000 149.7931430  48.7603010  98.9516690 150.8563720
  49.1311840  98.1684010 150.4499690  49.4004940  99.6405790 150.6781020
  47.8062210  98.3900960 143.1694310  48.0811050  99.2979840 143.0413530
  47.6172950  98.3263490 144.1056300  44.2037820  91.4145810 144.4647940
  44.6222700  91.2276790 143.6244600  43.8973880  90.5624860 144.7750870
  47.7027550  96.3269950 148.1623740  47.3271150  95.5597880 147.7305030
  46.9730670  96.7092650 148.6498670  30.4685460  93.8303450 146.1854780
  29.5649540  94.0933650 146.0106440  30.9526080  94.1014620 145.4054740
  46.9778510  94.5527440 151.4630980  47.5015990  94.0590090 150.8321150
  47.5637930  94.6877800 152.2078550  33.0112670  92.8868990 144.0949160
  33.7204370  92.4652210 143.6096440  32.2952610  92.9544220 143.4632510
  32.6586830  88.9408320 143.1351810  33.3814960  89.4817260 143.4533030
  32.9311350  88.6671740 142.2593350  46.4678480  93.8100790 147.4023390
  46.9637600  93.5771660 148.1872270  46.2694550  92.9712630 146.9861030
  47.8965640  92.4461740 149.9361070  47.7864920  92.2917780 150.8743340
  48.6573230  91.9182680 149.6936480  48.7855910  90.2769660 143.1767210
  49.7105220  90.1450840 142.9685500  48.7631700  90.3562480 144.1303660
  48.8594400  91.0480320 145.8023920  48.0645900  90.9825440 146.3316830
  49.0637680  91.9830960 145.7909270  45.8012820 105.0871870 149.7962310
  46.3971890 104.7656440 149.1196730  46.0590970 104.6143690 150.5875580
  45.2914330  89.3777200 152.2522750  45.7322420  89.3222300 151.4044350
  45.0221920  90.2935210 152.3232930  47.1552900  89.0092440 150.2631570
  47.0941300  88.0653660 150.1162590  47.9344930  89.1172530 150.8085030
  31.4605650 105.1484800 149.2255520  31.2927690 104.5155480 149.9237410
  30.5940160 105.3544200 148.8749710  32.0833670  88.9801580 146.7287380
  32.8413030  89.0930460 146.1551410  31.6210840  89.8170780 146.6830810
  38.6247480  91.0940850 149.7189690  37.8121990  90.7197740 149.3785570
  39.1289120  90.3385930 150.0210880  43.1272460  87.7583300 150.9572760
  43.7301830  88.3303510 151.4321280  42.3865450  88.3222740 150.7346660
  46.2707060  88.1604860 146.2313040  46.4657690  89.0588310 146.4980470
  45.4836930  87.9291940 146.7245990  33.0668350 103.8418030 146.6705660
  32.5415970 104.2226060 145.9667620  32.9912930 104.4668800 147.3915370
  34.4558820  89.5065630 145.2689350  34.9851580  88.7195430 145.1397300
  35.0887140  90.1856820 145.5024880  36.6496660  89.2440770 148.3234740
  36.0199400  88.5428080 148.4904870  36.1101800  90.0044900 148.1067900
  47.8233670 105.4005570 147.9919600  47.9985860 104.7143310 147.3480520
  47.1255240 105.9252620 147.5996270  35.6661320 105.7900410 145.5454910
  36.3980140 105.5059690 144.9978800  35.9254990 105.5513690 146.4354290
  34.8276110 101.9065140 145.5501240  34.1984990 102.3750240 146.0987070
  34.9423940 101.0614360 145.9847430  42.2825830  95.9570800 131.7002440
  42.2019880  95.0425410 131.4294150  41.8690250  96.4537870 130.9942150
  40.4143870  97.7349820 133.5811710  39.6385970  97.2550260 133.8710280
  41.0656800  97.0555470 133.4067870  34.4309700  98.0469630 134.4587470
  33.5994580  97.7918340 134.8583980  35.0390680  98.1180400 135.1945390
  44.4351300 102.1410010 132.3610840  43.9732830 101.3697250 132.6898010
  45.2476850 102.1676080 132.8663290  34.4110960 102.0809720 134.6545490
  34.7139000 101.1907460 134.4755710  35.1554550 102.6379940 134.4267740
  32.8401650  93.0071520 128.2429860  31.9518350  93.3487490 128.1409740
  33.1242840  92.8071840 127.3510690  30.8034660  95.6077170 134.1269560
  31.3750770  94.8399370 134.1273200  30.8036200  95.9065930 133.2176170
  40.6614610 104.4268020 131.9814830  40.0426050 104.8825520 131.4109270
  41.5166390 104.5819480 131.5804530  39.8552860 100.4107010 133.5881870
  39.7861140  99.4696950 133.4271000  40.6172720 100.5008420 134.1604440
  32.0459530  91.0161530 135.9138490  31.8662370  90.1187280 136.1941250
  31.6439610  91.5633400 136.5885440  40.8858030  93.2177390 133.8150800
  41.2622850  92.3449270 133.7024470  40.7877540  93.5536090 132.9241240
  35.0163040  91.5903020 129.2768240  35.1229790  92.4906750 129.5837000
  34.1055400  91.5420990 128.9862890  44.6682150  90.7127830 130.7479140
  45.4891770  90.2224400 130.7904620  44.7016230  91.3025490 131.5010980
  32.6646200  93.5122030 134.5220830  33.3456310  93.7760400 135.1408230
  32.3494250  92.6722900 134.8558840  36.8570770  94.5589390 133.6093420
  37.3648990  95.0570360 134.2498440  37.3884010  93.7824590 133.4332780
  48.9581700  92.7294580 137.3122770  48.2533870  93.1176290 136.7937880
  49.2239620  93.4244870 137.9143700  35.1406870  89.1987950 137.8756840
  35.1425310  89.7160340 137.0702740  34.3111180  88.7218130 137.8526770
  41.5277960  99.3107260 129.3746740  40.9095230  99.7756710 128.8109460
  42.0401210 100.0034740 129.7916250  36.3909720  98.8383130 136.0530340
  36.0579100  99.4652050 136.6951410  36.5676400  99.3645010 135.2732010
  44.9043630  92.6528210 133.5206680  44.1999200  92.9413100 134.1009790
  45.2655790  93.4628320 133.1606240  34.8222200  90.9097910 135.8827290
  35.1639010  91.7539960 135.5881160  33.8838010  91.0581650 135.9992630
  35.6028820 100.8063930 137.8679520  36.2202820 101.4815010 137.5863970
  34.7421940 101.2151910 137.7767020  30.8961160  99.9963790 126.7486370
  30.5189140 100.4850890 126.0171270  31.1534230 100.6689070 127.3792900
  46.5206410 102.2703340 135.7834160  45.8369930 102.9402450 135.7750830
  47.0600700 102.4683990 135.0179020  47.9730550  92.0983000 133.9115890
  47.0255460  92.1321980 134.0431320  48.2980540  92.9121950 134.2965250
  38.5050090  88.3980180 132.2071880  38.8125070  87.8427070 131.4907380
  37.5750790  88.5324640 132.0244870  44.0565150 104.1147470 134.4979340
  44.0692310 103.7109760 133.6301600  43.5040370 104.8894760 134.3940770
  45.3510570 100.8363690 129.5869510  45.2406900  99.8938020 129.7118930
  45.3478820 101.1979330 130.4732270  43.4550590  99.0177310 135.8261950
  43.8719380  98.8037420 134.9915410  44.1790410  99.2750100 136.3970570
  40.8930850  96.4629010 128.9432000  39.9660130  96.3966390 129.1720470
  41.0455670  97.4009140 128.8287240  40.8799930  92.7346010 125.9399160
  39.9403600  92.8959970 126.0251620  41.1983190  93.4531690 125.3935150
  47.4012690  97.4164530 135.9178190  46.5731320  97.4857620 135.4428320
  47.9963170  98.0018840 135.4494020  44.9228140  98.0249310 129.4467250
  44.3040560  97.6868860 128.7993550  44.9052590  97.3809070 130.1546440
  44.3654700  94.2033850 136.8633060  43.9525880  95.0287560 137.1173050
  43.6330650  93.6178890 136.6709420  36.4987490  96.9893750 131.7251730
  36.0944490  96.2771000 131.2297630  36.5850610  96.6446990 132.6139770
  36.9669190 100.6761310 133.8890940  36.6697480 100.0706780 133.2098720
  37.9169010 100.7138620 133.7780300  35.2116110  93.7636960 135.5050770
  35.7630700  93.8732300 134.7304020  35.7259620  94.1374560 136.2206000
  45.0554800 104.2493180 137.5514040  44.5785360 105.0565370 137.3586650
  44.3716590 103.5971510 137.7040250  36.0587620 100.4143000 140.5398740
  35.1616150 100.6382970 140.7872140  36.0840490 100.5377940 139.5910140
  43.0992840  97.2636120 126.4540000  43.5386120  96.4258550 126.3077820
  43.8121260  97.8965520 126.5404140  34.8858840  97.2856320 139.1156110
  34.7466610  98.1579120 139.4843510  34.0040200  96.9429130 138.9704050
  41.2088220 102.2032190 130.4221240  41.6484130 102.9456520 130.0076630
  41.1475110 102.4458760 131.3460200  36.6839190 103.2278020 141.3241260
  36.6554620 103.6320970 140.4569690  36.5204160 102.2988380 141.1612860
  46.6809980  88.5178930 124.7681040  46.3682640  88.6105760 125.6680110
  47.4422450  89.0959960 124.7178470  33.1992120  95.8838730 129.2258380
  33.0789720  96.6100820 128.6139650  32.8893010  95.1141640 128.7486290
  48.6354010 104.0105120 142.6205430  49.1113730 104.4888010 143.2994510
  49.2561170 103.9422610 141.8950930  30.8377490  99.0553870 135.0327020
  30.9157910  99.1902640 134.0882740  31.4519170  98.3469760 135.2255140
  32.0825120 100.7554060 131.4433200  31.6753200 100.8968650 130.5886800
  32.9738130 100.4714220 131.2404410  48.0387260 101.2017970 139.7805440
  48.1650320 100.9629850 138.8622620  48.0808640 100.3702510 140.2527520
  41.9004000 104.9045970 138.3500250  42.4148670 104.8153980 139.1522680
  41.0573080 105.2505670 138.6428160  43.8758400 105.1901310 127.7784250
  43.7159540 104.9004250 128.6766080  43.7105110 104.4141440 127.2429480
  36.3546780 104.9699840 129.5555870  36.1789260 104.0535380 129.3423670
  35.5002520 105.3287130 129.7953670  43.5784530 102.6988870 126.3382250
  42.8849690 102.6966160 125.6784530  44.3207390 102.2748190 125.9076420
  43.1434460 104.3251580 130.4130740  43.5991410 103.5440960 130.7269360
  43.4826980 105.0358400 130.9571920  47.8911270  93.2550430 140.7455180
  47.2755540  93.7630100 140.2170640  47.5707690  92.3548760 140.6881120
  30.8937010 100.0968040 137.5721480  31.0568050  99.6273400 136.7540850
  31.3589460  99.5891600 138.2370320  35.6655780  89.2273800 132.6082050
  35.2223930  90.0083340 132.2766570  36.2240770  89.5503690 133.3152990
  39.9525590  92.0942320 138.2117370  39.4904960  92.3025340 139.0237310
  39.5503700  91.2801670 137.9088040  44.9530100  93.3151270 139.3414030
  44.1023690  93.0157020 139.6623100  44.7931890  93.5593280 138.4297850
  42.0479810  94.8153020 141.4412820  42.3733220  93.9816770 141.1015050
  42.8360140  95.3381540 141.5891150  38.7814600  88.8484500 127.4887880
  38.1568780  88.8444370 128.2141190  38.6944720  87.9815460 127.0923850
  37.7031680  89.7721130 134.4671650  38.0004010  90.6783960 134.3863670
  38.2517240  89.2839910 133.8531220  35.4570000  94.3507370 130.3363300
  35.2310920  94.1344540 131.2409920  34.6762530  94.7835830 129.9909270
  42.6867760  94.3570740 128.9353950  42.0876650  95.0806540 128.7517570
  43.2347370  94.2947520 128.1530400  37.8969210  95.2492950 141.0023570
  37.8012810  94.3087680 140.8523970  38.7401190  95.4708020 140.6071640
  41.2932630  92.9934280 130.9657230  41.6862200  93.3106480 130.1525920
  41.6549480  92.1146160 131.0801750  33.0279750  91.6606620 139.1557350
  32.6343140  92.5081830 139.3630130  32.3398150  91.0232990 139.3465990
  39.6024800  91.7441590 142.2254090  38.9123120  91.5513790 142.8600180
  40.3457100  92.0276230 142.7578390  30.3296800  89.5835080 133.1887430
  30.0409850  90.1537940 133.9012410  31.0742560  89.1039530 133.5518660
  30.5167030  93.5255200 124.3990150  30.4341700  94.4685960 124.5405140
  30.1650090  93.3830110 123.5202500  41.8787770  95.5840030 135.0608010
  41.1468890  96.0926840 135.4098110  41.4812110  94.7670010 134.7596790
  38.3165160  92.2594230 133.4660500  38.3201220  91.8184180 132.6165040
  39.2116280  92.5811560 133.5732320  34.1667540  92.1420720 132.4254710
  33.8267590  92.6195950 133.1821760  33.4044860  91.6885840 132.0655810
  38.3785310  93.2606310 126.4567260  38.4998130  93.2192790 127.4053080
  37.9933820  94.1230460 126.3013990  42.3413680  91.0373710 134.4730950
  42.3586420  91.4882360 135.3172800  42.0929260  90.1379350 134.6864390
  45.7684430  88.4505890 140.3117330  46.0930200  87.7195550 140.8375310
  45.8040940  88.1319530 139.4098320  32.4675990  99.4719470 139.7317290
  32.0830780  98.8313140 140.3300250  32.7788180 100.1755590 140.3012020
  38.6173130  96.3196010 135.2125910  38.9843260  95.8454580 135.9587250
  38.4278190  97.1937580 135.5534250  31.4813620  91.0639700 131.3419380
  31.1960540  90.6995370 132.1798000  31.4192480  90.3320160 130.7282520
  36.4072500  95.3604650 137.5310120  36.1029570  96.2396630 137.7560480
  37.3618960  95.4204440 137.5667560  34.9354290  99.5665640 128.1276970
  34.1616550  99.0263260 127.9675690  35.6648920  99.0472250 127.7894730
  45.6942270  98.5631000 133.9203360  46.4141390  99.0586290 133.5299470
  45.4924090  97.8848890 133.2757230  41.1552210  89.9568960 128.0632750
  40.3416820  89.4582130 127.9878060  40.9614160  90.7967210 127.6469100
  41.0761070  98.6340060 139.8072360  41.0098380  97.7135730 139.5529950
  40.4466210  98.7315500 140.5217000  43.8700600  94.3288610 126.3594910
  44.7580220  94.6405840 126.1846250  43.8405690  93.4560860 125.9675490
  34.9791690  99.2346020 131.7655780  35.4970360  98.4314280 131.7112670
  34.5275710  99.1725160 132.6072610  39.8661190 100.5012300 127.0383080
  40.2076890 101.2454530 126.5426400  39.0373900 100.8143420 127.4007910
  32.4636230  96.2007390 138.6781480  32.1051170  96.8661240 139.2654820
  32.1690790  95.3690940 139.0494100  35.6649350  96.6591630 141.5621030
  35.3649490  96.8048810 140.6648850  36.4360590  96.0996920 141.4694420
  41.0077800 101.4560630 139.5576160  41.0222340 100.5241590 139.3395070
  40.3002900 101.5420390 140.1965930  46.1414870  95.6400450 125.8274770
  46.0578590  96.0714670 124.9771210  46.8609060  96.0998800 126.2601590
  47.2189010  98.0967970 138.9044740  46.4937200  98.6896750 138.7074130
  47.7464470  98.0891510 138.1058110  47.1702120 102.4942710 128.5556900
  46.5278280 101.8398330 128.8300620  46.7832780 102.8997800 127.7797570
  42.7488600  99.8228140 132.4028590  43.1012420  99.2256270 131.7429960
  41.8650930  99.4972370 132.5736840  38.8351880 100.5825830 129.8099000
  39.5223010 101.1295040 130.1906590  38.0484300 101.1266560 129.8448610
  30.9744280  96.1998650 125.3016080  31.8439130  96.4823450 125.5852000
  30.4834600  97.0134520 125.1864890  38.1379090  97.5871860 129.4224360
  38.5941870  98.3977110 129.6484550  37.7867300  97.2695000 130.2542850
  40.4411700 103.0978200 136.6516660  41.0853920 103.3037580 137.3290080
  40.8041140 102.3366600 136.1987510  34.0390870  87.9309510 129.8946880
  33.9105500  87.9227410 130.8431800  33.2152890  88.2692600 129.5437890
  41.7143780 101.1010550 135.3694110  42.3566010 100.4003710 135.4826280
  42.2393130 101.8808990 135.1891000  45.5599500 101.3859170 125.0933250
  45.3337080 100.6689610 125.6857890  45.1695700 101.1371610 124.2555000
  43.4881400 101.9005450 138.5730170  43.8237640 102.4872140 139.2508090
  42.5681740 101.7698160 138.8027960  31.3415530 105.4126030 125.8677710
  31.7013170 106.0115370 125.2134980  31.2007870 105.9585920 126.6412740
  31.0384800  89.6900630 139.3553580  30.3243320  89.8897550 139.9606190
  31.4579840  88.9140200 139.7268380  45.1415750  99.3031110 126.7547410
  44.8537450  99.7643800 127.5425290  45.9367920  98.8428880 127.0231630
  31.3257390 103.6780890 140.3420110  31.4348510 102.7375630 140.2015500
  30.6737950 103.9435640 139.6933840  39.3169980 101.9496780 141.7418230
  38.9966850 101.2306020 142.2863920  38.6428340 102.6251850 141.8154290
  37.3584150 102.7957230 126.6851380  37.3494250 103.5286920 126.0695890
  36.4382510 102.5488810 126.7778340  32.9590790  98.0172120 127.4298140
  32.3518740  98.7571020 127.4393440  33.4340140  98.1071480 126.6036340
  42.5323580  92.1822940 137.1055030  42.9004400  91.3618150 137.4334600
  41.6721780  92.2424830 137.5210680  45.8985610  91.1379880 127.9142590
  45.2698770  91.2425550 127.2000820  45.4037530  91.3576660 128.7036470
  40.3443750 102.8585470 125.3476570  40.4455730 102.6549460 124.4178550
  39.4445490 102.6043750 125.5524350  37.8669640  93.4165830 129.3300470
  37.1585790  93.8852170 129.7714080  38.1514120  92.7587840 129.9645660
  39.4925570  94.8362530 137.3293000  39.9910820  95.3108350 137.9944850
  39.6348520  93.9126050 137.5363030  41.8985070  90.1416490 130.7696260
  41.7752850  90.1602620 129.8205770  42.8469630  90.1895430 130.8894660
  38.9861860 105.3771790 130.0424240  39.2403360 105.3393180 129.1203610
  38.0374340 105.2505120 130.0352490  36.0704660  91.7250910 126.7051180
  36.9195190  92.1621060 126.6391370  35.7035930  92.0371170 127.5323240
  46.6992430  91.0530490 138.1721390  46.1966030  91.7935890 138.5115200
  47.5149090  91.4414490 137.8558180  44.9914440  96.2963670 131.6182750
  44.0504580  96.3113900 131.7930440  45.3058510  95.5099630 132.0643050
  34.9696080  97.9783270 125.1786710  35.7359350  97.8664630 125.7412140
  35.0470770  97.2821240 124.5263480  33.6642840  95.4108340 125.8619600
  33.7446430  94.4635850 125.9737000  34.5562590  95.7415220 125.9680260
  46.9940020 103.4672520 133.2937010  47.1187440 104.2903690 133.7660820
  47.8605580 103.2563250 132.9461160  34.4657550 105.5603730 132.9654140
  35.2020030 105.0119190 133.2362710  34.8498470 106.4259740 132.8260130
  31.3503030 101.6277300 128.8395650  30.4242810 101.8698440 128.8301060
  31.8159460 102.4551560 128.7180400  33.4715830 104.7449800 142.1539720
  34.2728560 105.0661850 142.5675120  32.9567650 104.3845380 142.8759630
  37.5759860 104.7334040 124.7879710  38.3688470 105.0222870 124.3361500
  37.0564210 104.3026210 124.1092190  42.3080460 100.8529670 142.1015130
  41.7018620 100.8761270 141.3610880  42.0034570 100.1212710 142.6382380
  43.7380830 104.5809960 140.7124540  44.6902580 104.4967980 140.6624780
  43.5909050 105.2451670 141.3858330  46.6290030 103.9604170 126.2116450
  46.3431540 103.5469310 125.3970630  46.4309580 104.8891880 126.0916970
  31.1913640  97.2323260 141.0975770  31.6952660  96.6530540 141.6692000
  30.4521060  97.5163490 141.6352140  38.0937260  99.9537450 124.6522060
  37.9887900  99.3389800 125.3783440  37.9261480  99.4303340 123.8685070
  38.2451580  98.6394250 140.6311290  37.4797250  99.2079250 140.5465960
  38.4267540  98.3470460 139.7379520  41.3339990  99.0157480 125.2564050
  40.7850090  99.4626780 125.9006790  41.9559250  98.5106730 125.7801720
  45.3874930 100.3699580 141.1886310  46.1284400 100.7075340 140.6853770
  44.6247610 100.5391640 140.6356080  33.2236720  95.3752850 141.9925840
  33.2642060  95.0766720 142.9011070  34.0782220  95.7760460 141.8333360
  37.0015110  97.9748400 127.1529350  37.4231530  97.8088270 127.9960740
  37.1265950  97.1648630 126.6584490  35.1642530  93.9544950 139.9600330
  34.6338990  93.4635900 139.3323670  35.8330600  94.3829150 139.4258260
  44.0620590  98.4214410 139.7241520  44.4761610  98.5759490 140.5731940
  43.1271590  98.5469630 139.8867300  44.5342760  95.7610570 141.7280670
  45.1163530  95.0062890 141.6401150  44.7104530  96.2918010 140.9512150
  35.6514830  90.9207320 140.0397620  35.5571700  90.3028070 139.3148490
  35.0712220  91.6473610 139.8127530  38.4176270  89.4780560 137.0725010
  37.9693570  89.5004820 136.2270560  37.7841470  89.0799580 137.6695310
  38.8235820  98.3734890 137.6937450  39.2423930  99.2167620 137.5213690
  37.9044450  98.5106930 137.4644230  41.1599720  96.1051070 139.0775290
  41.2795930  95.5092210 139.8170130  42.0193720  96.1420760 138.6576590
  43.4987620  96.6588260 137.6537800  42.9722840  97.1830880 137.0502940
  43.8418960  97.2915650 138.2847530  36.6743240 104.6787900 138.8095180
  36.1364330 105.4033960 138.4903880  36.9277200 104.2018240 138.0192520
  37.9268490  92.6472420 140.3351110  38.5168180  92.3388270 141.0228930
  37.1088730  92.1752170 140.4911010  42.7461920  92.2638230 140.5684130
  42.0577440  91.6019770 140.5034120  43.4667940  91.8176500 141.0132590
  43.3762320  88.8589860 126.6274390  43.6564610  88.0157760 126.9833810
  42.6028050  89.0912970 127.1413140  39.5305450 105.9139110 139.0681830
  39.4564150 106.8174250 139.3754200  38.6284290 105.5951010 139.0403900
  37.9141740  90.0916870 125.0721590  37.5663740  89.4140860 124.4924040
  38.1154510  89.6306380 125.8864980  40.0790780 105.0797620 126.6908190
  40.9741570 105.4182590 126.7126950  40.1108410 104.3577030 126.0632470
  33.7186940 100.4524670 124.9195190  34.1561810 100.9954340 125.5752770
  34.2034670  99.6271620 124.9291530  30.9332740 103.2413700 132.3715450
  31.2635750 102.3734760 132.1394090  31.3623740 103.4472220 133.2020410
  35.5294660 101.5722710 130.0317420  35.2290200 101.4487680 130.9321330
  35.4232150 100.7131300 129.6233150  31.4222950 104.1084290 135.1097080
  30.9853940 104.2885090 135.9421230  31.9900630 104.8658910 134.9678800
  47.0585130 103.6101290 139.3974390  46.4587120 103.6693850 138.6538310
  47.1879030 102.6706270 139.5271240  48.2986580 101.3519110 124.7344100
  47.4679540 101.4195760 125.2051330  48.4758410 102.2423230 124.4310960
  47.7543040  98.0966590 127.2378300  48.5161950  98.6663240 127.3437990
  47.7697410  97.5293790 128.0086610  31.2547380  96.6204520 131.4685960
  30.5996220  96.3516160 130.8245660  32.0925330  96.5109000 131.0187940
  48.7603010  98.9516690 132.0820230  49.1311840  98.1684010 131.6756200
  49.4004940  99.6405790 131.9037530  45.7436770 100.3353270 137.4950550
  44.9296610 100.7650430 137.7576340  46.1510970 100.9471680 136.8819600
  47.8062210  98.3900960 124.3950820  48.0811050  99.2979840 124.2670040
  47.6172950  98.3263490 125.3312810  44.2037820  91.4145810 125.6904450
  44.6222700  91.2276790 124.8501110  43.8973880  90.5624860 126.0007380
  47.7027550  96.3269950 129.3880250  47.3271150  95.5597880 128.9561540
  46.9730670  96.7092650 129.8755180  32.2923310  97.0057090 136.0089300
  32.6596350  96.9184490 136.8885320  31.7234130  96.2423640 135.9096160
  47.0927170  95.4741470 139.0219770  46.8613260  95.2454220 138.1217720
  47.3531720  96.3941020 138.9764660  31.8439310  93.9166180 139.9147720
  30.9495360  93.8832940 140.2541430  32.3836860  94.1152970 140.6798970
  45.5315240  90.6997900 141.7999470  46.4085420  90.7081300 142.1833470
  45.5436080  89.9628740 141.1891820  30.4685460  93.8303450 127.4111290
  29.5649540  94.0933650 127.2362950  30.9526080  94.1014620 126.6311250
  46.9778510  94.5527440 132.6887490  47.5015990  94.0590090 132.0577660
  47.5637930  94.6877800 133.4335060  47.1568230  94.6367310 136.2107040
  46.2070940  94.6030850 136.3252030  47.3381240  95.5467420 135.9756810
  33.0112670  92.8868990 125.3205670  33.7204370  92.4652210 124.8352950
  32.2952610  92.9544220 124.6889020  32.6586830  88.9408320 124.3608320
  33.3814960  89.4817260 124.6789540  32.9311350  88.6671740 123.4849860
  46.4678480  93.8100790 128.6279900  46.9637600  93.5771660 129.4128780
  46.2694550  92.9712630 128.2117540  32.3479020  88.1914510 134.2630940
  32.9955210  87.6411890 133.8226100  32.7680860  88.4457660 135.0846750
  47.8965640  92.4461740 131.1617580  47.7864920  92.2917780 132.0999850
  48.6573230  91.9182680 130.9192990  46.2431360  88.3855870 137.6200580
  46.8803580  88.9990010 137.9859770  46.3906250  88.4216530 136.6749810
  48.7855910  90.2769660 124.4023720  49.7105220  90.1450840 124.1942010
  48.7631700  90.3562480 125.3560170  48.8594400  91.0480320 127.0280430
  48.0645900  90.9825440 127.5573340  49.0637680  91.9830960 127.0165780
  45.8012820 105.0871870 131.0218820  46.3971890 104.7656440 130.3453240
  46.0590970 104.6143690 131.8132090  32.1011020  88.3470180 137.0056260
  31.7525840  88.8034000 137.7714440  31.7698720  87.4527310 137.0878690
  33.7075390 101.5189780 141.1709450  33.6645020 101.1482690 142.0523910
  33.8386400 102.4567350 141.3111270  37.4081420 103.0749370 136.7719170
  37.1672780 103.3423930 135.8849690  38.3484060 103.2455100 136.8270030
  39.6135840  89.5382060 140.5275680  39.5524730  90.1303890 141.2771090
  40.5536220  89.4308020 140.3825940  42.2510400  89.1952120 140.1667970
  42.8650810  89.5131410 139.5049050  42.7959960  88.7100710 140.7863830
  48.6685580 105.0943750 137.5729810  48.1743860 105.4912620 136.8556940
  48.0598870 104.4692960 137.9667090  32.7731660  87.8746380 140.2807030
  33.3214650  87.6934430 139.5173140  32.8386970  87.0840490 140.8163340
  33.5463420 104.4652030 138.2907230  32.9523740 104.3336730 139.0297270
  33.5387260 103.6290170 137.8249330  42.9918440  87.7584260 136.4937260
  42.1178280  88.0919370 136.2910190  42.8829190  87.2857440 137.3189130
  43.8990420  89.9655130 137.8778980  43.5703780  89.1506890 137.4980710
  44.8472720  89.9224940 137.7544670  46.3525030 105.7367170 134.8516550
  45.8928000 106.4882980 134.4774570  45.7237490 105.0173640 134.7931350
  33.1775650 101.8310410 137.2415270  32.4509710 101.2115700 137.1741220
  33.2384800 102.2251020 136.3713350  36.7820750 104.0455410 134.0264680
  37.2985770 103.4342770 133.5012940  37.4318130 104.5484190 134.5175690
  39.5216250 104.9363900 134.8533660  39.8094060 104.6818200 133.9766670
  40.0339470 104.3841260 135.4439230  40.7393260  88.6754100 135.4330170
  39.9565050  89.1499600 135.7126930  40.4456190  87.7708930 135.3243350
  45.2914330  89.3777200 133.4779260  45.7322420  89.3222300 132.6300860
  45.0221920  90.2935210 133.5489440  47.1552900  89.0092440 131.4888080
  47.0941300  88.0653660 131.3419100  47.9344930  89.1172530 132.0341540
  31.4605650 105.1484800 130.4512030  31.2927690 104.5155480 131.1493920
  30.5940160 105.3544200 130.1006220  32.0833670  88.9801580 127.9543890
  32.8413030  89.0930460 127.3807920  31.6210840  89.8170780 127.9087320
  38.6247480  91.0940850 130.9446200  37.8121990  90.7197740 130.6042080
  39.1289120  90.3385930 131.2467390  43.1272460  87.7583300 132.1829270
  43.7301830  88.3303510 132.6577790  42.3865450  88.3222740 131.9603170
  46.2707060  88.1604860 127.4569550  46.4657690  89.0588310 127.7236980
  45.4836930  87.9291940 127.9502500  33.0668350 103.8418030 127.8962170
  32.5415970 104.2226060 127.1924130  32.9912930 104.4668800 128.6171880
  34.4558820  89.5065630 126.4945860  34.9851580  88.7195430 126.3653810
  35.0887140  90.1856820 126.7281390  36.6496660  89.2440770 129.5491250
  36.0199400  88.5428080 129.7161380  36.1101800  90.0044900 129.3324410
  39.5888610 105.8580000 142.2201860  40.5155920 105.6224270 142.2637820
  39.5739040 106.6852000 141.7387890  47.8233670 105.4005570 129.2176110
  47.9985860 104.7143310 128.5737030  47.1255240 105.9252620 128.8252780
  36.7752220  88.5224750 141.9843740  36.4936490  89.0258350 141.2204560
  37.1571920  87.7246500 141.6185870  35.6661320 105.7900410 126.7711420
  36.3980140 105.5059690 126.2235310  35.9254990 105.5513690 127.6610800
  34.8276110 101.9065140 126.7757750  34.1984990 102.3750240 127.3243580
  34.9423940 101.0614360 127.2103940  43.3767680  87.9378330 142.5624210
  43.2633130  88.2572940 143.4575730  44.1937420  88.3390840 142.2661490
  46.1566170 105.0849860 142.0442900  46.9491490 104.5899090 141.8368860
  46.4499320 105.7640000 142.6518510  42.2825830  95.9570800 112.9258950
  42.2019880  95.0425410 112.6550660  41.8690250  96.4537870 112.2198660
  40.4143870  97.7349820 114.8068220  39.6385970  97.2550260 115.0966790
  41.0656800  97.0555470 114.6324380  34.4309700  98.0469630 115.6843980
  33.5994580  97.7918340 116.0840490  35.0390680  98.1180400 116.4201900
  44.4351300 102.1410010 113.5867350  43.9732830 101.3697250 113.9154520
  45.2476850 102.1676080 114.0919800  34.4110960 102.0809720 115.8802000
  34.7139000 101.1907460 115.7012220  35.1554550 102.6379940 115.6524250
  32.8401650  93.0071520 109.4686370  31.9518350  93.3487490 109.3666250
  33.1242840  92.8071840 108.5767200  30.8034660  95.6077170 115.3526070
  31.3750770  94.8399370 115.3529710  30.8036200  95.9065930 114.4432680
  39.8552860 100.4107010 114.8138380  39.7861140  99.4696950 114.6527510
  40.6172720 100.5008420 115.3860950  32.0459530  91.0161530 117.1395000
  31.8662370  90.1187280 117.4197760  31.6439610  91.5633400 117.8141950
  40.8858030  93.2177390 115.0407310  41.2622850  92.3449270 114.9280980
  40.7877540  93.5536090 114.1497750  35.0163040  91.5903020 110.5024750
  35.1229790  92.4906750 110.8093510  34.1055400  91.5420990 110.2119400
  32.6646200  93.5122030 115.7477340  33.3456310  93.7760400 116.3664740
  32.3494250  92.6722900 116.0815350  36.8570770  94.5589390 114.8349930
  37.3648990  95.0570360 115.4754950  37.3884010  93.7824590 114.6589290
  35.1406870  89.1987950 119.1013350  35.1425310  89.7160340 118.2959250
  34.3111180  88.7218130 119.0783280  41.5277960  99.3107260 110.6003250
  40.9095230  99.7756710 110.0365970  42.0401210 100.0034740 111.0172760
  36.3909720  98.8383130 117.2786850  36.0579100  99.4652050 117.9207920
  36.5676400  99.3645010 116.4988520  34.8222200  90.9097910 117.1083800
  35.1639010  91.7539960 116.8137670  33.8838010  91.0581650 117.2249140
  35.6028820 100.8063930 119.0936030  36.2202820 101.4815010 118.8120480
  34.7421940 101.2151910 119.0023530  46.5206410 102.2703340 117.0090670
  45.8369930 102.9402450 117.0007340  47.0600700 102.4683990 116.2435530
  38.5050090  88.3980180 113.4328390  38.8125070  87.8427070 112.7163890
  37.5750790  88.5324640 113.2501380  44.0565150 104.1147470 115.7235850
  44.0692310 103.7109760 114.8558110  43.5040370 104.8894760 115.6197280
  45.3510570 100.8363690 110.8126020  45.2406900  99.8938020 110.9375440
  45.3478820 101.1979330 111.6988780  43.4550590  99.0177310 117.0518460
  43.8719380  98.8037420 116.2171920  44.1790410  99.2750100 117.6227080
  47.4012690  97.4164530 117.1434700  46.5731320  97.4857620 116.6684830
  47.9963170  98.0018840 116.6750530  44.9228140  98.0249310 110.6723760
  44.3040560  97.6868860 110.0250060  44.9052590  97.3809070 111.3802950
  44.3654700  94.2033850 118.0889570  43.9525880  95.0287560 118.3429560
  43.6330650  93.6178890 117.8965930  36.4987490  96.9893750 112.9508240
  36.0944490  96.2771000 112.4554140  36.5850610  96.6446990 113.8396280
  36.9669190 100.6761310 115.1147450  36.6697480 100.0706780 114.4355230
  37.9169010 100.7138620 115.0036810  45.0554800 104.2493180 118.7770550
  44.5785360 105.0565370 118.5843160  44.3716590 103.5971510 118.9296760
  36.0587620 100.4143000 121.7655250  35.1616150 100.6382970 122.0128650
  36.0840490 100.5377940 120.8166650  41.2088220 102.2032190 111.6477750
  41.6484130 102.9456520 111.2333140  41.1475110 102.4458760 112.5716710
  36.6839190 103.2278020 122.5497770  36.6554620 103.6320970 121.6826200
  36.5204160 102.2988380 122.3869370  46.6809980  88.5178930 105.9937550
  46.3682640  88.6105760 106.8936620  47.4422450  89.0959960 105.9434980
  48.6354010 104.0105120 123.8461940  49.1113730 104.4888010 124.5251020
  49.2561170 103.9422610 123.1207440  30.8377490  99.0553870 116.2583530
  30.9157910  99.1902640 115.3139250  31.4519170  98.3469760 116.4511650
  48.0387260 101.2017970 121.0061950  48.1650320 100.9629850 120.0879130
  48.0808640 100.3702510 121.4784030  41.9004000 104.9045970 119.5756760
  42.4148670 104.8153980 120.3779190  41.0573080 105.2505670 119.8684670
  36.3546780 104.9699840 110.7812380  36.1789260 104.0535380 110.5680180
  35.5002520 105.3287130 111.0210180  43.5784530 102.6988870 107.5638760
  42.8849690 102.6966160 106.9041040  44.3207390 102.2748190 107.1332930
  47.8911270  93.2550430 121.9711690  47.2755540  93.7630100 121.4427150
  47.5707690  92.3548760 121.9137630  30.8937010 100.0968040 118.7977990
  31.0568050  99.6273400 117.9797360  31.3589460  99.5891600 119.4626830
  35.6655780  89.2273800 113.8338560  35.2223930  90.0083340 113.5023080
  36.2240770  89.5503690 114.5409500  44.9530100  93.3151270 120.5670540
  44.1023690  93.0157020 120.8879610  44.7931890  93.5593280 119.6554360
  42.0479810  94.8153020 122.6669330  42.3733220  93.9816770 122.3271560
  42.8360140  95.3381540 122.8147660  38.7814600  88.8484500 108.7144390
  38.1568780  88.8444370 109.4397700  38.6944720  87.9815460 108.3180360
  37.7031680  89.7721130 115.6928160  38.0004010  90.6783960 115.6120180
  38.2517240  89.2839910 115.0787730  35.4570000  94.3507370 111.5619810
  35.2310920  94.1344540 112.4666430  34.6762530  94.7835830 111.2165780
  42.6867760  94.3570740 110.1610460  42.0876650  95.0806540 109.9774080
  43.2347370  94.2947520 109.3786910  41.2932630  92.9934280 112.1913740
  41.6862200  93.3106480 111.3782430  41.6549480  92.1146160 112.3058260
  30.3296800  89.5835080 114.4143940  30.0409850  90.1537940 115.1268920
  31.0742560  89.1039530 114.7775170  41.8787770  95.5840030 116.2864520
  41.1468890  96.0926840 116.6354620  41.4812110  94.7670010 115.9853300
  38.3165160  92.2594230 114.6917010  38.3201220  91.8184180 113.8421550
  39.2116280  92.5811560 114.7988830  34.1667540  92.1420720 113.6511220
  33.8267590  92.6195950 114.4078270  33.4044860  91.6885840 113.2912320
  42.3413680  91.0373710 115.6987460  42.3586420  91.4882360 116.5429310
  42.0929260  90.1379350 115.9120900  32.4675990  99.4719470 120.9573800
  32.0830780  98.8313140 121.5556760  32.7788180 100.1755590 121.5268530
  38.6173130  96.3196010 116.4382420  38.9843260  95.8454580 117.1843760
  38.4278190  97.1937580 116.7790760  31.4813620  91.0639700 112.5675890
  31.1960540  90.6995370 113.4054510  31.4192480  90.3320160 111.9539030
  45.6942270  98.5631000 115.1459870  46.4141390  99.0586290 114.7555980
  45.4924090  97.8848890 114.5013740  41.0761070  98.6340060 121.0328870
  41.0098380  97.7135730 120.7786460  40.4466210  98.7315500 121.7473510
  43.8700600  94.3288610 107.5851420  44.7580220  94.6405840 107.4102760
  43.8405690  93.4560860 107.1932000  32.4636230  96.2007390 119.9037990
  32.1051170  96.8661240 120.4911330  32.1690790  95.3690940 120.2750610
  41.0077800 101.4560630 120.7832670  41.0222340 100.5241590 120.5651580
  40.3002900 101.5420390 121.4222440  47.2189010  98.0967970 120.1301250
  46.4937200  98.6896750 119.9330640  47.7464470  98.0891510 119.3314620
  42.7488600  99.8228140 113.6285100  43.1012420  99.2256270 112.9686470
  41.8650930  99.4972370 113.7993350  38.1379090  97.5871860 110.6480870
  38.5941870  98.3977110 110.8741060  37.7867300  97.2695000 111.4799360
  40.4411700 103.0978200 117.8773170  41.0853920 103.3037580 118.5546590
  40.8041140 102.3366600 117.4244020  34.0390870  87.9309510 111.1203390
  33.9105500  87.9227410 112.0688310  33.2152890  88.2692600 110.7694400
  41.7143780 101.1010550 116.5950620  42.3566010 100.4003710 116.7082790
  42.2393130 101.8808990 116.4147510  43.4881400 101.9005450 119.7986680
  43.8237640 102.4872140 120.4764600  42.5681740 101.7698160 120.0284470
  31.0384800  89.6900630 120.5810090  30.3243320  89.8897550 121.1862700
  31.4579840  88.9140200 120.9524890  31.3257390 103.6780890 121.5676620
  31.4348510 102.7375630 121.4272010  30.6737950 103.9435640 120.9190350
  39.3169980 101.9496780 122.9674740  38.9966850 101.2306020 123.5120430
  38.6428340 102.6251850 123.0410800  42.5323580  92.1822940 118.3311540
  42.9004400  91.3618150 118.6591110  41.6721780  92.2424830 118.7467190
  45.8985610  91.1379880 109.1399100  45.2698770  91.2425550 108.4257330
  45.4037530  91.3576660 109.9292980  41.8985070  90.1416490 111.9952770
  41.7752850  90.1602620 111.0462280  42.8469630  90.1895430 112.1151170
  46.6992430  91.0530490 119.3977900  46.1966030  91.7935890 119.7371710
  47.5149090  91.4414490 119.0814690  46.9940020 103.4672520 114.5193520
  47.1187440 104.2903690 114.9917330  47.8605580 103.2563250 114.1717670
  34.4657550 105.5603730 114.1910650  35.2020030 105.0119190 114.4619220
  34.8498470 106.4259740 114.0516640  33.4715830 104.7449800 123.3796230
  34.2728560 105.0661850 123.7931630  32.9567650 104.3845380 124.1016140
  42.3080460 100.8529670 123.3271640  41.7018620 100.8761270 122.5867390
  42.0034570 100.1212710 123.8638890  43.7380830 104.5809960 121.9381050
  44.6902580 104.4967980 121.8881290  43.5909050 105.2451670 122.6114840
  46.6290030 103.9604170 107.4372960  46.3431540 103.5469310 106.6227140
  46.4309580 104.8891880 107.3173480  31.1913640  97.2323260 122.3232280
  31.6952660  96.6530540 122.8948510  30.4521060  97.5163490 122.8608650
  45.3874930 100.3699580 122.4142820  46.1284400 100.7075340 121.9110280
  44.6247610 100.5391640 121.8612590  44.0620590  98.4214410 120.9498030
  44.4761610  98.5759490 121.7988450  43.1271590  98.5469630 121.1123810
  44.5342760  95.7610570 122.9537180  45.1163530  95.0062890 122.8657660
  44.7104530  96.2918010 122.1768660  38.4176270  89.4780560 118.2981520
  37.9693570  89.5004820 117.4527070  37.7841470  89.0799580 118.8951820
  38.8235820  98.3734890 118.9193960  39.2423930  99.2167620 118.7470200
  37.9044450  98.5106930 118.6900740  43.4987620  96.6588260 118.8794310
  42.9722840  97.1830880 118.2759450  43.8418960  97.2915650 119.5104040
  36.6743240 104.6787900 120.0351690  36.1364330 105.4033960 119.7160390
  36.9277200 104.2018240 119.2449030  42.7461920  92.2638230 121.7940640
  42.0577440  91.6019770 121.7290630  43.4667940  91.8176500 122.2389100
  43.3762320  88.8589860 107.8530900  43.6564610  88.0157760 108.2090320
  42.6028050  89.0912970 108.3669650  34.6956810  91.1482250 105.3121900
  34.9982710  91.1549680 104.4041050  35.4351400  90.7980110 105.8089560
  39.5305450 105.9139110 120.2938340  39.4564150 106.8174250 120.6010710
  38.6284290 105.5951010 120.2660410  31.4222950 104.1084290 116.3353590
  30.9853940 104.2885090 117.1677740  31.9900630 104.8658910 116.1935310
  47.0585130 103.6101290 120.6230900  46.4587120 103.6693850 119.8794820
  47.1879030 102.6706270 120.7527750  48.7603010  98.9516690 113.3076740
  49.1311840  98.1684010 112.9012710  49.4004940  99.6405790 113.1294040
  45.7436770 100.3353270 118.7207060  44.9296610 100.7650430 118.9832850
  46.1510970 100.9471680 118.1076110  44.2037820  91.4145810 106.9160960
  44.6222700  91.2276790 106.0757620  43.8973880  90.5624860 107.2263890
  32.2923310  97.0057090 117.2345810  32.6596350  96.9184490 118.1141830
  31.7234130  96.2423640 117.1352670  47.0927170  95.4741470 120.2476280
  46.8613260  95.2454220 119.3474230  47.3531720  96.3941020 120.2021170
  31.8439310  93.9166180 121.1404230  30.9495360  93.8832940 121.4797940
  32.3836860  94.1152970 121.9055480  45.5315240  90.6997900 123.0255980
  46.4085420  90.7081300 123.4089980  45.5436080  89.9628740 122.4148330
  30.4685460  93.8303450 108.6367800  29.5649540  94.0933650 108.4619460
  30.9526080  94.1014620 107.8567760  32.6586830  88.9408320 105.5864830
  33.3814960  89.4817260 105.9046050  32.9311350  88.6671740 104.7106370
  32.3479020  88.1914510 115.4887450  32.9955210  87.6411890 115.0482610
  32.7680860  88.4457660 116.3103260  48.7855910  90.2769660 105.6280230
  49.7105220  90.1450840 105.4198520  48.7631700  90.3562480 106.5816680
  48.8594400  91.0480320 108.2536940  48.0645900  90.9825440 108.7829850
  49.0637680  91.9830960 108.2422290  32.1011020  88.3470180 118.2312770
  31.7525840  88.8034000 118.9970950  31.7698720  87.4527310 118.3135200
  33.7075390 101.5189780 122.3965960  33.6645020 101.1482690 123.2780420
  33.8386400 102.4567350 122.5367780  37.4081420 103.0749370 117.9975680
  37.1672780 103.3423930 117.1106200  38.3484060 103.2455100 118.0526540
  39.6135840  89.5382060 121.7532190  39.5524730  90.1303890 122.5027600
  40.5536220  89.4308020 121.6082450  42.2510400  89.1952120 121.3924480
  42.8650810  89.5131410 120.7305560  42.7959960  88.7100710 122.0120340
  48.6685580 105.0943750 118.7986320  48.1743860 105.4912620 118.0813450
  48.0598870 104.4692960 119.1923600  32.7731660  87.8746380 121.5063540
  33.3214650  87.6934430 120.7429650  32.8386970  87.0840490 122.0419850
  33.5463420 104.4652030 119.5163740  32.9523740 104.3336730 120.2553780
  33.5387260 103.6290170 119.0505840  46.3525030 105.7367170 116.0773060
  45.8928000 106.4882980 115.7031080  45.7237490 105.0173640 116.0187860
  33.1775650 101.8310410 118.4671780  32.4509710 101.2115700 118.3997730
  33.2384800 102.2251020 117.5969860  36.7820750 104.0455410 115.2521190
  37.2985770 103.4342770 114.7269450  37.4318130 104.5484190 115.7432200
  40.7393260  88.6754100 116.6586680  39.9565050  89.1499600 116.9383440
  40.4456190  87.7708930 116.5499860  32.0833670  88.9801580 109.1800400
  32.8413030  89.0930460 108.6064430  31.6210840  89.8170780 109.1343830
  38.6247480  91.0940850 112.1702710  37.8121990  90.7197740 111.8298590
  39.1289120  90.3385930 112.4723900  43.1272460  87.7583300 113.4085780
  43.7301830  88.3303510 113.8834300  42.3865450  88.3222740 113.1859680
  46.2707060  88.1604860 108.6826060  46.4657690  89.0588310 108.9493490
  45.4836930  87.9291940 109.1759010  34.4558820  89.5065630 107.7202370
  34.9851580  88.7195430 107.5910320  35.0887140  90.1856820 107.9537900
  36.6496660  89.2440770 110.7747760  36.0199400  88.5428080 110.9417890
  36.1101800  90.0044900 110.5580920  39.5888610 105.8580000 123.4458370
  40.5155920 105.6224270 123.4894330  39.5739040 106.6852000 122.9644400
  36.7752220  88.5224750 123.2100250  36.4936490  89.0258350 122.4461070
  37.1571920  87.7246500 122.8442380  46.1566170 105.0849860 123.2699410
  46.9491490 104.5899090 123.0625370  46.4499320 105.7640000 123.8775020
  32.8401650  93.0071520  90.6942880  31.9518350  93.3487490  90.5922760
  33.1242840  92.8071840  89.8023710  40.6614610 104.4268020  94.4327850
  40.0426050 104.8825520  93.8622290  41.5166390 104.5819480  94.0317550
  35.0163040  91.5903020  91.7281260  35.1229790  92.4906750  92.0350020
  34.1055400  91.5420990  91.4375910  44.6682150  90.7127830  93.1992160
  45.4891770  90.2224400  93.2417640  44.7016230  91.3025490  93.9524000
  36.3909720  98.8383130  98.5043360  36.0579100  99.4652050  99.1464430
  36.5676400  99.3645010  97.7245030  44.9043630  92.6528210  95.9719700
  44.1999200  92.9413100  96.5522810  45.2655790  93.4628320  95.6119260
  30.8961160  99.9963790  89.1999390  30.5189140 100.4850890  88.4684290
  31.1534230 100.6689070  89.8305920  38.5050090  88.3980180  94.6584900
  38.8125070  87.8427070  93.9420400  37.5750790  88.5324640  94.4757890
  44.0565150 104.1147470  96.9492360  44.0692310 103.7109760  96.0814620
  43.5040370 104.8894760  96.8453790  44.3654700  94.2033850  99.3146080
  43.9525880  95.0287560  99.5686070  43.6330650  93.6178890  99.1222440
  36.4987490  96.9893750  94.1764750  36.0944490  96.2771000  93.6810650
  36.5850610  96.6446990  95.0652790  36.9669190 100.6761310  96.3403960
  36.6697480 100.0706780  95.6611740  37.9169010 100.7138620  96.2293320
  45.0554800 104.2493180 100.0027060  44.5785360 105.0565370  99.8099670
  44.3716590 103.5971510 100.1553270  43.0992840  97.2636120  88.9053020
  43.5386120  96.4258550  88.7590840  43.8121260  97.8965520  88.9917160
  41.2088220 102.2032190  92.8734260  41.6484130 102.9456520  92.4589650
  41.1475110 102.4458760  93.7973220  33.1992120  95.8838730  91.6771400
  33.0789720  96.6100820  91.0652670  32.8893010  95.1141640  91.1999310
  48.6354010 104.0105120 105.0718450  49.1113730 104.4888010 105.7507530
  49.2561170 103.9422610 104.3463950  32.0825120 100.7554060  93.8946220
  31.6753200 100.8968650  93.0399820  32.9738130 100.4714220  93.6917430
  48.0387260 101.2017970 102.2318460  48.1650320 100.9629850 101.3135640
  48.0808640 100.3702510 102.7040540  41.9004000 104.9045970 100.8013270
  42.4148670 104.8153980 101.6035700  41.0573080 105.2505670 101.0941180
  43.8758400 105.1901310  90.2297270  43.7159540 104.9004250  91.1279100
  43.7105110 104.4141440  89.6942500  36.3546780 104.9699840  92.0068890
  36.1789260 104.0535380  91.7936690  35.5002520 105.3287130  92.2466690
  43.5784530 102.6988870  88.7895270  42.8849690 102.6966160  88.1297550
  44.3207390 102.2748190  88.3589440  43.1434460 104.3251580  92.8643760
  43.5991410 103.5440960  93.1782380  43.4826980 105.0358400  93.4084940
  47.8911270  93.2550430 103.1968200  47.2755540  93.7630100 102.6683660
  47.5707690  92.3548760 103.1394140  35.6655780  89.2273800  95.0595070
  35.2223930  90.0083340  94.7279590  36.2240770  89.5503690  95.7666010
  39.9525590  92.0942320 100.6630390  39.4904960  92.3025340 101.4750330
  39.5503700  91.2801670 100.3601060  44.9530100  93.3151270 101.7927050
  44.1023690  93.0157020 102.1136120  44.7931890  93.5593280 100.8810870
  38.7814600  88.8484500  89.9400900  38.1568780  88.8444370  90.6654210
  38.6944720  87.9815460  89.5436870  37.7031680  89.7721130  96.9184670
  38.0004010  90.6783960  96.8376690  38.2517240  89.2839910  96.3044240
  30.3296800  89.5835080  95.6400450  30.0409850  90.1537940  96.3525430
  31.0742560  89.1039530  96.0031680  30.5167030  93.5255200  86.8503170
  30.4341700  94.4685960  86.9918160  30.1650090  93.3830110  85.9715520
  38.3165160  92.2594230  95.9173520  38.3201220  91.8184180  95.0678060
  39.2116280  92.5811560  96.0245340  42.3413680  91.0373710  96.9243970
  42.3586420  91.4882360  97.7685820  42.0929260  90.1379350  97.1377410
  37.3906810  95.5707450  88.3063580  36.8223710  95.1225700  87.6799490
  38.0995810  95.9300230  87.7728730  45.7684430  88.4505890 102.7630350
  46.0930200  87.7195550 103.2888330  45.8040940  88.1319530 101.8611340
  34.9354290  99.5665640  90.5789990  34.1616550  99.0263260  90.4188710
  35.6648920  99.0472250  90.2407750  41.0761070  98.6340060 102.2585380
  41.0098380  97.7135730 102.0042970  40.4466210  98.7315500 102.9730020
  34.9791690  99.2346020  94.2168800  35.4970360  98.4314280  94.1625690
  34.5275710  99.1725160  95.0585630  39.8661190 100.5012300  89.4896100
  40.2076890 101.2454530  88.9939420  39.0373900 100.8143420  89.8520930
  35.6649350  96.6591630 104.0134050  35.3649490  96.8048810 103.1161870
  36.4360590  96.0996920 103.9207440  41.0077800 101.4560630 102.0089180
  41.0222340 100.5241590 101.7908090  40.3002900 101.5420390 102.6478950
  47.2189010  98.0967970 101.3557760  46.4937200  98.6896750 101.1587150
  47.7464470  98.0891510 100.5571130  38.8351880 100.5825830  92.2612020
  39.5223010 101.1295040  92.6419610  38.0484300 101.1266560  92.2961630
  30.9744280  96.1998650  87.7529100  31.8439130  96.4823450  88.0365020
  30.4834600  97.0134520  87.6377910  38.1379090  97.5871860  91.8737380
  38.5941870  98.3977110  92.0997570  37.7867300  97.2695000  92.7055870
  40.4411700 103.0978200  99.1029680  41.0853920 103.3037580  99.7803100
  40.8041140 102.3366600  98.6500530  34.0390870  87.9309510  92.3459900
  33.9105500  87.9227410  93.2944820  33.2152890  88.2692600  91.9950910
  45.5599500 101.3859170  87.5446270  45.3337080 100.6689610  88.1370910
  45.1695700 101.1371610  86.7068020  43.4881400 101.9005450 101.0243190
  43.8237640 102.4872140 101.7021110  42.5681740 101.7698160 101.2540980
  45.1415750  99.3031110  89.2060430  44.8537450  99.7643800  89.9938310
  45.9367920  98.8428880  89.4744650  37.3584150 102.7957230  89.1364400
  37.3494250 103.5286920  88.5208910  36.4382510 102.5488810  89.2291360
  32.9590790  98.0172120  89.8811160  32.3518740  98.7571020  89.8906460
  33.4340140  98.1071480  89.0549360  42.5323580  92.1822940  99.5568050
  42.9004400  91.3618150  99.8847620  41.6721780  92.2424830  99.9723700
  40.3443750 102.8585470  87.7989590  40.4455730 102.6549460  86.8691570
  39.4445490 102.6043750  88.0037370  37.8669640  93.4165830  91.7813490
  37.1585790  93.8852170  92.2227100  38.1514120  92.7587840  92.4158680
  41.8985070  90.1416490  93.2209280  41.7752850  90.1602620  92.2718790
  42.8469630  90.1895430  93.3407680  36.0704660  91.7250910  89.1564200
  36.9195190  92.1621060  89.0904390  35.7035930  92.0371170  89.9836260
  46.6992430  91.0530490 100.6234410  46.1966030  91.7935890 100.9628220
  47.5149090  91.4414490 100.3071200  34.9696080  97.9783270  87.6299730
  35.7359350  97.8664630  88.1925160  35.0470770  97.2821240  86.9776500
  33.6642840  95.4108340  88.3132620  33.7446430  94.4635850  88.4250020
  34.5562590  95.7415220  88.4193280  31.3503030 101.6277300  91.2908670
  30.4242810 101.8698440  91.2814080  31.8159460 102.4551560  91.1693420
  37.5759860 104.7334040  87.2392730  38.3688470 105.0222870  86.7874520
  37.0564210 104.3026210  86.5605210  42.3080460 100.8529670 104.5528150
  41.7018620 100.8761270 103.8123900  42.0034570 100.1212710 105.0895400
  43.7380830 104.5809960 103.1637560  44.6902580 104.4967980 103.1137800
  43.5909050 105.2451670 103.8371350  46.6290030 103.9604170  88.6629470
  46.3431540 103.5469310  87.8483650  46.4309580 104.8891880  88.5429990
  38.0937260  99.9537450  87.1035080  37.9887900  99.3389800  87.8296460
  37.9261480  99.4303340  86.3198090  41.3339990  99.0157480  87.7077070
  40.7850090  99.4626780  88.3519810  41.9559250  98.5106730  88.2314740
  37.0015110  97.9748400  89.6042370  37.4231530  97.8088270  90.4473760
  37.1265950  97.1648630  89.1097510  39.5142750  96.9986010  86.8519470
  40.0348410  96.2835030  86.4860620  40.1611150  97.6371880  87.1519980
  44.0620590  98.4214410 102.1754540  44.4761610  98.5759490 103.0244960
  43.1271590  98.5469630 102.3380320  38.4176270  89.4780560  99.5238030
  37.9693570  89.5004820  98.6783580  37.7841470  89.0799580 100.1208330
  38.8235820  98.3734890 100.1450470  39.2423930  99.2167620  99.9726710
  37.9044450  98.5106930  99.9157250  41.1599720  96.1051070 101.5288310
  41.2795930  95.5092210 102.2683150  42.0193720  96.1420760 101.1089610
  35.8974010  94.0481630  86.5500530  35.6963070  93.1848990  86.9113870
  35.7266060  93.9614990  85.6122130  34.6956810  91.1482250  86.5378410
  34.9982710  91.1549680  85.6297560  35.4351400  90.7980110  87.0346070
  33.7186940 100.4524670  87.3708210  34.1561810 100.9954340  88.0265790
  34.2034670  99.6271620  87.3804550  35.5294660 101.5722710  92.4830440
  35.2290200 101.4487680  93.3834350  35.4232150 100.7131300  92.0746170
  47.0585130 103.6101290 101.8487410  46.4587120 103.6693850 101.1051330
  47.1879030 102.6706270 101.9784260  31.2547380  96.6204520  93.9198980
  30.5996220  96.3516160  93.2758680  32.0925330  96.5109000  93.4700960
  47.8062210  98.3900960  86.8463840  48.0811050  99.2979840  86.7183060
  47.6172950  98.3263490  87.7825830  47.0927170  95.4741470 101.4732790
  46.8613260  95.2454220 100.5730740  47.3531720  96.3941020 101.4277680
  45.5315240  90.6997900 104.2512490  46.4085420  90.7081300 104.6346490
  45.5436080  89.9628740 103.6404840  33.0112670  92.8868990  87.7718690
  33.7204370  92.4652210  87.2865970  32.2952610  92.9544220  87.1402040
  32.6586830  88.9408320  86.8121340  33.3814960  89.4817260  87.1302560
  32.9311350  88.6671740  85.9362880  32.3479020  88.1914510  96.7143960
  32.9955210  87.6411890  96.2739120  32.7680860  88.4457660  97.5359770
  46.2431360  88.3855870 100.0713600  46.8803580  88.9990010 100.4372790
  46.3906250  88.4216530  99.1262830  45.8012820 105.0871870  93.4731840
  46.3971890 104.7656440  92.7966260  46.0590970 104.6143690  94.2645110
  32.1011020  88.3470180  99.4569280  31.7525840  88.8034000 100.2227460
  31.7698720  87.4527310  99.5391710  42.2510400  89.1952120 102.6180990
  42.8650810  89.5131410 101.9562070  42.7959960  88.7100710 103.2376850
  48.6685580 105.0943750 100.0242830  48.1743860 105.4912620  99.3069960
  48.0598870 104.4692960 100.4180110  32.7731660  87.8746380 102.7320050
  33.3214650  87.6934430 101.9686160  32.8386970  87.0840490 103.2676360
  42.9918440  87.7584260  98.9450280  42.1178280  88.0919370  98.7423210
  42.8829190  87.2857440  99.7702150  43.8990420  89.9655130 100.3292000
  43.5703780  89.1506890  99.9493730  44.8472720  89.9224940 100.2057690
  46.3525030 105.7367170  97.3029570  45.8928000 106.4882980  96.9287590
  45.7237490 105.0173640  97.2444370  40.7393260  88.6754100  97.8843190
  39.9565050  89.1499600  98.1639950  40.4456190  87.7708930  97.7756370
  45.2914330  89.3777200  95.9292280  45.7322420  89.3222300  95.0813880
  45.0221920  90.2935210  96.0002460  32.0833670  88.9801580  90.4056910
  32.8413030  89.0930460  89.8320940  31.6210840  89.8170780  90.3600340
  38.6247480  91.0940850  93.3959220  37.8121990  90.7197740  93.0555100
  39.1289120  90.3385930  93.6980410  43.1272460  87.7583300  94.6342290
  43.7301830  88.3303510  95.1090810  42.3865450  88.3222740  94.4116190
  34.4558820  89.5065630  88.9458880  34.9851580  88.7195430  88.8166830
  35.0887140  90.1856820  89.1794410  36.6496660  89.2440770  92.0004270
  36.0199400  88.5428080  92.1674400  36.1101800  90.0044900  91.7837430
  47.8233670 105.4005570  91.6689130  47.9985860 104.7143310  91.0250050
  47.1255240 105.9252620  91.2765800  36.7752220  88.5224750 104.4356760
  36.4936490  89.0258350 103.6717580  37.1571920  87.7246500 104.0698890
  34.8276110 101.9065140  89.2270770  34.1984990 102.3750240  89.7756600
  34.9423940 101.0614360  89.6616960  43.3767680  87.9378330 105.0137230
  43.2633130  88.2572940 105.9088750  44.1937420  88.3390840 104.7174510
  46.1566170 105.0849860 104.4955920  46.9491490 104.5899090 104.2881880
  46.4499320 105.7640000 105.1031530  34.4110960 102.0809720  78.3315020
  34.7139000 101.1907460  78.1525240  35.1554550 102.6379940  78.1037270
  40.6614610 104.4268020  75.6584360  40.0426050 104.8825520  75.0878800
  41.5166390 104.5819480  75.2574060  32.0459530  91.0161530  79.5908020
  31.8662370  90.1187280  79.8710780  31.6439610  91.5633400  80.2654970
  32.6646200  93.5122030  78.1990360  33.3456310  93.7760400  78.8177760
  32.3494250  92.6722900  78.5328370  36.8570770  94.5589390  77.2862950
  37.3648990  95.0570360  77.9267970  37.3884010  93.7824590  77.1102310
  48.9581700  92.7294580  80.9892300  48.2533870  93.1176290  80.4707410
  49.2239620  93.4244870  81.5913230  35.1406870  89.1987950  81.5526370
  35.1425310  89.7160340  80.7472270  34.3111180  88.7218130  81.5296300
  36.3909720  98.8383130  79.7299870  36.0579100  99.4652050  80.3720940
  36.5676400  99.3645010  78.9501540  34.8222200  90.9097910  79.5596820
  35.1639010  91.7539960  79.2650690  33.8838010  91.0581650  79.6762160
  35.6028820 100.8063930  81.5449050  36.2202820 101.4815010  81.2633500
  34.7421940 101.2151910  81.4536550  47.9730550  92.0983000  77.5885420
  47.0255460  92.1321980  77.7200850  48.2980540  92.9121950  77.9734780
  45.3510570 100.8363690  73.2639040  45.2406900  99.8938020  73.3888460
  45.3478820 101.1979330  74.1501800  40.8799930  92.7346010  69.6168690
  39.9403600  92.8959970  69.7021150  41.1983190  93.4531690  69.0704680
  47.4012690  97.4164530  79.5947720  46.5731320  97.4857620  79.1197850
  47.9963170  98.0018840  79.1263550  44.3654700  94.2033850  80.5402590
  43.9525880  95.0287560  80.7942580  43.6330650  93.6178890  80.3478950
  36.9669190 100.6761310  77.5660470  36.6697480 100.0706780  76.8868250
  37.9169010 100.7138620  77.4549830  35.2116110  93.7636960  79.1820300
  35.7630700  93.8732300  78.4073550  35.7259620  94.1374560  79.8975530
  36.0587620 100.4143000  84.2168270  35.1616150 100.6382970  84.4641670
  36.0840490 100.5377940  83.2679670  41.2088220 102.2032190  74.0990770
  41.6484130 102.9456520  73.6846160  41.1475110 102.4458760  75.0229730
  36.6839190 103.2278020  85.0010790  36.6554620 103.6320970  84.1339220
  36.5204160 102.2988380  84.8382390  46.6809980  88.5178930  68.4450570
  46.3682640  88.6105760  69.3449640  47.4422450  89.0959960  68.3948000
  32.0825120 100.7554060  75.1202730  31.6753200 100.8968650  74.2656330
  32.9738130 100.4714220  74.9173940  41.9004000 104.9045970  82.0269780
  42.4148670 104.8153980  82.8292210  41.0573080 105.2505670  82.3197690
  43.8758400 105.1901310  71.4553780  43.7159540 104.9004250  72.3535610
  43.7105110 104.4141440  70.9199010  36.3546780 104.9699840  73.2325400
  36.1789260 104.0535380  73.0193200  35.5002520 105.3287130  73.4723200
  43.5784530 102.6988870  70.0151780  42.8849690 102.6966160  69.3554060
  44.3207390 102.2748190  69.5845950  47.8911270  93.2550430  84.4224710
  47.2755540  93.7630100  83.8940170  47.5707690  92.3548760  84.3650650
  35.6655780  89.2273800  76.2851580  35.2223930  90.0083340  75.9536100
  36.2240770  89.5503690  76.9922520  39.9525590  92.0942320  81.8886900
  39.4904960  92.3025340  82.7006840  39.5503700  91.2801670  81.5857570
  42.6867760  94.3570740  72.6123480  42.0876650  95.0806540  72.4287100
  43.2347370  94.2947520  71.8299930  37.8969210  95.2492950  84.6793100
  37.8012810  94.3087680  84.5293500  38.7401190  95.4708020  84.2841170
  33.0279750  91.6606620  82.8326880  32.6343140  92.5081830  83.0399660
  32.3398150  91.0232990  83.0235520  38.3165160  92.2594230  77.1430030
  38.3201220  91.8184180  76.2934570  39.2116280  92.5811560  77.2501850
  45.7684430  88.4505890  83.9886860  46.0930200  87.7195550  84.5144840
  45.8040940  88.1319530  83.0867850  36.4072500  95.3604650  81.2079650
  36.1029570  96.2396630  81.4330010  37.3618960  95.4204440  81.2437090
  41.1552210  89.9568960  71.7402280  40.3416820  89.4582130  71.6647590
  40.9614160  90.7967210  71.3238630  41.0761070  98.6340060  83.4841890
  41.0098380  97.7135730  83.2299480  40.4466210  98.7315500  84.1986530
  43.8700600  94.3288610  70.0364440  44.7580220  94.6405840  69.8615780
  43.8405690  93.4560860  69.6445020  35.6649350  96.6591630  85.2390560
  35.3649490  96.8048810  84.3418380  36.4360590  96.0996920  85.1463950
  41.0077800 101.4560630  83.2345690  41.0222340 100.5241590  83.0164600
  40.3002900 101.5420390  83.8735460  47.2189010  98.0967970  82.5814270
  46.4937200  98.6896750  82.3843660  47.7464470  98.0891510  81.7827640
  40.4411700 103.0978200  80.3286190  41.0853920 103.3037580  81.0059610
  40.8041140 102.3366600  79.8757040  45.5599500 101.3859170  68.7702780
  45.3337080 100.6689610  69.3627420  45.1695700 101.1371610  67.9324530
  43.4881400 101.9005450  82.2499700  43.8237640 102.4872140  82.9277620
  42.5681740 101.7698160  82.4797490  31.3415530 105.4126030  69.5447240
  31.7013170 106.0115370  68.8904510  31.2007870 105.9585920  70.3182270
  31.0384800  89.6900630  83.0323110  30.3243320  89.8897550  83.6375720
  31.4579840  88.9140200  83.4037910  45.1415750  99.3031110  70.4316940
  44.8537450  99.7643800  71.2194820  45.9367920  98.8428880  70.7001160
  31.3257390 103.6780890  84.0189640  31.4348510 102.7375630  83.8785030
  30.6737950 103.9435640  83.3703370  39.3169980 101.9496780  85.4187760
  38.9966850 101.2306020  85.9633450  38.6428340 102.6251850  85.4923820
  32.9590790  98.0172120  71.1067670  32.3518740  98.7571020  71.1162970
  33.4340140  98.1071480  70.2805870  42.5323580  92.1822940  80.7824560
  42.9004400  91.3618150  81.1104130  41.6721780  92.2424830  81.1980210
  45.8985610  91.1379880  71.5912120  45.2698770  91.2425550  70.8770350
  45.4037530  91.3576660  72.3806000  39.4925570  94.8362530  81.0062530
  39.9910820  95.3108350  81.6714380  39.6348520  93.9126050  81.2132560
  38.9861860 105.3771790  73.7193770  39.2403360 105.3393180  72.7973140
  38.0374340 105.2505120  73.7122020  46.6992430  91.0530490  81.8490920
  46.1966030  91.7935890  82.1884730  47.5149090  91.4414490  81.5327710
  34.4657550 105.5603730  76.6423670  35.2020030 105.0119190  76.9132240
  34.8498470 106.4259740  76.5029660  31.3503030 101.6277300  72.5165180
  30.4242810 101.8698440  72.5070590  31.8159460 102.4551560  72.3949930
  37.5759860 104.7334040  68.4649240  38.3688470 105.0222870  68.0131030
  37.0564210 104.3026210  67.7861720  42.3080460 100.8529670  85.7784660
  41.7018620 100.8761270  85.0380410  42.0034570 100.1212710  86.3151910
  43.7380830 104.5809960  84.3894070  44.6902580 104.4967980  84.3394310
  43.5909050 105.2451670  85.0627860  46.6290030 103.9604170  69.8885980
  46.3431540 103.5469310  69.0740160  46.4309580 104.8891880  69.7686500
  38.2451580  98.6394250  84.3080820  37.4797250  99.2079250  84.2235490
  38.4267540  98.3470460  83.4149050  45.3874930 100.3699580  84.8655840
  46.1284400 100.7075340  84.3623300  44.6247610 100.5391640  84.3125610
  33.2236720  95.3752850  85.6695370  33.2642060  95.0766720  86.5780600
  34.0782220  95.7760460  85.5102890  35.1642530  93.9544950  83.6369860
  34.6338990  93.4635900  83.0093200  35.8330600  94.3829150  83.1027790
  44.0620590  98.4214410  83.4011050  44.4761610  98.5759490  84.2501470
  43.1271590  98.5469630  83.5636830  35.6514830  90.9207320  83.7167150
  35.5571700  90.3028070  82.9918020  35.0712220  91.6473610  83.4897060
  38.8235820  98.3734890  81.3706980  39.2423930  99.2167620  81.1983220
  37.9044450  98.5106930  81.1413760  41.1599720  96.1051070  82.7544820
  41.2795930  95.5092210  83.4939660  42.0193720  96.1420760  82.3346120
  36.6743240 104.6787900  82.4864710  36.1364330 105.4033960  82.1673410
  36.9277200 104.2018240  81.6962050  37.9268490  92.6472420  84.0120640
  38.5168180  92.3388270  84.6998460  37.1088730  92.1752170  84.1680540
  43.3762320  88.8589860  70.3043920  43.6564610  88.0157760  70.6603340
  42.6028050  89.0912970  70.8182670  39.5305450 105.9139110  82.7451360
  39.4564150 106.8174250  83.0523730  38.6284290 105.5951010  82.7173430
  40.0790780 105.0797620  70.3677720  40.9741570 105.4182590  70.3896480
  40.1108410 104.3577030  69.7402000  33.7186940 100.4524670  68.5964720
  34.1561810 100.9954340  69.2522300  34.2034670  99.6271620  68.6061060
  30.9332740 103.2413700  76.0484980  31.2635750 102.3734760  75.8163620
  31.3623740 103.4472220  76.8789940  31.4222950 104.1084290  78.7866610
  30.9853940 104.2885090  79.6190760  31.9900630 104.8658910  78.6448330
  31.2547380  96.6204520  75.1455490  30.5996220  96.3516160  74.5015190
  32.0925330  96.5109000  74.6957470  48.7603010  98.9516690  75.7589760
  49.1311840  98.1684010  75.3525730  49.4004940  99.6405790  75.5807060
  45.7436770 100.3353270  81.1720080  44.9296610 100.7650430  81.4345870
  46.1510970 100.9471680  80.5589130  44.2037820  91.4145810  69.3673980
  44.6222700  91.2276790  68.5270640  43.8973880  90.5624860  69.6776910
  47.7027550  96.3269950  73.0649780  47.3271150  95.5597880  72.6331070
  46.9730670  96.7092650  73.5524710  47.0927170  95.4741470  82.6989300
  46.8613260  95.2454220  81.7987250  47.3531720  96.3941020  82.6534190
  46.9778510  94.5527440  76.3657020  47.5015990  94.0590090  75.7347190
  47.5637930  94.6877800  77.1104590  47.1568230  94.6367310  79.8876570
  46.2070940  94.6030850  80.0021560  47.3381240  95.5467420  79.6526340
  46.4678480  93.8100790  72.3049430  46.9637600  93.5771660  73.0898310
  46.2694550  92.9712630  71.8887070  47.8965640  92.4461740  74.8387110
  47.7864920  92.2917780  75.7769380  48.6573230  91.9182680  74.5962520
  46.2431360  88.3855870  81.2970110  46.8803580  88.9990010  81.6629300
  46.3906250  88.4216530  80.3519340  48.7855910  90.2769660  68.0793250
  49.7105220  90.1450840  67.8711540  48.7631700  90.3562480  69.0329700
  48.8594400  91.0480320  70.7049960  48.0645900  90.9825440  71.2342870
  49.0637680  91.9830960  70.6935310  32.1011020  88.3470180  80.6825790
  31.7525840  88.8034000  81.4483970  31.7698720  87.4527310  80.7648220
  33.7075390 101.5189780  84.8478980  33.6645020 101.1482690  85.7293440
  33.8386400 102.4567350  84.9880800  37.4081420 103.0749370  80.4488700
  37.1672780 103.3423930  79.5619220  38.3484060 103.2455100  80.5039560
  39.6135840  89.5382060  84.2045210  39.5524730  90.1303890  84.9540620
  40.5536220  89.4308020  84.0595470  42.2510400  89.1952120  83.8437500
  42.8650810  89.5131410  83.1818580  42.7959960  88.7100710  84.4633360
  32.7731660  87.8746380  83.9576560  33.3214650  87.6934430  83.1942670
  32.8386970  87.0840490  84.4932870  33.5463420 104.4652030  81.9676760
  32.9523740 104.3336730  82.7066800  33.5387260 103.6290170  81.5018860
  36.7820750 104.0455410  77.7034210  37.2985770 103.4342770  77.1782470
  37.4318130 104.5484190  78.1945220  39.5216250 104.9363900  78.5303190
  39.8094060 104.6818200  77.6536200  40.0339470 104.3841260  79.1208760
  31.4605650 105.1484800  74.1281560  31.2927690 104.5155480  74.8263450
  30.5940160 105.3544200  73.7775750  46.2707060  88.1604860  71.1339080
  46.4657690  89.0588310  71.4006510  45.4836930  87.9291940  71.6272030
  33.0668350 103.8418030  71.5731700  32.5415970 104.2226060  70.8693660
  32.9912930 104.4668800  72.2941410  39.5888610 105.8580000  85.8971390
  40.5155920 105.6224270  85.9407350  39.5739040 106.6852000  85.4157420
  36.7752220  88.5224750  85.6613270  36.4936490  89.0258350  84.8974090
  37.1571920  87.7246500  85.2955400  35.6661320 105.7900410  70.4480950
  36.3980140 105.5059690  69.9004840  35.9254990 105.5513690  71.3380330
  43.3767680  87.9378330  86.2393740  43.2633130  88.2572940  87.1345260
  44.1937420  88.3390840  85.9431020  34.4309700  98.0469630  59.3613510
  33.5994580  97.7918340  59.7610020  35.0390680  98.1180400  60.0971430
  32.8401650  93.0071520  53.1455900  31.9518350  93.3487490  53.0435780
  33.1242840  92.8071840  52.2536730  30.8034660  95.6077170  59.0295600
  31.3750770  94.8399370  59.0299240  30.8036200  95.9065930  58.1202210
  32.0459530  91.0161530  60.8164530  31.8662370  90.1187280  61.0967290
  31.6439610  91.5633400  61.4911480  32.6646200  93.5122030  59.4246870
  33.3456310  93.7760400  60.0434270  32.3494250  92.6722900  59.7584880
  35.1406870  89.1987950  62.7782880  35.1425310  89.7160340  61.9728780
  34.3111180  88.7218130  62.7552810  36.3909720  98.8383130  60.9556380
  36.0579100  99.4652050  61.5977450  36.5676400  99.3645010  60.1758050
  34.8222200  90.9097910  60.7853330  35.1639010  91.7539960  60.4907200
  33.8838010  91.0581650  60.9018670  35.6028820 100.8063930  62.7705560
  36.2202820 101.4815010  62.4890010  34.7421940 101.2151910  62.6793060
  30.8961160  99.9963790  51.6512410  30.5189140 100.4850890  50.9197310
  31.1534230 100.6689070  52.2818940  38.5050090  88.3980180  57.1097920
  38.8125070  87.8427070  56.3933420  37.5750790  88.5324640  56.9270910
  44.9228140  98.0249310  54.3493290  44.3040560  97.6868860  53.7019590
  44.9052590  97.3809070  55.0572480  35.2116110  93.7636960  60.4076810
  35.7630700  93.8732300  59.6330060  35.7259620  94.1374560  61.1232040
  45.0554800 104.2493180  62.4540080  44.5785360 105.0565370  62.2612690
  44.3716590 103.5971510  62.6066290  36.0587620 100.4143000  65.4424780
  35.1616150 100.6382970  65.6898180  36.0840490 100.5377940  64.4936180
  34.8858840  97.2856320  64.0182150  34.7466610  98.1579120  64.3869550
  34.0040200  96.9429130  63.8730090  36.6839190 103.2278020  66.2267300
  36.6554620 103.6320970  65.3595730  36.5204160 102.2988380  66.0638900
  33.1992120  95.8838730  54.1284420  33.0789720  96.6100820  53.5165690
  32.8893010  95.1141640  53.6512330  30.8377490  99.0553870  59.9353060
  30.9157910  99.1902640  58.9908780  31.4519170  98.3469760  60.1281180
  32.0825120 100.7554060  56.3459240  31.6753200 100.8968650  55.4912840
  32.9738130 100.4714220  56.1430450  41.9004000 104.9045970  63.2526290
  42.4148670 104.8153980  64.0548720  41.0573080 105.2505670  63.5454200
  43.5784530 102.6988870  51.2408290  42.8849690 102.6966160  50.5810570
  44.3207390 102.2748190  50.8102460  30.8937010 100.0968040  62.4747520
  31.0568050  99.6273400  61.6566890  31.3589460  99.5891600  63.1396360
  35.6655780  89.2273800  57.5108090  35.2223930  90.0083340  57.1792610
  36.2240770  89.5503690  58.2179030  39.9525590  92.0942320  63.1143410
  39.4904960  92.3025340  63.9263350  39.5503700  91.2801670  62.8114080
  44.9530100  93.3151270  64.2440070  44.1023690  93.0157020  64.5649140
  44.7931890  93.5593280  63.3323890  42.0479810  94.8153020  66.3438860
  42.3733220  93.9816770  66.0041090  42.8360140  95.3381540  66.4917190
  37.7031680  89.7721130  59.3697690  38.0004010  90.6783960  59.2889710
  38.2517240  89.2839910  58.7557260  35.4570000  94.3507370  55.2389340
  35.2310920  94.1344540  56.1435960  34.6762530  94.7835830  54.8935310
  37.8969210  95.2492950  65.9049610  37.8012810  94.3087680  65.7550010
  38.7401190  95.4708020  65.5097680  33.0279750  91.6606620  64.0583390
  32.6343140  92.5081830  64.2656170  32.3398150  91.0232990  64.2492030
  39.6024800  91.7441590  67.1280130  38.9123120  91.5513790  67.7626220
  40.3457100  92.0276230  67.6604430  30.3296800  89.5835080  58.0913470
  30.0409850  90.1537940  58.8038450  31.0742560  89.1039530  58.4544700
  34.1667540  92.1420720  57.3280750  33.8267590  92.6195950  58.0847800
  33.4044860  91.6885840  56.9681850  32.4675990  99.4719470  64.6343330
  32.0830780  98.8313140  65.2326290  32.7788180 100.1755590  65.2038060
  38.6173130  96.3196010  60.1151950  38.9843260  95.8454580  60.8613290
  38.4278190  97.1937580  60.4560290  31.4813620  91.0639700  56.2445420
  31.1960540  90.6995370  57.0824040  31.4192480  90.3320160  55.6308560
  36.4072500  95.3604650  62.4336160  36.1029570  96.2396630  62.6586520
  37.3618960  95.4204440  62.4693600  34.9354290  99.5665640  53.0303010
  34.1616550  99.0263260  52.8701730  35.6648920  99.0472250  52.6920770
  41.0761070  98.6340060  64.7098400  41.0098380  97.7135730  64.4555990
  40.4466210  98.7315500  65.4243040  34.9791690  99.2346020  56.6681820
  35.4970360  98.4314280  56.6138710  34.5275710  99.1725160  57.5098650
  32.4636230  96.2007390  63.5807520  32.1051170  96.8661240  64.1680860
  32.1690790  95.3690940  63.9520140  35.6649350  96.6591630  66.4647070
  35.3649490  96.8048810  65.5674890  36.4360590  96.0996920  66.3720460
  41.0077800 101.4560630  64.4602200  41.0222340 100.5241590  64.2421110
  40.3002900 101.5420390  65.0991970  46.1414870  95.6400450  50.7300810
  46.0578590  96.0714670  49.8797250  46.8609060  96.0998800  51.1627630
  30.9744280  96.1998650  50.2042120  31.8439130  96.4823450  50.4878040
  30.4834600  97.0134520  50.0890930  34.0390870  87.9309510  54.7972920
  33.9105500  87.9227410  55.7457840  33.2152890  88.2692600  54.4463930
  43.4881400 101.9005450  63.4756210  43.8237640 102.4872140  64.1534130
  42.5681740 101.7698160  63.7054000  31.0384800  89.6900630  64.2579620
  30.3243320  89.8897550  64.8632230  31.4579840  88.9140200  64.6294420
  45.1415750  99.3031110  51.6573450  44.8537450  99.7643800  52.4451330
  45.9367920  98.8428880  51.9257670  31.3257390 103.6780890  65.2446150
  31.4348510 102.7375630  65.1041540  30.6737950 103.9435640  64.5959880
  39.3169980 101.9496780  66.6444270  38.9966850 101.2306020  67.1889960
  38.6428340 102.6251850  66.7180330  37.3584150 102.7957230  51.5877420
  37.3494250 103.5286920  50.9721930  36.4382510 102.5488810  51.6804380
  32.9590790  98.0172120  52.3324180  32.3518740  98.7571020  52.3419480
  33.4340140  98.1071480  51.5062380  42.5323580  92.1822940  62.0081070
  42.9004400  91.3618150  62.3360640  41.6721780  92.2424830  62.4236720
  45.8985610  91.1379880  52.8168630  45.2698770  91.2425550  52.1026860
  45.4037530  91.3576660  53.6062510  40.3443750 102.8585470  50.2502610
  40.4455730 102.6549460  49.3204590  39.4445490 102.6043750  50.4550390
  39.4925570  94.8362530  62.2319040  39.9910820  95.3108350  62.8970890
  39.6348520  93.9126050  62.4389070  46.9940020 103.4672520  58.1963050
  47.1187440 104.2903690  58.6686860  47.8605580 103.2563250  57.8487200
  31.3503030 101.6277300  53.7421690  30.4242810 101.8698440  53.7327100
  31.8159460 102.4551560  53.6206440  33.4715830 104.7449800  67.0565760
  34.2728560 105.0661850  67.4701160  32.9567650 104.3845380  67.7785670
  42.3080460 100.8529670  67.0041170  41.7018620 100.8761270  66.2636920
  42.0034570 100.1212710  67.5408420  43.7380830 104.5809960  65.6150580
  44.6902580 104.4967980  65.5650820  43.5909050 105.2451670  66.2884370
  31.1913640  97.2323260  66.0001810  31.6952660  96.6530540  66.5718040
  30.4521060  97.5163490  66.5378180  38.2451580  98.6394250  65.5337330
  37.4797250  99.2079250  65.4492000  38.4267540  98.3470460  64.6405560
  33.2236720  95.3752850  66.8951880  33.2642060  95.0766720  67.8037110
  34.0782220  95.7760460  66.7359400  35.1642530  93.9544950  64.8626370
  34.6338990  93.4635900  64.2349710  35.8330600  94.3829150  64.3284300
  44.0620590  98.4214410  64.6267560  44.4761610  98.5759490  65.4757980
  43.1271590  98.5469630  64.7893340  44.5342760  95.7610570  66.6306710
  45.1163530  95.0062890  66.5427190  44.7104530  96.2918010  65.8538190
  35.6514830  90.9207320  64.9423660  35.5571700  90.3028070  64.2174530
  35.0712220  91.6473610  64.7153570  38.4176270  89.4780560  61.9751050
  37.9693570  89.5004820  61.1296600  37.7841470  89.0799580  62.5721350
  38.8235820  98.3734890  62.5963490  39.2423930  99.2167620  62.4239730
  37.9044450  98.5106930  62.3670270  41.1599720  96.1051070  63.9801330
  41.2795930  95.5092210  64.7196170  42.0193720  96.1420760  63.5602630
  36.6743240 104.6787900  63.7121220  36.1364330 105.4033960  63.3929920
  36.9277200 104.2018240  62.9218560  37.9268490  92.6472420  65.2377150
  38.5168180  92.3388270  65.9254970  37.1088730  92.1752170  65.3937050
  42.7461920  92.2638230  65.4710170  42.0577440  91.6019770  65.4060160
  43.4667940  91.8176500  65.9158630  39.5305450 105.9139110  63.9707870
  39.4564150 106.8174250  64.2780240  38.6284290 105.5951010  63.9429940
  35.5294660 101.5722710  54.9343460  35.2290200 101.4487680  55.8347370
  35.4232150 100.7131300  54.5259190  47.7543040  98.0966590  52.1404340
  48.5161950  98.6663240  52.2464030  47.7697410  97.5293790  52.9112650
  31.2547380  96.6204520  56.3712000  30.5996220  96.3516160  55.7271700
  32.0925330  96.5109000  55.9213980  47.8062210  98.3900960  49.2976860
  48.0811050  99.2979840  49.1696080  47.6172950  98.3263490  50.2338850
  44.2037820  91.4145810  50.5930490  44.6222700  91.2276790  49.7527150
  43.8973880  90.5624860  50.9033420  47.7027550  96.3269950  54.2906290
  47.3271150  95.5597880  53.8587580  46.9730670  96.7092650  54.7781220
  32.2923310  97.0057090  60.9115340  32.6596350  96.9184490  61.7911360
  31.7234130  96.2423640  60.8122200  31.8439310  93.9166180  64.8173760
  30.9495360  93.8832940  65.1567470  32.3836860  94.1152970  65.5825010
  30.4685460  93.8303450  52.3137330  29.5649540  94.0933650  52.1388990
  30.9526080  94.1014620  51.5337290  33.0112670  92.8868990  50.2231710
  33.7204370  92.4652210  49.7378990  32.2952610  92.9544220  49.5915060
  46.4678480  93.8100790  53.5305940  46.9637600  93.5771660  54.3154820
  46.2694550  92.9712630  53.1143580  32.3479020  88.1914510  59.1656980
  32.9955210  87.6411890  58.7252140  32.7680860  88.4457660  59.9872790
  48.8594400  91.0480320  51.9306470  48.0645900  90.9825440  52.4599380
  49.0637680  91.9830960  51.9191820  32.1011020  88.3470180  61.9082300
  31.7525840  88.8034000  62.6740480  31.7698720  87.4527310  61.9904730
  33.7075390 101.5189780  66.0735490  33.6645020 101.1482690  66.9549950
  33.8386400 102.4567350  66.2137310  37.4081420 103.0749370  61.6745210
  37.1672780 103.3423930  60.7875730  38.3484060 103.2455100  61.7296070
  39.6135840  89.5382060  65.4301720  39.5524730  90.1303890  66.1797130
  40.5536220  89.4308020  65.2851980  42.2510400  89.1952120  65.0694010
  42.8650810  89.5131410  64.4075090  42.7959960  88.7100710  65.6889870
  32.7731660  87.8746380  65.1833070  33.3214650  87.6934430  64.4199180
  32.8386970  87.0840490  65.7189380  42.9918440  87.7584260  61.3963300
  42.1178280  88.0919370  61.1936230  42.8829190  87.2857440  62.2215170
  43.8990420  89.9655130  62.7805020  43.5703780  89.1506890  62.4006750
  44.8472720  89.9224940  62.6570710  46.3525030 105.7367170  59.7542590
  45.8928000 106.4882980  59.3800610  45.7237490 105.0173640  59.6957390
  33.1775650 101.8310410  62.1441310  32.4509710 101.2115700  62.0767260
  33.2384800 102.2251020  61.2739390  40.7393260  88.6754100  60.3356210
  39.9565050  89.1499600  60.6152970  40.4456190  87.7708930  60.2269390
  32.0833670  88.9801580  52.8569930  32.8413030  89.0930460  52.2833960
  31.6210840  89.8170780  52.8113360  33.0668350 103.8418030  52.7988210
  32.5415970 104.2226060  52.0950170  32.9912930 104.4668800  53.5197920
  39.5888610 105.8580000  67.1227900  40.5155920 105.6224270  67.1663860
  39.5739040 106.6852000  66.6413930  34.8276110 101.9065140  51.6783790
  34.1984990 102.3750240  52.2269620  34.9423940 101.0614360  52.1129980
  43.3767680  87.9378330  67.4650250  43.2633130  88.2572940  68.3601770
  44.1937420  88.3390840  67.1687530  42.2825830  95.9570800  37.8284990
  42.2019880  95.0425410  37.5576700  41.8690250  96.4537870  37.1224700
  44.4351300 102.1410010  38.4893390  43.9732830 101.3697250  38.8180560
  45.2476850 102.1676080  38.9945840  39.8552860 100.4107010  39.7164420
  39.7861140  99.4696950  39.5553550  40.6172720 100.5008420  40.2886990
  48.9581700  92.7294580  43.4405320  48.2533870  93.1176290  42.9220430
  49.2239620  93.4244870  44.0426250  35.1406870  89.1987950  44.0039390
  35.1425310  89.7160340  43.1985290  34.3111180  88.7218130  43.9809320
  41.5277960  99.3107260  35.5029290  40.9095230  99.7756710  34.9392010
  42.0401210 100.0034740  35.9198800  44.9043630  92.6528210  39.6489230
  44.1999200  92.9413100  40.2292340  45.2655790  93.4628320  39.2888790
  30.8961160  99.9963790  32.8768920  30.5189140 100.4850890  32.1453820
  31.1534230 100.6689070  33.5075450  45.3510570 100.8363690  35.7152060
  45.2406900  99.8938020  35.8401480  45.3478820 101.1979330  36.6014820
  44.3654700  94.2033850  42.9915610  43.9525880  95.0287560  43.2455600
  43.6330650  93.6178890  42.7991970  36.9669190 100.6761310  40.0173490
  36.6697480 100.0706780  39.3381270  37.9169010 100.7138620  39.9062850
  46.6809980  88.5178930  30.8963590  46.3682640  88.6105760  31.7962660
  47.4422450  89.0959960  30.8461020  47.8911270  93.2550430  46.8737730
  47.2755540  93.7630100  46.3453190  47.5707690  92.3548760  46.8163670
  44.9530100  93.3151270  45.4696580  44.1023690  93.0157020  45.7905650
  44.7931890  93.5593280  44.5580400  38.7814600  88.8484500  33.6170430
  38.1568780  88.8444370  34.3423740  38.6944720  87.9815460  33.2206400
  41.2932630  92.9934280  37.0939780  41.6862200  93.3106480  36.2808470
  41.6549480  92.1146160  37.2084300  30.3296800  89.5835080  39.3169980
  30.0409850  90.1537940  40.0294960  31.0742560  89.1039530  39.6801210
  30.5167030  93.5255200  30.5272700  30.4341700  94.4685960  30.6687690
  30.1650090  93.3830110  29.6485050  42.3413680  91.0373710  40.6013500
  42.3586420  91.4882360  41.4455350  42.0929260  90.1379350  40.8146940
  45.7684430  88.4505890  46.4399880  46.0930200  87.7195550  46.9657860
  45.8040940  88.1319530  45.5380870  31.4813620  91.0639700  37.4701930
  31.1960540  90.6995370  38.3080550  31.4192480  90.3320160  36.8565070
  41.1552210  89.9568960  34.1915300  40.3416820  89.4582130  34.1160610
  40.9614160  90.7967210  33.7751650  39.8661190 100.5012300  33.1665630
  40.2076890 101.2454530  32.6708950  39.0373900 100.8143420  33.5290460
  42.7488600  99.8228140  38.5311140  43.1012420  99.2256270  37.8712510
  41.8650930  99.4972370  38.7019390  30.9744280  96.1998650  31.4298630
  31.8439130  96.4823450  31.7134550  30.4834600  97.0134520  31.3147440
  40.4411700 103.0978200  42.7799210  41.0853920 103.3037580  43.4572630
  40.8041140 102.3366600  42.3270060  31.3415530 105.4126030  31.9960260
  31.7013170 106.0115370  31.3417530  31.2007870 105.9585920  32.7695290
  42.5323580  92.1822940  43.2337580  42.9004400  91.3618150  43.5617150
  41.6721780  92.2424830  43.6493230  46.6992430  91.0530490  44.3003940
  46.1966030  91.7935890  44.6397750  47.5149090  91.4414490  43.9840730
  44.9914440  96.2963670  37.7465300  44.0504580  96.3113900  37.9212990
  45.3058510  95.5099630  38.1925600  31.3503030 101.6277300  34.9678200
  30.4242810 101.8698440  34.9583610  31.8159460 102.4551560  34.8462950
  42.3080460 100.8529670  48.2297680  41.7018620 100.8761270  47.4893430
  42.0034570 100.1212710  48.7664930  38.0937260  99.9537450  30.7804610
  37.9887900  99.3389800  31.5065990  37.9261480  99.4303340  29.9967620
  35.1642530  93.9544950  46.0882880  34.6338990  93.4635900  45.4606220
  35.8330600  94.3829150  45.5540810  44.5342760  95.7610570  47.8563220
  45.1163530  95.0062890  47.7683700  44.7104530  96.2918010  47.0794700
  35.6514830  90.9207320  46.1680170  35.5571700  90.3028070  45.4431040
  35.0712220  91.6473610  45.9410080  37.9268490  92.6472420  46.4633660
  38.5168180  92.3388270  47.1511480  37.1088730  92.1752170  46.6193560
  42.7461920  92.2638230  46.6966680  42.0577440  91.6019770  46.6316670
  43.4667940  91.8176500  47.1415140  34.6956810  91.1482250  30.2147940
  34.9982710  91.1549680  29.3067090  35.4351400  90.7980110  30.7115600
  39.5305450 105.9139110  45.1964380  39.4564150 106.8174250  45.5036750
  38.6284290 105.5951010  45.1686450  37.9141740  90.0916870  31.2004140
  37.5663740  89.4140860  30.6206590  38.1154510  89.6306380  32.0147530
  33.7186940 100.4524670  31.0477740  34.1561810 100.9954340  31.7035320
  34.2034670  99.6271620  31.0574080  31.4222950 104.1084290  41.2379630
  30.9853940 104.2885090  42.0703780  31.9900630 104.8658910  41.0961350
  47.0927170  95.4741470  45.1502320  46.8613260  95.2454220  44.2500270
  47.3531720  96.3941020  45.1047210  45.5315240  90.6997900  47.9282020
  46.4085420  90.7081300  48.3116020  45.5436080  89.9628740  47.3174370
  30.4685460  93.8303450  33.5393840  29.5649540  94.0933650  33.3645500
  30.9526080  94.1014620  32.7593800  46.9778510  94.5527440  38.8170040
  47.5015990  94.0590090  38.1860210  47.5637930  94.6877800  39.5617610
  47.1568230  94.6367310  42.3389590  46.2070940  94.6030850  42.4534580
  47.3381240  95.5467420  42.1039360  32.6586830  88.9408320  30.4890870
  33.3814960  89.4817260  30.8072090  32.9311350  88.6671740  29.6132410
  32.3479020  88.1914510  40.3913490  32.9955210  87.6411890  39.9508650
  32.7680860  88.4457660  41.2129300  46.2431360  88.3855870  43.7483130
  46.8803580  88.9990010  44.1142320  46.3906250  88.4216530  42.8032360
  37.4081420 103.0749370  42.9001720  37.1672780 103.3423930  42.0132240
  38.3484060 103.2455100  42.9552580  39.6135840  89.5382060  46.6558230
  39.5524730  90.1303890  47.4053640  40.5536220  89.4308020  46.5108490
  42.2510400  89.1952120  46.2950520  42.8650810  89.5131410  45.6331600
  42.7959960  88.7100710  46.9146380  42.9918440  87.7584260  42.6219810
  42.1178280  88.0919370  42.4192740  42.8829190  87.2857440  43.4471680
  43.8990420  89.9655130  44.0061530  43.5703780  89.1506890  43.6263260
  44.8472720  89.9224940  43.8827220  40.7393260  88.6754100  41.5612720
  39.9565050  89.1499600  41.8409480  40.4456190  87.7708930  41.4525900
  32.0833670  88.9801580  34.0826440  32.8413030  89.0930460  33.5090470
  31.6210840  89.8170780  34.0369870  36.6496660  89.2440770  35.6773800
  36.0199400  88.5428080  35.8443930  36.1101800  90.0044900  35.4606960
  39.5888610 105.8580000  48.3484410  40.5155920 105.6224270  48.3920370
  39.5739040 106.6852000  47.8670440  47.8233670 105.4005570  35.3458660
  47.9985860 104.7143310  34.7019580  47.1255240 105.9252620  34.9535330
  34.8276110 101.9065140  32.9040300  34.1984990 102.3750240  33.4526130
  34.9423940 101.0614360  33.3386490  43.3767680  87.9378330  48.6906760
  43.2633130  88.2572940  49.5858280  44.1937420  88.3390840  48.3944040
  46.1566170 105.0849860  48.1725450  46.9491490 104.5899090  47.9651410
  46.4499320 105.7640000  48.7801060  42.2825830  95.9570800  19.0541500
  42.2019880  95.0425410  18.7833210  41.8690250  96.4537870  18.3481210
  40.4143870  97.7349820  20.9350770  39.6385970  97.2550260  21.2249340
  41.0656800  97.0555470  20.7606930  34.4309700  98.0469630  21.8126530
  33.5994580  97.7918340  22.2123040  35.0390680  98.1180400  22.5484450
  44.4351300 102.1410010  19.7149900  43.9732830 101.3697250  20.0437070
  45.2476850 102.1676080  20.2202350  34.4110960 102.0809720  22.0084550
  34.7139000 101.1907460  21.8294770  35.1554550 102.6379940  21.7806800
  32.8401650  93.0071520  15.5968920  31.9518350  93.3487490  15.4948800
  33.1242840  92.8071840  14.7049750  30.8034660  95.6077170  21.4808620
  31.3750770  94.8399370  21.4812260  30.8036200  95.9065930  20.5715230
  40.6614610 104.4268020  19.3353890  40.0426050 104.8825520  18.7648330
  41.5166390 104.5819480  18.9343590  39.8552860 100.4107010  20.9420930
  39.7861140  99.4696950  20.7810060  40.6172720 100.5008420  21.5143500
  32.0459530  91.0161530  23.2677550  31.8662370  90.1187280  23.5480310
  31.6439610  91.5633400  23.9424500  40.8858030  93.2177390  21.1689860
  41.2622850  92.3449270  21.0563530  40.7877540  93.5536090  20.2780300
  35.0163040  91.5903020  16.6307300  35.1229790  92.4906750  16.9376060
  34.1055400  91.5420990  16.3401950  44.6682150  90.7127830  18.1018200
  45.4891770  90.2224400  18.1443680  44.7016230  91.3025490  18.8550040
  32.6646200  93.5122030  21.8759890  33.3456310  93.7760400  22.4947290
  32.3494250  92.6722900  22.2097900  36.8570770  94.5589390  20.9632480
  37.3648990  95.0570360  21.6037500  37.3884010  93.7824590  20.7871840
  35.1406870  89.1987950  25.2295900  35.1425310  89.7160340  24.4241800
  34.3111180  88.7218130  25.2065830  41.5277960  99.3107260  16.7285800
  40.9095230  99.7756710  16.1648520  42.0401210 100.0034740  17.1455310
  36.3909720  98.8383130  23.4069400  36.0579100  99.4652050  24.0490470
  36.5676400  99.3645010  22.6271070  44.9043630  92.6528210  20.8745740
  44.1999200  92.9413100  21.4548850  45.2655790  93.4628320  20.5145300
  34.8222200  90.9097910  23.2366350  35.1639010  91.7539960  22.9420220
  33.8838010  91.0581650  23.3531690  35.6028820 100.8063930  25.2218580
  36.2202820 101.4815010  24.9403030  34.7421940 101.2151910  25.1306080
  30.8961160  99.9963790  14.1025430  30.5189140 100.4850890  13.3710330
  31.1534230 100.6689070  14.7331960  46.5206410 102.2703340  23.1373220
  45.8369930 102.9402450  23.1289890  47.0600700 102.4683990  22.3718080
  38.5050090  88.3980180  19.5610940  38.8125070  87.8427070  18.8446440
  37.5750790  88.5324640  19.3783930  44.0565150 104.1147470  21.8518400
  44.0692310 103.7109760  20.9840660  43.5040370 104.8894760  21.7479830
  45.3510570 100.8363690  16.9408570  45.2406900  99.8938020  17.0657990
  45.3478820 101.1979330  17.8271330  43.4550590  99.0177310  23.1801010
  43.8719380  98.8037420  22.3454470  44.1790410  99.2750100  23.7509630
  40.8930850  96.4629010  16.2971060  39.9660130  96.3966390  16.5259530
  41.0455670  97.4009140  16.1826300  40.8799930  92.7346010  13.2938220
  39.9403600  92.8959970  13.3790680  41.1983190  93.4531690  12.7474210
  47.4012690  97.4164530  23.2717250  46.5731320  97.4857620  22.7967380
  47.9963170  98.0018840  22.8033080  44.9228140  98.0249310  16.8006310
  44.3040560  97.6868860  16.1532610  44.9052590  97.3809070  17.5085500
  44.3654700  94.2033850  24.2172120  43.9525880  95.0287560  24.4712110
  43.6330650  93.6178890  24.0248480  36.4987490  96.9893750  19.0790790
  36.0944490  96.2771000  18.5836690  36.5850610  96.6446990  19.9678830
  36.9669190 100.6761310  21.2430000  36.6697480 100.0706780  20.5637780
  37.9169010 100.7138620  21.1319360  35.2116110  93.7636960  22.8589830
  35.7630700  93.8732300  22.0843080  35.7259620  94.1374560  23.5745060
  45.0554800 104.2493180  24.9053100  44.5785360 105.0565370  24.7125710
  44.3716590 103.5971510  25.0579310  36.0587620 100.4143000  27.8937800
  35.1616150 100.6382970  28.1411200  36.0840490 100.5377940  26.9449200
  43.0992840  97.2636120  13.8079060  43.5386120  96.4258550  13.6616880
  43.8121260  97.8965520  13.8943200  34.8858840  97.2856320  26.4695170
  34.7466610  98.1579120  26.8382570  34.0040200  96.9429130  26.3243110
  41.2088220 102.2032190  17.7760300  41.6484130 102.9456520  17.3615690
  41.1475110 102.4458760  18.6999260  36.6839190 103.2278020  28.6780320
  36.6554620 103.6320970  27.8108750  36.5204160 102.2988380  28.5151920
  46.6809980  88.5178930  12.1220100  46.3682640  88.6105760  13.0219170
  47.4422450  89.0959960  12.0717530  33.1992120  95.8838730  16.5797440
  33.0789720  96.6100820  15.9678710  32.8893010  95.1141640  16.1025350
  48.6354010 104.0105120  29.9744490  49.1113730 104.4888010  30.6533570
  49.2561170 103.9422610  29.2489990  30.8377490  99.0553870  22.3866080
  30.9157910  99.1902640  21.4421800  31.4519170  98.3469760  22.5794200
  32.0825120 100.7554060  18.7972260  31.6753200 100.8968650  17.9425860
  32.9738130 100.4714220  18.5943470  48.0387260 101.2017970  27.1344500
  48.1650320 100.9629850  26.2161680  48.0808640 100.3702510  27.6066580
  41.9004000 104.9045970  25.7039310  42.4148670 104.8153980  26.5061740
  41.0573080 105.2505670  25.9967220  43.8758400 105.1901310  15.1323310
  43.7159540 104.9004250  16.0305140  43.7105110 104.4141440  14.5968540
  36.3546780 104.9699840  16.9094930  36.1789260 104.0535380  16.6962730
  35.5002520 105.3287130  17.1492730  43.5784530 102.6988870  13.6921310
  42.8849690 102.6966160  13.0323590  44.3207390 102.2748190  13.2615480
  43.1434460 104.3251580  17.7669800  43.5991410 103.5440960  18.0808420
  43.4826980 105.0358400  18.3110980  30.8937010 100.0968040  24.9260540
  31.0568050  99.6273400  24.1079910  31.3589460  99.5891600  25.5909380
  35.6655780  89.2273800  19.9621110  35.2223930  90.0083340  19.6305630
  36.2240770  89.5503690  20.6692050  39.9525590  92.0942320  25.5656430
  39.4904960  92.3025340  26.3776370  39.5503700  91.2801670  25.2627100
  38.7814600  88.8484500  14.8426940  38.1568780  88.8444370  15.5680250
  38.6944720  87.9815460  14.4462910  37.7031680  89.7721130  21.8210710
  38.0004010  90.6783960  21.7402730  38.2517240  89.2839910  21.2070280
  35.4570000  94.3507370  17.6902360  35.2310920  94.1344540  18.5948980
  34.6762530  94.7835830  17.3448330  42.6867760  94.3570740  16.2893010
  42.0876650  95.0806540  16.1056630  43.2347370  94.2947520  15.5069460
  37.8969210  95.2492950  28.3562630  37.8012810  94.3087680  28.2063030
  38.7401190  95.4708020  27.9610700  41.2932630  92.9934280  18.3196290
  41.6862200  93.3106480  17.5064980  41.6549480  92.1146160  18.4340810
  33.0279750  91.6606620  26.5096410  32.6343140  92.5081830  26.7169190
  32.3398150  91.0232990  26.7005050  39.6024800  91.7441590  29.5793150
  38.9123120  91.5513790  30.2139240  40.3457100  92.0276230  30.1117450
  30.3296800  89.5835080  20.5426490  30.0409850  90.1537940  21.2551470
  31.0742560  89.1039530  20.9057720  30.5167030  93.5255200  11.7529210
  30.4341700  94.4685960  11.8944200  30.1650090  93.3830110  10.8741560
  41.8787770  95.5840030  22.4147070  41.1468890  96.0926840  22.7637170
  41.4812110  94.7670010  22.1135850  38.3165160  92.2594230  20.8199560
  38.3201220  91.8184180  19.9704100  39.2116280  92.5811560  20.9271380
  34.1667540  92.1420720  19.7793770  33.8267590  92.6195950  20.5360820
  33.4044860  91.6885840  19.4194870  38.3785310  93.2606310  13.8106320
  38.4998130  93.2192790  14.7592140  37.9933820  94.1230460  13.6553050
  42.3413680  91.0373710  21.8270010  42.3586420  91.4882360  22.6711860
  42.0929260  90.1379350  22.0403450  37.3906810  95.5707450  13.2089620
  36.8223710  95.1225700  12.5825530  38.0995810  95.9300230  12.6754770
  32.4675990  99.4719470  27.0856350  32.0830780  98.8313140  27.6839310
  32.7788180 100.1755590  27.6551080  38.6173130  96.3196010  22.5664970
  38.9843260  95.8454580  23.3126310  38.4278190  97.1937580  22.9073310
  31.4813620  91.0639700  18.6958440  31.1960540  90.6995370  19.5337060
  31.4192480  90.3320160  18.0821580  36.4072500  95.3604650  24.8849180
  36.1029570  96.2396630  25.1099540  37.3618960  95.4204440  24.9206620
  34.9354290  99.5665640  15.4816030  34.1616550  99.0263260  15.3214750
  35.6648920  99.0472250  15.1433790  45.6942270  98.5631000  21.2742420
  46.4141390  99.0586290  20.8838530  45.4924090  97.8848890  20.6296290
  41.1552210  89.9568960  15.4171810  40.3416820  89.4582130  15.3417120
  40.9614160  90.7967210  15.0008160  43.8700600  94.3288610  13.7133970
  44.7580220  94.6405840  13.5385310  43.8405690  93.4560860  13.3214550
  34.9791690  99.2346020  19.1194840  35.4970360  98.4314280  19.0651730
  34.5275710  99.1725160  19.9611670  39.8661190 100.5012300  14.3922140
  40.2076890 101.2454530  13.8965460  39.0373900 100.8143420  14.7546970
  32.4636230  96.2007390  26.0320540  32.1051170  96.8661240  26.6193880
  32.1690790  95.3690940  26.4033160  35.6649350  96.6591630  28.9160090
  35.3649490  96.8048810  28.0187910  36.4360590  96.0996920  28.8233480
  41.0077800 101.4560630  26.9115220  41.0222340 100.5241590  26.6934130
  40.3002900 101.5420390  27.5504990  46.1414870  95.6400450  13.1813830
  46.0578590  96.0714670  12.3310270  46.8609060  96.0998800  13.6140650
  47.2189010  98.0967970  26.2583800  46.4937200  98.6896750  26.0613190
  47.7464470  98.0891510  25.4597170  47.1702120 102.4942710  15.9095960
  46.5278280 101.8398330  16.1839680  46.7832780 102.8997800  15.1336630
  42.7488600  99.8228140  19.7567650  43.1012420  99.2256270  19.0969020
  41.8650930  99.4972370  19.9275900  38.8351880 100.5825830  17.1638060
  39.5223010 101.1295040  17.5445650  38.0484300 101.1266560  17.1987670
  30.9744280  96.1998650  12.6555140  31.8439130  96.4823450  12.9391060
  30.4834600  97.0134520  12.5403950  38.1379090  97.5871860  16.7763420
  38.5941870  98.3977110  17.0023610  37.7867300  97.2695000  17.6081910
  40.4411700 103.0978200  24.0055720  41.0853920 103.3037580  24.6829140
  40.8041140 102.3366600  23.5526570  34.0390870  87.9309510  17.2485940
  33.9105500  87.9227410  18.1970860  33.2152890  88.2692600  16.8976950
  41.7143780 101.1010550  22.7233170  42.3566010 100.4003710  22.8365340
  42.2393130 101.8808990  22.5430060  45.5599500 101.3859170  12.4472310
  45.3337080 100.6689610  13.0396950  45.1695700 101.1371610  11.6094060
  43.4881400 101.9005450  25.9269230  43.8237640 102.4872140  26.6047150
  42.5681740 101.7698160  26.1567020  31.3415530 105.4126030  13.2216770
  31.7013170 106.0115370  12.5674040  31.2007870 105.9585920  13.9951800
  31.0384800  89.6900630  26.7092640  30.3243320  89.8897550  27.3145250
  31.4579840  88.9140200  27.0807440  45.1415750  99.3031110  14.1086470
  44.8537450  99.7643800  14.8964350  45.9367920  98.8428880  14.3770690
  31.3257390 103.6780890  27.6959170  31.4348510 102.7375630  27.5554560
  30.6737950 103.9435640  27.0472900  39.3169980 101.9496780  29.0957290
  38.9966850 101.2306020  29.6402980  38.6428340 102.6251850  29.1693350
  37.3584150 102.7957230  14.0390440  37.3494250 103.5286920  13.4234950
  36.4382510 102.5488810  14.1317400  32.9590790  98.0172120  14.7837200
  32.3518740  98.7571020  14.7932500  33.4340140  98.1071480  13.9575400
  42.5323580  92.1822940  24.4594090  42.9004400  91.3618150  24.7873660
  41.6721780  92.2424830  24.8749740  45.8985610  91.1379880  15.2681650
  45.2698770  91.2425550  14.5539880  45.4037530  91.3576660  16.0575530
  40.3443750 102.8585470  12.7015630  40.4455730 102.6549460  11.7717610
  39.4445490 102.6043750  12.9063410  37.8669640  93.4165830  16.6839530
  37.1585790  93.8852170  17.1253140  38.1514120  92.7587840  17.3184720
  39.4925570  94.8362530  24.6832060  39.9910820  95.3108350  25.3483910
  39.6348520  93.9126050  24.8902090  41.8985070  90.1416490  18.1235320
  41.7752850  90.1602620  17.1744830  42.8469630  90.1895430  18.2433720
  38.9861860 105.3771790  17.3963300  39.2403360 105.3393180  16.4742670
  38.0374340 105.2505120  17.3891550  36.0704660  91.7250910  14.0590240
  36.9195190  92.1621060  13.9930430  35.7035930  92.0371170  14.8862300
  44.9914440  96.2963670  18.9721810  44.0504580  96.3113900  19.1469500
  45.3058510  95.5099630  19.4182110  34.9696080  97.9783270  12.5325770
  35.7359350  97.8664630  13.0951200  35.0470770  97.2821240  11.8802540
  33.6642840  95.4108340  13.2158660  33.7446430  94.4635850  13.3276060
  34.5562590  95.7415220  13.3219320  46.9940020 103.4672520  20.6476070
  47.1187440 104.2903690  21.1199880  47.8605580 103.2563250  20.3000220
  34.4657550 105.5603730  20.3193200  35.2020030 105.0119190  20.5901770
  34.8498470 106.4259740  20.1799190  31.3503030 101.6277300  16.1934710
  30.4242810 101.8698440  16.1840120  31.8159460 102.4551560  16.0719460
  33.4715830 104.7449800  29.5078780  34.2728560 105.0661850  29.9214180
  32.9567650 104.3845380  30.2298690  37.5759860 104.7334040  12.1418770
  38.3688470 105.0222870  11.6900560  37.0564210 104.3026210  11.4631250
  43.7380830 104.5809960  28.0663600  44.6902580 104.4967980  28.0163840
  43.5909050 105.2451670  28.7397390  46.6290030 103.9604170  13.5655510
  46.3431540 103.5469310  12.7509690  46.4309580 104.8891880  13.4456030
  31.1913640  97.2323260  28.4514830  31.6952660  96.6530540  29.0231060
  30.4521060  97.5163490  28.9891200  38.0937260  99.9537450  12.0061120
  37.9887900  99.3389800  12.7322500  37.9261480  99.4303340  11.2224130
  38.2451580  98.6394250  27.9850350  37.4797250  99.2079250  27.9005020
  38.4267540  98.3470460  27.0918580  41.3339990  99.0157480  12.6103110
  40.7850090  99.4626780  13.2545850  41.9559250  98.5106730  13.1340780
  37.0015110  97.9748400  14.5068410  37.4231530  97.8088270  15.3499800
  37.1265950  97.1648630  14.0123550  35.1642530  93.9544950  27.3139390
  34.6338990  93.4635900  26.6862730  35.8330600  94.3829150  26.7797320
  39.5142750  96.9986010  11.7545510  40.0348410  96.2835030  11.3886660
  40.1611150  97.6371880  12.0546020  35.6514830  90.9207320  27.3936680
  35.5571700  90.3028070  26.6687550  35.0712220  91.6473610  27.1666590
  38.4176270  89.4780560  24.4264070  37.9693570  89.5004820  23.5809620
  37.7841470  89.0799580  25.0234370  38.8235820  98.3734890  25.0476510
  39.2423930  99.2167620  24.8752750  37.9044450  98.5106930  24.8183290
  41.1599720  96.1051070  26.4314350  41.2795930  95.5092210  27.1709190
  42.0193720  96.1420760  26.0115650  43.4987620  96.6588260  25.0076860
  42.9722840  97.1830880  24.4042000  43.8418960  97.2915650  25.6386590
  35.8974010  94.0481630  11.4526570  35.6963070  93.1848990  11.8139910
  35.7266060  93.9614990  10.5148170  36.6743240 104.6787900  26.1634240
  36.1364330 105.4033960  25.8442940  36.9277200 104.2018240  25.3731580
  37.9268490  92.6472420  27.6890170  38.5168180  92.3388270  28.3767990
  37.1088730  92.1752170  27.8450070  42.7461920  92.2638230  27.9223190
  42.0577440  91.6019770  27.8573180  43.4667940  91.8176500  28.3671650
  43.3762320  88.8589860  13.9813450  43.6564610  88.0157760  14.3372870
  42.6028050  89.0912970  14.4952200  34.6956810  91.1482250  11.4404450
  34.9982710  91.1549680  10.5323600  35.4351400  90.7980110  11.9372110
  39.5305450 105.9139110  26.4220890  39.4564150 106.8174250  26.7293260
  38.6284290 105.5951010  26.3942960  37.9141740  90.0916870  12.4260650
  37.5663740  89.4140860  11.8463100  38.1154510  89.6306380  13.2404040
  40.0790780 105.0797620  14.0447250  40.9741570 105.4182590  14.0666010
  40.1108410 104.3577030  13.4171530  33.7186940 100.4524670  12.2734250
  34.1561810 100.9954340  12.9291830  34.2034670  99.6271620  12.2830590
  30.9332740 103.2413700  19.7254510  31.2635750 102.3734760  19.4933150
  31.3623740 103.4472220  20.5559470  35.5294660 101.5722710  17.3856480
  35.2290200 101.4487680  18.2860390  35.4232150 100.7131300  16.9772210
  31.4222950 104.1084290  22.4636140  30.9853940 104.2885090  23.2960290
  31.9900630 104.8658910  22.3217860  47.0585130 103.6101290  26.7513450
  46.4587120 103.6693850  26.0077370  47.1879030 102.6706270  26.8810300
  48.2986580 101.3519110  12.0883160  47.4679540 101.4195760  12.5590390
  48.4758410 102.2423230  11.7850020  47.7543040  98.0966590  14.5917360
  48.5161950  98.6663240  14.6977050  47.7697410  97.5293790  15.3625670
  31.2547380  96.6204520  18.8225020  30.5996220  96.3516160  18.1784720
  32.0925330  96.5109000  18.3727000  48.7603010  98.9516690  19.4359290
  49.1311840  98.1684010  19.0295260  49.4004940  99.6405790  19.2576590
  45.7436770 100.3353270  24.8489610  44.9296610 100.7650430  25.1115400
  46.1510970 100.9471680  24.2358660  47.8062210  98.3900960  11.7489880
  48.0811050  99.2979840  11.6209100  47.6172950  98.3263490  12.6851870
  44.2037820  91.4145810  13.0443510  44.6222700  91.2276790  12.2040170
  43.8973880  90.5624860  13.3546440  47.7027550  96.3269950  16.7419310
  47.3271150  95.5597880  16.3100600  46.9730670  96.7092650  17.2294240
  32.2923310  97.0057090  23.3628360  32.6596350  96.9184490  24.2424380
  31.7234130  96.2423640  23.2635220  47.0927170  95.4741470  26.3758830
  46.8613260  95.2454220  25.4756780  47.3531720  96.3941020  26.3303720
  31.8439310  93.9166180  27.2686780  30.9495360  93.8832940  27.6080490
  32.3836860  94.1152970  28.0338030  30.4685460  93.8303450  14.7650350
  29.5649540  94.0933650  14.5902010  30.9526080  94.1014620  13.9850310
  46.9778510  94.5527440  20.0426550  47.5015990  94.0590090  19.4116720
  47.5637930  94.6877800  20.7874120  47.1568230  94.6367310  23.5646100
  46.2070940  94.6030850  23.6791090  47.3381240  95.5467420  23.3295870
  33.0112670  92.8868990  12.6744730  33.7204370  92.4652210  12.1892010
  32.2952610  92.9544220  12.0428080  32.6586830  88.9408320  11.7147380
  33.3814960  89.4817260  12.0328600  32.9311350  88.6671740  10.8388920
  46.4678480  93.8100790  15.9818960  46.9637600  93.5771660  16.7667840
  46.2694550  92.9712630  15.5656600  32.3479020  88.1914510  21.6170000
  32.9955210  87.6411890  21.1765160  32.7680860  88.4457660  22.4385810
  47.8965640  92.4461740  18.5156640  47.7864920  92.2917780  19.4538910
  48.6573230  91.9182680  18.2732050  48.7855910  90.2769660  11.7562780
  49.7105220  90.1450840  11.5481070  48.7631700  90.3562480  12.7099230
  48.8594400  91.0480320  14.3819490  48.0645900  90.9825440  14.9112400
  49.0637680  91.9830960  14.3704840  45.8012820 105.0871870  18.3757880
  46.3971890 104.7656440  17.6992300  46.0590970 104.6143690  19.1671150
  32.1011020  88.3470180  24.3595320  31.7525840  88.8034000  25.1253500
  31.7698720  87.4527310  24.4417750  33.7075390 101.5189780  28.5248510
  33.6645020 101.1482690  29.4062970  33.8386400 102.4567350  28.6650330
  37.4081420 103.0749370  24.1258230  37.1672780 103.3423930  23.2388750
  38.3484060 103.2455100  24.1809090  39.6135840  89.5382060  27.8814740
  39.5524730  90.1303890  28.6310150  40.5536220  89.4308020  27.7365000
  48.6685580 105.0943750  24.9268870  48.1743860 105.4912620  24.2096000
  48.0598870 104.4692960  25.3206150  32.7731660  87.8746380  27.6346090
  33.3214650  87.6934430  26.8712200  32.8386970  87.0840490  28.1702400
  33.5463420 104.4652030  25.6446290  32.9523740 104.3336730  26.3836330
  33.5387260 103.6290170  25.1788390  46.3525030 105.7367170  22.2055610
  45.8928000 106.4882980  21.8313630  45.7237490 105.0173640  22.1470410
  33.1775650 101.8310410  24.5954330  32.4509710 101.2115700  24.5280280
  33.2384800 102.2251020  23.7252410  36.7820750 104.0455410  21.3803740
  37.2985770 103.4342770  20.8552000  37.4318130 104.5484190  21.8714750
  39.5216250 104.9363900  22.2072720  39.8094060 104.6818200  21.3305730
  40.0339470 104.3841260  22.7978290  40.7393260  88.6754100  22.7869230
  39.9565050  89.1499600  23.0665990  40.4456190  87.7708930  22.6782410
  45.2914330  89.3777200  20.8318320  45.7322420  89.3222300  19.9839920
  45.0221920  90.2935210  20.9028500  47.1552900  89.0092440  18.8427140
  47.0941300  88.0653660  18.6958160  47.9344930  89.1172530  19.3880600
  31.4605650 105.1484800  17.8051090  31.2927690 104.5155480  18.5032980
  30.5940160 105.3544200  17.4545280  32.0833670  88.9801580  15.3082950
  32.8413030  89.0930460  14.7346980  31.6210840  89.8170780  15.2626380
  38.6247480  91.0940850  18.2985260  37.8121990  90.7197740  17.9581140
  39.1289120  90.3385930  18.6006450  43.1272460  87.7583300  19.5368330
  43.7301830  88.3303510  20.0116850  42.3865450  88.3222740  19.3142230
  46.2707060  88.1604860  14.8108610  46.4657690  89.0588310  15.0776040
  45.4836930  87.9291940  15.3041560  33.0668350 103.8418030  15.2501230
  32.5415970 104.2226060  14.5463190  32.9912930 104.4668800  15.9710940
  34.4558820  89.5065630  13.8484920  34.9851580  88.7195430  13.7192870
  35.0887140  90.1856820  14.0820450  36.6496660  89.2440770  16.9030310
  36.0199400  88.5428080  17.0700440  36.1101800  90.0044900  16.6863470
  47.8233670 105.4005570  16.5715170  47.9985860 104.7143310  15.9276090
  47.1255240 105.9252620  16.1791840  36.7752220  88.5224750  29.3382800
  36.4936490  89.0258350  28.5743620  37.1571920  87.7246500  28.9724930
  35.6661320 105.7900410  14.1250480  36.3980140 105.5059690  13.5774370
  35.9254990 105.5513690  15.0149860  34.8276110 101.9065140  14.1296810
  34.1984990 102.3750240  14.6782640  34.9423940 101.0614360  14.5643000
  43.3767680  87.9378330  29.9163270  43.2633130  88.2572940  30.8114790
  44.1937420  88.3390840  29.6200550  46.1566170 105.0849860  29.3981960
  46.9491490 104.5899090  29.1907920  46.4499320 105.7640000  30.0057570
  40.4143870  97.7349820   2.1607280  39.6385970  97.2550260   2.4505850
  41.0656800  97.0555470   1.9863440  34.4309700  98.0469630   3.0383040
  33.5994580  97.7918340   3.4379550  35.0390680  98.1180400   3.7740960
  34.4110960 102.0809720   3.2341060  34.7139000 101.1907460   3.0551280
  35.1554550 102.6379940   3.0063310  30.8034660  95.6077170   2.7065130
  31.3750770  94.8399370   2.7068770  30.8036200  95.9065930   1.7971740
  39.8552860 100.4107010   2.1677440  39.7861140  99.4696950   2.0066570
  40.6172720 100.5008420   2.7400010  32.0459530  91.0161530   4.4934060
  31.8662370  90.1187280   4.7736820  31.6439610  91.5633400   5.1681010
  32.6646200  93.5122030   3.1016400  33.3456310  93.7760400   3.7203800
  32.3494250  92.6722900   3.4354410  36.8570770  94.5589390   2.1888990
  37.3648990  95.0570360   2.8294010  37.3884010  93.7824590   2.0128350
  48.9581700  92.7294580   5.8918340  48.2533870  93.1176290   5.3733450
  49.2239620  93.4244870   6.4939270  35.1406870  89.1987950   6.4552410
  35.1425310  89.7160340   5.6498310  34.3111180  88.7218130   6.4322340
  36.3909720  98.8383130   4.6325910  36.0579100  99.4652050   5.2746980
  36.5676400  99.3645010   3.8527580  44.9043630  92.6528210   2.1002250
  44.1999200  92.9413100   2.6805360  45.2655790  93.4628320   1.7401810
  34.8222200  90.9097910   4.4622860  35.1639010  91.7539960   4.1676730
  33.8838010  91.0581650   4.5788200  35.6028820 100.8063930   6.4475090
  36.2202820 101.4815010   6.1659540  34.7421940 101.2151910   6.3562590
  46.5206410 102.2703340   4.3629730  45.8369930 102.9402450   4.3546400
  47.0600700 102.4683990   3.5974590  47.9730550  92.0983000   2.4911460
  47.0255460  92.1321980   2.6226890  48.2980540  92.9121950   2.8760820
  44.0565150 104.1147470   3.0774910  44.0692310 103.7109760   2.2097170
  43.5040370 104.8894760   2.9736340  43.4550590  99.0177310   4.4057520
  43.8719380  98.8037420   3.5710980  44.1790410  99.2750100   4.9766140
  47.4012690  97.4164530   4.4973760  46.5731320  97.4857620   4.0223890
  47.9963170  98.0018840   4.0289590  44.3654700  94.2033850   5.4428630
  43.9525880  95.0287560   5.6968620  43.6330650  93.6178890   5.2504990
  36.9669190 100.6761310   2.4686510  36.6697480 100.0706780   1.7894290
  37.9169010 100.7138620   2.3575870  35.2116110  93.7636960   4.0846340
  35.7630700  93.8732300   3.3099590  35.7259620  94.1374560   4.8001570
  45.0554800 104.2493180   6.1309610  44.5785360 105.0565370   5.9382220
  44.3716590 103.5971510   6.2835820  36.0587620 100.4143000   9.1194310
  35.1616150 100.6382970   9.3667710  36.0840490 100.5377940   8.1705710
  34.8858840  97.2856320   7.6951680  34.7466610  98.1579120   8.0639080
  34.0040200  96.9429130   7.5499620  36.6839190 103.2278020   9.9036830
  36.6554620 103.6320970   9.0365260  36.5204160 102.2988380   9.7408430
  48.6354010 104.0105120  11.2001000  49.1113730 104.4888010  11.8790080
  49.2561170 103.9422610  10.4746500  30.8377490  99.0553870   3.6122590
  30.9157910  99.1902640   2.6678310  31.4519170  98.3469760   3.8050710
  48.0387260 101.2017970   8.3601010  48.1650320 100.9629850   7.4418190
  48.0808640 100.3702510   8.8323090  41.9004000 104.9045970   6.9295820
  42.4148670 104.8153980   7.7318250  41.0573080 105.2505670   7.2223730
  47.8911270  93.2550430   9.3250750  47.2755540  93.7630100   8.7966210
  47.5707690  92.3548760   9.2676690  30.8937010 100.0968040   6.1517050
  31.0568050  99.6273400   5.3336420  31.3589460  99.5891600   6.8165890
  39.9525590  92.0942320   6.7912940  39.4904960  92.3025340   7.6032880
  39.5503700  91.2801670   6.4883610  44.9530100  93.3151270   7.9209600
  44.1023690  93.0157020   8.2418670  44.7931890  93.5593280   7.0093420
  42.0479810  94.8153020  10.0208390  42.3733220  93.9816770   9.6810620
  42.8360140  95.3381540  10.1686720  37.7031680  89.7721130   3.0467220
  38.0004010  90.6783960   2.9659240  38.2517240  89.2839910   2.4326790
  37.8969210  95.2492950   9.5819140  37.8012810  94.3087680   9.4319540
  38.7401190  95.4708020   9.1867210  33.0279750  91.6606620   7.7352920
  32.6343140  92.5081830   7.9425700  32.3398150  91.0232990   7.9261560
  39.6024800  91.7441590  10.8049660  38.9123120  91.5513790  11.4395750
  40.3457100  92.0276230  11.3373960  30.3296800  89.5835080   1.7683000
  30.0409850  90.1537940   2.4807980  31.0742560  89.1039530   2.1314230
  41.8787770  95.5840030   3.6403580  41.1468890  96.0926840   3.9893680
  41.4812110  94.7670010   3.3392360  42.3413680  91.0373710   3.0526520
  42.3586420  91.4882360   3.8968370  42.0929260  90.1379350   3.2659960
  45.7684430  88.4505890   8.8912900  46.0930200  87.7195550   9.4170880
  45.8040940  88.1319530   7.9893890  32.4675990  99.4719470   8.3112860
  32.0830780  98.8313140   8.9095820  32.7788180 100.1755590   8.8807590
  38.6173130  96.3196010   3.7921480  38.9843260  95.8454580   4.5382820
  38.4278190  97.1937580   4.1329820  36.4072500  95.3604650   6.1105690
  36.1029570  96.2396630   6.3356050  37.3618960  95.4204440   6.1463130
  45.6942270  98.5631000   2.4998930  46.4141390  99.0586290   2.1095040
  45.4924090  97.8848890   1.8552800  41.0761070  98.6340060   8.3867930
  41.0098380  97.7135730   8.1325520  40.4466210  98.7315500   9.1012570
  32.4636230  96.2007390   7.2577050  32.1051170  96.8661240   7.8450390
  32.1690790  95.3690940   7.6289670  35.6649350  96.6591630  10.1416600
  35.3649490  96.8048810   9.2444420  36.4360590  96.0996920  10.0489990
  41.0077800 101.4560630   8.1371730  41.0222340 100.5241590   7.9190640
  40.3002900 101.5420390   8.7761500  47.2189010  98.0967970   7.4840310
  46.4937200  98.6896750   7.2869700  47.7464470  98.0891510   6.6853680
  40.4411700 103.0978200   5.2312230  41.0853920 103.3037580   5.9085650
  40.8041140 102.3366600   4.7783080  41.7143780 101.1010550   3.9489680
  42.3566010 100.4003710   4.0621850  42.2393130 101.8808990   3.7686570
  43.4881400 101.9005450   7.1525740  43.8237640 102.4872140   7.8303660
  42.5681740 101.7698160   7.3823530  31.0384800  89.6900630   7.9349150
  30.3243320  89.8897550   8.5401760  31.4579840  88.9140200   8.3063950
  31.3257390 103.6780890   8.9215680  31.4348510 102.7375630   8.7811070
  30.6737950 103.9435640   8.2729410  39.3169980 101.9496780  10.3213800
  38.9966850 101.2306020  10.8659490  38.6428340 102.6251850  10.3949860
  42.5323580  92.1822940   5.6850600  42.9004400  91.3618150   6.0130170
  41.6721780  92.2424830   6.1006250  39.4925570  94.8362530   5.9088570
  39.9910820  95.3108350   6.5740420  39.6348520  93.9126050   6.1158600
  46.6992430  91.0530490   6.7516960  46.1966030  91.7935890   7.0910770
  47.5149090  91.4414490   6.4353750  33.4715830 104.7449800  10.7335290
  34.2728560 105.0661850  11.1470690  32.9567650 104.3845380  11.4555200
  42.3080460 100.8529670  10.6810700  41.7018620 100.8761270   9.9406450
  42.0034570 100.1212710  11.2177950  43.7380830 104.5809960   9.2920110
  44.6902580 104.4967980   9.2420350  43.5909050 105.2451670   9.9653900
  31.1913640  97.2323260   9.6771340  31.6952660  96.6530540  10.2487570
  30.4521060  97.5163490  10.2147710  38.2451580  98.6394250   9.2106860
  37.4797250  99.2079250   9.1261530  38.4267540  98.3470460   8.3175090
  45.3874930 100.3699580   9.7681880  46.1284400 100.7075340   9.2649340
  44.6247610 100.5391640   9.2151650  33.2236720  95.3752850  10.5721410
  33.2642060  95.0766720  11.4806640  34.0782220  95.7760460  10.4128930
  35.1642530  93.9544950   8.5395900  34.6338990  93.4635900   7.9119240
  35.8330600  94.3829150   8.0053830  44.0620590  98.4214410   8.3037090
  44.4761610  98.5759490   9.1527510  43.1271590  98.5469630   8.4662870
  44.5342760  95.7610570  10.3076240  45.1163530  95.0062890  10.2196720
  44.7104530  96.2918010   9.5307720  35.6514830  90.9207320   8.6193190
  35.5571700  90.3028070   7.8944060  35.0712220  91.6473610   8.3923100
  38.4176270  89.4780560   5.6520580  37.9693570  89.5004820   4.8066130
  37.7841470  89.0799580   6.2490880  38.8235820  98.3734890   6.2733020
  39.2423930  99.2167620   6.1009260  37.9044450  98.5106930   6.0439800
  41.1599720  96.1051070   7.6570860  41.2795930  95.5092210   8.3965700
  42.0193720  96.1420760   7.2372160  43.4987620  96.6588260   6.2333370
  42.9722840  97.1830880   5.6298510  43.8418960  97.2915650   6.8643100
  36.6743240 104.6787900   7.3890750  36.1364330 105.4033960   7.0699450
  36.9277200 104.2018240   6.5988090  37.9268490  92.6472420   8.9146680
  38.5168180  92.3388270   9.6024500  37.1088730  92.1752170   9.0706580
  42.7461920  92.2638230   9.1479700  42.0577440  91.6019770   9.0829690
  43.4667940  91.8176500   9.5928160  39.5305450 105.9139110   7.6477400
  39.4564150 106.8174250   7.9549770  38.6284290 105.5951010   7.6199470
  31.4222950 104.1084290   3.6892650  30.9853940 104.2885090   4.5216800
  31.9900630 104.8658910   3.5474370  47.0585130 103.6101290   7.9769960
  46.4587120 103.6693850   7.2333880  47.1879030 102.6706270   8.1066810
  45.7436770 100.3353270   6.0746120  44.9296610 100.7650430   6.3371910
  46.1510970 100.9471680   5.4615170  32.2923310  97.0057090   4.5884870
  32.6596350  96.9184490   5.4680890  31.7234130  96.2423640   4.4891730
  47.0927170  95.4741470   7.6015340  46.8613260  95.2454220   6.7013290
  47.3531720  96.3941020   7.5560230  31.8439310  93.9166180   8.4943290
  30.9495360  93.8832940   8.8337000  32.3836860  94.1152970   9.2594540
  45.5315240  90.6997900  10.3795040  46.4085420  90.7081300  10.7629040
  45.5436080  89.9628740   9.7687390  47.1568230  94.6367310   4.7902610
  46.2070940  94.6030850   4.9047600  47.3381240  95.5467420   4.5552380
  32.3479020  88.1914510   2.8426510  32.9955210  87.6411890   2.4021670
  32.7680860  88.4457660   3.6642320  46.2431360  88.3855870   6.1996150
  46.8803580  88.9990010   6.5655340  46.3906250  88.4216530   5.2545380
  32.1011020  88.3470180   5.5851830  31.7525840  88.8034000   6.3510010
  31.7698720  87.4527310   5.6674260  33.7075390 101.5189780   9.7505020
  33.6645020 101.1482690  10.6319480  33.8386400 102.4567350   9.8906840
  37.4081420 103.0749370   5.3514740  37.1672780 103.3423930   4.4645260
  38.3484060 103.2455100   5.4065600  39.6135840  89.5382060   9.1071250
  39.5524730  90.1303890   9.8566660  40.5536220  89.4308020   8.9621510
  42.2510400  89.1952120   8.7463540  42.8650810  89.5131410   8.0844620
  42.7959960  88.7100710   9.3659400  48.6685580 105.0943750   6.1525380
  48.1743860 105.4912620   5.4352510  48.0598870 104.4692960   6.5462660
  32.7731660  87.8746380   8.8602600  33.3214650  87.6934430   8.0968710
  32.8386970  87.0840490   9.3958910  33.5463420 104.4652030   6.8702800
  32.9523740 104.3336730   7.6092840  33.5387260 103.6290170   6.4044900
  42.9918440  87.7584260   5.0732830  42.1178280  88.0919370   4.8705760
  42.8829190  87.2857440   5.8984700  43.8990420  89.9655130   6.4574550
  43.5703780  89.1506890   6.0776280  44.8472720  89.9224940   6.3340240
  46.3525030 105.7367170   3.4312120  45.8928000 106.4882980   3.0570140
  45.7237490 105.0173640   3.3726920  33.1775650 101.8310410   5.8210840
  32.4509710 101.2115700   5.7536790  33.2384800 102.2251020   4.9508920
  36.7820750 104.0455410   2.6060250  37.2985770 103.4342770   2.0808510
  37.4318130 104.5484190   3.0971260  39.5216250 104.9363900   3.4329230
  39.8094060 104.6818200   2.5562240  40.0339470 104.3841260   4.0234800
  40.7393260  88.6754100   4.0125740  39.9565050  89.1499600   4.2922500
  40.4456190  87.7708930   3.9038920  39.5888610 105.8580000  10.7997430
  40.5155920 105.6224270  10.8433390  39.5739040 106.6852000  10.3183460
  36.7752220  88.5224750  10.5639310  36.4936490  89.0258350   9.8000130
  37.1571920  87.7246500  10.1981440  43.3767680  87.9378330  11.1419780
  43.2633130  88.2572940  12.0371300  44.1937420  88.3390840  10.8457060
  46.1566170 105.0849860  10.6238470  46.9491490 104.5899090  10.4164430
  46.4499320 105.7640000  11.2314080  42.2825830  77.1827310 150.4745930
  42.2019880  76.2681920 150.2037640  41.8690250  77.6794380 149.7685640
  44.4351300  83.3666520 151.1354330  43.9732830  82.5953760 151.4641500
  45.2476850  83.3932590 151.6406780  32.8401650  74.2328030 147.0173350
  31.9518350  74.5744000 146.9153230  33.1242840  74.0328350 146.1254180
  40.6614610  85.6524530 150.7558320  40.0426050  86.1082030 150.1852760
  41.5166390  85.8075990 150.3548020  35.0163040  72.8159530 148.0511730
  35.1229790  73.7163260 148.3580490  34.1055400  72.7677500 147.7606380
  44.6682150  71.9384340 149.5222630  45.4891770  71.4480910 149.5648110
  44.7016230  72.5282000 150.2754470  41.5277960  80.5363770 148.1490230
  40.9095230  81.0013220 147.5852950  42.0401210  81.2291250 148.5659740
  30.8961160  81.2220300 145.5229860  30.5189140  81.7107400 144.7914760
  31.1534230  81.8945580 146.1536390  38.5050090  69.6236690 150.9815370
  38.8125070  69.0683580 150.2650870  37.5750790  69.7581150 150.7988360
  45.3510570  82.0620200 148.3613000  45.2406900  81.1194530 148.4862420
  45.3478820  82.4235840 149.2475760  40.8930850  77.6885520 147.7175490
  39.9660130  77.6222900 147.9463960  41.0455670  78.6265650 147.6030730
  40.8799930  73.9602520 144.7142650  39.9403600  74.1216480 144.7995110
  41.1983190  74.6788200 144.1678640  44.9228140  79.2505820 148.2210740
  44.3040560  78.9125370 147.5737040  44.9052590  78.6065580 148.9289930
  36.4987490  78.2150260 150.4995220  36.0944490  77.5027510 150.0041120
  36.5850610  77.8703500 151.3883260  43.0992840  78.4892630 145.2283490
  43.5386120  77.6515060 145.0821310  43.8121260  79.1222030 145.3147630
  41.2088220  83.4288700 149.1964730  41.6484130  84.1713030 148.7820120
  41.1475110  83.6715270 150.1203690  46.6809980  69.7435440 143.5424530
  46.3682640  69.8362270 144.4423600  47.4422450  70.3216470 143.4921960
  33.1992120  77.1095240 148.0001870  33.0789720  77.8357330 147.3883140
  32.8893010  76.3398150 147.5229780  32.0825120  81.9810570 150.2176690
  31.6753200  82.1225160 149.3630290  32.9738130  81.6970730 150.0147900
  43.8758400  86.4157820 146.5527740  43.7159540  86.1260760 147.4509570
  43.7105110  85.6397950 146.0172970  36.3546780  86.1956350 148.3299360
  36.1789260  85.2791890 148.1167160  35.5002520  86.5543640 148.5697160
  43.5784530  83.9245380 145.1125740  42.8849690  83.9222670 144.4528020
  44.3207390  83.5004700 144.6819910  43.1434460  85.5508090 149.1874230
  43.5991410  84.7697470 149.5012850  43.4826980  86.2614910 149.7315410
  35.6655780  70.4530310 151.3825540  35.2223930  71.2339850 151.0510060
  36.2240770  70.7760200 152.0896480  38.7814600  70.0741010 146.2631370
  38.1568780  70.0700880 146.9884680  38.6944720  69.2071970 145.8667340
  35.4570000  75.5763880 149.1106790  35.2310920  75.3601050 150.0153410
  34.6762530  76.0092340 148.7652760  42.6867760  75.5827250 147.7097440
  42.0876650  76.3063050 147.5261060  43.2347370  75.5204030 146.9273890
  41.2932630  74.2190790 149.7400720  41.6862200  74.5362990 148.9269410
  41.6549480  73.3402670 149.8545240  30.5167030  74.7511710 143.1733640
  30.4341700  75.6942470 143.3148630  30.1650090  74.6086620 142.2945990
  38.3165160  73.4850740 152.2403990  38.3201220  73.0440690 151.3908530
  39.2116280  73.8068070 152.3475810  34.1667540  73.3677230 151.1998200
  33.8267590  73.8452460 151.9565250  33.4044860  72.9142350 150.8399300
  38.3785310  74.4862820 145.2310750  38.4998130  74.4449300 146.1796570
  37.9933820  75.3486970 145.0757480  37.3906810  76.7963960 144.6294050
  36.8223710  76.3482210 144.0029960  38.0995810  77.1556740 144.0959200
  31.4813620  72.2896210 150.1162870  31.1960540  71.9251880 150.9541490
  31.4192480  71.5576670 149.5026010  34.9354290  80.7922150 146.9020460
  34.1616550  80.2519770 146.7419180  35.6648920  80.2728760 146.5638220
  41.1552210  71.1825470 146.8376240  40.3416820  70.6838640 146.7621550
  40.9614160  72.0223720 146.4212590  43.8700600  75.5545120 145.1338400
  44.7580220  75.8662350 144.9589740  43.8405690  74.6817370 144.7418980
  34.9791690  80.4602530 150.5399270  35.4970360  79.6570790 150.4856160
  34.5275710  80.3981670 151.3816100  39.8661190  81.7268810 145.8126570
  40.2076890  82.4711040 145.3169890  39.0373900  82.0399930 146.1751400
  46.1414870  76.8656960 144.6018260  46.0578590  77.2971180 143.7514700
  46.8609060  77.3255310 145.0345080  47.1702120  83.7199220 147.3300390
  46.5278280  83.0654840 147.6044110  46.7832780  84.1254310 146.5541060
  42.7488600  81.0484650 151.1772080  43.1012420  80.4512780 150.5173450
  41.8650930  80.7228880 151.3480330  38.8351880  81.8082340 148.5842490
  39.5223010  82.3551550 148.9650080  38.0484300  82.3523070 148.6192100
  30.9744280  77.4255160 144.0759570  31.8439130  77.7079960 144.3595490
  30.4834600  78.2391030 143.9608380  38.1379090  78.8128370 148.1967850
  38.5941870  79.6233620 148.4228040  37.7867300  78.4951510 149.0286340
  34.0390870  69.1566020 148.6690370  33.9105500  69.1483920 149.6175290
  33.2152890  69.4949110 148.3181380  45.5599500  82.6115680 143.8676740
  45.3337080  81.8946120 144.4601380  45.1695700  82.3628120 143.0298490
  31.3415530  86.6382540 144.6421200  31.7013170  87.2371880 143.9878470
  31.2007870  87.1842430 145.4156230  45.1415750  80.5287620 145.5290900
  44.8537450  80.9900310 146.3168780  45.9367920  80.0685390 145.7975120
  37.3584150  84.0213740 145.4594870  37.3494250  84.7543430 144.8439380
  36.4382510  83.7745320 145.5521830  32.9590790  79.2428630 146.2041630
  32.3518740  79.9827530 146.2136930  33.4340140  79.3327990 145.3779830
  45.8985610  72.3636390 146.6886080  45.2698770  72.4682060 145.9744310
  45.4037530  72.5833170 147.4779960  40.3443750  84.0841980 144.1220060
  40.4455730  83.8805970 143.1922040  39.4445490  83.8300260 144.3267840
  37.8669640  74.6422340 148.1043960  37.1585790  75.1108680 148.5457570
  38.1514120  73.9844350 148.7389150  41.8985070  71.3673000 149.5439750
  41.7752850  71.3859130 148.5949260  42.8469630  71.4151940 149.6638150
  38.9861860  86.6028300 148.8167730  39.2403360  86.5649690 147.8947100
  38.0374340  86.4761630 148.8095980  36.0704660  72.9507420 145.4794670
  36.9195190  73.3877570 145.4134860  35.7035930  73.2627680 146.3066730
  44.9914440  77.5220180 150.3926240  44.0504580  77.5370410 150.5673930
  45.3058510  76.7356140 150.8386540  34.9696080  79.2039780 143.9530200
  35.7359350  79.0921140 144.5155630  35.0470770  78.5077750 143.3006970
  33.6642840  76.6364850 144.6363090  33.7446430  75.6892360 144.7480490
  34.5562590  76.9671730 144.7423750  34.4657550  86.7860240 151.7397630
  35.2020030  86.2375700 152.0106200  34.8498470  87.6516250 151.6003620
  31.3503030  82.8533810 147.6139140  30.4242810  83.0954950 147.6044550
  31.8159460  83.6808070 147.4923890  37.5759860  85.9590550 143.5623200
  38.3688470  86.2479380 143.1104990  37.0564210  85.5282720 142.8835680
  46.6290030  85.1860680 144.9859940  46.3431540  84.7725820 144.1714120
  46.4309580  86.1148390 144.8660460  38.0937260  81.1793960 143.4265550
  37.9887900  80.5646310 144.1526930  37.9261480  80.6559850 142.6428560
  41.3339990  80.2413990 144.0307540  40.7850090  80.6883290 144.6750280
  41.9559250  79.7363240 144.5545210  37.0015110  79.2004910 145.9272840
  37.4231530  79.0344780 146.7704230  37.1265950  78.3905140 145.4327980
  39.5142750  78.2242520 143.1749940  40.0348410  77.5091540 142.8091090
  40.1611150  78.8628390 143.4750450  35.8974010  75.2738140 142.8731000
  35.6963070  74.4105500 143.2344340  35.7266060  75.1871500 141.9352600
  43.3762320  70.0846370 145.4017880  43.6564610  69.2414270 145.7577300
  42.6028050  70.3169480 145.9156630  34.6956810  72.3738760 142.8608880
  34.9982710  72.3806190 141.9528030  35.4351400  72.0236620 143.3576540
  37.9141740  71.3173380 143.8465080  37.5663740  70.6397370 143.2667530
  38.1154510  70.8562890 144.6608470  40.0790780  86.3054130 145.4651680
  40.9741570  86.6439100 145.4870440  40.1108410  85.5833540 144.8375960
  33.7186940  81.6781180 143.6938680  34.1561810  82.2210850 144.3496260
  34.2034670  80.8528130 143.7035020  30.9332740  84.4670210 151.1458940
  31.2635750  83.5991270 150.9137580  31.3623740  84.6728730 151.9763900
  35.5294660  82.7979220 148.8060910  35.2290200  82.6744190 149.7064820
  35.4232150  81.9387810 148.3976640  48.2986580  82.5775620 143.5087590
  47.4679540  82.6452270 143.9794820  48.4758410  83.4679740 143.2054450
  47.7543040  79.3223100 146.0121790  48.5161950  79.8919750 146.1181480
  47.7697410  78.7550300 146.7830100  31.2547380  77.8461030 150.2429450
  30.5996220  77.5772670 149.5989150  32.0925330  77.7365510 149.7931430
  48.7603010  80.1773200 150.8563720  49.1311840  79.3940520 150.4499690
  49.4004940  80.8662300 150.6781020  47.8062210  79.6157470 143.1694310
  48.0811050  80.5236350 143.0413530  47.6172950  79.5520000 144.1056300
  44.2037820  72.6402320 144.4647940  44.6222700  72.4533300 143.6244600
  43.8973880  71.7881370 144.7750870  47.7027550  77.5526460 148.1623740
  47.3271150  76.7854390 147.7305030  46.9730670  77.9349160 148.6498670
  30.4685460  75.0559960 146.1854780  29.5649540  75.3190160 146.0106440
  30.9526080  75.3271130 145.4054740  46.9778510  75.7783950 151.4630980
  47.5015990  75.2846600 150.8321150  47.5637930  75.9134310 152.2078550
  33.0112670  74.1125500 144.0949160  33.7204370  73.6908720 143.6096440
  32.2952610  74.1800730 143.4632510  32.6586830  70.1664830 143.1351810
  33.3814960  70.7073770 143.4533030  32.9311350  69.8928250 142.2593350
  46.4678480  75.0357300 147.4023390  46.9637600  74.8028170 148.1872270
  46.2694550  74.1969140 146.9861030  47.8965640  73.6718250 149.9361070
  47.7864920  73.5174290 150.8743340  48.6573230  73.1439190 149.6936480
  48.7855910  71.5026170 143.1767210  49.7105220  71.3707350 142.9685500
  48.7631700  71.5818990 144.1303660  48.8594400  72.2736830 145.8023920
  48.0645900  72.2081950 146.3316830  49.0637680  73.2087470 145.7909270
  45.8012820  86.3128380 149.7962310  46.3971890  85.9912950 149.1196730
  46.0590970  85.8400200 150.5875580  45.2914330  70.6033710 152.2522750
  45.7322420  70.5478810 151.4044350  45.0221920  71.5191720 152.3232930
  47.1552900  70.2348950 150.2631570  47.0941300  69.2910170 150.1162590
  47.9344930  70.3429040 150.8085030  31.4605650  86.3741310 149.2255520
  31.2927690  85.7411990 149.9237410  30.5940160  86.5800710 148.8749710
  32.0833670  70.2058090 146.7287380  32.8413030  70.3186970 146.1551410
  31.6210840  71.0427290 146.6830810  38.6247480  72.3197360 149.7189690
  37.8121990  71.9454250 149.3785570  39.1289120  71.5642440 150.0210880
  43.1272460  68.9839810 150.9572760  43.7301830  69.5560020 151.4321280
  42.3865450  69.5479250 150.7346660  46.2707060  69.3861370 146.2313040
  46.4657690  70.2844820 146.4980470  45.4836930  69.1548450 146.7245990
  33.0668350  85.0674540 146.6705660  32.5415970  85.4482570 145.9667620
  32.9912930  85.6925310 147.3915370  34.4558820  70.7322140 145.2689350
  34.9851580  69.9451940 145.1397300  35.0887140  71.4113330 145.5024880
  36.6496660  70.4697280 148.3234740  36.0199400  69.7684590 148.4904870
  36.1101800  71.2301410 148.1067900  47.8233670  86.6262080 147.9919600
  47.9985860  85.9399820 147.3480520  47.1255240  87.1509130 147.5996270
  35.6661320  87.0156920 145.5454910  36.3980140  86.7316200 144.9978800
  35.9254990  86.7770200 146.4354290  34.8276110  83.1321650 145.5501240
  34.1984990  83.6006750 146.0987070  34.9423940  82.2870870 145.9847430
  42.2825830  77.1827310 131.7002440  42.2019880  76.2681920 131.4294150
  41.8690250  77.6794380 130.9942150  40.4143870  78.9606330 133.5811710
  39.6385970  78.4806770 133.8710280  41.0656800  78.2811980 133.4067870
  34.4309700  79.2726140 134.4587470  33.5994580  79.0174850 134.8583980
  35.0390680  79.3436910 135.1945390  44.4351300  83.3666520 132.3610840
  43.9732830  82.5953760 132.6898010  45.2476850  83.3932590 132.8663290
  34.4110960  83.3066230 134.6545490  34.7139000  82.4163970 134.4755710
  35.1554550  83.8636450 134.4267740  32.8401650  74.2328030 128.2429860
  31.9518350  74.5744000 128.1409740  33.1242840  74.0328350 127.3510690
  30.8034660  76.8333680 134.1269560  31.3750770  76.0655880 134.1273200
  30.8036200  77.1322440 133.2176170  40.6614610  85.6524530 131.9814830
  40.0426050  86.1082030 131.4109270  41.5166390  85.8075990 131.5804530
  39.8552860  81.6363520 133.5881870  39.7861140  80.6953460 133.4271000
  40.6172720  81.7264930 134.1604440  32.0459530  72.2418040 135.9138490
  31.8662370  71.3443790 136.1941250  31.6439610  72.7889910 136.5885440
  40.8858030  74.4433900 133.8150800  41.2622850  73.5705780 133.7024470
  40.7877540  74.7792600 132.9241240  35.0163040  72.8159530 129.2768240
  35.1229790  73.7163260 129.5837000  34.1055400  72.7677500 128.9862890
  32.6646200  74.7378540 134.5220830  33.3456310  75.0016910 135.1408230
  32.3494250  73.8979410 134.8558840  36.8570770  75.7845900 133.6093420
  37.3648990  76.2826870 134.2498440  37.3884010  75.0081100 133.4332780
  48.9581700  73.9551090 137.3122770  48.2533870  74.3432800 136.7937880
  49.2239620  74.6501380 137.9143700  35.1406870  70.4244460 137.8756840
  35.1425310  70.9416850 137.0702740  34.3111180  69.9474640 137.8526770
  41.5277960  80.5363770 129.3746740  40.9095230  81.0013220 128.8109460
  42.0401210  81.2291250 129.7916250  36.3909720  80.0639640 136.0530340
  36.0579100  80.6908560 136.6951410  36.5676400  80.5901520 135.2732010
  34.8222200  72.1354420 135.8827290  35.1639010  72.9796470 135.5881160
  33.8838010  72.2838160 135.9992630  35.6028820  82.0320440 137.8679520
  36.2202820  82.7071520 137.5863970  34.7421940  82.4408420 137.7767020
  30.8961160  81.2220300 126.7486370  30.5189140  81.7107400 126.0171270
  31.1534230  81.8945580 127.3792900  46.5206410  83.4959850 135.7834160
  45.8369930  84.1658960 135.7750830  47.0600700  83.6940500 135.0179020
  38.5050090  69.6236690 132.2071880  38.8125070  69.0683580 131.4907380
  37.5750790  69.7581150 132.0244870  44.0565150  85.3403980 134.4979340
  44.0692310  84.9366270 133.6301600  43.5040370  86.1151270 134.3940770
  45.3510570  82.0620200 129.5869510  45.2406900  81.1194530 129.7118930
  45.3478820  82.4235840 130.4732270  43.4550590  80.2433820 135.8261950
  43.8719380  80.0293930 134.9915410  44.1790410  80.5006610 136.3970570
  47.4012690  78.6421040 135.9178190  46.5731320  78.7114130 135.4428320
  47.9963170  79.2275350 135.4494020  44.9228140  79.2505820 129.4467250
  44.3040560  78.9125370 128.7993550  44.9052590  78.6065580 130.1546440
  44.3654700  75.4290360 136.8633060  43.9525880  76.2544070 137.1173050
  43.6330650  74.8435400 136.6709420  36.4987490  78.2150260 131.7251730
  36.0944490  77.5027510 131.2297630  36.5850610  77.8703500 132.6139770
  36.9669190  81.9017820 133.8890940  36.6697480  81.2963290 133.2098720
  37.9169010  81.9395130 133.7780300  35.2116110  74.9893470 135.5050770
  35.7630700  75.0988810 134.7304020  35.7259620  75.3631070 136.2206000
  45.0554800  85.4749690 137.5514040  44.5785360  86.2821880 137.3586650
  44.3716590  84.8228020 137.7040250  36.0587620  81.6399510 140.5398740
  35.1616150  81.8639480 140.7872140  36.0840490  81.7634450 139.5910140
  34.8858840  78.5112830 139.1156110  34.7466610  79.3835630 139.4843510
  34.0040200  78.1685640 138.9704050  41.2088220  83.4288700 130.4221240
  41.6484130  84.1713030 130.0076630  41.1475110  83.6715270 131.3460200
  36.6839190  84.4534530 141.3241260  36.6554620  84.8577480 140.4569690
  36.5204160  83.5244890 141.1612860  46.6809980  69.7435440 124.7681040
  46.3682640  69.8362270 125.6680110  47.4422450  70.3216470 124.7178470
  33.1992120  77.1095240 129.2258380  33.0789720  77.8357330 128.6139650
  32.8893010  76.3398150 128.7486290  48.6354010  85.2361630 142.6205430
  49.1113730  85.7144520 143.2994510  49.2561170  85.1679120 141.8950930
  30.8377490  80.2810380 135.0327020  30.9157910  80.4159150 134.0882740
  31.4519170  79.5726270 135.2255140  32.0825120  81.9810570 131.4433200
  31.6753200  82.1225160 130.5886800  32.9738130  81.6970730 131.2404410
  48.0387260  82.4274480 139.7805440  48.1650320  82.1886360 138.8622620
  48.0808640  81.5959020 140.2527520  41.9004000  86.1302480 138.3500250
  42.4148670  86.0410490 139.1522680  41.0573080  86.4762180 138.6428160
  43.8758400  86.4157820 127.7784250  43.7159540  86.1260760 128.6766080
  43.7105110  85.6397950 127.2429480  36.3546780  86.1956350 129.5555870
  36.1789260  85.2791890 129.3423670  35.5002520  86.5543640 129.7953670
  43.5784530  83.9245380 126.3382250  42.8849690  83.9222670 125.6784530
  44.3207390  83.5004700 125.9076420  43.1434460  85.5508090 130.4130740
  43.5991410  84.7697470 130.7269360  43.4826980  86.2614910 130.9571920
  47.8911270  74.4806940 140.7455180  47.2755540  74.9886610 140.2170640
  47.5707690  73.5805270 140.6881120  30.8937010  81.3224550 137.5721480
  31.0568050  80.8529910 136.7540850  31.3589460  80.8148110 138.2370320
  35.6655780  70.4530310 132.6082050  35.2223930  71.2339850 132.2766570
  36.2240770  70.7760200 133.3152990  39.9525590  73.3198830 138.2117370
  39.4904960  73.5281850 139.0237310  39.5503700  72.5058180 137.9088040
  44.9530100  74.5407780 139.3414030  44.1023690  74.2413530 139.6623100
  44.7931890  74.7849790 138.4297850  42.0479810  76.0409530 141.4412820
  42.3733220  75.2073280 141.1015050  42.8360140  76.5638050 141.5891150
  37.7031680  70.9977640 134.4671650  38.0004010  71.9040470 134.3863670
  38.2517240  70.5096420 133.8531220  35.4570000  75.5763880 130.3363300
  35.2310920  75.3601050 131.2409920  34.6762530  76.0092340 129.9909270
  37.8969210  76.4749460 141.0023570  37.8012810  75.5344190 140.8523970
  38.7401190  76.6964530 140.6071640  41.2932630  74.2190790 130.9657230
  41.6862200  74.5362990 130.1525920  41.6549480  73.3402670 131.0801750
  33.0279750  72.8863130 139.1557350  32.6343140  73.7338340 139.3630130
  32.3398150  72.2489500 139.3465990  39.6024800  72.9698100 142.2254090
  38.9123120  72.7770300 142.8600180  40.3457100  73.2532740 142.7578390
  30.3296800  70.8091590 133.1887430  30.0409850  71.3794450 133.9012410
  31.0742560  70.3296040 133.5518660  30.5167030  74.7511710 124.3990150
  30.4341700  75.6942470 124.5405140  30.1650090  74.6086620 123.5202500
  41.8787770  76.8096540 135.0608010  41.1468890  77.3183350 135.4098110
  41.4812110  75.9926520 134.7596790  38.3165160  73.4850740 133.4660500
  38.3201220  73.0440690 132.6165040  39.2116280  73.8068070 133.5732320
  34.1667540  73.3677230 132.4254710  33.8267590  73.8452460 133.1821760
  33.4044860  72.9142350 132.0655810  38.3785310  74.4862820 126.4567260
  38.4998130  74.4449300 127.4053080  37.9933820  75.3486970 126.3013990
  42.3413680  72.2630220 134.4730950  42.3586420  72.7138870 135.3172800
  42.0929260  71.3635860 134.6864390  37.3906810  76.7963960 125.8550560
  36.8223710  76.3482210 125.2286470  38.0995810  77.1556740 125.3215710
  45.7684430  69.6762400 140.3117330  46.0930200  68.9452060 140.8375310
  45.8040940  69.3576040 139.4098320  32.4675990  80.6975980 139.7317290
  32.0830780  80.0569650 140.3300250  32.7788180  81.4012100 140.3012020
  38.6173130  77.5452520 135.2125910  38.9843260  77.0711090 135.9587250
  38.4278190  78.4194090 135.5534250  31.4813620  72.2896210 131.3419380
  31.1960540  71.9251880 132.1798000  31.4192480  71.5576670 130.7282520
  36.4072500  76.5861160 137.5310120  36.1029570  77.4653140 137.7560480
  37.3618960  76.6460950 137.5667560  34.9354290  80.7922150 128.1276970
  34.1616550  80.2519770 127.9675690  35.6648920  80.2728760 127.7894730
  45.6942270  79.7887510 133.9203360  46.4141390  80.2842800 133.5299470
  45.4924090  79.1105400 133.2757230  41.0761070  79.8596570 139.8072360
  41.0098380  78.9392240 139.5529950  40.4466210  79.9572010 140.5217000
  34.9791690  80.4602530 131.7655780  35.4970360  79.6570790 131.7112670
  34.5275710  80.3981670 132.6072610  39.8661190  81.7268810 127.0383080
  40.2076890  82.4711040 126.5426400  39.0373900  82.0399930 127.4007910
  32.4636230  77.4263900 138.6781480  32.1051170  78.0917750 139.2654820
  32.1690790  76.5947450 139.0494100  35.6649350  77.8848140 141.5621030
  35.3649490  78.0305320 140.6648850  36.4360590  77.3253430 141.4694420
  41.0077800  82.6817140 139.5576160  41.0222340  81.7498100 139.3395070
  40.3002900  82.7676900 140.1965930  47.2189010  79.3224480 138.9044740
  46.4937200  79.9153260 138.7074130  47.7464470  79.3148020 138.1058110
  47.1702120  83.7199220 128.5556900  46.5278280  83.0654840 128.8300620
  46.7832780  84.1254310 127.7797570  42.7488600  81.0484650 132.4028590
  43.1012420  80.4512780 131.7429960  41.8650930  80.7228880 132.5736840
  38.8351880  81.8082340 129.8099000  39.5223010  82.3551550 130.1906590
  38.0484300  82.3523070 129.8448610  30.9744280  77.4255160 125.3016080
  31.8439130  77.7079960 125.5852000  30.4834600  78.2391030 125.1864890
  38.1379090  78.8128370 129.4224360  38.5941870  79.6233620 129.6484550
  37.7867300  78.4951510 130.2542850  40.4411700  84.3234710 136.6516660
  41.0853920  84.5294090 137.3290080  40.8041140  83.5623110 136.1987510
  34.0390870  69.1566020 129.8946880  33.9105500  69.1483920 130.8431800
  33.2152890  69.4949110 129.5437890  41.7143780  82.3267060 135.3694110
  42.3566010  81.6260220 135.4826280  42.2393130  83.1065500 135.1891000
  45.5599500  82.6115680 125.0933250  45.3337080  81.8946120 125.6857890
  45.1695700  82.3628120 124.2555000  43.4881400  83.1261960 138.5730170
  43.8237640  83.7128650 139.2508090  42.5681740  82.9954670 138.8027960
  31.3415530  86.6382540 125.8677710  31.7013170  87.2371880 125.2134980
  31.2007870  87.1842430 126.6412740  31.0384800  70.9157140 139.3553580
  30.3243320  71.1154060 139.9606190  31.4579840  70.1396710 139.7268380
  45.1415750  80.5287620 126.7547410  44.8537450  80.9900310 127.5425290
  45.9367920  80.0685390 127.0231630  31.3257390  84.9037400 140.3420110
  31.4348510  83.9632140 140.2015500  30.6737950  85.1692150 139.6933840
  39.3169980  83.1753290 141.7418230  38.9966850  82.4562530 142.2863920
  38.6428340  83.8508360 141.8154290  37.3584150  84.0213740 126.6851380
  37.3494250  84.7543430 126.0695890  36.4382510  83.7745320 126.7778340
  32.9590790  79.2428630 127.4298140  32.3518740  79.9827530 127.4393440
  33.4340140  79.3327990 126.6036340  42.5323580  73.4079450 137.1055030
  42.9004400  72.5874660 137.4334600  41.6721780  73.4681340 137.5210680
  40.3443750  84.0841980 125.3476570  40.4455730  83.8805970 124.4178550
  39.4445490  83.8300260 125.5524350  37.8669640  74.6422340 129.3300470
  37.1585790  75.1108680 129.7714080  38.1514120  73.9844350 129.9645660
  39.4925570  76.0619040 137.3293000  39.9910820  76.5364860 137.9944850
  39.6348520  75.1382560 137.5363030  41.8985070  71.3673000 130.7696260
  41.7752850  71.3859130 129.8205770  42.8469630  71.4151940 130.8894660
  38.9861860  86.6028300 130.0424240  39.2403360  86.5649690 129.1203610
  38.0374340  86.4761630 130.0352490  36.0704660  72.9507420 126.7051180
  36.9195190  73.3877570 126.6391370  35.7035930  73.2627680 127.5323240
  46.6992430  72.2787000 138.1721390  46.1966030  73.0192400 138.5115200
  47.5149090  72.6671000 137.8558180  34.9696080  79.2039780 125.1786710
  35.7359350  79.0921140 125.7412140  35.0470770  78.5077750 124.5263480
  33.6642840  76.6364850 125.8619600  33.7446430  75.6892360 125.9737000
  34.5562590  76.9671730 125.9680260  34.4657550  86.7860240 132.9654140
  35.2020030  86.2375700 133.2362710  34.8498470  87.6516250 132.8260130
  31.3503030  82.8533810 128.8395650  30.4242810  83.0954950 128.8301060
  31.8159460  83.6808070 128.7180400  33.4715830  85.9706310 142.1539720
  34.2728560  86.2918360 142.5675120  32.9567650  85.6101890 142.8759630
  37.5759860  85.9590550 124.7879710  38.3688470  86.2479380 124.3361500
  37.0564210  85.5282720 124.1092190  42.3080460  82.0786180 142.1015130
  41.7018620  82.1017780 141.3610880  42.0034570  81.3469220 142.6382380
  43.7380830  85.8066470 140.7124540  44.6902580  85.7224490 140.6624780
  43.5909050  86.4708180 141.3858330  46.6290030  85.1860680 126.2116450
  46.3431540  84.7725820 125.3970630  46.4309580  86.1148390 126.0916970
  31.1913640  78.4579770 141.0975770  31.6952660  77.8787050 141.6692000
  30.4521060  78.7420000 141.6352140  38.0937260  81.1793960 124.6522060
  37.9887900  80.5646310 125.3783440  37.9261480  80.6559850 123.8685070
  38.2451580  79.8650760 140.6311290  37.4797250  80.4335760 140.5465960
  38.4267540  79.5726970 139.7379520  41.3339990  80.2413990 125.2564050
  40.7850090  80.6883290 125.9006790  41.9559250  79.7363240 125.7801720
  45.3874930  81.5956090 141.1886310  46.1284400  81.9331850 140.6853770
  44.6247610  81.7648150 140.6356080  33.2236720  76.6009360 141.9925840
  33.2642060  76.3023230 142.9011070  34.0782220  77.0016970 141.8333360
  37.0015110  79.2004910 127.1529350  37.4231530  79.0344780 127.9960740
  37.1265950  78.3905140 126.6584490  35.1642530  75.1801460 139.9600330
  34.6338990  74.6892410 139.3323670  35.8330600  75.6085660 139.4258260
  44.0620590  79.6470920 139.7241520  44.4761610  79.8016000 140.5731940
  43.1271590  79.7726140 139.8867300  44.5342760  76.9867080 141.7280670
  45.1163530  76.2319400 141.6401150  44.7104530  77.5174520 140.9512150
  35.6514830  72.1463830 140.0397620  35.5571700  71.5284580 139.3148490
  35.0712220  72.8730120 139.8127530  38.4176270  70.7037070 137.0725010
  37.9693570  70.7261330 136.2270560  37.7841470  70.3056090 137.6695310
  38.8235820  79.5991400 137.6937450  39.2423930  80.4424130 137.5213690
  37.9044450  79.7363440 137.4644230  41.1599720  77.3307580 139.0775290
  41.2795930  76.7348720 139.8170130  42.0193720  77.3677270 138.6576590
  43.4987620  77.8844770 137.6537800  42.9722840  78.4087390 137.0502940
  43.8418960  78.5172160 138.2847530  36.6743240  85.9044410 138.8095180
  36.1364330  86.6290470 138.4903880  36.9277200  85.4274750 138.0192520
  37.9268490  73.8728930 140.3351110  38.5168180  73.5644780 141.0228930
  37.1088730  73.4008680 140.4911010  42.7461920  73.4894740 140.5684130
  42.0577440  72.8276280 140.5034120  43.4667940  73.0433010 141.0132590
  34.6956810  72.3738760 124.0865390  34.9982710  72.3806190 123.1784540
  35.4351400  72.0236620 124.5833050  39.5305450  87.1395620 139.0681830
  39.4564150  88.0430760 139.3754200  38.6284290  86.8207520 139.0403900
  40.0790780  86.3054130 126.6908190  40.9741570  86.6439100 126.7126950
  40.1108410  85.5833540 126.0632470  33.7186940  81.6781180 124.9195190
  34.1561810  82.2210850 125.5752770  34.2034670  80.8528130 124.9291530
  30.9332740  84.4670210 132.3715450  31.2635750  83.5991270 132.1394090
  31.3623740  84.6728730 133.2020410  35.5294660  82.7979220 130.0317420
  35.2290200  82.6744190 130.9321330  35.4232150  81.9387810 129.6233150
  31.4222950  85.3340800 135.1097080  30.9853940  85.5141600 135.9421230
  31.9900630  86.0915420 134.9678800  47.0585130  84.8357800 139.3974390
  46.4587120  84.8950360 138.6538310  47.1879030  83.8962780 139.5271240
  48.2986580  82.5775620 124.7344100  47.4679540  82.6452270 125.2051330
  48.4758410  83.4679740 124.4310960  31.2547380  77.8461030 131.4685960
  30.5996220  77.5772670 130.8245660  32.0925330  77.7365510 131.0187940
  48.7603010  80.1773200 132.0820230  49.1311840  79.3940520 131.6756200
  49.4004940  80.8662300 131.9037530  45.7436770  81.5609780 137.4950550
  44.9296610  81.9906940 137.7576340  46.1510970  82.1728190 136.8819600
  32.2923310  78.2313600 136.0089300  32.6596350  78.1441000 136.8885320
  31.7234130  77.4680150 135.9096160  47.0927170  76.6997980 139.0219770
  46.8613260  76.4710730 138.1217720  47.3531720  77.6197530 138.9764660
  31.8439310  75.1422690 139.9147720  30.9495360  75.1089450 140.2541430
  32.3836860  75.3409480 140.6798970  45.5315240  71.9254410 141.7999470
  46.4085420  71.9337810 142.1833470  45.5436080  71.1885250 141.1891820
  30.4685460  75.0559960 127.4111290  29.5649540  75.3190160 127.2362950
  30.9526080  75.3271130 126.6311250  47.1568230  75.8623820 136.2107040
  46.2070940  75.8287360 136.3252030  47.3381240  76.7723930 135.9756810
  33.0112670  74.1125500 125.3205670  33.7204370  73.6908720 124.8352950
  32.2952610  74.1800730 124.6889020  32.6586830  70.1664830 124.3608320
  33.3814960  70.7073770 124.6789540  32.9311350  69.8928250 123.4849860
  32.3479020  69.4171020 134.2630940  32.9955210  68.8668400 133.8226100
  32.7680860  69.6714170 135.0846750  46.2431360  69.6112380 137.6200580
  46.8803580  70.2246520 137.9859770  46.3906250  69.6473040 136.6749810
  48.7855910  71.5026170 124.4023720  49.7105220  71.3707350 124.1942010
  48.7631700  71.5818990 125.3560170  45.8012820  86.3128380 131.0218820
  46.3971890  85.9912950 130.3453240  46.0590970  85.8400200 131.8132090
  32.1011020  69.5726690 137.0056260  31.7525840  70.0290510 137.7714440
  31.7698720  68.6783820 137.0878690  33.7075390  82.7446290 141.1709450
  33.6645020  82.3739200 142.0523910  33.8386400  83.6823860 141.3111270
  37.4081420  84.3005880 136.7719170  37.1672780  84.5680440 135.8849690
  38.3484060  84.4711610 136.8270030  39.6135840  70.7638570 140.5275680
  39.5524730  71.3560400 141.2771090  40.5536220  70.6564530 140.3825940
  42.2510400  70.4208630 140.1667970  42.8650810  70.7387920 139.5049050
  42.7959960  69.9357220 140.7863830  48.6685580  86.3200260 137.5729810
  48.1743860  86.7169130 136.8556940  48.0598870  85.6949470 137.9667090
  32.7731660  69.1002890 140.2807030  33.3214650  68.9190940 139.5173140
  32.8386970  68.3097000 140.8163340  33.5463420  85.6908540 138.2907230
  32.9523740  85.5593240 139.0297270  33.5387260  84.8546680 137.8249330
  42.9918440  68.9840770 136.4937260  42.1178280  69.3175880 136.2910190
  42.8829190  68.5113950 137.3189130  43.8990420  71.1911640 137.8778980
  43.5703780  70.3763400 137.4980710  44.8472720  71.1481450 137.7544670
  46.3525030  86.9623680 134.8516550  45.8928000  87.7139490 134.4774570
  45.7237490  86.2430150 134.7931350  33.1775650  83.0566920 137.2415270
  32.4509710  82.4372210 137.1741220  33.2384800  83.4507530 136.3713350
  36.7820750  85.2711920 134.0264680  37.2985770  84.6599280 133.5012940
  37.4318130  85.7740700 134.5175690  39.5216250  86.1620410 134.8533660
  39.8094060  85.9074710 133.9766670  40.0339470  85.6097770 135.4439230
  40.7393260  69.9010610 135.4330170  39.9565050  70.3756110 135.7126930
  40.4456190  68.9965440 135.3243350  45.2914330  70.6033710 133.4779260
  45.7322420  70.5478810 132.6300860  45.0221920  71.5191720 133.5489440
  31.4605650  86.3741310 130.4512030  31.2927690  85.7411990 131.1493920
  30.5940160  86.5800710 130.1006220  32.0833670  70.2058090 127.9543890
  32.8413030  70.3186970 127.3807920  31.6210840  71.0427290 127.9087320
  38.6247480  72.3197360 130.9446200  37.8121990  71.9454250 130.6042080
  39.1289120  71.5642440 131.2467390  43.1272460  68.9839810 132.1829270
  43.7301830  69.5560020 132.6577790  42.3865450  69.5479250 131.9603170
  33.0668350  85.0674540 127.8962170  32.5415970  85.4482570 127.1924130
  32.9912930  85.6925310 128.6171880  34.4558820  70.7322140 126.4945860
  34.9851580  69.9451940 126.3653810  35.0887140  71.4113330 126.7281390
  36.6496660  70.4697280 129.5491250  36.0199400  69.7684590 129.7161380
  36.1101800  71.2301410 129.3324410  39.5888610  87.0836510 142.2201860
  40.5155920  86.8480780 142.2637820  39.5739040  87.9108510 141.7387890
  36.7752220  69.7481260 141.9843740  36.4936490  70.2514860 141.2204560
  37.1571920  68.9503010 141.6185870  35.6661320  87.0156920 126.7711420
  36.3980140  86.7316200 126.2235310  35.9254990  86.7770200 127.6610800
  34.8276110  83.1321650 126.7757750  34.1984990  83.6006750 127.3243580
  34.9423940  82.2870870 127.2103940  43.3767680  69.1634840 142.5624210
  43.2633130  69.4829450 143.4575730  44.1937420  69.5647350 142.2661490
  46.1566170  86.3106370 142.0442900  46.9491490  85.8155600 141.8368860
  46.4499320  86.9896510 142.6518510  42.2825830  77.1827310 112.9258950
  42.2019880  76.2681920 112.6550660  41.8690250  77.6794380 112.2198660
  40.4143870  78.9606330 114.8068220  39.6385970  78.4806770 115.0966790
  41.0656800  78.2811980 114.6324380  34.4309700  79.2726140 115.6843980
  33.5994580  79.0174850 116.0840490  35.0390680  79.3436910 116.4201900
  44.4351300  83.3666520 113.5867350  43.9732830  82.5953760 113.9154520
  45.2476850  83.3932590 114.0919800  34.4110960  83.3066230 115.8802000
  34.7139000  82.4163970 115.7012220  35.1554550  83.8636450 115.6524250
  30.8034660  76.8333680 115.3526070  31.3750770  76.0655880 115.3529710
  30.8036200  77.1322440 114.4432680  40.6614610  85.6524530 113.2071340
  40.0426050  86.1082030 112.6365780  41.5166390  85.8075990 112.8061040
  39.8552860  81.6363520 114.8138380  39.7861140  80.6953460 114.6527510
  40.6172720  81.7264930 115.3860950  35.0163040  72.8159530 110.5024750
  35.1229790  73.7163260 110.8093510  34.1055400  72.7677500 110.2119400
  44.6682150  71.9384340 111.9735650  45.4891770  71.4480910 112.0161130
  44.7016230  72.5282000 112.7267490  32.6646200  74.7378540 115.7477340
  33.3456310  75.0016910 116.3664740  32.3494250  73.8979410 116.0815350
  36.8570770  75.7845900 114.8349930  37.3648990  76.2826870 115.4754950
  37.3884010  75.0081100 114.6589290  48.9581700  73.9551090 118.5379280
  48.2533870  74.3432800 118.0194390  49.2239620  74.6501380 119.1400210
  35.1406870  70.4244460 119.1013350  35.1425310  70.9416850 118.2959250
  34.3111180  69.9474640 119.0783280  36.3909720  80.0639640 117.2786850
  36.0579100  80.6908560 117.9207920  36.5676400  80.5901520 116.4988520
  44.9043630  73.8784720 114.7463190  44.1999200  74.1669610 115.3266300
  45.2655790  74.6884830 114.3862750  34.8222200  72.1354420 117.1083800
  35.1639010  72.9796470 116.8137670  33.8838010  72.2838160 117.2249140
  35.6028820  82.0320440 119.0936030  36.2202820  82.7071520 118.8120480
  34.7421940  82.4408420 119.0023530  30.8961160  81.2220300 107.9742880
  30.5189140  81.7107400 107.2427780  31.1534230  81.8945580 108.6049410
  47.9730550  73.3239510 115.1372400  47.0255460  73.3578490 115.2687830
  48.2980540  74.1378460 115.5221760  38.5050090  69.6236690 113.4328390
  38.8125070  69.0683580 112.7163890  37.5750790  69.7581150 113.2501380
  45.3510570  82.0620200 110.8126020  45.2406900  81.1194530 110.9375440
  45.3478820  82.4235840 111.6988780  43.4550590  80.2433820 117.0518460
  43.8719380  80.0293930 116.2171920  44.1790410  80.5006610 117.6227080
  40.8799930  73.9602520 107.1655670  39.9403600  74.1216480 107.2508130
  41.1983190  74.6788200 106.6191660  47.4012690  78.6421040 117.1434700
  46.5731320  78.7114130 116.6684830  47.9963170  79.2275350 116.6750530
  44.9228140  79.2505820 110.6723760  44.3040560  78.9125370 110.0250060
  44.9052590  78.6065580 111.3802950  44.3654700  75.4290360 118.0889570
  43.9525880  76.2544070 118.3429560  43.6330650  74.8435400 117.8965930
  36.4987490  78.2150260 112.9508240  36.0944490  77.5027510 112.4554140
  36.5850610  77.8703500 113.8396280  36.9669190  81.9017820 115.1147450
  36.6697480  81.2963290 114.4355230  37.9169010  81.9395130 115.0036810
  36.0587620  81.6399510 121.7655250  35.1616150  81.8639480 122.0128650
  36.0840490  81.7634450 120.8166650  41.2088220  83.4288700 111.6477750
  41.6484130  84.1713030 111.2333140  41.1475110  83.6715270 112.5716710
  36.6839190  84.4534530 122.5497770  36.6554620  84.8577480 121.6826200
  36.5204160  83.5244890 122.3869370  46.6809980  69.7435440 105.9937550
  46.3682640  69.8362270 106.8936620  47.4422450  70.3216470 105.9434980
  33.1992120  77.1095240 110.4514890  33.0789720  77.8357330 109.8396160
  32.8893010  76.3398150 109.9742800  48.6354010  85.2361630 123.8461940
  49.1113730  85.7144520 124.5251020  49.2561170  85.1679120 123.1207440
  30.8377490  80.2810380 116.2583530  30.9157910  80.4159150 115.3139250
  31.4519170  79.5726270 116.4511650  32.0825120  81.9810570 112.6689710
  31.6753200  82.1225160 111.8143310  32.9738130  81.6970730 112.4660920
  43.8758400  86.4157820 109.0040760  43.7159540  86.1260760 109.9022590
  43.7105110  85.6397950 108.4685990  36.3546780  86.1956350 110.7812380
  36.1789260  85.2791890 110.5680180  35.5002520  86.5543640 111.0210180
  43.5784530  83.9245380 107.5638760  42.8849690  83.9222670 106.9041040
  44.3207390  83.5004700 107.1332930  43.1434460  85.5508090 111.6387250
  43.5991410  84.7697470 111.9525870  43.4826980  86.2614910 112.1828430
  30.8937010  81.3224550 118.7977990  31.0568050  80.8529910 117.9797360
  31.3589460  80.8148110 119.4626830  35.6655780  70.4530310 113.8338560
  35.2223930  71.2339850 113.5023080  36.2240770  70.7760200 114.5409500
  38.7814600  70.0741010 108.7144390  38.1568780  70.0700880 109.4397700
  38.6944720  69.2071970 108.3180360  37.7031680  70.9977640 115.6928160
  38.0004010  71.9040470 115.6120180  38.2517240  70.5096420 115.0787730
  35.4570000  75.5763880 111.5619810  35.2310920  75.3601050 112.4666430
  34.6762530  76.0092340 111.2165780  42.6867760  75.5827250 110.1610460
  42.0876650  76.3063050 109.9774080  43.2347370  75.5204030 109.3786910
  41.2932630  74.2190790 112.1913740  41.6862200  74.5362990 111.3782430
  41.6549480  73.3402670 112.3058260  33.0279750  72.8863130 120.3813860
  32.6343140  73.7338340 120.5886640  32.3398150  72.2489500 120.5722500
  30.5167030  74.7511710 105.6246660  30.4341700  75.6942470 105.7661650
  30.1650090  74.6086620 104.7459010  38.3165160  73.4850740 114.6917010
  38.3201220  73.0440690 113.8421550  39.2116280  73.8068070 114.7988830
  34.1667540  73.3677230 113.6511220  33.8267590  73.8452460 114.4078270
  33.4044860  72.9142350 113.2912320  42.3413680  72.2630220 115.6987460
  42.3586420  72.7138870 116.5429310  42.0929260  71.3635860 115.9120900
  45.7684430  69.6762400 121.5373840  46.0930200  68.9452060 122.0631820
  45.8040940  69.3576040 120.6354830  32.4675990  80.6975980 120.9573800
  32.0830780  80.0569650 121.5556760  32.7788180  81.4012100 121.5268530
  31.4813620  72.2896210 112.5675890  31.1960540  71.9251880 113.4054510
  31.4192480  71.5576670 111.9539030  45.6942270  79.7887510 115.1459870
  46.4141390  80.2842800 114.7555980  45.4924090  79.1105400 114.5013740
  41.1552210  71.1825470 109.2889260  40.3416820  70.6838640 109.2134570
  40.9614160  72.0223720 108.8725610  34.9791690  80.4602530 112.9912290
  35.4970360  79.6570790 112.9369180  34.5275710  80.3981670 113.8329120
  32.4636230  77.4263900 119.9037990  32.1051170  78.0917750 120.4911330
  32.1690790  76.5947450 120.2750610  41.0077800  82.6817140 120.7832670
  41.0222340  81.7498100 120.5651580  40.3002900  82.7676900 121.4222440
  47.1702120  83.7199220 109.7813410  46.5278280  83.0654840 110.0557130
  46.7832780  84.1254310 109.0054080  42.7488600  81.0484650 113.6285100
  43.1012420  80.4512780 112.9686470  41.8650930  80.7228880 113.7993350
  30.9744280  77.4255160 106.5272590  31.8439130  77.7079960 106.8108510
  30.4834600  78.2391030 106.4121400  40.4411700  84.3234710 117.8773170
  41.0853920  84.5294090 118.5546590  40.8041140  83.5623110 117.4244020
  34.0390870  69.1566020 111.1203390  33.9105500  69.1483920 112.0688310
  33.2152890  69.4949110 110.7694400  45.5599500  82.6115680 106.3189760
  45.3337080  81.8946120 106.9114400  45.1695700  82.3628120 105.4811510
  31.3415530  86.6382540 107.0934220  31.7013170  87.2371880 106.4391490
  31.2007870  87.1842430 107.8669250  31.0384800  70.9157140 120.5810090
  30.3243320  71.1154060 121.1862700  31.4579840  70.1396710 120.9524890
  45.1415750  80.5287620 107.9803920  44.8537450  80.9900310 108.7681800
  45.9367920  80.0685390 108.2488140  31.3257390  84.9037400 121.5676620
  31.4348510  83.9632140 121.4272010  30.6737950  85.1692150 120.9190350
  39.3169980  83.1753290 122.9674740  38.9966850  82.4562530 123.5120430
  38.6428340  83.8508360 123.0410800  37.3584150  84.0213740 107.9107890
  37.3494250  84.7543430 107.2952400  36.4382510  83.7745320 108.0034850
  40.3443750  84.0841980 106.5733080  40.4455730  83.8805970 105.6435060
  39.4445490  83.8300260 106.7780860  37.8669640  74.6422340 110.5556980
  37.1585790  75.1108680 110.9970590  38.1514120  73.9844350 111.1902170
  41.8985070  71.3673000 111.9952770  41.7752850  71.3859130 111.0462280
  42.8469630  71.4151940 112.1151170  38.9861860  86.6028300 111.2680750
  39.2403360  86.5649690 110.3460120  38.0374340  86.4761630 111.2609000
  36.0704660  72.9507420 107.9307690  36.9195190  73.3877570 107.8647880
  35.7035930  73.2627680 108.7579750  46.6992430  72.2787000 119.3977900
  46.1966030  73.0192400 119.7371710  47.5149090  72.6671000 119.0814690
  44.9914440  77.5220180 112.8439260  44.0504580  77.5370410 113.0186950
  45.3058510  76.7356140 113.2899560  34.4657550  86.7860240 114.1910650
  35.2020030  86.2375700 114.4619220  34.8498470  87.6516250 114.0516640
  31.3503030  82.8533810 110.0652160  30.4242810  83.0954950 110.0557570
  31.8159460  83.6808070 109.9436910  33.4715830  85.9706310 123.3796230
  34.2728560  86.2918360 123.7931630  32.9567650  85.6101890 124.1016140
  37.5759860  85.9590550 106.0136220  38.3688470  86.2479380 105.5618010
  37.0564210  85.5282720 105.3348700  42.3080460  82.0786180 123.3271640
  41.7018620  82.1017780 122.5867390  42.0034570  81.3469220 123.8638890
  46.6290030  85.1860680 107.4372960  46.3431540  84.7725820 106.6227140
  46.4309580  86.1148390 107.3173480  31.1913640  78.4579770 122.3232280
  31.6952660  77.8787050 122.8948510  30.4521060  78.7420000 122.8608650
  33.2236720  76.6009360 123.2182350  33.2642060  76.3023230 124.1267580
  34.0782220  77.0016970 123.0589870  36.6743240  85.9044410 120.0351690
  36.1364330  86.6290470 119.7160390  36.9277200  85.4274750 119.2449030
  43.3762320  70.0846370 107.8530900  43.6564610  69.2414270 108.2090320
  42.6028050  70.3169480 108.3669650  34.6956810  72.3738760 105.3121900
  34.9982710  72.3806190 104.4041050  35.4351400  72.0236620 105.8089560
  39.5305450  87.1395620 120.2938340  39.4564150  88.0430760 120.6010710
  38.6284290  86.8207520 120.2660410  37.9141740  71.3173380 106.2978100
  37.5663740  70.6397370 105.7180550  38.1154510  70.8562890 107.1121490
  40.0790780  86.3054130 107.9164700  40.9741570  86.6439100 107.9383460
  40.1108410  85.5833540 107.2888980  33.7186940  81.6781180 106.1451700
  34.1561810  82.2210850 106.8009280  34.2034670  80.8528130 106.1548040
  30.9332740  84.4670210 113.5971960  31.2635750  83.5991270 113.3650600
  31.3623740  84.6728730 114.4276920  35.5294660  82.7979220 111.2573930
  35.2290200  82.6744190 112.1577840  35.4232150  81.9387810 110.8489660
  31.4222950  85.3340800 116.3353590  30.9853940  85.5141600 117.1677740
  31.9900630  86.0915420 116.1935310  48.2986580  82.5775620 105.9600610
  47.4679540  82.6452270 106.4307840  48.4758410  83.4679740 105.6567470
  48.7603010  80.1773200 113.3076740  49.1311840  79.3940520 112.9012710
  49.4004940  80.8662300 113.1294040  47.8062210  79.6157470 105.6207330
  48.0811050  80.5236350 105.4926550  47.6172950  79.5520000 106.5569320
  32.2923310  78.2313600 117.2345810  32.6596350  78.1441000 118.1141830
  31.7234130  77.4680150 117.1352670  31.8439310  75.1422690 121.1404230
  30.9495360  75.1089450 121.4797940  32.3836860  75.3409480 121.9055480
  47.1568230  75.8623820 117.4363550  46.2070940  75.8287360 117.5508540
  47.3381240  76.7723930 117.2013320  33.0112670  74.1125500 106.5462180
  33.7204370  73.6908720 106.0609460  32.2952610  74.1800730 105.9145530
  46.2431360  69.6112380 118.8457090  46.8803580  70.2246520 119.2116280
  46.3906250  69.6473040 117.9006320  45.8012820  86.3128380 112.2475330
  46.3971890  85.9912950 111.5709750  46.0590970  85.8400200 113.0388600
  33.7075390  82.7446290 122.3965960  33.6645020  82.3739200 123.2780420
  33.8386400  83.6823860 122.5367780  37.4081420  84.3005880 117.9975680
  37.1672780  84.5680440 117.1106200  38.3484060  84.4711610 118.0526540
  39.6135840  70.7638570 121.7532190  39.5524730  71.3560400 122.5027600
  40.5536220  70.6564530 121.6082450  42.2510400  70.4208630 121.3924480
  42.8650810  70.7387920 120.7305560  42.7959960  69.9357220 122.0120340
  32.7731660  69.1002890 121.5063540  33.3214650  68.9190940 120.7429650
  32.8386970  68.3097000 122.0419850  33.5463420  85.6908540 119.5163740
  32.9523740  85.5593240 120.2553780  33.5387260  84.8546680 119.0505840
  42.9918440  68.9840770 117.7193770  42.1178280  69.3175880 117.5166700
  42.8829190  68.5113950 118.5445640  43.8990420  71.1911640 119.1035490
  43.5703780  70.3763400 118.7237220  44.8472720  71.1481450 118.9801180
  33.1775650  83.0566920 118.4671780  32.4509710  82.4372210 118.3997730
  33.2384800  83.4507530 117.5969860  36.7820750  85.2711920 115.2521190
  37.2985770  84.6599280 114.7269450  37.4318130  85.7740700 115.7432200
  39.5216250  86.1620410 116.0790170  39.8094060  85.9074710 115.2023180
  40.0339470  85.6097770 116.6695740  40.7393260  69.9010610 116.6586680
  39.9565050  70.3756110 116.9383440  40.4456190  68.9965440 116.5499860
  45.2914330  70.6033710 114.7035770  45.7322420  70.5478810 113.8557370
  45.0221920  71.5191720 114.7745950  47.1552900  70.2348950 112.7144590
  47.0941300  69.2910170 112.5675610  47.9344930  70.3429040 113.2598050
  31.4605650  86.3741310 111.6768540  31.2927690  85.7411990 112.3750430
  30.5940160  86.5800710 111.3262730  32.0833670  70.2058090 109.1800400
  32.8413030  70.3186970 108.6064430  31.6210840  71.0427290 109.1343830
  38.6247480  72.3197360 112.1702710  37.8121990  71.9454250 111.8298590
  39.1289120  71.5642440 112.4723900  43.1272460  68.9839810 113.4085780
  43.7301830  69.5560020 113.8834300  42.3865450  69.5479250 113.1859680
  33.0668350  85.0674540 109.1218680  32.5415970  85.4482570 108.4180640
  32.9912930  85.6925310 109.8428390  34.4558820  70.7322140 107.7202370
  34.9851580  69.9451940 107.5910320  35.0887140  71.4113330 107.9537900
  36.6496660  70.4697280 110.7747760  36.0199400  69.7684590 110.9417890
  36.1101800  71.2301410 110.5580920  39.5888610  87.0836510 123.4458370
  40.5155920  86.8480780 123.4894330  39.5739040  87.9108510 122.9644400
  47.8233670  86.6262080 110.4432620  47.9985860  85.9399820 109.7993540
  47.1255240  87.1509130 110.0509290  36.7752220  69.7481260 123.2100250
  36.4936490  70.2514860 122.4461070  37.1571920  68.9503010 122.8442380
  35.6661320  87.0156920 107.9967930  36.3980140  86.7316200 107.4491820
  35.9254990  86.7770200 108.8867310  34.8276110  83.1321650 108.0014260
  34.1984990  83.6006750 108.5500090  34.9423940  82.2870870 108.4360450
  40.4143870  78.9606330  96.0324730  39.6385970  78.4806770  96.3223300
  41.0656800  78.2811980  95.8580890  34.4309700  79.2726140  96.9100490
  33.5994580  79.0174850  97.3097000  35.0390680  79.3436910  97.6458410
  44.4351300  83.3666520  94.8123860  43.9732830  82.5953760  95.1411030
  45.2476850  83.3932590  95.3176310  34.4110960  83.3066230  97.1058510
  34.7139000  82.4163970  96.9268730  35.1554550  83.8636450  96.8780760
  30.8034660  76.8333680  96.5782580  31.3750770  76.0655880  96.5786220
  30.8036200  77.1322440  95.6689190  40.6614610  85.6524530  94.4327850
  40.0426050  86.1082030  93.8622290  41.5166390  85.8075990  94.0317550
  39.8552860  81.6363520  96.0394890  39.7861140  80.6953460  95.8784020
  40.6172720  81.7264930  96.6117460  44.6682150  71.9384340  93.1992160
  45.4891770  71.4480910  93.2417640  44.7016230  72.5282000  93.9524000
  36.8570770  75.7845900  96.0606440  37.3648990  76.2826870  96.7011460
  37.3884010  75.0081100  95.8845800  48.9581700  73.9551090  99.7635790
  48.2533870  74.3432800  99.2450900  49.2239620  74.6501380 100.3656720
  36.3909720  80.0639640  98.5043360  36.0579100  80.6908560  99.1464430
  36.5676400  80.5901520  97.7245030  35.6028820  82.0320440 100.3192540
  36.2202820  82.7071520 100.0376990  34.7421940  82.4408420 100.2280040
  30.8961160  81.2220300  89.1999390  30.5189140  81.7107400  88.4684290
  31.1534230  81.8945580  89.8305920  46.5206410  83.4959850  98.2347180
  45.8369930  84.1658960  98.2263850  47.0600700  83.6940500  97.4692040
  47.9730550  73.3239510  96.3628910  47.0255460  73.3578490  96.4944340
  48.2980540  74.1378460  96.7478270  44.0565150  85.3403980  96.9492360
  44.0692310  84.9366270  96.0814620  43.5040370  86.1151270  96.8453790
  43.4550590  80.2433820  98.2774970  43.8719380  80.0293930  97.4428430
  44.1790410  80.5006610  98.8483590  40.8799930  73.9602520  88.3912180
  39.9403600  74.1216480  88.4764640  41.1983190  74.6788200  87.8448170
  47.4012690  78.6421040  98.3691210  46.5731320  78.7114130  97.8941340
  47.9963170  79.2275350  97.9007040  44.3654700  75.4290360  99.3146080
  43.9525880  76.2544070  99.5686070  43.6330650  74.8435400  99.1222440
  36.9669190  81.9017820  96.3403960  36.6697480  81.2963290  95.6611740
  37.9169010  81.9395130  96.2293320  35.2116110  74.9893470  97.9563790
  35.7630700  75.0988810  97.1817040  35.7259620  75.3631070  98.6719020
  45.0554800  85.4749690 100.0027060  44.5785360  86.2821880  99.8099670
  44.3716590  84.8228020 100.1553270  36.0587620  81.6399510 102.9911760
  35.1616150  81.8639480 103.2385160  36.0840490  81.7634450 102.0423160
  34.8858840  78.5112830 101.5669130  34.7466610  79.3835630 101.9356530
  34.0040200  78.1685640 101.4217070  36.6839190  84.4534530 103.7754280
  36.6554620  84.8577480 102.9082710  36.5204160  83.5244890 103.6125880
  48.6354010  85.2361630 105.0718450  49.1113730  85.7144520 105.7507530
  49.2561170  85.1679120 104.3463950  48.0387260  82.4274480 102.2318460
  48.1650320  82.1886360 101.3135640  48.0808640  81.5959020 102.7040540
  41.9004000  86.1302480 100.8013270  42.4148670  86.0410490 101.6035700
  41.0573080  86.4762180 101.0941180  36.3546780  86.1956350  92.0068890
  36.1789260  85.2791890  91.7936690  35.5002520  86.5543640  92.2466690
  47.8911270  74.4806940 103.1968200  47.2755540  74.9886610 102.6683660
  47.5707690  73.5805270 103.1394140  44.9530100  74.5407780 101.7927050
  44.1023690  74.2413530 102.1136120  44.7931890  74.7849790 100.8810870
  42.0479810  76.0409530 103.8925840  42.3733220  75.2073280 103.5528070
  42.8360140  76.5638050 104.0404170  38.7814600  70.0741010  89.9400900
  38.1568780  70.0700880  90.6654210  38.6944720  69.2071970  89.5436870
  33.0279750  72.8863130 101.6070370  32.6343140  73.7338340 101.8143150
  32.3398150  72.2489500 101.7979010  39.6024800  72.9698100 104.6767110
  38.9123120  72.7770300 105.3113200  40.3457100  73.2532740 105.2091410
  30.5167030  74.7511710  86.8503170  30.4341700  75.6942470  86.9918160
  30.1650090  74.6086620  85.9715520  41.8787770  76.8096540  97.5121030
  41.1468890  77.3183350  97.8611130  41.4812110  75.9926520  97.2109810
  38.3785310  74.4862820  88.9080280  38.4998130  74.4449300  89.8566100
  37.9933820  75.3486970  88.7527010  37.3906810  76.7963960  88.3063580
  36.8223710  76.3482210  87.6799490  38.0995810  77.1556740  87.7728730
  32.4675990  80.6975980 102.1830310  32.0830780  80.0569650 102.7813270
  32.7788180  81.4012100 102.7525040  38.6173130  77.5452520  97.6638930
  38.9843260  77.0711090  98.4100270  38.4278190  78.4194090  98.0047270
  36.4072500  76.5861160  99.9823140  36.1029570  77.4653140 100.2073500
  37.3618960  76.6460950 100.0180580  34.9354290  80.7922150  90.5789990
  34.1616550  80.2519770  90.4188710  35.6648920  80.2728760  90.2407750
  45.6942270  79.7887510  96.3716380  46.4141390  80.2842800  95.9812490
  45.4924090  79.1105400  95.7270250  41.1552210  71.1825470  90.5145770
  40.3416820  70.6838640  90.4391080  40.9614160  72.0223720  90.0982120
  41.0761070  79.8596570 102.2585380  41.0098380  78.9392240 102.0042970
  40.4466210  79.9572010 102.9730020  34.9791690  80.4602530  94.2168800
  35.4970360  79.6570790  94.1625690  34.5275710  80.3981670  95.0585630
  32.4636230  77.4263900 101.1294500  32.1051170  78.0917750 101.7167840
  32.1690790  76.5947450 101.5007120  41.0077800  82.6817140 102.0089180
  41.0222340  81.7498100 101.7908090  40.3002900  82.7676900 102.6478950
  46.1414870  76.8656960  88.2787790  46.0578590  77.2971180  87.4284230
  46.8609060  77.3255310  88.7114610  47.2189010  79.3224480 101.3557760
  46.4937200  79.9153260 101.1587150  47.7464470  79.3148020 100.5571130
  40.4411700  84.3234710  99.1029680  41.0853920  84.5294090  99.7803100
  40.8041140  83.5623110  98.6500530  41.7143780  82.3267060  97.8207130
  42.3566010  81.6260220  97.9339300  42.2393130  83.1065500  97.6404020
  43.4881400  83.1261960 101.0243190  43.8237640  83.7128650 101.7021110
  42.5681740  82.9954670 101.2540980  31.3415530  86.6382540  88.3190730
  31.7013170  87.2371880  87.6648000  31.2007870  87.1842430  89.0925760
  31.3257390  84.9037400 102.7933130  31.4348510  83.9632140 102.6528520
  30.6737950  85.1692150 102.1446860  39.3169980  83.1753290 104.1931250
  38.9966850  82.4562530 104.7376940  38.6428340  83.8508360 104.2667310
  39.4925570  76.0619040  99.7806020  39.9910820  76.5364860 100.4457870
  39.6348520  75.1382560  99.9876050  38.9861860  86.6028300  92.4937260
  39.2403360  86.5649690  91.5716630  38.0374340  86.4761630  92.4865510
  46.6992430  72.2787000 100.6234410  46.1966030  73.0192400 100.9628220
  47.5149090  72.6671000 100.3071200  44.9914440  77.5220180  94.0695770
  44.0504580  77.5370410  94.2443460  45.3058510  76.7356140  94.5156070
  34.9696080  79.2039780  87.6299730  35.7359350  79.0921140  88.1925160
  35.0470770  78.5077750  86.9776500  46.9940020  84.6929030  95.7450030
  47.1187440  85.5160200  96.2173840  47.8605580  84.4819760  95.3974180
  34.4657550  86.7860240  95.4167160  35.2020030  86.2375700  95.6875730
  34.8498470  87.6516250  95.2773150  31.3503030  82.8533810  91.2908670
  30.4242810  83.0954950  91.2814080  31.8159460  83.6808070  91.1693420
  33.4715830  85.9706310 104.6052740  34.2728560  86.2918360 105.0188140
  32.9567650  85.6101890 105.3272650  37.5759860  85.9590550  87.2392730
  38.3688470  86.2479380  86.7874520  37.0564210  85.5282720  86.5605210
  42.3080460  82.0786180 104.5528150  41.7018620  82.1017780 103.8123900
  42.0034570  81.3469220 105.0895400  43.7380830  85.8066470 103.1637560
  44.6902580  85.7224490 103.1137800  43.5909050  86.4708180 103.8371350
  31.1913640  78.4579770 103.5488790  31.6952660  77.8787050 104.1205020
  30.4521060  78.7420000 104.0865160  38.2451580  79.8650760 103.0824310
  37.4797250  80.4335760 102.9978980  38.4267540  79.5726970 102.1892540
  45.3874930  81.5956090 103.6399330  46.1284400  81.9331850 103.1366790
  44.6247610  81.7648150 103.0869100  33.2236720  76.6009360 104.4438860
  33.2642060  76.3023230 105.3524090  34.0782220  77.0016970 104.2846380
  35.1642530  75.1801460 102.4113350  34.6338990  74.6892410 101.7836690
  35.8330600  75.6085660 101.8771280  44.0620590  79.6470920 102.1754540
  44.4761610  79.8016000 103.0244960  43.1271590  79.7726140 102.3380320
  44.5342760  76.9867080 104.1793690  45.1163530  76.2319400 104.0914170
  44.7104530  77.5174520 103.4025170  38.8235820  79.5991400 100.1450470
  39.2423930  80.4424130  99.9726710  37.9044450  79.7363440  99.9157250
  41.1599720  77.3307580 101.5288310  41.2795930  76.7348720 102.2683150
  42.0193720  77.3677270 101.1089610  43.4987620  77.8844770 100.1050820
  42.9722840  78.4087390  99.5015960  43.8418960  78.5172160 100.7360550
  36.6743240  85.9044410 101.2608200  36.1364330  86.6290470 100.9416900
  36.9277200  85.4274750 100.4705540  37.9268490  73.8728930 102.7864130
  38.5168180  73.5644780 103.4741950  37.1088730  73.4008680 102.9424030
  42.7461920  73.4894740 103.0197150  42.0577440  72.8276280 102.9547140
  43.4667940  73.0433010 103.4645610  39.5305450  87.1395620 101.5194850
  39.4564150  88.0430760 101.8267220  38.6284290  86.8207520 101.4916920
  37.9141740  71.3173380  87.5234610  37.5663740  70.6397370  86.9437060
  38.1154510  70.8562890  88.3378000  40.0790780  86.3054130  89.1421210
  40.9741570  86.6439100  89.1639970  40.1108410  85.5833540  88.5145490
  33.7186940  81.6781180  87.3708210  34.1561810  82.2210850  88.0265790
  34.2034670  80.8528130  87.3804550  35.5294660  82.7979220  92.4830440
  35.2290200  82.6744190  93.3834350  35.4232150  81.9387810  92.0746170
  47.0585130  84.8357800 101.8487410  46.4587120  84.8950360 101.1051330
  47.1879030  83.8962780 101.9784260  47.7543040  79.3223100  89.6891320
  48.5161950  79.8919750  89.7951010  47.7697410  78.7550300  90.4599630
  48.7603010  80.1773200  94.5333250  49.1311840  79.3940520  94.1269220
  49.4004940  80.8662300  94.3550550  45.7436770  81.5609780  99.9463570
  44.9296610  81.9906940 100.2089360  46.1510970  82.1728190  99.3332620
  47.8062210  79.6157470  86.8463840  48.0811050  80.5236350  86.7183060
  47.6172950  79.5520000  87.7825830  47.7027550  77.5526460  91.8393270
  47.3271150  76.7854390  91.4074560  46.9730670  77.9349160  92.3268200
  32.2923310  78.2313600  98.4602320  32.6596350  78.1441000  99.3398340
  31.7234130  77.4680150  98.3609180  47.0927170  76.6997980 101.4732790
  46.8613260  76.4710730 100.5730740  47.3531720  77.6197530 101.4277680
  31.8439310  75.1422690 102.3660740  30.9495360  75.1089450 102.7054450
  32.3836860  75.3409480 103.1311990  45.5315240  71.9254410 104.2512490
  46.4085420  71.9337810 104.6346490  45.5436080  71.1885250 103.6404840
  46.9778510  75.7783950  95.1400510  47.5015990  75.2846600  94.5090680
  47.5637930  75.9134310  95.8848080  47.1568230  75.8623820  98.6620060
  46.2070940  75.8287360  98.7765050  47.3381240  76.7723930  98.4269830
  46.4678480  75.0357300  91.0792920  46.9637600  74.8028170  91.8641800
  46.2694550  74.1969140  90.6630560  47.8965640  73.6718250  93.6130600
  47.7864920  73.5174290  94.5512870  48.6573230  73.1439190  93.3706010
  33.7075390  82.7446290 103.6222470  33.6645020  82.3739200 104.5036930
  33.8386400  83.6823860 103.7624290  37.4081420  84.3005880  99.2232190
  37.1672780  84.5680440  98.3362710  38.3484060  84.4711610  99.2783050
  39.6135840  70.7638570 102.9788700  39.5524730  71.3560400 103.7284110
  40.5536220  70.6564530 102.8338960  42.2510400  70.4208630 102.6180990
  42.8650810  70.7387920 101.9562070  42.7959960  69.9357220 103.2376850
  48.6685580  86.3200260 100.0242830  48.1743860  86.7169130  99.3069960
  48.0598870  85.6949470 100.4180110  33.5463420  85.6908540 100.7420250
  32.9523740  85.5593240 101.4810290  33.5387260  84.8546680 100.2762350
  46.3525030  86.9623680  97.3029570  45.8928000  87.7139490  96.9287590
  45.7237490  86.2430150  97.2444370  33.1775650  83.0566920  99.6928290
  32.4509710  82.4372210  99.6254240  33.2384800  83.4507530  98.8226370
  36.7820750  85.2711920  96.4777700  37.2985770  84.6599280  95.9525960
  37.4318130  85.7740700  96.9688710  39.5216250  86.1620410  97.3046680
  39.8094060  85.9074710  96.4279690  40.0339470  85.6097770  97.8952250
  47.1552900  70.2348950  93.9401100  47.0941300  69.2910170  93.7932120
  47.9344930  70.3429040  94.4854560  31.4605650  86.3741310  92.9025050
  31.2927690  85.7411990  93.6006940  30.5940160  86.5800710  92.5519240
  33.0668350  85.0674540  90.3475190  32.5415970  85.4482570  89.6437150
  32.9912930  85.6925310  91.0684900  39.5888610  87.0836510 104.6714880
  40.5155920  86.8480780 104.7150840  39.5739040  87.9108510 104.1900910
  36.7752220  69.7481260 104.4356760  36.4936490  70.2514860 103.6717580
  37.1571920  68.9503010 104.0698890  35.6661320  87.0156920  89.2224440
  36.3980140  86.7316200  88.6748330  35.9254990  86.7770200  90.1123820
  34.8276110  83.1321650  89.2270770  34.1984990  83.6006750  89.7756600
  34.9423940  82.2870870  89.6616960  46.1566170  86.3106370 104.4955920
  46.9491490  85.8155600 104.2881880  46.4499320  86.9896510 105.1031530
  42.2825830  77.1827310  75.3771970  42.2019880  76.2681920  75.1063680
  41.8690250  77.6794380  74.6711680  44.4351300  83.3666520  76.0380370
  43.9732830  82.5953760  76.3667540  45.2476850  83.3932590  76.5432820
  34.4110960  83.3066230  78.3315020  34.7139000  82.4163970  78.1525240
  35.1554550  83.8636450  78.1037270  39.8552860  81.6363520  77.2651400
  39.7861140  80.6953460  77.1040530  40.6172720  81.7264930  77.8373970
  32.0459530  72.2418040  79.5908020  31.8662370  71.3443790  79.8710780
  31.6439610  72.7889910  80.2654970  48.9581700  73.9551090  80.9892300
  48.2533870  74.3432800  80.4707410  49.2239620  74.6501380  81.5913230
  35.1406870  70.4244460  81.5526370  35.1425310  70.9416850  80.7472270
  34.3111180  69.9474640  81.5296300  41.5277960  80.5363770  73.0516270
  40.9095230  81.0013220  72.4878990  42.0401210  81.2291250  73.4685780
  44.9043630  73.8784720  77.1976210  44.1999200  74.1669610  77.7779320
  45.2655790  74.6884830  76.8375770  30.8961160  81.2220300  70.4255900
  30.5189140  81.7107400  69.6940800  31.1534230  81.8945580  71.0562430
  46.5206410  83.4959850  79.4603690  45.8369930  84.1658960  79.4520360
  47.0600700  83.6940500  78.6948550  38.5050090  69.6236690  75.8841410
  38.8125070  69.0683580  75.1676910  37.5750790  69.7581150  75.7014400
  45.3510570  82.0620200  73.2639040  45.2406900  81.1194530  73.3888460
  45.3478820  82.4235840  74.1501800  43.4550590  80.2433820  79.5031480
  43.8719380  80.0293930  78.6684940  44.1790410  80.5006610  80.0740100
  40.8930850  77.6885520  72.6201530  39.9660130  77.6222900  72.8490000
  41.0455670  78.6265650  72.5056770  40.8799930  73.9602520  69.6168690
  39.9403600  74.1216480  69.7021150  41.1983190  74.6788200  69.0704680
  47.4012690  78.6421040  79.5947720  46.5731320  78.7114130  79.1197850
  47.9963170  79.2275350  79.1263550  44.9228140  79.2505820  73.1236780
  44.3040560  78.9125370  72.4763080  44.9052590  78.6065580  73.8315970
  44.3654700  75.4290360  80.5402590  43.9525880  76.2544070  80.7942580
  43.6330650  74.8435400  80.3478950  45.0554800  85.4749690  81.2283570
  44.5785360  86.2821880  81.0356180  44.3716590  84.8228020  81.3809780
  43.0992840  78.4892630  70.1309530  43.5386120  77.6515060  69.9847350
  43.8121260  79.1222030  70.2173670  36.6839190  84.4534530  85.0010790
  36.6554620  84.8577480  84.1339220  36.5204160  83.5244890  84.8382390
  48.0387260  82.4274480  83.4574970  48.1650320  82.1886360  82.5392150
  48.0808640  81.5959020  83.9297050  43.8758400  86.4157820  71.4553780
  43.7159540  86.1260760  72.3535610  43.7105110  85.6397950  70.9199010
  47.8911270  74.4806940  84.4224710  47.2755540  74.9886610  83.8940170
  47.5707690  73.5805270  84.3650650  35.6655780  70.4530310  76.2851580
  35.2223930  71.2339850  75.9536100  36.2240770  70.7760200  76.9922520
  44.9530100  74.5407780  83.0183560  44.1023690  74.2413530  83.3392630
  44.7931890  74.7849790  82.1067380  42.0479810  76.0409530  85.1182350
  42.3733220  75.2073280  84.7784580  42.8360140  76.5638050  85.2660680
  41.2932630  74.2190790  74.6426760  41.6862200  74.5362990  73.8295450
  41.6549480  73.3402670  74.7571280  39.6024800  72.9698100  85.9023620
  38.9123120  72.7770300  86.5369710  40.3457100  73.2532740  86.4347920
  30.3296800  70.8091590  76.8656960  30.0409850  71.3794450  77.5781940
  31.0742560  70.3296040  77.2288190  38.3785310  74.4862820  70.1336790
  38.4998130  74.4449300  71.0822610  37.9933820  75.3486970  69.9783520
  37.3906810  76.7963960  69.5320090  36.8223710  76.3482210  68.9056000
  38.0995810  77.1556740  68.9985240  34.9354290  80.7922150  71.8046500
  34.1616550  80.2519770  71.6445220  35.6648920  80.2728760  71.4664260
  45.6942270  79.7887510  77.5972890  46.4141390  80.2842800  77.2069000
  45.4924090  79.1105400  76.9526760  41.1552210  71.1825470  71.7402280
  40.3416820  70.6838640  71.6647590  40.9614160  72.0223720  71.3238630
  41.0761070  79.8596570  83.4841890  41.0098380  78.9392240  83.2299480
  40.4466210  79.9572010  84.1986530  34.9791690  80.4602530  75.4425310
  35.4970360  79.6570790  75.3882200  34.5275710  80.3981670  76.2842140
  41.0077800  82.6817140  83.2345690  41.0222340  81.7498100  83.0164600
  40.3002900  82.7676900  83.8735460  47.2189010  79.3224480  82.5814270
  46.4937200  79.9153260  82.3843660  47.7464470  79.3148020  81.7827640
  47.1702120  83.7199220  72.2326430  46.5278280  83.0654840  72.5070150
  46.7832780  84.1254310  71.4567100  42.7488600  81.0484650  76.0798120
  43.1012420  80.4512780  75.4199490  41.8650930  80.7228880  76.2506370
  38.1379090  78.8128370  73.0993890  38.5941870  79.6233620  73.3254080
  37.7867300  78.4951510  73.9312380  40.4411700  84.3234710  80.3286190
  41.0853920  84.5294090  81.0059610  40.8041140  83.5623110  79.8757040
  34.0390870  69.1566020  73.5716410  33.9105500  69.1483920  74.5201330
  33.2152890  69.4949110  73.2207420  41.7143780  82.3267060  79.0463640
  42.3566010  81.6260220  79.1595810  42.2393130  83.1065500  78.8660530
  45.5599500  82.6115680  68.7702780  45.3337080  81.8946120  69.3627420
  45.1695700  82.3628120  67.9324530  43.4881400  83.1261960  82.2499700
  43.8237640  83.7128650  82.9277620  42.5681740  82.9954670  82.4797490
  45.1415750  80.5287620  70.4316940  44.8537450  80.9900310  71.2194820
  45.9367920  80.0685390  70.7001160  31.3257390  84.9037400  84.0189640
  31.4348510  83.9632140  83.8785030  30.6737950  85.1692150  83.3703370
  39.3169980  83.1753290  85.4187760  38.9966850  82.4562530  85.9633450
  38.6428340  83.8508360  85.4923820  42.5323580  73.4079450  80.7824560
  42.9004400  72.5874660  81.1104130  41.6721780  73.4681340  81.1980210
  41.8985070  71.3673000  74.4465790  41.7752850  71.3859130  73.4975300
  42.8469630  71.4151940  74.5664190  44.9914440  77.5220180  75.2952280
  44.0504580  77.5370410  75.4699970  45.3058510  76.7356140  75.7412580
  34.9696080  79.2039780  68.8556240  35.7359350  79.0921140  69.4181670
  35.0470770  78.5077750  68.2033010  46.9940020  84.6929030  76.9706540
  47.1187440  85.5160200  77.4430350  47.8605580  84.4819760  76.6230690
  33.4715830  85.9706310  85.8309250  34.2728560  86.2918360  86.2444650
  32.9567650  85.6101890  86.5529160  43.7380830  85.8066470  84.3894070
  44.6902580  85.7224490  84.3394310  43.5909050  86.4708180  85.0627860
  46.6290030  85.1860680  69.8885980  46.3431540  84.7725820  69.0740160
  46.4309580  86.1148390  69.7686500  38.2451580  79.8650760  84.3080820
  37.4797250  80.4335760  84.2235490  38.4267540  79.5726970  83.4149050
  41.3339990  80.2413990  68.9333580  40.7850090  80.6883290  69.5776320
  41.9559250  79.7363240  69.4571250  45.3874930  81.5956090  84.8655840
  46.1284400  81.9331850  84.3623300  44.6247610  81.7648150  84.3125610
  37.0015110  79.2004910  70.8298880  37.4231530  79.0344780  71.6730270
  37.1265950  78.3905140  70.3354020  39.5142750  78.2242520  68.0775980
  40.0348410  77.5091540  67.7117130  40.1611150  78.8628390  68.3776490
  44.0620590  79.6470920  83.4011050  44.4761610  79.8016000  84.2501470
  43.1271590  79.7726140  83.5636830  44.5342760  76.9867080  85.4050200
  45.1163530  76.2319400  85.3170680  44.7104530  77.5174520  84.6281680
  35.6514830  72.1463830  83.7167150  35.5571700  71.5284580  82.9918020
  35.0712220  72.8730120  83.4897060  38.4176270  70.7037070  80.7494540
  37.9693570  70.7261330  79.9040090  37.7841470  70.3056090  81.3464840
  43.4987620  77.8844770  81.3307330  42.9722840  78.4087390  80.7272470
  43.8418960  78.5172160  81.9617060  35.8974010  75.2738140  67.7757040
  35.6963070  74.4105500  68.1370380  35.7266060  75.1871500  66.8378640
  36.6743240  85.9044410  82.4864710  36.1364330  86.6290470  82.1673410
  36.9277200  85.4274750  81.6962050  37.9268490  73.8728930  84.0120640
  38.5168180  73.5644780  84.6998460  37.1088730  73.4008680  84.1680540
  42.7461920  73.4894740  84.2453660  42.0577440  72.8276280  84.1803650
  43.4667940  73.0433010  84.6902120  34.6956810  72.3738760  67.7634920
  34.9982710  72.3806190  66.8554070  35.4351400  72.0236620  68.2602580
  39.5305450  87.1395620  82.7451360  39.4564150  88.0430760  83.0523730
  38.6284290  86.8207520  82.7173430  37.9141740  71.3173380  68.7491120
  37.5663740  70.6397370  68.1693570  38.1154510  70.8562890  69.5634510
  33.7186940  81.6781180  68.5964720  34.1561810  82.2210850  69.2522300
  34.2034670  80.8528130  68.6061060  35.5294660  82.7979220  73.7086950
  35.2290200  82.6744190  74.6090860  35.4232150  81.9387810  73.3002680
  47.0585130  84.8357800  83.0743920  46.4587120  84.8950360  82.3307840
  47.1879030  83.8962780  83.2040770  31.2547380  77.8461030  75.1455490
  30.5996220  77.5772670  74.5015190  32.0925330  77.7365510  74.6957470
  48.7603010  80.1773200  75.7589760  49.1311840  79.3940520  75.3525730
  49.4004940  80.8662300  75.5807060  45.7436770  81.5609780  81.1720080
  44.9296610  81.9906940  81.4345870  46.1510970  82.1728190  80.5589130
  47.8062210  79.6157470  68.0720350  48.0811050  80.5236350  67.9439570
  47.6172950  79.5520000  69.0082340  47.0927170  76.6997980  82.6989300
  46.8613260  76.4710730  81.7987250  47.3531720  77.6197530  82.6534190
  45.5315240  71.9254410  85.4769000  46.4085420  71.9337810  85.8603000
  45.5436080  71.1885250  84.8661350  46.9778510  75.7783950  76.3657020
  47.5015990  75.2846600  75.7347190  47.5637930  75.9134310  77.1104590
  47.1568230  75.8623820  79.8876570  46.2070940  75.8287360  80.0021560
  47.3381240  76.7723930  79.6526340  32.3479020  69.4171020  77.9400470
  32.9955210  68.8668400  77.4995630  32.7680860  69.6714170  78.7616280
  32.1011020  69.5726690  80.6825790  31.7525840  70.0290510  81.4483970
  31.7698720  68.6783820  80.7648220  33.7075390  82.7446290  84.8478980
  33.6645020  82.3739200  85.7293440  33.8386400  83.6823860  84.9880800
  37.4081420  84.3005880  80.4488700  37.1672780  84.5680440  79.5619220
  38.3484060  84.4711610  80.5039560  39.6135840  70.7638570  84.2045210
  39.5524730  71.3560400  84.9540620  40.5536220  70.6564530  84.0595470
  42.2510400  70.4208630  83.8437500  42.8650810  70.7387920  83.1818580
  42.7959960  69.9357220  84.4633360  33.5463420  85.6908540  81.9676760
  32.9523740  85.5593240  82.7066800  33.5387260  84.8546680  81.5018860
  33.1775650  83.0566920  80.9184800  32.4509710  82.4372210  80.8510750
  33.2384800  83.4507530  80.0482880  36.7820750  85.2711920  77.7034210
  37.2985770  84.6599280  77.1782470  37.4318130  85.7740700  78.1945220
  40.7393260  69.9010610  79.1099700  39.9565050  70.3756110  79.3896460
  40.4456190  68.9965440  79.0012880  38.6247480  72.3197360  74.6215730
  37.8121990  71.9454250  74.2811610  39.1289120  71.5642440  74.9236920
  36.6496660  70.4697280  73.2260780  36.0199400  69.7684590  73.3930910
  36.1101800  71.2301410  73.0093940  39.5888610  87.0836510  85.8971390
  40.5155920  86.8480780  85.9407350  39.5739040  87.9108510  85.4157420
  47.8233670  86.6262080  72.8945640  47.9985860  85.9399820  72.2506560
  47.1255240  87.1509130  72.5022310  42.2825830  77.1827310  56.6028480
  42.2019880  76.2681920  56.3320190  41.8690250  77.6794380  55.8968190
  40.4143870  78.9606330  58.4837750  39.6385970  78.4806770  58.7736320
  41.0656800  78.2811980  58.3093910  32.8401650  74.2328030  53.1455900
  31.9518350  74.5744000  53.0435780  33.1242840  74.0328350  52.2536730
  40.6614610  85.6524530  56.8840870  40.0426050  86.1082030  56.3135310
  41.5166390  85.8075990  56.4830570  39.8552860  81.6363520  58.4907910
  39.7861140  80.6953460  58.3297040  40.6172720  81.7264930  59.0630480
  32.0459530  72.2418040  60.8164530  31.8662370  71.3443790  61.0967290
  31.6439610  72.7889910  61.4911480  40.8858030  74.4433900  58.7176840
  41.2622850  73.5705780  58.6050510  40.7877540  74.7792600  57.8267280
  35.0163040  72.8159530  54.1794280  35.1229790  73.7163260  54.4863040
  34.1055400  72.7677500  53.8888930  44.6682150  71.9384340  55.6505180
  45.4891770  71.4480910  55.6930660  44.7016230  72.5282000  56.4037020
  32.6646200  74.7378540  59.4246870  33.3456310  75.0016910  60.0434270
  32.3494250  73.8979410  59.7584880  36.8570770  75.7845900  58.5119460
  37.3648990  76.2826870  59.1524480  37.3884010  75.0081100  58.3358820
  48.9581700  73.9551090  62.2148810  48.2533870  74.3432800  61.6963920
  49.2239620  74.6501380  62.8169740  41.5277960  80.5363770  54.2772780
  40.9095230  81.0013220  53.7135500  42.0401210  81.2291250  54.6942290
  44.9043630  73.8784720  58.4232720  44.1999200  74.1669610  59.0035830
  45.2655790  74.6884830  58.0632280  46.5206410  83.4959850  60.6860200
  45.8369930  84.1658960  60.6776870  47.0600700  83.6940500  59.9205060
  47.9730550  73.3239510  58.8141930  47.0255460  73.3578490  58.9457360
  48.2980540  74.1378460  59.1991290  44.0565150  85.3403980  59.4005380
  44.0692310  84.9366270  58.5327640  43.5040370  86.1151270  59.2966810
  43.4550590  80.2433820  60.7287990  43.8719380  80.0293930  59.8941450
  44.1790410  80.5006610  61.2996610  40.8930850  77.6885520  53.8458040
  39.9660130  77.6222900  54.0746510  41.0455670  78.6265650  53.7313280
  40.8799930  73.9602520  50.8425200  39.9403600  74.1216480  50.9277660
  41.1983190  74.6788200  50.2961190  47.4012690  78.6421040  60.8204230
  46.5731320  78.7114130  60.3454360  47.9963170  79.2275350  60.3520060
  44.9228140  79.2505820  54.3493290  44.3040560  78.9125370  53.7019590
  44.9052590  78.6065580  55.0572480  44.3654700  75.4290360  61.7659100
  43.9525880  76.2544070  62.0199090  43.6330650  74.8435400  61.5735460
  36.4987490  78.2150260  56.6277770  36.0944490  77.5027510  56.1323670
  36.5850610  77.8703500  57.5165810  35.2116110  74.9893470  60.4076810
  35.7630700  75.0988810  59.6330060  35.7259620  75.3631070  61.1232040
  43.0992840  78.4892630  51.3566040  43.5386120  77.6515060  51.2103860
  43.8121260  79.1222030  51.4430180  33.1992120  77.1095240  54.1284420
  33.0789720  77.8357330  53.5165690  32.8893010  76.3398150  53.6512330
  32.0825120  81.9810570  56.3459240  31.6753200  82.1225160  55.4912840
  32.9738130  81.6970730  56.1430450  41.9004000  86.1302480  63.2526290
  42.4148670  86.0410490  64.0548720  41.0573080  86.4762180  63.5454200
  36.3546780  86.1956350  54.4581910  36.1789260  85.2791890  54.2449710
  35.5002520  86.5543640  54.6979710  47.8911270  74.4806940  65.6481220
  47.2755540  74.9886610  65.1196680  47.5707690  73.5805270  65.5907160
  39.9525590  73.3198830  63.1143410  39.4904960  73.5281850  63.9263350
  39.5503700  72.5058180  62.8114080  44.9530100  74.5407780  64.2440070
  44.1023690  74.2413530  64.5649140  44.7931890  74.7849790  63.3323890
  42.0479810  76.0409530  66.3438860  42.3733220  75.2073280  66.0041090
  42.8360140  76.5638050  66.4917190  38.7814600  70.0741010  52.3913920
  38.1568780  70.0700880  53.1167230  38.6944720  69.2071970  51.9949890
  35.4570000  75.5763880  55.2389340  35.2310920  75.3601050  56.1435960
  34.6762530  76.0092340  54.8935310  42.6867760  75.5827250  53.8379990
  42.0876650  76.3063050  53.6543610  43.2347370  75.5204030  53.0556440
  37.8969210  76.4749460  65.9049610  37.8012810  75.5344190  65.7550010
  38.7401190  76.6964530  65.5097680  41.2932630  74.2190790  55.8683270
  41.6862200  74.5362990  55.0551960  41.6549480  73.3402670  55.9827790
  33.0279750  72.8863130  64.0583390  32.6343140  73.7338340  64.2656170
  32.3398150  72.2489500  64.2492030  39.6024800  72.9698100  67.1280130
  38.9123120  72.7770300  67.7626220  40.3457100  73.2532740  67.6604430
  30.3296800  70.8091590  58.0913470  30.0409850  71.3794450  58.8038450
  31.0742560  70.3296040  58.4544700  41.8787770  76.8096540  59.9634050
  41.1468890  77.3183350  60.3124150  41.4812110  75.9926520  59.6622830
  34.1667540  73.3677230  57.3280750  33.8267590  73.8452460  58.0847800
  33.4044860  72.9142350  56.9681850  38.3785310  74.4862820  51.3593300
  38.4998130  74.4449300  52.3079120  37.9933820  75.3486970  51.2040030
  42.3413680  72.2630220  59.3756990  42.3586420  72.7138870  60.2198840
  42.0929260  71.3635860  59.5890430  37.3906810  76.7963960  50.7576600
  36.8223710  76.3482210  50.1312510  38.0995810  77.1556740  50.2241750
  45.7684430  69.6762400  65.2143370  46.0930200  68.9452060  65.7401350
  45.8040940  69.3576040  64.3124360  38.6173130  77.5452520  60.1151950
  38.9843260  77.0711090  60.8613290  38.4278190  78.4194090  60.4560290
  31.4813620  72.2896210  56.2445420  31.1960540  71.9251880  57.0824040
  31.4192480  71.5576670  55.6308560  34.9354290  80.7922150  53.0303010
  34.1616550  80.2519770  52.8701730  35.6648920  80.2728760  52.6920770
  45.6942270  79.7887510  58.8229400  46.4141390  80.2842800  58.4325510
  45.4924090  79.1105400  58.1783270  41.1552210  71.1825470  52.9658790
  40.3416820  70.6838640  52.8904100  40.9614160  72.0223720  52.5495140
  41.0761070  79.8596570  64.7098400  41.0098380  78.9392240  64.4555990
  40.4466210  79.9572010  65.4243040  43.8700600  75.5545120  51.2620950
  44.7580220  75.8662350  51.0872290  43.8405690  74.6817370  50.8701530
  39.8661190  81.7268810  51.9409120  40.2076890  82.4711040  51.4452440
  39.0373900  82.0399930  52.3033950  35.6649350  77.8848140  66.4647070
  35.3649490  78.0305320  65.5674890  36.4360590  77.3253430  66.3720460
  41.0077800  82.6817140  64.4602200  41.0222340  81.7498100  64.2421110
  40.3002900  82.7676900  65.0991970  46.1414870  76.8656960  50.7300810
  46.0578590  77.2971180  49.8797250  46.8609060  77.3255310  51.1627630
  47.2189010  79.3224480  63.8070780  46.4937200  79.9153260  63.6100170
  47.7464470  79.3148020  63.0084150  42.7488600  81.0484650  57.3054630
  43.1012420  80.4512780  56.6456000  41.8650930  80.7228880  57.4762880
  38.8351880  81.8082340  54.7125040  39.5223010  82.3551550  55.0932630
  38.0484300  82.3523070  54.7474650  30.9744280  77.4255160  50.2042120
  31.8439130  77.7079960  50.4878040  30.4834600  78.2391030  50.0890930
  38.1379090  78.8128370  54.3250400  38.5941870  79.6233620  54.5510590
  37.7867300  78.4951510  55.1568890  40.4411700  84.3234710  61.5542700
  41.0853920  84.5294090  62.2316120  40.8041140  83.5623110  61.1013550
  34.0390870  69.1566020  54.7972920  33.9105500  69.1483920  55.7457840
  33.2152890  69.4949110  54.4463930  41.7143780  82.3267060  60.2720150
  42.3566010  81.6260220  60.3852320  42.2393130  83.1065500  60.0917040
  43.4881400  83.1261960  63.4756210  43.8237640  83.7128650  64.1534130
  42.5681740  82.9954670  63.7054000  31.3415530  86.6382540  50.7703750
  31.7013170  87.2371880  50.1161020  31.2007870  87.1842430  51.5438780
  31.0384800  70.9157140  64.2579620  30.3243320  71.1154060  64.8632230
  31.4579840  70.1396710  64.6294420  45.1415750  80.5287620  51.6573450
  44.8537450  80.9900310  52.4451330  45.9367920  80.0685390  51.9257670
  31.3257390  84.9037400  65.2446150  31.4348510  83.9632140  65.1041540
  30.6737950  85.1692150  64.5959880  37.3584150  84.0213740  51.5877420
  37.3494250  84.7543430  50.9721930  36.4382510  83.7745320  51.6804380
  32.9590790  79.2428630  52.3324180  32.3518740  79.9827530  52.3419480
  33.4340140  79.3327990  51.5062380  42.5323580  73.4079450  62.0081070
  42.9004400  72.5874660  62.3360640  41.6721780  73.4681340  62.4236720
  45.8985610  72.3636390  52.8168630  45.2698770  72.4682060  52.1026860
  45.4037530  72.5833170  53.6062510  40.3443750  84.0841980  50.2502610
  40.4455730  83.8805970  49.3204590  39.4445490  83.8300260  50.4550390
  37.8669640  74.6422340  54.2326510  37.1585790  75.1108680  54.6740120
  38.1514120  73.9844350  54.8671700  39.4925570  76.0619040  62.2319040
  39.9910820  76.5364860  62.8970890  39.6348520  75.1382560  62.4389070
  41.8985070  71.3673000  55.6722300  41.7752850  71.3859130  54.7231810
  42.8469630  71.4151940  55.7920700  38.9861860  86.6028300  54.9450280
  39.2403360  86.5649690  54.0229650  38.0374340  86.4761630  54.9378530
  36.0704660  72.9507420  51.6077220  36.9195190  73.3877570  51.5417410
  35.7035930  73.2627680  52.4349280  46.6992430  72.2787000  63.0747430
  46.1966030  73.0192400  63.4141240  47.5149090  72.6671000  62.7584220
  44.9914440  77.5220180  56.5208790  44.0504580  77.5370410  56.6956480
  45.3058510  76.7356140  56.9669090  34.9696080  79.2039780  50.0812750
  35.7359350  79.0921140  50.6438180  35.0470770  78.5077750  49.4289520
  33.6642840  76.6364850  50.7645640  33.7446430  75.6892360  50.8763040
  34.5562590  76.9671730  50.8706300  34.4657550  86.7860240  57.8680180
  35.2020030  86.2375700  58.1388750  34.8498470  87.6516250  57.7286170
  33.4715830  85.9706310  67.0565760  34.2728560  86.2918360  67.4701160
  32.9567650  85.6101890  67.7785670  37.5759860  85.9590550  49.6905750
  38.3688470  86.2479380  49.2387540  37.0564210  85.5282720  49.0118230
  42.3080460  82.0786180  67.0041170  41.7018620  82.1017780  66.2636920
  42.0034570  81.3469220  67.5408420  43.7380830  85.8066470  65.6150580
  44.6902580  85.7224490  65.5650820  43.5909050  86.4708180  66.2884370
  38.0937260  81.1793960  49.5548100  37.9887900  80.5646310  50.2809480
  37.9261480  80.6559850  48.7711110  38.2451580  79.8650760  65.5337330
  37.4797250  80.4335760  65.4492000  38.4267540  79.5726970  64.6405560
  41.3339990  80.2413990  50.1590090  40.7850090  80.6883290  50.8032830
  41.9559250  79.7363240  50.6827760  45.3874930  81.5956090  66.0912350
  46.1284400  81.9331850  65.5879810  44.6247610  81.7648150  65.5382120
  33.2236720  76.6009360  66.8951880  33.2642060  76.3023230  67.8037110
  34.0782220  77.0016970  66.7359400  37.0015110  79.2004910  52.0555390
  37.4231530  79.0344780  52.8986780  37.1265950  78.3905140  51.5610530
  35.1642530  75.1801460  64.8626370  34.6338990  74.6892410  64.2349710
  35.8330600  75.6085660  64.3284300  39.5142750  78.2242520  49.3032490
  40.0348410  77.5091540  48.9373640  40.1611150  78.8628390  49.6033000
  44.0620590  79.6470920  64.6267560  44.4761610  79.8016000  65.4757980
  43.1271590  79.7726140  64.7893340  44.5342760  76.9867080  66.6306710
  45.1163530  76.2319400  66.5427190  44.7104530  77.5174520  65.8538190
  35.6514830  72.1463830  64.9423660  35.5571700  71.5284580  64.2174530
  35.0712220  72.8730120  64.7153570  41.1599720  77.3307580  63.9801330
  41.2795930  76.7348720  64.7196170  42.0193720  77.3677270  63.5602630
  43.4987620  77.8844770  62.5563840  42.9722840  78.4087390  61.9528980
  43.8418960  78.5172160  63.1873570  35.8974010  75.2738140  49.0013550
  35.6963070  74.4105500  49.3626890  35.7266060  75.1871500  48.0635150
  36.6743240  85.9044410  63.7121220  36.1364330  86.6290470  63.3929920
  36.9277200  85.4274750  62.9218560  37.9268490  73.8728930  65.2377150
  38.5168180  73.5644780  65.9254970  37.1088730  73.4008680  65.3937050
  42.7461920  73.4894740  65.4710170  42.0577440  72.8276280  65.4060160
  43.4667940  73.0433010  65.9158630  43.3762320  70.0846370  51.5300430
  43.6564610  69.2414270  51.8859850  42.6028050  70.3169480  52.0439180
  34.6956810  72.3738760  48.9891430  34.9982710  72.3806190  48.0810580
  35.4351400  72.0236620  49.4859090  39.5305450  87.1395620  63.9707870
  39.4564150  88.0430760  64.2780240  38.6284290  86.8207520  63.9429940
  40.0790780  86.3054130  51.5934230  40.9741570  86.6439100  51.6152990
  40.1108410  85.5833540  50.9658510  33.7186940  81.6781180  49.8221230
  34.1561810  82.2210850  50.4778810  34.2034670  80.8528130  49.8317570
  30.9332740  84.4670210  57.2741490  31.2635750  83.5991270  57.0420130
  31.3623740  84.6728730  58.1046450  35.5294660  82.7979220  54.9343460
  35.2290200  82.6744190  55.8347370  35.4232150  81.9387810  54.5259190
  48.2986580  82.5775620  49.6370140  47.4679540  82.6452270  50.1077370
  48.4758410  83.4679740  49.3337000  47.7543040  79.3223100  52.1404340
  48.5161950  79.8919750  52.2464030  47.7697410  78.7550300  52.9112650
  31.2547380  77.8461030  56.3712000  30.5996220  77.5772670  55.7271700
  32.0925330  77.7365510  55.9213980  48.7603010  80.1773200  56.9846270
  49.1311840  79.3940520  56.5782240  49.4004940  80.8662300  56.8063570
  45.7436770  81.5609780  62.3976590  44.9296610  81.9906940  62.6602380
  46.1510970  82.1728190  61.7845640  47.8062210  79.6157470  49.2976860
  48.0811050  80.5236350  49.1696080  47.6172950  79.5520000  50.2338850
  44.2037820  72.6402320  50.5930490  44.6222700  72.4533300  49.7527150
  43.8973880  71.7881370  50.9033420  47.7027550  77.5526460  54.2906290
  47.3271150  76.7854390  53.8587580  46.9730670  77.9349160  54.7781220
  47.0927170  76.6997980  63.9245810  46.8613260  76.4710730  63.0243760
  47.3531720  77.6197530  63.8790700  31.8439310  75.1422690  64.8173760
  30.9495360  75.1089450  65.1567470  32.3836860  75.3409480  65.5825010
  45.5315240  71.9254410  66.7025510  46.4085420  71.9337810  67.0859510
  45.5436080  71.1885250  66.0917860  30.4685460  75.0559960  52.3137330
  29.5649540  75.3190160  52.1388990  30.9526080  75.3271130  51.5337290
  46.9778510  75.7783950  57.5913530  47.5015990  75.2846600  56.9603700
  47.5637930  75.9134310  58.3361100  47.1568230  75.8623820  61.1133080
  46.2070940  75.8287360  61.2278070  47.3381240  76.7723930  60.8782850
  33.0112670  74.1125500  50.2231710  33.7204370  73.6908720  49.7378990
  32.2952610  74.1800730  49.5915060  32.6586830  70.1664830  49.2634360
  33.3814960  70.7073770  49.5815580  32.9311350  69.8928250  48.3875900
  46.4678480  75.0357300  53.5305940  46.9637600  74.8028170  54.3154820
  46.2694550  74.1969140  53.1143580  32.3479020  69.4171020  59.1656980
  32.9955210  68.8668400  58.7252140  32.7680860  69.6714170  59.9872790
  47.8965640  73.6718250  56.0643620  47.7864920  73.5174290  57.0025890
  48.6573230  73.1439190  55.8219030  46.2431360  69.6112380  62.5226620
  46.8803580  70.2246520  62.8885810  46.3906250  69.6473040  61.5775850
  48.8594400  72.2736830  51.9306470  48.0645900  72.2081950  52.4599380
  49.0637680  73.2087470  51.9191820  32.1011020  69.5726690  61.9082300
  31.7525840  70.0290510  62.6740480  31.7698720  68.6783820  61.9904730
  33.7075390  82.7446290  66.0735490  33.6645020  82.3739200  66.9549950
  33.8386400  83.6823860  66.2137310  39.6135840  70.7638570  65.4301720
  39.5524730  71.3560400  66.1797130  40.5536220  70.6564530  65.2851980
  42.2510400  70.4208630  65.0694010  42.8650810  70.7387920  64.4075090
  42.7959960  69.9357220  65.6889870  32.7731660  69.1002890  65.1833070
  33.3214650  68.9190940  64.4199180  32.8386970  68.3097000  65.7189380
  42.9918440  68.9840770  61.3963300  42.1178280  69.3175880  61.1936230
  42.8829190  68.5113950  62.2215170  43.8990420  71.1911640  62.7805020
  43.5703780  70.3763400  62.4006750  44.8472720  71.1481450  62.6570710
  36.7820750  85.2711920  58.9290720  37.2985770  84.6599280  58.4038980
  37.4318130  85.7740700  59.4201730  39.5216250  86.1620410  59.7559700
  39.8094060  85.9074710  58.8792710  40.0339470  85.6097770  60.3465270
  45.2914330  70.6033710  58.3805300  45.7322420  70.5478810  57.5326900
  45.0221920  71.5191720  58.4515480  47.1552900  70.2348950  56.3914120
  47.0941300  69.2910170  56.2445140  47.9344930  70.3429040  56.9367580
  31.4605650  86.3741310  55.3538070  31.2927690  85.7411990  56.0519960
  30.5940160  86.5800710  55.0032260  32.0833670  70.2058090  52.8569930
  32.8413030  70.3186970  52.2833960  31.6210840  71.0427290  52.8113360
  43.1272460  68.9839810  57.0855310  43.7301830  69.5560020  57.5603830
  42.3865450  69.5479250  56.8629210  33.0668350  85.0674540  52.7988210
  32.5415970  85.4482570  52.0950170  32.9912930  85.6925310  53.5197920
  34.4558820  70.7322140  51.3971900  34.9851580  69.9451940  51.2679850
  35.0887140  71.4113330  51.6307430  34.8276110  83.1321650  51.6783790
  34.1984990  83.6006750  52.2269620  34.9423940  82.2870870  52.1129980
  30.8034660  76.8333680  40.2552110  31.3750770  76.0655880  40.2555750
  30.8036200  77.1322440  39.3458720  32.0459530  72.2418040  42.0421040
  31.8662370  71.3443790  42.3223800  31.6439610  72.7889910  42.7167990
  44.6682150  71.9384340  36.8761690  45.4891770  71.4480910  36.9187170
  44.7016230  72.5282000  37.6293530  32.6646200  74.7378540  40.6503380
  33.3456310  75.0016910  41.2690780  32.3494250  73.8979410  40.9841390
  48.9581700  73.9551090  43.4405320  48.2533870  74.3432800  42.9220430
  49.2239620  74.6501380  44.0426250  35.6028820  82.0320440  43.9962070
  36.2202820  82.7071520  43.7146520  34.7421940  82.4408420  43.9049570
  30.8961160  81.2220300  32.8768920  30.5189140  81.7107400  32.1453820
  31.1534230  81.8945580  33.5075450  46.5206410  83.4959850  41.9116710
  45.8369930  84.1658960  41.9033380  47.0600700  83.6940500  41.1461570
  47.9730550  73.3239510  40.0398440  47.0255460  73.3578490  40.1713870
  48.2980540  74.1378460  40.4247800  40.8799930  73.9602520  32.0681710
  39.9403600  74.1216480  32.1534170  41.1983190  74.6788200  31.5217700
  47.4012690  78.6421040  42.0460740  46.5731320  78.7114130  41.5710870
  47.9963170  79.2275350  41.5776570  45.0554800  85.4749690  43.6796590
  44.5785360  86.2821880  43.4869200  44.3716590  84.8228020  43.8322800
  36.0587620  81.6399510  46.6681290  35.1616150  81.8639480  46.9154690
  36.0840490  81.7634450  45.7192690  34.8858840  78.5112830  45.2438660
  34.7466610  79.3835630  45.6126060  34.0040200  78.1685640  45.0986600
  36.6839190  84.4534530  47.4523810  36.6554620  84.8577480  46.5852240
  36.5204160  83.5244890  47.2895410  46.6809980  69.7435440  30.8963590
  46.3682640  69.8362270  31.7962660  47.4422450  70.3216470  30.8461020
  33.1992120  77.1095240  35.3540930  33.0789720  77.8357330  34.7422200
  32.8893010  76.3398150  34.8768840  30.8377490  80.2810380  41.1609570
  30.9157910  80.4159150  40.2165290  31.4519170  79.5726270  41.3537690
  48.0387260  82.4274480  45.9087990  48.1650320  82.1886360  44.9905170
  48.0808640  81.5959020  46.3810070  41.9004000  86.1302480  44.4782800
  42.4148670  86.0410490  45.2805230  41.0573080  86.4762180  44.7710710
  43.5784530  83.9245380  32.4664800  42.8849690  83.9222670  31.8067080
  44.3207390  83.5004700  32.0358970  47.8911270  74.4806940  46.8737730
  47.2755540  74.9886610  46.3453190  47.5707690  73.5805270  46.8163670
  44.9530100  74.5407780  45.4696580  44.1023690  74.2413530  45.7905650
  44.7931890  74.7849790  44.5580400  42.0479810  76.0409530  47.5695370
  42.3733220  75.2073280  47.2297600  42.8360140  76.5638050  47.7173700
  35.4570000  75.5763880  36.4645850  35.2310920  75.3601050  37.3692470
  34.6762530  76.0092340  36.1191820  37.8969210  76.4749460  47.1306120
  37.8012810  75.5344190  46.9806520  38.7401190  76.6964530  46.7354190
  33.0279750  72.8863130  45.2839900  32.6343140  73.7338340  45.4912680
  32.3398150  72.2489500  45.4748540  30.5167030  74.7511710  30.5272700
  30.4341700  75.6942470  30.6687690  30.1650090  74.6086620  29.6485050
  37.3906810  76.7963960  31.9833110  36.8223710  76.3482210  31.3569020
  38.0995810  77.1556740  31.4498260  32.4675990  80.6975980  45.8599840
  32.0830780  80.0569650  46.4582800  32.7788180  81.4012100  46.4294570
  31.4813620  72.2896210  37.4701930  31.1960540  71.9251880  38.3080550
  31.4192480  71.5576670  36.8565070  43.8700600  75.5545120  32.4877460
  44.7580220  75.8662350  32.3128800  43.8405690  74.6817370  32.0958040
  39.8661190  81.7268810  33.1665630  40.2076890  82.4711040  32.6708950
  39.0373900  82.0399930  33.5290460  35.6649350  77.8848140  47.6903580
  35.3649490  78.0305320  46.7931400  36.4360590  77.3253430  47.5976970
  47.2189010  79.3224480  45.0327290  46.4937200  79.9153260  44.8356680
  47.7464470  79.3148020  44.2340660  30.9744280  77.4255160  31.4298630
  31.8439130  77.7079960  31.7134550  30.4834600  78.2391030  31.3147440
  43.4881400  83.1261960  44.7012720  43.8237640  83.7128650  45.3790640
  42.5681740  82.9954670  44.9310510  31.3415530  86.6382540  31.9960260
  31.7013170  87.2371880  31.3417530  31.2007870  87.1842430  32.7695290
  31.0384800  70.9157140  45.4836130  30.3243320  71.1154060  46.0888740
  31.4579840  70.1396710  45.8550930  31.3257390  84.9037400  46.4702660
  31.4348510  83.9632140  46.3298050  30.6737950  85.1692150  45.8216390
  39.3169980  83.1753290  47.8700780  38.9966850  82.4562530  48.4146470
  38.6428340  83.8508360  47.9436840  32.9590790  79.2428630  33.5580690
  32.3518740  79.9827530  33.5675990  33.4340140  79.3327990  32.7318890
  45.8985610  72.3636390  34.0425140  45.2698770  72.4682060  33.3283370
  45.4037530  72.5833170  34.8319020  40.3443750  84.0841980  31.4759120
  40.4455730  83.8805970  30.5461100  39.4445490  83.8300260  31.6806900
  34.9696080  79.2039780  31.3069260  35.7359350  79.0921140  31.8694690
  35.0470770  78.5077750  30.6546030  33.6642840  76.6364850  31.9902150
  33.7446430  75.6892360  32.1019550  34.5562590  76.9671730  32.0962810
  33.4715830  85.9706310  48.2822270  34.2728560  86.2918360  48.6957670
  32.9567650  85.6101890  49.0042180  37.5759860  85.9590550  30.9162260
  38.3688470  86.2479380  30.4644050  37.0564210  85.5282720  30.2374740
  42.3080460  82.0786180  48.2297680  41.7018620  82.1017780  47.4893430
  42.0034570  81.3469220  48.7664930  43.7380830  85.8066470  46.8407090
  44.6902580  85.7224490  46.7907330  43.5909050  86.4708180  47.5140880
  38.0937260  81.1793960  30.7804610  37.9887900  80.5646310  31.5065990
  37.9261480  80.6559850  29.9967620  41.3339990  80.2413990  31.3846600
  40.7850090  80.6883290  32.0289340  41.9559250  79.7363240  31.9084270
  45.3874930  81.5956090  47.3168860  46.1284400  81.9331850  46.8136320
  44.6247610  81.7648150  46.7638630  33.2236720  76.6009360  48.1208390
  33.2642060  76.3023230  49.0293620  34.0782220  77.0016970  47.9615910
  35.1642530  75.1801460  46.0882880  34.6338990  74.6892410  45.4606220
  35.8330600  75.6085660  45.5540810  39.5142750  78.2242520  30.5289000
  40.0348410  77.5091540  30.1630150  40.1611150  78.8628390  30.8289510
  44.5342760  76.9867080  47.8563220  45.1163530  76.2319400  47.7683700
  44.7104530  77.5174520  47.0794700  35.6514830  72.1463830  46.1680170
  35.5571700  71.5284580  45.4431040  35.0712220  72.8730120  45.9410080
  36.6743240  85.9044410  44.9377730  36.1364330  86.6290470  44.6186430
  36.9277200  85.4274750  44.1475070  43.3762320  70.0846370  32.7556940
  43.6564610  69.2414270  33.1116360  42.6028050  70.3169480  33.2695690
  39.5305450  87.1395620  45.1964380  39.4564150  88.0430760  45.5036750
  38.6284290  86.8207520  45.1686450  33.7186940  81.6781180  31.0477740
  34.1561810  82.2210850  31.7035320  34.2034670  80.8528130  31.0574080
  31.4222950  85.3340800  41.2379630  30.9853940  85.5141600  42.0703780
  31.9900630  86.0915420  41.0961350  47.0585130  84.8357800  45.5256940
  46.4587120  84.8950360  44.7820860  47.1879030  83.8962780  45.6553790
  31.2547380  77.8461030  37.5968510  30.5996220  77.5772670  36.9528210
  32.0925330  77.7365510  37.1470490  45.7436770  81.5609780  43.6233100
  44.9296610  81.9906940  43.8858890  46.1510970  82.1728190  43.0102150
  44.2037820  72.6402320  31.8187000  44.6222700  72.4533300  30.9783660
  43.8973880  71.7881370  32.1289930  32.2923310  78.2313600  42.1371850
  32.6596350  78.1441000  43.0167870  31.7234130  77.4680150  42.0378710
  47.0927170  76.6997980  45.1502320  46.8613260  76.4710730  44.2500270
  47.3531720  77.6197530  45.1047210  30.4685460  75.0559960  33.5393840
  29.5649540  75.3190160  33.3645500  30.9526080  75.3271130  32.7593800
  32.3479020  69.4171020  40.3913490  32.9955210  68.8668400  39.9508650
  32.7680860  69.6714170  41.2129300  32.1011020  69.5726690  43.1338810
  31.7525840  70.0290510  43.8996990  31.7698720  68.6783820  43.2161240
  33.7075390  82.7446290  47.2992000  33.6645020  82.3739200  48.1806460
  33.8386400  83.6823860  47.4393820  37.4081420  84.3005880  42.9001720
  37.1672780  84.5680440  42.0132240  38.3484060  84.4711610  42.9552580
  48.6685580  86.3200260  43.7012360  48.1743860  86.7169130  42.9839490
  48.0598870  85.6949470  44.0949640  32.7731660  69.1002890  46.4089580
  33.3214650  68.9190940  45.6455690  32.8386970  68.3097000  46.9445890
  33.5463420  85.6908540  44.4189780  32.9523740  85.5593240  45.1579820
  33.5387260  84.8546680  43.9531880  33.1775650  83.0566920  43.3697820
  32.4509710  82.4372210  43.3023770  33.2384800  83.4507530  42.4995900
  46.2707060  69.3861370  33.5852100  46.4657690  70.2844820  33.8519530
  45.4836930  69.1548450  34.0785050  39.5888610  87.0836510  48.3484410
  40.5155920  86.8480780  48.3920370  39.5739040  87.9108510  47.8670440
  42.2825830  77.1827310  19.0541500  42.2019880  76.2681920  18.7833210
  41.8690250  77.6794380  18.3481210  40.4143870  78.9606330  20.9350770
  39.6385970  78.4806770  21.2249340  41.0656800  78.2811980  20.7606930
  34.4309700  79.2726140  21.8126530  33.5994580  79.0174850  22.2123040
  35.0390680  79.3436910  22.5484450  44.4351300  83.3666520  19.7149900
  43.9732830  82.5953760  20.0437070  45.2476850  83.3932590  20.2202350
  34.4110960  83.3066230  22.0084550  34.7139000  82.4163970  21.8294770
  35.1554550  83.8636450  21.7806800  32.8401650  74.2328030  15.5968920
  31.9518350  74.5744000  15.4948800  33.1242840  74.0328350  14.7049750
  30.8034660  76.8333680  21.4808620  31.3750770  76.0655880  21.4812260
  30.8036200  77.1322440  20.5715230  40.6614610  85.6524530  19.3353890
  40.0426050  86.1082030  18.7648330  41.5166390  85.8075990  18.9343590
  39.8552860  81.6363520  20.9420930  39.7861140  80.6953460  20.7810060
  40.6172720  81.7264930  21.5143500  32.0459530  72.2418040  23.2677550
  31.8662370  71.3443790  23.5480310  31.6439610  72.7889910  23.9424500
  40.8858030  74.4433900  21.1689860  41.2622850  73.5705780  21.0563530
  40.7877540  74.7792600  20.2780300  35.0163040  72.8159530  16.6307300
  35.1229790  73.7163260  16.9376060  34.1055400  72.7677500  16.3401950
  44.6682150  71.9384340  18.1018200  45.4891770  71.4480910  18.1443680
  44.7016230  72.5282000  18.8550040  32.6646200  74.7378540  21.8759890
  33.3456310  75.0016910  22.4947290  32.3494250  73.8979410  22.2097900
  36.8570770  75.7845900  20.9632480  37.3648990  76.2826870  21.6037500
  37.3884010  75.0081100  20.7871840  35.1406870  70.4244460  25.2295900
  35.1425310  70.9416850  24.4241800  34.3111180  69.9474640  25.2065830
  41.5277960  80.5363770  16.7285800  40.9095230  81.0013220  16.1648520
  42.0401210  81.2291250  17.1455310  36.3909720  80.0639640  23.4069400
  36.0579100  80.6908560  24.0490470  36.5676400  80.5901520  22.6271070
  44.9043630  73.8784720  20.8745740  44.1999200  74.1669610  21.4548850
  45.2655790  74.6884830  20.5145300  34.8222200  72.1354420  23.2366350
  35.1639010  72.9796470  22.9420220  33.8838010  72.2838160  23.3531690
  35.6028820  82.0320440  25.2218580  36.2202820  82.7071520  24.9403030
  34.7421940  82.4408420  25.1306080  30.8961160  81.2220300  14.1025430
  30.5189140  81.7107400  13.3710330  31.1534230  81.8945580  14.7331960
  46.5206410  83.4959850  23.1373220  45.8369930  84.1658960  23.1289890
  47.0600700  83.6940500  22.3718080  47.9730550  73.3239510  21.2654950
  47.0255460  73.3578490  21.3970380  48.2980540  74.1378460  21.6504310
  38.5050090  69.6236690  19.5610940  38.8125070  69.0683580  18.8446440
  37.5750790  69.7581150  19.3783930  44.0565150  85.3403980  21.8518400
  44.0692310  84.9366270  20.9840660  43.5040370  86.1151270  21.7479830
  45.3510570  82.0620200  16.9408570  45.2406900  81.1194530  17.0657990
  45.3478820  82.4235840  17.8271330  43.4550590  80.2433820  23.1801010
  43.8719380  80.0293930  22.3454470  44.1790410  80.5006610  23.7509630
  40.8930850  77.6885520  16.2971060  39.9660130  77.6222900  16.5259530
  41.0455670  78.6265650  16.1826300  40.8799930  73.9602520  13.2938220
  39.9403600  74.1216480  13.3790680  41.1983190  74.6788200  12.7474210
  47.4012690  78.6421040  23.2717250  46.5731320  78.7114130  22.7967380
  47.9963170  79.2275350  22.8033080  44.9228140  79.2505820  16.8006310
  44.3040560  78.9125370  16.1532610  44.9052590  78.6065580  17.5085500
  44.3654700  75.4290360  24.2172120  43.9525880  76.2544070  24.4712110
  43.6330650  74.8435400  24.0248480  36.4987490  78.2150260  19.0790790
  36.0944490  77.5027510  18.5836690  36.5850610  77.8703500  19.9678830
  36.9669190  81.9017820  21.2430000  36.6697480  81.2963290  20.5637780
  37.9169010  81.9395130  21.1319360  35.2116110  74.9893470  22.8589830
  35.7630700  75.0988810  22.0843080  35.7259620  75.3631070  23.5745060
  36.0587620  81.6399510  27.8937800  35.1616150  81.8639480  28.1411200
  36.0840490  81.7634450  26.9449200  43.0992840  78.4892630  13.8079060
  43.5386120  77.6515060  13.6616880  43.8121260  79.1222030  13.8943200
  34.8858840  78.5112830  26.4695170  34.7466610  79.3835630  26.8382570
  34.0040200  78.1685640  26.3243110  41.2088220  83.4288700  17.7760300
  41.6484130  84.1713030  17.3615690  41.1475110  83.6715270  18.6999260
  36.6839190  84.4534530  28.6780320  36.6554620  84.8577480  27.8108750
  36.5204160  83.5244890  28.5151920  46.6809980  69.7435440  12.1220100
  46.3682640  69.8362270  13.0219170  47.4422450  70.3216470  12.0717530
  33.1992120  77.1095240  16.5797440  33.0789720  77.8357330  15.9678710
  32.8893010  76.3398150  16.1025350  30.8377490  80.2810380  22.3866080
  30.9157910  80.4159150  21.4421800  31.4519170  79.5726270  22.5794200
  32.0825120  81.9810570  18.7972260  31.6753200  82.1225160  17.9425860
  32.9738130  81.6970730  18.5943470  48.0387260  82.4274480  27.1344500
  48.1650320  82.1886360  26.2161680  48.0808640  81.5959020  27.6066580
  41.9004000  86.1302480  25.7039310  42.4148670  86.0410490  26.5061740
  41.0573080  86.4762180  25.9967220  43.8758400  86.4157820  15.1323310
  43.7159540  86.1260760  16.0305140  43.7105110  85.6397950  14.5968540
  36.3546780  86.1956350  16.9094930  36.1789260  85.2791890  16.6962730
  35.5002520  86.5543640  17.1492730  43.5784530  83.9245380  13.6921310
  42.8849690  83.9222670  13.0323590  44.3207390  83.5004700  13.2615480
  43.1434460  85.5508090  17.7669800  43.5991410  84.7697470  18.0808420
  43.4826980  86.2614910  18.3110980  30.8937010  81.3224550  24.9260540
  31.0568050  80.8529910  24.1079910  31.3589460  80.8148110  25.5909380
  35.6655780  70.4530310  19.9621110  35.2223930  71.2339850  19.6305630
  36.2240770  70.7760200  20.6692050  39.9525590  73.3198830  25.5656430
  39.4904960  73.5281850  26.3776370  39.5503700  72.5058180  25.2627100
  44.9530100  74.5407780  26.6953090  44.1023690  74.2413530  27.0162160
  44.7931890  74.7849790  25.7836910  42.0479810  76.0409530  28.7951880
  42.3733220  75.2073280  28.4554110  42.8360140  76.5638050  28.9430210
  38.7814600  70.0741010  14.8426940  38.1568780  70.0700880  15.5680250
  38.6944720  69.2071970  14.4462910  37.7031680  70.9977640  21.8210710
  38.0004010  71.9040470  21.7402730  38.2517240  70.5096420  21.2070280
  35.4570000  75.5763880  17.6902360  35.2310920  75.3601050  18.5948980
  34.6762530  76.0092340  17.3448330  42.6867760  75.5827250  16.2893010
  42.0876650  76.3063050  16.1056630  43.2347370  75.5204030  15.5069460
  37.8969210  76.4749460  28.3562630  37.8012810  75.5344190  28.2063030
  38.7401190  76.6964530  27.9610700  41.2932630  74.2190790  18.3196290
  41.6862200  74.5362990  17.5064980  41.6549480  73.3402670  18.4340810
  33.0279750  72.8863130  26.5096410  32.6343140  73.7338340  26.7169190
  32.3398150  72.2489500  26.7005050  30.3296800  70.8091590  20.5426490
  30.0409850  71.3794450  21.2551470  31.0742560  70.3296040  20.9057720
  30.5167030  74.7511710  11.7529210  30.4341700  75.6942470  11.8944200
  30.1650090  74.6086620  10.8741560  41.8787770  76.8096540  22.4147070
  41.1468890  77.3183350  22.7637170  41.4812110  75.9926520  22.1135850
  38.3165160  73.4850740  20.8199560  38.3201220  73.0440690  19.9704100
  39.2116280  73.8068070  20.9271380  34.1667540  73.3677230  19.7793770
  33.8267590  73.8452460  20.5360820  33.4044860  72.9142350  19.4194870
  38.3785310  74.4862820  13.8106320  38.4998130  74.4449300  14.7592140
  37.9933820  75.3486970  13.6553050  42.3413680  72.2630220  21.8270010
  42.3586420  72.7138870  22.6711860  42.0929260  71.3635860  22.0403450
  37.3906810  76.7963960  13.2089620  36.8223710  76.3482210  12.5825530
  38.0995810  77.1556740  12.6754770  32.4675990  80.6975980  27.0856350
  32.0830780  80.0569650  27.6839310  32.7788180  81.4012100  27.6551080
  38.6173130  77.5452520  22.5664970  38.9843260  77.0711090  23.3126310
  38.4278190  78.4194090  22.9073310  31.4813620  72.2896210  18.6958440
  31.1960540  71.9251880  19.5337060  31.4192480  71.5576670  18.0821580
  36.4072500  76.5861160  24.8849180  36.1029570  77.4653140  25.1099540
  37.3618960  76.6460950  24.9206620  34.9354290  80.7922150  15.4816030
  34.1616550  80.2519770  15.3214750  35.6648920  80.2728760  15.1433790
  45.6942270  79.7887510  21.2742420  46.4141390  80.2842800  20.8838530
  45.4924090  79.1105400  20.6296290  41.1552210  71.1825470  15.4171810
  40.3416820  70.6838640  15.3417120  40.9614160  72.0223720  15.0008160
  41.0761070  79.8596570  27.1611420  41.0098380  78.9392240  26.9069010
  40.4466210  79.9572010  27.8756060  43.8700600  75.5545120  13.7133970
  44.7580220  75.8662350  13.5385310  43.8405690  74.6817370  13.3214550
  34.9791690  80.4602530  19.1194840  35.4970360  79.6570790  19.0651730
  34.5275710  80.3981670  19.9611670  39.8661190  81.7268810  14.3922140
  40.2076890  82.4711040  13.8965460  39.0373900  82.0399930  14.7546970
  32.4636230  77.4263900  26.0320540  32.1051170  78.0917750  26.6193880
  32.1690790  76.5947450  26.4033160  35.6649350  77.8848140  28.9160090
  35.3649490  78.0305320  28.0187910  36.4360590  77.3253430  28.8233480
  41.0077800  82.6817140  26.9115220  41.0222340  81.7498100  26.6934130
  40.3002900  82.7676900  27.5504990  46.1414870  76.8656960  13.1813830
  46.0578590  77.2971180  12.3310270  46.8609060  77.3255310  13.6140650
  47.1702120  83.7199220  15.9095960  46.5278280  83.0654840  16.1839680
  46.7832780  84.1254310  15.1336630  42.7488600  81.0484650  19.7567650
  43.1012420  80.4512780  19.0969020  41.8650930  80.7228880  19.9275900
  38.8351880  81.8082340  17.1638060  39.5223010  82.3551550  17.5445650
  38.0484300  82.3523070  17.1987670  30.9744280  77.4255160  12.6555140
  31.8439130  77.7079960  12.9391060  30.4834600  78.2391030  12.5403950
  38.1379090  78.8128370  16.7763420  38.5941870  79.6233620  17.0023610
  37.7867300  78.4951510  17.6081910  40.4411700  84.3234710  24.0055720
  41.0853920  84.5294090  24.6829140  40.8041140  83.5623110  23.5526570
  34.0390870  69.1566020  17.2485940  33.9105500  69.1483920  18.1970860
  33.2152890  69.4949110  16.8976950  41.7143780  82.3267060  22.7233170
  42.3566010  81.6260220  22.8365340  42.2393130  83.1065500  22.5430060
  45.5599500  82.6115680  12.4472310  45.3337080  81.8946120  13.0396950
  45.1695700  82.3628120  11.6094060  43.4881400  83.1261960  25.9269230
  43.8237640  83.7128650  26.6047150  42.5681740  82.9954670  26.1567020
  31.3415530  86.6382540  13.2216770  31.7013170  87.2371880  12.5674040
  31.2007870  87.1842430  13.9951800  31.0384800  70.9157140  26.7092640
  30.3243320  71.1154060  27.3145250  31.4579840  70.1396710  27.0807440
  45.1415750  80.5287620  14.1086470  44.8537450  80.9900310  14.8964350
  45.9367920  80.0685390  14.3770690  31.3257390  84.9037400  27.6959170
  31.4348510  83.9632140  27.5554560  30.6737950  85.1692150  27.0472900
  39.3169980  83.1753290  29.0957290  38.9966850  82.4562530  29.6402980
  38.6428340  83.8508360  29.1693350  37.3584150  84.0213740  14.0390440
  37.3494250  84.7543430  13.4234950  36.4382510  83.7745320  14.1317400
  32.9590790  79.2428630  14.7837200  32.3518740  79.9827530  14.7932500
  33.4340140  79.3327990  13.9575400  42.5323580  73.4079450  24.4594090
  42.9004400  72.5874660  24.7873660  41.6721780  73.4681340  24.8749740
  45.8985610  72.3636390  15.2681650  45.2698770  72.4682060  14.5539880
  45.4037530  72.5833170  16.0575530  40.3443750  84.0841980  12.7015630
  40.4455730  83.8805970  11.7717610  39.4445490  83.8300260  12.9063410
  37.8669640  74.6422340  16.6839530  37.1585790  75.1108680  17.1253140
  38.1514120  73.9844350  17.3184720  39.4925570  76.0619040  24.6832060
  39.9910820  76.5364860  25.3483910  39.6348520  75.1382560  24.8902090
  41.8985070  71.3673000  18.1235320  41.7752850  71.3859130  17.1744830
  42.8469630  71.4151940  18.2433720  38.9861860  86.6028300  17.3963300
  39.2403360  86.5649690  16.4742670  38.0374340  86.4761630  17.3891550
  36.0704660  72.9507420  14.0590240  36.9195190  73.3877570  13.9930430
  35.7035930  73.2627680  14.8862300  44.9914440  77.5220180  18.9721810
  44.0504580  77.5370410  19.1469500  45.3058510  76.7356140  19.4182110
  34.9696080  79.2039780  12.5325770  35.7359350  79.0921140  13.0951200
  35.0470770  78.5077750  11.8802540  33.6642840  76.6364850  13.2158660
  33.7446430  75.6892360  13.3276060  34.5562590  76.9671730  13.3219320
  46.9940020  84.6929030  20.6476070  47.1187440  85.5160200  21.1199880
  47.8605580  84.4819760  20.3000220  34.4657550  86.7860240  20.3193200
  35.2020030  86.2375700  20.5901770  34.8498470  87.6516250  20.1799190
  31.3503030  82.8533810  16.1934710  30.4242810  83.0954950  16.1840120
  31.8159460  83.6808070  16.0719460  33.4715830  85.9706310  29.5078780
  34.2728560  86.2918360  29.9214180  32.9567650  85.6101890  30.2298690
  37.5759860  85.9590550  12.1418770  38.3688470  86.2479380  11.6900560
  37.0564210  85.5282720  11.4631250  42.3080460  82.0786180  29.4554190
  41.7018620  82.1017780  28.7149940  42.0034570  81.3469220  29.9921440
  43.7380830  85.8066470  28.0663600  44.6902580  85.7224490  28.0163840
  43.5909050  86.4708180  28.7397390  46.6290030  85.1860680  13.5655510
  46.3431540  84.7725820  12.7509690  46.4309580  86.1148390  13.4456030
  31.1913640  78.4579770  28.4514830  31.6952660  77.8787050  29.0231060
  30.4521060  78.7420000  28.9891200  38.0937260  81.1793960  12.0061120
  37.9887900  80.5646310  12.7322500  37.9261480  80.6559850  11.2224130
  38.2451580  79.8650760  27.9850350  37.4797250  80.4335760  27.9005020
  38.4267540  79.5726970  27.0918580  41.3339990  80.2413990  12.6103110
  40.7850090  80.6883290  13.2545850  41.9559250  79.7363240  13.1340780
  45.3874930  81.5956090  28.5425370  46.1284400  81.9331850  28.0392830
  44.6247610  81.7648150  27.9895140  33.2236720  76.6009360  29.3464900
  33.2642060  76.3023230  30.2550130  34.0782220  77.0016970  29.1872420
  37.0015110  79.2004910  14.5068410  37.4231530  79.0344780  15.3499800
  37.1265950  78.3905140  14.0123550  35.1642530  75.1801460  27.3139390
  34.6338990  74.6892410  26.6862730  35.8330600  75.6085660  26.7797320
  39.5142750  78.2242520  11.7545510  40.0348410  77.5091540  11.3886660
  40.1611150  78.8628390  12.0546020  44.0620590  79.6470920  27.0780580
  44.4761610  79.8016000  27.9271000  43.1271590  79.7726140  27.2406360
  44.5342760  76.9867080  29.0819730  45.1163530  76.2319400  28.9940210
  44.7104530  77.5174520  28.3051210  35.6514830  72.1463830  27.3936680
  35.5571700  71.5284580  26.6687550  35.0712220  72.8730120  27.1666590
  38.4176270  70.7037070  24.4264070  37.9693570  70.7261330  23.5809620
  37.7841470  70.3056090  25.0234370  38.8235820  79.5991400  25.0476510
  39.2423930  80.4424130  24.8752750  37.9044450  79.7363440  24.8183290
  41.1599720  77.3307580  26.4314350  41.2795930  76.7348720  27.1709190
  42.0193720  77.3677270  26.0115650  43.4987620  77.8844770  25.0076860
  42.9722840  78.4087390  24.4042000  43.8418960  78.5172160  25.6386590
  35.8974010  75.2738140  11.4526570  35.6963070  74.4105500  11.8139910
  35.7266060  75.1871500  10.5148170  36.6743240  85.9044410  26.1634240
  36.1364330  86.6290470  25.8442940  36.9277200  85.4274750  25.3731580
  37.9268490  73.8728930  27.6890170  38.5168180  73.5644780  28.3767990
  37.1088730  73.4008680  27.8450070  42.7461920  73.4894740  27.9223190
  42.0577440  72.8276280  27.8573180  43.4667940  73.0433010  28.3671650
  43.3762320  70.0846370  13.9813450  43.6564610  69.2414270  14.3372870
  42.6028050  70.3169480  14.4952200  34.6956810  72.3738760  11.4404450
  34.9982710  72.3806190  10.5323600  35.4351400  72.0236620  11.9372110
  39.5305450  87.1395620  26.4220890  39.4564150  88.0430760  26.7293260
  38.6284290  86.8207520  26.3942960  37.9141740  71.3173380  12.4260650
  37.5663740  70.6397370  11.8463100  38.1154510  70.8562890  13.2404040
  40.0790780  86.3054130  14.0447250  40.9741570  86.6439100  14.0666010
  40.1108410  85.5833540  13.4171530  33.7186940  81.6781180  12.2734250
  34.1561810  82.2210850  12.9291830  34.2034670  80.8528130  12.2830590
  30.9332740  84.4670210  19.7254510  31.2635750  83.5991270  19.4933150
  31.3623740  84.6728730  20.5559470  35.5294660  82.7979220  17.3856480
  35.2290200  82.6744190  18.2860390  35.4232150  81.9387810  16.9772210
  31.4222950  85.3340800  22.4636140  30.9853940  85.5141600  23.2960290
  31.9900630  86.0915420  22.3217860  48.2986580  82.5775620  12.0883160
  47.4679540  82.6452270  12.5590390  48.4758410  83.4679740  11.7850020
  47.7543040  79.3223100  14.5917360  48.5161950  79.8919750  14.6977050
  47.7697410  78.7550300  15.3625670  31.2547380  77.8461030  18.8225020
  30.5996220  77.5772670  18.1784720  32.0925330  77.7365510  18.3727000
  48.7603010  80.1773200  19.4359290  49.1311840  79.3940520  19.0295260
  49.4004940  80.8662300  19.2576590  45.7436770  81.5609780  24.8489610
  44.9296610  81.9906940  25.1115400  46.1510970  82.1728190  24.2358660
  47.8062210  79.6157470  11.7489880  48.0811050  80.5236350  11.6209100
  47.6172950  79.5520000  12.6851870  44.2037820  72.6402320  13.0443510
  44.6222700  72.4533300  12.2040170  43.8973880  71.7881370  13.3546440
  47.7027550  77.5526460  16.7419310  47.3271150  76.7854390  16.3100600
  46.9730670  77.9349160  17.2294240  32.2923310  78.2313600  23.3628360
  32.6596350  78.1441000  24.2424380  31.7234130  77.4680150  23.2635220
  31.8439310  75.1422690  27.2686780  30.9495360  75.1089450  27.6080490
  32.3836860  75.3409480  28.0338030  45.5315240  71.9254410  29.1538530
  46.4085420  71.9337810  29.5372530  45.5436080  71.1885250  28.5430880
  30.4685460  75.0559960  14.7650350  29.5649540  75.3190160  14.5902010
  30.9526080  75.3271130  13.9850310  46.9778510  75.7783950  20.0426550
  47.5015990  75.2846600  19.4116720  47.5637930  75.9134310  20.7874120
  33.0112670  74.1125500  12.6744730  33.7204370  73.6908720  12.1892010
  32.2952610  74.1800730  12.0428080  32.6586830  70.1664830  11.7147380
  33.3814960  70.7073770  12.0328600  32.9311350  69.8928250  10.8388920
  46.4678480  75.0357300  15.9818960  46.9637600  74.8028170  16.7667840
  46.2694550  74.1969140  15.5656600  32.3479020  69.4171020  21.6170000
  32.9955210  68.8668400  21.1765160  32.7680860  69.6714170  22.4385810
  47.8965640  73.6718250  18.5156640  47.7864920  73.5174290  19.4538910
  48.6573230  73.1439190  18.2732050  48.7855910  71.5026170  11.7562780
  49.7105220  71.3707350  11.5481070  48.7631700  71.5818990  12.7099230
  48.8594400  72.2736830  14.3819490  48.0645900  72.2081950  14.9112400
  49.0637680  73.2087470  14.3704840  45.8012820  86.3128380  18.3757880
  46.3971890  85.9912950  17.6992300  46.0590970  85.8400200  19.1671150
  32.1011020  69.5726690  24.3595320  31.7525840  70.0290510  25.1253500
  31.7698720  68.6783820  24.4417750  33.7075390  82.7446290  28.5248510
  33.6645020  82.3739200  29.4062970  33.8386400  83.6823860  28.6650330
  37.4081420  84.3005880  24.1258230  37.1672780  84.5680440  23.2388750
  38.3484060  84.4711610  24.1809090  39.6135840  70.7638570  27.8814740
  39.5524730  71.3560400  28.6310150  40.5536220  70.6564530  27.7365000
  42.2510400  70.4208630  27.5207030  42.8650810  70.7387920  26.8588110
  42.7959960  69.9357220  28.1402890  32.7731660  69.1002890  27.6346090
  33.3214650  68.9190940  26.8712200  32.8386970  68.3097000  28.1702400
  33.5463420  85.6908540  25.6446290  32.9523740  85.5593240  26.3836330
  33.5387260  84.8546680  25.1788390  42.9918440  68.9840770  23.8476320
  42.1178280  69.3175880  23.6449250  42.8829190  68.5113950  24.6728190
  43.8990420  71.1911640  25.2318040  43.5703780  70.3763400  24.8519770
  44.8472720  71.1481450  25.1083730  33.1775650  83.0566920  24.5954330
  32.4509710  82.4372210  24.5280280  33.2384800  83.4507530  23.7252410
  36.7820750  85.2711920  21.3803740  37.2985770  84.6599280  20.8552000
  37.4318130  85.7740700  21.8714750  39.5216250  86.1620410  22.2072720
  39.8094060  85.9074710  21.3305730  40.0339470  85.6097770  22.7978290
  40.7393260  69.9010610  22.7869230  39.9565050  70.3756110  23.0665990
  40.4456190  68.9965440  22.6782410  45.2914330  70.6033710  20.8318320
  45.7322420  70.5478810  19.9839920  45.0221920  71.5191720  20.9028500
  47.1552900  70.2348950  18.8427140  47.0941300  69.2910170  18.6958160
  47.9344930  70.3429040  19.3880600  31.4605650  86.3741310  17.8051090
  31.2927690  85.7411990  18.5032980  30.5940160  86.5800710  17.4545280
  32.0833670  70.2058090  15.3082950  32.8413030  70.3186970  14.7346980
  31.6210840  71.0427290  15.2626380  38.6247480  72.3197360  18.2985260
  37.8121990  71.9454250  17.9581140  39.1289120  71.5642440  18.6006450
  43.1272460  68.9839810  19.5368330  43.7301830  69.5560020  20.0116850
  42.3865450  69.5479250  19.3142230  46.2707060  69.3861370  14.8108610
  46.4657690  70.2844820  15.0776040  45.4836930  69.1548450  15.3041560
  33.0668350  85.0674540  15.2501230  32.5415970  85.4482570  14.5463190
  32.9912930  85.6925310  15.9710940  34.4558820  70.7322140  13.8484920
  34.9851580  69.9451940  13.7192870  35.0887140  71.4113330  14.0820450
  36.6496660  70.4697280  16.9030310  36.0199400  69.7684590  17.0700440
  36.1101800  71.2301410  16.6863470  39.5888610  87.0836510  29.5740920
  40.5155920  86.8480780  29.6176880  39.5739040  87.9108510  29.0926950
  47.8233670  86.6262080  16.5715170  47.9985860  85.9399820  15.9276090
  47.1255240  87.1509130  16.1791840  35.6661320  87.0156920  14.1250480
  36.3980140  86.7316200  13.5774370  35.9254990  86.7770200  15.0149860
  34.8276110  83.1321650  14.1296810  34.1984990  83.6006750  14.6782640
  34.9423940  82.2870870  14.5643000  43.3767680  69.1634840  29.9163270
  43.2633130  69.4829450  30.8114790  44.1937420  69.5647350  29.6200550
  46.1566170  86.3106370  29.3981960  46.9491490  85.8155600  29.1907920
  46.4499320  86.9896510  30.0057570  40.4143870  78.9606330   2.1607280
  39.6385970  78.4806770   2.4505850  41.0656800  78.2811980   1.9863440
  34.4309700  79.2726140   3.0383040  33.5994580  79.0174850   3.4379550
  35.0390680  79.3436910   3.7740960  34.4110960  83.3066230   3.2341060
  34.7139000  82.4163970   3.0551280  35.1554550  83.8636450   3.0063310
  30.8034660  76.8333680   2.7065130  31.3750770  76.0655880   2.7068770
  30.8036200  77.1322440   1.7971740  39.8552860  81.6363520   2.1677440
  39.7861140  80.6953460   2.0066570  40.6172720  81.7264930   2.7400010
  32.0459530  72.2418040   4.4934060  31.8662370  71.3443790   4.7736820
  31.6439610  72.7889910   5.1681010  32.6646200  74.7378540   3.1016400
  33.3456310  75.0016910   3.7203800  32.3494250  73.8979410   3.4354410
  36.8570770  75.7845900   2.1888990  37.3648990  76.2826870   2.8294010
  37.3884010  75.0081100   2.0128350  48.9581700  73.9551090   5.8918340
  48.2533870  74.3432800   5.3733450  49.2239620  74.6501380   6.4939270
  35.1406870  70.4244460   6.4552410  35.1425310  70.9416850   5.6498310
  34.3111180  69.9474640   6.4322340  36.3909720  80.0639640   4.6325910
  36.0579100  80.6908560   5.2746980  36.5676400  80.5901520   3.8527580
  44.9043630  73.8784720   2.1002250  44.1999200  74.1669610   2.6805360
  45.2655790  74.6884830   1.7401810  34.8222200  72.1354420   4.4622860
  35.1639010  72.9796470   4.1676730  33.8838010  72.2838160   4.5788200
  35.6028820  82.0320440   6.4475090  36.2202820  82.7071520   6.1659540
  34.7421940  82.4408420   6.3562590  46.5206410  83.4959850   4.3629730
  45.8369930  84.1658960   4.3546400  47.0600700  83.6940500   3.5974590
  47.9730550  73.3239510   2.4911460  47.0255460  73.3578490   2.6226890
  48.2980540  74.1378460   2.8760820  44.0565150  85.3403980   3.0774910
  44.0692310  84.9366270   2.2097170  43.5040370  86.1151270   2.9736340
  43.4550590  80.2433820   4.4057520  43.8719380  80.0293930   3.5710980
  44.1790410  80.5006610   4.9766140  47.4012690  78.6421040   4.4973760
  46.5731320  78.7114130   4.0223890  47.9963170  79.2275350   4.0289590
  44.3654700  75.4290360   5.4428630  43.9525880  76.2544070   5.6968620
  43.6330650  74.8435400   5.2504990  36.9669190  81.9017820   2.4686510
  36.6697480  81.2963290   1.7894290  37.9169010  81.9395130   2.3575870
  35.2116110  74.9893470   4.0846340  35.7630700  75.0988810   3.3099590
  35.7259620  75.3631070   4.8001570  45.0554800  85.4749690   6.1309610
  44.5785360  86.2821880   5.9382220  44.3716590  84.8228020   6.2835820
  36.0587620  81.6399510   9.1194310  35.1616150  81.8639480   9.3667710
  36.0840490  81.7634450   8.1705710  34.8858840  78.5112830   7.6951680
  34.7466610  79.3835630   8.0639080  34.0040200  78.1685640   7.5499620
  36.6839190  84.4534530   9.9036830  36.6554620  84.8577480   9.0365260
  36.5204160  83.5244890   9.7408430  48.6354010  85.2361630  11.2001000
  49.1113730  85.7144520  11.8790080  49.2561170  85.1679120  10.4746500
  30.8377490  80.2810380   3.6122590  30.9157910  80.4159150   2.6678310
  31.4519170  79.5726270   3.8050710  48.0387260  82.4274480   8.3601010
  48.1650320  82.1886360   7.4418190  48.0808640  81.5959020   8.8323090
  41.9004000  86.1302480   6.9295820  42.4148670  86.0410490   7.7318250
  41.0573080  86.4762180   7.2223730  47.8911270  74.4806940   9.3250750
  47.2755540  74.9886610   8.7966210  47.5707690  73.5805270   9.2676690
  30.8937010  81.3224550   6.1517050  31.0568050  80.8529910   5.3336420
  31.3589460  80.8148110   6.8165890  39.9525590  73.3198830   6.7912940
  39.4904960  73.5281850   7.6032880  39.5503700  72.5058180   6.4883610
  44.9530100  74.5407780   7.9209600  44.1023690  74.2413530   8.2418670
  44.7931890  74.7849790   7.0093420  42.0479810  76.0409530  10.0208390
  42.3733220  75.2073280   9.6810620  42.8360140  76.5638050  10.1686720
  37.7031680  70.9977640   3.0467220  38.0004010  71.9040470   2.9659240
  38.2517240  70.5096420   2.4326790  37.8969210  76.4749460   9.5819140
  37.8012810  75.5344190   9.4319540  38.7401190  76.6964530   9.1867210
  33.0279750  72.8863130   7.7352920  32.6343140  73.7338340   7.9425700
  32.3398150  72.2489500   7.9261560  39.6024800  72.9698100  10.8049660
  38.9123120  72.7770300  11.4395750  40.3457100  73.2532740  11.3373960
  30.3296800  70.8091590   1.7683000  30.0409850  71.3794450   2.4807980
  31.0742560  70.3296040   2.1314230  41.8787770  76.8096540   3.6403580
  41.1468890  77.3183350   3.9893680  41.4812110  75.9926520   3.3392360
  42.3413680  72.2630220   3.0526520  42.3586420  72.7138870   3.8968370
  42.0929260  71.3635860   3.2659960  45.7684430  69.6762400   8.8912900
  46.0930200  68.9452060   9.4170880  45.8040940  69.3576040   7.9893890
  32.4675990  80.6975980   8.3112860  32.0830780  80.0569650   8.9095820
  32.7788180  81.4012100   8.8807590  38.6173130  77.5452520   3.7921480
  38.9843260  77.0711090   4.5382820  38.4278190  78.4194090   4.1329820
  36.4072500  76.5861160   6.1105690  36.1029570  77.4653140   6.3356050
  37.3618960  76.6460950   6.1463130  45.6942270  79.7887510   2.4998930
  46.4141390  80.2842800   2.1095040  45.4924090  79.1105400   1.8552800
  41.0761070  79.8596570   8.3867930  41.0098380  78.9392240   8.1325520
  40.4466210  79.9572010   9.1012570  32.4636230  77.4263900   7.2577050
  32.1051170  78.0917750   7.8450390  32.1690790  76.5947450   7.6289670
  35.6649350  77.8848140  10.1416600  35.3649490  78.0305320   9.2444420
  36.4360590  77.3253430  10.0489990  41.0077800  82.6817140   8.1371730
  41.0222340  81.7498100   7.9190640  40.3002900  82.7676900   8.7761500
  47.2189010  79.3224480   7.4840310  46.4937200  79.9153260   7.2869700
  47.7464470  79.3148020   6.6853680  40.4411700  84.3234710   5.2312230
  41.0853920  84.5294090   5.9085650  40.8041140  83.5623110   4.7783080
  41.7143780  82.3267060   3.9489680  42.3566010  81.6260220   4.0621850
  42.2393130  83.1065500   3.7686570  43.4881400  83.1261960   7.1525740
  43.8237640  83.7128650   7.8303660  42.5681740  82.9954670   7.3823530
  31.0384800  70.9157140   7.9349150  30.3243320  71.1154060   8.5401760
  31.4579840  70.1396710   8.3063950  31.3257390  84.9037400   8.9215680
  31.4348510  83.9632140   8.7811070  30.6737950  85.1692150   8.2729410
  39.3169980  83.1753290  10.3213800  38.9966850  82.4562530  10.8659490
  38.6428340  83.8508360  10.3949860  42.5323580  73.4079450   5.6850600
  42.9004400  72.5874660   6.0130170  41.6721780  73.4681340   6.1006250
  39.4925570  76.0619040   5.9088570  39.9910820  76.5364860   6.5740420
  39.6348520  75.1382560   6.1158600  46.6992430  72.2787000   6.7516960
  46.1966030  73.0192400   7.0910770  47.5149090  72.6671000   6.4353750
  33.4715830  85.9706310  10.7335290  34.2728560  86.2918360  11.1470690
  32.9567650  85.6101890  11.4555200  42.3080460  82.0786180  10.6810700
  41.7018620  82.1017780   9.9406450  42.0034570  81.3469220  11.2177950
  43.7380830  85.8066470   9.2920110  44.6902580  85.7224490   9.2420350
  43.5909050  86.4708180   9.9653900  31.1913640  78.4579770   9.6771340
  31.6952660  77.8787050  10.2487570  30.4521060  78.7420000  10.2147710
  38.2451580  79.8650760   9.2106860  37.4797250  80.4335760   9.1261530
  38.4267540  79.5726970   8.3175090  45.3874930  81.5956090   9.7681880
  46.1284400  81.9331850   9.2649340  44.6247610  81.7648150   9.2151650
  33.2236720  76.6009360  10.5721410  33.2642060  76.3023230  11.4806640
  34.0782220  77.0016970  10.4128930  35.1642530  75.1801460   8.5395900
  34.6338990  74.6892410   7.9119240  35.8330600  75.6085660   8.0053830
  44.0620590  79.6470920   8.3037090  44.4761610  79.8016000   9.1527510
  43.1271590  79.7726140   8.4662870  44.5342760  76.9867080  10.3076240
  45.1163530  76.2319400  10.2196720  44.7104530  77.5174520   9.5307720
  35.6514830  72.1463830   8.6193190  35.5571700  71.5284580   7.8944060
  35.0712220  72.8730120   8.3923100  38.4176270  70.7037070   5.6520580
  37.9693570  70.7261330   4.8066130  37.7841470  70.3056090   6.2490880
  38.8235820  79.5991400   6.2733020  39.2423930  80.4424130   6.1009260
  37.9044450  79.7363440   6.0439800  41.1599720  77.3307580   7.6570860
  41.2795930  76.7348720   8.3965700  42.0193720  77.3677270   7.2372160
  43.4987620  77.8844770   6.2333370  42.9722840  78.4087390   5.6298510
  43.8418960  78.5172160   6.8643100  36.6743240  85.9044410   7.3890750
  36.1364330  86.6290470   7.0699450  36.9277200  85.4274750   6.5988090
  37.9268490  73.8728930   8.9146680  38.5168180  73.5644780   9.6024500
  37.1088730  73.4008680   9.0706580  42.7461920  73.4894740   9.1479700
  42.0577440  72.8276280   9.0829690  43.4667940  73.0433010   9.5928160
  39.5305450  87.1395620   7.6477400  39.4564150  88.0430760   7.9549770
  38.6284290  86.8207520   7.6199470  31.4222950  85.3340800   3.6892650
  30.9853940  85.5141600   4.5216800  31.9900630  86.0915420   3.5474370
  47.0585130  84.8357800   7.9769960  46.4587120  84.8950360   7.2333880
  47.1879030  83.8962780   8.1066810  45.7436770  81.5609780   6.0746120
  44.9296610  81.9906940   6.3371910  46.1510970  82.1728190   5.4615170
  32.2923310  78.2313600   4.5884870  32.6596350  78.1441000   5.4680890
  31.7234130  77.4680150   4.4891730  47.0927170  76.6997980   7.6015340
  46.8613260  76.4710730   6.7013290  47.3531720  77.6197530   7.5560230
  31.8439310  75.1422690   8.4943290  30.9495360  75.1089450   8.8337000
  32.3836860  75.3409480   9.2594540  45.5315240  71.9254410  10.3795040
  46.4085420  71.9337810  10.7629040  45.5436080  71.1885250   9.7687390
  47.1568230  75.8623820   4.7902610  46.2070940  75.8287360   4.9047600
  47.3381240  76.7723930   4.5552380  32.3479020  69.4171020   2.8426510
  32.9955210  68.8668400   2.4021670  32.7680860  69.6714170   3.6642320
  46.2431360  69.6112380   6.1996150  46.8803580  70.2246520   6.5655340
  46.3906250  69.6473040   5.2545380  32.1011020  69.5726690   5.5851830
  31.7525840  70.0290510   6.3510010  31.7698720  68.6783820   5.6674260
  33.7075390  82.7446290   9.7505020  33.6645020  82.3739200  10.6319480
  33.8386400  83.6823860   9.8906840  37.4081420  84.3005880   5.3514740
  37.1672780  84.5680440   4.4645260  38.3484060  84.4711610   5.4065600
  39.6135840  70.7638570   9.1071250  39.5524730  71.3560400   9.8566660
  40.5536220  70.6564530   8.9621510  42.2510400  70.4208630   8.7463540
  42.8650810  70.7387920   8.0844620  42.7959960  69.9357220   9.3659400
  48.6685580  86.3200260   6.1525380  48.1743860  86.7169130   5.4352510
  48.0598870  85.6949470   6.5462660  32.7731660  69.1002890   8.8602600
  33.3214650  68.9190940   8.0968710  32.8386970  68.3097000   9.3958910
  33.5463420  85.6908540   6.8702800  32.9523740  85.5593240   7.6092840
  33.5387260  84.8546680   6.4044900  42.9918440  68.9840770   5.0732830
  42.1178280  69.3175880   4.8705760  42.8829190  68.5113950   5.8984700
  43.8990420  71.1911640   6.4574550  43.5703780  70.3763400   6.0776280
  44.8472720  71.1481450   6.3340240  46.3525030  86.9623680   3.4312120
  45.8928000  87.7139490   3.0570140  45.7237490  86.2430150   3.3726920
  33.1775650  83.0566920   5.8210840  32.4509710  82.4372210   5.7536790
  33.2384800  83.4507530   4.9508920  36.7820750  85.2711920   2.6060250
  37.2985770  84.6599280   2.0808510  37.4318130  85.7740700   3.0971260
  39.5216250  86.1620410   3.4329230  39.8094060  85.9074710   2.5562240
  40.0339470  85.6097770   4.0234800  40.7393260  69.9010610   4.0125740
  39.9565050  70.3756110   4.2922500  40.4456190  68.9965440   3.9038920
  39.5888610  87.0836510  10.7997430  40.5155920  86.8480780  10.8433390
  39.5739040  87.9108510  10.3183460  36.7752220  69.7481260  10.5639310
  36.4936490  70.2514860   9.8000130  37.1571920  68.9503010  10.1981440
  43.3767680  69.1634840  11.1419780  43.2633130  69.4829450  12.0371300
  44.1937420  69.5647350  10.8457060  46.1566170  86.3106370  10.6238470
  46.9491490  85.8155600  10.4164430  46.4499320  86.9896510  11.2314080
  42.2825830  58.4083820 150.4745930  42.2019880  57.4938430 150.2037640
  41.8690250  58.9050890 149.7685640  44.4351300  64.5923030 151.1354330
  43.9732830  63.8210270 151.4641500  45.2476850  64.6189100 151.6406780
  32.8401650  55.4584540 147.0173350  31.9518350  55.8000510 146.9153230
  33.1242840  55.2584860 146.1254180  40.6614610  66.8781040 150.7558320
  40.0426050  67.3338540 150.1852760  41.5166390  67.0332500 150.3548020
  35.0163040  54.0416040 148.0511730  35.1229790  54.9419770 148.3580490
  34.1055400  53.9934010 147.7606380  44.6682150  53.1640850 149.5222630
  45.4891770  52.6737420 149.5648110  44.7016230  53.7538510 150.2754470
  41.5277960  61.7620280 148.1490230  40.9095230  62.2269730 147.5852950
  42.0401210  62.4547760 148.5659740  30.8961160  62.4476810 145.5229860
  30.5189140  62.9363910 144.7914760  31.1534230  63.1202090 146.1536390
  38.5050090  50.8493200 150.9815370  38.8125070  50.2940090 150.2650870
  37.5750790  50.9837660 150.7988360  45.3510570  63.2876710 148.3613000
  45.2406900  62.3451040 148.4862420  45.3478820  63.6492350 149.2475760
  40.8930850  58.9142030 147.7175490  39.9660130  58.8479410 147.9463960
  41.0455670  59.8522160 147.6030730  40.8799930  55.1859030 144.7142650
  39.9403600  55.3472990 144.7995110  41.1983190  55.9044710 144.1678640
  44.9228140  60.4762330 148.2210740  44.3040560  60.1381880 147.5737040
  44.9052590  59.8322090 148.9289930  36.4987490  59.4406770 150.4995220
  36.0944490  58.7284020 150.0041120  36.5850610  59.0960010 151.3883260
  43.0992840  59.7149140 145.2283490  43.5386120  58.8771570 145.0821310
  43.8121260  60.3478540 145.3147630  41.2088220  64.6545210 149.1964730
  41.6484130  65.3969540 148.7820120  41.1475110  64.8971780 150.1203690
  46.6809980  50.9691950 143.5424530  46.3682640  51.0618780 144.4423600
  47.4422450  51.5472980 143.4921960  33.1992120  58.3351750 148.0001870
  33.0789720  59.0613840 147.3883140  32.8893010  57.5654660 147.5229780
  32.0825120  63.2067080 150.2176690  31.6753200  63.3481670 149.3630290
  32.9738130  62.9227240 150.0147900  43.8758400  67.6414330 146.5527740
  43.7159540  67.3517270 147.4509570  43.7105110  66.8654460 146.0172970
  36.3546780  67.4212860 148.3299360  36.1789260  66.5048400 148.1167160
  35.5002520  67.7800150 148.5697160  43.5784530  65.1501890 145.1125740
  42.8849690  65.1479180 144.4528020  44.3207390  64.7261210 144.6819910
  43.1434460  66.7764600 149.1874230  43.5991410  65.9953980 149.5012850
  43.4826980  67.4871420 149.7315410  35.6655780  51.6786820 151.3825540
  35.2223930  52.4596360 151.0510060  36.2240770  52.0016710 152.0896480
  38.7814600  51.2997520 146.2631370  38.1568780  51.2957390 146.9884680
  38.6944720  50.4328480 145.8667340  35.4570000  56.8020390 149.1106790
  35.2310920  56.5857560 150.0153410  34.6762530  57.2348850 148.7652760
  42.6867760  56.8083760 147.7097440  42.0876650  57.5319560 147.5261060
  43.2347370  56.7460540 146.9273890  41.2932630  55.4447300 149.7400720
  41.6862200  55.7619500 148.9269410  41.6549480  54.5659180 149.8545240
  30.5167030  55.9768220 143.1733640  30.4341700  56.9198980 143.3148630
  30.1650090  55.8343130 142.2945990  38.3165160  54.7107250 152.2403990
  38.3201220  54.2697200 151.3908530  39.2116280  55.0324580 152.3475810
  34.1667540  54.5933740 151.1998200  33.8267590  55.0708970 151.9565250
  33.4044860  54.1398860 150.8399300  38.3785310  55.7119330 145.2310750
  38.4998130  55.6705810 146.1796570  37.9933820  56.5743480 145.0757480
  37.3906810  58.0220470 144.6294050  36.8223710  57.5738720 144.0029960
  38.0995810  58.3813250 144.0959200  31.4813620  53.5152720 150.1162870
  31.1960540  53.1508390 150.9541490  31.4192480  52.7833180 149.5026010
  34.9354290  62.0178660 146.9020460  34.1616550  61.4776280 146.7419180
  35.6648920  61.4985270 146.5638220  41.1552210  52.4081980 146.8376240
  40.3416820  51.9095150 146.7621550  40.9614160  53.2480230 146.4212590
  43.8700600  56.7801630 145.1338400  44.7580220  57.0918860 144.9589740
  43.8405690  55.9073880 144.7418980  34.9791690  61.6859040 150.5399270
  35.4970360  60.8827300 150.4856160  34.5275710  61.6238180 151.3816100
  39.8661190  62.9525320 145.8126570  40.2076890  63.6967550 145.3169890
  39.0373900  63.2656440 146.1751400  46.1414870  58.0913470 144.6018260
  46.0578590  58.5227690 143.7514700  46.8609060  58.5511820 145.0345080
  47.1702120  64.9455730 147.3300390  46.5278280  64.2911350 147.6044110
  46.7832780  65.3510820 146.5541060  42.7488600  62.2741160 151.1772080
  43.1012420  61.6769290 150.5173450  41.8650930  61.9485390 151.3480330
  38.8351880  63.0338850 148.5842490  39.5223010  63.5808060 148.9650080
  38.0484300  63.5779580 148.6192100  30.9744280  58.6511670 144.0759570
  31.8439130  58.9336470 144.3595490  30.4834600  59.4647540 143.9608380
  38.1379090  60.0384880 148.1967850  38.5941870  60.8490130 148.4228040
  37.7867300  59.7208020 149.0286340  34.0390870  50.3822530 148.6690370
  33.9105500  50.3740430 149.6175290  33.2152890  50.7205620 148.3181380
  45.5599500  63.8372190 143.8676740  45.3337080  63.1202630 144.4601380
  45.1695700  63.5884630 143.0298490  31.3415530  67.8639050 144.6421200
  31.7013170  68.4628390 143.9878470  31.2007870  68.4098940 145.4156230
  45.1415750  61.7544130 145.5290900  44.8537450  62.2156820 146.3168780
  45.9367920  61.2941900 145.7975120  37.3584150  65.2470250 145.4594870
  37.3494250  65.9799940 144.8439380  36.4382510  65.0001830 145.5521830
  32.9590790  60.4685140 146.2041630  32.3518740  61.2084040 146.2136930
  33.4340140  60.5584500 145.3779830  45.8985610  53.5892900 146.6886080
  45.2698770  53.6938570 145.9744310  45.4037530  53.8089680 147.4779960
  40.3443750  65.3098490 144.1220060  40.4455730  65.1062480 143.1922040
  39.4445490  65.0556770 144.3267840  37.8669640  55.8678850 148.1043960
  37.1585790  56.3365190 148.5457570  38.1514120  55.2100860 148.7389150
  41.8985070  52.5929510 149.5439750  41.7752850  52.6115640 148.5949260
  42.8469630  52.6408450 149.6638150  38.9861860  67.8284810 148.8167730
  39.2403360  67.7906200 147.8947100  38.0374340  67.7018140 148.8095980
  36.0704660  54.1763930 145.4794670  36.9195190  54.6134080 145.4134860
  35.7035930  54.4884190 146.3066730  44.9914440  58.7476690 150.3926240
  44.0504580  58.7626920 150.5673930  45.3058510  57.9612650 150.8386540
  34.9696080  60.4296290 143.9530200  35.7359350  60.3177650 144.5155630
  35.0470770  59.7334260 143.3006970  33.6642840  57.8621360 144.6363090
  33.7446430  56.9148870 144.7480490  34.5562590  58.1928240 144.7423750
  34.4657550  68.0116750 151.7397630  35.2020030  67.4632210 152.0106200
  34.8498470  68.8772760 151.6003620  31.3503030  64.0790320 147.6139140
  30.4242810  64.3211460 147.6044550  31.8159460  64.9064580 147.4923890
  37.5759860  67.1847060 143.5623200  38.3688470  67.4735890 143.1104990
  37.0564210  66.7539230 142.8835680  46.6290030  66.4117190 144.9859940
  46.3431540  65.9982330 144.1714120  46.4309580  67.3404900 144.8660460
  38.0937260  62.4050470 143.4265550  37.9887900  61.7902820 144.1526930
  37.9261480  61.8816360 142.6428560  41.3339990  61.4670500 144.0307540
  40.7850090  61.9139800 144.6750280  41.9559250  60.9619750 144.5545210
  37.0015110  60.4261420 145.9272840  37.4231530  60.2601290 146.7704230
  37.1265950  59.6161650 145.4327980  39.5142750  59.4499030 143.1749940
  40.0348410  58.7348050 142.8091090  40.1611150  60.0884900 143.4750450
  35.8974010  56.4994650 142.8731000  35.6963070  55.6362010 143.2344340
  35.7266060  56.4128010 141.9352600  43.3762320  51.3102880 145.4017880
  43.6564610  50.4670780 145.7577300  42.6028050  51.5425990 145.9156630
  34.6956810  53.5995270 142.8608880  34.9982710  53.6062700 141.9528030
  35.4351400  53.2493130 143.3576540  37.9141740  52.5429890 143.8465080
  37.5663740  51.8653880 143.2667530  38.1154510  52.0819400 144.6608470
  40.0790780  67.5310640 145.4651680  40.9741570  67.8695610 145.4870440
  40.1108410  66.8090050 144.8375960  33.7186940  62.9037690 143.6938680
  34.1561810  63.4467360 144.3496260  34.2034670  62.0784640 143.7035020
  30.9332740  65.6926720 151.1458940  31.2635750  64.8247780 150.9137580
  31.3623740  65.8985240 151.9763900  35.5294660  64.0235730 148.8060910
  35.2290200  63.9000700 149.7064820  35.4232150  63.1644320 148.3976640
  48.2986580  63.8032130 143.5087590  47.4679540  63.8708780 143.9794820
  48.4758410  64.6936250 143.2054450  47.7543040  60.5479610 146.0121790
  48.5161950  61.1176260 146.1181480  47.7697410  59.9806810 146.7830100
  31.2547380  59.0717540 150.2429450  30.5996220  58.8029180 149.5989150
  32.0925330  58.9622020 149.7931430  48.7603010  61.4029710 150.8563720
  49.1311840  60.6197030 150.4499690  49.4004940  62.0918810 150.6781020
  47.8062210  60.8413980 143.1694310  48.0811050  61.7492860 143.0413530
  47.6172950  60.7776510 144.1056300  44.2037820  53.8658830 144.4647940
  44.6222700  53.6789810 143.6244600  43.8973880  53.0137880 144.7750870
  47.7027550  58.7782970 148.1623740  47.3271150  58.0110900 147.7305030
  46.9730670  59.1605670 148.6498670  30.4685460  56.2816470 146.1854780
  29.5649540  56.5446670 146.0106440  30.9526080  56.5527640 145.4054740
  46.9778510  57.0040460 151.4630980  47.5015990  56.5103110 150.8321150
  47.5637930  57.1390820 152.2078550  33.0112670  55.3382010 144.0949160
  33.7204370  54.9165230 143.6096440  32.2952610  55.4057240 143.4632510
  32.6586830  51.3921340 143.1351810  33.3814960  51.9330280 143.4533030
  32.9311350  51.1184760 142.2593350  46.4678480  56.2613810 147.4023390
  46.9637600  56.0284680 148.1872270  46.2694550  55.4225650 146.9861030
  47.8965640  54.8974760 149.9361070  47.7864920  54.7430800 150.8743340
  48.6573230  54.3695700 149.6936480  48.7855910  52.7282680 143.1767210
  49.7105220  52.5963860 142.9685500  48.7631700  52.8075500 144.1303660
  48.8594400  53.4993340 145.8023920  48.0645900  53.4338460 146.3316830
  49.0637680  54.4343980 145.7909270  45.8012820  67.5384890 149.7962310
  46.3971890  67.2169460 149.1196730  46.0590970  67.0656710 150.5875580
  45.2914330  51.8290220 152.2522750  45.7322420  51.7735320 151.4044350
  45.0221920  52.7448230 152.3232930  47.1552900  51.4605460 150.2631570
  47.0941300  50.5166680 150.1162590  47.9344930  51.5685550 150.8085030
  31.4605650  67.5997820 149.2255520  31.2927690  66.9668500 149.9237410
  30.5940160  67.8057220 148.8749710  32.0833670  51.4314600 146.7287380
  32.8413030  51.5443480 146.1551410  31.6210840  52.2683800 146.6830810
  38.6247480  53.5453870 149.7189690  37.8121990  53.1710760 149.3785570
  39.1289120  52.7898950 150.0210880  43.1272460  50.2096320 150.9572760
  43.7301830  50.7816530 151.4321280  42.3865450  50.7735760 150.7346660
  46.2707060  50.6117880 146.2313040  46.4657690  51.5101330 146.4980470
  45.4836930  50.3804960 146.7245990  33.0668350  66.2931050 146.6705660
  32.5415970  66.6739080 145.9667620  32.9912930  66.9181820 147.3915370
  34.4558820  51.9578650 145.2689350  34.9851580  51.1708450 145.1397300
  35.0887140  52.6369840 145.5024880  36.6496660  51.6953790 148.3234740
  36.0199400  50.9941100 148.4904870  36.1101800  52.4557920 148.1067900
  47.8233670  67.8518590 147.9919600  47.9985860  67.1656330 147.3480520
  47.1255240  68.3765640 147.5996270  35.6661320  68.2413430 145.5454910
  36.3980140  67.9572710 144.9978800  35.9254990  68.0026710 146.4354290
  34.8276110  64.3578160 145.5501240  34.1984990  64.8263260 146.0987070
  34.9423940  63.5127380 145.9847430  42.2825830  58.4083820 131.7002440
  42.2019880  57.4938430 131.4294150  41.8690250  58.9050890 130.9942150
  40.4143870  60.1862840 133.5811710  39.6385970  59.7063280 133.8710280
  41.0656800  59.5068490 133.4067870  34.4309700  60.4982650 134.4587470
  33.5994580  60.2431360 134.8583980  35.0390680  60.5693420 135.1945390
  44.4351300  64.5923030 132.3610840  43.9732830  63.8210270 132.6898010
  45.2476850  64.6189100 132.8663290  34.4110960  64.5322740 134.6545490
  34.7139000  63.6420480 134.4755710  35.1554550  65.0892960 134.4267740
  32.8401650  55.4584540 128.2429860  31.9518350  55.8000510 128.1409740
  33.1242840  55.2584860 127.3510690  30.8034660  58.0590190 134.1269560
  31.3750770  57.2912390 134.1273200  30.8036200  58.3578950 133.2176170
  40.6614610  66.8781040 131.9814830  40.0426050  67.3338540 131.4109270
  41.5166390  67.0332500 131.5804530  39.8552860  62.8620030 133.5881870
  39.7861140  61.9209970 133.4271000  40.6172720  62.9521440 134.1604440
  32.0459530  53.4674550 135.9138490  31.8662370  52.5700300 136.1941250
  31.6439610  54.0146420 136.5885440  40.8858030  55.6690410 133.8150800
  41.2622850  54.7962290 133.7024470  40.7877540  56.0049110 132.9241240
  35.0163040  54.0416040 129.2768240  35.1229790  54.9419770 129.5837000
  34.1055400  53.9934010 128.9862890  44.6682150  53.1640850 130.7479140
  45.4891770  52.6737420 130.7904620  44.7016230  53.7538510 131.5010980
  32.6646200  55.9635050 134.5220830  33.3456310  56.2273420 135.1408230
  32.3494250  55.1235920 134.8558840  36.8570770  57.0102410 133.6093420
  37.3648990  57.5083380 134.2498440  37.3884010  56.2337610 133.4332780
  48.9581700  55.1807600 137.3122770  48.2533870  55.5689310 136.7937880
  49.2239620  55.8757890 137.9143700  35.1406870  51.6500970 137.8756840
  35.1425310  52.1673360 137.0702740  34.3111180  51.1731150 137.8526770
  41.5277960  61.7620280 129.3746740  40.9095230  62.2269730 128.8109460
  42.0401210  62.4547760 129.7916250  36.3909720  61.2896150 136.0530340
  36.0579100  61.9165070 136.6951410  36.5676400  61.8158030 135.2732010
  44.9043630  55.1041230 133.5206680  44.1999200  55.3926120 134.1009790
  45.2655790  55.9141340 133.1606240  34.8222200  53.3610930 135.8827290
  35.1639010  54.2052980 135.5881160  33.8838010  53.5094670 135.9992630
  35.6028820  63.2576950 137.8679520  36.2202820  63.9328030 137.5863970
  34.7421940  63.6664930 137.7767020  30.8961160  62.4476810 126.7486370
  30.5189140  62.9363910 126.0171270  31.1534230  63.1202090 127.3792900
  46.5206410  64.7216360 135.7834160  45.8369930  65.3915470 135.7750830
  47.0600700  64.9197010 135.0179020  47.9730550  54.5496020 133.9115890
  47.0255460  54.5835000 134.0431320  48.2980540  55.3634970 134.2965250
  38.5050090  50.8493200 132.2071880  38.8125070  50.2940090 131.4907380
  37.5750790  50.9837660 132.0244870  44.0565150  66.5660490 134.4979340
  44.0692310  66.1622780 133.6301600  43.5040370  67.3407780 134.3940770
  45.3510570  63.2876710 129.5869510  45.2406900  62.3451040 129.7118930
  45.3478820  63.6492350 130.4732270  43.4550590  61.4690330 135.8261950
  43.8719380  61.2550440 134.9915410  44.1790410  61.7263120 136.3970570
  40.8930850  58.9142030 128.9432000  39.9660130  58.8479410 129.1720470
  41.0455670  59.8522160 128.8287240  40.8799930  55.1859030 125.9399160
  39.9403600  55.3472990 126.0251620  41.1983190  55.9044710 125.3935150
  47.4012690  59.8677550 135.9178190  46.5731320  59.9370640 135.4428320
  47.9963170  60.4531860 135.4494020  44.9228140  60.4762330 129.4467250
  44.3040560  60.1381880 128.7993550  44.9052590  59.8322090 130.1546440
  44.3654700  56.6546870 136.8633060  43.9525880  57.4800580 137.1173050
  43.6330650  56.0691910 136.6709420  36.4987490  59.4406770 131.7251730
  36.0944490  58.7284020 131.2297630  36.5850610  59.0960010 132.6139770
  36.9669190  63.1274330 133.8890940  36.6697480  62.5219800 133.2098720
  37.9169010  63.1651640 133.7780300  35.2116110  56.2149980 135.5050770
  35.7630700  56.3245320 134.7304020  35.7259620  56.5887580 136.2206000
  45.0554800  66.7006200 137.5514040  44.5785360  67.5078390 137.3586650
  44.3716590  66.0484530 137.7040250  36.0587620  62.8656020 140.5398740
  35.1616150  63.0895990 140.7872140  36.0840490  62.9890960 139.5910140
  43.0992840  59.7149140 126.4540000  43.5386120  58.8771570 126.3077820
  43.8121260  60.3478540 126.5404140  34.8858840  59.7369340 139.1156110
  34.7466610  60.6092140 139.4843510  34.0040200  59.3942150 138.9704050
  36.6839190  65.6791040 141.3241260  36.6554620  66.0833990 140.4569690
  36.5204160  64.7501400 141.1612860  46.6809980  50.9691950 124.7681040
  46.3682640  51.0618780 125.6680110  47.4422450  51.5472980 124.7178470
  33.1992120  58.3351750 129.2258380  33.0789720  59.0613840 128.6139650
  32.8893010  57.5654660 128.7486290  48.6354010  66.4618140 142.6205430
  49.1113730  66.9401030 143.2994510  49.2561170  66.3935630 141.8950930
  30.8377490  61.5066890 135.0327020  30.9157910  61.6415660 134.0882740
  31.4519170  60.7982780 135.2255140  32.0825120  63.2067080 131.4433200
  31.6753200  63.3481670 130.5886800  32.9738130  62.9227240 131.2404410
  48.0387260  63.6530990 139.7805440  48.1650320  63.4142870 138.8622620
  48.0808640  62.8215530 140.2527520  41.9004000  67.3558990 138.3500250
  42.4148670  67.2667000 139.1522680  41.0573080  67.7018690 138.6428160
  36.3546780  67.4212860 129.5555870  36.1789260  66.5048400 129.3423670
  35.5002520  67.7800150 129.7953670  47.8911270  55.7063450 140.7455180
  47.2755540  56.2143120 140.2170640  47.5707690  54.8061780 140.6881120
  30.8937010  62.5481060 137.5721480  31.0568050  62.0786420 136.7540850
  31.3589460  62.0404620 138.2370320  35.6655780  51.6786820 132.6082050
  35.2223930  52.4596360 132.2766570  36.2240770  52.0016710 133.3152990
  39.9525590  54.5455340 138.2117370  39.4904960  54.7538360 139.0237310
  39.5503700  53.7314690 137.9088040  44.9530100  55.7664290 139.3414030
  44.1023690  55.4670040 139.6623100  44.7931890  56.0106300 138.4297850
  42.0479810  57.2666040 141.4412820  42.3733220  56.4329790 141.1015050
  42.8360140  57.7894560 141.5891150  38.7814600  51.2997520 127.4887880
  38.1568780  51.2957390 128.2141190  38.6944720  50.4328480 127.0923850
  37.7031680  52.2234150 134.4671650  38.0004010  53.1296980 134.3863670
  38.2517240  51.7352930 133.8531220  35.4570000  56.8020390 130.3363300
  35.2310920  56.5857560 131.2409920  34.6762530  57.2348850 129.9909270
  42.6867760  56.8083760 128.9353950  42.0876650  57.5319560 128.7517570
  43.2347370  56.7460540 128.1530400  37.8969210  57.7005970 141.0023570
  37.8012810  56.7600700 140.8523970  38.7401190  57.9221040 140.6071640
  41.2932630  55.4447300 130.9657230  41.6862200  55.7619500 130.1525920
  41.6549480  54.5659180 131.0801750  33.0279750  54.1119640 139.1557350
  32.6343140  54.9594850 139.3630130  32.3398150  53.4746010 139.3465990
  39.6024800  54.1954610 142.2254090  38.9123120  54.0026810 142.8600180
  40.3457100  54.4789250 142.7578390  30.3296800  52.0348100 133.1887430
  30.0409850  52.6050960 133.9012410  31.0742560  51.5552550 133.5518660
  30.5167030  55.9768220 124.3990150  30.4341700  56.9198980 124.5405140
  30.1650090  55.8343130 123.5202500  41.8787770  58.0353050 135.0608010
  41.1468890  58.5439860 135.4098110  41.4812110  57.2183030 134.7596790
  38.3165160  54.7107250 133.4660500  38.3201220  54.2697200 132.6165040
  39.2116280  55.0324580 133.5732320  34.1667540  54.5933740 132.4254710
  33.8267590  55.0708970 133.1821760  33.4044860  54.1398860 132.0655810
  38.3785310  55.7119330 126.4567260  38.4998130  55.6705810 127.4053080
  37.9933820  56.5743480 126.3013990  42.3413680  53.4886730 134.4730950
  42.3586420  53.9395380 135.3172800  42.0929260  52.5892370 134.6864390
  37.3906810  58.0220470 125.8550560  36.8223710  57.5738720 125.2286470
  38.0995810  58.3813250 125.3215710  45.7684430  50.9018910 140.3117330
  46.0930200  50.1708570 140.8375310  45.8040940  50.5832550 139.4098320
  32.4675990  61.9232490 139.7317290  32.0830780  61.2826160 140.3300250
  32.7788180  62.6268610 140.3012020  38.6173130  58.7709030 135.2125910
  38.9843260  58.2967600 135.9587250  38.4278190  59.6450600 135.5534250
  31.4813620  53.5152720 131.3419380  31.1960540  53.1508390 132.1798000
  31.4192480  52.7833180 130.7282520  36.4072500  57.8117670 137.5310120
  36.1029570  58.6909650 137.7560480  37.3618960  57.8717460 137.5667560
  34.9354290  62.0178660 128.1276970  34.1616550  61.4776280 127.9675690
  35.6648920  61.4985270 127.7894730  45.6942270  61.0144020 133.9203360
  46.4141390  61.5099310 133.5299470  45.4924090  60.3361910 133.2757230
  41.1552210  52.4081980 128.0632750  40.3416820  51.9095150 127.9878060
  40.9614160  53.2480230 127.6469100  41.0761070  61.0853080 139.8072360
  41.0098380  60.1648750 139.5529950  40.4466210  61.1828520 140.5217000
  43.8700600  56.7801630 126.3594910  44.7580220  57.0918860 126.1846250
  43.8405690  55.9073880 125.9675490  34.9791690  61.6859040 131.7655780
  35.4970360  60.8827300 131.7112670  34.5275710  61.6238180 132.6072610
  39.8661190  62.9525320 127.0383080  40.2076890  63.6967550 126.5426400
  39.0373900  63.2656440 127.4007910  32.4636230  58.6520410 138.6781480
  32.1051170  59.3174260 139.2654820  32.1690790  57.8203960 139.0494100
  35.6649350  59.1104650 141.5621030  35.3649490  59.2561830 140.6648850
  36.4360590  58.5509940 141.4694420  41.0077800  63.9073650 139.5576160
  41.0222340  62.9754610 139.3395070  40.3002900  63.9933410 140.1965930
  46.1414870  58.0913470 125.8274770  46.0578590  58.5227690 124.9771210
  46.8609060  58.5511820 126.2601590  47.2189010  60.5480990 138.9044740
  46.4937200  61.1409770 138.7074130  47.7464470  60.5404530 138.1058110
  47.1702120  64.9455730 128.5556900  46.5278280  64.2911350 128.8300620
  46.7832780  65.3510820 127.7797570  42.7488600  62.2741160 132.4028590
  43.1012420  61.6769290 131.7429960  41.8650930  61.9485390 132.5736840
  38.8351880  63.0338850 129.8099000  39.5223010  63.5808060 130.1906590
  38.0484300  63.5779580 129.8448610  30.9744280  58.6511670 125.3016080
  31.8439130  58.9336470 125.5852000  30.4834600  59.4647540 125.1864890
  38.1379090  60.0384880 129.4224360  38.5941870  60.8490130 129.6484550
  37.7867300  59.7208020 130.2542850  40.4411700  65.5491220 136.6516660
  41.0853920  65.7550600 137.3290080  40.8041140  64.7879620 136.1987510
  34.0390870  50.3822530 129.8946880  33.9105500  50.3740430 130.8431800
  33.2152890  50.7205620 129.5437890  41.7143780  63.5523570 135.3694110
  42.3566010  62.8516730 135.4826280  42.2393130  64.3322010 135.1891000
  45.5599500  63.8372190 125.0933250  45.3337080  63.1202630 125.6857890
  45.1695700  63.5884630 124.2555000  43.4881400  64.3518470 138.5730170
  43.8237640  64.9385160 139.2508090  42.5681740  64.2211180 138.8027960
  31.3415530  67.8639050 125.8677710  31.7013170  68.4628390 125.2134980
  31.2007870  68.4098940 126.6412740  31.0384800  52.1413650 139.3553580
  30.3243320  52.3410570 139.9606190  31.4579840  51.3653220 139.7268380
  45.1415750  61.7544130 126.7547410  44.8537450  62.2156820 127.5425290
  45.9367920  61.2941900 127.0231630  31.3257390  66.1293910 140.3420110
  31.4348510  65.1888650 140.2015500  30.6737950  66.3948660 139.6933840
  39.3169980  64.4009800 141.7418230  38.9966850  63.6819040 142.2863920
  38.6428340  65.0764870 141.8154290  32.9590790  60.4685140 127.4298140
  32.3518740  61.2084040 127.4393440  33.4340140  60.5584500 126.6036340
  42.5323580  54.6335960 137.1055030  42.9004400  53.8131170 137.4334600
  41.6721780  54.6937850 137.5210680  45.8985610  53.5892900 127.9142590
  45.2698770  53.6938570 127.2000820  45.4037530  53.8089680 128.7036470
  37.8669640  55.8678850 129.3300470  37.1585790  56.3365190 129.7714080
  38.1514120  55.2100860 129.9645660  39.4925570  57.2875550 137.3293000
  39.9910820  57.7621370 137.9944850  39.6348520  56.3639070 137.5363030
  41.8985070  52.5929510 130.7696260  41.7752850  52.6115640 129.8205770
  42.8469630  52.6408450 130.8894660  36.0704660  54.1763930 126.7051180
  36.9195190  54.6134080 126.6391370  35.7035930  54.4884190 127.5323240
  46.6992430  53.5043510 138.1721390  46.1966030  54.2448910 138.5115200
  47.5149090  53.8927510 137.8558180  44.9914440  58.7476690 131.6182750
  44.0504580  58.7626920 131.7930440  45.3058510  57.9612650 132.0643050
  34.9696080  60.4296290 125.1786710  35.7359350  60.3177650 125.7412140
  35.0470770  59.7334260 124.5263480  33.6642840  57.8621360 125.8619600
  33.7446430  56.9148870 125.9737000  34.5562590  58.1928240 125.9680260
  46.9940020  65.9185540 133.2937010  47.1187440  66.7416710 133.7660820
  47.8605580  65.7076270 132.9461160  34.4657550  68.0116750 132.9654140
  35.2020030  67.4632210 133.2362710  34.8498470  68.8772760 132.8260130
  31.3503030  64.0790320 128.8395650  30.4242810  64.3211460 128.8301060
  31.8159460  64.9064580 128.7180400  33.4715830  67.1962820 142.1539720
  34.2728560  67.5174870 142.5675120  32.9567650  66.8358400 142.8759630
  42.3080460  63.3042690 142.1015130  41.7018620  63.3274290 141.3610880
  42.0034570  62.5725730 142.6382380  43.7380830  67.0322980 140.7124540
  44.6902580  66.9481000 140.6624780  43.5909050  67.6964690 141.3858330
  46.6290030  66.4117190 126.2116450  46.3431540  65.9982330 125.3970630
  46.4309580  67.3404900 126.0916970  31.1913640  59.6836280 141.0975770
  31.6952660  59.1043560 141.6692000  30.4521060  59.9676510 141.6352140
  38.0937260  62.4050470 124.6522060  37.9887900  61.7902820 125.3783440
  37.9261480  61.8816360 123.8685070  38.2451580  61.0907270 140.6311290
  37.4797250  61.6592270 140.5465960  38.4267540  60.7983480 139.7379520
  41.3339990  61.4670500 125.2564050  40.7850090  61.9139800 125.9006790
  41.9559250  60.9619750 125.7801720  45.3874930  62.8212600 141.1886310
  46.1284400  63.1588360 140.6853770  44.6247610  62.9904660 140.6356080
  33.2236720  57.8265870 141.9925840  33.2642060  57.5279740 142.9011070
  34.0782220  58.2273480 141.8333360  37.0015110  60.4261420 127.1529350
  37.4231530  60.2601290 127.9960740  37.1265950  59.6161650 126.6584490
  35.1642530  56.4057970 139.9600330  34.6338990  55.9148920 139.3323670
  35.8330600  56.8342170 139.4258260  39.5142750  59.4499030 124.4006450
  40.0348410  58.7348050 124.0347600  40.1611150  60.0884900 124.7006960
  44.0620590  60.8727430 139.7241520  44.4761610  61.0272510 140.5731940
  43.1271590  60.9982650 139.8867300  44.5342760  58.2123590 141.7280670
  45.1163530  57.4575910 141.6401150  44.7104530  58.7431030 140.9512150
  35.6514830  53.3720340 140.0397620  35.5571700  52.7541090 139.3148490
  35.0712220  54.0986630 139.8127530  38.4176270  51.9293580 137.0725010
  37.9693570  51.9517840 136.2270560  37.7841470  51.5312600 137.6695310
  38.8235820  60.8247910 137.6937450  39.2423930  61.6680640 137.5213690
  37.9044450  60.9619950 137.4644230  41.1599720  58.5564090 139.0775290
  41.2795930  57.9605230 139.8170130  42.0193720  58.5933780 138.6576590
  43.4987620  59.1101280 137.6537800  42.9722840  59.6343900 137.0502940
  43.8418960  59.7428670 138.2847530  35.8974010  56.4994650 124.0987510
  35.6963070  55.6362010 124.4600850  35.7266060  56.4128010 123.1609110
  36.6743240  67.1300920 138.8095180  36.1364330  67.8546980 138.4903880
  36.9277200  66.6531260 138.0192520  37.9268490  55.0985440 140.3351110
  38.5168180  54.7901290 141.0228930  37.1088730  54.6265190 140.4911010
  42.7461920  54.7151250 140.5684130  42.0577440  54.0532790 140.5034120
  43.4667940  54.2689520 141.0132590  43.3762320  51.3102880 126.6274390
  43.6564610  50.4670780 126.9833810  42.6028050  51.5425990 127.1413140
  34.6956810  53.5995270 124.0865390  34.9982710  53.6062700 123.1784540
  35.4351400  53.2493130 124.5833050  39.5305450  68.3652130 139.0681830
  39.4564150  69.2687270 139.3754200  38.6284290  68.0464030 139.0403900
  37.9141740  52.5429890 125.0721590  37.5663740  51.8653880 124.4924040
  38.1154510  52.0819400 125.8864980  33.7186940  62.9037690 124.9195190
  34.1561810  63.4467360 125.5752770  34.2034670  62.0784640 124.9291530
  30.9332740  65.6926720 132.3715450  31.2635750  64.8247780 132.1394090
  31.3623740  65.8985240 133.2020410  35.5294660  64.0235730 130.0317420
  35.2290200  63.9000700 130.9321330  35.4232150  63.1644320 129.6233150
  31.4222950  66.5597310 135.1097080  30.9853940  66.7398110 135.9421230
  31.9900630  67.3171930 134.9678800  47.0585130  66.0614310 139.3974390
  46.4587120  66.1206870 138.6538310  47.1879030  65.1219290 139.5271240
  48.2986580  63.8032130 124.7344100  47.4679540  63.8708780 125.2051330
  48.4758410  64.6936250 124.4310960  47.7543040  60.5479610 127.2378300
  48.5161950  61.1176260 127.3437990  47.7697410  59.9806810 128.0086610
  31.2547380  59.0717540 131.4685960  30.5996220  58.8029180 130.8245660
  32.0925330  58.9622020 131.0187940  48.7603010  61.4029710 132.0820230
  49.1311840  60.6197030 131.6756200  49.4004940  62.0918810 131.9037530
  45.7436770  62.7866290 137.4950550  44.9296610  63.2163450 137.7576340
  46.1510970  63.3984700 136.8819600  47.8062210  60.8413980 124.3950820
  48.0811050  61.7492860 124.2670040  47.6172950  60.7776510 125.3312810
  44.2037820  53.8658830 125.6904450  44.6222700  53.6789810 124.8501110
  43.8973880  53.0137880 126.0007380  47.7027550  58.7782970 129.3880250
  47.3271150  58.0110900 128.9561540  46.9730670  59.1605670 129.8755180
  32.2923310  59.4570110 136.0089300  32.6596350  59.3697510 136.8885320
  31.7234130  58.6936660 135.9096160  47.0927170  57.9254490 139.0219770
  46.8613260  57.6967240 138.1217720  47.3531720  58.8454040 138.9764660
  31.8439310  56.3679200 139.9147720  30.9495360  56.3345960 140.2541430
  32.3836860  56.5665990 140.6798970  45.5315240  53.1510920 141.7999470
  46.4085420  53.1594320 142.1833470  45.5436080  52.4141760 141.1891820
  30.4685460  56.2816470 127.4111290  29.5649540  56.5446670 127.2362950
  30.9526080  56.5527640 126.6311250  46.9778510  57.0040460 132.6887490
  47.5015990  56.5103110 132.0577660  47.5637930  57.1390820 133.4335060
  47.1568230  57.0880330 136.2107040  46.2070940  57.0543870 136.3252030
  47.3381240  57.9980440 135.9756810  33.0112670  55.3382010 125.3205670
  33.7204370  54.9165230 124.8352950  32.2952610  55.4057240 124.6889020
  32.6586830  51.3921340 124.3608320  33.3814960  51.9330280 124.6789540
  32.9311350  51.1184760 123.4849860  46.4678480  56.2613810 128.6279900
  46.9637600  56.0284680 129.4128780  46.2694550  55.4225650 128.2117540
  32.3479020  50.6427530 134.2630940  32.9955210  50.0924910 133.8226100
  32.7680860  50.8970680 135.0846750  47.8965640  54.8974760 131.1617580
  47.7864920  54.7430800 132.0999850  48.6573230  54.3695700 130.9192990
  46.2431360  50.8368890 137.6200580  46.8803580  51.4503030 137.9859770
  46.3906250  50.8729550 136.6749810  48.7855910  52.7282680 124.4023720
  49.7105220  52.5963860 124.1942010  48.7631700  52.8075500 125.3560170
  48.8594400  53.4993340 127.0280430  48.0645900  53.4338460 127.5573340
  49.0637680  54.4343980 127.0165780  45.8012820  67.5384890 131.0218820
  46.3971890  67.2169460 130.3453240  46.0590970  67.0656710 131.8132090
  32.1011020  50.7983200 137.0056260  31.7525840  51.2547020 137.7714440
  31.7698720  49.9040330 137.0878690  33.7075390  63.9702800 141.1709450
  33.6645020  63.5995710 142.0523910  33.8386400  64.9080370 141.3111270
  37.4081420  65.5262390 136.7719170  37.1672780  65.7936950 135.8849690
  38.3484060  65.6968120 136.8270030  39.6135840  51.9895080 140.5275680
  39.5524730  52.5816910 141.2771090  40.5536220  51.8821040 140.3825940
  42.2510400  51.6465140 140.1667970  42.8650810  51.9644430 139.5049050
  42.7959960  51.1613730 140.7863830  48.6685580  67.5456770 137.5729810
  48.1743860  67.9425640 136.8556940  48.0598870  66.9205980 137.9667090
  32.7731660  50.3259400 140.2807030  33.3214650  50.1447450 139.5173140
  32.8386970  49.5353510 140.8163340  33.5463420  66.9165050 138.2907230
  32.9523740  66.7849750 139.0297270  33.5387260  66.0803190 137.8249330
  42.9918440  50.2097280 136.4937260  42.1178280  50.5432390 136.2910190
  42.8829190  49.7370460 137.3189130  43.8990420  52.4168150 137.8778980
  43.5703780  51.6019910 137.4980710  44.8472720  52.3737960 137.7544670
  46.3525030  68.1880190 134.8516550  45.8928000  68.9396000 134.4774570
  45.7237490  67.4686660 134.7931350  33.1775650  64.2823430 137.2415270
  32.4509710  63.6628720 137.1741220  33.2384800  64.6764040 136.3713350
  36.7820750  66.4968430 134.0264680  37.2985770  65.8855790 133.5012940
  37.4318130  66.9997210 134.5175690  39.5216250  67.3876920 134.8533660
  39.8094060  67.1331220 133.9766670  40.0339470  66.8354280 135.4439230
  40.7393260  51.1267120 135.4330170  39.9565050  51.6012620 135.7126930
  40.4456190  50.2221950 135.3243350  45.2914330  51.8290220 133.4779260
  45.7322420  51.7735320 132.6300860  45.0221920  52.7448230 133.5489440
  47.1552900  51.4605460 131.4888080  47.0941300  50.5166680 131.3419100
  47.9344930  51.5685550 132.0341540  31.4605650  67.5997820 130.4512030
  31.2927690  66.9668500 131.1493920  30.5940160  67.8057220 130.1006220
  32.0833670  51.4314600 127.9543890  32.8413030  51.5443480 127.3807920
  31.6210840  52.2683800 127.9087320  38.6247480  53.5453870 130.9446200
  37.8121990  53.1710760 130.6042080  39.1289120  52.7898950 131.2467390
  43.1272460  50.2096320 132.1829270  43.7301830  50.7816530 132.6577790
  42.3865450  50.7735760 131.9603170  46.2707060  50.6117880 127.4569550
  46.4657690  51.5101330 127.7236980  45.4836930  50.3804960 127.9502500
  33.0668350  66.2931050 127.8962170  32.5415970  66.6739080 127.1924130
  32.9912930  66.9181820 128.6171880  34.4558820  51.9578650 126.4945860
  34.9851580  51.1708450 126.3653810  35.0887140  52.6369840 126.7281390
  36.6496660  51.6953790 129.5491250  36.0199400  50.9941100 129.7161380
  36.1101800  52.4557920 129.3324410  39.5888610  68.3093020 142.2201860
  40.5155920  68.0737290 142.2637820  39.5739040  69.1365020 141.7387890
  36.7752220  50.9737770 141.9843740  36.4936490  51.4771370 141.2204560
  37.1571920  50.1759520 141.6185870  35.6661320  68.2413430 126.7711420
  36.3980140  67.9572710 126.2235310  35.9254990  68.0026710 127.6610800
  34.8276110  64.3578160 126.7757750  34.1984990  64.8263260 127.3243580
  34.9423940  63.5127380 127.2103940  43.3767680  50.3891350 142.5624210
  43.2633130  50.7085960 143.4575730  44.1937420  50.7903860 142.2661490
  46.1566170  67.5362880 142.0442900  46.9491490  67.0412110 141.8368860
  46.4499320  68.2153020 142.6518510  42.2825830  58.4083820 112.9258950
  42.2019880  57.4938430 112.6550660  41.8690250  58.9050890 112.2198660
  34.4309700  60.4982650 115.6843980  33.5994580  60.2431360 116.0840490
  35.0390680  60.5693420 116.4201900  34.4110960  64.5322740 115.8802000
  34.7139000  63.6420480 115.7012220  35.1554550  65.0892960 115.6524250
  30.8034660  58.0590190 115.3526070  31.3750770  57.2912390 115.3529710
  30.8036200  58.3578950 114.4432680  40.6614610  66.8781040 113.2071340
  40.0426050  67.3338540 112.6365780  41.5166390  67.0332500 112.8061040
  39.8552860  62.8620030 114.8138380  39.7861140  61.9209970 114.6527510
  40.6172720  62.9521440 115.3860950  32.0459530  53.4674550 117.1395000
  31.8662370  52.5700300 117.4197760  31.6439610  54.0146420 117.8141950
  35.0163040  54.0416040 110.5024750  35.1229790  54.9419770 110.8093510
  34.1055400  53.9934010 110.2119400  44.6682150  53.1640850 111.9735650
  45.4891770  52.6737420 112.0161130  44.7016230  53.7538510 112.7267490
  32.6646200  55.9635050 115.7477340  33.3456310  56.2273420 116.3664740
  32.3494250  55.1235920 116.0815350  36.8570770  57.0102410 114.8349930
  37.3648990  57.5083380 115.4754950  37.3884010  56.2337610 114.6589290
  48.9581700  55.1807600 118.5379280  48.2533870  55.5689310 118.0194390
  49.2239620  55.8757890 119.1400210  35.1406870  51.6500970 119.1013350
  35.1425310  52.1673360 118.2959250  34.3111180  51.1731150 119.0783280
  36.3909720  61.2896150 117.2786850  36.0579100  61.9165070 117.9207920
  36.5676400  61.8158030 116.4988520  44.9043630  55.1041230 114.7463190
  44.1999200  55.3926120 115.3266300  45.2655790  55.9141340 114.3862750
  34.8222200  53.3610930 117.1083800  35.1639010  54.2052980 116.8137670
  33.8838010  53.5094670 117.2249140  35.6028820  63.2576950 119.0936030
  36.2202820  63.9328030 118.8120480  34.7421940  63.6664930 119.0023530
  30.8961160  62.4476810 107.9742880  30.5189140  62.9363910 107.2427780
  31.1534230  63.1202090 108.6049410  46.5206410  64.7216360 117.0090670
  45.8369930  65.3915470 117.0007340  47.0600700  64.9197010 116.2435530
  47.9730550  54.5496020 115.1372400  47.0255460  54.5835000 115.2687830
  48.2980540  55.3634970 115.5221760  44.0565150  66.5660490 115.7235850
  44.0692310  66.1622780 114.8558110  43.5040370  67.3407780 115.6197280
  40.8930850  58.9142030 110.1688510  39.9660130  58.8479410 110.3976980
  41.0455670  59.8522160 110.0543750  47.4012690  59.8677550 117.1434700
  46.5731320  59.9370640 116.6684830  47.9963170  60.4531860 116.6750530
  36.4987490  59.4406770 112.9508240  36.0944490  58.7284020 112.4554140
  36.5850610  59.0960010 113.8396280  36.9669190  63.1274330 115.1147450
  36.6697480  62.5219800 114.4355230  37.9169010  63.1651640 115.0036810
  35.2116110  56.2149980 116.7307280  35.7630700  56.3245320 115.9560530
  35.7259620  56.5887580 117.4462510  45.0554800  66.7006200 118.7770550
  44.5785360  67.5078390 118.5843160  44.3716590  66.0484530 118.9296760
  36.0587620  62.8656020 121.7655250  35.1616150  63.0895990 122.0128650
  36.0840490  62.9890960 120.8166650  34.8858840  59.7369340 120.3412620
  34.7466610  60.6092140 120.7100020  34.0040200  59.3942150 120.1960560
  36.6839190  65.6791040 122.5497770  36.6554620  66.0833990 121.6826200
  36.5204160  64.7501400 122.3869370  46.6809980  50.9691950 105.9937550
  46.3682640  51.0618780 106.8936620  47.4422450  51.5472980 105.9434980
  33.1992120  58.3351750 110.4514890  33.0789720  59.0613840 109.8396160
  32.8893010  57.5654660 109.9742800  48.6354010  66.4618140 123.8461940
  49.1113730  66.9401030 124.5251020  49.2561170  66.3935630 123.1207440
  30.8377490  61.5066890 116.2583530  30.9157910  61.6415660 115.3139250
  31.4519170  60.7982780 116.4511650  32.0825120  63.2067080 112.6689710
  31.6753200  63.3481670 111.8143310  32.9738130  62.9227240 112.4660920
  48.0387260  63.6530990 121.0061950  48.1650320  63.4142870 120.0879130
  48.0808640  62.8215530 121.4784030  41.9004000  67.3558990 119.5756760
  42.4148670  67.2667000 120.3779190  41.0573080  67.7018690 119.8684670
  36.3546780  67.4212860 110.7812380  36.1789260  66.5048400 110.5680180
  35.5002520  67.7800150 111.0210180  47.8911270  55.7063450 121.9711690
  47.2755540  56.2143120 121.4427150  47.5707690  54.8061780 121.9137630
  30.8937010  62.5481060 118.7977990  31.0568050  62.0786420 117.9797360
  31.3589460  62.0404620 119.4626830  35.4570000  56.8020390 111.5619810
  35.2310920  56.5857560 112.4666430  34.6762530  57.2348850 111.2165780
  37.8969210  57.7005970 122.2280080  37.8012810  56.7600700 122.0780480
  38.7401190  57.9221040 121.8328150  33.0279750  54.1119640 120.3813860
  32.6343140  54.9594850 120.5886640  32.3398150  53.4746010 120.5722500
  39.6024800  54.1954610 123.4510600  38.9123120  54.0026810 124.0856690
  40.3457100  54.4789250 123.9834900  30.3296800  52.0348100 114.4143940
  30.0409850  52.6050960 115.1268920  31.0742560  51.5552550 114.7775170
  34.1667540  54.5933740 113.6511220  33.8267590  55.0708970 114.4078270
  33.4044860  54.1398860 113.2912320  38.3785310  55.7119330 107.6823770
  38.4998130  55.6705810 108.6309590  37.9933820  56.5743480 107.5270500
  37.3906810  58.0220470 107.0807070  36.8223710  57.5738720 106.4542980
  38.0995810  58.3813250 106.5472220  45.7684430  50.9018910 121.5373840
  46.0930200  50.1708570 122.0631820  45.8040940  50.5832550 120.6354830
  32.4675990  61.9232490 120.9573800  32.0830780  61.2826160 121.5556760
  32.7788180  62.6268610 121.5268530  31.4813620  53.5152720 112.5675890
  31.1960540  53.1508390 113.4054510  31.4192480  52.7833180 111.9539030
  36.4072500  57.8117670 118.7566630  36.1029570  58.6909650 118.9816990
  37.3618960  57.8717460 118.7924070  34.9354290  62.0178660 109.3533480
  34.1616550  61.4776280 109.1932200  35.6648920  61.4985270 109.0151240
  34.9791690  61.6859040 112.9912290  35.4970360  60.8827300 112.9369180
  34.5275710  61.6238180 113.8329120  32.4636230  58.6520410 119.9037990
  32.1051170  59.3174260 120.4911330  32.1690790  57.8203960 120.2750610
  35.6649350  59.1104650 122.7877540  35.3649490  59.2561830 121.8905360
  36.4360590  58.5509940 122.6950930  47.2189010  60.5480990 120.1301250
  46.4937200  61.1409770 119.9330640  47.7464470  60.5404530 119.3314620
  38.8351880  63.0338850 111.0355510  39.5223010  63.5808060 111.4163100
  38.0484300  63.5779580 111.0705120  38.1379090  60.0384880 110.6480870
  38.5941870  60.8490130 110.8741060  37.7867300  59.7208020 111.4799360
  40.4411700  65.5491220 117.8773170  41.0853920  65.7550600 118.5546590
  40.8041140  64.7879620 117.4244020  31.3415530  67.8639050 107.0934220
  31.7013170  68.4628390 106.4391490  31.2007870  68.4098940 107.8669250
  31.0384800  52.1413650 120.5810090  30.3243320  52.3410570 121.1862700
  31.4579840  51.3653220 120.9524890  31.3257390  66.1293910 121.5676620
  31.4348510  65.1888650 121.4272010  30.6737950  66.3948660 120.9190350
  39.3169980  64.4009800 122.9674740  38.9966850  63.6819040 123.5120430
  38.6428340  65.0764870 123.0410800  32.9590790  60.4685140 108.6554650
  32.3518740  61.2084040 108.6649950  33.4340140  60.5584500 107.8292850
  42.5323580  54.6335960 118.3311540  42.9004400  53.8131170 118.6591110
  41.6721780  54.6937850 118.7467190  38.9861860  67.8284810 111.2680750
  39.2403360  67.7906200 110.3460120  38.0374340  67.7018140 111.2609000
  36.0704660  54.1763930 107.9307690  36.9195190  54.6134080 107.8647880
  35.7035930  54.4884190 108.7579750  46.6992430  53.5043510 119.3977900
  46.1966030  54.2448910 119.7371710  47.5149090  53.8927510 119.0814690
  44.9914440  58.7476690 112.8439260  44.0504580  58.7626920 113.0186950
  45.3058510  57.9612650 113.2899560  34.9696080  60.4296290 106.4043220
  35.7359350  60.3177650 106.9668650  35.0470770  59.7334260 105.7519990
  34.4657550  68.0116750 114.1910650  35.2020030  67.4632210 114.4619220
  34.8498470  68.8772760 114.0516640  31.3503030  64.0790320 110.0652160
  30.4242810  64.3211460 110.0557570  31.8159460  64.9064580 109.9436910
  33.4715830  67.1962820 123.3796230  34.2728560  67.5174870 123.7931630
  32.9567650  66.8358400 124.1016140  37.5759860  67.1847060 106.0136220
  38.3688470  67.4735890 105.5618010  37.0564210  66.7539230 105.3348700
  42.3080460  63.3042690 123.3271640  41.7018620  63.3274290 122.5867390
  42.0034570  62.5725730 123.8638890  43.7380830  67.0322980 121.9381050
  44.6902580  66.9481000 121.8881290  43.5909050  67.6964690 122.6114840
  31.1913640  59.6836280 122.3232280  31.6952660  59.1043560 122.8948510
  30.4521060  59.9676510 122.8608650  38.2451580  61.0907270 121.8567800
  37.4797250  61.6592270 121.7722470  38.4267540  60.7983480 120.9636030
  45.3874930  62.8212600 122.4142820  46.1284400  63.1588360 121.9110280
  44.6247610  62.9904660 121.8612590  33.2236720  57.8265870 123.2182350
  33.2642060  57.5279740 124.1267580  34.0782220  58.2273480 123.0589870
  35.1642530  56.4057970 121.1856840  34.6338990  55.9148920 120.5580180
  35.8330600  56.8342170 120.6514770  35.6514830  53.3720340 121.2654130
  35.5571700  52.7541090 120.5405000  35.0712220  54.0986630 121.0384040
  35.8974010  56.4994650 105.3244020  35.6963070  55.6362010 105.6857360
  35.7266060  56.4128010 104.3865620  36.6743240  67.1300920 120.0351690
  36.1364330  67.8546980 119.7160390  36.9277200  66.6531260 119.2449030
  37.9268490  55.0985440 121.5607620  38.5168180  54.7901290 122.2485440
  37.1088730  54.6265190 121.7167520  42.7461920  54.7151250 121.7940640
  42.0577440  54.0532790 121.7290630  43.4667940  54.2689520 122.2389100
  43.3762320  51.3102880 107.8530900  43.6564610  50.4670780 108.2090320
  42.6028050  51.5425990 108.3669650  39.5305450  68.3652130 120.2938340
  39.4564150  69.2687270 120.6010710  38.6284290  68.0464030 120.2660410
  40.0790780  67.5310640 107.9164700  40.9741570  67.8695610 107.9383460
  40.1108410  66.8090050 107.2888980  33.7186940  62.9037690 106.1451700
  34.1561810  63.4467360 106.8009280  34.2034670  62.0784640 106.1548040
  35.5294660  64.0235730 111.2573930  35.2290200  63.9000700 112.1577840
  35.4232150  63.1644320 110.8489660  47.0585130  66.0614310 120.6230900
  46.4587120  66.1206870 119.8794820  47.1879030  65.1219290 120.7527750
  31.2547380  59.0717540 112.6942470  30.5996220  58.8029180 112.0502170
  32.0925330  58.9622020 112.2444450  32.2923310  59.4570110 117.2345810
  32.6596350  59.3697510 118.1141830  31.7234130  58.6936660 117.1352670
  47.0927170  57.9254490 120.2476280  46.8613260  57.6967240 119.3474230
  47.3531720  58.8454040 120.2021170  31.8439310  56.3679200 121.1404230
  30.9495360  56.3345960 121.4797940  32.3836860  56.5665990 121.9055480
  45.5315240  53.1510920 123.0255980  46.4085420  53.1594320 123.4089980
  45.5436080  52.4141760 122.4148330  46.9778510  57.0040460 113.9144000
  47.5015990  56.5103110 113.2834170  47.5637930  57.1390820 114.6591570
  47.1568230  57.0880330 117.4363550  46.2070940  57.0543870 117.5508540
  47.3381240  57.9980440 117.2013320  32.3479020  50.6427530 115.4887450
  32.9955210  50.0924910 115.0482610  32.7680860  50.8970680 116.3103260
  47.8965640  54.8974760 112.3874090  47.7864920  54.7430800 113.3256360
  48.6573230  54.3695700 112.1449500  46.2431360  50.8368890 118.8457090
  46.8803580  51.4503030 119.2116280  46.3906250  50.8729550 117.9006320
  32.1011020  50.7983200 118.2312770  31.7525840  51.2547020 118.9970950
  31.7698720  49.9040330 118.3135200  33.7075390  63.9702800 122.3965960
  33.6645020  63.5995710 123.2780420  33.8386400  64.9080370 122.5367780
  37.4081420  65.5262390 117.9975680  37.1672780  65.7936950 117.1106200
  38.3484060  65.6968120 118.0526540  39.6135840  51.9895080 121.7532190
  39.5524730  52.5816910 122.5027600  40.5536220  51.8821040 121.6082450
  42.2510400  51.6465140 121.3924480  42.8650810  51.9644430 120.7305560
  42.7959960  51.1613730 122.0120340  48.6685580  67.5456770 118.7986320
  48.1743860  67.9425640 118.0813450  48.0598870  66.9205980 119.1923600
  32.7731660  50.3259400 121.5063540  33.3214650  50.1447450 120.7429650
  32.8386970  49.5353510 122.0419850  33.5463420  66.9165050 119.5163740
  32.9523740  66.7849750 120.2553780  33.5387260  66.0803190 119.0505840
  42.9918440  50.2097280 117.7193770  42.1178280  50.5432390 117.5166700
  42.8829190  49.7370460 118.5445640  43.8990420  52.4168150 119.1035490
  43.5703780  51.6019910 118.7237220  44.8472720  52.3737960 118.9801180
  46.3525030  68.1880190 116.0773060  45.8928000  68.9396000 115.7031080
  45.7237490  67.4686660 116.0187860  33.1775650  64.2823430 118.4671780
  32.4509710  63.6628720 118.3997730  33.2384800  64.6764040 117.5969860
  36.7820750  66.4968430 115.2521190  37.2985770  65.8855790 114.7269450
  37.4318130  66.9997210 115.7432200  39.5216250  67.3876920 116.0790170
  39.8094060  67.1331220 115.2023180  40.0339470  66.8354280 116.6695740
  45.2914330  51.8290220 114.7035770  45.7322420  51.7735320 113.8557370
  45.0221920  52.7448230 114.7745950  47.1552900  51.4605460 112.7144590
  47.0941300  50.5166680 112.5675610  47.9344930  51.5685550 113.2598050
  31.4605650  67.5997820 111.6768540  31.2927690  66.9668500 112.3750430
  30.5940160  67.8057220 111.3262730  46.2707060  50.6117880 108.6826060
  46.4657690  51.5101330 108.9493490  45.4836930  50.3804960 109.1759010
  33.0668350  66.2931050 109.1218680  32.5415970  66.6739080 108.4180640
  32.9912930  66.9181820 109.8428390  36.7752220  50.9737770 123.2100250
  36.4936490  51.4771370 122.4461070  37.1571920  50.1759520 122.8442380
  35.6661320  68.2413430 107.9967930  36.3980140  67.9572710 107.4491820
  35.9254990  68.0026710 108.8867310  34.8276110  64.3578160 108.0014260
  34.1984990  64.8263260 108.5500090  34.9423940  63.5127380 108.4360450
  43.3767680  50.3891350 123.7880720  43.2633130  50.7085960 124.6832240
  44.1937420  50.7903860 123.4918000  46.1566170  67.5362880 123.2699410
  46.9491490  67.0412110 123.0625370  46.4499320  68.2153020 123.8775020
  34.4110960  64.5322740  97.1058510  34.7139000  63.6420480  96.9268730
  35.1554550  65.0892960  96.8780760  39.8552860  62.8620030  96.0394890
  39.7861140  61.9209970  95.8784020  40.6172720  62.9521440  96.6117460
  32.0459530  53.4674550  98.3651510  31.8662370  52.5700300  98.6454270
  31.6439610  54.0146420  99.0398460  40.8858030  55.6690410  96.2663820
  41.2622850  54.7962290  96.1537490  40.7877540  56.0049110  95.3754260
  44.6682150  53.1640850  93.1992160  45.4891770  52.6737420  93.2417640
  44.7016230  53.7538510  93.9524000  36.3909720  61.2896150  98.5043360
  36.0579100  61.9165070  99.1464430  36.5676400  61.8158030  97.7245030
  44.9043630  55.1041230  95.9719700  44.1999200  55.3926120  96.5522810
  45.2655790  55.9141340  95.6119260  30.8961160  62.4476810  89.1999390
  30.5189140  62.9363910  88.4684290  31.1534230  63.1202090  89.8305920
  47.9730550  54.5496020  96.3628910  47.0255460  54.5835000  96.4944340
  48.2980540  55.3634970  96.7478270  44.0565150  66.5660490  96.9492360
  44.0692310  66.1622780  96.0814620  43.5040370  67.3407780  96.8453790
  44.3654700  56.6546870  99.3146080  43.9525880  57.4800580  99.5686070
  43.6330650  56.0691910  99.1222440  36.9669190  63.1274330  96.3403960
  36.6697480  62.5219800  95.6611740  37.9169010  63.1651640  96.2293320
  34.8858840  59.7369340 101.5669130  34.7466610  60.6092140 101.9356530
  34.0040200  59.3942150 101.4217070  41.2088220  64.6545210  92.8734260
  41.6484130  65.3969540  92.4589650  41.1475110  64.8971780  93.7973220
  30.8377490  61.5066890  97.4840040  30.9157910  61.6415660  96.5395760
  31.4519170  60.7982780  97.6768160  32.0825120  63.2067080  93.8946220
  31.6753200  63.3481670  93.0399820  32.9738130  62.9227240  93.6917430
  36.3546780  67.4212860  92.0068890  36.1789260  66.5048400  91.7936690
  35.5002520  67.7800150  92.2466690  30.8937010  62.5481060 100.0234500
  31.0568050  62.0786420  99.2053870  31.3589460  62.0404620 100.6883340
  38.7814600  51.2997520  89.9400900  38.1568780  51.2957390  90.6654210
  38.6944720  50.4328480  89.5436870  37.8969210  57.7005970 103.4536590
  37.8012810  56.7600700 103.3036990  38.7401190  57.9221040 103.0584660
  41.2932630  55.4447300  93.4170250  41.6862200  55.7619500  92.6038940
  41.6549480  54.5659180  93.5314770  33.0279750  54.1119640 101.6070370
  32.6343140  54.9594850 101.8143150  32.3398150  53.4746010 101.7979010
  39.6024800  54.1954610 104.6767110  38.9123120  54.0026810 105.3113200
  40.3457100  54.4789250 105.2091410  41.8787770  58.0353050  97.5121030
  41.1468890  58.5439860  97.8611130  41.4812110  57.2183030  97.2109810
  38.3785310  55.7119330  88.9080280  38.4998130  55.6705810  89.8566100
  37.9933820  56.5743480  88.7527010  45.7684430  50.9018910 102.7630350
  46.0930200  50.1708570 103.2888330  45.8040940  50.5832550 101.8611340
  32.4675990  61.9232490 102.1830310  32.0830780  61.2826160 102.7813270
  32.7788180  62.6268610 102.7525040  38.6173130  58.7709030  97.6638930
  38.9843260  58.2967600  98.4100270  38.4278190  59.6450600  98.0047270
  36.4072500  57.8117670  99.9823140  36.1029570  58.6909650 100.2073500
  37.3618960  57.8717460 100.0180580  32.4636230  58.6520410 101.1294500
  32.1051170  59.3174260 101.7167840  32.1690790  57.8203960 101.5007120
  35.6649350  59.1104650 104.0134050  35.3649490  59.2561830 103.1161870
  36.4360590  58.5509940 103.9207440  47.2189010  60.5480990 101.3557760
  46.4937200  61.1409770 101.1587150  47.7464470  60.5404530 100.5571130
  40.4411700  65.5491220  99.1029680  41.0853920  65.7550600  99.7803100
  40.8041140  64.7879620  98.6500530  34.0390870  50.3822530  92.3459900
  33.9105500  50.3740430  93.2944820  33.2152890  50.7205620  91.9950910
  42.5323580  54.6335960  99.5568050  42.9004400  53.8131170  99.8847620
  41.6721780  54.6937850  99.9723700  39.4925570  57.2875550  99.7806020
  39.9910820  57.7621370 100.4457870  39.6348520  56.3639070  99.9876050
  41.8985070  52.5929510  93.2209280  41.7752850  52.6115640  92.2718790
  42.8469630  52.6408450  93.3407680  38.9861860  67.8284810  92.4937260
  39.2403360  67.7906200  91.5716630  38.0374340  67.7018140  92.4865510
  31.3503030  64.0790320  91.2908670  30.4242810  64.3211460  91.2814080
  31.8159460  64.9064580  91.1693420  35.1642530  56.4057970 102.4113350
  34.6338990  55.9148920 101.7836690  35.8330600  56.8342170 101.8771280
  44.0620590  60.8727430 102.1754540  44.4761610  61.0272510 103.0244960
  43.1271590  60.9982650 102.3380320  41.1599720  58.5564090 101.5288310
  41.2795930  57.9605230 102.2683150  42.0193720  58.5933780 101.1089610
  43.4987620  59.1101280 100.1050820  42.9722840  59.6343900  99.5015960
  43.8418960  59.7428670 100.7360550  35.8974010  56.4994650  86.5500530
  35.6963070  55.6362010  86.9113870  35.7266060  56.4128010  85.6122130
  37.9268490  55.0985440 102.7864130  38.5168180  54.7901290 103.4741950
  37.1088730  54.6265190 102.9424030  42.7461920  54.7151250 103.0197150
  42.0577440  54.0532790 102.9547140  43.4667940  54.2689520 103.4645610
  34.6956810  53.5995270  86.5378410  34.9982710  53.6062700  85.6297560
  35.4351400  53.2493130  87.0346070  37.9141740  52.5429890  87.5234610
  37.5663740  51.8653880  86.9437060  38.1154510  52.0819400  88.3378000
  30.9332740  65.6926720  94.8228470  31.2635750  64.8247780  94.5907110
  31.3623740  65.8985240  95.6533430  32.2923310  59.4570110  98.4602320
  32.6596350  59.3697510  99.3398340  31.7234130  58.6936660  98.3609180
  46.9778510  57.0040460  95.1400510  47.5015990  56.5103110  94.5090680
  47.5637930  57.1390820  95.8848080  47.1568230  57.0880330  98.6620060
  46.2070940  57.0543870  98.7765050  47.3381240  57.9980440  98.4269830
  32.6586830  51.3921340  86.8121340  33.3814960  51.9330280  87.1302560
  32.9311350  51.1184760  85.9362880  47.8965640  54.8974760  93.6130600
  47.7864920  54.7430800  94.5512870  48.6573230  54.3695700  93.3706010
  46.2431360  50.8368890 100.0713600  46.8803580  51.4503030 100.4372790
  46.3906250  50.8729550  99.1262830  48.8594400  53.4993340  89.4793450
  48.0645900  53.4338460  90.0086360  49.0637680  54.4343980  89.4678800
  32.1011020  50.7983200  99.4569280  31.7525840  51.2547020 100.2227460
  31.7698720  49.9040330  99.5391710  33.7075390  63.9702800 103.6222470
  33.6645020  63.5995710 104.5036930  33.8386400  64.9080370 103.7624290
  42.2510400  51.6465140 102.6180990  42.8650810  51.9644430 101.9562070
  42.7959960  51.1613730 103.2376850  43.8990420  52.4168150 100.3292000
  43.5703780  51.6019910  99.9493730  44.8472720  52.3737960 100.2057690
  46.3525030  68.1880190  97.3029570  45.8928000  68.9396000  96.9287590
  45.7237490  67.4686660  97.2444370  33.1775650  64.2823430  99.6928290
  32.4509710  63.6628720  99.6254240  33.2384800  64.6764040  98.8226370
  45.2914330  51.8290220  95.9292280  45.7322420  51.7735320  95.0813880
  45.0221920  52.7448230  96.0002460  47.1552900  51.4605460  93.9401100
  47.0941300  50.5166680  93.7932120  47.9344930  51.5685550  94.4854560
  31.4605650  67.5997820  92.9025050  31.2927690  66.9668500  93.6006940
  30.5940160  67.8057220  92.5519240  32.0833670  51.4314600  90.4056910
  32.8413030  51.5443480  89.8320940  31.6210840  52.2683800  90.3600340
  38.6247480  53.5453870  93.3959220  37.8121990  53.1710760  93.0555100
  39.1289120  52.7898950  93.6980410  43.1272460  50.2096320  94.6342290
  43.7301830  50.7816530  95.1090810  42.3865450  50.7735760  94.4116190
  46.2707060  50.6117880  89.9082570  46.4657690  51.5101330  90.1750000
  45.4836930  50.3804960  90.4015520  34.4558820  51.9578650  88.9458880
  34.9851580  51.1708450  88.8166830  35.0887140  52.6369840  89.1794410
  36.6496660  51.6953790  92.0004270  36.0199400  50.9941100  92.1674400
  36.1101800  52.4557920  91.7837430  39.5888610  68.3093020 104.6714880
  40.5155920  68.0737290 104.7150840  39.5739040  69.1365020 104.1900910
  43.3767680  50.3891350 105.0137230  43.2633130  50.7085960 105.9088750
  44.1937420  50.7903860 104.7174510  34.4309700  60.4982650  78.1357000
  33.5994580  60.2431360  78.5353510  35.0390680  60.5693420  78.8714920
  44.4351300  64.5923030  76.0380370  43.9732830  63.8210270  76.3667540
  45.2476850  64.6189100  76.5432820  34.4110960  64.5322740  78.3315020
  34.7139000  63.6420480  78.1525240  35.1554550  65.0892960  78.1037270
  32.8401650  55.4584540  71.9199390  31.9518350  55.8000510  71.8179270
  33.1242840  55.2584860  71.0280220  30.8034660  58.0590190  77.8039090
  31.3750770  57.2912390  77.8042730  30.8036200  58.3578950  76.8945700
  40.6614610  66.8781040  75.6584360  40.0426050  67.3338540  75.0878800
  41.5166390  67.0332500  75.2574060  39.8552860  62.8620030  77.2651400
  39.7861140  61.9209970  77.1040530  40.6172720  62.9521440  77.8373970
  32.0459530  53.4674550  79.5908020  31.8662370  52.5700300  79.8710780
  31.6439610  54.0146420  80.2654970  35.0163040  54.0416040  72.9537770
  35.1229790  54.9419770  73.2606530  34.1055400  53.9934010  72.6632420
  44.6682150  53.1640850  74.4248670  45.4891770  52.6737420  74.4674150
  44.7016230  53.7538510  75.1780510  32.6646200  55.9635050  78.1990360
  33.3456310  56.2273420  78.8177760  32.3494250  55.1235920  78.5328370
  48.9581700  55.1807600  80.9892300  48.2533870  55.5689310  80.4707410
  49.2239620  55.8757890  81.5913230  35.1406870  51.6500970  81.5526370
  35.1425310  52.1673360  80.7472270  34.3111180  51.1731150  81.5296300
  36.3909720  61.2896150  79.7299870  36.0579100  61.9165070  80.3720940
  36.5676400  61.8158030  78.9501540  34.8222200  53.3610930  79.5596820
  35.1639010  54.2052980  79.2650690  33.8838010  53.5094670  79.6762160
  35.6028820  63.2576950  81.5449050  36.2202820  63.9328030  81.2633500
  34.7421940  63.6664930  81.4536550  30.8961160  62.4476810  70.4255900
  30.5189140  62.9363910  69.6940800  31.1534230  63.1202090  71.0562430
  47.9730550  54.5496020  77.5885420  47.0255460  54.5835000  77.7200850
  48.2980540  55.3634970  77.9734780  43.4550590  61.4690330  79.5031480
  43.8719380  61.2550440  78.6684940  44.1790410  61.7263120  80.0740100
  44.3654700  56.6546870  80.5402590  43.9525880  57.4800580  80.7942580
  43.6330650  56.0691910  80.3478950  36.9669190  63.1274330  77.5660470
  36.6697480  62.5219800  76.8868250  37.9169010  63.1651640  77.4549830
  36.0587620  62.8656020  84.2168270  35.1616150  63.0895990  84.4641670
  36.0840490  62.9890960  83.2679670  34.8858840  59.7369340  82.7925640
  34.7466610  60.6092140  83.1613040  34.0040200  59.3942150  82.6473580
  41.2088220  64.6545210  74.0990770  41.6484130  65.3969540  73.6846160
  41.1475110  64.8971780  75.0229730  46.6809980  50.9691950  68.4450570
  46.3682640  51.0618780  69.3449640  47.4422450  51.5472980  68.3948000
  33.1992120  58.3351750  72.9027910  33.0789720  59.0613840  72.2909180
  32.8893010  57.5654660  72.4255820  30.8377490  61.5066890  78.7096550
  30.9157910  61.6415660  77.7652270  31.4519170  60.7982780  78.9024670
  32.0825120  63.2067080  75.1202730  31.6753200  63.3481670  74.2656330
  32.9738130  62.9227240  74.9173940  48.0387260  63.6530990  83.4574970
  48.1650320  63.4142870  82.5392150  48.0808640  62.8215530  83.9297050
  41.9004000  67.3558990  82.0269780  42.4148670  67.2667000  82.8292210
  41.0573080  67.7018690  82.3197690  36.3546780  67.4212860  73.2325400
  36.1789260  66.5048400  73.0193200  35.5002520  67.7800150  73.4723200
  43.1434460  66.7764600  74.0900270  43.5991410  65.9953980  74.4038890
  43.4826980  67.4871420  74.6341450  30.8937010  62.5481060  81.2491010
  31.0568050  62.0786420  80.4310380  31.3589460  62.0404620  81.9139850
  39.9525590  54.5455340  81.8886900  39.4904960  54.7538360  82.7006840
  39.5503700  53.7314690  81.5857570  38.7814600  51.2997520  71.1657410
  38.1568780  51.2957390  71.8910720  38.6944720  50.4328480  70.7693380
  35.4570000  56.8020390  74.0132830  35.2310920  56.5857560  74.9179450
  34.6762530  57.2348850  73.6678800  37.8969210  57.7005970  84.6793100
  37.8012810  56.7600700  84.5293500  38.7401190  57.9221040  84.2841170
  33.0279750  54.1119640  82.8326880  32.6343140  54.9594850  83.0399660
  32.3398150  53.4746010  83.0235520  39.6024800  54.1954610  85.9023620
  38.9123120  54.0026810  86.5369710  40.3457100  54.4789250  86.4347920
  30.3296800  52.0348100  76.8656960  30.0409850  52.6050960  77.5781940
  31.0742560  51.5552550  77.2288190  30.5167030  55.9768220  68.0759680
  30.4341700  56.9198980  68.2174670  30.1650090  55.8343130  67.1972030
  38.3785310  55.7119330  70.1336790  38.4998130  55.6705810  71.0822610
  37.9933820  56.5743480  69.9783520  32.4675990  61.9232490  83.4086820
  32.0830780  61.2826160  84.0069780  32.7788180  62.6268610  83.9781550
  38.6173130  58.7709030  78.8895440  38.9843260  58.2967600  79.6356780
  38.4278190  59.6450600  79.2303780  31.4813620  53.5152720  75.0188910
  31.1960540  53.1508390  75.8567530  31.4192480  52.7833180  74.4052050
  36.4072500  57.8117670  81.2079650  36.1029570  58.6909650  81.4330010
  37.3618960  57.8717460  81.2437090  34.9354290  62.0178660  71.8046500
  34.1616550  61.4776280  71.6445220  35.6648920  61.4985270  71.4664260
  34.9791690  61.6859040  75.4425310  35.4970360  60.8827300  75.3882200
  34.5275710  61.6238180  76.2842140  41.0077800  63.9073650  83.2345690
  41.0222340  62.9754610  83.0164600  40.3002900  63.9933410  83.8735460
  46.1414870  58.0913470  69.5044300  46.0578590  58.5227690  68.6540740
  46.8609060  58.5511820  69.9371120  47.2189010  60.5480990  82.5814270
  46.4937200  61.1409770  82.3843660  47.7464470  60.5404530  81.7827640
  38.8351880  63.0338850  73.4868530  39.5223010  63.5808060  73.8676120
  38.0484300  63.5779580  73.5218140  30.9744280  58.6511670  68.9785610
  31.8439130  58.9336470  69.2621530  30.4834600  59.4647540  68.8634420
  40.4411700  65.5491220  80.3286190  41.0853920  65.7550600  81.0059610
  40.8041140  64.7879620  79.8757040  34.0390870  50.3822530  73.5716410
  33.9105500  50.3740430  74.5201330  33.2152890  50.7205620  73.2207420
  41.7143780  63.5523570  79.0463640  42.3566010  62.8516730  79.1595810
  42.2393130  64.3322010  78.8660530  45.5599500  63.8372190  68.7702780
  45.3337080  63.1202630  69.3627420  45.1695700  63.5884630  67.9324530
  43.4881400  64.3518470  82.2499700  43.8237640  64.9385160  82.9277620
  42.5681740  64.2211180  82.4797490  31.0384800  52.1413650  83.0323110
  30.3243320  52.3410570  83.6375720  31.4579840  51.3653220  83.4037910
  39.3169980  64.4009800  85.4187760  38.9966850  63.6819040  85.9633450
  38.6428340  65.0764870  85.4923820  32.9590790  60.4685140  71.1067670
  32.3518740  61.2084040  71.1162970  33.4340140  60.5584500  70.2805870
  42.5323580  54.6335960  80.7824560  42.9004400  53.8131170  81.1104130
  41.6721780  54.6937850  81.1980210  45.8985610  53.5892900  71.5912120
  45.2698770  53.6938570  70.8770350  45.4037530  53.8089680  72.3806000
  38.9861860  67.8284810  73.7193770  39.2403360  67.7906200  72.7973140
  38.0374340  67.7018140  73.7122020  36.0704660  54.1763930  70.3820710
  36.9195190  54.6134080  70.3160900  35.7035930  54.4884190  71.2092770
  46.6992430  53.5043510  81.8490920  46.1966030  54.2448910  82.1884730
  47.5149090  53.8927510  81.5327710  34.4657550  68.0116750  76.6423670
  35.2020030  67.4632210  76.9132240  34.8498470  68.8772760  76.5029660
  31.3503030  64.0790320  72.5165180  30.4242810  64.3211460  72.5070590
  31.8159460  64.9064580  72.3949930  38.2451580  61.0907270  84.3080820
  37.4797250  61.6592270  84.2235490  38.4267540  60.7983480  83.4149050
  35.1642530  56.4057970  83.6369860  34.6338990  55.9148920  83.0093200
  35.8330600  56.8342170  83.1027790  35.6514830  53.3720340  83.7167150
  35.5571700  52.7541090  82.9918020  35.0712220  54.0986630  83.4897060
  38.8235820  60.8247910  81.3706980  39.2423930  61.6680640  81.1983220
  37.9044450  60.9619950  81.1413760  41.1599720  58.5564090  82.7544820
  41.2795930  57.9605230  83.4939660  42.0193720  58.5933780  82.3346120
  43.4987620  59.1101280  81.3307330  42.9722840  59.6343900  80.7272470
  43.8418960  59.7428670  81.9617060  36.6743240  67.1300920  82.4864710
  36.1364330  67.8546980  82.1673410  36.9277200  66.6531260  81.6962050
  37.9268490  55.0985440  84.0120640  38.5168180  54.7901290  84.6998460
  37.1088730  54.6265190  84.1680540  43.3762320  51.3102880  70.3043920
  43.6564610  50.4670780  70.6603340  42.6028050  51.5425990  70.8182670
  39.5305450  68.3652130  82.7451360  39.4564150  69.2687270  83.0523730
  38.6284290  68.0464030  82.7173430  33.7186940  62.9037690  68.5964720
  34.1561810  63.4467360  69.2522300  34.2034670  62.0784640  68.6061060
  30.9332740  65.6926720  76.0484980  31.2635750  64.8247780  75.8163620
  31.3623740  65.8985240  76.8789940  35.5294660  64.0235730  73.7086950
  35.2290200  63.9000700  74.6090860  35.4232150  63.1644320  73.3002680
  31.4222950  66.5597310  78.7866610  30.9853940  66.7398110  79.6190760
  31.9900630  67.3171930  78.6448330  31.2547380  59.0717540  75.1455490
  30.5996220  58.8029180  74.5015190  32.0925330  58.9622020  74.6957470
  45.7436770  62.7866290  81.1720080  44.9296610  63.2163450  81.4345870
  46.1510970  63.3984700  80.5589130  47.8062210  60.8413980  68.0720350
  48.0811050  61.7492860  67.9439570  47.6172950  60.7776510  69.0082340
  32.2923310  59.4570110  79.6858830  32.6596350  59.3697510  80.5654850
  31.7234130  58.6936660  79.5865690  47.0927170  57.9254490  82.6989300
  46.8613260  57.6967240  81.7987250  47.3531720  58.8454040  82.6534190
  30.4685460  56.2816470  71.0880820  29.5649540  56.5446670  70.9132480
  30.9526080  56.5527640  70.3080780  47.1568230  57.0880330  79.8876570
  46.2070940  57.0543870  80.0021560  47.3381240  57.9980440  79.6526340
  32.3479020  50.6427530  77.9400470  32.9955210  50.0924910  77.4995630
  32.7680860  50.8970680  78.7616280  46.2431360  50.8368890  81.2970110
  46.8803580  51.4503030  81.6629300  46.3906250  50.8729550  80.3519340
  48.7855910  52.7282680  68.0793250  49.7105220  52.5963860  67.8711540
  48.7631700  52.8075500  69.0329700  48.8594400  53.4993340  70.7049960
  48.0645900  53.4338460  71.2342870  49.0637680  54.4343980  70.6935310
  32.1011020  50.7983200  80.6825790  31.7525840  51.2547020  81.4483970
  31.7698720  49.9040330  80.7648220  33.7075390  63.9702800  84.8478980
  33.6645020  63.5995710  85.7293440  33.8386400  64.9080370  84.9880800
  37.4081420  65.5262390  80.4488700  37.1672780  65.7936950  79.5619220
  38.3484060  65.6968120  80.5039560  39.6135840  51.9895080  84.2045210
  39.5524730  52.5816910  84.9540620  40.5536220  51.8821040  84.0595470
  42.2510400  51.6465140  83.8437500  42.8650810  51.9644430  83.1818580
  42.7959960  51.1613730  84.4633360  32.7731660  50.3259400  83.9576560
  33.3214650  50.1447450  83.1942670  32.8386970  49.5353510  84.4932870
  42.9918440  50.2097280  80.1706790  42.1178280  50.5432390  79.9679720
  42.8829190  49.7370460  80.9958660  43.8990420  52.4168150  81.5548510
  43.5703780  51.6019910  81.1750240  44.8472720  52.3737960  81.4314200
  33.1775650  64.2823430  80.9184800  32.4509710  63.6628720  80.8510750
  33.2384800  64.6764040  80.0482880  36.7820750  66.4968430  77.7034210
  37.2985770  65.8855790  77.1782470  37.4318130  66.9997210  78.1945220
  39.5216250  67.3876920  78.5303190  39.8094060  67.1331220  77.6536200
  40.0339470  66.8354280  79.1208760  45.2914330  51.8290220  77.1548790
  45.7322420  51.7735320  76.3070390  45.0221920  52.7448230  77.2258970
  47.1552900  51.4605460  75.1657610  47.0941300  50.5166680  75.0188630
  47.9344930  51.5685550  75.7111070  31.4605650  67.5997820  74.1281560
  31.2927690  66.9668500  74.8263450  30.5940160  67.8057220  73.7775750
  43.1272460  50.2096320  75.8598800  43.7301830  50.7816530  76.3347320
  42.3865450  50.7735760  75.6372700  46.2707060  50.6117880  71.1339080
  46.4657690  51.5101330  71.4006510  45.4836930  50.3804960  71.6272030
  33.0668350  66.2931050  71.5731700  32.5415970  66.6739080  70.8693660
  32.9912930  66.9181820  72.2941410  39.5888610  68.3093020  85.8971390
  40.5155920  68.0737290  85.9407350  39.5739040  69.1365020  85.4157420
  36.7752220  50.9737770  85.6613270  36.4936490  51.4771370  84.8974090
  37.1571920  50.1759520  85.2955400  35.6661320  68.2413430  70.4480950
  36.3980140  67.9572710  69.9004840  35.9254990  68.0026710  71.3380330
  34.8276110  64.3578160  70.4527280  34.1984990  64.8263260  71.0013110
  34.9423940  63.5127380  70.8873470  42.2825830  58.4083820  56.6028480
  42.2019880  57.4938430  56.3320190  41.8690250  58.9050890  55.8968190
  40.4143870  60.1862840  58.4837750  39.6385970  59.7063280  58.7736320
  41.0656800  59.5068490  58.3093910  34.4309700  60.4982650  59.3613510
  33.5994580  60.2431360  59.7610020  35.0390680  60.5693420  60.0971430
  44.4351300  64.5923030  57.2636880  43.9732830  63.8210270  57.5924050
  45.2476850  64.6189100  57.7689330  34.4110960  64.5322740  59.5571530
  34.7139000  63.6420480  59.3781750  35.1554550  65.0892960  59.3293780
  39.8552860  62.8620030  58.4907910  39.7861140  61.9209970  58.3297040
  40.6172720  62.9521440  59.0630480  35.0163040  54.0416040  54.1794280
  35.1229790  54.9419770  54.4863040  34.1055400  53.9934010  53.8888930
  44.6682150  53.1640850  55.6505180  45.4891770  52.6737420  55.6930660
  44.7016230  53.7538510  56.4037020  36.8570770  57.0102410  58.5119460
  37.3648990  57.5083380  59.1524480  37.3884010  56.2337610  58.3358820
  34.8222200  53.3610930  60.7853330  35.1639010  54.2052980  60.4907200
  33.8838010  53.5094670  60.9018670  30.8961160  62.4476810  51.6512410
  30.5189140  62.9363910  50.9197310  31.1534230  63.1202090  52.2818940
  46.5206410  64.7216360  60.6860200  45.8369930  65.3915470  60.6776870
  47.0600700  64.9197010  59.9205060  38.5050090  50.8493200  57.1097920
  38.8125070  50.2940090  56.3933420  37.5750790  50.9837660  56.9270910
  44.0565150  66.5660490  59.4005380  44.0692310  66.1622780  58.5327640
  43.5040370  67.3407780  59.2966810  43.4550590  61.4690330  60.7287990
  43.8719380  61.2550440  59.8941450  44.1790410  61.7263120  61.2996610
  47.4012690  59.8677550  60.8204230  46.5731320  59.9370640  60.3454360
  47.9963170  60.4531860  60.3520060  36.4987490  59.4406770  56.6277770
  36.0944490  58.7284020  56.1323670  36.5850610  59.0960010  57.5165810
  36.9669190  63.1274330  58.7916980  36.6697480  62.5219800  58.1124760
  37.9169010  63.1651640  58.6806340  35.2116110  56.2149980  60.4076810
  35.7630700  56.3245320  59.6330060  35.7259620  56.5887580  61.1232040
  45.0554800  66.7006200  62.4540080  44.5785360  67.5078390  62.2612690
  44.3716590  66.0484530  62.6066290  33.1992120  58.3351750  54.1284420
  33.0789720  59.0613840  53.5165690  32.8893010  57.5654660  53.6512330
  32.0825120  63.2067080  56.3459240  31.6753200  63.3481670  55.4912840
  32.9738130  62.9227240  56.1430450  48.0387260  63.6530990  64.6831480
  48.1650320  63.4142870  63.7648660  48.0808640  62.8215530  65.1553560
  41.9004000  67.3558990  63.2526290  42.4148670  67.2667000  64.0548720
  41.0573080  67.7018690  63.5454200  43.1434460  66.7764600  55.3156780
  43.5991410  65.9953980  55.6295400  43.4826980  67.4871420  55.8597960
  30.8937010  62.5481060  62.4747520  31.0568050  62.0786420  61.6566890
  31.3589460  62.0404620  63.1396360  35.6655780  51.6786820  57.5108090
  35.2223930  52.4596360  57.1792610  36.2240770  52.0016710  58.2179030
  35.4570000  56.8020390  55.2389340  35.2310920  56.5857560  56.1435960
  34.6762530  57.2348850  54.8935310  41.2932630  55.4447300  55.8683270
  41.6862200  55.7619500  55.0551960  41.6549480  54.5659180  55.9827790
  30.5167030  55.9768220  49.3016190  30.4341700  56.9198980  49.4431180
  30.1650090  55.8343130  48.4228540  34.1667540  54.5933740  57.3280750
  33.8267590  55.0708970  58.0847800  33.4044860  54.1398860  56.9681850
  34.9354290  62.0178660  53.0303010  34.1616550  61.4776280  52.8701730
  35.6648920  61.4985270  52.6920770  45.6942270  61.0144020  58.8229400
  46.4141390  61.5099310  58.4325510  45.4924090  60.3361910  58.1783270
  41.1552210  52.4081980  52.9658790  40.3416820  51.9095150  52.8904100
  40.9614160  53.2480230  52.5495140  41.0761070  61.0853080  64.7098400
  41.0098380  60.1648750  64.4555990  40.4466210  61.1828520  65.4243040
  43.8700600  56.7801630  51.2620950  44.7580220  57.0918860  51.0872290
  43.8405690  55.9073880  50.8701530  34.9791690  61.6859040  56.6681820
  35.4970360  60.8827300  56.6138710  34.5275710  61.6238180  57.5098650
  46.1414870  58.0913470  50.7300810  46.0578590  58.5227690  49.8797250
  46.8609060  58.5511820  51.1627630  47.2189010  60.5480990  63.8070780
  46.4937200  61.1409770  63.6100170  47.7464470  60.5404530  63.0084150
  47.1702120  64.9455730  53.4582940  46.5278280  64.2911350  53.7326660
  46.7832780  65.3510820  52.6823610  42.7488600  62.2741160  57.3054630
  43.1012420  61.6769290  56.6456000  41.8650930  61.9485390  57.4762880
  30.9744280  58.6511670  50.2042120  31.8439130  58.9336470  50.4878040
  30.4834600  59.4647540  50.0890930  38.1379090  60.0384880  54.3250400
  38.5941870  60.8490130  54.5510590  37.7867300  59.7208020  55.1568890
  40.4411700  65.5491220  61.5542700  41.0853920  65.7550600  62.2316120
  40.8041140  64.7879620  61.1013550  41.7143780  63.5523570  60.2720150
  42.3566010  62.8516730  60.3852320  42.2393130  64.3322010  60.0917040
  43.4881400  64.3518470  63.4756210  43.8237640  64.9385160  64.1534130
  42.5681740  64.2211180  63.7054000  31.3415530  67.8639050  50.7703750
  31.7013170  68.4628390  50.1161020  31.2007870  68.4098940  51.5438780
  31.3257390  66.1293910  65.2446150  31.4348510  65.1888650  65.1041540
  30.6737950  66.3948660  64.5959880  32.9590790  60.4685140  52.3324180
  32.3518740  61.2084040  52.3419480  33.4340140  60.5584500  51.5062380
  45.8985610  53.5892900  52.8168630  45.2698770  53.6938570  52.1026860
  45.4037530  53.8089680  53.6062510  37.8669640  55.8678850  54.2326510
  37.1585790  56.3365190  54.6740120  38.1514120  55.2100860  54.8671700
  41.8985070  52.5929510  55.6722300  41.7752850  52.6115640  54.7231810
  42.8469630  52.6408450  55.7920700  44.9914440  58.7476690  56.5208790
  44.0504580  58.7626920  56.6956480  45.3058510  57.9612650  56.9669090
  33.6642840  57.8621360  50.7645640  33.7446430  56.9148870  50.8763040
  34.5562590  58.1928240  50.8706300  31.3503030  64.0790320  53.7421690
  30.4242810  64.3211460  53.7327100  31.8159460  64.9064580  53.6206440
  33.4715830  67.1962820  67.0565760  34.2728560  67.5174870  67.4701160
  32.9567650  66.8358400  67.7785670  37.5759860  67.1847060  49.6905750
  38.3688470  67.4735890  49.2387540  37.0564210  66.7539230  49.0118230
  43.7380830  67.0322980  65.6150580  44.6902580  66.9481000  65.5650820
  43.5909050  67.6964690  66.2884370  45.3874930  62.8212600  66.0912350
  46.1284400  63.1588360  65.5879810  44.6247610  62.9904660  65.5382120
  44.0620590  60.8727430  64.6267560  44.4761610  61.0272510  65.4757980
  43.1271590  60.9982650  64.7893340  44.5342760  58.2123590  66.6306710
  45.1163530  57.4575910  66.5427190  44.7104530  58.7431030  65.8538190
  43.3762320  51.3102880  51.5300430  43.6564610  50.4670780  51.8859850
  42.6028050  51.5425990  52.0439180  40.0790780  67.5310640  51.5934230
  40.9741570  67.8695610  51.6152990  40.1108410  66.8090050  50.9658510
  30.9332740  65.6926720  57.2741490  31.2635750  64.8247780  57.0420130
  31.3623740  65.8985240  58.1046450  35.5294660  64.0235730  54.9343460
  35.2290200  63.9000700  55.8347370  35.4232150  63.1644320  54.5259190
  31.4222950  66.5597310  60.0123120  30.9853940  66.7398110  60.8447270
  31.9900630  67.3171930  59.8704840  47.0585130  66.0614310  64.3000430
  46.4587120  66.1206870  63.5564350  47.1879030  65.1219290  64.4297280
  31.2547380  59.0717540  56.3712000  30.5996220  58.8029180  55.7271700
  32.0925330  58.9622020  55.9213980  45.7436770  62.7866290  62.3976590
  44.9296610  63.2163450  62.6602380  46.1510970  63.3984700  61.7845640
  47.8062210  60.8413980  49.2976860  48.0811050  61.7492860  49.1696080
  47.6172950  60.7776510  50.2338850  47.7027550  58.7782970  54.2906290
  47.3271150  58.0110900  53.8587580  46.9730670  59.1605670  54.7781220
  47.0927170  57.9254490  63.9245810  46.8613260  57.6967240  63.0243760
  47.3531720  58.8454040  63.8790700  30.4685460  56.2816470  52.3137330
  29.5649540  56.5446670  52.1388990  30.9526080  56.5527640  51.5337290
  46.9778510  57.0040460  57.5913530  47.5015990  56.5103110  56.9603700
  47.5637930  57.1390820  58.3361100  33.0112670  55.3382010  50.2231710
  33.7204370  54.9165230  49.7378990  32.2952610  55.4057240  49.5915060
  46.4678480  56.2613810  53.5305940  46.9637600  56.0284680  54.3154820
  46.2694550  55.4225650  53.1143580  32.3479020  50.6427530  59.1656980
  32.9955210  50.0924910  58.7252140  32.7680860  50.8970680  59.9872790
  47.8965640  54.8974760  56.0643620  47.7864920  54.7430800  57.0025890
  48.6573230  54.3695700  55.8219030  48.8594400  53.4993340  51.9306470
  48.0645900  53.4338460  52.4599380  49.0637680  54.4343980  51.9191820
  45.8012820  67.5384890  55.9244860  46.3971890  67.2169460  55.2479280
  46.0590970  67.0656710  56.7158130  33.7075390  63.9702800  66.0735490
  33.6645020  63.5995710  66.9549950  33.8386400  64.9080370  66.2137310
  33.5463420  66.9165050  63.1933270  32.9523740  66.7849750  63.9323310
  33.5387260  66.0803190  62.7275370  46.3525030  68.1880190  59.7542590
  45.8928000  68.9396000  59.3800610  45.7237490  67.4686660  59.6957390
  33.1775650  64.2823430  62.1441310  32.4509710  63.6628720  62.0767260
  33.2384800  64.6764040  61.2739390  47.1552900  51.4605460  56.3914120
  47.0941300  50.5166680  56.2445140  47.9344930  51.5685550  56.9367580
  31.4605650  67.5997820  55.3538070  31.2927690  66.9668500  56.0519960
  30.5940160  67.8057220  55.0032260  38.6247480  53.5453870  55.8472240
  37.8121990  53.1710760  55.5068120  39.1289120  52.7898950  56.1493430
  43.1272460  50.2096320  57.0855310  43.7301830  50.7816530  57.5603830
  42.3865450  50.7735760  56.8629210  46.2707060  50.6117880  52.3595590
  46.4657690  51.5101330  52.6263020  45.4836930  50.3804960  52.8528540
  33.0668350  66.2931050  52.7988210  32.5415970  66.6739080  52.0950170
  32.9912930  66.9181820  53.5197920  36.6496660  51.6953790  54.4517290
  36.0199400  50.9941100  54.6187420  36.1101800  52.4557920  54.2350450
  47.8233670  67.8518590  54.1202150  47.9985860  67.1656330  53.4763070
  47.1255240  68.3765640  53.7278820  35.6661320  68.2413430  51.6737460
  36.3980140  67.9572710  51.1261350  35.9254990  68.0026710  52.5636840
  46.1566170  67.5362880  66.9468940  46.9491490  67.0412110  66.7394900
  46.4499320  68.2153020  67.5544550  42.2825830  58.4083820  37.8284990
  42.2019880  57.4938430  37.5576700  41.8690250  58.9050890  37.1224700
  40.4143870  60.1862840  39.7094260  39.6385970  59.7063280  39.9992830
  41.0656800  59.5068490  39.5350420  34.4309700  60.4982650  40.5870020
  33.5994580  60.2431360  40.9866530  35.0390680  60.5693420  41.3227940
  34.4110960  64.5322740  40.7828040  34.7139000  63.6420480  40.6038260
  35.1554550  65.0892960  40.5550290  32.8401650  55.4584540  34.3712410
  31.9518350  55.8000510  34.2692290  33.1242840  55.2584860  33.4793240
  30.8034660  58.0590190  40.2552110  31.3750770  57.2912390  40.2555750
  30.8036200  58.3578950  39.3458720  40.6614610  66.8781040  38.1097380
  40.0426050  67.3338540  37.5391820  41.5166390  67.0332500  37.7087080
  32.0459530  53.4674550  42.0421040  31.8662370  52.5700300  42.3223800
  31.6439610  54.0146420  42.7167990  40.8858030  55.6690410  39.9433350
  41.2622850  54.7962290  39.8307020  40.7877540  56.0049110  39.0523790
  35.0163040  54.0416040  35.4050790  35.1229790  54.9419770  35.7119550
  34.1055400  53.9934010  35.1145440  32.6646200  55.9635050  40.6503380
  33.3456310  56.2273420  41.2690780  32.3494250  55.1235920  40.9841390
  36.8570770  57.0102410  39.7375970  37.3648990  57.5083380  40.3780990
  37.3884010  56.2337610  39.5615330  36.3909720  61.2896150  42.1812890
  36.0579100  61.9165070  42.8233960  36.5676400  61.8158030  41.4014560
  34.8222200  53.3610930  42.0109840  35.1639010  54.2052980  41.7163710
  33.8838010  53.5094670  42.1275180  30.8961160  62.4476810  32.8768920
  30.5189140  62.9363910  32.1453820  31.1534230  63.1202090  33.5075450
  38.5050090  50.8493200  38.3354430  38.8125070  50.2940090  37.6189930
  37.5750790  50.9837660  38.1527420  36.4987490  59.4406770  37.8534280
  36.0944490  58.7284020  37.3580180  36.5850610  59.0960010  38.7422320
  36.9669190  63.1274330  40.0173490  36.6697480  62.5219800  39.3381270
  37.9169010  63.1651640  39.9062850  35.2116110  56.2149980  41.6333320
  35.7630700  56.3245320  40.8586570  35.7259620  56.5887580  42.3488550
  46.6809980  50.9691950  30.8963590  46.3682640  51.0618780  31.7962660
  47.4422450  51.5472980  30.8461020  33.1992120  58.3351750  35.3540930
  33.0789720  59.0613840  34.7422200  32.8893010  57.5654660  34.8768840
  32.0825120  63.2067080  37.5715750  31.6753200  63.3481670  36.7169350
  32.9738130  62.9227240  37.3686960  43.8758400  67.6414330  33.9066800
  43.7159540  67.3517270  34.8048630  43.7105110  66.8654460  33.3712030
  35.6655780  51.6786820  38.7364600  35.2223930  52.4596360  38.4049120
  36.2240770  52.0016710  39.4435540  38.7814600  51.2997520  33.6170430
  38.1568780  51.2957390  34.3423740  38.6944720  50.4328480  33.2206400
  37.7031680  52.2234150  40.5954200  38.0004010  53.1296980  40.5146220
  38.2517240  51.7352930  39.9813770  35.4570000  56.8020390  36.4645850
  35.2310920  56.5857560  37.3692470  34.6762530  57.2348850  36.1191820
  41.2932630  55.4447300  37.0939780  41.6862200  55.7619500  36.2808470
  41.6549480  54.5659180  37.2084300  30.3296800  52.0348100  39.3169980
  30.0409850  52.6050960  40.0294960  31.0742560  51.5552550  39.6801210
  30.5167030  55.9768220  30.5272700  30.4341700  56.9198980  30.6687690
  30.1650090  55.8343130  29.6485050  38.3165160  54.7107250  39.5943050
  38.3201220  54.2697200  38.7447590  39.2116280  55.0324580  39.7014870
  34.1667540  54.5933740  38.5537260  33.8267590  55.0708970  39.3104310
  33.4044860  54.1398860  38.1938360  42.3413680  53.4886730  40.6013500
  42.3586420  53.9395380  41.4455350  42.0929260  52.5892370  40.8146940
  38.6173130  58.7709030  41.3408460  38.9843260  58.2967600  42.0869800
  38.4278190  59.6450600  41.6816800  31.4813620  53.5152720  37.4701930
  31.1960540  53.1508390  38.3080550  31.4192480  52.7833180  36.8565070
  36.4072500  57.8117670  43.6592670  36.1029570  58.6909650  43.8843030
  37.3618960  57.8717460  43.6950110  34.9354290  62.0178660  34.2559520
  34.1616550  61.4776280  34.0958240  35.6648920  61.4985270  33.9177280
  41.1552210  52.4081980  34.1915300  40.3416820  51.9095150  34.1160610
  40.9614160  53.2480230  33.7751650  34.9791690  61.6859040  37.8938330
  35.4970360  60.8827300  37.8395220  34.5275710  61.6238180  38.7355160
  38.8351880  63.0338850  35.9381550  39.5223010  63.5808060  36.3189140
  38.0484300  63.5779580  35.9731160  30.9744280  58.6511670  31.4298630
  31.8439130  58.9336470  31.7134550  30.4834600  59.4647540  31.3147440
  38.1379090  60.0384880  35.5506910  38.5941870  60.8490130  35.7767100
  37.7867300  59.7208020  36.3825400  34.0390870  50.3822530  36.0229430
  33.9105500  50.3740430  36.9714350  33.2152890  50.7205620  35.6720440
  31.3415530  67.8639050  31.9960260  31.7013170  68.4628390  31.3417530
  31.2007870  68.4098940  32.7695290  31.0384800  52.1413650  45.4836130
  30.3243320  52.3410570  46.0888740  31.4579840  51.3653220  45.8550930
  37.3584150  65.2470250  32.8133930  37.3494250  65.9799940  32.1978440
  36.4382510  65.0001830  32.9060890  32.9590790  60.4685140  33.5580690
  32.3518740  61.2084040  33.5675990  33.4340140  60.5584500  32.7318890
  40.3443750  65.3098490  31.4759120  40.4455730  65.1062480  30.5461100
  39.4445490  65.0556770  31.6806900  37.8669640  55.8678850  35.4583020
  37.1585790  56.3365190  35.8996630  38.1514120  55.2100860  36.0928210
  41.8985070  52.5929510  36.8978810  41.7752850  52.6115640  35.9488320
  42.8469630  52.6408450  37.0177210  34.9696080  60.4296290  31.3069260
  35.7359350  60.3177650  31.8694690  35.0470770  59.7334260  30.6546030
  33.6642840  57.8621360  31.9902150  33.7446430  56.9148870  32.1019550
  34.5562590  58.1928240  32.0962810  31.3503030  64.0790320  34.9678200
  30.4242810  64.3211460  34.9583610  31.8159460  64.9064580  34.8462950
  33.4715830  67.1962820  48.2822270  34.2728560  67.5174870  48.6957670
  32.9567650  66.8358400  49.0042180  37.5759860  67.1847060  30.9162260
  38.3688470  67.4735890  30.4644050  37.0564210  66.7539230  30.2374740
  46.6290030  66.4117190  32.3399000  46.3431540  65.9982330  31.5253180
  46.4309580  67.3404900  32.2199520  38.0937260  62.4050470  30.7804610
  37.9887900  61.7902820  31.5065990  37.9261480  61.8816360  29.9967620
  37.0015110  60.4261420  33.2811900  37.4231530  60.2601290  34.1243290
  37.1265950  59.6161650  32.7867040  38.4176270  51.9293580  43.2007560
  37.9693570  51.9517840  42.3553110  37.7841470  51.5312600  43.7977860
  43.3762320  51.3102880  32.7556940  43.6564610  50.4670780  33.1116360
  42.6028050  51.5425990  33.2695690  34.6956810  53.5995270  30.2147940
  34.9982710  53.6062700  29.3067090  35.4351400  53.2493130  30.7115600
  40.0790780  67.5310640  32.8190740  40.9741570  67.8695610  32.8409500
  40.1108410  66.8090050  32.1915020  33.7186940  62.9037690  31.0477740
  34.1561810  63.4467360  31.7035320  34.2034670  62.0784640  31.0574080
  35.5294660  64.0235730  36.1599970  35.2290200  63.9000700  37.0603880
  35.4232150  63.1644320  35.7515700  48.2986580  63.8032130  30.8626650
  47.4679540  63.8708780  31.3333880  48.4758410  64.6936250  30.5593510
  31.2547380  59.0717540  37.5968510  30.5996220  58.8029180  36.9528210
  32.0925330  58.9622020  37.1470490  47.8062210  60.8413980  30.5233370
  48.0811050  61.7492860  30.3952590  47.6172950  60.7776510  31.4595360
  30.4685460  56.2816470  33.5393840  29.5649540  56.5446670  33.3645500
  30.9526080  56.5527640  32.7593800  33.0112670  55.3382010  31.4488220
  33.7204370  54.9165230  30.9635500  32.2952610  55.4057240  30.8171570
  32.6586830  51.3921340  30.4890870  33.3814960  51.9330280  30.8072090
  32.9311350  51.1184760  29.6132410  32.3479020  50.6427530  40.3913490
  32.9955210  50.0924910  39.9508650  32.7680860  50.8970680  41.2129300
  48.7855910  52.7282680  30.5306270  49.7105220  52.5963860  30.3224560
  48.7631700  52.8075500  31.4842720  32.1011020  50.7983200  43.1338810
  31.7525840  51.2547020  43.8996990  31.7698720  49.9040330  43.2161240
  32.7731660  50.3259400  46.4089580  33.3214650  50.1447450  45.6455690
  32.8386970  49.5353510  46.9445890  33.5463420  66.9165050  44.4189780
  32.9523740  66.7849750  45.1579820  33.5387260  66.0803190  43.9531880
  42.9918440  50.2097280  42.6219810  42.1178280  50.5432390  42.4192740
  42.8829190  49.7370460  43.4471680  40.7393260  51.1267120  41.5612720
  39.9565050  51.6012620  41.8409480  40.4456190  50.2221950  41.4525900
  32.0833670  51.4314600  34.0826440  32.8413030  51.5443480  33.5090470
  31.6210840  52.2683800  34.0369870  38.6247480  53.5453870  37.0728750
  37.8121990  53.1710760  36.7324630  39.1289120  52.7898950  37.3749940
  33.0668350  66.2931050  34.0244720  32.5415970  66.6739080  33.3206680
  32.9912930  66.9181820  34.7454430  34.4558820  51.9578650  32.6228410
  34.9851580  51.1708450  32.4936360  35.0887140  52.6369840  32.8563940
  36.6496660  51.6953790  35.6773800  36.0199400  50.9941100  35.8443930
  36.1101800  52.4557920  35.4606960  47.8233670  67.8518590  35.3458660
  47.9985860  67.1656330  34.7019580  47.1255240  68.3765640  34.9535330
  34.8276110  64.3578160  32.9040300  34.1984990  64.8263260  33.4526130
  34.9423940  63.5127380  33.3386490  42.2825830  58.4083820  19.0541500
  42.2019880  57.4938430  18.7833210  41.8690250  58.9050890  18.3481210
  40.4143870  60.1862840  20.9350770  39.6385970  59.7063280  21.2249340
  41.0656800  59.5068490  20.7606930  34.4309700  60.4982650  21.8126530
  33.5994580  60.2431360  22.2123040  35.0390680  60.5693420  22.5484450
  44.4351300  64.5923030  19.7149900  43.9732830  63.8210270  20.0437070
  45.2476850  64.6189100  20.2202350  34.4110960  64.5322740  22.0084550
  34.7139000  63.6420480  21.8294770  35.1554550  65.0892960  21.7806800
  32.8401650  55.4584540  15.5968920  31.9518350  55.8000510  15.4948800
  33.1242840  55.2584860  14.7049750  30.8034660  58.0590190  21.4808620
  31.3750770  57.2912390  21.4812260  30.8036200  58.3578950  20.5715230
  40.6614610  66.8781040  19.3353890  40.0426050  67.3338540  18.7648330
  41.5166390  67.0332500  18.9343590  39.8552860  62.8620030  20.9420930
  39.7861140  61.9209970  20.7810060  40.6172720  62.9521440  21.5143500
  32.0459530  53.4674550  23.2677550  31.8662370  52.5700300  23.5480310
  31.6439610  54.0146420  23.9424500  40.8858030  55.6690410  21.1689860
  41.2622850  54.7962290  21.0563530  40.7877540  56.0049110  20.2780300
  35.0163040  54.0416040  16.6307300  35.1229790  54.9419770  16.9376060
  34.1055400  53.9934010  16.3401950  44.6682150  53.1640850  18.1018200
  45.4891770  52.6737420  18.1443680  44.7016230  53.7538510  18.8550040
  32.6646200  55.9635050  21.8759890  33.3456310  56.2273420  22.4947290
  32.3494250  55.1235920  22.2097900  36.8570770  57.0102410  20.9632480
  37.3648990  57.5083380  21.6037500  37.3884010  56.2337610  20.7871840
  48.9581700  55.1807600  24.6661830  48.2533870  55.5689310  24.1476940
  49.2239620  55.8757890  25.2682760  35.1406870  51.6500970  25.2295900
  35.1425310  52.1673360  24.4241800  34.3111180  51.1731150  25.2065830
  41.5277960  61.7620280  16.7285800  40.9095230  62.2269730  16.1648520
  42.0401210  62.4547760  17.1455310  36.3909720  61.2896150  23.4069400
  36.0579100  61.9165070  24.0490470  36.5676400  61.8158030  22.6271070
  44.9043630  55.1041230  20.8745740  44.1999200  55.3926120  21.4548850
  45.2655790  55.9141340  20.5145300  34.8222200  53.3610930  23.2366350
  35.1639010  54.2052980  22.9420220  33.8838010  53.5094670  23.3531690
  35.6028820  63.2576950  25.2218580  36.2202820  63.9328030  24.9403030
  34.7421940  63.6664930  25.1306080  30.8961160  62.4476810  14.1025430
  30.5189140  62.9363910  13.3710330  31.1534230  63.1202090  14.7331960
  47.9730550  54.5496020  21.2654950  47.0255460  54.5835000  21.3970380
  48.2980540  55.3634970  21.6504310  38.5050090  50.8493200  19.5610940
  38.8125070  50.2940090  18.8446440  37.5750790  50.9837660  19.3783930
  44.0565150  66.5660490  21.8518400  44.0692310  66.1622780  20.9840660
  43.5040370  67.3407780  21.7479830  45.3510570  63.2876710  16.9408570
  45.2406900  62.3451040  17.0657990  45.3478820  63.6492350  17.8271330
  43.4550590  61.4690330  23.1801010  43.8719380  61.2550440  22.3454470
  44.1790410  61.7263120  23.7509630  40.8930850  58.9142030  16.2971060
  39.9660130  58.8479410  16.5259530  41.0455670  59.8522160  16.1826300
  40.8799930  55.1859030  13.2938220  39.9403600  55.3472990  13.3790680
  41.1983190  55.9044710  12.7474210  47.4012690  59.8677550  23.2717250
  46.5731320  59.9370640  22.7967380  47.9963170  60.4531860  22.8033080
  44.9228140  60.4762330  16.8006310  44.3040560  60.1381880  16.1532610
  44.9052590  59.8322090  17.5085500  44.3654700  56.6546870  24.2172120
  43.9525880  57.4800580  24.4712110  43.6330650  56.0691910  24.0248480
  36.4987490  59.4406770  19.0790790  36.0944490  58.7284020  18.5836690
  36.5850610  59.0960010  19.9678830  36.9669190  63.1274330  21.2430000
  36.6697480  62.5219800  20.5637780  37.9169010  63.1651640  21.1319360
  35.2116110  56.2149980  22.8589830  35.7630700  56.3245320  22.0843080
  35.7259620  56.5887580  23.5745060  36.0587620  62.8656020  27.8937800
  35.1616150  63.0895990  28.1411200  36.0840490  62.9890960  26.9449200
  43.0992840  59.7149140  13.8079060  43.5386120  58.8771570  13.6616880
  43.8121260  60.3478540  13.8943200  34.8858840  59.7369340  26.4695170
  34.7466610  60.6092140  26.8382570  34.0040200  59.3942150  26.3243110
  41.2088220  64.6545210  17.7760300  41.6484130  65.3969540  17.3615690
  41.1475110  64.8971780  18.6999260  36.6839190  65.6791040  28.6780320
  36.6554620  66.0833990  27.8108750  36.5204160  64.7501400  28.5151920
  46.6809980  50.9691950  12.1220100  46.3682640  51.0618780  13.0219170
  47.4422450  51.5472980  12.0717530  33.1992120  58.3351750  16.5797440
  33.0789720  59.0613840  15.9678710  32.8893010  57.5654660  16.1025350
  30.8377490  61.5066890  22.3866080  30.9157910  61.6415660  21.4421800
  31.4519170  60.7982780  22.5794200  32.0825120  63.2067080  18.7972260
  31.6753200  63.3481670  17.9425860  32.9738130  62.9227240  18.5943470
  41.9004000  67.3558990  25.7039310  42.4148670  67.2667000  26.5061740
  41.0573080  67.7018690  25.9967220  43.8758400  67.6414330  15.1323310
  43.7159540  67.3517270  16.0305140  43.7105110  66.8654460  14.5968540
  36.3546780  67.4212860  16.9094930  36.1789260  66.5048400  16.6962730
  35.5002520  67.7800150  17.1492730  43.5784530  65.1501890  13.6921310
  42.8849690  65.1479180  13.0323590  44.3207390  64.7261210  13.2615480
  43.1434460  66.7764600  17.7669800  43.5991410  65.9953980  18.0808420
  43.4826980  67.4871420  18.3110980  47.8911270  55.7063450  28.0994240
  47.2755540  56.2143120  27.5709700  47.5707690  54.8061780  28.0420180
  30.8937010  62.5481060  24.9260540  31.0568050  62.0786420  24.1079910
  31.3589460  62.0404620  25.5909380  35.6655780  51.6786820  19.9621110
  35.2223930  52.4596360  19.6305630  36.2240770  52.0016710  20.6692050
  44.9530100  55.7664290  26.6953090  44.1023690  55.4670040  27.0162160
  44.7931890  56.0106300  25.7836910  38.7814600  51.2997520  14.8426940
  38.1568780  51.2957390  15.5680250  38.6944720  50.4328480  14.4462910
  37.7031680  52.2234150  21.8210710  38.0004010  53.1296980  21.7402730
  38.2517240  51.7352930  21.2070280  35.4570000  56.8020390  17.6902360
  35.2310920  56.5857560  18.5948980  34.6762530  57.2348850  17.3448330
  42.6867760  56.8083760  16.2893010  42.0876650  57.5319560  16.1056630
  43.2347370  56.7460540  15.5069460  41.2932630  55.4447300  18.3196290
  41.6862200  55.7619500  17.5064980  41.6549480  54.5659180  18.4340810
  33.0279750  54.1119640  26.5096410  32.6343140  54.9594850  26.7169190
  32.3398150  53.4746010  26.7005050  30.3296800  52.0348100  20.5426490
  30.0409850  52.6050960  21.2551470  31.0742560  51.5552550  20.9057720
  30.5167030  55.9768220  11.7529210  30.4341700  56.9198980  11.8944200
  30.1650090  55.8343130  10.8741560  41.8787770  58.0353050  22.4147070
  41.1468890  58.5439860  22.7637170  41.4812110  57.2183030  22.1135850
  38.3165160  54.7107250  20.8199560  38.3201220  54.2697200  19.9704100
  39.2116280  55.0324580  20.9271380  34.1667540  54.5933740  19.7793770
  33.8267590  55.0708970  20.5360820  33.4044860  54.1398860  19.4194870
  38.3785310  55.7119330  13.8106320  38.4998130  55.6705810  14.7592140
  37.9933820  56.5743480  13.6553050  42.3413680  53.4886730  21.8270010
  42.3586420  53.9395380  22.6711860  42.0929260  52.5892370  22.0403450
  37.3906810  58.0220470  13.2089620  36.8223710  57.5738720  12.5825530
  38.0995810  58.3813250  12.6754770  45.7684430  50.9018910  27.6656390
  46.0930200  50.1708570  28.1914370  45.8040940  50.5832550  26.7637380
  32.4675990  61.9232490  27.0856350  32.0830780  61.2826160  27.6839310
  32.7788180  62.6268610  27.6551080  38.6173130  58.7709030  22.5664970
  38.9843260  58.2967600  23.3126310  38.4278190  59.6450600  22.9073310
  31.4813620  53.5152720  18.6958440  31.1960540  53.1508390  19.5337060
  31.4192480  52.7833180  18.0821580  36.4072500  57.8117670  24.8849180
  36.1029570  58.6909650  25.1099540  37.3618960  57.8717460  24.9206620
  34.9354290  62.0178660  15.4816030  34.1616550  61.4776280  15.3214750
  35.6648920  61.4985270  15.1433790  45.6942270  61.0144020  21.2742420
  46.4141390  61.5099310  20.8838530  45.4924090  60.3361910  20.6296290
  41.1552210  52.4081980  15.4171810  40.3416820  51.9095150  15.3417120
  40.9614160  53.2480230  15.0008160  41.0761070  61.0853080  27.1611420
  41.0098380  60.1648750  26.9069010  40.4466210  61.1828520  27.8756060
  43.8700600  56.7801630  13.7133970  44.7580220  57.0918860  13.5385310
  43.8405690  55.9073880  13.3214550  34.9791690  61.6859040  19.1194840
  35.4970360  60.8827300  19.0651730  34.5275710  61.6238180  19.9611670
  39.8661190  62.9525320  14.3922140  40.2076890  63.6967550  13.8965460
  39.0373900  63.2656440  14.7546970  32.4636230  58.6520410  26.0320540
  32.1051170  59.3174260  26.6193880  32.1690790  57.8203960  26.4033160
  41.0077800  63.9073650  26.9115220  41.0222340  62.9754610  26.6934130
  40.3002900  63.9933410  27.5504990  46.1414870  58.0913470  13.1813830
  46.0578590  58.5227690  12.3310270  46.8609060  58.5511820  13.6140650
  47.1702120  64.9455730  15.9095960  46.5278280  64.2911350  16.1839680
  46.7832780  65.3510820  15.1336630  42.7488600  62.2741160  19.7567650
  43.1012420  61.6769290  19.0969020  41.8650930  61.9485390  19.9275900
  38.8351880  63.0338850  17.1638060  39.5223010  63.5808060  17.5445650
  38.0484300  63.5779580  17.1987670  30.9744280  58.6511670  12.6555140
  31.8439130  58.9336470  12.9391060  30.4834600  59.4647540  12.5403950
  38.1379090  60.0384880  16.7763420  38.5941870  60.8490130  17.0023610
  37.7867300  59.7208020  17.6081910  40.4411700  65.5491220  24.0055720
  41.0853920  65.7550600  24.6829140  40.8041140  64.7879620  23.5526570
  34.0390870  50.3822530  17.2485940  33.9105500  50.3740430  18.1970860
  33.2152890  50.7205620  16.8976950  41.7143780  63.5523570  22.7233170
  42.3566010  62.8516730  22.8365340  42.2393130  64.3322010  22.5430060
  45.5599500  63.8372190  12.4472310  45.3337080  63.1202630  13.0396950
  45.1695700  63.5884630  11.6094060  31.3415530  67.8639050  13.2216770
  31.7013170  68.4628390  12.5674040  31.2007870  68.4098940  13.9951800
  31.0384800  52.1413650  26.7092640  30.3243320  52.3410570  27.3145250
  31.4579840  51.3653220  27.0807440  45.1415750  61.7544130  14.1086470
  44.8537450  62.2156820  14.8964350  45.9367920  61.2941900  14.3770690
  31.3257390  66.1293910  27.6959170  31.4348510  65.1888650  27.5554560
  30.6737950  66.3948660  27.0472900  39.3169980  64.4009800  29.0957290
  38.9966850  63.6819040  29.6402980  38.6428340  65.0764870  29.1693350
  37.3584150  65.2470250  14.0390440  37.3494250  65.9799940  13.4234950
  36.4382510  65.0001830  14.1317400  32.9590790  60.4685140  14.7837200
  32.3518740  61.2084040  14.7932500  33.4340140  60.5584500  13.9575400
  42.5323580  54.6335960  24.4594090  42.9004400  53.8131170  24.7873660
  41.6721780  54.6937850  24.8749740  45.8985610  53.5892900  15.2681650
  45.2698770  53.6938570  14.5539880  45.4037530  53.8089680  16.0575530
  40.3443750  65.3098490  12.7015630  40.4455730  65.1062480  11.7717610
  39.4445490  65.0556770  12.9063410  37.8669640  55.8678850  16.6839530
  37.1585790  56.3365190  17.1253140  38.1514120  55.2100860  17.3184720
  39.4925570  57.2875550  24.6832060  39.9910820  57.7621370  25.3483910
  39.6348520  56.3639070  24.8902090  41.8985070  52.5929510  18.1235320
  41.7752850  52.6115640  17.1744830  42.8469630  52.6408450  18.2433720
  38.9861860  67.8284810  17.3963300  39.2403360  67.7906200  16.4742670
  38.0374340  67.7018140  17.3891550  36.0704660  54.1763930  14.0590240
  36.9195190  54.6134080  13.9930430  35.7035930  54.4884190  14.8862300
  46.6992430  53.5043510  25.5260450  46.1966030  54.2448910  25.8654260
  47.5149090  53.8927510  25.2097240  44.9914440  58.7476690  18.9721810
  44.0504580  58.7626920  19.1469500  45.3058510  57.9612650  19.4182110
  34.9696080  60.4296290  12.5325770  35.7359350  60.3177650  13.0951200
  35.0470770  59.7334260  11.8802540  33.6642840  57.8621360  13.2158660
  33.7446430  56.9148870  13.3276060  34.5562590  58.1928240  13.3219320
  34.4657550  68.0116750  20.3193200  35.2020030  67.4632210  20.5901770
  34.8498470  68.8772760  20.1799190  31.3503030  64.0790320  16.1934710
  30.4242810  64.3211460  16.1840120  31.8159460  64.9064580  16.0719460
  33.4715830  67.1962820  29.5078780  34.2728560  67.5174870  29.9214180
  32.9567650  66.8358400  30.2298690  37.5759860  67.1847060  12.1418770
  38.3688470  67.4735890  11.6900560  37.0564210  66.7539230  11.4631250
  46.6290030  66.4117190  13.5655510  46.3431540  65.9982330  12.7509690
  46.4309580  67.3404900  13.4456030  31.1913640  59.6836280  28.4514830
  31.6952660  59.1043560  29.0231060  30.4521060  59.9676510  28.9891200
  38.0937260  62.4050470  12.0061120  37.9887900  61.7902820  12.7322500
  37.9261480  61.8816360  11.2224130  38.2451580  61.0907270  27.9850350
  37.4797250  61.6592270  27.9005020  38.4267540  60.7983480  27.0918580
  41.3339990  61.4670500  12.6103110  40.7850090  61.9139800  13.2545850
  41.9559250  60.9619750  13.1340780  33.2236720  57.8265870  29.3464900
  33.2642060  57.5279740  30.2550130  34.0782220  58.2273480  29.1872420
  37.0015110  60.4261420  14.5068410  37.4231530  60.2601290  15.3499800
  37.1265950  59.6161650  14.0123550  35.1642530  56.4057970  27.3139390
  34.6338990  55.9148920  26.6862730  35.8330600  56.8342170  26.7797320
  39.5142750  59.4499030  11.7545510  40.0348410  58.7348050  11.3886660
  40.1611150  60.0884900  12.0546020  44.0620590  60.8727430  27.0780580
  44.4761610  61.0272510  27.9271000  43.1271590  60.9982650  27.2406360
  35.6514830  53.3720340  27.3936680  35.5571700  52.7541090  26.6687550
  35.0712220  54.0986630  27.1666590  38.4176270  51.9293580  24.4264070
  37.9693570  51.9517840  23.5809620  37.7841470  51.5312600  25.0234370
  38.8235820  60.8247910  25.0476510  39.2423930  61.6680640  24.8752750
  37.9044450  60.9619950  24.8183290  43.4987620  59.1101280  25.0076860
  42.9722840  59.6343900  24.4042000  43.8418960  59.7428670  25.6386590
  35.8974010  56.4994650  11.4526570  35.6963070  55.6362010  11.8139910
  35.7266060  56.4128010  10.5148170  36.6743240  67.1300920  26.1634240
  36.1364330  67.8546980  25.8442940  36.9277200  66.6531260  25.3731580
  43.3762320  51.3102880  13.9813450  43.6564610  50.4670780  14.3372870
  42.6028050  51.5425990  14.4952200  34.6956810  53.5995270  11.4404450
  34.9982710  53.6062700  10.5323600  35.4351400  53.2493130  11.9372110
  39.5305450  68.3652130  26.4220890  39.4564150  69.2687270  26.7293260
  38.6284290  68.0464030  26.3942960  37.9141740  52.5429890  12.4260650
  37.5663740  51.8653880  11.8463100  38.1154510  52.0819400  13.2404040
  40.0790780  67.5310640  14.0447250  40.9741570  67.8695610  14.0666010
  40.1108410  66.8090050  13.4171530  33.7186940  62.9037690  12.2734250
  34.1561810  63.4467360  12.9291830  34.2034670  62.0784640  12.2830590
  30.9332740  65.6926720  19.7254510  31.2635750  64.8247780  19.4933150
  31.3623740  65.8985240  20.5559470  35.5294660  64.0235730  17.3856480
  35.2290200  63.9000700  18.2860390  35.4232150  63.1644320  16.9772210
  31.4222950  66.5597310  22.4636140  30.9853940  66.7398110  23.2960290
  31.9900630  67.3171930  22.3217860  48.2986580  63.8032130  12.0883160
  47.4679540  63.8708780  12.5590390  48.4758410  64.6936250  11.7850020
  47.7543040  60.5479610  14.5917360  48.5161950  61.1176260  14.6977050
  47.7697410  59.9806810  15.3625670  31.2547380  59.0717540  18.8225020
  30.5996220  58.8029180  18.1784720  32.0925330  58.9622020  18.3727000
  48.7603010  61.4029710  19.4359290  49.1311840  60.6197030  19.0295260
  49.4004940  62.0918810  19.2576590  47.8062210  60.8413980  11.7489880
  48.0811050  61.7492860  11.6209100  47.6172950  60.7776510  12.6851870
  44.2037820  53.8658830  13.0443510  44.6222700  53.6789810  12.2040170
  43.8973880  53.0137880  13.3546440  47.7027550  58.7782970  16.7419310
  47.3271150  58.0110900  16.3100600  46.9730670  59.1605670  17.2294240
  32.2923310  59.4570110  23.3628360  32.6596350  59.3697510  24.2424380
  31.7234130  58.6936660  23.2635220  47.0927170  57.9254490  26.3758830
  46.8613260  57.6967240  25.4756780  47.3531720  58.8454040  26.3303720
  31.8439310  56.3679200  27.2686780  30.9495360  56.3345960  27.6080490
  32.3836860  56.5665990  28.0338030  45.5315240  53.1510920  29.1538530
  46.4085420  53.1594320  29.5372530  45.5436080  52.4141760  28.5430880
  30.4685460  56.2816470  14.7650350  29.5649540  56.5446670  14.5902010
  30.9526080  56.5527640  13.9850310  46.9778510  57.0040460  20.0426550
  47.5015990  56.5103110  19.4116720  47.5637930  57.1390820  20.7874120
  47.1568230  57.0880330  23.5646100  46.2070940  57.0543870  23.6791090
  47.3381240  57.9980440  23.3295870  33.0112670  55.3382010  12.6744730
  33.7204370  54.9165230  12.1892010  32.2952610  55.4057240  12.0428080
  32.6586830  51.3921340  11.7147380  33.3814960  51.9330280  12.0328600
  32.9311350  51.1184760  10.8388920  46.4678480  56.2613810  15.9818960
  46.9637600  56.0284680  16.7667840  46.2694550  55.4225650  15.5656600
  32.3479020  50.6427530  21.6170000  32.9955210  50.0924910  21.1765160
  32.7680860  50.8970680  22.4385810  47.8965640  54.8974760  18.5156640
  47.7864920  54.7430800  19.4538910  48.6573230  54.3695700  18.2732050
  46.2431360  50.8368890  24.9739640  46.8803580  51.4503030  25.3398830
  46.3906250  50.8729550  24.0288870  48.7855910  52.7282680  11.7562780
  49.7105220  52.5963860  11.5481070  48.7631700  52.8075500  12.7099230
  48.8594400  53.4993340  14.3819490  48.0645900  53.4338460  14.9112400
  49.0637680  54.4343980  14.3704840  45.8012820  67.5384890  18.3757880
  46.3971890  67.2169460  17.6992300  46.0590970  67.0656710  19.1671150
  32.1011020  50.7983200  24.3595320  31.7525840  51.2547020  25.1253500
  31.7698720  49.9040330  24.4417750  33.7075390  63.9702800  28.5248510
  33.6645020  63.5995710  29.4062970  33.8386400  64.9080370  28.6650330
  37.4081420  65.5262390  24.1258230  37.1672780  65.7936950  23.2388750
  38.3484060  65.6968120  24.1809090  42.2510400  51.6465140  27.5207030
  42.8650810  51.9644430  26.8588110  42.7959960  51.1613730  28.1402890
  32.7731660  50.3259400  27.6346090  33.3214650  50.1447450  26.8712200
  32.8386970  49.5353510  28.1702400  33.5463420  66.9165050  25.6446290
  32.9523740  66.7849750  26.3836330  33.5387260  66.0803190  25.1788390
  42.9918440  50.2097280  23.8476320  42.1178280  50.5432390  23.6449250
  42.8829190  49.7370460  24.6728190  43.8990420  52.4168150  25.2318040
  43.5703780  51.6019910  24.8519770  44.8472720  52.3737960  25.1083730
  33.1775650  64.2823430  24.5954330  32.4509710  63.6628720  24.5280280
  33.2384800  64.6764040  23.7252410  36.7820750  66.4968430  21.3803740
  37.2985770  65.8855790  20.8552000  37.4318130  66.9997210  21.8714750
  39.5216250  67.3876920  22.2072720  39.8094060  67.1331220  21.3305730
  40.0339470  66.8354280  22.7978290  40.7393260  51.1267120  22.7869230
  39.9565050  51.6012620  23.0665990  40.4456190  50.2221950  22.6782410
  45.2914330  51.8290220  20.8318320  45.7322420  51.7735320  19.9839920
  45.0221920  52.7448230  20.9028500  47.1552900  51.4605460  18.8427140
  47.0941300  50.5166680  18.6958160  47.9344930  51.5685550  19.3880600
  31.4605650  67.5997820  17.8051090  31.2927690  66.9668500  18.5032980
  30.5940160  67.8057220  17.4545280  32.0833670  51.4314600  15.3082950
  32.8413030  51.5443480  14.7346980  31.6210840  52.2683800  15.2626380
  38.6247480  53.5453870  18.2985260  37.8121990  53.1710760  17.9581140
  39.1289120  52.7898950  18.6006450  43.1272460  50.2096320  19.5368330
  43.7301830  50.7816530  20.0116850  42.3865450  50.7735760  19.3142230
  46.2707060  50.6117880  14.8108610  46.4657690  51.5101330  15.0776040
  45.4836930  50.3804960  15.3041560  33.0668350  66.2931050  15.2501230
  32.5415970  66.6739080  14.5463190  32.9912930  66.9181820  15.9710940
  34.4558820  51.9578650  13.8484920  34.9851580  51.1708450  13.7192870
  35.0887140  52.6369840  14.0820450  36.6496660  51.6953790  16.9030310
  36.0199400  50.9941100  17.0700440  36.1101800  52.4557920  16.6863470
  39.5888610  68.3093020  29.5740920  40.5155920  68.0737290  29.6176880
  39.5739040  69.1365020  29.0926950  47.8233670  67.8518590  16.5715170
  47.9985860  67.1656330  15.9276090  47.1255240  68.3765640  16.1791840
  36.7752220  50.9737770  29.3382800  36.4936490  51.4771370  28.5743620
  37.1571920  50.1759520  28.9724930  35.6661320  68.2413430  14.1250480
  36.3980140  67.9572710  13.5774370  35.9254990  68.0026710  15.0149860
  34.8276110  64.3578160  14.1296810  34.1984990  64.8263260  14.6782640
  34.9423940  63.5127380  14.5643000  43.3767680  50.3891350  29.9163270
  43.2633130  50.7085960  30.8114790  44.1937420  50.7903860  29.6200550
  40.4143870  60.1862840   2.1607280  39.6385970  59.7063280   2.4505850
  41.0656800  59.5068490   1.9863440  34.4309700  60.4982650   3.0383040
  33.5994580  60.2431360   3.4379550  35.0390680  60.5693420   3.7740960
  34.4110960  64.5322740   3.2341060  34.7139000  63.6420480   3.0551280
  35.1554550  65.0892960   3.0063310  30.8034660  58.0590190   2.7065130
  31.3750770  57.2912390   2.7068770  30.8036200  58.3578950   1.7971740
  39.8552860  62.8620030   2.1677440  39.7861140  61.9209970   2.0066570
  40.6172720  62.9521440   2.7400010  32.0459530  53.4674550   4.4934060
  31.8662370  52.5700300   4.7736820  31.6439610  54.0146420   5.1681010
  32.6646200  55.9635050   3.1016400  33.3456310  56.2273420   3.7203800
  32.3494250  55.1235920   3.4354410  36.8570770  57.0102410   2.1888990
  37.3648990  57.5083380   2.8294010  37.3884010  56.2337610   2.0128350
  48.9581700  55.1807600   5.8918340  48.2533870  55.5689310   5.3733450
  49.2239620  55.8757890   6.4939270  35.1406870  51.6500970   6.4552410
  35.1425310  52.1673360   5.6498310  34.3111180  51.1731150   6.4322340
  36.3909720  61.2896150   4.6325910  36.0579100  61.9165070   5.2746980
  36.5676400  61.8158030   3.8527580  44.9043630  55.1041230   2.1002250
  44.1999200  55.3926120   2.6805360  45.2655790  55.9141340   1.7401810
  34.8222200  53.3610930   4.4622860  35.1639010  54.2052980   4.1676730
  33.8838010  53.5094670   4.5788200  35.6028820  63.2576950   6.4475090
  36.2202820  63.9328030   6.1659540  34.7421940  63.6664930   6.3562590
  46.5206410  64.7216360   4.3629730  45.8369930  65.3915470   4.3546400
  47.0600700  64.9197010   3.5974590  47.9730550  54.5496020   2.4911460
  47.0255460  54.5835000   2.6226890  48.2980540  55.3634970   2.8760820
  44.0565150  66.5660490   3.0774910  44.0692310  66.1622780   2.2097170
  43.5040370  67.3407780   2.9736340  43.4550590  61.4690330   4.4057520
  43.8719380  61.2550440   3.5710980  44.1790410  61.7263120   4.9766140
  47.4012690  59.8677550   4.4973760  46.5731320  59.9370640   4.0223890
  47.9963170  60.4531860   4.0289590  44.3654700  56.6546870   5.4428630
  43.9525880  57.4800580   5.6968620  43.6330650  56.0691910   5.2504990
  36.9669190  63.1274330   2.4686510  36.6697480  62.5219800   1.7894290
  37.9169010  63.1651640   2.3575870  35.2116110  56.2149980   4.0846340
  35.7630700  56.3245320   3.3099590  35.7259620  56.5887580   4.8001570
  45.0554800  66.7006200   6.1309610  44.5785360  67.5078390   5.9382220
  44.3716590  66.0484530   6.2835820  36.0587620  62.8656020   9.1194310
  35.1616150  63.0895990   9.3667710  36.0840490  62.9890960   8.1705710
  34.8858840  59.7369340   7.6951680  34.7466610  60.6092140   8.0639080
  34.0040200  59.3942150   7.5499620  36.6839190  65.6791040   9.9036830
  36.6554620  66.0833990   9.0365260  36.5204160  64.7501400   9.7408430
  48.6354010  66.4618140  11.2001000  49.1113730  66.9401030  11.8790080
  49.2561170  66.3935630  10.4746500  30.8377490  61.5066890   3.6122590
  30.9157910  61.6415660   2.6678310  31.4519170  60.7982780   3.8050710
  48.0387260  63.6530990   8.3601010  48.1650320  63.4142870   7.4418190
  48.0808640  62.8215530   8.8323090  41.9004000  67.3558990   6.9295820
  42.4148670  67.2667000   7.7318250  41.0573080  67.7018690   7.2223730
  47.8911270  55.7063450   9.3250750  47.2755540  56.2143120   8.7966210
  47.5707690  54.8061780   9.2676690  30.8937010  62.5481060   6.1517050
  31.0568050  62.0786420   5.3336420  31.3589460  62.0404620   6.8165890
  39.9525590  54.5455340   6.7912940  39.4904960  54.7538360   7.6032880
  39.5503700  53.7314690   6.4883610  44.9530100  55.7664290   7.9209600
  44.1023690  55.4670040   8.2418670  44.7931890  56.0106300   7.0093420
  42.0479810  57.2666040  10.0208390  42.3733220  56.4329790   9.6810620
  42.8360140  57.7894560  10.1686720  37.7031680  52.2234150   3.0467220
  38.0004010  53.1296980   2.9659240  38.2517240  51.7352930   2.4326790
  37.8969210  57.7005970   9.5819140  37.8012810  56.7600700   9.4319540
  38.7401190  57.9221040   9.1867210  33.0279750  54.1119640   7.7352920
  32.6343140  54.9594850   7.9425700  32.3398150  53.4746010   7.9261560
  39.6024800  54.1954610  10.8049660  38.9123120  54.0026810  11.4395750
  40.3457100  54.4789250  11.3373960  30.3296800  52.0348100   1.7683000
  30.0409850  52.6050960   2.4807980  31.0742560  51.5552550   2.1314230
  41.8787770  58.0353050   3.6403580  41.1468890  58.5439860   3.9893680
  41.4812110  57.2183030   3.3392360  42.3413680  53.4886730   3.0526520
  42.3586420  53.9395380   3.8968370  42.0929260  52.5892370   3.2659960
  45.7684430  50.9018910   8.8912900  46.0930200  50.1708570   9.4170880
  45.8040940  50.5832550   7.9893890  32.4675990  61.9232490   8.3112860
  32.0830780  61.2826160   8.9095820  32.7788180  62.6268610   8.8807590
  38.6173130  58.7709030   3.7921480  38.9843260  58.2967600   4.5382820
  38.4278190  59.6450600   4.1329820  36.4072500  57.8117670   6.1105690
  36.1029570  58.6909650   6.3356050  37.3618960  57.8717460   6.1463130
  45.6942270  61.0144020   2.4998930  46.4141390  61.5099310   2.1095040
  45.4924090  60.3361910   1.8552800  41.0761070  61.0853080   8.3867930
  41.0098380  60.1648750   8.1325520  40.4466210  61.1828520   9.1012570
  32.4636230  58.6520410   7.2577050  32.1051170  59.3174260   7.8450390
  32.1690790  57.8203960   7.6289670  35.6649350  59.1104650  10.1416600
  35.3649490  59.2561830   9.2444420  36.4360590  58.5509940  10.0489990
  41.0077800  63.9073650   8.1371730  41.0222340  62.9754610   7.9190640
  40.3002900  63.9933410   8.7761500  47.2189010  60.5480990   7.4840310
  46.4937200  61.1409770   7.2869700  47.7464470  60.5404530   6.6853680
  40.4411700  65.5491220   5.2312230  41.0853920  65.7550600   5.9085650
  40.8041140  64.7879620   4.7783080  41.7143780  63.5523570   3.9489680
  42.3566010  62.8516730   4.0621850  42.2393130  64.3322010   3.7686570
  43.4881400  64.3518470   7.1525740  43.8237640  64.9385160   7.8303660
  42.5681740  64.2211180   7.3823530  31.0384800  52.1413650   7.9349150
  30.3243320  52.3410570   8.5401760  31.4579840  51.3653220   8.3063950
  31.3257390  66.1293910   8.9215680  31.4348510  65.1888650   8.7811070
  30.6737950  66.3948660   8.2729410  39.3169980  64.4009800  10.3213800
  38.9966850  63.6819040  10.8659490  38.6428340  65.0764870  10.3949860
  42.5323580  54.6335960   5.6850600  42.9004400  53.8131170   6.0130170
  41.6721780  54.6937850   6.1006250  39.4925570  57.2875550   5.9088570
  39.9910820  57.7621370   6.5740420  39.6348520  56.3639070   6.1158600
  46.6992430  53.5043510   6.7516960  46.1966030  54.2448910   7.0910770
  47.5149090  53.8927510   6.4353750  33.4715830  67.1962820  10.7335290
  34.2728560  67.5174870  11.1470690  32.9567650  66.8358400  11.4555200
  42.3080460  63.3042690  10.6810700  41.7018620  63.3274290   9.9406450
  42.0034570  62.5725730  11.2177950  43.7380830  67.0322980   9.2920110
  44.6902580  66.9481000   9.2420350  43.5909050  67.6964690   9.9653900
  31.1913640  59.6836280   9.6771340  31.6952660  59.1043560  10.2487570
  30.4521060  59.9676510  10.2147710  38.2451580  61.0907270   9.2106860
  37.4797250  61.6592270   9.1261530  38.4267540  60.7983480   8.3175090
  45.3874930  62.8212600   9.7681880  46.1284400  63.1588360   9.2649340
  44.6247610  62.9904660   9.2151650  33.2236720  57.8265870  10.5721410
  33.2642060  57.5279740  11.4806640  34.0782220  58.2273480  10.4128930
  35.1642530  56.4057970   8.5395900  34.6338990  55.9148920   7.9119240
  35.8330600  56.8342170   8.0053830  44.0620590  60.8727430   8.3037090
  44.4761610  61.0272510   9.1527510  43.1271590  60.9982650   8.4662870
  44.5342760  58.2123590  10.3076240  45.1163530  57.4575910  10.2196720
  44.7104530  58.7431030   9.5307720  35.6514830  53.3720340   8.6193190
  35.5571700  52.7541090   7.8944060  35.0712220  54.0986630   8.3923100
  38.4176270  51.9293580   5.6520580  37.9693570  51.9517840   4.8066130
  37.7841470  51.5312600   6.2490880  38.8235820  60.8247910   6.2733020
  39.2423930  61.6680640   6.1009260  37.9044450  60.9619950   6.0439800
  41.1599720  58.5564090   7.6570860  41.2795930  57.9605230   8.3965700
  42.0193720  58.5933780   7.2372160  43.4987620  59.1101280   6.2333370
  42.9722840  59.6343900   5.6298510  43.8418960  59.7428670   6.8643100
  36.6743240  67.1300920   7.3890750  36.1364330  67.8546980   7.0699450
  36.9277200  66.6531260   6.5988090  37.9268490  55.0985440   8.9146680
  38.5168180  54.7901290   9.6024500  37.1088730  54.6265190   9.0706580
  42.7461920  54.7151250   9.1479700  42.0577440  54.0532790   9.0829690
  43.4667940  54.2689520   9.5928160  39.5305450  68.3652130   7.6477400
  39.4564150  69.2687270   7.9549770  38.6284290  68.0464030   7.6199470
  31.4222950  66.5597310   3.6892650  30.9853940  66.7398110   4.5216800
  31.9900630  67.3171930   3.5474370  47.0585130  66.0614310   7.9769960
  46.4587120  66.1206870   7.2333880  47.1879030  65.1219290   8.1066810
  45.7436770  62.7866290   6.0746120  44.9296610  63.2163450   6.3371910
  46.1510970  63.3984700   5.4615170  32.2923310  59.4570110   4.5884870
  32.6596350  59.3697510   5.4680890  31.7234130  58.6936660   4.4891730
  47.0927170  57.9254490   7.6015340  46.8613260  57.6967240   6.7013290
  47.3531720  58.8454040   7.5560230  31.8439310  56.3679200   8.4943290
  30.9495360  56.3345960   8.8337000  32.3836860  56.5665990   9.2594540
  45.5315240  53.1510920  10.3795040  46.4085420  53.1594320  10.7629040
  45.5436080  52.4141760   9.7687390  47.1568230  57.0880330   4.7902610
  46.2070940  57.0543870   4.9047600  47.3381240  57.9980440   4.5552380
  32.3479020  50.6427530   2.8426510  32.9955210  50.0924910   2.4021670
  32.7680860  50.8970680   3.6642320  46.2431360  50.8368890   6.1996150
  46.8803580  51.4503030   6.5655340  46.3906250  50.8729550   5.2545380
  32.1011020  50.7983200   5.5851830  31.7525840  51.2547020   6.3510010
  31.7698720  49.9040330   5.6674260  33.7075390  63.9702800   9.7505020
  33.6645020  63.5995710  10.6319480  33.8386400  64.9080370   9.8906840
  37.4081420  65.5262390   5.3514740  37.1672780  65.7936950   4.4645260
  38.3484060  65.6968120   5.4065600  39.6135840  51.9895080   9.1071250
  39.5524730  52.5816910   9.8566660  40.5536220  51.8821040   8.9621510
  42.2510400  51.6465140   8.7463540  42.8650810  51.9644430   8.0844620
  42.7959960  51.1613730   9.3659400  48.6685580  67.5456770   6.1525380
  48.1743860  67.9425640   5.4352510  48.0598870  66.9205980   6.5462660
  32.7731660  50.3259400   8.8602600  33.3214650  50.1447450   8.0968710
  32.8386970  49.5353510   9.3958910  33.5463420  66.9165050   6.8702800
  32.9523740  66.7849750   7.6092840  33.5387260  66.0803190   6.4044900
  42.9918440  50.2097280   5.0732830  42.1178280  50.5432390   4.8705760
  42.8829190  49.7370460   5.8984700  43.8990420  52.4168150   6.4574550
  43.5703780  51.6019910   6.0776280  44.8472720  52.3737960   6.3340240
  46.3525030  68.1880190   3.4312120  45.8928000  68.9396000   3.0570140
  45.7237490  67.4686660   3.3726920  33.1775650  64.2823430   5.8210840
  32.4509710  63.6628720   5.7536790  33.2384800  64.6764040   4.9508920
  36.7820750  66.4968430   2.6060250  37.2985770  65.8855790   2.0808510
  37.4318130  66.9997210   3.0971260  39.5216250  67.3876920   3.4329230
  39.8094060  67.1331220   2.5562240  40.0339470  66.8354280   4.0234800
  40.7393260  51.1267120   4.0125740  39.9565050  51.6012620   4.2922500
  40.4456190  50.2221950   3.9038920  39.5888610  68.3093020  10.7997430
  40.5155920  68.0737290  10.8433390  39.5739040  69.1365020  10.3183460
  36.7752220  50.9737770  10.5639310  36.4936490  51.4771370   9.8000130
  37.1571920  50.1759520  10.1981440  43.3767680  50.3891350  11.1419780
  43.2633130  50.7085960  12.0371300  44.1937420  50.7903860  10.8457060
  46.1566170  67.5362880  10.6238470  46.9491490  67.0412110  10.4164430
  46.4499320  68.2153020  11.2314080  42.2825830  39.6340330 150.4745930
  42.2019880  38.7194940 150.2037640  41.8690250  40.1307400 149.7685640
  44.4351300  45.8179540 151.1354330  43.9732830  45.0466780 151.4641500
  45.2476850  45.8445610 151.6406780  32.8401650  36.6841050 147.0173350
  31.9518350  37.0257020 146.9153230  33.1242840  36.4841370 146.1254180
  40.6614610  48.1037550 150.7558320  40.0426050  48.5595050 150.1852760
  41.5166390  48.2589010 150.3548020  35.0163040  35.2672550 148.0511730
  35.1229790  36.1676280 148.3580490  34.1055400  35.2190520 147.7606380
  44.6682150  34.3897360 149.5222630  45.4891770  33.8993930 149.5648110
  44.7016230  34.9795020 150.2754470  41.5277960  42.9876790 148.1490230
  40.9095230  43.4526240 147.5852950  42.0401210  43.6804270 148.5659740
  30.8961160  43.6733320 145.5229860  30.5189140  44.1620420 144.7914760
  31.1534230  44.3458600 146.1536390  38.5050090  32.0749710 150.9815370
  38.8125070  31.5196600 150.2650870  37.5750790  32.2094170 150.7988360
  45.3510570  44.5133220 148.3613000  45.2406900  43.5707550 148.4862420
  45.3478820  44.8748860 149.2475760  40.8930850  40.1398540 147.7175490
  39.9660130  40.0735920 147.9463960  41.0455670  41.0778670 147.6030730
  40.8799930  36.4115540 144.7142650  39.9403600  36.5729500 144.7995110
  41.1983190  37.1301220 144.1678640  44.9228140  41.7018840 148.2210740
  44.3040560  41.3638390 147.5737040  44.9052590  41.0578600 148.9289930
  36.4987490  40.6663280 150.4995220  36.0944490  39.9540530 150.0041120
  36.5850610  40.3216520 151.3883260  43.0992840  40.9405650 145.2283490
  43.5386120  40.1028080 145.0821310  43.8121260  41.5735050 145.3147630
  41.2088220  45.8801720 149.1964730  41.6484130  46.6226050 148.7820120
  41.1475110  46.1228290 150.1203690  46.6809980  32.1948460 143.5424530
  46.3682640  32.2875290 144.4423600  47.4422450  32.7729490 143.4921960
  33.1992120  39.5608260 148.0001870  33.0789720  40.2870350 147.3883140
  32.8893010  38.7911170 147.5229780  32.0825120  44.4323590 150.2176690
  31.6753200  44.5738180 149.3630290  32.9738130  44.1483750 150.0147900
  43.8758400  48.8670840 146.5527740  43.7159540  48.5773780 147.4509570
  43.7105110  48.0910970 146.0172970  36.3546780  48.6469370 148.3299360
  36.1789260  47.7304910 148.1167160  35.5002520  49.0056660 148.5697160
  43.5784530  46.3758400 145.1125740  42.8849690  46.3735690 144.4528020
  44.3207390  45.9517720 144.6819910  43.1434460  48.0021110 149.1874230
  43.5991410  47.2210490 149.5012850  43.4826980  48.7127930 149.7315410
  35.6655780  32.9043330 151.3825540  35.2223930  33.6852870 151.0510060
  36.2240770  33.2273220 152.0896480  38.7814600  32.5254030 146.2631370
  38.1568780  32.5213900 146.9884680  38.6944720  31.6584990 145.8667340
  35.4570000  38.0276900 149.1106790  35.2310920  37.8114070 150.0153410
  34.6762530  38.4605360 148.7652760  42.6867760  38.0340270 147.7097440
  42.0876650  38.7576070 147.5261060  43.2347370  37.9717050 146.9273890
  41.2932630  36.6703810 149.7400720  41.6862200  36.9876010 148.9269410
  41.6549480  35.7915690 149.8545240  30.5167030  37.2024730 143.1733640
  30.4341700  38.1455490 143.3148630  30.1650090  37.0599640 142.2945990
  38.3165160  35.9363760 152.2403990  38.3201220  35.4953710 151.3908530
  39.2116280  36.2581090 152.3475810  34.1667540  35.8190250 151.1998200
  33.8267590  36.2965480 151.9565250  33.4044860  35.3655370 150.8399300
  38.3785310  36.9375840 145.2310750  38.4998130  36.8962320 146.1796570
  37.9933820  37.7999990 145.0757480  37.3906810  39.2476980 144.6294050
  36.8223710  38.7995230 144.0029960  38.0995810  39.6069760 144.0959200
  31.4813620  34.7409230 150.1162870  31.1960540  34.3764900 150.9541490
  31.4192480  34.0089690 149.5026010  34.9354290  43.2435170 146.9020460
  34.1616550  42.7032790 146.7419180  35.6648920  42.7241780 146.5638220
  41.1552210  33.6338490 146.8376240  40.3416820  33.1351660 146.7621550
  40.9614160  34.4736740 146.4212590  43.8700600  38.0058140 145.1338400
  44.7580220  38.3175370 144.9589740  43.8405690  37.1330390 144.7418980
  34.9791690  42.9115550 150.5399270  35.4970360  42.1083810 150.4856160
  34.5275710  42.8494690 151.3816100  39.8661190  44.1781830 145.8126570
  40.2076890  44.9224060 145.3169890  39.0373900  44.4912950 146.1751400
  46.1414870  39.3169980 144.6018260  46.0578590  39.7484200 143.7514700
  46.8609060  39.7768330 145.0345080  47.1702120  46.1712240 147.3300390
  46.5278280  45.5167860 147.6044110  46.7832780  46.5767330 146.5541060
  42.7488600  43.4997670 151.1772080  43.1012420  42.9025800 150.5173450
  41.8650930  43.1741900 151.3480330  38.8351880  44.2595360 148.5842490
  39.5223010  44.8064570 148.9650080  38.0484300  44.8036090 148.6192100
  30.9744280  39.8768180 144.0759570  31.8439130  40.1592980 144.3595490
  30.4834600  40.6904050 143.9608380  38.1379090  41.2641390 148.1967850
  38.5941870  42.0746640 148.4228040  37.7867300  40.9464530 149.0286340
  34.0390870  31.6079040 148.6690370  33.9105500  31.5996940 149.6175290
  33.2152890  31.9462130 148.3181380  45.5599500  45.0628700 143.8676740
  45.3337080  44.3459140 144.4601380  45.1695700  44.8141140 143.0298490
  31.3415530  49.0895560 144.6421200  31.7013170  49.6884900 143.9878470
  31.2007870  49.6355450 145.4156230  45.1415750  42.9800640 145.5290900
  44.8537450  43.4413330 146.3168780  45.9367920  42.5198410 145.7975120
  37.3584150  46.4726760 145.4594870  37.3494250  47.2056450 144.8439380
  36.4382510  46.2258340 145.5521830  32.9590790  41.6941650 146.2041630
  32.3518740  42.4340550 146.2136930  33.4340140  41.7841010 145.3779830
  45.8985610  34.8149410 146.6886080  45.2698770  34.9195080 145.9744310
  45.4037530  35.0346190 147.4779960  40.3443750  46.5355000 144.1220060
  40.4455730  46.3318990 143.1922040  39.4445490  46.2813280 144.3267840
  37.8669640  37.0935360 148.1043960  37.1585790  37.5621700 148.5457570
  38.1514120  36.4357370 148.7389150  41.8985070  33.8186020 149.5439750
  41.7752850  33.8372150 148.5949260  42.8469630  33.8664960 149.6638150
  38.9861860  49.0541320 148.8167730  39.2403360  49.0162710 147.8947100
  38.0374340  48.9274650 148.8095980  36.0704660  35.4020440 145.4794670
  36.9195190  35.8390590 145.4134860  35.7035930  35.7140700 146.3066730
  44.9914440  39.9733200 150.3926240  44.0504580  39.9883430 150.5673930
  45.3058510  39.1869160 150.8386540  34.9696080  41.6552800 143.9530200
  35.7359350  41.5434160 144.5155630  35.0470770  40.9590770 143.3006970
  33.6642840  39.0877870 144.6363090  33.7446430  38.1405380 144.7480490
  34.5562590  39.4184750 144.7423750  34.4657550  49.2373260 151.7397630
  35.2020030  48.6888720 152.0106200  34.8498470  50.1029270 151.6003620
  31.3503030  45.3046830 147.6139140  30.4242810  45.5467970 147.6044550
  31.8159460  46.1321090 147.4923890  37.5759860  48.4103570 143.5623200
  38.3688470  48.6992400 143.1104990  37.0564210  47.9795740 142.8835680
  46.6290030  47.6373700 144.9859940  46.3431540  47.2238840 144.1714120
  46.4309580  48.5661410 144.8660460  38.0937260  43.6306980 143.4265550
  37.9887900  43.0159330 144.1526930  37.9261480  43.1072870 142.6428560
  41.3339990  42.6927010 144.0307540  40.7850090  43.1396310 144.6750280
  41.9559250  42.1876260 144.5545210  37.0015110  41.6517930 145.9272840
  37.4231530  41.4857800 146.7704230  37.1265950  40.8418160 145.4327980
  39.5142750  40.6755540 143.1749940  40.0348410  39.9604560 142.8091090
  40.1611150  41.3141410 143.4750450  35.8974010  37.7251160 142.8731000
  35.6963070  36.8618520 143.2344340  35.7266060  37.6384520 141.9352600
  43.3762320  32.5359390 145.4017880  43.6564610  31.6927290 145.7577300
  42.6028050  32.7682500 145.9156630  34.6956810  34.8251780 142.8608880
  34.9982710  34.8319210 141.9528030  35.4351400  34.4749640 143.3576540
  37.9141740  33.7686400 143.8465080  37.5663740  33.0910390 143.2667530
  38.1154510  33.3075910 144.6608470  40.0790780  48.7567150 145.4651680
  40.9741570  49.0952120 145.4870440  40.1108410  48.0346560 144.8375960
  33.7186940  44.1294200 143.6938680  34.1561810  44.6723870 144.3496260
  34.2034670  43.3041150 143.7035020  30.9332740  46.9183230 151.1458940
  31.2635750  46.0504290 150.9137580  31.3623740  47.1241750 151.9763900
  35.5294660  45.2492240 148.8060910  35.2290200  45.1257210 149.7064820
  35.4232150  44.3900830 148.3976640  48.2986580  45.0288640 143.5087590
  47.4679540  45.0965290 143.9794820  48.4758410  45.9192760 143.2054450
  47.7543040  41.7736120 146.0121790  48.5161950  42.3432770 146.1181480
  47.7697410  41.2063320 146.7830100  31.2547380  40.2974050 150.2429450
  30.5996220  40.0285690 149.5989150  32.0925330  40.1878530 149.7931430
  48.7603010  42.6286220 150.8563720  49.1311840  41.8453540 150.4499690
  49.4004940  43.3175320 150.6781020  47.8062210  42.0670490 143.1694310
  48.0811050  42.9749370 143.0413530  47.6172950  42.0033020 144.1056300
  44.2037820  35.0915340 144.4647940  44.6222700  34.9046320 143.6244600
  43.8973880  34.2394390 144.7750870  47.7027550  40.0039480 148.1623740
  47.3271150  39.2367410 147.7305030  46.9730670  40.3862180 148.6498670
  30.4685460  37.5072980 146.1854780  29.5649540  37.7703180 146.0106440
  30.9526080  37.7784150 145.4054740  46.9778510  38.2296970 151.4630980
  47.5015990  37.7359620 150.8321150  47.5637930  38.3647330 152.2078550
  33.0112670  36.5638520 144.0949160  33.7204370  36.1421740 143.6096440
  32.2952610  36.6313750 143.4632510  32.6586830  32.6177850 143.1351810
  33.3814960  33.1586790 143.4533030  32.9311350  32.3441270 142.2593350
  46.4678480  37.4870320 147.4023390  46.9637600  37.2541190 148.1872270
  46.2694550  36.6482160 146.9861030  47.8965640  36.1231270 149.9361070
  47.7864920  35.9687310 150.8743340  48.6573230  35.5952210 149.6936480
  48.7855910  33.9539190 143.1767210  49.7105220  33.8220370 142.9685500
  48.7631700  34.0332010 144.1303660  48.8594400  34.7249850 145.8023920
  48.0645900  34.6594970 146.3316830  49.0637680  35.6600490 145.7909270
  45.8012820  48.7641400 149.7962310  46.3971890  48.4425970 149.1196730
  46.0590970  48.2913220 150.5875580  45.2914330  33.0546730 152.2522750
  45.7322420  32.9991830 151.4044350  45.0221920  33.9704740 152.3232930
  47.1552900  32.6861970 150.2631570  47.0941300  31.7423190 150.1162590
  47.9344930  32.7942060 150.8085030  31.4605650  48.8254330 149.2255520
  31.2927690  48.1925010 149.9237410  30.5940160  49.0313730 148.8749710
  32.0833670  32.6571110 146.7287380  32.8413030  32.7699990 146.1551410
  31.6210840  33.4940310 146.6830810  38.6247480  34.7710380 149.7189690
  37.8121990  34.3967270 149.3785570  39.1289120  34.0155460 150.0210880
  43.1272460  31.4352830 150.9572760  43.7301830  32.0073040 151.4321280
  42.3865450  31.9992270 150.7346660  46.2707060  31.8374390 146.2313040
  46.4657690  32.7357840 146.4980470  45.4836930  31.6061470 146.7245990
  33.0668350  47.5187560 146.6705660  32.5415970  47.8995590 145.9667620
  32.9912930  48.1438330 147.3915370  34.4558820  33.1835160 145.2689350
  34.9851580  32.3964960 145.1397300  35.0887140  33.8626350 145.5024880
  36.6496660  32.9210300 148.3234740  36.0199400  32.2197610 148.4904870
  36.1101800  33.6814430 148.1067900  47.8233670  49.0775100 147.9919600
  47.9985860  48.3912840 147.3480520  47.1255240  49.6022150 147.5996270
  35.6661320  49.4669940 145.5454910  36.3980140  49.1829220 144.9978800
  35.9254990  49.2283220 146.4354290  34.8276110  45.5834670 145.5501240
  34.1984990  46.0519770 146.0987070  34.9423940  44.7383890 145.9847430
  42.2825830  39.6340330 131.7002440  42.2019880  38.7194940 131.4294150
  41.8690250  40.1307400 130.9942150  40.4143870  41.4119350 133.5811710
  39.6385970  40.9319790 133.8710280  41.0656800  40.7325000 133.4067870
  34.4309700  41.7239160 134.4587470  33.5994580  41.4687870 134.8583980
  35.0390680  41.7949930 135.1945390  44.4351300  45.8179540 132.3610840
  43.9732830  45.0466780 132.6898010  45.2476850  45.8445610 132.8663290
  34.4110960  45.7579250 134.6545490  34.7139000  44.8676990 134.4755710
  35.1554550  46.3149470 134.4267740  32.8401650  36.6841050 128.2429860
  31.9518350  37.0257020 128.1409740  33.1242840  36.4841370 127.3510690
  30.8034660  39.2846700 134.1269560  31.3750770  38.5168900 134.1273200
  30.8036200  39.5835460 133.2176170  40.6614610  48.1037550 131.9814830
  40.0426050  48.5595050 131.4109270  41.5166390  48.2589010 131.5804530
  39.8552860  44.0876540 133.5881870  39.7861140  43.1466480 133.4271000
  40.6172720  44.1777950 134.1604440  32.0459530  34.6931060 135.9138490
  31.8662370  33.7956810 136.1941250  31.6439610  35.2402930 136.5885440
  40.8858030  36.8946920 133.8150800  41.2622850  36.0218800 133.7024470
  40.7877540  37.2305620 132.9241240  35.0163040  35.2672550 129.2768240
  35.1229790  36.1676280 129.5837000  34.1055400  35.2190520 128.9862890
  44.6682150  34.3897360 130.7479140  45.4891770  33.8993930 130.7904620
  44.7016230  34.9795020 131.5010980  32.6646200  37.1891560 134.5220830
  33.3456310  37.4529930 135.1408230  32.3494250  36.3492430 134.8558840
  36.8570770  38.2358920 133.6093420  37.3648990  38.7339890 134.2498440
  37.3884010  37.4594120 133.4332780  48.9581700  36.4064110 137.3122770
  48.2533870  36.7945820 136.7937880  49.2239620  37.1014400 137.9143700
  35.1406870  32.8757480 137.8756840  35.1425310  33.3929870 137.0702740
  34.3111180  32.3987660 137.8526770  41.5277960  42.9876790 129.3746740
  40.9095230  43.4526240 128.8109460  42.0401210  43.6804270 129.7916250
  36.3909720  42.5152660 136.0530340  36.0579100  43.1421580 136.6951410
  36.5676400  43.0414540 135.2732010  44.9043630  36.3297740 133.5206680
  44.1999200  36.6182630 134.1009790  45.2655790  37.1397850 133.1606240
  34.8222200  34.5867440 135.8827290  35.1639010  35.4309490 135.5881160
  33.8838010  34.7351180 135.9992630  35.6028820  44.4833460 137.8679520
  36.2202820  45.1584540 137.5863970  34.7421940  44.8921440 137.7767020
  30.8961160  43.6733320 126.7486370  30.5189140  44.1620420 126.0171270
  31.1534230  44.3458600 127.3792900  46.5206410  45.9472870 135.7834160
  45.8369930  46.6171980 135.7750830  47.0600700  46.1453520 135.0179020
  47.9730550  35.7752530 133.9115890  47.0255460  35.8091510 134.0431320
  48.2980540  36.5891480 134.2965250  38.5050090  32.0749710 132.2071880
  38.8125070  31.5196600 131.4907380  37.5750790  32.2094170 132.0244870
  44.0565150  47.7917000 134.4979340  44.0692310  47.3879290 133.6301600
  43.5040370  48.5664290 134.3940770  45.3510570  44.5133220 129.5869510
  45.2406900  43.5707550 129.7118930  45.3478820  44.8748860 130.4732270
  43.4550590  42.6946840 135.8261950  43.8719380  42.4806950 134.9915410
  44.1790410  42.9519630 136.3970570  40.8930850  40.1398540 128.9432000
  39.9660130  40.0735920 129.1720470  41.0455670  41.0778670 128.8287240
  40.8799930  36.4115540 125.9399160  39.9403600  36.5729500 126.0251620
  41.1983190  37.1301220 125.3935150  47.4012690  41.0934060 135.9178190
  46.5731320  41.1627150 135.4428320  47.9963170  41.6788370 135.4494020
  44.9228140  41.7018840 129.4467250  44.3040560  41.3638390 128.7993550
  44.9052590  41.0578600 130.1546440  44.3654700  37.8803380 136.8633060
  43.9525880  38.7057090 137.1173050  43.6330650  37.2948420 136.6709420
  36.4987490  40.6663280 131.7251730  36.0944490  39.9540530 131.2297630
  36.5850610  40.3216520 132.6139770  36.9669190  44.3530840 133.8890940
  36.6697480  43.7476310 133.2098720  37.9169010  44.3908150 133.7780300
  35.2116110  37.4406490 135.5050770  35.7630700  37.5501830 134.7304020
  35.7259620  37.8144090 136.2206000  45.0554800  47.9262710 137.5514040
  44.5785360  48.7334900 137.3586650  44.3716590  47.2741040 137.7040250
  36.0587620  44.0912530 140.5398740  35.1616150  44.3152500 140.7872140
  36.0840490  44.2147470 139.5910140  43.0992840  40.9405650 126.4540000
  43.5386120  40.1028080 126.3077820  43.8121260  41.5735050 126.5404140
  34.8858840  40.9625850 139.1156110  34.7466610  41.8348650 139.4843510
  34.0040200  40.6198660 138.9704050  41.2088220  45.8801720 130.4221240
  41.6484130  46.6226050 130.0076630  41.1475110  46.1228290 131.3460200
  36.6839190  46.9047550 141.3241260  36.6554620  47.3090500 140.4569690
  36.5204160  45.9757910 141.1612860  46.6809980  32.1948460 124.7681040
  46.3682640  32.2875290 125.6680110  47.4422450  32.7729490 124.7178470
  33.1992120  39.5608260 129.2258380  33.0789720  40.2870350 128.6139650
  32.8893010  38.7911170 128.7486290  48.6354010  47.6874650 142.6205430
  49.1113730  48.1657540 143.2994510  49.2561170  47.6192140 141.8950930
  30.8377490  42.7323400 135.0327020  30.9157910  42.8672170 134.0882740
  31.4519170  42.0239290 135.2255140  32.0825120  44.4323590 131.4433200
  31.6753200  44.5738180 130.5886800  32.9738130  44.1483750 131.2404410
  48.0387260  44.8787500 139.7805440  48.1650320  44.6399380 138.8622620
  48.0808640  44.0472040 140.2527520  41.9004000  48.5815500 138.3500250
  42.4148670  48.4923510 139.1522680  41.0573080  48.9275200 138.6428160
  43.8758400  48.8670840 127.7784250  43.7159540  48.5773780 128.6766080
  43.7105110  48.0910970 127.2429480  36.3546780  48.6469370 129.5555870
  36.1789260  47.7304910 129.3423670  35.5002520  49.0056660 129.7953670
  43.5784530  46.3758400 126.3382250  42.8849690  46.3735690 125.6784530
  44.3207390  45.9517720 125.9076420  43.1434460  48.0021110 130.4130740
  43.5991410  47.2210490 130.7269360  43.4826980  48.7127930 130.9571920
  47.8911270  36.9319960 140.7455180  47.2755540  37.4399630 140.2170640
  47.5707690  36.0318290 140.6881120  30.8937010  43.7737570 137.5721480
  31.0568050  43.3042930 136.7540850  31.3589460  43.2661130 138.2370320
  35.6655780  32.9043330 132.6082050  35.2223930  33.6852870 132.2766570
  36.2240770  33.2273220 133.3152990  39.9525590  35.7711850 138.2117370
  39.4904960  35.9794870 139.0237310  39.5503700  34.9571200 137.9088040
  44.9530100  36.9920800 139.3414030  44.1023690  36.6926550 139.6623100
  44.7931890  37.2362810 138.4297850  42.0479810  38.4922550 141.4412820
  42.3733220  37.6586300 141.1015050  42.8360140  39.0151070 141.5891150
  38.7814600  32.5254030 127.4887880  38.1568780  32.5213900 128.2141190
  38.6944720  31.6584990 127.0923850  37.7031680  33.4490660 134.4671650
  38.0004010  34.3553490 134.3863670  38.2517240  32.9609440 133.8531220
  35.4570000  38.0276900 130.3363300  35.2310920  37.8114070 131.2409920
  34.6762530  38.4605360 129.9909270  42.6867760  38.0340270 128.9353950
  42.0876650  38.7576070 128.7517570  43.2347370  37.9717050 128.1530400
  37.8969210  38.9262480 141.0023570  37.8012810  37.9857210 140.8523970
  38.7401190  39.1477550 140.6071640  41.2932630  36.6703810 130.9657230
  41.6862200  36.9876010 130.1525920  41.6549480  35.7915690 131.0801750
  33.0279750  35.3376150 139.1557350  32.6343140  36.1851360 139.3630130
  32.3398150  34.7002520 139.3465990  39.6024800  35.4211120 142.2254090
  38.9123120  35.2283320 142.8600180  40.3457100  35.7045760 142.7578390
  30.3296800  33.2604610 133.1887430  30.0409850  33.8307470 133.9012410
  31.0742560  32.7809060 133.5518660  30.5167030  37.2024730 124.3990150
  30.4341700  38.1455490 124.5405140  30.1650090  37.0599640 123.5202500
  41.8787770  39.2609560 135.0608010  41.1468890  39.7696370 135.4098110
  41.4812110  38.4439540 134.7596790  38.3165160  35.9363760 133.4660500
  38.3201220  35.4953710 132.6165040  39.2116280  36.2581090 133.5732320
  34.1667540  35.8190250 132.4254710  33.8267590  36.2965480 133.1821760
  33.4044860  35.3655370 132.0655810  38.3785310  36.9375840 126.4567260
  38.4998130  36.8962320 127.4053080  37.9933820  37.7999990 126.3013990
  42.3413680  34.7143240 134.4730950  42.3586420  35.1651890 135.3172800
  42.0929260  33.8148880 134.6864390  37.3906810  39.2476980 125.8550560
  36.8223710  38.7995230 125.2286470  38.0995810  39.6069760 125.3215710
  45.7684430  32.1275420 140.3117330  46.0930200  31.3965080 140.8375310
  45.8040940  31.8089060 139.4098320  32.4675990  43.1489000 139.7317290
  32.0830780  42.5082670 140.3300250  32.7788180  43.8525120 140.3012020
  38.6173130  39.9965540 135.2125910  38.9843260  39.5224110 135.9587250
  38.4278190  40.8707110 135.5534250  31.4813620  34.7409230 131.3419380
  31.1960540  34.3764900 132.1798000  31.4192480  34.0089690 130.7282520
  36.4072500  39.0374180 137.5310120  36.1029570  39.9166160 137.7560480
  37.3618960  39.0973970 137.5667560  34.9354290  43.2435170 128.1276970
  34.1616550  42.7032790 127.9675690  35.6648920  42.7241780 127.7894730
  45.6942270  42.2400530 133.9203360  46.4141390  42.7355820 133.5299470
  45.4924090  41.5618420 133.2757230  41.1552210  33.6338490 128.0632750
  40.3416820  33.1351660 127.9878060  40.9614160  34.4736740 127.6469100
  41.0761070  42.3109590 139.8072360  41.0098380  41.3905260 139.5529950
  40.4466210  42.4085030 140.5217000  43.8700600  38.0058140 126.3594910
  44.7580220  38.3175370 126.1846250  43.8405690  37.1330390 125.9675490
  34.9791690  42.9115550 131.7655780  35.4970360  42.1083810 131.7112670
  34.5275710  42.8494690 132.6072610  39.8661190  44.1781830 127.0383080
  40.2076890  44.9224060 126.5426400  39.0373900  44.4912950 127.4007910
  32.4636230  39.8776920 138.6781480  32.1051170  40.5430770 139.2654820
  32.1690790  39.0460470 139.0494100  35.6649350  40.3361160 141.5621030
  35.3649490  40.4818340 140.6648850  36.4360590  39.7766450 141.4694420
  41.0077800  45.1330160 139.5576160  41.0222340  44.2011120 139.3395070
  40.3002900  45.2189920 140.1965930  46.1414870  39.3169980 125.8274770
  46.0578590  39.7484200 124.9771210  46.8609060  39.7768330 126.2601590
  47.2189010  41.7737500 138.9044740  46.4937200  42.3666280 138.7074130
  47.7464470  41.7661040 138.1058110  47.1702120  46.1712240 128.5556900
  46.5278280  45.5167860 128.8300620  46.7832780  46.5767330 127.7797570
  42.7488600  43.4997670 132.4028590  43.1012420  42.9025800 131.7429960
  41.8650930  43.1741900 132.5736840  38.8351880  44.2595360 129.8099000
  39.5223010  44.8064570 130.1906590  38.0484300  44.8036090 129.8448610
  30.9744280  39.8768180 125.3016080  31.8439130  40.1592980 125.5852000
  30.4834600  40.6904050 125.1864890  38.1379090  41.2641390 129.4224360
  38.5941870  42.0746640 129.6484550  37.7867300  40.9464530 130.2542850
  40.4411700  46.7747730 136.6516660  41.0853920  46.9807110 137.3290080
  40.8041140  46.0136130 136.1987510  34.0390870  31.6079040 129.8946880
  33.9105500  31.5996940 130.8431800  33.2152890  31.9462130 129.5437890
  41.7143780  44.7780080 135.3694110  42.3566010  44.0773240 135.4826280
  42.2393130  45.5578520 135.1891000  45.5599500  45.0628700 125.0933250
  45.3337080  44.3459140 125.6857890  45.1695700  44.8141140 124.2555000
  43.4881400  45.5774980 138.5730170  43.8237640  46.1641670 139.2508090
  42.5681740  45.4467690 138.8027960  31.3415530  49.0895560 125.8677710
  31.7013170  49.6884900 125.2134980  31.2007870  49.6355450 126.6412740
  31.0384800  33.3670160 139.3553580  30.3243320  33.5667080 139.9606190
  31.4579840  32.5909730 139.7268380  45.1415750  42.9800640 126.7547410
  44.8537450  43.4413330 127.5425290  45.9367920  42.5198410 127.0231630
  31.3257390  47.3550420 140.3420110  31.4348510  46.4145160 140.2015500
  30.6737950  47.6205170 139.6933840  39.3169980  45.6266310 141.7418230
  38.9966850  44.9075550 142.2863920  38.6428340  46.3021380 141.8154290
  37.3584150  46.4726760 126.6851380  37.3494250  47.2056450 126.0695890
  36.4382510  46.2258340 126.7778340  32.9590790  41.6941650 127.4298140
  32.3518740  42.4340550 127.4393440  33.4340140  41.7841010 126.6036340
  42.5323580  35.8592470 137.1055030  42.9004400  35.0387680 137.4334600
  41.6721780  35.9194360 137.5210680  45.8985610  34.8149410 127.9142590
  45.2698770  34.9195080 127.2000820  45.4037530  35.0346190 128.7036470
  40.3443750  46.5355000 125.3476570  40.4455730  46.3318990 124.4178550
  39.4445490  46.2813280 125.5524350  37.8669640  37.0935360 129.3300470
  37.1585790  37.5621700 129.7714080  38.1514120  36.4357370 129.9645660
  39.4925570  38.5132060 137.3293000  39.9910820  38.9877880 137.9944850
  39.6348520  37.5895580 137.5363030  41.8985070  33.8186020 130.7696260
  41.7752850  33.8372150 129.8205770  42.8469630  33.8664960 130.8894660
  38.9861860  49.0541320 130.0424240  39.2403360  49.0162710 129.1203610
  38.0374340  48.9274650 130.0352490  36.0704660  35.4020440 126.7051180
  36.9195190  35.8390590 126.6391370  35.7035930  35.7140700 127.5323240
  46.6992430  34.7300020 138.1721390  46.1966030  35.4705420 138.5115200
  47.5149090  35.1184020 137.8558180  44.9914440  39.9733200 131.6182750
  44.0504580  39.9883430 131.7930440  45.3058510  39.1869160 132.0643050
  34.9696080  41.6552800 125.1786710  35.7359350  41.5434160 125.7412140
  35.0470770  40.9590770 124.5263480  33.6642840  39.0877870 125.8619600
  33.7446430  38.1405380 125.9737000  34.5562590  39.4184750 125.9680260
  46.9940020  47.1442050 133.2937010  47.1187440  47.9673220 133.7660820
  47.8605580  46.9332780 132.9461160  34.4657550  49.2373260 132.9654140
  35.2020030  48.6888720 133.2362710  34.8498470  50.1029270 132.8260130
  31.3503030  45.3046830 128.8395650  30.4242810  45.5467970 128.8301060
  31.8159460  46.1321090 128.7180400  33.4715830  48.4219330 142.1539720
  34.2728560  48.7431380 142.5675120  32.9567650  48.0614910 142.8759630
  37.5759860  48.4103570 124.7879710  38.3688470  48.6992400 124.3361500
  37.0564210  47.9795740 124.1092190  42.3080460  44.5299200 142.1015130
  41.7018620  44.5530800 141.3610880  42.0034570  43.7982240 142.6382380
  43.7380830  48.2579490 140.7124540  44.6902580  48.1737510 140.6624780
  43.5909050  48.9221200 141.3858330  46.6290030  47.6373700 126.2116450
  46.3431540  47.2238840 125.3970630  46.4309580  48.5661410 126.0916970
  31.1913640  40.9092790 141.0975770  31.6952660  40.3300070 141.6692000
  30.4521060  41.1933020 141.6352140  38.0937260  43.6306980 124.6522060
  37.9887900  43.0159330 125.3783440  37.9261480  43.1072870 123.8685070
  38.2451580  42.3163780 140.6311290  37.4797250  42.8848780 140.5465960
  38.4267540  42.0239990 139.7379520  41.3339990  42.6927010 125.2564050
  40.7850090  43.1396310 125.9006790  41.9559250  42.1876260 125.7801720
  45.3874930  44.0469110 141.1886310  46.1284400  44.3844870 140.6853770
  44.6247610  44.2161170 140.6356080  33.2236720  39.0522380 141.9925840
  33.2642060  38.7536250 142.9011070  34.0782220  39.4529990 141.8333360
  37.0015110  41.6517930 127.1529350  37.4231530  41.4857800 127.9960740
  37.1265950  40.8418160 126.6584490  35.1642530  37.6314480 139.9600330
  34.6338990  37.1405430 139.3323670  35.8330600  38.0598680 139.4258260
  39.5142750  40.6755540 124.4006450  40.0348410  39.9604560 124.0347600
  40.1611150  41.3141410 124.7006960  44.0620590  42.0983940 139.7241520
  44.4761610  42.2529020 140.5731940  43.1271590  42.2239160 139.8867300
  44.5342760  39.4380100 141.7280670  45.1163530  38.6832420 141.6401150
  44.7104530  39.9687540 140.9512150  35.6514830  34.5976850 140.0397620
  35.5571700  33.9797600 139.3148490  35.0712220  35.3243140 139.8127530
  38.4176270  33.1550090 137.0725010  37.9693570  33.1774350 136.2270560
  37.7841470  32.7569110 137.6695310  38.8235820  42.0504420 137.6937450
  39.2423930  42.8937150 137.5213690  37.9044450  42.1876460 137.4644230
  41.1599720  39.7820600 139.0775290  41.2795930  39.1861740 139.8170130
  42.0193720  39.8190290 138.6576590  43.4987620  40.3357790 137.6537800
  42.9722840  40.8600410 137.0502940  43.8418960  40.9685180 138.2847530
  35.8974010  37.7251160 124.0987510  35.6963070  36.8618520 124.4600850
  35.7266060  37.6384520 123.1609110  36.6743240  48.3557430 138.8095180
  36.1364330  49.0803490 138.4903880  36.9277200  47.8787770 138.0192520
  37.9268490  36.3241950 140.3351110  38.5168180  36.0157800 141.0228930
  37.1088730  35.8521700 140.4911010  42.7461920  35.9407760 140.5684130
  42.0577440  35.2789300 140.5034120  43.4667940  35.4946030 141.0132590
  43.3762320  32.5359390 126.6274390  43.6564610  31.6927290 126.9833810
  42.6028050  32.7682500 127.1413140  34.6956810  34.8251780 124.0865390
  34.9982710  34.8319210 123.1784540  35.4351400  34.4749640 124.5833050
  39.5305450  49.5908640 139.0681830  39.4564150  50.4943780 139.3754200
  38.6284290  49.2720540 139.0403900  37.9141740  33.7686400 125.0721590
  37.5663740  33.0910390 124.4924040  38.1154510  33.3075910 125.8864980
  40.0790780  48.7567150 126.6908190  40.9741570  49.0952120 126.7126950
  40.1108410  48.0346560 126.0632470  33.7186940  44.1294200 124.9195190
  34.1561810  44.6723870 125.5752770  34.2034670  43.3041150 124.9291530
  30.9332740  46.9183230 132.3715450  31.2635750  46.0504290 132.1394090
  31.3623740  47.1241750 133.2020410  35.5294660  45.2492240 130.0317420
  35.2290200  45.1257210 130.9321330  35.4232150  44.3900830 129.6233150
  31.4222950  47.7853820 135.1097080  30.9853940  47.9654620 135.9421230
  31.9900630  48.5428440 134.9678800  47.0585130  47.2870820 139.3974390
  46.4587120  47.3463380 138.6538310  47.1879030  46.3475800 139.5271240
  48.2986580  45.0288640 124.7344100  47.4679540  45.0965290 125.2051330
  48.4758410  45.9192760 124.4310960  47.7543040  41.7736120 127.2378300
  48.5161950  42.3432770 127.3437990  47.7697410  41.2063320 128.0086610
  31.2547380  40.2974050 131.4685960  30.5996220  40.0285690 130.8245660
  32.0925330  40.1878530 131.0187940  48.7603010  42.6286220 132.0820230
  49.1311840  41.8453540 131.6756200  49.4004940  43.3175320 131.9037530
  45.7436770  44.0122800 137.4950550  44.9296610  44.4419960 137.7576340
  46.1510970  44.6241210 136.8819600  47.8062210  42.0670490 124.3950820
  48.0811050  42.9749370 124.2670040  47.6172950  42.0033020 125.3312810
  44.2037820  35.0915340 125.6904450  44.6222700  34.9046320 124.8501110
  43.8973880  34.2394390 126.0007380  47.7027550  40.0039480 129.3880250
  47.3271150  39.2367410 128.9561540  46.9730670  40.3862180 129.8755180
  32.2923310  40.6826620 136.0089300  32.6596350  40.5954020 136.8885320
  31.7234130  39.9193170 135.9096160  47.0927170  39.1511000 139.0219770
  46.8613260  38.9223750 138.1217720  47.3531720  40.0710550 138.9764660
  31.8439310  37.5935710 139.9147720  30.9495360  37.5602470 140.2541430
  32.3836860  37.7922500 140.6798970  45.5315240  34.3767430 141.7999470
  46.4085420  34.3850830 142.1833470  45.5436080  33.6398270 141.1891820
  30.4685460  37.5072980 127.4111290  29.5649540  37.7703180 127.2362950
  30.9526080  37.7784150 126.6311250  46.9778510  38.2296970 132.6887490
  47.5015990  37.7359620 132.0577660  47.5637930  38.3647330 133.4335060
  47.1568230  38.3136840 136.2107040  46.2070940  38.2800380 136.3252030
  47.3381240  39.2236950 135.9756810  33.0112670  36.5638520 125.3205670
  33.7204370  36.1421740 124.8352950  32.2952610  36.6313750 124.6889020
  32.6586830  32.6177850 124.3608320  33.3814960  33.1586790 124.6789540
  32.9311350  32.3441270 123.4849860  46.4678480  37.4870320 128.6279900
  46.9637600  37.2541190 129.4128780  46.2694550  36.6482160 128.2117540
  32.3479020  31.8684040 134.2630940  32.9955210  31.3181420 133.8226100
  32.7680860  32.1227190 135.0846750  47.8965640  36.1231270 131.1617580
  47.7864920  35.9687310 132.0999850  48.6573230  35.5952210 130.9192990
  46.2431360  32.0625400 137.6200580  46.8803580  32.6759540 137.9859770
  46.3906250  32.0986060 136.6749810  48.7855910  33.9539190 124.4023720
  49.7105220  33.8220370 124.1942010  48.7631700  34.0332010 125.3560170
  48.8594400  34.7249850 127.0280430  48.0645900  34.6594970 127.5573340
  49.0637680  35.6600490 127.0165780  45.8012820  48.7641400 131.0218820
  46.3971890  48.4425970 130.3453240  46.0590970  48.2913220 131.8132090
  32.1011020  32.0239710 137.0056260  31.7525840  32.4803530 137.7714440
  31.7698720  31.1296840 137.0878690  33.7075390  45.1959310 141.1709450
  33.6645020  44.8252220 142.0523910  33.8386400  46.1336880 141.3111270
  37.4081420  46.7518900 136.7719170  37.1672780  47.0193460 135.8849690
  38.3484060  46.9224630 136.8270030  39.6135840  33.2151590 140.5275680
  39.5524730  33.8073420 141.2771090  40.5536220  33.1077550 140.3825940
  42.2510400  32.8721650 140.1667970  42.8650810  33.1900940 139.5049050
  42.7959960  32.3870240 140.7863830  48.6685580  48.7713280 137.5729810
  48.1743860  49.1682150 136.8556940  48.0598870  48.1462490 137.9667090
  32.7731660  31.5515910 140.2807030  33.3214650  31.3703960 139.5173140
  32.8386970  30.7610020 140.8163340  33.5463420  48.1421560 138.2907230
  32.9523740  48.0106260 139.0297270  33.5387260  47.3059700 137.8249330
  42.9918440  31.4353790 136.4937260  42.1178280  31.7688900 136.2910190
  42.8829190  30.9626970 137.3189130  43.8990420  33.6424660 137.8778980
  43.5703780  32.8276420 137.4980710  44.8472720  33.5994470 137.7544670
  46.3525030  49.4136700 134.8516550  45.8928000  50.1652510 134.4774570
  45.7237490  48.6943170 134.7931350  33.1775650  45.5079940 137.2415270
  32.4509710  44.8885230 137.1741220  33.2384800  45.9020550 136.3713350
  36.7820750  47.7224940 134.0264680  37.2985770  47.1112300 133.5012940
  37.4318130  48.2253720 134.5175690  39.5216250  48.6133430 134.8533660
  39.8094060  48.3587730 133.9766670  40.0339470  48.0610790 135.4439230
  40.7393260  32.3523630 135.4330170  39.9565050  32.8269130 135.7126930
  40.4456190  31.4478460 135.3243350  45.2914330  33.0546730 133.4779260
  45.7322420  32.9991830 132.6300860  45.0221920  33.9704740 133.5489440
  47.1552900  32.6861970 131.4888080  47.0941300  31.7423190 131.3419100
  47.9344930  32.7942060 132.0341540  31.4605650  48.8254330 130.4512030
  31.2927690  48.1925010 131.1493920  30.5940160  49.0313730 130.1006220
  32.0833670  32.6571110 127.9543890  32.8413030  32.7699990 127.3807920
  31.6210840  33.4940310 127.9087320  38.6247480  34.7710380 130.9446200
  37.8121990  34.3967270 130.6042080  39.1289120  34.0155460 131.2467390
  43.1272460  31.4352830 132.1829270  43.7301830  32.0073040 132.6577790
  42.3865450  31.9992270 131.9603170  46.2707060  31.8374390 127.4569550
  46.4657690  32.7357840 127.7236980  45.4836930  31.6061470 127.9502500
  33.0668350  47.5187560 127.8962170  32.5415970  47.8995590 127.1924130
  32.9912930  48.1438330 128.6171880  34.4558820  33.1835160 126.4945860
  34.9851580  32.3964960 126.3653810  35.0887140  33.8626350 126.7281390
  36.6496660  32.9210300 129.5491250  36.0199400  32.2197610 129.7161380
  36.1101800  33.6814430 129.3324410  39.5888610  49.5349530 142.2201860
  40.5155920  49.2993800 142.2637820  39.5739040  50.3621530 141.7387890
  47.8233670  49.0775100 129.2176110  47.9985860  48.3912840 128.5737030
  47.1255240  49.6022150 128.8252780  36.7752220  32.1994280 141.9843740
  36.4936490  32.7027880 141.2204560  37.1571920  31.4016030 141.6185870
  35.6661320  49.4669940 126.7711420  36.3980140  49.1829220 126.2235310
  35.9254990  49.2283220 127.6610800  34.8276110  45.5834670 126.7757750
  34.1984990  46.0519770 127.3243580  34.9423940  44.7383890 127.2103940
  43.3767680  31.6147860 142.5624210  43.2633130  31.9342470 143.4575730
  44.1937420  32.0160370 142.2661490  46.1566170  48.7619390 142.0442900
  46.9491490  48.2668620 141.8368860  46.4499320  49.4409530 142.6518510
  34.4309700  41.7239160 115.6843980  33.5994580  41.4687870 116.0840490
  35.0390680  41.7949930 116.4201900  44.4351300  45.8179540 113.5867350
  43.9732830  45.0466780 113.9154520  45.2476850  45.8445610 114.0919800
  32.8401650  36.6841050 109.4686370  31.9518350  37.0257020 109.3666250
  33.1242840  36.4841370 108.5767200  30.8034660  39.2846700 115.3526070
  31.3750770  38.5168900 115.3529710  30.8036200  39.5835460 114.4432680
  32.0459530  34.6931060 117.1395000  31.8662370  33.7956810 117.4197760
  31.6439610  35.2402930 117.8141950  40.8858030  36.8946920 115.0407310
  41.2622850  36.0218800 114.9280980  40.7877540  37.2305620 114.1497750
  35.0163040  35.2672550 110.5024750  35.1229790  36.1676280 110.8093510
  34.1055400  35.2190520 110.2119400  44.6682150  34.3897360 111.9735650
  45.4891770  33.8993930 112.0161130  44.7016230  34.9795020 112.7267490
  32.6646200  37.1891560 115.7477340  33.3456310  37.4529930 116.3664740
  32.3494250  36.3492430 116.0815350  36.8570770  38.2358920 114.8349930
  37.3648990  38.7339890 115.4754950  37.3884010  37.4594120 114.6589290
  48.9581700  36.4064110 118.5379280  48.2533870  36.7945820 118.0194390
  49.2239620  37.1014400 119.1400210  35.1406870  32.8757480 119.1013350
  35.1425310  33.3929870 118.2959250  34.3111180  32.3987660 119.0783280
  36.3909720  42.5152660 117.2786850  36.0579100  43.1421580 117.9207920
  36.5676400  43.0414540 116.4988520  44.9043630  36.3297740 114.7463190
  44.1999200  36.6182630 115.3266300  45.2655790  37.1397850 114.3862750
  34.8222200  34.5867440 117.1083800  35.1639010  35.4309490 116.8137670
  33.8838010  34.7351180 117.2249140  35.6028820  44.4833460 119.0936030
  36.2202820  45.1584540 118.8120480  34.7421940  44.8921440 119.0023530
  46.5206410  45.9472870 117.0090670  45.8369930  46.6171980 117.0007340
  47.0600700  46.1453520 116.2435530  47.9730550  35.7752530 115.1372400
  47.0255460  35.8091510 115.2687830  48.2980540  36.5891480 115.5221760
  38.5050090  32.0749710 113.4328390  38.8125070  31.5196600 112.7163890
  37.5750790  32.2094170 113.2501380  44.0565150  47.7917000 115.7235850
  44.0692310  47.3879290 114.8558110  43.5040370  48.5664290 115.6197280
  45.3510570  44.5133220 110.8126020  45.2406900  43.5707550 110.9375440
  45.3478820  44.8748860 111.6988780  43.4550590  42.6946840 117.0518460
  43.8719380  42.4806950 116.2171920  44.1790410  42.9519630 117.6227080
  47.4012690  41.0934060 117.1434700  46.5731320  41.1627150 116.6684830
  47.9963170  41.6788370 116.6750530  44.3654700  37.8803380 118.0889570
  43.9525880  38.7057090 118.3429560  43.6330650  37.2948420 117.8965930
  35.2116110  37.4406490 116.7307280  35.7630700  37.5501830 115.9560530
  35.7259620  37.8144090 117.4462510  45.0554800  47.9262710 118.7770550
  44.5785360  48.7334900 118.5843160  44.3716590  47.2741040 118.9296760
  36.0587620  44.0912530 121.7655250  35.1616150  44.3152500 122.0128650
  36.0840490  44.2147470 120.8166650  34.8858840  40.9625850 120.3412620
  34.7466610  41.8348650 120.7100020  34.0040200  40.6198660 120.1960560
  36.6839190  46.9047550 122.5497770  36.6554620  47.3090500 121.6826200
  36.5204160  45.9757910 122.3869370  46.6809980  32.1948460 105.9937550
  46.3682640  32.2875290 106.8936620  47.4422450  32.7729490 105.9434980
  48.6354010  47.6874650 123.8461940  49.1113730  48.1657540 124.5251020
  49.2561170  47.6192140 123.1207440  30.8377490  42.7323400 116.2583530
  30.9157910  42.8672170 115.3139250  31.4519170  42.0239290 116.4511650
  48.0387260  44.8787500 121.0061950  48.1650320  44.6399380 120.0879130
  48.0808640  44.0472040 121.4784030  41.9004000  48.5815500 119.5756760
  42.4148670  48.4923510 120.3779190  41.0573080  48.9275200 119.8684670
  43.8758400  48.8670840 109.0040760  43.7159540  48.5773780 109.9022590
  43.7105110  48.0910970 108.4685990  43.5784530  46.3758400 107.5638760
  42.8849690  46.3735690 106.9041040  44.3207390  45.9517720 107.1332930
  43.1434460  48.0021110 111.6387250  43.5991410  47.2210490 111.9525870
  43.4826980  48.7127930 112.1828430  47.8911270  36.9319960 121.9711690
  47.2755540  37.4399630 121.4427150  47.5707690  36.0318290 121.9137630
  30.8937010  43.7737570 118.7977990  31.0568050  43.3042930 117.9797360
  31.3589460  43.2661130 119.4626830  35.6655780  32.9043330 113.8338560
  35.2223930  33.6852870 113.5023080  36.2240770  33.2273220 114.5409500
  39.9525590  35.7711850 119.4373880  39.4904960  35.9794870 120.2493820
  39.5503700  34.9571200 119.1344550  44.9530100  36.9920800 120.5670540
  44.1023690  36.6926550 120.8879610  44.7931890  37.2362810 119.6554360
  42.0479810  38.4922550 122.6669330  42.3733220  37.6586300 122.3271560
  42.8360140  39.0151070 122.8147660  38.7814600  32.5254030 108.7144390
  38.1568780  32.5213900 109.4397700  38.6944720  31.6584990 108.3180360
  37.7031680  33.4490660 115.6928160  38.0004010  34.3553490 115.6120180
  38.2517240  32.9609440 115.0787730  35.4570000  38.0276900 111.5619810
  35.2310920  37.8114070 112.4666430  34.6762530  38.4605360 111.2165780
  37.8969210  38.9262480 122.2280080  37.8012810  37.9857210 122.0780480
  38.7401190  39.1477550 121.8328150  41.2932630  36.6703810 112.1913740
  41.6862200  36.9876010 111.3782430  41.6549480  35.7915690 112.3058260
  33.0279750  35.3376150 120.3813860  32.6343140  36.1851360 120.5886640
  32.3398150  34.7002520 120.5722500  39.6024800  35.4211120 123.4510600
  38.9123120  35.2283320 124.0856690  40.3457100  35.7045760 123.9834900
  30.3296800  33.2604610 114.4143940  30.0409850  33.8307470 115.1268920
  31.0742560  32.7809060 114.7775170  30.5167030  37.2024730 105.6246660
  30.4341700  38.1455490 105.7661650  30.1650090  37.0599640 104.7459010
  41.8787770  39.2609560 116.2864520  41.1468890  39.7696370 116.6354620
  41.4812110  38.4439540 115.9853300  38.3165160  35.9363760 114.6917010
  38.3201220  35.4953710 113.8421550  39.2116280  36.2581090 114.7988830
  34.1667540  35.8190250 113.6511220  33.8267590  36.2965480 114.4078270
  33.4044860  35.3655370 113.2912320  38.3785310  36.9375840 107.6823770
  38.4998130  36.8962320 108.6309590  37.9933820  37.7999990 107.5270500
  42.3413680  34.7143240 115.6987460  42.3586420  35.1651890 116.5429310
  42.0929260  33.8148880 115.9120900  37.3906810  39.2476980 107.0807070
  36.8223710  38.7995230 106.4542980  38.0995810  39.6069760 106.5472220
  45.7684430  32.1275420 121.5373840  46.0930200  31.3965080 122.0631820
  45.8040940  31.8089060 120.6354830  32.4675990  43.1489000 120.9573800
  32.0830780  42.5082670 121.5556760  32.7788180  43.8525120 121.5268530
  38.6173130  39.9965540 116.4382420  38.9843260  39.5224110 117.1843760
  38.4278190  40.8707110 116.7790760  31.4813620  34.7409230 112.5675890
  31.1960540  34.3764900 113.4054510  31.4192480  34.0089690 111.9539030
  36.4072500  39.0374180 118.7566630  36.1029570  39.9166160 118.9816990
  37.3618960  39.0973970 118.7924070  45.6942270  42.2400530 115.1459870
  46.4141390  42.7355820 114.7555980  45.4924090  41.5618420 114.5013740
  41.1552210  33.6338490 109.2889260  40.3416820  33.1351660 109.2134570
  40.9614160  34.4736740 108.8725610  41.0761070  42.3109590 121.0328870
  41.0098380  41.3905260 120.7786460  40.4466210  42.4085030 121.7473510
  32.4636230  39.8776920 119.9037990  32.1051170  40.5430770 120.4911330
  32.1690790  39.0460470 120.2750610  35.6649350  40.3361160 122.7877540
  35.3649490  40.4818340 121.8905360  36.4360590  39.7766450 122.6950930
  41.0077800  45.1330160 120.7832670  41.0222340  44.2011120 120.5651580
  40.3002900  45.2189920 121.4222440  47.2189010  41.7737500 120.1301250
  46.4937200  42.3666280 119.9330640  47.7464470  41.7661040 119.3314620
  47.1702120  46.1712240 109.7813410  46.5278280  45.5167860 110.0557130
  46.7832780  46.5767330 109.0054080  42.7488600  43.4997670 113.6285100
  43.1012420  42.9025800 112.9686470  41.8650930  43.1741900 113.7993350
  40.4411700  46.7747730 117.8773170  41.0853920  46.9807110 118.5546590
  40.8041140  46.0136130 117.4244020  34.0390870  31.6079040 111.1203390
  33.9105500  31.5996940 112.0688310  33.2152890  31.9462130 110.7694400
  41.7143780  44.7780080 116.5950620  42.3566010  44.0773240 116.7082790
  42.2393130  45.5578520 116.4147510  45.5599500  45.0628700 106.3189760
  45.3337080  44.3459140 106.9114400  45.1695700  44.8141140 105.4811510
  43.4881400  45.5774980 119.7986680  43.8237640  46.1641670 120.4764600
  42.5681740  45.4467690 120.0284470  31.0384800  33.3670160 120.5810090
  30.3243320  33.5667080 121.1862700  31.4579840  32.5909730 120.9524890
  31.3257390  47.3550420 121.5676620  31.4348510  46.4145160 121.4272010
  30.6737950  47.6205170 120.9190350  39.3169980  45.6266310 122.9674740
  38.9966850  44.9075550 123.5120430  38.6428340  46.3021380 123.0410800
  42.5323580  35.8592470 118.3311540  42.9004400  35.0387680 118.6591110
  41.6721780  35.9194360 118.7467190  37.8669640  37.0935360 110.5556980
  37.1585790  37.5621700 110.9970590  38.1514120  36.4357370 111.1902170
  39.4925570  38.5132060 118.5549510  39.9910820  38.9877880 119.2201360
  39.6348520  37.5895580 118.7619540  41.8985070  33.8186020 111.9952770
  41.7752850  33.8372150 111.0462280  42.8469630  33.8664960 112.1151170
  36.0704660  35.4020440 107.9307690  36.9195190  35.8390590 107.8647880
  35.7035930  35.7140700 108.7579750  46.6992430  34.7300020 119.3977900
  46.1966030  35.4705420 119.7371710  47.5149090  35.1184020 119.0814690
  33.6642840  39.0877870 107.0876110  33.7446430  38.1405380 107.1993510
  34.5562590  39.4184750 107.1936770  46.9940020  47.1442050 114.5193520
  47.1187440  47.9673220 114.9917330  47.8605580  46.9332780 114.1717670
  33.4715830  48.4219330 123.3796230  34.2728560  48.7431380 123.7931630
  32.9567650  48.0614910 124.1016140  42.3080460  44.5299200 123.3271640
  41.7018620  44.5530800 122.5867390  42.0034570  43.7982240 123.8638890
  43.7380830  48.2579490 121.9381050  44.6902580  48.1737510 121.8881290
  43.5909050  48.9221200 122.6114840  46.6290030  47.6373700 107.4372960
  46.3431540  47.2238840 106.6227140  46.4309580  48.5661410 107.3173480
  31.1913640  40.9092790 122.3232280  31.6952660  40.3300070 122.8948510
  30.4521060  41.1933020 122.8608650  38.2451580  42.3163780 121.8567800
  37.4797250  42.8848780 121.7722470  38.4267540  42.0239990 120.9636030
  41.3339990  42.6927010 106.4820560  40.7850090  43.1396310 107.1263300
  41.9559250  42.1876260 107.0058230  45.3874930  44.0469110 122.4142820
  46.1284400  44.3844870 121.9110280  44.6247610  44.2161170 121.8612590
  33.2236720  39.0522380 123.2182350  33.2642060  38.7536250 124.1267580
  34.0782220  39.4529990 123.0589870  35.1642530  37.6314480 121.1856840
  34.6338990  37.1405430 120.5580180  35.8330600  38.0598680 120.6514770
  39.5142750  40.6755540 105.6262960  40.0348410  39.9604560 105.2604110
  40.1611150  41.3141410 105.9263470  44.0620590  42.0983940 120.9498030
  44.4761610  42.2529020 121.7988450  43.1271590  42.2239160 121.1123810
  44.5342760  39.4380100 122.9537180  45.1163530  38.6832420 122.8657660
  44.7104530  39.9687540 122.1768660  35.6514830  34.5976850 121.2654130
  35.5571700  33.9797600 120.5405000  35.0712220  35.3243140 121.0384040
  38.4176270  33.1550090 118.2981520  37.9693570  33.1774350 117.4527070
  37.7841470  32.7569110 118.8951820  38.8235820  42.0504420 118.9193960
  39.2423930  42.8937150 118.7470200  37.9044450  42.1876460 118.6900740
  41.1599720  39.7820600 120.3031800  41.2795930  39.1861740 121.0426640
  42.0193720  39.8190290 119.8833100  43.4987620  40.3357790 118.8794310
  42.9722840  40.8600410 118.2759450  43.8418960  40.9685180 119.5104040
  35.8974010  37.7251160 105.3244020  35.6963070  36.8618520 105.6857360
  35.7266060  37.6384520 104.3865620  36.6743240  48.3557430 120.0351690
  36.1364330  49.0803490 119.7160390  36.9277200  47.8787770 119.2449030
  37.9268490  36.3241950 121.5607620  38.5168180  36.0157800 122.2485440
  37.1088730  35.8521700 121.7167520  42.7461920  35.9407760 121.7940640
  42.0577440  35.2789300 121.7290630  43.4667940  35.4946030 122.2389100
  43.3762320  32.5359390 107.8530900  43.6564610  31.6927290 108.2090320
  42.6028050  32.7682500 108.3669650  34.6956810  34.8251780 105.3121900
  34.9982710  34.8319210 104.4041050  35.4351400  34.4749640 105.8089560
  39.5305450  49.5908640 120.2938340  39.4564150  50.4943780 120.6010710
  38.6284290  49.2720540 120.2660410  37.9141740  33.7686400 106.2978100
  37.5663740  33.0910390 105.7180550  38.1154510  33.3075910 107.1121490
  30.9332740  46.9183230 113.5971960  31.2635750  46.0504290 113.3650600
  31.3623740  47.1241750 114.4276920  31.4222950  47.7853820 116.3353590
  30.9853940  47.9654620 117.1677740  31.9900630  48.5428440 116.1935310
  47.0585130  47.2870820 120.6230900  46.4587120  47.3463380 119.8794820
  47.1879030  46.3475800 120.7527750  48.2986580  45.0288640 105.9600610
  47.4679540  45.0965290 106.4307840  48.4758410  45.9192760 105.6567470
  31.2547380  40.2974050 112.6942470  30.5996220  40.0285690 112.0502170
  32.0925330  40.1878530 112.2444450  48.7603010  42.6286220 113.3076740
  49.1311840  41.8453540 112.9012710  49.4004940  43.3175320 113.1294040
  45.7436770  44.0122800 118.7207060  44.9296610  44.4419960 118.9832850
  46.1510970  44.6241210 118.1076110  32.2923310  40.6826620 117.2345810
  32.6596350  40.5954020 118.1141830  31.7234130  39.9193170 117.1352670
  47.0927170  39.1511000 120.2476280  46.8613260  38.9223750 119.3474230
  47.3531720  40.0710550 120.2021170  31.8439310  37.5935710 121.1404230
  30.9495360  37.5602470 121.4797940  32.3836860  37.7922500 121.9055480
  45.5315240  34.3767430 123.0255980  46.4085420  34.3850830 123.4089980
  45.5436080  33.6398270 122.4148330  30.4685460  37.5072980 108.6367800
  29.5649540  37.7703180 108.4619460  30.9526080  37.7784150 107.8567760
  47.1568230  38.3136840 117.4363550  46.2070940  38.2800380 117.5508540
  47.3381240  39.2236950 117.2013320  33.0112670  36.5638520 106.5462180
  33.7204370  36.1421740 106.0609460  32.2952610  36.6313750 105.9145530
  32.6586830  32.6177850 105.5864830  33.3814960  33.1586790 105.9046050
  32.9311350  32.3441270 104.7106370  32.3479020  31.8684040 115.4887450
  32.9955210  31.3181420 115.0482610  32.7680860  32.1227190 116.3103260
  46.2431360  32.0625400 118.8457090  46.8803580  32.6759540 119.2116280
  46.3906250  32.0986060 117.9006320  48.7855910  33.9539190 105.6280230
  49.7105220  33.8220370 105.4198520  48.7631700  34.0332010 106.5816680
  45.8012820  48.7641400 112.2475330  46.3971890  48.4425970 111.5709750
  46.0590970  48.2913220 113.0388600  32.1011020  32.0239710 118.2312770
  31.7525840  32.4803530 118.9970950  31.7698720  31.1296840 118.3135200
  33.7075390  45.1959310 122.3965960  33.6645020  44.8252220 123.2780420
  33.8386400  46.1336880 122.5367780  39.6135840  33.2151590 121.7532190
  39.5524730  33.8073420 122.5027600  40.5536220  33.1077550 121.6082450
  42.2510400  32.8721650 121.3924480  42.8650810  33.1900940 120.7305560
  42.7959960  32.3870240 122.0120340  48.6685580  48.7713280 118.7986320
  48.1743860  49.1682150 118.0813450  48.0598870  48.1462490 119.1923600
  32.7731660  31.5515910 121.5063540  33.3214650  31.3703960 120.7429650
  32.8386970  30.7610020 122.0419850  33.5463420  48.1421560 119.5163740
  32.9523740  48.0106260 120.2553780  33.5387260  47.3059700 119.0505840
  42.9918440  31.4353790 117.7193770  42.1178280  31.7688900 117.5166700
  42.8829190  30.9626970 118.5445640  43.8990420  33.6424660 119.1035490
  43.5703780  32.8276420 118.7237220  44.8472720  33.5994470 118.9801180
  46.3525030  49.4136700 116.0773060  45.8928000  50.1652510 115.7031080
  45.7237490  48.6943170 116.0187860  33.1775650  45.5079940 118.4671780
  32.4509710  44.8885230 118.3997730  33.2384800  45.9020550 117.5969860
  40.7393260  32.3523630 116.6586680  39.9565050  32.8269130 116.9383440
  40.4456190  31.4478460 116.5499860  45.2914330  33.0546730 114.7035770
  45.7322420  32.9991830 113.8557370  45.0221920  33.9704740 114.7745950
  47.1552900  32.6861970 112.7144590  47.0941300  31.7423190 112.5675610
  47.9344930  32.7942060 113.2598050  31.4605650  48.8254330 111.6768540
  31.2927690  48.1925010 112.3750430  30.5940160  49.0313730 111.3262730
  32.0833670  32.6571110 109.1800400  32.8413030  32.7699990 108.6064430
  31.6210840  33.4940310 109.1343830  38.6247480  34.7710380 112.1702710
  37.8121990  34.3967270 111.8298590  39.1289120  34.0155460 112.4723900
  43.1272460  31.4352830 113.4085780  43.7301830  32.0073040 113.8834300
  42.3865450  31.9992270 113.1859680  46.2707060  31.8374390 108.6826060
  46.4657690  32.7357840 108.9493490  45.4836930  31.6061470 109.1759010
  34.4558820  33.1835160 107.7202370  34.9851580  32.3964960 107.5910320
  35.0887140  33.8626350 107.9537900  36.6496660  32.9210300 110.7747760
  36.0199400  32.2197610 110.9417890  36.1101800  33.6814430 110.5580920
  39.5888610  49.5349530 123.4458370  40.5155920  49.2993800 123.4894330
  39.5739040  50.3621530 122.9644400  47.8233670  49.0775100 110.4432620
  47.9985860  48.3912840 109.7993540  47.1255240  49.6022150 110.0509290
  36.7752220  32.1994280 123.2100250  36.4936490  32.7027880 122.4461070
  37.1571920  31.4016030 122.8442380  43.3767680  31.6147860 123.7880720
  43.2633130  31.9342470 124.6832240  44.1937420  32.0160370 123.4918000
  46.1566170  48.7619390 123.2699410  46.9491490  48.2668620 123.0625370
  46.4499320  49.4409530 123.8775020  32.8401650  36.6841050  90.6942880
  31.9518350  37.0257020  90.5922760  33.1242840  36.4841370  89.8023710
  30.8034660  39.2846700  96.5782580  31.3750770  38.5168900  96.5786220
  30.8036200  39.5835460  95.6689190  40.6614610  48.1037550  94.4327850
  40.0426050  48.5595050  93.8622290  41.5166390  48.2589010  94.0317550
  32.0459530  34.6931060  98.3651510  31.8662370  33.7956810  98.6454270
  31.6439610  35.2402930  99.0398460  35.0163040  35.2672550  91.7281260
  35.1229790  36.1676280  92.0350020  34.1055400  35.2190520  91.4375910
  35.1406870  32.8757480 100.3269860  35.1425310  33.3929870  99.5215760
  34.3111180  32.3987660 100.3039790  44.0565150  47.7917000  96.9492360
  44.0692310  47.3879290  96.0814620  43.5040370  48.5664290  96.8453790
  45.0554800  47.9262710 100.0027060  44.5785360  48.7334900  99.8099670
  44.3716590  47.2741040 100.1553270  34.8858840  40.9625850 101.5669130
  34.7466610  41.8348650 101.9356530  34.0040200  40.6198660 101.4217070
  46.6809980  32.1948460  87.2194060  46.3682640  32.2875290  88.1193130
  47.4422450  32.7729490  87.1691490  33.1992120  39.5608260  91.6771400
  33.0789720  40.2870350  91.0652670  32.8893010  38.7911170  91.1999310
  48.6354010  47.6874650 105.0718450  49.1113730  48.1657540 105.7507530
  49.2561170  47.6192140 104.3463950  48.0387260  44.8787500 102.2318460
  48.1650320  44.6399380 101.3135640  48.0808640  44.0472040 102.7040540
  43.8758400  48.8670840  90.2297270  43.7159540  48.5773780  91.1279100
  43.7105110  48.0910970  89.6942500  36.3546780  48.6469370  92.0068890
  36.1789260  47.7304910  91.7936690  35.5002520  49.0056660  92.2466690
  37.8969210  38.9262480 103.4536590  37.8012810  37.9857210 103.3036990
  38.7401190  39.1477550 103.0584660  33.0279750  35.3376150 101.6070370
  32.6343140  36.1851360 101.8143150  32.3398150  34.7002520 101.7979010
  30.3296800  33.2604610  95.6400450  30.0409850  33.8307470  96.3525430
  31.0742560  32.7809060  96.0031680  30.5167030  37.2024730  86.8503170
  30.4341700  38.1455490  86.9918160  30.1650090  37.0599640  85.9715520
  37.3906810  39.2476980  88.3063580  36.8223710  38.7995230  87.6799490
  38.0995810  39.6069760  87.7728730  31.4813620  34.7409230  93.7932400
  31.1960540  34.3764900  94.6311020  31.4192480  34.0089690  93.1795540
  39.8661190  44.1781830  89.4896100  40.2076890  44.9224060  88.9939420
  39.0373900  44.4912950  89.8520930  32.4636230  39.8776920 101.1294500
  32.1051170  40.5430770 101.7167840  32.1690790  39.0460470 101.5007120
  35.6649350  40.3361160 104.0134050  35.3649490  40.4818340 103.1161870
  36.4360590  39.7766450 103.9207440  38.8351880  44.2595360  92.2612020
  39.5223010  44.8064570  92.6419610  38.0484300  44.8036090  92.2961630
  34.0390870  31.6079040  92.3459900  33.9105500  31.5996940  93.2944820
  33.2152890  31.9462130  91.9950910  31.3415530  49.0895560  88.3190730
  31.7013170  49.6884900  87.6648000  31.2007870  49.6355450  89.0925760
  31.0384800  33.3670160 101.8066600  30.3243320  33.5667080 102.4119210
  31.4579840  32.5909730 102.1781400  37.3584150  46.4726760  89.1364400
  37.3494250  47.2056450  88.5208910  36.4382510  46.2258340  89.2291360
  40.3443750  46.5355000  87.7989590  40.4455730  46.3318990  86.8691570
  39.4445490  46.2813280  88.0037370  38.9861860  49.0541320  92.4937260
  39.2403360  49.0162710  91.5716630  38.0374340  48.9274650  92.4865510
  37.5759860  48.4103570  87.2392730  38.3688470  48.6992400  86.7874520
  37.0564210  47.9795740  86.5605210  46.6290030  47.6373700  88.6629470
  46.3431540  47.2238840  87.8483650  46.4309580  48.5661410  88.5429990
  38.0937260  43.6306980  87.1035080  37.9887900  43.0159330  87.8296460
  37.9261480  43.1072870  86.3198090  37.0015110  41.6517930  89.6042370
  37.4231530  41.4857800  90.4473760  37.1265950  40.8418160  89.1097510
  39.5142750  40.6755540  86.8519470  40.0348410  39.9604560  86.4860620
  40.1611150  41.3141410  87.1519980  35.6514830  34.5976850 102.4910640
  35.5571700  33.9797600 101.7661510  35.0712220  35.3243140 102.2640550
  35.8974010  37.7251160  86.5500530  35.6963070  36.8618520  86.9113870
  35.7266060  37.6384520  85.6122130  37.9268490  36.3241950 102.7864130
  38.5168180  36.0157800 103.4741950  37.1088730  35.8521700 102.9424030
  34.6956810  34.8251780  86.5378410  34.9982710  34.8319210  85.6297560
  35.4351400  34.4749640  87.0346070  40.0790780  48.7567150  89.1421210
  40.9741570  49.0952120  89.1639970  40.1108410  48.0346560  88.5145490
  47.0585130  47.2870820 101.8487410  46.4587120  47.3463380 101.1051330
  47.1879030  46.3475800 101.9784260  32.2923310  40.6826620  98.4602320
  32.6596350  40.5954020  99.3398340  31.7234130  39.9193170  98.3609180
  31.8439310  37.5935710 102.3660740  30.9495360  37.5602470 102.7054450
  32.3836860  37.7922500 103.1311990  30.4685460  37.5072980  89.8624310
  29.5649540  37.7703180  89.6875970  30.9526080  37.7784150  89.0824270
  33.0112670  36.5638520  87.7718690  33.7204370  36.1421740  87.2865970
  32.2952610  36.6313750  87.1402040  32.6586830  32.6177850  86.8121340
  33.3814960  33.1586790  87.1302560  32.9311350  32.3441270  85.9362880
  32.3479020  31.8684040  96.7143960  32.9955210  31.3181420  96.2739120
  32.7680860  32.1227190  97.5359770  48.7855910  33.9539190  86.8536740
  49.7105220  33.8220370  86.6455030  48.7631700  34.0332010  87.8073190
  48.8594400  34.7249850  89.4793450  48.0645900  34.6594970  90.0086360
  49.0637680  35.6600490  89.4678800  32.1011020  32.0239710  99.4569280
  31.7525840  32.4803530 100.2227460  31.7698720  31.1296840  99.5391710
  48.6685580  48.7713280 100.0242830  48.1743860  49.1682150  99.3069960
  48.0598870  48.1462490 100.4180110  32.7731660  31.5515910 102.7320050
  33.3214650  31.3703960 101.9686160  32.8386970  30.7610020 103.2676360
  46.3525030  49.4136700  97.3029570  45.8928000  50.1652510  96.9287590
  45.7237490  48.6943170  97.2444370  32.0833670  32.6571110  90.4056910
  32.8413030  32.7699990  89.8320940  31.6210840  33.4940310  90.3600340
  34.4558820  33.1835160  88.9458880  34.9851580  32.3964960  88.8166830
  35.0887140  33.8626350  89.1794410  36.6496660  32.9210300  92.0004270
  36.0199400  32.2197610  92.1674400  36.1101800  33.6814430  91.7837430
  47.8233670  49.0775100  91.6689130  47.9985860  48.3912840  91.0250050
  47.1255240  49.6022150  91.2765800  36.7752220  32.1994280 104.4356760
  36.4936490  32.7027880 103.6717580  37.1571920  31.4016030 104.0698890
  35.6661320  49.4669940  89.2224440  36.3980140  49.1829220  88.6748330
  35.9254990  49.2283220  90.1123820  43.3767680  31.6147860 105.0137230
  43.2633130  31.9342470 105.9088750  44.1937420  32.0160370 104.7174510
  46.1566170  48.7619390 104.4955920  46.9491490  48.2668620 104.2881880
  46.4499320  49.4409530 105.1031530  40.4143870  41.4119350  77.2581240
  39.6385970  40.9319790  77.5479810  41.0656800  40.7325000  77.0837400
  34.4309700  41.7239160  78.1357000  33.5994580  41.4687870  78.5353510
  35.0390680  41.7949930  78.8714920  34.4110960  45.7579250  78.3315020
  34.7139000  44.8676990  78.1525240  35.1554550  46.3149470  78.1037270
  32.8401650  36.6841050  71.9199390  31.9518350  37.0257020  71.8179270
  33.1242840  36.4841370  71.0280220  30.8034660  39.2846700  77.8039090
  31.3750770  38.5168900  77.8042730  30.8036200  39.5835460  76.8945700
  40.6614610  48.1037550  75.6584360  40.0426050  48.5595050  75.0878800
  41.5166390  48.2589010  75.2574060  39.8552860  44.0876540  77.2651400
  39.7861140  43.1466480  77.1040530  40.6172720  44.1777950  77.8373970
  40.8858030  36.8946920  77.4920330  41.2622850  36.0218800  77.3794000
  40.7877540  37.2305620  76.6010770  44.6682150  34.3897360  74.4248670
  45.4891770  33.8993930  74.4674150  44.7016230  34.9795020  75.1780510
  48.9581700  36.4064110  80.9892300  48.2533870  36.7945820  80.4707410
  49.2239620  37.1014400  81.5913230  35.1406870  32.8757480  81.5526370
  35.1425310  33.3929870  80.7472270  34.3111180  32.3987660  81.5296300
  41.5277960  42.9876790  73.0516270  40.9095230  43.4526240  72.4878990
  42.0401210  43.6804270  73.4685780  36.3909720  42.5152660  79.7299870
  36.0579100  43.1421580  80.3720940  36.5676400  43.0414540  78.9501540
  35.6028820  44.4833460  81.5449050  36.2202820  45.1584540  81.2633500
  34.7421940  44.8921440  81.4536550  30.8961160  43.6733320  70.4255900
  30.5189140  44.1620420  69.6940800  31.1534230  44.3458600  71.0562430
  47.9730550  35.7752530  77.5885420  47.0255460  35.8091510  77.7200850
  48.2980540  36.5891480  77.9734780  40.8799930  36.4115540  69.6168690
  39.9403600  36.5729500  69.7021150  41.1983190  37.1301220  69.0704680
  36.9669190  44.3530840  77.5660470  36.6697480  43.7476310  76.8868250
  37.9169010  44.3908150  77.4549830  45.0554800  47.9262710  81.2283570
  44.5785360  48.7334900  81.0356180  44.3716590  47.2741040  81.3809780
  36.0587620  44.0912530  84.2168270  35.1616150  44.3152500  84.4641670
  36.0840490  44.2147470  83.2679670  43.0992840  40.9405650  70.1309530
  43.5386120  40.1028080  69.9847350  43.8121260  41.5735050  70.2173670
  34.8858840  40.9625850  82.7925640  34.7466610  41.8348650  83.1613040
  34.0040200  40.6198660  82.6473580  41.2088220  45.8801720  74.0990770
  41.6484130  46.6226050  73.6846160  41.1475110  46.1228290  75.0229730
  36.6839190  46.9047550  85.0010790  36.6554620  47.3090500  84.1339220
  36.5204160  45.9757910  84.8382390  32.0825120  44.4323590  75.1202730
  31.6753200  44.5738180  74.2656330  32.9738130  44.1483750  74.9173940
  41.9004000  48.5815500  82.0269780  42.4148670  48.4923510  82.8292210
  41.0573080  48.9275200  82.3197690  43.8758400  48.8670840  71.4553780
  43.7159540  48.5773780  72.3535610  43.7105110  48.0910970  70.9199010
  36.3546780  48.6469370  73.2325400  36.1789260  47.7304910  73.0193200
  35.5002520  49.0056660  73.4723200  43.5784530  46.3758400  70.0151780
  42.8849690  46.3735690  69.3554060  44.3207390  45.9517720  69.5845950
  47.8911270  36.9319960  84.4224710  47.2755540  37.4399630  83.8940170
  47.5707690  36.0318290  84.3650650  42.6867760  38.0340270  72.6123480
  42.0876650  38.7576070  72.4287100  43.2347370  37.9717050  71.8299930
  37.8969210  38.9262480  84.6793100  37.8012810  37.9857210  84.5293500
  38.7401190  39.1477550  84.2841170  41.2932630  36.6703810  74.6426760
  41.6862200  36.9876010  73.8295450  41.6549480  35.7915690  74.7571280
  33.0279750  35.3376150  82.8326880  32.6343140  36.1851360  83.0399660
  32.3398150  34.7002520  83.0235520  30.3296800  33.2604610  76.8656960
  30.0409850  33.8307470  77.5781940  31.0742560  32.7809060  77.2288190
  30.5167030  37.2024730  68.0759680  30.4341700  38.1455490  68.2174670
  30.1650090  37.0599640  67.1972030  42.3413680  34.7143240  78.1500480
  42.3586420  35.1651890  78.9942330  42.0929260  33.8148880  78.3633920
  45.7684430  32.1275420  83.9886860  46.0930200  31.3965080  84.5144840
  45.8040940  31.8089060  83.0867850  38.6173130  39.9965540  78.8895440
  38.9843260  39.5224110  79.6356780  38.4278190  40.8707110  79.2303780
  36.4072500  39.0374180  81.2079650  36.1029570  39.9166160  81.4330010
  37.3618960  39.0973970  81.2437090  41.0761070  42.3109590  83.4841890
  41.0098380  41.3905260  83.2299480  40.4466210  42.4085030  84.1986530
  43.8700600  38.0058140  70.0364440  44.7580220  38.3175370  69.8615780
  43.8405690  37.1330390  69.6445020  39.8661190  44.1781830  70.7152610
  40.2076890  44.9224060  70.2195930  39.0373900  44.4912950  71.0777440
  35.6649350  40.3361160  85.2390560  35.3649490  40.4818340  84.3418380
  36.4360590  39.7766450  85.1463950  41.0077800  45.1330160  83.2345690
  41.0222340  44.2011120  83.0164600  40.3002900  45.2189920  83.8735460
  30.9744280  39.8768180  68.9785610  31.8439130  40.1592980  69.2621530
  30.4834600  40.6904050  68.8634420  40.4411700  46.7747730  80.3286190
  41.0853920  46.9807110  81.0059610  40.8041140  46.0136130  79.8757040
  41.7143780  44.7780080  79.0463640  42.3566010  44.0773240  79.1595810
  42.2393130  45.5578520  78.8660530  45.5599500  45.0628700  68.7702780
  45.3337080  44.3459140  69.3627420  45.1695700  44.8141140  67.9324530
  43.4881400  45.5774980  82.2499700  43.8237640  46.1641670  82.9277620
  42.5681740  45.4467690  82.4797490  31.0384800  33.3670160  83.0323110
  30.3243320  33.5667080  83.6375720  31.4579840  32.5909730  83.4037910
  45.1415750  42.9800640  70.4316940  44.8537450  43.4413330  71.2194820
  45.9367920  42.5198410  70.7001160  39.3169980  45.6266310  85.4187760
  38.9966850  44.9075550  85.9633450  38.6428340  46.3021380  85.4923820
  37.3584150  46.4726760  70.3620910  37.3494250  47.2056450  69.7465420
  36.4382510  46.2258340  70.4547870  42.5323580  35.8592470  80.7824560
  42.9004400  35.0387680  81.1104130  41.6721780  35.9194360  81.1980210
  40.3443750  46.5355000  69.0246100  40.4455730  46.3318990  68.0948080
  39.4445490  46.2813280  69.2293880  39.4925570  38.5132060  81.0062530
  39.9910820  38.9877880  81.6714380  39.6348520  37.5895580  81.2132560
  41.8985070  33.8186020  74.4465790  41.7752850  33.8372150  73.4975300
  42.8469630  33.8664960  74.5664190  38.9861860  49.0541320  73.7193770
  39.2403360  49.0162710  72.7973140  38.0374340  48.9274650  73.7122020
  36.0704660  35.4020440  70.3820710  36.9195190  35.8390590  70.3160900
  35.7035930  35.7140700  71.2092770  46.6992430  34.7300020  81.8490920
  46.1966030  35.4705420  82.1884730  47.5149090  35.1184020  81.5327710
  34.4657550  49.2373260  76.6423670  35.2020030  48.6888720  76.9132240
  34.8498470  50.1029270  76.5029660  31.3503030  45.3046830  72.5165180
  30.4242810  45.5467970  72.5070590  31.8159460  46.1321090  72.3949930
  33.4715830  48.4219330  85.8309250  34.2728560  48.7431380  86.2444650
  32.9567650  48.0614910  86.5529160  37.5759860  48.4103570  68.4649240
  38.3688470  48.6992400  68.0131030  37.0564210  47.9795740  67.7861720
  42.3080460  44.5299200  85.7784660  41.7018620  44.5530800  85.0380410
  42.0034570  43.7982240  86.3151910  43.7380830  48.2579490  84.3894070
  44.6902580  48.1737510  84.3394310  43.5909050  48.9221200  85.0627860
  46.6290030  47.6373700  69.8885980  46.3431540  47.2238840  69.0740160
  46.4309580  48.5661410  69.7686500  38.2451580  42.3163780  84.3080820
  37.4797250  42.8848780  84.2235490  38.4267540  42.0239990  83.4149050
  41.3339990  42.6927010  68.9333580  40.7850090  43.1396310  69.5776320
  41.9559250  42.1876260  69.4571250  35.1642530  37.6314480  83.6369860
  34.6338990  37.1405430  83.0093200  35.8330600  38.0598680  83.1027790
  44.0620590  42.0983940  83.4011050  44.4761610  42.2529020  84.2501470
  43.1271590  42.2239160  83.5636830  44.5342760  39.4380100  85.4050200
  45.1163530  38.6832420  85.3170680  44.7104530  39.9687540  84.6281680
  35.6514830  34.5976850  83.7167150  35.5571700  33.9797600  82.9918020
  35.0712220  35.3243140  83.4897060  38.4176270  33.1550090  80.7494540
  37.9693570  33.1774350  79.9040090  37.7841470  32.7569110  81.3464840
  38.8235820  42.0504420  81.3706980  39.2423930  42.8937150  81.1983220
  37.9044450  42.1876460  81.1413760  41.1599720  39.7820600  82.7544820
  41.2795930  39.1861740  83.4939660  42.0193720  39.8190290  82.3346120
  36.6743240  48.3557430  82.4864710  36.1364330  49.0803490  82.1673410
  36.9277200  47.8787770  81.6962050  34.6956810  34.8251780  67.7634920
  34.9982710  34.8319210  66.8554070  35.4351400  34.4749640  68.2602580
  39.5305450  49.5908640  82.7451360  39.4564150  50.4943780  83.0523730
  38.6284290  49.2720540  82.7173430  40.0790780  48.7567150  70.3677720
  40.9741570  49.0952120  70.3896480  40.1108410  48.0346560  69.7402000
  30.9332740  46.9183230  76.0484980  31.2635750  46.0504290  75.8163620
  31.3623740  47.1241750  76.8789940  31.4222950  47.7853820  78.7866610
  30.9853940  47.9654620  79.6190760  31.9900630  48.5428440  78.6448330
  48.2986580  45.0288640  68.4113630  47.4679540  45.0965290  68.8820860
  48.4758410  45.9192760  68.1080490  31.2547380  40.2974050  75.1455490
  30.5996220  40.0285690  74.5015190  32.0925330  40.1878530  74.6957470
  44.2037820  35.0915340  69.3673980  44.6222700  34.9046320  68.5270640
  43.8973880  34.2394390  69.6776910  47.7027550  40.0039480  73.0649780
  47.3271150  39.2367410  72.6331070  46.9730670  40.3862180  73.5524710
  31.8439310  37.5935710  83.5917250  30.9495360  37.5602470  83.9310960
  32.3836860  37.7922500  84.3568500  30.4685460  37.5072980  71.0880820
  29.5649540  37.7703180  70.9132480  30.9526080  37.7784150  70.3080780
  33.0112670  36.5638520  68.9975200  33.7204370  36.1421740  68.5122480
  32.2952610  36.6313750  68.3658550  32.6586830  32.6177850  68.0377850
  33.3814960  33.1586790  68.3559070  32.9311350  32.3441270  67.1619390
  46.4678480  37.4870320  72.3049430  46.9637600  37.2541190  73.0898310
  46.2694550  36.6482160  71.8887070  32.3479020  31.8684040  77.9400470
  32.9955210  31.3181420  77.4995630  32.7680860  32.1227190  78.7616280
  47.8965640  36.1231270  74.8387110  47.7864920  35.9687310  75.7769380
  48.6573230  35.5952210  74.5962520  46.2431360  32.0625400  81.2970110
  46.8803580  32.6759540  81.6629300  46.3906250  32.0986060  80.3519340
  32.1011020  32.0239710  80.6825790  31.7525840  32.4803530  81.4483970
  31.7698720  31.1296840  80.7648220  37.4081420  46.7518900  80.4488700
  37.1672780  47.0193460  79.5619220  38.3484060  46.9224630  80.5039560
  48.6685580  48.7713280  81.2499340  48.1743860  49.1682150  80.5326470
  48.0598870  48.1462490  81.6436620  32.7731660  31.5515910  83.9576560
  33.3214650  31.3703960  83.1942670  32.8386970  30.7610020  84.4932870
  33.5463420  48.1421560  81.9676760  32.9523740  48.0106260  82.7066800
  33.5387260  47.3059700  81.5018860  42.9918440  31.4353790  80.1706790
  42.1178280  31.7688900  79.9679720  42.8829190  30.9626970  80.9958660
  43.8990420  33.6424660  81.5548510  43.5703780  32.8276420  81.1750240
  44.8472720  33.5994470  81.4314200  40.7393260  32.3523630  79.1099700
  39.9565050  32.8269130  79.3896460  40.4456190  31.4478460  79.0012880
  45.2914330  33.0546730  77.1548790  45.7322420  32.9991830  76.3070390
  45.0221920  33.9704740  77.2258970  47.1552900  32.6861970  75.1657610
  47.0941300  31.7423190  75.0188630  47.9344930  32.7942060  75.7111070
  31.4605650  48.8254330  74.1281560  31.2927690  48.1925010  74.8263450
  30.5940160  49.0313730  73.7775750  32.0833670  32.6571110  71.6313420
  32.8413030  32.7699990  71.0577450  31.6210840  33.4940310  71.5856850
  43.1272460  31.4352830  75.8598800  43.7301830  32.0073040  76.3347320
  42.3865450  31.9992270  75.6372700  33.0668350  47.5187560  71.5731700
  32.5415970  47.8995590  70.8693660  32.9912930  48.1438330  72.2941410
  34.4558820  33.1835160  70.1715390  34.9851580  32.3964960  70.0423340
  35.0887140  33.8626350  70.4050920  39.5888610  49.5349530  85.8971390
  40.5155920  49.2993800  85.9407350  39.5739040  50.3621530  85.4157420
  35.6661320  49.4669940  70.4480950  36.3980140  49.1829220  69.9004840
  35.9254990  49.2283220  71.3380330  46.1566170  48.7619390  85.7212430
  46.9491490  48.2668620  85.5138390  46.4499320  49.4409530  86.3288040
  42.2825830  39.6340330  56.6028480  42.2019880  38.7194940  56.3320190
  41.8690250  40.1307400  55.8968190  40.4143870  41.4119350  58.4837750
  39.6385970  40.9319790  58.7736320  41.0656800  40.7325000  58.3093910
  34.4309700  41.7239160  59.3613510  33.5994580  41.4687870  59.7610020
  35.0390680  41.7949930  60.0971430  44.4351300  45.8179540  57.2636880
  43.9732830  45.0466780  57.5924050  45.2476850  45.8445610  57.7689330
  40.6614610  48.1037550  56.8840870  40.0426050  48.5595050  56.3135310
  41.5166390  48.2589010  56.4830570  39.8552860  44.0876540  58.4907910
  39.7861140  43.1466480  58.3297040  40.6172720  44.1777950  59.0630480
  40.8858030  36.8946920  58.7176840  41.2622850  36.0218800  58.6050510
  40.7877540  37.2305620  57.8267280  44.6682150  34.3897360  55.6505180
  45.4891770  33.8993930  55.6930660  44.7016230  34.9795020  56.4037020
  48.9581700  36.4064110  62.2148810  48.2533870  36.7945820  61.6963920
  49.2239620  37.1014400  62.8169740  35.1406870  32.8757480  62.7782880
  35.1425310  33.3929870  61.9728780  34.3111180  32.3987660  62.7552810
  41.5277960  42.9876790  54.2772780  40.9095230  43.4526240  53.7135500
  42.0401210  43.6804270  54.6942290  36.3909720  42.5152660  60.9556380
  36.0579100  43.1421580  61.5977450  36.5676400  43.0414540  60.1758050
  44.9043630  36.3297740  58.4232720  44.1999200  36.6182630  59.0035830
  45.2655790  37.1397850  58.0632280  46.5206410  45.9472870  60.6860200
  45.8369930  46.6171980  60.6776870  47.0600700  46.1453520  59.9205060
  47.9730550  35.7752530  58.8141930  47.0255460  35.8091510  58.9457360
  48.2980540  36.5891480  59.1991290  38.5050090  32.0749710  57.1097920
  38.8125070  31.5196600  56.3933420  37.5750790  32.2094170  56.9270910
  44.0565150  47.7917000  59.4005380  44.0692310  47.3879290  58.5327640
  43.5040370  48.5664290  59.2966810  45.3510570  44.5133220  54.4895550
  45.2406900  43.5707550  54.6144970  45.3478820  44.8748860  55.3758310
  43.4550590  42.6946840  60.7287990  43.8719380  42.4806950  59.8941450
  44.1790410  42.9519630  61.2996610  40.8930850  40.1398540  53.8458040
  39.9660130  40.0735920  54.0746510  41.0455670  41.0778670  53.7313280
  47.4012690  41.0934060  60.8204230  46.5731320  41.1627150  60.3454360
  47.9963170  41.6788370  60.3520060  44.9228140  41.7018840  54.3493290
  44.3040560  41.3638390  53.7019590  44.9052590  41.0578600  55.0572480
  45.0554800  47.9262710  62.4540080  44.5785360  48.7334900  62.2612690
  44.3716590  47.2741040  62.6066290  36.0587620  44.0912530  65.4424780
  35.1616150  44.3152500  65.6898180  36.0840490  44.2147470  64.4936180
  34.8858840  40.9625850  64.0182150  34.7466610  41.8348650  64.3869550
  34.0040200  40.6198660  63.8730090  41.2088220  45.8801720  55.3247280
  41.6484130  46.6226050  54.9102670  41.1475110  46.1228290  56.2486240
  48.6354010  47.6874650  67.5231470  49.1113730  48.1657540  68.2020550
  49.2561170  47.6192140  66.7976970  30.8377490  42.7323400  59.9353060
  30.9157910  42.8672170  58.9908780  31.4519170  42.0239290  60.1281180
  48.0387260  44.8787500  64.6831480  48.1650320  44.6399380  63.7648660
  48.0808640  44.0472040  65.1553560  41.9004000  48.5815500  63.2526290
  42.4148670  48.4923510  64.0548720  41.0573080  48.9275200  63.5454200
  43.8758400  48.8670840  52.6810290  43.7159540  48.5773780  53.5792120
  43.7105110  48.0910970  52.1455520  36.3546780  48.6469370  54.4581910
  36.1789260  47.7304910  54.2449710  35.5002520  49.0056660  54.6979710
  43.5784530  46.3758400  51.2408290  42.8849690  46.3735690  50.5810570
  44.3207390  45.9517720  50.8102460  43.1434460  48.0021110  55.3156780
  43.5991410  47.2210490  55.6295400  43.4826980  48.7127930  55.8597960
  47.8911270  36.9319960  65.6481220  47.2755540  37.4399630  65.1196680
  47.5707690  36.0318290  65.5907160  30.8937010  43.7737570  62.4747520
  31.0568050  43.3042930  61.6566890  31.3589460  43.2661130  63.1396360
  38.7814600  32.5254030  52.3913920  38.1568780  32.5213900  53.1167230
  38.6944720  31.6584990  51.9949890  37.7031680  33.4490660  59.3697690
  38.0004010  34.3553490  59.2889710  38.2517240  32.9609440  58.7557260
  37.8969210  38.9262480  65.9049610  37.8012810  37.9857210  65.7550010
  38.7401190  39.1477550  65.5097680  41.2932630  36.6703810  55.8683270
  41.6862200  36.9876010  55.0551960  41.6549480  35.7915690  55.9827790
  33.0279750  35.3376150  64.0583390  32.6343140  36.1851360  64.2656170
  32.3398150  34.7002520  64.2492030  30.3296800  33.2604610  58.0913470
  30.0409850  33.8307470  58.8038450  31.0742560  32.7809060  58.4544700
  30.5167030  37.2024730  49.3016190  30.4341700  38.1455490  49.4431180
  30.1650090  37.0599640  48.4228540  41.8787770  39.2609560  59.9634050
  41.1468890  39.7696370  60.3124150  41.4812110  38.4439540  59.6622830
  38.3785310  36.9375840  51.3593300  38.4998130  36.8962320  52.3079120
  37.9933820  37.7999990  51.2040030  32.4675990  43.1489000  64.6343330
  32.0830780  42.5082670  65.2326290  32.7788180  43.8525120  65.2038060
  38.6173130  39.9965540  60.1151950  38.9843260  39.5224110  60.8613290
  38.4278190  40.8707110  60.4560290  36.4072500  39.0374180  62.4336160
  36.1029570  39.9166160  62.6586520  37.3618960  39.0973970  62.4693600
  45.6942270  42.2400530  58.8229400  46.4141390  42.7355820  58.4325510
  45.4924090  41.5618420  58.1783270  41.1552210  33.6338490  52.9658790
  40.3416820  33.1351660  52.8904100  40.9614160  34.4736740  52.5495140
  41.0761070  42.3109590  64.7098400  41.0098380  41.3905260  64.4555990
  40.4466210  42.4085030  65.4243040  39.8661190  44.1781830  51.9409120
  40.2076890  44.9224060  51.4452440  39.0373900  44.4912950  52.3033950
  32.4636230  39.8776920  63.5807520  32.1051170  40.5430770  64.1680860
  32.1690790  39.0460470  63.9520140  35.6649350  40.3361160  66.4647070
  35.3649490  40.4818340  65.5674890  36.4360590  39.7766450  66.3720460
  41.0077800  45.1330160  64.4602200  41.0222340  44.2011120  64.2421110
  40.3002900  45.2189920  65.0991970  47.2189010  41.7737500  63.8070780
  46.4937200  42.3666280  63.6100170  47.7464470  41.7661040  63.0084150
  47.1702120  46.1712240  53.4582940  46.5278280  45.5167860  53.7326660
  46.7832780  46.5767330  52.6823610  42.7488600  43.4997670  57.3054630
  43.1012420  42.9025800  56.6456000  41.8650930  43.1741900  57.4762880
  38.8351880  44.2595360  54.7125040  39.5223010  44.8064570  55.0932630
  38.0484300  44.8036090  54.7474650  34.0390870  31.6079040  54.7972920
  33.9105500  31.5996940  55.7457840  33.2152890  31.9462130  54.4463930
  41.7143780  44.7780080  60.2720150  42.3566010  44.0773240  60.3852320
  42.2393130  45.5578520  60.0917040  43.4881400  45.5774980  63.4756210
  43.8237640  46.1641670  64.1534130  42.5681740  45.4467690  63.7054000
  31.0384800  33.3670160  64.2579620  30.3243320  33.5667080  64.8632230
  31.4579840  32.5909730  64.6294420  39.3169980  45.6266310  66.6444270
  38.9966850  44.9075550  67.1889960  38.6428340  46.3021380  66.7180330
  37.3584150  46.4726760  51.5877420  37.3494250  47.2056450  50.9721930
  36.4382510  46.2258340  51.6804380  45.8985610  34.8149410  52.8168630
  45.2698770  34.9195080  52.1026860  45.4037530  35.0346190  53.6062510
  40.3443750  46.5355000  50.2502610  40.4455730  46.3318990  49.3204590
  39.4445490  46.2813280  50.4550390  41.8985070  33.8186020  55.6722300
  41.7752850  33.8372150  54.7231810  42.8469630  33.8664960  55.7920700
  38.9861860  49.0541320  54.9450280  39.2403360  49.0162710  54.0229650
  38.0374340  48.9274650  54.9378530  36.0704660  35.4020440  51.6077220
  36.9195190  35.8390590  51.5417410  35.7035930  35.7140700  52.4349280
  46.6992430  34.7300020  63.0747430  46.1966030  35.4705420  63.4141240
  47.5149090  35.1184020  62.7584220  44.9914440  39.9733200  56.5208790
  44.0504580  39.9883430  56.6956480  45.3058510  39.1869160  56.9669090
  46.9940020  47.1442050  58.1963050  47.1187440  47.9673220  58.6686860
  47.8605580  46.9332780  57.8487200  42.3080460  44.5299200  67.0041170
  41.7018620  44.5530800  66.2636920  42.0034570  43.7982240  67.5408420
  43.7380830  48.2579490  65.6150580  44.6902580  48.1737510  65.5650820
  43.5909050  48.9221200  66.2884370  46.6290030  47.6373700  51.1142490
  46.3431540  47.2238840  50.2996670  46.4309580  48.5661410  50.9943010
  31.1913640  40.9092790  66.0001810  31.6952660  40.3300070  66.5718040
  30.4521060  41.1933020  66.5378180  38.0937260  43.6306980  49.5548100
  37.9887900  43.0159330  50.2809480  37.9261480  43.1072870  48.7711110
  38.2451580  42.3163780  65.5337330  37.4797250  42.8848780  65.4492000
  38.4267540  42.0239990  64.6405560  45.3874930  44.0469110  66.0912350
  46.1284400  44.3844870  65.5879810  44.6247610  44.2161170  65.5382120
  33.2236720  39.0522380  66.8951880  33.2642060  38.7536250  67.8037110
  34.0782220  39.4529990  66.7359400  35.1642530  37.6314480  64.8626370
  34.6338990  37.1405430  64.2349710  35.8330600  38.0598680  64.3284300
  39.5142750  40.6755540  49.3032490  40.0348410  39.9604560  48.9373640
  40.1611150  41.3141410  49.6033000  44.0620590  42.0983940  64.6267560
  44.4761610  42.2529020  65.4757980  43.1271590  42.2239160  64.7893340
  44.5342760  39.4380100  66.6306710  45.1163530  38.6832420  66.5427190
  44.7104530  39.9687540  65.8538190  35.6514830  34.5976850  64.9423660
  35.5571700  33.9797600  64.2174530  35.0712220  35.3243140  64.7153570
  38.8235820  42.0504420  62.5963490  39.2423930  42.8937150  62.4239730
  37.9044450  42.1876460  62.3670270  43.4987620  40.3357790  62.5563840
  42.9722840  40.8600410  61.9528980  43.8418960  40.9685180  63.1873570
  35.8974010  37.7251160  49.0013550  35.6963070  36.8618520  49.3626890
  35.7266060  37.6384520  48.0635150  43.3762320  32.5359390  51.5300430
  43.6564610  31.6927290  51.8859850  42.6028050  32.7682500  52.0439180
  34.6956810  34.8251780  48.9891430  34.9982710  34.8319210  48.0810580
  35.4351400  34.4749640  49.4859090  37.9141740  33.7686400  49.9747630
  37.5663740  33.0910390  49.3950080  38.1154510  33.3075910  50.7891020
  40.0790780  48.7567150  51.5934230  40.9741570  49.0952120  51.6152990
  40.1108410  48.0346560  50.9658510  30.9332740  46.9183230  57.2741490
  31.2635750  46.0504290  57.0420130  31.3623740  47.1241750  58.1046450
  47.0585130  47.2870820  64.3000430  46.4587120  47.3463380  63.5564350
  47.1879030  46.3475800  64.4297280  48.2986580  45.0288640  49.6370140
  47.4679540  45.0965290  50.1077370  48.4758410  45.9192760  49.3337000
  48.7603010  42.6286220  56.9846270  49.1311840  41.8453540  56.5782240
  49.4004940  43.3175320  56.8063570  45.7436770  44.0122800  62.3976590
  44.9296610  44.4419960  62.6602380  46.1510970  44.6241210  61.7845640
  47.7027550  40.0039480  54.2906290  47.3271150  39.2367410  53.8587580
  46.9730670  40.3862180  54.7781220  32.2923310  40.6826620  60.9115340
  32.6596350  40.5954020  61.7911360  31.7234130  39.9193170  60.8122200
  47.0927170  39.1511000  63.9245810  46.8613260  38.9223750  63.0243760
  47.3531720  40.0710550  63.8790700  31.8439310  37.5935710  64.8173760
  30.9495360  37.5602470  65.1567470  32.3836860  37.7922500  65.5825010
  30.4685460  37.5072980  52.3137330  29.5649540  37.7703180  52.1388990
  30.9526080  37.7784150  51.5337290  46.9778510  38.2296970  57.5913530
  47.5015990  37.7359620  56.9603700  47.5637930  38.3647330  58.3361100
  47.1568230  38.3136840  61.1133080  46.2070940  38.2800380  61.2278070
  47.3381240  39.2236950  60.8782850  33.0112670  36.5638520  50.2231710
  33.7204370  36.1421740  49.7378990  32.2952610  36.6313750  49.5915060
  32.6586830  32.6177850  49.2634360  33.3814960  33.1586790  49.5815580
  32.9311350  32.3441270  48.3875900  32.3479020  31.8684040  59.1656980
  32.9955210  31.3181420  58.7252140  32.7680860  32.1227190  59.9872790
  47.8965640  36.1231270  56.0643620  47.7864920  35.9687310  57.0025890
  48.6573230  35.5952210  55.8219030  46.2431360  32.0625400  62.5226620
  46.8803580  32.6759540  62.8885810  46.3906250  32.0986060  61.5775850
  48.8594400  34.7249850  51.9306470  48.0645900  34.6594970  52.4599380
  49.0637680  35.6600490  51.9191820  45.8012820  48.7641400  55.9244860
  46.3971890  48.4425970  55.2479280  46.0590970  48.2913220  56.7158130
  32.1011020  32.0239710  61.9082300  31.7525840  32.4803530  62.6740480
  31.7698720  31.1296840  61.9904730  32.7731660  31.5515910  65.1833070
  33.3214650  31.3703960  64.4199180  32.8386970  30.7610020  65.7189380
  45.2914330  33.0546730  58.3805300  45.7322420  32.9991830  57.5326900
  45.0221920  33.9704740  58.4515480  47.1552900  32.6861970  56.3914120
  47.0941300  31.7423190  56.2445140  47.9344930  32.7942060  56.9367580
  32.0833670  32.6571110  52.8569930  32.8413030  32.7699990  52.2833960
  31.6210840  33.4940310  52.8113360  43.1272460  31.4352830  57.0855310
  43.7301830  32.0073040  57.5603830  42.3865450  31.9992270  56.8629210
  46.2707060  31.8374390  52.3595590  46.4657690  32.7357840  52.6263020
  45.4836930  31.6061470  52.8528540  33.0668350  47.5187560  52.7988210
  32.5415970  47.8995590  52.0950170  32.9912930  48.1438330  53.5197920
  34.4558820  33.1835160  51.3971900  34.9851580  32.3964960  51.2679850
  35.0887140  33.8626350  51.6307430  36.6496660  32.9210300  54.4517290
  36.0199400  32.2197610  54.6187420  36.1101800  33.6814430  54.2350450
  47.8233670  49.0775100  54.1202150  47.9985860  48.3912840  53.4763070
  47.1255240  49.6022150  53.7278820  35.6661320  49.4669940  51.6737460
  36.3980140  49.1829220  51.1261350  35.9254990  49.2283220  52.5636840
  46.1566170  48.7619390  66.9468940  46.9491490  48.2668620  66.7394900
  46.4499320  49.4409530  67.5544550  34.4309700  41.7239160  40.5870020
  33.5994580  41.4687870  40.9866530  35.0390680  41.7949930  41.3227940
  34.4110960  45.7579250  40.7828040  34.7139000  44.8676990  40.6038260
  35.1554550  46.3149470  40.5550290  32.8401650  36.6841050  34.3712410
  31.9518350  37.0257020  34.2692290  33.1242840  36.4841370  33.4793240
  30.8034660  39.2846700  40.2552110  31.3750770  38.5168900  40.2555750
  30.8036200  39.5835460  39.3458720  32.0459530  34.6931060  42.0421040
  31.8662370  33.7956810  42.3223800  31.6439610  35.2402930  42.7167990
  40.8858030  36.8946920  39.9433350  41.2622850  36.0218800  39.8307020
  40.7877540  37.2305620  39.0523790  35.0163040  35.2672550  35.4050790
  35.1229790  36.1676280  35.7119550  34.1055400  35.2190520  35.1145440
  44.6682150  34.3897360  36.8761690  45.4891770  33.8993930  36.9187170
  44.7016230  34.9795020  37.6293530  32.6646200  37.1891560  40.6503380
  33.3456310  37.4529930  41.2690780  32.3494250  36.3492430  40.9841390
  36.8570770  38.2358920  39.7375970  37.3648990  38.7339890  40.3780990
  37.3884010  37.4594120  39.5615330  35.1406870  32.8757480  44.0039390
  35.1425310  33.3929870  43.1985290  34.3111180  32.3987660  43.9809320
  44.9043630  36.3297740  39.6489230  44.1999200  36.6182630  40.2292340
  45.2655790  37.1397850  39.2888790  34.8222200  34.5867440  42.0109840
  35.1639010  35.4309490  41.7163710  33.8838010  34.7351180  42.1275180
  35.6028820  44.4833460  43.9962070  36.2202820  45.1584540  43.7146520
  34.7421940  44.8921440  43.9049570  30.8961160  43.6733320  32.8768920
  30.5189140  44.1620420  32.1453820  31.1534230  44.3458600  33.5075450
  46.5206410  45.9472870  41.9116710  45.8369930  46.6171980  41.9033380
  47.0600700  46.1453520  41.1461570  47.9730550  35.7752530  40.0398440
  47.0255460  35.8091510  40.1713870  48.2980540  36.5891480  40.4247800
  38.5050090  32.0749710  38.3354430  38.8125070  31.5196600  37.6189930
  37.5750790  32.2094170  38.1527420  44.0565150  47.7917000  40.6261890
  44.0692310  47.3879290  39.7584150  43.5040370  48.5664290  40.5223320
  40.8930850  40.1398540  35.0714550  39.9660130  40.0735920  35.3003020
  41.0455670  41.0778670  34.9569790  40.8799930  36.4115540  32.0681710
  39.9403600  36.5729500  32.1534170  41.1983190  37.1301220  31.5217700
  47.4012690  41.0934060  42.0460740  46.5731320  41.1627150  41.5710870
  47.9963170  41.6788370  41.5776570  44.9228140  41.7018840  35.5749800
  44.3040560  41.3638390  34.9276100  44.9052590  41.0578600  36.2828990
  35.2116110  37.4406490  41.6333320  35.7630700  37.5501830  40.8586570
  35.7259620  37.8144090  42.3488550  45.0554800  47.9262710  43.6796590
  44.5785360  48.7334900  43.4869200  44.3716590  47.2741040  43.8322800
  36.0587620  44.0912530  46.6681290  35.1616150  44.3152500  46.9154690
  36.0840490  44.2147470  45.7192690  43.0992840  40.9405650  32.5822550
  43.5386120  40.1028080  32.4360370  43.8121260  41.5735050  32.6686690
  34.8858840  40.9625850  45.2438660  34.7466610  41.8348650  45.6126060
  34.0040200  40.6198660  45.0986600  36.6839190  46.9047550  47.4523810
  36.6554620  47.3090500  46.5852240  36.5204160  45.9757910  47.2895410
  46.6809980  32.1948460  30.8963590  46.3682640  32.2875290  31.7962660
  47.4422450  32.7729490  30.8461020  33.1992120  39.5608260  35.3540930
  33.0789720  40.2870350  34.7422200  32.8893010  38.7911170  34.8768840
  48.6354010  47.6874650  48.7487980  49.1113730  48.1657540  49.4277060
  49.2561170  47.6192140  48.0233480  30.8377490  42.7323400  41.1609570
  30.9157910  42.8672170  40.2165290  31.4519170  42.0239290  41.3537690
  32.0825120  44.4323590  37.5715750  31.6753200  44.5738180  36.7169350
  32.9738130  44.1483750  37.3686960  41.9004000  48.5815500  44.4782800
  42.4148670  48.4923510  45.2805230  41.0573080  48.9275200  44.7710710
  36.3546780  48.6469370  35.6838420  36.1789260  47.7304910  35.4706220
  35.5002520  49.0056660  35.9236220  30.8937010  43.7737570  43.7004030
  31.0568050  43.3042930  42.8823400  31.3589460  43.2661130  44.3652870
  35.6655780  32.9043330  38.7364600  35.2223930  33.6852870  38.4049120
  36.2240770  33.2273220  39.4435540  39.9525590  35.7711850  44.3399920
  39.4904960  35.9794870  45.1519860  39.5503700  34.9571200  44.0370590
  38.7814600  32.5254030  33.6170430  38.1568780  32.5213900  34.3423740
  38.6944720  31.6584990  33.2206400  37.7031680  33.4490660  40.5954200
  38.0004010  34.3553490  40.5146220  38.2517240  32.9609440  39.9813770
  35.4570000  38.0276900  36.4645850  35.2310920  37.8114070  37.3692470
  34.6762530  38.4605360  36.1191820  42.6867760  38.0340270  35.0636500
  42.0876650  38.7576070  34.8800120  43.2347370  37.9717050  34.2812950
  37.8969210  38.9262480  47.1306120  37.8012810  37.9857210  46.9806520
  38.7401190  39.1477550  46.7354190  41.2932630  36.6703810  37.0939780
  41.6862200  36.9876010  36.2808470  41.6549480  35.7915690  37.2084300
  33.0279750  35.3376150  45.2839900  32.6343140  36.1851360  45.4912680
  32.3398150  34.7002520  45.4748540  39.6024800  35.4211120  48.3536640
  38.9123120  35.2283320  48.9882730  40.3457100  35.7045760  48.8860940
  30.3296800  33.2604610  39.3169980  30.0409850  33.8307470  40.0294960
  31.0742560  32.7809060  39.6801210  30.5167030  37.2024730  30.5272700
  30.4341700  38.1455490  30.6687690  30.1650090  37.0599640  29.6485050
  38.3165160  35.9363760  39.5943050  38.3201220  35.4953710  38.7447590
  39.2116280  36.2581090  39.7014870  34.1667540  35.8190250  38.5537260
  33.8267590  36.2965480  39.3104310  33.4044860  35.3655370  38.1938360
  38.3785310  36.9375840  32.5849810  38.4998130  36.8962320  33.5335630
  37.9933820  37.7999990  32.4296540  42.3413680  34.7143240  40.6013500
  42.3586420  35.1651890  41.4455350  42.0929260  33.8148880  40.8146940
  37.3906810  39.2476980  31.9833110  36.8223710  38.7995230  31.3569020
  38.0995810  39.6069760  31.4498260  32.4675990  43.1489000  45.8599840
  32.0830780  42.5082670  46.4582800  32.7788180  43.8525120  46.4294570
  31.4813620  34.7409230  37.4701930  31.1960540  34.3764900  38.3080550
  31.4192480  34.0089690  36.8565070  36.4072500  39.0374180  43.6592670
  36.1029570  39.9166160  43.8843030  37.3618960  39.0973970  43.6950110
  34.9354290  43.2435170  34.2559520  34.1616550  42.7032790  34.0958240
  35.6648920  42.7241780  33.9177280  45.6942270  42.2400530  40.0485910
  46.4141390  42.7355820  39.6582020  45.4924090  41.5618420  39.4039780
  41.1552210  33.6338490  34.1915300  40.3416820  33.1351660  34.1160610
  40.9614160  34.4736740  33.7751650  41.0761070  42.3109590  45.9354910
  41.0098380  41.3905260  45.6812500  40.4466210  42.4085030  46.6499550
  43.8700600  38.0058140  32.4877460  44.7580220  38.3175370  32.3128800
  43.8405690  37.1330390  32.0958040  34.9791690  42.9115550  37.8938330
  35.4970360  42.1083810  37.8395220  34.5275710  42.8494690  38.7355160
  39.8661190  44.1781830  33.1665630  40.2076890  44.9224060  32.6708950
  39.0373900  44.4912950  33.5290460  32.4636230  39.8776920  44.8064030
  32.1051170  40.5430770  45.3937370  32.1690790  39.0460470  45.1776650
  35.6649350  40.3361160  47.6903580  35.3649490  40.4818340  46.7931400
  36.4360590  39.7766450  47.5976970  41.0077800  45.1330160  45.6858710
  41.0222340  44.2011120  45.4677620  40.3002900  45.2189920  46.3248480
  46.1414870  39.3169980  31.9557320  46.0578590  39.7484200  31.1053760
  46.8609060  39.7768330  32.3884140  30.9744280  39.8768180  31.4298630
  31.8439130  40.1592980  31.7134550  30.4834600  40.6904050  31.3147440
  38.1379090  41.2641390  35.5506910  38.5941870  42.0746640  35.7767100
  37.7867300  40.9464530  36.3825400  34.0390870  31.6079040  36.0229430
  33.9105500  31.5996940  36.9714350  33.2152890  31.9462130  35.6720440
  43.4881400  45.5774980  44.7012720  43.8237640  46.1641670  45.3790640
  42.5681740  45.4467690  44.9310510  31.3415530  49.0895560  31.9960260
  31.7013170  49.6884900  31.3417530  31.2007870  49.6355450  32.7695290
  31.0384800  33.3670160  45.4836130  30.3243320  33.5667080  46.0888740
  31.4579840  32.5909730  45.8550930  31.3257390  47.3550420  46.4702660
  31.4348510  46.4145160  46.3298050  30.6737950  47.6205170  45.8216390
  39.3169980  45.6266310  47.8700780  38.9966850  44.9075550  48.4146470
  38.6428340  46.3021380  47.9436840  37.3584150  46.4726760  32.8133930
  37.3494250  47.2056450  32.1978440  36.4382510  46.2258340  32.9060890
  32.9590790  41.6941650  33.5580690  32.3518740  42.4340550  33.5675990
  33.4340140  41.7841010  32.7318890  45.8985610  34.8149410  34.0425140
  45.2698770  34.9195080  33.3283370  45.4037530  35.0346190  34.8319020
  40.3443750  46.5355000  31.4759120  40.4455730  46.3318990  30.5461100
  39.4445490  46.2813280  31.6806900  37.8669640  37.0935360  35.4583020
  37.1585790  37.5621700  35.8996630  38.1514120  36.4357370  36.0928210
  41.8985070  33.8186020  36.8978810  41.7752850  33.8372150  35.9488320
  42.8469630  33.8664960  37.0177210  38.9861860  49.0541320  36.1706790
  39.2403360  49.0162710  35.2486160  38.0374340  48.9274650  36.1635040
  36.0704660  35.4020440  32.8333730  36.9195190  35.8390590  32.7673920
  35.7035930  35.7140700  33.6605790  44.9914440  39.9733200  37.7465300
  44.0504580  39.9883430  37.9212990  45.3058510  39.1869160  38.1925600
  34.9696080  41.6552800  31.3069260  35.7359350  41.5434160  31.8694690
  35.0470770  40.9590770  30.6546030  33.6642840  39.0877870  31.9902150
  33.7446430  38.1405380  32.1019550  34.5562590  39.4184750  32.0962810
  46.9940020  47.1442050  39.4219560  47.1187440  47.9673220  39.8943370
  47.8605580  46.9332780  39.0743710  34.4657550  49.2373260  39.0936690
  35.2020030  48.6888720  39.3645260  34.8498470  50.1029270  38.9542680
  31.3503030  45.3046830  34.9678200  30.4242810  45.5467970  34.9583610
  31.8159460  46.1321090  34.8462950  33.4715830  48.4219330  48.2822270
  34.2728560  48.7431380  48.6957670  32.9567650  48.0614910  49.0042180
  37.5759860  48.4103570  30.9162260  38.3688470  48.6992400  30.4644050
  37.0564210  47.9795740  30.2374740  42.3080460  44.5299200  48.2297680
  41.7018620  44.5530800  47.4893430  42.0034570  43.7982240  48.7664930
  43.7380830  48.2579490  46.8407090  44.6902580  48.1737510  46.7907330
  43.5909050  48.9221200  47.5140880  31.1913640  40.9092790  47.2258320
  31.6952660  40.3300070  47.7974550  30.4521060  41.1933020  47.7634690
  38.0937260  43.6306980  30.7804610  37.9887900  43.0159330  31.5065990
  37.9261480  43.1072870  29.9967620  38.2451580  42.3163780  46.7593840
  37.4797250  42.8848780  46.6748510  38.4267540  42.0239990  45.8662070
  41.3339990  42.6927010  31.3846600  40.7850090  43.1396310  32.0289340
  41.9559250  42.1876260  31.9084270  33.2236720  39.0522380  48.1208390
  33.2642060  38.7536250  49.0293620  34.0782220  39.4529990  47.9615910
  37.0015110  41.6517930  33.2811900  37.4231530  41.4857800  34.1243290
  37.1265950  40.8418160  32.7867040  35.1642530  37.6314480  46.0882880
  34.6338990  37.1405430  45.4606220  35.8330600  38.0598680  45.5540810
  39.5142750  40.6755540  30.5289000  40.0348410  39.9604560  30.1630150
  40.1611150  41.3141410  30.8289510  35.6514830  34.5976850  46.1680170
  35.5571700  33.9797600  45.4431040  35.0712220  35.3243140  45.9410080
  38.4176270  33.1550090  43.2007560  37.9693570  33.1774350  42.3553110
  37.7841470  32.7569110  43.7977860  41.1599720  39.7820600  45.2057840
  41.2795930  39.1861740  45.9452680  42.0193720  39.8190290  44.7859140
  35.8974010  37.7251160  30.2270060  35.6963070  36.8618520  30.5883400
  35.7266060  37.6384520  29.2891660  36.6743240  48.3557430  44.9377730
  36.1364330  49.0803490  44.6186430  36.9277200  47.8787770  44.1475070
  37.9268490  36.3241950  46.4633660  38.5168180  36.0157800  47.1511480
  37.1088730  35.8521700  46.6193560  43.3762320  32.5359390  32.7556940
  43.6564610  31.6927290  33.1116360  42.6028050  32.7682500  33.2695690
  34.6956810  34.8251780  30.2147940  34.9982710  34.8319210  29.3067090
  35.4351400  34.4749640  30.7115600  37.9141740  33.7686400  31.2004140
  37.5663740  33.0910390  30.6206590  38.1154510  33.3075910  32.0147530
  40.0790780  48.7567150  32.8190740  40.9741570  49.0952120  32.8409500
  40.1108410  48.0346560  32.1915020  33.7186940  44.1294200  31.0477740
  34.1561810  44.6723870  31.7035320  34.2034670  43.3041150  31.0574080
  30.9332740  46.9183230  38.4998000  31.2635750  46.0504290  38.2676640
  31.3623740  47.1241750  39.3302960  35.5294660  45.2492240  36.1599970
  35.2290200  45.1257210  37.0603880  35.4232150  44.3900830  35.7515700
  31.4222950  47.7853820  41.2379630  30.9853940  47.9654620  42.0703780
  31.9900630  48.5428440  41.0961350  47.0585130  47.2870820  45.5256940
  46.4587120  47.3463380  44.7820860  47.1879030  46.3475800  45.6553790
  31.2547380  40.2974050  37.5968510  30.5996220  40.0285690  36.9528210
  32.0925330  40.1878530  37.1470490  48.7603010  42.6286220  38.2102780
  49.1311840  41.8453540  37.8038750  49.4004940  43.3175320  38.0320080
  45.7436770  44.0122800  43.6233100  44.9296610  44.4419960  43.8858890
  46.1510970  44.6241210  43.0102150  44.2037820  35.0915340  31.8187000
  44.6222700  34.9046320  30.9783660  43.8973880  34.2394390  32.1289930
  47.7027550  40.0039480  35.5162800  47.3271150  39.2367410  35.0844090
  46.9730670  40.3862180  36.0037730  32.2923310  40.6826620  42.1371850
  32.6596350  40.5954020  43.0167870  31.7234130  39.9193170  42.0378710
  31.8439310  37.5935710  46.0430270  30.9495360  37.5602470  46.3823980
  32.3836860  37.7922500  46.8081520  30.4685460  37.5072980  33.5393840
  29.5649540  37.7703180  33.3645500  30.9526080  37.7784150  32.7593800
  46.9778510  38.2296970  38.8170040  47.5015990  37.7359620  38.1860210
  47.5637930  38.3647330  39.5617610  33.0112670  36.5638520  31.4488220
  33.7204370  36.1421740  30.9635500  32.2952610  36.6313750  30.8171570
  32.6586830  32.6177850  30.4890870  33.3814960  33.1586790  30.8072090
  32.9311350  32.3441270  29.6132410  46.4678480  37.4870320  34.7562450
  46.9637600  37.2541190  35.5411330  46.2694550  36.6482160  34.3400090
  32.3479020  31.8684040  40.3913490  32.9955210  31.3181420  39.9508650
  32.7680860  32.1227190  41.2129300  47.8965640  36.1231270  37.2900130
  47.7864920  35.9687310  38.2282400  48.6573230  35.5952210  37.0475540
  48.7855910  33.9539190  30.5306270  49.7105220  33.8220370  30.3224560
  48.7631700  34.0332010  31.4842720  48.8594400  34.7249850  33.1562980
  48.0645900  34.6594970  33.6855890  49.0637680  35.6600490  33.1448330
  32.1011020  32.0239710  43.1338810  31.7525840  32.4803530  43.8996990
  31.7698720  31.1296840  43.2161240  33.7075390  45.1959310  47.2992000
  33.6645020  44.8252220  48.1806460  33.8386400  46.1336880  47.4393820
  37.4081420  46.7518900  42.9001720  37.1672780  47.0193460  42.0132240
  38.3484060  46.9224630  42.9552580  39.6135840  33.2151590  46.6558230
  39.5524730  33.8073420  47.4053640  40.5536220  33.1077550  46.5108490
  48.6685580  48.7713280  43.7012360  48.1743860  49.1682150  42.9839490
  48.0598870  48.1462490  44.0949640  32.7731660  31.5515910  46.4089580
  33.3214650  31.3703960  45.6455690  32.8386970  30.7610020  46.9445890
  33.5463420  48.1421560  44.4189780  32.9523740  48.0106260  45.1579820
  33.5387260  47.3059700  43.9531880  42.9918440  31.4353790  42.6219810
  42.1178280  31.7688900  42.4192740  42.8829190  30.9626970  43.4471680
  33.1775650  45.5079940  43.3697820  32.4509710  44.8885230  43.3023770
  33.2384800  45.9020550  42.4995900  36.7820750  47.7224940  40.1547230
  37.2985770  47.1112300  39.6295490  37.4318130  48.2253720  40.6458240
  39.5216250  48.6133430  40.9816210  39.8094060  48.3587730  40.1049220
  40.0339470  48.0610790  41.5721780  40.7393260  32.3523630  41.5612720
  39.9565050  32.8269130  41.8409480  40.4456190  31.4478460  41.4525900
  45.2914330  33.0546730  39.6061810  45.7322420  32.9991830  38.7583410
  45.0221920  33.9704740  39.6771990  47.1552900  32.6861970  37.6170630
  47.0941300  31.7423190  37.4701650  47.9344930  32.7942060  38.1624090
  31.4605650  48.8254330  36.5794580  31.2927690  48.1925010  37.2776470
  30.5940160  49.0313730  36.2288770  32.0833670  32.6571110  34.0826440
  32.8413030  32.7699990  33.5090470  31.6210840  33.4940310  34.0369870
  38.6247480  34.7710380  37.0728750  37.8121990  34.3967270  36.7324630
  39.1289120  34.0155460  37.3749940  43.1272460  31.4352830  38.3111820
  43.7301830  32.0073040  38.7860340  42.3865450  31.9992270  38.0885720
  46.2707060  31.8374390  33.5852100  46.4657690  32.7357840  33.8519530
  45.4836930  31.6061470  34.0785050  33.0668350  47.5187560  34.0244720
  32.5415970  47.8995590  33.3206680  32.9912930  48.1438330  34.7454430
  34.4558820  33.1835160  32.6228410  34.9851580  32.3964960  32.4936360
  35.0887140  33.8626350  32.8563940  36.6496660  32.9210300  35.6773800
  36.0199400  32.2197610  35.8443930  36.1101800  33.6814430  35.4606960
  36.7752220  32.1994280  48.1126290  36.4936490  32.7027880  47.3487110
  37.1571920  31.4016030  47.7468420  35.6661320  49.4669940  32.8993970
  36.3980140  49.1829220  32.3517860  35.9254990  49.2283220  33.7893350
  34.8276110  45.5834670  32.9040300  34.1984990  46.0519770  33.4526130
  34.9423940  44.7383890  33.3386490  42.2825830  39.6340330  19.0541500
  42.2019880  38.7194940  18.7833210  41.8690250  40.1307400  18.3481210
  40.4143870  41.4119350  20.9350770  39.6385970  40.9319790  21.2249340
  41.0656800  40.7325000  20.7606930  34.4309700  41.7239160  21.8126530
  33.5994580  41.4687870  22.2123040  35.0390680  41.7949930  22.5484450
  44.4351300  45.8179540  19.7149900  43.9732830  45.0466780  20.0437070
  45.2476850  45.8445610  20.2202350  34.4110960  45.7579250  22.0084550
  34.7139000  44.8676990  21.8294770  35.1554550  46.3149470  21.7806800
  32.8401650  36.6841050  15.5968920  31.9518350  37.0257020  15.4948800
  33.1242840  36.4841370  14.7049750  30.8034660  39.2846700  21.4808620
  31.3750770  38.5168900  21.4812260  30.8036200  39.5835460  20.5715230
  40.6614610  48.1037550  19.3353890  40.0426050  48.5595050  18.7648330
  41.5166390  48.2589010  18.9343590  39.8552860  44.0876540  20.9420930
  39.7861140  43.1466480  20.7810060  40.6172720  44.1777950  21.5143500
  32.0459530  34.6931060  23.2677550  31.8662370  33.7956810  23.5480310
  31.6439610  35.2402930  23.9424500  40.8858030  36.8946920  21.1689860
  41.2622850  36.0218800  21.0563530  40.7877540  37.2305620  20.2780300
  35.0163040  35.2672550  16.6307300  35.1229790  36.1676280  16.9376060
  34.1055400  35.2190520  16.3401950  44.6682150  34.3897360  18.1018200
  45.4891770  33.8993930  18.1443680  44.7016230  34.9795020  18.8550040
  32.6646200  37.1891560  21.8759890  33.3456310  37.4529930  22.4947290
  32.3494250  36.3492430  22.2097900  36.8570770  38.2358920  20.9632480
  37.3648990  38.7339890  21.6037500  37.3884010  37.4594120  20.7871840
  48.9581700  36.4064110  24.6661830  48.2533870  36.7945820  24.1476940
  49.2239620  37.1014400  25.2682760  35.1406870  32.8757480  25.2295900
  35.1425310  33.3929870  24.4241800  34.3111180  32.3987660  25.2065830
  41.5277960  42.9876790  16.7285800  40.9095230  43.4526240  16.1648520
  42.0401210  43.6804270  17.1455310  36.3909720  42.5152660  23.4069400
  36.0579100  43.1421580  24.0490470  36.5676400  43.0414540  22.6271070
  44.9043630  36.3297740  20.8745740  44.1999200  36.6182630  21.4548850
  45.2655790  37.1397850  20.5145300  34.8222200  34.5867440  23.2366350
  35.1639010  35.4309490  22.9420220  33.8838010  34.7351180  23.3531690
  35.6028820  44.4833460  25.2218580  36.2202820  45.1584540  24.9403030
  34.7421940  44.8921440  25.1306080  30.8961160  43.6733320  14.1025430
  30.5189140  44.1620420  13.3710330  31.1534230  44.3458600  14.7331960
  46.5206410  45.9472870  23.1373220  45.8369930  46.6171980  23.1289890
  47.0600700  46.1453520  22.3718080  47.9730550  35.7752530  21.2654950
  47.0255460  35.8091510  21.3970380  48.2980540  36.5891480  21.6504310
  38.5050090  32.0749710  19.5610940  38.8125070  31.5196600  18.8446440
  37.5750790  32.2094170  19.3783930  44.0565150  47.7917000  21.8518400
  44.0692310  47.3879290  20.9840660  43.5040370  48.5664290  21.7479830
  45.3510570  44.5133220  16.9408570  45.2406900  43.5707550  17.0657990
  45.3478820  44.8748860  17.8271330  43.4550590  42.6946840  23.1801010
  43.8719380  42.4806950  22.3454470  44.1790410  42.9519630  23.7509630
  40.8930850  40.1398540  16.2971060  39.9660130  40.0735920  16.5259530
  41.0455670  41.0778670  16.1826300  40.8799930  36.4115540  13.2938220
  39.9403600  36.5729500  13.3790680  41.1983190  37.1301220  12.7474210
  47.4012690  41.0934060  23.2717250  46.5731320  41.1627150  22.7967380
  47.9963170  41.6788370  22.8033080  44.9228140  41.7018840  16.8006310
  44.3040560  41.3638390  16.1532610  44.9052590  41.0578600  17.5085500
  44.3654700  37.8803380  24.2172120  43.9525880  38.7057090  24.4712110
  43.6330650  37.2948420  24.0248480  36.4987490  40.6663280  19.0790790
  36.0944490  39.9540530  18.5836690  36.5850610  40.3216520  19.9678830
  36.9669190  44.3530840  21.2430000  36.6697480  43.7476310  20.5637780
  37.9169010  44.3908150  21.1319360  35.2116110  37.4406490  22.8589830
  35.7630700  37.5501830  22.0843080  35.7259620  37.8144090  23.5745060
  45.0554800  47.9262710  24.9053100  44.5785360  48.7334900  24.7125710
  44.3716590  47.2741040  25.0579310  36.0587620  44.0912530  27.8937800
  35.1616150  44.3152500  28.1411200  36.0840490  44.2147470  26.9449200
  43.0992840  40.9405650  13.8079060  43.5386120  40.1028080  13.6616880
  43.8121260  41.5735050  13.8943200  34.8858840  40.9625850  26.4695170
  34.7466610  41.8348650  26.8382570  34.0040200  40.6198660  26.3243110
  41.2088220  45.8801720  17.7760300  41.6484130  46.6226050  17.3615690
  41.1475110  46.1228290  18.6999260  36.6839190  46.9047550  28.6780320
  36.6554620  47.3090500  27.8108750  36.5204160  45.9757910  28.5151920
  46.6809980  32.1948460  12.1220100  46.3682640  32.2875290  13.0219170
  47.4422450  32.7729490  12.0717530  33.1992120  39.5608260  16.5797440
  33.0789720  40.2870350  15.9678710  32.8893010  38.7911170  16.1025350
  30.8377490  42.7323400  22.3866080  30.9157910  42.8672170  21.4421800
  31.4519170  42.0239290  22.5794200  32.0825120  44.4323590  18.7972260
  31.6753200  44.5738180  17.9425860  32.9738130  44.1483750  18.5943470
  41.9004000  48.5815500  25.7039310  42.4148670  48.4923510  26.5061740
  41.0573080  48.9275200  25.9967220  43.8758400  48.8670840  15.1323310
  43.7159540  48.5773780  16.0305140  43.7105110  48.0910970  14.5968540
  36.3546780  48.6469370  16.9094930  36.1789260  47.7304910  16.6962730
  35.5002520  49.0056660  17.1492730  43.5784530  46.3758400  13.6921310
  42.8849690  46.3735690  13.0323590  44.3207390  45.9517720  13.2615480
  43.1434460  48.0021110  17.7669800  43.5991410  47.2210490  18.0808420
  43.4826980  48.7127930  18.3110980  47.8911270  36.9319960  28.0994240
  47.2755540  37.4399630  27.5709700  47.5707690  36.0318290  28.0420180
  30.8937010  43.7737570  24.9260540  31.0568050  43.3042930  24.1079910
  31.3589460  43.2661130  25.5909380  35.6655780  32.9043330  19.9621110
  35.2223930  33.6852870  19.6305630  36.2240770  33.2273220  20.6692050
  39.9525590  35.7711850  25.5656430  39.4904960  35.9794870  26.3776370
  39.5503700  34.9571200  25.2627100  44.9530100  36.9920800  26.6953090
  44.1023690  36.6926550  27.0162160  44.7931890  37.2362810  25.7836910
  42.0479810  38.4922550  28.7951880  42.3733220  37.6586300  28.4554110
  42.8360140  39.0151070  28.9430210  38.7814600  32.5254030  14.8426940
  38.1568780  32.5213900  15.5680250  38.6944720  31.6584990  14.4462910
  37.7031680  33.4490660  21.8210710  38.0004010  34.3553490  21.7402730
  38.2517240  32.9609440  21.2070280  35.4570000  38.0276900  17.6902360
  35.2310920  37.8114070  18.5948980  34.6762530  38.4605360  17.3448330
  42.6867760  38.0340270  16.2893010  42.0876650  38.7576070  16.1056630
  43.2347370  37.9717050  15.5069460  37.8969210  38.9262480  28.3562630
  37.8012810  37.9857210  28.2063030  38.7401190  39.1477550  27.9610700
  41.2932630  36.6703810  18.3196290  41.6862200  36.9876010  17.5064980
  41.6549480  35.7915690  18.4340810  33.0279750  35.3376150  26.5096410
  32.6343140  36.1851360  26.7169190  32.3398150  34.7002520  26.7005050
  39.6024800  35.4211120  29.5793150  38.9123120  35.2283320  30.2139240
  40.3457100  35.7045760  30.1117450  30.3296800  33.2604610  20.5426490
  30.0409850  33.8307470  21.2551470  31.0742560  32.7809060  20.9057720
  30.5167030  37.2024730  11.7529210  30.4341700  38.1455490  11.8944200
  30.1650090  37.0599640  10.8741560  41.8787770  39.2609560  22.4147070
  41.1468890  39.7696370  22.7637170  41.4812110  38.4439540  22.1135850
  38.3165160  35.9363760  20.8199560  38.3201220  35.4953710  19.9704100
  39.2116280  36.2581090  20.9271380  34.1667540  35.8190250  19.7793770
  33.8267590  36.2965480  20.5360820  33.4044860  35.3655370  19.4194870
  38.3785310  36.9375840  13.8106320  38.4998130  36.8962320  14.7592140
  37.9933820  37.7999990  13.6553050  42.3413680  34.7143240  21.8270010
  42.3586420  35.1651890  22.6711860  42.0929260  33.8148880  22.0403450
  37.3906810  39.2476980  13.2089620  36.8223710  38.7995230  12.5825530
  38.0995810  39.6069760  12.6754770  45.7684430  32.1275420  27.6656390
  46.0930200  31.3965080  28.1914370  45.8040940  31.8089060  26.7637380
  32.4675990  43.1489000  27.0856350  32.0830780  42.5082670  27.6839310
  32.7788180  43.8525120  27.6551080  38.6173130  39.9965540  22.5664970
  38.9843260  39.5224110  23.3126310  38.4278190  40.8707110  22.9073310
  31.4813620  34.7409230  18.6958440  31.1960540  34.3764900  19.5337060
  31.4192480  34.0089690  18.0821580  36.4072500  39.0374180  24.8849180
  36.1029570  39.9166160  25.1099540  37.3618960  39.0973970  24.9206620
  34.9354290  43.2435170  15.4816030  34.1616550  42.7032790  15.3214750
  35.6648920  42.7241780  15.1433790  45.6942270  42.2400530  21.2742420
  46.4141390  42.7355820  20.8838530  45.4924090  41.5618420  20.6296290
  41.1552210  33.6338490  15.4171810  40.3416820  33.1351660  15.3417120
  40.9614160  34.4736740  15.0008160  41.0761070  42.3109590  27.1611420
  41.0098380  41.3905260  26.9069010  40.4466210  42.4085030  27.8756060
  43.8700600  38.0058140  13.7133970  44.7580220  38.3175370  13.5385310
  43.8405690  37.1330390  13.3214550  34.9791690  42.9115550  19.1194840
  35.4970360  42.1083810  19.0651730  34.5275710  42.8494690  19.9611670
  39.8661190  44.1781830  14.3922140  40.2076890  44.9224060  13.8965460
  39.0373900  44.4912950  14.7546970  32.4636230  39.8776920  26.0320540
  32.1051170  40.5430770  26.6193880  32.1690790  39.0460470  26.4033160
  35.6649350  40.3361160  28.9160090  35.3649490  40.4818340  28.0187910
  36.4360590  39.7766450  28.8233480  41.0077800  45.1330160  26.9115220
  41.0222340  44.2011120  26.6934130  40.3002900  45.2189920  27.5504990
  46.1414870  39.3169980  13.1813830  46.0578590  39.7484200  12.3310270
  46.8609060  39.7768330  13.6140650  47.2189010  41.7737500  26.2583800
  46.4937200  42.3666280  26.0613190  47.7464470  41.7661040  25.4597170
  47.1702120  46.1712240  15.9095960  46.5278280  45.5167860  16.1839680
  46.7832780  46.5767330  15.1336630  42.7488600  43.4997670  19.7567650
  43.1012420  42.9025800  19.0969020  41.8650930  43.1741900  19.9275900
  38.8351880  44.2595360  17.1638060  39.5223010  44.8064570  17.5445650
  38.0484300  44.8036090  17.1987670  30.9744280  39.8768180  12.6555140
  31.8439130  40.1592980  12.9391060  30.4834600  40.6904050  12.5403950
  38.1379090  41.2641390  16.7763420  38.5941870  42.0746640  17.0023610
  37.7867300  40.9464530  17.6081910  40.4411700  46.7747730  24.0055720
  41.0853920  46.9807110  24.6829140  40.8041140  46.0136130  23.5526570
  34.0390870  31.6079040  17.2485940  33.9105500  31.5996940  18.1970860
  33.2152890  31.9462130  16.8976950  41.7143780  44.7780080  22.7233170
  42.3566010  44.0773240  22.8365340  42.2393130  45.5578520  22.5430060
  45.5599500  45.0628700  12.4472310  45.3337080  44.3459140  13.0396950
  45.1695700  44.8141140  11.6094060  43.4881400  45.5774980  25.9269230
  43.8237640  46.1641670  26.6047150  42.5681740  45.4467690  26.1567020
  31.3415530  49.0895560  13.2216770  31.7013170  49.6884900  12.5674040
  31.2007870  49.6355450  13.9951800  31.0384800  33.3670160  26.7092640
  30.3243320  33.5667080  27.3145250  31.4579840  32.5909730  27.0807440
  45.1415750  42.9800640  14.1086470  44.8537450  43.4413330  14.8964350
  45.9367920  42.5198410  14.3770690  31.3257390  47.3550420  27.6959170
  31.4348510  46.4145160  27.5554560  30.6737950  47.6205170  27.0472900
  39.3169980  45.6266310  29.0957290  38.9966850  44.9075550  29.6402980
  38.6428340  46.3021380  29.1693350  37.3584150  46.4726760  14.0390440
  37.3494250  47.2056450  13.4234950  36.4382510  46.2258340  14.1317400
  32.9590790  41.6941650  14.7837200  32.3518740  42.4340550  14.7932500
  33.4340140  41.7841010  13.9575400  42.5323580  35.8592470  24.4594090
  42.9004400  35.0387680  24.7873660  41.6721780  35.9194360  24.8749740
  45.8985610  34.8149410  15.2681650  45.2698770  34.9195080  14.5539880
  45.4037530  35.0346190  16.0575530  40.3443750  46.5355000  12.7015630
  40.4455730  46.3318990  11.7717610  39.4445490  46.2813280  12.9063410
  37.8669640  37.0935360  16.6839530  37.1585790  37.5621700  17.1253140
  38.1514120  36.4357370  17.3184720  39.4925570  38.5132060  24.6832060
  39.9910820  38.9877880  25.3483910  39.6348520  37.5895580  24.8902090
  41.8985070  33.8186020  18.1235320  41.7752850  33.8372150  17.1744830
  42.8469630  33.8664960  18.2433720  38.9861860  49.0541320  17.3963300
  39.2403360  49.0162710  16.4742670  38.0374340  48.9274650  17.3891550
  36.0704660  35.4020440  14.0590240  36.9195190  35.8390590  13.9930430
  35.7035930  35.7140700  14.8862300  46.6992430  34.7300020  25.5260450
  46.1966030  35.4705420  25.8654260  47.5149090  35.1184020  25.2097240
  44.9914440  39.9733200  18.9721810  44.0504580  39.9883430  19.1469500
  45.3058510  39.1869160  19.4182110  34.9696080  41.6552800  12.5325770
  35.7359350  41.5434160  13.0951200  35.0470770  40.9590770  11.8802540
  33.6642840  39.0877870  13.2158660  33.7446430  38.1405380  13.3276060
  34.5562590  39.4184750  13.3219320  46.9940020  47.1442050  20.6476070
  47.1187440  47.9673220  21.1199880  47.8605580  46.9332780  20.3000220
  34.4657550  49.2373260  20.3193200  35.2020030  48.6888720  20.5901770
  34.8498470  50.1029270  20.1799190  31.3503030  45.3046830  16.1934710
  30.4242810  45.5467970  16.1840120  31.8159460  46.1321090  16.0719460
  33.4715830  48.4219330  29.5078780  34.2728560  48.7431380  29.9214180
  32.9567650  48.0614910  30.2298690  37.5759860  48.4103570  12.1418770
  38.3688470  48.6992400  11.6900560  37.0564210  47.9795740  11.4631250
  42.3080460  44.5299200  29.4554190  41.7018620  44.5530800  28.7149940
  42.0034570  43.7982240  29.9921440  43.7380830  48.2579490  28.0663600
  44.6902580  48.1737510  28.0163840  43.5909050  48.9221200  28.7397390
  46.6290030  47.6373700  13.5655510  46.3431540  47.2238840  12.7509690
  46.4309580  48.5661410  13.4456030  31.1913640  40.9092790  28.4514830
  31.6952660  40.3300070  29.0231060  30.4521060  41.1933020  28.9891200
  38.0937260  43.6306980  12.0061120  37.9887900  43.0159330  12.7322500
  37.9261480  43.1072870  11.2224130  38.2451580  42.3163780  27.9850350
  37.4797250  42.8848780  27.9005020  38.4267540  42.0239990  27.0918580
  41.3339990  42.6927010  12.6103110  40.7850090  43.1396310  13.2545850
  41.9559250  42.1876260  13.1340780  45.3874930  44.0469110  28.5425370
  46.1284400  44.3844870  28.0392830  44.6247610  44.2161170  27.9895140
  33.2236720  39.0522380  29.3464900  33.2642060  38.7536250  30.2550130
  34.0782220  39.4529990  29.1872420  37.0015110  41.6517930  14.5068410
  37.4231530  41.4857800  15.3499800  37.1265950  40.8418160  14.0123550
  35.1642530  37.6314480  27.3139390  34.6338990  37.1405430  26.6862730
  35.8330600  38.0598680  26.7797320  39.5142750  40.6755540  11.7545510
  40.0348410  39.9604560  11.3886660  40.1611150  41.3141410  12.0546020
  44.0620590  42.0983940  27.0780580  44.4761610  42.2529020  27.9271000
  43.1271590  42.2239160  27.2406360  44.5342760  39.4380100  29.0819730
  45.1163530  38.6832420  28.9940210  44.7104530  39.9687540  28.3051210
  35.6514830  34.5976850  27.3936680  35.5571700  33.9797600  26.6687550
  35.0712220  35.3243140  27.1666590  38.4176270  33.1550090  24.4264070
  37.9693570  33.1774350  23.5809620  37.7841470  32.7569110  25.0234370
  38.8235820  42.0504420  25.0476510  39.2423930  42.8937150  24.8752750
  37.9044450  42.1876460  24.8183290  41.1599720  39.7820600  26.4314350
  41.2795930  39.1861740  27.1709190  42.0193720  39.8190290  26.0115650
  43.4987620  40.3357790  25.0076860  42.9722840  40.8600410  24.4042000
  43.8418960  40.9685180  25.6386590  35.8974010  37.7251160  11.4526570
  35.6963070  36.8618520  11.8139910  35.7266060  37.6384520  10.5148170
  36.6743240  48.3557430  26.1634240  36.1364330  49.0803490  25.8442940
  36.9277200  47.8787770  25.3731580  37.9268490  36.3241950  27.6890170
  38.5168180  36.0157800  28.3767990  37.1088730  35.8521700  27.8450070
  42.7461920  35.9407760  27.9223190  42.0577440  35.2789300  27.8573180
  43.4667940  35.4946030  28.3671650  43.3762320  32.5359390  13.9813450
  43.6564610  31.6927290  14.3372870  42.6028050  32.7682500  14.4952200
  34.6956810  34.8251780  11.4404450  34.9982710  34.8319210  10.5323600
  35.4351400  34.4749640  11.9372110  39.5305450  49.5908640  26.4220890
  39.4564150  50.4943780  26.7293260  38.6284290  49.2720540  26.3942960
  37.9141740  33.7686400  12.4260650  37.5663740  33.0910390  11.8463100
  38.1154510  33.3075910  13.2404040  40.0790780  48.7567150  14.0447250
  40.9741570  49.0952120  14.0666010  40.1108410  48.0346560  13.4171530
  33.7186940  44.1294200  12.2734250  34.1561810  44.6723870  12.9291830
  34.2034670  43.3041150  12.2830590  30.9332740  46.9183230  19.7254510
  31.2635750  46.0504290  19.4933150  31.3623740  47.1241750  20.5559470
  35.5294660  45.2492240  17.3856480  35.2290200  45.1257210  18.2860390
  35.4232150  44.3900830  16.9772210  31.4222950  47.7853820  22.4636140
  30.9853940  47.9654620  23.2960290  31.9900630  48.5428440  22.3217860
  47.0585130  47.2870820  26.7513450  46.4587120  47.3463380  26.0077370
  47.1879030  46.3475800  26.8810300  48.2986580  45.0288640  12.0883160
  47.4679540  45.0965290  12.5590390  48.4758410  45.9192760  11.7850020
  47.7543040  41.7736120  14.5917360  48.5161950  42.3432770  14.6977050
  47.7697410  41.2063320  15.3625670  31.2547380  40.2974050  18.8225020
  30.5996220  40.0285690  18.1784720  32.0925330  40.1878530  18.3727000
  48.7603010  42.6286220  19.4359290  49.1311840  41.8453540  19.0295260
  49.4004940  43.3175320  19.2576590  45.7436770  44.0122800  24.8489610
  44.9296610  44.4419960  25.1115400  46.1510970  44.6241210  24.2358660
  47.8062210  42.0670490  11.7489880  48.0811050  42.9749370  11.6209100
  47.6172950  42.0033020  12.6851870  44.2037820  35.0915340  13.0443510
  44.6222700  34.9046320  12.2040170  43.8973880  34.2394390  13.3546440
  47.7027550  40.0039480  16.7419310  47.3271150  39.2367410  16.3100600
  46.9730670  40.3862180  17.2294240  32.2923310  40.6826620  23.3628360
  32.6596350  40.5954020  24.2424380  31.7234130  39.9193170  23.2635220
  47.0927170  39.1511000  26.3758830  46.8613260  38.9223750  25.4756780
  47.3531720  40.0710550  26.3303720  31.8439310  37.5935710  27.2686780
  30.9495360  37.5602470  27.6080490  32.3836860  37.7922500  28.0338030
  45.5315240  34.3767430  29.1538530  46.4085420  34.3850830  29.5372530
  45.5436080  33.6398270  28.5430880  30.4685460  37.5072980  14.7650350
  29.5649540  37.7703180  14.5902010  30.9526080  37.7784150  13.9850310
  46.9778510  38.2296970  20.0426550  47.5015990  37.7359620  19.4116720
  47.5637930  38.3647330  20.7874120  47.1568230  38.3136840  23.5646100
  46.2070940  38.2800380  23.6791090  47.3381240  39.2236950  23.3295870
  33.0112670  36.5638520  12.6744730  33.7204370  36.1421740  12.1892010
  32.2952610  36.6313750  12.0428080  32.6586830  32.6177850  11.7147380
  33.3814960  33.1586790  12.0328600  32.9311350  32.3441270  10.8388920
  46.4678480  37.4870320  15.9818960  46.9637600  37.2541190  16.7667840
  46.2694550  36.6482160  15.5656600  32.3479020  31.8684040  21.6170000
  32.9955210  31.3181420  21.1765160  32.7680860  32.1227190  22.4385810
  47.8965640  36.1231270  18.5156640  47.7864920  35.9687310  19.4538910
  48.6573230  35.5952210  18.2732050  46.2431360  32.0625400  24.9739640
  46.8803580  32.6759540  25.3398830  46.3906250  32.0986060  24.0288870
  48.7855910  33.9539190  11.7562780  49.7105220  33.8220370  11.5481070
  48.7631700  34.0332010  12.7099230  48.8594400  34.7249850  14.3819490
  48.0645900  34.6594970  14.9112400  49.0637680  35.6600490  14.3704840
  45.8012820  48.7641400  18.3757880  46.3971890  48.4425970  17.6992300
  46.0590970  48.2913220  19.1671150  32.1011020  32.0239710  24.3595320
  31.7525840  32.4803530  25.1253500  31.7698720  31.1296840  24.4417750
  33.7075390  45.1959310  28.5248510  33.6645020  44.8252220  29.4062970
  33.8386400  46.1336880  28.6650330  37.4081420  46.7518900  24.1258230
  37.1672780  47.0193460  23.2388750  38.3484060  46.9224630  24.1809090
  39.6135840  33.2151590  27.8814740  39.5524730  33.8073420  28.6310150
  40.5536220  33.1077550  27.7365000  42.2510400  32.8721650  27.5207030
  42.8650810  33.1900940  26.8588110  42.7959960  32.3870240  28.1402890
  48.6685580  48.7713280  24.9268870  48.1743860  49.1682150  24.2096000
  48.0598870  48.1462490  25.3206150  32.7731660  31.5515910  27.6346090
  33.3214650  31.3703960  26.8712200  32.8386970  30.7610020  28.1702400
  33.5463420  48.1421560  25.6446290  32.9523740  48.0106260  26.3836330
  33.5387260  47.3059700  25.1788390  42.9918440  31.4353790  23.8476320
  42.1178280  31.7688900  23.6449250  42.8829190  30.9626970  24.6728190
  43.8990420  33.6424660  25.2318040  43.5703780  32.8276420  24.8519770
  44.8472720  33.5994470  25.1083730  46.3525030  49.4136700  22.2055610
  45.8928000  50.1652510  21.8313630  45.7237490  48.6943170  22.1470410
  33.1775650  45.5079940  24.5954330  32.4509710  44.8885230  24.5280280
  33.2384800  45.9020550  23.7252410  36.7820750  47.7224940  21.3803740
  37.2985770  47.1112300  20.8552000  37.4318130  48.2253720  21.8714750
  39.5216250  48.6133430  22.2072720  39.8094060  48.3587730  21.3305730
  40.0339470  48.0610790  22.7978290  40.7393260  32.3523630  22.7869230
  39.9565050  32.8269130  23.0665990  40.4456190  31.4478460  22.6782410
  45.2914330  33.0546730  20.8318320  45.7322420  32.9991830  19.9839920
  45.0221920  33.9704740  20.9028500  47.1552900  32.6861970  18.8427140
  47.0941300  31.7423190  18.6958160  47.9344930  32.7942060  19.3880600
  31.4605650  48.8254330  17.8051090  31.2927690  48.1925010  18.5032980
  30.5940160  49.0313730  17.4545280  32.0833670  32.6571110  15.3082950
  32.8413030  32.7699990  14.7346980  31.6210840  33.4940310  15.2626380
  38.6247480  34.7710380  18.2985260  37.8121990  34.3967270  17.9581140
  39.1289120  34.0155460  18.6006450  43.1272460  31.4352830  19.5368330
  43.7301830  32.0073040  20.0116850  42.3865450  31.9992270  19.3142230
  46.2707060  31.8374390  14.8108610  46.4657690  32.7357840  15.0776040
  45.4836930  31.6061470  15.3041560  33.0668350  47.5187560  15.2501230
  32.5415970  47.8995590  14.5463190  32.9912930  48.1438330  15.9710940
  34.4558820  33.1835160  13.8484920  34.9851580  32.3964960  13.7192870
  35.0887140  33.8626350  14.0820450  36.6496660  32.9210300  16.9030310
  36.0199400  32.2197610  17.0700440  36.1101800  33.6814430  16.6863470
  39.5888610  49.5349530  29.5740920  40.5155920  49.2993800  29.6176880
  39.5739040  50.3621530  29.0926950  47.8233670  49.0775100  16.5715170
  47.9985860  48.3912840  15.9276090  47.1255240  49.6022150  16.1791840
  36.7752220  32.1994280  29.3382800  36.4936490  32.7027880  28.5743620
  37.1571920  31.4016030  28.9724930  35.6661320  49.4669940  14.1250480
  36.3980140  49.1829220  13.5774370  35.9254990  49.2283220  15.0149860
  34.8276110  45.5834670  14.1296810  34.1984990  46.0519770  14.6782640
  34.9423940  44.7383890  14.5643000  43.3767680  31.6147860  29.9163270
  43.2633130  31.9342470  30.8114790  44.1937420  32.0160370  29.6200550
  46.1566170  48.7619390  29.3981960  46.9491490  48.2668620  29.1907920
  46.4499320  49.4409530  30.0057570  40.4143870  41.4119350   2.1607280
  39.6385970  40.9319790   2.4505850  41.0656800  40.7325000   1.9863440
  34.4309700  41.7239160   3.0383040  33.5994580  41.4687870   3.4379550
  35.0390680  41.7949930   3.7740960  34.4110960  45.7579250   3.2341060
  34.7139000  44.8676990   3.0551280  35.1554550  46.3149470   3.0063310
  30.8034660  39.2846700   2.7065130  31.3750770  38.5168900   2.7068770
  30.8036200  39.5835460   1.7971740  39.8552860  44.0876540   2.1677440
  39.7861140  43.1466480   2.0066570  40.6172720  44.1777950   2.7400010
  32.0459530  34.6931060   4.4934060  31.8662370  33.7956810   4.7736820
  31.6439610  35.2402930   5.1681010  32.6646200  37.1891560   3.1016400
  33.3456310  37.4529930   3.7203800  32.3494250  36.3492430   3.4354410
  36.8570770  38.2358920   2.1888990  37.3648990  38.7339890   2.8294010
  37.3884010  37.4594120   2.0128350  48.9581700  36.4064110   5.8918340
  48.2533870  36.7945820   5.3733450  49.2239620  37.1014400   6.4939270
  35.1406870  32.8757480   6.4552410  35.1425310  33.3929870   5.6498310
  34.3111180  32.3987660   6.4322340  36.3909720  42.5152660   4.6325910
  36.0579100  43.1421580   5.2746980  36.5676400  43.0414540   3.8527580
  44.9043630  36.3297740   2.1002250  44.1999200  36.6182630   2.6805360
  45.2655790  37.1397850   1.7401810  34.8222200  34.5867440   4.4622860
  35.1639010  35.4309490   4.1676730  33.8838010  34.7351180   4.5788200
  35.6028820  44.4833460   6.4475090  36.2202820  45.1584540   6.1659540
  34.7421940  44.8921440   6.3562590  46.5206410  45.9472870   4.3629730
  45.8369930  46.6171980   4.3546400  47.0600700  46.1453520   3.5974590
  47.9730550  35.7752530   2.4911460  47.0255460  35.8091510   2.6226890
  48.2980540  36.5891480   2.8760820  44.0565150  47.7917000   3.0774910
  44.0692310  47.3879290   2.2097170  43.5040370  48.5664290   2.9736340
  43.4550590  42.6946840   4.4057520  43.8719380  42.4806950   3.5710980
  44.1790410  42.9519630   4.9766140  47.4012690  41.0934060   4.4973760
  46.5731320  41.1627150   4.0223890  47.9963170  41.6788370   4.0289590
  44.3654700  37.8803380   5.4428630  43.9525880  38.7057090   5.6968620
  43.6330650  37.2948420   5.2504990  36.9669190  44.3530840   2.4686510
  36.6697480  43.7476310   1.7894290  37.9169010  44.3908150   2.3575870
  35.2116110  37.4406490   4.0846340  35.7630700  37.5501830   3.3099590
  35.7259620  37.8144090   4.8001570  45.0554800  47.9262710   6.1309610
  44.5785360  48.7334900   5.9382220  44.3716590  47.2741040   6.2835820
  36.0587620  44.0912530   9.1194310  35.1616150  44.3152500   9.3667710
  36.0840490  44.2147470   8.1705710  34.8858840  40.9625850   7.6951680
  34.7466610  41.8348650   8.0639080  34.0040200  40.6198660   7.5499620
  36.6839190  46.9047550   9.9036830  36.6554620  47.3090500   9.0365260
  36.5204160  45.9757910   9.7408430  48.6354010  47.6874650  11.2001000
  49.1113730  48.1657540  11.8790080  49.2561170  47.6192140  10.4746500
  30.8377490  42.7323400   3.6122590  30.9157910  42.8672170   2.6678310
  31.4519170  42.0239290   3.8050710  48.0387260  44.8787500   8.3601010
  48.1650320  44.6399380   7.4418190  48.0808640  44.0472040   8.8323090
  41.9004000  48.5815500   6.9295820  42.4148670  48.4923510   7.7318250
  41.0573080  48.9275200   7.2223730  47.8911270  36.9319960   9.3250750
  47.2755540  37.4399630   8.7966210  47.5707690  36.0318290   9.2676690
  30.8937010  43.7737570   6.1517050  31.0568050  43.3042930   5.3336420
  31.3589460  43.2661130   6.8165890  39.9525590  35.7711850   6.7912940
  39.4904960  35.9794870   7.6032880  39.5503700  34.9571200   6.4883610
  44.9530100  36.9920800   7.9209600  44.1023690  36.6926550   8.2418670
  44.7931890  37.2362810   7.0093420  42.0479810  38.4922550  10.0208390
  42.3733220  37.6586300   9.6810620  42.8360140  39.0151070  10.1686720
  37.7031680  33.4490660   3.0467220  38.0004010  34.3553490   2.9659240
  38.2517240  32.9609440   2.4326790  37.8969210  38.9262480   9.5819140
  37.8012810  37.9857210   9.4319540  38.7401190  39.1477550   9.1867210
  33.0279750  35.3376150   7.7352920  32.6343140  36.1851360   7.9425700
  32.3398150  34.7002520   7.9261560  39.6024800  35.4211120  10.8049660
  38.9123120  35.2283320  11.4395750  40.3457100  35.7045760  11.3373960
  30.3296800  33.2604610   1.7683000  30.0409850  33.8307470   2.4807980
  31.0742560  32.7809060   2.1314230  41.8787770  39.2609560   3.6403580
  41.1468890  39.7696370   3.9893680  41.4812110  38.4439540   3.3392360
  42.3413680  34.7143240   3.0526520  42.3586420  35.1651890   3.8968370
  42.0929260  33.8148880   3.2659960  45.7684430  32.1275420   8.8912900
  46.0930200  31.3965080   9.4170880  45.8040940  31.8089060   7.9893890
  32.4675990  43.1489000   8.3112860  32.0830780  42.5082670   8.9095820
  32.7788180  43.8525120   8.8807590  38.6173130  39.9965540   3.7921480
  38.9843260  39.5224110   4.5382820  38.4278190  40.8707110   4.1329820
  36.4072500  39.0374180   6.1105690  36.1029570  39.9166160   6.3356050
  37.3618960  39.0973970   6.1463130  45.6942270  42.2400530   2.4998930
  46.4141390  42.7355820   2.1095040  45.4924090  41.5618420   1.8552800
  41.0761070  42.3109590   8.3867930  41.0098380  41.3905260   8.1325520
  40.4466210  42.4085030   9.1012570  32.4636230  39.8776920   7.2577050
  32.1051170  40.5430770   7.8450390  32.1690790  39.0460470   7.6289670
  35.6649350  40.3361160  10.1416600  35.3649490  40.4818340   9.2444420
  36.4360590  39.7766450  10.0489990  41.0077800  45.1330160   8.1371730
  41.0222340  44.2011120   7.9190640  40.3002900  45.2189920   8.7761500
  47.2189010  41.7737500   7.4840310  46.4937200  42.3666280   7.2869700
  47.7464470  41.7661040   6.6853680  40.4411700  46.7747730   5.2312230
  41.0853920  46.9807110   5.9085650  40.8041140  46.0136130   4.7783080
  41.7143780  44.7780080   3.9489680  42.3566010  44.0773240   4.0621850
  42.2393130  45.5578520   3.7686570  43.4881400  45.5774980   7.1525740
  43.8237640  46.1641670   7.8303660  42.5681740  45.4467690   7.3823530
  31.0384800  33.3670160   7.9349150  30.3243320  33.5667080   8.5401760
  31.4579840  32.5909730   8.3063950  31.3257390  47.3550420   8.9215680
  31.4348510  46.4145160   8.7811070  30.6737950  47.6205170   8.2729410
  39.3169980  45.6266310  10.3213800  38.9966850  44.9075550  10.8659490
  38.6428340  46.3021380  10.3949860  42.5323580  35.8592470   5.6850600
  42.9004400  35.0387680   6.0130170  41.6721780  35.9194360   6.1006250
  39.4925570  38.5132060   5.9088570  39.9910820  38.9877880   6.5740420
  39.6348520  37.5895580   6.1158600  46.6992430  34.7300020   6.7516960
  46.1966030  35.4705420   7.0910770  47.5149090  35.1184020   6.4353750
  33.4715830  48.4219330  10.7335290  34.2728560  48.7431380  11.1470690
  32.9567650  48.0614910  11.4555200  42.3080460  44.5299200  10.6810700
  41.7018620  44.5530800   9.9406450  42.0034570  43.7982240  11.2177950
  43.7380830  48.2579490   9.2920110  44.6902580  48.1737510   9.2420350
  43.5909050  48.9221200   9.9653900  31.1913640  40.9092790   9.6771340
  31.6952660  40.3300070  10.2487570  30.4521060  41.1933020  10.2147710
  38.2451580  42.3163780   9.2106860  37.4797250  42.8848780   9.1261530
  38.4267540  42.0239990   8.3175090  45.3874930  44.0469110   9.7681880
  46.1284400  44.3844870   9.2649340  44.6247610  44.2161170   9.2151650
  33.2236720  39.0522380  10.5721410  33.2642060  38.7536250  11.4806640
  34.0782220  39.4529990  10.4128930  35.1642530  37.6314480   8.5395900
  34.6338990  37.1405430   7.9119240  35.8330600  38.0598680   8.0053830
  44.0620590  42.0983940   8.3037090  44.4761610  42.2529020   9.1527510
  43.1271590  42.2239160   8.4662870  44.5342760  39.4380100  10.3076240
  45.1163530  38.6832420  10.2196720  44.7104530  39.9687540   9.5307720
  35.6514830  34.5976850   8.6193190  35.5571700  33.9797600   7.8944060
  35.0712220  35.3243140   8.3923100  38.4176270  33.1550090   5.6520580
  37.9693570  33.1774350   4.8066130  37.7841470  32.7569110   6.2490880
  38.8235820  42.0504420   6.2733020  39.2423930  42.8937150   6.1009260
  37.9044450  42.1876460   6.0439800  41.1599720  39.7820600   7.6570860
  41.2795930  39.1861740   8.3965700  42.0193720  39.8190290   7.2372160
  43.4987620  40.3357790   6.2333370  42.9722840  40.8600410   5.6298510
  43.8418960  40.9685180   6.8643100  36.6743240  48.3557430   7.3890750
  36.1364330  49.0803490   7.0699450  36.9277200  47.8787770   6.5988090
  37.9268490  36.3241950   8.9146680  38.5168180  36.0157800   9.6024500
  37.1088730  35.8521700   9.0706580  42.7461920  35.9407760   9.1479700
  42.0577440  35.2789300   9.0829690  43.4667940  35.4946030   9.5928160
  39.5305450  49.5908640   7.6477400  39.4564150  50.4943780   7.9549770
  38.6284290  49.2720540   7.6199470  31.4222950  47.7853820   3.6892650
  30.9853940  47.9654620   4.5216800  31.9900630  48.5428440   3.5474370
  47.0585130  47.2870820   7.9769960  46.4587120  47.3463380   7.2333880
  47.1879030  46.3475800   8.1066810  45.7436770  44.0122800   6.0746120
  44.9296610  44.4419960   6.3371910  46.1510970  44.6241210   5.4615170
  32.2923310  40.6826620   4.5884870  32.6596350  40.5954020   5.4680890
  31.7234130  39.9193170   4.4891730  47.0927170  39.1511000   7.6015340
  46.8613260  38.9223750   6.7013290  47.3531720  40.0710550   7.5560230
  31.8439310  37.5935710   8.4943290  30.9495360  37.5602470   8.8337000
  32.3836860  37.7922500   9.2594540  45.5315240  34.3767430  10.3795040
  46.4085420  34.3850830  10.7629040  45.5436080  33.6398270   9.7687390
  47.1568230  38.3136840   4.7902610  46.2070940  38.2800380   4.9047600
  47.3381240  39.2236950   4.5552380  32.3479020  31.8684040   2.8426510
  32.9955210  31.3181420   2.4021670  32.7680860  32.1227190   3.6642320
  46.2431360  32.0625400   6.1996150  46.8803580  32.6759540   6.5655340
  46.3906250  32.0986060   5.2545380  32.1011020  32.0239710   5.5851830
  31.7525840  32.4803530   6.3510010  31.7698720  31.1296840   5.6674260
  33.7075390  45.1959310   9.7505020  33.6645020  44.8252220  10.6319480
  33.8386400  46.1336880   9.8906840  37.4081420  46.7518900   5.3514740
  37.1672780  47.0193460   4.4645260  38.3484060  46.9224630   5.4065600
  39.6135840  33.2151590   9.1071250  39.5524730  33.8073420   9.8566660
  40.5536220  33.1077550   8.9621510  42.2510400  32.8721650   8.7463540
  42.8650810  33.1900940   8.0844620  42.7959960  32.3870240   9.3659400
  48.6685580  48.7713280   6.1525380  48.1743860  49.1682150   5.4352510
  48.0598870  48.1462490   6.5462660  32.7731660  31.5515910   8.8602600
  33.3214650  31.3703960   8.0968710  32.8386970  30.7610020   9.3958910
  33.5463420  48.1421560   6.8702800  32.9523740  48.0106260   7.6092840
  33.5387260  47.3059700   6.4044900  42.9918440  31.4353790   5.0732830
  42.1178280  31.7688900   4.8705760  42.8829190  30.9626970   5.8984700
  43.8990420  33.6424660   6.4574550  43.5703780  32.8276420   6.0776280
  44.8472720  33.5994470   6.3340240  46.3525030  49.4136700   3.4312120
  45.8928000  50.1652510   3.0570140  45.7237490  48.6943170   3.3726920
  33.1775650  45.5079940   5.8210840  32.4509710  44.8885230   5.7536790
  33.2384800  45.9020550   4.9508920  36.7820750  47.7224940   2.6060250
  37.2985770  47.1112300   2.0808510  37.4318130  48.2253720   3.0971260
  39.5216250  48.6133430   3.4329230  39.8094060  48.3587730   2.5562240
  40.0339470  48.0610790   4.0234800  40.7393260  32.3523630   4.0125740
  39.9565050  32.8269130   4.2922500  40.4456190  31.4478460   3.9038920
  39.5888610  49.5349530  10.7997430  40.5155920  49.2993800  10.8433390
  39.5739040  50.3621530  10.3183460  36.7752220  32.1994280  10.5639310
  36.4936490  32.7027880   9.8000130  37.1571920  31.4016030  10.1981440
  43.3767680  31.6147860  11.1419780  43.2633130  31.9342470  12.0371300
  44.1937420  32.0160370  10.8457060  46.1566170  48.7619390  10.6238470
  46.9491490  48.2668620  10.4164430  46.4499320  49.4409530  11.2314080
  42.2825830  20.8596840 150.4745930  42.2019880  19.9451450 150.2037640
  41.8690250  21.3563910 149.7685640  44.4351300  27.0436050 151.1354330
  43.9732830  26.2723290 151.4641500  45.2476850  27.0702120 151.6406780
  32.8401650  17.9097560 147.0173350  31.9518350  18.2513530 146.9153230
  33.1242840  17.7097880 146.1254180  40.6614610  29.3294060 150.7558320
  40.0426050  29.7851560 150.1852760  41.5166390  29.4845520 150.3548020
  35.0163040  16.4929060 148.0511730  35.1229790  17.3932790 148.3580490
  34.1055400  16.4447030 147.7606380  44.6682150  15.6153870 149.5222630
  45.4891770  15.1250440 149.5648110  44.7016230  16.2051530 150.2754470
  41.5277960  24.2133300 148.1490230  40.9095230  24.6782750 147.5852950
  42.0401210  24.9060780 148.5659740  30.8961160  24.8989830 145.5229860
  30.5189140  25.3876930 144.7914760  31.1534230  25.5715110 146.1536390
  38.5050090  13.3006220 150.9815370  38.8125070  12.7453110 150.2650870
  37.5750790  13.4350680 150.7988360  45.3510570  25.7389730 148.3613000
  45.2406900  24.7964060 148.4862420  45.3478820  26.1005370 149.2475760
  40.8930850  21.3655050 147.7175490  39.9660130  21.2992430 147.9463960
  41.0455670  22.3035180 147.6030730  40.8799930  17.6372050 144.7142650
  39.9403600  17.7986010 144.7995110  41.1983190  18.3557730 144.1678640
  44.9228140  22.9275350 148.2210740  44.3040560  22.5894900 147.5737040
  44.9052590  22.2835110 148.9289930  36.4987490  21.8919790 150.4995220
  36.0944490  21.1797040 150.0041120  36.5850610  21.5473030 151.3883260
  43.0992840  22.1662160 145.2283490  43.5386120  21.3284590 145.0821310
  43.8121260  22.7991560 145.3147630  41.2088220  27.1058230 149.1964730
  41.6484130  27.8482560 148.7820120  41.1475110  27.3484800 150.1203690
  46.6809980  13.4204970 143.5424530  46.3682640  13.5131800 144.4423600
  47.4422450  13.9986000 143.4921960  33.1992120  20.7864770 148.0001870
  33.0789720  21.5126860 147.3883140  32.8893010  20.0167680 147.5229780
  32.0825120  25.6580100 150.2176690  31.6753200  25.7994690 149.3630290
  32.9738130  25.3740260 150.0147900  43.8758400  30.0927350 146.5527740
  43.7159540  29.8030290 147.4509570  43.7105110  29.3167480 146.0172970
  36.3546780  29.8725880 148.3299360  36.1789260  28.9561420 148.1167160
  35.5002520  30.2313170 148.5697160  43.5784530  27.6014910 145.1125740
  42.8849690  27.5992200 144.4528020  44.3207390  27.1774230 144.6819910
  43.1434460  29.2277620 149.1874230  43.5991410  28.4467000 149.5012850
  43.4826980  29.9384440 149.7315410  35.6655780  14.1299840 151.3825540
  35.2223930  14.9109380 151.0510060  36.2240770  14.4529730 152.0896480
  38.7814600  13.7510540 146.2631370  38.1568780  13.7470410 146.9884680
  38.6944720  12.8841500 145.8667340  35.4570000  19.2533410 149.1106790
  35.2310920  19.0370580 150.0153410  34.6762530  19.6861870 148.7652760
  42.6867760  19.2596780 147.7097440  42.0876650  19.9832580 147.5261060
  43.2347370  19.1973560 146.9273890  41.2932630  17.8960320 149.7400720
  41.6862200  18.2132520 148.9269410  41.6549480  17.0172200 149.8545240
  30.5167030  18.4281240 143.1733640  30.4341700  19.3712000 143.3148630
  30.1650090  18.2856150 142.2945990  38.3165160  17.1620270 152.2403990
  38.3201220  16.7210220 151.3908530  39.2116280  17.4837600 152.3475810
  34.1667540  17.0446760 151.1998200  33.8267590  17.5221990 151.9565250
  33.4044860  16.5911880 150.8399300  38.3785310  18.1632350 145.2310750
  38.4998130  18.1218830 146.1796570  37.9933820  19.0256500 145.0757480
  37.3906810  20.4733490 144.6294050  36.8223710  20.0251740 144.0029960
  38.0995810  20.8326270 144.0959200  31.4813620  15.9665740 150.1162870
  31.1960540  15.6021410 150.9541490  31.4192480  15.2346200 149.5026010
  34.9354290  24.4691680 146.9020460  34.1616550  23.9289300 146.7419180
  35.6648920  23.9498290 146.5638220  41.1552210  14.8595000 146.8376240
  40.3416820  14.3608170 146.7621550  40.9614160  15.6993250 146.4212590
  43.8700600  19.2314650 145.1338400  44.7580220  19.5431880 144.9589740
  43.8405690  18.3586900 144.7418980  34.9791690  24.1372060 150.5399270
  35.4970360  23.3340320 150.4856160  34.5275710  24.0751200 151.3816100
  39.8661190  25.4038340 145.8126570  40.2076890  26.1480570 145.3169890
  39.0373900  25.7169460 146.1751400  46.1414870  20.5426490 144.6018260
  46.0578590  20.9740710 143.7514700  46.8609060  21.0024840 145.0345080
  47.1702120  27.3968750 147.3300390  46.5278280  26.7424370 147.6044110
  46.7832780  27.8023840 146.5541060  42.7488600  24.7254180 151.1772080
  43.1012420  24.1282310 150.5173450  41.8650930  24.3998410 151.3480330
  38.8351880  25.4851870 148.5842490  39.5223010  26.0321080 148.9650080
  38.0484300  26.0292600 148.6192100  30.9744280  21.1024690 144.0759570
  31.8439130  21.3849490 144.3595490  30.4834600  21.9160560 143.9608380
  38.1379090  22.4897900 148.1967850  38.5941870  23.3003150 148.4228040
  37.7867300  22.1721040 149.0286340  34.0390870  12.8335550 148.6690370
  33.9105500  12.8253450 149.6175290  33.2152890  13.1718640 148.3181380
  45.5599500  26.2885210 143.8676740  45.3337080  25.5715650 144.4601380
  45.1695700  26.0397650 143.0298490  31.3415530  30.3152070 144.6421200
  31.7013170  30.9141410 143.9878470  31.2007870  30.8611960 145.4156230
  45.1415750  24.2057150 145.5290900  44.8537450  24.6669840 146.3168780
  45.9367920  23.7454920 145.7975120  37.3584150  27.6983270 145.4594870
  37.3494250  28.4312960 144.8439380  36.4382510  27.4514850 145.5521830
  32.9590790  22.9198160 146.2041630  32.3518740  23.6597060 146.2136930
  33.4340140  23.0097520 145.3779830  45.8985610  16.0405920 146.6886080
  45.2698770  16.1451590 145.9744310  45.4037530  16.2602700 147.4779960
  40.3443750  27.7611510 144.1220060  40.4455730  27.5575500 143.1922040
  39.4445490  27.5069790 144.3267840  37.8669640  18.3191870 148.1043960
  37.1585790  18.7878210 148.5457570  38.1514120  17.6613880 148.7389150
  41.8985070  15.0442530 149.5439750  41.7752850  15.0628660 148.5949260
  42.8469630  15.0921470 149.6638150  38.9861860  30.2797830 148.8167730
  39.2403360  30.2419220 147.8947100  38.0374340  30.1531160 148.8095980
  36.0704660  16.6276950 145.4794670  36.9195190  17.0647100 145.4134860
  35.7035930  16.9397210 146.3066730  44.9914440  21.1989710 150.3926240
  44.0504580  21.2139940 150.5673930  45.3058510  20.4125670 150.8386540
  34.9696080  22.8809310 143.9530200  35.7359350  22.7690670 144.5155630
  35.0470770  22.1847280 143.3006970  33.6642840  20.3134380 144.6363090
  33.7446430  19.3661890 144.7480490  34.5562590  20.6441260 144.7423750
  34.4657550  30.4629770 151.7397630  35.2020030  29.9145230 152.0106200
  34.8498470  31.3285780 151.6003620  31.3503030  26.5303340 147.6139140
  30.4242810  26.7724480 147.6044550  31.8159460  27.3577600 147.4923890
  37.5759860  29.6360080 143.5623200  38.3688470  29.9248910 143.1104990
  37.0564210  29.2052250 142.8835680  46.6290030  28.8630210 144.9859940
  46.3431540  28.4495350 144.1714120  46.4309580  29.7917920 144.8660460
  38.0937260  24.8563490 143.4265550  37.9887900  24.2415840 144.1526930
  37.9261480  24.3329380 142.6428560  41.3339990  23.9183520 144.0307540
  40.7850090  24.3652820 144.6750280  41.9559250  23.4132770 144.5545210
  37.0015110  22.8774440 145.9272840  37.4231530  22.7114310 146.7704230
  37.1265950  22.0674670 145.4327980  39.5142750  21.9012050 143.1749940
  40.0348410  21.1861070 142.8091090  40.1611150  22.5397920 143.4750450
  35.8974010  18.9507670 142.8731000  35.6963070  18.0875030 143.2344340
  35.7266060  18.8641030 141.9352600  43.3762320  13.7615900 145.4017880
  43.6564610  12.9183800 145.7577300  42.6028050  13.9939010 145.9156630
  34.6956810  16.0508290 142.8608880  34.9982710  16.0575720 141.9528030
  35.4351400  15.7006150 143.3576540  37.9141740  14.9942910 143.8465080
  37.5663740  14.3166900 143.2667530  38.1154510  14.5332420 144.6608470
  40.0790780  29.9823660 145.4651680  40.9741570  30.3208630 145.4870440
  40.1108410  29.2603070 144.8375960  33.7186940  25.3550710 143.6938680
  34.1561810  25.8980380 144.3496260  34.2034670  24.5297660 143.7035020
  30.9332740  28.1439740 151.1458940  31.2635750  27.2760800 150.9137580
  31.3623740  28.3498260 151.9763900  35.5294660  26.4748750 148.8060910
  35.2290200  26.3513720 149.7064820  35.4232150  25.6157340 148.3976640
  48.2986580  26.2545150 143.5087590  47.4679540  26.3221800 143.9794820
  48.4758410  27.1449270 143.2054450  47.7543040  22.9992630 146.0121790
  48.5161950  23.5689280 146.1181480  47.7697410  22.4319830 146.7830100
  31.2547380  21.5230560 150.2429450  30.5996220  21.2542200 149.5989150
  32.0925330  21.4135040 149.7931430  48.7603010  23.8542730 150.8563720
  49.1311840  23.0710050 150.4499690  49.4004940  24.5431830 150.6781020
  47.8062210  23.2927000 143.1694310  48.0811050  24.2005880 143.0413530
  47.6172950  23.2289530 144.1056300  44.2037820  16.3171850 144.4647940
  44.6222700  16.1302830 143.6244600  43.8973880  15.4650900 144.7750870
  47.7027550  21.2295990 148.1623740  47.3271150  20.4623920 147.7305030
  46.9730670  21.6118690 148.6498670  30.4685460  18.7329490 146.1854780
  29.5649540  18.9959690 146.0106440  30.9526080  19.0040660 145.4054740
  46.9778510  19.4553480 151.4630980  47.5015990  18.9616130 150.8321150
  47.5637930  19.5903840 152.2078550  33.0112670  17.7895030 144.0949160
  33.7204370  17.3678250 143.6096440  32.2952610  17.8570260 143.4632510
  32.6586830  13.8434360 143.1351810  33.3814960  14.3843300 143.4533030
  32.9311350  13.5697780 142.2593350  46.4678480  18.7126830 147.4023390
  46.9637600  18.4797700 148.1872270  46.2694550  17.8738670 146.9861030
  47.8965640  17.3487780 149.9361070  47.7864920  17.1943820 150.8743340
  48.6573230  16.8208720 149.6936480  48.7855910  15.1795700 143.1767210
  49.7105220  15.0476880 142.9685500  48.7631700  15.2588520 144.1303660
  48.8594400  15.9506360 145.8023920  48.0645900  15.8851480 146.3316830
  49.0637680  16.8857000 145.7909270  45.8012820  29.9897910 149.7962310
  46.3971890  29.6682480 149.1196730  46.0590970  29.5169730 150.5875580
  45.2914330  14.2803240 152.2522750  45.7322420  14.2248340 151.4044350
  45.0221920  15.1961250 152.3232930  47.1552900  13.9118480 150.2631570
  47.0941300  12.9679700 150.1162590  47.9344930  14.0198570 150.8085030
  31.4605650  30.0510840 149.2255520  31.2927690  29.4181520 149.9237410
  30.5940160  30.2570240 148.8749710  32.0833670  13.8827620 146.7287380
  32.8413030  13.9956500 146.1551410  31.6210840  14.7196820 146.6830810
  38.6247480  15.9966890 149.7189690  37.8121990  15.6223780 149.3785570
  39.1289120  15.2411970 150.0210880  43.1272460  12.6609340 150.9572760
  43.7301830  13.2329550 151.4321280  42.3865450  13.2248780 150.7346660
  46.2707060  13.0630900 146.2313040  46.4657690  13.9614350 146.4980470
  45.4836930  12.8317980 146.7245990  33.0668350  28.7444070 146.6705660
  32.5415970  29.1252100 145.9667620  32.9912930  29.3694840 147.3915370
  34.4558820  14.4091670 145.2689350  34.9851580  13.6221470 145.1397300
  35.0887140  15.0882860 145.5024880  36.6496660  14.1466810 148.3234740
  36.0199400  13.4454120 148.4904870  36.1101800  14.9070940 148.1067900
  47.8233670  30.3031610 147.9919600  47.9985860  29.6169350 147.3480520
  47.1255240  30.8278660 147.5996270  35.6661320  30.6926450 145.5454910
  36.3980140  30.4085730 144.9978800  35.9254990  30.4539730 146.4354290
  34.8276110  26.8091180 145.5501240  34.1984990  27.2776280 146.0987070
  34.9423940  25.9640400 145.9847430  42.2825830  20.8596840 131.7002440
  42.2019880  19.9451450 131.4294150  41.8690250  21.3563910 130.9942150
  40.4143870  22.6375860 133.5811710  39.6385970  22.1576300 133.8710280
  41.0656800  21.9581510 133.4067870  34.4309700  22.9495670 134.4587470
  33.5994580  22.6944380 134.8583980  35.0390680  23.0206440 135.1945390
  44.4351300  27.0436050 132.3610840  43.9732830  26.2723290 132.6898010
  45.2476850  27.0702120 132.8663290  34.4110960  26.9835760 134.6545490
  34.7139000  26.0933500 134.4755710  35.1554550  27.5405980 134.4267740
  32.8401650  17.9097560 128.2429860  31.9518350  18.2513530 128.1409740
  33.1242840  17.7097880 127.3510690  30.8034660  20.5103210 134.1269560
  31.3750770  19.7425410 134.1273200  30.8036200  20.8091970 133.2176170
  40.6614610  29.3294060 131.9814830  40.0426050  29.7851560 131.4109270
  41.5166390  29.4845520 131.5804530  39.8552860  25.3133050 133.5881870
  39.7861140  24.3722990 133.4271000  40.6172720  25.4034460 134.1604440
  32.0459530  15.9187570 135.9138490  31.8662370  15.0213320 136.1941250
  31.6439610  16.4659440 136.5885440  40.8858030  18.1203430 133.8150800
  41.2622850  17.2475310 133.7024470  40.7877540  18.4562130 132.9241240
  35.0163040  16.4929060 129.2768240  35.1229790  17.3932790 129.5837000
  34.1055400  16.4447030 128.9862890  44.6682150  15.6153870 130.7479140
  45.4891770  15.1250440 130.7904620  44.7016230  16.2051530 131.5010980
  32.6646200  18.4148070 134.5220830  33.3456310  18.6786440 135.1408230
  32.3494250  17.5748940 134.8558840  36.8570770  19.4615430 133.6093420
  37.3648990  19.9596400 134.2498440  37.3884010  18.6850630 133.4332780
  48.9581700  17.6320620 137.3122770  48.2533870  18.0202330 136.7937880
  49.2239620  18.3270910 137.9143700  35.1406870  14.1013990 137.8756840
  35.1425310  14.6186380 137.0702740  34.3111180  13.6244170 137.8526770
  41.5277960  24.2133300 129.3746740  40.9095230  24.6782750 128.8109460
  42.0401210  24.9060780 129.7916250  36.3909720  23.7409170 136.0530340
  36.0579100  24.3678090 136.6951410  36.5676400  24.2671050 135.2732010
  44.9043630  17.5554250 133.5206680  44.1999200  17.8439140 134.1009790
  45.2655790  18.3654360 133.1606240  34.8222200  15.8123950 135.8827290
  35.1639010  16.6566000 135.5881160  33.8838010  15.9607690 135.9992630
  35.6028820  25.7089970 137.8679520  36.2202820  26.3841050 137.5863970
  34.7421940  26.1177950 137.7767020  30.8961160  24.8989830 126.7486370
  30.5189140  25.3876930 126.0171270  31.1534230  25.5715110 127.3792900
  46.5206410  27.1729380 135.7834160  45.8369930  27.8428490 135.7750830
  47.0600700  27.3710030 135.0179020  47.9730550  17.0009040 133.9115890
  47.0255460  17.0348020 134.0431320  48.2980540  17.8147990 134.2965250
  38.5050090  13.3006220 132.2071880  38.8125070  12.7453110 131.4907380
  37.5750790  13.4350680 132.0244870  44.0565150  29.0173510 134.4979340
  44.0692310  28.6135800 133.6301600  43.5040370  29.7920800 134.3940770
  45.3510570  25.7389730 129.5869510  45.2406900  24.7964060 129.7118930
  45.3478820  26.1005370 130.4732270  43.4550590  23.9203350 135.8261950
  43.8719380  23.7063460 134.9915410  44.1790410  24.1776140 136.3970570
  40.8930850  21.3655050 128.9432000  39.9660130  21.2992430 129.1720470
  41.0455670  22.3035180 128.8287240  40.8799930  17.6372050 125.9399160
  39.9403600  17.7986010 126.0251620  41.1983190  18.3557730 125.3935150
  47.4012690  22.3190570 135.9178190  46.5731320  22.3883660 135.4428320
  47.9963170  22.9044880 135.4494020  44.9228140  22.9275350 129.4467250
  44.3040560  22.5894900 128.7993550  44.9052590  22.2835110 130.1546440
  44.3654700  19.1059890 136.8633060  43.9525880  19.9313600 137.1173050
  43.6330650  18.5204930 136.6709420  36.4987490  21.8919790 131.7251730
  36.0944490  21.1797040 131.2297630  36.5850610  21.5473030 132.6139770
  36.9669190  25.5787350 133.8890940  36.6697480  24.9732820 133.2098720
  37.9169010  25.6164660 133.7780300  35.2116110  18.6663000 135.5050770
  35.7630700  18.7758340 134.7304020  35.7259620  19.0400600 136.2206000
  45.0554800  29.1519220 137.5514040  44.5785360  29.9591410 137.3586650
  44.3716590  28.4997550 137.7040250  36.0587620  25.3169040 140.5398740
  35.1616150  25.5409010 140.7872140  36.0840490  25.4403980 139.5910140
  43.0992840  22.1662160 126.4540000  43.5386120  21.3284590 126.3077820
  43.8121260  22.7991560 126.5404140  34.8858840  22.1882360 139.1156110
  34.7466610  23.0605160 139.4843510  34.0040200  21.8455170 138.9704050
  41.2088220  27.1058230 130.4221240  41.6484130  27.8482560 130.0076630
  41.1475110  27.3484800 131.3460200  36.6839190  28.1304060 141.3241260
  36.6554620  28.5347010 140.4569690  36.5204160  27.2014420 141.1612860
  46.6809980  13.4204970 124.7681040  46.3682640  13.5131800 125.6680110
  47.4422450  13.9986000 124.7178470  33.1992120  20.7864770 129.2258380
  33.0789720  21.5126860 128.6139650  32.8893010  20.0167680 128.7486290
  48.6354010  28.9131160 142.6205430  49.1113730  29.3914050 143.2994510
  49.2561170  28.8448650 141.8950930  30.8377490  23.9579910 135.0327020
  30.9157910  24.0928680 134.0882740  31.4519170  23.2495800 135.2255140
  32.0825120  25.6580100 131.4433200  31.6753200  25.7994690 130.5886800
  32.9738130  25.3740260 131.2404410  48.0387260  26.1044010 139.7805440
  48.1650320  25.8655890 138.8622620  48.0808640  25.2728550 140.2527520
  41.9004000  29.8072010 138.3500250  42.4148670  29.7180020 139.1522680
  41.0573080  30.1531710 138.6428160  43.8758400  30.0927350 127.7784250
  43.7159540  29.8030290 128.6766080  43.7105110  29.3167480 127.2429480
  36.3546780  29.8725880 129.5555870  36.1789260  28.9561420 129.3423670
  35.5002520  30.2313170 129.7953670  43.5784530  27.6014910 126.3382250
  42.8849690  27.5992200 125.6784530  44.3207390  27.1774230 125.9076420
  43.1434460  29.2277620 130.4130740  43.5991410  28.4467000 130.7269360
  43.4826980  29.9384440 130.9571920  47.8911270  18.1576470 140.7455180
  47.2755540  18.6656140 140.2170640  47.5707690  17.2574800 140.6881120
  30.8937010  24.9994080 137.5721480  31.0568050  24.5299440 136.7540850
  31.3589460  24.4917640 138.2370320  35.6655780  14.1299840 132.6082050
  35.2223930  14.9109380 132.2766570  36.2240770  14.4529730 133.3152990
  39.9525590  16.9968360 138.2117370  39.4904960  17.2051380 139.0237310
  39.5503700  16.1827710 137.9088040  44.9530100  18.2177310 139.3414030
  44.1023690  17.9183060 139.6623100  44.7931890  18.4619320 138.4297850
  42.0479810  19.7179060 141.4412820  42.3733220  18.8842810 141.1015050
  42.8360140  20.2407580 141.5891150  38.7814600  13.7510540 127.4887880
  38.1568780  13.7470410 128.2141190  38.6944720  12.8841500 127.0923850
  37.7031680  14.6747170 134.4671650  38.0004010  15.5810000 134.3863670
  38.2517240  14.1865950 133.8531220  35.4570000  19.2533410 130.3363300
  35.2310920  19.0370580 131.2409920  34.6762530  19.6861870 129.9909270
  42.6867760  19.2596780 128.9353950  42.0876650  19.9832580 128.7517570
  43.2347370  19.1973560 128.1530400  37.8969210  20.1518990 141.0023570
  37.8012810  19.2113720 140.8523970  38.7401190  20.3734060 140.6071640
  41.2932630  17.8960320 130.9657230  41.6862200  18.2132520 130.1525920
  41.6549480  17.0172200 131.0801750  33.0279750  16.5632660 139.1557350
  32.6343140  17.4107870 139.3630130  32.3398150  15.9259030 139.3465990
  39.6024800  16.6467630 142.2254090  38.9123120  16.4539830 142.8600180
  40.3457100  16.9302270 142.7578390  30.3296800  14.4861120 133.1887430
  30.0409850  15.0563980 133.9012410  31.0742560  14.0065570 133.5518660
  30.5167030  18.4281240 124.3990150  30.4341700  19.3712000 124.5405140
  30.1650090  18.2856150 123.5202500  41.8787770  20.4866070 135.0608010
  41.1468890  20.9952880 135.4098110  41.4812110  19.6696050 134.7596790
  38.3165160  17.1620270 133.4660500  38.3201220  16.7210220 132.6165040
  39.2116280  17.4837600 133.5732320  34.1667540  17.0446760 132.4254710
  33.8267590  17.5221990 133.1821760  33.4044860  16.5911880 132.0655810
  38.3785310  18.1632350 126.4567260  38.4998130  18.1218830 127.4053080
  37.9933820  19.0256500 126.3013990  42.3413680  15.9399750 134.4730950
  42.3586420  16.3908400 135.3172800  42.0929260  15.0405390 134.6864390
  37.3906810  20.4733490 125.8550560  36.8223710  20.0251740 125.2286470
  38.0995810  20.8326270 125.3215710  45.7684430  13.3531930 140.3117330
  46.0930200  12.6221590 140.8375310  45.8040940  13.0345570 139.4098320
  32.4675990  24.3745510 139.7317290  32.0830780  23.7339180 140.3300250
  32.7788180  25.0781630 140.3012020  38.6173130  21.2222050 135.2125910
  38.9843260  20.7480620 135.9587250  38.4278190  22.0963620 135.5534250
  31.4813620  15.9665740 131.3419380  31.1960540  15.6021410 132.1798000
  31.4192480  15.2346200 130.7282520  36.4072500  20.2630690 137.5310120
  36.1029570  21.1422670 137.7560480  37.3618960  20.3230480 137.5667560
  34.9354290  24.4691680 128.1276970  34.1616550  23.9289300 127.9675690
  35.6648920  23.9498290 127.7894730  45.6942270  23.4657040 133.9203360
  46.4141390  23.9612330 133.5299470  45.4924090  22.7874930 133.2757230
  41.1552210  14.8595000 128.0632750  40.3416820  14.3608170 127.9878060
  40.9614160  15.6993250 127.6469100  41.0761070  23.5366100 139.8072360
  41.0098380  22.6161770 139.5529950  40.4466210  23.6341540 140.5217000
  43.8700600  19.2314650 126.3594910  44.7580220  19.5431880 126.1846250
  43.8405690  18.3586900 125.9675490  34.9791690  24.1372060 131.7655780
  35.4970360  23.3340320 131.7112670  34.5275710  24.0751200 132.6072610
  39.8661190  25.4038340 127.0383080  40.2076890  26.1480570 126.5426400
  39.0373900  25.7169460 127.4007910  32.4636230  21.1033430 138.6781480
  32.1051170  21.7687280 139.2654820  32.1690790  20.2716980 139.0494100
  35.6649350  21.5617670 141.5621030  35.3649490  21.7074850 140.6648850
  36.4360590  21.0022960 141.4694420  41.0077800  26.3586670 139.5576160
  41.0222340  25.4267630 139.3395070  40.3002900  26.4446430 140.1965930
  46.1414870  20.5426490 125.8274770  46.0578590  20.9740710 124.9771210
  46.8609060  21.0024840 126.2601590  47.2189010  22.9994010 138.9044740
  46.4937200  23.5922790 138.7074130  47.7464470  22.9917550 138.1058110
  47.1702120  27.3968750 128.5556900  46.5278280  26.7424370 128.8300620
  46.7832780  27.8023840 127.7797570  42.7488600  24.7254180 132.4028590
  43.1012420  24.1282310 131.7429960  41.8650930  24.3998410 132.5736840
  38.8351880  25.4851870 129.8099000  39.5223010  26.0321080 130.1906590
  38.0484300  26.0292600 129.8448610  30.9744280  21.1024690 125.3016080
  31.8439130  21.3849490 125.5852000  30.4834600  21.9160560 125.1864890
  38.1379090  22.4897900 129.4224360  38.5941870  23.3003150 129.6484550
  37.7867300  22.1721040 130.2542850  40.4411700  28.0004240 136.6516660
  41.0853920  28.2063620 137.3290080  40.8041140  27.2392640 136.1987510
  34.0390870  12.8335550 129.8946880  33.9105500  12.8253450 130.8431800
  33.2152890  13.1718640 129.5437890  41.7143780  26.0036590 135.3694110
  42.3566010  25.3029750 135.4826280  42.2393130  26.7835030 135.1891000
  45.5599500  26.2885210 125.0933250  45.3337080  25.5715650 125.6857890
  45.1695700  26.0397650 124.2555000  43.4881400  26.8031490 138.5730170
  43.8237640  27.3898180 139.2508090  42.5681740  26.6724200 138.8027960
  31.3415530  30.3152070 125.8677710  31.7013170  30.9141410 125.2134980
  31.2007870  30.8611960 126.6412740  31.0384800  14.5926670 139.3553580
  30.3243320  14.7923590 139.9606190  31.4579840  13.8166240 139.7268380
  45.1415750  24.2057150 126.7547410  44.8537450  24.6669840 127.5425290
  45.9367920  23.7454920 127.0231630  31.3257390  28.5806930 140.3420110
  31.4348510  27.6401670 140.2015500  30.6737950  28.8461680 139.6933840
  39.3169980  26.8522820 141.7418230  38.9966850  26.1332060 142.2863920
  38.6428340  27.5277890 141.8154290  37.3584150  27.6983270 126.6851380
  37.3494250  28.4312960 126.0695890  36.4382510  27.4514850 126.7778340
  32.9590790  22.9198160 127.4298140  32.3518740  23.6597060 127.4393440
  33.4340140  23.0097520 126.6036340  42.5323580  17.0848980 137.1055030
  42.9004400  16.2644190 137.4334600  41.6721780  17.1450870 137.5210680
  45.8985610  16.0405920 127.9142590  45.2698770  16.1451590 127.2000820
  45.4037530  16.2602700 128.7036470  40.3443750  27.7611510 125.3476570
  40.4455730  27.5575500 124.4178550  39.4445490  27.5069790 125.5524350
  37.8669640  18.3191870 129.3300470  37.1585790  18.7878210 129.7714080
  38.1514120  17.6613880 129.9645660  39.4925570  19.7388570 137.3293000
  39.9910820  20.2134390 137.9944850  39.6348520  18.8152090 137.5363030
  41.8985070  15.0442530 130.7696260  41.7752850  15.0628660 129.8205770
  42.8469630  15.0921470 130.8894660  38.9861860  30.2797830 130.0424240
  39.2403360  30.2419220 129.1203610  38.0374340  30.1531160 130.0352490
  36.0704660  16.6276950 126.7051180  36.9195190  17.0647100 126.6391370
  35.7035930  16.9397210 127.5323240  46.6992430  15.9556530 138.1721390
  46.1966030  16.6961930 138.5115200  47.5149090  16.3440530 137.8558180
  44.9914440  21.1989710 131.6182750  44.0504580  21.2139940 131.7930440
  45.3058510  20.4125670 132.0643050  34.9696080  22.8809310 125.1786710
  35.7359350  22.7690670 125.7412140  35.0470770  22.1847280 124.5263480
  33.6642840  20.3134380 125.8619600  33.7446430  19.3661890 125.9737000
  34.5562590  20.6441260 125.9680260  46.9940020  28.3698560 133.2937010
  47.1187440  29.1929730 133.7660820  47.8605580  28.1589290 132.9461160
  34.4657550  30.4629770 132.9654140  35.2020030  29.9145230 133.2362710
  34.8498470  31.3285780 132.8260130  31.3503030  26.5303340 128.8395650
  30.4242810  26.7724480 128.8301060  31.8159460  27.3577600 128.7180400
  33.4715830  29.6475840 142.1539720  34.2728560  29.9687890 142.5675120
  32.9567650  29.2871420 142.8759630  37.5759860  29.6360080 124.7879710
  38.3688470  29.9248910 124.3361500  37.0564210  29.2052250 124.1092190
  42.3080460  25.7555710 142.1015130  41.7018620  25.7787310 141.3610880
  42.0034570  25.0238750 142.6382380  43.7380830  29.4836000 140.7124540
  44.6902580  29.3994020 140.6624780  43.5909050  30.1477710 141.3858330
  46.6290030  28.8630210 126.2116450  46.3431540  28.4495350 125.3970630
  46.4309580  29.7917920 126.0916970  31.1913640  22.1349300 141.0975770
  31.6952660  21.5556580 141.6692000  30.4521060  22.4189530 141.6352140
  38.0937260  24.8563490 124.6522060  37.9887900  24.2415840 125.3783440
  37.9261480  24.3329380 123.8685070  38.2451580  23.5420290 140.6311290
  37.4797250  24.1105290 140.5465960  38.4267540  23.2496500 139.7379520
  41.3339990  23.9183520 125.2564050  40.7850090  24.3652820 125.9006790
  41.9559250  23.4132770 125.7801720  45.3874930  25.2725620 141.1886310
  46.1284400  25.6101380 140.6853770  44.6247610  25.4417680 140.6356080
  33.2236720  20.2778890 141.9925840  33.2642060  19.9792760 142.9011070
  34.0782220  20.6786500 141.8333360  37.0015110  22.8774440 127.1529350
  37.4231530  22.7114310 127.9960740  37.1265950  22.0674670 126.6584490
  35.1642530  18.8570990 139.9600330  34.6338990  18.3661940 139.3323670
  35.8330600  19.2855190 139.4258260  39.5142750  21.9012050 124.4006450
  40.0348410  21.1861070 124.0347600  40.1611150  22.5397920 124.7006960
  44.0620590  23.3240450 139.7241520  44.4761610  23.4785530 140.5731940
  43.1271590  23.4495670 139.8867300  44.5342760  20.6636610 141.7280670
  45.1163530  19.9088930 141.6401150  44.7104530  21.1944050 140.9512150
  35.6514830  15.8233360 140.0397620  35.5571700  15.2054110 139.3148490
  35.0712220  16.5499650 139.8127530  38.4176270  14.3806600 137.0725010
  37.9693570  14.4030860 136.2270560  37.7841470  13.9825620 137.6695310
  38.8235820  23.2760930 137.6937450  39.2423930  24.1193660 137.5213690
  37.9044450  23.4132970 137.4644230  41.1599720  21.0077110 139.0775290
  41.2795930  20.4118250 139.8170130  42.0193720  21.0446800 138.6576590
  43.4987620  21.5614300 137.6537800  42.9722840  22.0856920 137.0502940
  43.8418960  22.1941690 138.2847530  35.8974010  18.9507670 124.0987510
  35.6963070  18.0875030 124.4600850  35.7266060  18.8641030 123.1609110
  36.6743240  29.5813940 138.8095180  36.1364330  30.3060000 138.4903880
  36.9277200  29.1044280 138.0192520  37.9268490  17.5498460 140.3351110
  38.5168180  17.2414310 141.0228930  37.1088730  17.0778210 140.4911010
  42.7461920  17.1664270 140.5684130  42.0577440  16.5045810 140.5034120
  43.4667940  16.7202540 141.0132590  43.3762320  13.7615900 126.6274390
  43.6564610  12.9183800 126.9833810  42.6028050  13.9939010 127.1413140
  34.6956810  16.0508290 124.0865390  34.9982710  16.0575720 123.1784540
  35.4351400  15.7006150 124.5833050  39.5305450  30.8165150 139.0681830
  39.4564150  31.7200290 139.3754200  38.6284290  30.4977050 139.0403900
  37.9141740  14.9942910 125.0721590  37.5663740  14.3166900 124.4924040
  38.1154510  14.5332420 125.8864980  40.0790780  29.9823660 126.6908190
  40.9741570  30.3208630 126.7126950  40.1108410  29.2603070 126.0632470
  33.7186940  25.3550710 124.9195190  34.1561810  25.8980380 125.5752770
  34.2034670  24.5297660 124.9291530  30.9332740  28.1439740 132.3715450
  31.2635750  27.2760800 132.1394090  31.3623740  28.3498260 133.2020410
  35.5294660  26.4748750 130.0317420  35.2290200  26.3513720 130.9321330
  35.4232150  25.6157340 129.6233150  31.4222950  29.0110330 135.1097080
  30.9853940  29.1911130 135.9421230  31.9900630  29.7684950 134.9678800
  47.0585130  28.5127330 139.3974390  46.4587120  28.5719890 138.6538310
  47.1879030  27.5732310 139.5271240  48.2986580  26.2545150 124.7344100
  47.4679540  26.3221800 125.2051330  48.4758410  27.1449270 124.4310960
  47.7543040  22.9992630 127.2378300  48.5161950  23.5689280 127.3437990
  47.7697410  22.4319830 128.0086610  31.2547380  21.5230560 131.4685960
  30.5996220  21.2542200 130.8245660  32.0925330  21.4135040 131.0187940
  48.7603010  23.8542730 132.0820230  49.1311840  23.0710050 131.6756200
  49.4004940  24.5431830 131.9037530  45.7436770  25.2379310 137.4950550
  44.9296610  25.6676470 137.7576340  46.1510970  25.8497720 136.8819600
  47.8062210  23.2927000 124.3950820  48.0811050  24.2005880 124.2670040
  47.6172950  23.2289530 125.3312810  44.2037820  16.3171850 125.6904450
  44.6222700  16.1302830 124.8501110  43.8973880  15.4650900 126.0007380
  47.7027550  21.2295990 129.3880250  47.3271150  20.4623920 128.9561540
  46.9730670  21.6118690 129.8755180  32.2923310  21.9083130 136.0089300
  32.6596350  21.8210530 136.8885320  31.7234130  21.1449680 135.9096160
  47.0927170  20.3767510 139.0219770  46.8613260  20.1480260 138.1217720
  47.3531720  21.2967060 138.9764660  31.8439310  18.8192220 139.9147720
  30.9495360  18.7858980 140.2541430  32.3836860  19.0179010 140.6798970
  45.5315240  15.6023940 141.7999470  46.4085420  15.6107340 142.1833470
  45.5436080  14.8654780 141.1891820  30.4685460  18.7329490 127.4111290
  29.5649540  18.9959690 127.2362950  30.9526080  19.0040660 126.6311250
  46.9778510  19.4553480 132.6887490  47.5015990  18.9616130 132.0577660
  47.5637930  19.5903840 133.4335060  47.1568230  19.5393350 136.2107040
  46.2070940  19.5056890 136.3252030  47.3381240  20.4493460 135.9756810
  33.0112670  17.7895030 125.3205670  33.7204370  17.3678250 124.8352950
  32.2952610  17.8570260 124.6889020  32.6586830  13.8434360 124.3608320
  33.3814960  14.3843300 124.6789540  32.9311350  13.5697780 123.4849860
  46.4678480  18.7126830 128.6279900  46.9637600  18.4797700 129.4128780
  46.2694550  17.8738670 128.2117540  32.3479020  13.0940550 134.2630940
  32.9955210  12.5437930 133.8226100  32.7680860  13.3483700 135.0846750
  47.8965640  17.3487780 131.1617580  47.7864920  17.1943820 132.0999850
  48.6573230  16.8208720 130.9192990  46.2431360  13.2881910 137.6200580
  46.8803580  13.9016050 137.9859770  46.3906250  13.3242570 136.6749810
  48.7855910  15.1795700 124.4023720  49.7105220  15.0476880 124.1942010
  48.7631700  15.2588520 125.3560170  48.8594400  15.9506360 127.0280430
  48.0645900  15.8851480 127.5573340  49.0637680  16.8857000 127.0165780
  45.8012820  29.9897910 131.0218820  46.3971890  29.6682480 130.3453240
  46.0590970  29.5169730 131.8132090  32.1011020  13.2496220 137.0056260
  31.7525840  13.7060040 137.7714440  31.7698720  12.3553350 137.0878690
  33.7075390  26.4215820 141.1709450  33.6645020  26.0508730 142.0523910
  33.8386400  27.3593390 141.3111270  37.4081420  27.9775410 136.7719170
  37.1672780  28.2449970 135.8849690  38.3484060  28.1481140 136.8270030
  39.6135840  14.4408100 140.5275680  39.5524730  15.0329930 141.2771090
  40.5536220  14.3334060 140.3825940  42.2510400  14.0978160 140.1667970
  42.8650810  14.4157450 139.5049050  42.7959960  13.6126750 140.7863830
  48.6685580  29.9969790 137.5729810  48.1743860  30.3938660 136.8556940
  48.0598870  29.3719000 137.9667090  32.7731660  12.7772420 140.2807030
  33.3214650  12.5960470 139.5173140  32.8386970  11.9866530 140.8163340
  33.5463420  29.3678070 138.2907230  32.9523740  29.2362770 139.0297270
  33.5387260  28.5316210 137.8249330  42.9918440  12.6610300 136.4937260
  42.1178280  12.9945410 136.2910190  42.8829190  12.1883480 137.3189130
  43.8990420  14.8681170 137.8778980  43.5703780  14.0532930 137.4980710
  44.8472720  14.8250980 137.7544670  46.3525030  30.6393210 134.8516550
  45.8928000  31.3909020 134.4774570  45.7237490  29.9199680 134.7931350
  33.1775650  26.7336450 137.2415270  32.4509710  26.1141740 137.1741220
  33.2384800  27.1277060 136.3713350  36.7820750  28.9481450 134.0264680
  37.2985770  28.3368810 133.5012940  37.4318130  29.4510230 134.5175690
  39.5216250  29.8389940 134.8533660  39.8094060  29.5844240 133.9766670
  40.0339470  29.2867300 135.4439230  40.7393260  13.5780140 135.4330170
  39.9565050  14.0525640 135.7126930  40.4456190  12.6734970 135.3243350
  45.2914330  14.2803240 133.4779260  45.7322420  14.2248340 132.6300860
  45.0221920  15.1961250 133.5489440  47.1552900  13.9118480 131.4888080
  47.0941300  12.9679700 131.3419100  47.9344930  14.0198570 132.0341540
  31.4605650  30.0510840 130.4512030  31.2927690  29.4181520 131.1493920
  30.5940160  30.2570240 130.1006220  32.0833670  13.8827620 127.9543890
  32.8413030  13.9956500 127.3807920  31.6210840  14.7196820 127.9087320
  38.6247480  15.9966890 130.9446200  37.8121990  15.6223780 130.6042080
  39.1289120  15.2411970 131.2467390  43.1272460  12.6609340 132.1829270
  43.7301830  13.2329550 132.6577790  42.3865450  13.2248780 131.9603170
  46.2707060  13.0630900 127.4569550  46.4657690  13.9614350 127.7236980
  45.4836930  12.8317980 127.9502500  33.0668350  28.7444070 127.8962170
  32.5415970  29.1252100 127.1924130  32.9912930  29.3694840 128.6171880
  34.4558820  14.4091670 126.4945860  34.9851580  13.6221470 126.3653810
  35.0887140  15.0882860 126.7281390  36.6496660  14.1466810 129.5491250
  36.0199400  13.4454120 129.7161380  36.1101800  14.9070940 129.3324410
  39.5888610  30.7606040 142.2201860  40.5155920  30.5250310 142.2637820
  39.5739040  31.5878040 141.7387890  47.8233670  30.3031610 129.2176110
  47.9985860  29.6169350 128.5737030  47.1255240  30.8278660 128.8252780
  36.7752220  13.4250790 141.9843740  36.4936490  13.9284390 141.2204560
  37.1571920  12.6272540 141.6185870  35.6661320  30.6926450 126.7711420
  36.3980140  30.4085730 126.2235310  35.9254990  30.4539730 127.6610800
  34.8276110  26.8091180 126.7757750  34.1984990  27.2776280 127.3243580
  34.9423940  25.9640400 127.2103940  43.3767680  12.8404370 142.5624210
  43.2633130  13.1598980 143.4575730  44.1937420  13.2416880 142.2661490
  46.1566170  29.9875900 142.0442900  46.9491490  29.4925130 141.8368860
  46.4499320  30.6666040 142.6518510  42.2825830  20.8596840 112.9258950
  42.2019880  19.9451450 112.6550660  41.8690250  21.3563910 112.2198660
  40.4143870  22.6375860 114.8068220  39.6385970  22.1576300 115.0966790
  41.0656800  21.9581510 114.6324380  34.4309700  22.9495670 115.6843980
  33.5994580  22.6944380 116.0840490  35.0390680  23.0206440 116.4201900
  44.4351300  27.0436050 113.5867350  43.9732830  26.2723290 113.9154520
  45.2476850  27.0702120 114.0919800  34.4110960  26.9835760 115.8802000
  34.7139000  26.0933500 115.7012220  35.1554550  27.5405980 115.6524250
  32.8401650  17.9097560 109.4686370  31.9518350  18.2513530 109.3666250
  33.1242840  17.7097880 108.5767200  30.8034660  20.5103210 115.3526070
  31.3750770  19.7425410 115.3529710  30.8036200  20.8091970 114.4432680
  40.6614610  29.3294060 113.2071340  40.0426050  29.7851560 112.6365780
  41.5166390  29.4845520 112.8061040  39.8552860  25.3133050 114.8138380
  39.7861140  24.3722990 114.6527510  40.6172720  25.4034460 115.3860950
  32.0459530  15.9187570 117.1395000  31.8662370  15.0213320 117.4197760
  31.6439610  16.4659440 117.8141950  40.8858030  18.1203430 115.0407310
  41.2622850  17.2475310 114.9280980  40.7877540  18.4562130 114.1497750
  35.0163040  16.4929060 110.5024750  35.1229790  17.3932790 110.8093510
  34.1055400  16.4447030 110.2119400  44.6682150  15.6153870 111.9735650
  45.4891770  15.1250440 112.0161130  44.7016230  16.2051530 112.7267490
  32.6646200  18.4148070 115.7477340  33.3456310  18.6786440 116.3664740
  32.3494250  17.5748940 116.0815350  36.8570770  19.4615430 114.8349930
  37.3648990  19.9596400 115.4754950  37.3884010  18.6850630 114.6589290
  48.9581700  17.6320620 118.5379280  48.2533870  18.0202330 118.0194390
  49.2239620  18.3270910 119.1400210  35.1406870  14.1013990 119.1013350
  35.1425310  14.6186380 118.2959250  34.3111180  13.6244170 119.0783280
  41.5277960  24.2133300 110.6003250  40.9095230  24.6782750 110.0365970
  42.0401210  24.9060780 111.0172760  36.3909720  23.7409170 117.2786850
  36.0579100  24.3678090 117.9207920  36.5676400  24.2671050 116.4988520
  44.9043630  17.5554250 114.7463190  44.1999200  17.8439140 115.3266300
  45.2655790  18.3654360 114.3862750  34.8222200  15.8123950 117.1083800
  35.1639010  16.6566000 116.8137670  33.8838010  15.9607690 117.2249140
  35.6028820  25.7089970 119.0936030  36.2202820  26.3841050 118.8120480
  34.7421940  26.1177950 119.0023530  30.8961160  24.8989830 107.9742880
  30.5189140  25.3876930 107.2427780  31.1534230  25.5715110 108.6049410
  46.5206410  27.1729380 117.0090670  45.8369930  27.8428490 117.0007340
  47.0600700  27.3710030 116.2435530  47.9730550  17.0009040 115.1372400
  47.0255460  17.0348020 115.2687830  48.2980540  17.8147990 115.5221760
  38.5050090  13.3006220 113.4328390  38.8125070  12.7453110 112.7163890
  37.5750790  13.4350680 113.2501380  44.0565150  29.0173510 115.7235850
  44.0692310  28.6135800 114.8558110  43.5040370  29.7920800 115.6197280
  45.3510570  25.7389730 110.8126020  45.2406900  24.7964060 110.9375440
  45.3478820  26.1005370 111.6988780  43.4550590  23.9203350 117.0518460
  43.8719380  23.7063460 116.2171920  44.1790410  24.1776140 117.6227080
  40.8930850  21.3655050 110.1688510  39.9660130  21.2992430 110.3976980
  41.0455670  22.3035180 110.0543750  40.8799930  17.6372050 107.1655670
  39.9403600  17.7986010 107.2508130  41.1983190  18.3557730 106.6191660
  47.4012690  22.3190570 117.1434700  46.5731320  22.3883660 116.6684830
  47.9963170  22.9044880 116.6750530  44.9228140  22.9275350 110.6723760
  44.3040560  22.5894900 110.0250060  44.9052590  22.2835110 111.3802950
  44.3654700  19.1059890 118.0889570  43.9525880  19.9313600 118.3429560
  43.6330650  18.5204930 117.8965930  36.4987490  21.8919790 112.9508240
  36.0944490  21.1797040 112.4554140  36.5850610  21.5473030 113.8396280
  36.9669190  25.5787350 115.1147450  36.6697480  24.9732820 114.4355230
  37.9169010  25.6164660 115.0036810  35.2116110  18.6663000 116.7307280
  35.7630700  18.7758340 115.9560530  35.7259620  19.0400600 117.4462510
  45.0554800  29.1519220 118.7770550  44.5785360  29.9591410 118.5843160
  44.3716590  28.4997550 118.9296760  36.0587620  25.3169040 121.7655250
  35.1616150  25.5409010 122.0128650  36.0840490  25.4403980 120.8166650
  43.0992840  22.1662160 107.6796510  43.5386120  21.3284590 107.5334330
  43.8121260  22.7991560 107.7660650  34.8858840  22.1882360 120.3412620
  34.7466610  23.0605160 120.7100020  34.0040200  21.8455170 120.1960560
  41.2088220  27.1058230 111.6477750  41.6484130  27.8482560 111.2333140
  41.1475110  27.3484800 112.5716710  36.6839190  28.1304060 122.5497770
  36.6554620  28.5347010 121.6826200  36.5204160  27.2014420 122.3869370
  46.6809980  13.4204970 105.9937550  46.3682640  13.5131800 106.8936620
  47.4422450  13.9986000 105.9434980  33.1992120  20.7864770 110.4514890
  33.0789720  21.5126860 109.8396160  32.8893010  20.0167680 109.9742800
  48.6354010  28.9131160 123.8461940  49.1113730  29.3914050 124.5251020
  49.2561170  28.8448650 123.1207440  30.8377490  23.9579910 116.2583530
  30.9157910  24.0928680 115.3139250  31.4519170  23.2495800 116.4511650
  32.0825120  25.6580100 112.6689710  31.6753200  25.7994690 111.8143310
  32.9738130  25.3740260 112.4660920  48.0387260  26.1044010 121.0061950
  48.1650320  25.8655890 120.0879130  48.0808640  25.2728550 121.4784030
  41.9004000  29.8072010 119.5756760  42.4148670  29.7180020 120.3779190
  41.0573080  30.1531710 119.8684670  43.8758400  30.0927350 109.0040760
  43.7159540  29.8030290 109.9022590  43.7105110  29.3167480 108.4685990
  36.3546780  29.8725880 110.7812380  36.1789260  28.9561420 110.5680180
  35.5002520  30.2313170 111.0210180  43.5784530  27.6014910 107.5638760
  42.8849690  27.5992200 106.9041040  44.3207390  27.1774230 107.1332930
  43.1434460  29.2277620 111.6387250  43.5991410  28.4467000 111.9525870
  43.4826980  29.9384440 112.1828430  47.8911270  18.1576470 121.9711690
  47.2755540  18.6656140 121.4427150  47.5707690  17.2574800 121.9137630
  30.8937010  24.9994080 118.7977990  31.0568050  24.5299440 117.9797360
  31.3589460  24.4917640 119.4626830  35.6655780  14.1299840 113.8338560
  35.2223930  14.9109380 113.5023080  36.2240770  14.4529730 114.5409500
  39.9525590  16.9968360 119.4373880  39.4904960  17.2051380 120.2493820
  39.5503700  16.1827710 119.1344550  44.9530100  18.2177310 120.5670540
  44.1023690  17.9183060 120.8879610  44.7931890  18.4619320 119.6554360
  42.0479810  19.7179060 122.6669330  42.3733220  18.8842810 122.3271560
  42.8360140  20.2407580 122.8147660  38.7814600  13.7510540 108.7144390
  38.1568780  13.7470410 109.4397700  38.6944720  12.8841500 108.3180360
  37.7031680  14.6747170 115.6928160  38.0004010  15.5810000 115.6120180
  38.2517240  14.1865950 115.0787730  35.4570000  19.2533410 111.5619810
  35.2310920  19.0370580 112.4666430  34.6762530  19.6861870 111.2165780
  42.6867760  19.2596780 110.1610460  42.0876650  19.9832580 109.9774080
  43.2347370  19.1973560 109.3786910  37.8969210  20.1518990 122.2280080
  37.8012810  19.2113720 122.0780480  38.7401190  20.3734060 121.8328150
  41.2932630  17.8960320 112.1913740  41.6862200  18.2132520 111.3782430
  41.6549480  17.0172200 112.3058260  33.0279750  16.5632660 120.3813860
  32.6343140  17.4107870 120.5886640  32.3398150  15.9259030 120.5722500
  39.6024800  16.6467630 123.4510600  38.9123120  16.4539830 124.0856690
  40.3457100  16.9302270 123.9834900  30.3296800  14.4861120 114.4143940
  30.0409850  15.0563980 115.1268920  31.0742560  14.0065570 114.7775170
  30.5167030  18.4281240 105.6246660  30.4341700  19.3712000 105.7661650
  30.1650090  18.2856150 104.7459010  41.8787770  20.4866070 116.2864520
  41.1468890  20.9952880 116.6354620  41.4812110  19.6696050 115.9853300
  38.3165160  17.1620270 114.6917010  38.3201220  16.7210220 113.8421550
  39.2116280  17.4837600 114.7988830  34.1667540  17.0446760 113.6511220
  33.8267590  17.5221990 114.4078270  33.4044860  16.5911880 113.2912320
  38.3785310  18.1632350 107.6823770  38.4998130  18.1218830 108.6309590
  37.9933820  19.0256500 107.5270500  42.3413680  15.9399750 115.6987460
  42.3586420  16.3908400 116.5429310  42.0929260  15.0405390 115.9120900
  37.3906810  20.4733490 107.0807070  36.8223710  20.0251740 106.4542980
  38.0995810  20.8326270 106.5472220  45.7684430  13.3531930 121.5373840
  46.0930200  12.6221590 122.0631820  45.8040940  13.0345570 120.6354830
  32.4675990  24.3745510 120.9573800  32.0830780  23.7339180 121.5556760
  32.7788180  25.0781630 121.5268530  38.6173130  21.2222050 116.4382420
  38.9843260  20.7480620 117.1843760  38.4278190  22.0963620 116.7790760
  31.4813620  15.9665740 112.5675890  31.1960540  15.6021410 113.4054510
  31.4192480  15.2346200 111.9539030  36.4072500  20.2630690 118.7566630
  36.1029570  21.1422670 118.9816990  37.3618960  20.3230480 118.7924070
  34.9354290  24.4691680 109.3533480  34.1616550  23.9289300 109.1932200
  35.6648920  23.9498290 109.0151240  45.6942270  23.4657040 115.1459870
  46.4141390  23.9612330 114.7555980  45.4924090  22.7874930 114.5013740
  41.1552210  14.8595000 109.2889260  40.3416820  14.3608170 109.2134570
  40.9614160  15.6993250 108.8725610  41.0761070  23.5366100 121.0328870
  41.0098380  22.6161770 120.7786460  40.4466210  23.6341540 121.7473510
  43.8700600  19.2314650 107.5851420  44.7580220  19.5431880 107.4102760
  43.8405690  18.3586900 107.1932000  34.9791690  24.1372060 112.9912290
  35.4970360  23.3340320 112.9369180  34.5275710  24.0751200 113.8329120
  39.8661190  25.4038340 108.2639590  40.2076890  26.1480570 107.7682910
  39.0373900  25.7169460 108.6264420  32.4636230  21.1033430 119.9037990
  32.1051170  21.7687280 120.4911330  32.1690790  20.2716980 120.2750610
  35.6649350  21.5617670 122.7877540  35.3649490  21.7074850 121.8905360
  36.4360590  21.0022960 122.6950930  41.0077800  26.3586670 120.7832670
  41.0222340  25.4267630 120.5651580  40.3002900  26.4446430 121.4222440
  46.1414870  20.5426490 107.0531280  46.0578590  20.9740710 106.2027720
  46.8609060  21.0024840 107.4858100  47.2189010  22.9994010 120.1301250
  46.4937200  23.5922790 119.9330640  47.7464470  22.9917550 119.3314620
  47.1702120  27.3968750 109.7813410  46.5278280  26.7424370 110.0557130
  46.7832780  27.8023840 109.0054080  42.7488600  24.7254180 113.6285100
  43.1012420  24.1282310 112.9686470  41.8650930  24.3998410 113.7993350
  38.8351880  25.4851870 111.0355510  39.5223010  26.0321080 111.4163100
  38.0484300  26.0292600 111.0705120  30.9744280  21.1024690 106.5272590
  31.8439130  21.3849490 106.8108510  30.4834600  21.9160560 106.4121400
  38.1379090  22.4897900 110.6480870  38.5941870  23.3003150 110.8741060
  37.7867300  22.1721040 111.4799360  40.4411700  28.0004240 117.8773170
  41.0853920  28.2063620 118.5546590  40.8041140  27.2392640 117.4244020
  34.0390870  12.8335550 111.1203390  33.9105500  12.8253450 112.0688310
  33.2152890  13.1718640 110.7694400  41.7143780  26.0036590 116.5950620
  42.3566010  25.3029750 116.7082790  42.2393130  26.7835030 116.4147510
  45.5599500  26.2885210 106.3189760  45.3337080  25.5715650 106.9114400
  45.1695700  26.0397650 105.4811510  43.4881400  26.8031490 119.7986680
  43.8237640  27.3898180 120.4764600  42.5681740  26.6724200 120.0284470
  31.3415530  30.3152070 107.0934220  31.7013170  30.9141410 106.4391490
  31.2007870  30.8611960 107.8669250  31.0384800  14.5926670 120.5810090
  30.3243320  14.7923590 121.1862700  31.4579840  13.8166240 120.9524890
  45.1415750  24.2057150 107.9803920  44.8537450  24.6669840 108.7681800
  45.9367920  23.7454920 108.2488140  31.3257390  28.5806930 121.5676620
  31.4348510  27.6401670 121.4272010  30.6737950  28.8461680 120.9190350
  39.3169980  26.8522820 122.9674740  38.9966850  26.1332060 123.5120430
  38.6428340  27.5277890 123.0410800  37.3584150  27.6983270 107.9107890
  37.3494250  28.4312960 107.2952400  36.4382510  27.4514850 108.0034850
  32.9590790  22.9198160 108.6554650  32.3518740  23.6597060 108.6649950
  33.4340140  23.0097520 107.8292850  42.5323580  17.0848980 118.3311540
  42.9004400  16.2644190 118.6591110  41.6721780  17.1450870 118.7467190
  45.8985610  16.0405920 109.1399100  45.2698770  16.1451590 108.4257330
  45.4037530  16.2602700 109.9292980  40.3443750  27.7611510 106.5733080
  40.4455730  27.5575500 105.6435060  39.4445490  27.5069790 106.7780860
  37.8669640  18.3191870 110.5556980  37.1585790  18.7878210 110.9970590
  38.1514120  17.6613880 111.1902170  39.4925570  19.7388570 118.5549510
  39.9910820  20.2134390 119.2201360  39.6348520  18.8152090 118.7619540
  41.8985070  15.0442530 111.9952770  41.7752850  15.0628660 111.0462280
  42.8469630  15.0921470 112.1151170  38.9861860  30.2797830 111.2680750
  39.2403360  30.2419220 110.3460120  38.0374340  30.1531160 111.2609000
  36.0704660  16.6276950 107.9307690  36.9195190  17.0647100 107.8647880
  35.7035930  16.9397210 108.7579750  46.6992430  15.9556530 119.3977900
  46.1966030  16.6961930 119.7371710  47.5149090  16.3440530 119.0814690
  44.9914440  21.1989710 112.8439260  44.0504580  21.2139940 113.0186950
  45.3058510  20.4125670 113.2899560  34.9696080  22.8809310 106.4043220
  35.7359350  22.7690670 106.9668650  35.0470770  22.1847280 105.7519990
  33.6642840  20.3134380 107.0876110  33.7446430  19.3661890 107.1993510
  34.5562590  20.6441260 107.1936770  46.9940020  28.3698560 114.5193520
  47.1187440  29.1929730 114.9917330  47.8605580  28.1589290 114.1717670
  34.4657550  30.4629770 114.1910650  35.2020030  29.9145230 114.4619220
  34.8498470  31.3285780 114.0516640  31.3503030  26.5303340 110.0652160
  30.4242810  26.7724480 110.0557570  31.8159460  27.3577600 109.9436910
  33.4715830  29.6475840 123.3796230  34.2728560  29.9687890 123.7931630
  32.9567650  29.2871420 124.1016140  37.5759860  29.6360080 106.0136220
  38.3688470  29.9248910 105.5618010  37.0564210  29.2052250 105.3348700
  42.3080460  25.7555710 123.3271640  41.7018620  25.7787310 122.5867390
  42.0034570  25.0238750 123.8638890  43.7380830  29.4836000 121.9381050
  44.6902580  29.3994020 121.8881290  43.5909050  30.1477710 122.6114840
  46.6290030  28.8630210 107.4372960  46.3431540  28.4495350 106.6227140
  46.4309580  29.7917920 107.3173480  31.1913640  22.1349300 122.3232280
  31.6952660  21.5556580 122.8948510  30.4521060  22.4189530 122.8608650
  38.0937260  24.8563490 105.8778570  37.9887900  24.2415840 106.6039950
  37.9261480  24.3329380 105.0941580  38.2451580  23.5420290 121.8567800
  37.4797250  24.1105290 121.7722470  38.4267540  23.2496500 120.9636030
  41.3339990  23.9183520 106.4820560  40.7850090  24.3652820 107.1263300
  41.9559250  23.4132770 107.0058230  45.3874930  25.2725620 122.4142820
  46.1284400  25.6101380 121.9110280  44.6247610  25.4417680 121.8612590
  33.2236720  20.2778890 123.2182350  33.2642060  19.9792760 124.1267580
  34.0782220  20.6786500 123.0589870  37.0015110  22.8774440 108.3785860
  37.4231530  22.7114310 109.2217250  37.1265950  22.0674670 107.8841000
  35.1642530  18.8570990 121.1856840  34.6338990  18.3661940 120.5580180
  35.8330600  19.2855190 120.6514770  39.5142750  21.9012050 105.6262960
  40.0348410  21.1861070 105.2604110  40.1611150  22.5397920 105.9263470
  44.0620590  23.3240450 120.9498030  44.4761610  23.4785530 121.7988450
  43.1271590  23.4495670 121.1123810  44.5342760  20.6636610 122.9537180
  45.1163530  19.9088930 122.8657660  44.7104530  21.1944050 122.1768660
  35.6514830  15.8233360 121.2654130  35.5571700  15.2054110 120.5405000
  35.0712220  16.5499650 121.0384040  38.4176270  14.3806600 118.2981520
  37.9693570  14.4030860 117.4527070  37.7841470  13.9825620 118.8951820
  38.8235820  23.2760930 118.9193960  39.2423930  24.1193660 118.7470200
  37.9044450  23.4132970 118.6900740  41.1599720  21.0077110 120.3031800
  41.2795930  20.4118250 121.0426640  42.0193720  21.0446800 119.8833100
  43.4987620  21.5614300 118.8794310  42.9722840  22.0856920 118.2759450
  43.8418960  22.1941690 119.5104040  35.8974010  18.9507670 105.3244020
  35.6963070  18.0875030 105.6857360  35.7266060  18.8641030 104.3865620
  36.6743240  29.5813940 120.0351690  36.1364330  30.3060000 119.7160390
  36.9277200  29.1044280 119.2449030  37.9268490  17.5498460 121.5607620
  38.5168180  17.2414310 122.2485440  37.1088730  17.0778210 121.7167520
  42.7461920  17.1664270 121.7940640  42.0577440  16.5045810 121.7290630
  43.4667940  16.7202540 122.2389100  43.3762320  13.7615900 107.8530900
  43.6564610  12.9183800 108.2090320  42.6028050  13.9939010 108.3669650
  34.6956810  16.0508290 105.3121900  34.9982710  16.0575720 104.4041050
  35.4351400  15.7006150 105.8089560  39.5305450  30.8165150 120.2938340
  39.4564150  31.7200290 120.6010710  38.6284290  30.4977050 120.2660410
  37.9141740  14.9942910 106.2978100  37.5663740  14.3166900 105.7180550
  38.1154510  14.5332420 107.1121490  40.0790780  29.9823660 107.9164700
  40.9741570  30.3208630 107.9383460  40.1108410  29.2603070 107.2888980
  33.7186940  25.3550710 106.1451700  34.1561810  25.8980380 106.8009280
  34.2034670  24.5297660 106.1548040  30.9332740  28.1439740 113.5971960
  31.2635750  27.2760800 113.3650600  31.3623740  28.3498260 114.4276920
  35.5294660  26.4748750 111.2573930  35.2290200  26.3513720 112.1577840
  35.4232150  25.6157340 110.8489660  31.4222950  29.0110330 116.3353590
  30.9853940  29.1911130 117.1677740  31.9900630  29.7684950 116.1935310
  47.0585130  28.5127330 120.6230900  46.4587120  28.5719890 119.8794820
  47.1879030  27.5732310 120.7527750  48.2986580  26.2545150 105.9600610
  47.4679540  26.3221800 106.4307840  48.4758410  27.1449270 105.6567470
  47.7543040  22.9992630 108.4634810  48.5161950  23.5689280 108.5694500
  47.7697410  22.4319830 109.2343120  31.2547380  21.5230560 112.6942470
  30.5996220  21.2542200 112.0502170  32.0925330  21.4135040 112.2444450
  48.7603010  23.8542730 113.3076740  49.1311840  23.0710050 112.9012710
  49.4004940  24.5431830 113.1294040  45.7436770  25.2379310 118.7207060
  44.9296610  25.6676470 118.9832850  46.1510970  25.8497720 118.1076110
  47.8062210  23.2927000 105.6207330  48.0811050  24.2005880 105.4926550
  47.6172950  23.2289530 106.5569320  44.2037820  16.3171850 106.9160960
  44.6222700  16.1302830 106.0757620  43.8973880  15.4650900 107.2263890
  47.7027550  21.2295990 110.6136760  47.3271150  20.4623920 110.1818050
  46.9730670  21.6118690 111.1011690  32.2923310  21.9083130 117.2345810
  32.6596350  21.8210530 118.1141830  31.7234130  21.1449680 117.1352670
  47.0927170  20.3767510 120.2476280  46.8613260  20.1480260 119.3474230
  47.3531720  21.2967060 120.2021170  31.8439310  18.8192220 121.1404230
  30.9495360  18.7858980 121.4797940  32.3836860  19.0179010 121.9055480
  45.5315240  15.6023940 123.0255980  46.4085420  15.6107340 123.4089980
  45.5436080  14.8654780 122.4148330  30.4685460  18.7329490 108.6367800
  29.5649540  18.9959690 108.4619460  30.9526080  19.0040660 107.8567760
  46.9778510  19.4553480 113.9144000  47.5015990  18.9616130 113.2834170
  47.5637930  19.5903840 114.6591570  47.1568230  19.5393350 117.4363550
  46.2070940  19.5056890 117.5508540  47.3381240  20.4493460 117.2013320
  33.0112670  17.7895030 106.5462180  33.7204370  17.3678250 106.0609460
  32.2952610  17.8570260 105.9145530  32.6586830  13.8434360 105.5864830
  33.3814960  14.3843300 105.9046050  32.9311350  13.5697780 104.7106370
  46.4678480  18.7126830 109.8536410  46.9637600  18.4797700 110.6385290
  46.2694550  17.8738670 109.4374050  32.3479020  13.0940550 115.4887450
  32.9955210  12.5437930 115.0482610  32.7680860  13.3483700 116.3103260
  47.8965640  17.3487780 112.3874090  47.7864920  17.1943820 113.3256360
  48.6573230  16.8208720 112.1449500  46.2431360  13.2881910 118.8457090
  46.8803580  13.9016050 119.2116280  46.3906250  13.3242570 117.9006320
  48.7855910  15.1795700 105.6280230  49.7105220  15.0476880 105.4198520
  48.7631700  15.2588520 106.5816680  48.8594400  15.9506360 108.2536940
  48.0645900  15.8851480 108.7829850  49.0637680  16.8857000 108.2422290
  45.8012820  29.9897910 112.2475330  46.3971890  29.6682480 111.5709750
  46.0590970  29.5169730 113.0388600  32.1011020  13.2496220 118.2312770
  31.7525840  13.7060040 118.9970950  31.7698720  12.3553350 118.3135200
  33.7075390  26.4215820 122.3965960  33.6645020  26.0508730 123.2780420
  33.8386400  27.3593390 122.5367780  37.4081420  27.9775410 117.9975680
  37.1672780  28.2449970 117.1106200  38.3484060  28.1481140 118.0526540
  39.6135840  14.4408100 121.7532190  39.5524730  15.0329930 122.5027600
  40.5536220  14.3334060 121.6082450  42.2510400  14.0978160 121.3924480
  42.8650810  14.4157450 120.7305560  42.7959960  13.6126750 122.0120340
  48.6685580  29.9969790 118.7986320  48.1743860  30.3938660 118.0813450
  48.0598870  29.3719000 119.1923600  32.7731660  12.7772420 121.5063540
  33.3214650  12.5960470 120.7429650  32.8386970  11.9866530 122.0419850
  33.5463420  29.3678070 119.5163740  32.9523740  29.2362770 120.2553780
  33.5387260  28.5316210 119.0505840  42.9918440  12.6610300 117.7193770
  42.1178280  12.9945410 117.5166700  42.8829190  12.1883480 118.5445640
  43.8990420  14.8681170 119.1035490  43.5703780  14.0532930 118.7237220
  44.8472720  14.8250980 118.9801180  46.3525030  30.6393210 116.0773060
  45.8928000  31.3909020 115.7031080  45.7237490  29.9199680 116.0187860
  33.1775650  26.7336450 118.4671780  32.4509710  26.1141740 118.3997730
  33.2384800  27.1277060 117.5969860  36.7820750  28.9481450 115.2521190
  37.2985770  28.3368810 114.7269450  37.4318130  29.4510230 115.7432200
  39.5216250  29.8389940 116.0790170  39.8094060  29.5844240 115.2023180
  40.0339470  29.2867300 116.6695740  40.7393260  13.5780140 116.6586680
  39.9565050  14.0525640 116.9383440  40.4456190  12.6734970 116.5499860
  45.2914330  14.2803240 114.7035770  45.7322420  14.2248340 113.8557370
  45.0221920  15.1961250 114.7745950  47.1552900  13.9118480 112.7144590
  47.0941300  12.9679700 112.5675610  47.9344930  14.0198570 113.2598050
  31.4605650  30.0510840 111.6768540  31.2927690  29.4181520 112.3750430
  30.5940160  30.2570240 111.3262730  32.0833670  13.8827620 109.1800400
  32.8413030  13.9956500 108.6064430  31.6210840  14.7196820 109.1343830
  38.6247480  15.9966890 112.1702710  37.8121990  15.6223780 111.8298590
  39.1289120  15.2411970 112.4723900  43.1272460  12.6609340 113.4085780
  43.7301830  13.2329550 113.8834300  42.3865450  13.2248780 113.1859680
  46.2707060  13.0630900 108.6826060  46.4657690  13.9614350 108.9493490
  45.4836930  12.8317980 109.1759010  33.0668350  28.7444070 109.1218680
  32.5415970  29.1252100 108.4180640  32.9912930  29.3694840 109.8428390
  34.4558820  14.4091670 107.7202370  34.9851580  13.6221470 107.5910320
  35.0887140  15.0882860 107.9537900  36.6496660  14.1466810 110.7747760
  36.0199400  13.4454120 110.9417890  36.1101800  14.9070940 110.5580920
  39.5888610  30.7606040 123.4458370  40.5155920  30.5250310 123.4894330
  39.5739040  31.5878040 122.9644400  47.8233670  30.3031610 110.4432620
  47.9985860  29.6169350 109.7993540  47.1255240  30.8278660 110.0509290
  36.7752220  13.4250790 123.2100250  36.4936490  13.9284390 122.4461070
  37.1571920  12.6272540 122.8442380  35.6661320  30.6926450 107.9967930
  36.3980140  30.4085730 107.4491820  35.9254990  30.4539730 108.8867310
  34.8276110  26.8091180 108.0014260  34.1984990  27.2776280 108.5500090
  34.9423940  25.9640400 108.4360450  43.3767680  12.8404370 123.7880720
  43.2633130  13.1598980 124.6832240  44.1937420  13.2416880 123.4918000
  46.1566170  29.9875900 123.2699410  46.9491490  29.4925130 123.0625370
  46.4499320  30.6666040 123.8775020  42.2825830  20.8596840  94.1515460
  42.2019880  19.9451450  93.8807170  41.8690250  21.3563910  93.4455170
  40.4143870  22.6375860  96.0324730  39.6385970  22.1576300  96.3223300
  41.0656800  21.9581510  95.8580890  34.4309700  22.9495670  96.9100490
  33.5994580  22.6944380  97.3097000  35.0390680  23.0206440  97.6458410
  34.4110960  26.9835760  97.1058510  34.7139000  26.0933500  96.9268730
  35.1554550  27.5405980  96.8780760  32.8401650  17.9097560  90.6942880
  31.9518350  18.2513530  90.5922760  33.1242840  17.7097880  89.8023710
  30.8034660  20.5103210  96.5782580  31.3750770  19.7425410  96.5786220
  30.8036200  20.8091970  95.6689190  32.0459530  15.9187570  98.3651510
  31.8662370  15.0213320  98.6454270  31.6439610  16.4659440  99.0398460
  40.8858030  18.1203430  96.2663820  41.2622850  17.2475310  96.1537490
  40.7877540  18.4562130  95.3754260  35.0163040  16.4929060  91.7281260
  35.1229790  17.3932790  92.0350020  34.1055400  16.4447030  91.4375910
  44.6682150  15.6153870  93.1992160  45.4891770  15.1250440  93.2417640
  44.7016230  16.2051530  93.9524000  32.6646200  18.4148070  96.9733850
  33.3456310  18.6786440  97.5921250  32.3494250  17.5748940  97.3071860
  36.8570770  19.4615430  96.0606440  37.3648990  19.9596400  96.7011460
  37.3884010  18.6850630  95.8845800  48.9581700  17.6320620  99.7635790
  48.2533870  18.0202330  99.2450900  49.2239620  18.3270910 100.3656720
  35.1406870  14.1013990 100.3269860  35.1425310  14.6186380  99.5215760
  34.3111180  13.6244170 100.3039790  41.5277960  24.2133300  91.8259760
  40.9095230  24.6782750  91.2622480  42.0401210  24.9060780  92.2429270
  36.3909720  23.7409170  98.5043360  36.0579100  24.3678090  99.1464430
  36.5676400  24.2671050  97.7245030  44.9043630  17.5554250  95.9719700
  44.1999200  17.8439140  96.5522810  45.2655790  18.3654360  95.6119260
  34.8222200  15.8123950  98.3340310  35.1639010  16.6566000  98.0394180
  33.8838010  15.9607690  98.4505650  35.6028820  25.7089970 100.3192540
  36.2202820  26.3841050 100.0376990  34.7421940  26.1177950 100.2280040
  30.8961160  24.8989830  89.1999390  30.5189140  25.3876930  88.4684290
  31.1534230  25.5715110  89.8305920  47.9730550  17.0009040  96.3628910
  47.0255460  17.0348020  96.4944340  48.2980540  17.8147990  96.7478270
  38.5050090  13.3006220  94.6584900  38.8125070  12.7453110  93.9420400
  37.5750790  13.4350680  94.4757890  43.4550590  23.9203350  98.2774970
  43.8719380  23.7063460  97.4428430  44.1790410  24.1776140  98.8483590
  40.8930850  21.3655050  91.3945020  39.9660130  21.2992430  91.6233490
  41.0455670  22.3035180  91.2800260  40.8799930  17.6372050  88.3912180
  39.9403600  17.7986010  88.4764640  41.1983190  18.3557730  87.8448170
  47.4012690  22.3190570  98.3691210  46.5731320  22.3883660  97.8941340
  47.9963170  22.9044880  97.9007040  44.9228140  22.9275350  91.8980270
  44.3040560  22.5894900  91.2506570  44.9052590  22.2835110  92.6059460
  44.3654700  19.1059890  99.3146080  43.9525880  19.9313600  99.5686070
  43.6330650  18.5204930  99.1222440  36.4987490  21.8919790  94.1764750
  36.0944490  21.1797040  93.6810650  36.5850610  21.5473030  95.0652790
  36.9669190  25.5787350  96.3403960  36.6697480  24.9732820  95.6611740
  37.9169010  25.6164660  96.2293320  35.2116110  18.6663000  97.9563790
  35.7630700  18.7758340  97.1817040  35.7259620  19.0400600  98.6719020
  36.0587620  25.3169040 102.9911760  35.1616150  25.5409010 103.2385160
  36.0840490  25.4403980 102.0423160  43.0992840  22.1662160  88.9053020
  43.5386120  21.3284590  88.7590840  43.8121260  22.7991560  88.9917160
  34.8858840  22.1882360 101.5669130  34.7466610  23.0605160 101.9356530
  34.0040200  21.8455170 101.4217070  41.2088220  27.1058230  92.8734260
  41.6484130  27.8482560  92.4589650  41.1475110  27.3484800  93.7973220
  36.6839190  28.1304060 103.7754280  36.6554620  28.5347010 102.9082710
  36.5204160  27.2014420 103.6125880  46.6809980  13.4204970  87.2194060
  46.3682640  13.5131800  88.1193130  47.4422450  13.9986000  87.1691490
  33.1992120  20.7864770  91.6771400  33.0789720  21.5126860  91.0652670
  32.8893010  20.0167680  91.1999310  30.8377490  23.9579910  97.4840040
  30.9157910  24.0928680  96.5395760  31.4519170  23.2495800  97.6768160
  32.0825120  25.6580100  93.8946220  31.6753200  25.7994690  93.0399820
  32.9738130  25.3740260  93.6917430  36.3546780  29.8725880  92.0068890
  36.1789260  28.9561420  91.7936690  35.5002520  30.2313170  92.2466690
  47.8911270  18.1576470 103.1968200  47.2755540  18.6656140 102.6683660
  47.5707690  17.2574800 103.1394140  30.8937010  24.9994080 100.0234500
  31.0568050  24.5299440  99.2053870  31.3589460  24.4917640 100.6883340
  35.6655780  14.1299840  95.0595070  35.2223930  14.9109380  94.7279590
  36.2240770  14.4529730  95.7666010  39.9525590  16.9968360 100.6630390
  39.4904960  17.2051380 101.4750330  39.5503700  16.1827710 100.3601060
  44.9530100  18.2177310 101.7927050  44.1023690  17.9183060 102.1136120
  44.7931890  18.4619320 100.8810870  42.0479810  19.7179060 103.8925840
  42.3733220  18.8842810 103.5528070  42.8360140  20.2407580 104.0404170
  38.7814600  13.7510540  89.9400900  38.1568780  13.7470410  90.6654210
  38.6944720  12.8841500  89.5436870  37.7031680  14.6747170  96.9184670
  38.0004010  15.5810000  96.8376690  38.2517240  14.1865950  96.3044240
  35.4570000  19.2533410  92.7876320  35.2310920  19.0370580  93.6922940
  34.6762530  19.6861870  92.4422290  42.6867760  19.2596780  91.3866970
  42.0876650  19.9832580  91.2030590  43.2347370  19.1973560  90.6043420
  37.8969210  20.1518990 103.4536590  37.8012810  19.2113720 103.3036990
  38.7401190  20.3734060 103.0584660  41.2932630  17.8960320  93.4170250
  41.6862200  18.2132520  92.6038940  41.6549480  17.0172200  93.5314770
  33.0279750  16.5632660 101.6070370  32.6343140  17.4107870 101.8143150
  32.3398150  15.9259030 101.7979010  39.6024800  16.6467630 104.6767110
  38.9123120  16.4539830 105.3113200  40.3457100  16.9302270 105.2091410
  30.3296800  14.4861120  95.6400450  30.0409850  15.0563980  96.3525430
  31.0742560  14.0065570  96.0031680  30.5167030  18.4281240  86.8503170
  30.4341700  19.3712000  86.9918160  30.1650090  18.2856150  85.9715520
  41.8787770  20.4866070  97.5121030  41.1468890  20.9952880  97.8611130
  41.4812110  19.6696050  97.2109810  38.3165160  17.1620270  95.9173520
  38.3201220  16.7210220  95.0678060  39.2116280  17.4837600  96.0245340
  34.1667540  17.0446760  94.8767730  33.8267590  17.5221990  95.6334780
  33.4044860  16.5911880  94.5168830  38.3785310  18.1632350  88.9080280
  38.4998130  18.1218830  89.8566100  37.9933820  19.0256500  88.7527010
  42.3413680  15.9399750  96.9243970  42.3586420  16.3908400  97.7685820
  42.0929260  15.0405390  97.1377410  37.3906810  20.4733490  88.3063580
  36.8223710  20.0251740  87.6799490  38.0995810  20.8326270  87.7728730
  45.7684430  13.3531930 102.7630350  46.0930200  12.6221590 103.2888330
  45.8040940  13.0345570 101.8611340  32.4675990  24.3745510 102.1830310
  32.0830780  23.7339180 102.7813270  32.7788180  25.0781630 102.7525040
  38.6173130  21.2222050  97.6638930  38.9843260  20.7480620  98.4100270
  38.4278190  22.0963620  98.0047270  31.4813620  15.9665740  93.7932400
  31.1960540  15.6021410  94.6311020  31.4192480  15.2346200  93.1795540
  36.4072500  20.2630690  99.9823140  36.1029570  21.1422670 100.2073500
  37.3618960  20.3230480 100.0180580  34.9354290  24.4691680  90.5789990
  34.1616550  23.9289300  90.4188710  35.6648920  23.9498290  90.2407750
  45.6942270  23.4657040  96.3716380  46.4141390  23.9612330  95.9812490
  45.4924090  22.7874930  95.7270250  41.1552210  14.8595000  90.5145770
  40.3416820  14.3608170  90.4391080  40.9614160  15.6993250  90.0982120
  41.0761070  23.5366100 102.2585380  41.0098380  22.6161770 102.0042970
  40.4466210  23.6341540 102.9730020  43.8700600  19.2314650  88.8107930
  44.7580220  19.5431880  88.6359270  43.8405690  18.3586900  88.4188510
  34.9791690  24.1372060  94.2168800  35.4970360  23.3340320  94.1625690
  34.5275710  24.0751200  95.0585630  39.8661190  25.4038340  89.4896100
  40.2076890  26.1480570  88.9939420  39.0373900  25.7169460  89.8520930
  32.4636230  21.1033430 101.1294500  32.1051170  21.7687280 101.7167840
  32.1690790  20.2716980 101.5007120  35.6649350  21.5617670 104.0134050
  35.3649490  21.7074850 103.1161870  36.4360590  21.0022960 103.9207440
  46.1414870  20.5426490  88.2787790  46.0578590  20.9740710  87.4284230
  46.8609060  21.0024840  88.7114610  47.2189010  22.9994010 101.3557760
  46.4937200  23.5922790 101.1587150  47.7464470  22.9917550 100.5571130
  42.7488600  24.7254180  94.8541610  43.1012420  24.1282310  94.1942980
  41.8650930  24.3998410  95.0249860  38.8351880  25.4851870  92.2612020
  39.5223010  26.0321080  92.6419610  38.0484300  26.0292600  92.2961630
  30.9744280  21.1024690  87.7529100  31.8439130  21.3849490  88.0365020
  30.4834600  21.9160560  87.6377910  38.1379090  22.4897900  91.8737380
  38.5941870  23.3003150  92.0997570  37.7867300  22.1721040  92.7055870
  34.0390870  12.8335550  92.3459900  33.9105500  12.8253450  93.2944820
  33.2152890  13.1718640  91.9950910  45.5599500  26.2885210  87.5446270
  45.3337080  25.5715650  88.1370910  45.1695700  26.0397650  86.7068020
  31.3415530  30.3152070  88.3190730  31.7013170  30.9141410  87.6648000
  31.2007870  30.8611960  89.0925760  31.0384800  14.5926670 101.8066600
  30.3243320  14.7923590 102.4119210  31.4579840  13.8166240 102.1781400
  45.1415750  24.2057150  89.2060430  44.8537450  24.6669840  89.9938310
  45.9367920  23.7454920  89.4744650  31.3257390  28.5806930 102.7933130
  31.4348510  27.6401670 102.6528520  30.6737950  28.8461680 102.1446860
  39.3169980  26.8522820 104.1931250  38.9966850  26.1332060 104.7376940
  38.6428340  27.5277890 104.2667310  37.3584150  27.6983270  89.1364400
  37.3494250  28.4312960  88.5208910  36.4382510  27.4514850  89.2291360
  32.9590790  22.9198160  89.8811160  32.3518740  23.6597060  89.8906460
  33.4340140  23.0097520  89.0549360  42.5323580  17.0848980  99.5568050
  42.9004400  16.2644190  99.8847620  41.6721780  17.1450870  99.9723700
  45.8985610  16.0405920  90.3655610  45.2698770  16.1451590  89.6513840
  45.4037530  16.2602700  91.1549490  40.3443750  27.7611510  87.7989590
  40.4455730  27.5575500  86.8691570  39.4445490  27.5069790  88.0037370
  37.8669640  18.3191870  91.7813490  37.1585790  18.7878210  92.2227100
  38.1514120  17.6613880  92.4158680  39.4925570  19.7388570  99.7806020
  39.9910820  20.2134390 100.4457870  39.6348520  18.8152090  99.9876050
  41.8985070  15.0442530  93.2209280  41.7752850  15.0628660  92.2718790
  42.8469630  15.0921470  93.3407680  38.9861860  30.2797830  92.4937260
  39.2403360  30.2419220  91.5716630  38.0374340  30.1531160  92.4865510
  36.0704660  16.6276950  89.1564200  36.9195190  17.0647100  89.0904390
  35.7035930  16.9397210  89.9836260  46.6992430  15.9556530 100.6234410
  46.1966030  16.6961930 100.9628220  47.5149090  16.3440530 100.3071200
  44.9914440  21.1989710  94.0695770  44.0504580  21.2139940  94.2443460
  45.3058510  20.4125670  94.5156070  34.9696080  22.8809310  87.6299730
  35.7359350  22.7690670  88.1925160  35.0470770  22.1847280  86.9776500
  33.6642840  20.3134380  88.3132620  33.7446430  19.3661890  88.4250020
  34.5562590  20.6441260  88.4193280  34.4657550  30.4629770  95.4167160
  35.2020030  29.9145230  95.6875730  34.8498470  31.3285780  95.2773150
  31.3503030  26.5303340  91.2908670  30.4242810  26.7724480  91.2814080
  31.8159460  27.3577600  91.1693420  33.4715830  29.6475840 104.6052740
  34.2728560  29.9687890 105.0188140  32.9567650  29.2871420 105.3272650
  37.5759860  29.6360080  87.2392730  38.3688470  29.9248910  86.7874520
  37.0564210  29.2052250  86.5605210  42.3080460  25.7555710 104.5528150
  41.7018620  25.7787310 103.8123900  42.0034570  25.0238750 105.0895400
  31.1913640  22.1349300 103.5488790  31.6952660  21.5556580 104.1205020
  30.4521060  22.4189530 104.0865160  38.0937260  24.8563490  87.1035080
  37.9887900  24.2415840  87.8296460  37.9261480  24.3329380  86.3198090
  38.2451580  23.5420290 103.0824310  37.4797250  24.1105290 102.9978980
  38.4267540  23.2496500 102.1892540  41.3339990  23.9183520  87.7077070
  40.7850090  24.3652820  88.3519810  41.9559250  23.4132770  88.2314740
  45.3874930  25.2725620 103.6399330  46.1284400  25.6101380 103.1366790
  44.6247610  25.4417680 103.0869100  33.2236720  20.2778890 104.4438860
  33.2642060  19.9792760 105.3524090  34.0782220  20.6786500 104.2846380
  37.0015110  22.8774440  89.6042370  37.4231530  22.7114310  90.4473760
  37.1265950  22.0674670  89.1097510  35.1642530  18.8570990 102.4113350
  34.6338990  18.3661940 101.7836690  35.8330600  19.2855190 101.8771280
  39.5142750  21.9012050  86.8519470  40.0348410  21.1861070  86.4860620
  40.1611150  22.5397920  87.1519980  44.0620590  23.3240450 102.1754540
  44.4761610  23.4785530 103.0244960  43.1271590  23.4495670 102.3380320
  44.5342760  20.6636610 104.1793690  45.1163530  19.9088930 104.0914170
  44.7104530  21.1944050 103.4025170  35.6514830  15.8233360 102.4910640
  35.5571700  15.2054110 101.7661510  35.0712220  16.5499650 102.2640550
  38.4176270  14.3806600  99.5238030  37.9693570  14.4030860  98.6783580
  37.7841470  13.9825620 100.1208330  38.8235820  23.2760930 100.1450470
  39.2423930  24.1193660  99.9726710  37.9044450  23.4132970  99.9157250
  41.1599720  21.0077110 101.5288310  41.2795930  20.4118250 102.2683150
  42.0193720  21.0446800 101.1089610  43.4987620  21.5614300 100.1050820
  42.9722840  22.0856920  99.5015960  43.8418960  22.1941690 100.7360550
  35.8974010  18.9507670  86.5500530  35.6963070  18.0875030  86.9113870
  35.7266060  18.8641030  85.6122130  36.6743240  29.5813940 101.2608200
  36.1364330  30.3060000 100.9416900  36.9277200  29.1044280 100.4705540
  37.9268490  17.5498460 102.7864130  38.5168180  17.2414310 103.4741950
  37.1088730  17.0778210 102.9424030  42.7461920  17.1664270 103.0197150
  42.0577440  16.5045810 102.9547140  43.4667940  16.7202540 103.4645610
  43.3762320  13.7615900  89.0787410  43.6564610  12.9183800  89.4346830
  42.6028050  13.9939010  89.5926160  34.6956810  16.0508290  86.5378410
  34.9982710  16.0575720  85.6297560  35.4351400  15.7006150  87.0346070
  39.5305450  30.8165150 101.5194850  39.4564150  31.7200290 101.8267220
  38.6284290  30.4977050 101.4916920  37.9141740  14.9942910  87.5234610
  37.5663740  14.3166900  86.9437060  38.1154510  14.5332420  88.3378000
  40.0790780  29.9823660  89.1421210  40.9741570  30.3208630  89.1639970
  40.1108410  29.2603070  88.5145490  33.7186940  25.3550710  87.3708210
  34.1561810  25.8980380  88.0265790  34.2034670  24.5297660  87.3804550
  30.9332740  28.1439740  94.8228470  31.2635750  27.2760800  94.5907110
  31.3623740  28.3498260  95.6533430  35.5294660  26.4748750  92.4830440
  35.2290200  26.3513720  93.3834350  35.4232150  25.6157340  92.0746170
  31.4222950  29.0110330  97.5610100  30.9853940  29.1911130  98.3934250
  31.9900630  29.7684950  97.4191820  31.2547380  21.5230560  93.9198980
  30.5996220  21.2542200  93.2758680  32.0925330  21.4135040  93.4700960
  48.7603010  23.8542730  94.5333250  49.1311840  23.0710050  94.1269220
  49.4004940  24.5431830  94.3550550  45.7436770  25.2379310  99.9463570
  44.9296610  25.6676470 100.2089360  46.1510970  25.8497720  99.3332620
  47.8062210  23.2927000  86.8463840  48.0811050  24.2005880  86.7183060
  47.6172950  23.2289530  87.7825830  44.2037820  16.3171850  88.1417470
  44.6222700  16.1302830  87.3014130  43.8973880  15.4650900  88.4520400
  47.7027550  21.2295990  91.8393270  47.3271150  20.4623920  91.4074560
  46.9730670  21.6118690  92.3268200  32.2923310  21.9083130  98.4602320
  32.6596350  21.8210530  99.3398340  31.7234130  21.1449680  98.3609180
  47.0927170  20.3767510 101.4732790  46.8613260  20.1480260 100.5730740
  47.3531720  21.2967060 101.4277680  31.8439310  18.8192220 102.3660740
  30.9495360  18.7858980 102.7054450  32.3836860  19.0179010 103.1311990
  45.5315240  15.6023940 104.2512490  46.4085420  15.6107340 104.6346490
  45.5436080  14.8654780 103.6404840  30.4685460  18.7329490  89.8624310
  29.5649540  18.9959690  89.6875970  30.9526080  19.0040660  89.0824270
  46.9778510  19.4553480  95.1400510  47.5015990  18.9616130  94.5090680
  47.5637930  19.5903840  95.8848080  47.1568230  19.5393350  98.6620060
  46.2070940  19.5056890  98.7765050  47.3381240  20.4493460  98.4269830
  33.0112670  17.7895030  87.7718690  33.7204370  17.3678250  87.2865970
  32.2952610  17.8570260  87.1402040  32.6586830  13.8434360  86.8121340
  33.3814960  14.3843300  87.1302560  32.9311350  13.5697780  85.9362880
  46.4678480  18.7126830  91.0792920  46.9637600  18.4797700  91.8641800
  46.2694550  17.8738670  90.6630560  32.3479020  13.0940550  96.7143960
  32.9955210  12.5437930  96.2739120  32.7680860  13.3483700  97.5359770
  47.8965640  17.3487780  93.6130600  47.7864920  17.1943820  94.5512870
  48.6573230  16.8208720  93.3706010  46.2431360  13.2881910 100.0713600
  46.8803580  13.9016050 100.4372790  46.3906250  13.3242570  99.1262830
  48.7855910  15.1795700  86.8536740  49.7105220  15.0476880  86.6455030
  48.7631700  15.2588520  87.8073190  48.8594400  15.9506360  89.4793450
  48.0645900  15.8851480  90.0086360  49.0637680  16.8857000  89.4678800
  32.1011020  13.2496220  99.4569280  31.7525840  13.7060040 100.2227460
  31.7698720  12.3553350  99.5391710  33.7075390  26.4215820 103.6222470
  33.6645020  26.0508730 104.5036930  33.8386400  27.3593390 103.7624290
  37.4081420  27.9775410  99.2232190  37.1672780  28.2449970  98.3362710
  38.3484060  28.1481140  99.2783050  39.6135840  14.4408100 102.9788700
  39.5524730  15.0329930 103.7284110  40.5536220  14.3334060 102.8338960
  42.2510400  14.0978160 102.6180990  42.8650810  14.4157450 101.9562070
  42.7959960  13.6126750 103.2376850  32.7731660  12.7772420 102.7320050
  33.3214650  12.5960470 101.9686160  32.8386970  11.9866530 103.2676360
  33.5463420  29.3678070 100.7420250  32.9523740  29.2362770 101.4810290
  33.5387260  28.5316210 100.2762350  42.9918440  12.6610300  98.9450280
  42.1178280  12.9945410  98.7423210  42.8829190  12.1883480  99.7702150
  43.8990420  14.8681170 100.3292000  43.5703780  14.0532930  99.9493730
  44.8472720  14.8250980 100.2057690  33.1775650  26.7336450  99.6928290
  32.4509710  26.1141740  99.6254240  33.2384800  27.1277060  98.8226370
  36.7820750  28.9481450  96.4777700  37.2985770  28.3368810  95.9525960
  37.4318130  29.4510230  96.9688710  40.7393260  13.5780140  97.8843190
  39.9565050  14.0525640  98.1639950  40.4456190  12.6734970  97.7756370
  45.2914330  14.2803240  95.9292280  45.7322420  14.2248340  95.0813880
  45.0221920  15.1961250  96.0002460  47.1552900  13.9118480  93.9401100
  47.0941300  12.9679700  93.7932120  47.9344930  14.0198570  94.4854560
  31.4605650  30.0510840  92.9025050  31.2927690  29.4181520  93.6006940
  30.5940160  30.2570240  92.5519240  32.0833670  13.8827620  90.4056910
  32.8413030  13.9956500  89.8320940  31.6210840  14.7196820  90.3600340
  38.6247480  15.9966890  93.3959220  37.8121990  15.6223780  93.0555100
  39.1289120  15.2411970  93.6980410  43.1272460  12.6609340  94.6342290
  43.7301830  13.2329550  95.1090810  42.3865450  13.2248780  94.4116190
  46.2707060  13.0630900  89.9082570  46.4657690  13.9614350  90.1750000
  45.4836930  12.8317980  90.4015520  33.0668350  28.7444070  90.3475190
  32.5415970  29.1252100  89.6437150  32.9912930  29.3694840  91.0684900
  34.4558820  14.4091670  88.9458880  34.9851580  13.6221470  88.8166830
  35.0887140  15.0882860  89.1794410  36.6496660  14.1466810  92.0004270
  36.0199400  13.4454120  92.1674400  36.1101800  14.9070940  91.7837430
  39.5888610  30.7606040 104.6714880  40.5155920  30.5250310 104.7150840
  39.5739040  31.5878040 104.1900910  36.7752220  13.4250790 104.4356760
  36.4936490  13.9284390 103.6717580  37.1571920  12.6272540 104.0698890
  35.6661320  30.6926450  89.2224440  36.3980140  30.4085730  88.6748330
  35.9254990  30.4539730  90.1123820  34.8276110  26.8091180  89.2270770
  34.1984990  27.2776280  89.7756600  34.9423940  25.9640400  89.6616960
  43.3767680  12.8404370 105.0137230  43.2633130  13.1598980 105.9088750
  44.1937420  13.2416880 104.7174510  42.2825830  20.8596840  75.3771970
  42.2019880  19.9451450  75.1063680  41.8690250  21.3563910  74.6711680
  40.4143870  22.6375860  77.2581240  39.6385970  22.1576300  77.5479810
  41.0656800  21.9581510  77.0837400  34.4309700  22.9495670  78.1357000
  33.5994580  22.6944380  78.5353510  35.0390680  23.0206440  78.8714920
  44.4351300  27.0436050  76.0380370  43.9732830  26.2723290  76.3667540
  45.2476850  27.0702120  76.5432820  34.4110960  26.9835760  78.3315020
  34.7139000  26.0933500  78.1525240  35.1554550  27.5405980  78.1037270
  32.8401650  17.9097560  71.9199390  31.9518350  18.2513530  71.8179270
  33.1242840  17.7097880  71.0280220  30.8034660  20.5103210  77.8039090
  31.3750770  19.7425410  77.8042730  30.8036200  20.8091970  76.8945700
  40.6614610  29.3294060  75.6584360  40.0426050  29.7851560  75.0878800
  41.5166390  29.4845520  75.2574060  39.8552860  25.3133050  77.2651400
  39.7861140  24.3722990  77.1040530  40.6172720  25.4034460  77.8373970
  32.0459530  15.9187570  79.5908020  31.8662370  15.0213320  79.8710780
  31.6439610  16.4659440  80.2654970  40.8858030  18.1203430  77.4920330
  41.2622850  17.2475310  77.3794000  40.7877540  18.4562130  76.6010770
  35.0163040  16.4929060  72.9537770  35.1229790  17.3932790  73.2606530
  34.1055400  16.4447030  72.6632420  44.6682150  15.6153870  74.4248670
  45.4891770  15.1250440  74.4674150  44.7016230  16.2051530  75.1780510
  32.6646200  18.4148070  78.1990360  33.3456310  18.6786440  78.8177760
  32.3494250  17.5748940  78.5328370  36.8570770  19.4615430  77.2862950
  37.3648990  19.9596400  77.9267970  37.3884010  18.6850630  77.1102310
  48.9581700  17.6320620  80.9892300  48.2533870  18.0202330  80.4707410
  49.2239620  18.3270910  81.5913230  35.1406870  14.1013990  81.5526370
  35.1425310  14.6186380  80.7472270  34.3111180  13.6244170  81.5296300
  41.5277960  24.2133300  73.0516270  40.9095230  24.6782750  72.4878990
  42.0401210  24.9060780  73.4685780  36.3909720  23.7409170  79.7299870
  36.0579100  24.3678090  80.3720940  36.5676400  24.2671050  78.9501540
  44.9043630  17.5554250  77.1976210  44.1999200  17.8439140  77.7779320
  45.2655790  18.3654360  76.8375770  34.8222200  15.8123950  79.5596820
  35.1639010  16.6566000  79.2650690  33.8838010  15.9607690  79.6762160
  35.6028820  25.7089970  81.5449050  36.2202820  26.3841050  81.2633500
  34.7421940  26.1177950  81.4536550  30.8961160  24.8989830  70.4255900
  30.5189140  25.3876930  69.6940800  31.1534230  25.5715110  71.0562430
  46.5206410  27.1729380  79.4603690  45.8369930  27.8428490  79.4520360
  47.0600700  27.3710030  78.6948550  47.9730550  17.0009040  77.5885420
  47.0255460  17.0348020  77.7200850  48.2980540  17.8147990  77.9734780
  38.5050090  13.3006220  75.8841410  38.8125070  12.7453110  75.1676910
  37.5750790  13.4350680  75.7014400  44.0565150  29.0173510  78.1748870
  44.0692310  28.6135800  77.3071130  43.5040370  29.7920800  78.0710300
  43.4550590  23.9203350  79.5031480  43.8719380  23.7063460  78.6684940
  44.1790410  24.1776140  80.0740100  40.8930850  21.3655050  72.6201530
  39.9660130  21.2992430  72.8490000  41.0455670  22.3035180  72.5056770
  40.8799930  17.6372050  69.6168690  39.9403600  17.7986010  69.7021150
  41.1983190  18.3557730  69.0704680  47.4012690  22.3190570  79.5947720
  46.5731320  22.3883660  79.1197850  47.9963170  22.9044880  79.1263550
  44.9228140  22.9275350  73.1236780  44.3040560  22.5894900  72.4763080
  44.9052590  22.2835110  73.8315970  44.3654700  19.1059890  80.5402590
  43.9525880  19.9313600  80.7942580  43.6330650  18.5204930  80.3478950
  36.4987490  21.8919790  75.4021260  36.0944490  21.1797040  74.9067160
  36.5850610  21.5473030  76.2909300  36.9669190  25.5787350  77.5660470
  36.6697480  24.9732820  76.8868250  37.9169010  25.6164660  77.4549830
  35.2116110  18.6663000  79.1820300  35.7630700  18.7758340  78.4073550
  35.7259620  19.0400600  79.8975530  45.0554800  29.1519220  81.2283570
  44.5785360  29.9591410  81.0356180  44.3716590  28.4997550  81.3809780
  36.0587620  25.3169040  84.2168270  35.1616150  25.5409010  84.4641670
  36.0840490  25.4403980  83.2679670  43.0992840  22.1662160  70.1309530
  43.5386120  21.3284590  69.9847350  43.8121260  22.7991560  70.2173670
  34.8858840  22.1882360  82.7925640  34.7466610  23.0605160  83.1613040
  34.0040200  21.8455170  82.6473580  41.2088220  27.1058230  74.0990770
  41.6484130  27.8482560  73.6846160  41.1475110  27.3484800  75.0229730
  36.6839190  28.1304060  85.0010790  36.6554620  28.5347010  84.1339220
  36.5204160  27.2014420  84.8382390  46.6809980  13.4204970  68.4450570
  46.3682640  13.5131800  69.3449640  47.4422450  13.9986000  68.3948000
  33.1992120  20.7864770  72.9027910  33.0789720  21.5126860  72.2909180
  32.8893010  20.0167680  72.4255820  30.8377490  23.9579910  78.7096550
  30.9157910  24.0928680  77.7652270  31.4519170  23.2495800  78.9024670
  32.0825120  25.6580100  75.1202730  31.6753200  25.7994690  74.2656330
  32.9738130  25.3740260  74.9173940  48.0387260  26.1044010  83.4574970
  48.1650320  25.8655890  82.5392150  48.0808640  25.2728550  83.9297050
  41.9004000  29.8072010  82.0269780  42.4148670  29.7180020  82.8292210
  41.0573080  30.1531710  82.3197690  43.1434460  29.2277620  74.0900270
  43.5991410  28.4467000  74.4038890  43.4826980  29.9384440  74.6341450
  47.8911270  18.1576470  84.4224710  47.2755540  18.6656140  83.8940170
  47.5707690  17.2574800  84.3650650  30.8937010  24.9994080  81.2491010
  31.0568050  24.5299440  80.4310380  31.3589460  24.4917640  81.9139850
  35.6655780  14.1299840  76.2851580  35.2223930  14.9109380  75.9536100
  36.2240770  14.4529730  76.9922520  39.9525590  16.9968360  81.8886900
  39.4904960  17.2051380  82.7006840  39.5503700  16.1827710  81.5857570
  44.9530100  18.2177310  83.0183560  44.1023690  17.9183060  83.3392630
  44.7931890  18.4619320  82.1067380  42.0479810  19.7179060  85.1182350
  42.3733220  18.8842810  84.7784580  42.8360140  20.2407580  85.2660680
  38.7814600  13.7510540  71.1657410  38.1568780  13.7470410  71.8910720
  38.6944720  12.8841500  70.7693380  37.7031680  14.6747170  78.1441180
  38.0004010  15.5810000  78.0633200  38.2517240  14.1865950  77.5300750
  35.4570000  19.2533410  74.0132830  35.2310920  19.0370580  74.9179450
  34.6762530  19.6861870  73.6678800  42.6867760  19.2596780  72.6123480
  42.0876650  19.9832580  72.4287100  43.2347370  19.1973560  71.8299930
  37.8969210  20.1518990  84.6793100  37.8012810  19.2113720  84.5293500
  38.7401190  20.3734060  84.2841170  41.2932630  17.8960320  74.6426760
  41.6862200  18.2132520  73.8295450  41.6549480  17.0172200  74.7571280
  33.0279750  16.5632660  82.8326880  32.6343140  17.4107870  83.0399660
  32.3398150  15.9259030  83.0235520  39.6024800  16.6467630  85.9023620
  38.9123120  16.4539830  86.5369710  40.3457100  16.9302270  86.4347920
  30.3296800  14.4861120  76.8656960  30.0409850  15.0563980  77.5781940
  31.0742560  14.0065570  77.2288190  30.5167030  18.4281240  68.0759680
  30.4341700  19.3712000  68.2174670  30.1650090  18.2856150  67.1972030
  41.8787770  20.4866070  78.7377540  41.1468890  20.9952880  79.0867640
  41.4812110  19.6696050  78.4366320  38.3165160  17.1620270  77.1430030
  38.3201220  16.7210220  76.2934570  39.2116280  17.4837600  77.2501850
  34.1667540  17.0446760  76.1024240  33.8267590  17.5221990  76.8591290
  33.4044860  16.5911880  75.7425340  38.3785310  18.1632350  70.1336790
  38.4998130  18.1218830  71.0822610  37.9933820  19.0256500  69.9783520
  42.3413680  15.9399750  78.1500480  42.3586420  16.3908400  78.9942330
  42.0929260  15.0405390  78.3633920  37.3906810  20.4733490  69.5320090
  36.8223710  20.0251740  68.9056000  38.0995810  20.8326270  68.9985240
  45.7684430  13.3531930  83.9886860  46.0930200  12.6221590  84.5144840
  45.8040940  13.0345570  83.0867850  32.4675990  24.3745510  83.4086820
  32.0830780  23.7339180  84.0069780  32.7788180  25.0781630  83.9781550
  38.6173130  21.2222050  78.8895440  38.9843260  20.7480620  79.6356780
  38.4278190  22.0963620  79.2303780  31.4813620  15.9665740  75.0188910
  31.1960540  15.6021410  75.8567530  31.4192480  15.2346200  74.4052050
  36.4072500  20.2630690  81.2079650  36.1029570  21.1422670  81.4330010
  37.3618960  20.3230480  81.2437090  34.9354290  24.4691680  71.8046500
  34.1616550  23.9289300  71.6445220  35.6648920  23.9498290  71.4664260
  45.6942270  23.4657040  77.5972890  46.4141390  23.9612330  77.2069000
  45.4924090  22.7874930  76.9526760  41.1552210  14.8595000  71.7402280
  40.3416820  14.3608170  71.6647590  40.9614160  15.6993250  71.3238630
  41.0761070  23.5366100  83.4841890  41.0098380  22.6161770  83.2299480
  40.4466210  23.6341540  84.1986530  43.8700600  19.2314650  70.0364440
  44.7580220  19.5431880  69.8615780  43.8405690  18.3586900  69.6445020
  34.9791690  24.1372060  75.4425310  35.4970360  23.3340320  75.3882200
  34.5275710  24.0751200  76.2842140  32.4636230  21.1033430  82.3551010
  32.1051170  21.7687280  82.9424350  32.1690790  20.2716980  82.7263630
  35.6649350  21.5617670  85.2390560  35.3649490  21.7074850  84.3418380
  36.4360590  21.0022960  85.1463950  41.0077800  26.3586670  83.2345690
  41.0222340  25.4267630  83.0164600  40.3002900  26.4446430  83.8735460
  47.2189010  22.9994010  82.5814270  46.4937200  23.5922790  82.3843660
  47.7464470  22.9917550  81.7827640  42.7488600  24.7254180  76.0798120
  43.1012420  24.1282310  75.4199490  41.8650930  24.3998410  76.2506370
  38.8351880  25.4851870  73.4868530  39.5223010  26.0321080  73.8676120
  38.0484300  26.0292600  73.5218140  30.9744280  21.1024690  68.9785610
  31.8439130  21.3849490  69.2621530  30.4834600  21.9160560  68.8634420
  38.1379090  22.4897900  73.0993890  38.5941870  23.3003150  73.3254080
  37.7867300  22.1721040  73.9312380  40.4411700  28.0004240  80.3286190
  41.0853920  28.2063620  81.0059610  40.8041140  27.2392640  79.8757040
  34.0390870  12.8335550  73.5716410  33.9105500  12.8253450  74.5201330
  33.2152890  13.1718640  73.2207420  41.7143780  26.0036590  79.0463640
  42.3566010  25.3029750  79.1595810  42.2393130  26.7835030  78.8660530
  43.4881400  26.8031490  82.2499700  43.8237640  27.3898180  82.9277620
  42.5681740  26.6724200  82.4797490  31.3415530  30.3152070  69.5447240
  31.7013170  30.9141410  68.8904510  31.2007870  30.8611960  70.3182270
  31.0384800  14.5926670  83.0323110  30.3243320  14.7923590  83.6375720
  31.4579840  13.8166240  83.4037910  31.3257390  28.5806930  84.0189640
  31.4348510  27.6401670  83.8785030  30.6737950  28.8461680  83.3703370
  39.3169980  26.8522820  85.4187760  38.9966850  26.1332060  85.9633450
  38.6428340  27.5277890  85.4923820  32.9590790  22.9198160  71.1067670
  32.3518740  23.6597060  71.1162970  33.4340140  23.0097520  70.2805870
  42.5323580  17.0848980  80.7824560  42.9004400  16.2644190  81.1104130
  41.6721780  17.1450870  81.1980210  45.8985610  16.0405920  71.5912120
  45.2698770  16.1451590  70.8770350  45.4037530  16.2602700  72.3806000
  37.8669640  18.3191870  73.0070000  37.1585790  18.7878210  73.4483610
  38.1514120  17.6613880  73.6415190  39.4925570  19.7388570  81.0062530
  39.9910820  20.2134390  81.6714380  39.6348520  18.8152090  81.2132560
  41.8985070  15.0442530  74.4465790  41.7752850  15.0628660  73.4975300
  42.8469630  15.0921470  74.5664190  36.0704660  16.6276950  70.3820710
  36.9195190  17.0647100  70.3160900  35.7035930  16.9397210  71.2092770
  46.6992430  15.9556530  81.8490920  46.1966030  16.6961930  82.1884730
  47.5149090  16.3440530  81.5327710  44.9914440  21.1989710  75.2952280
  44.0504580  21.2139940  75.4699970  45.3058510  20.4125670  75.7412580
  34.9696080  22.8809310  68.8556240  35.7359350  22.7690670  69.4181670
  35.0470770  22.1847280  68.2033010  33.6642840  20.3134380  69.5389130
  33.7446430  19.3661890  69.6506530  34.5562590  20.6441260  69.6449790
  46.9940020  28.3698560  76.9706540  47.1187440  29.1929730  77.4430350
  47.8605580  28.1589290  76.6230690  31.3503030  26.5303340  72.5165180
  30.4242810  26.7724480  72.5070590  31.8159460  27.3577600  72.3949930
  33.4715830  29.6475840  85.8309250  34.2728560  29.9687890  86.2444650
  32.9567650  29.2871420  86.5529160  42.3080460  25.7555710  85.7784660
  41.7018620  25.7787310  85.0380410  42.0034570  25.0238750  86.3151910
  43.7380830  29.4836000  84.3894070  44.6902580  29.3994020  84.3394310
  43.5909050  30.1477710  85.0627860  31.1913640  22.1349300  84.7745300
  31.6952660  21.5556580  85.3461530  30.4521060  22.4189530  85.3121670
  38.0937260  24.8563490  68.3291590  37.9887900  24.2415840  69.0552970
  37.9261480  24.3329380  67.5454600  38.2451580  23.5420290  84.3080820
  37.4797250  24.1105290  84.2235490  38.4267540  23.2496500  83.4149050
  41.3339990  23.9183520  68.9333580  40.7850090  24.3652820  69.5776320
  41.9559250  23.4132770  69.4571250  45.3874930  25.2725620  84.8655840
  46.1284400  25.6101380  84.3623300  44.6247610  25.4417680  84.3125610
  33.2236720  20.2778890  85.6695370  33.2642060  19.9792760  86.5780600
  34.0782220  20.6786500  85.5102890  37.0015110  22.8774440  70.8298880
  37.4231530  22.7114310  71.6730270  37.1265950  22.0674670  70.3354020
  35.1642530  18.8570990  83.6369860  34.6338990  18.3661940  83.0093200
  35.8330600  19.2855190  83.1027790  39.5142750  21.9012050  68.0775980
  40.0348410  21.1861070  67.7117130  40.1611150  22.5397920  68.3776490
  44.0620590  23.3240450  83.4011050  44.4761610  23.4785530  84.2501470
  43.1271590  23.4495670  83.5636830  44.5342760  20.6636610  85.4050200
  45.1163530  19.9088930  85.3170680  44.7104530  21.1944050  84.6281680
  35.6514830  15.8233360  83.7167150  35.5571700  15.2054110  82.9918020
  35.0712220  16.5499650  83.4897060  38.4176270  14.3806600  80.7494540
  37.9693570  14.4030860  79.9040090  37.7841470  13.9825620  81.3464840
  38.8235820  23.2760930  81.3706980  39.2423930  24.1193660  81.1983220
  37.9044450  23.4132970  81.1413760  41.1599720  21.0077110  82.7544820
  41.2795930  20.4118250  83.4939660  42.0193720  21.0446800  82.3346120
  43.4987620  21.5614300  81.3307330  42.9722840  22.0856920  80.7272470
  43.8418960  22.1941690  81.9617060  35.8974010  18.9507670  67.7757040
  35.6963070  18.0875030  68.1370380  35.7266060  18.8641030  66.8378640
  36.6743240  29.5813940  82.4864710  36.1364330  30.3060000  82.1673410
  36.9277200  29.1044280  81.6962050  37.9268490  17.5498460  84.0120640
  38.5168180  17.2414310  84.6998460  37.1088730  17.0778210  84.1680540
  42.7461920  17.1664270  84.2453660  42.0577440  16.5045810  84.1803650
  43.4667940  16.7202540  84.6902120  43.3762320  13.7615900  70.3043920
  43.6564610  12.9183800  70.6603340  42.6028050  13.9939010  70.8182670
  34.6956810  16.0508290  67.7634920  34.9982710  16.0575720  66.8554070
  35.4351400  15.7006150  68.2602580  39.5305450  30.8165150  82.7451360
  39.4564150  31.7200290  83.0523730  38.6284290  30.4977050  82.7173430
  37.9141740  14.9942910  68.7491120  37.5663740  14.3166900  68.1693570
  38.1154510  14.5332420  69.5634510  33.7186940  25.3550710  68.5964720
  34.1561810  25.8980380  69.2522300  34.2034670  24.5297660  68.6061060
  30.9332740  28.1439740  76.0484980  31.2635750  27.2760800  75.8163620
  31.3623740  28.3498260  76.8789940  35.5294660  26.4748750  73.7086950
  35.2290200  26.3513720  74.6090860  35.4232150  25.6157340  73.3002680
  31.4222950  29.0110330  78.7866610  30.9853940  29.1911130  79.6190760
  31.9900630  29.7684950  78.6448330  47.0585130  28.5127330  83.0743920
  46.4587120  28.5719890  82.3307840  47.1879030  27.5732310  83.2040770
  31.2547380  21.5230560  75.1455490  30.5996220  21.2542200  74.5015190
  32.0925330  21.4135040  74.6957470  45.7436770  25.2379310  81.1720080
  44.9296610  25.6676470  81.4345870  46.1510970  25.8497720  80.5589130
  44.2037820  16.3171850  69.3673980  44.6222700  16.1302830  68.5270640
  43.8973880  15.4650900  69.6776910  32.2923310  21.9083130  79.6858830
  32.6596350  21.8210530  80.5654850  31.7234130  21.1449680  79.5865690
  47.0927170  20.3767510  82.6989300  46.8613260  20.1480260  81.7987250
  47.3531720  21.2967060  82.6534190  31.8439310  18.8192220  83.5917250
  30.9495360  18.7858980  83.9310960  32.3836860  19.0179010  84.3568500
  45.5315240  15.6023940  85.4769000  46.4085420  15.6107340  85.8603000
  45.5436080  14.8654780  84.8661350  30.4685460  18.7329490  71.0880820
  29.5649540  18.9959690  70.9132480  30.9526080  19.0040660  70.3080780
  46.9778510  19.4553480  76.3657020  47.5015990  18.9616130  75.7347190
  47.5637930  19.5903840  77.1104590  47.1568230  19.5393350  79.8876570
  46.2070940  19.5056890  80.0021560  47.3381240  20.4493460  79.6526340
  33.0112670  17.7895030  68.9975200  33.7204370  17.3678250  68.5122480
  32.2952610  17.8570260  68.3658550  32.6586830  13.8434360  68.0377850
  33.3814960  14.3843300  68.3559070  32.9311350  13.5697780  67.1619390
  46.4678480  18.7126830  72.3049430  46.9637600  18.4797700  73.0898310
  46.2694550  17.8738670  71.8887070  32.3479020  13.0940550  77.9400470
  32.9955210  12.5437930  77.4995630  32.7680860  13.3483700  78.7616280
  47.8965640  17.3487780  74.8387110  47.7864920  17.1943820  75.7769380
  48.6573230  16.8208720  74.5962520  46.2431360  13.2881910  81.2970110
  46.8803580  13.9016050  81.6629300  46.3906250  13.3242570  80.3519340
  48.7855910  15.1795700  68.0793250  49.7105220  15.0476880  67.8711540
  48.7631700  15.2588520  69.0329700  48.8594400  15.9506360  70.7049960
  48.0645900  15.8851480  71.2342870  49.0637680  16.8857000  70.6935310
  45.8012820  29.9897910  74.6988350  46.3971890  29.6682480  74.0222770
  46.0590970  29.5169730  75.4901620  32.1011020  13.2496220  80.6825790
  31.7525840  13.7060040  81.4483970  31.7698720  12.3553350  80.7648220
  33.7075390  26.4215820  84.8478980  33.6645020  26.0508730  85.7293440
  33.8386400  27.3593390  84.9880800  37.4081420  27.9775410  80.4488700
  37.1672780  28.2449970  79.5619220  38.3484060  28.1481140  80.5039560
  39.6135840  14.4408100  84.2045210  39.5524730  15.0329930  84.9540620
  40.5536220  14.3334060  84.0595470  42.2510400  14.0978160  83.8437500
  42.8650810  14.4157450  83.1818580  42.7959960  13.6126750  84.4633360
  48.6685580  29.9969790  81.2499340  48.1743860  30.3938660  80.5326470
  48.0598870  29.3719000  81.6436620  32.7731660  12.7772420  83.9576560
  33.3214650  12.5960470  83.1942670  32.8386970  11.9866530  84.4932870
  33.5463420  29.3678070  81.9676760  32.9523740  29.2362770  82.7066800
  33.5387260  28.5316210  81.5018860  42.9918440  12.6610300  80.1706790
  42.1178280  12.9945410  79.9679720  42.8829190  12.1883480  80.9958660
  43.8990420  14.8681170  81.5548510  43.5703780  14.0532930  81.1750240
  44.8472720  14.8250980  81.4314200  46.3525030  30.6393210  78.5286080
  45.8928000  31.3909020  78.1544100  45.7237490  29.9199680  78.4700880
  33.1775650  26.7336450  80.9184800  32.4509710  26.1141740  80.8510750
  33.2384800  27.1277060  80.0482880  36.7820750  28.9481450  77.7034210
  37.2985770  28.3368810  77.1782470  37.4318130  29.4510230  78.1945220
  39.5216250  29.8389940  78.5303190  39.8094060  29.5844240  77.6536200
  40.0339470  29.2867300  79.1208760  40.7393260  13.5780140  79.1099700
  39.9565050  14.0525640  79.3896460  40.4456190  12.6734970  79.0012880
  45.2914330  14.2803240  77.1548790  45.7322420  14.2248340  76.3070390
  45.0221920  15.1961250  77.2258970  47.1552900  13.9118480  75.1657610
  47.0941300  12.9679700  75.0188630  47.9344930  14.0198570  75.7111070
  31.4605650  30.0510840  74.1281560  31.2927690  29.4181520  74.8263450
  30.5940160  30.2570240  73.7775750  32.0833670  13.8827620  71.6313420
  32.8413030  13.9956500  71.0577450  31.6210840  14.7196820  71.5856850
  38.6247480  15.9966890  74.6215730  37.8121990  15.6223780  74.2811610
  39.1289120  15.2411970  74.9236920  43.1272460  12.6609340  75.8598800
  43.7301830  13.2329550  76.3347320  42.3865450  13.2248780  75.6372700
  46.2707060  13.0630900  71.1339080  46.4657690  13.9614350  71.4006510
  45.4836930  12.8317980  71.6272030  33.0668350  28.7444070  71.5731700
  32.5415970  29.1252100  70.8693660  32.9912930  29.3694840  72.2941410
  34.4558820  14.4091670  70.1715390  34.9851580  13.6221470  70.0423340
  35.0887140  15.0882860  70.4050920  36.6496660  14.1466810  73.2260780
  36.0199400  13.4454120  73.3930910  36.1101800  14.9070940  73.0093940
  47.8233670  30.3031610  72.8945640  47.9985860  29.6169350  72.2506560
  47.1255240  30.8278660  72.5022310  36.7752220  13.4250790  85.6613270
  36.4936490  13.9284390  84.8974090  37.1571920  12.6272540  85.2955400
  34.8276110  26.8091180  70.4527280  34.1984990  27.2776280  71.0013110
  34.9423940  25.9640400  70.8873470  43.3767680  12.8404370  86.2393740
  43.2633130  13.1598980  87.1345260  44.1937420  13.2416880  85.9431020
  46.1566170  29.9875900  85.7212430  46.9491490  29.4925130  85.5138390
  46.4499320  30.6666040  86.3288040  42.2825830  20.8596840  56.6028480
  42.2019880  19.9451450  56.3320190  41.8690250  21.3563910  55.8968190
  40.4143870  22.6375860  58.4837750  39.6385970  22.1576300  58.7736320
  41.0656800  21.9581510  58.3093910  34.4309700  22.9495670  59.3613510
  33.5994580  22.6944380  59.7610020  35.0390680  23.0206440  60.0971430
  34.4110960  26.9835760  59.5571530  34.7139000  26.0933500  59.3781750
  35.1554550  27.5405980  59.3293780  32.8401650  17.9097560  53.1455900
  31.9518350  18.2513530  53.0435780  33.1242840  17.7097880  52.2536730
  30.8034660  20.5103210  59.0295600  31.3750770  19.7425410  59.0299240
  30.8036200  20.8091970  58.1202210  40.6614610  29.3294060  56.8840870
  40.0426050  29.7851560  56.3135310  41.5166390  29.4845520  56.4830570
  39.8552860  25.3133050  58.4907910  39.7861140  24.3722990  58.3297040
  40.6172720  25.4034460  59.0630480  32.0459530  15.9187570  60.8164530
  31.8662370  15.0213320  61.0967290  31.6439610  16.4659440  61.4911480
  40.8858030  18.1203430  58.7176840  41.2622850  17.2475310  58.6050510
  40.7877540  18.4562130  57.8267280  35.0163040  16.4929060  54.1794280
  35.1229790  17.3932790  54.4863040  34.1055400  16.4447030  53.8888930
  44.6682150  15.6153870  55.6505180  45.4891770  15.1250440  55.6930660
  44.7016230  16.2051530  56.4037020  32.6646200  18.4148070  59.4246870
  33.3456310  18.6786440  60.0434270  32.3494250  17.5748940  59.7584880
  36.8570770  19.4615430  58.5119460  37.3648990  19.9596400  59.1524480
  37.3884010  18.6850630  58.3358820  48.9581700  17.6320620  62.2148810
  48.2533870  18.0202330  61.6963920  49.2239620  18.3270910  62.8169740
  35.1406870  14.1013990  62.7782880  35.1425310  14.6186380  61.9728780
  34.3111180  13.6244170  62.7552810  41.5277960  24.2133300  54.2772780
  40.9095230  24.6782750  53.7135500  42.0401210  24.9060780  54.6942290
  36.3909720  23.7409170  60.9556380  36.0579100  24.3678090  61.5977450
  36.5676400  24.2671050  60.1758050  44.9043630  17.5554250  58.4232720
  44.1999200  17.8439140  59.0035830  45.2655790  18.3654360  58.0632280
  34.8222200  15.8123950  60.7853330  35.1639010  16.6566000  60.4907200
  33.8838010  15.9607690  60.9018670  35.6028820  25.7089970  62.7705560
  36.2202820  26.3841050  62.4890010  34.7421940  26.1177950  62.6793060
  30.8961160  24.8989830  51.6512410  30.5189140  25.3876930  50.9197310
  31.1534230  25.5715110  52.2818940  46.5206410  27.1729380  60.6860200
  45.8369930  27.8428490  60.6776870  47.0600700  27.3710030  59.9205060
  47.9730550  17.0009040  58.8141930  47.0255460  17.0348020  58.9457360
  48.2980540  17.8147990  59.1991290  38.5050090  13.3006220  57.1097920
  38.8125070  12.7453110  56.3933420  37.5750790  13.4350680  56.9270910
  44.0565150  29.0173510  59.4005380  44.0692310  28.6135800  58.5327640
  43.5040370  29.7920800  59.2966810  43.4550590  23.9203350  60.7287990
  43.8719380  23.7063460  59.8941450  44.1790410  24.1776140  61.2996610
  40.8930850  21.3655050  53.8458040  39.9660130  21.2992430  54.0746510
  41.0455670  22.3035180  53.7313280  40.8799930  17.6372050  50.8425200
  39.9403600  17.7986010  50.9277660  41.1983190  18.3557730  50.2961190
  47.4012690  22.3190570  60.8204230  46.5731320  22.3883660  60.3454360
  47.9963170  22.9044880  60.3520060  44.9228140  22.9275350  54.3493290
  44.3040560  22.5894900  53.7019590  44.9052590  22.2835110  55.0572480
  44.3654700  19.1059890  61.7659100  43.9525880  19.9313600  62.0199090
  43.6330650  18.5204930  61.5735460  36.4987490  21.8919790  56.6277770
  36.0944490  21.1797040  56.1323670  36.5850610  21.5473030  57.5165810
  36.9669190  25.5787350  58.7916980  36.6697480  24.9732820  58.1124760
  37.9169010  25.6164660  58.6806340  35.2116110  18.6663000  60.4076810
  35.7630700  18.7758340  59.6330060  35.7259620  19.0400600  61.1232040
  45.0554800  29.1519220  62.4540080  44.5785360  29.9591410  62.2612690
  44.3716590  28.4997550  62.6066290  36.0587620  25.3169040  65.4424780
  35.1616150  25.5409010  65.6898180  36.0840490  25.4403980  64.4936180
  43.0992840  22.1662160  51.3566040  43.5386120  21.3284590  51.2103860
  43.8121260  22.7991560  51.4430180  34.8858840  22.1882360  64.0182150
  34.7466610  23.0605160  64.3869550  34.0040200  21.8455170  63.8730090
  41.2088220  27.1058230  55.3247280  41.6484130  27.8482560  54.9102670
  41.1475110  27.3484800  56.2486240  36.6839190  28.1304060  66.2267300
  36.6554620  28.5347010  65.3595730  36.5204160  27.2014420  66.0638900
  46.6809980  13.4204970  49.6707080  46.3682640  13.5131800  50.5706150
  47.4422450  13.9986000  49.6204510  33.1992120  20.7864770  54.1284420
  33.0789720  21.5126860  53.5165690  32.8893010  20.0167680  53.6512330
  30.8377490  23.9579910  59.9353060  30.9157910  24.0928680  58.9908780
  31.4519170  23.2495800  60.1281180  32.0825120  25.6580100  56.3459240
  31.6753200  25.7994690  55.4912840  32.9738130  25.3740260  56.1430450
  43.8758400  30.0927350  52.6810290  43.7159540  29.8030290  53.5792120
  43.7105110  29.3167480  52.1455520  36.3546780  29.8725880  54.4581910
  36.1789260  28.9561420  54.2449710  35.5002520  30.2313170  54.6979710
  43.5784530  27.6014910  51.2408290  42.8849690  27.5992200  50.5810570
  44.3207390  27.1774230  50.8102460  43.1434460  29.2277620  55.3156780
  43.5991410  28.4467000  55.6295400  43.4826980  29.9384440  55.8597960
  47.8911270  18.1576470  65.6481220  47.2755540  18.6656140  65.1196680
  47.5707690  17.2574800  65.5907160  30.8937010  24.9994080  62.4747520
  31.0568050  24.5299440  61.6566890  31.3589460  24.4917640  63.1396360
  35.6655780  14.1299840  57.5108090  35.2223930  14.9109380  57.1792610
  36.2240770  14.4529730  58.2179030  39.9525590  16.9968360  63.1143410
  39.4904960  17.2051380  63.9263350  39.5503700  16.1827710  62.8114080
  44.9530100  18.2177310  64.2440070  44.1023690  17.9183060  64.5649140
  44.7931890  18.4619320  63.3323890  42.0479810  19.7179060  66.3438860
  42.3733220  18.8842810  66.0041090  42.8360140  20.2407580  66.4917190
  38.7814600  13.7510540  52.3913920  38.1568780  13.7470410  53.1167230
  38.6944720  12.8841500  51.9949890  37.7031680  14.6747170  59.3697690
  38.0004010  15.5810000  59.2889710  38.2517240  14.1865950  58.7557260
  35.4570000  19.2533410  55.2389340  35.2310920  19.0370580  56.1435960
  34.6762530  19.6861870  54.8935310  42.6867760  19.2596780  53.8379990
  42.0876650  19.9832580  53.6543610  43.2347370  19.1973560  53.0556440
  37.8969210  20.1518990  65.9049610  37.8012810  19.2113720  65.7550010
  38.7401190  20.3734060  65.5097680  41.2932630  17.8960320  55.8683270
  41.6862200  18.2132520  55.0551960  41.6549480  17.0172200  55.9827790
  33.0279750  16.5632660  64.0583390  32.6343140  17.4107870  64.2656170
  32.3398150  15.9259030  64.2492030  39.6024800  16.6467630  67.1280130
  38.9123120  16.4539830  67.7626220  40.3457100  16.9302270  67.6604430
  30.3296800  14.4861120  58.0913470  30.0409850  15.0563980  58.8038450
  31.0742560  14.0065570  58.4544700  30.5167030  18.4281240  49.3016190
  30.4341700  19.3712000  49.4431180  30.1650090  18.2856150  48.4228540
  41.8787770  20.4866070  59.9634050  41.1468890  20.9952880  60.3124150
  41.4812110  19.6696050  59.6622830  38.3165160  17.1620270  58.3686540
  38.3201220  16.7210220  57.5191080  39.2116280  17.4837600  58.4758360
  34.1667540  17.0446760  57.3280750  33.8267590  17.5221990  58.0847800
  33.4044860  16.5911880  56.9681850  38.3785310  18.1632350  51.3593300
  38.4998130  18.1218830  52.3079120  37.9933820  19.0256500  51.2040030
  42.3413680  15.9399750  59.3756990  42.3586420  16.3908400  60.2198840
  42.0929260  15.0405390  59.5890430  37.3906810  20.4733490  50.7576600
  36.8223710  20.0251740  50.1312510  38.0995810  20.8326270  50.2241750
  45.7684430  13.3531930  65.2143370  46.0930200  12.6221590  65.7401350
  45.8040940  13.0345570  64.3124360  32.4675990  24.3745510  64.6343330
  32.0830780  23.7339180  65.2326290  32.7788180  25.0781630  65.2038060
  38.6173130  21.2222050  60.1151950  38.9843260  20.7480620  60.8613290
  38.4278190  22.0963620  60.4560290  31.4813620  15.9665740  56.2445420
  31.1960540  15.6021410  57.0824040  31.4192480  15.2346200  55.6308560
  36.4072500  20.2630690  62.4336160  36.1029570  21.1422670  62.6586520
  37.3618960  20.3230480  62.4693600  34.9354290  24.4691680  53.0303010
  34.1616550  23.9289300  52.8701730  35.6648920  23.9498290  52.6920770
  45.6942270  23.4657040  58.8229400  46.4141390  23.9612330  58.4325510
  45.4924090  22.7874930  58.1783270  41.1552210  14.8595000  52.9658790
  40.3416820  14.3608170  52.8904100  40.9614160  15.6993250  52.5495140
  41.0761070  23.5366100  64.7098400  41.0098380  22.6161770  64.4555990
  40.4466210  23.6341540  65.4243040  43.8700600  19.2314650  51.2620950
  44.7580220  19.5431880  51.0872290  43.8405690  18.3586900  50.8701530
  34.9791690  24.1372060  56.6681820  35.4970360  23.3340320  56.6138710
  34.5275710  24.0751200  57.5098650  39.8661190  25.4038340  51.9409120
  40.2076890  26.1480570  51.4452440  39.0373900  25.7169460  52.3033950
  32.4636230  21.1033430  63.5807520  32.1051170  21.7687280  64.1680860
  32.1690790  20.2716980  63.9520140  35.6649350  21.5617670  66.4647070
  35.3649490  21.7074850  65.5674890  36.4360590  21.0022960  66.3720460
  41.0077800  26.3586670  64.4602200  41.0222340  25.4267630  64.2421110
  40.3002900  26.4446430  65.0991970  46.1414870  20.5426490  50.7300810
  46.0578590  20.9740710  49.8797250  46.8609060  21.0024840  51.1627630
  47.2189010  22.9994010  63.8070780  46.4937200  23.5922790  63.6100170
  47.7464470  22.9917550  63.0084150  42.7488600  24.7254180  57.3054630
  43.1012420  24.1282310  56.6456000  41.8650930  24.3998410  57.4762880
  38.8351880  25.4851870  54.7125040  39.5223010  26.0321080  55.0932630
  38.0484300  26.0292600  54.7474650  30.9744280  21.1024690  50.2042120
  31.8439130  21.3849490  50.4878040  30.4834600  21.9160560  50.0890930
  38.1379090  22.4897900  54.3250400  38.5941870  23.3003150  54.5510590
  37.7867300  22.1721040  55.1568890  40.4411700  28.0004240  61.5542700
  41.0853920  28.2063620  62.2316120  40.8041140  27.2392640  61.1013550
  34.0390870  12.8335550  54.7972920  33.9105500  12.8253450  55.7457840
  33.2152890  13.1718640  54.4463930  41.7143780  26.0036590  60.2720150
  42.3566010  25.3029750  60.3852320  42.2393130  26.7835030  60.0917040
  45.5599500  26.2885210  49.9959290  45.3337080  25.5715650  50.5883930
  45.1695700  26.0397650  49.1581040  43.4881400  26.8031490  63.4756210
  43.8237640  27.3898180  64.1534130  42.5681740  26.6724200  63.7054000
  31.3415530  30.3152070  50.7703750  31.7013170  30.9141410  50.1161020
  31.2007870  30.8611960  51.5438780  31.0384800  14.5926670  64.2579620
  30.3243320  14.7923590  64.8632230  31.4579840  13.8166240  64.6294420
  45.1415750  24.2057150  51.6573450  44.8537450  24.6669840  52.4451330
  45.9367920  23.7454920  51.9257670  31.3257390  28.5806930  65.2446150
  31.4348510  27.6401670  65.1041540  30.6737950  28.8461680  64.5959880
  39.3169980  26.8522820  66.6444270  38.9966850  26.1332060  67.1889960
  38.6428340  27.5277890  66.7180330  37.3584150  27.6983270  51.5877420
  37.3494250  28.4312960  50.9721930  36.4382510  27.4514850  51.6804380
  32.9590790  22.9198160  52.3324180  32.3518740  23.6597060  52.3419480
  33.4340140  23.0097520  51.5062380  42.5323580  17.0848980  62.0081070
  42.9004400  16.2644190  62.3360640  41.6721780  17.1450870  62.4236720
  45.8985610  16.0405920  52.8168630  45.2698770  16.1451590  52.1026860
  45.4037530  16.2602700  53.6062510  40.3443750  27.7611510  50.2502610
  40.4455730  27.5575500  49.3204590  39.4445490  27.5069790  50.4550390
  37.8669640  18.3191870  54.2326510  37.1585790  18.7878210  54.6740120
  38.1514120  17.6613880  54.8671700  39.4925570  19.7388570  62.2319040
  39.9910820  20.2134390  62.8970890  39.6348520  18.8152090  62.4389070
  41.8985070  15.0442530  55.6722300  41.7752850  15.0628660  54.7231810
  42.8469630  15.0921470  55.7920700  38.9861860  30.2797830  54.9450280
  39.2403360  30.2419220  54.0229650  38.0374340  30.1531160  54.9378530
  36.0704660  16.6276950  51.6077220  36.9195190  17.0647100  51.5417410
  35.7035930  16.9397210  52.4349280  46.6992430  15.9556530  63.0747430
  46.1966030  16.6961930  63.4141240  47.5149090  16.3440530  62.7584220
  44.9914440  21.1989710  56.5208790  44.0504580  21.2139940  56.6956480
  45.3058510  20.4125670  56.9669090  34.9696080  22.8809310  50.0812750
  35.7359350  22.7690670  50.6438180  35.0470770  22.1847280  49.4289520
  33.6642840  20.3134380  50.7645640  33.7446430  19.3661890  50.8763040
  34.5562590  20.6441260  50.8706300  34.4657550  30.4629770  57.8680180
  35.2020030  29.9145230  58.1388750  34.8498470  31.3285780  57.7286170
  31.3503030  26.5303340  53.7421690  30.4242810  26.7724480  53.7327100
  31.8159460  27.3577600  53.6206440  33.4715830  29.6475840  67.0565760
  34.2728560  29.9687890  67.4701160  32.9567650  29.2871420  67.7785670
  37.5759860  29.6360080  49.6905750  38.3688470  29.9248910  49.2387540
  37.0564210  29.2052250  49.0118230  42.3080460  25.7555710  67.0041170
  41.7018620  25.7787310  66.2636920  42.0034570  25.0238750  67.5408420
  43.7380830  29.4836000  65.6150580  44.6902580  29.3994020  65.5650820
  43.5909050  30.1477710  66.2884370  31.1913640  22.1349300  66.0001810
  31.6952660  21.5556580  66.5718040  30.4521060  22.4189530  66.5378180
  38.0937260  24.8563490  49.5548100  37.9887900  24.2415840  50.2809480
  37.9261480  24.3329380  48.7711110  38.2451580  23.5420290  65.5337330
  37.4797250  24.1105290  65.4492000  38.4267540  23.2496500  64.6405560
  41.3339990  23.9183520  50.1590090  40.7850090  24.3652820  50.8032830
  41.9559250  23.4132770  50.6827760  33.2236720  20.2778890  66.8951880
  33.2642060  19.9792760  67.8037110  34.0782220  20.6786500  66.7359400
  37.0015110  22.8774440  52.0555390  37.4231530  22.7114310  52.8986780
  37.1265950  22.0674670  51.5610530  35.1642530  18.8570990  64.8626370
  34.6338990  18.3661940  64.2349710  35.8330600  19.2855190  64.3284300
  39.5142750  21.9012050  49.3032490  40.0348410  21.1861070  48.9373640
  40.1611150  22.5397920  49.6033000  44.0620590  23.3240450  64.6267560
  44.4761610  23.4785530  65.4757980  43.1271590  23.4495670  64.7893340
  44.5342760  20.6636610  66.6306710  45.1163530  19.9088930  66.5427190
  44.7104530  21.1944050  65.8538190  35.6514830  15.8233360  64.9423660
  35.5571700  15.2054110  64.2174530  35.0712220  16.5499650  64.7153570
  38.4176270  14.3806600  61.9751050  37.9693570  14.4030860  61.1296600
  37.7841470  13.9825620  62.5721350  38.8235820  23.2760930  62.5963490
  39.2423930  24.1193660  62.4239730  37.9044450  23.4132970  62.3670270
  41.1599720  21.0077110  63.9801330  41.2795930  20.4118250  64.7196170
  42.0193720  21.0446800  63.5602630  43.4987620  21.5614300  62.5563840
  42.9722840  22.0856920  61.9528980  43.8418960  22.1941690  63.1873570
  35.8974010  18.9507670  49.0013550  35.6963070  18.0875030  49.3626890
  35.7266060  18.8641030  48.0635150  36.6743240  29.5813940  63.7121220
  36.1364330  30.3060000  63.3929920  36.9277200  29.1044280  62.9218560
  37.9268490  17.5498460  65.2377150  38.5168180  17.2414310  65.9254970
  37.1088730  17.0778210  65.3937050  42.7461920  17.1664270  65.4710170
  42.0577440  16.5045810  65.4060160  43.4667940  16.7202540  65.9158630
  43.3762320  13.7615900  51.5300430  43.6564610  12.9183800  51.8859850
  42.6028050  13.9939010  52.0439180  34.6956810  16.0508290  48.9891430
  34.9982710  16.0575720  48.0810580  35.4351400  15.7006150  49.4859090
  37.9141740  14.9942910  49.9747630  37.5663740  14.3166900  49.3950080
  38.1154510  14.5332420  50.7891020  40.0790780  29.9823660  51.5934230
  40.9741570  30.3208630  51.6152990  40.1108410  29.2603070  50.9658510
  33.7186940  25.3550710  49.8221230  34.1561810  25.8980380  50.4778810
  34.2034670  24.5297660  49.8317570  30.9332740  28.1439740  57.2741490
  31.2635750  27.2760800  57.0420130  31.3623740  28.3498260  58.1046450
  35.5294660  26.4748750  54.9343460  35.2290200  26.3513720  55.8347370
  35.4232150  25.6157340  54.5259190  31.4222950  29.0110330  60.0123120
  30.9853940  29.1911130  60.8447270  31.9900630  29.7684950  59.8704840
  31.2547380  21.5230560  56.3712000  30.5996220  21.2542200  55.7271700
  32.0925330  21.4135040  55.9213980  45.7436770  25.2379310  62.3976590
  44.9296610  25.6676470  62.6602380  46.1510970  25.8497720  61.7845640
  47.8062210  23.2927000  49.2976860  48.0811050  24.2005880  49.1696080
  47.6172950  23.2289530  50.2338850  44.2037820  16.3171850  50.5930490
  44.6222700  16.1302830  49.7527150  43.8973880  15.4650900  50.9033420
  47.7027550  21.2295990  54.2906290  47.3271150  20.4623920  53.8587580
  46.9730670  21.6118690  54.7781220  32.2923310  21.9083130  60.9115340
  32.6596350  21.8210530  61.7911360  31.7234130  21.1449680  60.8122200
  47.0927170  20.3767510  63.9245810  46.8613260  20.1480260  63.0243760
  47.3531720  21.2967060  63.8790700  31.8439310  18.8192220  64.8173760
  30.9495360  18.7858980  65.1567470  32.3836860  19.0179010  65.5825010
  45.5315240  15.6023940  66.7025510  46.4085420  15.6107340  67.0859510
  45.5436080  14.8654780  66.0917860  30.4685460  18.7329490  52.3137330
  29.5649540  18.9959690  52.1388990  30.9526080  19.0040660  51.5337290
  46.9778510  19.4553480  57.5913530  47.5015990  18.9616130  56.9603700
  47.5637930  19.5903840  58.3361100  47.1568230  19.5393350  61.1133080
  46.2070940  19.5056890  61.2278070  47.3381240  20.4493460  60.8782850
  33.0112670  17.7895030  50.2231710  33.7204370  17.3678250  49.7378990
  32.2952610  17.8570260  49.5915060  32.6586830  13.8434360  49.2634360
  33.3814960  14.3843300  49.5815580  32.9311350  13.5697780  48.3875900
  46.4678480  18.7126830  53.5305940  46.9637600  18.4797700  54.3154820
  46.2694550  17.8738670  53.1143580  32.3479020  13.0940550  59.1656980
  32.9955210  12.5437930  58.7252140  32.7680860  13.3483700  59.9872790
  47.8965640  17.3487780  56.0643620  47.7864920  17.1943820  57.0025890
  48.6573230  16.8208720  55.8219030  46.2431360  13.2881910  62.5226620
  46.8803580  13.9016050  62.8885810  46.3906250  13.3242570  61.5775850
  48.7855910  15.1795700  49.3049760  49.7105220  15.0476880  49.0968050
  48.7631700  15.2588520  50.2586210  48.8594400  15.9506360  51.9306470
  48.0645900  15.8851480  52.4599380  49.0637680  16.8857000  51.9191820
  32.1011020  13.2496220  61.9082300  31.7525840  13.7060040  62.6740480
  31.7698720  12.3553350  61.9904730  33.7075390  26.4215820  66.0735490
  33.6645020  26.0508730  66.9549950  33.8386400  27.3593390  66.2137310
  37.4081420  27.9775410  61.6745210  37.1672780  28.2449970  60.7875730
  38.3484060  28.1481140  61.7296070  39.6135840  14.4408100  65.4301720
  39.5524730  15.0329930  66.1797130  40.5536220  14.3334060  65.2851980
  42.2510400  14.0978160  65.0694010  42.8650810  14.4157450  64.4075090
  42.7959960  13.6126750  65.6889870  48.6685580  29.9969790  62.4755850
  48.1743860  30.3938660  61.7582980  48.0598870  29.3719000  62.8693130
  32.7731660  12.7772420  65.1833070  33.3214650  12.5960470  64.4199180
  32.8386970  11.9866530  65.7189380  33.5463420  29.3678070  63.1933270
  32.9523740  29.2362770  63.9323310  33.5387260  28.5316210  62.7275370
  42.9918440  12.6610300  61.3963300  42.1178280  12.9945410  61.1936230
  42.8829190  12.1883480  62.2215170  43.8990420  14.8681170  62.7805020
  43.5703780  14.0532930  62.4006750  44.8472720  14.8250980  62.6570710
  46.3525030  30.6393210  59.7542590  45.8928000  31.3909020  59.3800610
  45.7237490  29.9199680  59.6957390  33.1775650  26.7336450  62.1441310
  32.4509710  26.1141740  62.0767260  33.2384800  27.1277060  61.2739390
  36.7820750  28.9481450  58.9290720  37.2985770  28.3368810  58.4038980
  37.4318130  29.4510230  59.4201730  39.5216250  29.8389940  59.7559700
  39.8094060  29.5844240  58.8792710  40.0339470  29.2867300  60.3465270
  40.7393260  13.5780140  60.3356210  39.9565050  14.0525640  60.6152970
  40.4456190  12.6734970  60.2269390  45.2914330  14.2803240  58.3805300
  45.7322420  14.2248340  57.5326900  45.0221920  15.1961250  58.4515480
  47.1552900  13.9118480  56.3914120  47.0941300  12.9679700  56.2445140
  47.9344930  14.0198570  56.9367580  31.4605650  30.0510840  55.3538070
  31.2927690  29.4181520  56.0519960  30.5940160  30.2570240  55.0032260
  32.0833670  13.8827620  52.8569930  32.8413030  13.9956500  52.2833960
  31.6210840  14.7196820  52.8113360  38.6247480  15.9966890  55.8472240
  37.8121990  15.6223780  55.5068120  39.1289120  15.2411970  56.1493430
  43.1272460  12.6609340  57.0855310  43.7301830  13.2329550  57.5603830
  42.3865450  13.2248780  56.8629210  46.2707060  13.0630900  52.3595590
  46.4657690  13.9614350  52.6263020  45.4836930  12.8317980  52.8528540
  33.0668350  28.7444070  52.7988210  32.5415970  29.1252100  52.0950170
  32.9912930  29.3694840  53.5197920  34.4558820  14.4091670  51.3971900
  34.9851580  13.6221470  51.2679850  35.0887140  15.0882860  51.6307430
  36.6496660  14.1466810  54.4517290  36.0199400  13.4454120  54.6187420
  36.1101800  14.9070940  54.2350450  36.7752220  13.4250790  66.8869780
  36.4936490  13.9284390  66.1230600  37.1571920  12.6272540  66.5211910
  35.6661320  30.6926450  51.6737460  36.3980140  30.4085730  51.1261350
  35.9254990  30.4539730  52.5636840  34.8276110  26.8091180  51.6783790
  34.1984990  27.2776280  52.2269620  34.9423940  25.9640400  52.1129980
  43.3767680  12.8404370  67.4650250  43.2633130  13.1598980  68.3601770
  44.1937420  13.2416880  67.1687530  42.2825830  20.8596840  37.8284990
  42.2019880  19.9451450  37.5576700  41.8690250  21.3563910  37.1224700
  40.4143870  22.6375860  39.7094260  39.6385970  22.1576300  39.9992830
  41.0656800  21.9581510  39.5350420  34.4309700  22.9495670  40.5870020
  33.5994580  22.6944380  40.9866530  35.0390680  23.0206440  41.3227940
  44.4351300  27.0436050  38.4893390  43.9732830  26.2723290  38.8180560
  45.2476850  27.0702120  38.9945840  34.4110960  26.9835760  40.7828040
  34.7139000  26.0933500  40.6038260  35.1554550  27.5405980  40.5550290
  32.8401650  17.9097560  34.3712410  31.9518350  18.2513530  34.2692290
  33.1242840  17.7097880  33.4793240  30.8034660  20.5103210  40.2552110
  31.3750770  19.7425410  40.2555750  30.8036200  20.8091970  39.3458720
  40.6614610  29.3294060  38.1097380  40.0426050  29.7851560  37.5391820
  41.5166390  29.4845520  37.7087080  39.8552860  25.3133050  39.7164420
  39.7861140  24.3722990  39.5553550  40.6172720  25.4034460  40.2886990
  32.0459530  15.9187570  42.0421040  31.8662370  15.0213320  42.3223800
  31.6439610  16.4659440  42.7167990  40.8858030  18.1203430  39.9433350
  41.2622850  17.2475310  39.8307020  40.7877540  18.4562130  39.0523790
  35.0163040  16.4929060  35.4050790  35.1229790  17.3932790  35.7119550
  34.1055400  16.4447030  35.1145440  44.6682150  15.6153870  36.8761690
  45.4891770  15.1250440  36.9187170  44.7016230  16.2051530  37.6293530
  32.6646200  18.4148070  40.6503380  33.3456310  18.6786440  41.2690780
  32.3494250  17.5748940  40.9841390  36.8570770  19.4615430  39.7375970
  37.3648990  19.9596400  40.3780990  37.3884010  18.6850630  39.5615330
  48.9581700  17.6320620  43.4405320  48.2533870  18.0202330  42.9220430
  49.2239620  18.3270910  44.0426250  35.1406870  14.1013990  44.0039390
  35.1425310  14.6186380  43.1985290  34.3111180  13.6244170  43.9809320
  41.5277960  24.2133300  35.5029290  40.9095230  24.6782750  34.9392010
  42.0401210  24.9060780  35.9198800  36.3909720  23.7409170  42.1812890
  36.0579100  24.3678090  42.8233960  36.5676400  24.2671050  41.4014560
  44.9043630  17.5554250  39.6489230  44.1999200  17.8439140  40.2292340
  45.2655790  18.3654360  39.2888790  34.8222200  15.8123950  42.0109840
  35.1639010  16.6566000  41.7163710  33.8838010  15.9607690  42.1275180
  35.6028820  25.7089970  43.9962070  36.2202820  26.3841050  43.7146520
  34.7421940  26.1177950  43.9049570  30.8961160  24.8989830  32.8768920
  30.5189140  25.3876930  32.1453820  31.1534230  25.5715110  33.5075450
  46.5206410  27.1729380  41.9116710  45.8369930  27.8428490  41.9033380
  47.0600700  27.3710030  41.1461570  47.9730550  17.0009040  40.0398440
  47.0255460  17.0348020  40.1713870  48.2980540  17.8147990  40.4247800
  38.5050090  13.3006220  38.3354430  38.8125070  12.7453110  37.6189930
  37.5750790  13.4350680  38.1527420  44.0565150  29.0173510  40.6261890
  44.0692310  28.6135800  39.7584150  43.5040370  29.7920800  40.5223320
  45.3510570  25.7389730  35.7152060  45.2406900  24.7964060  35.8401480
  45.3478820  26.1005370  36.6014820  43.4550590  23.9203350  41.9544500
  43.8719380  23.7063460  41.1197960  44.1790410  24.1776140  42.5253120
  40.8930850  21.3655050  35.0714550  39.9660130  21.2992430  35.3003020
  41.0455670  22.3035180  34.9569790  40.8799930  17.6372050  32.0681710
  39.9403600  17.7986010  32.1534170  41.1983190  18.3557730  31.5217700
  47.4012690  22.3190570  42.0460740  46.5731320  22.3883660  41.5710870
  47.9963170  22.9044880  41.5776570  44.9228140  22.9275350  35.5749800
  44.3040560  22.5894900  34.9276100  44.9052590  22.2835110  36.2828990
  44.3654700  19.1059890  42.9915610  43.9525880  19.9313600  43.2455600
  43.6330650  18.5204930  42.7991970  36.4987490  21.8919790  37.8534280
  36.0944490  21.1797040  37.3580180  36.5850610  21.5473030  38.7422320
  36.9669190  25.5787350  40.0173490  36.6697480  24.9732820  39.3381270
  37.9169010  25.6164660  39.9062850  35.2116110  18.6663000  41.6333320
  35.7630700  18.7758340  40.8586570  35.7259620  19.0400600  42.3488550
  45.0554800  29.1519220  43.6796590  44.5785360  29.9591410  43.4869200
  44.3716590  28.4997550  43.8322800  36.0587620  25.3169040  46.6681290
  35.1616150  25.5409010  46.9154690  36.0840490  25.4403980  45.7192690
  43.0992840  22.1662160  32.5822550  43.5386120  21.3284590  32.4360370
  43.8121260  22.7991560  32.6686690  34.8858840  22.1882360  45.2438660
  34.7466610  23.0605160  45.6126060  34.0040200  21.8455170  45.0986600
  41.2088220  27.1058230  36.5503790  41.6484130  27.8482560  36.1359180
  41.1475110  27.3484800  37.4742750  36.6839190  28.1304060  47.4523810
  36.6554620  28.5347010  46.5852240  36.5204160  27.2014420  47.2895410
  46.6809980  13.4204970  30.8963590  46.3682640  13.5131800  31.7962660
  47.4422450  13.9986000  30.8461020  33.1992120  20.7864770  35.3540930
  33.0789720  21.5126860  34.7422200  32.8893010  20.0167680  34.8768840
  48.6354010  28.9131160  48.7487980  49.1113730  29.3914050  49.4277060
  49.2561170  28.8448650  48.0233480  30.8377490  23.9579910  41.1609570
  30.9157910  24.0928680  40.2165290  31.4519170  23.2495800  41.3537690
  32.0825120  25.6580100  37.5715750  31.6753200  25.7994690  36.7169350
  32.9738130  25.3740260  37.3686960  48.0387260  26.1044010  45.9087990
  48.1650320  25.8655890  44.9905170  48.0808640  25.2728550  46.3810070
  41.9004000  29.8072010  44.4782800  42.4148670  29.7180020  45.2805230
  41.0573080  30.1531710  44.7710710  43.8758400  30.0927350  33.9066800
  43.7159540  29.8030290  34.8048630  43.7105110  29.3167480  33.3712030
  36.3546780  29.8725880  35.6838420  36.1789260  28.9561420  35.4706220
  35.5002520  30.2313170  35.9236220  43.5784530  27.6014910  32.4664800
  42.8849690  27.5992200  31.8067080  44.3207390  27.1774230  32.0358970
  43.1434460  29.2277620  36.5413290  43.5991410  28.4467000  36.8551910
  43.4826980  29.9384440  37.0854470  47.8911270  18.1576470  46.8737730
  47.2755540  18.6656140  46.3453190  47.5707690  17.2574800  46.8163670
  30.8937010  24.9994080  43.7004030  31.0568050  24.5299440  42.8823400
  31.3589460  24.4917640  44.3652870  35.6655780  14.1299840  38.7364600
  35.2223930  14.9109380  38.4049120  36.2240770  14.4529730  39.4435540
  39.9525590  16.9968360  44.3399920  39.4904960  17.2051380  45.1519860
  39.5503700  16.1827710  44.0370590  44.9530100  18.2177310  45.4696580
  44.1023690  17.9183060  45.7905650  44.7931890  18.4619320  44.5580400
  42.0479810  19.7179060  47.5695370  42.3733220  18.8842810  47.2297600
  42.8360140  20.2407580  47.7173700  38.7814600  13.7510540  33.6170430
  38.1568780  13.7470410  34.3423740  38.6944720  12.8841500  33.2206400
  37.7031680  14.6747170  40.5954200  38.0004010  15.5810000  40.5146220
  38.2517240  14.1865950  39.9813770  35.4570000  19.2533410  36.4645850
  35.2310920  19.0370580  37.3692470  34.6762530  19.6861870  36.1191820
  42.6867760  19.2596780  35.0636500  42.0876650  19.9832580  34.8800120
  43.2347370  19.1973560  34.2812950  37.8969210  20.1518990  47.1306120
  37.8012810  19.2113720  46.9806520  38.7401190  20.3734060  46.7354190
  41.2932630  17.8960320  37.0939780  41.6862200  18.2132520  36.2808470
  41.6549480  17.0172200  37.2084300  33.0279750  16.5632660  45.2839900
  32.6343140  17.4107870  45.4912680  32.3398150  15.9259030  45.4748540
  39.6024800  16.6467630  48.3536640  38.9123120  16.4539830  48.9882730
  40.3457100  16.9302270  48.8860940  30.3296800  14.4861120  39.3169980
  30.0409850  15.0563980  40.0294960  31.0742560  14.0065570  39.6801210
  30.5167030  18.4281240  30.5272700  30.4341700  19.3712000  30.6687690
  30.1650090  18.2856150  29.6485050  41.8787770  20.4866070  41.1890560
  41.1468890  20.9952880  41.5380660  41.4812110  19.6696050  40.8879340
  38.3165160  17.1620270  39.5943050  38.3201220  16.7210220  38.7447590
  39.2116280  17.4837600  39.7014870  34.1667540  17.0446760  38.5537260
  33.8267590  17.5221990  39.3104310  33.4044860  16.5911880  38.1938360
  38.3785310  18.1632350  32.5849810  38.4998130  18.1218830  33.5335630
  37.9933820  19.0256500  32.4296540  42.3413680  15.9399750  40.6013500
  42.3586420  16.3908400  41.4455350  42.0929260  15.0405390  40.8146940
  37.3906810  20.4733490  31.9833110  36.8223710  20.0251740  31.3569020
  38.0995810  20.8326270  31.4498260  45.7684430  13.3531930  46.4399880
  46.0930200  12.6221590  46.9657860  45.8040940  13.0345570  45.5380870
  32.4675990  24.3745510  45.8599840  32.0830780  23.7339180  46.4582800
  32.7788180  25.0781630  46.4294570  38.6173130  21.2222050  41.3408460
  38.9843260  20.7480620  42.0869800  38.4278190  22.0963620  41.6816800
  31.4813620  15.9665740  37.4701930  31.1960540  15.6021410  38.3080550
  31.4192480  15.2346200  36.8565070  36.4072500  20.2630690  43.6592670
  36.1029570  21.1422670  43.8843030  37.3618960  20.3230480  43.6950110
  34.9354290  24.4691680  34.2559520  34.1616550  23.9289300  34.0958240
  35.6648920  23.9498290  33.9177280  45.6942270  23.4657040  40.0485910
  46.4141390  23.9612330  39.6582020  45.4924090  22.7874930  39.4039780
  41.1552210  14.8595000  34.1915300  40.3416820  14.3608170  34.1160610
  40.9614160  15.6993250  33.7751650  41.0761070  23.5366100  45.9354910
  41.0098380  22.6161770  45.6812500  40.4466210  23.6341540  46.6499550
  43.8700600  19.2314650  32.4877460  44.7580220  19.5431880  32.3128800
  43.8405690  18.3586900  32.0958040  34.9791690  24.1372060  37.8938330
  35.4970360  23.3340320  37.8395220  34.5275710  24.0751200  38.7355160
  39.8661190  25.4038340  33.1665630  40.2076890  26.1480570  32.6708950
  39.0373900  25.7169460  33.5290460  32.4636230  21.1033430  44.8064030
  32.1051170  21.7687280  45.3937370  32.1690790  20.2716980  45.1776650
  35.6649350  21.5617670  47.6903580  35.3649490  21.7074850  46.7931400
  36.4360590  21.0022960  47.5976970  41.0077800  26.3586670  45.6858710
  41.0222340  25.4267630  45.4677620  40.3002900  26.4446430  46.3248480
  46.1414870  20.5426490  31.9557320  46.0578590  20.9740710  31.1053760
  46.8609060  21.0024840  32.3884140  47.2189010  22.9994010  45.0327290
  46.4937200  23.5922790  44.8356680  47.7464470  22.9917550  44.2340660
  47.1702120  27.3968750  34.6839450  46.5278280  26.7424370  34.9583170
  46.7832780  27.8023840  33.9080120  42.7488600  24.7254180  38.5311140
  43.1012420  24.1282310  37.8712510  41.8650930  24.3998410  38.7019390
  38.8351880  25.4851870  35.9381550  39.5223010  26.0321080  36.3189140
  38.0484300  26.0292600  35.9731160  30.9744280  21.1024690  31.4298630
  31.8439130  21.3849490  31.7134550  30.4834600  21.9160560  31.3147440
  38.1379090  22.4897900  35.5506910  38.5941870  23.3003150  35.7767100
  37.7867300  22.1721040  36.3825400  40.4411700  28.0004240  42.7799210
  41.0853920  28.2063620  43.4572630  40.8041140  27.2392640  42.3270060
  34.0390870  12.8335550  36.0229430  33.9105500  12.8253450  36.9714350
  33.2152890  13.1718640  35.6720440  41.7143780  26.0036590  41.4976660
  42.3566010  25.3029750  41.6108830  42.2393130  26.7835030  41.3173550
  45.5599500  26.2885210  31.2215800  45.3337080  25.5715650  31.8140440
  45.1695700  26.0397650  30.3837550  43.4881400  26.8031490  44.7012720
  43.8237640  27.3898180  45.3790640  42.5681740  26.6724200  44.9310510
  31.3415530  30.3152070  31.9960260  31.7013170  30.9141410  31.3417530
  31.2007870  30.8611960  32.7695290  31.0384800  14.5926670  45.4836130
  30.3243320  14.7923590  46.0888740  31.4579840  13.8166240  45.8550930
  45.1415750  24.2057150  32.8829960  44.8537450  24.6669840  33.6707840
  45.9367920  23.7454920  33.1514180  31.3257390  28.5806930  46.4702660
  31.4348510  27.6401670  46.3298050  30.6737950  28.8461680  45.8216390
  39.3169980  26.8522820  47.8700780  38.9966850  26.1332060  48.4146470
  38.6428340  27.5277890  47.9436840  37.3584150  27.6983270  32.8133930
  37.3494250  28.4312960  32.1978440  36.4382510  27.4514850  32.9060890
  32.9590790  22.9198160  33.5580690  32.3518740  23.6597060  33.5675990
  33.4340140  23.0097520  32.7318890  42.5323580  17.0848980  43.2337580
  42.9004400  16.2644190  43.5617150  41.6721780  17.1450870  43.6493230
  45.8985610  16.0405920  34.0425140  45.2698770  16.1451590  33.3283370
  45.4037530  16.2602700  34.8319020  40.3443750  27.7611510  31.4759120
  40.4455730  27.5575500  30.5461100  39.4445490  27.5069790  31.6806900
  37.8669640  18.3191870  35.4583020  37.1585790  18.7878210  35.8996630
  38.1514120  17.6613880  36.0928210  39.4925570  19.7388570  43.4575550
  39.9910820  20.2134390  44.1227400  39.6348520  18.8152090  43.6645580
  41.8985070  15.0442530  36.8978810  41.7752850  15.0628660  35.9488320
  42.8469630  15.0921470  37.0177210  38.9861860  30.2797830  36.1706790
  39.2403360  30.2419220  35.2486160  38.0374340  30.1531160  36.1635040
  36.0704660  16.6276950  32.8333730  36.9195190  17.0647100  32.7673920
  35.7035930  16.9397210  33.6605790  46.6992430  15.9556530  44.3003940
  46.1966030  16.6961930  44.6397750  47.5149090  16.3440530  43.9840730
  44.9914440  21.1989710  37.7465300  44.0504580  21.2139940  37.9212990
  45.3058510  20.4125670  38.1925600  34.9696080  22.8809310  31.3069260
  35.7359350  22.7690670  31.8694690  35.0470770  22.1847280  30.6546030
  33.6642840  20.3134380  31.9902150  33.7446430  19.3661890  32.1019550
  34.5562590  20.6441260  32.0962810  46.9940020  28.3698560  39.4219560
  47.1187440  29.1929730  39.8943370  47.8605580  28.1589290  39.0743710
  34.4657550  30.4629770  39.0936690  35.2020030  29.9145230  39.3645260
  34.8498470  31.3285780  38.9542680  31.3503030  26.5303340  34.9678200
  30.4242810  26.7724480  34.9583610  31.8159460  27.3577600  34.8462950
  33.4715830  29.6475840  48.2822270  34.2728560  29.9687890  48.6957670
  32.9567650  29.2871420  49.0042180  37.5759860  29.6360080  30.9162260
  38.3688470  29.9248910  30.4644050  37.0564210  29.2052250  30.2374740
  42.3080460  25.7555710  48.2297680  41.7018620  25.7787310  47.4893430
  42.0034570  25.0238750  48.7664930  43.7380830  29.4836000  46.8407090
  44.6902580  29.3994020  46.7907330  43.5909050  30.1477710  47.5140880
  46.6290030  28.8630210  32.3399000  46.3431540  28.4495350  31.5253180
  46.4309580  29.7917920  32.2199520  31.1913640  22.1349300  47.2258320
  31.6952660  21.5556580  47.7974550  30.4521060  22.4189530  47.7634690
  38.0937260  24.8563490  30.7804610  37.9887900  24.2415840  31.5065990
  37.9261480  24.3329380  29.9967620  38.2451580  23.5420290  46.7593840
  37.4797250  24.1105290  46.6748510  38.4267540  23.2496500  45.8662070
  41.3339990  23.9183520  31.3846600  40.7850090  24.3652820  32.0289340
  41.9559250  23.4132770  31.9084270  45.3874930  25.2725620  47.3168860
  46.1284400  25.6101380  46.8136320  44.6247610  25.4417680  46.7638630
  33.2236720  20.2778890  48.1208390  33.2642060  19.9792760  49.0293620
  34.0782220  20.6786500  47.9615910  37.0015110  22.8774440  33.2811900
  37.4231530  22.7114310  34.1243290  37.1265950  22.0674670  32.7867040
  35.1642530  18.8570990  46.0882880  34.6338990  18.3661940  45.4606220
  35.8330600  19.2855190  45.5540810  39.5142750  21.9012050  30.5289000
  40.0348410  21.1861070  30.1630150  40.1611150  22.5397920  30.8289510
  44.0620590  23.3240450  45.8524070  44.4761610  23.4785530  46.7014490
  43.1271590  23.4495670  46.0149850  44.5342760  20.6636610  47.8563220
  45.1163530  19.9088930  47.7683700  44.7104530  21.1944050  47.0794700
  35.6514830  15.8233360  46.1680170  35.5571700  15.2054110  45.4431040
  35.0712220  16.5499650  45.9410080  38.4176270  14.3806600  43.2007560
  37.9693570  14.4030860  42.3553110  37.7841470  13.9825620  43.7977860
  38.8235820  23.2760930  43.8220000  39.2423930  24.1193660  43.6496240
  37.9044450  23.4132970  43.5926780  41.1599720  21.0077110  45.2057840
  41.2795930  20.4118250  45.9452680  42.0193720  21.0446800  44.7859140
  43.4987620  21.5614300  43.7820350  42.9722840  22.0856920  43.1785490
  43.8418960  22.1941690  44.4130080  35.8974010  18.9507670  30.2270060
  35.6963070  18.0875030  30.5883400  35.7266060  18.8641030  29.2891660
  36.6743240  29.5813940  44.9377730  36.1364330  30.3060000  44.6186430
  36.9277200  29.1044280  44.1475070  37.9268490  17.5498460  46.4633660
  38.5168180  17.2414310  47.1511480  37.1088730  17.0778210  46.6193560
  42.7461920  17.1664270  46.6966680  42.0577440  16.5045810  46.6316670
  43.4667940  16.7202540  47.1415140  43.3762320  13.7615900  32.7556940
  43.6564610  12.9183800  33.1116360  42.6028050  13.9939010  33.2695690
  34.6956810  16.0508290  30.2147940  34.9982710  16.0575720  29.3067090
  35.4351400  15.7006150  30.7115600  39.5305450  30.8165150  45.1964380
  39.4564150  31.7200290  45.5036750  38.6284290  30.4977050  45.1686450
  37.9141740  14.9942910  31.2004140  37.5663740  14.3166900  30.6206590
  38.1154510  14.5332420  32.0147530  40.0790780  29.9823660  32.8190740
  40.9741570  30.3208630  32.8409500  40.1108410  29.2603070  32.1915020
  33.7186940  25.3550710  31.0477740  34.1561810  25.8980380  31.7035320
  34.2034670  24.5297660  31.0574080  30.9332740  28.1439740  38.4998000
  31.2635750  27.2760800  38.2676640  31.3623740  28.3498260  39.3302960
  35.5294660  26.4748750  36.1599970  35.2290200  26.3513720  37.0603880
  35.4232150  25.6157340  35.7515700  31.4222950  29.0110330  41.2379630
  30.9853940  29.1911130  42.0703780  31.9900630  29.7684950  41.0961350
  47.0585130  28.5127330  45.5256940  46.4587120  28.5719890  44.7820860
  47.1879030  27.5732310  45.6553790  48.2986580  26.2545150  30.8626650
  47.4679540  26.3221800  31.3333880  48.4758410  27.1449270  30.5593510
  47.7543040  22.9992630  33.3660850  48.5161950  23.5689280  33.4720540
  47.7697410  22.4319830  34.1369160  31.2547380  21.5230560  37.5968510
  30.5996220  21.2542200  36.9528210  32.0925330  21.4135040  37.1470490
  48.7603010  23.8542730  38.2102780  49.1311840  23.0710050  37.8038750
  49.4004940  24.5431830  38.0320080  45.7436770  25.2379310  43.6233100
  44.9296610  25.6676470  43.8858890  46.1510970  25.8497720  43.0102150
  47.8062210  23.2927000  30.5233370  48.0811050  24.2005880  30.3952590
  47.6172950  23.2289530  31.4595360  44.2037820  16.3171850  31.8187000
  44.6222700  16.1302830  30.9783660  43.8973880  15.4650900  32.1289930
  47.7027550  21.2295990  35.5162800  47.3271150  20.4623920  35.0844090
  46.9730670  21.6118690  36.0037730  32.2923310  21.9083130  42.1371850
  32.6596350  21.8210530  43.0167870  31.7234130  21.1449680  42.0378710
  47.0927170  20.3767510  45.1502320  46.8613260  20.1480260  44.2500270
  47.3531720  21.2967060  45.1047210  31.8439310  18.8192220  46.0430270
  30.9495360  18.7858980  46.3823980  32.3836860  19.0179010  46.8081520
  45.5315240  15.6023940  47.9282020  46.4085420  15.6107340  48.3116020
  45.5436080  14.8654780  47.3174370  30.4685460  18.7329490  33.5393840
  29.5649540  18.9959690  33.3645500  30.9526080  19.0040660  32.7593800
  46.9778510  19.4553480  38.8170040  47.5015990  18.9616130  38.1860210
  47.5637930  19.5903840  39.5617610  47.1568230  19.5393350  42.3389590
  46.2070940  19.5056890  42.4534580  47.3381240  20.4493460  42.1039360
  33.0112670  17.7895030  31.4488220  33.7204370  17.3678250  30.9635500
  32.2952610  17.8570260  30.8171570  32.6586830  13.8434360  30.4890870
  33.3814960  14.3843300  30.8072090  32.9311350  13.5697780  29.6132410
  46.4678480  18.7126830  34.7562450  46.9637600  18.4797700  35.5411330
  46.2694550  17.8738670  34.3400090  32.3479020  13.0940550  40.3913490
  32.9955210  12.5437930  39.9508650  32.7680860  13.3483700  41.2129300
  47.8965640  17.3487780  37.2900130  47.7864920  17.1943820  38.2282400
  48.6573230  16.8208720  37.0475540  46.2431360  13.2881910  43.7483130
  46.8803580  13.9016050  44.1142320  46.3906250  13.3242570  42.8032360
  48.7855910  15.1795700  30.5306270  49.7105220  15.0476880  30.3224560
  48.7631700  15.2588520  31.4842720  48.8594400  15.9506360  33.1562980
  48.0645900  15.8851480  33.6855890  49.0637680  16.8857000  33.1448330
  45.8012820  29.9897910  37.1501370  46.3971890  29.6682480  36.4735790
  46.0590970  29.5169730  37.9414640  32.1011020  13.2496220  43.1338810
  31.7525840  13.7060040  43.8996990  31.7698720  12.3553350  43.2161240
  33.7075390  26.4215820  47.2992000  33.6645020  26.0508730  48.1806460
  33.8386400  27.3593390  47.4393820  37.4081420  27.9775410  42.9001720
  37.1672780  28.2449970  42.0132240  38.3484060  28.1481140  42.9552580
  39.6135840  14.4408100  46.6558230  39.5524730  15.0329930  47.4053640
  40.5536220  14.3334060  46.5108490  42.2510400  14.0978160  46.2950520
  42.8650810  14.4157450  45.6331600  42.7959960  13.6126750  46.9146380
  48.6685580  29.9969790  43.7012360  48.1743860  30.3938660  42.9839490
  48.0598870  29.3719000  44.0949640  32.7731660  12.7772420  46.4089580
  33.3214650  12.5960470  45.6455690  32.8386970  11.9866530  46.9445890
  33.5463420  29.3678070  44.4189780  32.9523740  29.2362770  45.1579820
  33.5387260  28.5316210  43.9531880  42.9918440  12.6610300  42.6219810
  42.1178280  12.9945410  42.4192740  42.8829190  12.1883480  43.4471680
  43.8990420  14.8681170  44.0061530  43.5703780  14.0532930  43.6263260
  44.8472720  14.8250980  43.8827220  46.3525030  30.6393210  40.9799100
  45.8928000  31.3909020  40.6057120  45.7237490  29.9199680  40.9213900
  33.1775650  26.7336450  43.3697820  32.4509710  26.1141740  43.3023770
  33.2384800  27.1277060  42.4995900  36.7820750  28.9481450  40.1547230
  37.2985770  28.3368810  39.6295490  37.4318130  29.4510230  40.6458240
  39.5216250  29.8389940  40.9816210  39.8094060  29.5844240  40.1049220
  40.0339470  29.2867300  41.5721780  40.7393260  13.5780140  41.5612720
  39.9565050  14.0525640  41.8409480  40.4456190  12.6734970  41.4525900
  45.2914330  14.2803240  39.6061810  45.7322420  14.2248340  38.7583410
  45.0221920  15.1961250  39.6771990  47.1552900  13.9118480  37.6170630
  47.0941300  12.9679700  37.4701650  47.9344930  14.0198570  38.1624090
  31.4605650  30.0510840  36.5794580  31.2927690  29.4181520  37.2776470
  30.5940160  30.2570240  36.2288770  32.0833670  13.8827620  34.0826440
  32.8413030  13.9956500  33.5090470  31.6210840  14.7196820  34.0369870
  38.6247480  15.9966890  37.0728750  37.8121990  15.6223780  36.7324630
  39.1289120  15.2411970  37.3749940  43.1272460  12.6609340  38.3111820
  43.7301830  13.2329550  38.7860340  42.3865450  13.2248780  38.0885720
  46.2707060  13.0630900  33.5852100  46.4657690  13.9614350  33.8519530
  45.4836930  12.8317980  34.0785050  33.0668350  28.7444070  34.0244720
  32.5415970  29.1252100  33.3206680  32.9912930  29.3694840  34.7454430
  34.4558820  14.4091670  32.6228410  34.9851580  13.6221470  32.4936360
  35.0887140  15.0882860  32.8563940  36.6496660  14.1466810  35.6773800
  36.0199400  13.4454120  35.8443930  36.1101800  14.9070940  35.4606960
  39.5888610  30.7606040  48.3484410  40.5155920  30.5250310  48.3920370
  39.5739040  31.5878040  47.8670440  47.8233670  30.3031610  35.3458660
  47.9985860  29.6169350  34.7019580  47.1255240  30.8278660  34.9535330
  36.7752220  13.4250790  48.1126290  36.4936490  13.9284390  47.3487110
  37.1571920  12.6272540  47.7468420  35.6661320  30.6926450  32.8993970
  36.3980140  30.4085730  32.3517860  35.9254990  30.4539730  33.7893350
  34.8276110  26.8091180  32.9040300  34.1984990  27.2776280  33.4526130
  34.9423940  25.9640400  33.3386490  43.3767680  12.8404370  48.6906760
  43.2633130  13.1598980  49.5858280  44.1937420  13.2416880  48.3944040
  46.1566170  29.9875900  48.1725450  46.9491490  29.4925130  47.9651410
  46.4499320  30.6666040  48.7801060  42.2825830  20.8596840  19.0541500
  42.2019880  19.9451450  18.7833210  41.8690250  21.3563910  18.3481210
  40.4143870  22.6375860  20.9350770  39.6385970  22.1576300  21.2249340
  41.0656800  21.9581510  20.7606930  34.4309700  22.9495670  21.8126530
  33.5994580  22.6944380  22.2123040  35.0390680  23.0206440  22.5484450
  44.4351300  27.0436050  19.7149900  43.9732830  26.2723290  20.0437070
  45.2476850  27.0702120  20.2202350  34.4110960  26.9835760  22.0084550
  34.7139000  26.0933500  21.8294770  35.1554550  27.5405980  21.7806800
  32.8401650  17.9097560  15.5968920  31.9518350  18.2513530  15.4948800
  33.1242840  17.7097880  14.7049750  30.8034660  20.5103210  21.4808620
  31.3750770  19.7425410  21.4812260  30.8036200  20.8091970  20.5715230
  40.6614610  29.3294060  19.3353890  40.0426050  29.7851560  18.7648330
  41.5166390  29.4845520  18.9343590  39.8552860  25.3133050  20.9420930
  39.7861140  24.3722990  20.7810060  40.6172720  25.4034460  21.5143500
  32.0459530  15.9187570  23.2677550  31.8662370  15.0213320  23.5480310
  31.6439610  16.4659440  23.9424500  40.8858030  18.1203430  21.1689860
  41.2622850  17.2475310  21.0563530  40.7877540  18.4562130  20.2780300
  35.0163040  16.4929060  16.6307300  35.1229790  17.3932790  16.9376060
  34.1055400  16.4447030  16.3401950  44.6682150  15.6153870  18.1018200
  45.4891770  15.1250440  18.1443680  44.7016230  16.2051530  18.8550040
  32.6646200  18.4148070  21.8759890  33.3456310  18.6786440  22.4947290
  32.3494250  17.5748940  22.2097900  36.8570770  19.4615430  20.9632480
  37.3648990  19.9596400  21.6037500  37.3884010  18.6850630  20.7871840
  48.9581700  17.6320620  24.6661830  48.2533870  18.0202330  24.1476940
  49.2239620  18.3270910  25.2682760  35.1406870  14.1013990  25.2295900
  35.1425310  14.6186380  24.4241800  34.3111180  13.6244170  25.2065830
  41.5277960  24.2133300  16.7285800  40.9095230  24.6782750  16.1648520
  42.0401210  24.9060780  17.1455310  36.3909720  23.7409170  23.4069400
  36.0579100  24.3678090  24.0490470  36.5676400  24.2671050  22.6271070
  44.9043630  17.5554250  20.8745740  44.1999200  17.8439140  21.4548850
  45.2655790  18.3654360  20.5145300  34.8222200  15.8123950  23.2366350
  35.1639010  16.6566000  22.9420220  33.8838010  15.9607690  23.3531690
  35.6028820  25.7089970  25.2218580  36.2202820  26.3841050  24.9403030
  34.7421940  26.1177950  25.1306080  30.8961160  24.8989830  14.1025430
  30.5189140  25.3876930  13.3710330  31.1534230  25.5715110  14.7331960
  46.5206410  27.1729380  23.1373220  45.8369930  27.8428490  23.1289890
  47.0600700  27.3710030  22.3718080  47.9730550  17.0009040  21.2654950
  47.0255460  17.0348020  21.3970380  48.2980540  17.8147990  21.6504310
  38.5050090  13.3006220  19.5610940  38.8125070  12.7453110  18.8446440
  37.5750790  13.4350680  19.3783930  44.0565150  29.0173510  21.8518400
  44.0692310  28.6135800  20.9840660  43.5040370  29.7920800  21.7479830
  45.3510570  25.7389730  16.9408570  45.2406900  24.7964060  17.0657990
  45.3478820  26.1005370  17.8271330  43.4550590  23.9203350  23.1801010
  43.8719380  23.7063460  22.3454470  44.1790410  24.1776140  23.7509630
  40.8930850  21.3655050  16.2971060  39.9660130  21.2992430  16.5259530
  41.0455670  22.3035180  16.1826300  40.8799930  17.6372050  13.2938220
  39.9403600  17.7986010  13.3790680  41.1983190  18.3557730  12.7474210
  47.4012690  22.3190570  23.2717250  46.5731320  22.3883660  22.7967380
  47.9963170  22.9044880  22.8033080  44.9228140  22.9275350  16.8006310
  44.3040560  22.5894900  16.1532610  44.9052590  22.2835110  17.5085500
  44.3654700  19.1059890  24.2172120  43.9525880  19.9313600  24.4712110
  43.6330650  18.5204930  24.0248480  36.4987490  21.8919790  19.0790790
  36.0944490  21.1797040  18.5836690  36.5850610  21.5473030  19.9678830
  36.9669190  25.5787350  21.2430000  36.6697480  24.9732820  20.5637780
  37.9169010  25.6164660  21.1319360  35.2116110  18.6663000  22.8589830
  35.7630700  18.7758340  22.0843080  35.7259620  19.0400600  23.5745060
  45.0554800  29.1519220  24.9053100  44.5785360  29.9591410  24.7125710
  44.3716590  28.4997550  25.0579310  36.0587620  25.3169040  27.8937800
  35.1616150  25.5409010  28.1411200  36.0840490  25.4403980  26.9449200
  43.0992840  22.1662160  13.8079060  43.5386120  21.3284590  13.6616880
  43.8121260  22.7991560  13.8943200  34.8858840  22.1882360  26.4695170
  34.7466610  23.0605160  26.8382570  34.0040200  21.8455170  26.3243110
  41.2088220  27.1058230  17.7760300  41.6484130  27.8482560  17.3615690
  41.1475110  27.3484800  18.6999260  36.6839190  28.1304060  28.6780320
  36.6554620  28.5347010  27.8108750  36.5204160  27.2014420  28.5151920
  46.6809980  13.4204970  12.1220100  46.3682640  13.5131800  13.0219170
  47.4422450  13.9986000  12.0717530  33.1992120  20.7864770  16.5797440
  33.0789720  21.5126860  15.9678710  32.8893010  20.0167680  16.1025350
  48.6354010  28.9131160  29.9744490  49.1113730  29.3914050  30.6533570
  49.2561170  28.8448650  29.2489990  30.8377490  23.9579910  22.3866080
  30.9157910  24.0928680  21.4421800  31.4519170  23.2495800  22.5794200
  32.0825120  25.6580100  18.7972260  31.6753200  25.7994690  17.9425860
  32.9738130  25.3740260  18.5943470  48.0387260  26.1044010  27.1344500
  48.1650320  25.8655890  26.2161680  48.0808640  25.2728550  27.6066580
  41.9004000  29.8072010  25.7039310  42.4148670  29.7180020  26.5061740
  41.0573080  30.1531710  25.9967220  43.8758400  30.0927350  15.1323310
  43.7159540  29.8030290  16.0305140  43.7105110  29.3167480  14.5968540
  36.3546780  29.8725880  16.9094930  36.1789260  28.9561420  16.6962730
  35.5002520  30.2313170  17.1492730  43.5784530  27.6014910  13.6921310
  42.8849690  27.5992200  13.0323590  44.3207390  27.1774230  13.2615480
  43.1434460  29.2277620  17.7669800  43.5991410  28.4467000  18.0808420
  43.4826980  29.9384440  18.3110980  47.8911270  18.1576470  28.0994240
  47.2755540  18.6656140  27.5709700  47.5707690  17.2574800  28.0420180
  30.8937010  24.9994080  24.9260540  31.0568050  24.5299440  24.1079910
  31.3589460  24.4917640  25.5909380  35.6655780  14.1299840  19.9621110
  35.2223930  14.9109380  19.6305630  36.2240770  14.4529730  20.6692050
  39.9525590  16.9968360  25.5656430  39.4904960  17.2051380  26.3776370
  39.5503700  16.1827710  25.2627100  44.9530100  18.2177310  26.6953090
  44.1023690  17.9183060  27.0162160  44.7931890  18.4619320  25.7836910
  42.0479810  19.7179060  28.7951880  42.3733220  18.8842810  28.4554110
  42.8360140  20.2407580  28.9430210  38.7814600  13.7510540  14.8426940
  38.1568780  13.7470410  15.5680250  38.6944720  12.8841500  14.4462910
  37.7031680  14.6747170  21.8210710  38.0004010  15.5810000  21.7402730
  38.2517240  14.1865950  21.2070280  35.4570000  19.2533410  17.6902360
  35.2310920  19.0370580  18.5948980  34.6762530  19.6861870  17.3448330
  42.6867760  19.2596780  16.2893010  42.0876650  19.9832580  16.1056630
  43.2347370  19.1973560  15.5069460  37.8969210  20.1518990  28.3562630
  37.8012810  19.2113720  28.2063030  38.7401190  20.3734060  27.9610700
  41.2932630  17.8960320  18.3196290  41.6862200  18.2132520  17.5064980
  41.6549480  17.0172200  18.4340810  33.0279750  16.5632660  26.5096410
  32.6343140  17.4107870  26.7169190  32.3398150  15.9259030  26.7005050
  39.6024800  16.6467630  29.5793150  38.9123120  16.4539830  30.2139240
  40.3457100  16.9302270  30.1117450  30.3296800  14.4861120  20.5426490
  30.0409850  15.0563980  21.2551470  31.0742560  14.0065570  20.9057720
  30.5167030  18.4281240  11.7529210  30.4341700  19.3712000  11.8944200
  30.1650090  18.2856150  10.8741560  41.8787770  20.4866070  22.4147070
  41.1468890  20.9952880  22.7637170  41.4812110  19.6696050  22.1135850
  38.3165160  17.1620270  20.8199560  38.3201220  16.7210220  19.9704100
  39.2116280  17.4837600  20.9271380  34.1667540  17.0446760  19.7793770
  33.8267590  17.5221990  20.5360820  33.4044860  16.5911880  19.4194870
  38.3785310  18.1632350  13.8106320  38.4998130  18.1218830  14.7592140
  37.9933820  19.0256500  13.6553050  42.3413680  15.9399750  21.8270010
  42.3586420  16.3908400  22.6711860  42.0929260  15.0405390  22.0403450
  37.3906810  20.4733490  13.2089620  36.8223710  20.0251740  12.5825530
  38.0995810  20.8326270  12.6754770  45.7684430  13.3531930  27.6656390
  46.0930200  12.6221590  28.1914370  45.8040940  13.0345570  26.7637380
  32.4675990  24.3745510  27.0856350  32.0830780  23.7339180  27.6839310
  32.7788180  25.0781630  27.6551080  38.6173130  21.2222050  22.5664970
  38.9843260  20.7480620  23.3126310  38.4278190  22.0963620  22.9073310
  31.4813620  15.9665740  18.6958440  31.1960540  15.6021410  19.5337060
  31.4192480  15.2346200  18.0821580  36.4072500  20.2630690  24.8849180
  36.1029570  21.1422670  25.1099540  37.3618960  20.3230480  24.9206620
  34.9354290  24.4691680  15.4816030  34.1616550  23.9289300  15.3214750
  35.6648920  23.9498290  15.1433790  45.6942270  23.4657040  21.2742420
  46.4141390  23.9612330  20.8838530  45.4924090  22.7874930  20.6296290
  41.1552210  14.8595000  15.4171810  40.3416820  14.3608170  15.3417120
  40.9614160  15.6993250  15.0008160  41.0761070  23.5366100  27.1611420
  41.0098380  22.6161770  26.9069010  40.4466210  23.6341540  27.8756060
  43.8700600  19.2314650  13.7133970  44.7580220  19.5431880  13.5385310
  43.8405690  18.3586900  13.3214550  34.9791690  24.1372060  19.1194840
  35.4970360  23.3340320  19.0651730  34.5275710  24.0751200  19.9611670
  39.8661190  25.4038340  14.3922140  40.2076890  26.1480570  13.8965460
  39.0373900  25.7169460  14.7546970  32.4636230  21.1033430  26.0320540
  32.1051170  21.7687280  26.6193880  32.1690790  20.2716980  26.4033160
  35.6649350  21.5617670  28.9160090  35.3649490  21.7074850  28.0187910
  36.4360590  21.0022960  28.8233480  41.0077800  26.3586670  26.9115220
  41.0222340  25.4267630  26.6934130  40.3002900  26.4446430  27.5504990
  46.1414870  20.5426490  13.1813830  46.0578590  20.9740710  12.3310270
  46.8609060  21.0024840  13.6140650  47.2189010  22.9994010  26.2583800
  46.4937200  23.5922790  26.0613190  47.7464470  22.9917550  25.4597170
  47.1702120  27.3968750  15.9095960  46.5278280  26.7424370  16.1839680
  46.7832780  27.8023840  15.1336630  42.7488600  24.7254180  19.7567650
  43.1012420  24.1282310  19.0969020  41.8650930  24.3998410  19.9275900
  38.8351880  25.4851870  17.1638060  39.5223010  26.0321080  17.5445650
  38.0484300  26.0292600  17.1987670  30.9744280  21.1024690  12.6555140
  31.8439130  21.3849490  12.9391060  30.4834600  21.9160560  12.5403950
  38.1379090  22.4897900  16.7763420  38.5941870  23.3003150  17.0023610
  37.7867300  22.1721040  17.6081910  40.4411700  28.0004240  24.0055720
  41.0853920  28.2063620  24.6829140  40.8041140  27.2392640  23.5526570
  34.0390870  12.8335550  17.2485940  33.9105500  12.8253450  18.1970860
  33.2152890  13.1718640  16.8976950  41.7143780  26.0036590  22.7233170
  42.3566010  25.3029750  22.8365340  42.2393130  26.7835030  22.5430060
  45.5599500  26.2885210  12.4472310  45.3337080  25.5715650  13.0396950
  45.1695700  26.0397650  11.6094060  43.4881400  26.8031490  25.9269230
  43.8237640  27.3898180  26.6047150  42.5681740  26.6724200  26.1567020
  31.3415530  30.3152070  13.2216770  31.7013170  30.9141410  12.5674040
  31.2007870  30.8611960  13.9951800  31.0384800  14.5926670  26.7092640
  30.3243320  14.7923590  27.3145250  31.4579840  13.8166240  27.0807440
  45.1415750  24.2057150  14.1086470  44.8537450  24.6669840  14.8964350
  45.9367920  23.7454920  14.3770690  31.3257390  28.5806930  27.6959170
  31.4348510  27.6401670  27.5554560  30.6737950  28.8461680  27.0472900
  39.3169980  26.8522820  29.0957290  38.9966850  26.1332060  29.6402980
  38.6428340  27.5277890  29.1693350  37.3584150  27.6983270  14.0390440
  37.3494250  28.4312960  13.4234950  36.4382510  27.4514850  14.1317400
  32.9590790  22.9198160  14.7837200  32.3518740  23.6597060  14.7932500
  33.4340140  23.0097520  13.9575400  42.5323580  17.0848980  24.4594090
  42.9004400  16.2644190  24.7873660  41.6721780  17.1450870  24.8749740
  45.8985610  16.0405920  15.2681650  45.2698770  16.1451590  14.5539880
  45.4037530  16.2602700  16.0575530  40.3443750  27.7611510  12.7015630
  40.4455730  27.5575500  11.7717610  39.4445490  27.5069790  12.9063410
  37.8669640  18.3191870  16.6839530  37.1585790  18.7878210  17.1253140
  38.1514120  17.6613880  17.3184720  39.4925570  19.7388570  24.6832060
  39.9910820  20.2134390  25.3483910  39.6348520  18.8152090  24.8902090
  41.8985070  15.0442530  18.1235320  41.7752850  15.0628660  17.1744830
  42.8469630  15.0921470  18.2433720  38.9861860  30.2797830  17.3963300
  39.2403360  30.2419220  16.4742670  38.0374340  30.1531160  17.3891550
  36.0704660  16.6276950  14.0590240  36.9195190  17.0647100  13.9930430
  35.7035930  16.9397210  14.8862300  46.6992430  15.9556530  25.5260450
  46.1966030  16.6961930  25.8654260  47.5149090  16.3440530  25.2097240
  44.9914440  21.1989710  18.9721810  44.0504580  21.2139940  19.1469500
  45.3058510  20.4125670  19.4182110  34.9696080  22.8809310  12.5325770
  35.7359350  22.7690670  13.0951200  35.0470770  22.1847280  11.8802540
  33.6642840  20.3134380  13.2158660  33.7446430  19.3661890  13.3276060
  34.5562590  20.6441260  13.3219320  46.9940020  28.3698560  20.6476070
  47.1187440  29.1929730  21.1199880  47.8605580  28.1589290  20.3000220
  34.4657550  30.4629770  20.3193200  35.2020030  29.9145230  20.5901770
  34.8498470  31.3285780  20.1799190  31.3503030  26.5303340  16.1934710
  30.4242810  26.7724480  16.1840120  31.8159460  27.3577600  16.0719460
  33.4715830  29.6475840  29.5078780  34.2728560  29.9687890  29.9214180
  32.9567650  29.2871420  30.2298690  37.5759860  29.6360080  12.1418770
  38.3688470  29.9248910  11.6900560  37.0564210  29.2052250  11.4631250
  42.3080460  25.7555710  29.4554190  41.7018620  25.7787310  28.7149940
  42.0034570  25.0238750  29.9921440  43.7380830  29.4836000  28.0663600
  44.6902580  29.3994020  28.0163840  43.5909050  30.1477710  28.7397390
  46.6290030  28.8630210  13.5655510  46.3431540  28.4495350  12.7509690
  46.4309580  29.7917920  13.4456030  31.1913640  22.1349300  28.4514830
  31.6952660  21.5556580  29.0231060  30.4521060  22.4189530  28.9891200
  38.0937260  24.8563490  12.0061120  37.9887900  24.2415840  12.7322500
  37.9261480  24.3329380  11.2224130  38.2451580  23.5420290  27.9850350
  37.4797250  24.1105290  27.9005020  38.4267540  23.2496500  27.0918580
  41.3339990  23.9183520  12.6103110  40.7850090  24.3652820  13.2545850
  41.9559250  23.4132770  13.1340780  45.3874930  25.2725620  28.5425370
  46.1284400  25.6101380  28.0392830  44.6247610  25.4417680  27.9895140
  33.2236720  20.2778890  29.3464900  33.2642060  19.9792760  30.2550130
  34.0782220  20.6786500  29.1872420  37.0015110  22.8774440  14.5068410
  37.4231530  22.7114310  15.3499800  37.1265950  22.0674670  14.0123550
  35.1642530  18.8570990  27.3139390  34.6338990  18.3661940  26.6862730
  35.8330600  19.2855190  26.7797320  39.5142750  21.9012050  11.7545510
  40.0348410  21.1861070  11.3886660  40.1611150  22.5397920  12.0546020
  44.0620590  23.3240450  27.0780580  44.4761610  23.4785530  27.9271000
  43.1271590  23.4495670  27.2406360  44.5342760  20.6636610  29.0819730
  45.1163530  19.9088930  28.9940210  44.7104530  21.1944050  28.3051210
  35.6514830  15.8233360  27.3936680  35.5571700  15.2054110  26.6687550
  35.0712220  16.5499650  27.1666590  38.4176270  14.3806600  24.4264070
  37.9693570  14.4030860  23.5809620  37.7841470  13.9825620  25.0234370
  38.8235820  23.2760930  25.0476510  39.2423930  24.1193660  24.8752750
  37.9044450  23.4132970  24.8183290  41.1599720  21.0077110  26.4314350
  41.2795930  20.4118250  27.1709190  42.0193720  21.0446800  26.0115650
  43.4987620  21.5614300  25.0076860  42.9722840  22.0856920  24.4042000
  43.8418960  22.1941690  25.6386590  35.8974010  18.9507670  11.4526570
  35.6963070  18.0875030  11.8139910  35.7266060  18.8641030  10.5148170
  36.6743240  29.5813940  26.1634240  36.1364330  30.3060000  25.8442940
  36.9277200  29.1044280  25.3731580  37.9268490  17.5498460  27.6890170
  38.5168180  17.2414310  28.3767990  37.1088730  17.0778210  27.8450070
  42.7461920  17.1664270  27.9223190  42.0577440  16.5045810  27.8573180
  43.4667940  16.7202540  28.3671650  43.3762320  13.7615900  13.9813450
  43.6564610  12.9183800  14.3372870  42.6028050  13.9939010  14.4952200
  34.6956810  16.0508290  11.4404450  34.9982710  16.0575720  10.5323600
  35.4351400  15.7006150  11.9372110  39.5305450  30.8165150  26.4220890
  39.4564150  31.7200290  26.7293260  38.6284290  30.4977050  26.3942960
  37.9141740  14.9942910  12.4260650  37.5663740  14.3166900  11.8463100
  38.1154510  14.5332420  13.2404040  40.0790780  29.9823660  14.0447250
  40.9741570  30.3208630  14.0666010  40.1108410  29.2603070  13.4171530
  33.7186940  25.3550710  12.2734250  34.1561810  25.8980380  12.9291830
  34.2034670  24.5297660  12.2830590  30.9332740  28.1439740  19.7254510
  31.2635750  27.2760800  19.4933150  31.3623740  28.3498260  20.5559470
  35.5294660  26.4748750  17.3856480  35.2290200  26.3513720  18.2860390
  35.4232150  25.6157340  16.9772210  31.4222950  29.0110330  22.4636140
  30.9853940  29.1911130  23.2960290  31.9900630  29.7684950  22.3217860
  47.0585130  28.5127330  26.7513450  46.4587120  28.5719890  26.0077370
  47.1879030  27.5732310  26.8810300  48.2986580  26.2545150  12.0883160
  47.4679540  26.3221800  12.5590390  48.4758410  27.1449270  11.7850020
  47.7543040  22.9992630  14.5917360  48.5161950  23.5689280  14.6977050
  47.7697410  22.4319830  15.3625670  31.2547380  21.5230560  18.8225020
  30.5996220  21.2542200  18.1784720  32.0925330  21.4135040  18.3727000
  48.7603010  23.8542730  19.4359290  49.1311840  23.0710050  19.0295260
  49.4004940  24.5431830  19.2576590  45.7436770  25.2379310  24.8489610
  44.9296610  25.6676470  25.1115400  46.1510970  25.8497720  24.2358660
  47.8062210  23.2927000  11.7489880  48.0811050  24.2005880  11.6209100
  47.6172950  23.2289530  12.6851870  44.2037820  16.3171850  13.0443510
  44.6222700  16.1302830  12.2040170  43.8973880  15.4650900  13.3546440
  47.7027550  21.2295990  16.7419310  47.3271150  20.4623920  16.3100600
  46.9730670  21.6118690  17.2294240  32.2923310  21.9083130  23.3628360
  32.6596350  21.8210530  24.2424380  31.7234130  21.1449680  23.2635220
  47.0927170  20.3767510  26.3758830  46.8613260  20.1480260  25.4756780
  47.3531720  21.2967060  26.3303720  31.8439310  18.8192220  27.2686780
  30.9495360  18.7858980  27.6080490  32.3836860  19.0179010  28.0338030
  45.5315240  15.6023940  29.1538530  46.4085420  15.6107340  29.5372530
  45.5436080  14.8654780  28.5430880  30.4685460  18.7329490  14.7650350
  29.5649540  18.9959690  14.5902010  30.9526080  19.0040660  13.9850310
  46.9778510  19.4553480  20.0426550  47.5015990  18.9616130  19.4116720
  47.5637930  19.5903840  20.7874120  47.1568230  19.5393350  23.5646100
  46.2070940  19.5056890  23.6791090  47.3381240  20.4493460  23.3295870
  33.0112670  17.7895030  12.6744730  33.7204370  17.3678250  12.1892010
  32.2952610  17.8570260  12.0428080  32.6586830  13.8434360  11.7147380
  33.3814960  14.3843300  12.0328600  32.9311350  13.5697780  10.8388920
  46.4678480  18.7126830  15.9818960  46.9637600  18.4797700  16.7667840
  46.2694550  17.8738670  15.5656600  32.3479020  13.0940550  21.6170000
  32.9955210  12.5437930  21.1765160  32.7680860  13.3483700  22.4385810
  47.8965640  17.3487780  18.5156640  47.7864920  17.1943820  19.4538910
  48.6573230  16.8208720  18.2732050  46.2431360  13.2881910  24.9739640
  46.8803580  13.9016050  25.3398830  46.3906250  13.3242570  24.0288870
  48.7855910  15.1795700  11.7562780  49.7105220  15.0476880  11.5481070
  48.7631700  15.2588520  12.7099230  48.8594400  15.9506360  14.3819490
  48.0645900  15.8851480  14.9112400  49.0637680  16.8857000  14.3704840
  45.8012820  29.9897910  18.3757880  46.3971890  29.6682480  17.6992300
  46.0590970  29.5169730  19.1671150  32.1011020  13.2496220  24.3595320
  31.7525840  13.7060040  25.1253500  31.7698720  12.3553350  24.4417750
  33.7075390  26.4215820  28.5248510  33.6645020  26.0508730  29.4062970
  33.8386400  27.3593390  28.6650330  37.4081420  27.9775410  24.1258230
  37.1672780  28.2449970  23.2388750  38.3484060  28.1481140  24.1809090
  39.6135840  14.4408100  27.8814740  39.5524730  15.0329930  28.6310150
  40.5536220  14.3334060  27.7365000  42.2510400  14.0978160  27.5207030
  42.8650810  14.4157450  26.8588110  42.7959960  13.6126750  28.1402890
  48.6685580  29.9969790  24.9268870  48.1743860  30.3938660  24.2096000
  48.0598870  29.3719000  25.3206150  32.7731660  12.7772420  27.6346090
  33.3214650  12.5960470  26.8712200  32.8386970  11.9866530  28.1702400
  33.5463420  29.3678070  25.6446290  32.9523740  29.2362770  26.3836330
  33.5387260  28.5316210  25.1788390  42.9918440  12.6610300  23.8476320
  42.1178280  12.9945410  23.6449250  42.8829190  12.1883480  24.6728190
  43.8990420  14.8681170  25.2318040  43.5703780  14.0532930  24.8519770
  44.8472720  14.8250980  25.1083730  46.3525030  30.6393210  22.2055610
  45.8928000  31.3909020  21.8313630  45.7237490  29.9199680  22.1470410
  33.1775650  26.7336450  24.5954330  32.4509710  26.1141740  24.5280280
  33.2384800  27.1277060  23.7252410  36.7820750  28.9481450  21.3803740
  37.2985770  28.3368810  20.8552000  37.4318130  29.4510230  21.8714750
  39.5216250  29.8389940  22.2072720  39.8094060  29.5844240  21.3305730
  40.0339470  29.2867300  22.7978290  40.7393260  13.5780140  22.7869230
  39.9565050  14.0525640  23.0665990  40.4456190  12.6734970  22.6782410
  45.2914330  14.2803240  20.8318320  45.7322420  14.2248340  19.9839920
  45.0221920  15.1961250  20.9028500  47.1552900  13.9118480  18.8427140
  47.0941300  12.9679700  18.6958160  47.9344930  14.0198570  19.3880600
  31.4605650  30.0510840  17.8051090  31.2927690  29.4181520  18.5032980
  30.5940160  30.2570240  17.4545280  32.0833670  13.8827620  15.3082950
  32.8413030  13.9956500  14.7346980  31.6210840  14.7196820  15.2626380
  38.6247480  15.9966890  18.2985260  37.8121990  15.6223780  17.9581140
  39.1289120  15.2411970  18.6006450  43.1272460  12.6609340  19.5368330
  43.7301830  13.2329550  20.0116850  42.3865450  13.2248780  19.3142230
  46.2707060  13.0630900  14.8108610  46.4657690  13.9614350  15.0776040
  45.4836930  12.8317980  15.3041560  33.0668350  28.7444070  15.2501230
  32.5415970  29.1252100  14.5463190  32.9912930  29.3694840  15.9710940
  34.4558820  14.4091670  13.8484920  34.9851580  13.6221470  13.7192870
  35.0887140  15.0882860  14.0820450  36.6496660  14.1466810  16.9030310
  36.0199400  13.4454120  17.0700440  36.1101800  14.9070940  16.6863470
  39.5888610  30.7606040  29.5740920  40.5155920  30.5250310  29.6176880
  39.5739040  31.5878040  29.0926950  47.8233670  30.3031610  16.5715170
  47.9985860  29.6169350  15.9276090  47.1255240  30.8278660  16.1791840
  36.7752220  13.4250790  29.3382800  36.4936490  13.9284390  28.5743620
  37.1571920  12.6272540  28.9724930  35.6661320  30.6926450  14.1250480
  36.3980140  30.4085730  13.5774370  35.9254990  30.4539730  15.0149860
  34.8276110  26.8091180  14.1296810  34.1984990  27.2776280  14.6782640
  34.9423940  25.9640400  14.5643000  43.3767680  12.8404370  29.9163270
  43.2633130  13.1598980  30.8114790  44.1937420  13.2416880  29.6200550
  46.1566170  29.9875900  29.3981960  46.9491490  29.4925130  29.1907920
  46.4499320  30.6666040  30.0057570  40.4143870  22.6375860   2.1607280
  39.6385970  22.1576300   2.4505850  41.0656800  21.9581510   1.9863440
  34.4309700  22.9495670   3.0383040  33.5994580  22.6944380   3.4379550
  35.0390680  23.0206440   3.7740960  34.4110960  26.9835760   3.2341060
  34.7139000  26.0933500   3.0551280  35.1554550  27.5405980   3.0063310
  30.8034660  20.5103210   2.7065130  31.3750770  19.7425410   2.7068770
  30.8036200  20.8091970   1.7971740  39.8552860  25.3133050   2.1677440
  39.7861140  24.3722990   2.0066570  40.6172720  25.4034460   2.7400010
  32.0459530  15.9187570   4.4934060  31.8662370  15.0213320   4.7736820
  31.6439610  16.4659440   5.1681010  32.6646200  18.4148070   3.1016400
  33.3456310  18.6786440   3.7203800  32.3494250  17.5748940   3.4354410
  36.8570770  19.4615430   2.1888990  37.3648990  19.9596400   2.8294010
  37.3884010  18.6850630   2.0128350  48.9581700  17.6320620   5.8918340
  48.2533870  18.0202330   5.3733450  49.2239620  18.3270910   6.4939270
  35.1406870  14.1013990   6.4552410  35.1425310  14.6186380   5.6498310
  34.3111180  13.6244170   6.4322340  36.3909720  23.7409170   4.6325910
  36.0579100  24.3678090   5.2746980  36.5676400  24.2671050   3.8527580
  44.9043630  17.5554250   2.1002250  44.1999200  17.8439140   2.6805360
  45.2655790  18.3654360   1.7401810  34.8222200  15.8123950   4.4622860
  35.1639010  16.6566000   4.1676730  33.8838010  15.9607690   4.5788200
  35.6028820  25.7089970   6.4475090  36.2202820  26.3841050   6.1659540
  34.7421940  26.1177950   6.3562590  46.5206410  27.1729380   4.3629730
  45.8369930  27.8428490   4.3546400  47.0600700  27.3710030   3.5974590
  47.9730550  17.0009040   2.4911460  47.0255460  17.0348020   2.6226890
  48.2980540  17.8147990   2.8760820  44.0565150  29.0173510   3.0774910
  44.0692310  28.6135800   2.2097170  43.5040370  29.7920800   2.9736340
  43.4550590  23.9203350   4.4057520  43.8719380  23.7063460   3.5710980
  44.1790410  24.1776140   4.9766140  47.4012690  22.3190570   4.4973760
  46.5731320  22.3883660   4.0223890  47.9963170  22.9044880   4.0289590
  44.3654700  19.1059890   5.4428630  43.9525880  19.9313600   5.6968620
  43.6330650  18.5204930   5.2504990  36.9669190  25.5787350   2.4686510
  36.6697480  24.9732820   1.7894290  37.9169010  25.6164660   2.3575870
  35.2116110  18.6663000   4.0846340  35.7630700  18.7758340   3.3099590
  35.7259620  19.0400600   4.8001570  45.0554800  29.1519220   6.1309610
  44.5785360  29.9591410   5.9382220  44.3716590  28.4997550   6.2835820
  36.0587620  25.3169040   9.1194310  35.1616150  25.5409010   9.3667710
  36.0840490  25.4403980   8.1705710  34.8858840  22.1882360   7.6951680
  34.7466610  23.0605160   8.0639080  34.0040200  21.8455170   7.5499620
  36.6839190  28.1304060   9.9036830  36.6554620  28.5347010   9.0365260
  36.5204160  27.2014420   9.7408430  48.6354010  28.9131160  11.2001000
  49.1113730  29.3914050  11.8790080  49.2561170  28.8448650  10.4746500
  30.8377490  23.9579910   3.6122590  30.9157910  24.0928680   2.6678310
  31.4519170  23.2495800   3.8050710  48.0387260  26.1044010   8.3601010
  48.1650320  25.8655890   7.4418190  48.0808640  25.2728550   8.8323090
  41.9004000  29.8072010   6.9295820  42.4148670  29.7180020   7.7318250
  41.0573080  30.1531710   7.2223730  47.8911270  18.1576470   9.3250750
  47.2755540  18.6656140   8.7966210  47.5707690  17.2574800   9.2676690
  30.8937010  24.9994080   6.1517050  31.0568050  24.5299440   5.3336420
  31.3589460  24.4917640   6.8165890  39.9525590  16.9968360   6.7912940
  39.4904960  17.2051380   7.6032880  39.5503700  16.1827710   6.4883610
  44.9530100  18.2177310   7.9209600  44.1023690  17.9183060   8.2418670
  44.7931890  18.4619320   7.0093420  42.0479810  19.7179060  10.0208390
  42.3733220  18.8842810   9.6810620  42.8360140  20.2407580  10.1686720
  37.7031680  14.6747170   3.0467220  38.0004010  15.5810000   2.9659240
  38.2517240  14.1865950   2.4326790  37.8969210  20.1518990   9.5819140
  37.8012810  19.2113720   9.4319540  38.7401190  20.3734060   9.1867210
  33.0279750  16.5632660   7.7352920  32.6343140  17.4107870   7.9425700
  32.3398150  15.9259030   7.9261560  39.6024800  16.6467630  10.8049660
  38.9123120  16.4539830  11.4395750  40.3457100  16.9302270  11.3373960
  30.3296800  14.4861120   1.7683000  30.0409850  15.0563980   2.4807980
  31.0742560  14.0065570   2.1314230  41.8787770  20.4866070   3.6403580
  41.1468890  20.9952880   3.9893680  41.4812110  19.6696050   3.3392360
  42.3413680  15.9399750   3.0526520  42.3586420  16.3908400   3.8968370
  42.0929260  15.0405390   3.2659960  45.7684430  13.3531930   8.8912900
  46.0930200  12.6221590   9.4170880  45.8040940  13.0345570   7.9893890
  32.4675990  24.3745510   8.3112860  32.0830780  23.7339180   8.9095820
  32.7788180  25.0781630   8.8807590  38.6173130  21.2222050   3.7921480
  38.9843260  20.7480620   4.5382820  38.4278190  22.0963620   4.1329820
  36.4072500  20.2630690   6.1105690  36.1029570  21.1422670   6.3356050
  37.3618960  20.3230480   6.1463130  45.6942270  23.4657040   2.4998930
  46.4141390  23.9612330   2.1095040  45.4924090  22.7874930   1.8552800
  41.0761070  23.5366100   8.3867930  41.0098380  22.6161770   8.1325520
  40.4466210  23.6341540   9.1012570  32.4636230  21.1033430   7.2577050
  32.1051170  21.7687280   7.8450390  32.1690790  20.2716980   7.6289670
  35.6649350  21.5617670  10.1416600  35.3649490  21.7074850   9.2444420
  36.4360590  21.0022960  10.0489990  41.0077800  26.3586670   8.1371730
  41.0222340  25.4267630   7.9190640  40.3002900  26.4446430   8.7761500
  47.2189010  22.9994010   7.4840310  46.4937200  23.5922790   7.2869700
  47.7464470  22.9917550   6.6853680  40.4411700  28.0004240   5.2312230
  41.0853920  28.2063620   5.9085650  40.8041140  27.2392640   4.7783080
  41.7143780  26.0036590   3.9489680  42.3566010  25.3029750   4.0621850
  42.2393130  26.7835030   3.7686570  43.4881400  26.8031490   7.1525740
  43.8237640  27.3898180   7.8303660  42.5681740  26.6724200   7.3823530
  31.0384800  14.5926670   7.9349150  30.3243320  14.7923590   8.5401760
  31.4579840  13.8166240   8.3063950  31.3257390  28.5806930   8.9215680
  31.4348510  27.6401670   8.7811070  30.6737950  28.8461680   8.2729410
  39.3169980  26.8522820  10.3213800  38.9966850  26.1332060  10.8659490
  38.6428340  27.5277890  10.3949860  42.5323580  17.0848980   5.6850600
  42.9004400  16.2644190   6.0130170  41.6721780  17.1450870   6.1006250
  39.4925570  19.7388570   5.9088570  39.9910820  20.2134390   6.5740420
  39.6348520  18.8152090   6.1158600  46.6992430  15.9556530   6.7516960
  46.1966030  16.6961930   7.0910770  47.5149090  16.3440530   6.4353750
  33.4715830  29.6475840  10.7335290  34.2728560  29.9687890  11.1470690
  32.9567650  29.2871420  11.4555200  42.3080460  25.7555710  10.6810700
  41.7018620  25.7787310   9.9406450  42.0034570  25.0238750  11.2177950
  43.7380830  29.4836000   9.2920110  44.6902580  29.3994020   9.2420350
  43.5909050  30.1477710   9.9653900  31.1913640  22.1349300   9.6771340
  31.6952660  21.5556580  10.2487570  30.4521060  22.4189530  10.2147710
  38.2451580  23.5420290   9.2106860  37.4797250  24.1105290   9.1261530
  38.4267540  23.2496500   8.3175090  45.3874930  25.2725620   9.7681880
  46.1284400  25.6101380   9.2649340  44.6247610  25.4417680   9.2151650
  33.2236720  20.2778890  10.5721410  33.2642060  19.9792760  11.4806640
  34.0782220  20.6786500  10.4128930  35.1642530  18.8570990   8.5395900
  34.6338990  18.3661940   7.9119240  35.8330600  19.2855190   8.0053830
  44.0620590  23.3240450   8.3037090  44.4761610  23.4785530   9.1527510
  43.1271590  23.4495670   8.4662870  44.5342760  20.6636610  10.3076240
  45.1163530  19.9088930  10.2196720  44.7104530  21.1944050   9.5307720
  35.6514830  15.8233360   8.6193190  35.5571700  15.2054110   7.8944060
  35.0712220  16.5499650   8.3923100  38.4176270  14.3806600   5.6520580
  37.9693570  14.4030860   4.8066130  37.7841470  13.9825620   6.2490880
  38.8235820  23.2760930   6.2733020  39.2423930  24.1193660   6.1009260
  37.9044450  23.4132970   6.0439800  41.1599720  21.0077110   7.6570860
  41.2795930  20.4118250   8.3965700  42.0193720  21.0446800   7.2372160
  43.4987620  21.5614300   6.2333370  42.9722840  22.0856920   5.6298510
  43.8418960  22.1941690   6.8643100  36.6743240  29.5813940   7.3890750
  36.1364330  30.3060000   7.0699450  36.9277200  29.1044280   6.5988090
  37.9268490  17.5498460   8.9146680  38.5168180  17.2414310   9.6024500
  37.1088730  17.0778210   9.0706580  42.7461920  17.1664270   9.1479700
  42.0577440  16.5045810   9.0829690  43.4667940  16.7202540   9.5928160
  39.5305450  30.8165150   7.6477400  39.4564150  31.7200290   7.9549770
  38.6284290  30.4977050   7.6199470  31.4222950  29.0110330   3.6892650
  30.9853940  29.1911130   4.5216800  31.9900630  29.7684950   3.5474370
  47.0585130  28.5127330   7.9769960  46.4587120  28.5719890   7.2333880
  47.1879030  27.5732310   8.1066810  45.7436770  25.2379310   6.0746120
  44.9296610  25.6676470   6.3371910  46.1510970  25.8497720   5.4615170
  32.2923310  21.9083130   4.5884870  32.6596350  21.8210530   5.4680890
  31.7234130  21.1449680   4.4891730  47.0927170  20.3767510   7.6015340
  46.8613260  20.1480260   6.7013290  47.3531720  21.2967060   7.5560230
  31.8439310  18.8192220   8.4943290  30.9495360  18.7858980   8.8337000
  32.3836860  19.0179010   9.2594540  45.5315240  15.6023940  10.3795040
  46.4085420  15.6107340  10.7629040  45.5436080  14.8654780   9.7687390
  47.1568230  19.5393350   4.7902610  46.2070940  19.5056890   4.9047600
  47.3381240  20.4493460   4.5552380  32.3479020  13.0940550   2.8426510
  32.9955210  12.5437930   2.4021670  32.7680860  13.3483700   3.6642320
  46.2431360  13.2881910   6.1996150  46.8803580  13.9016050   6.5655340
  46.3906250  13.3242570   5.2545380  32.1011020  13.2496220   5.5851830
  31.7525840  13.7060040   6.3510010  31.7698720  12.3553350   5.6674260
  33.7075390  26.4215820   9.7505020  33.6645020  26.0508730  10.6319480
  33.8386400  27.3593390   9.8906840  37.4081420  27.9775410   5.3514740
  37.1672780  28.2449970   4.4645260  38.3484060  28.1481140   5.4065600
  39.6135840  14.4408100   9.1071250  39.5524730  15.0329930   9.8566660
  40.5536220  14.3334060   8.9621510  42.2510400  14.0978160   8.7463540
  42.8650810  14.4157450   8.0844620  42.7959960  13.6126750   9.3659400
  48.6685580  29.9969790   6.1525380  48.1743860  30.3938660   5.4352510
  48.0598870  29.3719000   6.5462660  32.7731660  12.7772420   8.8602600
  33.3214650  12.5960470   8.0968710  32.8386970  11.9866530   9.3958910
  33.5463420  29.3678070   6.8702800  32.9523740  29.2362770   7.6092840
  33.5387260  28.5316210   6.4044900  42.9918440  12.6610300   5.0732830
  42.1178280  12.9945410   4.8705760  42.8829190  12.1883480   5.8984700
  43.8990420  14.8681170   6.4574550  43.5703780  14.0532930   6.0776280
  44.8472720  14.8250980   6.3340240  46.3525030  30.6393210   3.4312120
  45.8928000  31.3909020   3.0570140  45.7237490  29.9199680   3.3726920
  33.1775650  26.7336450   5.8210840  32.4509710  26.1141740   5.7536790
  33.2384800  27.1277060   4.9508920  36.7820750  28.9481450   2.6060250
  37.2985770  28.3368810   2.0808510  37.4318130  29.4510230   3.0971260
  39.5216250  29.8389940   3.4329230  39.8094060  29.5844240   2.5562240
  40.0339470  29.2867300   4.0234800  40.7393260  13.5780140   4.0125740
  39.9565050  14.0525640   4.2922500  40.4456190  12.6734970   3.9038920
  39.5888610  30.7606040  10.7997430  40.5155920  30.5250310  10.8433390
  39.5739040  31.5878040  10.3183460  36.7752220  13.4250790  10.5639310
  36.4936490  13.9284390   9.8000130  37.1571920  12.6272540  10.1981440
  43.3767680  12.8404370  11.1419780  43.2633130  13.1598980  12.0371300
  44.1937420  13.2416880  10.8457060  46.1566170  29.9875900  10.6238470
  46.9491490  29.4925130  10.4164430  46.4499320  30.6666040  11.2314080
  44.4351300   8.2692560 151.1354330  43.9732830   7.4979800 151.4641500
  45.2476850   8.2958630 151.6406780  40.6614610  10.5550570 150.7558320
  40.0426050  11.0108070 150.1852760  41.5166390  10.7102030 150.3548020
  41.5277960   5.4389810 148.1490230  40.9095230   5.9039260 147.5852950
  42.0401210   6.1317290 148.5659740  30.8961160   6.1246340 145.5229860
  30.5189140   6.6133440 144.7914760  31.1534230   6.7971620 146.1536390
  45.3510570   6.9646240 148.3613000  45.2406900   6.0220570 148.4862420
  45.3478820   7.3261880 149.2475760  40.8930850   2.5911560 147.7175490
  39.9660130   2.5248940 147.9463960  41.0455670   3.5291690 147.6030730
  44.9228140   4.1531860 148.2210740  44.3040560   3.8151410 147.5737040
  44.9052590   3.5091620 148.9289930  36.4987490   3.1176300 150.4995220
  36.0944490   2.4053550 150.0041120  36.5850610   2.7729540 151.3883260
  43.0992840   3.3918670 145.2283490  43.5386120   2.5541100 145.0821310
  43.8121260   4.0248070 145.3147630  41.2088220   8.3314740 149.1964730
  41.6484130   9.0739070 148.7820120  41.1475110   8.5741310 150.1203690
  32.0825120   6.8836610 150.2176690  31.6753200   7.0251200 149.3630290
  32.9738130   6.5996770 150.0147900  43.8758400  11.3183860 146.5527740
  43.7159540  11.0286800 147.4509570  43.7105110  10.5423990 146.0172970
  36.3546780  11.0982390 148.3299360  36.1789260  10.1817930 148.1167160
  35.5002520  11.4569680 148.5697160  43.5784530   8.8271420 145.1125740
  42.8849690   8.8248710 144.4528020  44.3207390   8.4030740 144.6819910
  43.1434460  10.4534130 149.1874230  43.5991410   9.6723510 149.5012850
  43.4826980  11.1640950 149.7315410  34.9354290   5.6948190 146.9020460
  34.1616550   5.1545810 146.7419180  35.6648920   5.1754800 146.5638220
  34.9791690   5.3628570 150.5399270  35.4970360   4.5596830 150.4856160
  34.5275710   5.3007710 151.3816100  39.8661190   6.6294850 145.8126570
  40.2076890   7.3737080 145.3169890  39.0373900   6.9425970 146.1751400
  46.1414870   1.7683000 144.6018260  46.0578590   2.1997220 143.7514700
  46.8609060   2.2281350 145.0345080  47.1702120   8.6225260 147.3300390
  46.5278280   7.9680880 147.6044110  46.7832780   9.0280350 146.5541060
  42.7488600   5.9510690 151.1772080  43.1012420   5.3538820 150.5173450
  41.8650930   5.6254920 151.3480330  38.8351880   6.7108380 148.5842490
  39.5223010   7.2577590 148.9650080  38.0484300   7.2549110 148.6192100
  30.9744280   2.3281200 144.0759570  31.8439130   2.6106000 144.3595490
  30.4834600   3.1417070 143.9608380  38.1379090   3.7154410 148.1967850
  38.5941870   4.5259660 148.4228040  37.7867300   3.3977550 149.0286340
  45.5599500   7.5141720 143.8676740  45.3337080   6.7972160 144.4601380
  45.1695700   7.2654160 143.0298490  31.3415530  11.5408580 144.6421200
  31.7013170  12.1397920 143.9878470  31.2007870  12.0868470 145.4156230
  45.1415750   5.4313660 145.5290900  44.8537450   5.8926350 146.3168780
  45.9367920   4.9711430 145.7975120  37.3584150   8.9239780 145.4594870
  37.3494250   9.6569470 144.8439380  36.4382510   8.6771360 145.5521830
  32.9590790   4.1454670 146.2041630  32.3518740   4.8853570 146.2136930
  33.4340140   4.2354030 145.3779830  40.3443750   8.9868020 144.1220060
  40.4455730   8.7832010 143.1922040  39.4445490   8.7326300 144.3267840
  38.9861860  11.5054340 148.8167730  39.2403360  11.4675730 147.8947100
  38.0374340  11.3787670 148.8095980  34.9696080   4.1065820 143.9530200
  35.7359350   3.9947180 144.5155630  35.0470770   3.4103790 143.3006970
  34.4657550  11.6886280 151.7397630  35.2020030  11.1401740 152.0106200
  34.8498470  12.5542290 151.6003620  31.3503030   7.7559850 147.6139140
  30.4242810   7.9980990 147.6044550  31.8159460   8.5834110 147.4923890
  37.5759860  10.8616590 143.5623200  38.3688470  11.1505420 143.1104990
  37.0564210  10.4308760 142.8835680  46.6290030  10.0886720 144.9859940
  46.3431540   9.6751860 144.1714120  46.4309580  11.0174430 144.8660460
  38.0937260   6.0820000 143.4265550  37.9887900   5.4672350 144.1526930
  37.9261480   5.5585890 142.6428560  41.3339990   5.1440030 144.0307540
  40.7850090   5.5909330 144.6750280  41.9559250   4.6389280 144.5545210
  37.0015110   4.1030950 145.9272840  37.4231530   3.9370820 146.7704230
  37.1265950   3.2931180 145.4327980  39.5142750   3.1268560 143.1749940
  40.0348410   2.4117580 142.8091090  40.1611150   3.7654430 143.4750450
  40.0790780  11.2080170 145.4651680  40.9741570  11.5465140 145.4870440
  40.1108410  10.4859580 144.8375960  33.7186940   6.5807220 143.6938680
  34.1561810   7.1236890 144.3496260  34.2034670   5.7554170 143.7035020
  30.9332740   9.3696250 151.1458940  31.2635750   8.5017310 150.9137580
  31.3623740   9.5754770 151.9763900  35.5294660   7.7005260 148.8060910
  35.2290200   7.5770230 149.7064820  35.4232150   6.8413850 148.3976640
  48.2986580   7.4801660 143.5087590  47.4679540   7.5478310 143.9794820
  48.4758410   8.3705780 143.2054450  47.7543040   4.2249140 146.0121790
  48.5161950   4.7945790 146.1181480  47.7697410   3.6576340 146.7830100
  31.2547380   2.7487070 150.2429450  30.5996220   2.4798710 149.5989150
  32.0925330   2.6391550 149.7931430  48.7603010   5.0799240 150.8563720
  49.1311840   4.2966560 150.4499690  49.4004940   5.7688340 150.6781020
  47.8062210   4.5183510 143.1694310  48.0811050   5.4262390 143.0413530
  47.6172950   4.4546040 144.1056300  47.7027550   2.4552500 148.1623740
  47.3271150   1.6880430 147.7305030  46.9730670   2.8375200 148.6498670
  45.8012820  11.2154420 149.7962310  46.3971890  10.8938990 149.1196730
  46.0590970  10.7426240 150.5875580  31.4605650  11.2767350 149.2255520
  31.2927690  10.6438030 149.9237410  30.5940160  11.4826750 148.8749710
  33.0668350   9.9700580 146.6705660  32.5415970  10.3508610 145.9667620
  32.9912930  10.5951350 147.3915370  47.8233670  11.5288120 147.9919600
  47.9985860  10.8425860 147.3480520  47.1255240  12.0535170 147.5996270
  35.6661320  11.9182960 145.5454910  36.3980140  11.6342240 144.9978800
  35.9254990  11.6796240 146.4354290  34.8276110   8.0347690 145.5501240
  34.1984990   8.5032790 146.0987070  34.9423940   7.1896910 145.9847430
  40.4143870   3.8632370 133.5811710  39.6385970   3.3832810 133.8710280
  41.0656800   3.1838020 133.4067870  34.4309700   4.1752180 134.4587470
  33.5994580   3.9200890 134.8583980  35.0390680   4.2462950 135.1945390
  44.4351300   8.2692560 132.3610840  43.9732830   7.4979800 132.6898010
  45.2476850   8.2958630 132.8663290  34.4110960   8.2092270 134.6545490
  34.7139000   7.3190010 134.4755710  35.1554550   8.7662490 134.4267740
  40.6614610  10.5550570 131.9814830  40.0426050  11.0108070 131.4109270
  41.5166390  10.7102030 131.5804530  39.8552860   6.5389560 133.5881870
  39.7861140   5.5979500 133.4271000  40.6172720   6.6290970 134.1604440
  41.5277960   5.4389810 129.3746740  40.9095230   5.9039260 128.8109460
  42.0401210   6.1317290 129.7916250  36.3909720   4.9665680 136.0530340
  36.0579100   5.5934600 136.6951410  36.5676400   5.4927560 135.2732010
  35.6028820   6.9346480 137.8679520  36.2202820   7.6097560 137.5863970
  34.7421940   7.3434460 137.7767020  30.8961160   6.1246340 126.7486370
  30.5189140   6.6133440 126.0171270  31.1534230   6.7971620 127.3792900
  46.5206410   8.3985890 135.7834160  45.8369930   9.0685000 135.7750830
  47.0600700   8.5966540 135.0179020  44.0565150  10.2430020 134.4979340
  44.0692310   9.8392310 133.6301600  43.5040370  11.0177310 134.3940770
  45.3510570   6.9646240 129.5869510  45.2406900   6.0220570 129.7118930
  45.3478820   7.3261880 130.4732270  43.4550590   5.1459860 135.8261950
  43.8719380   4.9319970 134.9915410  44.1790410   5.4032650 136.3970570
  40.8930850   2.5911560 128.9432000  39.9660130   2.5248940 129.1720470
  41.0455670   3.5291690 128.8287240  47.4012690   3.5447080 135.9178190
  46.5731320   3.6140170 135.4428320  47.9963170   4.1301390 135.4494020
  44.9228140   4.1531860 129.4467250  44.3040560   3.8151410 128.7993550
  44.9052590   3.5091620 130.1546440  36.4987490   3.1176300 131.7251730
  36.0944490   2.4053550 131.2297630  36.5850610   2.7729540 132.6139770
  36.9669190   6.8043860 133.8890940  36.6697480   6.1989330 133.2098720
  37.9169010   6.8421170 133.7780300  45.0554800  10.3775730 137.5514040
  44.5785360  11.1847920 137.3586650  44.3716590   9.7254060 137.7040250
  36.0587620   6.5425550 140.5398740  35.1616150   6.7665520 140.7872140
  36.0840490   6.6660490 139.5910140  43.0992840   3.3918670 126.4540000
  43.5386120   2.5541100 126.3077820  43.8121260   4.0248070 126.5404140
  34.8858840   3.4138870 139.1156110  34.7466610   4.2861670 139.4843510
  34.0040200   3.0711680 138.9704050  41.2088220   8.3314740 130.4221240
  41.6484130   9.0739070 130.0076630  41.1475110   8.5741310 131.3460200
  36.6839190   9.3560570 141.3241260  36.6554620   9.7603520 140.4569690
  36.5204160   8.4270930 141.1612860  48.6354010  10.1387670 142.6205430
  49.1113730  10.6170560 143.2994510  49.2561170  10.0705160 141.8950930
  30.8377490   5.1836420 135.0327020  30.9157910   5.3185190 134.0882740
  31.4519170   4.4752310 135.2255140  32.0825120   6.8836610 131.4433200
  31.6753200   7.0251200 130.5886800  32.9738130   6.5996770 131.2404410
  48.0387260   7.3300520 139.7805440  48.1650320   7.0912400 138.8622620
  48.0808640   6.4985060 140.2527520  41.9004000  11.0328520 138.3500250
  42.4148670  10.9436530 139.1522680  41.0573080  11.3788220 138.6428160
  43.8758400  11.3183860 127.7784250  43.7159540  11.0286800 128.6766080
  43.7105110  10.5423990 127.2429480  36.3546780  11.0982390 129.5555870
  36.1789260  10.1817930 129.3423670  35.5002520  11.4569680 129.7953670
  43.5784530   8.8271420 126.3382250  42.8849690   8.8248710 125.6784530
  44.3207390   8.4030740 125.9076420  43.1434460  10.4534130 130.4130740
  43.5991410   9.6723510 130.7269360  43.4826980  11.1640950 130.9571920
  30.8937010   6.2250590 137.5721480  31.0568050   5.7555950 136.7540850
  31.3589460   5.7174150 138.2370320  32.4675990   5.6002020 139.7317290
  32.0830780   4.9595690 140.3300250  32.7788180   6.3038140 140.3012020
  38.6173130   2.4478560 135.2125910  38.9843260   1.9737130 135.9587250
  38.4278190   3.3220130 135.5534250  34.9354290   5.6948190 128.1276970
  34.1616550   5.1545810 127.9675690  35.6648920   5.1754800 127.7894730
  45.6942270   4.6913550 133.9203360  46.4141390   5.1868840 133.5299470
  45.4924090   4.0131440 133.2757230  41.0761070   4.7622610 139.8072360
  41.0098380   3.8418280 139.5529950  40.4466210   4.8598050 140.5217000
  34.9791690   5.3628570 131.7655780  35.4970360   4.5596830 131.7112670
  34.5275710   5.3007710 132.6072610  39.8661190   6.6294850 127.0383080
  40.2076890   7.3737080 126.5426400  39.0373900   6.9425970 127.4007910
  35.6649350   2.7874180 141.5621030  35.3649490   2.9331360 140.6648850
  36.4360590   2.2279470 141.4694420  41.0077800   7.5843180 139.5576160
  41.0222340   6.6524140 139.3395070  40.3002900   7.6702940 140.1965930
  46.1414870   1.7683000 125.8274770  46.0578590   2.1997220 124.9771210
  46.8609060   2.2281350 126.2601590  47.2189010   4.2250520 138.9044740
  46.4937200   4.8179300 138.7074130  47.7464470   4.2174060 138.1058110
  47.1702120   8.6225260 128.5556900  46.5278280   7.9680880 128.8300620
  46.7832780   9.0280350 127.7797570  42.7488600   5.9510690 132.4028590
  43.1012420   5.3538820 131.7429960  41.8650930   5.6254920 132.5736840
  38.8351880   6.7108380 129.8099000  39.5223010   7.2577590 130.1906590
  38.0484300   7.2549110 129.8448610  30.9744280   2.3281200 125.3016080
  31.8439130   2.6106000 125.5852000  30.4834600   3.1417070 125.1864890
  38.1379090   3.7154410 129.4224360  38.5941870   4.5259660 129.6484550
  37.7867300   3.3977550 130.2542850  40.4411700   9.2260750 136.6516660
  41.0853920   9.4320130 137.3290080  40.8041140   8.4649150 136.1987510
  41.7143780   7.2293100 135.3694110  42.3566010   6.5286260 135.4826280
  42.2393130   8.0091540 135.1891000  45.5599500   7.5141720 125.0933250
  45.3337080   6.7972160 125.6857890  45.1695700   7.2654160 124.2555000
  43.4881400   8.0288000 138.5730170  43.8237640   8.6154690 139.2508090
  42.5681740   7.8980710 138.8027960  31.3415530  11.5408580 125.8677710
  31.7013170  12.1397920 125.2134980  31.2007870  12.0868470 126.6412740
  45.1415750   5.4313660 126.7547410  44.8537450   5.8926350 127.5425290
  45.9367920   4.9711430 127.0231630  31.3257390   9.8063440 140.3420110
  31.4348510   8.8658180 140.2015500  30.6737950  10.0718190 139.6933840
  39.3169980   8.0779330 141.7418230  38.9966850   7.3588570 142.2863920
  38.6428340   8.7534400 141.8154290  37.3584150   8.9239780 126.6851380
  37.3494250   9.6569470 126.0695890  36.4382510   8.6771360 126.7778340
  32.9590790   4.1454670 127.4298140  32.3518740   4.8853570 127.4393440
  33.4340140   4.2354030 126.6036340  40.3443750   8.9868020 125.3476570
  40.4455730   8.7832010 124.4178550  39.4445490   8.7326300 125.5524350
  38.9861860  11.5054340 130.0424240  39.2403360  11.4675730 129.1203610
  38.0374340  11.3787670 130.0352490  34.9696080   4.1065820 125.1786710
  35.7359350   3.9947180 125.7412140  35.0470770   3.4103790 124.5263480
  46.9940020   9.5955070 133.2937010  47.1187440  10.4186240 133.7660820
  47.8605580   9.3845800 132.9461160  34.4657550  11.6886280 132.9654140
  35.2020030  11.1401740 133.2362710  34.8498470  12.5542290 132.8260130
  31.3503030   7.7559850 128.8395650  30.4242810   7.9980990 128.8301060
  31.8159460   8.5834110 128.7180400  33.4715830  10.8732350 142.1539720
  34.2728560  11.1944400 142.5675120  32.9567650  10.5127930 142.8759630
  37.5759860  10.8616590 124.7879710  38.3688470  11.1505420 124.3361500
  37.0564210  10.4308760 124.1092190  42.3080460   6.9812220 142.1015130
  41.7018620   7.0043820 141.3610880  42.0034570   6.2495260 142.6382380
  43.7380830  10.7092510 140.7124540  44.6902580  10.6250530 140.6624780
  43.5909050  11.3734220 141.3858330  46.6290030  10.0886720 126.2116450
  46.3431540   9.6751860 125.3970630  46.4309580  11.0174430 126.0916970
  31.1913640   3.3605810 141.0975770  31.6952660   2.7813090 141.6692000
  30.4521060   3.6446040 141.6352140  38.0937260   6.0820000 124.6522060
  37.9887900   5.4672350 125.3783440  37.9261480   5.5585890 123.8685070
  38.2451580   4.7676800 140.6311290  37.4797250   5.3361800 140.5465960
  38.4267540   4.4753010 139.7379520  41.3339990   5.1440030 125.2564050
  40.7850090   5.5909330 125.9006790  41.9559250   4.6389280 125.7801720
  45.3874930   6.4982130 141.1886310  46.1284400   6.8357890 140.6853770
  44.6247610   6.6674190 140.6356080  37.0015110   4.1030950 127.1529350
  37.4231530   3.9370820 127.9960740  37.1265950   3.2931180 126.6584490
  39.5142750   3.1268560 124.4006450  40.0348410   2.4117580 124.0347600
  40.1611150   3.7654430 124.7006960  44.0620590   4.5496960 139.7241520
  44.4761610   4.7042040 140.5731940  43.1271590   4.6752180 139.8867300
  38.8235820   4.5017440 137.6937450  39.2423930   5.3450170 137.5213690
  37.9044450   4.6389480 137.4644230  43.4987620   2.7870810 137.6537800
  42.9722840   3.3113430 137.0502940  43.8418960   3.4198200 138.2847530
  36.6743240  10.8070450 138.8095180  36.1364330  11.5316510 138.4903880
  36.9277200  10.3300790 138.0192520  39.5305450  12.0421660 139.0681830
  39.4564150  12.9456800 139.3754200  38.6284290  11.7233560 139.0403900
  40.0790780  11.2080170 126.6908190  40.9741570  11.5465140 126.7126950
  40.1108410  10.4859580 126.0632470  33.7186940   6.5807220 124.9195190
  34.1561810   7.1236890 125.5752770  34.2034670   5.7554170 124.9291530
  30.9332740   9.3696250 132.3715450  31.2635750   8.5017310 132.1394090
  31.3623740   9.5754770 133.2020410  35.5294660   7.7005260 130.0317420
  35.2290200   7.5770230 130.9321330  35.4232150   6.8413850 129.6233150
  31.4222950  10.2366840 135.1097080  30.9853940  10.4167640 135.9421230
  31.9900630  10.9941460 134.9678800  47.0585130   9.7383840 139.3974390
  46.4587120   9.7976400 138.6538310  47.1879030   8.7988820 139.5271240
  48.2986580   7.4801660 124.7344100  47.4679540   7.5478310 125.2051330
  48.4758410   8.3705780 124.4310960  47.7543040   4.2249140 127.2378300
  48.5161950   4.7945790 127.3437990  47.7697410   3.6576340 128.0086610
  31.2547380   2.7487070 131.4685960  30.5996220   2.4798710 130.8245660
  32.0925330   2.6391550 131.0187940  48.7603010   5.0799240 132.0820230
  49.1311840   4.2966560 131.6756200  49.4004940   5.7688340 131.9037530
  45.7436770   6.4635820 137.4950550  44.9296610   6.8932980 137.7576340
  46.1510970   7.0754230 136.8819600  47.8062210   4.5183510 124.3950820
  48.0811050   5.4262390 124.2670040  47.6172950   4.4546040 125.3312810
  47.7027550   2.4552500 129.3880250  47.3271150   1.6880430 128.9561540
  46.9730670   2.8375200 129.8755180  32.2923310   3.1339640 136.0089300
  32.6596350   3.0467040 136.8885320  31.7234130   2.3706190 135.9096160
  45.8012820  11.2154420 131.0218820  46.3971890  10.8938990 130.3453240
  46.0590970  10.7426240 131.8132090  33.7075390   7.6472330 141.1709450
  33.6645020   7.2765240 142.0523910  33.8386400   8.5849900 141.3111270
  37.4081420   9.2031920 136.7719170  37.1672780   9.4706480 135.8849690
  38.3484060   9.3737650 136.8270030  48.6685580  11.2226300 137.5729810
  48.1743860  11.6195170 136.8556940  48.0598870  10.5975510 137.9667090
  33.5463420  10.5934580 138.2907230  32.9523740  10.4619280 139.0297270
  33.5387260   9.7572720 137.8249330  46.3525030  11.8649720 134.8516550
  45.8928000  12.6165530 134.4774570  45.7237490  11.1456190 134.7931350
  33.1775650   7.9592960 137.2415270  32.4509710   7.3398250 137.1741220
  33.2384800   8.3533570 136.3713350  36.7820750  10.1737960 134.0264680
  37.2985770   9.5625320 133.5012940  37.4318130  10.6766740 134.5175690
  39.5216250  11.0646450 134.8533660  39.8094060  10.8100750 133.9766670
  40.0339470  10.5123810 135.4439230  31.4605650  11.2767350 130.4512030
  31.2927690  10.6438030 131.1493920  30.5940160  11.4826750 130.1006220
  33.0668350   9.9700580 127.8962170  32.5415970  10.3508610 127.1924130
  32.9912930  10.5951350 128.6171880  39.5888610  11.9862550 142.2201860
  40.5155920  11.7506820 142.2637820  39.5739040  12.8134550 141.7387890
  47.8233670  11.5288120 129.2176110  47.9985860  10.8425860 128.5737030
  47.1255240  12.0535170 128.8252780  35.6661320  11.9182960 126.7711420
  36.3980140  11.6342240 126.2235310  35.9254990  11.6796240 127.6610800
  34.8276110   8.0347690 126.7757750  34.1984990   8.5032790 127.3243580
  34.9423940   7.1896910 127.2103940  46.1566170  11.2132410 142.0442900
  46.9491490  10.7181640 141.8368860  46.4499320  11.8922550 142.6518510
  40.4143870   3.8632370 114.8068220  39.6385970   3.3832810 115.0966790
  41.0656800   3.1838020 114.6324380  34.4309700   4.1752180 115.6843980
  33.5994580   3.9200890 116.0840490  35.0390680   4.2462950 116.4201900
  44.4351300   8.2692560 113.5867350  43.9732830   7.4979800 113.9154520
  45.2476850   8.2958630 114.0919800  34.4110960   8.2092270 115.8802000
  34.7139000   7.3190010 115.7012220  35.1554550   8.7662490 115.6524250
  40.6614610  10.5550570 113.2071340  40.0426050  11.0108070 112.6365780
  41.5166390  10.7102030 112.8061040  39.8552860   6.5389560 114.8138380
  39.7861140   5.5979500 114.6527510  40.6172720   6.6290970 115.3860950
  41.5277960   5.4389810 110.6003250  40.9095230   5.9039260 110.0365970
  42.0401210   6.1317290 111.0172760  36.3909720   4.9665680 117.2786850
  36.0579100   5.5934600 117.9207920  36.5676400   5.4927560 116.4988520
  35.6028820   6.9346480 119.0936030  36.2202820   7.6097560 118.8120480
  34.7421940   7.3434460 119.0023530  30.8961160   6.1246340 107.9742880
  30.5189140   6.6133440 107.2427780  31.1534230   6.7971620 108.6049410
  46.5206410   8.3985890 117.0090670  45.8369930   9.0685000 117.0007340
  47.0600700   8.5966540 116.2435530  44.0565150  10.2430020 115.7235850
  44.0692310   9.8392310 114.8558110  43.5040370  11.0177310 115.6197280
  45.3510570   6.9646240 110.8126020  45.2406900   6.0220570 110.9375440
  45.3478820   7.3261880 111.6988780  43.4550590   5.1459860 117.0518460
  43.8719380   4.9319970 116.2171920  44.1790410   5.4032650 117.6227080
  40.8930850   2.5911560 110.1688510  39.9660130   2.5248940 110.3976980
  41.0455670   3.5291690 110.0543750  47.4012690   3.5447080 117.1434700
  46.5731320   3.6140170 116.6684830  47.9963170   4.1301390 116.6750530
  44.9228140   4.1531860 110.6723760  44.3040560   3.8151410 110.0250060
  44.9052590   3.5091620 111.3802950  36.4987490   3.1176300 112.9508240
  36.0944490   2.4053550 112.4554140  36.5850610   2.7729540 113.8396280
  36.9669190   6.8043860 115.1147450  36.6697480   6.1989330 114.4355230
  37.9169010   6.8421170 115.0036810  45.0554800  10.3775730 118.7770550
  44.5785360  11.1847920 118.5843160  44.3716590   9.7254060 118.9296760
  36.0587620   6.5425550 121.7655250  35.1616150   6.7665520 122.0128650
  36.0840490   6.6660490 120.8166650  43.0992840   3.3918670 107.6796510
  43.5386120   2.5541100 107.5334330  43.8121260   4.0248070 107.7660650
  34.8858840   3.4138870 120.3412620  34.7466610   4.2861670 120.7100020
  34.0040200   3.0711680 120.1960560  41.2088220   8.3314740 111.6477750
  41.6484130   9.0739070 111.2333140  41.1475110   8.5741310 112.5716710
  36.6839190   9.3560570 122.5497770  36.6554620   9.7603520 121.6826200
  36.5204160   8.4270930 122.3869370  48.6354010  10.1387670 123.8461940
  49.1113730  10.6170560 124.5251020  49.2561170  10.0705160 123.1207440
  30.8377490   5.1836420 116.2583530  30.9157910   5.3185190 115.3139250
  31.4519170   4.4752310 116.4511650  32.0825120   6.8836610 112.6689710
  31.6753200   7.0251200 111.8143310  32.9738130   6.5996770 112.4660920
  48.0387260   7.3300520 121.0061950  48.1650320   7.0912400 120.0879130
  48.0808640   6.4985060 121.4784030  41.9004000  11.0328520 119.5756760
  42.4148670  10.9436530 120.3779190  41.0573080  11.3788220 119.8684670
  43.8758400  11.3183860 109.0040760  43.7159540  11.0286800 109.9022590
  43.7105110  10.5423990 108.4685990  36.3546780  11.0982390 110.7812380
  36.1789260  10.1817930 110.5680180  35.5002520  11.4569680 111.0210180
  43.5784530   8.8271420 107.5638760  42.8849690   8.8248710 106.9041040
  44.3207390   8.4030740 107.1332930  43.1434460  10.4534130 111.6387250
  43.5991410   9.6723510 111.9525870  43.4826980  11.1640950 112.1828430
  30.8937010   6.2250590 118.7977990  31.0568050   5.7555950 117.9797360
  31.3589460   5.7174150 119.4626830  32.4675990   5.6002020 120.9573800
  32.0830780   4.9595690 121.5556760  32.7788180   6.3038140 121.5268530
  38.6173130   2.4478560 116.4382420  38.9843260   1.9737130 117.1843760
  38.4278190   3.3220130 116.7790760  34.9354290   5.6948190 109.3533480
  34.1616550   5.1545810 109.1932200  35.6648920   5.1754800 109.0151240
  45.6942270   4.6913550 115.1459870  46.4141390   5.1868840 114.7555980
  45.4924090   4.0131440 114.5013740  41.0761070   4.7622610 121.0328870
  41.0098380   3.8418280 120.7786460  40.4466210   4.8598050 121.7473510
  34.9791690   5.3628570 112.9912290  35.4970360   4.5596830 112.9369180
  34.5275710   5.3007710 113.8329120  39.8661190   6.6294850 108.2639590
  40.2076890   7.3737080 107.7682910  39.0373900   6.9425970 108.6264420
  35.6649350   2.7874180 122.7877540  35.3649490   2.9331360 121.8905360
  36.4360590   2.2279470 122.6950930  41.0077800   7.5843180 120.7832670
  41.0222340   6.6524140 120.5651580  40.3002900   7.6702940 121.4222440
  46.1414870   1.7683000 107.0531280  46.0578590   2.1997220 106.2027720
  46.8609060   2.2281350 107.4858100  47.2189010   4.2250520 120.1301250
  46.4937200   4.8179300 119.9330640  47.7464470   4.2174060 119.3314620
  47.1702120   8.6225260 109.7813410  46.5278280   7.9680880 110.0557130
  46.7832780   9.0280350 109.0054080  42.7488600   5.9510690 113.6285100
  43.1012420   5.3538820 112.9686470  41.8650930   5.6254920 113.7993350
  38.8351880   6.7108380 111.0355510  39.5223010   7.2577590 111.4163100
  38.0484300   7.2549110 111.0705120  30.9744280   2.3281200 106.5272590
  31.8439130   2.6106000 106.8108510  30.4834600   3.1417070 106.4121400
  38.1379090   3.7154410 110.6480870  38.5941870   4.5259660 110.8741060
  37.7867300   3.3977550 111.4799360  40.4411700   9.2260750 117.8773170
  41.0853920   9.4320130 118.5546590  40.8041140   8.4649150 117.4244020
  41.7143780   7.2293100 116.5950620  42.3566010   6.5286260 116.7082790
  42.2393130   8.0091540 116.4147510  45.5599500   7.5141720 106.3189760
  45.3337080   6.7972160 106.9114400  45.1695700   7.2654160 105.4811510
  43.4881400   8.0288000 119.7986680  43.8237640   8.6154690 120.4764600
  42.5681740   7.8980710 120.0284470  31.3415530  11.5408580 107.0934220
  31.7013170  12.1397920 106.4391490  31.2007870  12.0868470 107.8669250
  45.1415750   5.4313660 107.9803920  44.8537450   5.8926350 108.7681800
  45.9367920   4.9711430 108.2488140  31.3257390   9.8063440 121.5676620
  31.4348510   8.8658180 121.4272010  30.6737950  10.0718190 120.9190350
  39.3169980   8.0779330 122.9674740  38.9966850   7.3588570 123.5120430
  38.6428340   8.7534400 123.0410800  37.3584150   8.9239780 107.9107890
  37.3494250   9.6569470 107.2952400  36.4382510   8.6771360 108.0034850
  32.9590790   4.1454670 108.6554650  32.3518740   4.8853570 108.6649950
  33.4340140   4.2354030 107.8292850  40.3443750   8.9868020 106.5733080
  40.4455730   8.7832010 105.6435060  39.4445490   8.7326300 106.7780860
  38.9861860  11.5054340 111.2680750  39.2403360  11.4675730 110.3460120
  38.0374340  11.3787670 111.2609000  34.9696080   4.1065820 106.4043220
  35.7359350   3.9947180 106.9668650  35.0470770   3.4103790 105.7519990
  46.9940020   9.5955070 114.5193520  47.1187440  10.4186240 114.9917330
  47.8605580   9.3845800 114.1717670  34.4657550  11.6886280 114.1910650
  35.2020030  11.1401740 114.4619220  34.8498470  12.5542290 114.0516640
  31.3503030   7.7559850 110.0652160  30.4242810   7.9980990 110.0557570
  31.8159460   8.5834110 109.9436910  33.4715830  10.8732350 123.3796230
  34.2728560  11.1944400 123.7931630  32.9567650  10.5127930 124.1016140
  37.5759860  10.8616590 106.0136220  38.3688470  11.1505420 105.5618010
  37.0564210  10.4308760 105.3348700  42.3080460   6.9812220 123.3271640
  41.7018620   7.0043820 122.5867390  42.0034570   6.2495260 123.8638890
  43.7380830  10.7092510 121.9381050  44.6902580  10.6250530 121.8881290
  43.5909050  11.3734220 122.6114840  46.6290030  10.0886720 107.4372960
  46.3431540   9.6751860 106.6227140  46.4309580  11.0174430 107.3173480
  31.1913640   3.3605810 122.3232280  31.6952660   2.7813090 122.8948510
  30.4521060   3.6446040 122.8608650  38.0937260   6.0820000 105.8778570
  37.9887900   5.4672350 106.6039950  37.9261480   5.5585890 105.0941580
  38.2451580   4.7676800 121.8567800  37.4797250   5.3361800 121.7722470
  38.4267540   4.4753010 120.9636030  41.3339990   5.1440030 106.4820560
  40.7850090   5.5909330 107.1263300  41.9559250   4.6389280 107.0058230
  45.3874930   6.4982130 122.4142820  46.1284400   6.8357890 121.9110280
  44.6247610   6.6674190 121.8612590  37.0015110   4.1030950 108.3785860
  37.4231530   3.9370820 109.2217250  37.1265950   3.2931180 107.8841000
  39.5142750   3.1268560 105.6262960  40.0348410   2.4117580 105.2604110
  40.1611150   3.7654430 105.9263470  44.0620590   4.5496960 120.9498030
  44.4761610   4.7042040 121.7988450  43.1271590   4.6752180 121.1123810
  38.8235820   4.5017440 118.9193960  39.2423930   5.3450170 118.7470200
  37.9044450   4.6389480 118.6900740  43.4987620   2.7870810 118.8794310
  42.9722840   3.3113430 118.2759450  43.8418960   3.4198200 119.5104040
  36.6743240  10.8070450 120.0351690  36.1364330  11.5316510 119.7160390
  36.9277200  10.3300790 119.2449030  39.5305450  12.0421660 120.2938340
  39.4564150  12.9456800 120.6010710  38.6284290  11.7233560 120.2660410
  40.0790780  11.2080170 107.9164700  40.9741570  11.5465140 107.9383460
  40.1108410  10.4859580 107.2888980  33.7186940   6.5807220 106.1451700
  34.1561810   7.1236890 106.8009280  34.2034670   5.7554170 106.1548040
  30.9332740   9.3696250 113.5971960  31.2635750   8.5017310 113.3650600
  31.3623740   9.5754770 114.4276920  35.5294660   7.7005260 111.2573930
  35.2290200   7.5770230 112.1577840  35.4232150   6.8413850 110.8489660
  31.4222950  10.2366840 116.3353590  30.9853940  10.4167640 117.1677740
  31.9900630  10.9941460 116.1935310  47.0585130   9.7383840 120.6230900
  46.4587120   9.7976400 119.8794820  47.1879030   8.7988820 120.7527750
  48.2986580   7.4801660 105.9600610  47.4679540   7.5478310 106.4307840
  48.4758410   8.3705780 105.6567470  47.7543040   4.2249140 108.4634810
  48.5161950   4.7945790 108.5694500  47.7697410   3.6576340 109.2343120
  31.2547380   2.7487070 112.6942470  30.5996220   2.4798710 112.0502170
  32.0925330   2.6391550 112.2444450  48.7603010   5.0799240 113.3076740
  49.1311840   4.2966560 112.9012710  49.4004940   5.7688340 113.1294040
  45.7436770   6.4635820 118.7207060  44.9296610   6.8932980 118.9832850
  46.1510970   7.0754230 118.1076110  47.8062210   4.5183510 105.6207330
  48.0811050   5.4262390 105.4926550  47.6172950   4.4546040 106.5569320
  47.7027550   2.4552500 110.6136760  47.3271150   1.6880430 110.1818050
  46.9730670   2.8375200 111.1011690  32.2923310   3.1339640 117.2345810
  32.6596350   3.0467040 118.1141830  31.7234130   2.3706190 117.1352670
  45.8012820  11.2154420 112.2475330  46.3971890  10.8938990 111.5709750
  46.0590970  10.7426240 113.0388600  33.7075390   7.6472330 122.3965960
  33.6645020   7.2765240 123.2780420  33.8386400   8.5849900 122.5367780
  37.4081420   9.2031920 117.9975680  37.1672780   9.4706480 117.1106200
  38.3484060   9.3737650 118.0526540  48.6685580  11.2226300 118.7986320
  48.1743860  11.6195170 118.0813450  48.0598870  10.5975510 119.1923600
  33.5463420  10.5934580 119.5163740  32.9523740  10.4619280 120.2553780
  33.5387260   9.7572720 119.0505840  46.3525030  11.8649720 116.0773060
  45.8928000  12.6165530 115.7031080  45.7237490  11.1456190 116.0187860
  33.1775650   7.9592960 118.4671780  32.4509710   7.3398250 118.3997730
  33.2384800   8.3533570 117.5969860  36.7820750  10.1737960 115.2521190
  37.2985770   9.5625320 114.7269450  37.4318130  10.6766740 115.7432200
  39.5216250  11.0646450 116.0790170  39.8094060  10.8100750 115.2023180
  40.0339470  10.5123810 116.6695740  31.4605650  11.2767350 111.6768540
  31.2927690  10.6438030 112.3750430  30.5940160  11.4826750 111.3262730
  33.0668350   9.9700580 109.1218680  32.5415970  10.3508610 108.4180640
  32.9912930  10.5951350 109.8428390  39.5888610  11.9862550 123.4458370
  40.5155920  11.7506820 123.4894330  39.5739040  12.8134550 122.9644400
  47.8233670  11.5288120 110.4432620  47.9985860  10.8425860 109.7993540
  47.1255240  12.0535170 110.0509290  35.6661320  11.9182960 107.9967930
  36.3980140  11.6342240 107.4491820  35.9254990  11.6796240 108.8867310
  34.8276110   8.0347690 108.0014260  34.1984990   8.5032790 108.5500090
  34.9423940   7.1896910 108.4360450  46.1566170  11.2132410 123.2699410
  46.9491490  10.7181640 123.0625370  46.4499320  11.8922550 123.8775020
  40.4143870   3.8632370  96.0324730  39.6385970   3.3832810  96.3223300
  41.0656800   3.1838020  95.8580890  34.4309700   4.1752180  96.9100490
  33.5994580   3.9200890  97.3097000  35.0390680   4.2462950  97.6458410
  44.4351300   8.2692560  94.8123860  43.9732830   7.4979800  95.1411030
  45.2476850   8.2958630  95.3176310  34.4110960   8.2092270  97.1058510
  34.7139000   7.3190010  96.9268730  35.1554550   8.7662490  96.8780760
  40.6614610  10.5550570  94.4327850  40.0426050  11.0108070  93.8622290
  41.5166390  10.7102030  94.0317550  39.8552860   6.5389560  96.0394890
  39.7861140   5.5979500  95.8784020  40.6172720   6.6290970  96.6117460
  41.5277960   5.4389810  91.8259760  40.9095230   5.9039260  91.2622480
  42.0401210   6.1317290  92.2429270  36.3909720   4.9665680  98.5043360
  36.0579100   5.5934600  99.1464430  36.5676400   5.4927560  97.7245030
  35.6028820   6.9346480 100.3192540  36.2202820   7.6097560 100.0376990
  34.7421940   7.3434460 100.2280040  30.8961160   6.1246340  89.1999390
  30.5189140   6.6133440  88.4684290  31.1534230   6.7971620  89.8305920
  46.5206410   8.3985890  98.2347180  45.8369930   9.0685000  98.2263850
  47.0600700   8.5966540  97.4692040  44.0565150  10.2430020  96.9492360
  44.0692310   9.8392310  96.0814620  43.5040370  11.0177310  96.8453790
  45.3510570   6.9646240  92.0382530  45.2406900   6.0220570  92.1631950
  45.3478820   7.3261880  92.9245290  43.4550590   5.1459860  98.2774970
  43.8719380   4.9319970  97.4428430  44.1790410   5.4032650  98.8483590
  40.8930850   2.5911560  91.3945020  39.9660130   2.5248940  91.6233490
  41.0455670   3.5291690  91.2800260  47.4012690   3.5447080  98.3691210
  46.5731320   3.6140170  97.8941340  47.9963170   4.1301390  97.9007040
  44.9228140   4.1531860  91.8980270  44.3040560   3.8151410  91.2506570
  44.9052590   3.5091620  92.6059460  36.4987490   3.1176300  94.1764750
  36.0944490   2.4053550  93.6810650  36.5850610   2.7729540  95.0652790
  36.9669190   6.8043860  96.3403960  36.6697480   6.1989330  95.6611740
  37.9169010   6.8421170  96.2293320  45.0554800  10.3775730 100.0027060
  44.5785360  11.1847920  99.8099670  44.3716590   9.7254060 100.1553270
  36.0587620   6.5425550 102.9911760  35.1616150   6.7665520 103.2385160
  36.0840490   6.6660490 102.0423160  43.0992840   3.3918670  88.9053020
  43.5386120   2.5541100  88.7590840  43.8121260   4.0248070  88.9917160
  34.8858840   3.4138870 101.5669130  34.7466610   4.2861670 101.9356530
  34.0040200   3.0711680 101.4217070  41.2088220   8.3314740  92.8734260
  41.6484130   9.0739070  92.4589650  41.1475110   8.5741310  93.7973220
  36.6839190   9.3560570 103.7754280  36.6554620   9.7603520 102.9082710
  36.5204160   8.4270930 103.6125880  48.6354010  10.1387670 105.0718450
  49.1113730  10.6170560 105.7507530  49.2561170  10.0705160 104.3463950
  30.8377490   5.1836420  97.4840040  30.9157910   5.3185190  96.5395760
  31.4519170   4.4752310  97.6768160  32.0825120   6.8836610  93.8946220
  31.6753200   7.0251200  93.0399820  32.9738130   6.5996770  93.6917430
  48.0387260   7.3300520 102.2318460  48.1650320   7.0912400 101.3135640
  48.0808640   6.4985060 102.7040540  41.9004000  11.0328520 100.8013270
  42.4148670  10.9436530 101.6035700  41.0573080  11.3788220 101.0941180
  43.8758400  11.3183860  90.2297270  43.7159540  11.0286800  91.1279100
  43.7105110  10.5423990  89.6942500  36.3546780  11.0982390  92.0068890
  36.1789260  10.1817930  91.7936690  35.5002520  11.4569680  92.2466690
  43.5784530   8.8271420  88.7895270  42.8849690   8.8248710  88.1297550
  44.3207390   8.4030740  88.3589440  43.1434460  10.4534130  92.8643760
  43.5991410   9.6723510  93.1782380  43.4826980  11.1640950  93.4084940
  30.8937010   6.2250590 100.0234500  31.0568050   5.7555950  99.2053870
  31.3589460   5.7174150 100.6883340  32.4675990   5.6002020 102.1830310
  32.0830780   4.9595690 102.7813270  32.7788180   6.3038140 102.7525040
  38.6173130   2.4478560  97.6638930  38.9843260   1.9737130  98.4100270
  38.4278190   3.3220130  98.0047270  34.9354290   5.6948190  90.5789990
  34.1616550   5.1545810  90.4188710  35.6648920   5.1754800  90.2407750
  45.6942270   4.6913550  96.3716380  46.4141390   5.1868840  95.9812490
  45.4924090   4.0131440  95.7270250  41.0761070   4.7622610 102.2585380
  41.0098380   3.8418280 102.0042970  40.4466210   4.8598050 102.9730020
  34.9791690   5.3628570  94.2168800  35.4970360   4.5596830  94.1625690
  34.5275710   5.3007710  95.0585630  39.8661190   6.6294850  89.4896100
  40.2076890   7.3737080  88.9939420  39.0373900   6.9425970  89.8520930
  35.6649350   2.7874180 104.0134050  35.3649490   2.9331360 103.1161870
  36.4360590   2.2279470 103.9207440  41.0077800   7.5843180 102.0089180
  41.0222340   6.6524140 101.7908090  40.3002900   7.6702940 102.6478950
  46.1414870   1.7683000  88.2787790  46.0578590   2.1997220  87.4284230
  46.8609060   2.2281350  88.7114610  47.2189010   4.2250520 101.3557760
  46.4937200   4.8179300 101.1587150  47.7464470   4.2174060 100.5571130
  47.1702120   8.6225260  91.0069920  46.5278280   7.9680880  91.2813640
  46.7832780   9.0280350  90.2310590  42.7488600   5.9510690  94.8541610
  43.1012420   5.3538820  94.1942980  41.8650930   5.6254920  95.0249860
  38.8351880   6.7108380  92.2612020  39.5223010   7.2577590  92.6419610
  38.0484300   7.2549110  92.2961630  30.9744280   2.3281200  87.7529100
  31.8439130   2.6106000  88.0365020  30.4834600   3.1417070  87.6377910
  38.1379090   3.7154410  91.8737380  38.5941870   4.5259660  92.0997570
  37.7867300   3.3977550  92.7055870  40.4411700   9.2260750  99.1029680
  41.0853920   9.4320130  99.7803100  40.8041140   8.4649150  98.6500530
  41.7143780   7.2293100  97.8207130  42.3566010   6.5286260  97.9339300
  42.2393130   8.0091540  97.6404020  45.5599500   7.5141720  87.5446270
  45.3337080   6.7972160  88.1370910  45.1695700   7.2654160  86.7068020
  43.4881400   8.0288000 101.0243190  43.8237640   8.6154690 101.7021110
  42.5681740   7.8980710 101.2540980  31.3415530  11.5408580  88.3190730
  31.7013170  12.1397920  87.6648000  31.2007870  12.0868470  89.0925760
  45.1415750   5.4313660  89.2060430  44.8537450   5.8926350  89.9938310
  45.9367920   4.9711430  89.4744650  31.3257390   9.8063440 102.7933130
  31.4348510   8.8658180 102.6528520  30.6737950  10.0718190 102.1446860
  39.3169980   8.0779330 104.1931250  38.9966850   7.3588570 104.7376940
  38.6428340   8.7534400 104.2667310  37.3584150   8.9239780  89.1364400
  37.3494250   9.6569470  88.5208910  36.4382510   8.6771360  89.2291360
  32.9590790   4.1454670  89.8811160  32.3518740   4.8853570  89.8906460
  33.4340140   4.2354030  89.0549360  40.3443750   8.9868020  87.7989590
  40.4455730   8.7832010  86.8691570  39.4445490   8.7326300  88.0037370
  38.9861860  11.5054340  92.4937260  39.2403360  11.4675730  91.5716630
  38.0374340  11.3787670  92.4865510  34.9696080   4.1065820  87.6299730
  35.7359350   3.9947180  88.1925160  35.0470770   3.4103790  86.9776500
  46.9940020   9.5955070  95.7450030  47.1187440  10.4186240  96.2173840
  47.8605580   9.3845800  95.3974180  34.4657550  11.6886280  95.4167160
  35.2020030  11.1401740  95.6875730  34.8498470  12.5542290  95.2773150
  31.3503030   7.7559850  91.2908670  30.4242810   7.9980990  91.2814080
  31.8159460   8.5834110  91.1693420  33.4715830  10.8732350 104.6052740
  34.2728560  11.1944400 105.0188140  32.9567650  10.5127930 105.3272650
  37.5759860  10.8616590  87.2392730  38.3688470  11.1505420  86.7874520
  37.0564210  10.4308760  86.5605210  42.3080460   6.9812220 104.5528150
  41.7018620   7.0043820 103.8123900  42.0034570   6.2495260 105.0895400
  43.7380830  10.7092510 103.1637560  44.6902580  10.6250530 103.1137800
  43.5909050  11.3734220 103.8371350  46.6290030  10.0886720  88.6629470
  46.3431540   9.6751860  87.8483650  46.4309580  11.0174430  88.5429990
  31.1913640   3.3605810 103.5488790  31.6952660   2.7813090 104.1205020
  30.4521060   3.6446040 104.0865160  38.0937260   6.0820000  87.1035080
  37.9887900   5.4672350  87.8296460  37.9261480   5.5585890  86.3198090
  38.2451580   4.7676800 103.0824310  37.4797250   5.3361800 102.9978980
  38.4267540   4.4753010 102.1892540  41.3339990   5.1440030  87.7077070
  40.7850090   5.5909330  88.3519810  41.9559250   4.6389280  88.2314740
  45.3874930   6.4982130 103.6399330  46.1284400   6.8357890 103.1366790
  44.6247610   6.6674190 103.0869100  37.0015110   4.1030950  89.6042370
  37.4231530   3.9370820  90.4473760  37.1265950   3.2931180  89.1097510
  39.5142750   3.1268560  86.8519470  40.0348410   2.4117580  86.4860620
  40.1611150   3.7654430  87.1519980  44.0620590   4.5496960 102.1754540
  44.4761610   4.7042040 103.0244960  43.1271590   4.6752180 102.3380320
  38.8235820   4.5017440 100.1450470  39.2423930   5.3450170  99.9726710
  37.9044450   4.6389480  99.9157250  43.4987620   2.7870810 100.1050820
  42.9722840   3.3113430  99.5015960  43.8418960   3.4198200 100.7360550
  36.6743240  10.8070450 101.2608200  36.1364330  11.5316510 100.9416900
  36.9277200  10.3300790 100.4705540  39.5305450  12.0421660 101.5194850
  39.4564150  12.9456800 101.8267220  38.6284290  11.7233560 101.4916920
  40.0790780  11.2080170  89.1421210  40.9741570  11.5465140  89.1639970
  40.1108410  10.4859580  88.5145490  33.7186940   6.5807220  87.3708210
  34.1561810   7.1236890  88.0265790  34.2034670   5.7554170  87.3804550
  30.9332740   9.3696250  94.8228470  31.2635750   8.5017310  94.5907110
  31.3623740   9.5754770  95.6533430  35.5294660   7.7005260  92.4830440
  35.2290200   7.5770230  93.3834350  35.4232150   6.8413850  92.0746170
  31.4222950  10.2366840  97.5610100  30.9853940  10.4167640  98.3934250
  31.9900630  10.9941460  97.4191820  47.0585130   9.7383840 101.8487410
  46.4587120   9.7976400 101.1051330  47.1879030   8.7988820 101.9784260
  48.2986580   7.4801660  87.1857120  47.4679540   7.5478310  87.6564350
  48.4758410   8.3705780  86.8823980  47.7543040   4.2249140  89.6891320
  48.5161950   4.7945790  89.7951010  47.7697410   3.6576340  90.4599630
  31.2547380   2.7487070  93.9198980  30.5996220   2.4798710  93.2758680
  32.0925330   2.6391550  93.4700960  48.7603010   5.0799240  94.5333250
  49.1311840   4.2966560  94.1269220  49.4004940   5.7688340  94.3550550
  45.7436770   6.4635820  99.9463570  44.9296610   6.8932980 100.2089360
  46.1510970   7.0754230  99.3332620  47.8062210   4.5183510  86.8463840
  48.0811050   5.4262390  86.7183060  47.6172950   4.4546040  87.7825830
  47.7027550   2.4552500  91.8393270  47.3271150   1.6880430  91.4074560
  46.9730670   2.8375200  92.3268200  32.2923310   3.1339640  98.4602320
  32.6596350   3.0467040  99.3398340  31.7234130   2.3706190  98.3609180
  45.8012820  11.2154420  93.4731840  46.3971890  10.8938990  92.7966260
  46.0590970  10.7426240  94.2645110  33.7075390   7.6472330 103.6222470
  33.6645020   7.2765240 104.5036930  33.8386400   8.5849900 103.7624290
  37.4081420   9.2031920  99.2232190  37.1672780   9.4706480  98.3362710
  38.3484060   9.3737650  99.2783050  48.6685580  11.2226300 100.0242830
  48.1743860  11.6195170  99.3069960  48.0598870  10.5975510 100.4180110
  33.5463420  10.5934580 100.7420250  32.9523740  10.4619280 101.4810290
  33.5387260   9.7572720 100.2762350  46.3525030  11.8649720  97.3029570
  45.8928000  12.6165530  96.9287590  45.7237490  11.1456190  97.2444370
  33.1775650   7.9592960  99.6928290  32.4509710   7.3398250  99.6254240
  33.2384800   8.3533570  98.8226370  36.7820750  10.1737960  96.4777700
  37.2985770   9.5625320  95.9525960  37.4318130  10.6766740  96.9688710
  39.5216250  11.0646450  97.3046680  39.8094060  10.8100750  96.4279690
  40.0339470  10.5123810  97.8952250  31.4605650  11.2767350  92.9025050
  31.2927690  10.6438030  93.6006940  30.5940160  11.4826750  92.5519240
  33.0668350   9.9700580  90.3475190  32.5415970  10.3508610  89.6437150
  32.9912930  10.5951350  91.0684900  39.5888610  11.9862550 104.6714880
  40.5155920  11.7506820 104.7150840  39.5739040  12.8134550 104.1900910
  47.8233670  11.5288120  91.6689130  47.9985860  10.8425860  91.0250050
  47.1255240  12.0535170  91.2765800  35.6661320  11.9182960  89.2224440
  36.3980140  11.6342240  88.6748330  35.9254990  11.6796240  90.1123820
  34.8276110   8.0347690  89.2270770  34.1984990   8.5032790  89.7756600
  34.9423940   7.1896910  89.6616960  46.1566170  11.2132410 104.4955920
  46.9491490  10.7181640 104.2881880  46.4499320  11.8922550 105.1031530
  40.4143870   3.8632370  77.2581240  39.6385970   3.3832810  77.5479810
  41.0656800   3.1838020  77.0837400  34.4309700   4.1752180  78.1357000
  33.5994580   3.9200890  78.5353510  35.0390680   4.2462950  78.8714920
  44.4351300   8.2692560  76.0380370  43.9732830   7.4979800  76.3667540
  45.2476850   8.2958630  76.5432820  34.4110960   8.2092270  78.3315020
  34.7139000   7.3190010  78.1525240  35.1554550   8.7662490  78.1037270
  40.6614610  10.5550570  75.6584360  40.0426050  11.0108070  75.0878800
  41.5166390  10.7102030  75.2574060  39.8552860   6.5389560  77.2651400
  39.7861140   5.5979500  77.1040530  40.6172720   6.6290970  77.8373970
  41.5277960   5.4389810  73.0516270  40.9095230   5.9039260  72.4878990
  42.0401210   6.1317290  73.4685780  36.3909720   4.9665680  79.7299870
  36.0579100   5.5934600  80.3720940  36.5676400   5.4927560  78.9501540
  35.6028820   6.9346480  81.5449050  36.2202820   7.6097560  81.2633500
  34.7421940   7.3434460  81.4536550  30.8961160   6.1246340  70.4255900
  30.5189140   6.6133440  69.6940800  31.1534230   6.7971620  71.0562430
  46.5206410   8.3985890  79.4603690  45.8369930   9.0685000  79.4520360
  47.0600700   8.5966540  78.6948550  44.0565150  10.2430020  78.1748870
  44.0692310   9.8392310  77.3071130  43.5040370  11.0177310  78.0710300
  45.3510570   6.9646240  73.2639040  45.2406900   6.0220570  73.3888460
  45.3478820   7.3261880  74.1501800  43.4550590   5.1459860  79.5031480
  43.8719380   4.9319970  78.6684940  44.1790410   5.4032650  80.0740100
  40.8930850   2.5911560  72.6201530  39.9660130   2.5248940  72.8490000
  41.0455670   3.5291690  72.5056770  47.4012690   3.5447080  79.5947720
  46.5731320   3.6140170  79.1197850  47.9963170   4.1301390  79.1263550
  44.9228140   4.1531860  73.1236780  44.3040560   3.8151410  72.4763080
  44.9052590   3.5091620  73.8315970  36.4987490   3.1176300  75.4021260
  36.0944490   2.4053550  74.9067160  36.5850610   2.7729540  76.2909300
  36.9669190   6.8043860  77.5660470  36.6697480   6.1989330  76.8868250
  37.9169010   6.8421170  77.4549830  45.0554800  10.3775730  81.2283570
  44.5785360  11.1847920  81.0356180  44.3716590   9.7254060  81.3809780
  36.0587620   6.5425550  84.2168270  35.1616150   6.7665520  84.4641670
  36.0840490   6.6660490  83.2679670  43.0992840   3.3918670  70.1309530
  43.5386120   2.5541100  69.9847350  43.8121260   4.0248070  70.2173670
  34.8858840   3.4138870  82.7925640  34.7466610   4.2861670  83.1613040
  34.0040200   3.0711680  82.6473580  41.2088220   8.3314740  74.0990770
  41.6484130   9.0739070  73.6846160  41.1475110   8.5741310  75.0229730
  36.6839190   9.3560570  85.0010790  36.6554620   9.7603520  84.1339220
  36.5204160   8.4270930  84.8382390  48.6354010  10.1387670  86.2974960
  49.1113730  10.6170560  86.9764040  49.2561170  10.0705160  85.5720460
  30.8377490   5.1836420  78.7096550  30.9157910   5.3185190  77.7652270
  31.4519170   4.4752310  78.9024670  32.0825120   6.8836610  75.1202730
  31.6753200   7.0251200  74.2656330  32.9738130   6.5996770  74.9173940
  48.0387260   7.3300520  83.4574970  48.1650320   7.0912400  82.5392150
  48.0808640   6.4985060  83.9297050  41.9004000  11.0328520  82.0269780
  42.4148670  10.9436530  82.8292210  41.0573080  11.3788220  82.3197690
  43.8758400  11.3183860  71.4553780  43.7159540  11.0286800  72.3535610
  43.7105110  10.5423990  70.9199010  36.3546780  11.0982390  73.2325400
  36.1789260  10.1817930  73.0193200  35.5002520  11.4569680  73.4723200
  43.5784530   8.8271420  70.0151780  42.8849690   8.8248710  69.3554060
  44.3207390   8.4030740  69.5845950  43.1434460  10.4534130  74.0900270
  43.5991410   9.6723510  74.4038890  43.4826980  11.1640950  74.6341450
  30.8937010   6.2250590  81.2491010  31.0568050   5.7555950  80.4310380
  31.3589460   5.7174150  81.9139850  32.4675990   5.6002020  83.4086820
  32.0830780   4.9595690  84.0069780  32.7788180   6.3038140  83.9781550
  38.6173130   2.4478560  78.8895440  38.9843260   1.9737130  79.6356780
  38.4278190   3.3220130  79.2303780  34.9354290   5.6948190  71.8046500
  34.1616550   5.1545810  71.6445220  35.6648920   5.1754800  71.4664260
  45.6942270   4.6913550  77.5972890  46.4141390   5.1868840  77.2069000
  45.4924090   4.0131440  76.9526760  41.0761070   4.7622610  83.4841890
  41.0098380   3.8418280  83.2299480  40.4466210   4.8598050  84.1986530
  34.9791690   5.3628570  75.4425310  35.4970360   4.5596830  75.3882200
  34.5275710   5.3007710  76.2842140  39.8661190   6.6294850  70.7152610
  40.2076890   7.3737080  70.2195930  39.0373900   6.9425970  71.0777440
  35.6649350   2.7874180  85.2390560  35.3649490   2.9331360  84.3418380
  36.4360590   2.2279470  85.1463950  41.0077800   7.5843180  83.2345690
  41.0222340   6.6524140  83.0164600  40.3002900   7.6702940  83.8735460
  46.1414870   1.7683000  69.5044300  46.0578590   2.1997220  68.6540740
  46.8609060   2.2281350  69.9371120  47.2189010   4.2250520  82.5814270
  46.4937200   4.8179300  82.3843660  47.7464470   4.2174060  81.7827640
  47.1702120   8.6225260  72.2326430  46.5278280   7.9680880  72.5070150
  46.7832780   9.0280350  71.4567100  42.7488600   5.9510690  76.0798120
  43.1012420   5.3538820  75.4199490  41.8650930   5.6254920  76.2506370
  38.8351880   6.7108380  73.4868530  39.5223010   7.2577590  73.8676120
  38.0484300   7.2549110  73.5218140  30.9744280   2.3281200  68.9785610
  31.8439130   2.6106000  69.2621530  30.4834600   3.1417070  68.8634420
  38.1379090   3.7154410  73.0993890  38.5941870   4.5259660  73.3254080
  37.7867300   3.3977550  73.9312380  40.4411700   9.2260750  80.3286190
  41.0853920   9.4320130  81.0059610  40.8041140   8.4649150  79.8757040
  41.7143780   7.2293100  79.0463640  42.3566010   6.5286260  79.1595810
  42.2393130   8.0091540  78.8660530  45.5599500   7.5141720  68.7702780
  45.3337080   6.7972160  69.3627420  45.1695700   7.2654160  67.9324530
  43.4881400   8.0288000  82.2499700  43.8237640   8.6154690  82.9277620
  42.5681740   7.8980710  82.4797490  31.3415530  11.5408580  69.5447240
  31.7013170  12.1397920  68.8904510  31.2007870  12.0868470  70.3182270
  45.1415750   5.4313660  70.4316940  44.8537450   5.8926350  71.2194820
  45.9367920   4.9711430  70.7001160  31.3257390   9.8063440  84.0189640
  31.4348510   8.8658180  83.8785030  30.6737950  10.0718190  83.3703370
  39.3169980   8.0779330  85.4187760  38.9966850   7.3588570  85.9633450
  38.6428340   8.7534400  85.4923820  37.3584150   8.9239780  70.3620910
  37.3494250   9.6569470  69.7465420  36.4382510   8.6771360  70.4547870
  32.9590790   4.1454670  71.1067670  32.3518740   4.8853570  71.1162970
  33.4340140   4.2354030  70.2805870  40.3443750   8.9868020  69.0246100
  40.4455730   8.7832010  68.0948080  39.4445490   8.7326300  69.2293880
  38.9861860  11.5054340  73.7193770  39.2403360  11.4675730  72.7973140
  38.0374340  11.3787670  73.7122020  34.9696080   4.1065820  68.8556240
  35.7359350   3.9947180  69.4181670  35.0470770   3.4103790  68.2033010
  46.9940020   9.5955070  76.9706540  47.1187440  10.4186240  77.4430350
  47.8605580   9.3845800  76.6230690  34.4657550  11.6886280  76.6423670
  35.2020030  11.1401740  76.9132240  34.8498470  12.5542290  76.5029660
  31.3503030   7.7559850  72.5165180  30.4242810   7.9980990  72.5070590
  31.8159460   8.5834110  72.3949930  33.4715830  10.8732350  85.8309250
  34.2728560  11.1944400  86.2444650  32.9567650  10.5127930  86.5529160
  37.5759860  10.8616590  68.4649240  38.3688470  11.1505420  68.0131030
  37.0564210  10.4308760  67.7861720  42.3080460   6.9812220  85.7784660
  41.7018620   7.0043820  85.0380410  42.0034570   6.2495260  86.3151910
  43.7380830  10.7092510  84.3894070  44.6902580  10.6250530  84.3394310
  43.5909050  11.3734220  85.0627860  46.6290030  10.0886720  69.8885980
  46.3431540   9.6751860  69.0740160  46.4309580  11.0174430  69.7686500
  31.1913640   3.3605810  84.7745300  31.6952660   2.7813090  85.3461530
  30.4521060   3.6446040  85.3121670  38.0937260   6.0820000  68.3291590
  37.9887900   5.4672350  69.0552970  37.9261480   5.5585890  67.5454600
  38.2451580   4.7676800  84.3080820  37.4797250   5.3361800  84.2235490
  38.4267540   4.4753010  83.4149050  41.3339990   5.1440030  68.9333580
  40.7850090   5.5909330  69.5776320  41.9559250   4.6389280  69.4571250
  45.3874930   6.4982130  84.8655840  46.1284400   6.8357890  84.3623300
  44.6247610   6.6674190  84.3125610  37.0015110   4.1030950  70.8298880
  37.4231530   3.9370820  71.6730270  37.1265950   3.2931180  70.3354020
  39.5142750   3.1268560  68.0775980  40.0348410   2.4117580  67.7117130
  40.1611150   3.7654430  68.3776490  44.0620590   4.5496960  83.4011050
  44.4761610   4.7042040  84.2501470  43.1271590   4.6752180  83.5636830
  38.8235820   4.5017440  81.3706980  39.2423930   5.3450170  81.1983220
  37.9044450   4.6389480  81.1413760  43.4987620   2.7870810  81.3307330
  42.9722840   3.3113430  80.7272470  43.8418960   3.4198200  81.9617060
  36.6743240  10.8070450  82.4864710  36.1364330  11.5316510  82.1673410
  36.9277200  10.3300790  81.6962050  39.5305450  12.0421660  82.7451360
  39.4564150  12.9456800  83.0523730  38.6284290  11.7233560  82.7173430
  40.0790780  11.2080170  70.3677720  40.9741570  11.5465140  70.3896480
  40.1108410  10.4859580  69.7402000  33.7186940   6.5807220  68.5964720
  34.1561810   7.1236890  69.2522300  34.2034670   5.7554170  68.6061060
  30.9332740   9.3696250  76.0484980  31.2635750   8.5017310  75.8163620
  31.3623740   9.5754770  76.8789940  35.5294660   7.7005260  73.7086950
  35.2290200   7.5770230  74.6090860  35.4232150   6.8413850  73.3002680
  31.4222950  10.2366840  78.7866610  30.9853940  10.4167640  79.6190760
  31.9900630  10.9941460  78.6448330  47.0585130   9.7383840  83.0743920
  46.4587120   9.7976400  82.3307840  47.1879030   8.7988820  83.2040770
  48.2986580   7.4801660  68.4113630  47.4679540   7.5478310  68.8820860
  48.4758410   8.3705780  68.1080490  47.7543040   4.2249140  70.9147830
  48.5161950   4.7945790  71.0207520  47.7697410   3.6576340  71.6856140
  31.2547380   2.7487070  75.1455490  30.5996220   2.4798710  74.5015190
  32.0925330   2.6391550  74.6957470  48.7603010   5.0799240  75.7589760
  49.1311840   4.2966560  75.3525730  49.4004940   5.7688340  75.5807060
  45.7436770   6.4635820  81.1720080  44.9296610   6.8932980  81.4345870
  46.1510970   7.0754230  80.5589130  47.8062210   4.5183510  68.0720350
  48.0811050   5.4262390  67.9439570  47.6172950   4.4546040  69.0082340
  47.7027550   2.4552500  73.0649780  47.3271150   1.6880430  72.6331070
  46.9730670   2.8375200  73.5524710  32.2923310   3.1339640  79.6858830
  32.6596350   3.0467040  80.5654850  31.7234130   2.3706190  79.5865690
  45.8012820  11.2154420  74.6988350  46.3971890  10.8938990  74.0222770
  46.0590970  10.7426240  75.4901620  33.7075390   7.6472330  84.8478980
  33.6645020   7.2765240  85.7293440  33.8386400   8.5849900  84.9880800
  37.4081420   9.2031920  80.4488700  37.1672780   9.4706480  79.5619220
  38.3484060   9.3737650  80.5039560  48.6685580  11.2226300  81.2499340
  48.1743860  11.6195170  80.5326470  48.0598870  10.5975510  81.6436620
  33.5463420  10.5934580  81.9676760  32.9523740  10.4619280  82.7066800
  33.5387260   9.7572720  81.5018860  46.3525030  11.8649720  78.5286080
  45.8928000  12.6165530  78.1544100  45.7237490  11.1456190  78.4700880
  33.1775650   7.9592960  80.9184800  32.4509710   7.3398250  80.8510750
  33.2384800   8.3533570  80.0482880  36.7820750  10.1737960  77.7034210
  37.2985770   9.5625320  77.1782470  37.4318130  10.6766740  78.1945220
  39.5216250  11.0646450  78.5303190  39.8094060  10.8100750  77.6536200
  40.0339470  10.5123810  79.1208760  31.4605650  11.2767350  74.1281560
  31.2927690  10.6438030  74.8263450  30.5940160  11.4826750  73.7775750
  33.0668350   9.9700580  71.5731700  32.5415970  10.3508610  70.8693660
  32.9912930  10.5951350  72.2941410  39.5888610  11.9862550  85.8971390
  40.5155920  11.7506820  85.9407350  39.5739040  12.8134550  85.4157420
  47.8233670  11.5288120  72.8945640  47.9985860  10.8425860  72.2506560
  47.1255240  12.0535170  72.5022310  35.6661320  11.9182960  70.4480950
  36.3980140  11.6342240  69.9004840  35.9254990  11.6796240  71.3380330
  34.8276110   8.0347690  70.4527280  34.1984990   8.5032790  71.0013110
  34.9423940   7.1896910  70.8873470  46.1566170  11.2132410  85.7212430
  46.9491490  10.7181640  85.5138390  46.4499320  11.8922550  86.3288040
  40.4143870   3.8632370  58.4837750  39.6385970   3.3832810  58.7736320
  41.0656800   3.1838020  58.3093910  34.4309700   4.1752180  59.3613510
  33.5994580   3.9200890  59.7610020  35.0390680   4.2462950  60.0971430
  44.4351300   8.2692560  57.2636880  43.9732830   7.4979800  57.5924050
  45.2476850   8.2958630  57.7689330  34.4110960   8.2092270  59.5571530
  34.7139000   7.3190010  59.3781750  35.1554550   8.7662490  59.3293780
  40.6614610  10.5550570  56.8840870  40.0426050  11.0108070  56.3135310
  41.5166390  10.7102030  56.4830570  39.8552860   6.5389560  58.4907910
  39.7861140   5.5979500  58.3297040  40.6172720   6.6290970  59.0630480
  41.5277960   5.4389810  54.2772780  40.9095230   5.9039260  53.7135500
  42.0401210   6.1317290  54.6942290  36.3909720   4.9665680  60.9556380
  36.0579100   5.5934600  61.5977450  36.5676400   5.4927560  60.1758050
  35.6028820   6.9346480  62.7705560  36.2202820   7.6097560  62.4890010
  34.7421940   7.3434460  62.6793060  30.8961160   6.1246340  51.6512410
  30.5189140   6.6133440  50.9197310  31.1534230   6.7971620  52.2818940
  46.5206410   8.3985890  60.6860200  45.8369930   9.0685000  60.6776870
  47.0600700   8.5966540  59.9205060  44.0565150  10.2430020  59.4005380
  44.0692310   9.8392310  58.5327640  43.5040370  11.0177310  59.2966810
  45.3510570   6.9646240  54.4895550  45.2406900   6.0220570  54.6144970
  45.3478820   7.3261880  55.3758310  43.4550590   5.1459860  60.7287990
  43.8719380   4.9319970  59.8941450  44.1790410   5.4032650  61.2996610
  40.8930850   2.5911560  53.8458040  39.9660130   2.5248940  54.0746510
  41.0455670   3.5291690  53.7313280  47.4012690   3.5447080  60.8204230
  46.5731320   3.6140170  60.3454360  47.9963170   4.1301390  60.3520060
  44.9228140   4.1531860  54.3493290  44.3040560   3.8151410  53.7019590
  44.9052590   3.5091620  55.0572480  36.4987490   3.1176300  56.6277770
  36.0944490   2.4053550  56.1323670  36.5850610   2.7729540  57.5165810
  36.9669190   6.8043860  58.7916980  36.6697480   6.1989330  58.1124760
  37.9169010   6.8421170  58.6806340  45.0554800  10.3775730  62.4540080
  44.5785360  11.1847920  62.2612690  44.3716590   9.7254060  62.6066290
  36.0587620   6.5425550  65.4424780  35.1616150   6.7665520  65.6898180
  36.0840490   6.6660490  64.4936180  43.0992840   3.3918670  51.3566040
  43.5386120   2.5541100  51.2103860  43.8121260   4.0248070  51.4430180
  34.8858840   3.4138870  64.0182150  34.7466610   4.2861670  64.3869550
  34.0040200   3.0711680  63.8730090  41.2088220   8.3314740  55.3247280
  41.6484130   9.0739070  54.9102670  41.1475110   8.5741310  56.2486240
  36.6839190   9.3560570  66.2267300  36.6554620   9.7603520  65.3595730
  36.5204160   8.4270930  66.0638900  48.6354010  10.1387670  67.5231470
  49.1113730  10.6170560  68.2020550  49.2561170  10.0705160  66.7976970
  30.8377490   5.1836420  59.9353060  30.9157910   5.3185190  58.9908780
  31.4519170   4.4752310  60.1281180  32.0825120   6.8836610  56.3459240
  31.6753200   7.0251200  55.4912840  32.9738130   6.5996770  56.1430450
  48.0387260   7.3300520  64.6831480  48.1650320   7.0912400  63.7648660
  48.0808640   6.4985060  65.1553560  41.9004000  11.0328520  63.2526290
  42.4148670  10.9436530  64.0548720  41.0573080  11.3788220  63.5454200
  43.8758400  11.3183860  52.6810290  43.7159540  11.0286800  53.5792120
  43.7105110  10.5423990  52.1455520  36.3546780  11.0982390  54.4581910
  36.1789260  10.1817930  54.2449710  35.5002520  11.4569680  54.6979710
  43.5784530   8.8271420  51.2408290  42.8849690   8.8248710  50.5810570
  44.3207390   8.4030740  50.8102460  43.1434460  10.4534130  55.3156780
  43.5991410   9.6723510  55.6295400  43.4826980  11.1640950  55.8597960
  30.8937010   6.2250590  62.4747520  31.0568050   5.7555950  61.6566890
  31.3589460   5.7174150  63.1396360  32.4675990   5.6002020  64.6343330
  32.0830780   4.9595690  65.2326290  32.7788180   6.3038140  65.2038060
  38.6173130   2.4478560  60.1151950  38.9843260   1.9737130  60.8613290
  38.4278190   3.3220130  60.4560290  34.9354290   5.6948190  53.0303010
  34.1616550   5.1545810  52.8701730  35.6648920   5.1754800  52.6920770
  45.6942270   4.6913550  58.8229400  46.4141390   5.1868840  58.4325510
  45.4924090   4.0131440  58.1783270  41.0761070   4.7622610  64.7098400
  41.0098380   3.8418280  64.4555990  40.4466210   4.8598050  65.4243040
  34.9791690   5.3628570  56.6681820  35.4970360   4.5596830  56.6138710
  34.5275710   5.3007710  57.5098650  39.8661190   6.6294850  51.9409120
  40.2076890   7.3737080  51.4452440  39.0373900   6.9425970  52.3033950
  35.6649350   2.7874180  66.4647070  35.3649490   2.9331360  65.5674890
  36.4360590   2.2279470  66.3720460  41.0077800   7.5843180  64.4602200
  41.0222340   6.6524140  64.2421110  40.3002900   7.6702940  65.0991970
  46.1414870   1.7683000  50.7300810  46.0578590   2.1997220  49.8797250
  46.8609060   2.2281350  51.1627630  47.2189010   4.2250520  63.8070780
  46.4937200   4.8179300  63.6100170  47.7464470   4.2174060  63.0084150
  47.1702120   8.6225260  53.4582940  46.5278280   7.9680880  53.7326660
  46.7832780   9.0280350  52.6823610  42.7488600   5.9510690  57.3054630
  43.1012420   5.3538820  56.6456000  41.8650930   5.6254920  57.4762880
  38.8351880   6.7108380  54.7125040  39.5223010   7.2577590  55.0932630
  38.0484300   7.2549110  54.7474650  30.9744280   2.3281200  50.2042120
  31.8439130   2.6106000  50.4878040  30.4834600   3.1417070  50.0890930
  38.1379090   3.7154410  54.3250400  38.5941870   4.5259660  54.5510590
  37.7867300   3.3977550  55.1568890  40.4411700   9.2260750  61.5542700
  41.0853920   9.4320130  62.2316120  40.8041140   8.4649150  61.1013550
  41.7143780   7.2293100  60.2720150  42.3566010   6.5286260  60.3852320
  42.2393130   8.0091540  60.0917040  45.5599500   7.5141720  49.9959290
  45.3337080   6.7972160  50.5883930  45.1695700   7.2654160  49.1581040
  43.4881400   8.0288000  63.4756210  43.8237640   8.6154690  64.1534130
  42.5681740   7.8980710  63.7054000  31.3415530  11.5408580  50.7703750
  31.7013170  12.1397920  50.1161020  31.2007870  12.0868470  51.5438780
  45.1415750   5.4313660  51.6573450  44.8537450   5.8926350  52.4451330
  45.9367920   4.9711430  51.9257670  31.3257390   9.8063440  65.2446150
  31.4348510   8.8658180  65.1041540  30.6737950  10.0718190  64.5959880
  39.3169980   8.0779330  66.6444270  38.9966850   7.3588570  67.1889960
  38.6428340   8.7534400  66.7180330  37.3584150   8.9239780  51.5877420
  37.3494250   9.6569470  50.9721930  36.4382510   8.6771360  51.6804380
  32.9590790   4.1454670  52.3324180  32.3518740   4.8853570  52.3419480
  33.4340140   4.2354030  51.5062380  40.3443750   8.9868020  50.2502610
  40.4455730   8.7832010  49.3204590  39.4445490   8.7326300  50.4550390
  38.9861860  11.5054340  54.9450280  39.2403360  11.4675730  54.0229650
  38.0374340  11.3787670  54.9378530  34.9696080   4.1065820  50.0812750
  35.7359350   3.9947180  50.6438180  35.0470770   3.4103790  49.4289520
  46.9940020   9.5955070  58.1963050  47.1187440  10.4186240  58.6686860
  47.8605580   9.3845800  57.8487200  34.4657550  11.6886280  57.8680180
  35.2020030  11.1401740  58.1388750  34.8498470  12.5542290  57.7286170
  31.3503030   7.7559850  53.7421690  30.4242810   7.9980990  53.7327100
  31.8159460   8.5834110  53.6206440  33.4715830  10.8732350  67.0565760
  34.2728560  11.1944400  67.4701160  32.9567650  10.5127930  67.7785670
  37.5759860  10.8616590  49.6905750  38.3688470  11.1505420  49.2387540
  37.0564210  10.4308760  49.0118230  42.3080460   6.9812220  67.0041170
  41.7018620   7.0043820  66.2636920  42.0034570   6.2495260  67.5408420
  43.7380830  10.7092510  65.6150580  44.6902580  10.6250530  65.5650820
  43.5909050  11.3734220  66.2884370  46.6290030  10.0886720  51.1142490
  46.3431540   9.6751860  50.2996670  46.4309580  11.0174430  50.9943010
  31.1913640   3.3605810  66.0001810  31.6952660   2.7813090  66.5718040
  30.4521060   3.6446040  66.5378180  38.0937260   6.0820000  49.5548100
  37.9887900   5.4672350  50.2809480  37.9261480   5.5585890  48.7711110
  38.2451580   4.7676800  65.5337330  37.4797250   5.3361800  65.4492000
  38.4267540   4.4753010  64.6405560  41.3339990   5.1440030  50.1590090
  40.7850090   5.5909330  50.8032830  41.9559250   4.6389280  50.6827760
  45.3874930   6.4982130  66.0912350  46.1284400   6.8357890  65.5879810
  44.6247610   6.6674190  65.5382120  37.0015110   4.1030950  52.0555390
  37.4231530   3.9370820  52.8986780  37.1265950   3.2931180  51.5610530
  39.5142750   3.1268560  49.3032490  40.0348410   2.4117580  48.9373640
  40.1611150   3.7654430  49.6033000  44.0620590   4.5496960  64.6267560
  44.4761610   4.7042040  65.4757980  43.1271590   4.6752180  64.7893340
  38.8235820   4.5017440  62.5963490  39.2423930   5.3450170  62.4239730
  37.9044450   4.6389480  62.3670270  43.4987620   2.7870810  62.5563840
  42.9722840   3.3113430  61.9528980  43.8418960   3.4198200  63.1873570
  36.6743240  10.8070450  63.7121220  36.1364330  11.5316510  63.3929920
  36.9277200  10.3300790  62.9218560  39.5305450  12.0421660  63.9707870
  39.4564150  12.9456800  64.2780240  38.6284290  11.7233560  63.9429940
  40.0790780  11.2080170  51.5934230  40.9741570  11.5465140  51.6152990
  40.1108410  10.4859580  50.9658510  33.7186940   6.5807220  49.8221230
  34.1561810   7.1236890  50.4778810  34.2034670   5.7554170  49.8317570
  30.9332740   9.3696250  57.2741490  31.2635750   8.5017310  57.0420130
  31.3623740   9.5754770  58.1046450  35.5294660   7.7005260  54.9343460
  35.2290200   7.5770230  55.8347370  35.4232150   6.8413850  54.5259190
  31.4222950  10.2366840  60.0123120  30.9853940  10.4167640  60.8447270
  31.9900630  10.9941460  59.8704840  47.0585130   9.7383840  64.3000430
  46.4587120   9.7976400  63.5564350  47.1879030   8.7988820  64.4297280
  48.2986580   7.4801660  49.6370140  47.4679540   7.5478310  50.1077370
  48.4758410   8.3705780  49.3337000  47.7543040   4.2249140  52.1404340
  48.5161950   4.7945790  52.2464030  47.7697410   3.6576340  52.9112650
  31.2547380   2.7487070  56.3712000  30.5996220   2.4798710  55.7271700
  32.0925330   2.6391550  55.9213980  48.7603010   5.0799240  56.9846270
  49.1311840   4.2966560  56.5782240  49.4004940   5.7688340  56.8063570
  45.7436770   6.4635820  62.3976590  44.9296610   6.8932980  62.6602380
  46.1510970   7.0754230  61.7845640  47.8062210   4.5183510  49.2976860
  48.0811050   5.4262390  49.1696080  47.6172950   4.4546040  50.2338850
  47.7027550   2.4552500  54.2906290  47.3271150   1.6880430  53.8587580
  46.9730670   2.8375200  54.7781220  32.2923310   3.1339640  60.9115340
  32.6596350   3.0467040  61.7911360  31.7234130   2.3706190  60.8122200
  45.8012820  11.2154420  55.9244860  46.3971890  10.8938990  55.2479280
  46.0590970  10.7426240  56.7158130  33.7075390   7.6472330  66.0735490
  33.6645020   7.2765240  66.9549950  33.8386400   8.5849900  66.2137310
  37.4081420   9.2031920  61.6745210  37.1672780   9.4706480  60.7875730
  38.3484060   9.3737650  61.7296070  48.6685580  11.2226300  62.4755850
  48.1743860  11.6195170  61.7582980  48.0598870  10.5975510  62.8693130
  33.5463420  10.5934580  63.1933270  32.9523740  10.4619280  63.9323310
  33.5387260   9.7572720  62.7275370  46.3525030  11.8649720  59.7542590
  45.8928000  12.6165530  59.3800610  45.7237490  11.1456190  59.6957390
  33.1775650   7.9592960  62.1441310  32.4509710   7.3398250  62.0767260
  33.2384800   8.3533570  61.2739390  36.7820750  10.1737960  58.9290720
  37.2985770   9.5625320  58.4038980  37.4318130  10.6766740  59.4201730
  39.5216250  11.0646450  59.7559700  39.8094060  10.8100750  58.8792710
  40.0339470  10.5123810  60.3465270  31.4605650  11.2767350  55.3538070
  31.2927690  10.6438030  56.0519960  30.5940160  11.4826750  55.0032260
  33.0668350   9.9700580  52.7988210  32.5415970  10.3508610  52.0950170
  32.9912930  10.5951350  53.5197920  39.5888610  11.9862550  67.1227900
  40.5155920  11.7506820  67.1663860  39.5739040  12.8134550  66.6413930
  47.8233670  11.5288120  54.1202150  47.9985860  10.8425860  53.4763070
  47.1255240  12.0535170  53.7278820  35.6661320  11.9182960  51.6737460
  36.3980140  11.6342240  51.1261350  35.9254990  11.6796240  52.5636840
  34.8276110   8.0347690  51.6783790  34.1984990   8.5032790  52.2269620
  34.9423940   7.1896910  52.1129980  46.1566170  11.2132410  66.9468940
  46.9491490  10.7181640  66.7394900  46.4499320  11.8922550  67.5544550
  40.4143870   3.8632370  39.7094260  39.6385970   3.3832810  39.9992830
  41.0656800   3.1838020  39.5350420  34.4309700   4.1752180  40.5870020
  33.5994580   3.9200890  40.9866530  35.0390680   4.2462950  41.3227940
  44.4351300   8.2692560  38.4893390  43.9732830   7.4979800  38.8180560
  45.2476850   8.2958630  38.9945840  34.4110960   8.2092270  40.7828040
  34.7139000   7.3190010  40.6038260  35.1554550   8.7662490  40.5550290
  40.6614610  10.5550570  38.1097380  40.0426050  11.0108070  37.5391820
  41.5166390  10.7102030  37.7087080  39.8552860   6.5389560  39.7164420
  39.7861140   5.5979500  39.5553550  40.6172720   6.6290970  40.2886990
  41.5277960   5.4389810  35.5029290  40.9095230   5.9039260  34.9392010
  42.0401210   6.1317290  35.9198800  36.3909720   4.9665680  42.1812890
  36.0579100   5.5934600  42.8233960  36.5676400   5.4927560  41.4014560
  35.6028820   6.9346480  43.9962070  36.2202820   7.6097560  43.7146520
  34.7421940   7.3434460  43.9049570  30.8961160   6.1246340  32.8768920
  30.5189140   6.6133440  32.1453820  31.1534230   6.7971620  33.5075450
  46.5206410   8.3985890  41.9116710  45.8369930   9.0685000  41.9033380
  47.0600700   8.5966540  41.1461570  44.0565150  10.2430020  40.6261890
  44.0692310   9.8392310  39.7584150  43.5040370  11.0177310  40.5223320
  45.3510570   6.9646240  35.7152060  45.2406900   6.0220570  35.8401480
  45.3478820   7.3261880  36.6014820  43.4550590   5.1459860  41.9544500
  43.8719380   4.9319970  41.1197960  44.1790410   5.4032650  42.5253120
  40.8930850   2.5911560  35.0714550  39.9660130   2.5248940  35.3003020
  41.0455670   3.5291690  34.9569790  47.4012690   3.5447080  42.0460740
  46.5731320   3.6140170  41.5710870  47.9963170   4.1301390  41.5776570
  44.9228140   4.1531860  35.5749800  44.3040560   3.8151410  34.9276100
  44.9052590   3.5091620  36.2828990  36.4987490   3.1176300  37.8534280
  36.0944490   2.4053550  37.3580180  36.5850610   2.7729540  38.7422320
  36.9669190   6.8043860  40.0173490  36.6697480   6.1989330  39.3381270
  37.9169010   6.8421170  39.9062850  45.0554800  10.3775730  43.6796590
  44.5785360  11.1847920  43.4869200  44.3716590   9.7254060  43.8322800
  36.0587620   6.5425550  46.6681290  35.1616150   6.7665520  46.9154690
  36.0840490   6.6660490  45.7192690  43.0992840   3.3918670  32.5822550
  43.5386120   2.5541100  32.4360370  43.8121260   4.0248070  32.6686690
  34.8858840   3.4138870  45.2438660  34.7466610   4.2861670  45.6126060
  34.0040200   3.0711680  45.0986600  41.2088220   8.3314740  36.5503790
  41.6484130   9.0739070  36.1359180  41.1475110   8.5741310  37.4742750
  36.6839190   9.3560570  47.4523810  36.6554620   9.7603520  46.5852240
  36.5204160   8.4270930  47.2895410  48.6354010  10.1387670  48.7487980
  49.1113730  10.6170560  49.4277060  49.2561170  10.0705160  48.0233480
  30.8377490   5.1836420  41.1609570  30.9157910   5.3185190  40.2165290
  31.4519170   4.4752310  41.3537690  32.0825120   6.8836610  37.5715750
  31.6753200   7.0251200  36.7169350  32.9738130   6.5996770  37.3686960
  48.0387260   7.3300520  45.9087990  48.1650320   7.0912400  44.9905170
  48.0808640   6.4985060  46.3810070  41.9004000  11.0328520  44.4782800
  42.4148670  10.9436530  45.2805230  41.0573080  11.3788220  44.7710710
  43.8758400  11.3183860  33.9066800  43.7159540  11.0286800  34.8048630
  43.7105110  10.5423990  33.3712030  36.3546780  11.0982390  35.6838420
  36.1789260  10.1817930  35.4706220  35.5002520  11.4569680  35.9236220
  43.5784530   8.8271420  32.4664800  42.8849690   8.8248710  31.8067080
  44.3207390   8.4030740  32.0358970  43.1434460  10.4534130  36.5413290
  43.5991410   9.6723510  36.8551910  43.4826980  11.1640950  37.0854470
  30.8937010   6.2250590  43.7004030  31.0568050   5.7555950  42.8823400
  31.3589460   5.7174150  44.3652870  32.4675990   5.6002020  45.8599840
  32.0830780   4.9595690  46.4582800  32.7788180   6.3038140  46.4294570
  38.6173130   2.4478560  41.3408460  38.9843260   1.9737130  42.0869800
  38.4278190   3.3220130  41.6816800  34.9354290   5.6948190  34.2559520
  34.1616550   5.1545810  34.0958240  35.6648920   5.1754800  33.9177280
  45.6942270   4.6913550  40.0485910  46.4141390   5.1868840  39.6582020
  45.4924090   4.0131440  39.4039780  41.0761070   4.7622610  45.9354910
  41.0098380   3.8418280  45.6812500  40.4466210   4.8598050  46.6499550
  34.9791690   5.3628570  37.8938330  35.4970360   4.5596830  37.8395220
  34.5275710   5.3007710  38.7355160  39.8661190   6.6294850  33.1665630
  40.2076890   7.3737080  32.6708950  39.0373900   6.9425970  33.5290460
  35.6649350   2.7874180  47.6903580  35.3649490   2.9331360  46.7931400
  36.4360590   2.2279470  47.5976970  41.0077800   7.5843180  45.6858710
  41.0222340   6.6524140  45.4677620  40.3002900   7.6702940  46.3248480
  46.1414870   1.7683000  31.9557320  46.0578590   2.1997220  31.1053760
  46.8609060   2.2281350  32.3884140  47.2189010   4.2250520  45.0327290
  46.4937200   4.8179300  44.8356680  47.7464470   4.2174060  44.2340660
  47.1702120   8.6225260  34.6839450  46.5278280   7.9680880  34.9583170
  46.7832780   9.0280350  33.9080120  42.7488600   5.9510690  38.5311140
  43.1012420   5.3538820  37.8712510  41.8650930   5.6254920  38.7019390
  38.8351880   6.7108380  35.9381550  39.5223010   7.2577590  36.3189140
  38.0484300   7.2549110  35.9731160  30.9744280   2.3281200  31.4298630
  31.8439130   2.6106000  31.7134550  30.4834600   3.1417070  31.3147440
  38.1379090   3.7154410  35.5506910  38.5941870   4.5259660  35.7767100
  37.7867300   3.3977550  36.3825400  40.4411700   9.2260750  42.7799210
  41.0853920   9.4320130  43.4572630  40.8041140   8.4649150  42.3270060
  41.7143780   7.2293100  41.4976660  42.3566010   6.5286260  41.6108830
  42.2393130   8.0091540  41.3173550  45.5599500   7.5141720  31.2215800
  45.3337080   6.7972160  31.8140440  45.1695700   7.2654160  30.3837550
  43.4881400   8.0288000  44.7012720  43.8237640   8.6154690  45.3790640
  42.5681740   7.8980710  44.9310510  31.3415530  11.5408580  31.9960260
  31.7013170  12.1397920  31.3417530  31.2007870  12.0868470  32.7695290
  45.1415750   5.4313660  32.8829960  44.8537450   5.8926350  33.6707840
  45.9367920   4.9711430  33.1514180  31.3257390   9.8063440  46.4702660
  31.4348510   8.8658180  46.3298050  30.6737950  10.0718190  45.8216390
  39.3169980   8.0779330  47.8700780  38.9966850   7.3588570  48.4146470
  38.6428340   8.7534400  47.9436840  37.3584150   8.9239780  32.8133930
  37.3494250   9.6569470  32.1978440  36.4382510   8.6771360  32.9060890
  32.9590790   4.1454670  33.5580690  32.3518740   4.8853570  33.5675990
  33.4340140   4.2354030  32.7318890  40.3443750   8.9868020  31.4759120
  40.4455730   8.7832010  30.5461100  39.4445490   8.7326300  31.6806900
  38.9861860  11.5054340  36.1706790  39.2403360  11.4675730  35.2486160
  38.0374340  11.3787670  36.1635040  34.9696080   4.1065820  31.3069260
  35.7359350   3.9947180  31.8694690  35.0470770   3.4103790  30.6546030
  46.9940020   9.5955070  39.4219560  47.1187440  10.4186240  39.8943370
  47.8605580   9.3845800  39.0743710  34.4657550  11.6886280  39.0936690
  35.2020030  11.1401740  39.3645260  34.8498470  12.5542290  38.9542680
  31.3503030   7.7559850  34.9678200  30.4242810   7.9980990  34.9583610
  31.8159460   8.5834110  34.8462950  33.4715830  10.8732350  48.2822270
  34.2728560  11.1944400  48.6957670  32.9567650  10.5127930  49.0042180
  37.5759860  10.8616590  30.9162260  38.3688470  11.1505420  30.4644050
  37.0564210  10.4308760  30.2374740  42.3080460   6.9812220  48.2297680
  41.7018620   7.0043820  47.4893430  42.0034570   6.2495260  48.7664930
  43.7380830  10.7092510  46.8407090  44.6902580  10.6250530  46.7907330
  43.5909050  11.3734220  47.5140880  46.6290030  10.0886720  32.3399000
  46.3431540   9.6751860  31.5253180  46.4309580  11.0174430  32.2199520
  31.1913640   3.3605810  47.2258320  31.6952660   2.7813090  47.7974550
  30.4521060   3.6446040  47.7634690  38.0937260   6.0820000  30.7804610
  37.9887900   5.4672350  31.5065990  37.9261480   5.5585890  29.9967620
  38.2451580   4.7676800  46.7593840  37.4797250   5.3361800  46.6748510
  38.4267540   4.4753010  45.8662070  41.3339990   5.1440030  31.3846600
  40.7850090   5.5909330  32.0289340  41.9559250   4.6389280  31.9084270
  45.3874930   6.4982130  47.3168860  46.1284400   6.8357890  46.8136320
  44.6247610   6.6674190  46.7638630  37.0015110   4.1030950  33.2811900
  37.4231530   3.9370820  34.1243290  37.1265950   3.2931180  32.7867040
  39.5142750   3.1268560  30.5289000  40.0348410   2.4117580  30.1630150
  40.1611150   3.7654430  30.8289510  44.0620590   4.5496960  45.8524070
  44.4761610   4.7042040  46.7014490  43.1271590   4.6752180  46.0149850
  38.8235820   4.5017440  43.8220000  39.2423930   5.3450170  43.6496240
  37.9044450   4.6389480  43.5926780  43.4987620   2.7870810  43.7820350
  42.9722840   3.3113430  43.1785490  43.8418960   3.4198200  44.4130080
  36.6743240  10.8070450  44.9377730  36.1364330  11.5316510  44.6186430
  36.9277200  10.3300790  44.1475070  39.5305450  12.0421660  45.1964380
  39.4564150  12.9456800  45.5036750  38.6284290  11.7233560  45.1686450
  40.0790780  11.2080170  32.8190740  40.9741570  11.5465140  32.8409500
  40.1108410  10.4859580  32.1915020  33.7186940   6.5807220  31.0477740
  34.1561810   7.1236890  31.7035320  34.2034670   5.7554170  31.0574080
  30.9332740   9.3696250  38.4998000  31.2635750   8.5017310  38.2676640
  31.3623740   9.5754770  39.3302960  35.5294660   7.7005260  36.1599970
  35.2290200   7.5770230  37.0603880  35.4232150   6.8413850  35.7515700
  31.4222950  10.2366840  41.2379630  30.9853940  10.4167640  42.0703780
  31.9900630  10.9941460  41.0961350  47.0585130   9.7383840  45.5256940
  46.4587120   9.7976400  44.7820860  47.1879030   8.7988820  45.6553790
  48.2986580   7.4801660  30.8626650  47.4679540   7.5478310  31.3333880
  48.4758410   8.3705780  30.5593510  47.7543040   4.2249140  33.3660850
  48.5161950   4.7945790  33.4720540  47.7697410   3.6576340  34.1369160
  31.2547380   2.7487070  37.5968510  30.5996220   2.4798710  36.9528210
  32.0925330   2.6391550  37.1470490  48.7603010   5.0799240  38.2102780
  49.1311840   4.2966560  37.8038750  49.4004940   5.7688340  38.0320080
  45.7436770   6.4635820  43.6233100  44.9296610   6.8932980  43.8858890
  46.1510970   7.0754230  43.0102150  47.8062210   4.5183510  30.5233370
  48.0811050   5.4262390  30.3952590  47.6172950   4.4546040  31.4595360
  47.7027550   2.4552500  35.5162800  47.3271150   1.6880430  35.0844090
  46.9730670   2.8375200  36.0037730  32.2923310   3.1339640  42.1371850
  32.6596350   3.0467040  43.0167870  31.7234130   2.3706190  42.0378710
  45.8012820  11.2154420  37.1501370  46.3971890  10.8938990  36.4735790
  46.0590970  10.7426240  37.9414640  33.7075390   7.6472330  47.2992000
  33.6645020   7.2765240  48.1806460  33.8386400   8.5849900  47.4393820
  37.4081420   9.2031920  42.9001720  37.1672780   9.4706480  42.0132240
  38.3484060   9.3737650  42.9552580  48.6685580  11.2226300  43.7012360
  48.1743860  11.6195170  42.9839490  48.0598870  10.5975510  44.0949640
  33.5463420  10.5934580  44.4189780  32.9523740  10.4619280  45.1579820
  33.5387260   9.7572720  43.9531880  46.3525030  11.8649720  40.9799100
  45.8928000  12.6165530  40.6057120  45.7237490  11.1456190  40.9213900
  33.1775650   7.9592960  43.3697820  32.4509710   7.3398250  43.3023770
  33.2384800   8.3533570  42.4995900  36.7820750  10.1737960  40.1547230
  37.2985770   9.5625320  39.6295490  37.4318130  10.6766740  40.6458240
  39.5216250  11.0646450  40.9816210  39.8094060  10.8100750  40.1049220
  40.0339470  10.5123810  41.5721780  31.4605650  11.2767350  36.5794580
  31.2927690  10.6438030  37.2776470  30.5940160  11.4826750  36.2288770
  33.0668350   9.9700580  34.0244720  32.5415970  10.3508610  33.3206680
  32.9912930  10.5951350  34.7454430  39.5888610  11.9862550  48.3484410
  40.5155920  11.7506820  48.3920370  39.5739040  12.8134550  47.8670440
  47.8233670  11.5288120  35.3458660  47.9985860  10.8425860  34.7019580
  47.1255240  12.0535170  34.9535330  35.6661320  11.9182960  32.8993970
  36.3980140  11.6342240  32.3517860  35.9254990  11.6796240  33.7893350
  34.8276110   8.0347690  32.9040300  34.1984990   8.5032790  33.4526130
  34.9423940   7.1896910  33.3386490  46.1566170  11.2132410  48.1725450
  46.9491490  10.7181640  47.9651410  46.4499320  11.8922550  48.7801060
  40.4143870   3.8632370  20.9350770  39.6385970   3.3832810  21.2249340
  41.0656800   3.1838020  20.7606930  34.4309700   4.1752180  21.8126530
  33.5994580   3.9200890  22.2123040  35.0390680   4.2462950  22.5484450
  44.4351300   8.2692560  19.7149900  43.9732830   7.4979800  20.0437070
  45.2476850   8.2958630  20.2202350  34.4110960   8.2092270  22.0084550
  34.7139000   7.3190010  21.8294770  35.1554550   8.7662490  21.7806800
  40.6614610  10.5550570  19.3353890  40.0426050  11.0108070  18.7648330
  41.5166390  10.7102030  18.9343590  39.8552860   6.5389560  20.9420930
  39.7861140   5.5979500  20.7810060  40.6172720   6.6290970  21.5143500
  41.5277960   5.4389810  16.7285800  40.9095230   5.9039260  16.1648520
  42.0401210   6.1317290  17.1455310  36.3909720   4.9665680  23.4069400
  36.0579100   5.5934600  24.0490470  36.5676400   5.4927560  22.6271070
  35.6028820   6.9346480  25.2218580  36.2202820   7.6097560  24.9403030
  34.7421940   7.3434460  25.1306080  30.8961160   6.1246340  14.1025430
  30.5189140   6.6133440  13.3710330  31.1534230   6.7971620  14.7331960
  46.5206410   8.3985890  23.1373220  45.8369930   9.0685000  23.1289890
  47.0600700   8.5966540  22.3718080  44.0565150  10.2430020  21.8518400
  44.0692310   9.8392310  20.9840660  43.5040370  11.0177310  21.7479830
  45.3510570   6.9646240  16.9408570  45.2406900   6.0220570  17.0657990
  45.3478820   7.3261880  17.8271330  43.4550590   5.1459860  23.1801010
  43.8719380   4.9319970  22.3454470  44.1790410   5.4032650  23.7509630
  40.8930850   2.5911560  16.2971060  39.9660130   2.5248940  16.5259530
  41.0455670   3.5291690  16.1826300  47.4012690   3.5447080  23.2717250
  46.5731320   3.6140170  22.7967380  47.9963170   4.1301390  22.8033080
  44.9228140   4.1531860  16.8006310  44.3040560   3.8151410  16.1532610
  44.9052590   3.5091620  17.5085500  36.4987490   3.1176300  19.0790790
  36.0944490   2.4053550  18.5836690  36.5850610   2.7729540  19.9678830
  36.9669190   6.8043860  21.2430000  36.6697480   6.1989330  20.5637780
  37.9169010   6.8421170  21.1319360  45.0554800  10.3775730  24.9053100
  44.5785360  11.1847920  24.7125710  44.3716590   9.7254060  25.0579310
  36.0587620   6.5425550  27.8937800  35.1616150   6.7665520  28.1411200
  36.0840490   6.6660490  26.9449200  43.0992840   3.3918670  13.8079060
  43.5386120   2.5541100  13.6616880  43.8121260   4.0248070  13.8943200
  34.8858840   3.4138870  26.4695170  34.7466610   4.2861670  26.8382570
  34.0040200   3.0711680  26.3243110  41.2088220   8.3314740  17.7760300
  41.6484130   9.0739070  17.3615690  41.1475110   8.5741310  18.6999260
  36.6839190   9.3560570  28.6780320  36.6554620   9.7603520  27.8108750
  36.5204160   8.4270930  28.5151920  48.6354010  10.1387670  29.9744490
  49.1113730  10.6170560  30.6533570  49.2561170  10.0705160  29.2489990
  30.8377490   5.1836420  22.3866080  30.9157910   5.3185190  21.4421800
  31.4519170   4.4752310  22.5794200  32.0825120   6.8836610  18.7972260
  31.6753200   7.0251200  17.9425860  32.9738130   6.5996770  18.5943470
  48.0387260   7.3300520  27.1344500  48.1650320   7.0912400  26.2161680
  48.0808640   6.4985060  27.6066580  41.9004000  11.0328520  25.7039310
  42.4148670  10.9436530  26.5061740  41.0573080  11.3788220  25.9967220
  43.8758400  11.3183860  15.1323310  43.7159540  11.0286800  16.0305140
  43.7105110  10.5423990  14.5968540  36.3546780  11.0982390  16.9094930
  36.1789260  10.1817930  16.6962730  35.5002520  11.4569680  17.1492730
  43.5784530   8.8271420  13.6921310  42.8849690   8.8248710  13.0323590
  44.3207390   8.4030740  13.2615480  43.1434460  10.4534130  17.7669800
  43.5991410   9.6723510  18.0808420  43.4826980  11.1640950  18.3110980
  30.8937010   6.2250590  24.9260540  31.0568050   5.7555950  24.1079910
  31.3589460   5.7174150  25.5909380  32.4675990   5.6002020  27.0856350
  32.0830780   4.9595690  27.6839310  32.7788180   6.3038140  27.6551080
  38.6173130   2.4478560  22.5664970  38.9843260   1.9737130  23.3126310
  38.4278190   3.3220130  22.9073310  34.9354290   5.6948190  15.4816030
  34.1616550   5.1545810  15.3214750  35.6648920   5.1754800  15.1433790
  45.6942270   4.6913550  21.2742420  46.4141390   5.1868840  20.8838530
  45.4924090   4.0131440  20.6296290  41.0761070   4.7622610  27.1611420
  41.0098380   3.8418280  26.9069010  40.4466210   4.8598050  27.8756060
  34.9791690   5.3628570  19.1194840  35.4970360   4.5596830  19.0651730
  34.5275710   5.3007710  19.9611670  39.8661190   6.6294850  14.3922140
  40.2076890   7.3737080  13.8965460  39.0373900   6.9425970  14.7546970
  35.6649350   2.7874180  28.9160090  35.3649490   2.9331360  28.0187910
  36.4360590   2.2279470  28.8233480  41.0077800   7.5843180  26.9115220
  41.0222340   6.6524140  26.6934130  40.3002900   7.6702940  27.5504990
  46.1414870   1.7683000  13.1813830  46.0578590   2.1997220  12.3310270
  46.8609060   2.2281350  13.6140650  47.2189010   4.2250520  26.2583800
  46.4937200   4.8179300  26.0613190  47.7464470   4.2174060  25.4597170
  47.1702120   8.6225260  15.9095960  46.5278280   7.9680880  16.1839680
  46.7832780   9.0280350  15.1336630  42.7488600   5.9510690  19.7567650
  43.1012420   5.3538820  19.0969020  41.8650930   5.6254920  19.9275900
  38.8351880   6.7108380  17.1638060  39.5223010   7.2577590  17.5445650
  38.0484300   7.2549110  17.1987670  30.9744280   2.3281200  12.6555140
  31.8439130   2.6106000  12.9391060  30.4834600   3.1417070  12.5403950
  38.1379090   3.7154410  16.7763420  38.5941870   4.5259660  17.0023610
  37.7867300   3.3977550  17.6081910  40.4411700   9.2260750  24.0055720
  41.0853920   9.4320130  24.6829140  40.8041140   8.4649150  23.5526570
  41.7143780   7.2293100  22.7233170  42.3566010   6.5286260  22.8365340
  42.2393130   8.0091540  22.5430060  45.5599500   7.5141720  12.4472310
  45.3337080   6.7972160  13.0396950  45.1695700   7.2654160  11.6094060
  43.4881400   8.0288000  25.9269230  43.8237640   8.6154690  26.6047150
  42.5681740   7.8980710  26.1567020  31.3415530  11.5408580  13.2216770
  31.7013170  12.1397920  12.5674040  31.2007870  12.0868470  13.9951800
  45.1415750   5.4313660  14.1086470  44.8537450   5.8926350  14.8964350
  45.9367920   4.9711430  14.3770690  31.3257390   9.8063440  27.6959170
  31.4348510   8.8658180  27.5554560  30.6737950  10.0718190  27.0472900
  39.3169980   8.0779330  29.0957290  38.9966850   7.3588570  29.6402980
  38.6428340   8.7534400  29.1693350  37.3584150   8.9239780  14.0390440
  37.3494250   9.6569470  13.4234950  36.4382510   8.6771360  14.1317400
  32.9590790   4.1454670  14.7837200  32.3518740   4.8853570  14.7932500
  33.4340140   4.2354030  13.9575400  40.3443750   8.9868020  12.7015630
  40.4455730   8.7832010  11.7717610  39.4445490   8.7326300  12.9063410
  38.9861860  11.5054340  17.3963300  39.2403360  11.4675730  16.4742670
  38.0374340  11.3787670  17.3891550  34.9696080   4.1065820  12.5325770
  35.7359350   3.9947180  13.0951200  35.0470770   3.4103790  11.8802540
  46.9940020   9.5955070  20.6476070  47.1187440  10.4186240  21.1199880
  47.8605580   9.3845800  20.3000220  34.4657550  11.6886280  20.3193200
  35.2020030  11.1401740  20.5901770  34.8498470  12.5542290  20.1799190
  31.3503030   7.7559850  16.1934710  30.4242810   7.9980990  16.1840120
  31.8159460   8.5834110  16.0719460  33.4715830  10.8732350  29.5078780
  34.2728560  11.1944400  29.9214180  32.9567650  10.5127930  30.2298690
  37.5759860  10.8616590  12.1418770  38.3688470  11.1505420  11.6900560
  37.0564210  10.4308760  11.4631250  42.3080460   6.9812220  29.4554190
  41.7018620   7.0043820  28.7149940  42.0034570   6.2495260  29.9921440
  43.7380830  10.7092510  28.0663600  44.6902580  10.6250530  28.0163840
  43.5909050  11.3734220  28.7397390  46.6290030  10.0886720  13.5655510
  46.3431540   9.6751860  12.7509690  46.4309580  11.0174430  13.4456030
  31.1913640   3.3605810  28.4514830  31.6952660   2.7813090  29.0231060
  30.4521060   3.6446040  28.9891200  38.0937260   6.0820000  12.0061120
  37.9887900   5.4672350  12.7322500  37.9261480   5.5585890  11.2224130
  38.2451580   4.7676800  27.9850350  37.4797250   5.3361800  27.9005020
  38.4267540   4.4753010  27.0918580  41.3339990   5.1440030  12.6103110
  40.7850090   5.5909330  13.2545850  41.9559250   4.6389280  13.1340780
  45.3874930   6.4982130  28.5425370  46.1284400   6.8357890  28.0392830
  44.6247610   6.6674190  27.9895140  37.0015110   4.1030950  14.5068410
  37.4231530   3.9370820  15.3499800  37.1265950   3.2931180  14.0123550
  39.5142750   3.1268560  11.7545510  40.0348410   2.4117580  11.3886660
  40.1611150   3.7654430  12.0546020  44.0620590   4.5496960  27.0780580
  44.4761610   4.7042040  27.9271000  43.1271590   4.6752180  27.2406360
  38.8235820   4.5017440  25.0476510  39.2423930   5.3450170  24.8752750
  37.9044450   4.6389480  24.8183290  43.4987620   2.7870810  25.0076860
  42.9722840   3.3113430  24.4042000  43.8418960   3.4198200  25.6386590
  36.6743240  10.8070450  26.1634240  36.1364330  11.5316510  25.8442940
  36.9277200  10.3300790  25.3731580  39.5305450  12.0421660  26.4220890
  39.4564150  12.9456800  26.7293260  38.6284290  11.7233560  26.3942960
  40.0790780  11.2080170  14.0447250  40.9741570  11.5465140  14.0666010
  40.1108410  10.4859580  13.4171530  33.7186940   6.5807220  12.2734250
  34.1561810   7.1236890  12.9291830  34.2034670   5.7554170  12.2830590
  30.9332740   9.3696250  19.7254510  31.2635750   8.5017310  19.4933150
  31.3623740   9.5754770  20.5559470  35.5294660   7.7005260  17.3856480
  35.2290200   7.5770230  18.2860390  35.4232150   6.8413850  16.9772210
  31.4222950  10.2366840  22.4636140  30.9853940  10.4167640  23.2960290
  31.9900630  10.9941460  22.3217860  47.0585130   9.7383840  26.7513450
  46.4587120   9.7976400  26.0077370  47.1879030   8.7988820  26.8810300
  48.2986580   7.4801660  12.0883160  47.4679540   7.5478310  12.5590390
  48.4758410   8.3705780  11.7850020  47.7543040   4.2249140  14.5917360
  48.5161950   4.7945790  14.6977050  47.7697410   3.6576340  15.3625670
  31.2547380   2.7487070  18.8225020  30.5996220   2.4798710  18.1784720
  32.0925330   2.6391550  18.3727000  48.7603010   5.0799240  19.4359290
  49.1311840   4.2966560  19.0295260  49.4004940   5.7688340  19.2576590
  45.7436770   6.4635820  24.8489610  44.9296610   6.8932980  25.1115400
  46.1510970   7.0754230  24.2358660  47.8062210   4.5183510  11.7489880
  48.0811050   5.4262390  11.6209100  47.6172950   4.4546040  12.6851870
  47.7027550   2.4552500  16.7419310  47.3271150   1.6880430  16.3100600
  46.9730670   2.8375200  17.2294240  32.2923310   3.1339640  23.3628360
  32.6596350   3.0467040  24.2424380  31.7234130   2.3706190  23.2635220
  45.8012820  11.2154420  18.3757880  46.3971890  10.8938990  17.6992300
  46.0590970  10.7426240  19.1671150  33.7075390   7.6472330  28.5248510
  33.6645020   7.2765240  29.4062970  33.8386400   8.5849900  28.6650330
  37.4081420   9.2031920  24.1258230  37.1672780   9.4706480  23.2388750
  38.3484060   9.3737650  24.1809090  48.6685580  11.2226300  24.9268870
  48.1743860  11.6195170  24.2096000  48.0598870  10.5975510  25.3206150
  33.5463420  10.5934580  25.6446290  32.9523740  10.4619280  26.3836330
  33.5387260   9.7572720  25.1788390  46.3525030  11.8649720  22.2055610
  45.8928000  12.6165530  21.8313630  45.7237490  11.1456190  22.1470410
  33.1775650   7.9592960  24.5954330  32.4509710   7.3398250  24.5280280
  33.2384800   8.3533570  23.7252410  36.7820750  10.1737960  21.3803740
  37.2985770   9.5625320  20.8552000  37.4318130  10.6766740  21.8714750
  39.5216250  11.0646450  22.2072720  39.8094060  10.8100750  21.3305730
  40.0339470  10.5123810  22.7978290  31.4605650  11.2767350  17.8051090
  31.2927690  10.6438030  18.5032980  30.5940160  11.4826750  17.4545280
  33.0668350   9.9700580  15.2501230  32.5415970  10.3508610  14.5463190
  32.9912930  10.5951350  15.9710940  39.5888610  11.9862550  29.5740920
  40.5155920  11.7506820  29.6176880  39.5739040  12.8134550  29.0926950
  47.8233670  11.5288120  16.5715170  47.9985860  10.8425860  15.9276090
  47.1255240  12.0535170  16.1791840  35.6661320  11.9182960  14.1250480
  36.3980140  11.6342240  13.5774370  35.9254990  11.6796240  15.0149860
  34.8276110   8.0347690  14.1296810  34.1984990   8.5032790  14.6782640
  34.9423940   7.1896910  14.5643000  46.1566170  11.2132410  29.3981960
  46.9491490  10.7181640  29.1907920  46.4499320  11.8922550  30.0057570
  40.4143870   3.8632370   2.1607280  39.6385970   3.3832810   2.4505850
  41.0656800   3.1838020   1.9863440  34.4309700   4.1752180   3.0383040
  33.5994580   3.9200890   3.4379550  35.0390680   4.2462950   3.7740960
  34.4110960   8.2092270   3.2341060  34.7139000   7.3190010   3.0551280
  35.1554550   8.7662490   3.0063310  39.8552860   6.5389560   2.1677440
  39.7861140   5.5979500   2.0066570  40.6172720   6.6290970   2.7400010
  36.3909720   4.9665680   4.6325910  36.0579100   5.5934600   5.2746980
  36.5676400   5.4927560   3.8527580  35.6028820   6.9346480   6.4475090
  36.2202820   7.6097560   6.1659540  34.7421940   7.3434460   6.3562590
  46.5206410   8.3985890   4.3629730  45.8369930   9.0685000   4.3546400
  47.0600700   8.5966540   3.5974590  44.0565150  10.2430020   3.0774910
  44.0692310   9.8392310   2.2097170  43.5040370  11.0177310   2.9736340
  43.4550590   5.1459860   4.4057520  43.8719380   4.9319970   3.5710980
  44.1790410   5.4032650   4.9766140  47.4012690   3.5447080   4.4973760
  46.5731320   3.6140170   4.0223890  47.9963170   4.1301390   4.0289590
  36.9669190   6.8043860   2.4686510  36.6697480   6.1989330   1.7894290
  37.9169010   6.8421170   2.3575870  45.0554800  10.3775730   6.1309610
  44.5785360  11.1847920   5.9382220  44.3716590   9.7254060   6.2835820
  36.0587620   6.5425550   9.1194310  35.1616150   6.7665520   9.3667710
  36.0840490   6.6660490   8.1705710  34.8858840   3.4138870   7.6951680
  34.7466610   4.2861670   8.0639080  34.0040200   3.0711680   7.5499620
  36.6839190   9.3560570   9.9036830  36.6554620   9.7603520   9.0365260
  36.5204160   8.4270930   9.7408430  48.6354010  10.1387670  11.2001000
  49.1113730  10.6170560  11.8790080  49.2561170  10.0705160  10.4746500
  30.8377490   5.1836420   3.6122590  30.9157910   5.3185190   2.6678310
  31.4519170   4.4752310   3.8050710  48.0387260   7.3300520   8.3601010
  48.1650320   7.0912400   7.4418190  48.0808640   6.4985060   8.8323090
  41.9004000  11.0328520   6.9295820  42.4148670  10.9436530   7.7318250
  41.0573080  11.3788220   7.2223730  30.8937010   6.2250590   6.1517050
  31.0568050   5.7555950   5.3336420  31.3589460   5.7174150   6.8165890
  32.4675990   5.6002020   8.3112860  32.0830780   4.9595690   8.9095820
  32.7788180   6.3038140   8.8807590  38.6173130   2.4478560   3.7921480
  38.9843260   1.9737130   4.5382820  38.4278190   3.3220130   4.1329820
  45.6942270   4.6913550   2.4998930  46.4141390   5.1868840   2.1095040
  45.4924090   4.0131440   1.8552800  41.0761070   4.7622610   8.3867930
  41.0098380   3.8418280   8.1325520  40.4466210   4.8598050   9.1012570
  35.6649350   2.7874180  10.1416600  35.3649490   2.9331360   9.2444420
  36.4360590   2.2279470  10.0489990  41.0077800   7.5843180   8.1371730
  41.0222340   6.6524140   7.9190640  40.3002900   7.6702940   8.7761500
  47.2189010   4.2250520   7.4840310  46.4937200   4.8179300   7.2869700
  47.7464470   4.2174060   6.6853680  40.4411700   9.2260750   5.2312230
  41.0853920   9.4320130   5.9085650  40.8041140   8.4649150   4.7783080
  41.7143780   7.2293100   3.9489680  42.3566010   6.5286260   4.0621850
  42.2393130   8.0091540   3.7686570  43.4881400   8.0288000   7.1525740
  43.8237640   8.6154690   7.8303660  42.5681740   7.8980710   7.3823530
  31.3257390   9.8063440   8.9215680  31.4348510   8.8658180   8.7811070
  30.6737950  10.0718190   8.2729410  39.3169980   8.0779330  10.3213800
  38.9966850   7.3588570  10.8659490  38.6428340   8.7534400  10.3949860
  33.4715830  10.8732350  10.7335290  34.2728560  11.1944400  11.1470690
  32.9567650  10.5127930  11.4555200  42.3080460   6.9812220  10.6810700
  41.7018620   7.0043820   9.9406450  42.0034570   6.2495260  11.2177950
  43.7380830  10.7092510   9.2920110  44.6902580  10.6250530   9.2420350
  43.5909050  11.3734220   9.9653900  31.1913640   3.3605810   9.6771340
  31.6952660   2.7813090  10.2487570  30.4521060   3.6446040  10.2147710
  38.2451580   4.7676800   9.2106860  37.4797250   5.3361800   9.1261530
  38.4267540   4.4753010   8.3175090  45.3874930   6.4982130   9.7681880
  46.1284400   6.8357890   9.2649340  44.6247610   6.6674190   9.2151650
  44.0620590   4.5496960   8.3037090  44.4761610   4.7042040   9.1527510
  43.1271590   4.6752180   8.4662870  38.8235820   4.5017440   6.2733020
  39.2423930   5.3450170   6.1009260  37.9044450   4.6389480   6.0439800
  43.4987620   2.7870810   6.2333370  42.9722840   3.3113430   5.6298510
  43.8418960   3.4198200   6.8643100  36.6743240  10.8070450   7.3890750
  36.1364330  11.5316510   7.0699450  36.9277200  10.3300790   6.5988090
  39.5305450  12.0421660   7.6477400  39.4564150  12.9456800   7.9549770
  38.6284290  11.7233560   7.6199470  31.4222950  10.2366840   3.6892650
  30.9853940  10.4167640   4.5216800  31.9900630  10.9941460   3.5474370
  47.0585130   9.7383840   7.9769960  46.4587120   9.7976400   7.2333880
  47.1879030   8.7988820   8.1066810  45.7436770   6.4635820   6.0746120
  44.9296610   6.8932980   6.3371910  46.1510970   7.0754230   5.4615170
  32.2923310   3.1339640   4.5884870  32.6596350   3.0467040   5.4680890
  31.7234130   2.3706190   4.4891730  33.7075390   7.6472330   9.7505020
  33.6645020   7.2765240  10.6319480  33.8386400   8.5849900   9.8906840
  37.4081420   9.2031920   5.3514740  37.1672780   9.4706480   4.4645260
  38.3484060   9.3737650   5.4065600  48.6685580  11.2226300   6.1525380
  48.1743860  11.6195170   5.4352510  48.0598870  10.5975510   6.5462660
  33.5463420  10.5934580   6.8702800  32.9523740  10.4619280   7.6092840
  33.5387260   9.7572720   6.4044900  46.3525030  11.8649720   3.4312120
  45.8928000  12.6165530   3.0570140  45.7237490  11.1456190   3.3726920
  33.1775650   7.9592960   5.8210840  32.4509710   7.3398250   5.7536790
  33.2384800   8.3533570   4.9508920  36.7820750  10.1737960   2.6060250
  37.2985770   9.5625320   2.0808510  37.4318130  10.6766740   3.0971260
  39.5216250  11.0646450   3.4329230  39.8094060  10.8100750   2.5562240
  40.0339470  10.5123810   4.0234800  39.5888610  11.9862550  10.7997430
  40.5155920  11.7506820  10.8433390  39.5739040  12.8134550  10.3183460
  46.1566170  11.2132410  10.6238470  46.9491490  10.7181640  10.4164430
  46.4499320  11.8922550  11.2314080  23.5082340 152.2801270 150.4745930
  23.4276390 151.3655880 150.2037640  23.0946760 152.7768340 149.7685640
  14.0658160 149.3301990 147.0173350  13.1774860 149.6717960 146.9153230
  14.3499350 149.1302310 146.1254180  16.2419550 147.9133490 148.0511730
  16.3486300 148.8137220 148.3580490  15.3311910 147.8651460 147.7606380
  25.8938660 147.0358300 149.5222630  26.7148280 146.5454870 149.5648110
  25.9272740 147.6255960 150.2754470  19.7306600 144.7210650 150.9815370
  20.0381580 144.1657540 150.2650870  18.8007300 144.8555110 150.7988360
  22.1187360 152.7859480 147.7175490  21.1916640 152.7196860 147.9463960
  22.2712180 153.7239610 147.6030730  22.1056440 149.0576480 144.7142650
  21.1660110 149.2190440 144.7995110  22.4239700 149.7762160 144.1678640
  17.7244000 153.3124220 150.4995220  17.3201000 152.6001470 150.0041120
  17.8107120 152.9677460 151.3883260  24.3249350 153.5866590 145.2283490
  24.7642630 152.7489020 145.0821310  25.0377770 154.2195990 145.3147630
  27.9066490 144.8409400 143.5424530  27.5939150 144.9336230 144.4423600
  28.6678960 145.4190430 143.4921960  14.4248630 152.2069200 148.0001870
  14.3046230 152.9331290 147.3883140  14.1149520 151.4372110 147.5229780
  16.8912290 145.5504270 151.3825540  16.4480440 146.3313810 151.0510060
  17.4497280 145.8734160 152.0896480  20.0071110 145.1714970 146.2631370
  19.3825290 145.1674840 146.9884680  19.9201230 144.3045930 145.8667340
  16.6826510 150.6737840 149.1106790  16.4567430 150.4575010 150.0153410
  15.9019040 151.1066300 148.7652760  23.9124270 150.6801210 147.7097440
  23.3133160 151.4037010 147.5261060  24.4603880 150.6177990 146.9273890
  22.5189140 149.3164750 149.7400720  22.9118710 149.6336950 148.9269410
  22.8805990 148.4376630 149.8545240  11.7423540 149.8485670 143.1733640
  11.6598210 150.7916430 143.3148630  11.3906600 149.7060580 142.2945990
  19.5421670 148.5824700 152.2403990  19.5457730 148.1414650 151.3908530
  20.4372790 148.9042030 152.3475810  15.3924050 148.4651190 151.1998200
  15.0524100 148.9426420 151.9565250  14.6301370 148.0116310 150.8399300
  19.6041820 149.5836780 145.2310750  19.7254640 149.5423260 146.1796570
  19.2190330 150.4460930 145.0757480  18.6163320 151.8937920 144.6294050
  18.0480220 151.4456170 144.0029960  19.3252320 152.2530700 144.0959200
  12.7070130 147.3870170 150.1162870  12.4217050 147.0225840 150.9541490
  12.6448990 146.6550630 149.5026010  22.3808720 146.2799430 146.8376240
  21.5673330 145.7812600 146.7621550  22.1870670 147.1197680 146.4212590
  25.0957110 150.6519080 145.1338400  25.9836730 150.9636310 144.9589740
  25.0662200 149.7791330 144.7418980  27.3671380 151.9630920 144.6018260
  27.2835100 152.3945140 143.7514700  28.0865570 152.4229270 145.0345080
  12.2000790 152.5229120 144.0759570  13.0695640 152.8053920 144.3595490
  11.7091110 153.3364990 143.9608380  15.2647380 144.2539980 148.6690370
  15.1362010 144.2457880 149.6175290  14.4409400 144.5923070 148.3181380
  27.1242120 147.4610350 146.6886080  26.4955280 147.5656020 145.9744310
  26.6294040 147.6807130 147.4779960  19.0926150 149.7396300 148.1043960
  18.3842300 150.2082640 148.5457570  19.3770630 149.0818310 148.7389150
  23.1241580 146.4646960 149.5439750  23.0009360 146.4833090 148.5949260
  24.0726140 146.5125900 149.6638150  17.2961170 148.0481380 145.4794670
  18.1451700 148.4851530 145.4134860  16.9292440 148.3601640 146.3066730
  26.2170950 152.6194140 150.3926240  25.2761090 152.6344370 150.5673930
  26.5315020 151.8330100 150.8386540  16.1952590 154.3013740 143.9530200
  16.9615860 154.1895100 144.5155630  16.2727280 153.6051710 143.3006970
  14.8899350 151.7338810 144.6363090  14.9702940 150.7866320 144.7480490
  15.7819100 152.0645690 144.7423750  18.2271620 154.2978870 145.9272840
  18.6488040 154.1318740 146.7704230  18.3522460 153.4879100 145.4327980
  20.7399260 153.3216480 143.1749940  21.2604920 152.6065500 142.8091090
  21.3867660 153.9602350 143.4750450  17.1230520 150.3712100 142.8731000
  16.9219580 149.5079460 143.2344340  16.9522570 150.2845460 141.9352600
  24.6018830 145.1820330 145.4017880  24.8821120 144.3388230 145.7577300
  23.8284560 145.4143440 145.9156630  15.9213320 147.4712720 142.8608880
  16.2239220 147.4780150 141.9528030  16.6607910 147.1210580 143.3576540
  19.1398250 146.4147340 143.8465080  18.7920250 145.7371330 143.2667530
  19.3411020 145.9536850 144.6608470  12.4803890 152.9434990 150.2429450
  11.8252730 152.6746630 149.5989150  13.3181840 152.8339470 149.7931430
  25.4294330 147.7376280 144.4647940  25.8479210 147.5507260 143.6244600
  25.1230390 146.8855330 144.7750870  28.9284060 152.6500420 148.1623740
  28.5527660 151.8828350 147.7305030  28.1987180 153.0323120 148.6498670
  11.6941970 150.1533920 146.1854780  10.7906050 150.4164120 146.0106440
  12.1782590 150.4245090 145.4054740  28.2035020 150.8757910 151.4630980
  28.7272500 150.3820560 150.8321150  28.7894440 151.0108270 152.2078550
  14.2369180 149.2099460 144.0949160  14.9460880 148.7882680 143.6096440
  13.5209120 149.2774690 143.4632510  13.8843340 145.2638790 143.1351810
  14.6071470 145.8047730 143.4533030  14.1567860 144.9902210 142.2593350
  27.6934990 150.1331260 147.4023390  28.1894110 149.9002130 148.1872270
  27.4951060 149.2943100 146.9861030  29.1222150 148.7692210 149.9361070
  29.0121430 148.6148250 150.8743340  29.8829740 148.2413150 149.6936480
  30.0112420 146.6000130 143.1767210  30.9361730 146.4681310 142.9685500
  29.9888210 146.6792950 144.1303660  30.0850910 147.3710790 145.8023920
  29.2902410 147.3055910 146.3316830  30.2894190 148.3061430 145.7909270
  26.5170840 145.7007670 152.2522750  26.9578930 145.6452770 151.4044350
  26.2478430 146.6165680 152.3232930  28.3809410 145.3322910 150.2631570
  28.3197810 144.3884130 150.1162590  29.1601440 145.4403000 150.8085030
  13.3090180 145.3032050 146.7287380  14.0669540 145.4160930 146.1551410
  12.8467350 146.1401250 146.6830810  19.8503990 147.4171320 149.7189690
  19.0378500 147.0428210 149.3785570  20.3545630 146.6616400 150.0210880
  24.3528970 144.0813770 150.9572760  24.9558340 144.6533980 151.4321280
  23.6121960 144.6453210 150.7346660  27.4963570 144.4835330 146.2313040
  27.6914200 145.3818780 146.4980470  26.7093440 144.2522410 146.7245990
  15.6815330 145.8296100 145.2689350  16.2108090 145.0425900 145.1397300
  16.3143650 146.5087290 145.5024880  17.8753170 145.5671240 148.3234740
  17.2455910 144.8658550 148.4904870  17.3358310 146.3275370 148.1067900
  23.5082340 152.2801270 131.7002440  23.4276390 151.3655880 131.4294150
  23.0946760 152.7768340 130.9942150  21.6400380 154.0580290 133.5811710
  20.8642480 153.5780730 133.8710280  22.2913310 153.3785940 133.4067870
  14.0658160 149.3301990 128.2429860  13.1774860 149.6717960 128.1409740
  14.3499350 149.1302310 127.3510690  12.0291170 151.9307640 134.1269560
  12.6007280 151.1629840 134.1273200  12.0292710 152.2296400 133.2176170
  13.2716040 147.3392000 135.9138490  13.0918880 146.4417750 136.1941250
  12.8696120 147.8863870 136.5885440  22.1114540 149.5407860 133.8150800
  22.4879360 148.6679740 133.7024470  22.0134050 149.8766560 132.9241240
  16.2419550 147.9133490 129.2768240  16.3486300 148.8137220 129.5837000
  15.3311910 147.8651460 128.9862890  25.8938660 147.0358300 130.7479140
  26.7148280 146.5454870 130.7904620  25.9272740 147.6255960 131.5010980
  13.8902710 149.8352500 134.5220830  14.5712820 150.0990870 135.1408230
  13.5750760 148.9953370 134.8558840  18.0827280 150.8819860 133.6093420
  18.5905500 151.3800830 134.2498440  18.6140520 150.1055060 133.4332780
  30.1838210 149.0525050 137.3122770  29.4790380 149.4406760 136.7937880
  30.4496130 149.7475340 137.9143700  16.3663380 145.5218420 137.8756840
  16.3681820 146.0390810 137.0702740  15.5367690 145.0448600 137.8526770
  26.1300140 148.9758680 133.5206680  25.4255710 149.2643570 134.1009790
  26.4912300 149.7858790 133.1606240  16.0478710 147.2328380 135.8827290
  16.3895520 148.0770430 135.5881160  15.1094520 147.3812120 135.9992630
  29.1987060 148.4213470 133.9115890  28.2511970 148.4552450 134.0431320
  29.5237050 149.2352420 134.2965250  19.7306600 144.7210650 132.2071880
  20.0381580 144.1657540 131.4907380  18.8007300 144.8555110 132.0244870
  22.1187360 152.7859480 128.9432000  21.1916640 152.7196860 129.1720470
  22.2712180 153.7239610 128.8287240  22.1056440 149.0576480 125.9399160
  21.1660110 149.2190440 126.0251620  22.4239700 149.7762160 125.3935150
  25.5911210 150.5264320 136.8633060  25.1782390 151.3518030 137.1173050
  24.8587160 149.9409360 136.6709420  17.7244000 153.3124220 131.7251730
  17.3201000 152.6001470 131.2297630  17.8107120 152.9677460 132.6139770
  16.4372620 150.0867430 135.5050770  16.9887210 150.1962770 134.7304020
  16.9516130 150.4605030 136.2206000  24.3249350 153.5866590 126.4540000
  24.7642630 152.7489020 126.3077820  25.0377770 154.2195990 126.5404140
  27.9066490 144.8409400 124.7681040  27.5939150 144.9336230 125.6680110
  28.6678960 145.4190430 124.7178470  14.4248630 152.2069200 129.2258380
  14.3046230 152.9331290 128.6139650  14.1149520 151.4372110 128.7486290
  29.1167780 149.5780900 140.7455180  28.5012050 150.0860570 140.2170640
  28.7964200 148.6779230 140.6881120  16.8912290 145.5504270 132.6082050
  16.4480440 146.3313810 132.2766570  17.4497280 145.8734160 133.3152990
  21.1782100 148.4172790 138.2117370  20.7161470 148.6255810 139.0237310
  20.7760210 147.6032140 137.9088040  26.1786610 149.6381740 139.3414030
  25.3280200 149.3387490 139.6623100  26.0188400 149.8823750 138.4297850
  23.2736320 151.1383490 141.4412820  23.5989730 150.3047240 141.1015050
  24.0616650 151.6612010 141.5891150  20.0071110 145.1714970 127.4887880
  19.3825290 145.1674840 128.2141190  19.9201230 144.3045930 127.0923850
  18.9288190 146.0951600 134.4671650  19.2260520 147.0014430 134.3863670
  19.4773750 145.6070380 133.8531220  16.6826510 150.6737840 130.3363300
  16.4567430 150.4575010 131.2409920  15.9019040 151.1066300 129.9909270
  23.9124270 150.6801210 128.9353950  23.3133160 151.4037010 128.7517570
  24.4603880 150.6177990 128.1530400  19.1225720 151.5723420 141.0023570
  19.0269320 150.6318150 140.8523970  19.9657700 151.7938490 140.6071640
  22.5189140 149.3164750 130.9657230  22.9118710 149.6336950 130.1525920
  22.8805990 148.4376630 131.0801750  14.2536260 147.9837090 139.1557350
  13.8599650 148.8312300 139.3630130  13.5654660 147.3463460 139.3465990
  20.8281310 148.0672060 142.2254090  20.1379630 147.8744260 142.8600180
  21.5713610 148.3506700 142.7578390  11.5553310 145.9065550 133.1887430
  11.2666360 146.4768410 133.9012410  12.2999070 145.4270000 133.5518660
  11.7423540 149.8485670 124.3990150  11.6598210 150.7916430 124.5405140
  11.3906600 149.7060580 123.5202500  23.1044280 151.9070500 135.0608010
  22.3725400 152.4157310 135.4098110  22.7068620 151.0900480 134.7596790
  19.5421670 148.5824700 133.4660500  19.5457730 148.1414650 132.6165040
  20.4372790 148.9042030 133.5732320  15.3924050 148.4651190 132.4254710
  15.0524100 148.9426420 133.1821760  14.6301370 148.0116310 132.0655810
  19.6041820 149.5836780 126.4567260  19.7254640 149.5423260 127.4053080
  19.2190330 150.4460930 126.3013990  23.5670190 147.3604180 134.4730950
  23.5842930 147.8112830 135.3172800  23.3185770 146.4609820 134.6864390
  18.6163320 151.8937920 125.8550560  18.0480220 151.4456170 125.2286470
  19.3252320 152.2530700 125.3215710  26.9940940 144.7736360 140.3117330
  27.3186710 144.0426020 140.8375310  27.0297450 144.4550000 139.4098320
  19.8429640 152.6426480 135.2125910  20.2099770 152.1685050 135.9587250
  19.6534700 153.5168050 135.5534250  12.7070130 147.3870170 131.3419380
  12.4217050 147.0225840 132.1798000  12.6448990 146.6550630 130.7282520
  17.6329010 151.6835120 137.5310120  17.3286080 152.5627100 137.7560480
  18.5875470 151.7434910 137.5667560  22.3808720 146.2799430 128.0632750
  21.5673330 145.7812600 127.9878060  22.1870670 147.1197680 127.6469100
  25.0957110 150.6519080 126.3594910  25.9836730 150.9636310 126.1846250
  25.0662200 149.7791330 125.9675490  13.6892740 152.5237860 138.6781480
  13.3307680 153.1891710 139.2654820  13.3947300 151.6921410 139.0494100
  16.8905860 152.9822100 141.5621030  16.5906000 153.1279280 140.6648850
  17.6617100 152.4227390 141.4694420  27.3671380 151.9630920 125.8274770
  27.2835100 152.3945140 124.9771210  28.0865570 152.4229270 126.2601590
  12.2000790 152.5229120 125.3016080  13.0695640 152.8053920 125.5852000
  11.7091110 153.3364990 125.1864890  15.2647380 144.2539980 129.8946880
  15.1362010 144.2457880 130.8431800  14.4409400 144.5923070 129.5437890
  12.2641310 146.0131100 139.3553580  11.5499830 146.2128020 139.9606190
  12.6836350 145.2370670 139.7268380  23.7580090 148.5053410 137.1055030
  24.1260910 147.6848620 137.4334600  22.8978290 148.5655300 137.5210680
  27.1242120 147.4610350 127.9142590  26.4955280 147.5656020 127.2000820
  26.6294040 147.6807130 128.7036470  19.0926150 149.7396300 129.3300470
  18.3842300 150.2082640 129.7714080  19.3770630 149.0818310 129.9645660
  20.7182080 151.1593000 137.3293000  21.2167330 151.6338820 137.9944850
  20.8605030 150.2356520 137.5363030  23.1241580 146.4646960 130.7696260
  23.0009360 146.4833090 129.8205770  24.0726140 146.5125900 130.8894660
  17.2961170 148.0481380 126.7051180  18.1451700 148.4851530 126.6391370
  16.9292440 148.3601640 127.5323240  27.9248940 147.3760960 138.1721390
  27.4222540 148.1166360 138.5115200  28.7405600 147.7644960 137.8558180
  26.2170950 152.6194140 131.6182750  25.2761090 152.6344370 131.7930440
  26.5315020 151.8330100 132.0643050  16.1952590 154.3013740 125.1786710
  16.9615860 154.1895100 125.7412140  16.2727280 153.6051710 124.5263480
  14.8899350 151.7338810 125.8619600  14.9702940 150.7866320 125.9737000
  15.7819100 152.0645690 125.9680260  12.4170150 153.5553730 141.0975770
  12.9209170 152.9761010 141.6692000  11.6777570 153.8393960 141.6352140
  14.4493230 151.6983320 141.9925840  14.4898570 151.3997190 142.9011070
  15.3038730 152.0990930 141.8333360  18.2271620 154.2978870 127.1529350
  18.6488040 154.1318740 127.9960740  18.3522460 153.4879100 126.6584490
  16.3899040 150.2775420 139.9600330  15.8595500 149.7866370 139.3323670
  17.0587110 150.7059620 139.4258260  20.7399260 153.3216480 124.4006450
  21.2604920 152.6065500 124.0347600  21.3867660 153.9602350 124.7006960
  25.7599270 152.0841040 141.7280670  26.3420040 151.3293360 141.6401150
  25.9361040 152.6148480 140.9512150  16.8771340 147.2437790 140.0397620
  16.7828210 146.6258540 139.3148490  16.2968730 147.9704080 139.8127530
  19.6432780 145.8011030 137.0725010  19.1950080 145.8235290 136.2270560
  19.0097980 145.4030050 137.6695310  22.3856230 152.4281540 139.0775290
  22.5052440 151.8322680 139.8170130  23.2450230 152.4651230 138.6576590
  24.7244130 152.9818730 137.6537800  24.1979350 153.5061350 137.0502940
  25.0675470 153.6146120 138.2847530  17.1230520 150.3712100 124.0987510
  16.9219580 149.5079460 124.4600850  16.9522570 150.2845460 123.1609110
  19.1525000 148.9702890 140.3351110  19.7424690 148.6618740 141.0228930
  18.3345240 148.4982640 140.4911010  23.9718430 148.5868700 140.5684130
  23.2833950 147.9250240 140.5034120  24.6924450 148.1406970 141.0132590
  24.6018830 145.1820330 126.6274390  24.8821120 144.3388230 126.9833810
  23.8284560 145.4143440 127.1413140  15.9213320 147.4712720 124.0865390
  16.2239220 147.4780150 123.1784540  16.6607910 147.1210580 124.5833050
  19.1398250 146.4147340 125.0721590  18.7920250 145.7371330 124.4924040
  19.3411020 145.9536850 125.8864980  12.4803890 152.9434990 131.4685960
  11.8252730 152.6746630 130.8245660  13.3181840 152.8339470 131.0187940
  25.4294330 147.7376280 125.6904450  25.8479210 147.5507260 124.8501110
  25.1230390 146.8855330 126.0007380  28.9284060 152.6500420 129.3880250
  28.5527660 151.8828350 128.9561540  28.1987180 153.0323120 129.8755180
  13.5179820 153.3287560 136.0089300  13.8852860 153.2414960 136.8885320
  12.9490640 152.5654110 135.9096160  28.3183680 151.7971940 139.0219770
  28.0869770 151.5684690 138.1217720  28.5788230 152.7171490 138.9764660
  13.0695820 150.2396650 139.9147720  12.1751870 150.2063410 140.2541430
  13.6093370 150.4383440 140.6798970  26.7571750 147.0228370 141.7999470
  27.6341930 147.0311770 142.1833470  26.7692590 146.2859210 141.1891820
  11.6941970 150.1533920 127.4111290  10.7906050 150.4164120 127.2362950
  12.1782590 150.4245090 126.6311250  28.2035020 150.8757910 132.6887490
  28.7272500 150.3820560 132.0577660  28.7894440 151.0108270 133.4335060
  28.3824740 150.9597780 136.2107040  27.4327450 150.9261320 136.3252030
  28.5637750 151.8697890 135.9756810  14.2369180 149.2099460 125.3205670
  14.9460880 148.7882680 124.8352950  13.5209120 149.2774690 124.6889020
  13.8843340 145.2638790 124.3608320  14.6071470 145.8047730 124.6789540
  14.1567860 144.9902210 123.4849860  27.6934990 150.1331260 128.6279900
  28.1894110 149.9002130 129.4128780  27.4951060 149.2943100 128.2117540
  13.5735530 144.5144980 134.2630940  14.2211720 143.9642360 133.8226100
  13.9937370 144.7688130 135.0846750  29.1222150 148.7692210 131.1617580
  29.0121430 148.6148250 132.0999850  29.8829740 148.2413150 130.9192990
  27.4687870 144.7086340 137.6200580  28.1060090 145.3220480 137.9859770
  27.6162760 144.7447000 136.6749810  30.0112420 146.6000130 124.4023720
  30.9361730 146.4681310 124.1942010  29.9888210 146.6792950 125.3560170
  30.0850910 147.3710790 127.0280430  29.2902410 147.3055910 127.5573340
  30.2894190 148.3061430 127.0165780  13.3267530 144.6700650 137.0056260
  12.9782350 145.1264470 137.7714440  12.9955230 143.7757780 137.0878690
  20.8392350 145.8612530 140.5275680  20.7781240 146.4534360 141.2771090
  21.7792730 145.7538490 140.3825940  23.4766910 145.5182590 140.1667970
  24.0907320 145.8361880 139.5049050  24.0216470 145.0331180 140.7863830
  13.9988170 144.1976850 140.2807030  14.5471160 144.0164900 139.5173140
  14.0643480 143.4070960 140.8163340  24.2174950 144.0814730 136.4937260
  23.3434790 144.4149840 136.2910190  24.1085700 143.6087910 137.3189130
  25.1246930 146.2885600 137.8778980  24.7960290 145.4737360 137.4980710
  26.0729230 146.2455410 137.7544670  21.9649770 144.9984570 135.4330170
  21.1821560 145.4730070 135.7126930  21.6712700 144.0939400 135.3243350
  26.5170840 145.7007670 133.4779260  26.9578930 145.6452770 132.6300860
  26.2478430 146.6165680 133.5489440  28.3809410 145.3322910 131.4888080
  28.3197810 144.3884130 131.3419100  29.1601440 145.4403000 132.0341540
  13.3090180 145.3032050 127.9543890  14.0669540 145.4160930 127.3807920
  12.8467350 146.1401250 127.9087320  19.8503990 147.4171320 130.9446200
  19.0378500 147.0428210 130.6042080  20.3545630 146.6616400 131.2467390
  24.3528970 144.0813770 132.1829270  24.9558340 144.6533980 132.6577790
  23.6121960 144.6453210 131.9603170  27.4963570 144.4835330 127.4569550
  27.6914200 145.3818780 127.7236980  26.7093440 144.2522410 127.9502500
  15.6815330 145.8296100 126.4945860  16.2108090 145.0425900 126.3653810
  16.3143650 146.5087290 126.7281390  17.8753170 145.5671240 129.5491250
  17.2455910 144.8658550 129.7161380  17.3358310 146.3275370 129.3324410
  18.0008730 144.8455220 141.9843740  17.7193000 145.3488820 141.2204560
  18.3828430 144.0476970 141.6185870  24.6024190 144.2608800 142.5624210
  24.4889640 144.5803410 143.4575730  25.4193930 144.6621310 142.2661490
  23.5082340 152.2801270 112.9258950  23.4276390 151.3655880 112.6550660
  23.0946760 152.7768340 112.2198660  21.6400380 154.0580290 114.8068220
  20.8642480 153.5780730 115.0966790  22.2913310 153.3785940 114.6324380
  14.0658160 149.3301990 109.4686370  13.1774860 149.6717960 109.3666250
  14.3499350 149.1302310 108.5767200  12.0291170 151.9307640 115.3526070
  12.6007280 151.1629840 115.3529710  12.0292710 152.2296400 114.4432680
  13.2716040 147.3392000 117.1395000  13.0918880 146.4417750 117.4197760
  12.8696120 147.8863870 117.8141950  22.1114540 149.5407860 115.0407310
  22.4879360 148.6679740 114.9280980  22.0134050 149.8766560 114.1497750
  16.2419550 147.9133490 110.5024750  16.3486300 148.8137220 110.8093510
  15.3311910 147.8651460 110.2119400  25.8938660 147.0358300 111.9735650
  26.7148280 146.5454870 112.0161130  25.9272740 147.6255960 112.7267490
  13.8902710 149.8352500 115.7477340  14.5712820 150.0990870 116.3664740
  13.5750760 148.9953370 116.0815350  18.0827280 150.8819860 114.8349930
  18.5905500 151.3800830 115.4754950  18.6140520 150.1055060 114.6589290
  30.1838210 149.0525050 118.5379280  29.4790380 149.4406760 118.0194390
  30.4496130 149.7475340 119.1400210  16.3663380 145.5218420 119.1013350
  16.3681820 146.0390810 118.2959250  15.5367690 145.0448600 119.0783280
  26.1300140 148.9758680 114.7463190  25.4255710 149.2643570 115.3266300
  26.4912300 149.7858790 114.3862750  16.0478710 147.2328380 117.1083800
  16.3895520 148.0770430 116.8137670  15.1094520 147.3812120 117.2249140
  29.1987060 148.4213470 115.1372400  28.2511970 148.4552450 115.2687830
  29.5237050 149.2352420 115.5221760  19.7306600 144.7210650 113.4328390
  20.0381580 144.1657540 112.7163890  18.8007300 144.8555110 113.2501380
  22.1187360 152.7859480 110.1688510  21.1916640 152.7196860 110.3976980
  22.2712180 153.7239610 110.0543750  22.1056440 149.0576480 107.1655670
  21.1660110 149.2190440 107.2508130  22.4239700 149.7762160 106.6191660
  25.5911210 150.5264320 118.0889570  25.1782390 151.3518030 118.3429560
  24.8587160 149.9409360 117.8965930  17.7244000 153.3124220 112.9508240
  17.3201000 152.6001470 112.4554140  17.8107120 152.9677460 113.8396280
  16.4372620 150.0867430 116.7307280  16.9887210 150.1962770 115.9560530
  16.9516130 150.4605030 117.4462510  24.3249350 153.5866590 107.6796510
  24.7642630 152.7489020 107.5334330  25.0377770 154.2195990 107.7660650
  27.9066490 144.8409400 105.9937550  27.5939150 144.9336230 106.8936620
  28.6678960 145.4190430 105.9434980  14.4248630 152.2069200 110.4514890
  14.3046230 152.9331290 109.8396160  14.1149520 151.4372110 109.9742800
  29.1167780 149.5780900 121.9711690  28.5012050 150.0860570 121.4427150
  28.7964200 148.6779230 121.9137630  16.8912290 145.5504270 113.8338560
  16.4480440 146.3313810 113.5023080  17.4497280 145.8734160 114.5409500
  21.1782100 148.4172790 119.4373880  20.7161470 148.6255810 120.2493820
  20.7760210 147.6032140 119.1344550  26.1786610 149.6381740 120.5670540
  25.3280200 149.3387490 120.8879610  26.0188400 149.8823750 119.6554360
  23.2736320 151.1383490 122.6669330  23.5989730 150.3047240 122.3271560
  24.0616650 151.6612010 122.8147660  20.0071110 145.1714970 108.7144390
  19.3825290 145.1674840 109.4397700  19.9201230 144.3045930 108.3180360
  18.9288190 146.0951600 115.6928160  19.2260520 147.0014430 115.6120180
  19.4773750 145.6070380 115.0787730  16.6826510 150.6737840 111.5619810
  16.4567430 150.4575010 112.4666430  15.9019040 151.1066300 111.2165780
  23.9124270 150.6801210 110.1610460  23.3133160 151.4037010 109.9774080
  24.4603880 150.6177990 109.3786910  19.1225720 151.5723420 122.2280080
  19.0269320 150.6318150 122.0780480  19.9657700 151.7938490 121.8328150
  22.5189140 149.3164750 112.1913740  22.9118710 149.6336950 111.3782430
  22.8805990 148.4376630 112.3058260  14.2536260 147.9837090 120.3813860
  13.8599650 148.8312300 120.5886640  13.5654660 147.3463460 120.5722500
  20.8281310 148.0672060 123.4510600  20.1379630 147.8744260 124.0856690
  21.5713610 148.3506700 123.9834900  11.5553310 145.9065550 114.4143940
  11.2666360 146.4768410 115.1268920  12.2999070 145.4270000 114.7775170
  11.7423540 149.8485670 105.6246660  11.6598210 150.7916430 105.7661650
  11.3906600 149.7060580 104.7459010  23.1044280 151.9070500 116.2864520
  22.3725400 152.4157310 116.6354620  22.7068620 151.0900480 115.9853300
  19.5421670 148.5824700 114.6917010  19.5457730 148.1414650 113.8421550
  20.4372790 148.9042030 114.7988830  15.3924050 148.4651190 113.6511220
  15.0524100 148.9426420 114.4078270  14.6301370 148.0116310 113.2912320
  19.6041820 149.5836780 107.6823770  19.7254640 149.5423260 108.6309590
  19.2190330 150.4460930 107.5270500  23.5670190 147.3604180 115.6987460
  23.5842930 147.8112830 116.5429310  23.3185770 146.4609820 115.9120900
  18.6163320 151.8937920 107.0807070  18.0480220 151.4456170 106.4542980
  19.3252320 152.2530700 106.5472220  26.9940940 144.7736360 121.5373840
  27.3186710 144.0426020 122.0631820  27.0297450 144.4550000 120.6354830
  19.8429640 152.6426480 116.4382420  20.2099770 152.1685050 117.1843760
  19.6534700 153.5168050 116.7790760  12.7070130 147.3870170 112.5675890
  12.4217050 147.0225840 113.4054510  12.6448990 146.6550630 111.9539030
  17.6329010 151.6835120 118.7566630  17.3286080 152.5627100 118.9816990
  18.5875470 151.7434910 118.7924070  22.3808720 146.2799430 109.2889260
  21.5673330 145.7812600 109.2134570  22.1870670 147.1197680 108.8725610
  25.0957110 150.6519080 107.5851420  25.9836730 150.9636310 107.4102760
  25.0662200 149.7791330 107.1932000  13.6892740 152.5237860 119.9037990
  13.3307680 153.1891710 120.4911330  13.3947300 151.6921410 120.2750610
  16.8905860 152.9822100 122.7877540  16.5906000 153.1279280 121.8905360
  17.6617100 152.4227390 122.6950930  27.3671380 151.9630920 107.0531280
  27.2835100 152.3945140 106.2027720  28.0865570 152.4229270 107.4858100
  12.2000790 152.5229120 106.5272590  13.0695640 152.8053920 106.8108510
  11.7091110 153.3364990 106.4121400  15.2647380 144.2539980 111.1203390
  15.1362010 144.2457880 112.0688310  14.4409400 144.5923070 110.7694400
  12.2641310 146.0131100 120.5810090  11.5499830 146.2128020 121.1862700
  12.6836350 145.2370670 120.9524890  23.7580090 148.5053410 118.3311540
  24.1260910 147.6848620 118.6591110  22.8978290 148.5655300 118.7467190
  27.1242120 147.4610350 109.1399100  26.4955280 147.5656020 108.4257330
  26.6294040 147.6807130 109.9292980  19.0926150 149.7396300 110.5556980
  18.3842300 150.2082640 110.9970590  19.3770630 149.0818310 111.1902170
  20.7182080 151.1593000 118.5549510  21.2167330 151.6338820 119.2201360
  20.8605030 150.2356520 118.7619540  23.1241580 146.4646960 111.9952770
  23.0009360 146.4833090 111.0462280  24.0726140 146.5125900 112.1151170
  17.2961170 148.0481380 107.9307690  18.1451700 148.4851530 107.8647880
  16.9292440 148.3601640 108.7579750  27.9248940 147.3760960 119.3977900
  27.4222540 148.1166360 119.7371710  28.7405600 147.7644960 119.0814690
  26.2170950 152.6194140 112.8439260  25.2761090 152.6344370 113.0186950
  26.5315020 151.8330100 113.2899560  16.1952590 154.3013740 106.4043220
  16.9615860 154.1895100 106.9668650  16.2727280 153.6051710 105.7519990
  14.8899350 151.7338810 107.0876110  14.9702940 150.7866320 107.1993510
  15.7819100 152.0645690 107.1936770  12.4170150 153.5553730 122.3232280
  12.9209170 152.9761010 122.8948510  11.6777570 153.8393960 122.8608650
  14.4493230 151.6983320 123.2182350  14.4898570 151.3997190 124.1267580
  15.3038730 152.0990930 123.0589870  18.2271620 154.2978870 108.3785860
  18.6488040 154.1318740 109.2217250  18.3522460 153.4879100 107.8841000
  16.3899040 150.2775420 121.1856840  15.8595500 149.7866370 120.5580180
  17.0587110 150.7059620 120.6514770  20.7399260 153.3216480 105.6262960
  21.2604920 152.6065500 105.2604110  21.3867660 153.9602350 105.9263470
  25.7599270 152.0841040 122.9537180  26.3420040 151.3293360 122.8657660
  25.9361040 152.6148480 122.1768660  16.8771340 147.2437790 121.2654130
  16.7828210 146.6258540 120.5405000  16.2968730 147.9704080 121.0384040
  19.6432780 145.8011030 118.2981520  19.1950080 145.8235290 117.4527070
  19.0097980 145.4030050 118.8951820  22.3856230 152.4281540 120.3031800
  22.5052440 151.8322680 121.0426640  23.2450230 152.4651230 119.8833100
  24.7244130 152.9818730 118.8794310  24.1979350 153.5061350 118.2759450
  25.0675470 153.6146120 119.5104040  17.1230520 150.3712100 105.3244020
  16.9219580 149.5079460 105.6857360  16.9522570 150.2845460 104.3865620
  19.1525000 148.9702890 121.5607620  19.7424690 148.6618740 122.2485440
  18.3345240 148.4982640 121.7167520  23.9718430 148.5868700 121.7940640
  23.2833950 147.9250240 121.7290630  24.6924450 148.1406970 122.2389100
  24.6018830 145.1820330 107.8530900  24.8821120 144.3388230 108.2090320
  23.8284560 145.4143440 108.3669650  15.9213320 147.4712720 105.3121900
  16.2239220 147.4780150 104.4041050  16.6607910 147.1210580 105.8089560
  19.1398250 146.4147340 106.2978100  18.7920250 145.7371330 105.7180550
  19.3411020 145.9536850 107.1121490  12.4803890 152.9434990 112.6942470
  11.8252730 152.6746630 112.0502170  13.3181840 152.8339470 112.2444450
  25.4294330 147.7376280 106.9160960  25.8479210 147.5507260 106.0757620
  25.1230390 146.8855330 107.2263890  28.9284060 152.6500420 110.6136760
  28.5527660 151.8828350 110.1818050  28.1987180 153.0323120 111.1011690
  13.5179820 153.3287560 117.2345810  13.8852860 153.2414960 118.1141830
  12.9490640 152.5654110 117.1352670  28.3183680 151.7971940 120.2476280
  28.0869770 151.5684690 119.3474230  28.5788230 152.7171490 120.2021170
  13.0695820 150.2396650 121.1404230  12.1751870 150.2063410 121.4797940
  13.6093370 150.4383440 121.9055480  26.7571750 147.0228370 123.0255980
  27.6341930 147.0311770 123.4089980  26.7692590 146.2859210 122.4148330
  11.6941970 150.1533920 108.6367800  10.7906050 150.4164120 108.4619460
  12.1782590 150.4245090 107.8567760  28.2035020 150.8757910 113.9144000
  28.7272500 150.3820560 113.2834170  28.7894440 151.0108270 114.6591570
  28.3824740 150.9597780 117.4363550  27.4327450 150.9261320 117.5508540
  28.5637750 151.8697890 117.2013320  14.2369180 149.2099460 106.5462180
  14.9460880 148.7882680 106.0609460  13.5209120 149.2774690 105.9145530
  13.8843340 145.2638790 105.5864830  14.6071470 145.8047730 105.9046050
  14.1567860 144.9902210 104.7106370  27.6934990 150.1331260 109.8536410
  28.1894110 149.9002130 110.6385290  27.4951060 149.2943100 109.4374050
  13.5735530 144.5144980 115.4887450  14.2211720 143.9642360 115.0482610
  13.9937370 144.7688130 116.3103260  29.1222150 148.7692210 112.3874090
  29.0121430 148.6148250 113.3256360  29.8829740 148.2413150 112.1449500
  27.4687870 144.7086340 118.8457090  28.1060090 145.3220480 119.2116280
  27.6162760 144.7447000 117.9006320  30.0112420 146.6000130 105.6280230
  30.9361730 146.4681310 105.4198520  29.9888210 146.6792950 106.5816680
  30.0850910 147.3710790 108.2536940  29.2902410 147.3055910 108.7829850
  30.2894190 148.3061430 108.2422290  13.3267530 144.6700650 118.2312770
  12.9782350 145.1264470 118.9970950  12.9955230 143.7757780 118.3135200
  20.8392350 145.8612530 121.7532190  20.7781240 146.4534360 122.5027600
  21.7792730 145.7538490 121.6082450  23.4766910 145.5182590 121.3924480
  24.0907320 145.8361880 120.7305560  24.0216470 145.0331180 122.0120340
  13.9988170 144.1976850 121.5063540  14.5471160 144.0164900 120.7429650
  14.0643480 143.4070960 122.0419850  24.2174950 144.0814730 117.7193770
  23.3434790 144.4149840 117.5166700  24.1085700 143.6087910 118.5445640
  25.1246930 146.2885600 119.1035490  24.7960290 145.4737360 118.7237220
  26.0729230 146.2455410 118.9801180  21.9649770 144.9984570 116.6586680
  21.1821560 145.4730070 116.9383440  21.6712700 144.0939400 116.5499860
  26.5170840 145.7007670 114.7035770  26.9578930 145.6452770 113.8557370
  26.2478430 146.6165680 114.7745950  28.3809410 145.3322910 112.7144590
  28.3197810 144.3884130 112.5675610  29.1601440 145.4403000 113.2598050
  13.3090180 145.3032050 109.1800400  14.0669540 145.4160930 108.6064430
  12.8467350 146.1401250 109.1343830  19.8503990 147.4171320 112.1702710
  19.0378500 147.0428210 111.8298590  20.3545630 146.6616400 112.4723900
  24.3528970 144.0813770 113.4085780  24.9558340 144.6533980 113.8834300
  23.6121960 144.6453210 113.1859680  27.4963570 144.4835330 108.6826060
  27.6914200 145.3818780 108.9493490  26.7093440 144.2522410 109.1759010
  15.6815330 145.8296100 107.7202370  16.2108090 145.0425900 107.5910320
  16.3143650 146.5087290 107.9537900  17.8753170 145.5671240 110.7747760
  17.2455910 144.8658550 110.9417890  17.3358310 146.3275370 110.5580920
  18.0008730 144.8455220 123.2100250  17.7193000 145.3488820 122.4461070
  18.3828430 144.0476970 122.8442380  24.6024190 144.2608800 123.7880720
  24.4889640 144.5803410 124.6832240  25.4193930 144.6621310 123.4918000
  23.5082340 152.2801270  94.1515460  23.4276390 151.3655880  93.8807170
  23.0946760 152.7768340  93.4455170  21.6400380 154.0580290  96.0324730
  20.8642480 153.5780730  96.3223300  22.2913310 153.3785940  95.8580890
  14.0658160 149.3301990  90.6942880  13.1774860 149.6717960  90.5922760
  14.3499350 149.1302310  89.8023710  12.0291170 151.9307640  96.5782580
  12.6007280 151.1629840  96.5786220  12.0292710 152.2296400  95.6689190
  13.2716040 147.3392000  98.3651510  13.0918880 146.4417750  98.6454270
  12.8696120 147.8863870  99.0398460  22.1114540 149.5407860  96.2663820
  22.4879360 148.6679740  96.1537490  22.0134050 149.8766560  95.3754260
  16.2419550 147.9133490  91.7281260  16.3486300 148.8137220  92.0350020
  15.3311910 147.8651460  91.4375910  25.8938660 147.0358300  93.1992160
  26.7148280 146.5454870  93.2417640  25.9272740 147.6255960  93.9524000
  13.8902710 149.8352500  96.9733850  14.5712820 150.0990870  97.5921250
  13.5750760 148.9953370  97.3071860  18.0827280 150.8819860  96.0606440
  18.5905500 151.3800830  96.7011460  18.6140520 150.1055060  95.8845800
  30.1838210 149.0525050  99.7635790  29.4790380 149.4406760  99.2450900
  30.4496130 149.7475340 100.3656720  16.3663380 145.5218420 100.3269860
  16.3681820 146.0390810  99.5215760  15.5367690 145.0448600 100.3039790
  26.1300140 148.9758680  95.9719700  25.4255710 149.2643570  96.5522810
  26.4912300 149.7858790  95.6119260  16.0478710 147.2328380  98.3340310
  16.3895520 148.0770430  98.0394180  15.1094520 147.3812120  98.4505650
  29.1987060 148.4213470  96.3628910  28.2511970 148.4552450  96.4944340
  29.5237050 149.2352420  96.7478270  19.7306600 144.7210650  94.6584900
  20.0381580 144.1657540  93.9420400  18.8007300 144.8555110  94.4757890
  22.1187360 152.7859480  91.3945020  21.1916640 152.7196860  91.6233490
  22.2712180 153.7239610  91.2800260  22.1056440 149.0576480  88.3912180
  21.1660110 149.2190440  88.4764640  22.4239700 149.7762160  87.8448170
  25.5911210 150.5264320  99.3146080  25.1782390 151.3518030  99.5686070
  24.8587160 149.9409360  99.1222440  17.7244000 153.3124220  94.1764750
  17.3201000 152.6001470  93.6810650  17.8107120 152.9677460  95.0652790
  16.4372620 150.0867430  97.9563790  16.9887210 150.1962770  97.1817040
  16.9516130 150.4605030  98.6719020  24.3249350 153.5866590  88.9053020
  24.7642630 152.7489020  88.7590840  25.0377770 154.2195990  88.9917160
  27.9066490 144.8409400  87.2194060  27.5939150 144.9336230  88.1193130
  28.6678960 145.4190430  87.1691490  14.4248630 152.2069200  91.6771400
  14.3046230 152.9331290  91.0652670  14.1149520 151.4372110  91.1999310
  29.1167780 149.5780900 103.1968200  28.5012050 150.0860570 102.6683660
  28.7964200 148.6779230 103.1394140  16.8912290 145.5504270  95.0595070
  16.4480440 146.3313810  94.7279590  17.4497280 145.8734160  95.7666010
  21.1782100 148.4172790 100.6630390  20.7161470 148.6255810 101.4750330
  20.7760210 147.6032140 100.3601060  26.1786610 149.6381740 101.7927050
  25.3280200 149.3387490 102.1136120  26.0188400 149.8823750 100.8810870
  23.2736320 151.1383490 103.8925840  23.5989730 150.3047240 103.5528070
  24.0616650 151.6612010 104.0404170  20.0071110 145.1714970  89.9400900
  19.3825290 145.1674840  90.6654210  19.9201230 144.3045930  89.5436870
  18.9288190 146.0951600  96.9184670  19.2260520 147.0014430  96.8376690
  19.4773750 145.6070380  96.3044240  16.6826510 150.6737840  92.7876320
  16.4567430 150.4575010  93.6922940  15.9019040 151.1066300  92.4422290
  23.9124270 150.6801210  91.3866970  23.3133160 151.4037010  91.2030590
  24.4603880 150.6177990  90.6043420  19.1225720 151.5723420 103.4536590
  19.0269320 150.6318150 103.3036990  19.9657700 151.7938490 103.0584660
  22.5189140 149.3164750  93.4170250  22.9118710 149.6336950  92.6038940
  22.8805990 148.4376630  93.5314770  14.2536260 147.9837090 101.6070370
  13.8599650 148.8312300 101.8143150  13.5654660 147.3463460 101.7979010
  20.8281310 148.0672060 104.6767110  20.1379630 147.8744260 105.3113200
  21.5713610 148.3506700 105.2091410  11.5553310 145.9065550  95.6400450
  11.2666360 146.4768410  96.3525430  12.2999070 145.4270000  96.0031680
  11.7423540 149.8485670  86.8503170  11.6598210 150.7916430  86.9918160
  11.3906600 149.7060580  85.9715520  23.1044280 151.9070500  97.5121030
  22.3725400 152.4157310  97.8611130  22.7068620 151.0900480  97.2109810
  19.5421670 148.5824700  95.9173520  19.5457730 148.1414650  95.0678060
  20.4372790 148.9042030  96.0245340  15.3924050 148.4651190  94.8767730
  15.0524100 148.9426420  95.6334780  14.6301370 148.0116310  94.5168830
  19.6041820 149.5836780  88.9080280  19.7254640 149.5423260  89.8566100
  19.2190330 150.4460930  88.7527010  23.5670190 147.3604180  96.9243970
  23.5842930 147.8112830  97.7685820  23.3185770 146.4609820  97.1377410
  18.6163320 151.8937920  88.3063580  18.0480220 151.4456170  87.6799490
  19.3252320 152.2530700  87.7728730  26.9940940 144.7736360 102.7630350
  27.3186710 144.0426020 103.2888330  27.0297450 144.4550000 101.8611340
  19.8429640 152.6426480  97.6638930  20.2099770 152.1685050  98.4100270
  19.6534700 153.5168050  98.0047270  12.7070130 147.3870170  93.7932400
  12.4217050 147.0225840  94.6311020  12.6448990 146.6550630  93.1795540
  17.6329010 151.6835120  99.9823140  17.3286080 152.5627100 100.2073500
  18.5875470 151.7434910 100.0180580  22.3808720 146.2799430  90.5145770
  21.5673330 145.7812600  90.4391080  22.1870670 147.1197680  90.0982120
  25.0957110 150.6519080  88.8107930  25.9836730 150.9636310  88.6359270
  25.0662200 149.7791330  88.4188510  13.6892740 152.5237860 101.1294500
  13.3307680 153.1891710 101.7167840  13.3947300 151.6921410 101.5007120
  16.8905860 152.9822100 104.0134050  16.5906000 153.1279280 103.1161870
  17.6617100 152.4227390 103.9207440  27.3671380 151.9630920  88.2787790
  27.2835100 152.3945140  87.4284230  28.0865570 152.4229270  88.7114610
  12.2000790 152.5229120  87.7529100  13.0695640 152.8053920  88.0365020
  11.7091110 153.3364990  87.6377910  15.2647380 144.2539980  92.3459900
  15.1362010 144.2457880  93.2944820  14.4409400 144.5923070  91.9950910
  12.2641310 146.0131100 101.8066600  11.5499830 146.2128020 102.4119210
  12.6836350 145.2370670 102.1781400  23.7580090 148.5053410  99.5568050
  24.1260910 147.6848620  99.8847620  22.8978290 148.5655300  99.9723700
  27.1242120 147.4610350  90.3655610  26.4955280 147.5656020  89.6513840
  26.6294040 147.6807130  91.1549490  19.0926150 149.7396300  91.7813490
  18.3842300 150.2082640  92.2227100  19.3770630 149.0818310  92.4158680
  20.7182080 151.1593000  99.7806020  21.2167330 151.6338820 100.4457870
  20.8605030 150.2356520  99.9876050  23.1241580 146.4646960  93.2209280
  23.0009360 146.4833090  92.2718790  24.0726140 146.5125900  93.3407680
  17.2961170 148.0481380  89.1564200  18.1451700 148.4851530  89.0904390
  16.9292440 148.3601640  89.9836260  27.9248940 147.3760960 100.6234410
  27.4222540 148.1166360 100.9628220  28.7405600 147.7644960 100.3071200
  26.2170950 152.6194140  94.0695770  25.2761090 152.6344370  94.2443460
  26.5315020 151.8330100  94.5156070  16.1952590 154.3013740  87.6299730
  16.9615860 154.1895100  88.1925160  16.2727280 153.6051710  86.9776500
  14.8899350 151.7338810  88.3132620  14.9702940 150.7866320  88.4250020
  15.7819100 152.0645690  88.4193280  12.4170150 153.5553730 103.5488790
  12.9209170 152.9761010 104.1205020  11.6777570 153.8393960 104.0865160
  14.4493230 151.6983320 104.4438860  14.4898570 151.3997190 105.3524090
  15.3038730 152.0990930 104.2846380  18.2271620 154.2978870  89.6042370
  18.6488040 154.1318740  90.4473760  18.3522460 153.4879100  89.1097510
  16.3899040 150.2775420 102.4113350  15.8595500 149.7866370 101.7836690
  17.0587110 150.7059620 101.8771280  20.7399260 153.3216480  86.8519470
  21.2604920 152.6065500  86.4860620  21.3867660 153.9602350  87.1519980
  25.7599270 152.0841040 104.1793690  26.3420040 151.3293360 104.0914170
  25.9361040 152.6148480 103.4025170  16.8771340 147.2437790 102.4910640
  16.7828210 146.6258540 101.7661510  16.2968730 147.9704080 102.2640550
  19.6432780 145.8011030  99.5238030  19.1950080 145.8235290  98.6783580
  19.0097980 145.4030050 100.1208330  22.3856230 152.4281540 101.5288310
  22.5052440 151.8322680 102.2683150  23.2450230 152.4651230 101.1089610
  24.7244130 152.9818730 100.1050820  24.1979350 153.5061350  99.5015960
  25.0675470 153.6146120 100.7360550  17.1230520 150.3712100  86.5500530
  16.9219580 149.5079460  86.9113870  16.9522570 150.2845460  85.6122130
  19.1525000 148.9702890 102.7864130  19.7424690 148.6618740 103.4741950
  18.3345240 148.4982640 102.9424030  23.9718430 148.5868700 103.0197150
  23.2833950 147.9250240 102.9547140  24.6924450 148.1406970 103.4645610
  24.6018830 145.1820330  89.0787410  24.8821120 144.3388230  89.4346830
  23.8284560 145.4143440  89.5926160  15.9213320 147.4712720  86.5378410
  16.2239220 147.4780150  85.6297560  16.6607910 147.1210580  87.0346070
  19.1398250 146.4147340  87.5234610  18.7920250 145.7371330  86.9437060
  19.3411020 145.9536850  88.3378000  12.4803890 152.9434990  93.9198980
  11.8252730 152.6746630  93.2758680  13.3181840 152.8339470  93.4700960
  25.4294330 147.7376280  88.1417470  25.8479210 147.5507260  87.3014130
  25.1230390 146.8855330  88.4520400  28.9284060 152.6500420  91.8393270
  28.5527660 151.8828350  91.4074560  28.1987180 153.0323120  92.3268200
  13.5179820 153.3287560  98.4602320  13.8852860 153.2414960  99.3398340
  12.9490640 152.5654110  98.3609180  28.3183680 151.7971940 101.4732790
  28.0869770 151.5684690 100.5730740  28.5788230 152.7171490 101.4277680
  13.0695820 150.2396650 102.3660740  12.1751870 150.2063410 102.7054450
  13.6093370 150.4383440 103.1311990  26.7571750 147.0228370 104.2512490
  27.6341930 147.0311770 104.6346490  26.7692590 146.2859210 103.6404840
  11.6941970 150.1533920  89.8624310  10.7906050 150.4164120  89.6875970
  12.1782590 150.4245090  89.0824270  28.2035020 150.8757910  95.1400510
  28.7272500 150.3820560  94.5090680  28.7894440 151.0108270  95.8848080
  28.3824740 150.9597780  98.6620060  27.4327450 150.9261320  98.7765050
  28.5637750 151.8697890  98.4269830  14.2369180 149.2099460  87.7718690
  14.9460880 148.7882680  87.2865970  13.5209120 149.2774690  87.1402040
  13.8843340 145.2638790  86.8121340  14.6071470 145.8047730  87.1302560
  14.1567860 144.9902210  85.9362880  27.6934990 150.1331260  91.0792920
  28.1894110 149.9002130  91.8641800  27.4951060 149.2943100  90.6630560
  13.5735530 144.5144980  96.7143960  14.2211720 143.9642360  96.2739120
  13.9937370 144.7688130  97.5359770  29.1222150 148.7692210  93.6130600
  29.0121430 148.6148250  94.5512870  29.8829740 148.2413150  93.3706010
  27.4687870 144.7086340 100.0713600  28.1060090 145.3220480 100.4372790
  27.6162760 144.7447000  99.1262830  30.0112420 146.6000130  86.8536740
  30.9361730 146.4681310  86.6455030  29.9888210 146.6792950  87.8073190
  30.0850910 147.3710790  89.4793450  29.2902410 147.3055910  90.0086360
  30.2894190 148.3061430  89.4678800  13.3267530 144.6700650  99.4569280
  12.9782350 145.1264470 100.2227460  12.9955230 143.7757780  99.5391710
  20.8392350 145.8612530 102.9788700  20.7781240 146.4534360 103.7284110
  21.7792730 145.7538490 102.8338960  23.4766910 145.5182590 102.6180990
  24.0907320 145.8361880 101.9562070  24.0216470 145.0331180 103.2376850
  13.9988170 144.1976850 102.7320050  14.5471160 144.0164900 101.9686160
  14.0643480 143.4070960 103.2676360  24.2174950 144.0814730  98.9450280
  23.3434790 144.4149840  98.7423210  24.1085700 143.6087910  99.7702150
  25.1246930 146.2885600 100.3292000  24.7960290 145.4737360  99.9493730
  26.0729230 146.2455410 100.2057690  21.9649770 144.9984570  97.8843190
  21.1821560 145.4730070  98.1639950  21.6712700 144.0939400  97.7756370
  26.5170840 145.7007670  95.9292280  26.9578930 145.6452770  95.0813880
  26.2478430 146.6165680  96.0002460  28.3809410 145.3322910  93.9401100
  28.3197810 144.3884130  93.7932120  29.1601440 145.4403000  94.4854560
  13.3090180 145.3032050  90.4056910  14.0669540 145.4160930  89.8320940
  12.8467350 146.1401250  90.3600340  19.8503990 147.4171320  93.3959220
  19.0378500 147.0428210  93.0555100  20.3545630 146.6616400  93.6980410
  24.3528970 144.0813770  94.6342290  24.9558340 144.6533980  95.1090810
  23.6121960 144.6453210  94.4116190  27.4963570 144.4835330  89.9082570
  27.6914200 145.3818780  90.1750000  26.7093440 144.2522410  90.4015520
  15.6815330 145.8296100  88.9458880  16.2108090 145.0425900  88.8166830
  16.3143650 146.5087290  89.1794410  17.8753170 145.5671240  92.0004270
  17.2455910 144.8658550  92.1674400  17.3358310 146.3275370  91.7837430
  18.0008730 144.8455220 104.4356760  17.7193000 145.3488820 103.6717580
  18.3828430 144.0476970 104.0698890  24.6024190 144.2608800 105.0137230
  24.4889640 144.5803410 105.9088750  25.4193930 144.6621310 104.7174510
  23.5082340 152.2801270  75.3771970  23.4276390 151.3655880  75.1063680
  23.0946760 152.7768340  74.6711680  21.6400380 154.0580290  77.2581240
  20.8642480 153.5780730  77.5479810  22.2913310 153.3785940  77.0837400
  14.0658160 149.3301990  71.9199390  13.1774860 149.6717960  71.8179270
  14.3499350 149.1302310  71.0280220  12.0291170 151.9307640  77.8039090
  12.6007280 151.1629840  77.8042730  12.0292710 152.2296400  76.8945700
  13.2716040 147.3392000  79.5908020  13.0918880 146.4417750  79.8710780
  12.8696120 147.8863870  80.2654970  22.1114540 149.5407860  77.4920330
  22.4879360 148.6679740  77.3794000  22.0134050 149.8766560  76.6010770
  16.2419550 147.9133490  72.9537770  16.3486300 148.8137220  73.2606530
  15.3311910 147.8651460  72.6632420  25.8938660 147.0358300  74.4248670
  26.7148280 146.5454870  74.4674150  25.9272740 147.6255960  75.1780510
  13.8902710 149.8352500  78.1990360  14.5712820 150.0990870  78.8177760
  13.5750760 148.9953370  78.5328370  18.0827280 150.8819860  77.2862950
  18.5905500 151.3800830  77.9267970  18.6140520 150.1055060  77.1102310
  30.1838210 149.0525050  80.9892300  29.4790380 149.4406760  80.4707410
  30.4496130 149.7475340  81.5913230  16.3663380 145.5218420  81.5526370
  16.3681820 146.0390810  80.7472270  15.5367690 145.0448600  81.5296300
  26.1300140 148.9758680  77.1976210  25.4255710 149.2643570  77.7779320
  26.4912300 149.7858790  76.8375770  16.0478710 147.2328380  79.5596820
  16.3895520 148.0770430  79.2650690  15.1094520 147.3812120  79.6762160
  29.1987060 148.4213470  77.5885420  28.2511970 148.4552450  77.7200850
  29.5237050 149.2352420  77.9734780  19.7306600 144.7210650  75.8841410
  20.0381580 144.1657540  75.1676910  18.8007300 144.8555110  75.7014400
  22.1187360 152.7859480  72.6201530  21.1916640 152.7196860  72.8490000
  22.2712180 153.7239610  72.5056770  22.1056440 149.0576480  69.6168690
  21.1660110 149.2190440  69.7021150  22.4239700 149.7762160  69.0704680
  25.5911210 150.5264320  80.5402590  25.1782390 151.3518030  80.7942580
  24.8587160 149.9409360  80.3478950  17.7244000 153.3124220  75.4021260
  17.3201000 152.6001470  74.9067160  17.8107120 152.9677460  76.2909300
  16.4372620 150.0867430  79.1820300  16.9887210 150.1962770  78.4073550
  16.9516130 150.4605030  79.8975530  24.3249350 153.5866590  70.1309530
  24.7642630 152.7489020  69.9847350  25.0377770 154.2195990  70.2173670
  27.9066490 144.8409400  68.4450570  27.5939150 144.9336230  69.3449640
  28.6678960 145.4190430  68.3948000  14.4248630 152.2069200  72.9027910
  14.3046230 152.9331290  72.2909180  14.1149520 151.4372110  72.4255820
  29.1167780 149.5780900  84.4224710  28.5012050 150.0860570  83.8940170
  28.7964200 148.6779230  84.3650650  16.8912290 145.5504270  76.2851580
  16.4480440 146.3313810  75.9536100  17.4497280 145.8734160  76.9922520
  21.1782100 148.4172790  81.8886900  20.7161470 148.6255810  82.7006840
  20.7760210 147.6032140  81.5857570  26.1786610 149.6381740  83.0183560
  25.3280200 149.3387490  83.3392630  26.0188400 149.8823750  82.1067380
  23.2736320 151.1383490  85.1182350  23.5989730 150.3047240  84.7784580
  24.0616650 151.6612010  85.2660680  20.0071110 145.1714970  71.1657410
  19.3825290 145.1674840  71.8910720  19.9201230 144.3045930  70.7693380
  18.9288190 146.0951600  78.1441180  19.2260520 147.0014430  78.0633200
  19.4773750 145.6070380  77.5300750  16.6826510 150.6737840  74.0132830
  16.4567430 150.4575010  74.9179450  15.9019040 151.1066300  73.6678800
  23.9124270 150.6801210  72.6123480  23.3133160 151.4037010  72.4287100
  24.4603880 150.6177990  71.8299930  19.1225720 151.5723420  84.6793100
  19.0269320 150.6318150  84.5293500  19.9657700 151.7938490  84.2841170
  22.5189140 149.3164750  74.6426760  22.9118710 149.6336950  73.8295450
  22.8805990 148.4376630  74.7571280  14.2536260 147.9837090  82.8326880
  13.8599650 148.8312300  83.0399660  13.5654660 147.3463460  83.0235520
  20.8281310 148.0672060  85.9023620  20.1379630 147.8744260  86.5369710
  21.5713610 148.3506700  86.4347920  11.5553310 145.9065550  76.8656960
  11.2666360 146.4768410  77.5781940  12.2999070 145.4270000  77.2288190
  11.7423540 149.8485670  68.0759680  11.6598210 150.7916430  68.2174670
  11.3906600 149.7060580  67.1972030  23.1044280 151.9070500  78.7377540
  22.3725400 152.4157310  79.0867640  22.7068620 151.0900480  78.4366320
  19.5421670 148.5824700  77.1430030  19.5457730 148.1414650  76.2934570
  20.4372790 148.9042030  77.2501850  15.3924050 148.4651190  76.1024240
  15.0524100 148.9426420  76.8591290  14.6301370 148.0116310  75.7425340
  19.6041820 149.5836780  70.1336790  19.7254640 149.5423260  71.0822610
  19.2190330 150.4460930  69.9783520  23.5670190 147.3604180  78.1500480
  23.5842930 147.8112830  78.9942330  23.3185770 146.4609820  78.3633920
  18.6163320 151.8937920  69.5320090  18.0480220 151.4456170  68.9056000
  19.3252320 152.2530700  68.9985240  26.9940940 144.7736360  83.9886860
  27.3186710 144.0426020  84.5144840  27.0297450 144.4550000  83.0867850
  19.8429640 152.6426480  78.8895440  20.2099770 152.1685050  79.6356780
  19.6534700 153.5168050  79.2303780  12.7070130 147.3870170  75.0188910
  12.4217050 147.0225840  75.8567530  12.6448990 146.6550630  74.4052050
  17.6329010 151.6835120  81.2079650  17.3286080 152.5627100  81.4330010
  18.5875470 151.7434910  81.2437090  22.3808720 146.2799430  71.7402280
  21.5673330 145.7812600  71.6647590  22.1870670 147.1197680  71.3238630
  25.0957110 150.6519080  70.0364440  25.9836730 150.9636310  69.8615780
  25.0662200 149.7791330  69.6445020  13.6892740 152.5237860  82.3551010
  13.3307680 153.1891710  82.9424350  13.3947300 151.6921410  82.7263630
  16.8905860 152.9822100  85.2390560  16.5906000 153.1279280  84.3418380
  17.6617100 152.4227390  85.1463950  27.3671380 151.9630920  69.5044300
  27.2835100 152.3945140  68.6540740  28.0865570 152.4229270  69.9371120
  12.2000790 152.5229120  68.9785610  13.0695640 152.8053920  69.2621530
  11.7091110 153.3364990  68.8634420  15.2647380 144.2539980  73.5716410
  15.1362010 144.2457880  74.5201330  14.4409400 144.5923070  73.2207420
  12.2641310 146.0131100  83.0323110  11.5499830 146.2128020  83.6375720
  12.6836350 145.2370670  83.4037910  23.7580090 148.5053410  80.7824560
  24.1260910 147.6848620  81.1104130  22.8978290 148.5655300  81.1980210
  27.1242120 147.4610350  71.5912120  26.4955280 147.5656020  70.8770350
  26.6294040 147.6807130  72.3806000  19.0926150 149.7396300  73.0070000
  18.3842300 150.2082640  73.4483610  19.3770630 149.0818310  73.6415190
  20.7182080 151.1593000  81.0062530  21.2167330 151.6338820  81.6714380
  20.8605030 150.2356520  81.2132560  23.1241580 146.4646960  74.4465790
  23.0009360 146.4833090  73.4975300  24.0726140 146.5125900  74.5664190
  17.2961170 148.0481380  70.3820710  18.1451700 148.4851530  70.3160900
  16.9292440 148.3601640  71.2092770  27.9248940 147.3760960  81.8490920
  27.4222540 148.1166360  82.1884730  28.7405600 147.7644960  81.5327710
  26.2170950 152.6194140  75.2952280  25.2761090 152.6344370  75.4699970
  26.5315020 151.8330100  75.7412580  16.1952590 154.3013740  68.8556240
  16.9615860 154.1895100  69.4181670  16.2727280 153.6051710  68.2033010
  14.8899350 151.7338810  69.5389130  14.9702940 150.7866320  69.6506530
  15.7819100 152.0645690  69.6449790  12.4170150 153.5553730  84.7745300
  12.9209170 152.9761010  85.3461530  11.6777570 153.8393960  85.3121670
  14.4493230 151.6983320  85.6695370  14.4898570 151.3997190  86.5780600
  15.3038730 152.0990930  85.5102890  18.2271620 154.2978870  70.8298880
  18.6488040 154.1318740  71.6730270  18.3522460 153.4879100  70.3354020
  16.3899040 150.2775420  83.6369860  15.8595500 149.7866370  83.0093200
  17.0587110 150.7059620  83.1027790  20.7399260 153.3216480  68.0775980
  21.2604920 152.6065500  67.7117130  21.3867660 153.9602350  68.3776490
  25.7599270 152.0841040  85.4050200  26.3420040 151.3293360  85.3170680
  25.9361040 152.6148480  84.6281680  16.8771340 147.2437790  83.7167150
  16.7828210 146.6258540  82.9918020  16.2968730 147.9704080  83.4897060
  19.6432780 145.8011030  80.7494540  19.1950080 145.8235290  79.9040090
  19.0097980 145.4030050  81.3464840  22.3856230 152.4281540  82.7544820
  22.5052440 151.8322680  83.4939660  23.2450230 152.4651230  82.3346120
  24.7244130 152.9818730  81.3307330  24.1979350 153.5061350  80.7272470
  25.0675470 153.6146120  81.9617060  17.1230520 150.3712100  67.7757040
  16.9219580 149.5079460  68.1370380  16.9522570 150.2845460  66.8378640
  19.1525000 148.9702890  84.0120640  19.7424690 148.6618740  84.6998460
  18.3345240 148.4982640  84.1680540  23.9718430 148.5868700  84.2453660
  23.2833950 147.9250240  84.1803650  24.6924450 148.1406970  84.6902120
  24.6018830 145.1820330  70.3043920  24.8821120 144.3388230  70.6603340
  23.8284560 145.4143440  70.8182670  15.9213320 147.4712720  67.7634920
  16.2239220 147.4780150  66.8554070  16.6607910 147.1210580  68.2602580
  19.1398250 146.4147340  68.7491120  18.7920250 145.7371330  68.1693570
  19.3411020 145.9536850  69.5634510  12.4803890 152.9434990  75.1455490
  11.8252730 152.6746630  74.5015190  13.3181840 152.8339470  74.6957470
  25.4294330 147.7376280  69.3673980  25.8479210 147.5507260  68.5270640
  25.1230390 146.8855330  69.6776910  28.9284060 152.6500420  73.0649780
  28.5527660 151.8828350  72.6331070  28.1987180 153.0323120  73.5524710
  13.5179820 153.3287560  79.6858830  13.8852860 153.2414960  80.5654850
  12.9490640 152.5654110  79.5865690  28.3183680 151.7971940  82.6989300
  28.0869770 151.5684690  81.7987250  28.5788230 152.7171490  82.6534190
  13.0695820 150.2396650  83.5917250  12.1751870 150.2063410  83.9310960
  13.6093370 150.4383440  84.3568500  26.7571750 147.0228370  85.4769000
  27.6341930 147.0311770  85.8603000  26.7692590 146.2859210  84.8661350
  11.6941970 150.1533920  71.0880820  10.7906050 150.4164120  70.9132480
  12.1782590 150.4245090  70.3080780  28.2035020 150.8757910  76.3657020
  28.7272500 150.3820560  75.7347190  28.7894440 151.0108270  77.1104590
  28.3824740 150.9597780  79.8876570  27.4327450 150.9261320  80.0021560
  28.5637750 151.8697890  79.6526340  14.2369180 149.2099460  68.9975200
  14.9460880 148.7882680  68.5122480  13.5209120 149.2774690  68.3658550
  13.8843340 145.2638790  68.0377850  14.6071470 145.8047730  68.3559070
  14.1567860 144.9902210  67.1619390  27.6934990 150.1331260  72.3049430
  28.1894110 149.9002130  73.0898310  27.4951060 149.2943100  71.8887070
  13.5735530 144.5144980  77.9400470  14.2211720 143.9642360  77.4995630
  13.9937370 144.7688130  78.7616280  29.1222150 148.7692210  74.8387110
  29.0121430 148.6148250  75.7769380  29.8829740 148.2413150  74.5962520
  27.4687870 144.7086340  81.2970110  28.1060090 145.3220480  81.6629300
  27.6162760 144.7447000  80.3519340  30.0112420 146.6000130  68.0793250
  30.9361730 146.4681310  67.8711540  29.9888210 146.6792950  69.0329700
  30.0850910 147.3710790  70.7049960  29.2902410 147.3055910  71.2342870
  30.2894190 148.3061430  70.6935310  13.3267530 144.6700650  80.6825790
  12.9782350 145.1264470  81.4483970  12.9955230 143.7757780  80.7648220
  20.8392350 145.8612530  84.2045210  20.7781240 146.4534360  84.9540620
  21.7792730 145.7538490  84.0595470  23.4766910 145.5182590  83.8437500
  24.0907320 145.8361880  83.1818580  24.0216470 145.0331180  84.4633360
  13.9988170 144.1976850  83.9576560  14.5471160 144.0164900  83.1942670
  14.0643480 143.4070960  84.4932870  24.2174950 144.0814730  80.1706790
  23.3434790 144.4149840  79.9679720  24.1085700 143.6087910  80.9958660
  25.1246930 146.2885600  81.5548510  24.7960290 145.4737360  81.1750240
  26.0729230 146.2455410  81.4314200  21.9649770 144.9984570  79.1099700
  21.1821560 145.4730070  79.3896460  21.6712700 144.0939400  79.0012880
  26.5170840 145.7007670  77.1548790  26.9578930 145.6452770  76.3070390
  26.2478430 146.6165680  77.2258970  28.3809410 145.3322910  75.1657610
  28.3197810 144.3884130  75.0188630  29.1601440 145.4403000  75.7111070
  13.3090180 145.3032050  71.6313420  14.0669540 145.4160930  71.0577450
  12.8467350 146.1401250  71.5856850  19.8503990 147.4171320  74.6215730
  19.0378500 147.0428210  74.2811610  20.3545630 146.6616400  74.9236920
  24.3528970 144.0813770  75.8598800  24.9558340 144.6533980  76.3347320
  23.6121960 144.6453210  75.6372700  27.4963570 144.4835330  71.1339080
  27.6914200 145.3818780  71.4006510  26.7093440 144.2522410  71.6272030
  15.6815330 145.8296100  70.1715390  16.2108090 145.0425900  70.0423340
  16.3143650 146.5087290  70.4050920  17.8753170 145.5671240  73.2260780
  17.2455910 144.8658550  73.3930910  17.3358310 146.3275370  73.0093940
  18.0008730 144.8455220  85.6613270  17.7193000 145.3488820  84.8974090
  18.3828430 144.0476970  85.2955400  24.6024190 144.2608800  86.2393740
  24.4889640 144.5803410  87.1345260  25.4193930 144.6621310  85.9431020
  23.5082340 152.2801270  56.6028480  23.4276390 151.3655880  56.3320190
  23.0946760 152.7768340  55.8968190  21.6400380 154.0580290  58.4837750
  20.8642480 153.5780730  58.7736320  22.2913310 153.3785940  58.3093910
  14.0658160 149.3301990  53.1455900  13.1774860 149.6717960  53.0435780
  14.3499350 149.1302310  52.2536730  12.0291170 151.9307640  59.0295600
  12.6007280 151.1629840  59.0299240  12.0292710 152.2296400  58.1202210
  13.2716040 147.3392000  60.8164530  13.0918880 146.4417750  61.0967290
  12.8696120 147.8863870  61.4911480  22.1114540 149.5407860  58.7176840
  22.4879360 148.6679740  58.6050510  22.0134050 149.8766560  57.8267280
  16.2419550 147.9133490  54.1794280  16.3486300 148.8137220  54.4863040
  15.3311910 147.8651460  53.8888930  25.8938660 147.0358300  55.6505180
  26.7148280 146.5454870  55.6930660  25.9272740 147.6255960  56.4037020
  13.8902710 149.8352500  59.4246870  14.5712820 150.0990870  60.0434270
  13.5750760 148.9953370  59.7584880  18.0827280 150.8819860  58.5119460
  18.5905500 151.3800830  59.1524480  18.6140520 150.1055060  58.3358820
  30.1838210 149.0525050  62.2148810  29.4790380 149.4406760  61.6963920
  30.4496130 149.7475340  62.8169740  16.3663380 145.5218420  62.7782880
  16.3681820 146.0390810  61.9728780  15.5367690 145.0448600  62.7552810
  26.1300140 148.9758680  58.4232720  25.4255710 149.2643570  59.0035830
  26.4912300 149.7858790  58.0632280  16.0478710 147.2328380  60.7853330
  16.3895520 148.0770430  60.4907200  15.1094520 147.3812120  60.9018670
  29.1987060 148.4213470  58.8141930  28.2511970 148.4552450  58.9457360
  29.5237050 149.2352420  59.1991290  19.7306600 144.7210650  57.1097920
  20.0381580 144.1657540  56.3933420  18.8007300 144.8555110  56.9270910
  22.1187360 152.7859480  53.8458040  21.1916640 152.7196860  54.0746510
  22.2712180 153.7239610  53.7313280  22.1056440 149.0576480  50.8425200
  21.1660110 149.2190440  50.9277660  22.4239700 149.7762160  50.2961190
  25.5911210 150.5264320  61.7659100  25.1782390 151.3518030  62.0199090
  24.8587160 149.9409360  61.5735460  17.7244000 153.3124220  56.6277770
  17.3201000 152.6001470  56.1323670  17.8107120 152.9677460  57.5165810
  16.4372620 150.0867430  60.4076810  16.9887210 150.1962770  59.6330060
  16.9516130 150.4605030  61.1232040  24.3249350 153.5866590  51.3566040
  24.7642630 152.7489020  51.2103860  25.0377770 154.2195990  51.4430180
  27.9066490 144.8409400  49.6707080  27.5939150 144.9336230  50.5706150
  28.6678960 145.4190430  49.6204510  14.4248630 152.2069200  54.1284420
  14.3046230 152.9331290  53.5165690  14.1149520 151.4372110  53.6512330
  29.1167780 149.5780900  65.6481220  28.5012050 150.0860570  65.1196680
  28.7964200 148.6779230  65.5907160  16.8912290 145.5504270  57.5108090
  16.4480440 146.3313810  57.1792610  17.4497280 145.8734160  58.2179030
  21.1782100 148.4172790  63.1143410  20.7161470 148.6255810  63.9263350
  20.7760210 147.6032140  62.8114080  26.1786610 149.6381740  64.2440070
  25.3280200 149.3387490  64.5649140  26.0188400 149.8823750  63.3323890
  23.2736320 151.1383490  66.3438860  23.5989730 150.3047240  66.0041090
  24.0616650 151.6612010  66.4917190  20.0071110 145.1714970  52.3913920
  19.3825290 145.1674840  53.1167230  19.9201230 144.3045930  51.9949890
  18.9288190 146.0951600  59.3697690  19.2260520 147.0014430  59.2889710
  19.4773750 145.6070380  58.7557260  16.6826510 150.6737840  55.2389340
  16.4567430 150.4575010  56.1435960  15.9019040 151.1066300  54.8935310
  23.9124270 150.6801210  53.8379990  23.3133160 151.4037010  53.6543610
  24.4603880 150.6177990  53.0556440  19.1225720 151.5723420  65.9049610
  19.0269320 150.6318150  65.7550010  19.9657700 151.7938490  65.5097680
  22.5189140 149.3164750  55.8683270  22.9118710 149.6336950  55.0551960
  22.8805990 148.4376630  55.9827790  14.2536260 147.9837090  64.0583390
  13.8599650 148.8312300  64.2656170  13.5654660 147.3463460  64.2492030
  20.8281310 148.0672060  67.1280130  20.1379630 147.8744260  67.7626220
  21.5713610 148.3506700  67.6604430  11.5553310 145.9065550  58.0913470
  11.2666360 146.4768410  58.8038450  12.2999070 145.4270000  58.4544700
  11.7423540 149.8485670  49.3016190  11.6598210 150.7916430  49.4431180
  11.3906600 149.7060580  48.4228540  23.1044280 151.9070500  59.9634050
  22.3725400 152.4157310  60.3124150  22.7068620 151.0900480  59.6622830
  19.5421670 148.5824700  58.3686540  19.5457730 148.1414650  57.5191080
  20.4372790 148.9042030  58.4758360  15.3924050 148.4651190  57.3280750
  15.0524100 148.9426420  58.0847800  14.6301370 148.0116310  56.9681850
  19.6041820 149.5836780  51.3593300  19.7254640 149.5423260  52.3079120
  19.2190330 150.4460930  51.2040030  23.5670190 147.3604180  59.3756990
  23.5842930 147.8112830  60.2198840  23.3185770 146.4609820  59.5890430
  18.6163320 151.8937920  50.7576600  18.0480220 151.4456170  50.1312510
  19.3252320 152.2530700  50.2241750  26.9940940 144.7736360  65.2143370
  27.3186710 144.0426020  65.7401350  27.0297450 144.4550000  64.3124360
  19.8429640 152.6426480  60.1151950  20.2099770 152.1685050  60.8613290
  19.6534700 153.5168050  60.4560290  12.7070130 147.3870170  56.2445420
  12.4217050 147.0225840  57.0824040  12.6448990 146.6550630  55.6308560
  17.6329010 151.6835120  62.4336160  17.3286080 152.5627100  62.6586520
  18.5875470 151.7434910  62.4693600  22.3808720 146.2799430  52.9658790
  21.5673330 145.7812600  52.8904100  22.1870670 147.1197680  52.5495140
  25.0957110 150.6519080  51.2620950  25.9836730 150.9636310  51.0872290
  25.0662200 149.7791330  50.8701530  13.6892740 152.5237860  63.5807520
  13.3307680 153.1891710  64.1680860  13.3947300 151.6921410  63.9520140
  16.8905860 152.9822100  66.4647070  16.5906000 153.1279280  65.5674890
  17.6617100 152.4227390  66.3720460  27.3671380 151.9630920  50.7300810
  27.2835100 152.3945140  49.8797250  28.0865570 152.4229270  51.1627630
  12.2000790 152.5229120  50.2042120  13.0695640 152.8053920  50.4878040
  11.7091110 153.3364990  50.0890930  15.2647380 144.2539980  54.7972920
  15.1362010 144.2457880  55.7457840  14.4409400 144.5923070  54.4463930
  12.2641310 146.0131100  64.2579620  11.5499830 146.2128020  64.8632230
  12.6836350 145.2370670  64.6294420  23.7580090 148.5053410  62.0081070
  24.1260910 147.6848620  62.3360640  22.8978290 148.5655300  62.4236720
  27.1242120 147.4610350  52.8168630  26.4955280 147.5656020  52.1026860
  26.6294040 147.6807130  53.6062510  19.0926150 149.7396300  54.2326510
  18.3842300 150.2082640  54.6740120  19.3770630 149.0818310  54.8671700
  20.7182080 151.1593000  62.2319040  21.2167330 151.6338820  62.8970890
  20.8605030 150.2356520  62.4389070  23.1241580 146.4646960  55.6722300
  23.0009360 146.4833090  54.7231810  24.0726140 146.5125900  55.7920700
  17.2961170 148.0481380  51.6077220  18.1451700 148.4851530  51.5417410
  16.9292440 148.3601640  52.4349280  27.9248940 147.3760960  63.0747430
  27.4222540 148.1166360  63.4141240  28.7405600 147.7644960  62.7584220
  26.2170950 152.6194140  56.5208790  25.2761090 152.6344370  56.6956480
  26.5315020 151.8330100  56.9669090  16.1952590 154.3013740  50.0812750
  16.9615860 154.1895100  50.6438180  16.2727280 153.6051710  49.4289520
  14.8899350 151.7338810  50.7645640  14.9702940 150.7866320  50.8763040
  15.7819100 152.0645690  50.8706300  12.4170150 153.5553730  66.0001810
  12.9209170 152.9761010  66.5718040  11.6777570 153.8393960  66.5378180
  14.4493230 151.6983320  66.8951880  14.4898570 151.3997190  67.8037110
  15.3038730 152.0990930  66.7359400  18.2271620 154.2978870  52.0555390
  18.6488040 154.1318740  52.8986780  18.3522460 153.4879100  51.5610530
  16.3899040 150.2775420  64.8626370  15.8595500 149.7866370  64.2349710
  17.0587110 150.7059620  64.3284300  20.7399260 153.3216480  49.3032490
  21.2604920 152.6065500  48.9373640  21.3867660 153.9602350  49.6033000
  25.7599270 152.0841040  66.6306710  26.3420040 151.3293360  66.5427190
  25.9361040 152.6148480  65.8538190  16.8771340 147.2437790  64.9423660
  16.7828210 146.6258540  64.2174530  16.2968730 147.9704080  64.7153570
  19.6432780 145.8011030  61.9751050  19.1950080 145.8235290  61.1296600
  19.0097980 145.4030050  62.5721350  22.3856230 152.4281540  63.9801330
  22.5052440 151.8322680  64.7196170  23.2450230 152.4651230  63.5602630
  24.7244130 152.9818730  62.5563840  24.1979350 153.5061350  61.9528980
  25.0675470 153.6146120  63.1873570  17.1230520 150.3712100  49.0013550
  16.9219580 149.5079460  49.3626890  16.9522570 150.2845460  48.0635150
  19.1525000 148.9702890  65.2377150  19.7424690 148.6618740  65.9254970
  18.3345240 148.4982640  65.3937050  23.9718430 148.5868700  65.4710170
  23.2833950 147.9250240  65.4060160  24.6924450 148.1406970  65.9158630
  24.6018830 145.1820330  51.5300430  24.8821120 144.3388230  51.8859850
  23.8284560 145.4143440  52.0439180  15.9213320 147.4712720  48.9891430
  16.2239220 147.4780150  48.0810580  16.6607910 147.1210580  49.4859090
  19.1398250 146.4147340  49.9747630  18.7920250 145.7371330  49.3950080
  19.3411020 145.9536850  50.7891020  12.4803890 152.9434990  56.3712000
  11.8252730 152.6746630  55.7271700  13.3181840 152.8339470  55.9213980
  25.4294330 147.7376280  50.5930490  25.8479210 147.5507260  49.7527150
  25.1230390 146.8855330  50.9033420  28.9284060 152.6500420  54.2906290
  28.5527660 151.8828350  53.8587580  28.1987180 153.0323120  54.7781220
  13.5179820 153.3287560  60.9115340  13.8852860 153.2414960  61.7911360
  12.9490640 152.5654110  60.8122200  28.3183680 151.7971940  63.9245810
  28.0869770 151.5684690  63.0243760  28.5788230 152.7171490  63.8790700
  13.0695820 150.2396650  64.8173760  12.1751870 150.2063410  65.1567470
  13.6093370 150.4383440  65.5825010  26.7571750 147.0228370  66.7025510
  27.6341930 147.0311770  67.0859510  26.7692590 146.2859210  66.0917860
  11.6941970 150.1533920  52.3137330  10.7906050 150.4164120  52.1388990
  12.1782590 150.4245090  51.5337290  28.2035020 150.8757910  57.5913530
  28.7272500 150.3820560  56.9603700  28.7894440 151.0108270  58.3361100
  28.3824740 150.9597780  61.1133080  27.4327450 150.9261320  61.2278070
  28.5637750 151.8697890  60.8782850  14.2369180 149.2099460  50.2231710
  14.9460880 148.7882680  49.7378990  13.5209120 149.2774690  49.5915060
  13.8843340 145.2638790  49.2634360  14.6071470 145.8047730  49.5815580
  14.1567860 144.9902210  48.3875900  27.6934990 150.1331260  53.5305940
  28.1894110 149.9002130  54.3154820  27.4951060 149.2943100  53.1143580
  13.5735530 144.5144980  59.1656980  14.2211720 143.9642360  58.7252140
  13.9937370 144.7688130  59.9872790  29.1222150 148.7692210  56.0643620
  29.0121430 148.6148250  57.0025890  29.8829740 148.2413150  55.8219030
  27.4687870 144.7086340  62.5226620  28.1060090 145.3220480  62.8885810
  27.6162760 144.7447000  61.5775850  30.0112420 146.6000130  49.3049760
  30.9361730 146.4681310  49.0968050  29.9888210 146.6792950  50.2586210
  30.0850910 147.3710790  51.9306470  29.2902410 147.3055910  52.4599380
  30.2894190 148.3061430  51.9191820  13.3267530 144.6700650  61.9082300
  12.9782350 145.1264470  62.6740480  12.9955230 143.7757780  61.9904730
  20.8392350 145.8612530  65.4301720  20.7781240 146.4534360  66.1797130
  21.7792730 145.7538490  65.2851980  23.4766910 145.5182590  65.0694010
  24.0907320 145.8361880  64.4075090  24.0216470 145.0331180  65.6889870
  13.9988170 144.1976850  65.1833070  14.5471160 144.0164900  64.4199180
  14.0643480 143.4070960  65.7189380  24.2174950 144.0814730  61.3963300
  23.3434790 144.4149840  61.1936230  24.1085700 143.6087910  62.2215170
  25.1246930 146.2885600  62.7805020  24.7960290 145.4737360  62.4006750
  26.0729230 146.2455410  62.6570710  21.9649770 144.9984570  60.3356210
  21.1821560 145.4730070  60.6152970  21.6712700 144.0939400  60.2269390
  26.5170840 145.7007670  58.3805300  26.9578930 145.6452770  57.5326900
  26.2478430 146.6165680  58.4515480  28.3809410 145.3322910  56.3914120
  28.3197810 144.3884130  56.2445140  29.1601440 145.4403000  56.9367580
  13.3090180 145.3032050  52.8569930  14.0669540 145.4160930  52.2833960
  12.8467350 146.1401250  52.8113360  19.8503990 147.4171320  55.8472240
  19.0378500 147.0428210  55.5068120  20.3545630 146.6616400  56.1493430
  24.3528970 144.0813770  57.0855310  24.9558340 144.6533980  57.5603830
  23.6121960 144.6453210  56.8629210  27.4963570 144.4835330  52.3595590
  27.6914200 145.3818780  52.6263020  26.7093440 144.2522410  52.8528540
  15.6815330 145.8296100  51.3971900  16.2108090 145.0425900  51.2679850
  16.3143650 146.5087290  51.6307430  17.8753170 145.5671240  54.4517290
  17.2455910 144.8658550  54.6187420  17.3358310 146.3275370  54.2350450
  18.0008730 144.8455220  66.8869780  17.7193000 145.3488820  66.1230600
  18.3828430 144.0476970  66.5211910  24.6024190 144.2608800  67.4650250
  24.4889640 144.5803410  68.3601770  25.4193930 144.6621310  67.1687530
  23.5082340 152.2801270  37.8284990  23.4276390 151.3655880  37.5576700
  23.0946760 152.7768340  37.1224700  21.6400380 154.0580290  39.7094260
  20.8642480 153.5780730  39.9992830  22.2913310 153.3785940  39.5350420
  14.0658160 149.3301990  34.3712410  13.1774860 149.6717960  34.2692290
  14.3499350 149.1302310  33.4793240  12.0291170 151.9307640  40.2552110
  12.6007280 151.1629840  40.2555750  12.0292710 152.2296400  39.3458720
  13.2716040 147.3392000  42.0421040  13.0918880 146.4417750  42.3223800
  12.8696120 147.8863870  42.7167990  22.1114540 149.5407860  39.9433350
  22.4879360 148.6679740  39.8307020  22.0134050 149.8766560  39.0523790
  16.2419550 147.9133490  35.4050790  16.3486300 148.8137220  35.7119550
  15.3311910 147.8651460  35.1145440  25.8938660 147.0358300  36.8761690
  26.7148280 146.5454870  36.9187170  25.9272740 147.6255960  37.6293530
  13.8902710 149.8352500  40.6503380  14.5712820 150.0990870  41.2690780
  13.5750760 148.9953370  40.9841390  18.0827280 150.8819860  39.7375970
  18.5905500 151.3800830  40.3780990  18.6140520 150.1055060  39.5615330
  30.1838210 149.0525050  43.4405320  29.4790380 149.4406760  42.9220430
  30.4496130 149.7475340  44.0426250  16.3663380 145.5218420  44.0039390
  16.3681820 146.0390810  43.1985290  15.5367690 145.0448600  43.9809320
  26.1300140 148.9758680  39.6489230  25.4255710 149.2643570  40.2292340
  26.4912300 149.7858790  39.2888790  16.0478710 147.2328380  42.0109840
  16.3895520 148.0770430  41.7163710  15.1094520 147.3812120  42.1275180
  29.1987060 148.4213470  40.0398440  28.2511970 148.4552450  40.1713870
  29.5237050 149.2352420  40.4247800  19.7306600 144.7210650  38.3354430
  20.0381580 144.1657540  37.6189930  18.8007300 144.8555110  38.1527420
  22.1187360 152.7859480  35.0714550  21.1916640 152.7196860  35.3003020
  22.2712180 153.7239610  34.9569790  22.1056440 149.0576480  32.0681710
  21.1660110 149.2190440  32.1534170  22.4239700 149.7762160  31.5217700
  25.5911210 150.5264320  42.9915610  25.1782390 151.3518030  43.2455600
  24.8587160 149.9409360  42.7991970  17.7244000 153.3124220  37.8534280
  17.3201000 152.6001470  37.3580180  17.8107120 152.9677460  38.7422320
  16.4372620 150.0867430  41.6333320  16.9887210 150.1962770  40.8586570
  16.9516130 150.4605030  42.3488550  24.3249350 153.5866590  32.5822550
  24.7642630 152.7489020  32.4360370  25.0377770 154.2195990  32.6686690
  27.9066490 144.8409400  30.8963590  27.5939150 144.9336230  31.7962660
  28.6678960 145.4190430  30.8461020  14.4248630 152.2069200  35.3540930
  14.3046230 152.9331290  34.7422200  14.1149520 151.4372110  34.8768840
  29.1167780 149.5780900  46.8737730  28.5012050 150.0860570  46.3453190
  28.7964200 148.6779230  46.8163670  16.8912290 145.5504270  38.7364600
  16.4480440 146.3313810  38.4049120  17.4497280 145.8734160  39.4435540
  21.1782100 148.4172790  44.3399920  20.7161470 148.6255810  45.1519860
  20.7760210 147.6032140  44.0370590  26.1786610 149.6381740  45.4696580
  25.3280200 149.3387490  45.7905650  26.0188400 149.8823750  44.5580400
  23.2736320 151.1383490  47.5695370  23.5989730 150.3047240  47.2297600
  24.0616650 151.6612010  47.7173700  20.0071110 145.1714970  33.6170430
  19.3825290 145.1674840  34.3423740  19.9201230 144.3045930  33.2206400
  18.9288190 146.0951600  40.5954200  19.2260520 147.0014430  40.5146220
  19.4773750 145.6070380  39.9813770  16.6826510 150.6737840  36.4645850
  16.4567430 150.4575010  37.3692470  15.9019040 151.1066300  36.1191820
  23.9124270 150.6801210  35.0636500  23.3133160 151.4037010  34.8800120
  24.4603880 150.6177990  34.2812950  19.1225720 151.5723420  47.1306120
  19.0269320 150.6318150  46.9806520  19.9657700 151.7938490  46.7354190
  22.5189140 149.3164750  37.0939780  22.9118710 149.6336950  36.2808470
  22.8805990 148.4376630  37.2084300  14.2536260 147.9837090  45.2839900
  13.8599650 148.8312300  45.4912680  13.5654660 147.3463460  45.4748540
  20.8281310 148.0672060  48.3536640  20.1379630 147.8744260  48.9882730
  21.5713610 148.3506700  48.8860940  11.5553310 145.9065550  39.3169980
  11.2666360 146.4768410  40.0294960  12.2999070 145.4270000  39.6801210
  11.7423540 149.8485670  30.5272700  11.6598210 150.7916430  30.6687690
  11.3906600 149.7060580  29.6485050  23.1044280 151.9070500  41.1890560
  22.3725400 152.4157310  41.5380660  22.7068620 151.0900480  40.8879340
  19.5421670 148.5824700  39.5943050  19.5457730 148.1414650  38.7447590
  20.4372790 148.9042030  39.7014870  15.3924050 148.4651190  38.5537260
  15.0524100 148.9426420  39.3104310  14.6301370 148.0116310  38.1938360
  19.6041820 149.5836780  32.5849810  19.7254640 149.5423260  33.5335630
  19.2190330 150.4460930  32.4296540  23.5670190 147.3604180  40.6013500
  23.5842930 147.8112830  41.4455350  23.3185770 146.4609820  40.8146940
  18.6163320 151.8937920  31.9833110  18.0480220 151.4456170  31.3569020
  19.3252320 152.2530700  31.4498260  26.9940940 144.7736360  46.4399880
  27.3186710 144.0426020  46.9657860  27.0297450 144.4550000  45.5380870
  19.8429640 152.6426480  41.3408460  20.2099770 152.1685050  42.0869800
  19.6534700 153.5168050  41.6816800  12.7070130 147.3870170  37.4701930
  12.4217050 147.0225840  38.3080550  12.6448990 146.6550630  36.8565070
  17.6329010 151.6835120  43.6592670  17.3286080 152.5627100  43.8843030
  18.5875470 151.7434910  43.6950110  22.3808720 146.2799430  34.1915300
  21.5673330 145.7812600  34.1160610  22.1870670 147.1197680  33.7751650
  25.0957110 150.6519080  32.4877460  25.9836730 150.9636310  32.3128800
  25.0662200 149.7791330  32.0958040  13.6892740 152.5237860  44.8064030
  13.3307680 153.1891710  45.3937370  13.3947300 151.6921410  45.1776650
  16.8905860 152.9822100  47.6903580  16.5906000 153.1279280  46.7931400
  17.6617100 152.4227390  47.5976970  27.3671380 151.9630920  31.9557320
  27.2835100 152.3945140  31.1053760  28.0865570 152.4229270  32.3884140
  12.2000790 152.5229120  31.4298630  13.0695640 152.8053920  31.7134550
  11.7091110 153.3364990  31.3147440  15.2647380 144.2539980  36.0229430
  15.1362010 144.2457880  36.9714350  14.4409400 144.5923070  35.6720440
  12.2641310 146.0131100  45.4836130  11.5499830 146.2128020  46.0888740
  12.6836350 145.2370670  45.8550930  23.7580090 148.5053410  43.2337580
  24.1260910 147.6848620  43.5617150  22.8978290 148.5655300  43.6493230
  27.1242120 147.4610350  34.0425140  26.4955280 147.5656020  33.3283370
  26.6294040 147.6807130  34.8319020  19.0926150 149.7396300  35.4583020
  18.3842300 150.2082640  35.8996630  19.3770630 149.0818310  36.0928210
  20.7182080 151.1593000  43.4575550  21.2167330 151.6338820  44.1227400
  20.8605030 150.2356520  43.6645580  23.1241580 146.4646960  36.8978810
  23.0009360 146.4833090  35.9488320  24.0726140 146.5125900  37.0177210
  17.2961170 148.0481380  32.8333730  18.1451700 148.4851530  32.7673920
  16.9292440 148.3601640  33.6605790  27.9248940 147.3760960  44.3003940
  27.4222540 148.1166360  44.6397750  28.7405600 147.7644960  43.9840730
  26.2170950 152.6194140  37.7465300  25.2761090 152.6344370  37.9212990
  26.5315020 151.8330100  38.1925600  16.1952590 154.3013740  31.3069260
  16.9615860 154.1895100  31.8694690  16.2727280 153.6051710  30.6546030
  14.8899350 151.7338810  31.9902150  14.9702940 150.7866320  32.1019550
  15.7819100 152.0645690  32.0962810  12.4170150 153.5553730  47.2258320
  12.9209170 152.9761010  47.7974550  11.6777570 153.8393960  47.7634690
  14.4493230 151.6983320  48.1208390  14.4898570 151.3997190  49.0293620
  15.3038730 152.0990930  47.9615910  18.2271620 154.2978870  33.2811900
  18.6488040 154.1318740  34.1243290  18.3522460 153.4879100  32.7867040
  16.3899040 150.2775420  46.0882880  15.8595500 149.7866370  45.4606220
  17.0587110 150.7059620  45.5540810  20.7399260 153.3216480  30.5289000
  21.2604920 152.6065500  30.1630150  21.3867660 153.9602350  30.8289510
  25.7599270 152.0841040  47.8563220  26.3420040 151.3293360  47.7683700
  25.9361040 152.6148480  47.0794700  16.8771340 147.2437790  46.1680170
  16.7828210 146.6258540  45.4431040  16.2968730 147.9704080  45.9410080
  19.6432780 145.8011030  43.2007560  19.1950080 145.8235290  42.3553110
  19.0097980 145.4030050  43.7977860  22.3856230 152.4281540  45.2057840
  22.5052440 151.8322680  45.9452680  23.2450230 152.4651230  44.7859140
  24.7244130 152.9818730  43.7820350  24.1979350 153.5061350  43.1785490
  25.0675470 153.6146120  44.4130080  17.1230520 150.3712100  30.2270060
  16.9219580 149.5079460  30.5883400  16.9522570 150.2845460  29.2891660
  19.1525000 148.9702890  46.4633660  19.7424690 148.6618740  47.1511480
  18.3345240 148.4982640  46.6193560  23.9718430 148.5868700  46.6966680
  23.2833950 147.9250240  46.6316670  24.6924450 148.1406970  47.1415140
  24.6018830 145.1820330  32.7556940  24.8821120 144.3388230  33.1116360
  23.8284560 145.4143440  33.2695690  15.9213320 147.4712720  30.2147940
  16.2239220 147.4780150  29.3067090  16.6607910 147.1210580  30.7115600
  19.1398250 146.4147340  31.2004140  18.7920250 145.7371330  30.6206590
  19.3411020 145.9536850  32.0147530  12.4803890 152.9434990  37.5968510
  11.8252730 152.6746630  36.9528210  13.3181840 152.8339470  37.1470490
  25.4294330 147.7376280  31.8187000  25.8479210 147.5507260  30.9783660
  25.1230390 146.8855330  32.1289930  28.9284060 152.6500420  35.5162800
  28.5527660 151.8828350  35.0844090  28.1987180 153.0323120  36.0037730
  13.5179820 153.3287560  42.1371850  13.8852860 153.2414960  43.0167870
  12.9490640 152.5654110  42.0378710  28.3183680 151.7971940  45.1502320
  28.0869770 151.5684690  44.2500270  28.5788230 152.7171490  45.1047210
  13.0695820 150.2396650  46.0430270  12.1751870 150.2063410  46.3823980
  13.6093370 150.4383440  46.8081520  26.7571750 147.0228370  47.9282020
  27.6341930 147.0311770  48.3116020  26.7692590 146.2859210  47.3174370
  11.6941970 150.1533920  33.5393840  10.7906050 150.4164120  33.3645500
  12.1782590 150.4245090  32.7593800  28.2035020 150.8757910  38.8170040
  28.7272500 150.3820560  38.1860210  28.7894440 151.0108270  39.5617610
  28.3824740 150.9597780  42.3389590  27.4327450 150.9261320  42.4534580
  28.5637750 151.8697890  42.1039360  14.2369180 149.2099460  31.4488220
  14.9460880 148.7882680  30.9635500  13.5209120 149.2774690  30.8171570
  13.8843340 145.2638790  30.4890870  14.6071470 145.8047730  30.8072090
  14.1567860 144.9902210  29.6132410  27.6934990 150.1331260  34.7562450
  28.1894110 149.9002130  35.5411330  27.4951060 149.2943100  34.3400090
  13.5735530 144.5144980  40.3913490  14.2211720 143.9642360  39.9508650
  13.9937370 144.7688130  41.2129300  29.1222150 148.7692210  37.2900130
  29.0121430 148.6148250  38.2282400  29.8829740 148.2413150  37.0475540
  27.4687870 144.7086340  43.7483130  28.1060090 145.3220480  44.1142320
  27.6162760 144.7447000  42.8032360  30.0112420 146.6000130  30.5306270
  30.9361730 146.4681310  30.3224560  29.9888210 146.6792950  31.4842720
  30.0850910 147.3710790  33.1562980  29.2902410 147.3055910  33.6855890
  30.2894190 148.3061430  33.1448330  13.3267530 144.6700650  43.1338810
  12.9782350 145.1264470  43.8996990  12.9955230 143.7757780  43.2161240
  20.8392350 145.8612530  46.6558230  20.7781240 146.4534360  47.4053640
  21.7792730 145.7538490  46.5108490  23.4766910 145.5182590  46.2950520
  24.0907320 145.8361880  45.6331600  24.0216470 145.0331180  46.9146380
  13.9988170 144.1976850  46.4089580  14.5471160 144.0164900  45.6455690
  14.0643480 143.4070960  46.9445890  24.2174950 144.0814730  42.6219810
  23.3434790 144.4149840  42.4192740  24.1085700 143.6087910  43.4471680
  25.1246930 146.2885600  44.0061530  24.7960290 145.4737360  43.6263260
  26.0729230 146.2455410  43.8827220  21.9649770 144.9984570  41.5612720
  21.1821560 145.4730070  41.8409480  21.6712700 144.0939400  41.4525900
  26.5170840 145.7007670  39.6061810  26.9578930 145.6452770  38.7583410
  26.2478430 146.6165680  39.6771990  28.3809410 145.3322910  37.6170630
  28.3197810 144.3884130  37.4701650  29.1601440 145.4403000  38.1624090
  13.3090180 145.3032050  34.0826440  14.0669540 145.4160930  33.5090470
  12.8467350 146.1401250  34.0369870  19.8503990 147.4171320  37.0728750
  19.0378500 147.0428210  36.7324630  20.3545630 146.6616400  37.3749940
  24.3528970 144.0813770  38.3111820  24.9558340 144.6533980  38.7860340
  23.6121960 144.6453210  38.0885720  27.4963570 144.4835330  33.5852100
  27.6914200 145.3818780  33.8519530  26.7093440 144.2522410  34.0785050
  15.6815330 145.8296100  32.6228410  16.2108090 145.0425900  32.4936360
  16.3143650 146.5087290  32.8563940  17.8753170 145.5671240  35.6773800
  17.2455910 144.8658550  35.8443930  17.3358310 146.3275370  35.4606960
  18.0008730 144.8455220  48.1126290  17.7193000 145.3488820  47.3487110
  18.3828430 144.0476970  47.7468420  24.6024190 144.2608800  48.6906760
  24.4889640 144.5803410  49.5858280  25.4193930 144.6621310  48.3944040
  23.5082340 152.2801270  19.0541500  23.4276390 151.3655880  18.7833210
  23.0946760 152.7768340  18.3481210  21.6400380 154.0580290  20.9350770
  20.8642480 153.5780730  21.2249340  22.2913310 153.3785940  20.7606930
  14.0658160 149.3301990  15.5968920  13.1774860 149.6717960  15.4948800
  14.3499350 149.1302310  14.7049750  12.0291170 151.9307640  21.4808620
  12.6007280 151.1629840  21.4812260  12.0292710 152.2296400  20.5715230
  13.2716040 147.3392000  23.2677550  13.0918880 146.4417750  23.5480310
  12.8696120 147.8863870  23.9424500  22.1114540 149.5407860  21.1689860
  22.4879360 148.6679740  21.0563530  22.0134050 149.8766560  20.2780300
  16.2419550 147.9133490  16.6307300  16.3486300 148.8137220  16.9376060
  15.3311910 147.8651460  16.3401950  25.8938660 147.0358300  18.1018200
  26.7148280 146.5454870  18.1443680  25.9272740 147.6255960  18.8550040
  13.8902710 149.8352500  21.8759890  14.5712820 150.0990870  22.4947290
  13.5750760 148.9953370  22.2097900  18.0827280 150.8819860  20.9632480
  18.5905500 151.3800830  21.6037500  18.6140520 150.1055060  20.7871840
  30.1838210 149.0525050  24.6661830  29.4790380 149.4406760  24.1476940
  30.4496130 149.7475340  25.2682760  16.3663380 145.5218420  25.2295900
  16.3681820 146.0390810  24.4241800  15.5367690 145.0448600  25.2065830
  26.1300140 148.9758680  20.8745740  25.4255710 149.2643570  21.4548850
  26.4912300 149.7858790  20.5145300  16.0478710 147.2328380  23.2366350
  16.3895520 148.0770430  22.9420220  15.1094520 147.3812120  23.3531690
  29.1987060 148.4213470  21.2654950  28.2511970 148.4552450  21.3970380
  29.5237050 149.2352420  21.6504310  19.7306600 144.7210650  19.5610940
  20.0381580 144.1657540  18.8446440  18.8007300 144.8555110  19.3783930
  22.1187360 152.7859480  16.2971060  21.1916640 152.7196860  16.5259530
  22.2712180 153.7239610  16.1826300  22.1056440 149.0576480  13.2938220
  21.1660110 149.2190440  13.3790680  22.4239700 149.7762160  12.7474210
  25.5911210 150.5264320  24.2172120  25.1782390 151.3518030  24.4712110
  24.8587160 149.9409360  24.0248480  17.7244000 153.3124220  19.0790790
  17.3201000 152.6001470  18.5836690  17.8107120 152.9677460  19.9678830
  16.4372620 150.0867430  22.8589830  16.9887210 150.1962770  22.0843080
  16.9516130 150.4605030  23.5745060  24.3249350 153.5866590  13.8079060
  24.7642630 152.7489020  13.6616880  25.0377770 154.2195990  13.8943200
  27.9066490 144.8409400  12.1220100  27.5939150 144.9336230  13.0219170
  28.6678960 145.4190430  12.0717530  14.4248630 152.2069200  16.5797440
  14.3046230 152.9331290  15.9678710  14.1149520 151.4372110  16.1025350
  29.1167780 149.5780900  28.0994240  28.5012050 150.0860570  27.5709700
  28.7964200 148.6779230  28.0420180  16.8912290 145.5504270  19.9621110
  16.4480440 146.3313810  19.6305630  17.4497280 145.8734160  20.6692050
  21.1782100 148.4172790  25.5656430  20.7161470 148.6255810  26.3776370
  20.7760210 147.6032140  25.2627100  26.1786610 149.6381740  26.6953090
  25.3280200 149.3387490  27.0162160  26.0188400 149.8823750  25.7836910
  23.2736320 151.1383490  28.7951880  23.5989730 150.3047240  28.4554110
  24.0616650 151.6612010  28.9430210  20.0071110 145.1714970  14.8426940
  19.3825290 145.1674840  15.5680250  19.9201230 144.3045930  14.4462910
  18.9288190 146.0951600  21.8210710  19.2260520 147.0014430  21.7402730
  19.4773750 145.6070380  21.2070280  16.6826510 150.6737840  17.6902360
  16.4567430 150.4575010  18.5948980  15.9019040 151.1066300  17.3448330
  23.9124270 150.6801210  16.2893010  23.3133160 151.4037010  16.1056630
  24.4603880 150.6177990  15.5069460  19.1225720 151.5723420  28.3562630
  19.0269320 150.6318150  28.2063030  19.9657700 151.7938490  27.9610700
  22.5189140 149.3164750  18.3196290  22.9118710 149.6336950  17.5064980
  22.8805990 148.4376630  18.4340810  14.2536260 147.9837090  26.5096410
  13.8599650 148.8312300  26.7169190  13.5654660 147.3463460  26.7005050
  20.8281310 148.0672060  29.5793150  20.1379630 147.8744260  30.2139240
  21.5713610 148.3506700  30.1117450  11.5553310 145.9065550  20.5426490
  11.2666360 146.4768410  21.2551470  12.2999070 145.4270000  20.9057720
  11.7423540 149.8485670  11.7529210  11.6598210 150.7916430  11.8944200
  11.3906600 149.7060580  10.8741560  23.1044280 151.9070500  22.4147070
  22.3725400 152.4157310  22.7637170  22.7068620 151.0900480  22.1135850
  19.5421670 148.5824700  20.8199560  19.5457730 148.1414650  19.9704100
  20.4372790 148.9042030  20.9271380  15.3924050 148.4651190  19.7793770
  15.0524100 148.9426420  20.5360820  14.6301370 148.0116310  19.4194870
  19.6041820 149.5836780  13.8106320  19.7254640 149.5423260  14.7592140
  19.2190330 150.4460930  13.6553050  23.5670190 147.3604180  21.8270010
  23.5842930 147.8112830  22.6711860  23.3185770 146.4609820  22.0403450
  18.6163320 151.8937920  13.2089620  18.0480220 151.4456170  12.5825530
  19.3252320 152.2530700  12.6754770  26.9940940 144.7736360  27.6656390
  27.3186710 144.0426020  28.1914370  27.0297450 144.4550000  26.7637380
  19.8429640 152.6426480  22.5664970  20.2099770 152.1685050  23.3126310
  19.6534700 153.5168050  22.9073310  12.7070130 147.3870170  18.6958440
  12.4217050 147.0225840  19.5337060  12.6448990 146.6550630  18.0821580
  17.6329010 151.6835120  24.8849180  17.3286080 152.5627100  25.1099540
  18.5875470 151.7434910  24.9206620  22.3808720 146.2799430  15.4171810
  21.5673330 145.7812600  15.3417120  22.1870670 147.1197680  15.0008160
  25.0957110 150.6519080  13.7133970  25.9836730 150.9636310  13.5385310
  25.0662200 149.7791330  13.3214550  13.6892740 152.5237860  26.0320540
  13.3307680 153.1891710  26.6193880  13.3947300 151.6921410  26.4033160
  16.8905860 152.9822100  28.9160090  16.5906000 153.1279280  28.0187910
  17.6617100 152.4227390  28.8233480  27.3671380 151.9630920  13.1813830
  27.2835100 152.3945140  12.3310270  28.0865570 152.4229270  13.6140650
  12.2000790 152.5229120  12.6555140  13.0695640 152.8053920  12.9391060
  11.7091110 153.3364990  12.5403950  15.2647380 144.2539980  17.2485940
  15.1362010 144.2457880  18.1970860  14.4409400 144.5923070  16.8976950
  12.2641310 146.0131100  26.7092640  11.5499830 146.2128020  27.3145250
  12.6836350 145.2370670  27.0807440  23.7580090 148.5053410  24.4594090
  24.1260910 147.6848620  24.7873660  22.8978290 148.5655300  24.8749740
  27.1242120 147.4610350  15.2681650  26.4955280 147.5656020  14.5539880
  26.6294040 147.6807130  16.0575530  19.0926150 149.7396300  16.6839530
  18.3842300 150.2082640  17.1253140  19.3770630 149.0818310  17.3184720
  20.7182080 151.1593000  24.6832060  21.2167330 151.6338820  25.3483910
  20.8605030 150.2356520  24.8902090  23.1241580 146.4646960  18.1235320
  23.0009360 146.4833090  17.1744830  24.0726140 146.5125900  18.2433720
  17.2961170 148.0481380  14.0590240  18.1451700 148.4851530  13.9930430
  16.9292440 148.3601640  14.8862300  27.9248940 147.3760960  25.5260450
  27.4222540 148.1166360  25.8654260  28.7405600 147.7644960  25.2097240
  26.2170950 152.6194140  18.9721810  25.2761090 152.6344370  19.1469500
  26.5315020 151.8330100  19.4182110  16.1952590 154.3013740  12.5325770
  16.9615860 154.1895100  13.0951200  16.2727280 153.6051710  11.8802540
  14.8899350 151.7338810  13.2158660  14.9702940 150.7866320  13.3276060
  15.7819100 152.0645690  13.3219320  12.4170150 153.5553730  28.4514830
  12.9209170 152.9761010  29.0231060  11.6777570 153.8393960  28.9891200
  14.4493230 151.6983320  29.3464900  14.4898570 151.3997190  30.2550130
  15.3038730 152.0990930  29.1872420  18.2271620 154.2978870  14.5068410
  18.6488040 154.1318740  15.3499800  18.3522460 153.4879100  14.0123550
  16.3899040 150.2775420  27.3139390  15.8595500 149.7866370  26.6862730
  17.0587110 150.7059620  26.7797320  20.7399260 153.3216480  11.7545510
  21.2604920 152.6065500  11.3886660  21.3867660 153.9602350  12.0546020
  25.7599270 152.0841040  29.0819730  26.3420040 151.3293360  28.9940210
  25.9361040 152.6148480  28.3051210  16.8771340 147.2437790  27.3936680
  16.7828210 146.6258540  26.6687550  16.2968730 147.9704080  27.1666590
  19.6432780 145.8011030  24.4264070  19.1950080 145.8235290  23.5809620
  19.0097980 145.4030050  25.0234370  22.3856230 152.4281540  26.4314350
  22.5052440 151.8322680  27.1709190  23.2450230 152.4651230  26.0115650
  24.7244130 152.9818730  25.0076860  24.1979350 153.5061350  24.4042000
  25.0675470 153.6146120  25.6386590  17.1230520 150.3712100  11.4526570
  16.9219580 149.5079460  11.8139910  16.9522570 150.2845460  10.5148170
  19.1525000 148.9702890  27.6890170  19.7424690 148.6618740  28.3767990
  18.3345240 148.4982640  27.8450070  23.9718430 148.5868700  27.9223190
  23.2833950 147.9250240  27.8573180  24.6924450 148.1406970  28.3671650
  24.6018830 145.1820330  13.9813450  24.8821120 144.3388230  14.3372870
  23.8284560 145.4143440  14.4952200  15.9213320 147.4712720  11.4404450
  16.2239220 147.4780150  10.5323600  16.6607910 147.1210580  11.9372110
  19.1398250 146.4147340  12.4260650  18.7920250 145.7371330  11.8463100
  19.3411020 145.9536850  13.2404040  12.4803890 152.9434990  18.8225020
  11.8252730 152.6746630  18.1784720  13.3181840 152.8339470  18.3727000
  25.4294330 147.7376280  13.0443510  25.8479210 147.5507260  12.2040170
  25.1230390 146.8855330  13.3546440  28.9284060 152.6500420  16.7419310
  28.5527660 151.8828350  16.3100600  28.1987180 153.0323120  17.2294240
  13.5179820 153.3287560  23.3628360  13.8852860 153.2414960  24.2424380
  12.9490640 152.5654110  23.2635220  28.3183680 151.7971940  26.3758830
  28.0869770 151.5684690  25.4756780  28.5788230 152.7171490  26.3303720
  13.0695820 150.2396650  27.2686780  12.1751870 150.2063410  27.6080490
  13.6093370 150.4383440  28.0338030  26.7571750 147.0228370  29.1538530
  27.6341930 147.0311770  29.5372530  26.7692590 146.2859210  28.5430880
  11.6941970 150.1533920  14.7650350  10.7906050 150.4164120  14.5902010
  12.1782590 150.4245090  13.9850310  28.2035020 150.8757910  20.0426550
  28.7272500 150.3820560  19.4116720  28.7894440 151.0108270  20.7874120
  28.3824740 150.9597780  23.5646100  27.4327450 150.9261320  23.6791090
  28.5637750 151.8697890  23.3295870  14.2369180 149.2099460  12.6744730
  14.9460880 148.7882680  12.1892010  13.5209120 149.2774690  12.0428080
  13.8843340 145.2638790  11.7147380  14.6071470 145.8047730  12.0328600
  14.1567860 144.9902210  10.8388920  27.6934990 150.1331260  15.9818960
  28.1894110 149.9002130  16.7667840  27.4951060 149.2943100  15.5656600
  13.5735530 144.5144980  21.6170000  14.2211720 143.9642360  21.1765160
  13.9937370 144.7688130  22.4385810  29.1222150 148.7692210  18.5156640
  29.0121430 148.6148250  19.4538910  29.8829740 148.2413150  18.2732050
  27.4687870 144.7086340  24.9739640  28.1060090 145.3220480  25.3398830
  27.6162760 144.7447000  24.0288870  30.0112420 146.6000130  11.7562780
  30.9361730 146.4681310  11.5481070  29.9888210 146.6792950  12.7099230
  30.0850910 147.3710790  14.3819490  29.2902410 147.3055910  14.9112400
  30.2894190 148.3061430  14.3704840  13.3267530 144.6700650  24.3595320
  12.9782350 145.1264470  25.1253500  12.9955230 143.7757780  24.4417750
  20.8392350 145.8612530  27.8814740  20.7781240 146.4534360  28.6310150
  21.7792730 145.7538490  27.7365000  23.4766910 145.5182590  27.5207030
  24.0907320 145.8361880  26.8588110  24.0216470 145.0331180  28.1402890
  13.9988170 144.1976850  27.6346090  14.5471160 144.0164900  26.8712200
  14.0643480 143.4070960  28.1702400  24.2174950 144.0814730  23.8476320
  23.3434790 144.4149840  23.6449250  24.1085700 143.6087910  24.6728190
  25.1246930 146.2885600  25.2318040  24.7960290 145.4737360  24.8519770
  26.0729230 146.2455410  25.1083730  21.9649770 144.9984570  22.7869230
  21.1821560 145.4730070  23.0665990  21.6712700 144.0939400  22.6782410
  26.5170840 145.7007670  20.8318320  26.9578930 145.6452770  19.9839920
  26.2478430 146.6165680  20.9028500  28.3809410 145.3322910  18.8427140
  28.3197810 144.3884130  18.6958160  29.1601440 145.4403000  19.3880600
  13.3090180 145.3032050  15.3082950  14.0669540 145.4160930  14.7346980
  12.8467350 146.1401250  15.2626380  19.8503990 147.4171320  18.2985260
  19.0378500 147.0428210  17.9581140  20.3545630 146.6616400  18.6006450
  24.3528970 144.0813770  19.5368330  24.9558340 144.6533980  20.0116850
  23.6121960 144.6453210  19.3142230  27.4963570 144.4835330  14.8108610
  27.6914200 145.3818780  15.0776040  26.7093440 144.2522410  15.3041560
  15.6815330 145.8296100  13.8484920  16.2108090 145.0425900  13.7192870
  16.3143650 146.5087290  14.0820450  17.8753170 145.5671240  16.9030310
  17.2455910 144.8658550  17.0700440  17.3358310 146.3275370  16.6863470
  18.0008730 144.8455220  29.3382800  17.7193000 145.3488820  28.5743620
  18.3828430 144.0476970  28.9724930  24.6024190 144.2608800  29.9163270
  24.4889640 144.5803410  30.8114790  25.4193930 144.6621310  29.6200550
  21.6400380 154.0580290   2.1607280  20.8642480 153.5780730   2.4505850
  22.2913310 153.3785940   1.9863440  12.0291170 151.9307640   2.7065130
  12.6007280 151.1629840   2.7068770  12.0292710 152.2296400   1.7971740
  13.2716040 147.3392000   4.4934060  13.0918880 146.4417750   4.7736820
  12.8696120 147.8863870   5.1681010  13.8902710 149.8352500   3.1016400
  14.5712820 150.0990870   3.7203800  13.5750760 148.9953370   3.4354410
  18.0827280 150.8819860   2.1888990  18.5905500 151.3800830   2.8294010
  18.6140520 150.1055060   2.0128350  30.1838210 149.0525050   5.8918340
  29.4790380 149.4406760   5.3733450  30.4496130 149.7475340   6.4939270
  16.3663380 145.5218420   6.4552410  16.3681820 146.0390810   5.6498310
  15.5367690 145.0448600   6.4322340  26.1300140 148.9758680   2.1002250
  25.4255710 149.2643570   2.6805360  26.4912300 149.7858790   1.7401810
  16.0478710 147.2328380   4.4622860  16.3895520 148.0770430   4.1676730
  15.1094520 147.3812120   4.5788200  29.1987060 148.4213470   2.4911460
  28.2511970 148.4552450   2.6226890  29.5237050 149.2352420   2.8760820
  25.5911210 150.5264320   5.4428630  25.1782390 151.3518030   5.6968620
  24.8587160 149.9409360   5.2504990  16.4372620 150.0867430   4.0846340
  16.9887210 150.1962770   3.3099590  16.9516130 150.4605030   4.8001570
  29.1167780 149.5780900   9.3250750  28.5012050 150.0860570   8.7966210
  28.7964200 148.6779230   9.2676690  21.1782100 148.4172790   6.7912940
  20.7161470 148.6255810   7.6032880  20.7760210 147.6032140   6.4883610
  26.1786610 149.6381740   7.9209600  25.3280200 149.3387490   8.2418670
  26.0188400 149.8823750   7.0093420  23.2736320 151.1383490  10.0208390
  23.5989730 150.3047240   9.6810620  24.0616650 151.6612010  10.1686720
  18.9288190 146.0951600   3.0467220  19.2260520 147.0014430   2.9659240
  19.4773750 145.6070380   2.4326790  19.1225720 151.5723420   9.5819140
  19.0269320 150.6318150   9.4319540  19.9657700 151.7938490   9.1867210
  14.2536260 147.9837090   7.7352920  13.8599650 148.8312300   7.9425700
  13.5654660 147.3463460   7.9261560  20.8281310 148.0672060  10.8049660
  20.1379630 147.8744260  11.4395750  21.5713610 148.3506700  11.3373960
  11.5553310 145.9065550   1.7683000  11.2666360 146.4768410   2.4807980
  12.2999070 145.4270000   2.1314230  23.1044280 151.9070500   3.6403580
  22.3725400 152.4157310   3.9893680  22.7068620 151.0900480   3.3392360
  23.5670190 147.3604180   3.0526520  23.5842930 147.8112830   3.8968370
  23.3185770 146.4609820   3.2659960  26.9940940 144.7736360   8.8912900
  27.3186710 144.0426020   9.4170880  27.0297450 144.4550000   7.9893890
  19.8429640 152.6426480   3.7921480  20.2099770 152.1685050   4.5382820
  19.6534700 153.5168050   4.1329820  17.6329010 151.6835120   6.1105690
  17.3286080 152.5627100   6.3356050  18.5875470 151.7434910   6.1463130
  13.6892740 152.5237860   7.2577050  13.3307680 153.1891710   7.8450390
  13.3947300 151.6921410   7.6289670  16.8905860 152.9822100  10.1416600
  16.5906000 153.1279280   9.2444420  17.6617100 152.4227390  10.0489990
  12.2641310 146.0131100   7.9349150  11.5499830 146.2128020   8.5401760
  12.6836350 145.2370670   8.3063950  23.7580090 148.5053410   5.6850600
  24.1260910 147.6848620   6.0130170  22.8978290 148.5655300   6.1006250
  20.7182080 151.1593000   5.9088570  21.2167330 151.6338820   6.5740420
  20.8605030 150.2356520   6.1158600  27.9248940 147.3760960   6.7516960
  27.4222540 148.1166360   7.0910770  28.7405600 147.7644960   6.4353750
  12.4170150 153.5553730   9.6771340  12.9209170 152.9761010  10.2487570
  11.6777570 153.8393960  10.2147710  14.4493230 151.6983320  10.5721410
  14.4898570 151.3997190  11.4806640  15.3038730 152.0990930  10.4128930
  16.3899040 150.2775420   8.5395900  15.8595500 149.7866370   7.9119240
  17.0587110 150.7059620   8.0053830  25.7599270 152.0841040  10.3076240
  26.3420040 151.3293360  10.2196720  25.9361040 152.6148480   9.5307720
  16.8771340 147.2437790   8.6193190  16.7828210 146.6258540   7.8944060
  16.2968730 147.9704080   8.3923100  19.6432780 145.8011030   5.6520580
  19.1950080 145.8235290   4.8066130  19.0097980 145.4030050   6.2490880
  22.3856230 152.4281540   7.6570860  22.5052440 151.8322680   8.3965700
  23.2450230 152.4651230   7.2372160  24.7244130 152.9818730   6.2333370
  24.1979350 153.5061350   5.6298510  25.0675470 153.6146120   6.8643100
  19.1525000 148.9702890   8.9146680  19.7424690 148.6618740   9.6024500
  18.3345240 148.4982640   9.0706580  23.9718430 148.5868700   9.1479700
  23.2833950 147.9250240   9.0829690  24.6924450 148.1406970   9.5928160
  13.5179820 153.3287560   4.5884870  13.8852860 153.2414960   5.4680890
  12.9490640 152.5654110   4.4891730  28.3183680 151.7971940   7.6015340
  28.0869770 151.5684690   6.7013290  28.5788230 152.7171490   7.5560230
  13.0695820 150.2396650   8.4943290  12.1751870 150.2063410   8.8337000
  13.6093370 150.4383440   9.2594540  26.7571750 147.0228370  10.3795040
  27.6341930 147.0311770  10.7629040  26.7692590 146.2859210   9.7687390
  28.3824740 150.9597780   4.7902610  27.4327450 150.9261320   4.9047600
  28.5637750 151.8697890   4.5552380  13.5735530 144.5144980   2.8426510
  14.2211720 143.9642360   2.4021670  13.9937370 144.7688130   3.6642320
  27.4687870 144.7086340   6.1996150  28.1060090 145.3220480   6.5655340
  27.6162760 144.7447000   5.2545380  13.3267530 144.6700650   5.5851830
  12.9782350 145.1264470   6.3510010  12.9955230 143.7757780   5.6674260
  20.8392350 145.8612530   9.1071250  20.7781240 146.4534360   9.8566660
  21.7792730 145.7538490   8.9621510  23.4766910 145.5182590   8.7463540
  24.0907320 145.8361880   8.0844620  24.0216470 145.0331180   9.3659400
  13.9988170 144.1976850   8.8602600  14.5471160 144.0164900   8.0968710
  14.0643480 143.4070960   9.3958910  24.2174950 144.0814730   5.0732830
  23.3434790 144.4149840   4.8705760  24.1085700 143.6087910   5.8984700
  25.1246930 146.2885600   6.4574550  24.7960290 145.4737360   6.0776280
  26.0729230 146.2455410   6.3340240  21.9649770 144.9984570   4.0125740
  21.1821560 145.4730070   4.2922500  21.6712700 144.0939400   3.9038920
  18.0008730 144.8455220  10.5639310  17.7193000 145.3488820   9.8000130
  18.3828430 144.0476970  10.1981440  24.6024190 144.2608800  11.1419780
  24.4889640 144.5803410  12.0371300  25.4193930 144.6621310  10.8457060
  23.5082340 133.5057780 150.4745930  23.4276390 132.5912390 150.2037640
  23.0946760 134.0024850 149.7685640  25.6607810 139.6896990 151.1354330
  25.1989340 138.9184230 151.4641500  26.4733360 139.7163060 151.6406780
  14.0658160 130.5558500 147.0173350  13.1774860 130.8974470 146.9153230
  14.3499350 130.3558820 146.1254180  21.8871120 141.9755000 150.7558320
  21.2682560 142.4312500 150.1852760  22.7422900 142.1306460 150.3548020
  16.2419550 129.1390000 148.0511730  16.3486300 130.0393730 148.3580490
  15.3311910 129.0907970 147.7606380  25.8938660 128.2614810 149.5222630
  26.7148280 127.7711380 149.5648110  25.9272740 128.8512470 150.2754470
  22.7534470 136.8594240 148.1490230  22.1351740 137.3243690 147.5852950
  23.2657720 137.5521720 148.5659740  12.1217670 137.5450770 145.5229860
  11.7445650 138.0337870 144.7914760  12.3790740 138.2176050 146.1536390
  19.7306600 125.9467160 150.9815370  20.0381580 125.3914050 150.2650870
  18.8007300 126.0811620 150.7988360  26.5767080 138.3850670 148.3613000
  26.4663410 137.4425000 148.4862420  26.5735330 138.7466310 149.2475760
  22.1187360 134.0115990 147.7175490  21.1916640 133.9453370 147.9463960
  22.2712180 134.9496120 147.6030730  22.1056440 130.2832990 144.7142650
  21.1660110 130.4446950 144.7995110  22.4239700 131.0018670 144.1678640
  26.1484650 135.5736290 148.2210740  25.5297070 135.2355840 147.5737040
  26.1309100 134.9296050 148.9289930  17.7244000 134.5380730 150.4995220
  17.3201000 133.8257980 150.0041120  17.8107120 134.1933970 151.3883260
  24.3249350 134.8123100 145.2283490  24.7642630 133.9745530 145.0821310
  25.0377770 135.4452500 145.3147630  22.4344730 139.7519170 149.1964730
  22.8740640 140.4943500 148.7820120  22.3731620 139.9945740 150.1203690
  27.9066490 126.0665910 143.5424530  27.5939150 126.1592740 144.4423600
  28.6678960 126.6446940 143.4921960  14.4248630 133.4325710 148.0001870
  14.3046230 134.1587800 147.3883140  14.1149520 132.6628620 147.5229780
  13.3081630 138.3041040 150.2176690  12.9009710 138.4455630 149.3630290
  14.1994640 138.0201200 150.0147900  25.1014910 142.7388290 146.5527740
  24.9416050 142.4491230 147.4509570  24.9361620 141.9628420 146.0172970
  17.5803290 142.5186820 148.3299360  17.4045770 141.6022360 148.1167160
  16.7259030 142.8774110 148.5697160  24.8041040 140.2475850 145.1125740
  24.1106200 140.2453140 144.4528020  25.5463900 139.8235170 144.6819910
  24.3690970 141.8738560 149.1874230  24.8247920 141.0927940 149.5012850
  24.7083490 142.5845380 149.7315410  16.8912290 126.7760780 151.3825540
  16.4480440 127.5570320 151.0510060  17.4497280 127.0990670 152.0896480
  20.0071110 126.3971480 146.2631370  19.3825290 126.3931350 146.9884680
  19.9201230 125.5302440 145.8667340  16.6826510 131.8994350 149.1106790
  16.4567430 131.6831520 150.0153410  15.9019040 132.3322810 148.7652760
  23.9124270 131.9057720 147.7097440  23.3133160 132.6293520 147.5261060
  24.4603880 131.8434500 146.9273890  22.5189140 130.5421260 149.7400720
  22.9118710 130.8593460 148.9269410  22.8805990 129.6633140 149.8545240
  11.7423540 131.0742180 143.1733640  11.6598210 132.0172940 143.3148630
  11.3906600 130.9317090 142.2945990  19.5421670 129.8081210 152.2403990
  19.5457730 129.3671160 151.3908530  20.4372790 130.1298540 152.3475810
  15.3924050 129.6907700 151.1998200  15.0524100 130.1682930 151.9565250
  14.6301370 129.2372820 150.8399300  19.6041820 130.8093290 145.2310750
  19.7254640 130.7679770 146.1796570  19.2190330 131.6717440 145.0757480
  18.6163320 133.1194430 144.6294050  18.0480220 132.6712680 144.0029960
  19.3252320 133.4787210 144.0959200  12.7070130 128.6126680 150.1162870
  12.4217050 128.2482350 150.9541490  12.6448990 127.8807140 149.5026010
  16.1610800 137.1152620 146.9020460  15.3873060 136.5750240 146.7419180
  16.8905430 136.5959230 146.5638220  22.3808720 127.5055940 146.8376240
  21.5673330 127.0069110 146.7621550  22.1870670 128.3454190 146.4212590
  25.0957110 131.8775590 145.1338400  25.9836730 132.1892820 144.9589740
  25.0662200 131.0047840 144.7418980  16.2048200 136.7833000 150.5399270
  16.7226870 135.9801260 150.4856160  15.7532220 136.7212140 151.3816100
  21.0917700 138.0499280 145.8126570  21.4333400 138.7941510 145.3169890
  20.2630410 138.3630400 146.1751400  27.3671380 133.1887430 144.6018260
  27.2835100 133.6201650 143.7514700  28.0865570 133.6485780 145.0345080
  28.3958630 140.0429690 147.3300390  27.7534790 139.3885310 147.6044110
  28.0089290 140.4484780 146.5541060  23.9745110 137.3715120 151.1772080
  24.3268930 136.7743250 150.5173450  23.0907440 137.0459350 151.3480330
  20.0608390 138.1312810 148.5842490  20.7479520 138.6782020 148.9650080
  19.2740810 138.6753540 148.6192100  12.2000790 133.7485630 144.0759570
  13.0695640 134.0310430 144.3595490  11.7091110 134.5621500 143.9608380
  19.3635600 135.1358840 148.1967850  19.8198380 135.9464090 148.4228040
  19.0123810 134.8181980 149.0286340  15.2647380 125.4796490 148.6690370
  15.1362010 125.4714390 149.6175290  14.4409400 125.8179580 148.3181380
  26.7856010 138.9346150 143.8676740  26.5593590 138.2176590 144.4601380
  26.3952210 138.6858590 143.0298490  12.5672040 142.9613010 144.6421200
  12.9269680 143.5602350 143.9878470  12.4264380 143.5072900 145.4156230
  26.3672260 136.8518090 145.5290900  26.0793960 137.3130780 146.3168780
  27.1624430 136.3915860 145.7975120  18.5840660 140.3444210 145.4594870
  18.5750760 141.0773900 144.8439380  17.6639020 140.0975790 145.5521830
  14.1847300 135.5659100 146.2041630  13.5775250 136.3058000 146.2136930
  14.6596650 135.6558460 145.3779830  27.1242120 128.6866860 146.6886080
  26.4955280 128.7912530 145.9744310  26.6294040 128.9063640 147.4779960
  21.5700260 140.4072450 144.1220060  21.6712240 140.2036440 143.1922040
  20.6702000 140.1530730 144.3267840  19.0926150 130.9652810 148.1043960
  18.3842300 131.4339150 148.5457570  19.3770630 130.3074820 148.7389150
  23.1241580 127.6903470 149.5439750  23.0009360 127.7089600 148.5949260
  24.0726140 127.7382410 149.6638150  20.2118370 142.9258770 148.8167730
  20.4659870 142.8880160 147.8947100  19.2630850 142.7992100 148.8095980
  17.2961170 129.2737890 145.4794670  18.1451700 129.7108040 145.4134860
  16.9292440 129.5858150 146.3066730  26.2170950 133.8450650 150.3926240
  25.2761090 133.8600880 150.5673930  26.5315020 133.0586610 150.8386540
  16.1952590 135.5270250 143.9530200  16.9615860 135.4151610 144.5155630
  16.2727280 134.8308220 143.3006970  14.8899350 132.9595320 144.6363090
  14.9702940 132.0122830 144.7480490  15.7819100 133.2902200 144.7423750
  15.6914060 143.1090710 151.7397630  16.4276540 142.5606170 152.0106200
  16.0754980 143.9746720 151.6003620  12.5759540 139.1764280 147.6139140
  11.6499320 139.4185420 147.6044550  13.0415970 140.0038540 147.4923890
  18.8016370 142.2821020 143.5623200  19.5944980 142.5709850 143.1104990
  18.2820720 141.8513190 142.8835680  27.8546540 141.5091150 144.9859940
  27.5688050 141.0956290 144.1714120  27.6566090 142.4378860 144.8660460
  19.3193770 137.5024430 143.4265550  19.2144410 136.8876780 144.1526930
  19.1517990 136.9790320 142.6428560  22.5596500 136.5644460 144.0307540
  22.0106600 137.0113760 144.6750280  23.1815760 136.0593710 144.5545210
  18.2271620 135.5235380 145.9272840  18.6488040 135.3575250 146.7704230
  18.3522460 134.7135610 145.4327980  20.7399260 134.5472990 143.1749940
  21.2604920 133.8322010 142.8091090  21.3867660 135.1858860 143.4750450
  17.1230520 131.5968610 142.8731000  16.9219580 130.7335970 143.2344340
  16.9522570 131.5101970 141.9352600  24.6018830 126.4076840 145.4017880
  24.8821120 125.5644740 145.7577300  23.8284560 126.6399950 145.9156630
  15.9213320 128.6969230 142.8608880  16.2239220 128.7036660 141.9528030
  16.6607910 128.3467090 143.3576540  19.1398250 127.6403850 143.8465080
  18.7920250 126.9627840 143.2667530  19.3411020 127.1793360 144.6608470
  21.3047290 142.6284600 145.4651680  22.1998080 142.9669570 145.4870440
  21.3364920 141.9064010 144.8375960  14.9443450 138.0011650 143.6938680
  15.3818320 138.5441320 144.3496260  15.4291180 137.1758600 143.7035020
  12.1589250 140.7900680 151.1458940  12.4892260 139.9221740 150.9137580
  12.5880250 140.9959200 151.9763900  16.7551170 139.1209690 148.8060910
  16.4546710 138.9974660 149.7064820  16.6488660 138.2618280 148.3976640
  29.5243090 138.9006090 143.5087590  28.6936050 138.9682740 143.9794820
  29.7014920 139.7910210 143.2054450  28.9799550 135.6453570 146.0121790
  29.7418460 136.2150220 146.1181480  28.9953920 135.0780770 146.7830100
  12.4803890 134.1691500 150.2429450  11.8252730 133.9003140 149.5989150
  13.3181840 134.0595980 149.7931430  29.9859520 136.5003670 150.8563720
  30.3568350 135.7170990 150.4499690  30.6261450 137.1892770 150.6781020
  29.0318720 135.9387940 143.1694310  29.3067560 136.8466820 143.0413530
  28.8429460 135.8750470 144.1056300  25.4294330 128.9632790 144.4647940
  25.8479210 128.7763770 143.6244600  25.1230390 128.1111840 144.7750870
  28.9284060 133.8756930 148.1623740  28.5527660 133.1084860 147.7305030
  28.1987180 134.2579630 148.6498670  11.6941970 131.3790430 146.1854780
  10.7906050 131.6420630 146.0106440  12.1782590 131.6501600 145.4054740
  28.2035020 132.1014420 151.4630980  28.7272500 131.6077070 150.8321150
  28.7894440 132.2364780 152.2078550  14.2369180 130.4355970 144.0949160
  14.9460880 130.0139190 143.6096440  13.5209120 130.5031200 143.4632510
  13.8843340 126.4895300 143.1351810  14.6071470 127.0304240 143.4533030
  14.1567860 126.2158720 142.2593350  27.6934990 131.3587770 147.4023390
  28.1894110 131.1258640 148.1872270  27.4951060 130.5199610 146.9861030
  29.1222150 129.9948720 149.9361070  29.0121430 129.8404760 150.8743340
  29.8829740 129.4669660 149.6936480  30.0112420 127.8256640 143.1767210
  30.9361730 127.6937820 142.9685500  29.9888210 127.9049460 144.1303660
  30.0850910 128.5967300 145.8023920  29.2902410 128.5312420 146.3316830
  30.2894190 129.5317940 145.7909270  27.0269330 142.6358850 149.7962310
  27.6228400 142.3143420 149.1196730  27.2847480 142.1630670 150.5875580
  26.5170840 126.9264180 152.2522750  26.9578930 126.8709280 151.4044350
  26.2478430 127.8422190 152.3232930  28.3809410 126.5579420 150.2631570
  28.3197810 125.6140640 150.1162590  29.1601440 126.6659510 150.8085030
  12.6862160 142.6971780 149.2255520  12.5184200 142.0642460 149.9237410
  11.8196670 142.9031180 148.8749710  13.3090180 126.5288560 146.7287380
  14.0669540 126.6417440 146.1551410  12.8467350 127.3657760 146.6830810
  19.8503990 128.6427830 149.7189690  19.0378500 128.2684720 149.3785570
  20.3545630 127.8872910 150.0210880  24.3528970 125.3070280 150.9572760
  24.9558340 125.8790490 151.4321280  23.6121960 125.8709720 150.7346660
  27.4963570 125.7091840 146.2313040  27.6914200 126.6075290 146.4980470
  26.7093440 125.4778920 146.7245990  14.2924860 141.3905010 146.6705660
  13.7672480 141.7713040 145.9667620  14.2169440 142.0155780 147.3915370
  15.6815330 127.0552610 145.2689350  16.2108090 126.2682410 145.1397300
  16.3143650 127.7343800 145.5024880  17.8753170 126.7927750 148.3234740
  17.2455910 126.0915060 148.4904870  17.3358310 127.5531880 148.1067900
  29.0490180 142.9492550 147.9919600  29.2242370 142.2630290 147.3480520
  28.3511750 143.4739600 147.5996270  16.8917830 143.3387390 145.5454910
  17.6236650 143.0546670 144.9978800  17.1511500 143.1000670 146.4354290
  16.0532620 139.4552120 145.5501240  15.4241500 139.9237220 146.0987070
  16.1680450 138.6101340 145.9847430  23.5082340 133.5057780 131.7002440
  23.4276390 132.5912390 131.4294150  23.0946760 134.0024850 130.9942150
  21.6400380 135.2836800 133.5811710  20.8642480 134.8037240 133.8710280
  22.2913310 134.6042450 133.4067870  15.6566210 135.5956610 134.4587470
  14.8251090 135.3405320 134.8583980  16.2647190 135.6667380 135.1945390
  25.6607810 139.6896990 132.3610840  25.1989340 138.9184230 132.6898010
  26.4733360 139.7163060 132.8663290  15.6367470 139.6296700 134.6545490
  15.9395510 138.7394440 134.4755710  16.3811060 140.1866920 134.4267740
  14.0658160 130.5558500 128.2429860  13.1774860 130.8974470 128.1409740
  14.3499350 130.3558820 127.3510690  12.0291170 133.1564150 134.1269560
  12.6007280 132.3886350 134.1273200  12.0292710 133.4552910 133.2176170
  21.8871120 141.9755000 131.9814830  21.2682560 142.4312500 131.4109270
  22.7422900 142.1306460 131.5804530  21.0809370 137.9593990 133.5881870
  21.0117650 137.0183930 133.4271000  21.8429230 138.0495400 134.1604440
  13.2716040 128.5648510 135.9138490  13.0918880 127.6674260 136.1941250
  12.8696120 129.1120380 136.5885440  22.1114540 130.7664370 133.8150800
  22.4879360 129.8936250 133.7024470  22.0134050 131.1023070 132.9241240
  16.2419550 129.1390000 129.2768240  16.3486300 130.0393730 129.5837000
  15.3311910 129.0907970 128.9862890  25.8938660 128.2614810 130.7479140
  26.7148280 127.7711380 130.7904620  25.9272740 128.8512470 131.5010980
  13.8902710 131.0609010 134.5220830  14.5712820 131.3247380 135.1408230
  13.5750760 130.2209880 134.8558840  18.0827280 132.1076370 133.6093420
  18.5905500 132.6057340 134.2498440  18.6140520 131.3311570 133.4332780
  30.1838210 130.2781560 137.3122770  29.4790380 130.6663270 136.7937880
  30.4496130 130.9731850 137.9143700  16.3663380 126.7474930 137.8756840
  16.3681820 127.2647320 137.0702740  15.5367690 126.2705110 137.8526770
  22.7534470 136.8594240 129.3746740  22.1351740 137.3243690 128.8109460
  23.2657720 137.5521720 129.7916250  17.6166230 136.3870110 136.0530340
  17.2835610 137.0139030 136.6951410  17.7932910 136.9131990 135.2732010
  26.1300140 130.2015190 133.5206680  25.4255710 130.4900080 134.1009790
  26.4912300 131.0115300 133.1606240  16.0478710 128.4584890 135.8827290
  16.3895520 129.3026940 135.5881160  15.1094520 128.6068630 135.9992630
  16.8285330 138.3550910 137.8679520  17.4459330 139.0301990 137.5863970
  15.9678450 138.7638890 137.7767020  12.1217670 137.5450770 126.7486370
  11.7445650 138.0337870 126.0171270  12.3790740 138.2176050 127.3792900
  27.7462920 139.8190320 135.7834160  27.0626440 140.4889430 135.7750830
  28.2857210 140.0170970 135.0179020  29.1987060 129.6469980 133.9115890
  28.2511970 129.6808960 134.0431320  29.5237050 130.4608930 134.2965250
  19.7306600 125.9467160 132.2071880  20.0381580 125.3914050 131.4907380
  18.8007300 126.0811620 132.0244870  25.2821660 141.6634450 134.4979340
  25.2948820 141.2596740 133.6301600  24.7296880 142.4381740 134.3940770
  26.5767080 138.3850670 129.5869510  26.4663410 137.4425000 129.7118930
  26.5735330 138.7466310 130.4732270  24.6807100 136.5664290 135.8261950
  25.0975890 136.3524400 134.9915410  25.4046920 136.8237080 136.3970570
  22.1187360 134.0115990 128.9432000  21.1916640 133.9453370 129.1720470
  22.2712180 134.9496120 128.8287240  22.1056440 130.2832990 125.9399160
  21.1660110 130.4446950 126.0251620  22.4239700 131.0018670 125.3935150
  28.6269200 134.9651510 135.9178190  27.7987830 135.0344600 135.4428320
  29.2219680 135.5505820 135.4494020  26.1484650 135.5736290 129.4467250
  25.5297070 135.2355840 128.7993550  26.1309100 134.9296050 130.1546440
  25.5911210 131.7520830 136.8633060  25.1782390 132.5774540 137.1173050
  24.8587160 131.1665870 136.6709420  17.7244000 134.5380730 131.7251730
  17.3201000 133.8257980 131.2297630  17.8107120 134.1933970 132.6139770
  18.1925700 138.2248290 133.8890940  17.8953990 137.6193760 133.2098720
  19.1425520 138.2625600 133.7780300  16.4372620 131.3123940 135.5050770
  16.9887210 131.4219280 134.7304020  16.9516130 131.6861540 136.2206000
  26.2811310 141.7980160 137.5514040  25.8041870 142.6052350 137.3586650
  25.5973100 141.1458490 137.7040250  17.2844130 137.9629980 140.5398740
  16.3872660 138.1869950 140.7872140  17.3097000 138.0864920 139.5910140
  24.3249350 134.8123100 126.4540000  24.7642630 133.9745530 126.3077820
  25.0377770 135.4452500 126.5404140  16.1115350 134.8343300 139.1156110
  15.9723120 135.7066100 139.4843510  15.2296710 134.4916110 138.9704050
  22.4344730 139.7519170 130.4221240  22.8740640 140.4943500 130.0076630
  22.3731620 139.9945740 131.3460200  17.9095700 140.7765000 141.3241260
  17.8811130 141.1807950 140.4569690  17.7460670 139.8475360 141.1612860
  27.9066490 126.0665910 124.7681040  27.5939150 126.1592740 125.6680110
  28.6678960 126.6446940 124.7178470  14.4248630 133.4325710 129.2258380
  14.3046230 134.1587800 128.6139650  14.1149520 132.6628620 128.7486290
  29.8610520 141.5592100 142.6205430  30.3370240 142.0374990 143.2994510
  30.4817680 141.4909590 141.8950930  12.0634000 136.6040850 135.0327020
  12.1414420 136.7389620 134.0882740  12.6775680 135.8956740 135.2255140
  13.3081630 138.3041040 131.4433200  12.9009710 138.4455630 130.5886800
  14.1994640 138.0201200 131.2404410  29.2643770 138.7504950 139.7805440
  29.3906830 138.5116830 138.8622620  29.3065150 137.9189490 140.2527520
  23.1260510 142.4532950 138.3500250  23.6405180 142.3640960 139.1522680
  22.2829590 142.7992650 138.6428160  25.1014910 142.7388290 127.7784250
  24.9416050 142.4491230 128.6766080  24.9361620 141.9628420 127.2429480
  17.5803290 142.5186820 129.5555870  17.4045770 141.6022360 129.3423670
  16.7259030 142.8774110 129.7953670  24.8041040 140.2475850 126.3382250
  24.1106200 140.2453140 125.6784530  25.5463900 139.8235170 125.9076420
  24.3690970 141.8738560 130.4130740  24.8247920 141.0927940 130.7269360
  24.7083490 142.5845380 130.9571920  29.1167780 130.8037410 140.7455180
  28.5012050 131.3117080 140.2170640  28.7964200 129.9035740 140.6881120
  12.1193520 137.6455020 137.5721480  12.2824560 137.1760380 136.7540850
  12.5845970 137.1378580 138.2370320  16.8912290 126.7760780 132.6082050
  16.4480440 127.5570320 132.2766570  17.4497280 127.0990670 133.3152990
  21.1782100 129.6429300 138.2117370  20.7161470 129.8512320 139.0237310
  20.7760210 128.8288650 137.9088040  26.1786610 130.8638250 139.3414030
  25.3280200 130.5644000 139.6623100  26.0188400 131.1080260 138.4297850
  23.2736320 132.3640000 141.4412820  23.5989730 131.5303750 141.1015050
  24.0616650 132.8868520 141.5891150  20.0071110 126.3971480 127.4887880
  19.3825290 126.3931350 128.2141190  19.9201230 125.5302440 127.0923850
  18.9288190 127.3208110 134.4671650  19.2260520 128.2270940 134.3863670
  19.4773750 126.8326890 133.8531220  16.6826510 131.8994350 130.3363300
  16.4567430 131.6831520 131.2409920  15.9019040 132.3322810 129.9909270
  23.9124270 131.9057720 128.9353950  23.3133160 132.6293520 128.7517570
  24.4603880 131.8434500 128.1530400  19.1225720 132.7979930 141.0023570
  19.0269320 131.8574660 140.8523970  19.9657700 133.0195000 140.6071640
  22.5189140 130.5421260 130.9657230  22.9118710 130.8593460 130.1525920
  22.8805990 129.6633140 131.0801750  14.2536260 129.2093600 139.1557350
  13.8599650 130.0568810 139.3630130  13.5654660 128.5719970 139.3465990
  20.8281310 129.2928570 142.2254090  20.1379630 129.1000770 142.8600180
  21.5713610 129.5763210 142.7578390  11.5553310 127.1322060 133.1887430
  11.2666360 127.7024920 133.9012410  12.2999070 126.6526510 133.5518660
  11.7423540 131.0742180 124.3990150  11.6598210 132.0172940 124.5405140
  11.3906600 130.9317090 123.5202500  23.1044280 133.1327010 135.0608010
  22.3725400 133.6413820 135.4098110  22.7068620 132.3156990 134.7596790
  19.5421670 129.8081210 133.4660500  19.5457730 129.3671160 132.6165040
  20.4372790 130.1298540 133.5732320  15.3924050 129.6907700 132.4254710
  15.0524100 130.1682930 133.1821760  14.6301370 129.2372820 132.0655810
  19.6041820 130.8093290 126.4567260  19.7254640 130.7679770 127.4053080
  19.2190330 131.6717440 126.3013990  23.5670190 128.5860690 134.4730950
  23.5842930 129.0369340 135.3172800  23.3185770 127.6866330 134.6864390
  18.6163320 133.1194430 125.8550560  18.0480220 132.6712680 125.2286470
  19.3252320 133.4787210 125.3215710  26.9940940 125.9992870 140.3117330
  27.3186710 125.2682530 140.8375310  27.0297450 125.6806510 139.4098320
  13.6932500 137.0206450 139.7317290  13.3087290 136.3800120 140.3300250
  14.0044690 137.7242570 140.3012020  19.8429640 133.8682990 135.2125910
  20.2099770 133.3941560 135.9587250  19.6534700 134.7424560 135.5534250
  12.7070130 128.6126680 131.3419380  12.4217050 128.2482350 132.1798000
  12.6448990 127.8807140 130.7282520  17.6329010 132.9091630 137.5310120
  17.3286080 133.7883610 137.7560480  18.5875470 132.9691420 137.5667560
  16.1610800 137.1152620 128.1276970  15.3873060 136.5750240 127.9675690
  16.8905430 136.5959230 127.7894730  26.9198780 136.1117980 133.9203360
  27.6397900 136.6073270 133.5299470  26.7180600 135.4335870 133.2757230
  22.3808720 127.5055940 128.0632750  21.5673330 127.0069110 127.9878060
  22.1870670 128.3454190 127.6469100  22.3017580 136.1827040 139.8072360
  22.2354890 135.2622710 139.5529950  21.6722720 136.2802480 140.5217000
  25.0957110 131.8775590 126.3594910  25.9836730 132.1892820 126.1846250
  25.0662200 131.0047840 125.9675490  16.2048200 136.7833000 131.7655780
  16.7226870 135.9801260 131.7112670  15.7532220 136.7212140 132.6072610
  21.0917700 138.0499280 127.0383080  21.4333400 138.7941510 126.5426400
  20.2630410 138.3630400 127.4007910  13.6892740 133.7494370 138.6781480
  13.3307680 134.4148220 139.2654820  13.3947300 132.9177920 139.0494100
  16.8905860 134.2078610 141.5621030  16.5906000 134.3535790 140.6648850
  17.6617100 133.6483900 141.4694420  22.2334310 139.0047610 139.5576160
  22.2478850 138.0728570 139.3395070  21.5259410 139.0907370 140.1965930
  27.3671380 133.1887430 125.8274770  27.2835100 133.6201650 124.9771210
  28.0865570 133.6485780 126.2601590  28.4445520 135.6454950 138.9044740
  27.7193710 136.2383730 138.7074130  28.9720980 135.6378490 138.1058110
  28.3958630 140.0429690 128.5556900  27.7534790 139.3885310 128.8300620
  28.0089290 140.4484780 127.7797570  23.9745110 137.3715120 132.4028590
  24.3268930 136.7743250 131.7429960  23.0907440 137.0459350 132.5736840
  20.0608390 138.1312810 129.8099000  20.7479520 138.6782020 130.1906590
  19.2740810 138.6753540 129.8448610  12.2000790 133.7485630 125.3016080
  13.0695640 134.0310430 125.5852000  11.7091110 134.5621500 125.1864890
  19.3635600 135.1358840 129.4224360  19.8198380 135.9464090 129.6484550
  19.0123810 134.8181980 130.2542850  21.6668210 140.6465180 136.6516660
  22.3110430 140.8524560 137.3290080  22.0297650 139.8853580 136.1987510
  15.2647380 125.4796490 129.8946880  15.1362010 125.4714390 130.8431800
  14.4409400 125.8179580 129.5437890  22.9400290 138.6497530 135.3694110
  23.5822520 137.9490690 135.4826280  23.4649640 139.4295970 135.1891000
  26.7856010 138.9346150 125.0933250  26.5593590 138.2176590 125.6857890
  26.3952210 138.6858590 124.2555000  24.7137910 139.4492430 138.5730170
  25.0494150 140.0359120 139.2508090  23.7938250 139.3185140 138.8027960
  12.5672040 142.9613010 125.8677710  12.9269680 143.5602350 125.2134980
  12.4264380 143.5072900 126.6412740  12.2641310 127.2387610 139.3553580
  11.5499830 127.4384530 139.9606190  12.6836350 126.4627180 139.7268380
  26.3672260 136.8518090 126.7547410  26.0793960 137.3130780 127.5425290
  27.1624430 136.3915860 127.0231630  12.5513900 141.2267870 140.3420110
  12.6605020 140.2862610 140.2015500  11.8994460 141.4922620 139.6933840
  20.5426490 139.4983760 141.7418230  20.2223360 138.7793000 142.2863920
  19.8684850 140.1738830 141.8154290  18.5840660 140.3444210 126.6851380
  18.5750760 141.0773900 126.0695890  17.6639020 140.0975790 126.7778340
  14.1847300 135.5659100 127.4298140  13.5775250 136.3058000 127.4393440
  14.6596650 135.6558460 126.6036340  23.7580090 129.7309920 137.1055030
  24.1260910 128.9105130 137.4334600  22.8978290 129.7911810 137.5210680
  27.1242120 128.6866860 127.9142590  26.4955280 128.7912530 127.2000820
  26.6294040 128.9063640 128.7036470  21.5700260 140.4072450 125.3476570
  21.6712240 140.2036440 124.4178550  20.6702000 140.1530730 125.5524350
  19.0926150 130.9652810 129.3300470  18.3842300 131.4339150 129.7714080
  19.3770630 130.3074820 129.9645660  20.7182080 132.3849510 137.3293000
  21.2167330 132.8595330 137.9944850  20.8605030 131.4613030 137.5363030
  23.1241580 127.6903470 130.7696260  23.0009360 127.7089600 129.8205770
  24.0726140 127.7382410 130.8894660  20.2118370 142.9258770 130.0424240
  20.4659870 142.8880160 129.1203610  19.2630850 142.7992100 130.0352490
  17.2961170 129.2737890 126.7051180  18.1451700 129.7108040 126.6391370
  16.9292440 129.5858150 127.5323240  27.9248940 128.6017470 138.1721390
  27.4222540 129.3422870 138.5115200  28.7405600 128.9901470 137.8558180
  26.2170950 133.8450650 131.6182750  25.2761090 133.8600880 131.7930440
  26.5315020 133.0586610 132.0643050  16.1952590 135.5270250 125.1786710
  16.9615860 135.4151610 125.7412140  16.2727280 134.8308220 124.5263480
  14.8899350 132.9595320 125.8619600  14.9702940 132.0122830 125.9737000
  15.7819100 133.2902200 125.9680260  28.2196530 141.0159500 133.2937010
  28.3443950 141.8390670 133.7660820  29.0862090 140.8050230 132.9461160
  15.6914060 143.1090710 132.9654140  16.4276540 142.5606170 133.2362710
  16.0754980 143.9746720 132.8260130  12.5759540 139.1764280 128.8395650
  11.6499320 139.4185420 128.8301060  13.0415970 140.0038540 128.7180400
  14.6972340 142.2936780 142.1539720  15.4985070 142.6148830 142.5675120
  14.1824160 141.9332360 142.8759630  18.8016370 142.2821020 124.7879710
  19.5944980 142.5709850 124.3361500  18.2820720 141.8513190 124.1092190
  23.5336970 138.4016650 142.1015130  22.9275130 138.4248250 141.3610880
  23.2291080 137.6699690 142.6382380  24.9637340 142.1296940 140.7124540
  25.9159090 142.0454960 140.6624780  24.8165560 142.7938650 141.3858330
  27.8546540 141.5091150 126.2116450  27.5688050 141.0956290 125.3970630
  27.6566090 142.4378860 126.0916970  12.4170150 134.7810240 141.0975770
  12.9209170 134.2017520 141.6692000  11.6777570 135.0650470 141.6352140
  19.3193770 137.5024430 124.6522060  19.2144410 136.8876780 125.3783440
  19.1517990 136.9790320 123.8685070  19.4708090 136.1881230 140.6311290
  18.7053760 136.7566230 140.5465960  19.6524050 135.8957440 139.7379520
  22.5596500 136.5644460 125.2564050  22.0106600 137.0113760 125.9006790
  23.1815760 136.0593710 125.7801720  26.6131440 137.9186560 141.1886310
  27.3540910 138.2562320 140.6853770  25.8504120 138.0878620 140.6356080
  14.4493230 132.9239830 141.9925840  14.4898570 132.6253700 142.9011070
  15.3038730 133.3247440 141.8333360  18.2271620 135.5235380 127.1529350
  18.6488040 135.3575250 127.9960740  18.3522460 134.7135610 126.6584490
  16.3899040 131.5031930 139.9600330  15.8595500 131.0122880 139.3323670
  17.0587110 131.9316130 139.4258260  20.7399260 134.5472990 124.4006450
  21.2604920 133.8322010 124.0347600  21.3867660 135.1858860 124.7006960
  25.2877100 135.9701390 139.7241520  25.7018120 136.1246470 140.5731940
  24.3528100 136.0956610 139.8867300  25.7599270 133.3097550 141.7280670
  26.3420040 132.5549870 141.6401150  25.9361040 133.8404990 140.9512150
  16.8771340 128.4694300 140.0397620  16.7828210 127.8515050 139.3148490
  16.2968730 129.1960590 139.8127530  19.6432780 127.0267540 137.0725010
  19.1950080 127.0491800 136.2270560  19.0097980 126.6286560 137.6695310
  20.0492330 135.9221870 137.6937450  20.4680440 136.7654600 137.5213690
  19.1300960 136.0593910 137.4644230  22.3856230 133.6538050 139.0775290
  22.5052440 133.0579190 139.8170130  23.2450230 133.6907740 138.6576590
  24.7244130 134.2075240 137.6537800  24.1979350 134.7317860 137.0502940
  25.0675470 134.8402630 138.2847530  17.1230520 131.5968610 124.0987510
  16.9219580 130.7335970 124.4600850  16.9522570 131.5101970 123.1609110
  17.8999750 142.2274880 138.8095180  17.3620840 142.9520940 138.4903880
  18.1533710 141.7505220 138.0192520  19.1525000 130.1959400 140.3351110
  19.7424690 129.8875250 141.0228930  18.3345240 129.7239150 140.4911010
  23.9718430 129.8125210 140.5684130  23.2833950 129.1506750 140.5034120
  24.6924450 129.3663480 141.0132590  24.6018830 126.4076840 126.6274390
  24.8821120 125.5644740 126.9833810  23.8284560 126.6399950 127.1413140
  15.9213320 128.6969230 124.0865390  16.2239220 128.7036660 123.1784540
  16.6607910 128.3467090 124.5833050  20.7561960 143.4626090 139.0681830
  20.6820660 144.3661230 139.3754200  19.8540800 143.1437990 139.0403900
  19.1398250 127.6403850 125.0721590  18.7920250 126.9627840 124.4924040
  19.3411020 127.1793360 125.8864980  21.3047290 142.6284600 126.6908190
  22.1998080 142.9669570 126.7126950  21.3364920 141.9064010 126.0632470
  14.9443450 138.0011650 124.9195190  15.3818320 138.5441320 125.5752770
  15.4291180 137.1758600 124.9291530  12.1589250 140.7900680 132.3715450
  12.4892260 139.9221740 132.1394090  12.5880250 140.9959200 133.2020410
  16.7551170 139.1209690 130.0317420  16.4546710 138.9974660 130.9321330
  16.6488660 138.2618280 129.6233150  12.6479460 141.6571270 135.1097080
  12.2110450 141.8372070 135.9421230  13.2157140 142.4145890 134.9678800
  28.2841640 141.1588270 139.3974390  27.6843630 141.2180830 138.6538310
  28.4135540 140.2193250 139.5271240  29.5243090 138.9006090 124.7344100
  28.6936050 138.9682740 125.2051330  29.7014920 139.7910210 124.4310960
  28.9799550 135.6453570 127.2378300  29.7418460 136.2150220 127.3437990
  28.9953920 135.0780770 128.0086610  12.4803890 134.1691500 131.4685960
  11.8252730 133.9003140 130.8245660  13.3181840 134.0595980 131.0187940
  29.9859520 136.5003670 132.0820230  30.3568350 135.7170990 131.6756200
  30.6261450 137.1892770 131.9037530  26.9693280 137.8840250 137.4950550
  26.1553120 138.3137410 137.7576340  27.3767480 138.4958660 136.8819600
  29.0318720 135.9387940 124.3950820  29.3067560 136.8466820 124.2670040
  28.8429460 135.8750470 125.3312810  25.4294330 128.9632790 125.6904450
  25.8479210 128.7763770 124.8501110  25.1230390 128.1111840 126.0007380
  28.9284060 133.8756930 129.3880250  28.5527660 133.1084860 128.9561540
  28.1987180 134.2579630 129.8755180  13.5179820 134.5544070 136.0089300
  13.8852860 134.4671470 136.8885320  12.9490640 133.7910620 135.9096160
  28.3183680 133.0228450 139.0219770  28.0869770 132.7941200 138.1217720
  28.5788230 133.9428000 138.9764660  13.0695820 131.4653160 139.9147720
  12.1751870 131.4319920 140.2541430  13.6093370 131.6639950 140.6798970
  26.7571750 128.2484880 141.7999470  27.6341930 128.2568280 142.1833470
  26.7692590 127.5115720 141.1891820  11.6941970 131.3790430 127.4111290
  10.7906050 131.6420630 127.2362950  12.1782590 131.6501600 126.6311250
  28.2035020 132.1014420 132.6887490  28.7272500 131.6077070 132.0577660
  28.7894440 132.2364780 133.4335060  28.3824740 132.1854290 136.2107040
  27.4327450 132.1517830 136.3252030  28.5637750 133.0954400 135.9756810
  14.2369180 130.4355970 125.3205670  14.9460880 130.0139190 124.8352950
  13.5209120 130.5031200 124.6889020  13.8843340 126.4895300 124.3608320
  14.6071470 127.0304240 124.6789540  14.1567860 126.2158720 123.4849860
  27.6934990 131.3587770 128.6279900  28.1894110 131.1258640 129.4128780
  27.4951060 130.5199610 128.2117540  13.5735530 125.7401490 134.2630940
  14.2211720 125.1898870 133.8226100  13.9937370 125.9944640 135.0846750
  29.1222150 129.9948720 131.1617580  29.0121430 129.8404760 132.0999850
  29.8829740 129.4669660 130.9192990  27.4687870 125.9342850 137.6200580
  28.1060090 126.5476990 137.9859770  27.6162760 125.9703510 136.6749810
  30.0112420 127.8256640 124.4023720  30.9361730 127.6937820 124.1942010
  29.9888210 127.9049460 125.3560170  30.0850910 128.5967300 127.0280430
  29.2902410 128.5312420 127.5573340  30.2894190 129.5317940 127.0165780
  27.0269330 142.6358850 131.0218820  27.6228400 142.3143420 130.3453240
  27.2847480 142.1630670 131.8132090  13.3267530 125.8957160 137.0056260
  12.9782350 126.3520980 137.7714440  12.9955230 125.0014290 137.0878690
  14.9331900 139.0676760 141.1709450  14.8901530 138.6969670 142.0523910
  15.0642910 140.0054330 141.3111270  18.6337930 140.6236350 136.7719170
  18.3929290 140.8910910 135.8849690  19.5740570 140.7942080 136.8270030
  20.8392350 127.0869040 140.5275680  20.7781240 127.6790870 141.2771090
  21.7792730 126.9795000 140.3825940  23.4766910 126.7439100 140.1667970
  24.0907320 127.0618390 139.5049050  24.0216470 126.2587690 140.7863830
  29.8942090 142.6430730 137.5729810  29.4000370 143.0399600 136.8556940
  29.2855380 142.0179940 137.9667090  13.9988170 125.4233360 140.2807030
  14.5471160 125.2421410 139.5173140  14.0643480 124.6327470 140.8163340
  14.7719930 142.0139010 138.2907230  14.1780250 141.8823710 139.0297270
  14.7643770 141.1777150 137.8249330  24.2174950 125.3071240 136.4937260
  23.3434790 125.6406350 136.2910190  24.1085700 124.8344420 137.3189130
  25.1246930 127.5142110 137.8778980  24.7960290 126.6993870 137.4980710
  26.0729230 127.4711920 137.7544670  27.5781540 143.2854150 134.8516550
  27.1184510 144.0369960 134.4774570  26.9494000 142.5660620 134.7931350
  14.4032160 139.3797390 137.2415270  13.6766220 138.7602680 137.1741220
  14.4641310 139.7738000 136.3713350  18.0077260 141.5942390 134.0264680
  18.5242280 140.9829750 133.5012940  18.6574640 142.0971170 134.5175690
  20.7472760 142.4850880 134.8533660  21.0350570 142.2305180 133.9766670
  21.2595980 141.9328240 135.4439230  21.9649770 126.2241080 135.4330170
  21.1821560 126.6986580 135.7126930  21.6712700 125.3195910 135.3243350
  26.5170840 126.9264180 133.4779260  26.9578930 126.8709280 132.6300860
  26.2478430 127.8422190 133.5489440  28.3809410 126.5579420 131.4888080
  28.3197810 125.6140640 131.3419100  29.1601440 126.6659510 132.0341540
  12.6862160 142.6971780 130.4512030  12.5184200 142.0642460 131.1493920
  11.8196670 142.9031180 130.1006220  13.3090180 126.5288560 127.9543890
  14.0669540 126.6417440 127.3807920  12.8467350 127.3657760 127.9087320
  19.8503990 128.6427830 130.9446200  19.0378500 128.2684720 130.6042080
  20.3545630 127.8872910 131.2467390  24.3528970 125.3070280 132.1829270
  24.9558340 125.8790490 132.6577790  23.6121960 125.8709720 131.9603170
  27.4963570 125.7091840 127.4569550  27.6914200 126.6075290 127.7236980
  26.7093440 125.4778920 127.9502500  14.2924860 141.3905010 127.8962170
  13.7672480 141.7713040 127.1924130  14.2169440 142.0155780 128.6171880
  15.6815330 127.0552610 126.4945860  16.2108090 126.2682410 126.3653810
  16.3143650 127.7343800 126.7281390  17.8753170 126.7927750 129.5491250
  17.2455910 126.0915060 129.7161380  17.3358310 127.5531880 129.3324410
  20.8145120 143.4066980 142.2201860  21.7412430 143.1711250 142.2637820
  20.7995550 144.2338980 141.7387890  29.0490180 142.9492550 129.2176110
  29.2242370 142.2630290 128.5737030  28.3511750 143.4739600 128.8252780
  18.0008730 126.0711730 141.9843740  17.7193000 126.5745330 141.2204560
  18.3828430 125.2733480 141.6185870  16.8917830 143.3387390 126.7711420
  17.6236650 143.0546670 126.2235310  17.1511500 143.1000670 127.6610800
  16.0532620 139.4552120 126.7757750  15.4241500 139.9237220 127.3243580
  16.1680450 138.6101340 127.2103940  24.6024190 125.4865310 142.5624210
  24.4889640 125.8059920 143.4575730  25.4193930 125.8877820 142.2661490
  27.3822680 142.6336840 142.0442900  28.1748000 142.1386070 141.8368860
  27.6755830 143.3126980 142.6518510  23.5082340 133.5057780 112.9258950
  23.4276390 132.5912390 112.6550660  23.0946760 134.0024850 112.2198660
  21.6400380 135.2836800 114.8068220  20.8642480 134.8037240 115.0966790
  22.2913310 134.6042450 114.6324380  15.6566210 135.5956610 115.6843980
  14.8251090 135.3405320 116.0840490  16.2647190 135.6667380 116.4201900
  25.6607810 139.6896990 113.5867350  25.1989340 138.9184230 113.9154520
  26.4733360 139.7163060 114.0919800  15.6367470 139.6296700 115.8802000
  15.9395510 138.7394440 115.7012220  16.3811060 140.1866920 115.6524250
  14.0658160 130.5558500 109.4686370  13.1774860 130.8974470 109.3666250
  14.3499350 130.3558820 108.5767200  12.0291170 133.1564150 115.3526070
  12.6007280 132.3886350 115.3529710  12.0292710 133.4552910 114.4432680
  21.8871120 141.9755000 113.2071340  21.2682560 142.4312500 112.6365780
  22.7422900 142.1306460 112.8061040  21.0809370 137.9593990 114.8138380
  21.0117650 137.0183930 114.6527510  21.8429230 138.0495400 115.3860950
  13.2716040 128.5648510 117.1395000  13.0918880 127.6674260 117.4197760
  12.8696120 129.1120380 117.8141950  22.1114540 130.7664370 115.0407310
  22.4879360 129.8936250 114.9280980  22.0134050 131.1023070 114.1497750
  16.2419550 129.1390000 110.5024750  16.3486300 130.0393730 110.8093510
  15.3311910 129.0907970 110.2119400  25.8938660 128.2614810 111.9735650
  26.7148280 127.7711380 112.0161130  25.9272740 128.8512470 112.7267490
  13.8902710 131.0609010 115.7477340  14.5712820 131.3247380 116.3664740
  13.5750760 130.2209880 116.0815350  18.0827280 132.1076370 114.8349930
  18.5905500 132.6057340 115.4754950  18.6140520 131.3311570 114.6589290
  30.1838210 130.2781560 118.5379280  29.4790380 130.6663270 118.0194390
  30.4496130 130.9731850 119.1400210  16.3663380 126.7474930 119.1013350
  16.3681820 127.2647320 118.2959250  15.5367690 126.2705110 119.0783280
  22.7534470 136.8594240 110.6003250  22.1351740 137.3243690 110.0365970
  23.2657720 137.5521720 111.0172760  17.6166230 136.3870110 117.2786850
  17.2835610 137.0139030 117.9207920  17.7932910 136.9131990 116.4988520
  26.1300140 130.2015190 114.7463190  25.4255710 130.4900080 115.3266300
  26.4912300 131.0115300 114.3862750  16.0478710 128.4584890 117.1083800
  16.3895520 129.3026940 116.8137670  15.1094520 128.6068630 117.2249140
  16.8285330 138.3550910 119.0936030  17.4459330 139.0301990 118.8120480
  15.9678450 138.7638890 119.0023530  12.1217670 137.5450770 107.9742880
  11.7445650 138.0337870 107.2427780  12.3790740 138.2176050 108.6049410
  27.7462920 139.8190320 117.0090670  27.0626440 140.4889430 117.0007340
  28.2857210 140.0170970 116.2435530  29.1987060 129.6469980 115.1372400
  28.2511970 129.6808960 115.2687830  29.5237050 130.4608930 115.5221760
  19.7306600 125.9467160 113.4328390  20.0381580 125.3914050 112.7163890
  18.8007300 126.0811620 113.2501380  25.2821660 141.6634450 115.7235850
  25.2948820 141.2596740 114.8558110  24.7296880 142.4381740 115.6197280
  26.5767080 138.3850670 110.8126020  26.4663410 137.4425000 110.9375440
  26.5735330 138.7466310 111.6988780  24.6807100 136.5664290 117.0518460
  25.0975890 136.3524400 116.2171920  25.4046920 136.8237080 117.6227080
  22.1187360 134.0115990 110.1688510  21.1916640 133.9453370 110.3976980
  22.2712180 134.9496120 110.0543750  22.1056440 130.2832990 107.1655670
  21.1660110 130.4446950 107.2508130  22.4239700 131.0018670 106.6191660
  28.6269200 134.9651510 117.1434700  27.7987830 135.0344600 116.6684830
  29.2219680 135.5505820 116.6750530  26.1484650 135.5736290 110.6723760
  25.5297070 135.2355840 110.0250060  26.1309100 134.9296050 111.3802950
  25.5911210 131.7520830 118.0889570  25.1782390 132.5774540 118.3429560
  24.8587160 131.1665870 117.8965930  17.7244000 134.5380730 112.9508240
  17.3201000 133.8257980 112.4554140  17.8107120 134.1933970 113.8396280
  18.1925700 138.2248290 115.1147450  17.8953990 137.6193760 114.4355230
  19.1425520 138.2625600 115.0036810  16.4372620 131.3123940 116.7307280
  16.9887210 131.4219280 115.9560530  16.9516130 131.6861540 117.4462510
  26.2811310 141.7980160 118.7770550  25.8041870 142.6052350 118.5843160
  25.5973100 141.1458490 118.9296760  17.2844130 137.9629980 121.7655250
  16.3872660 138.1869950 122.0128650  17.3097000 138.0864920 120.8166650
  24.3249350 134.8123100 107.6796510  24.7642630 133.9745530 107.5334330
  25.0377770 135.4452500 107.7660650  16.1115350 134.8343300 120.3412620
  15.9723120 135.7066100 120.7100020  15.2296710 134.4916110 120.1960560
  22.4344730 139.7519170 111.6477750  22.8740640 140.4943500 111.2333140
  22.3731620 139.9945740 112.5716710  17.9095700 140.7765000 122.5497770
  17.8811130 141.1807950 121.6826200  17.7460670 139.8475360 122.3869370
  27.9066490 126.0665910 105.9937550  27.5939150 126.1592740 106.8936620
  28.6678960 126.6446940 105.9434980  14.4248630 133.4325710 110.4514890
  14.3046230 134.1587800 109.8396160  14.1149520 132.6628620 109.9742800
  29.8610520 141.5592100 123.8461940  30.3370240 142.0374990 124.5251020
  30.4817680 141.4909590 123.1207440  12.0634000 136.6040850 116.2583530
  12.1414420 136.7389620 115.3139250  12.6775680 135.8956740 116.4511650
  13.3081630 138.3041040 112.6689710  12.9009710 138.4455630 111.8143310
  14.1994640 138.0201200 112.4660920  29.2643770 138.7504950 121.0061950
  29.3906830 138.5116830 120.0879130  29.3065150 137.9189490 121.4784030
  23.1260510 142.4532950 119.5756760  23.6405180 142.3640960 120.3779190
  22.2829590 142.7992650 119.8684670  25.1014910 142.7388290 109.0040760
  24.9416050 142.4491230 109.9022590  24.9361620 141.9628420 108.4685990
  17.5803290 142.5186820 110.7812380  17.4045770 141.6022360 110.5680180
  16.7259030 142.8774110 111.0210180  24.8041040 140.2475850 107.5638760
  24.1106200 140.2453140 106.9041040  25.5463900 139.8235170 107.1332930
  24.3690970 141.8738560 111.6387250  24.8247920 141.0927940 111.9525870
  24.7083490 142.5845380 112.1828430  29.1167780 130.8037410 121.9711690
  28.5012050 131.3117080 121.4427150  28.7964200 129.9035740 121.9137630
  12.1193520 137.6455020 118.7977990  12.2824560 137.1760380 117.9797360
  12.5845970 137.1378580 119.4626830  16.8912290 126.7760780 113.8338560
  16.4480440 127.5570320 113.5023080  17.4497280 127.0990670 114.5409500
  21.1782100 129.6429300 119.4373880  20.7161470 129.8512320 120.2493820
  20.7760210 128.8288650 119.1344550  26.1786610 130.8638250 120.5670540
  25.3280200 130.5644000 120.8879610  26.0188400 131.1080260 119.6554360
  23.2736320 132.3640000 122.6669330  23.5989730 131.5303750 122.3271560
  24.0616650 132.8868520 122.8147660  20.0071110 126.3971480 108.7144390
  19.3825290 126.3931350 109.4397700  19.9201230 125.5302440 108.3180360
  18.9288190 127.3208110 115.6928160  19.2260520 128.2270940 115.6120180
  19.4773750 126.8326890 115.0787730  16.6826510 131.8994350 111.5619810
  16.4567430 131.6831520 112.4666430  15.9019040 132.3322810 111.2165780
  23.9124270 131.9057720 110.1610460  23.3133160 132.6293520 109.9774080
  24.4603880 131.8434500 109.3786910  19.1225720 132.7979930 122.2280080
  19.0269320 131.8574660 122.0780480  19.9657700 133.0195000 121.8328150
  22.5189140 130.5421260 112.1913740  22.9118710 130.8593460 111.3782430
  22.8805990 129.6633140 112.3058260  14.2536260 129.2093600 120.3813860
  13.8599650 130.0568810 120.5886640  13.5654660 128.5719970 120.5722500
  20.8281310 129.2928570 123.4510600  20.1379630 129.1000770 124.0856690
  21.5713610 129.5763210 123.9834900  11.5553310 127.1322060 114.4143940
  11.2666360 127.7024920 115.1268920  12.2999070 126.6526510 114.7775170
  11.7423540 131.0742180 105.6246660  11.6598210 132.0172940 105.7661650
  11.3906600 130.9317090 104.7459010  23.1044280 133.1327010 116.2864520
  22.3725400 133.6413820 116.6354620  22.7068620 132.3156990 115.9853300
  19.5421670 129.8081210 114.6917010  19.5457730 129.3671160 113.8421550
  20.4372790 130.1298540 114.7988830  15.3924050 129.6907700 113.6511220
  15.0524100 130.1682930 114.4078270  14.6301370 129.2372820 113.2912320
  19.6041820 130.8093290 107.6823770  19.7254640 130.7679770 108.6309590
  19.2190330 131.6717440 107.5270500  23.5670190 128.5860690 115.6987460
  23.5842930 129.0369340 116.5429310  23.3185770 127.6866330 115.9120900
  18.6163320 133.1194430 107.0807070  18.0480220 132.6712680 106.4542980
  19.3252320 133.4787210 106.5472220  26.9940940 125.9992870 121.5373840
  27.3186710 125.2682530 122.0631820  27.0297450 125.6806510 120.6354830
  13.6932500 137.0206450 120.9573800  13.3087290 136.3800120 121.5556760
  14.0044690 137.7242570 121.5268530  19.8429640 133.8682990 116.4382420
  20.2099770 133.3941560 117.1843760  19.6534700 134.7424560 116.7790760
  12.7070130 128.6126680 112.5675890  12.4217050 128.2482350 113.4054510
  12.6448990 127.8807140 111.9539030  17.6329010 132.9091630 118.7566630
  17.3286080 133.7883610 118.9816990  18.5875470 132.9691420 118.7924070
  16.1610800 137.1152620 109.3533480  15.3873060 136.5750240 109.1932200
  16.8905430 136.5959230 109.0151240  26.9198780 136.1117980 115.1459870
  27.6397900 136.6073270 114.7555980  26.7180600 135.4335870 114.5013740
  22.3808720 127.5055940 109.2889260  21.5673330 127.0069110 109.2134570
  22.1870670 128.3454190 108.8725610  22.3017580 136.1827040 121.0328870
  22.2354890 135.2622710 120.7786460  21.6722720 136.2802480 121.7473510
  25.0957110 131.8775590 107.5851420  25.9836730 132.1892820 107.4102760
  25.0662200 131.0047840 107.1932000  16.2048200 136.7833000 112.9912290
  16.7226870 135.9801260 112.9369180  15.7532220 136.7212140 113.8329120
  21.0917700 138.0499280 108.2639590  21.4333400 138.7941510 107.7682910
  20.2630410 138.3630400 108.6264420  13.6892740 133.7494370 119.9037990
  13.3307680 134.4148220 120.4911330  13.3947300 132.9177920 120.2750610
  16.8905860 134.2078610 122.7877540  16.5906000 134.3535790 121.8905360
  17.6617100 133.6483900 122.6950930  22.2334310 139.0047610 120.7832670
  22.2478850 138.0728570 120.5651580  21.5259410 139.0907370 121.4222440
  27.3671380 133.1887430 107.0531280  27.2835100 133.6201650 106.2027720
  28.0865570 133.6485780 107.4858100  28.4445520 135.6454950 120.1301250
  27.7193710 136.2383730 119.9330640  28.9720980 135.6378490 119.3314620
  28.3958630 140.0429690 109.7813410  27.7534790 139.3885310 110.0557130
  28.0089290 140.4484780 109.0054080  23.9745110 137.3715120 113.6285100
  24.3268930 136.7743250 112.9686470  23.0907440 137.0459350 113.7993350
  20.0608390 138.1312810 111.0355510  20.7479520 138.6782020 111.4163100
  19.2740810 138.6753540 111.0705120  12.2000790 133.7485630 106.5272590
  13.0695640 134.0310430 106.8108510  11.7091110 134.5621500 106.4121400
  19.3635600 135.1358840 110.6480870  19.8198380 135.9464090 110.8741060
  19.0123810 134.8181980 111.4799360  21.6668210 140.6465180 117.8773170
  22.3110430 140.8524560 118.5546590  22.0297650 139.8853580 117.4244020
  15.2647380 125.4796490 111.1203390  15.1362010 125.4714390 112.0688310
  14.4409400 125.8179580 110.7694400  22.9400290 138.6497530 116.5950620
  23.5822520 137.9490690 116.7082790  23.4649640 139.4295970 116.4147510
  26.7856010 138.9346150 106.3189760  26.5593590 138.2176590 106.9114400
  26.3952210 138.6858590 105.4811510  24.7137910 139.4492430 119.7986680
  25.0494150 140.0359120 120.4764600  23.7938250 139.3185140 120.0284470
  12.5672040 142.9613010 107.0934220  12.9269680 143.5602350 106.4391490
  12.4264380 143.5072900 107.8669250  12.2641310 127.2387610 120.5810090
  11.5499830 127.4384530 121.1862700  12.6836350 126.4627180 120.9524890
  26.3672260 136.8518090 107.9803920  26.0793960 137.3130780 108.7681800
  27.1624430 136.3915860 108.2488140  12.5513900 141.2267870 121.5676620
  12.6605020 140.2862610 121.4272010  11.8994460 141.4922620 120.9190350
  20.5426490 139.4983760 122.9674740  20.2223360 138.7793000 123.5120430
  19.8684850 140.1738830 123.0410800  18.5840660 140.3444210 107.9107890
  18.5750760 141.0773900 107.2952400  17.6639020 140.0975790 108.0034850
  14.1847300 135.5659100 108.6554650  13.5775250 136.3058000 108.6649950
  14.6596650 135.6558460 107.8292850  23.7580090 129.7309920 118.3311540
  24.1260910 128.9105130 118.6591110  22.8978290 129.7911810 118.7467190
  27.1242120 128.6866860 109.1399100  26.4955280 128.7912530 108.4257330
  26.6294040 128.9063640 109.9292980  21.5700260 140.4072450 106.5733080
  21.6712240 140.2036440 105.6435060  20.6702000 140.1530730 106.7780860
  19.0926150 130.9652810 110.5556980  18.3842300 131.4339150 110.9970590
  19.3770630 130.3074820 111.1902170  20.7182080 132.3849510 118.5549510
  21.2167330 132.8595330 119.2201360  20.8605030 131.4613030 118.7619540
  23.1241580 127.6903470 111.9952770  23.0009360 127.7089600 111.0462280
  24.0726140 127.7382410 112.1151170  20.2118370 142.9258770 111.2680750
  20.4659870 142.8880160 110.3460120  19.2630850 142.7992100 111.2609000
  17.2961170 129.2737890 107.9307690  18.1451700 129.7108040 107.8647880
  16.9292440 129.5858150 108.7579750  27.9248940 128.6017470 119.3977900
  27.4222540 129.3422870 119.7371710  28.7405600 128.9901470 119.0814690
  26.2170950 133.8450650 112.8439260  25.2761090 133.8600880 113.0186950
  26.5315020 133.0586610 113.2899560  16.1952590 135.5270250 106.4043220
  16.9615860 135.4151610 106.9668650  16.2727280 134.8308220 105.7519990
  14.8899350 132.9595320 107.0876110  14.9702940 132.0122830 107.1993510
  15.7819100 133.2902200 107.1936770  28.2196530 141.0159500 114.5193520
  28.3443950 141.8390670 114.9917330  29.0862090 140.8050230 114.1717670
  15.6914060 143.1090710 114.1910650  16.4276540 142.5606170 114.4619220
  16.0754980 143.9746720 114.0516640  12.5759540 139.1764280 110.0652160
  11.6499320 139.4185420 110.0557570  13.0415970 140.0038540 109.9436910
  14.6972340 142.2936780 123.3796230  15.4985070 142.6148830 123.7931630
  14.1824160 141.9332360 124.1016140  18.8016370 142.2821020 106.0136220
  19.5944980 142.5709850 105.5618010  18.2820720 141.8513190 105.3348700
  23.5336970 138.4016650 123.3271640  22.9275130 138.4248250 122.5867390
  23.2291080 137.6699690 123.8638890  24.9637340 142.1296940 121.9381050
  25.9159090 142.0454960 121.8881290  24.8165560 142.7938650 122.6114840
  27.8546540 141.5091150 107.4372960  27.5688050 141.0956290 106.6227140
  27.6566090 142.4378860 107.3173480  12.4170150 134.7810240 122.3232280
  12.9209170 134.2017520 122.8948510  11.6777570 135.0650470 122.8608650
  19.3193770 137.5024430 105.8778570  19.2144410 136.8876780 106.6039950
  19.1517990 136.9790320 105.0941580  19.4708090 136.1881230 121.8567800
  18.7053760 136.7566230 121.7722470  19.6524050 135.8957440 120.9636030
  22.5596500 136.5644460 106.4820560  22.0106600 137.0113760 107.1263300
  23.1815760 136.0593710 107.0058230  26.6131440 137.9186560 122.4142820
  27.3540910 138.2562320 121.9110280  25.8504120 138.0878620 121.8612590
  14.4493230 132.9239830 123.2182350  14.4898570 132.6253700 124.1267580
  15.3038730 133.3247440 123.0589870  18.2271620 135.5235380 108.3785860
  18.6488040 135.3575250 109.2217250  18.3522460 134.7135610 107.8841000
  16.3899040 131.5031930 121.1856840  15.8595500 131.0122880 120.5580180
  17.0587110 131.9316130 120.6514770  20.7399260 134.5472990 105.6262960
  21.2604920 133.8322010 105.2604110  21.3867660 135.1858860 105.9263470
  25.2877100 135.9701390 120.9498030  25.7018120 136.1246470 121.7988450
  24.3528100 136.0956610 121.1123810  25.7599270 133.3097550 122.9537180
  26.3420040 132.5549870 122.8657660  25.9361040 133.8404990 122.1768660
  16.8771340 128.4694300 121.2654130  16.7828210 127.8515050 120.5405000
  16.2968730 129.1960590 121.0384040  19.6432780 127.0267540 118.2981520
  19.1950080 127.0491800 117.4527070  19.0097980 126.6286560 118.8951820
  20.0492330 135.9221870 118.9193960  20.4680440 136.7654600 118.7470200
  19.1300960 136.0593910 118.6900740  22.3856230 133.6538050 120.3031800
  22.5052440 133.0579190 121.0426640  23.2450230 133.6907740 119.8833100
  24.7244130 134.2075240 118.8794310  24.1979350 134.7317860 118.2759450
  25.0675470 134.8402630 119.5104040  17.1230520 131.5968610 105.3244020
  16.9219580 130.7335970 105.6857360  16.9522570 131.5101970 104.3865620
  17.8999750 142.2274880 120.0351690  17.3620840 142.9520940 119.7160390
  18.1533710 141.7505220 119.2449030  19.1525000 130.1959400 121.5607620
  19.7424690 129.8875250 122.2485440  18.3345240 129.7239150 121.7167520
  23.9718430 129.8125210 121.7940640  23.2833950 129.1506750 121.7290630
  24.6924450 129.3663480 122.2389100  24.6018830 126.4076840 107.8530900
  24.8821120 125.5644740 108.2090320  23.8284560 126.6399950 108.3669650
  15.9213320 128.6969230 105.3121900  16.2239220 128.7036660 104.4041050
  16.6607910 128.3467090 105.8089560  20.7561960 143.4626090 120.2938340
  20.6820660 144.3661230 120.6010710  19.8540800 143.1437990 120.2660410
  19.1398250 127.6403850 106.2978100  18.7920250 126.9627840 105.7180550
  19.3411020 127.1793360 107.1121490  21.3047290 142.6284600 107.9164700
  22.1998080 142.9669570 107.9383460  21.3364920 141.9064010 107.2888980
  14.9443450 138.0011650 106.1451700  15.3818320 138.5441320 106.8009280
  15.4291180 137.1758600 106.1548040  12.1589250 140.7900680 113.5971960
  12.4892260 139.9221740 113.3650600  12.5880250 140.9959200 114.4276920
  16.7551170 139.1209690 111.2573930  16.4546710 138.9974660 112.1577840
  16.6488660 138.2618280 110.8489660  12.6479460 141.6571270 116.3353590
  12.2110450 141.8372070 117.1677740  13.2157140 142.4145890 116.1935310
  28.2841640 141.1588270 120.6230900  27.6843630 141.2180830 119.8794820
  28.4135540 140.2193250 120.7527750  29.5243090 138.9006090 105.9600610
  28.6936050 138.9682740 106.4307840  29.7014920 139.7910210 105.6567470
  28.9799550 135.6453570 108.4634810  29.7418460 136.2150220 108.5694500
  28.9953920 135.0780770 109.2343120  12.4803890 134.1691500 112.6942470
  11.8252730 133.9003140 112.0502170  13.3181840 134.0595980 112.2444450
  29.9859520 136.5003670 113.3076740  30.3568350 135.7170990 112.9012710
  30.6261450 137.1892770 113.1294040  26.9693280 137.8840250 118.7207060
  26.1553120 138.3137410 118.9832850  27.3767480 138.4958660 118.1076110
  29.0318720 135.9387940 105.6207330  29.3067560 136.8466820 105.4926550
  28.8429460 135.8750470 106.5569320  25.4294330 128.9632790 106.9160960
  25.8479210 128.7763770 106.0757620  25.1230390 128.1111840 107.2263890
  28.9284060 133.8756930 110.6136760  28.5527660 133.1084860 110.1818050
  28.1987180 134.2579630 111.1011690  13.5179820 134.5544070 117.2345810
  13.8852860 134.4671470 118.1141830  12.9490640 133.7910620 117.1352670
  28.3183680 133.0228450 120.2476280  28.0869770 132.7941200 119.3474230
  28.5788230 133.9428000 120.2021170  13.0695820 131.4653160 121.1404230
  12.1751870 131.4319920 121.4797940  13.6093370 131.6639950 121.9055480
  26.7571750 128.2484880 123.0255980  27.6341930 128.2568280 123.4089980
  26.7692590 127.5115720 122.4148330  11.6941970 131.3790430 108.6367800
  10.7906050 131.6420630 108.4619460  12.1782590 131.6501600 107.8567760
  28.2035020 132.1014420 113.9144000  28.7272500 131.6077070 113.2834170
  28.7894440 132.2364780 114.6591570  28.3824740 132.1854290 117.4363550
  27.4327450 132.1517830 117.5508540  28.5637750 133.0954400 117.2013320
  14.2369180 130.4355970 106.5462180  14.9460880 130.0139190 106.0609460
  13.5209120 130.5031200 105.9145530  13.8843340 126.4895300 105.5864830
  14.6071470 127.0304240 105.9046050  14.1567860 126.2158720 104.7106370
  27.6934990 131.3587770 109.8536410  28.1894110 131.1258640 110.6385290
  27.4951060 130.5199610 109.4374050  13.5735530 125.7401490 115.4887450
  14.2211720 125.1898870 115.0482610  13.9937370 125.9944640 116.3103260
  29.1222150 129.9948720 112.3874090  29.0121430 129.8404760 113.3256360
  29.8829740 129.4669660 112.1449500  27.4687870 125.9342850 118.8457090
  28.1060090 126.5476990 119.2116280  27.6162760 125.9703510 117.9006320
  30.0112420 127.8256640 105.6280230  30.9361730 127.6937820 105.4198520
  29.9888210 127.9049460 106.5816680  30.0850910 128.5967300 108.2536940
  29.2902410 128.5312420 108.7829850  30.2894190 129.5317940 108.2422290
  27.0269330 142.6358850 112.2475330  27.6228400 142.3143420 111.5709750
  27.2847480 142.1630670 113.0388600  13.3267530 125.8957160 118.2312770
  12.9782350 126.3520980 118.9970950  12.9955230 125.0014290 118.3135200
  14.9331900 139.0676760 122.3965960  14.8901530 138.6969670 123.2780420
  15.0642910 140.0054330 122.5367780  18.6337930 140.6236350 117.9975680
  18.3929290 140.8910910 117.1106200  19.5740570 140.7942080 118.0526540
  20.8392350 127.0869040 121.7532190  20.7781240 127.6790870 122.5027600
  21.7792730 126.9795000 121.6082450  23.4766910 126.7439100 121.3924480
  24.0907320 127.0618390 120.7305560  24.0216470 126.2587690 122.0120340
  29.8942090 142.6430730 118.7986320  29.4000370 143.0399600 118.0813450
  29.2855380 142.0179940 119.1923600  13.9988170 125.4233360 121.5063540
  14.5471160 125.2421410 120.7429650  14.0643480 124.6327470 122.0419850
  14.7719930 142.0139010 119.5163740  14.1780250 141.8823710 120.2553780
  14.7643770 141.1777150 119.0505840  24.2174950 125.3071240 117.7193770
  23.3434790 125.6406350 117.5166700  24.1085700 124.8344420 118.5445640
  25.1246930 127.5142110 119.1035490  24.7960290 126.6993870 118.7237220
  26.0729230 127.4711920 118.9801180  27.5781540 143.2854150 116.0773060
  27.1184510 144.0369960 115.7031080  26.9494000 142.5660620 116.0187860
  14.4032160 139.3797390 118.4671780  13.6766220 138.7602680 118.3997730
  14.4641310 139.7738000 117.5969860  18.0077260 141.5942390 115.2521190
  18.5242280 140.9829750 114.7269450  18.6574640 142.0971170 115.7432200
  20.7472760 142.4850880 116.0790170  21.0350570 142.2305180 115.2023180
  21.2595980 141.9328240 116.6695740  21.9649770 126.2241080 116.6586680
  21.1821560 126.6986580 116.9383440  21.6712700 125.3195910 116.5499860
  26.5170840 126.9264180 114.7035770  26.9578930 126.8709280 113.8557370
  26.2478430 127.8422190 114.7745950  28.3809410 126.5579420 112.7144590
  28.3197810 125.6140640 112.5675610  29.1601440 126.6659510 113.2598050
  12.6862160 142.6971780 111.6768540  12.5184200 142.0642460 112.3750430
  11.8196670 142.9031180 111.3262730  13.3090180 126.5288560 109.1800400
  14.0669540 126.6417440 108.6064430  12.8467350 127.3657760 109.1343830
  19.8503990 128.6427830 112.1702710  19.0378500 128.2684720 111.8298590
  20.3545630 127.8872910 112.4723900  24.3528970 125.3070280 113.4085780
  24.9558340 125.8790490 113.8834300  23.6121960 125.8709720 113.1859680
  27.4963570 125.7091840 108.6826060  27.6914200 126.6075290 108.9493490
  26.7093440 125.4778920 109.1759010  14.2924860 141.3905010 109.1218680
  13.7672480 141.7713040 108.4180640  14.2169440 142.0155780 109.8428390
  15.6815330 127.0552610 107.7202370  16.2108090 126.2682410 107.5910320
  16.3143650 127.7343800 107.9537900  17.8753170 126.7927750 110.7747760
  17.2455910 126.0915060 110.9417890  17.3358310 127.5531880 110.5580920
  20.8145120 143.4066980 123.4458370  21.7412430 143.1711250 123.4894330
  20.7995550 144.2338980 122.9644400  29.0490180 142.9492550 110.4432620
  29.2242370 142.2630290 109.7993540  28.3511750 143.4739600 110.0509290
  18.0008730 126.0711730 123.2100250  17.7193000 126.5745330 122.4461070
  18.3828430 125.2733480 122.8442380  16.8917830 143.3387390 107.9967930
  17.6236650 143.0546670 107.4491820  17.1511500 143.1000670 108.8867310
  16.0532620 139.4552120 108.0014260  15.4241500 139.9237220 108.5500090
  16.1680450 138.6101340 108.4360450  24.6024190 125.4865310 123.7880720
  24.4889640 125.8059920 124.6832240  25.4193930 125.8877820 123.4918000
  27.3822680 142.6336840 123.2699410  28.1748000 142.1386070 123.0625370
  27.6755830 143.3126980 123.8775020  23.5082340 133.5057780  94.1515460
  23.4276390 132.5912390  93.8807170  23.0946760 134.0024850  93.4455170
  21.6400380 135.2836800  96.0324730  20.8642480 134.8037240  96.3223300
  22.2913310 134.6042450  95.8580890  15.6566210 135.5956610  96.9100490
  14.8251090 135.3405320  97.3097000  16.2647190 135.6667380  97.6458410
  25.6607810 139.6896990  94.8123860  25.1989340 138.9184230  95.1411030
  26.4733360 139.7163060  95.3176310  15.6367470 139.6296700  97.1058510
  15.9395510 138.7394440  96.9268730  16.3811060 140.1866920  96.8780760
  14.0658160 130.5558500  90.6942880  13.1774860 130.8974470  90.5922760
  14.3499350 130.3558820  89.8023710  12.0291170 133.1564150  96.5782580
  12.6007280 132.3886350  96.5786220  12.0292710 133.4552910  95.6689190
  21.8871120 141.9755000  94.4327850  21.2682560 142.4312500  93.8622290
  22.7422900 142.1306460  94.0317550  21.0809370 137.9593990  96.0394890
  21.0117650 137.0183930  95.8784020  21.8429230 138.0495400  96.6117460
  13.2716040 128.5648510  98.3651510  13.0918880 127.6674260  98.6454270
  12.8696120 129.1120380  99.0398460  22.1114540 130.7664370  96.2663820
  22.4879360 129.8936250  96.1537490  22.0134050 131.1023070  95.3754260
  16.2419550 129.1390000  91.7281260  16.3486300 130.0393730  92.0350020
  15.3311910 129.0907970  91.4375910  25.8938660 128.2614810  93.1992160
  26.7148280 127.7711380  93.2417640  25.9272740 128.8512470  93.9524000
  13.8902710 131.0609010  96.9733850  14.5712820 131.3247380  97.5921250
  13.5750760 130.2209880  97.3071860  18.0827280 132.1076370  96.0606440
  18.5905500 132.6057340  96.7011460  18.6140520 131.3311570  95.8845800
  30.1838210 130.2781560  99.7635790  29.4790380 130.6663270  99.2450900
  30.4496130 130.9731850 100.3656720  16.3663380 126.7474930 100.3269860
  16.3681820 127.2647320  99.5215760  15.5367690 126.2705110 100.3039790
  22.7534470 136.8594240  91.8259760  22.1351740 137.3243690  91.2622480
  23.2657720 137.5521720  92.2429270  17.6166230 136.3870110  98.5043360
  17.2835610 137.0139030  99.1464430  17.7932910 136.9131990  97.7245030
  26.1300140 130.2015190  95.9719700  25.4255710 130.4900080  96.5522810
  26.4912300 131.0115300  95.6119260  16.0478710 128.4584890  98.3340310
  16.3895520 129.3026940  98.0394180  15.1094520 128.6068630  98.4505650
  16.8285330 138.3550910 100.3192540  17.4459330 139.0301990 100.0376990
  15.9678450 138.7638890 100.2280040  12.1217670 137.5450770  89.1999390
  11.7445650 138.0337870  88.4684290  12.3790740 138.2176050  89.8305920
  27.7462920 139.8190320  98.2347180  27.0626440 140.4889430  98.2263850
  28.2857210 140.0170970  97.4692040  29.1987060 129.6469980  96.3628910
  28.2511970 129.6808960  96.4944340  29.5237050 130.4608930  96.7478270
  19.7306600 125.9467160  94.6584900  20.0381580 125.3914050  93.9420400
  18.8007300 126.0811620  94.4757890  25.2821660 141.6634450  96.9492360
  25.2948820 141.2596740  96.0814620  24.7296880 142.4381740  96.8453790
  26.5767080 138.3850670  92.0382530  26.4663410 137.4425000  92.1631950
  26.5735330 138.7466310  92.9245290  24.6807100 136.5664290  98.2774970
  25.0975890 136.3524400  97.4428430  25.4046920 136.8237080  98.8483590
  22.1187360 134.0115990  91.3945020  21.1916640 133.9453370  91.6233490
  22.2712180 134.9496120  91.2800260  22.1056440 130.2832990  88.3912180
  21.1660110 130.4446950  88.4764640  22.4239700 131.0018670  87.8448170
  28.6269200 134.9651510  98.3691210  27.7987830 135.0344600  97.8941340
  29.2219680 135.5505820  97.9007040  26.1484650 135.5736290  91.8980270
  25.5297070 135.2355840  91.2506570  26.1309100 134.9296050  92.6059460
  25.5911210 131.7520830  99.3146080  25.1782390 132.5774540  99.5686070
  24.8587160 131.1665870  99.1222440  17.7244000 134.5380730  94.1764750
  17.3201000 133.8257980  93.6810650  17.8107120 134.1933970  95.0652790
  18.1925700 138.2248290  96.3403960  17.8953990 137.6193760  95.6611740
  19.1425520 138.2625600  96.2293320  16.4372620 131.3123940  97.9563790
  16.9887210 131.4219280  97.1817040  16.9516130 131.6861540  98.6719020
  26.2811310 141.7980160 100.0027060  25.8041870 142.6052350  99.8099670
  25.5973100 141.1458490 100.1553270  17.2844130 137.9629980 102.9911760
  16.3872660 138.1869950 103.2385160  17.3097000 138.0864920 102.0423160
  24.3249350 134.8123100  88.9053020  24.7642630 133.9745530  88.7590840
  25.0377770 135.4452500  88.9917160  16.1115350 134.8343300 101.5669130
  15.9723120 135.7066100 101.9356530  15.2296710 134.4916110 101.4217070
  22.4344730 139.7519170  92.8734260  22.8740640 140.4943500  92.4589650
  22.3731620 139.9945740  93.7973220  17.9095700 140.7765000 103.7754280
  17.8811130 141.1807950 102.9082710  17.7460670 139.8475360 103.6125880
  27.9066490 126.0665910  87.2194060  27.5939150 126.1592740  88.1193130
  28.6678960 126.6446940  87.1691490  14.4248630 133.4325710  91.6771400
  14.3046230 134.1587800  91.0652670  14.1149520 132.6628620  91.1999310
  29.8610520 141.5592100 105.0718450  30.3370240 142.0374990 105.7507530
  30.4817680 141.4909590 104.3463950  12.0634000 136.6040850  97.4840040
  12.1414420 136.7389620  96.5395760  12.6775680 135.8956740  97.6768160
  13.3081630 138.3041040  93.8946220  12.9009710 138.4455630  93.0399820
  14.1994640 138.0201200  93.6917430  29.2643770 138.7504950 102.2318460
  29.3906830 138.5116830 101.3135640  29.3065150 137.9189490 102.7040540
  23.1260510 142.4532950 100.8013270  23.6405180 142.3640960 101.6035700
  22.2829590 142.7992650 101.0941180  25.1014910 142.7388290  90.2297270
  24.9416050 142.4491230  91.1279100  24.9361620 141.9628420  89.6942500
  17.5803290 142.5186820  92.0068890  17.4045770 141.6022360  91.7936690
  16.7259030 142.8774110  92.2466690  24.8041040 140.2475850  88.7895270
  24.1106200 140.2453140  88.1297550  25.5463900 139.8235170  88.3589440
  24.3690970 141.8738560  92.8643760  24.8247920 141.0927940  93.1782380
  24.7083490 142.5845380  93.4084940  29.1167780 130.8037410 103.1968200
  28.5012050 131.3117080 102.6683660  28.7964200 129.9035740 103.1394140
  12.1193520 137.6455020 100.0234500  12.2824560 137.1760380  99.2053870
  12.5845970 137.1378580 100.6883340  16.8912290 126.7760780  95.0595070
  16.4480440 127.5570320  94.7279590  17.4497280 127.0990670  95.7666010
  21.1782100 129.6429300 100.6630390  20.7161470 129.8512320 101.4750330
  20.7760210 128.8288650 100.3601060  26.1786610 130.8638250 101.7927050
  25.3280200 130.5644000 102.1136120  26.0188400 131.1080260 100.8810870
  23.2736320 132.3640000 103.8925840  23.5989730 131.5303750 103.5528070
  24.0616650 132.8868520 104.0404170  20.0071110 126.3971480  89.9400900
  19.3825290 126.3931350  90.6654210  19.9201230 125.5302440  89.5436870
  18.9288190 127.3208110  96.9184670  19.2260520 128.2270940  96.8376690
  19.4773750 126.8326890  96.3044240  16.6826510 131.8994350  92.7876320
  16.4567430 131.6831520  93.6922940  15.9019040 132.3322810  92.4422290
  23.9124270 131.9057720  91.3866970  23.3133160 132.6293520  91.2030590
  24.4603880 131.8434500  90.6043420  19.1225720 132.7979930 103.4536590
  19.0269320 131.8574660 103.3036990  19.9657700 133.0195000 103.0584660
  22.5189140 130.5421260  93.4170250  22.9118710 130.8593460  92.6038940
  22.8805990 129.6633140  93.5314770  14.2536260 129.2093600 101.6070370
  13.8599650 130.0568810 101.8143150  13.5654660 128.5719970 101.7979010
  20.8281310 129.2928570 104.6767110  20.1379630 129.1000770 105.3113200
  21.5713610 129.5763210 105.2091410  11.5553310 127.1322060  95.6400450
  11.2666360 127.7024920  96.3525430  12.2999070 126.6526510  96.0031680
  11.7423540 131.0742180  86.8503170  11.6598210 132.0172940  86.9918160
  11.3906600 130.9317090  85.9715520  23.1044280 133.1327010  97.5121030
  22.3725400 133.6413820  97.8611130  22.7068620 132.3156990  97.2109810
  19.5421670 129.8081210  95.9173520  19.5457730 129.3671160  95.0678060
  20.4372790 130.1298540  96.0245340  15.3924050 129.6907700  94.8767730
  15.0524100 130.1682930  95.6334780  14.6301370 129.2372820  94.5168830
  19.6041820 130.8093290  88.9080280  19.7254640 130.7679770  89.8566100
  19.2190330 131.6717440  88.7527010  23.5670190 128.5860690  96.9243970
  23.5842930 129.0369340  97.7685820  23.3185770 127.6866330  97.1377410
  18.6163320 133.1194430  88.3063580  18.0480220 132.6712680  87.6799490
  19.3252320 133.4787210  87.7728730  26.9940940 125.9992870 102.7630350
  27.3186710 125.2682530 103.2888330  27.0297450 125.6806510 101.8611340
  13.6932500 137.0206450 102.1830310  13.3087290 136.3800120 102.7813270
  14.0044690 137.7242570 102.7525040  19.8429640 133.8682990  97.6638930
  20.2099770 133.3941560  98.4100270  19.6534700 134.7424560  98.0047270
  12.7070130 128.6126680  93.7932400  12.4217050 128.2482350  94.6311020
  12.6448990 127.8807140  93.1795540  17.6329010 132.9091630  99.9823140
  17.3286080 133.7883610 100.2073500  18.5875470 132.9691420 100.0180580
  16.1610800 137.1152620  90.5789990  15.3873060 136.5750240  90.4188710
  16.8905430 136.5959230  90.2407750  26.9198780 136.1117980  96.3716380
  27.6397900 136.6073270  95.9812490  26.7180600 135.4335870  95.7270250
  22.3808720 127.5055940  90.5145770  21.5673330 127.0069110  90.4391080
  22.1870670 128.3454190  90.0982120  22.3017580 136.1827040 102.2585380
  22.2354890 135.2622710 102.0042970  21.6722720 136.2802480 102.9730020
  25.0957110 131.8775590  88.8107930  25.9836730 132.1892820  88.6359270
  25.0662200 131.0047840  88.4188510  16.2048200 136.7833000  94.2168800
  16.7226870 135.9801260  94.1625690  15.7532220 136.7212140  95.0585630
  21.0917700 138.0499280  89.4896100  21.4333400 138.7941510  88.9939420
  20.2630410 138.3630400  89.8520930  13.6892740 133.7494370 101.1294500
  13.3307680 134.4148220 101.7167840  13.3947300 132.9177920 101.5007120
  16.8905860 134.2078610 104.0134050  16.5906000 134.3535790 103.1161870
  17.6617100 133.6483900 103.9207440  22.2334310 139.0047610 102.0089180
  22.2478850 138.0728570 101.7908090  21.5259410 139.0907370 102.6478950
  27.3671380 133.1887430  88.2787790  27.2835100 133.6201650  87.4284230
  28.0865570 133.6485780  88.7114610  28.4445520 135.6454950 101.3557760
  27.7193710 136.2383730 101.1587150  28.9720980 135.6378490 100.5571130
  28.3958630 140.0429690  91.0069920  27.7534790 139.3885310  91.2813640
  28.0089290 140.4484780  90.2310590  23.9745110 137.3715120  94.8541610
  24.3268930 136.7743250  94.1942980  23.0907440 137.0459350  95.0249860
  20.0608390 138.1312810  92.2612020  20.7479520 138.6782020  92.6419610
  19.2740810 138.6753540  92.2961630  12.2000790 133.7485630  87.7529100
  13.0695640 134.0310430  88.0365020  11.7091110 134.5621500  87.6377910
  19.3635600 135.1358840  91.8737380  19.8198380 135.9464090  92.0997570
  19.0123810 134.8181980  92.7055870  21.6668210 140.6465180  99.1029680
  22.3110430 140.8524560  99.7803100  22.0297650 139.8853580  98.6500530
  15.2647380 125.4796490  92.3459900  15.1362010 125.4714390  93.2944820
  14.4409400 125.8179580  91.9950910  22.9400290 138.6497530  97.8207130
  23.5822520 137.9490690  97.9339300  23.4649640 139.4295970  97.6404020
  26.7856010 138.9346150  87.5446270  26.5593590 138.2176590  88.1370910
  26.3952210 138.6858590  86.7068020  24.7137910 139.4492430 101.0243190
  25.0494150 140.0359120 101.7021110  23.7938250 139.3185140 101.2540980
  12.5672040 142.9613010  88.3190730  12.9269680 143.5602350  87.6648000
  12.4264380 143.5072900  89.0925760  12.2641310 127.2387610 101.8066600
  11.5499830 127.4384530 102.4119210  12.6836350 126.4627180 102.1781400
  26.3672260 136.8518090  89.2060430  26.0793960 137.3130780  89.9938310
  27.1624430 136.3915860  89.4744650  12.5513900 141.2267870 102.7933130
  12.6605020 140.2862610 102.6528520  11.8994460 141.4922620 102.1446860
  20.5426490 139.4983760 104.1931250  20.2223360 138.7793000 104.7376940
  19.8684850 140.1738830 104.2667310  18.5840660 140.3444210  89.1364400
  18.5750760 141.0773900  88.5208910  17.6639020 140.0975790  89.2291360
  14.1847300 135.5659100  89.8811160  13.5775250 136.3058000  89.8906460
  14.6596650 135.6558460  89.0549360  23.7580090 129.7309920  99.5568050
  24.1260910 128.9105130  99.8847620  22.8978290 129.7911810  99.9723700
  27.1242120 128.6866860  90.3655610  26.4955280 128.7912530  89.6513840
  26.6294040 128.9063640  91.1549490  21.5700260 140.4072450  87.7989590
  21.6712240 140.2036440  86.8691570  20.6702000 140.1530730  88.0037370
  19.0926150 130.9652810  91.7813490  18.3842300 131.4339150  92.2227100
  19.3770630 130.3074820  92.4158680  20.7182080 132.3849510  99.7806020
  21.2167330 132.8595330 100.4457870  20.8605030 131.4613030  99.9876050
  23.1241580 127.6903470  93.2209280  23.0009360 127.7089600  92.2718790
  24.0726140 127.7382410  93.3407680  20.2118370 142.9258770  92.4937260
  20.4659870 142.8880160  91.5716630  19.2630850 142.7992100  92.4865510
  17.2961170 129.2737890  89.1564200  18.1451700 129.7108040  89.0904390
  16.9292440 129.5858150  89.9836260  27.9248940 128.6017470 100.6234410
  27.4222540 129.3422870 100.9628220  28.7405600 128.9901470 100.3071200
  26.2170950 133.8450650  94.0695770  25.2761090 133.8600880  94.2443460
  26.5315020 133.0586610  94.5156070  16.1952590 135.5270250  87.6299730
  16.9615860 135.4151610  88.1925160  16.2727280 134.8308220  86.9776500
  14.8899350 132.9595320  88.3132620  14.9702940 132.0122830  88.4250020
  15.7819100 133.2902200  88.4193280  28.2196530 141.0159500  95.7450030
  28.3443950 141.8390670  96.2173840  29.0862090 140.8050230  95.3974180
  15.6914060 143.1090710  95.4167160  16.4276540 142.5606170  95.6875730
  16.0754980 143.9746720  95.2773150  12.5759540 139.1764280  91.2908670
  11.6499320 139.4185420  91.2814080  13.0415970 140.0038540  91.1693420
  14.6972340 142.2936780 104.6052740  15.4985070 142.6148830 105.0188140
  14.1824160 141.9332360 105.3272650  18.8016370 142.2821020  87.2392730
  19.5944980 142.5709850  86.7874520  18.2820720 141.8513190  86.5605210
  23.5336970 138.4016650 104.5528150  22.9275130 138.4248250 103.8123900
  23.2291080 137.6699690 105.0895400  24.9637340 142.1296940 103.1637560
  25.9159090 142.0454960 103.1137800  24.8165560 142.7938650 103.8371350
  27.8546540 141.5091150  88.6629470  27.5688050 141.0956290  87.8483650
  27.6566090 142.4378860  88.5429990  12.4170150 134.7810240 103.5488790
  12.9209170 134.2017520 104.1205020  11.6777570 135.0650470 104.0865160
  19.3193770 137.5024430  87.1035080  19.2144410 136.8876780  87.8296460
  19.1517990 136.9790320  86.3198090  19.4708090 136.1881230 103.0824310
  18.7053760 136.7566230 102.9978980  19.6524050 135.8957440 102.1892540
  22.5596500 136.5644460  87.7077070  22.0106600 137.0113760  88.3519810
  23.1815760 136.0593710  88.2314740  26.6131440 137.9186560 103.6399330
  27.3540910 138.2562320 103.1366790  25.8504120 138.0878620 103.0869100
  14.4493230 132.9239830 104.4438860  14.4898570 132.6253700 105.3524090
  15.3038730 133.3247440 104.2846380  18.2271620 135.5235380  89.6042370
  18.6488040 135.3575250  90.4473760  18.3522460 134.7135610  89.1097510
  16.3899040 131.5031930 102.4113350  15.8595500 131.0122880 101.7836690
  17.0587110 131.9316130 101.8771280  20.7399260 134.5472990  86.8519470
  21.2604920 133.8322010  86.4860620  21.3867660 135.1858860  87.1519980
  25.2877100 135.9701390 102.1754540  25.7018120 136.1246470 103.0244960
  24.3528100 136.0956610 102.3380320  25.7599270 133.3097550 104.1793690
  26.3420040 132.5549870 104.0914170  25.9361040 133.8404990 103.4025170
  16.8771340 128.4694300 102.4910640  16.7828210 127.8515050 101.7661510
  16.2968730 129.1960590 102.2640550  19.6432780 127.0267540  99.5238030
  19.1950080 127.0491800  98.6783580  19.0097980 126.6286560 100.1208330
  20.0492330 135.9221870 100.1450470  20.4680440 136.7654600  99.9726710
  19.1300960 136.0593910  99.9157250  22.3856230 133.6538050 101.5288310
  22.5052440 133.0579190 102.2683150  23.2450230 133.6907740 101.1089610
  24.7244130 134.2075240 100.1050820  24.1979350 134.7317860  99.5015960
  25.0675470 134.8402630 100.7360550  17.1230520 131.5968610  86.5500530
  16.9219580 130.7335970  86.9113870  16.9522570 131.5101970  85.6122130
  17.8999750 142.2274880 101.2608200  17.3620840 142.9520940 100.9416900
  18.1533710 141.7505220 100.4705540  19.1525000 130.1959400 102.7864130
  19.7424690 129.8875250 103.4741950  18.3345240 129.7239150 102.9424030
  23.9718430 129.8125210 103.0197150  23.2833950 129.1506750 102.9547140
  24.6924450 129.3663480 103.4645610  24.6018830 126.4076840  89.0787410
  24.8821120 125.5644740  89.4346830  23.8284560 126.6399950  89.5926160
  15.9213320 128.6969230  86.5378410  16.2239220 128.7036660  85.6297560
  16.6607910 128.3467090  87.0346070  20.7561960 143.4626090 101.5194850
  20.6820660 144.3661230 101.8267220  19.8540800 143.1437990 101.4916920
  19.1398250 127.6403850  87.5234610  18.7920250 126.9627840  86.9437060
  19.3411020 127.1793360  88.3378000  21.3047290 142.6284600  89.1421210
  22.1998080 142.9669570  89.1639970  21.3364920 141.9064010  88.5145490
  14.9443450 138.0011650  87.3708210  15.3818320 138.5441320  88.0265790
  15.4291180 137.1758600  87.3804550  12.1589250 140.7900680  94.8228470
  12.4892260 139.9221740  94.5907110  12.5880250 140.9959200  95.6533430
  16.7551170 139.1209690  92.4830440  16.4546710 138.9974660  93.3834350
  16.6488660 138.2618280  92.0746170  12.6479460 141.6571270  97.5610100
  12.2110450 141.8372070  98.3934250  13.2157140 142.4145890  97.4191820
  28.2841640 141.1588270 101.8487410  27.6843630 141.2180830 101.1051330
  28.4135540 140.2193250 101.9784260  29.5243090 138.9006090  87.1857120
  28.6936050 138.9682740  87.6564350  29.7014920 139.7910210  86.8823980
  28.9799550 135.6453570  89.6891320  29.7418460 136.2150220  89.7951010
  28.9953920 135.0780770  90.4599630  12.4803890 134.1691500  93.9198980
  11.8252730 133.9003140  93.2758680  13.3181840 134.0595980  93.4700960
  29.9859520 136.5003670  94.5333250  30.3568350 135.7170990  94.1269220
  30.6261450 137.1892770  94.3550550  26.9693280 137.8840250  99.9463570
  26.1553120 138.3137410 100.2089360  27.3767480 138.4958660  99.3332620
  29.0318720 135.9387940  86.8463840  29.3067560 136.8466820  86.7183060
  28.8429460 135.8750470  87.7825830  25.4294330 128.9632790  88.1417470
  25.8479210 128.7763770  87.3014130  25.1230390 128.1111840  88.4520400
  28.9284060 133.8756930  91.8393270  28.5527660 133.1084860  91.4074560
  28.1987180 134.2579630  92.3268200  13.5179820 134.5544070  98.4602320
  13.8852860 134.4671470  99.3398340  12.9490640 133.7910620  98.3609180
  28.3183680 133.0228450 101.4732790  28.0869770 132.7941200 100.5730740
  28.5788230 133.9428000 101.4277680  13.0695820 131.4653160 102.3660740
  12.1751870 131.4319920 102.7054450  13.6093370 131.6639950 103.1311990
  26.7571750 128.2484880 104.2512490  27.6341930 128.2568280 104.6346490
  26.7692590 127.5115720 103.6404840  11.6941970 131.3790430  89.8624310
  10.7906050 131.6420630  89.6875970  12.1782590 131.6501600  89.0824270
  28.2035020 132.1014420  95.1400510  28.7272500 131.6077070  94.5090680
  28.7894440 132.2364780  95.8848080  28.3824740 132.1854290  98.6620060
  27.4327450 132.1517830  98.7765050  28.5637750 133.0954400  98.4269830
  14.2369180 130.4355970  87.7718690  14.9460880 130.0139190  87.2865970
  13.5209120 130.5031200  87.1402040  13.8843340 126.4895300  86.8121340
  14.6071470 127.0304240  87.1302560  14.1567860 126.2158720  85.9362880
  27.6934990 131.3587770  91.0792920  28.1894110 131.1258640  91.8641800
  27.4951060 130.5199610  90.6630560  13.5735530 125.7401490  96.7143960
  14.2211720 125.1898870  96.2739120  13.9937370 125.9944640  97.5359770
  29.1222150 129.9948720  93.6130600  29.0121430 129.8404760  94.5512870
  29.8829740 129.4669660  93.3706010  27.4687870 125.9342850 100.0713600
  28.1060090 126.5476990 100.4372790  27.6162760 125.9703510  99.1262830
  30.0112420 127.8256640  86.8536740  30.9361730 127.6937820  86.6455030
  29.9888210 127.9049460  87.8073190  30.0850910 128.5967300  89.4793450
  29.2902410 128.5312420  90.0086360  30.2894190 129.5317940  89.4678800
  27.0269330 142.6358850  93.4731840  27.6228400 142.3143420  92.7966260
  27.2847480 142.1630670  94.2645110  13.3267530 125.8957160  99.4569280
  12.9782350 126.3520980 100.2227460  12.9955230 125.0014290  99.5391710
  14.9331900 139.0676760 103.6222470  14.8901530 138.6969670 104.5036930
  15.0642910 140.0054330 103.7624290  18.6337930 140.6236350  99.2232190
  18.3929290 140.8910910  98.3362710  19.5740570 140.7942080  99.2783050
  20.8392350 127.0869040 102.9788700  20.7781240 127.6790870 103.7284110
  21.7792730 126.9795000 102.8338960  23.4766910 126.7439100 102.6180990
  24.0907320 127.0618390 101.9562070  24.0216470 126.2587690 103.2376850
  29.8942090 142.6430730 100.0242830  29.4000370 143.0399600  99.3069960
  29.2855380 142.0179940 100.4180110  13.9988170 125.4233360 102.7320050
  14.5471160 125.2421410 101.9686160  14.0643480 124.6327470 103.2676360
  14.7719930 142.0139010 100.7420250  14.1780250 141.8823710 101.4810290
  14.7643770 141.1777150 100.2762350  24.2174950 125.3071240  98.9450280
  23.3434790 125.6406350  98.7423210  24.1085700 124.8344420  99.7702150
  25.1246930 127.5142110 100.3292000  24.7960290 126.6993870  99.9493730
  26.0729230 127.4711920 100.2057690  27.5781540 143.2854150  97.3029570
  27.1184510 144.0369960  96.9287590  26.9494000 142.5660620  97.2444370
  14.4032160 139.3797390  99.6928290  13.6766220 138.7602680  99.6254240
  14.4641310 139.7738000  98.8226370  18.0077260 141.5942390  96.4777700
  18.5242280 140.9829750  95.9525960  18.6574640 142.0971170  96.9688710
  20.7472760 142.4850880  97.3046680  21.0350570 142.2305180  96.4279690
  21.2595980 141.9328240  97.8952250  21.9649770 126.2241080  97.8843190
  21.1821560 126.6986580  98.1639950  21.6712700 125.3195910  97.7756370
  26.5170840 126.9264180  95.9292280  26.9578930 126.8709280  95.0813880
  26.2478430 127.8422190  96.0002460  28.3809410 126.5579420  93.9401100
  28.3197810 125.6140640  93.7932120  29.1601440 126.6659510  94.4854560
  12.6862160 142.6971780  92.9025050  12.5184200 142.0642460  93.6006940
  11.8196670 142.9031180  92.5519240  13.3090180 126.5288560  90.4056910
  14.0669540 126.6417440  89.8320940  12.8467350 127.3657760  90.3600340
  19.8503990 128.6427830  93.3959220  19.0378500 128.2684720  93.0555100
  20.3545630 127.8872910  93.6980410  24.3528970 125.3070280  94.6342290
  24.9558340 125.8790490  95.1090810  23.6121960 125.8709720  94.4116190
  27.4963570 125.7091840  89.9082570  27.6914200 126.6075290  90.1750000
  26.7093440 125.4778920  90.4015520  14.2924860 141.3905010  90.3475190
  13.7672480 141.7713040  89.6437150  14.2169440 142.0155780  91.0684900
  15.6815330 127.0552610  88.9458880  16.2108090 126.2682410  88.8166830
  16.3143650 127.7343800  89.1794410  17.8753170 126.7927750  92.0004270
  17.2455910 126.0915060  92.1674400  17.3358310 127.5531880  91.7837430
  20.8145120 143.4066980 104.6714880  21.7412430 143.1711250 104.7150840
  20.7995550 144.2338980 104.1900910  29.0490180 142.9492550  91.6689130
  29.2242370 142.2630290  91.0250050  28.3511750 143.4739600  91.2765800
  18.0008730 126.0711730 104.4356760  17.7193000 126.5745330 103.6717580
  18.3828430 125.2733480 104.0698890  16.8917830 143.3387390  89.2224440
  17.6236650 143.0546670  88.6748330  17.1511500 143.1000670  90.1123820
  16.0532620 139.4552120  89.2270770  15.4241500 139.9237220  89.7756600
  16.1680450 138.6101340  89.6616960  24.6024190 125.4865310 105.0137230
  24.4889640 125.8059920 105.9088750  25.4193930 125.8877820 104.7174510
  27.3822680 142.6336840 104.4955920  28.1748000 142.1386070 104.2881880
  27.6755830 143.3126980 105.1031530  23.5082340 133.5057780  75.3771970
  23.4276390 132.5912390  75.1063680  23.0946760 134.0024850  74.6711680
  21.6400380 135.2836800  77.2581240  20.8642480 134.8037240  77.5479810
  22.2913310 134.6042450  77.0837400  15.6566210 135.5956610  78.1357000
  14.8251090 135.3405320  78.5353510  16.2647190 135.6667380  78.8714920
  25.6607810 139.6896990  76.0380370  25.1989340 138.9184230  76.3667540
  26.4733360 139.7163060  76.5432820  15.6367470 139.6296700  78.3315020
  15.9395510 138.7394440  78.1525240  16.3811060 140.1866920  78.1037270
  14.0658160 130.5558500  71.9199390  13.1774860 130.8974470  71.8179270
  14.3499350 130.3558820  71.0280220  12.0291170 133.1564150  77.8039090
  12.6007280 132.3886350  77.8042730  12.0292710 133.4552910  76.8945700
  21.8871120 141.9755000  75.6584360  21.2682560 142.4312500  75.0878800
  22.7422900 142.1306460  75.2574060  21.0809370 137.9593990  77.2651400
  21.0117650 137.0183930  77.1040530  21.8429230 138.0495400  77.8373970
  13.2716040 128.5648510  79.5908020  13.0918880 127.6674260  79.8710780
  12.8696120 129.1120380  80.2654970  22.1114540 130.7664370  77.4920330
  22.4879360 129.8936250  77.3794000  22.0134050 131.1023070  76.6010770
  16.2419550 129.1390000  72.9537770  16.3486300 130.0393730  73.2606530
  15.3311910 129.0907970  72.6632420  25.8938660 128.2614810  74.4248670
  26.7148280 127.7711380  74.4674150  25.9272740 128.8512470  75.1780510
  13.8902710 131.0609010  78.1990360  14.5712820 131.3247380  78.8177760
  13.5750760 130.2209880  78.5328370  18.0827280 132.1076370  77.2862950
  18.5905500 132.6057340  77.9267970  18.6140520 131.3311570  77.1102310
  30.1838210 130.2781560  80.9892300  29.4790380 130.6663270  80.4707410
  30.4496130 130.9731850  81.5913230  16.3663380 126.7474930  81.5526370
  16.3681820 127.2647320  80.7472270  15.5367690 126.2705110  81.5296300
  22.7534470 136.8594240  73.0516270  22.1351740 137.3243690  72.4878990
  23.2657720 137.5521720  73.4685780  17.6166230 136.3870110  79.7299870
  17.2835610 137.0139030  80.3720940  17.7932910 136.9131990  78.9501540
  26.1300140 130.2015190  77.1976210  25.4255710 130.4900080  77.7779320
  26.4912300 131.0115300  76.8375770  16.0478710 128.4584890  79.5596820
  16.3895520 129.3026940  79.2650690  15.1094520 128.6068630  79.6762160
  16.8285330 138.3550910  81.5449050  17.4459330 139.0301990  81.2633500
  15.9678450 138.7638890  81.4536550  12.1217670 137.5450770  70.4255900
  11.7445650 138.0337870  69.6940800  12.3790740 138.2176050  71.0562430
  27.7462920 139.8190320  79.4603690  27.0626440 140.4889430  79.4520360
  28.2857210 140.0170970  78.6948550  29.1987060 129.6469980  77.5885420
  28.2511970 129.6808960  77.7200850  29.5237050 130.4608930  77.9734780
  19.7306600 125.9467160  75.8841410  20.0381580 125.3914050  75.1676910
  18.8007300 126.0811620  75.7014400  25.2821660 141.6634450  78.1748870
  25.2948820 141.2596740  77.3071130  24.7296880 142.4381740  78.0710300
  26.5767080 138.3850670  73.2639040  26.4663410 137.4425000  73.3888460
  26.5735330 138.7466310  74.1501800  24.6807100 136.5664290  79.5031480
  25.0975890 136.3524400  78.6684940  25.4046920 136.8237080  80.0740100
  22.1187360 134.0115990  72.6201530  21.1916640 133.9453370  72.8490000
  22.2712180 134.9496120  72.5056770  22.1056440 130.2832990  69.6168690
  21.1660110 130.4446950  69.7021150  22.4239700 131.0018670  69.0704680
  28.6269200 134.9651510  79.5947720  27.7987830 135.0344600  79.1197850
  29.2219680 135.5505820  79.1263550  26.1484650 135.5736290  73.1236780
  25.5297070 135.2355840  72.4763080  26.1309100 134.9296050  73.8315970
  25.5911210 131.7520830  80.5402590  25.1782390 132.5774540  80.7942580
  24.8587160 131.1665870  80.3478950  17.7244000 134.5380730  75.4021260
  17.3201000 133.8257980  74.9067160  17.8107120 134.1933970  76.2909300
  18.1925700 138.2248290  77.5660470  17.8953990 137.6193760  76.8868250
  19.1425520 138.2625600  77.4549830  16.4372620 131.3123940  79.1820300
  16.9887210 131.4219280  78.4073550  16.9516130 131.6861540  79.8975530
  26.2811310 141.7980160  81.2283570  25.8041870 142.6052350  81.0356180
  25.5973100 141.1458490  81.3809780  17.2844130 137.9629980  84.2168270
  16.3872660 138.1869950  84.4641670  17.3097000 138.0864920  83.2679670
  24.3249350 134.8123100  70.1309530  24.7642630 133.9745530  69.9847350
  25.0377770 135.4452500  70.2173670  16.1115350 134.8343300  82.7925640
  15.9723120 135.7066100  83.1613040  15.2296710 134.4916110  82.6473580
  22.4344730 139.7519170  74.0990770  22.8740640 140.4943500  73.6846160
  22.3731620 139.9945740  75.0229730  17.9095700 140.7765000  85.0010790
  17.8811130 141.1807950  84.1339220  17.7460670 139.8475360  84.8382390
  27.9066490 126.0665910  68.4450570  27.5939150 126.1592740  69.3449640
  28.6678960 126.6446940  68.3948000  14.4248630 133.4325710  72.9027910
  14.3046230 134.1587800  72.2909180  14.1149520 132.6628620  72.4255820
  29.8610520 141.5592100  86.2974960  30.3370240 142.0374990  86.9764040
  30.4817680 141.4909590  85.5720460  12.0634000 136.6040850  78.7096550
  12.1414420 136.7389620  77.7652270  12.6775680 135.8956740  78.9024670
  13.3081630 138.3041040  75.1202730  12.9009710 138.4455630  74.2656330
  14.1994640 138.0201200  74.9173940  29.2643770 138.7504950  83.4574970
  29.3906830 138.5116830  82.5392150  29.3065150 137.9189490  83.9297050
  23.1260510 142.4532950  82.0269780  23.6405180 142.3640960  82.8292210
  22.2829590 142.7992650  82.3197690  25.1014910 142.7388290  71.4553780
  24.9416050 142.4491230  72.3535610  24.9361620 141.9628420  70.9199010
  17.5803290 142.5186820  73.2325400  17.4045770 141.6022360  73.0193200
  16.7259030 142.8774110  73.4723200  24.8041040 140.2475850  70.0151780
  24.1106200 140.2453140  69.3554060  25.5463900 139.8235170  69.5845950
  24.3690970 141.8738560  74.0900270  24.8247920 141.0927940  74.4038890
  24.7083490 142.5845380  74.6341450  29.1167780 130.8037410  84.4224710
  28.5012050 131.3117080  83.8940170  28.7964200 129.9035740  84.3650650
  12.1193520 137.6455020  81.2491010  12.2824560 137.1760380  80.4310380
  12.5845970 137.1378580  81.9139850  16.8912290 126.7760780  76.2851580
  16.4480440 127.5570320  75.9536100  17.4497280 127.0990670  76.9922520
  21.1782100 129.6429300  81.8886900  20.7161470 129.8512320  82.7006840
  20.7760210 128.8288650  81.5857570  26.1786610 130.8638250  83.0183560
  25.3280200 130.5644000  83.3392630  26.0188400 131.1080260  82.1067380
  23.2736320 132.3640000  85.1182350  23.5989730 131.5303750  84.7784580
  24.0616650 132.8868520  85.2660680  20.0071110 126.3971480  71.1657410
  19.3825290 126.3931350  71.8910720  19.9201230 125.5302440  70.7693380
  18.9288190 127.3208110  78.1441180  19.2260520 128.2270940  78.0633200
  19.4773750 126.8326890  77.5300750  16.6826510 131.8994350  74.0132830
  16.4567430 131.6831520  74.9179450  15.9019040 132.3322810  73.6678800
  23.9124270 131.9057720  72.6123480  23.3133160 132.6293520  72.4287100
  24.4603880 131.8434500  71.8299930  19.1225720 132.7979930  84.6793100
  19.0269320 131.8574660  84.5293500  19.9657700 133.0195000  84.2841170
  22.5189140 130.5421260  74.6426760  22.9118710 130.8593460  73.8295450
  22.8805990 129.6633140  74.7571280  14.2536260 129.2093600  82.8326880
  13.8599650 130.0568810  83.0399660  13.5654660 128.5719970  83.0235520
  20.8281310 129.2928570  85.9023620  20.1379630 129.1000770  86.5369710
  21.5713610 129.5763210  86.4347920  11.5553310 127.1322060  76.8656960
  11.2666360 127.7024920  77.5781940  12.2999070 126.6526510  77.2288190
  11.7423540 131.0742180  68.0759680  11.6598210 132.0172940  68.2174670
  11.3906600 130.9317090  67.1972030  23.1044280 133.1327010  78.7377540
  22.3725400 133.6413820  79.0867640  22.7068620 132.3156990  78.4366320
  19.5421670 129.8081210  77.1430030  19.5457730 129.3671160  76.2934570
  20.4372790 130.1298540  77.2501850  15.3924050 129.6907700  76.1024240
  15.0524100 130.1682930  76.8591290  14.6301370 129.2372820  75.7425340
  19.6041820 130.8093290  70.1336790  19.7254640 130.7679770  71.0822610
  19.2190330 131.6717440  69.9783520  23.5670190 128.5860690  78.1500480
  23.5842930 129.0369340  78.9942330  23.3185770 127.6866330  78.3633920
  18.6163320 133.1194430  69.5320090  18.0480220 132.6712680  68.9056000
  19.3252320 133.4787210  68.9985240  26.9940940 125.9992870  83.9886860
  27.3186710 125.2682530  84.5144840  27.0297450 125.6806510  83.0867850
  13.6932500 137.0206450  83.4086820  13.3087290 136.3800120  84.0069780
  14.0044690 137.7242570  83.9781550  19.8429640 133.8682990  78.8895440
  20.2099770 133.3941560  79.6356780  19.6534700 134.7424560  79.2303780
  12.7070130 128.6126680  75.0188910  12.4217050 128.2482350  75.8567530
  12.6448990 127.8807140  74.4052050  17.6329010 132.9091630  81.2079650
  17.3286080 133.7883610  81.4330010  18.5875470 132.9691420  81.2437090
  16.1610800 137.1152620  71.8046500  15.3873060 136.5750240  71.6445220
  16.8905430 136.5959230  71.4664260  26.9198780 136.1117980  77.5972890
  27.6397900 136.6073270  77.2069000  26.7180600 135.4335870  76.9526760
  22.3808720 127.5055940  71.7402280  21.5673330 127.0069110  71.6647590
  22.1870670 128.3454190  71.3238630  22.3017580 136.1827040  83.4841890
  22.2354890 135.2622710  83.2299480  21.6722720 136.2802480  84.1986530
  25.0957110 131.8775590  70.0364440  25.9836730 132.1892820  69.8615780
  25.0662200 131.0047840  69.6445020  16.2048200 136.7833000  75.4425310
  16.7226870 135.9801260  75.3882200  15.7532220 136.7212140  76.2842140
  21.0917700 138.0499280  70.7152610  21.4333400 138.7941510  70.2195930
  20.2630410 138.3630400  71.0777440  13.6892740 133.7494370  82.3551010
  13.3307680 134.4148220  82.9424350  13.3947300 132.9177920  82.7263630
  16.8905860 134.2078610  85.2390560  16.5906000 134.3535790  84.3418380
  17.6617100 133.6483900  85.1463950  22.2334310 139.0047610  83.2345690
  22.2478850 138.0728570  83.0164600  21.5259410 139.0907370  83.8735460
  27.3671380 133.1887430  69.5044300  27.2835100 133.6201650  68.6540740
  28.0865570 133.6485780  69.9371120  28.4445520 135.6454950  82.5814270
  27.7193710 136.2383730  82.3843660  28.9720980 135.6378490  81.7827640
  28.3958630 140.0429690  72.2326430  27.7534790 139.3885310  72.5070150
  28.0089290 140.4484780  71.4567100  23.9745110 137.3715120  76.0798120
  24.3268930 136.7743250  75.4199490  23.0907440 137.0459350  76.2506370
  20.0608390 138.1312810  73.4868530  20.7479520 138.6782020  73.8676120
  19.2740810 138.6753540  73.5218140  12.2000790 133.7485630  68.9785610
  13.0695640 134.0310430  69.2621530  11.7091110 134.5621500  68.8634420
  19.3635600 135.1358840  73.0993890  19.8198380 135.9464090  73.3254080
  19.0123810 134.8181980  73.9312380  21.6668210 140.6465180  80.3286190
  22.3110430 140.8524560  81.0059610  22.0297650 139.8853580  79.8757040
  15.2647380 125.4796490  73.5716410  15.1362010 125.4714390  74.5201330
  14.4409400 125.8179580  73.2207420  22.9400290 138.6497530  79.0463640
  23.5822520 137.9490690  79.1595810  23.4649640 139.4295970  78.8660530
  26.7856010 138.9346150  68.7702780  26.5593590 138.2176590  69.3627420
  26.3952210 138.6858590  67.9324530  24.7137910 139.4492430  82.2499700
  25.0494150 140.0359120  82.9277620  23.7938250 139.3185140  82.4797490
  12.5672040 142.9613010  69.5447240  12.9269680 143.5602350  68.8904510
  12.4264380 143.5072900  70.3182270  12.2641310 127.2387610  83.0323110
  11.5499830 127.4384530  83.6375720  12.6836350 126.4627180  83.4037910
  26.3672260 136.8518090  70.4316940  26.0793960 137.3130780  71.2194820
  27.1624430 136.3915860  70.7001160  12.5513900 141.2267870  84.0189640
  12.6605020 140.2862610  83.8785030  11.8994460 141.4922620  83.3703370
  20.5426490 139.4983760  85.4187760  20.2223360 138.7793000  85.9633450
  19.8684850 140.1738830  85.4923820  18.5840660 140.3444210  70.3620910
  18.5750760 141.0773900  69.7465420  17.6639020 140.0975790  70.4547870
  14.1847300 135.5659100  71.1067670  13.5775250 136.3058000  71.1162970
  14.6596650 135.6558460  70.2805870  23.7580090 129.7309920  80.7824560
  24.1260910 128.9105130  81.1104130  22.8978290 129.7911810  81.1980210
  27.1242120 128.6866860  71.5912120  26.4955280 128.7912530  70.8770350
  26.6294040 128.9063640  72.3806000  21.5700260 140.4072450  69.0246100
  21.6712240 140.2036440  68.0948080  20.6702000 140.1530730  69.2293880
  19.0926150 130.9652810  73.0070000  18.3842300 131.4339150  73.4483610
  19.3770630 130.3074820  73.6415190  20.7182080 132.3849510  81.0062530
  21.2167330 132.8595330  81.6714380  20.8605030 131.4613030  81.2132560
  23.1241580 127.6903470  74.4465790  23.0009360 127.7089600  73.4975300
  24.0726140 127.7382410  74.5664190  20.2118370 142.9258770  73.7193770
  20.4659870 142.8880160  72.7973140  19.2630850 142.7992100  73.7122020
  17.2961170 129.2737890  70.3820710  18.1451700 129.7108040  70.3160900
  16.9292440 129.5858150  71.2092770  27.9248940 128.6017470  81.8490920
  27.4222540 129.3422870  82.1884730  28.7405600 128.9901470  81.5327710
  26.2170950 133.8450650  75.2952280  25.2761090 133.8600880  75.4699970
  26.5315020 133.0586610  75.7412580  16.1952590 135.5270250  68.8556240
  16.9615860 135.4151610  69.4181670  16.2727280 134.8308220  68.2033010
  14.8899350 132.9595320  69.5389130  14.9702940 132.0122830  69.6506530
  15.7819100 133.2902200  69.6449790  28.2196530 141.0159500  76.9706540
  28.3443950 141.8390670  77.4430350  29.0862090 140.8050230  76.6230690
  15.6914060 143.1090710  76.6423670  16.4276540 142.5606170  76.9132240
  16.0754980 143.9746720  76.5029660  12.5759540 139.1764280  72.5165180
  11.6499320 139.4185420  72.5070590  13.0415970 140.0038540  72.3949930
  14.6972340 142.2936780  85.8309250  15.4985070 142.6148830  86.2444650
  14.1824160 141.9332360  86.5529160  18.8016370 142.2821020  68.4649240
  19.5944980 142.5709850  68.0131030  18.2820720 141.8513190  67.7861720
  23.5336970 138.4016650  85.7784660  22.9275130 138.4248250  85.0380410
  23.2291080 137.6699690  86.3151910  24.9637340 142.1296940  84.3894070
  25.9159090 142.0454960  84.3394310  24.8165560 142.7938650  85.0627860
  27.8546540 141.5091150  69.8885980  27.5688050 141.0956290  69.0740160
  27.6566090 142.4378860  69.7686500  12.4170150 134.7810240  84.7745300
  12.9209170 134.2017520  85.3461530  11.6777570 135.0650470  85.3121670
  19.3193770 137.5024430  68.3291590  19.2144410 136.8876780  69.0552970
  19.1517990 136.9790320  67.5454600  19.4708090 136.1881230  84.3080820
  18.7053760 136.7566230  84.2235490  19.6524050 135.8957440  83.4149050
  22.5596500 136.5644460  68.9333580  22.0106600 137.0113760  69.5776320
  23.1815760 136.0593710  69.4571250  26.6131440 137.9186560  84.8655840
  27.3540910 138.2562320  84.3623300  25.8504120 138.0878620  84.3125610
  14.4493230 132.9239830  85.6695370  14.4898570 132.6253700  86.5780600
  15.3038730 133.3247440  85.5102890  18.2271620 135.5235380  70.8298880
  18.6488040 135.3575250  71.6730270  18.3522460 134.7135610  70.3354020
  16.3899040 131.5031930  83.6369860  15.8595500 131.0122880  83.0093200
  17.0587110 131.9316130  83.1027790  20.7399260 134.5472990  68.0775980
  21.2604920 133.8322010  67.7117130  21.3867660 135.1858860  68.3776490
  25.2877100 135.9701390  83.4011050  25.7018120 136.1246470  84.2501470
  24.3528100 136.0956610  83.5636830  25.7599270 133.3097550  85.4050200
  26.3420040 132.5549870  85.3170680  25.9361040 133.8404990  84.6281680
  16.8771340 128.4694300  83.7167150  16.7828210 127.8515050  82.9918020
  16.2968730 129.1960590  83.4897060  19.6432780 127.0267540  80.7494540
  19.1950080 127.0491800  79.9040090  19.0097980 126.6286560  81.3464840
  20.0492330 135.9221870  81.3706980  20.4680440 136.7654600  81.1983220
  19.1300960 136.0593910  81.1413760  22.3856230 133.6538050  82.7544820
  22.5052440 133.0579190  83.4939660  23.2450230 133.6907740  82.3346120
  24.7244130 134.2075240  81.3307330  24.1979350 134.7317860  80.7272470
  25.0675470 134.8402630  81.9617060  17.1230520 131.5968610  67.7757040
  16.9219580 130.7335970  68.1370380  16.9522570 131.5101970  66.8378640
  17.8999750 142.2274880  82.4864710  17.3620840 142.9520940  82.1673410
  18.1533710 141.7505220  81.6962050  19.1525000 130.1959400  84.0120640
  19.7424690 129.8875250  84.6998460  18.3345240 129.7239150  84.1680540
  23.9718430 129.8125210  84.2453660  23.2833950 129.1506750  84.1803650
  24.6924450 129.3663480  84.6902120  24.6018830 126.4076840  70.3043920
  24.8821120 125.5644740  70.6603340  23.8284560 126.6399950  70.8182670
  15.9213320 128.6969230  67.7634920  16.2239220 128.7036660  66.8554070
  16.6607910 128.3467090  68.2602580  20.7561960 143.4626090  82.7451360
  20.6820660 144.3661230  83.0523730  19.8540800 143.1437990  82.7173430
  19.1398250 127.6403850  68.7491120  18.7920250 126.9627840  68.1693570
  19.3411020 127.1793360  69.5634510  21.3047290 142.6284600  70.3677720
  22.1998080 142.9669570  70.3896480  21.3364920 141.9064010  69.7402000
  14.9443450 138.0011650  68.5964720  15.3818320 138.5441320  69.2522300
  15.4291180 137.1758600  68.6061060  12.1589250 140.7900680  76.0484980
  12.4892260 139.9221740  75.8163620  12.5880250 140.9959200  76.8789940
  16.7551170 139.1209690  73.7086950  16.4546710 138.9974660  74.6090860
  16.6488660 138.2618280  73.3002680  12.6479460 141.6571270  78.7866610
  12.2110450 141.8372070  79.6190760  13.2157140 142.4145890  78.6448330
  28.2841640 141.1588270  83.0743920  27.6843630 141.2180830  82.3307840
  28.4135540 140.2193250  83.2040770  29.5243090 138.9006090  68.4113630
  28.6936050 138.9682740  68.8820860  29.7014920 139.7910210  68.1080490
  28.9799550 135.6453570  70.9147830  29.7418460 136.2150220  71.0207520
  28.9953920 135.0780770  71.6856140  12.4803890 134.1691500  75.1455490
  11.8252730 133.9003140  74.5015190  13.3181840 134.0595980  74.6957470
  29.9859520 136.5003670  75.7589760  30.3568350 135.7170990  75.3525730
  30.6261450 137.1892770  75.5807060  26.9693280 137.8840250  81.1720080
  26.1553120 138.3137410  81.4345870  27.3767480 138.4958660  80.5589130
  29.0318720 135.9387940  68.0720350  29.3067560 136.8466820  67.9439570
  28.8429460 135.8750470  69.0082340  25.4294330 128.9632790  69.3673980
  25.8479210 128.7763770  68.5270640  25.1230390 128.1111840  69.6776910
  28.9284060 133.8756930  73.0649780  28.5527660 133.1084860  72.6331070
  28.1987180 134.2579630  73.5524710  13.5179820 134.5544070  79.6858830
  13.8852860 134.4671470  80.5654850  12.9490640 133.7910620  79.5865690
  28.3183680 133.0228450  82.6989300  28.0869770 132.7941200  81.7987250
  28.5788230 133.9428000  82.6534190  13.0695820 131.4653160  83.5917250
  12.1751870 131.4319920  83.9310960  13.6093370 131.6639950  84.3568500
  26.7571750 128.2484880  85.4769000  27.6341930 128.2568280  85.8603000
  26.7692590 127.5115720  84.8661350  11.6941970 131.3790430  71.0880820
  10.7906050 131.6420630  70.9132480  12.1782590 131.6501600  70.3080780
  28.2035020 132.1014420  76.3657020  28.7272500 131.6077070  75.7347190
  28.7894440 132.2364780  77.1104590  28.3824740 132.1854290  79.8876570
  27.4327450 132.1517830  80.0021560  28.5637750 133.0954400  79.6526340
  14.2369180 130.4355970  68.9975200  14.9460880 130.0139190  68.5122480
  13.5209120 130.5031200  68.3658550  13.8843340 126.4895300  68.0377850
  14.6071470 127.0304240  68.3559070  14.1567860 126.2158720  67.1619390
  27.6934990 131.3587770  72.3049430  28.1894110 131.1258640  73.0898310
  27.4951060 130.5199610  71.8887070  13.5735530 125.7401490  77.9400470
  14.2211720 125.1898870  77.4995630  13.9937370 125.9944640  78.7616280
  29.1222150 129.9948720  74.8387110  29.0121430 129.8404760  75.7769380
  29.8829740 129.4669660  74.5962520  27.4687870 125.9342850  81.2970110
  28.1060090 126.5476990  81.6629300  27.6162760 125.9703510  80.3519340
  30.0112420 127.8256640  68.0793250  30.9361730 127.6937820  67.8711540
  29.9888210 127.9049460  69.0329700  30.0850910 128.5967300  70.7049960
  29.2902410 128.5312420  71.2342870  30.2894190 129.5317940  70.6935310
  27.0269330 142.6358850  74.6988350  27.6228400 142.3143420  74.0222770
  27.2847480 142.1630670  75.4901620  13.3267530 125.8957160  80.6825790
  12.9782350 126.3520980  81.4483970  12.9955230 125.0014290  80.7648220
  14.9331900 139.0676760  84.8478980  14.8901530 138.6969670  85.7293440
  15.0642910 140.0054330  84.9880800  18.6337930 140.6236350  80.4488700
  18.3929290 140.8910910  79.5619220  19.5740570 140.7942080  80.5039560
  20.8392350 127.0869040  84.2045210  20.7781240 127.6790870  84.9540620
  21.7792730 126.9795000  84.0595470  23.4766910 126.7439100  83.8437500
  24.0907320 127.0618390  83.1818580  24.0216470 126.2587690  84.4633360
  29.8942090 142.6430730  81.2499340  29.4000370 143.0399600  80.5326470
  29.2855380 142.0179940  81.6436620  13.9988170 125.4233360  83.9576560
  14.5471160 125.2421410  83.1942670  14.0643480 124.6327470  84.4932870
  14.7719930 142.0139010  81.9676760  14.1780250 141.8823710  82.7066800
  14.7643770 141.1777150  81.5018860  24.2174950 125.3071240  80.1706790
  23.3434790 125.6406350  79.9679720  24.1085700 124.8344420  80.9958660
  25.1246930 127.5142110  81.5548510  24.7960290 126.6993870  81.1750240
  26.0729230 127.4711920  81.4314200  27.5781540 143.2854150  78.5286080
  27.1184510 144.0369960  78.1544100  26.9494000 142.5660620  78.4700880
  14.4032160 139.3797390  80.9184800  13.6766220 138.7602680  80.8510750
  14.4641310 139.7738000  80.0482880  18.0077260 141.5942390  77.7034210
  18.5242280 140.9829750  77.1782470  18.6574640 142.0971170  78.1945220
  20.7472760 142.4850880  78.5303190  21.0350570 142.2305180  77.6536200
  21.2595980 141.9328240  79.1208760  21.9649770 126.2241080  79.1099700
  21.1821560 126.6986580  79.3896460  21.6712700 125.3195910  79.0012880
  26.5170840 126.9264180  77.1548790  26.9578930 126.8709280  76.3070390
  26.2478430 127.8422190  77.2258970  28.3809410 126.5579420  75.1657610
  28.3197810 125.6140640  75.0188630  29.1601440 126.6659510  75.7111070
  12.6862160 142.6971780  74.1281560  12.5184200 142.0642460  74.8263450
  11.8196670 142.9031180  73.7775750  13.3090180 126.5288560  71.6313420
  14.0669540 126.6417440  71.0577450  12.8467350 127.3657760  71.5856850
  19.8503990 128.6427830  74.6215730  19.0378500 128.2684720  74.2811610
  20.3545630 127.8872910  74.9236920  24.3528970 125.3070280  75.8598800
  24.9558340 125.8790490  76.3347320  23.6121960 125.8709720  75.6372700
  27.4963570 125.7091840  71.1339080  27.6914200 126.6075290  71.4006510
  26.7093440 125.4778920  71.6272030  14.2924860 141.3905010  71.5731700
  13.7672480 141.7713040  70.8693660  14.2169440 142.0155780  72.2941410
  15.6815330 127.0552610  70.1715390  16.2108090 126.2682410  70.0423340
  16.3143650 127.7343800  70.4050920  17.8753170 126.7927750  73.2260780
  17.2455910 126.0915060  73.3930910  17.3358310 127.5531880  73.0093940
  20.8145120 143.4066980  85.8971390  21.7412430 143.1711250  85.9407350
  20.7995550 144.2338980  85.4157420  29.0490180 142.9492550  72.8945640
  29.2242370 142.2630290  72.2506560  28.3511750 143.4739600  72.5022310
  18.0008730 126.0711730  85.6613270  17.7193000 126.5745330  84.8974090
  18.3828430 125.2733480  85.2955400  16.8917830 143.3387390  70.4480950
  17.6236650 143.0546670  69.9004840  17.1511500 143.1000670  71.3380330
  16.0532620 139.4552120  70.4527280  15.4241500 139.9237220  71.0013110
  16.1680450 138.6101340  70.8873470  24.6024190 125.4865310  86.2393740
  24.4889640 125.8059920  87.1345260  25.4193930 125.8877820  85.9431020
  27.3822680 142.6336840  85.7212430  28.1748000 142.1386070  85.5138390
  27.6755830 143.3126980  86.3288040  23.5082340 133.5057780  56.6028480
  23.4276390 132.5912390  56.3320190  23.0946760 134.0024850  55.8968190
  21.6400380 135.2836800  58.4837750  20.8642480 134.8037240  58.7736320
  22.2913310 134.6042450  58.3093910  15.6566210 135.5956610  59.3613510
  14.8251090 135.3405320  59.7610020  16.2647190 135.6667380  60.0971430
  25.6607810 139.6896990  57.2636880  25.1989340 138.9184230  57.5924050
  26.4733360 139.7163060  57.7689330  15.6367470 139.6296700  59.5571530
  15.9395510 138.7394440  59.3781750  16.3811060 140.1866920  59.3293780
  14.0658160 130.5558500  53.1455900  13.1774860 130.8974470  53.0435780
  14.3499350 130.3558820  52.2536730  12.0291170 133.1564150  59.0295600
  12.6007280 132.3886350  59.0299240  12.0292710 133.4552910  58.1202210
  21.8871120 141.9755000  56.8840870  21.2682560 142.4312500  56.3135310
  22.7422900 142.1306460  56.4830570  21.0809370 137.9593990  58.4907910
  21.0117650 137.0183930  58.3297040  21.8429230 138.0495400  59.0630480
  13.2716040 128.5648510  60.8164530  13.0918880 127.6674260  61.0967290
  12.8696120 129.1120380  61.4911480  22.1114540 130.7664370  58.7176840
  22.4879360 129.8936250  58.6050510  22.0134050 131.1023070  57.8267280
  16.2419550 129.1390000  54.1794280  16.3486300 130.0393730  54.4863040
  15.3311910 129.0907970  53.8888930  25.8938660 128.2614810  55.6505180
  26.7148280 127.7711380  55.6930660  25.9272740 128.8512470  56.4037020
  13.8902710 131.0609010  59.4246870  14.5712820 131.3247380  60.0434270
  13.5750760 130.2209880  59.7584880  18.0827280 132.1076370  58.5119460
  18.5905500 132.6057340  59.1524480  18.6140520 131.3311570  58.3358820
  30.1838210 130.2781560  62.2148810  29.4790380 130.6663270  61.6963920
  30.4496130 130.9731850  62.8169740  16.3663380 126.7474930  62.7782880
  16.3681820 127.2647320  61.9728780  15.5367690 126.2705110  62.7552810
  22.7534470 136.8594240  54.2772780  22.1351740 137.3243690  53.7135500
  23.2657720 137.5521720  54.6942290  17.6166230 136.3870110  60.9556380
  17.2835610 137.0139030  61.5977450  17.7932910 136.9131990  60.1758050
  26.1300140 130.2015190  58.4232720  25.4255710 130.4900080  59.0035830
  26.4912300 131.0115300  58.0632280  16.0478710 128.4584890  60.7853330
  16.3895520 129.3026940  60.4907200  15.1094520 128.6068630  60.9018670
  16.8285330 138.3550910  62.7705560  17.4459330 139.0301990  62.4890010
  15.9678450 138.7638890  62.6793060  12.1217670 137.5450770  51.6512410
  11.7445650 138.0337870  50.9197310  12.3790740 138.2176050  52.2818940
  27.7462920 139.8190320  60.6860200  27.0626440 140.4889430  60.6776870
  28.2857210 140.0170970  59.9205060  29.1987060 129.6469980  58.8141930
  28.2511970 129.6808960  58.9457360  29.5237050 130.4608930  59.1991290
  19.7306600 125.9467160  57.1097920  20.0381580 125.3914050  56.3933420
  18.8007300 126.0811620  56.9270910  25.2821660 141.6634450  59.4005380
  25.2948820 141.2596740  58.5327640  24.7296880 142.4381740  59.2966810
  26.5767080 138.3850670  54.4895550  26.4663410 137.4425000  54.6144970
  26.5735330 138.7466310  55.3758310  24.6807100 136.5664290  60.7287990
  25.0975890 136.3524400  59.8941450  25.4046920 136.8237080  61.2996610
  22.1187360 134.0115990  53.8458040  21.1916640 133.9453370  54.0746510
  22.2712180 134.9496120  53.7313280  22.1056440 130.2832990  50.8425200
  21.1660110 130.4446950  50.9277660  22.4239700 131.0018670  50.2961190
  28.6269200 134.9651510  60.8204230  27.7987830 135.0344600  60.3454360
  29.2219680 135.5505820  60.3520060  26.1484650 135.5736290  54.3493290
  25.5297070 135.2355840  53.7019590  26.1309100 134.9296050  55.0572480
  25.5911210 131.7520830  61.7659100  25.1782390 132.5774540  62.0199090
  24.8587160 131.1665870  61.5735460  17.7244000 134.5380730  56.6277770
  17.3201000 133.8257980  56.1323670  17.8107120 134.1933970  57.5165810
  18.1925700 138.2248290  58.7916980  17.8953990 137.6193760  58.1124760
  19.1425520 138.2625600  58.6806340  16.4372620 131.3123940  60.4076810
  16.9887210 131.4219280  59.6330060  16.9516130 131.6861540  61.1232040
  26.2811310 141.7980160  62.4540080  25.8041870 142.6052350  62.2612690
  25.5973100 141.1458490  62.6066290  17.2844130 137.9629980  65.4424780
  16.3872660 138.1869950  65.6898180  17.3097000 138.0864920  64.4936180
  24.3249350 134.8123100  51.3566040  24.7642630 133.9745530  51.2103860
  25.0377770 135.4452500  51.4430180  16.1115350 134.8343300  64.0182150
  15.9723120 135.7066100  64.3869550  15.2296710 134.4916110  63.8730090
  22.4344730 139.7519170  55.3247280  22.8740640 140.4943500  54.9102670
  22.3731620 139.9945740  56.2486240  17.9095700 140.7765000  66.2267300
  17.8811130 141.1807950  65.3595730  17.7460670 139.8475360  66.0638900
  27.9066490 126.0665910  49.6707080  27.5939150 126.1592740  50.5706150
  28.6678960 126.6446940  49.6204510  14.4248630 133.4325710  54.1284420
  14.3046230 134.1587800  53.5165690  14.1149520 132.6628620  53.6512330
  29.8610520 141.5592100  67.5231470  30.3370240 142.0374990  68.2020550
  30.4817680 141.4909590  66.7976970  12.0634000 136.6040850  59.9353060
  12.1414420 136.7389620  58.9908780  12.6775680 135.8956740  60.1281180
  13.3081630 138.3041040  56.3459240  12.9009710 138.4455630  55.4912840
  14.1994640 138.0201200  56.1430450  29.2643770 138.7504950  64.6831480
  29.3906830 138.5116830  63.7648660  29.3065150 137.9189490  65.1553560
  23.1260510 142.4532950  63.2526290  23.6405180 142.3640960  64.0548720
  22.2829590 142.7992650  63.5454200  25.1014910 142.7388290  52.6810290
  24.9416050 142.4491230  53.5792120  24.9361620 141.9628420  52.1455520
  17.5803290 142.5186820  54.4581910  17.4045770 141.6022360  54.2449710
  16.7259030 142.8774110  54.6979710  24.8041040 140.2475850  51.2408290
  24.1106200 140.2453140  50.5810570  25.5463900 139.8235170  50.8102460
  24.3690970 141.8738560  55.3156780  24.8247920 141.0927940  55.6295400
  24.7083490 142.5845380  55.8597960  29.1167780 130.8037410  65.6481220
  28.5012050 131.3117080  65.1196680  28.7964200 129.9035740  65.5907160
  12.1193520 137.6455020  62.4747520  12.2824560 137.1760380  61.6566890
  12.5845970 137.1378580  63.1396360  16.8912290 126.7760780  57.5108090
  16.4480440 127.5570320  57.1792610  17.4497280 127.0990670  58.2179030
  21.1782100 129.6429300  63.1143410  20.7161470 129.8512320  63.9263350
  20.7760210 128.8288650  62.8114080  26.1786610 130.8638250  64.2440070
  25.3280200 130.5644000  64.5649140  26.0188400 131.1080260  63.3323890
  23.2736320 132.3640000  66.3438860  23.5989730 131.5303750  66.0041090
  24.0616650 132.8868520  66.4917190  20.0071110 126.3971480  52.3913920
  19.3825290 126.3931350  53.1167230  19.9201230 125.5302440  51.9949890
  18.9288190 127.3208110  59.3697690  19.2260520 128.2270940  59.2889710
  19.4773750 126.8326890  58.7557260  16.6826510 131.8994350  55.2389340
  16.4567430 131.6831520  56.1435960  15.9019040 132.3322810  54.8935310
  23.9124270 131.9057720  53.8379990  23.3133160 132.6293520  53.6543610
  24.4603880 131.8434500  53.0556440  19.1225720 132.7979930  65.9049610
  19.0269320 131.8574660  65.7550010  19.9657700 133.0195000  65.5097680
  22.5189140 130.5421260  55.8683270  22.9118710 130.8593460  55.0551960
  22.8805990 129.6633140  55.9827790  14.2536260 129.2093600  64.0583390
  13.8599650 130.0568810  64.2656170  13.5654660 128.5719970  64.2492030
  20.8281310 129.2928570  67.1280130  20.1379630 129.1000770  67.7626220
  21.5713610 129.5763210  67.6604430  11.5553310 127.1322060  58.0913470
  11.2666360 127.7024920  58.8038450  12.2999070 126.6526510  58.4544700
  11.7423540 131.0742180  49.3016190  11.6598210 132.0172940  49.4431180
  11.3906600 130.9317090  48.4228540  23.1044280 133.1327010  59.9634050
  22.3725400 133.6413820  60.3124150  22.7068620 132.3156990  59.6622830
  19.5421670 129.8081210  58.3686540  19.5457730 129.3671160  57.5191080
  20.4372790 130.1298540  58.4758360  15.3924050 129.6907700  57.3280750
  15.0524100 130.1682930  58.0847800  14.6301370 129.2372820  56.9681850
  19.6041820 130.8093290  51.3593300  19.7254640 130.7679770  52.3079120
  19.2190330 131.6717440  51.2040030  23.5670190 128.5860690  59.3756990
  23.5842930 129.0369340  60.2198840  23.3185770 127.6866330  59.5890430
  18.6163320 133.1194430  50.7576600  18.0480220 132.6712680  50.1312510
  19.3252320 133.4787210  50.2241750  26.9940940 125.9992870  65.2143370
  27.3186710 125.2682530  65.7401350  27.0297450 125.6806510  64.3124360
  13.6932500 137.0206450  64.6343330  13.3087290 136.3800120  65.2326290
  14.0044690 137.7242570  65.2038060  19.8429640 133.8682990  60.1151950
  20.2099770 133.3941560  60.8613290  19.6534700 134.7424560  60.4560290
  12.7070130 128.6126680  56.2445420  12.4217050 128.2482350  57.0824040
  12.6448990 127.8807140  55.6308560  17.6329010 132.9091630  62.4336160
  17.3286080 133.7883610  62.6586520  18.5875470 132.9691420  62.4693600
  16.1610800 137.1152620  53.0303010  15.3873060 136.5750240  52.8701730
  16.8905430 136.5959230  52.6920770  26.9198780 136.1117980  58.8229400
  27.6397900 136.6073270  58.4325510  26.7180600 135.4335870  58.1783270
  22.3808720 127.5055940  52.9658790  21.5673330 127.0069110  52.8904100
  22.1870670 128.3454190  52.5495140  22.3017580 136.1827040  64.7098400
  22.2354890 135.2622710  64.4555990  21.6722720 136.2802480  65.4243040
  25.0957110 131.8775590  51.2620950  25.9836730 132.1892820  51.0872290
  25.0662200 131.0047840  50.8701530  16.2048200 136.7833000  56.6681820
  16.7226870 135.9801260  56.6138710  15.7532220 136.7212140  57.5098650
  21.0917700 138.0499280  51.9409120  21.4333400 138.7941510  51.4452440
  20.2630410 138.3630400  52.3033950  13.6892740 133.7494370  63.5807520
  13.3307680 134.4148220  64.1680860  13.3947300 132.9177920  63.9520140
  16.8905860 134.2078610  66.4647070  16.5906000 134.3535790  65.5674890
  17.6617100 133.6483900  66.3720460  22.2334310 139.0047610  64.4602200
  22.2478850 138.0728570  64.2421110  21.5259410 139.0907370  65.0991970
  27.3671380 133.1887430  50.7300810  27.2835100 133.6201650  49.8797250
  28.0865570 133.6485780  51.1627630  28.4445520 135.6454950  63.8070780
  27.7193710 136.2383730  63.6100170  28.9720980 135.6378490  63.0084150
  28.3958630 140.0429690  53.4582940  27.7534790 139.3885310  53.7326660
  28.0089290 140.4484780  52.6823610  23.9745110 137.3715120  57.3054630
  24.3268930 136.7743250  56.6456000  23.0907440 137.0459350  57.4762880
  20.0608390 138.1312810  54.7125040  20.7479520 138.6782020  55.0932630
  19.2740810 138.6753540  54.7474650  12.2000790 133.7485630  50.2042120
  13.0695640 134.0310430  50.4878040  11.7091110 134.5621500  50.0890930
  19.3635600 135.1358840  54.3250400  19.8198380 135.9464090  54.5510590
  19.0123810 134.8181980  55.1568890  21.6668210 140.6465180  61.5542700
  22.3110430 140.8524560  62.2316120  22.0297650 139.8853580  61.1013550
  15.2647380 125.4796490  54.7972920  15.1362010 125.4714390  55.7457840
  14.4409400 125.8179580  54.4463930  22.9400290 138.6497530  60.2720150
  23.5822520 137.9490690  60.3852320  23.4649640 139.4295970  60.0917040
  26.7856010 138.9346150  49.9959290  26.5593590 138.2176590  50.5883930
  26.3952210 138.6858590  49.1581040  24.7137910 139.4492430  63.4756210
  25.0494150 140.0359120  64.1534130  23.7938250 139.3185140  63.7054000
  12.5672040 142.9613010  50.7703750  12.9269680 143.5602350  50.1161020
  12.4264380 143.5072900  51.5438780  12.2641310 127.2387610  64.2579620
  11.5499830 127.4384530  64.8632230  12.6836350 126.4627180  64.6294420
  26.3672260 136.8518090  51.6573450  26.0793960 137.3130780  52.4451330
  27.1624430 136.3915860  51.9257670  12.5513900 141.2267870  65.2446150
  12.6605020 140.2862610  65.1041540  11.8994460 141.4922620  64.5959880
  20.5426490 139.4983760  66.6444270  20.2223360 138.7793000  67.1889960
  19.8684850 140.1738830  66.7180330  18.5840660 140.3444210  51.5877420
  18.5750760 141.0773900  50.9721930  17.6639020 140.0975790  51.6804380
  14.1847300 135.5659100  52.3324180  13.5775250 136.3058000  52.3419480
  14.6596650 135.6558460  51.5062380  23.7580090 129.7309920  62.0081070
  24.1260910 128.9105130  62.3360640  22.8978290 129.7911810  62.4236720
  27.1242120 128.6866860  52.8168630  26.4955280 128.7912530  52.1026860
  26.6294040 128.9063640  53.6062510  21.5700260 140.4072450  50.2502610
  21.6712240 140.2036440  49.3204590  20.6702000 140.1530730  50.4550390
  19.0926150 130.9652810  54.2326510  18.3842300 131.4339150  54.6740120
  19.3770630 130.3074820  54.8671700  20.7182080 132.3849510  62.2319040
  21.2167330 132.8595330  62.8970890  20.8605030 131.4613030  62.4389070
  23.1241580 127.6903470  55.6722300  23.0009360 127.7089600  54.7231810
  24.0726140 127.7382410  55.7920700  20.2118370 142.9258770  54.9450280
  20.4659870 142.8880160  54.0229650  19.2630850 142.7992100  54.9378530
  17.2961170 129.2737890  51.6077220  18.1451700 129.7108040  51.5417410
  16.9292440 129.5858150  52.4349280  27.9248940 128.6017470  63.0747430
  27.4222540 129.3422870  63.4141240  28.7405600 128.9901470  62.7584220
  26.2170950 133.8450650  56.5208790  25.2761090 133.8600880  56.6956480
  26.5315020 133.0586610  56.9669090  16.1952590 135.5270250  50.0812750
  16.9615860 135.4151610  50.6438180  16.2727280 134.8308220  49.4289520
  14.8899350 132.9595320  50.7645640  14.9702940 132.0122830  50.8763040
  15.7819100 133.2902200  50.8706300  28.2196530 141.0159500  58.1963050
  28.3443950 141.8390670  58.6686860  29.0862090 140.8050230  57.8487200
  15.6914060 143.1090710  57.8680180  16.4276540 142.5606170  58.1388750
  16.0754980 143.9746720  57.7286170  12.5759540 139.1764280  53.7421690
  11.6499320 139.4185420  53.7327100  13.0415970 140.0038540  53.6206440
  14.6972340 142.2936780  67.0565760  15.4985070 142.6148830  67.4701160
  14.1824160 141.9332360  67.7785670  18.8016370 142.2821020  49.6905750
  19.5944980 142.5709850  49.2387540  18.2820720 141.8513190  49.0118230
  23.5336970 138.4016650  67.0041170  22.9275130 138.4248250  66.2636920
  23.2291080 137.6699690  67.5408420  24.9637340 142.1296940  65.6150580
  25.9159090 142.0454960  65.5650820  24.8165560 142.7938650  66.2884370
  27.8546540 141.5091150  51.1142490  27.5688050 141.0956290  50.2996670
  27.6566090 142.4378860  50.9943010  12.4170150 134.7810240  66.0001810
  12.9209170 134.2017520  66.5718040  11.6777570 135.0650470  66.5378180
  19.3193770 137.5024430  49.5548100  19.2144410 136.8876780  50.2809480
  19.1517990 136.9790320  48.7711110  19.4708090 136.1881230  65.5337330
  18.7053760 136.7566230  65.4492000  19.6524050 135.8957440  64.6405560
  22.5596500 136.5644460  50.1590090  22.0106600 137.0113760  50.8032830
  23.1815760 136.0593710  50.6827760  26.6131440 137.9186560  66.0912350
  27.3540910 138.2562320  65.5879810  25.8504120 138.0878620  65.5382120
  14.4493230 132.9239830  66.8951880  14.4898570 132.6253700  67.8037110
  15.3038730 133.3247440  66.7359400  18.2271620 135.5235380  52.0555390
  18.6488040 135.3575250  52.8986780  18.3522460 134.7135610  51.5610530
  16.3899040 131.5031930  64.8626370  15.8595500 131.0122880  64.2349710
  17.0587110 131.9316130  64.3284300  20.7399260 134.5472990  49.3032490
  21.2604920 133.8322010  48.9373640  21.3867660 135.1858860  49.6033000
  25.2877100 135.9701390  64.6267560  25.7018120 136.1246470  65.4757980
  24.3528100 136.0956610  64.7893340  25.7599270 133.3097550  66.6306710
  26.3420040 132.5549870  66.5427190  25.9361040 133.8404990  65.8538190
  16.8771340 128.4694300  64.9423660  16.7828210 127.8515050  64.2174530
  16.2968730 129.1960590  64.7153570  19.6432780 127.0267540  61.9751050
  19.1950080 127.0491800  61.1296600  19.0097980 126.6286560  62.5721350
  20.0492330 135.9221870  62.5963490  20.4680440 136.7654600  62.4239730
  19.1300960 136.0593910  62.3670270  22.3856230 133.6538050  63.9801330
  22.5052440 133.0579190  64.7196170  23.2450230 133.6907740  63.5602630
  24.7244130 134.2075240  62.5563840  24.1979350 134.7317860  61.9528980
  25.0675470 134.8402630  63.1873570  17.1230520 131.5968610  49.0013550
  16.9219580 130.7335970  49.3626890  16.9522570 131.5101970  48.0635150
  17.8999750 142.2274880  63.7121220  17.3620840 142.9520940  63.3929920
  18.1533710 141.7505220  62.9218560  19.1525000 130.1959400  65.2377150
  19.7424690 129.8875250  65.9254970  18.3345240 129.7239150  65.3937050
  23.9718430 129.8125210  65.4710170  23.2833950 129.1506750  65.4060160
  24.6924450 129.3663480  65.9158630  24.6018830 126.4076840  51.5300430
  24.8821120 125.5644740  51.8859850  23.8284560 126.6399950  52.0439180
  15.9213320 128.6969230  48.9891430  16.2239220 128.7036660  48.0810580
  16.6607910 128.3467090  49.4859090  20.7561960 143.4626090  63.9707870
  20.6820660 144.3661230  64.2780240  19.8540800 143.1437990  63.9429940
  19.1398250 127.6403850  49.9747630  18.7920250 126.9627840  49.3950080
  19.3411020 127.1793360  50.7891020  21.3047290 142.6284600  51.5934230
  22.1998080 142.9669570  51.6152990  21.3364920 141.9064010  50.9658510
  14.9443450 138.0011650  49.8221230  15.3818320 138.5441320  50.4778810
  15.4291180 137.1758600  49.8317570  12.1589250 140.7900680  57.2741490
  12.4892260 139.9221740  57.0420130  12.5880250 140.9959200  58.1046450
  16.7551170 139.1209690  54.9343460  16.4546710 138.9974660  55.8347370
  16.6488660 138.2618280  54.5259190  12.6479460 141.6571270  60.0123120
  12.2110450 141.8372070  60.8447270  13.2157140 142.4145890  59.8704840
  28.2841640 141.1588270  64.3000430  27.6843630 141.2180830  63.5564350
  28.4135540 140.2193250  64.4297280  29.5243090 138.9006090  49.6370140
  28.6936050 138.9682740  50.1077370  29.7014920 139.7910210  49.3337000
  28.9799550 135.6453570  52.1404340  29.7418460 136.2150220  52.2464030
  28.9953920 135.0780770  52.9112650  12.4803890 134.1691500  56.3712000
  11.8252730 133.9003140  55.7271700  13.3181840 134.0595980  55.9213980
  29.9859520 136.5003670  56.9846270  30.3568350 135.7170990  56.5782240
  30.6261450 137.1892770  56.8063570  26.9693280 137.8840250  62.3976590
  26.1553120 138.3137410  62.6602380  27.3767480 138.4958660  61.7845640
  29.0318720 135.9387940  49.2976860  29.3067560 136.8466820  49.1696080
  28.8429460 135.8750470  50.2338850  25.4294330 128.9632790  50.5930490
  25.8479210 128.7763770  49.7527150  25.1230390 128.1111840  50.9033420
  28.9284060 133.8756930  54.2906290  28.5527660 133.1084860  53.8587580
  28.1987180 134.2579630  54.7781220  13.5179820 134.5544070  60.9115340
  13.8852860 134.4671470  61.7911360  12.9490640 133.7910620  60.8122200
  28.3183680 133.0228450  63.9245810  28.0869770 132.7941200  63.0243760
  28.5788230 133.9428000  63.8790700  13.0695820 131.4653160  64.8173760
  12.1751870 131.4319920  65.1567470  13.6093370 131.6639950  65.5825010
  26.7571750 128.2484880  66.7025510  27.6341930 128.2568280  67.0859510
  26.7692590 127.5115720  66.0917860  11.6941970 131.3790430  52.3137330
  10.7906050 131.6420630  52.1388990  12.1782590 131.6501600  51.5337290
  28.2035020 132.1014420  57.5913530  28.7272500 131.6077070  56.9603700
  28.7894440 132.2364780  58.3361100  28.3824740 132.1854290  61.1133080
  27.4327450 132.1517830  61.2278070  28.5637750 133.0954400  60.8782850
  14.2369180 130.4355970  50.2231710  14.9460880 130.0139190  49.7378990
  13.5209120 130.5031200  49.5915060  13.8843340 126.4895300  49.2634360
  14.6071470 127.0304240  49.5815580  14.1567860 126.2158720  48.3875900
  27.6934990 131.3587770  53.5305940  28.1894110 131.1258640  54.3154820
  27.4951060 130.5199610  53.1143580  13.5735530 125.7401490  59.1656980
  14.2211720 125.1898870  58.7252140  13.9937370 125.9944640  59.9872790
  29.1222150 129.9948720  56.0643620  29.0121430 129.8404760  57.0025890
  29.8829740 129.4669660  55.8219030  27.4687870 125.9342850  62.5226620
  28.1060090 126.5476990  62.8885810  27.6162760 125.9703510  61.5775850
  30.0112420 127.8256640  49.3049760  30.9361730 127.6937820  49.0968050
  29.9888210 127.9049460  50.2586210  30.0850910 128.5967300  51.9306470
  29.2902410 128.5312420  52.4599380  30.2894190 129.5317940  51.9191820
  27.0269330 142.6358850  55.9244860  27.6228400 142.3143420  55.2479280
  27.2847480 142.1630670  56.7158130  13.3267530 125.8957160  61.9082300
  12.9782350 126.3520980  62.6740480  12.9955230 125.0014290  61.9904730
  14.9331900 139.0676760  66.0735490  14.8901530 138.6969670  66.9549950
  15.0642910 140.0054330  66.2137310  18.6337930 140.6236350  61.6745210
  18.3929290 140.8910910  60.7875730  19.5740570 140.7942080  61.7296070
  20.8392350 127.0869040  65.4301720  20.7781240 127.6790870  66.1797130
  21.7792730 126.9795000  65.2851980  23.4766910 126.7439100  65.0694010
  24.0907320 127.0618390  64.4075090  24.0216470 126.2587690  65.6889870
  29.8942090 142.6430730  62.4755850  29.4000370 143.0399600  61.7582980
  29.2855380 142.0179940  62.8693130  13.9988170 125.4233360  65.1833070
  14.5471160 125.2421410  64.4199180  14.0643480 124.6327470  65.7189380
  14.7719930 142.0139010  63.1933270  14.1780250 141.8823710  63.9323310
  14.7643770 141.1777150  62.7275370  24.2174950 125.3071240  61.3963300
  23.3434790 125.6406350  61.1936230  24.1085700 124.8344420  62.2215170
  25.1246930 127.5142110  62.7805020  24.7960290 126.6993870  62.4006750
  26.0729230 127.4711920  62.6570710  27.5781540 143.2854150  59.7542590
  27.1184510 144.0369960  59.3800610  26.9494000 142.5660620  59.6957390
  14.4032160 139.3797390  62.1441310  13.6766220 138.7602680  62.0767260
  14.4641310 139.7738000  61.2739390  18.0077260 141.5942390  58.9290720
  18.5242280 140.9829750  58.4038980  18.6574640 142.0971170  59.4201730
  20.7472760 142.4850880  59.7559700  21.0350570 142.2305180  58.8792710
  21.2595980 141.9328240  60.3465270  21.9649770 126.2241080  60.3356210
  21.1821560 126.6986580  60.6152970  21.6712700 125.3195910  60.2269390
  26.5170840 126.9264180  58.3805300  26.9578930 126.8709280  57.5326900
  26.2478430 127.8422190  58.4515480  28.3809410 126.5579420  56.3914120
  28.3197810 125.6140640  56.2445140  29.1601440 126.6659510  56.9367580
  12.6862160 142.6971780  55.3538070  12.5184200 142.0642460  56.0519960
  11.8196670 142.9031180  55.0032260  13.3090180 126.5288560  52.8569930
  14.0669540 126.6417440  52.2833960  12.8467350 127.3657760  52.8113360
  19.8503990 128.6427830  55.8472240  19.0378500 128.2684720  55.5068120
  20.3545630 127.8872910  56.1493430  24.3528970 125.3070280  57.0855310
  24.9558340 125.8790490  57.5603830  23.6121960 125.8709720  56.8629210
  27.4963570 125.7091840  52.3595590  27.6914200 126.6075290  52.6263020
  26.7093440 125.4778920  52.8528540  14.2924860 141.3905010  52.7988210
  13.7672480 141.7713040  52.0950170  14.2169440 142.0155780  53.5197920
  15.6815330 127.0552610  51.3971900  16.2108090 126.2682410  51.2679850
  16.3143650 127.7343800  51.6307430  17.8753170 126.7927750  54.4517290
  17.2455910 126.0915060  54.6187420  17.3358310 127.5531880  54.2350450
  20.8145120 143.4066980  67.1227900  21.7412430 143.1711250  67.1663860
  20.7995550 144.2338980  66.6413930  29.0490180 142.9492550  54.1202150
  29.2242370 142.2630290  53.4763070  28.3511750 143.4739600  53.7278820
  18.0008730 126.0711730  66.8869780  17.7193000 126.5745330  66.1230600
  18.3828430 125.2733480  66.5211910  16.8917830 143.3387390  51.6737460
  17.6236650 143.0546670  51.1261350  17.1511500 143.1000670  52.5636840
  16.0532620 139.4552120  51.6783790  15.4241500 139.9237220  52.2269620
  16.1680450 138.6101340  52.1129980  24.6024190 125.4865310  67.4650250
  24.4889640 125.8059920  68.3601770  25.4193930 125.8877820  67.1687530
  27.3822680 142.6336840  66.9468940  28.1748000 142.1386070  66.7394900
  27.6755830 143.3126980  67.5544550  23.5082340 133.5057780  37.8284990
  23.4276390 132.5912390  37.5576700  23.0946760 134.0024850  37.1224700
  21.6400380 135.2836800  39.7094260  20.8642480 134.8037240  39.9992830
  22.2913310 134.6042450  39.5350420  15.6566210 135.5956610  40.5870020
  14.8251090 135.3405320  40.9866530  16.2647190 135.6667380  41.3227940
  25.6607810 139.6896990  38.4893390  25.1989340 138.9184230  38.8180560
  26.4733360 139.7163060  38.9945840  15.6367470 139.6296700  40.7828040
  15.9395510 138.7394440  40.6038260  16.3811060 140.1866920  40.5550290
  14.0658160 130.5558500  34.3712410  13.1774860 130.8974470  34.2692290
  14.3499350 130.3558820  33.4793240  12.0291170 133.1564150  40.2552110
  12.6007280 132.3886350  40.2555750  12.0292710 133.4552910  39.3458720
  21.8871120 141.9755000  38.1097380  21.2682560 142.4312500  37.5391820
  22.7422900 142.1306460  37.7087080  21.0809370 137.9593990  39.7164420
  21.0117650 137.0183930  39.5553550  21.8429230 138.0495400  40.2886990
  13.2716040 128.5648510  42.0421040  13.0918880 127.6674260  42.3223800
  12.8696120 129.1120380  42.7167990  22.1114540 130.7664370  39.9433350
  22.4879360 129.8936250  39.8307020  22.0134050 131.1023070  39.0523790
  16.2419550 129.1390000  35.4050790  16.3486300 130.0393730  35.7119550
  15.3311910 129.0907970  35.1145440  25.8938660 128.2614810  36.8761690
  26.7148280 127.7711380  36.9187170  25.9272740 128.8512470  37.6293530
  13.8902710 131.0609010  40.6503380  14.5712820 131.3247380  41.2690780
  13.5750760 130.2209880  40.9841390  18.0827280 132.1076370  39.7375970
  18.5905500 132.6057340  40.3780990  18.6140520 131.3311570  39.5615330
  30.1838210 130.2781560  43.4405320  29.4790380 130.6663270  42.9220430
  30.4496130 130.9731850  44.0426250  16.3663380 126.7474930  44.0039390
  16.3681820 127.2647320  43.1985290  15.5367690 126.2705110  43.9809320
  22.7534470 136.8594240  35.5029290  22.1351740 137.3243690  34.9392010
  23.2657720 137.5521720  35.9198800  17.6166230 136.3870110  42.1812890
  17.2835610 137.0139030  42.8233960  17.7932910 136.9131990  41.4014560
  26.1300140 130.2015190  39.6489230  25.4255710 130.4900080  40.2292340
  26.4912300 131.0115300  39.2888790  16.0478710 128.4584890  42.0109840
  16.3895520 129.3026940  41.7163710  15.1094520 128.6068630  42.1275180
  16.8285330 138.3550910  43.9962070  17.4459330 139.0301990  43.7146520
  15.9678450 138.7638890  43.9049570  12.1217670 137.5450770  32.8768920
  11.7445650 138.0337870  32.1453820  12.3790740 138.2176050  33.5075450
  27.7462920 139.8190320  41.9116710  27.0626440 140.4889430  41.9033380
  28.2857210 140.0170970  41.1461570  29.1987060 129.6469980  40.0398440
  28.2511970 129.6808960  40.1713870  29.5237050 130.4608930  40.4247800
  19.7306600 125.9467160  38.3354430  20.0381580 125.3914050  37.6189930
  18.8007300 126.0811620  38.1527420  25.2821660 141.6634450  40.6261890
  25.2948820 141.2596740  39.7584150  24.7296880 142.4381740  40.5223320
  26.5767080 138.3850670  35.7152060  26.4663410 137.4425000  35.8401480
  26.5735330 138.7466310  36.6014820  24.6807100 136.5664290  41.9544500
  25.0975890 136.3524400  41.1197960  25.4046920 136.8237080  42.5253120
  22.1187360 134.0115990  35.0714550  21.1916640 133.9453370  35.3003020
  22.2712180 134.9496120  34.9569790  22.1056440 130.2832990  32.0681710
  21.1660110 130.4446950  32.1534170  22.4239700 131.0018670  31.5217700
  28.6269200 134.9651510  42.0460740  27.7987830 135.0344600  41.5710870
  29.2219680 135.5505820  41.5776570  26.1484650 135.5736290  35.5749800
  25.5297070 135.2355840  34.9276100  26.1309100 134.9296050  36.2828990
  25.5911210 131.7520830  42.9915610  25.1782390 132.5774540  43.2455600
  24.8587160 131.1665870  42.7991970  17.7244000 134.5380730  37.8534280
  17.3201000 133.8257980  37.3580180  17.8107120 134.1933970  38.7422320
  18.1925700 138.2248290  40.0173490  17.8953990 137.6193760  39.3381270
  19.1425520 138.2625600  39.9062850  16.4372620 131.3123940  41.6333320
  16.9887210 131.4219280  40.8586570  16.9516130 131.6861540  42.3488550
  26.2811310 141.7980160  43.6796590  25.8041870 142.6052350  43.4869200
  25.5973100 141.1458490  43.8322800  17.2844130 137.9629980  46.6681290
  16.3872660 138.1869950  46.9154690  17.3097000 138.0864920  45.7192690
  24.3249350 134.8123100  32.5822550  24.7642630 133.9745530  32.4360370
  25.0377770 135.4452500  32.6686690  16.1115350 134.8343300  45.2438660
  15.9723120 135.7066100  45.6126060  15.2296710 134.4916110  45.0986600
  22.4344730 139.7519170  36.5503790  22.8740640 140.4943500  36.1359180
  22.3731620 139.9945740  37.4742750  17.9095700 140.7765000  47.4523810
  17.8811130 141.1807950  46.5852240  17.7460670 139.8475360  47.2895410
  27.9066490 126.0665910  30.8963590  27.5939150 126.1592740  31.7962660
  28.6678960 126.6446940  30.8461020  14.4248630 133.4325710  35.3540930
  14.3046230 134.1587800  34.7422200  14.1149520 132.6628620  34.8768840
  29.8610520 141.5592100  48.7487980  30.3370240 142.0374990  49.4277060
  30.4817680 141.4909590  48.0233480  12.0634000 136.6040850  41.1609570
  12.1414420 136.7389620  40.2165290  12.6775680 135.8956740  41.3537690
  13.3081630 138.3041040  37.5715750  12.9009710 138.4455630  36.7169350
  14.1994640 138.0201200  37.3686960  29.2643770 138.7504950  45.9087990
  29.3906830 138.5116830  44.9905170  29.3065150 137.9189490  46.3810070
  23.1260510 142.4532950  44.4782800  23.6405180 142.3640960  45.2805230
  22.2829590 142.7992650  44.7710710  25.1014910 142.7388290  33.9066800
  24.9416050 142.4491230  34.8048630  24.9361620 141.9628420  33.3712030
  17.5803290 142.5186820  35.6838420  17.4045770 141.6022360  35.4706220
  16.7259030 142.8774110  35.9236220  24.8041040 140.2475850  32.4664800
  24.1106200 140.2453140  31.8067080  25.5463900 139.8235170  32.0358970
  24.3690970 141.8738560  36.5413290  24.8247920 141.0927940  36.8551910
  24.7083490 142.5845380  37.0854470  29.1167780 130.8037410  46.8737730
  28.5012050 131.3117080  46.3453190  28.7964200 129.9035740  46.8163670
  12.1193520 137.6455020  43.7004030  12.2824560 137.1760380  42.8823400
  12.5845970 137.1378580  44.3652870  16.8912290 126.7760780  38.7364600
  16.4480440 127.5570320  38.4049120  17.4497280 127.0990670  39.4435540
  21.1782100 129.6429300  44.3399920  20.7161470 129.8512320  45.1519860
  20.7760210 128.8288650  44.0370590  26.1786610 130.8638250  45.4696580
  25.3280200 130.5644000  45.7905650  26.0188400 131.1080260  44.5580400
  23.2736320 132.3640000  47.5695370  23.5989730 131.5303750  47.2297600
  24.0616650 132.8868520  47.7173700  20.0071110 126.3971480  33.6170430
  19.3825290 126.3931350  34.3423740  19.9201230 125.5302440  33.2206400
  18.9288190 127.3208110  40.5954200  19.2260520 128.2270940  40.5146220
  19.4773750 126.8326890  39.9813770  16.6826510 131.8994350  36.4645850
  16.4567430 131.6831520  37.3692470  15.9019040 132.3322810  36.1191820
  23.9124270 131.9057720  35.0636500  23.3133160 132.6293520  34.8800120
  24.4603880 131.8434500  34.2812950  19.1225720 132.7979930  47.1306120
  19.0269320 131.8574660  46.9806520  19.9657700 133.0195000  46.7354190
  22.5189140 130.5421260  37.0939780  22.9118710 130.8593460  36.2808470
  22.8805990 129.6633140  37.2084300  14.2536260 129.2093600  45.2839900
  13.8599650 130.0568810  45.4912680  13.5654660 128.5719970  45.4748540
  20.8281310 129.2928570  48.3536640  20.1379630 129.1000770  48.9882730
  21.5713610 129.5763210  48.8860940  11.5553310 127.1322060  39.3169980
  11.2666360 127.7024920  40.0294960  12.2999070 126.6526510  39.6801210
  11.7423540 131.0742180  30.5272700  11.6598210 132.0172940  30.6687690
  11.3906600 130.9317090  29.6485050  23.1044280 133.1327010  41.1890560
  22.3725400 133.6413820  41.5380660  22.7068620 132.3156990  40.8879340
  19.5421670 129.8081210  39.5943050  19.5457730 129.3671160  38.7447590
  20.4372790 130.1298540  39.7014870  15.3924050 129.6907700  38.5537260
  15.0524100 130.1682930  39.3104310  14.6301370 129.2372820  38.1938360
  19.6041820 130.8093290  32.5849810  19.7254640 130.7679770  33.5335630
  19.2190330 131.6717440  32.4296540  23.5670190 128.5860690  40.6013500
  23.5842930 129.0369340  41.4455350  23.3185770 127.6866330  40.8146940
  18.6163320 133.1194430  31.9833110  18.0480220 132.6712680  31.3569020
  19.3252320 133.4787210  31.4498260  26.9940940 125.9992870  46.4399880
  27.3186710 125.2682530  46.9657860  27.0297450 125.6806510  45.5380870
  13.6932500 137.0206450  45.8599840  13.3087290 136.3800120  46.4582800
  14.0044690 137.7242570  46.4294570  19.8429640 133.8682990  41.3408460
  20.2099770 133.3941560  42.0869800  19.6534700 134.7424560  41.6816800
  12.7070130 128.6126680  37.4701930  12.4217050 128.2482350  38.3080550
  12.6448990 127.8807140  36.8565070  17.6329010 132.9091630  43.6592670
  17.3286080 133.7883610  43.8843030  18.5875470 132.9691420  43.6950110
  16.1610800 137.1152620  34.2559520  15.3873060 136.5750240  34.0958240
  16.8905430 136.5959230  33.9177280  26.9198780 136.1117980  40.0485910
  27.6397900 136.6073270  39.6582020  26.7180600 135.4335870  39.4039780
  22.3808720 127.5055940  34.1915300  21.5673330 127.0069110  34.1160610
  22.1870670 128.3454190  33.7751650  22.3017580 136.1827040  45.9354910
  22.2354890 135.2622710  45.6812500  21.6722720 136.2802480  46.6499550
  25.0957110 131.8775590  32.4877460  25.9836730 132.1892820  32.3128800
  25.0662200 131.0047840  32.0958040  16.2048200 136.7833000  37.8938330
  16.7226870 135.9801260  37.8395220  15.7532220 136.7212140  38.7355160
  21.0917700 138.0499280  33.1665630  21.4333400 138.7941510  32.6708950
  20.2630410 138.3630400  33.5290460  13.6892740 133.7494370  44.8064030
  13.3307680 134.4148220  45.3937370  13.3947300 132.9177920  45.1776650
  16.8905860 134.2078610  47.6903580  16.5906000 134.3535790  46.7931400
  17.6617100 133.6483900  47.5976970  22.2334310 139.0047610  45.6858710
  22.2478850 138.0728570  45.4677620  21.5259410 139.0907370  46.3248480
  27.3671380 133.1887430  31.9557320  27.2835100 133.6201650  31.1053760
  28.0865570 133.6485780  32.3884140  28.4445520 135.6454950  45.0327290
  27.7193710 136.2383730  44.8356680  28.9720980 135.6378490  44.2340660
  28.3958630 140.0429690  34.6839450  27.7534790 139.3885310  34.9583170
  28.0089290 140.4484780  33.9080120  23.9745110 137.3715120  38.5311140
  24.3268930 136.7743250  37.8712510  23.0907440 137.0459350  38.7019390
  20.0608390 138.1312810  35.9381550  20.7479520 138.6782020  36.3189140
  19.2740810 138.6753540  35.9731160  12.2000790 133.7485630  31.4298630
  13.0695640 134.0310430  31.7134550  11.7091110 134.5621500  31.3147440
  19.3635600 135.1358840  35.5506910  19.8198380 135.9464090  35.7767100
  19.0123810 134.8181980  36.3825400  21.6668210 140.6465180  42.7799210
  22.3110430 140.8524560  43.4572630  22.0297650 139.8853580  42.3270060
  15.2647380 125.4796490  36.0229430  15.1362010 125.4714390  36.9714350
  14.4409400 125.8179580  35.6720440  22.9400290 138.6497530  41.4976660
  23.5822520 137.9490690  41.6108830  23.4649640 139.4295970  41.3173550
  26.7856010 138.9346150  31.2215800  26.5593590 138.2176590  31.8140440
  26.3952210 138.6858590  30.3837550  24.7137910 139.4492430  44.7012720
  25.0494150 140.0359120  45.3790640  23.7938250 139.3185140  44.9310510
  12.5672040 142.9613010  31.9960260  12.9269680 143.5602350  31.3417530
  12.4264380 143.5072900  32.7695290  12.2641310 127.2387610  45.4836130
  11.5499830 127.4384530  46.0888740  12.6836350 126.4627180  45.8550930
  26.3672260 136.8518090  32.8829960  26.0793960 137.3130780  33.6707840
  27.1624430 136.3915860  33.1514180  12.5513900 141.2267870  46.4702660
  12.6605020 140.2862610  46.3298050  11.8994460 141.4922620  45.8216390
  20.5426490 139.4983760  47.8700780  20.2223360 138.7793000  48.4146470
  19.8684850 140.1738830  47.9436840  18.5840660 140.3444210  32.8133930
  18.5750760 141.0773900  32.1978440  17.6639020 140.0975790  32.9060890
  14.1847300 135.5659100  33.5580690  13.5775250 136.3058000  33.5675990
  14.6596650 135.6558460  32.7318890  23.7580090 129.7309920  43.2337580
  24.1260910 128.9105130  43.5617150  22.8978290 129.7911810  43.6493230
  27.1242120 128.6866860  34.0425140  26.4955280 128.7912530  33.3283370
  26.6294040 128.9063640  34.8319020  21.5700260 140.4072450  31.4759120
  21.6712240 140.2036440  30.5461100  20.6702000 140.1530730  31.6806900
  19.0926150 130.9652810  35.4583020  18.3842300 131.4339150  35.8996630
  19.3770630 130.3074820  36.0928210  20.7182080 132.3849510  43.4575550
  21.2167330 132.8595330  44.1227400  20.8605030 131.4613030  43.6645580
  23.1241580 127.6903470  36.8978810  23.0009360 127.7089600  35.9488320
  24.0726140 127.7382410  37.0177210  20.2118370 142.9258770  36.1706790
  20.4659870 142.8880160  35.2486160  19.2630850 142.7992100  36.1635040
  17.2961170 129.2737890  32.8333730  18.1451700 129.7108040  32.7673920
  16.9292440 129.5858150  33.6605790  27.9248940 128.6017470  44.3003940
  27.4222540 129.3422870  44.6397750  28.7405600 128.9901470  43.9840730
  26.2170950 133.8450650  37.7465300  25.2761090 133.8600880  37.9212990
  26.5315020 133.0586610  38.1925600  16.1952590 135.5270250  31.3069260
  16.9615860 135.4151610  31.8694690  16.2727280 134.8308220  30.6546030
  14.8899350 132.9595320  31.9902150  14.9702940 132.0122830  32.1019550
  15.7819100 133.2902200  32.0962810  28.2196530 141.0159500  39.4219560
  28.3443950 141.8390670  39.8943370  29.0862090 140.8050230  39.0743710
  15.6914060 143.1090710  39.0936690  16.4276540 142.5606170  39.3645260
  16.0754980 143.9746720  38.9542680  12.5759540 139.1764280  34.9678200
  11.6499320 139.4185420  34.9583610  13.0415970 140.0038540  34.8462950
  14.6972340 142.2936780  48.2822270  15.4985070 142.6148830  48.6957670
  14.1824160 141.9332360  49.0042180  18.8016370 142.2821020  30.9162260
  19.5944980 142.5709850  30.4644050  18.2820720 141.8513190  30.2374740
  23.5336970 138.4016650  48.2297680  22.9275130 138.4248250  47.4893430
  23.2291080 137.6699690  48.7664930  24.9637340 142.1296940  46.8407090
  25.9159090 142.0454960  46.7907330  24.8165560 142.7938650  47.5140880
  27.8546540 141.5091150  32.3399000  27.5688050 141.0956290  31.5253180
  27.6566090 142.4378860  32.2199520  12.4170150 134.7810240  47.2258320
  12.9209170 134.2017520  47.7974550  11.6777570 135.0650470  47.7634690
  19.3193770 137.5024430  30.7804610  19.2144410 136.8876780  31.5065990
  19.1517990 136.9790320  29.9967620  19.4708090 136.1881230  46.7593840
  18.7053760 136.7566230  46.6748510  19.6524050 135.8957440  45.8662070
  22.5596500 136.5644460  31.3846600  22.0106600 137.0113760  32.0289340
  23.1815760 136.0593710  31.9084270  26.6131440 137.9186560  47.3168860
  27.3540910 138.2562320  46.8136320  25.8504120 138.0878620  46.7638630
  14.4493230 132.9239830  48.1208390  14.4898570 132.6253700  49.0293620
  15.3038730 133.3247440  47.9615910  18.2271620 135.5235380  33.2811900
  18.6488040 135.3575250  34.1243290  18.3522460 134.7135610  32.7867040
  16.3899040 131.5031930  46.0882880  15.8595500 131.0122880  45.4606220
  17.0587110 131.9316130  45.5540810  20.7399260 134.5472990  30.5289000
  21.2604920 133.8322010  30.1630150  21.3867660 135.1858860  30.8289510
  25.2877100 135.9701390  45.8524070  25.7018120 136.1246470  46.7014490
  24.3528100 136.0956610  46.0149850  25.7599270 133.3097550  47.8563220
  26.3420040 132.5549870  47.7683700  25.9361040 133.8404990  47.0794700
  16.8771340 128.4694300  46.1680170  16.7828210 127.8515050  45.4431040
  16.2968730 129.1960590  45.9410080  19.6432780 127.0267540  43.2007560
  19.1950080 127.0491800  42.3553110  19.0097980 126.6286560  43.7977860
  20.0492330 135.9221870  43.8220000  20.4680440 136.7654600  43.6496240
  19.1300960 136.0593910  43.5926780  22.3856230 133.6538050  45.2057840
  22.5052440 133.0579190  45.9452680  23.2450230 133.6907740  44.7859140
  24.7244130 134.2075240  43.7820350  24.1979350 134.7317860  43.1785490
  25.0675470 134.8402630  44.4130080  17.1230520 131.5968610  30.2270060
  16.9219580 130.7335970  30.5883400  16.9522570 131.5101970  29.2891660
  17.8999750 142.2274880  44.9377730  17.3620840 142.9520940  44.6186430
  18.1533710 141.7505220  44.1475070  19.1525000 130.1959400  46.4633660
  19.7424690 129.8875250  47.1511480  18.3345240 129.7239150  46.6193560
  23.9718430 129.8125210  46.6966680  23.2833950 129.1506750  46.6316670
  24.6924450 129.3663480  47.1415140  24.6018830 126.4076840  32.7556940
  24.8821120 125.5644740  33.1116360  23.8284560 126.6399950  33.2695690
  15.9213320 128.6969230  30.2147940  16.2239220 128.7036660  29.3067090
  16.6607910 128.3467090  30.7115600  20.7561960 143.4626090  45.1964380
  20.6820660 144.3661230  45.5036750  19.8540800 143.1437990  45.1686450
  19.1398250 127.6403850  31.2004140  18.7920250 126.9627840  30.6206590
  19.3411020 127.1793360  32.0147530  21.3047290 142.6284600  32.8190740
  22.1998080 142.9669570  32.8409500  21.3364920 141.9064010  32.1915020
  14.9443450 138.0011650  31.0477740  15.3818320 138.5441320  31.7035320
  15.4291180 137.1758600  31.0574080  12.1589250 140.7900680  38.4998000
  12.4892260 139.9221740  38.2676640  12.5880250 140.9959200  39.3302960
  16.7551170 139.1209690  36.1599970  16.4546710 138.9974660  37.0603880
  16.6488660 138.2618280  35.7515700  12.6479460 141.6571270  41.2379630
  12.2110450 141.8372070  42.0703780  13.2157140 142.4145890  41.0961350
  28.2841640 141.1588270  45.5256940  27.6843630 141.2180830  44.7820860
  28.4135540 140.2193250  45.6553790  29.5243090 138.9006090  30.8626650
  28.6936050 138.9682740  31.3333880  29.7014920 139.7910210  30.5593510
  28.9799550 135.6453570  33.3660850  29.7418460 136.2150220  33.4720540
  28.9953920 135.0780770  34.1369160  12.4803890 134.1691500  37.5968510
  11.8252730 133.9003140  36.9528210  13.3181840 134.0595980  37.1470490
  29.9859520 136.5003670  38.2102780  30.3568350 135.7170990  37.8038750
  30.6261450 137.1892770  38.0320080  26.9693280 137.8840250  43.6233100
  26.1553120 138.3137410  43.8858890  27.3767480 138.4958660  43.0102150
  29.0318720 135.9387940  30.5233370  29.3067560 136.8466820  30.3952590
  28.8429460 135.8750470  31.4595360  25.4294330 128.9632790  31.8187000
  25.8479210 128.7763770  30.9783660  25.1230390 128.1111840  32.1289930
  28.9284060 133.8756930  35.5162800  28.5527660 133.1084860  35.0844090
  28.1987180 134.2579630  36.0037730  13.5179820 134.5544070  42.1371850
  13.8852860 134.4671470  43.0167870  12.9490640 133.7910620  42.0378710
  28.3183680 133.0228450  45.1502320  28.0869770 132.7941200  44.2500270
  28.5788230 133.9428000  45.1047210  13.0695820 131.4653160  46.0430270
  12.1751870 131.4319920  46.3823980  13.6093370 131.6639950  46.8081520
  26.7571750 128.2484880  47.9282020  27.6341930 128.2568280  48.3116020
  26.7692590 127.5115720  47.3174370  11.6941970 131.3790430  33.5393840
  10.7906050 131.6420630  33.3645500  12.1782590 131.6501600  32.7593800
  28.2035020 132.1014420  38.8170040  28.7272500 131.6077070  38.1860210
  28.7894440 132.2364780  39.5617610  28.3824740 132.1854290  42.3389590
  27.4327450 132.1517830  42.4534580  28.5637750 133.0954400  42.1039360
  14.2369180 130.4355970  31.4488220  14.9460880 130.0139190  30.9635500
  13.5209120 130.5031200  30.8171570  13.8843340 126.4895300  30.4890870
  14.6071470 127.0304240  30.8072090  14.1567860 126.2158720  29.6132410
  27.6934990 131.3587770  34.7562450  28.1894110 131.1258640  35.5411330
  27.4951060 130.5199610  34.3400090  13.5735530 125.7401490  40.3913490
  14.2211720 125.1898870  39.9508650  13.9937370 125.9944640  41.2129300
  29.1222150 129.9948720  37.2900130  29.0121430 129.8404760  38.2282400
  29.8829740 129.4669660  37.0475540  27.4687870 125.9342850  43.7483130
  28.1060090 126.5476990  44.1142320  27.6162760 125.9703510  42.8032360
  30.0112420 127.8256640  30.5306270  30.9361730 127.6937820  30.3224560
  29.9888210 127.9049460  31.4842720  30.0850910 128.5967300  33.1562980
  29.2902410 128.5312420  33.6855890  30.2894190 129.5317940  33.1448330
  27.0269330 142.6358850  37.1501370  27.6228400 142.3143420  36.4735790
  27.2847480 142.1630670  37.9414640  13.3267530 125.8957160  43.1338810
  12.9782350 126.3520980  43.8996990  12.9955230 125.0014290  43.2161240
  14.9331900 139.0676760  47.2992000  14.8901530 138.6969670  48.1806460
  15.0642910 140.0054330  47.4393820  18.6337930 140.6236350  42.9001720
  18.3929290 140.8910910  42.0132240  19.5740570 140.7942080  42.9552580
  20.8392350 127.0869040  46.6558230  20.7781240 127.6790870  47.4053640
  21.7792730 126.9795000  46.5108490  23.4766910 126.7439100  46.2950520
  24.0907320 127.0618390  45.6331600  24.0216470 126.2587690  46.9146380
  29.8942090 142.6430730  43.7012360  29.4000370 143.0399600  42.9839490
  29.2855380 142.0179940  44.0949640  13.9988170 125.4233360  46.4089580
  14.5471160 125.2421410  45.6455690  14.0643480 124.6327470  46.9445890
  14.7719930 142.0139010  44.4189780  14.1780250 141.8823710  45.1579820
  14.7643770 141.1777150  43.9531880  24.2174950 125.3071240  42.6219810
  23.3434790 125.6406350  42.4192740  24.1085700 124.8344420  43.4471680
  25.1246930 127.5142110  44.0061530  24.7960290 126.6993870  43.6263260
  26.0729230 127.4711920  43.8827220  27.5781540 143.2854150  40.9799100
  27.1184510 144.0369960  40.6057120  26.9494000 142.5660620  40.9213900
  14.4032160 139.3797390  43.3697820  13.6766220 138.7602680  43.3023770
  14.4641310 139.7738000  42.4995900  18.0077260 141.5942390  40.1547230
  18.5242280 140.9829750  39.6295490  18.6574640 142.0971170  40.6458240
  20.7472760 142.4850880  40.9816210  21.0350570 142.2305180  40.1049220
  21.2595980 141.9328240  41.5721780  21.9649770 126.2241080  41.5612720
  21.1821560 126.6986580  41.8409480  21.6712700 125.3195910  41.4525900
  26.5170840 126.9264180  39.6061810  26.9578930 126.8709280  38.7583410
  26.2478430 127.8422190  39.6771990  28.3809410 126.5579420  37.6170630
  28.3197810 125.6140640  37.4701650  29.1601440 126.6659510  38.1624090
  12.6862160 142.6971780  36.5794580  12.5184200 142.0642460  37.2776470
  11.8196670 142.9031180  36.2288770  13.3090180 126.5288560  34.0826440
  14.0669540 126.6417440  33.5090470  12.8467350 127.3657760  34.0369870
  19.8503990 128.6427830  37.0728750  19.0378500 128.2684720  36.7324630
  20.3545630 127.8872910  37.3749940  24.3528970 125.3070280  38.3111820
  24.9558340 125.8790490  38.7860340  23.6121960 125.8709720  38.0885720
  27.4963570 125.7091840  33.5852100  27.6914200 126.6075290  33.8519530
  26.7093440 125.4778920  34.0785050  14.2924860 141.3905010  34.0244720
  13.7672480 141.7713040  33.3206680  14.2169440 142.0155780  34.7454430
  15.6815330 127.0552610  32.6228410  16.2108090 126.2682410  32.4936360
  16.3143650 127.7343800  32.8563940  17.8753170 126.7927750  35.6773800
  17.2455910 126.0915060  35.8443930  17.3358310 127.5531880  35.4606960
  20.8145120 143.4066980  48.3484410  21.7412430 143.1711250  48.3920370
  20.7995550 144.2338980  47.8670440  29.0490180 142.9492550  35.3458660
  29.2242370 142.2630290  34.7019580  28.3511750 143.4739600  34.9535330
  18.0008730 126.0711730  48.1126290  17.7193000 126.5745330  47.3487110
  18.3828430 125.2733480  47.7468420  16.8917830 143.3387390  32.8993970
  17.6236650 143.0546670  32.3517860  17.1511500 143.1000670  33.7893350
  16.0532620 139.4552120  32.9040300  15.4241500 139.9237220  33.4526130
  16.1680450 138.6101340  33.3386490  24.6024190 125.4865310  48.6906760
  24.4889640 125.8059920  49.5858280  25.4193930 125.8877820  48.3944040
  27.3822680 142.6336840  48.1725450  28.1748000 142.1386070  47.9651410
  27.6755830 143.3126980  48.7801060  23.5082340 133.5057780  19.0541500
  23.4276390 132.5912390  18.7833210  23.0946760 134.0024850  18.3481210
  21.6400380 135.2836800  20.9350770  20.8642480 134.8037240  21.2249340
  22.2913310 134.6042450  20.7606930  15.6566210 135.5956610  21.8126530
  14.8251090 135.3405320  22.2123040  16.2647190 135.6667380  22.5484450
  25.6607810 139.6896990  19.7149900  25.1989340 138.9184230  20.0437070
  26.4733360 139.7163060  20.2202350  15.6367470 139.6296700  22.0084550
  15.9395510 138.7394440  21.8294770  16.3811060 140.1866920  21.7806800
  14.0658160 130.5558500  15.5968920  13.1774860 130.8974470  15.4948800
  14.3499350 130.3558820  14.7049750  12.0291170 133.1564150  21.4808620
  12.6007280 132.3886350  21.4812260  12.0292710 133.4552910  20.5715230
  21.8871120 141.9755000  19.3353890  21.2682560 142.4312500  18.7648330
  22.7422900 142.1306460  18.9343590  21.0809370 137.9593990  20.9420930
  21.0117650 137.0183930  20.7810060  21.8429230 138.0495400  21.5143500
  13.2716040 128.5648510  23.2677550  13.0918880 127.6674260  23.5480310
  12.8696120 129.1120380  23.9424500  22.1114540 130.7664370  21.1689860
  22.4879360 129.8936250  21.0563530  22.0134050 131.1023070  20.2780300
  16.2419550 129.1390000  16.6307300  16.3486300 130.0393730  16.9376060
  15.3311910 129.0907970  16.3401950  25.8938660 128.2614810  18.1018200
  26.7148280 127.7711380  18.1443680  25.9272740 128.8512470  18.8550040
  13.8902710 131.0609010  21.8759890  14.5712820 131.3247380  22.4947290
  13.5750760 130.2209880  22.2097900  18.0827280 132.1076370  20.9632480
  18.5905500 132.6057340  21.6037500  18.6140520 131.3311570  20.7871840
  30.1838210 130.2781560  24.6661830  29.4790380 130.6663270  24.1476940
  30.4496130 130.9731850  25.2682760  16.3663380 126.7474930  25.2295900
  16.3681820 127.2647320  24.4241800  15.5367690 126.2705110  25.2065830
  22.7534470 136.8594240  16.7285800  22.1351740 137.3243690  16.1648520
  23.2657720 137.5521720  17.1455310  17.6166230 136.3870110  23.4069400
  17.2835610 137.0139030  24.0490470  17.7932910 136.9131990  22.6271070
  26.1300140 130.2015190  20.8745740  25.4255710 130.4900080  21.4548850
  26.4912300 131.0115300  20.5145300  16.0478710 128.4584890  23.2366350
  16.3895520 129.3026940  22.9420220  15.1094520 128.6068630  23.3531690
  16.8285330 138.3550910  25.2218580  17.4459330 139.0301990  24.9403030
  15.9678450 138.7638890  25.1306080  12.1217670 137.5450770  14.1025430
  11.7445650 138.0337870  13.3710330  12.3790740 138.2176050  14.7331960
  27.7462920 139.8190320  23.1373220  27.0626440 140.4889430  23.1289890
  28.2857210 140.0170970  22.3718080  29.1987060 129.6469980  21.2654950
  28.2511970 129.6808960  21.3970380  29.5237050 130.4608930  21.6504310
  19.7306600 125.9467160  19.5610940  20.0381580 125.3914050  18.8446440
  18.8007300 126.0811620  19.3783930  25.2821660 141.6634450  21.8518400
  25.2948820 141.2596740  20.9840660  24.7296880 142.4381740  21.7479830
  26.5767080 138.3850670  16.9408570  26.4663410 137.4425000  17.0657990
  26.5735330 138.7466310  17.8271330  24.6807100 136.5664290  23.1801010
  25.0975890 136.3524400  22.3454470  25.4046920 136.8237080  23.7509630
  22.1187360 134.0115990  16.2971060  21.1916640 133.9453370  16.5259530
  22.2712180 134.9496120  16.1826300  22.1056440 130.2832990  13.2938220
  21.1660110 130.4446950  13.3790680  22.4239700 131.0018670  12.7474210
  28.6269200 134.9651510  23.2717250  27.7987830 135.0344600  22.7967380
  29.2219680 135.5505820  22.8033080  26.1484650 135.5736290  16.8006310
  25.5297070 135.2355840  16.1532610  26.1309100 134.9296050  17.5085500
  25.5911210 131.7520830  24.2172120  25.1782390 132.5774540  24.4712110
  24.8587160 131.1665870  24.0248480  17.7244000 134.5380730  19.0790790
  17.3201000 133.8257980  18.5836690  17.8107120 134.1933970  19.9678830
  18.1925700 138.2248290  21.2430000  17.8953990 137.6193760  20.5637780
  19.1425520 138.2625600  21.1319360  16.4372620 131.3123940  22.8589830
  16.9887210 131.4219280  22.0843080  16.9516130 131.6861540  23.5745060
  26.2811310 141.7980160  24.9053100  25.8041870 142.6052350  24.7125710
  25.5973100 141.1458490  25.0579310  17.2844130 137.9629980  27.8937800
  16.3872660 138.1869950  28.1411200  17.3097000 138.0864920  26.9449200
  24.3249350 134.8123100  13.8079060  24.7642630 133.9745530  13.6616880
  25.0377770 135.4452500  13.8943200  16.1115350 134.8343300  26.4695170
  15.9723120 135.7066100  26.8382570  15.2296710 134.4916110  26.3243110
  22.4344730 139.7519170  17.7760300  22.8740640 140.4943500  17.3615690
  22.3731620 139.9945740  18.6999260  17.9095700 140.7765000  28.6780320
  17.8811130 141.1807950  27.8108750  17.7460670 139.8475360  28.5151920
  27.9066490 126.0665910  12.1220100  27.5939150 126.1592740  13.0219170
  28.6678960 126.6446940  12.0717530  14.4248630 133.4325710  16.5797440
  14.3046230 134.1587800  15.9678710  14.1149520 132.6628620  16.1025350
  29.8610520 141.5592100  29.9744490  30.3370240 142.0374990  30.6533570
  30.4817680 141.4909590  29.2489990  12.0634000 136.6040850  22.3866080
  12.1414420 136.7389620  21.4421800  12.6775680 135.8956740  22.5794200
  13.3081630 138.3041040  18.7972260  12.9009710 138.4455630  17.9425860
  14.1994640 138.0201200  18.5943470  29.2643770 138.7504950  27.1344500
  29.3906830 138.5116830  26.2161680  29.3065150 137.9189490  27.6066580
  23.1260510 142.4532950  25.7039310  23.6405180 142.3640960  26.5061740
  22.2829590 142.7992650  25.9967220  25.1014910 142.7388290  15.1323310
  24.9416050 142.4491230  16.0305140  24.9361620 141.9628420  14.5968540
  17.5803290 142.5186820  16.9094930  17.4045770 141.6022360  16.6962730
  16.7259030 142.8774110  17.1492730  24.8041040 140.2475850  13.6921310
  24.1106200 140.2453140  13.0323590  25.5463900 139.8235170  13.2615480
  24.3690970 141.8738560  17.7669800  24.8247920 141.0927940  18.0808420
  24.7083490 142.5845380  18.3110980  29.1167780 130.8037410  28.0994240
  28.5012050 131.3117080  27.5709700  28.7964200 129.9035740  28.0420180
  12.1193520 137.6455020  24.9260540  12.2824560 137.1760380  24.1079910
  12.5845970 137.1378580  25.5909380  16.8912290 126.7760780  19.9621110
  16.4480440 127.5570320  19.6305630  17.4497280 127.0990670  20.6692050
  21.1782100 129.6429300  25.5656430  20.7161470 129.8512320  26.3776370
  20.7760210 128.8288650  25.2627100  26.1786610 130.8638250  26.6953090
  25.3280200 130.5644000  27.0162160  26.0188400 131.1080260  25.7836910
  23.2736320 132.3640000  28.7951880  23.5989730 131.5303750  28.4554110
  24.0616650 132.8868520  28.9430210  20.0071110 126.3971480  14.8426940
  19.3825290 126.3931350  15.5680250  19.9201230 125.5302440  14.4462910
  18.9288190 127.3208110  21.8210710  19.2260520 128.2270940  21.7402730
  19.4773750 126.8326890  21.2070280  16.6826510 131.8994350  17.6902360
  16.4567430 131.6831520  18.5948980  15.9019040 132.3322810  17.3448330
  23.9124270 131.9057720  16.2893010  23.3133160 132.6293520  16.1056630
  24.4603880 131.8434500  15.5069460  19.1225720 132.7979930  28.3562630
  19.0269320 131.8574660  28.2063030  19.9657700 133.0195000  27.9610700
  22.5189140 130.5421260  18.3196290  22.9118710 130.8593460  17.5064980
  22.8805990 129.6633140  18.4340810  14.2536260 129.2093600  26.5096410
  13.8599650 130.0568810  26.7169190  13.5654660 128.5719970  26.7005050
  20.8281310 129.2928570  29.5793150  20.1379630 129.1000770  30.2139240
  21.5713610 129.5763210  30.1117450  11.5553310 127.1322060  20.5426490
  11.2666360 127.7024920  21.2551470  12.2999070 126.6526510  20.9057720
  11.7423540 131.0742180  11.7529210  11.6598210 132.0172940  11.8944200
  11.3906600 130.9317090  10.8741560  23.1044280 133.1327010  22.4147070
  22.3725400 133.6413820  22.7637170  22.7068620 132.3156990  22.1135850
  19.5421670 129.8081210  20.8199560  19.5457730 129.3671160  19.9704100
  20.4372790 130.1298540  20.9271380  15.3924050 129.6907700  19.7793770
  15.0524100 130.1682930  20.5360820  14.6301370 129.2372820  19.4194870
  19.6041820 130.8093290  13.8106320  19.7254640 130.7679770  14.7592140
  19.2190330 131.6717440  13.6553050  23.5670190 128.5860690  21.8270010
  23.5842930 129.0369340  22.6711860  23.3185770 127.6866330  22.0403450
  18.6163320 133.1194430  13.2089620  18.0480220 132.6712680  12.5825530
  19.3252320 133.4787210  12.6754770  26.9940940 125.9992870  27.6656390
  27.3186710 125.2682530  28.1914370  27.0297450 125.6806510  26.7637380
  13.6932500 137.0206450  27.0856350  13.3087290 136.3800120  27.6839310
  14.0044690 137.7242570  27.6551080  19.8429640 133.8682990  22.5664970
  20.2099770 133.3941560  23.3126310  19.6534700 134.7424560  22.9073310
  12.7070130 128.6126680  18.6958440  12.4217050 128.2482350  19.5337060
  12.6448990 127.8807140  18.0821580  17.6329010 132.9091630  24.8849180
  17.3286080 133.7883610  25.1099540  18.5875470 132.9691420  24.9206620
  16.1610800 137.1152620  15.4816030  15.3873060 136.5750240  15.3214750
  16.8905430 136.5959230  15.1433790  26.9198780 136.1117980  21.2742420
  27.6397900 136.6073270  20.8838530  26.7180600 135.4335870  20.6296290
  22.3808720 127.5055940  15.4171810  21.5673330 127.0069110  15.3417120
  22.1870670 128.3454190  15.0008160  22.3017580 136.1827040  27.1611420
  22.2354890 135.2622710  26.9069010  21.6722720 136.2802480  27.8756060
  25.0957110 131.8775590  13.7133970  25.9836730 132.1892820  13.5385310
  25.0662200 131.0047840  13.3214550  16.2048200 136.7833000  19.1194840
  16.7226870 135.9801260  19.0651730  15.7532220 136.7212140  19.9611670
  21.0917700 138.0499280  14.3922140  21.4333400 138.7941510  13.8965460
  20.2630410 138.3630400  14.7546970  13.6892740 133.7494370  26.0320540
  13.3307680 134.4148220  26.6193880  13.3947300 132.9177920  26.4033160
  16.8905860 134.2078610  28.9160090  16.5906000 134.3535790  28.0187910
  17.6617100 133.6483900  28.8233480  22.2334310 139.0047610  26.9115220
  22.2478850 138.0728570  26.6934130  21.5259410 139.0907370  27.5504990
  27.3671380 133.1887430  13.1813830  27.2835100 133.6201650  12.3310270
  28.0865570 133.6485780  13.6140650  28.4445520 135.6454950  26.2583800
  27.7193710 136.2383730  26.0613190  28.9720980 135.6378490  25.4597170
  28.3958630 140.0429690  15.9095960  27.7534790 139.3885310  16.1839680
  28.0089290 140.4484780  15.1336630  23.9745110 137.3715120  19.7567650
  24.3268930 136.7743250  19.0969020  23.0907440 137.0459350  19.9275900
  20.0608390 138.1312810  17.1638060  20.7479520 138.6782020  17.5445650
  19.2740810 138.6753540  17.1987670  12.2000790 133.7485630  12.6555140
  13.0695640 134.0310430  12.9391060  11.7091110 134.5621500  12.5403950
  19.3635600 135.1358840  16.7763420  19.8198380 135.9464090  17.0023610
  19.0123810 134.8181980  17.6081910  21.6668210 140.6465180  24.0055720
  22.3110430 140.8524560  24.6829140  22.0297650 139.8853580  23.5526570
  15.2647380 125.4796490  17.2485940  15.1362010 125.4714390  18.1970860
  14.4409400 125.8179580  16.8976950  22.9400290 138.6497530  22.7233170
  23.5822520 137.9490690  22.8365340  23.4649640 139.4295970  22.5430060
  26.7856010 138.9346150  12.4472310  26.5593590 138.2176590  13.0396950
  26.3952210 138.6858590  11.6094060  24.7137910 139.4492430  25.9269230
  25.0494150 140.0359120  26.6047150  23.7938250 139.3185140  26.1567020
  12.5672040 142.9613010  13.2216770  12.9269680 143.5602350  12.5674040
  12.4264380 143.5072900  13.9951800  12.2641310 127.2387610  26.7092640
  11.5499830 127.4384530  27.3145250  12.6836350 126.4627180  27.0807440
  26.3672260 136.8518090  14.1086470  26.0793960 137.3130780  14.8964350
  27.1624430 136.3915860  14.3770690  12.5513900 141.2267870  27.6959170
  12.6605020 140.2862610  27.5554560  11.8994460 141.4922620  27.0472900
  20.5426490 139.4983760  29.0957290  20.2223360 138.7793000  29.6402980
  19.8684850 140.1738830  29.1693350  18.5840660 140.3444210  14.0390440
  18.5750760 141.0773900  13.4234950  17.6639020 140.0975790  14.1317400
  14.1847300 135.5659100  14.7837200  13.5775250 136.3058000  14.7932500
  14.6596650 135.6558460  13.9575400  23.7580090 129.7309920  24.4594090
  24.1260910 128.9105130  24.7873660  22.8978290 129.7911810  24.8749740
  27.1242120 128.6866860  15.2681650  26.4955280 128.7912530  14.5539880
  26.6294040 128.9063640  16.0575530  21.5700260 140.4072450  12.7015630
  21.6712240 140.2036440  11.7717610  20.6702000 140.1530730  12.9063410
  19.0926150 130.9652810  16.6839530  18.3842300 131.4339150  17.1253140
  19.3770630 130.3074820  17.3184720  20.7182080 132.3849510  24.6832060
  21.2167330 132.8595330  25.3483910  20.8605030 131.4613030  24.8902090
  23.1241580 127.6903470  18.1235320  23.0009360 127.7089600  17.1744830
  24.0726140 127.7382410  18.2433720  20.2118370 142.9258770  17.3963300
  20.4659870 142.8880160  16.4742670  19.2630850 142.7992100  17.3891550
  17.2961170 129.2737890  14.0590240  18.1451700 129.7108040  13.9930430
  16.9292440 129.5858150  14.8862300  27.9248940 128.6017470  25.5260450
  27.4222540 129.3422870  25.8654260  28.7405600 128.9901470  25.2097240
  26.2170950 133.8450650  18.9721810  25.2761090 133.8600880  19.1469500
  26.5315020 133.0586610  19.4182110  16.1952590 135.5270250  12.5325770
  16.9615860 135.4151610  13.0951200  16.2727280 134.8308220  11.8802540
  14.8899350 132.9595320  13.2158660  14.9702940 132.0122830  13.3276060
  15.7819100 133.2902200  13.3219320  28.2196530 141.0159500  20.6476070
  28.3443950 141.8390670  21.1199880  29.0862090 140.8050230  20.3000220
  15.6914060 143.1090710  20.3193200  16.4276540 142.5606170  20.5901770
  16.0754980 143.9746720  20.1799190  12.5759540 139.1764280  16.1934710
  11.6499320 139.4185420  16.1840120  13.0415970 140.0038540  16.0719460
  14.6972340 142.2936780  29.5078780  15.4985070 142.6148830  29.9214180
  14.1824160 141.9332360  30.2298690  18.8016370 142.2821020  12.1418770
  19.5944980 142.5709850  11.6900560  18.2820720 141.8513190  11.4631250
  23.5336970 138.4016650  29.4554190  22.9275130 138.4248250  28.7149940
  23.2291080 137.6699690  29.9921440  24.9637340 142.1296940  28.0663600
  25.9159090 142.0454960  28.0163840  24.8165560 142.7938650  28.7397390
  27.8546540 141.5091150  13.5655510  27.5688050 141.0956290  12.7509690
  27.6566090 142.4378860  13.4456030  12.4170150 134.7810240  28.4514830
  12.9209170 134.2017520  29.0231060  11.6777570 135.0650470  28.9891200
  19.3193770 137.5024430  12.0061120  19.2144410 136.8876780  12.7322500
  19.1517990 136.9790320  11.2224130  19.4708090 136.1881230  27.9850350
  18.7053760 136.7566230  27.9005020  19.6524050 135.8957440  27.0918580
  22.5596500 136.5644460  12.6103110  22.0106600 137.0113760  13.2545850
  23.1815760 136.0593710  13.1340780  26.6131440 137.9186560  28.5425370
  27.3540910 138.2562320  28.0392830  25.8504120 138.0878620  27.9895140
  14.4493230 132.9239830  29.3464900  14.4898570 132.6253700  30.2550130
  15.3038730 133.3247440  29.1872420  18.2271620 135.5235380  14.5068410
  18.6488040 135.3575250  15.3499800  18.3522460 134.7135610  14.0123550
  16.3899040 131.5031930  27.3139390  15.8595500 131.0122880  26.6862730
  17.0587110 131.9316130  26.7797320  20.7399260 134.5472990  11.7545510
  21.2604920 133.8322010  11.3886660  21.3867660 135.1858860  12.0546020
  25.2877100 135.9701390  27.0780580  25.7018120 136.1246470  27.9271000
  24.3528100 136.0956610  27.2406360  25.7599270 133.3097550  29.0819730
  26.3420040 132.5549870  28.9940210  25.9361040 133.8404990  28.3051210
  16.8771340 128.4694300  27.3936680  16.7828210 127.8515050  26.6687550
  16.2968730 129.1960590  27.1666590  19.6432780 127.0267540  24.4264070
  19.1950080 127.0491800  23.5809620  19.0097980 126.6286560  25.0234370
  20.0492330 135.9221870  25.0476510  20.4680440 136.7654600  24.8752750
  19.1300960 136.0593910  24.8183290  22.3856230 133.6538050  26.4314350
  22.5052440 133.0579190  27.1709190  23.2450230 133.6907740  26.0115650
  24.7244130 134.2075240  25.0076860  24.1979350 134.7317860  24.4042000
  25.0675470 134.8402630  25.6386590  17.1230520 131.5968610  11.4526570
  16.9219580 130.7335970  11.8139910  16.9522570 131.5101970  10.5148170
  17.8999750 142.2274880  26.1634240  17.3620840 142.9520940  25.8442940
  18.1533710 141.7505220  25.3731580  19.1525000 130.1959400  27.6890170
  19.7424690 129.8875250  28.3767990  18.3345240 129.7239150  27.8450070
  23.9718430 129.8125210  27.9223190  23.2833950 129.1506750  27.8573180
  24.6924450 129.3663480  28.3671650  24.6018830 126.4076840  13.9813450
  24.8821120 125.5644740  14.3372870  23.8284560 126.6399950  14.4952200
  15.9213320 128.6969230  11.4404450  16.2239220 128.7036660  10.5323600
  16.6607910 128.3467090  11.9372110  20.7561960 143.4626090  26.4220890
  20.6820660 144.3661230  26.7293260  19.8540800 143.1437990  26.3942960
  19.1398250 127.6403850  12.4260650  18.7920250 126.9627840  11.8463100
  19.3411020 127.1793360  13.2404040  21.3047290 142.6284600  14.0447250
  22.1998080 142.9669570  14.0666010  21.3364920 141.9064010  13.4171530
  14.9443450 138.0011650  12.2734250  15.3818320 138.5441320  12.9291830
  15.4291180 137.1758600  12.2830590  12.1589250 140.7900680  19.7254510
  12.4892260 139.9221740  19.4933150  12.5880250 140.9959200  20.5559470
  16.7551170 139.1209690  17.3856480  16.4546710 138.9974660  18.2860390
  16.6488660 138.2618280  16.9772210  12.6479460 141.6571270  22.4636140
  12.2110450 141.8372070  23.2960290  13.2157140 142.4145890  22.3217860
  28.2841640 141.1588270  26.7513450  27.6843630 141.2180830  26.0077370
  28.4135540 140.2193250  26.8810300  29.5243090 138.9006090  12.0883160
  28.6936050 138.9682740  12.5590390  29.7014920 139.7910210  11.7850020
  28.9799550 135.6453570  14.5917360  29.7418460 136.2150220  14.6977050
  28.9953920 135.0780770  15.3625670  12.4803890 134.1691500  18.8225020
  11.8252730 133.9003140  18.1784720  13.3181840 134.0595980  18.3727000
  29.9859520 136.5003670  19.4359290  30.3568350 135.7170990  19.0295260
  30.6261450 137.1892770  19.2576590  26.9693280 137.8840250  24.8489610
  26.1553120 138.3137410  25.1115400  27.3767480 138.4958660  24.2358660
  29.0318720 135.9387940  11.7489880  29.3067560 136.8466820  11.6209100
  28.8429460 135.8750470  12.6851870  25.4294330 128.9632790  13.0443510
  25.8479210 128.7763770  12.2040170  25.1230390 128.1111840  13.3546440
  28.9284060 133.8756930  16.7419310  28.5527660 133.1084860  16.3100600
  28.1987180 134.2579630  17.2294240  13.5179820 134.5544070  23.3628360
  13.8852860 134.4671470  24.2424380  12.9490640 133.7910620  23.2635220
  28.3183680 133.0228450  26.3758830  28.0869770 132.7941200  25.4756780
  28.5788230 133.9428000  26.3303720  13.0695820 131.4653160  27.2686780
  12.1751870 131.4319920  27.6080490  13.6093370 131.6639950  28.0338030
  26.7571750 128.2484880  29.1538530  27.6341930 128.2568280  29.5372530
  26.7692590 127.5115720  28.5430880  11.6941970 131.3790430  14.7650350
  10.7906050 131.6420630  14.5902010  12.1782590 131.6501600  13.9850310
  28.2035020 132.1014420  20.0426550  28.7272500 131.6077070  19.4116720
  28.7894440 132.2364780  20.7874120  28.3824740 132.1854290  23.5646100
  27.4327450 132.1517830  23.6791090  28.5637750 133.0954400  23.3295870
  14.2369180 130.4355970  12.6744730  14.9460880 130.0139190  12.1892010
  13.5209120 130.5031200  12.0428080  13.8843340 126.4895300  11.7147380
  14.6071470 127.0304240  12.0328600  14.1567860 126.2158720  10.8388920
  27.6934990 131.3587770  15.9818960  28.1894110 131.1258640  16.7667840
  27.4951060 130.5199610  15.5656600  13.5735530 125.7401490  21.6170000
  14.2211720 125.1898870  21.1765160  13.9937370 125.9944640  22.4385810
  29.1222150 129.9948720  18.5156640  29.0121430 129.8404760  19.4538910
  29.8829740 129.4669660  18.2732050  27.4687870 125.9342850  24.9739640
  28.1060090 126.5476990  25.3398830  27.6162760 125.9703510  24.0288870
  30.0112420 127.8256640  11.7562780  30.9361730 127.6937820  11.5481070
  29.9888210 127.9049460  12.7099230  30.0850910 128.5967300  14.3819490
  29.2902410 128.5312420  14.9112400  30.2894190 129.5317940  14.3704840
  27.0269330 142.6358850  18.3757880  27.6228400 142.3143420  17.6992300
  27.2847480 142.1630670  19.1671150  13.3267530 125.8957160  24.3595320
  12.9782350 126.3520980  25.1253500  12.9955230 125.0014290  24.4417750
  14.9331900 139.0676760  28.5248510  14.8901530 138.6969670  29.4062970
  15.0642910 140.0054330  28.6650330  18.6337930 140.6236350  24.1258230
  18.3929290 140.8910910  23.2388750  19.5740570 140.7942080  24.1809090
  20.8392350 127.0869040  27.8814740  20.7781240 127.6790870  28.6310150
  21.7792730 126.9795000  27.7365000  23.4766910 126.7439100  27.5207030
  24.0907320 127.0618390  26.8588110  24.0216470 126.2587690  28.1402890
  29.8942090 142.6430730  24.9268870  29.4000370 143.0399600  24.2096000
  29.2855380 142.0179940  25.3206150  13.9988170 125.4233360  27.6346090
  14.5471160 125.2421410  26.8712200  14.0643480 124.6327470  28.1702400
  14.7719930 142.0139010  25.6446290  14.1780250 141.8823710  26.3836330
  14.7643770 141.1777150  25.1788390  24.2174950 125.3071240  23.8476320
  23.3434790 125.6406350  23.6449250  24.1085700 124.8344420  24.6728190
  25.1246930 127.5142110  25.2318040  24.7960290 126.6993870  24.8519770
  26.0729230 127.4711920  25.1083730  27.5781540 143.2854150  22.2055610
  27.1184510 144.0369960  21.8313630  26.9494000 142.5660620  22.1470410
  14.4032160 139.3797390  24.5954330  13.6766220 138.7602680  24.5280280
  14.4641310 139.7738000  23.7252410  18.0077260 141.5942390  21.3803740
  18.5242280 140.9829750  20.8552000  18.6574640 142.0971170  21.8714750
  20.7472760 142.4850880  22.2072720  21.0350570 142.2305180  21.3305730
  21.2595980 141.9328240  22.7978290  21.9649770 126.2241080  22.7869230
  21.1821560 126.6986580  23.0665990  21.6712700 125.3195910  22.6782410
  26.5170840 126.9264180  20.8318320  26.9578930 126.8709280  19.9839920
  26.2478430 127.8422190  20.9028500  28.3809410 126.5579420  18.8427140
  28.3197810 125.6140640  18.6958160  29.1601440 126.6659510  19.3880600
  12.6862160 142.6971780  17.8051090  12.5184200 142.0642460  18.5032980
  11.8196670 142.9031180  17.4545280  13.3090180 126.5288560  15.3082950
  14.0669540 126.6417440  14.7346980  12.8467350 127.3657760  15.2626380
  19.8503990 128.6427830  18.2985260  19.0378500 128.2684720  17.9581140
  20.3545630 127.8872910  18.6006450  24.3528970 125.3070280  19.5368330
  24.9558340 125.8790490  20.0116850  23.6121960 125.8709720  19.3142230
  27.4963570 125.7091840  14.8108610  27.6914200 126.6075290  15.0776040
  26.7093440 125.4778920  15.3041560  14.2924860 141.3905010  15.2501230
  13.7672480 141.7713040  14.5463190  14.2169440 142.0155780  15.9710940
  15.6815330 127.0552610  13.8484920  16.2108090 126.2682410  13.7192870
  16.3143650 127.7343800  14.0820450  17.8753170 126.7927750  16.9030310
  17.2455910 126.0915060  17.0700440  17.3358310 127.5531880  16.6863470
  20.8145120 143.4066980  29.5740920  21.7412430 143.1711250  29.6176880
  20.7995550 144.2338980  29.0926950  29.0490180 142.9492550  16.5715170
  29.2242370 142.2630290  15.9276090  28.3511750 143.4739600  16.1791840
  18.0008730 126.0711730  29.3382800  17.7193000 126.5745330  28.5743620
  18.3828430 125.2733480  28.9724930  16.8917830 143.3387390  14.1250480
  17.6236650 143.0546670  13.5774370  17.1511500 143.1000670  15.0149860
  16.0532620 139.4552120  14.1296810  15.4241500 139.9237220  14.6782640
  16.1680450 138.6101340  14.5643000  24.6024190 125.4865310  29.9163270
  24.4889640 125.8059920  30.8114790  25.4193930 125.8877820  29.6200550
  27.3822680 142.6336840  29.3981960  28.1748000 142.1386070  29.1907920
  27.6755830 143.3126980  30.0057570  21.6400380 135.2836800   2.1607280
  20.8642480 134.8037240   2.4505850  22.2913310 134.6042450   1.9863440
  15.6566210 135.5956610   3.0383040  14.8251090 135.3405320   3.4379550
  16.2647190 135.6667380   3.7740960  15.6367470 139.6296700   3.2341060
  15.9395510 138.7394440   3.0551280  16.3811060 140.1866920   3.0063310
  12.0291170 133.1564150   2.7065130  12.6007280 132.3886350   2.7068770
  12.0292710 133.4552910   1.7971740  21.0809370 137.9593990   2.1677440
  21.0117650 137.0183930   2.0066570  21.8429230 138.0495400   2.7400010
  13.2716040 128.5648510   4.4934060  13.0918880 127.6674260   4.7736820
  12.8696120 129.1120380   5.1681010  13.8902710 131.0609010   3.1016400
  14.5712820 131.3247380   3.7203800  13.5750760 130.2209880   3.4354410
  18.0827280 132.1076370   2.1888990  18.5905500 132.6057340   2.8294010
  18.6140520 131.3311570   2.0128350  30.1838210 130.2781560   5.8918340
  29.4790380 130.6663270   5.3733450  30.4496130 130.9731850   6.4939270
  16.3663380 126.7474930   6.4552410  16.3681820 127.2647320   5.6498310
  15.5367690 126.2705110   6.4322340  17.6166230 136.3870110   4.6325910
  17.2835610 137.0139030   5.2746980  17.7932910 136.9131990   3.8527580
  26.1300140 130.2015190   2.1002250  25.4255710 130.4900080   2.6805360
  26.4912300 131.0115300   1.7401810  16.0478710 128.4584890   4.4622860
  16.3895520 129.3026940   4.1676730  15.1094520 128.6068630   4.5788200
  16.8285330 138.3550910   6.4475090  17.4459330 139.0301990   6.1659540
  15.9678450 138.7638890   6.3562590  27.7462920 139.8190320   4.3629730
  27.0626440 140.4889430   4.3546400  28.2857210 140.0170970   3.5974590
  29.1987060 129.6469980   2.4911460  28.2511970 129.6808960   2.6226890
  29.5237050 130.4608930   2.8760820  25.2821660 141.6634450   3.0774910
  25.2948820 141.2596740   2.2097170  24.7296880 142.4381740   2.9736340
  24.6807100 136.5664290   4.4057520  25.0975890 136.3524400   3.5710980
  25.4046920 136.8237080   4.9766140  28.6269200 134.9651510   4.4973760
  27.7987830 135.0344600   4.0223890  29.2219680 135.5505820   4.0289590
  25.5911210 131.7520830   5.4428630  25.1782390 132.5774540   5.6968620
  24.8587160 131.1665870   5.2504990  18.1925700 138.2248290   2.4686510
  17.8953990 137.6193760   1.7894290  19.1425520 138.2625600   2.3575870
  16.4372620 131.3123940   4.0846340  16.9887210 131.4219280   3.3099590
  16.9516130 131.6861540   4.8001570  26.2811310 141.7980160   6.1309610
  25.8041870 142.6052350   5.9382220  25.5973100 141.1458490   6.2835820
  17.2844130 137.9629980   9.1194310  16.3872660 138.1869950   9.3667710
  17.3097000 138.0864920   8.1705710  16.1115350 134.8343300   7.6951680
  15.9723120 135.7066100   8.0639080  15.2296710 134.4916110   7.5499620
  17.9095700 140.7765000   9.9036830  17.8811130 141.1807950   9.0365260
  17.7460670 139.8475360   9.7408430  29.8610520 141.5592100  11.2001000
  30.3370240 142.0374990  11.8790080  30.4817680 141.4909590  10.4746500
  12.0634000 136.6040850   3.6122590  12.1414420 136.7389620   2.6678310
  12.6775680 135.8956740   3.8050710  29.2643770 138.7504950   8.3601010
  29.3906830 138.5116830   7.4418190  29.3065150 137.9189490   8.8323090
  23.1260510 142.4532950   6.9295820  23.6405180 142.3640960   7.7318250
  22.2829590 142.7992650   7.2223730  29.1167780 130.8037410   9.3250750
  28.5012050 131.3117080   8.7966210  28.7964200 129.9035740   9.2676690
  12.1193520 137.6455020   6.1517050  12.2824560 137.1760380   5.3336420
  12.5845970 137.1378580   6.8165890  21.1782100 129.6429300   6.7912940
  20.7161470 129.8512320   7.6032880  20.7760210 128.8288650   6.4883610
  26.1786610 130.8638250   7.9209600  25.3280200 130.5644000   8.2418670
  26.0188400 131.1080260   7.0093420  23.2736320 132.3640000  10.0208390
  23.5989730 131.5303750   9.6810620  24.0616650 132.8868520  10.1686720
  18.9288190 127.3208110   3.0467220  19.2260520 128.2270940   2.9659240
  19.4773750 126.8326890   2.4326790  19.1225720 132.7979930   9.5819140
  19.0269320 131.8574660   9.4319540  19.9657700 133.0195000   9.1867210
  14.2536260 129.2093600   7.7352920  13.8599650 130.0568810   7.9425700
  13.5654660 128.5719970   7.9261560  20.8281310 129.2928570  10.8049660
  20.1379630 129.1000770  11.4395750  21.5713610 129.5763210  11.3373960
  11.5553310 127.1322060   1.7683000  11.2666360 127.7024920   2.4807980
  12.2999070 126.6526510   2.1314230  23.1044280 133.1327010   3.6403580
  22.3725400 133.6413820   3.9893680  22.7068620 132.3156990   3.3392360
  23.5670190 128.5860690   3.0526520  23.5842930 129.0369340   3.8968370
  23.3185770 127.6866330   3.2659960  26.9940940 125.9992870   8.8912900
  27.3186710 125.2682530   9.4170880  27.0297450 125.6806510   7.9893890
  13.6932500 137.0206450   8.3112860  13.3087290 136.3800120   8.9095820
  14.0044690 137.7242570   8.8807590  19.8429640 133.8682990   3.7921480
  20.2099770 133.3941560   4.5382820  19.6534700 134.7424560   4.1329820
  17.6329010 132.9091630   6.1105690  17.3286080 133.7883610   6.3356050
  18.5875470 132.9691420   6.1463130  26.9198780 136.1117980   2.4998930
  27.6397900 136.6073270   2.1095040  26.7180600 135.4335870   1.8552800
  22.3017580 136.1827040   8.3867930  22.2354890 135.2622710   8.1325520
  21.6722720 136.2802480   9.1012570  13.6892740 133.7494370   7.2577050
  13.3307680 134.4148220   7.8450390  13.3947300 132.9177920   7.6289670
  16.8905860 134.2078610  10.1416600  16.5906000 134.3535790   9.2444420
  17.6617100 133.6483900  10.0489990  22.2334310 139.0047610   8.1371730
  22.2478850 138.0728570   7.9190640  21.5259410 139.0907370   8.7761500
  28.4445520 135.6454950   7.4840310  27.7193710 136.2383730   7.2869700
  28.9720980 135.6378490   6.6853680  21.6668210 140.6465180   5.2312230
  22.3110430 140.8524560   5.9085650  22.0297650 139.8853580   4.7783080
  22.9400290 138.6497530   3.9489680  23.5822520 137.9490690   4.0621850
  23.4649640 139.4295970   3.7686570  24.7137910 139.4492430   7.1525740
  25.0494150 140.0359120   7.8303660  23.7938250 139.3185140   7.3823530
  12.2641310 127.2387610   7.9349150  11.5499830 127.4384530   8.5401760
  12.6836350 126.4627180   8.3063950  12.5513900 141.2267870   8.9215680
  12.6605020 140.2862610   8.7811070  11.8994460 141.4922620   8.2729410
  20.5426490 139.4983760  10.3213800  20.2223360 138.7793000  10.8659490
  19.8684850 140.1738830  10.3949860  23.7580090 129.7309920   5.6850600
  24.1260910 128.9105130   6.0130170  22.8978290 129.7911810   6.1006250
  20.7182080 132.3849510   5.9088570  21.2167330 132.8595330   6.5740420
  20.8605030 131.4613030   6.1158600  27.9248940 128.6017470   6.7516960
  27.4222540 129.3422870   7.0910770  28.7405600 128.9901470   6.4353750
  14.6972340 142.2936780  10.7335290  15.4985070 142.6148830  11.1470690
  14.1824160 141.9332360  11.4555200  23.5336970 138.4016650  10.6810700
  22.9275130 138.4248250   9.9406450  23.2291080 137.6699690  11.2177950
  24.9637340 142.1296940   9.2920110  25.9159090 142.0454960   9.2420350
  24.8165560 142.7938650   9.9653900  12.4170150 134.7810240   9.6771340
  12.9209170 134.2017520  10.2487570  11.6777570 135.0650470  10.2147710
  19.4708090 136.1881230   9.2106860  18.7053760 136.7566230   9.1261530
  19.6524050 135.8957440   8.3175090  26.6131440 137.9186560   9.7681880
  27.3540910 138.2562320   9.2649340  25.8504120 138.0878620   9.2151650
  14.4493230 132.9239830  10.5721410  14.4898570 132.6253700  11.4806640
  15.3038730 133.3247440  10.4128930  16.3899040 131.5031930   8.5395900
  15.8595500 131.0122880   7.9119240  17.0587110 131.9316130   8.0053830
  25.2877100 135.9701390   8.3037090  25.7018120 136.1246470   9.1527510
  24.3528100 136.0956610   8.4662870  25.7599270 133.3097550  10.3076240
  26.3420040 132.5549870  10.2196720  25.9361040 133.8404990   9.5307720
  16.8771340 128.4694300   8.6193190  16.7828210 127.8515050   7.8944060
  16.2968730 129.1960590   8.3923100  19.6432780 127.0267540   5.6520580
  19.1950080 127.0491800   4.8066130  19.0097980 126.6286560   6.2490880
  20.0492330 135.9221870   6.2733020  20.4680440 136.7654600   6.1009260
  19.1300960 136.0593910   6.0439800  22.3856230 133.6538050   7.6570860
  22.5052440 133.0579190   8.3965700  23.2450230 133.6907740   7.2372160
  24.7244130 134.2075240   6.2333370  24.1979350 134.7317860   5.6298510
  25.0675470 134.8402630   6.8643100  17.8999750 142.2274880   7.3890750
  17.3620840 142.9520940   7.0699450  18.1533710 141.7505220   6.5988090
  19.1525000 130.1959400   8.9146680  19.7424690 129.8875250   9.6024500
  18.3345240 129.7239150   9.0706580  23.9718430 129.8125210   9.1479700
  23.2833950 129.1506750   9.0829690  24.6924450 129.3663480   9.5928160
  20.7561960 143.4626090   7.6477400  20.6820660 144.3661230   7.9549770
  19.8540800 143.1437990   7.6199470  12.6479460 141.6571270   3.6892650
  12.2110450 141.8372070   4.5216800  13.2157140 142.4145890   3.5474370
  28.2841640 141.1588270   7.9769960  27.6843630 141.2180830   7.2333880
  28.4135540 140.2193250   8.1066810  26.9693280 137.8840250   6.0746120
  26.1553120 138.3137410   6.3371910  27.3767480 138.4958660   5.4615170
  13.5179820 134.5544070   4.5884870  13.8852860 134.4671470   5.4680890
  12.9490640 133.7910620   4.4891730  28.3183680 133.0228450   7.6015340
  28.0869770 132.7941200   6.7013290  28.5788230 133.9428000   7.5560230
  13.0695820 131.4653160   8.4943290  12.1751870 131.4319920   8.8337000
  13.6093370 131.6639950   9.2594540  26.7571750 128.2484880  10.3795040
  27.6341930 128.2568280  10.7629040  26.7692590 127.5115720   9.7687390
  28.3824740 132.1854290   4.7902610  27.4327450 132.1517830   4.9047600
  28.5637750 133.0954400   4.5552380  13.5735530 125.7401490   2.8426510
  14.2211720 125.1898870   2.4021670  13.9937370 125.9944640   3.6642320
  27.4687870 125.9342850   6.1996150  28.1060090 126.5476990   6.5655340
  27.6162760 125.9703510   5.2545380  13.3267530 125.8957160   5.5851830
  12.9782350 126.3520980   6.3510010  12.9955230 125.0014290   5.6674260
  14.9331900 139.0676760   9.7505020  14.8901530 138.6969670  10.6319480
  15.0642910 140.0054330   9.8906840  18.6337930 140.6236350   5.3514740
  18.3929290 140.8910910   4.4645260  19.5740570 140.7942080   5.4065600
  20.8392350 127.0869040   9.1071250  20.7781240 127.6790870   9.8566660
  21.7792730 126.9795000   8.9621510  23.4766910 126.7439100   8.7463540
  24.0907320 127.0618390   8.0844620  24.0216470 126.2587690   9.3659400
  29.8942090 142.6430730   6.1525380  29.4000370 143.0399600   5.4352510
  29.2855380 142.0179940   6.5462660  13.9988170 125.4233360   8.8602600
  14.5471160 125.2421410   8.0968710  14.0643480 124.6327470   9.3958910
  14.7719930 142.0139010   6.8702800  14.1780250 141.8823710   7.6092840
  14.7643770 141.1777150   6.4044900  24.2174950 125.3071240   5.0732830
  23.3434790 125.6406350   4.8705760  24.1085700 124.8344420   5.8984700
  25.1246930 127.5142110   6.4574550  24.7960290 126.6993870   6.0776280
  26.0729230 127.4711920   6.3340240  27.5781540 143.2854150   3.4312120
  27.1184510 144.0369960   3.0570140  26.9494000 142.5660620   3.3726920
  14.4032160 139.3797390   5.8210840  13.6766220 138.7602680   5.7536790
  14.4641310 139.7738000   4.9508920  18.0077260 141.5942390   2.6060250
  18.5242280 140.9829750   2.0808510  18.6574640 142.0971170   3.0971260
  20.7472760 142.4850880   3.4329230  21.0350570 142.2305180   2.5562240
  21.2595980 141.9328240   4.0234800  21.9649770 126.2241080   4.0125740
  21.1821560 126.6986580   4.2922500  21.6712700 125.3195910   3.9038920
  20.8145120 143.4066980  10.7997430  21.7412430 143.1711250  10.8433390
  20.7995550 144.2338980  10.3183460  18.0008730 126.0711730  10.5639310
  17.7193000 126.5745330   9.8000130  18.3828430 125.2733480  10.1981440
  24.6024190 125.4865310  11.1419780  24.4889640 125.8059920  12.0371300
  25.4193930 125.8877820  10.8457060  27.3822680 142.6336840  10.6238470
  28.1748000 142.1386070  10.4164430  27.6755830 143.3126980  11.2314080
  23.5082340 114.7314290 150.4745930  23.4276390 113.8168900 150.2037640
  23.0946760 115.2281360 149.7685640  25.6607810 120.9153500 151.1354330
  25.1989340 120.1440740 151.4641500  26.4733360 120.9419570 151.6406780
  14.0658160 111.7815010 147.0173350  13.1774860 112.1230980 146.9153230
  14.3499350 111.5815330 146.1254180  21.8871120 123.2011510 150.7558320
  21.2682560 123.6569010 150.1852760  22.7422900 123.3562970 150.3548020
  16.2419550 110.3646510 148.0511730  16.3486300 111.2650240 148.3580490
  15.3311910 110.3164480 147.7606380  25.8938660 109.4871320 149.5222630
  26.7148280 108.9967890 149.5648110  25.9272740 110.0768980 150.2754470
  22.7534470 118.0850750 148.1490230  22.1351740 118.5500200 147.5852950
  23.2657720 118.7778230 148.5659740  12.1217670 118.7707280 145.5229860
  11.7445650 119.2594380 144.7914760  12.3790740 119.4432560 146.1536390
  19.7306600 107.1723670 150.9815370  20.0381580 106.6170560 150.2650870
  18.8007300 107.3068130 150.7988360  26.5767080 119.6107180 148.3613000
  26.4663410 118.6681510 148.4862420  26.5735330 119.9722820 149.2475760
  22.1187360 115.2372500 147.7175490  21.1916640 115.1709880 147.9463960
  22.2712180 116.1752630 147.6030730  22.1056440 111.5089500 144.7142650
  21.1660110 111.6703460 144.7995110  22.4239700 112.2275180 144.1678640
  26.1484650 116.7992800 148.2210740  25.5297070 116.4612350 147.5737040
  26.1309100 116.1552560 148.9289930  17.7244000 115.7637240 150.4995220
  17.3201000 115.0514490 150.0041120  17.8107120 115.4190480 151.3883260
  24.3249350 116.0379610 145.2283490  24.7642630 115.2002040 145.0821310
  25.0377770 116.6709010 145.3147630  22.4344730 120.9775680 149.1964730
  22.8740640 121.7200010 148.7820120  22.3731620 121.2202250 150.1203690
  27.9066490 107.2922420 143.5424530  27.5939150 107.3849250 144.4423600
  28.6678960 107.8703450 143.4921960  14.4248630 114.6582220 148.0001870
  14.3046230 115.3844310 147.3883140  14.1149520 113.8885130 147.5229780
  13.3081630 119.5297550 150.2176690  12.9009710 119.6712140 149.3630290
  14.1994640 119.2457710 150.0147900  25.1014910 123.9644800 146.5527740
  24.9416050 123.6747740 147.4509570  24.9361620 123.1884930 146.0172970
  17.5803290 123.7443330 148.3299360  17.4045770 122.8278870 148.1167160
  16.7259030 124.1030620 148.5697160  24.8041040 121.4732360 145.1125740
  24.1106200 121.4709650 144.4528020  25.5463900 121.0491680 144.6819910
  24.3690970 123.0995070 149.1874230  24.8247920 122.3184450 149.5012850
  24.7083490 123.8101890 149.7315410  16.8912290 108.0017290 151.3825540
  16.4480440 108.7826830 151.0510060  17.4497280 108.3247180 152.0896480
  20.0071110 107.6227990 146.2631370  19.3825290 107.6187860 146.9884680
  19.9201230 106.7558950 145.8667340  16.6826510 113.1250860 149.1106790
  16.4567430 112.9088030 150.0153410  15.9019040 113.5579320 148.7652760
  23.9124270 113.1314230 147.7097440  23.3133160 113.8550030 147.5261060
  24.4603880 113.0691010 146.9273890  22.5189140 111.7677770 149.7400720
  22.9118710 112.0849970 148.9269410  22.8805990 110.8889650 149.8545240
  11.7423540 112.2998690 143.1733640  11.6598210 113.2429450 143.3148630
  11.3906600 112.1573600 142.2945990  19.5421670 111.0337720 152.2403990
  19.5457730 110.5927670 151.3908530  20.4372790 111.3555050 152.3475810
  15.3924050 110.9164210 151.1998200  15.0524100 111.3939440 151.9565250
  14.6301370 110.4629330 150.8399300  19.6041820 112.0349800 145.2310750
  19.7254640 111.9936280 146.1796570  19.2190330 112.8973950 145.0757480
  18.6163320 114.3450940 144.6294050  18.0480220 113.8969190 144.0029960
  19.3252320 114.7043720 144.0959200  12.7070130 109.8383190 150.1162870
  12.4217050 109.4738860 150.9541490  12.6448990 109.1063650 149.5026010
  16.1610800 118.3409130 146.9020460  15.3873060 117.8006750 146.7419180
  16.8905430 117.8215740 146.5638220  22.3808720 108.7312450 146.8376240
  21.5673330 108.2325620 146.7621550  22.1870670 109.5710700 146.4212590
  25.0957110 113.1032100 145.1338400  25.9836730 113.4149330 144.9589740
  25.0662200 112.2304350 144.7418980  16.2048200 118.0089510 150.5399270
  16.7226870 117.2057770 150.4856160  15.7532220 117.9468650 151.3816100
  21.0917700 119.2755790 145.8126570  21.4333400 120.0198020 145.3169890
  20.2630410 119.5886910 146.1751400  27.3671380 114.4143940 144.6018260
  27.2835100 114.8458160 143.7514700  28.0865570 114.8742290 145.0345080
  28.3958630 121.2686200 147.3300390  27.7534790 120.6141820 147.6044110
  28.0089290 121.6741290 146.5541060  23.9745110 118.5971630 151.1772080
  24.3268930 117.9999760 150.5173450  23.0907440 118.2715860 151.3480330
  20.0608390 119.3569320 148.5842490  20.7479520 119.9038530 148.9650080
  19.2740810 119.9010050 148.6192100  12.2000790 114.9742140 144.0759570
  13.0695640 115.2566940 144.3595490  11.7091110 115.7878010 143.9608380
  19.3635600 116.3615350 148.1967850  19.8198380 117.1720600 148.4228040
  19.0123810 116.0438490 149.0286340  15.2647380 106.7053000 148.6690370
  15.1362010 106.6970900 149.6175290  14.4409400 107.0436090 148.3181380
  26.7856010 120.1602660 143.8676740  26.5593590 119.4433100 144.4601380
  26.3952210 119.9115100 143.0298490  12.5672040 124.1869520 144.6421200
  12.9269680 124.7858860 143.9878470  12.4264380 124.7329410 145.4156230
  26.3672260 118.0774600 145.5290900  26.0793960 118.5387290 146.3168780
  27.1624430 117.6172370 145.7975120  18.5840660 121.5700720 145.4594870
  18.5750760 122.3030410 144.8439380  17.6639020 121.3232300 145.5521830
  14.1847300 116.7915610 146.2041630  13.5775250 117.5314510 146.2136930
  14.6596650 116.8814970 145.3779830  27.1242120 109.9123370 146.6886080
  26.4955280 110.0169040 145.9744310  26.6294040 110.1320150 147.4779960
  21.5700260 121.6328960 144.1220060  21.6712240 121.4292950 143.1922040
  20.6702000 121.3787240 144.3267840  19.0926150 112.1909320 148.1043960
  18.3842300 112.6595660 148.5457570  19.3770630 111.5331330 148.7389150
  23.1241580 108.9159980 149.5439750  23.0009360 108.9346110 148.5949260
  24.0726140 108.9638920 149.6638150  20.2118370 124.1515280 148.8167730
  20.4659870 124.1136670 147.8947100  19.2630850 124.0248610 148.8095980
  17.2961170 110.4994400 145.4794670  18.1451700 110.9364550 145.4134860
  16.9292440 110.8114660 146.3066730  26.2170950 115.0707160 150.3926240
  25.2761090 115.0857390 150.5673930  26.5315020 114.2843120 150.8386540
  16.1952590 116.7526760 143.9530200  16.9615860 116.6408120 144.5155630
  16.2727280 116.0564730 143.3006970  14.8899350 114.1851830 144.6363090
  14.9702940 113.2379340 144.7480490  15.7819100 114.5158710 144.7423750
  15.6914060 124.3347220 151.7397630  16.4276540 123.7862680 152.0106200
  16.0754980 125.2003230 151.6003620  12.5759540 120.4020790 147.6139140
  11.6499320 120.6441930 147.6044550  13.0415970 121.2295050 147.4923890
  18.8016370 123.5077530 143.5623200  19.5944980 123.7966360 143.1104990
  18.2820720 123.0769700 142.8835680  27.8546540 122.7347660 144.9859940
  27.5688050 122.3212800 144.1714120  27.6566090 123.6635370 144.8660460
  19.3193770 118.7280940 143.4265550  19.2144410 118.1133290 144.1526930
  19.1517990 118.2046830 142.6428560  22.5596500 117.7900970 144.0307540
  22.0106600 118.2370270 144.6750280  23.1815760 117.2850220 144.5545210
  18.2271620 116.7491890 145.9272840  18.6488040 116.5831760 146.7704230
  18.3522460 115.9392120 145.4327980  20.7399260 115.7729500 143.1749940
  21.2604920 115.0578520 142.8091090  21.3867660 116.4115370 143.4750450
  17.1230520 112.8225120 142.8731000  16.9219580 111.9592480 143.2344340
  16.9522570 112.7358480 141.9352600  24.6018830 107.6333350 145.4017880
  24.8821120 106.7901250 145.7577300  23.8284560 107.8656460 145.9156630
  15.9213320 109.9225740 142.8608880  16.2239220 109.9293170 141.9528030
  16.6607910 109.5723600 143.3576540  19.1398250 108.8660360 143.8465080
  18.7920250 108.1884350 143.2667530  19.3411020 108.4049870 144.6608470
  21.3047290 123.8541110 145.4651680  22.1998080 124.1926080 145.4870440
  21.3364920 123.1320520 144.8375960  14.9443450 119.2268160 143.6938680
  15.3818320 119.7697830 144.3496260  15.4291180 118.4015110 143.7035020
  12.1589250 122.0157190 151.1458940  12.4892260 121.1478250 150.9137580
  12.5880250 122.2215710 151.9763900  16.7551170 120.3466200 148.8060910
  16.4546710 120.2231170 149.7064820  16.6488660 119.4874790 148.3976640
  29.5243090 120.1262600 143.5087590  28.6936050 120.1939250 143.9794820
  29.7014920 121.0166720 143.2054450  28.9799550 116.8710080 146.0121790
  29.7418460 117.4406730 146.1181480  28.9953920 116.3037280 146.7830100
  12.4803890 115.3948010 150.2429450  11.8252730 115.1259650 149.5989150
  13.3181840 115.2852490 149.7931430  29.9859520 117.7260180 150.8563720
  30.3568350 116.9427500 150.4499690  30.6261450 118.4149280 150.6781020
  29.0318720 117.1644450 143.1694310  29.3067560 118.0723330 143.0413530
  28.8429460 117.1006980 144.1056300  25.4294330 110.1889300 144.4647940
  25.8479210 110.0020280 143.6244600  25.1230390 109.3368350 144.7750870
  28.9284060 115.1013440 148.1623740  28.5527660 114.3341370 147.7305030
  28.1987180 115.4836140 148.6498670  11.6941970 112.6046940 146.1854780
  10.7906050 112.8677140 146.0106440  12.1782590 112.8758110 145.4054740
  28.2035020 113.3270930 151.4630980  28.7272500 112.8333580 150.8321150
  28.7894440 113.4621290 152.2078550  14.2369180 111.6612480 144.0949160
  14.9460880 111.2395700 143.6096440  13.5209120 111.7287710 143.4632510
  13.8843340 107.7151810 143.1351810  14.6071470 108.2560750 143.4533030
  14.1567860 107.4415230 142.2593350  27.6934990 112.5844280 147.4023390
  28.1894110 112.3515150 148.1872270  27.4951060 111.7456120 146.9861030
  29.1222150 111.2205230 149.9361070  29.0121430 111.0661270 150.8743340
  29.8829740 110.6926170 149.6936480  30.0112420 109.0513150 143.1767210
  30.9361730 108.9194330 142.9685500  29.9888210 109.1305970 144.1303660
  30.0850910 109.8223810 145.8023920  29.2902410 109.7568930 146.3316830
  30.2894190 110.7574450 145.7909270  27.0269330 123.8615360 149.7962310
  27.6228400 123.5399930 149.1196730  27.2847480 123.3887180 150.5875580
  26.5170840 108.1520690 152.2522750  26.9578930 108.0965790 151.4044350
  26.2478430 109.0678700 152.3232930  28.3809410 107.7835930 150.2631570
  28.3197810 106.8397150 150.1162590  29.1601440 107.8916020 150.8085030
  12.6862160 123.9228290 149.2255520  12.5184200 123.2898970 149.9237410
  11.8196670 124.1287690 148.8749710  13.3090180 107.7545070 146.7287380
  14.0669540 107.8673950 146.1551410  12.8467350 108.5914270 146.6830810
  19.8503990 109.8684340 149.7189690  19.0378500 109.4941230 149.3785570
  20.3545630 109.1129420 150.0210880  24.3528970 106.5326790 150.9572760
  24.9558340 107.1047000 151.4321280  23.6121960 107.0966230 150.7346660
  27.4963570 106.9348350 146.2313040  27.6914200 107.8331800 146.4980470
  26.7093440 106.7035430 146.7245990  14.2924860 122.6161520 146.6705660
  13.7672480 122.9969550 145.9667620  14.2169440 123.2412290 147.3915370
  15.6815330 108.2809120 145.2689350  16.2108090 107.4938920 145.1397300
  16.3143650 108.9600310 145.5024880  17.8753170 108.0184260 148.3234740
  17.2455910 107.3171570 148.4904870  17.3358310 108.7788390 148.1067900
  29.0490180 124.1749060 147.9919600  29.2242370 123.4886800 147.3480520
  28.3511750 124.6996110 147.5996270  16.8917830 124.5643900 145.5454910
  17.6236650 124.2803180 144.9978800  17.1511500 124.3257180 146.4354290
  16.0532620 120.6808630 145.5501240  15.4241500 121.1493730 146.0987070
  16.1680450 119.8357850 145.9847430  23.5082340 114.7314290 131.7002440
  23.4276390 113.8168900 131.4294150  23.0946760 115.2281360 130.9942150
  21.6400380 116.5093310 133.5811710  20.8642480 116.0293750 133.8710280
  22.2913310 115.8298960 133.4067870  15.6566210 116.8213120 134.4587470
  14.8251090 116.5661830 134.8583980  16.2647190 116.8923890 135.1945390
  25.6607810 120.9153500 132.3610840  25.1989340 120.1440740 132.6898010
  26.4733360 120.9419570 132.8663290  15.6367470 120.8553210 134.6545490
  15.9395510 119.9650950 134.4755710  16.3811060 121.4123430 134.4267740
  14.0658160 111.7815010 128.2429860  13.1774860 112.1230980 128.1409740
  14.3499350 111.5815330 127.3510690  12.0291170 114.3820660 134.1269560
  12.6007280 113.6142860 134.1273200  12.0292710 114.6809420 133.2176170
  21.8871120 123.2011510 131.9814830  21.2682560 123.6569010 131.4109270
  22.7422900 123.3562970 131.5804530  21.0809370 119.1850500 133.5881870
  21.0117650 118.2440440 133.4271000  21.8429230 119.2751910 134.1604440
  13.2716040 109.7905020 135.9138490  13.0918880 108.8930770 136.1941250
  12.8696120 110.3376890 136.5885440  22.1114540 111.9920880 133.8150800
  22.4879360 111.1192760 133.7024470  22.0134050 112.3279580 132.9241240
  16.2419550 110.3646510 129.2768240  16.3486300 111.2650240 129.5837000
  15.3311910 110.3164480 128.9862890  25.8938660 109.4871320 130.7479140
  26.7148280 108.9967890 130.7904620  25.9272740 110.0768980 131.5010980
  13.8902710 112.2865520 134.5220830  14.5712820 112.5503890 135.1408230
  13.5750760 111.4466390 134.8558840  18.0827280 113.3332880 133.6093420
  18.5905500 113.8313850 134.2498440  18.6140520 112.5568080 133.4332780
  30.1838210 111.5038070 137.3122770  29.4790380 111.8919780 136.7937880
  30.4496130 112.1988360 137.9143700  16.3663380 107.9731440 137.8756840
  16.3681820 108.4903830 137.0702740  15.5367690 107.4961620 137.8526770
  22.7534470 118.0850750 129.3746740  22.1351740 118.5500200 128.8109460
  23.2657720 118.7778230 129.7916250  17.6166230 117.6126620 136.0530340
  17.2835610 118.2395540 136.6951410  17.7932910 118.1388500 135.2732010
  26.1300140 111.4271700 133.5206680  25.4255710 111.7156590 134.1009790
  26.4912300 112.2371810 133.1606240  16.0478710 109.6841400 135.8827290
  16.3895520 110.5283450 135.5881160  15.1094520 109.8325140 135.9992630
  16.8285330 119.5807420 137.8679520  17.4459330 120.2558500 137.5863970
  15.9678450 119.9895400 137.7767020  12.1217670 118.7707280 126.7486370
  11.7445650 119.2594380 126.0171270  12.3790740 119.4432560 127.3792900
  27.7462920 121.0446830 135.7834160  27.0626440 121.7145940 135.7750830
  28.2857210 121.2427480 135.0179020  29.1987060 110.8726490 133.9115890
  28.2511970 110.9065470 134.0431320  29.5237050 111.6865440 134.2965250
  19.7306600 107.1723670 132.2071880  20.0381580 106.6170560 131.4907380
  18.8007300 107.3068130 132.0244870  25.2821660 122.8890960 134.4979340
  25.2948820 122.4853250 133.6301600  24.7296880 123.6638250 134.3940770
  26.5767080 119.6107180 129.5869510  26.4663410 118.6681510 129.7118930
  26.5735330 119.9722820 130.4732270  24.6807100 117.7920800 135.8261950
  25.0975890 117.5780910 134.9915410  25.4046920 118.0493590 136.3970570
  22.1187360 115.2372500 128.9432000  21.1916640 115.1709880 129.1720470
  22.2712180 116.1752630 128.8287240  22.1056440 111.5089500 125.9399160
  21.1660110 111.6703460 126.0251620  22.4239700 112.2275180 125.3935150
  28.6269200 116.1908020 135.9178190  27.7987830 116.2601110 135.4428320
  29.2219680 116.7762330 135.4494020  26.1484650 116.7992800 129.4467250
  25.5297070 116.4612350 128.7993550  26.1309100 116.1552560 130.1546440
  25.5911210 112.9777340 136.8633060  25.1782390 113.8031050 137.1173050
  24.8587160 112.3922380 136.6709420  17.7244000 115.7637240 131.7251730
  17.3201000 115.0514490 131.2297630  17.8107120 115.4190480 132.6139770
  18.1925700 119.4504800 133.8890940  17.8953990 118.8450270 133.2098720
  19.1425520 119.4882110 133.7780300  16.4372620 112.5380450 135.5050770
  16.9887210 112.6475790 134.7304020  16.9516130 112.9118050 136.2206000
  26.2811310 123.0236670 137.5514040  25.8041870 123.8308860 137.3586650
  25.5973100 122.3715000 137.7040250  17.2844130 119.1886490 140.5398740
  16.3872660 119.4126460 140.7872140  17.3097000 119.3121430 139.5910140
  24.3249350 116.0379610 126.4540000  24.7642630 115.2002040 126.3077820
  25.0377770 116.6709010 126.5404140  16.1115350 116.0599810 139.1156110
  15.9723120 116.9322610 139.4843510  15.2296710 115.7172620 138.9704050
  22.4344730 120.9775680 130.4221240  22.8740640 121.7200010 130.0076630
  22.3731620 121.2202250 131.3460200  17.9095700 122.0021510 141.3241260
  17.8811130 122.4064460 140.4569690  17.7460670 121.0731870 141.1612860
  27.9066490 107.2922420 124.7681040  27.5939150 107.3849250 125.6680110
  28.6678960 107.8703450 124.7178470  14.4248630 114.6582220 129.2258380
  14.3046230 115.3844310 128.6139650  14.1149520 113.8885130 128.7486290
  29.8610520 122.7848610 142.6205430  30.3370240 123.2631500 143.2994510
  30.4817680 122.7166100 141.8950930  12.0634000 117.8297360 135.0327020
  12.1414420 117.9646130 134.0882740  12.6775680 117.1213250 135.2255140
  13.3081630 119.5297550 131.4433200  12.9009710 119.6712140 130.5886800
  14.1994640 119.2457710 131.2404410  29.2643770 119.9761460 139.7805440
  29.3906830 119.7373340 138.8622620  29.3065150 119.1446000 140.2527520
  23.1260510 123.6789460 138.3500250  23.6405180 123.5897470 139.1522680
  22.2829590 124.0249160 138.6428160  25.1014910 123.9644800 127.7784250
  24.9416050 123.6747740 128.6766080  24.9361620 123.1884930 127.2429480
  17.5803290 123.7443330 129.5555870  17.4045770 122.8278870 129.3423670
  16.7259030 124.1030620 129.7953670  24.8041040 121.4732360 126.3382250
  24.1106200 121.4709650 125.6784530  25.5463900 121.0491680 125.9076420
  24.3690970 123.0995070 130.4130740  24.8247920 122.3184450 130.7269360
  24.7083490 123.8101890 130.9571920  29.1167780 112.0293920 140.7455180
  28.5012050 112.5373590 140.2170640  28.7964200 111.1292250 140.6881120
  12.1193520 118.8711530 137.5721480  12.2824560 118.4016890 136.7540850
  12.5845970 118.3635090 138.2370320  16.8912290 108.0017290 132.6082050
  16.4480440 108.7826830 132.2766570  17.4497280 108.3247180 133.3152990
  21.1782100 110.8685810 138.2117370  20.7161470 111.0768830 139.0237310
  20.7760210 110.0545160 137.9088040  26.1786610 112.0894760 139.3414030
  25.3280200 111.7900510 139.6623100  26.0188400 112.3336770 138.4297850
  23.2736320 113.5896510 141.4412820  23.5989730 112.7560260 141.1015050
  24.0616650 114.1125030 141.5891150  20.0071110 107.6227990 127.4887880
  19.3825290 107.6187860 128.2141190  19.9201230 106.7558950 127.0923850
  18.9288190 108.5464620 134.4671650  19.2260520 109.4527450 134.3863670
  19.4773750 108.0583400 133.8531220  16.6826510 113.1250860 130.3363300
  16.4567430 112.9088030 131.2409920  15.9019040 113.5579320 129.9909270
  23.9124270 113.1314230 128.9353950  23.3133160 113.8550030 128.7517570
  24.4603880 113.0691010 128.1530400  19.1225720 114.0236440 141.0023570
  19.0269320 113.0831170 140.8523970  19.9657700 114.2451510 140.6071640
  22.5189140 111.7677770 130.9657230  22.9118710 112.0849970 130.1525920
  22.8805990 110.8889650 131.0801750  14.2536260 110.4350110 139.1557350
  13.8599650 111.2825320 139.3630130  13.5654660 109.7976480 139.3465990
  20.8281310 110.5185080 142.2254090  20.1379630 110.3257280 142.8600180
  21.5713610 110.8019720 142.7578390  11.5553310 108.3578570 133.1887430
  11.2666360 108.9281430 133.9012410  12.2999070 107.8783020 133.5518660
  11.7423540 112.2998690 124.3990150  11.6598210 113.2429450 124.5405140
  11.3906600 112.1573600 123.5202500  23.1044280 114.3583520 135.0608010
  22.3725400 114.8670330 135.4098110  22.7068620 113.5413500 134.7596790
  19.5421670 111.0337720 133.4660500  19.5457730 110.5927670 132.6165040
  20.4372790 111.3555050 133.5732320  15.3924050 110.9164210 132.4254710
  15.0524100 111.3939440 133.1821760  14.6301370 110.4629330 132.0655810
  19.6041820 112.0349800 126.4567260  19.7254640 111.9936280 127.4053080
  19.2190330 112.8973950 126.3013990  23.5670190 109.8117200 134.4730950
  23.5842930 110.2625850 135.3172800  23.3185770 108.9122840 134.6864390
  18.6163320 114.3450940 125.8550560  18.0480220 113.8969190 125.2286470
  19.3252320 114.7043720 125.3215710  26.9940940 107.2249380 140.3117330
  27.3186710 106.4939040 140.8375310  27.0297450 106.9063020 139.4098320
  13.6932500 118.2462960 139.7317290  13.3087290 117.6056630 140.3300250
  14.0044690 118.9499080 140.3012020  19.8429640 115.0939500 135.2125910
  20.2099770 114.6198070 135.9587250  19.6534700 115.9681070 135.5534250
  12.7070130 109.8383190 131.3419380  12.4217050 109.4738860 132.1798000
  12.6448990 109.1063650 130.7282520  17.6329010 114.1348140 137.5310120
  17.3286080 115.0140120 137.7560480  18.5875470 114.1947930 137.5667560
  16.1610800 118.3409130 128.1276970  15.3873060 117.8006750 127.9675690
  16.8905430 117.8215740 127.7894730  26.9198780 117.3374490 133.9203360
  27.6397900 117.8329780 133.5299470  26.7180600 116.6592380 133.2757230
  22.3808720 108.7312450 128.0632750  21.5673330 108.2325620 127.9878060
  22.1870670 109.5710700 127.6469100  22.3017580 117.4083550 139.8072360
  22.2354890 116.4879220 139.5529950  21.6722720 117.5058990 140.5217000
  25.0957110 113.1032100 126.3594910  25.9836730 113.4149330 126.1846250
  25.0662200 112.2304350 125.9675490  16.2048200 118.0089510 131.7655780
  16.7226870 117.2057770 131.7112670  15.7532220 117.9468650 132.6072610
  21.0917700 119.2755790 127.0383080  21.4333400 120.0198020 126.5426400
  20.2630410 119.5886910 127.4007910  13.6892740 114.9750880 138.6781480
  13.3307680 115.6404730 139.2654820  13.3947300 114.1434430 139.0494100
  16.8905860 115.4335120 141.5621030  16.5906000 115.5792300 140.6648850
  17.6617100 114.8740410 141.4694420  22.2334310 120.2304120 139.5576160
  22.2478850 119.2985080 139.3395070  21.5259410 120.3163880 140.1965930
  27.3671380 114.4143940 125.8274770  27.2835100 114.8458160 124.9771210
  28.0865570 114.8742290 126.2601590  28.4445520 116.8711460 138.9044740
  27.7193710 117.4640240 138.7074130  28.9720980 116.8635000 138.1058110
  28.3958630 121.2686200 128.5556900  27.7534790 120.6141820 128.8300620
  28.0089290 121.6741290 127.7797570  23.9745110 118.5971630 132.4028590
  24.3268930 117.9999760 131.7429960  23.0907440 118.2715860 132.5736840
  20.0608390 119.3569320 129.8099000  20.7479520 119.9038530 130.1906590
  19.2740810 119.9010050 129.8448610  12.2000790 114.9742140 125.3016080
  13.0695640 115.2566940 125.5852000  11.7091110 115.7878010 125.1864890
  19.3635600 116.3615350 129.4224360  19.8198380 117.1720600 129.6484550
  19.0123810 116.0438490 130.2542850  21.6668210 121.8721690 136.6516660
  22.3110430 122.0781070 137.3290080  22.0297650 121.1110090 136.1987510
  15.2647380 106.7053000 129.8946880  15.1362010 106.6970900 130.8431800
  14.4409400 107.0436090 129.5437890  22.9400290 119.8754040 135.3694110
  23.5822520 119.1747200 135.4826280  23.4649640 120.6552480 135.1891000
  26.7856010 120.1602660 125.0933250  26.5593590 119.4433100 125.6857890
  26.3952210 119.9115100 124.2555000  24.7137910 120.6748940 138.5730170
  25.0494150 121.2615630 139.2508090  23.7938250 120.5441650 138.8027960
  12.5672040 124.1869520 125.8677710  12.9269680 124.7858860 125.2134980
  12.4264380 124.7329410 126.6412740  12.2641310 108.4644120 139.3553580
  11.5499830 108.6641040 139.9606190  12.6836350 107.6883690 139.7268380
  26.3672260 118.0774600 126.7547410  26.0793960 118.5387290 127.5425290
  27.1624430 117.6172370 127.0231630  12.5513900 122.4524380 140.3420110
  12.6605020 121.5119120 140.2015500  11.8994460 122.7179130 139.6933840
  20.5426490 120.7240270 141.7418230  20.2223360 120.0049510 142.2863920
  19.8684850 121.3995340 141.8154290  18.5840660 121.5700720 126.6851380
  18.5750760 122.3030410 126.0695890  17.6639020 121.3232300 126.7778340
  14.1847300 116.7915610 127.4298140  13.5775250 117.5314510 127.4393440
  14.6596650 116.8814970 126.6036340  23.7580090 110.9566430 137.1055030
  24.1260910 110.1361640 137.4334600  22.8978290 111.0168320 137.5210680
  27.1242120 109.9123370 127.9142590  26.4955280 110.0169040 127.2000820
  26.6294040 110.1320150 128.7036470  21.5700260 121.6328960 125.3476570
  21.6712240 121.4292950 124.4178550  20.6702000 121.3787240 125.5524350
  19.0926150 112.1909320 129.3300470  18.3842300 112.6595660 129.7714080
  19.3770630 111.5331330 129.9645660  20.7182080 113.6106020 137.3293000
  21.2167330 114.0851840 137.9944850  20.8605030 112.6869540 137.5363030
  23.1241580 108.9159980 130.7696260  23.0009360 108.9346110 129.8205770
  24.0726140 108.9638920 130.8894660  20.2118370 124.1515280 130.0424240
  20.4659870 124.1136670 129.1203610  19.2630850 124.0248610 130.0352490
  17.2961170 110.4994400 126.7051180  18.1451700 110.9364550 126.6391370
  16.9292440 110.8114660 127.5323240  27.9248940 109.8273980 138.1721390
  27.4222540 110.5679380 138.5115200  28.7405600 110.2157980 137.8558180
  26.2170950 115.0707160 131.6182750  25.2761090 115.0857390 131.7930440
  26.5315020 114.2843120 132.0643050  16.1952590 116.7526760 125.1786710
  16.9615860 116.6408120 125.7412140  16.2727280 116.0564730 124.5263480
  14.8899350 114.1851830 125.8619600  14.9702940 113.2379340 125.9737000
  15.7819100 114.5158710 125.9680260  28.2196530 122.2416010 133.2937010
  28.3443950 123.0647180 133.7660820  29.0862090 122.0306740 132.9461160
  15.6914060 124.3347220 132.9654140  16.4276540 123.7862680 133.2362710
  16.0754980 125.2003230 132.8260130  12.5759540 120.4020790 128.8395650
  11.6499320 120.6441930 128.8301060  13.0415970 121.2295050 128.7180400
  14.6972340 123.5193290 142.1539720  15.4985070 123.8405340 142.5675120
  14.1824160 123.1588870 142.8759630  18.8016370 123.5077530 124.7879710
  19.5944980 123.7966360 124.3361500  18.2820720 123.0769700 124.1092190
  23.5336970 119.6273160 142.1015130  22.9275130 119.6504760 141.3610880
  23.2291080 118.8956200 142.6382380  24.9637340 123.3553450 140.7124540
  25.9159090 123.2711470 140.6624780  24.8165560 124.0195160 141.3858330
  27.8546540 122.7347660 126.2116450  27.5688050 122.3212800 125.3970630
  27.6566090 123.6635370 126.0916970  12.4170150 116.0066750 141.0975770
  12.9209170 115.4274030 141.6692000  11.6777570 116.2906980 141.6352140
  19.3193770 118.7280940 124.6522060  19.2144410 118.1133290 125.3783440
  19.1517990 118.2046830 123.8685070  19.4708090 117.4137740 140.6311290
  18.7053760 117.9822740 140.5465960  19.6524050 117.1213950 139.7379520
  22.5596500 117.7900970 125.2564050  22.0106600 118.2370270 125.9006790
  23.1815760 117.2850220 125.7801720  26.6131440 119.1443070 141.1886310
  27.3540910 119.4818830 140.6853770  25.8504120 119.3135130 140.6356080
  14.4493230 114.1496340 141.9925840  14.4898570 113.8510210 142.9011070
  15.3038730 114.5503950 141.8333360  18.2271620 116.7491890 127.1529350
  18.6488040 116.5831760 127.9960740  18.3522460 115.9392120 126.6584490
  16.3899040 112.7288440 139.9600330  15.8595500 112.2379390 139.3323670
  17.0587110 113.1572640 139.4258260  20.7399260 115.7729500 124.4006450
  21.2604920 115.0578520 124.0347600  21.3867660 116.4115370 124.7006960
  25.2877100 117.1957900 139.7241520  25.7018120 117.3502980 140.5731940
  24.3528100 117.3213120 139.8867300  25.7599270 114.5354060 141.7280670
  26.3420040 113.7806380 141.6401150  25.9361040 115.0661500 140.9512150
  16.8771340 109.6950810 140.0397620  16.7828210 109.0771560 139.3148490
  16.2968730 110.4217100 139.8127530  19.6432780 108.2524050 137.0725010
  19.1950080 108.2748310 136.2270560  19.0097980 107.8543070 137.6695310
  20.0492330 117.1478380 137.6937450  20.4680440 117.9911110 137.5213690
  19.1300960 117.2850420 137.4644230  22.3856230 114.8794560 139.0775290
  22.5052440 114.2835700 139.8170130  23.2450230 114.9164250 138.6576590
  24.7244130 115.4331750 137.6537800  24.1979350 115.9574370 137.0502940
  25.0675470 116.0659140 138.2847530  17.1230520 112.8225120 124.0987510
  16.9219580 111.9592480 124.4600850  16.9522570 112.7358480 123.1609110
  17.8999750 123.4531390 138.8095180  17.3620840 124.1777450 138.4903880
  18.1533710 122.9761730 138.0192520  19.1525000 111.4215910 140.3351110
  19.7424690 111.1131760 141.0228930  18.3345240 110.9495660 140.4911010
  23.9718430 111.0381720 140.5684130  23.2833950 110.3763260 140.5034120
  24.6924450 110.5919990 141.0132590  24.6018830 107.6333350 126.6274390
  24.8821120 106.7901250 126.9833810  23.8284560 107.8656460 127.1413140
  15.9213320 109.9225740 124.0865390  16.2239220 109.9293170 123.1784540
  16.6607910 109.5723600 124.5833050  20.7561960 124.6882600 139.0681830
  20.6820660 125.5917740 139.3754200  19.8540800 124.3694500 139.0403900
  19.1398250 108.8660360 125.0721590  18.7920250 108.1884350 124.4924040
  19.3411020 108.4049870 125.8864980  21.3047290 123.8541110 126.6908190
  22.1998080 124.1926080 126.7126950  21.3364920 123.1320520 126.0632470
  14.9443450 119.2268160 124.9195190  15.3818320 119.7697830 125.5752770
  15.4291180 118.4015110 124.9291530  12.1589250 122.0157190 132.3715450
  12.4892260 121.1478250 132.1394090  12.5880250 122.2215710 133.2020410
  16.7551170 120.3466200 130.0317420  16.4546710 120.2231170 130.9321330
  16.6488660 119.4874790 129.6233150  12.6479460 122.8827780 135.1097080
  12.2110450 123.0628580 135.9421230  13.2157140 123.6402400 134.9678800
  28.2841640 122.3844780 139.3974390  27.6843630 122.4437340 138.6538310
  28.4135540 121.4449760 139.5271240  29.5243090 120.1262600 124.7344100
  28.6936050 120.1939250 125.2051330  29.7014920 121.0166720 124.4310960
  28.9799550 116.8710080 127.2378300  29.7418460 117.4406730 127.3437990
  28.9953920 116.3037280 128.0086610  12.4803890 115.3948010 131.4685960
  11.8252730 115.1259650 130.8245660  13.3181840 115.2852490 131.0187940
  29.9859520 117.7260180 132.0820230  30.3568350 116.9427500 131.6756200
  30.6261450 118.4149280 131.9037530  26.9693280 119.1096760 137.4950550
  26.1553120 119.5393920 137.7576340  27.3767480 119.7215170 136.8819600
  29.0318720 117.1644450 124.3950820  29.3067560 118.0723330 124.2670040
  28.8429460 117.1006980 125.3312810  25.4294330 110.1889300 125.6904450
  25.8479210 110.0020280 124.8501110  25.1230390 109.3368350 126.0007380
  28.9284060 115.1013440 129.3880250  28.5527660 114.3341370 128.9561540
  28.1987180 115.4836140 129.8755180  13.5179820 115.7800580 136.0089300
  13.8852860 115.6927980 136.8885320  12.9490640 115.0167130 135.9096160
  28.3183680 114.2484960 139.0219770  28.0869770 114.0197710 138.1217720
  28.5788230 115.1684510 138.9764660  13.0695820 112.6909670 139.9147720
  12.1751870 112.6576430 140.2541430  13.6093370 112.8896460 140.6798970
  26.7571750 109.4741390 141.7999470  27.6341930 109.4824790 142.1833470
  26.7692590 108.7372230 141.1891820  11.6941970 112.6046940 127.4111290
  10.7906050 112.8677140 127.2362950  12.1782590 112.8758110 126.6311250
  28.2035020 113.3270930 132.6887490  28.7272500 112.8333580 132.0577660
  28.7894440 113.4621290 133.4335060  28.3824740 113.4110800 136.2107040
  27.4327450 113.3774340 136.3252030  28.5637750 114.3210910 135.9756810
  14.2369180 111.6612480 125.3205670  14.9460880 111.2395700 124.8352950
  13.5209120 111.7287710 124.6889020  13.8843340 107.7151810 124.3608320
  14.6071470 108.2560750 124.6789540  14.1567860 107.4415230 123.4849860
  27.6934990 112.5844280 128.6279900  28.1894110 112.3515150 129.4128780
  27.4951060 111.7456120 128.2117540  13.5735530 106.9658000 134.2630940
  14.2211720 106.4155380 133.8226100  13.9937370 107.2201150 135.0846750
  29.1222150 111.2205230 131.1617580  29.0121430 111.0661270 132.0999850
  29.8829740 110.6926170 130.9192990  27.4687870 107.1599360 137.6200580
  28.1060090 107.7733500 137.9859770  27.6162760 107.1960020 136.6749810
  30.0112420 109.0513150 124.4023720  30.9361730 108.9194330 124.1942010
  29.9888210 109.1305970 125.3560170  30.0850910 109.8223810 127.0280430
  29.2902410 109.7568930 127.5573340  30.2894190 110.7574450 127.0165780
  27.0269330 123.8615360 131.0218820  27.6228400 123.5399930 130.3453240
  27.2847480 123.3887180 131.8132090  13.3267530 107.1213670 137.0056260
  12.9782350 107.5777490 137.7714440  12.9955230 106.2270800 137.0878690
  14.9331900 120.2933270 141.1709450  14.8901530 119.9226180 142.0523910
  15.0642910 121.2310840 141.3111270  18.6337930 121.8492860 136.7719170
  18.3929290 122.1167420 135.8849690  19.5740570 122.0198590 136.8270030
  20.8392350 108.3125550 140.5275680  20.7781240 108.9047380 141.2771090
  21.7792730 108.2051510 140.3825940  23.4766910 107.9695610 140.1667970
  24.0907320 108.2874900 139.5049050  24.0216470 107.4844200 140.7863830
  29.8942090 123.8687240 137.5729810  29.4000370 124.2656110 136.8556940
  29.2855380 123.2436450 137.9667090  13.9988170 106.6489870 140.2807030
  14.5471160 106.4677920 139.5173140  14.0643480 105.8583980 140.8163340
  14.7719930 123.2395520 138.2907230  14.1780250 123.1080220 139.0297270
  14.7643770 122.4033660 137.8249330  24.2174950 106.5327750 136.4937260
  23.3434790 106.8662860 136.2910190  24.1085700 106.0600930 137.3189130
  25.1246930 108.7398620 137.8778980  24.7960290 107.9250380 137.4980710
  26.0729230 108.6968430 137.7544670  27.5781540 124.5110660 134.8516550
  27.1184510 125.2626470 134.4774570  26.9494000 123.7917130 134.7931350
  14.4032160 120.6053900 137.2415270  13.6766220 119.9859190 137.1741220
  14.4641310 120.9994510 136.3713350  18.0077260 122.8198900 134.0264680
  18.5242280 122.2086260 133.5012940  18.6574640 123.3227680 134.5175690
  20.7472760 123.7107390 134.8533660  21.0350570 123.4561690 133.9766670
  21.2595980 123.1584750 135.4439230  21.9649770 107.4497590 135.4330170
  21.1821560 107.9243090 135.7126930  21.6712700 106.5452420 135.3243350
  26.5170840 108.1520690 133.4779260  26.9578930 108.0965790 132.6300860
  26.2478430 109.0678700 133.5489440  28.3809410 107.7835930 131.4888080
  28.3197810 106.8397150 131.3419100  29.1601440 107.8916020 132.0341540
  12.6862160 123.9228290 130.4512030  12.5184200 123.2898970 131.1493920
  11.8196670 124.1287690 130.1006220  13.3090180 107.7545070 127.9543890
  14.0669540 107.8673950 127.3807920  12.8467350 108.5914270 127.9087320
  19.8503990 109.8684340 130.9446200  19.0378500 109.4941230 130.6042080
  20.3545630 109.1129420 131.2467390  24.3528970 106.5326790 132.1829270
  24.9558340 107.1047000 132.6577790  23.6121960 107.0966230 131.9603170
  27.4963570 106.9348350 127.4569550  27.6914200 107.8331800 127.7236980
  26.7093440 106.7035430 127.9502500  14.2924860 122.6161520 127.8962170
  13.7672480 122.9969550 127.1924130  14.2169440 123.2412290 128.6171880
  15.6815330 108.2809120 126.4945860  16.2108090 107.4938920 126.3653810
  16.3143650 108.9600310 126.7281390  17.8753170 108.0184260 129.5491250
  17.2455910 107.3171570 129.7161380  17.3358310 108.7788390 129.3324410
  20.8145120 124.6323490 142.2201860  21.7412430 124.3967760 142.2637820
  20.7995550 125.4595490 141.7387890  29.0490180 124.1749060 129.2176110
  29.2242370 123.4886800 128.5737030  28.3511750 124.6996110 128.8252780
  18.0008730 107.2968240 141.9843740  17.7193000 107.8001840 141.2204560
  18.3828430 106.4989990 141.6185870  16.8917830 124.5643900 126.7711420
  17.6236650 124.2803180 126.2235310  17.1511500 124.3257180 127.6610800
  16.0532620 120.6808630 126.7757750  15.4241500 121.1493730 127.3243580
  16.1680450 119.8357850 127.2103940  24.6024190 106.7121820 142.5624210
  24.4889640 107.0316430 143.4575730  25.4193930 107.1134330 142.2661490
  27.3822680 123.8593350 142.0442900  28.1748000 123.3642580 141.8368860
  27.6755830 124.5383490 142.6518510  23.5082340 114.7314290 112.9258950
  23.4276390 113.8168900 112.6550660  23.0946760 115.2281360 112.2198660
  21.6400380 116.5093310 114.8068220  20.8642480 116.0293750 115.0966790
  22.2913310 115.8298960 114.6324380  15.6566210 116.8213120 115.6843980
  14.8251090 116.5661830 116.0840490  16.2647190 116.8923890 116.4201900
  25.6607810 120.9153500 113.5867350  25.1989340 120.1440740 113.9154520
  26.4733360 120.9419570 114.0919800  15.6367470 120.8553210 115.8802000
  15.9395510 119.9650950 115.7012220  16.3811060 121.4123430 115.6524250
  14.0658160 111.7815010 109.4686370  13.1774860 112.1230980 109.3666250
  14.3499350 111.5815330 108.5767200  12.0291170 114.3820660 115.3526070
  12.6007280 113.6142860 115.3529710  12.0292710 114.6809420 114.4432680
  21.8871120 123.2011510 113.2071340  21.2682560 123.6569010 112.6365780
  22.7422900 123.3562970 112.8061040  21.0809370 119.1850500 114.8138380
  21.0117650 118.2440440 114.6527510  21.8429230 119.2751910 115.3860950
  13.2716040 109.7905020 117.1395000  13.0918880 108.8930770 117.4197760
  12.8696120 110.3376890 117.8141950  22.1114540 111.9920880 115.0407310
  22.4879360 111.1192760 114.9280980  22.0134050 112.3279580 114.1497750
  16.2419550 110.3646510 110.5024750  16.3486300 111.2650240 110.8093510
  15.3311910 110.3164480 110.2119400  25.8938660 109.4871320 111.9735650
  26.7148280 108.9967890 112.0161130  25.9272740 110.0768980 112.7267490
  13.8902710 112.2865520 115.7477340  14.5712820 112.5503890 116.3664740
  13.5750760 111.4466390 116.0815350  18.0827280 113.3332880 114.8349930
  18.5905500 113.8313850 115.4754950  18.6140520 112.5568080 114.6589290
  30.1838210 111.5038070 118.5379280  29.4790380 111.8919780 118.0194390
  30.4496130 112.1988360 119.1400210  16.3663380 107.9731440 119.1013350
  16.3681820 108.4903830 118.2959250  15.5367690 107.4961620 119.0783280
  22.7534470 118.0850750 110.6003250  22.1351740 118.5500200 110.0365970
  23.2657720 118.7778230 111.0172760  17.6166230 117.6126620 117.2786850
  17.2835610 118.2395540 117.9207920  17.7932910 118.1388500 116.4988520
  26.1300140 111.4271700 114.7463190  25.4255710 111.7156590 115.3266300
  26.4912300 112.2371810 114.3862750  16.0478710 109.6841400 117.1083800
  16.3895520 110.5283450 116.8137670  15.1094520 109.8325140 117.2249140
  16.8285330 119.5807420 119.0936030  17.4459330 120.2558500 118.8120480
  15.9678450 119.9895400 119.0023530  12.1217670 118.7707280 107.9742880
  11.7445650 119.2594380 107.2427780  12.3790740 119.4432560 108.6049410
  27.7462920 121.0446830 117.0090670  27.0626440 121.7145940 117.0007340
  28.2857210 121.2427480 116.2435530  29.1987060 110.8726490 115.1372400
  28.2511970 110.9065470 115.2687830  29.5237050 111.6865440 115.5221760
  19.7306600 107.1723670 113.4328390  20.0381580 106.6170560 112.7163890
  18.8007300 107.3068130 113.2501380  25.2821660 122.8890960 115.7235850
  25.2948820 122.4853250 114.8558110  24.7296880 123.6638250 115.6197280
  26.5767080 119.6107180 110.8126020  26.4663410 118.6681510 110.9375440
  26.5735330 119.9722820 111.6988780  24.6807100 117.7920800 117.0518460
  25.0975890 117.5780910 116.2171920  25.4046920 118.0493590 117.6227080
  22.1187360 115.2372500 110.1688510  21.1916640 115.1709880 110.3976980
  22.2712180 116.1752630 110.0543750  22.1056440 111.5089500 107.1655670
  21.1660110 111.6703460 107.2508130  22.4239700 112.2275180 106.6191660
  28.6269200 116.1908020 117.1434700  27.7987830 116.2601110 116.6684830
  29.2219680 116.7762330 116.6750530  26.1484650 116.7992800 110.6723760
  25.5297070 116.4612350 110.0250060  26.1309100 116.1552560 111.3802950
  25.5911210 112.9777340 118.0889570  25.1782390 113.8031050 118.3429560
  24.8587160 112.3922380 117.8965930  17.7244000 115.7637240 112.9508240
  17.3201000 115.0514490 112.4554140  17.8107120 115.4190480 113.8396280
  18.1925700 119.4504800 115.1147450  17.8953990 118.8450270 114.4355230
  19.1425520 119.4882110 115.0036810  16.4372620 112.5380450 116.7307280
  16.9887210 112.6475790 115.9560530  16.9516130 112.9118050 117.4462510
  26.2811310 123.0236670 118.7770550  25.8041870 123.8308860 118.5843160
  25.5973100 122.3715000 118.9296760  17.2844130 119.1886490 121.7655250
  16.3872660 119.4126460 122.0128650  17.3097000 119.3121430 120.8166650
  24.3249350 116.0379610 107.6796510  24.7642630 115.2002040 107.5334330
  25.0377770 116.6709010 107.7660650  16.1115350 116.0599810 120.3412620
  15.9723120 116.9322610 120.7100020  15.2296710 115.7172620 120.1960560
  22.4344730 120.9775680 111.6477750  22.8740640 121.7200010 111.2333140
  22.3731620 121.2202250 112.5716710  17.9095700 122.0021510 122.5497770
  17.8811130 122.4064460 121.6826200  17.7460670 121.0731870 122.3869370
  14.4248630 114.6582220 110.4514890  14.3046230 115.3844310 109.8396160
  14.1149520 113.8885130 109.9742800  29.8610520 122.7848610 123.8461940
  30.3370240 123.2631500 124.5251020  30.4817680 122.7166100 123.1207440
  12.0634000 117.8297360 116.2583530  12.1414420 117.9646130 115.3139250
  12.6775680 117.1213250 116.4511650  13.3081630 119.5297550 112.6689710
  12.9009710 119.6712140 111.8143310  14.1994640 119.2457710 112.4660920
  29.2643770 119.9761460 121.0061950  29.3906830 119.7373340 120.0879130
  29.3065150 119.1446000 121.4784030  23.1260510 123.6789460 119.5756760
  23.6405180 123.5897470 120.3779190  22.2829590 124.0249160 119.8684670
  25.1014910 123.9644800 109.0040760  24.9416050 123.6747740 109.9022590
  24.9361620 123.1884930 108.4685990  17.5803290 123.7443330 110.7812380
  17.4045770 122.8278870 110.5680180  16.7259030 124.1030620 111.0210180
  24.8041040 121.4732360 107.5638760  24.1106200 121.4709650 106.9041040
  25.5463900 121.0491680 107.1332930  24.3690970 123.0995070 111.6387250
  24.8247920 122.3184450 111.9525870  24.7083490 123.8101890 112.1828430
  29.1167780 112.0293920 121.9711690  28.5012050 112.5373590 121.4427150
  28.7964200 111.1292250 121.9137630  12.1193520 118.8711530 118.7977990
  12.2824560 118.4016890 117.9797360  12.5845970 118.3635090 119.4626830
  16.8912290 108.0017290 113.8338560  16.4480440 108.7826830 113.5023080
  17.4497280 108.3247180 114.5409500  21.1782100 110.8685810 119.4373880
  20.7161470 111.0768830 120.2493820  20.7760210 110.0545160 119.1344550
  26.1786610 112.0894760 120.5670540  25.3280200 111.7900510 120.8879610
  26.0188400 112.3336770 119.6554360  23.2736320 113.5896510 122.6669330
  23.5989730 112.7560260 122.3271560  24.0616650 114.1125030 122.8147660
  20.0071110 107.6227990 108.7144390  19.3825290 107.6187860 109.4397700
  19.9201230 106.7558950 108.3180360  18.9288190 108.5464620 115.6928160
  19.2260520 109.4527450 115.6120180  19.4773750 108.0583400 115.0787730
  16.6826510 113.1250860 111.5619810  16.4567430 112.9088030 112.4666430
  15.9019040 113.5579320 111.2165780  23.9124270 113.1314230 110.1610460
  23.3133160 113.8550030 109.9774080  24.4603880 113.0691010 109.3786910
  19.1225720 114.0236440 122.2280080  19.0269320 113.0831170 122.0780480
  19.9657700 114.2451510 121.8328150  22.5189140 111.7677770 112.1913740
  22.9118710 112.0849970 111.3782430  22.8805990 110.8889650 112.3058260
  14.2536260 110.4350110 120.3813860  13.8599650 111.2825320 120.5886640
  13.5654660 109.7976480 120.5722500  20.8281310 110.5185080 123.4510600
  20.1379630 110.3257280 124.0856690  21.5713610 110.8019720 123.9834900
  11.5553310 108.3578570 114.4143940  11.2666360 108.9281430 115.1268920
  12.2999070 107.8783020 114.7775170  11.7423540 112.2998690 105.6246660
  11.6598210 113.2429450 105.7661650  11.3906600 112.1573600 104.7459010
  23.1044280 114.3583520 116.2864520  22.3725400 114.8670330 116.6354620
  22.7068620 113.5413500 115.9853300  19.5421670 111.0337720 114.6917010
  19.5457730 110.5927670 113.8421550  20.4372790 111.3555050 114.7988830
  15.3924050 110.9164210 113.6511220  15.0524100 111.3939440 114.4078270
  14.6301370 110.4629330 113.2912320  19.6041820 112.0349800 107.6823770
  19.7254640 111.9936280 108.6309590  19.2190330 112.8973950 107.5270500
  23.5670190 109.8117200 115.6987460  23.5842930 110.2625850 116.5429310
  23.3185770 108.9122840 115.9120900  18.6163320 114.3450940 107.0807070
  18.0480220 113.8969190 106.4542980  19.3252320 114.7043720 106.5472220
  26.9940940 107.2249380 121.5373840  27.3186710 106.4939040 122.0631820
  27.0297450 106.9063020 120.6354830  13.6932500 118.2462960 120.9573800
  13.3087290 117.6056630 121.5556760  14.0044690 118.9499080 121.5268530
  19.8429640 115.0939500 116.4382420  20.2099770 114.6198070 117.1843760
  19.6534700 115.9681070 116.7790760  12.7070130 109.8383190 112.5675890
  12.4217050 109.4738860 113.4054510  12.6448990 109.1063650 111.9539030
  17.6329010 114.1348140 118.7566630  17.3286080 115.0140120 118.9816990
  18.5875470 114.1947930 118.7924070  16.1610800 118.3409130 109.3533480
  15.3873060 117.8006750 109.1932200  16.8905430 117.8215740 109.0151240
  26.9198780 117.3374490 115.1459870  27.6397900 117.8329780 114.7555980
  26.7180600 116.6592380 114.5013740  22.3808720 108.7312450 109.2889260
  21.5673330 108.2325620 109.2134570  22.1870670 109.5710700 108.8725610
  22.3017580 117.4083550 121.0328870  22.2354890 116.4879220 120.7786460
  21.6722720 117.5058990 121.7473510  25.0957110 113.1032100 107.5851420
  25.9836730 113.4149330 107.4102760  25.0662200 112.2304350 107.1932000
  16.2048200 118.0089510 112.9912290  16.7226870 117.2057770 112.9369180
  15.7532220 117.9468650 113.8329120  21.0917700 119.2755790 108.2639590
  21.4333400 120.0198020 107.7682910  20.2630410 119.5886910 108.6264420
  13.6892740 114.9750880 119.9037990  13.3307680 115.6404730 120.4911330
  13.3947300 114.1434430 120.2750610  16.8905860 115.4335120 122.7877540
  16.5906000 115.5792300 121.8905360  17.6617100 114.8740410 122.6950930
  22.2334310 120.2304120 120.7832670  22.2478850 119.2985080 120.5651580
  21.5259410 120.3163880 121.4222440  27.3671380 114.4143940 107.0531280
  27.2835100 114.8458160 106.2027720  28.0865570 114.8742290 107.4858100
  28.4445520 116.8711460 120.1301250  27.7193710 117.4640240 119.9330640
  28.9720980 116.8635000 119.3314620  28.3958630 121.2686200 109.7813410
  27.7534790 120.6141820 110.0557130  28.0089290 121.6741290 109.0054080
  23.9745110 118.5971630 113.6285100  24.3268930 117.9999760 112.9686470
  23.0907440 118.2715860 113.7993350  20.0608390 119.3569320 111.0355510
  20.7479520 119.9038530 111.4163100  19.2740810 119.9010050 111.0705120
  12.2000790 114.9742140 106.5272590  13.0695640 115.2566940 106.8108510
  11.7091110 115.7878010 106.4121400  19.3635600 116.3615350 110.6480870
  19.8198380 117.1720600 110.8741060  19.0123810 116.0438490 111.4799360
  21.6668210 121.8721690 117.8773170  22.3110430 122.0781070 118.5546590
  22.0297650 121.1110090 117.4244020  15.2647380 106.7053000 111.1203390
  15.1362010 106.6970900 112.0688310  14.4409400 107.0436090 110.7694400
  22.9400290 119.8754040 116.5950620  23.5822520 119.1747200 116.7082790
  23.4649640 120.6552480 116.4147510  26.7856010 120.1602660 106.3189760
  26.5593590 119.4433100 106.9114400  26.3952210 119.9115100 105.4811510
  24.7137910 120.6748940 119.7986680  25.0494150 121.2615630 120.4764600
  23.7938250 120.5441650 120.0284470  12.5672040 124.1869520 107.0934220
  12.9269680 124.7858860 106.4391490  12.4264380 124.7329410 107.8669250
  12.2641310 108.4644120 120.5810090  11.5499830 108.6641040 121.1862700
  12.6836350 107.6883690 120.9524890  26.3672260 118.0774600 107.9803920
  26.0793960 118.5387290 108.7681800  27.1624430 117.6172370 108.2488140
  12.5513900 122.4524380 121.5676620  12.6605020 121.5119120 121.4272010
  11.8994460 122.7179130 120.9190350  20.5426490 120.7240270 122.9674740
  20.2223360 120.0049510 123.5120430  19.8684850 121.3995340 123.0410800
  18.5840660 121.5700720 107.9107890  18.5750760 122.3030410 107.2952400
  17.6639020 121.3232300 108.0034850  14.1847300 116.7915610 108.6554650
  13.5775250 117.5314510 108.6649950  14.6596650 116.8814970 107.8292850
  23.7580090 110.9566430 118.3311540  24.1260910 110.1361640 118.6591110
  22.8978290 111.0168320 118.7467190  27.1242120 109.9123370 109.1399100
  26.4955280 110.0169040 108.4257330  26.6294040 110.1320150 109.9292980
  21.5700260 121.6328960 106.5733080  21.6712240 121.4292950 105.6435060
  20.6702000 121.3787240 106.7780860  19.0926150 112.1909320 110.5556980
  18.3842300 112.6595660 110.9970590  19.3770630 111.5331330 111.1902170
  20.7182080 113.6106020 118.5549510  21.2167330 114.0851840 119.2201360
  20.8605030 112.6869540 118.7619540  23.1241580 108.9159980 111.9952770
  23.0009360 108.9346110 111.0462280  24.0726140 108.9638920 112.1151170
  20.2118370 124.1515280 111.2680750  20.4659870 124.1136670 110.3460120
  19.2630850 124.0248610 111.2609000  17.2961170 110.4994400 107.9307690
  18.1451700 110.9364550 107.8647880  16.9292440 110.8114660 108.7579750
  27.9248940 109.8273980 119.3977900  27.4222540 110.5679380 119.7371710
  28.7405600 110.2157980 119.0814690  26.2170950 115.0707160 112.8439260
  25.2761090 115.0857390 113.0186950  26.5315020 114.2843120 113.2899560
  16.1952590 116.7526760 106.4043220  16.9615860 116.6408120 106.9668650
  16.2727280 116.0564730 105.7519990  14.8899350 114.1851830 107.0876110
  14.9702940 113.2379340 107.1993510  15.7819100 114.5158710 107.1936770
  28.2196530 122.2416010 114.5193520  28.3443950 123.0647180 114.9917330
  29.0862090 122.0306740 114.1717670  15.6914060 124.3347220 114.1910650
  16.4276540 123.7862680 114.4619220  16.0754980 125.2003230 114.0516640
  12.5759540 120.4020790 110.0652160  11.6499320 120.6441930 110.0557570
  13.0415970 121.2295050 109.9436910  14.6972340 123.5193290 123.3796230
  15.4985070 123.8405340 123.7931630  14.1824160 123.1588870 124.1016140
  18.8016370 123.5077530 106.0136220  19.5944980 123.7966360 105.5618010
  18.2820720 123.0769700 105.3348700  23.5336970 119.6273160 123.3271640
  22.9275130 119.6504760 122.5867390  23.2291080 118.8956200 123.8638890
  24.9637340 123.3553450 121.9381050  25.9159090 123.2711470 121.8881290
  24.8165560 124.0195160 122.6114840  27.8546540 122.7347660 107.4372960
  27.5688050 122.3212800 106.6227140  27.6566090 123.6635370 107.3173480
  12.4170150 116.0066750 122.3232280  12.9209170 115.4274030 122.8948510
  11.6777570 116.2906980 122.8608650  19.3193770 118.7280940 105.8778570
  19.2144410 118.1133290 106.6039950  19.1517990 118.2046830 105.0941580
  19.4708090 117.4137740 121.8567800  18.7053760 117.9822740 121.7722470
  19.6524050 117.1213950 120.9636030  22.5596500 117.7900970 106.4820560
  22.0106600 118.2370270 107.1263300  23.1815760 117.2850220 107.0058230
  26.6131440 119.1443070 122.4142820  27.3540910 119.4818830 121.9110280
  25.8504120 119.3135130 121.8612590  14.4493230 114.1496340 123.2182350
  14.4898570 113.8510210 124.1267580  15.3038730 114.5503950 123.0589870
  18.2271620 116.7491890 108.3785860  18.6488040 116.5831760 109.2217250
  18.3522460 115.9392120 107.8841000  16.3899040 112.7288440 121.1856840
  15.8595500 112.2379390 120.5580180  17.0587110 113.1572640 120.6514770
  20.7399260 115.7729500 105.6262960  21.2604920 115.0578520 105.2604110
  21.3867660 116.4115370 105.9263470  25.2877100 117.1957900 120.9498030
  25.7018120 117.3502980 121.7988450  24.3528100 117.3213120 121.1123810
  25.7599270 114.5354060 122.9537180  26.3420040 113.7806380 122.8657660
  25.9361040 115.0661500 122.1768660  16.8771340 109.6950810 121.2654130
  16.7828210 109.0771560 120.5405000  16.2968730 110.4217100 121.0384040
  19.6432780 108.2524050 118.2981520  19.1950080 108.2748310 117.4527070
  19.0097980 107.8543070 118.8951820  20.0492330 117.1478380 118.9193960
  20.4680440 117.9911110 118.7470200  19.1300960 117.2850420 118.6900740
  22.3856230 114.8794560 120.3031800  22.5052440 114.2835700 121.0426640
  23.2450230 114.9164250 119.8833100  24.7244130 115.4331750 118.8794310
  24.1979350 115.9574370 118.2759450  25.0675470 116.0659140 119.5104040
  17.1230520 112.8225120 105.3244020  16.9219580 111.9592480 105.6857360
  16.9522570 112.7358480 104.3865620  17.8999750 123.4531390 120.0351690
  17.3620840 124.1777450 119.7160390  18.1533710 122.9761730 119.2449030
  19.1525000 111.4215910 121.5607620  19.7424690 111.1131760 122.2485440
  18.3345240 110.9495660 121.7167520  23.9718430 111.0381720 121.7940640
  23.2833950 110.3763260 121.7290630  24.6924450 110.5919990 122.2389100
  24.6018830 107.6333350 107.8530900  24.8821120 106.7901250 108.2090320
  23.8284560 107.8656460 108.3669650  15.9213320 109.9225740 105.3121900
  16.2239220 109.9293170 104.4041050  16.6607910 109.5723600 105.8089560
  20.7561960 124.6882600 120.2938340  20.6820660 125.5917740 120.6010710
  19.8540800 124.3694500 120.2660410  19.1398250 108.8660360 106.2978100
  18.7920250 108.1884350 105.7180550  19.3411020 108.4049870 107.1121490
  21.3047290 123.8541110 107.9164700  22.1998080 124.1926080 107.9383460
  21.3364920 123.1320520 107.2888980  14.9443450 119.2268160 106.1451700
  15.3818320 119.7697830 106.8009280  15.4291180 118.4015110 106.1548040
  12.1589250 122.0157190 113.5971960  12.4892260 121.1478250 113.3650600
  12.5880250 122.2215710 114.4276920  16.7551170 120.3466200 111.2573930
  16.4546710 120.2231170 112.1577840  16.6488660 119.4874790 110.8489660
  12.6479460 122.8827780 116.3353590  12.2110450 123.0628580 117.1677740
  13.2157140 123.6402400 116.1935310  28.2841640 122.3844780 120.6230900
  27.6843630 122.4437340 119.8794820  28.4135540 121.4449760 120.7527750
  29.5243090 120.1262600 105.9600610  28.6936050 120.1939250 106.4307840
  29.7014920 121.0166720 105.6567470  28.9799550 116.8710080 108.4634810
  29.7418460 117.4406730 108.5694500  28.9953920 116.3037280 109.2343120
  12.4803890 115.3948010 112.6942470  11.8252730 115.1259650 112.0502170
  13.3181840 115.2852490 112.2444450  29.9859520 117.7260180 113.3076740
  30.3568350 116.9427500 112.9012710  30.6261450 118.4149280 113.1294040
  26.9693280 119.1096760 118.7207060  26.1553120 119.5393920 118.9832850
  27.3767480 119.7215170 118.1076110  29.0318720 117.1644450 105.6207330
  29.3067560 118.0723330 105.4926550  28.8429460 117.1006980 106.5569320
  25.4294330 110.1889300 106.9160960  25.8479210 110.0020280 106.0757620
  25.1230390 109.3368350 107.2263890  28.9284060 115.1013440 110.6136760
  28.5527660 114.3341370 110.1818050  28.1987180 115.4836140 111.1011690
  13.5179820 115.7800580 117.2345810  13.8852860 115.6927980 118.1141830
  12.9490640 115.0167130 117.1352670  28.3183680 114.2484960 120.2476280
  28.0869770 114.0197710 119.3474230  28.5788230 115.1684510 120.2021170
  13.0695820 112.6909670 121.1404230  12.1751870 112.6576430 121.4797940
  13.6093370 112.8896460 121.9055480  26.7571750 109.4741390 123.0255980
  27.6341930 109.4824790 123.4089980  26.7692590 108.7372230 122.4148330
  11.6941970 112.6046940 108.6367800  10.7906050 112.8677140 108.4619460
  12.1782590 112.8758110 107.8567760  28.2035020 113.3270930 113.9144000
  28.7272500 112.8333580 113.2834170  28.7894440 113.4621290 114.6591570
  28.3824740 113.4110800 117.4363550  27.4327450 113.3774340 117.5508540
  28.5637750 114.3210910 117.2013320  14.2369180 111.6612480 106.5462180
  14.9460880 111.2395700 106.0609460  13.5209120 111.7287710 105.9145530
  13.8843340 107.7151810 105.5864830  14.6071470 108.2560750 105.9046050
  14.1567860 107.4415230 104.7106370  27.6934990 112.5844280 109.8536410
  28.1894110 112.3515150 110.6385290  27.4951060 111.7456120 109.4374050
  13.5735530 106.9658000 115.4887450  14.2211720 106.4155380 115.0482610
  13.9937370 107.2201150 116.3103260  29.1222150 111.2205230 112.3874090
  29.0121430 111.0661270 113.3256360  29.8829740 110.6926170 112.1449500
  27.4687870 107.1599360 118.8457090  28.1060090 107.7733500 119.2116280
  27.6162760 107.1960020 117.9006320  30.0850910 109.8223810 108.2536940
  29.2902410 109.7568930 108.7829850  30.2894190 110.7574450 108.2422290
  27.0269330 123.8615360 112.2475330  27.6228400 123.5399930 111.5709750
  27.2847480 123.3887180 113.0388600  13.3267530 107.1213670 118.2312770
  12.9782350 107.5777490 118.9970950  12.9955230 106.2270800 118.3135200
  14.9331900 120.2933270 122.3965960  14.8901530 119.9226180 123.2780420
  15.0642910 121.2310840 122.5367780  18.6337930 121.8492860 117.9975680
  18.3929290 122.1167420 117.1106200  19.5740570 122.0198590 118.0526540
  20.8392350 108.3125550 121.7532190  20.7781240 108.9047380 122.5027600
  21.7792730 108.2051510 121.6082450  23.4766910 107.9695610 121.3924480
  24.0907320 108.2874900 120.7305560  24.0216470 107.4844200 122.0120340
  29.8942090 123.8687240 118.7986320  29.4000370 124.2656110 118.0813450
  29.2855380 123.2436450 119.1923600  13.9988170 106.6489870 121.5063540
  14.5471160 106.4677920 120.7429650  14.0643480 105.8583980 122.0419850
  14.7719930 123.2395520 119.5163740  14.1780250 123.1080220 120.2553780
  14.7643770 122.4033660 119.0505840  24.2174950 106.5327750 117.7193770
  23.3434790 106.8662860 117.5166700  24.1085700 106.0600930 118.5445640
  25.1246930 108.7398620 119.1035490  24.7960290 107.9250380 118.7237220
  26.0729230 108.6968430 118.9801180  27.5781540 124.5110660 116.0773060
  27.1184510 125.2626470 115.7031080  26.9494000 123.7917130 116.0187860
  14.4032160 120.6053900 118.4671780  13.6766220 119.9859190 118.3997730
  14.4641310 120.9994510 117.5969860  18.0077260 122.8198900 115.2521190
  18.5242280 122.2086260 114.7269450  18.6574640 123.3227680 115.7432200
  20.7472760 123.7107390 116.0790170  21.0350570 123.4561690 115.2023180
  21.2595980 123.1584750 116.6695740  21.9649770 107.4497590 116.6586680
  21.1821560 107.9243090 116.9383440  21.6712700 106.5452420 116.5499860
  26.5170840 108.1520690 114.7035770  26.9578930 108.0965790 113.8557370
  26.2478430 109.0678700 114.7745950  28.3809410 107.7835930 112.7144590
  28.3197810 106.8397150 112.5675610  29.1601440 107.8916020 113.2598050
  12.6862160 123.9228290 111.6768540  12.5184200 123.2898970 112.3750430
  11.8196670 124.1287690 111.3262730  13.3090180 107.7545070 109.1800400
  14.0669540 107.8673950 108.6064430  12.8467350 108.5914270 109.1343830
  19.8503990 109.8684340 112.1702710  19.0378500 109.4941230 111.8298590
  20.3545630 109.1129420 112.4723900  24.3528970 106.5326790 113.4085780
  24.9558340 107.1047000 113.8834300  23.6121960 107.0966230 113.1859680
  27.4963570 106.9348350 108.6826060  27.6914200 107.8331800 108.9493490
  26.7093440 106.7035430 109.1759010  14.2924860 122.6161520 109.1218680
  13.7672480 122.9969550 108.4180640  14.2169440 123.2412290 109.8428390
  15.6815330 108.2809120 107.7202370  16.2108090 107.4938920 107.5910320
  16.3143650 108.9600310 107.9537900  17.8753170 108.0184260 110.7747760
  17.2455910 107.3171570 110.9417890  17.3358310 108.7788390 110.5580920
  20.8145120 124.6323490 123.4458370  21.7412430 124.3967760 123.4894330
  20.7995550 125.4595490 122.9644400  29.0490180 124.1749060 110.4432620
  29.2242370 123.4886800 109.7993540  28.3511750 124.6996110 110.0509290
  18.0008730 107.2968240 123.2100250  17.7193000 107.8001840 122.4461070
  18.3828430 106.4989990 122.8442380  16.8917830 124.5643900 107.9967930
  17.6236650 124.2803180 107.4491820  17.1511500 124.3257180 108.8867310
  16.0532620 120.6808630 108.0014260  15.4241500 121.1493730 108.5500090
  16.1680450 119.8357850 108.4360450  24.6024190 106.7121820 123.7880720
  24.4889640 107.0316430 124.6832240  25.4193930 107.1134330 123.4918000
  27.3822680 123.8593350 123.2699410  28.1748000 123.3642580 123.0625370
  27.6755830 124.5383490 123.8775020  23.5082340 114.7314290  94.1515460
  23.4276390 113.8168900  93.8807170  23.0946760 115.2281360  93.4455170
  21.6400380 116.5093310  96.0324730  20.8642480 116.0293750  96.3223300
  22.2913310 115.8298960  95.8580890  15.6566210 116.8213120  96.9100490
  14.8251090 116.5661830  97.3097000  16.2647190 116.8923890  97.6458410
  25.6607810 120.9153500  94.8123860  25.1989340 120.1440740  95.1411030
  26.4733360 120.9419570  95.3176310  15.6367470 120.8553210  97.1058510
  15.9395510 119.9650950  96.9268730  16.3811060 121.4123430  96.8780760
  14.0658160 111.7815010  90.6942880  13.1774860 112.1230980  90.5922760
  14.3499350 111.5815330  89.8023710  12.0291170 114.3820660  96.5782580
  12.6007280 113.6142860  96.5786220  12.0292710 114.6809420  95.6689190
  21.8871120 123.2011510  94.4327850  21.2682560 123.6569010  93.8622290
  22.7422900 123.3562970  94.0317550  21.0809370 119.1850500  96.0394890
  21.0117650 118.2440440  95.8784020  21.8429230 119.2751910  96.6117460
  13.2716040 109.7905020  98.3651510  13.0918880 108.8930770  98.6454270
  12.8696120 110.3376890  99.0398460  22.1114540 111.9920880  96.2663820
  22.4879360 111.1192760  96.1537490  22.0134050 112.3279580  95.3754260
  16.2419550 110.3646510  91.7281260  16.3486300 111.2650240  92.0350020
  15.3311910 110.3164480  91.4375910  13.8902710 112.2865520  96.9733850
  14.5712820 112.5503890  97.5921250  13.5750760 111.4466390  97.3071860
  18.0827280 113.3332880  96.0606440  18.5905500 113.8313850  96.7011460
  18.6140520 112.5568080  95.8845800  16.3663380 107.9731440 100.3269860
  16.3681820 108.4903830  99.5215760  15.5367690 107.4961620 100.3039790
  22.7534470 118.0850750  91.8259760  22.1351740 118.5500200  91.2622480
  23.2657720 118.7778230  92.2429270  17.6166230 117.6126620  98.5043360
  17.2835610 118.2395540  99.1464430  17.7932910 118.1388500  97.7245030
  26.1300140 111.4271700  95.9719700  25.4255710 111.7156590  96.5522810
  26.4912300 112.2371810  95.6119260  16.0478710 109.6841400  98.3340310
  16.3895520 110.5283450  98.0394180  15.1094520 109.8325140  98.4505650
  16.8285330 119.5807420 100.3192540  17.4459330 120.2558500 100.0376990
  15.9678450 119.9895400 100.2280040  12.1217670 118.7707280  89.1999390
  11.7445650 119.2594380  88.4684290  12.3790740 119.4432560  89.8305920
  27.7462920 121.0446830  98.2347180  27.0626440 121.7145940  98.2263850
  28.2857210 121.2427480  97.4692040  19.7306600 107.1723670  94.6584900
  20.0381580 106.6170560  93.9420400  18.8007300 107.3068130  94.4757890
  25.2821660 122.8890960  96.9492360  25.2948820 122.4853250  96.0814620
  24.7296880 123.6638250  96.8453790  26.5767080 119.6107180  92.0382530
  26.4663410 118.6681510  92.1631950  26.5735330 119.9722820  92.9245290
  24.6807100 117.7920800  98.2774970  25.0975890 117.5780910  97.4428430
  25.4046920 118.0493590  98.8483590  22.1187360 115.2372500  91.3945020
  21.1916640 115.1709880  91.6233490  22.2712180 116.1752630  91.2800260
  28.6269200 116.1908020  98.3691210  27.7987830 116.2601110  97.8941340
  29.2219680 116.7762330  97.9007040  26.1484650 116.7992800  91.8980270
  25.5297070 116.4612350  91.2506570  26.1309100 116.1552560  92.6059460
  25.5911210 112.9777340  99.3146080  25.1782390 113.8031050  99.5686070
  24.8587160 112.3922380  99.1222440  17.7244000 115.7637240  94.1764750
  17.3201000 115.0514490  93.6810650  17.8107120 115.4190480  95.0652790
  18.1925700 119.4504800  96.3403960  17.8953990 118.8450270  95.6611740
  19.1425520 119.4882110  96.2293320  16.4372620 112.5380450  97.9563790
  16.9887210 112.6475790  97.1817040  16.9516130 112.9118050  98.6719020
  26.2811310 123.0236670 100.0027060  25.8041870 123.8308860  99.8099670
  25.5973100 122.3715000 100.1553270  17.2844130 119.1886490 102.9911760
  16.3872660 119.4126460 103.2385160  17.3097000 119.3121430 102.0423160
  24.3249350 116.0379610  88.9053020  24.7642630 115.2002040  88.7590840
  25.0377770 116.6709010  88.9917160  16.1115350 116.0599810 101.5669130
  15.9723120 116.9322610 101.9356530  15.2296710 115.7172620 101.4217070
  22.4344730 120.9775680  92.8734260  22.8740640 121.7200010  92.4589650
  22.3731620 121.2202250  93.7973220  17.9095700 122.0021510 103.7754280
  17.8811130 122.4064460 102.9082710  17.7460670 121.0731870 103.6125880
  14.4248630 114.6582220  91.6771400  14.3046230 115.3844310  91.0652670
  14.1149520 113.8885130  91.1999310  29.8610520 122.7848610 105.0718450
  30.3370240 123.2631500 105.7507530  30.4817680 122.7166100 104.3463950
  12.0634000 117.8297360  97.4840040  12.1414420 117.9646130  96.5395760
  12.6775680 117.1213250  97.6768160  13.3081630 119.5297550  93.8946220
  12.9009710 119.6712140  93.0399820  14.1994640 119.2457710  93.6917430
  29.2643770 119.9761460 102.2318460  29.3906830 119.7373340 101.3135640
  29.3065150 119.1446000 102.7040540  23.1260510 123.6789460 100.8013270
  23.6405180 123.5897470 101.6035700  22.2829590 124.0249160 101.0941180
  25.1014910 123.9644800  90.2297270  24.9416050 123.6747740  91.1279100
  24.9361620 123.1884930  89.6942500  17.5803290 123.7443330  92.0068890
  17.4045770 122.8278870  91.7936690  16.7259030 124.1030620  92.2466690
  24.8041040 121.4732360  88.7895270  24.1106200 121.4709650  88.1297550
  25.5463900 121.0491680  88.3589440  24.3690970 123.0995070  92.8643760
  24.8247920 122.3184450  93.1782380  24.7083490 123.8101890  93.4084940
  12.1193520 118.8711530 100.0234500  12.2824560 118.4016890  99.2053870
  12.5845970 118.3635090 100.6883340  16.8912290 108.0017290  95.0595070
  16.4480440 108.7826830  94.7279590  17.4497280 108.3247180  95.7666010
  21.1782100 110.8685810 100.6630390  20.7161470 111.0768830 101.4750330
  20.7760210 110.0545160 100.3601060  26.1786610 112.0894760 101.7927050
  25.3280200 111.7900510 102.1136120  26.0188400 112.3336770 100.8810870
  23.2736320 113.5896510 103.8925840  23.5989730 112.7560260 103.5528070
  24.0616650 114.1125030 104.0404170  18.9288190 108.5464620  96.9184670
  19.2260520 109.4527450  96.8376690  19.4773750 108.0583400  96.3044240
  16.6826510 113.1250860  92.7876320  16.4567430 112.9088030  93.6922940
  15.9019040 113.5579320  92.4422290  23.9124270 113.1314230  91.3866970
  23.3133160 113.8550030  91.2030590  24.4603880 113.0691010  90.6043420
  19.1225720 114.0236440 103.4536590  19.0269320 113.0831170 103.3036990
  19.9657700 114.2451510 103.0584660  22.5189140 111.7677770  93.4170250
  22.9118710 112.0849970  92.6038940  22.8805990 110.8889650  93.5314770
  14.2536260 110.4350110 101.6070370  13.8599650 111.2825320 101.8143150
  13.5654660 109.7976480 101.7979010  20.8281310 110.5185080 104.6767110
  20.1379630 110.3257280 105.3113200  21.5713610 110.8019720 105.2091410
  11.5553310 108.3578570  95.6400450  11.2666360 108.9281430  96.3525430
  12.2999070 107.8783020  96.0031680  11.7423540 112.2998690  86.8503170
  11.6598210 113.2429450  86.9918160  11.3906600 112.1573600  85.9715520
  23.1044280 114.3583520  97.5121030  22.3725400 114.8670330  97.8611130
  22.7068620 113.5413500  97.2109810  19.5421670 111.0337720  95.9173520
  19.5457730 110.5927670  95.0678060  20.4372790 111.3555050  96.0245340
  15.3924050 110.9164210  94.8767730  15.0524100 111.3939440  95.6334780
  14.6301370 110.4629330  94.5168830  19.6041820 112.0349800  88.9080280
  19.7254640 111.9936280  89.8566100  19.2190330 112.8973950  88.7527010
  23.5670190 109.8117200  96.9243970  23.5842930 110.2625850  97.7685820
  23.3185770 108.9122840  97.1377410  18.6163320 114.3450940  88.3063580
  18.0480220 113.8969190  87.6799490  19.3252320 114.7043720  87.7728730
  13.6932500 118.2462960 102.1830310  13.3087290 117.6056630 102.7813270
  14.0044690 118.9499080 102.7525040  19.8429640 115.0939500  97.6638930
  20.2099770 114.6198070  98.4100270  19.6534700 115.9681070  98.0047270
  12.7070130 109.8383190  93.7932400  12.4217050 109.4738860  94.6311020
  12.6448990 109.1063650  93.1795540  17.6329010 114.1348140  99.9823140
  17.3286080 115.0140120 100.2073500  18.5875470 114.1947930 100.0180580
  16.1610800 118.3409130  90.5789990  15.3873060 117.8006750  90.4188710
  16.8905430 117.8215740  90.2407750  26.9198780 117.3374490  96.3716380
  27.6397900 117.8329780  95.9812490  26.7180600 116.6592380  95.7270250
  22.3017580 117.4083550 102.2585380  22.2354890 116.4879220 102.0042970
  21.6722720 117.5058990 102.9730020  16.2048200 118.0089510  94.2168800
  16.7226870 117.2057770  94.1625690  15.7532220 117.9468650  95.0585630
  21.0917700 119.2755790  89.4896100  21.4333400 120.0198020  88.9939420
  20.2630410 119.5886910  89.8520930  13.6892740 114.9750880 101.1294500
  13.3307680 115.6404730 101.7167840  13.3947300 114.1434430 101.5007120
  16.8905860 115.4335120 104.0134050  16.5906000 115.5792300 103.1161870
  17.6617100 114.8740410 103.9207440  22.2334310 120.2304120 102.0089180
  22.2478850 119.2985080 101.7908090  21.5259410 120.3163880 102.6478950
  27.3671380 114.4143940  88.2787790  27.2835100 114.8458160  87.4284230
  28.0865570 114.8742290  88.7114610  28.4445520 116.8711460 101.3557760
  27.7193710 117.4640240 101.1587150  28.9720980 116.8635000 100.5571130
  28.3958630 121.2686200  91.0069920  27.7534790 120.6141820  91.2813640
  28.0089290 121.6741290  90.2310590  23.9745110 118.5971630  94.8541610
  24.3268930 117.9999760  94.1942980  23.0907440 118.2715860  95.0249860
  20.0608390 119.3569320  92.2612020  20.7479520 119.9038530  92.6419610
  19.2740810 119.9010050  92.2961630  12.2000790 114.9742140  87.7529100
  13.0695640 115.2566940  88.0365020  11.7091110 115.7878010  87.6377910
  19.3635600 116.3615350  91.8737380  19.8198380 117.1720600  92.0997570
  19.0123810 116.0438490  92.7055870  21.6668210 121.8721690  99.1029680
  22.3110430 122.0781070  99.7803100  22.0297650 121.1110090  98.6500530
  15.2647380 106.7053000  92.3459900  15.1362010 106.6970900  93.2944820
  14.4409400 107.0436090  91.9950910  22.9400290 119.8754040  97.8207130
  23.5822520 119.1747200  97.9339300  23.4649640 120.6552480  97.6404020
  26.7856010 120.1602660  87.5446270  26.5593590 119.4433100  88.1370910
  26.3952210 119.9115100  86.7068020  24.7137910 120.6748940 101.0243190
  25.0494150 121.2615630 101.7021110  23.7938250 120.5441650 101.2540980
  12.5672040 124.1869520  88.3190730  12.9269680 124.7858860  87.6648000
  12.4264380 124.7329410  89.0925760  12.2641310 108.4644120 101.8066600
  11.5499830 108.6641040 102.4119210  12.6836350 107.6883690 102.1781400
  26.3672260 118.0774600  89.2060430  26.0793960 118.5387290  89.9938310
  27.1624430 117.6172370  89.4744650  12.5513900 122.4524380 102.7933130
  12.6605020 121.5119120 102.6528520  11.8994460 122.7179130 102.1446860
  20.5426490 120.7240270 104.1931250  20.2223360 120.0049510 104.7376940
  19.8684850 121.3995340 104.2667310  18.5840660 121.5700720  89.1364400
  18.5750760 122.3030410  88.5208910  17.6639020 121.3232300  89.2291360
  14.1847300 116.7915610  89.8811160  13.5775250 117.5314510  89.8906460
  14.6596650 116.8814970  89.0549360  23.7580090 110.9566430  99.5568050
  24.1260910 110.1361640  99.8847620  22.8978290 111.0168320  99.9723700
  21.5700260 121.6328960  87.7989590  21.6712240 121.4292950  86.8691570
  20.6702000 121.3787240  88.0037370  19.0926150 112.1909320  91.7813490
  18.3842300 112.6595660  92.2227100  19.3770630 111.5331330  92.4158680
  20.7182080 113.6106020  99.7806020  21.2167330 114.0851840 100.4457870
  20.8605030 112.6869540  99.9876050  20.2118370 124.1515280  92.4937260
  20.4659870 124.1136670  91.5716630  19.2630850 124.0248610  92.4865510
  17.2961170 110.4994400  89.1564200  18.1451700 110.9364550  89.0904390
  16.9292440 110.8114660  89.9836260  26.2170950 115.0707160  94.0695770
  25.2761090 115.0857390  94.2443460  26.5315020 114.2843120  94.5156070
  16.1952590 116.7526760  87.6299730  16.9615860 116.6408120  88.1925160
  16.2727280 116.0564730  86.9776500  14.8899350 114.1851830  88.3132620
  14.9702940 113.2379340  88.4250020  15.7819100 114.5158710  88.4193280
  28.2196530 122.2416010  95.7450030  28.3443950 123.0647180  96.2173840
  29.0862090 122.0306740  95.3974180  15.6914060 124.3347220  95.4167160
  16.4276540 123.7862680  95.6875730  16.0754980 125.2003230  95.2773150
  12.5759540 120.4020790  91.2908670  11.6499320 120.6441930  91.2814080
  13.0415970 121.2295050  91.1693420  14.6972340 123.5193290 104.6052740
  15.4985070 123.8405340 105.0188140  14.1824160 123.1588870 105.3272650
  18.8016370 123.5077530  87.2392730  19.5944980 123.7966360  86.7874520
  18.2820720 123.0769700  86.5605210  23.5336970 119.6273160 104.5528150
  22.9275130 119.6504760 103.8123900  23.2291080 118.8956200 105.0895400
  24.9637340 123.3553450 103.1637560  25.9159090 123.2711470 103.1137800
  24.8165560 124.0195160 103.8371350  27.8546540 122.7347660  88.6629470
  27.5688050 122.3212800  87.8483650  27.6566090 123.6635370  88.5429990
  12.4170150 116.0066750 103.5488790  12.9209170 115.4274030 104.1205020
  11.6777570 116.2906980 104.0865160  19.3193770 118.7280940  87.1035080
  19.2144410 118.1133290  87.8296460  19.1517990 118.2046830  86.3198090
  19.4708090 117.4137740 103.0824310  18.7053760 117.9822740 102.9978980
  19.6524050 117.1213950 102.1892540  22.5596500 117.7900970  87.7077070
  22.0106600 118.2370270  88.3519810  23.1815760 117.2850220  88.2314740
  26.6131440 119.1443070 103.6399330  27.3540910 119.4818830 103.1366790
  25.8504120 119.3135130 103.0869100  14.4493230 114.1496340 104.4438860
  14.4898570 113.8510210 105.3524090  15.3038730 114.5503950 104.2846380
  18.2271620 116.7491890  89.6042370  18.6488040 116.5831760  90.4473760
  18.3522460 115.9392120  89.1097510  16.3899040 112.7288440 102.4113350
  15.8595500 112.2379390 101.7836690  17.0587110 113.1572640 101.8771280
  20.7399260 115.7729500  86.8519470  21.2604920 115.0578520  86.4860620
  21.3867660 116.4115370  87.1519980  25.2877100 117.1957900 102.1754540
  25.7018120 117.3502980 103.0244960  24.3528100 117.3213120 102.3380320
  25.7599270 114.5354060 104.1793690  26.3420040 113.7806380 104.0914170
  25.9361040 115.0661500 103.4025170  16.8771340 109.6950810 102.4910640
  16.7828210 109.0771560 101.7661510  16.2968730 110.4217100 102.2640550
  19.6432780 108.2524050  99.5238030  19.1950080 108.2748310  98.6783580
  19.0097980 107.8543070 100.1208330  20.0492330 117.1478380 100.1450470
  20.4680440 117.9911110  99.9726710  19.1300960 117.2850420  99.9157250
  22.3856230 114.8794560 101.5288310  22.5052440 114.2835700 102.2683150
  23.2450230 114.9164250 101.1089610  24.7244130 115.4331750 100.1050820
  24.1979350 115.9574370  99.5015960  25.0675470 116.0659140 100.7360550
  17.1230520 112.8225120  86.5500530  16.9219580 111.9592480  86.9113870
  16.9522570 112.7358480  85.6122130  17.8999750 123.4531390 101.2608200
  17.3620840 124.1777450 100.9416900  18.1533710 122.9761730 100.4705540
  19.1525000 111.4215910 102.7864130  19.7424690 111.1131760 103.4741950
  18.3345240 110.9495660 102.9424030  23.9718430 111.0381720 103.0197150
  23.2833950 110.3763260 102.9547140  24.6924450 110.5919990 103.4645610
  15.9213320 109.9225740  86.5378410  16.2239220 109.9293170  85.6297560
  16.6607910 109.5723600  87.0346070  20.7561960 124.6882600 101.5194850
  20.6820660 125.5917740 101.8267220  19.8540800 124.3694500 101.4916920
  19.1398250 108.8660360  87.5234610  18.7920250 108.1884350  86.9437060
  19.3411020 108.4049870  88.3378000  21.3047290 123.8541110  89.1421210
  22.1998080 124.1926080  89.1639970  21.3364920 123.1320520  88.5145490
  14.9443450 119.2268160  87.3708210  15.3818320 119.7697830  88.0265790
  15.4291180 118.4015110  87.3804550  12.1589250 122.0157190  94.8228470
  12.4892260 121.1478250  94.5907110  12.5880250 122.2215710  95.6533430
  16.7551170 120.3466200  92.4830440  16.4546710 120.2231170  93.3834350
  16.6488660 119.4874790  92.0746170  12.6479460 122.8827780  97.5610100
  12.2110450 123.0628580  98.3934250  13.2157140 123.6402400  97.4191820
  28.2841640 122.3844780 101.8487410  27.6843630 122.4437340 101.1051330
  28.4135540 121.4449760 101.9784260  29.5243090 120.1262600  87.1857120
  28.6936050 120.1939250  87.6564350  29.7014920 121.0166720  86.8823980
  28.9799550 116.8710080  89.6891320  29.7418460 117.4406730  89.7951010
  28.9953920 116.3037280  90.4599630  12.4803890 115.3948010  93.9198980
  11.8252730 115.1259650  93.2758680  13.3181840 115.2852490  93.4700960
  29.9859520 117.7260180  94.5333250  30.3568350 116.9427500  94.1269220
  30.6261450 118.4149280  94.3550550  26.9693280 119.1096760  99.9463570
  26.1553120 119.5393920 100.2089360  27.3767480 119.7215170  99.3332620
  29.0318720 117.1644450  86.8463840  29.3067560 118.0723330  86.7183060
  28.8429460 117.1006980  87.7825830  28.9284060 115.1013440  91.8393270
  28.5527660 114.3341370  91.4074560  28.1987180 115.4836140  92.3268200
  13.5179820 115.7800580  98.4602320  13.8852860 115.6927980  99.3398340
  12.9490640 115.0167130  98.3609180  28.3183680 114.2484960 101.4732790
  28.0869770 114.0197710 100.5730740  28.5788230 115.1684510 101.4277680
  13.0695820 112.6909670 102.3660740  12.1751870 112.6576430 102.7054450
  13.6093370 112.8896460 103.1311990  26.7571750 109.4741390 104.2512490
  27.6341930 109.4824790 104.6346490  26.7692590 108.7372230 103.6404840
  11.6941970 112.6046940  89.8624310  10.7906050 112.8677140  89.6875970
  12.1782590 112.8758110  89.0824270  28.2035020 113.3270930  95.1400510
  28.7272500 112.8333580  94.5090680  28.7894440 113.4621290  95.8848080
  14.2369180 111.6612480  87.7718690  14.9460880 111.2395700  87.2865970
  13.5209120 111.7287710  87.1402040  13.8843340 107.7151810  86.8121340
  14.6071470 108.2560750  87.1302560  14.1567860 107.4415230  85.9362880
  13.5735530 106.9658000  96.7143960  14.2211720 106.4155380  96.2739120
  13.9937370 107.2201150  97.5359770  29.1222150 111.2205230  93.6130600
  29.0121430 111.0661270  94.5512870  29.8829740 110.6926170  93.3706010
  27.4687870 107.1599360 100.0713600  28.1060090 107.7733500 100.4372790
  27.6162760 107.1960020  99.1262830  27.0269330 123.8615360  93.4731840
  27.6228400 123.5399930  92.7966260  27.2847480 123.3887180  94.2645110
  13.3267530 107.1213670  99.4569280  12.9782350 107.5777490 100.2227460
  12.9955230 106.2270800  99.5391710  14.9331900 120.2933270 103.6222470
  14.8901530 119.9226180 104.5036930  15.0642910 121.2310840 103.7624290
  18.6337930 121.8492860  99.2232190  18.3929290 122.1167420  98.3362710
  19.5740570 122.0198590  99.2783050  20.8392350 108.3125550 102.9788700
  20.7781240 108.9047380 103.7284110  21.7792730 108.2051510 102.8338960
  23.4766910 107.9695610 102.6180990  24.0907320 108.2874900 101.9562070
  24.0216470 107.4844200 103.2376850  29.8942090 123.8687240 100.0242830
  29.4000370 124.2656110  99.3069960  29.2855380 123.2436450 100.4180110
  13.9988170 106.6489870 102.7320050  14.5471160 106.4677920 101.9686160
  14.0643480 105.8583980 103.2676360  14.7719930 123.2395520 100.7420250
  14.1780250 123.1080220 101.4810290  14.7643770 122.4033660 100.2762350
  24.2174950 106.5327750  98.9450280  23.3434790 106.8662860  98.7423210
  24.1085700 106.0600930  99.7702150  25.1246930 108.7398620 100.3292000
  24.7960290 107.9250380  99.9493730  26.0729230 108.6968430 100.2057690
  27.5781540 124.5110660  97.3029570  27.1184510 125.2626470  96.9287590
  26.9494000 123.7917130  97.2444370  14.4032160 120.6053900  99.6928290
  13.6766220 119.9859190  99.6254240  14.4641310 120.9994510  98.8226370
  18.0077260 122.8198900  96.4777700  18.5242280 122.2086260  95.9525960
  18.6574640 123.3227680  96.9688710  20.7472760 123.7107390  97.3046680
  21.0350570 123.4561690  96.4279690  21.2595980 123.1584750  97.8952250
  21.9649770 107.4497590  97.8843190  21.1821560 107.9243090  98.1639950
  21.6712700 106.5452420  97.7756370  12.6862160 123.9228290  92.9025050
  12.5184200 123.2898970  93.6006940  11.8196670 124.1287690  92.5519240
  13.3090180 107.7545070  90.4056910  14.0669540 107.8673950  89.8320940
  12.8467350 108.5914270  90.3600340  19.8503990 109.8684340  93.3959220
  19.0378500 109.4941230  93.0555100  20.3545630 109.1129420  93.6980410
  14.2924860 122.6161520  90.3475190  13.7672480 122.9969550  89.6437150
  14.2169440 123.2412290  91.0684900  15.6815330 108.2809120  88.9458880
  16.2108090 107.4938920  88.8166830  16.3143650 108.9600310  89.1794410
  17.8753170 108.0184260  92.0004270  17.2455910 107.3171570  92.1674400
  17.3358310 108.7788390  91.7837430  20.8145120 124.6323490 104.6714880
  21.7412430 124.3967760 104.7150840  20.7995550 125.4595490 104.1900910
  29.0490180 124.1749060  91.6689130  29.2242370 123.4886800  91.0250050
  28.3511750 124.6996110  91.2765800  18.0008730 107.2968240 104.4356760
  17.7193000 107.8001840 103.6717580  18.3828430 106.4989990 104.0698890
  16.8917830 124.5643900  89.2224440  17.6236650 124.2803180  88.6748330
  17.1511500 124.3257180  90.1123820  16.0532620 120.6808630  89.2270770
  15.4241500 121.1493730  89.7756600  16.1680450 119.8357850  89.6616960
  24.6024190 106.7121820 105.0137230  24.4889640 107.0316430 105.9088750
  25.4193930 107.1134330 104.7174510  27.3822680 123.8593350 104.4955920
  28.1748000 123.3642580 104.2881880  27.6755830 124.5383490 105.1031530
  23.5082340 114.7314290  75.3771970  23.4276390 113.8168900  75.1063680
  23.0946760 115.2281360  74.6711680  21.6400380 116.5093310  77.2581240
  20.8642480 116.0293750  77.5479810  22.2913310 115.8298960  77.0837400
  15.6566210 116.8213120  78.1357000  14.8251090 116.5661830  78.5353510
  16.2647190 116.8923890  78.8714920  25.6607810 120.9153500  76.0380370
  25.1989340 120.1440740  76.3667540  26.4733360 120.9419570  76.5432820
  15.6367470 120.8553210  78.3315020  15.9395510 119.9650950  78.1525240
  16.3811060 121.4123430  78.1037270  14.0658160 111.7815010  71.9199390
  13.1774860 112.1230980  71.8179270  14.3499350 111.5815330  71.0280220
  12.0291170 114.3820660  77.8039090  12.6007280 113.6142860  77.8042730
  12.0292710 114.6809420  76.8945700  21.8871120 123.2011510  75.6584360
  21.2682560 123.6569010  75.0878800  22.7422900 123.3562970  75.2574060
  21.0809370 119.1850500  77.2651400  21.0117650 118.2440440  77.1040530
  21.8429230 119.2751910  77.8373970  13.2716040 109.7905020  79.5908020
  13.0918880 108.8930770  79.8710780  12.8696120 110.3376890  80.2654970
  22.1114540 111.9920880  77.4920330  22.4879360 111.1192760  77.3794000
  22.0134050 112.3279580  76.6010770  16.2419550 110.3646510  72.9537770
  16.3486300 111.2650240  73.2606530  15.3311910 110.3164480  72.6632420
  25.8938660 109.4871320  74.4248670  26.7148280 108.9967890  74.4674150
  25.9272740 110.0768980  75.1780510  13.8902710 112.2865520  78.1990360
  14.5712820 112.5503890  78.8177760  13.5750760 111.4466390  78.5328370
  18.0827280 113.3332880  77.2862950  18.5905500 113.8313850  77.9267970
  18.6140520 112.5568080  77.1102310  30.1838210 111.5038070  80.9892300
  29.4790380 111.8919780  80.4707410  30.4496130 112.1988360  81.5913230
  16.3663380 107.9731440  81.5526370  16.3681820 108.4903830  80.7472270
  15.5367690 107.4961620  81.5296300  22.7534470 118.0850750  73.0516270
  22.1351740 118.5500200  72.4878990  23.2657720 118.7778230  73.4685780
  17.6166230 117.6126620  79.7299870  17.2835610 118.2395540  80.3720940
  17.7932910 118.1388500  78.9501540  26.1300140 111.4271700  77.1976210
  25.4255710 111.7156590  77.7779320  26.4912300 112.2371810  76.8375770
  16.0478710 109.6841400  79.5596820  16.3895520 110.5283450  79.2650690
  15.1094520 109.8325140  79.6762160  16.8285330 119.5807420  81.5449050
  17.4459330 120.2558500  81.2633500  15.9678450 119.9895400  81.4536550
  12.1217670 118.7707280  70.4255900  11.7445650 119.2594380  69.6940800
  12.3790740 119.4432560  71.0562430  27.7462920 121.0446830  79.4603690
  27.0626440 121.7145940  79.4520360  28.2857210 121.2427480  78.6948550
  29.1987060 110.8726490  77.5885420  28.2511970 110.9065470  77.7200850
  29.5237050 111.6865440  77.9734780  19.7306600 107.1723670  75.8841410
  20.0381580 106.6170560  75.1676910  18.8007300 107.3068130  75.7014400
  25.2821660 122.8890960  78.1748870  25.2948820 122.4853250  77.3071130
  24.7296880 123.6638250  78.0710300  26.5767080 119.6107180  73.2639040
  26.4663410 118.6681510  73.3888460  26.5735330 119.9722820  74.1501800
  24.6807100 117.7920800  79.5031480  25.0975890 117.5780910  78.6684940
  25.4046920 118.0493590  80.0740100  22.1187360 115.2372500  72.6201530
  21.1916640 115.1709880  72.8490000  22.2712180 116.1752630  72.5056770
  22.1056440 111.5089500  69.6168690  21.1660110 111.6703460  69.7021150
  22.4239700 112.2275180  69.0704680  28.6269200 116.1908020  79.5947720
  27.7987830 116.2601110  79.1197850  29.2219680 116.7762330  79.1263550
  26.1484650 116.7992800  73.1236780  25.5297070 116.4612350  72.4763080
  26.1309100 116.1552560  73.8315970  25.5911210 112.9777340  80.5402590
  25.1782390 113.8031050  80.7942580  24.8587160 112.3922380  80.3478950
  17.7244000 115.7637240  75.4021260  17.3201000 115.0514490  74.9067160
  17.8107120 115.4190480  76.2909300  18.1925700 119.4504800  77.5660470
  17.8953990 118.8450270  76.8868250  19.1425520 119.4882110  77.4549830
  16.4372620 112.5380450  79.1820300  16.9887210 112.6475790  78.4073550
  16.9516130 112.9118050  79.8975530  26.2811310 123.0236670  81.2283570
  25.8041870 123.8308860  81.0356180  25.5973100 122.3715000  81.3809780
  17.2844130 119.1886490  84.2168270  16.3872660 119.4126460  84.4641670
  17.3097000 119.3121430  83.2679670  24.3249350 116.0379610  70.1309530
  24.7642630 115.2002040  69.9847350  25.0377770 116.6709010  70.2173670
  16.1115350 116.0599810  82.7925640  15.9723120 116.9322610  83.1613040
  15.2296710 115.7172620  82.6473580  22.4344730 120.9775680  74.0990770
  22.8740640 121.7200010  73.6846160  22.3731620 121.2202250  75.0229730
  17.9095700 122.0021510  85.0010790  17.8811130 122.4064460  84.1339220
  17.7460670 121.0731870  84.8382390  27.9066490 107.2922420  68.4450570
  27.5939150 107.3849250  69.3449640  28.6678960 107.8703450  68.3948000
  14.4248630 114.6582220  72.9027910  14.3046230 115.3844310  72.2909180
  14.1149520 113.8885130  72.4255820  29.8610520 122.7848610  86.2974960
  30.3370240 123.2631500  86.9764040  30.4817680 122.7166100  85.5720460
  12.0634000 117.8297360  78.7096550  12.1414420 117.9646130  77.7652270
  12.6775680 117.1213250  78.9024670  13.3081630 119.5297550  75.1202730
  12.9009710 119.6712140  74.2656330  14.1994640 119.2457710  74.9173940
  29.2643770 119.9761460  83.4574970  29.3906830 119.7373340  82.5392150
  29.3065150 119.1446000  83.9297050  23.1260510 123.6789460  82.0269780
  23.6405180 123.5897470  82.8292210  22.2829590 124.0249160  82.3197690
  25.1014910 123.9644800  71.4553780  24.9416050 123.6747740  72.3535610
  24.9361620 123.1884930  70.9199010  17.5803290 123.7443330  73.2325400
  17.4045770 122.8278870  73.0193200  16.7259030 124.1030620  73.4723200
  24.8041040 121.4732360  70.0151780  24.1106200 121.4709650  69.3554060
  25.5463900 121.0491680  69.5845950  24.3690970 123.0995070  74.0900270
  24.8247920 122.3184450  74.4038890  24.7083490 123.8101890  74.6341450
  29.1167780 112.0293920  84.4224710  28.5012050 112.5373590  83.8940170
  28.7964200 111.1292250  84.3650650  12.1193520 118.8711530  81.2491010
  12.2824560 118.4016890  80.4310380  12.5845970 118.3635090  81.9139850
  16.8912290 108.0017290  76.2851580  16.4480440 108.7826830  75.9536100
  17.4497280 108.3247180  76.9922520  21.1782100 110.8685810  81.8886900
  20.7161470 111.0768830  82.7006840  20.7760210 110.0545160  81.5857570
  26.1786610 112.0894760  83.0183560  25.3280200 111.7900510  83.3392630
  26.0188400 112.3336770  82.1067380  23.2736320 113.5896510  85.1182350
  23.5989730 112.7560260  84.7784580  24.0616650 114.1125030  85.2660680
  20.0071110 107.6227990  71.1657410  19.3825290 107.6187860  71.8910720
  19.9201230 106.7558950  70.7693380  18.9288190 108.5464620  78.1441180
  19.2260520 109.4527450  78.0633200  19.4773750 108.0583400  77.5300750
  16.6826510 113.1250860  74.0132830  16.4567430 112.9088030  74.9179450
  15.9019040 113.5579320  73.6678800  23.9124270 113.1314230  72.6123480
  23.3133160 113.8550030  72.4287100  24.4603880 113.0691010  71.8299930
  19.1225720 114.0236440  84.6793100  19.0269320 113.0831170  84.5293500
  19.9657700 114.2451510  84.2841170  22.5189140 111.7677770  74.6426760
  22.9118710 112.0849970  73.8295450  22.8805990 110.8889650  74.7571280
  14.2536260 110.4350110  82.8326880  13.8599650 111.2825320  83.0399660
  13.5654660 109.7976480  83.0235520  20.8281310 110.5185080  85.9023620
  20.1379630 110.3257280  86.5369710  21.5713610 110.8019720  86.4347920
  11.5553310 108.3578570  76.8656960  11.2666360 108.9281430  77.5781940
  12.2999070 107.8783020  77.2288190  11.7423540 112.2998690  68.0759680
  11.6598210 113.2429450  68.2174670  11.3906600 112.1573600  67.1972030
  23.1044280 114.3583520  78.7377540  22.3725400 114.8670330  79.0867640
  22.7068620 113.5413500  78.4366320  19.5421670 111.0337720  77.1430030
  19.5457730 110.5927670  76.2934570  20.4372790 111.3555050  77.2501850
  15.3924050 110.9164210  76.1024240  15.0524100 111.3939440  76.8591290
  14.6301370 110.4629330  75.7425340  19.6041820 112.0349800  70.1336790
  19.7254640 111.9936280  71.0822610  19.2190330 112.8973950  69.9783520
  23.5670190 109.8117200  78.1500480  23.5842930 110.2625850  78.9942330
  23.3185770 108.9122840  78.3633920  18.6163320 114.3450940  69.5320090
  18.0480220 113.8969190  68.9056000  19.3252320 114.7043720  68.9985240
  26.9940940 107.2249380  83.9886860  27.3186710 106.4939040  84.5144840
  27.0297450 106.9063020  83.0867850  13.6932500 118.2462960  83.4086820
  13.3087290 117.6056630  84.0069780  14.0044690 118.9499080  83.9781550
  19.8429640 115.0939500  78.8895440  20.2099770 114.6198070  79.6356780
  19.6534700 115.9681070  79.2303780  12.7070130 109.8383190  75.0188910
  12.4217050 109.4738860  75.8567530  12.6448990 109.1063650  74.4052050
  17.6329010 114.1348140  81.2079650  17.3286080 115.0140120  81.4330010
  18.5875470 114.1947930  81.2437090  16.1610800 118.3409130  71.8046500
  15.3873060 117.8006750  71.6445220  16.8905430 117.8215740  71.4664260
  26.9198780 117.3374490  77.5972890  27.6397900 117.8329780  77.2069000
  26.7180600 116.6592380  76.9526760  22.3808720 108.7312450  71.7402280
  21.5673330 108.2325620  71.6647590  22.1870670 109.5710700  71.3238630
  22.3017580 117.4083550  83.4841890  22.2354890 116.4879220  83.2299480
  21.6722720 117.5058990  84.1986530  25.0957110 113.1032100  70.0364440
  25.9836730 113.4149330  69.8615780  25.0662200 112.2304350  69.6445020
  16.2048200 118.0089510  75.4425310  16.7226870 117.2057770  75.3882200
  15.7532220 117.9468650  76.2842140  21.0917700 119.2755790  70.7152610
  21.4333400 120.0198020  70.2195930  20.2630410 119.5886910  71.0777440
  13.6892740 114.9750880  82.3551010  13.3307680 115.6404730  82.9424350
  13.3947300 114.1434430  82.7263630  16.8905860 115.4335120  85.2390560
  16.5906000 115.5792300  84.3418380  17.6617100 114.8740410  85.1463950
  22.2334310 120.2304120  83.2345690  22.2478850 119.2985080  83.0164600
  21.5259410 120.3163880  83.8735460  27.3671380 114.4143940  69.5044300
  27.2835100 114.8458160  68.6540740  28.0865570 114.8742290  69.9371120
  28.4445520 116.8711460  82.5814270  27.7193710 117.4640240  82.3843660
  28.9720980 116.8635000  81.7827640  28.3958630 121.2686200  72.2326430
  27.7534790 120.6141820  72.5070150  28.0089290 121.6741290  71.4567100
  23.9745110 118.5971630  76.0798120  24.3268930 117.9999760  75.4199490
  23.0907440 118.2715860  76.2506370  20.0608390 119.3569320  73.4868530
  20.7479520 119.9038530  73.8676120  19.2740810 119.9010050  73.5218140
  12.2000790 114.9742140  68.9785610  13.0695640 115.2566940  69.2621530
  11.7091110 115.7878010  68.8634420  19.3635600 116.3615350  73.0993890
  19.8198380 117.1720600  73.3254080  19.0123810 116.0438490  73.9312380
  21.6668210 121.8721690  80.3286190  22.3110430 122.0781070  81.0059610
  22.0297650 121.1110090  79.8757040  15.2647380 106.7053000  73.5716410
  15.1362010 106.6970900  74.5201330  14.4409400 107.0436090  73.2207420
  22.9400290 119.8754040  79.0463640  23.5822520 119.1747200  79.1595810
  23.4649640 120.6552480  78.8660530  26.7856010 120.1602660  68.7702780
  26.5593590 119.4433100  69.3627420  26.3952210 119.9115100  67.9324530
  24.7137910 120.6748940  82.2499700  25.0494150 121.2615630  82.9277620
  23.7938250 120.5441650  82.4797490  12.5672040 124.1869520  69.5447240
  12.9269680 124.7858860  68.8904510  12.4264380 124.7329410  70.3182270
  12.2641310 108.4644120  83.0323110  11.5499830 108.6641040  83.6375720
  12.6836350 107.6883690  83.4037910  26.3672260 118.0774600  70.4316940
  26.0793960 118.5387290  71.2194820  27.1624430 117.6172370  70.7001160
  12.5513900 122.4524380  84.0189640  12.6605020 121.5119120  83.8785030
  11.8994460 122.7179130  83.3703370  20.5426490 120.7240270  85.4187760
  20.2223360 120.0049510  85.9633450  19.8684850 121.3995340  85.4923820
  18.5840660 121.5700720  70.3620910  18.5750760 122.3030410  69.7465420
  17.6639020 121.3232300  70.4547870  14.1847300 116.7915610  71.1067670
  13.5775250 117.5314510  71.1162970  14.6596650 116.8814970  70.2805870
  23.7580090 110.9566430  80.7824560  24.1260910 110.1361640  81.1104130
  22.8978290 111.0168320  81.1980210  27.1242120 109.9123370  71.5912120
  26.4955280 110.0169040  70.8770350  26.6294040 110.1320150  72.3806000
  21.5700260 121.6328960  69.0246100  21.6712240 121.4292950  68.0948080
  20.6702000 121.3787240  69.2293880  19.0926150 112.1909320  73.0070000
  18.3842300 112.6595660  73.4483610  19.3770630 111.5331330  73.6415190
  20.7182080 113.6106020  81.0062530  21.2167330 114.0851840  81.6714380
  20.8605030 112.6869540  81.2132560  23.1241580 108.9159980  74.4465790
  23.0009360 108.9346110  73.4975300  24.0726140 108.9638920  74.5664190
  20.2118370 124.1515280  73.7193770  20.4659870 124.1136670  72.7973140
  19.2630850 124.0248610  73.7122020  17.2961170 110.4994400  70.3820710
  18.1451700 110.9364550  70.3160900  16.9292440 110.8114660  71.2092770
  27.9248940 109.8273980  81.8490920  27.4222540 110.5679380  82.1884730
  28.7405600 110.2157980  81.5327710  26.2170950 115.0707160  75.2952280
  25.2761090 115.0857390  75.4699970  26.5315020 114.2843120  75.7412580
  16.1952590 116.7526760  68.8556240  16.9615860 116.6408120  69.4181670
  16.2727280 116.0564730  68.2033010  14.8899350 114.1851830  69.5389130
  14.9702940 113.2379340  69.6506530  15.7819100 114.5158710  69.6449790
  28.2196530 122.2416010  76.9706540  28.3443950 123.0647180  77.4430350
  29.0862090 122.0306740  76.6230690  15.6914060 124.3347220  76.6423670
  16.4276540 123.7862680  76.9132240  16.0754980 125.2003230  76.5029660
  12.5759540 120.4020790  72.5165180  11.6499320 120.6441930  72.5070590
  13.0415970 121.2295050  72.3949930  14.6972340 123.5193290  85.8309250
  15.4985070 123.8405340  86.2444650  14.1824160 123.1588870  86.5529160
  18.8016370 123.5077530  68.4649240  19.5944980 123.7966360  68.0131030
  18.2820720 123.0769700  67.7861720  23.5336970 119.6273160  85.7784660
  22.9275130 119.6504760  85.0380410  23.2291080 118.8956200  86.3151910
  24.9637340 123.3553450  84.3894070  25.9159090 123.2711470  84.3394310
  24.8165560 124.0195160  85.0627860  27.8546540 122.7347660  69.8885980
  27.5688050 122.3212800  69.0740160  27.6566090 123.6635370  69.7686500
  12.4170150 116.0066750  84.7745300  12.9209170 115.4274030  85.3461530
  11.6777570 116.2906980  85.3121670  19.3193770 118.7280940  68.3291590
  19.2144410 118.1133290  69.0552970  19.1517990 118.2046830  67.5454600
  19.4708090 117.4137740  84.3080820  18.7053760 117.9822740  84.2235490
  19.6524050 117.1213950  83.4149050  22.5596500 117.7900970  68.9333580
  22.0106600 118.2370270  69.5776320  23.1815760 117.2850220  69.4571250
  26.6131440 119.1443070  84.8655840  27.3540910 119.4818830  84.3623300
  25.8504120 119.3135130  84.3125610  14.4493230 114.1496340  85.6695370
  14.4898570 113.8510210  86.5780600  15.3038730 114.5503950  85.5102890
  18.2271620 116.7491890  70.8298880  18.6488040 116.5831760  71.6730270
  18.3522460 115.9392120  70.3354020  16.3899040 112.7288440  83.6369860
  15.8595500 112.2379390  83.0093200  17.0587110 113.1572640  83.1027790
  20.7399260 115.7729500  68.0775980  21.2604920 115.0578520  67.7117130
  21.3867660 116.4115370  68.3776490  25.2877100 117.1957900  83.4011050
  25.7018120 117.3502980  84.2501470  24.3528100 117.3213120  83.5636830
  25.7599270 114.5354060  85.4050200  26.3420040 113.7806380  85.3170680
  25.9361040 115.0661500  84.6281680  16.8771340 109.6950810  83.7167150
  16.7828210 109.0771560  82.9918020  16.2968730 110.4217100  83.4897060
  19.6432780 108.2524050  80.7494540  19.1950080 108.2748310  79.9040090
  19.0097980 107.8543070  81.3464840  20.0492330 117.1478380  81.3706980
  20.4680440 117.9911110  81.1983220  19.1300960 117.2850420  81.1413760
  22.3856230 114.8794560  82.7544820  22.5052440 114.2835700  83.4939660
  23.2450230 114.9164250  82.3346120  24.7244130 115.4331750  81.3307330
  24.1979350 115.9574370  80.7272470  25.0675470 116.0659140  81.9617060
  17.1230520 112.8225120  67.7757040  16.9219580 111.9592480  68.1370380
  16.9522570 112.7358480  66.8378640  17.8999750 123.4531390  82.4864710
  17.3620840 124.1777450  82.1673410  18.1533710 122.9761730  81.6962050
  19.1525000 111.4215910  84.0120640  19.7424690 111.1131760  84.6998460
  18.3345240 110.9495660  84.1680540  24.6018830 107.6333350  70.3043920
  24.8821120 106.7901250  70.6603340  23.8284560 107.8656460  70.8182670
  15.9213320 109.9225740  67.7634920  16.2239220 109.9293170  66.8554070
  16.6607910 109.5723600  68.2602580  20.7561960 124.6882600  82.7451360
  20.6820660 125.5917740  83.0523730  19.8540800 124.3694500  82.7173430
  19.1398250 108.8660360  68.7491120  18.7920250 108.1884350  68.1693570
  19.3411020 108.4049870  69.5634510  21.3047290 123.8541110  70.3677720
  22.1998080 124.1926080  70.3896480  21.3364920 123.1320520  69.7402000
  14.9443450 119.2268160  68.5964720  15.3818320 119.7697830  69.2522300
  15.4291180 118.4015110  68.6061060  12.1589250 122.0157190  76.0484980
  12.4892260 121.1478250  75.8163620  12.5880250 122.2215710  76.8789940
  16.7551170 120.3466200  73.7086950  16.4546710 120.2231170  74.6090860
  16.6488660 119.4874790  73.3002680  12.6479460 122.8827780  78.7866610
  12.2110450 123.0628580  79.6190760  13.2157140 123.6402400  78.6448330
  28.2841640 122.3844780  83.0743920  27.6843630 122.4437340  82.3307840
  28.4135540 121.4449760  83.2040770  29.5243090 120.1262600  68.4113630
  28.6936050 120.1939250  68.8820860  29.7014920 121.0166720  68.1080490
  28.9799550 116.8710080  70.9147830  29.7418460 117.4406730  71.0207520
  28.9953920 116.3037280  71.6856140  12.4803890 115.3948010  75.1455490
  11.8252730 115.1259650  74.5015190  13.3181840 115.2852490  74.6957470
  29.9859520 117.7260180  75.7589760  30.3568350 116.9427500  75.3525730
  30.6261450 118.4149280  75.5807060  26.9693280 119.1096760  81.1720080
  26.1553120 119.5393920  81.4345870  27.3767480 119.7215170  80.5589130
  29.0318720 117.1644450  68.0720350  29.3067560 118.0723330  67.9439570
  28.8429460 117.1006980  69.0082340  25.4294330 110.1889300  69.3673980
  25.8479210 110.0020280  68.5270640  25.1230390 109.3368350  69.6776910
  28.9284060 115.1013440  73.0649780  28.5527660 114.3341370  72.6331070
  28.1987180 115.4836140  73.5524710  13.5179820 115.7800580  79.6858830
  13.8852860 115.6927980  80.5654850  12.9490640 115.0167130  79.5865690
  28.3183680 114.2484960  82.6989300  28.0869770 114.0197710  81.7987250
  28.5788230 115.1684510  82.6534190  13.0695820 112.6909670  83.5917250
  12.1751870 112.6576430  83.9310960  13.6093370 112.8896460  84.3568500
  11.6941970 112.6046940  71.0880820  10.7906050 112.8677140  70.9132480
  12.1782590 112.8758110  70.3080780  28.2035020 113.3270930  76.3657020
  28.7272500 112.8333580  75.7347190  28.7894440 113.4621290  77.1104590
  28.3824740 113.4110800  79.8876570  27.4327450 113.3774340  80.0021560
  28.5637750 114.3210910  79.6526340  14.2369180 111.6612480  68.9975200
  14.9460880 111.2395700  68.5122480  13.5209120 111.7287710  68.3658550
  13.8843340 107.7151810  68.0377850  14.6071470 108.2560750  68.3559070
  14.1567860 107.4415230  67.1619390  27.6934990 112.5844280  72.3049430
  28.1894110 112.3515150  73.0898310  27.4951060 111.7456120  71.8887070
  13.5735530 106.9658000  77.9400470  14.2211720 106.4155380  77.4995630
  13.9937370 107.2201150  78.7616280  29.1222150 111.2205230  74.8387110
  29.0121430 111.0661270  75.7769380  29.8829740 110.6926170  74.5962520
  27.4687870 107.1599360  81.2970110  28.1060090 107.7733500  81.6629300
  27.6162760 107.1960020  80.3519340  30.0112420 109.0513150  68.0793250
  30.9361730 108.9194330  67.8711540  29.9888210 109.1305970  69.0329700
  30.0850910 109.8223810  70.7049960  29.2902410 109.7568930  71.2342870
  30.2894190 110.7574450  70.6935310  27.0269330 123.8615360  74.6988350
  27.6228400 123.5399930  74.0222770  27.2847480 123.3887180  75.4901620
  13.3267530 107.1213670  80.6825790  12.9782350 107.5777490  81.4483970
  12.9955230 106.2270800  80.7648220  14.9331900 120.2933270  84.8478980
  14.8901530 119.9226180  85.7293440  15.0642910 121.2310840  84.9880800
  18.6337930 121.8492860  80.4488700  18.3929290 122.1167420  79.5619220
  19.5740570 122.0198590  80.5039560  20.8392350 108.3125550  84.2045210
  20.7781240 108.9047380  84.9540620  21.7792730 108.2051510  84.0595470
  23.4766910 107.9695610  83.8437500  24.0907320 108.2874900  83.1818580
  24.0216470 107.4844200  84.4633360  29.8942090 123.8687240  81.2499340
  29.4000370 124.2656110  80.5326470  29.2855380 123.2436450  81.6436620
  13.9988170 106.6489870  83.9576560  14.5471160 106.4677920  83.1942670
  14.0643480 105.8583980  84.4932870  14.7719930 123.2395520  81.9676760
  14.1780250 123.1080220  82.7066800  14.7643770 122.4033660  81.5018860
  24.2174950 106.5327750  80.1706790  23.3434790 106.8662860  79.9679720
  24.1085700 106.0600930  80.9958660  25.1246930 108.7398620  81.5548510
  24.7960290 107.9250380  81.1750240  26.0729230 108.6968430  81.4314200
  27.5781540 124.5110660  78.5286080  27.1184510 125.2626470  78.1544100
  26.9494000 123.7917130  78.4700880  14.4032160 120.6053900  80.9184800
  13.6766220 119.9859190  80.8510750  14.4641310 120.9994510  80.0482880
  18.0077260 122.8198900  77.7034210  18.5242280 122.2086260  77.1782470
  18.6574640 123.3227680  78.1945220  20.7472760 123.7107390  78.5303190
  21.0350570 123.4561690  77.6536200  21.2595980 123.1584750  79.1208760
  21.9649770 107.4497590  79.1099700  21.1821560 107.9243090  79.3896460
  21.6712700 106.5452420  79.0012880  26.5170840 108.1520690  77.1548790
  26.9578930 108.0965790  76.3070390  26.2478430 109.0678700  77.2258970
  28.3809410 107.7835930  75.1657610  28.3197810 106.8397150  75.0188630
  29.1601440 107.8916020  75.7111070  12.6862160 123.9228290  74.1281560
  12.5184200 123.2898970  74.8263450  11.8196670 124.1287690  73.7775750
  13.3090180 107.7545070  71.6313420  14.0669540 107.8673950  71.0577450
  12.8467350 108.5914270  71.5856850  19.8503990 109.8684340  74.6215730
  19.0378500 109.4941230  74.2811610  20.3545630 109.1129420  74.9236920
  24.3528970 106.5326790  75.8598800  24.9558340 107.1047000  76.3347320
  23.6121960 107.0966230  75.6372700  27.4963570 106.9348350  71.1339080
  27.6914200 107.8331800  71.4006510  26.7093440 106.7035430  71.6272030
  14.2924860 122.6161520  71.5731700  13.7672480 122.9969550  70.8693660
  14.2169440 123.2412290  72.2941410  15.6815330 108.2809120  70.1715390
  16.2108090 107.4938920  70.0423340  16.3143650 108.9600310  70.4050920
  17.8753170 108.0184260  73.2260780  17.2455910 107.3171570  73.3930910
  17.3358310 108.7788390  73.0093940  20.8145120 124.6323490  85.8971390
  21.7412430 124.3967760  85.9407350  20.7995550 125.4595490  85.4157420
  29.0490180 124.1749060  72.8945640  29.2242370 123.4886800  72.2506560
  28.3511750 124.6996110  72.5022310  18.0008730 107.2968240  85.6613270
  17.7193000 107.8001840  84.8974090  18.3828430 106.4989990  85.2955400
  16.8917830 124.5643900  70.4480950  17.6236650 124.2803180  69.9004840
  17.1511500 124.3257180  71.3380330  16.0532620 120.6808630  70.4527280
  15.4241500 121.1493730  71.0013110  16.1680450 119.8357850  70.8873470
  27.3822680 123.8593350  85.7212430  28.1748000 123.3642580  85.5138390
  27.6755830 124.5383490  86.3288040  23.5082340 114.7314290  56.6028480
  23.4276390 113.8168900  56.3320190  23.0946760 115.2281360  55.8968190
  21.6400380 116.5093310  58.4837750  20.8642480 116.0293750  58.7736320
  22.2913310 115.8298960  58.3093910  15.6566210 116.8213120  59.3613510
  14.8251090 116.5661830  59.7610020  16.2647190 116.8923890  60.0971430
  25.6607810 120.9153500  57.2636880  25.1989340 120.1440740  57.5924050
  26.4733360 120.9419570  57.7689330  15.6367470 120.8553210  59.5571530
  15.9395510 119.9650950  59.3781750  16.3811060 121.4123430  59.3293780
  14.0658160 111.7815010  53.1455900  13.1774860 112.1230980  53.0435780
  14.3499350 111.5815330  52.2536730  12.0291170 114.3820660  59.0295600
  12.6007280 113.6142860  59.0299240  12.0292710 114.6809420  58.1202210
  21.8871120 123.2011510  56.8840870  21.2682560 123.6569010  56.3135310
  22.7422900 123.3562970  56.4830570  21.0809370 119.1850500  58.4907910
  21.0117650 118.2440440  58.3297040  21.8429230 119.2751910  59.0630480
  13.2716040 109.7905020  60.8164530  13.0918880 108.8930770  61.0967290
  12.8696120 110.3376890  61.4911480  22.1114540 111.9920880  58.7176840
  22.4879360 111.1192760  58.6050510  22.0134050 112.3279580  57.8267280
  16.2419550 110.3646510  54.1794280  16.3486300 111.2650240  54.4863040
  15.3311910 110.3164480  53.8888930  25.8938660 109.4871320  55.6505180
  26.7148280 108.9967890  55.6930660  25.9272740 110.0768980  56.4037020
  13.8902710 112.2865520  59.4246870  14.5712820 112.5503890  60.0434270
  13.5750760 111.4466390  59.7584880  18.0827280 113.3332880  58.5119460
  18.5905500 113.8313850  59.1524480  18.6140520 112.5568080  58.3358820
  30.1838210 111.5038070  62.2148810  29.4790380 111.8919780  61.6963920
  30.4496130 112.1988360  62.8169740  16.3663380 107.9731440  62.7782880
  16.3681820 108.4903830  61.9728780  15.5367690 107.4961620  62.7552810
  22.7534470 118.0850750  54.2772780  22.1351740 118.5500200  53.7135500
  23.2657720 118.7778230  54.6942290  17.6166230 117.6126620  60.9556380
  17.2835610 118.2395540  61.5977450  17.7932910 118.1388500  60.1758050
  26.1300140 111.4271700  58.4232720  25.4255710 111.7156590  59.0035830
  26.4912300 112.2371810  58.0632280  16.0478710 109.6841400  60.7853330
  16.3895520 110.5283450  60.4907200  15.1094520 109.8325140  60.9018670
  16.8285330 119.5807420  62.7705560  17.4459330 120.2558500  62.4890010
  15.9678450 119.9895400  62.6793060  12.1217670 118.7707280  51.6512410
  11.7445650 119.2594380  50.9197310  12.3790740 119.4432560  52.2818940
  27.7462920 121.0446830  60.6860200  27.0626440 121.7145940  60.6776870
  28.2857210 121.2427480  59.9205060  29.1987060 110.8726490  58.8141930
  28.2511970 110.9065470  58.9457360  29.5237050 111.6865440  59.1991290
  19.7306600 107.1723670  57.1097920  20.0381580 106.6170560  56.3933420
  18.8007300 107.3068130  56.9270910  25.2821660 122.8890960  59.4005380
  25.2948820 122.4853250  58.5327640  24.7296880 123.6638250  59.2966810
  26.5767080 119.6107180  54.4895550  26.4663410 118.6681510  54.6144970
  26.5735330 119.9722820  55.3758310  24.6807100 117.7920800  60.7287990
  25.0975890 117.5780910  59.8941450  25.4046920 118.0493590  61.2996610
  22.1187360 115.2372500  53.8458040  21.1916640 115.1709880  54.0746510
  22.2712180 116.1752630  53.7313280  22.1056440 111.5089500  50.8425200
  21.1660110 111.6703460  50.9277660  22.4239700 112.2275180  50.2961190
  28.6269200 116.1908020  60.8204230  27.7987830 116.2601110  60.3454360
  29.2219680 116.7762330  60.3520060  26.1484650 116.7992800  54.3493290
  25.5297070 116.4612350  53.7019590  26.1309100 116.1552560  55.0572480
  25.5911210 112.9777340  61.7659100  25.1782390 113.8031050  62.0199090
  24.8587160 112.3922380  61.5735460  17.7244000 115.7637240  56.6277770
  17.3201000 115.0514490  56.1323670  17.8107120 115.4190480  57.5165810
  18.1925700 119.4504800  58.7916980  17.8953990 118.8450270  58.1124760
  19.1425520 119.4882110  58.6806340  16.4372620 112.5380450  60.4076810
  16.9887210 112.6475790  59.6330060  16.9516130 112.9118050  61.1232040
  26.2811310 123.0236670  62.4540080  25.8041870 123.8308860  62.2612690
  25.5973100 122.3715000  62.6066290  17.2844130 119.1886490  65.4424780
  16.3872660 119.4126460  65.6898180  17.3097000 119.3121430  64.4936180
  24.3249350 116.0379610  51.3566040  24.7642630 115.2002040  51.2103860
  25.0377770 116.6709010  51.4430180  16.1115350 116.0599810  64.0182150
  15.9723120 116.9322610  64.3869550  15.2296710 115.7172620  63.8730090
  22.4344730 120.9775680  55.3247280  22.8740640 121.7200010  54.9102670
  22.3731620 121.2202250  56.2486240  17.9095700 122.0021510  66.2267300
  17.8811130 122.4064460  65.3595730  17.7460670 121.0731870  66.0638900
  14.4248630 114.6582220  54.1284420  14.3046230 115.3844310  53.5165690
  14.1149520 113.8885130  53.6512330  29.8610520 122.7848610  67.5231470
  30.3370240 123.2631500  68.2020550  30.4817680 122.7166100  66.7976970
  12.0634000 117.8297360  59.9353060  12.1414420 117.9646130  58.9908780
  12.6775680 117.1213250  60.1281180  13.3081630 119.5297550  56.3459240
  12.9009710 119.6712140  55.4912840  14.1994640 119.2457710  56.1430450
  29.2643770 119.9761460  64.6831480  29.3906830 119.7373340  63.7648660
  29.3065150 119.1446000  65.1553560  23.1260510 123.6789460  63.2526290
  23.6405180 123.5897470  64.0548720  22.2829590 124.0249160  63.5454200
  25.1014910 123.9644800  52.6810290  24.9416050 123.6747740  53.5792120
  24.9361620 123.1884930  52.1455520  17.5803290 123.7443330  54.4581910
  17.4045770 122.8278870  54.2449710  16.7259030 124.1030620  54.6979710
  24.8041040 121.4732360  51.2408290  24.1106200 121.4709650  50.5810570
  25.5463900 121.0491680  50.8102460  24.3690970 123.0995070  55.3156780
  24.8247920 122.3184450  55.6295400  24.7083490 123.8101890  55.8597960
  29.1167780 112.0293920  65.6481220  28.5012050 112.5373590  65.1196680
  28.7964200 111.1292250  65.5907160  12.1193520 118.8711530  62.4747520
  12.2824560 118.4016890  61.6566890  12.5845970 118.3635090  63.1396360
  16.8912290 108.0017290  57.5108090  16.4480440 108.7826830  57.1792610
  17.4497280 108.3247180  58.2179030  21.1782100 110.8685810  63.1143410
  20.7161470 111.0768830  63.9263350  20.7760210 110.0545160  62.8114080
  26.1786610 112.0894760  64.2440070  25.3280200 111.7900510  64.5649140
  26.0188400 112.3336770  63.3323890  23.2736320 113.5896510  66.3438860
  23.5989730 112.7560260  66.0041090  24.0616650 114.1125030  66.4917190
  20.0071110 107.6227990  52.3913920  19.3825290 107.6187860  53.1167230
  19.9201230 106.7558950  51.9949890  18.9288190 108.5464620  59.3697690
  19.2260520 109.4527450  59.2889710  19.4773750 108.0583400  58.7557260
  16.6826510 113.1250860  55.2389340  16.4567430 112.9088030  56.1435960
  15.9019040 113.5579320  54.8935310  23.9124270 113.1314230  53.8379990
  23.3133160 113.8550030  53.6543610  24.4603880 113.0691010  53.0556440
  19.1225720 114.0236440  65.9049610  19.0269320 113.0831170  65.7550010
  19.9657700 114.2451510  65.5097680  22.5189140 111.7677770  55.8683270
  22.9118710 112.0849970  55.0551960  22.8805990 110.8889650  55.9827790
  14.2536260 110.4350110  64.0583390  13.8599650 111.2825320  64.2656170
  13.5654660 109.7976480  64.2492030  20.8281310 110.5185080  67.1280130
  20.1379630 110.3257280  67.7626220  21.5713610 110.8019720  67.6604430
  11.5553310 108.3578570  58.0913470  11.2666360 108.9281430  58.8038450
  12.2999070 107.8783020  58.4544700  11.7423540 112.2998690  49.3016190
  11.6598210 113.2429450  49.4431180  11.3906600 112.1573600  48.4228540
  23.1044280 114.3583520  59.9634050  22.3725400 114.8670330  60.3124150
  22.7068620 113.5413500  59.6622830  19.5421670 111.0337720  58.3686540
  19.5457730 110.5927670  57.5191080  20.4372790 111.3555050  58.4758360
  15.3924050 110.9164210  57.3280750  15.0524100 111.3939440  58.0847800
  14.6301370 110.4629330  56.9681850  19.6041820 112.0349800  51.3593300
  19.7254640 111.9936280  52.3079120  19.2190330 112.8973950  51.2040030
  23.5670190 109.8117200  59.3756990  23.5842930 110.2625850  60.2198840
  23.3185770 108.9122840  59.5890430  18.6163320 114.3450940  50.7576600
  18.0480220 113.8969190  50.1312510  19.3252320 114.7043720  50.2241750
  26.9940940 107.2249380  65.2143370  27.3186710 106.4939040  65.7401350
  27.0297450 106.9063020  64.3124360  13.6932500 118.2462960  64.6343330
  13.3087290 117.6056630  65.2326290  14.0044690 118.9499080  65.2038060
  19.8429640 115.0939500  60.1151950  20.2099770 114.6198070  60.8613290
  19.6534700 115.9681070  60.4560290  12.7070130 109.8383190  56.2445420
  12.4217050 109.4738860  57.0824040  12.6448990 109.1063650  55.6308560
  17.6329010 114.1348140  62.4336160  17.3286080 115.0140120  62.6586520
  18.5875470 114.1947930  62.4693600  16.1610800 118.3409130  53.0303010
  15.3873060 117.8006750  52.8701730  16.8905430 117.8215740  52.6920770
  26.9198780 117.3374490  58.8229400  27.6397900 117.8329780  58.4325510
  26.7180600 116.6592380  58.1783270  22.3808720 108.7312450  52.9658790
  21.5673330 108.2325620  52.8904100  22.1870670 109.5710700  52.5495140
  22.3017580 117.4083550  64.7098400  22.2354890 116.4879220  64.4555990
  21.6722720 117.5058990  65.4243040  25.0957110 113.1032100  51.2620950
  25.9836730 113.4149330  51.0872290  25.0662200 112.2304350  50.8701530
  16.2048200 118.0089510  56.6681820  16.7226870 117.2057770  56.6138710
  15.7532220 117.9468650  57.5098650  21.0917700 119.2755790  51.9409120
  21.4333400 120.0198020  51.4452440  20.2630410 119.5886910  52.3033950
  13.6892740 114.9750880  63.5807520  13.3307680 115.6404730  64.1680860
  13.3947300 114.1434430  63.9520140  16.8905860 115.4335120  66.4647070
  16.5906000 115.5792300  65.5674890  17.6617100 114.8740410  66.3720460
  22.2334310 120.2304120  64.4602200  22.2478850 119.2985080  64.2421110
  21.5259410 120.3163880  65.0991970  27.3671380 114.4143940  50.7300810
  27.2835100 114.8458160  49.8797250  28.0865570 114.8742290  51.1627630
  28.4445520 116.8711460  63.8070780  27.7193710 117.4640240  63.6100170
  28.9720980 116.8635000  63.0084150  28.3958630 121.2686200  53.4582940
  27.7534790 120.6141820  53.7326660  28.0089290 121.6741290  52.6823610
  23.9745110 118.5971630  57.3054630  24.3268930 117.9999760  56.6456000
  23.0907440 118.2715860  57.4762880  20.0608390 119.3569320  54.7125040
  20.7479520 119.9038530  55.0932630  19.2740810 119.9010050  54.7474650
  12.2000790 114.9742140  50.2042120  13.0695640 115.2566940  50.4878040
  11.7091110 115.7878010  50.0890930  19.3635600 116.3615350  54.3250400
  19.8198380 117.1720600  54.5510590  19.0123810 116.0438490  55.1568890
  21.6668210 121.8721690  61.5542700  22.3110430 122.0781070  62.2316120
  22.0297650 121.1110090  61.1013550  15.2647380 106.7053000  54.7972920
  15.1362010 106.6970900  55.7457840  14.4409400 107.0436090  54.4463930
  22.9400290 119.8754040  60.2720150  23.5822520 119.1747200  60.3852320
  23.4649640 120.6552480  60.0917040  26.7856010 120.1602660  49.9959290
  26.5593590 119.4433100  50.5883930  26.3952210 119.9115100  49.1581040
  24.7137910 120.6748940  63.4756210  25.0494150 121.2615630  64.1534130
  23.7938250 120.5441650  63.7054000  12.5672040 124.1869520  50.7703750
  12.9269680 124.7858860  50.1161020  12.4264380 124.7329410  51.5438780
  12.2641310 108.4644120  64.2579620  11.5499830 108.6641040  64.8632230
  12.6836350 107.6883690  64.6294420  26.3672260 118.0774600  51.6573450
  26.0793960 118.5387290  52.4451330  27.1624430 117.6172370  51.9257670
  12.5513900 122.4524380  65.2446150  12.6605020 121.5119120  65.1041540
  11.8994460 122.7179130  64.5959880  20.5426490 120.7240270  66.6444270
  20.2223360 120.0049510  67.1889960  19.8684850 121.3995340  66.7180330
  18.5840660 121.5700720  51.5877420  18.5750760 122.3030410  50.9721930
  17.6639020 121.3232300  51.6804380  14.1847300 116.7915610  52.3324180
  13.5775250 117.5314510  52.3419480  14.6596650 116.8814970  51.5062380
  23.7580090 110.9566430  62.0081070  24.1260910 110.1361640  62.3360640
  22.8978290 111.0168320  62.4236720  27.1242120 109.9123370  52.8168630
  26.4955280 110.0169040  52.1026860  26.6294040 110.1320150  53.6062510
  21.5700260 121.6328960  50.2502610  21.6712240 121.4292950  49.3204590
  20.6702000 121.3787240  50.4550390  19.0926150 112.1909320  54.2326510
  18.3842300 112.6595660  54.6740120  19.3770630 111.5331330  54.8671700
  20.7182080 113.6106020  62.2319040  21.2167330 114.0851840  62.8970890
  20.8605030 112.6869540  62.4389070  23.1241580 108.9159980  55.6722300
  23.0009360 108.9346110  54.7231810  24.0726140 108.9638920  55.7920700
  20.2118370 124.1515280  54.9450280  20.4659870 124.1136670  54.0229650
  19.2630850 124.0248610  54.9378530  17.2961170 110.4994400  51.6077220
  18.1451700 110.9364550  51.5417410  16.9292440 110.8114660  52.4349280
  27.9248940 109.8273980  63.0747430  27.4222540 110.5679380  63.4141240
  28.7405600 110.2157980  62.7584220  26.2170950 115.0707160  56.5208790
  25.2761090 115.0857390  56.6956480  26.5315020 114.2843120  56.9669090
  16.1952590 116.7526760  50.0812750  16.9615860 116.6408120  50.6438180
  16.2727280 116.0564730  49.4289520  14.8899350 114.1851830  50.7645640
  14.9702940 113.2379340  50.8763040  15.7819100 114.5158710  50.8706300
  28.2196530 122.2416010  58.1963050  28.3443950 123.0647180  58.6686860
  29.0862090 122.0306740  57.8487200  15.6914060 124.3347220  57.8680180
  16.4276540 123.7862680  58.1388750  16.0754980 125.2003230  57.7286170
  12.5759540 120.4020790  53.7421690  11.6499320 120.6441930  53.7327100
  13.0415970 121.2295050  53.6206440  14.6972340 123.5193290  67.0565760
  15.4985070 123.8405340  67.4701160  14.1824160 123.1588870  67.7785670
  18.8016370 123.5077530  49.6905750  19.5944980 123.7966360  49.2387540
  18.2820720 123.0769700  49.0118230  23.5336970 119.6273160  67.0041170
  22.9275130 119.6504760  66.2636920  23.2291080 118.8956200  67.5408420
  24.9637340 123.3553450  65.6150580  25.9159090 123.2711470  65.5650820
  24.8165560 124.0195160  66.2884370  27.8546540 122.7347660  51.1142490
  27.5688050 122.3212800  50.2996670  27.6566090 123.6635370  50.9943010
  12.4170150 116.0066750  66.0001810  12.9209170 115.4274030  66.5718040
  11.6777570 116.2906980  66.5378180  19.3193770 118.7280940  49.5548100
  19.2144410 118.1133290  50.2809480  19.1517990 118.2046830  48.7711110
  19.4708090 117.4137740  65.5337330  18.7053760 117.9822740  65.4492000
  19.6524050 117.1213950  64.6405560  22.5596500 117.7900970  50.1590090
  22.0106600 118.2370270  50.8032830  23.1815760 117.2850220  50.6827760
  26.6131440 119.1443070  66.0912350  27.3540910 119.4818830  65.5879810
  25.8504120 119.3135130  65.5382120  14.4493230 114.1496340  66.8951880
  14.4898570 113.8510210  67.8037110  15.3038730 114.5503950  66.7359400
  18.2271620 116.7491890  52.0555390  18.6488040 116.5831760  52.8986780
  18.3522460 115.9392120  51.5610530  16.3899040 112.7288440  64.8626370
  15.8595500 112.2379390  64.2349710  17.0587110 113.1572640  64.3284300
  20.7399260 115.7729500  49.3032490  21.2604920 115.0578520  48.9373640
  21.3867660 116.4115370  49.6033000  25.2877100 117.1957900  64.6267560
  25.7018120 117.3502980  65.4757980  24.3528100 117.3213120  64.7893340
  25.7599270 114.5354060  66.6306710  26.3420040 113.7806380  66.5427190
  25.9361040 115.0661500  65.8538190  16.8771340 109.6950810  64.9423660
  16.7828210 109.0771560  64.2174530  16.2968730 110.4217100  64.7153570
  19.6432780 108.2524050  61.9751050  19.1950080 108.2748310  61.1296600
  19.0097980 107.8543070  62.5721350  20.0492330 117.1478380  62.5963490
  20.4680440 117.9911110  62.4239730  19.1300960 117.2850420  62.3670270
  22.3856230 114.8794560  63.9801330  22.5052440 114.2835700  64.7196170
  23.2450230 114.9164250  63.5602630  24.7244130 115.4331750  62.5563840
  24.1979350 115.9574370  61.9528980  25.0675470 116.0659140  63.1873570
  17.1230520 112.8225120  49.0013550  16.9219580 111.9592480  49.3626890
  16.9522570 112.7358480  48.0635150  17.8999750 123.4531390  63.7121220
  17.3620840 124.1777450  63.3929920  18.1533710 122.9761730  62.9218560
  19.1525000 111.4215910  65.2377150  19.7424690 111.1131760  65.9254970
  18.3345240 110.9495660  65.3937050  23.9718430 111.0381720  65.4710170
  23.2833950 110.3763260  65.4060160  24.6924450 110.5919990  65.9158630
  24.6018830 107.6333350  51.5300430  24.8821120 106.7901250  51.8859850
  23.8284560 107.8656460  52.0439180  15.9213320 109.9225740  48.9891430
  16.2239220 109.9293170  48.0810580  16.6607910 109.5723600  49.4859090
  20.7561960 124.6882600  63.9707870  20.6820660 125.5917740  64.2780240
  19.8540800 124.3694500  63.9429940  19.1398250 108.8660360  49.9747630
  18.7920250 108.1884350  49.3950080  19.3411020 108.4049870  50.7891020
  21.3047290 123.8541110  51.5934230  22.1998080 124.1926080  51.6152990
  21.3364920 123.1320520  50.9658510  14.9443450 119.2268160  49.8221230
  15.3818320 119.7697830  50.4778810  15.4291180 118.4015110  49.8317570
  12.1589250 122.0157190  57.2741490  12.4892260 121.1478250  57.0420130
  12.5880250 122.2215710  58.1046450  16.7551170 120.3466200  54.9343460
  16.4546710 120.2231170  55.8347370  16.6488660 119.4874790  54.5259190
  12.6479460 122.8827780  60.0123120  12.2110450 123.0628580  60.8447270
  13.2157140 123.6402400  59.8704840  28.2841640 122.3844780  64.3000430
  27.6843630 122.4437340  63.5564350  28.4135540 121.4449760  64.4297280
  29.5243090 120.1262600  49.6370140  28.6936050 120.1939250  50.1077370
  29.7014920 121.0166720  49.3337000  28.9799550 116.8710080  52.1404340
  29.7418460 117.4406730  52.2464030  28.9953920 116.3037280  52.9112650
  12.4803890 115.3948010  56.3712000  11.8252730 115.1259650  55.7271700
  13.3181840 115.2852490  55.9213980  26.9693280 119.1096760  62.3976590
  26.1553120 119.5393920  62.6602380  27.3767480 119.7215170  61.7845640
  29.0318720 117.1644450  49.2976860  29.3067560 118.0723330  49.1696080
  28.8429460 117.1006980  50.2338850  25.4294330 110.1889300  50.5930490
  25.8479210 110.0020280  49.7527150  25.1230390 109.3368350  50.9033420
  13.5179820 115.7800580  60.9115340  13.8852860 115.6927980  61.7911360
  12.9490640 115.0167130  60.8122200  28.3183680 114.2484960  63.9245810
  28.0869770 114.0197710  63.0243760  28.5788230 115.1684510  63.8790700
  13.0695820 112.6909670  64.8173760  12.1751870 112.6576430  65.1567470
  13.6093370 112.8896460  65.5825010  26.7571750 109.4741390  66.7025510
  27.6341930 109.4824790  67.0859510  26.7692590 108.7372230  66.0917860
  11.6941970 112.6046940  52.3137330  10.7906050 112.8677140  52.1388990
  12.1782590 112.8758110  51.5337290  28.2035020 113.3270930  57.5913530
  28.7272500 112.8333580  56.9603700  28.7894440 113.4621290  58.3361100
  28.3824740 113.4110800  61.1133080  27.4327450 113.3774340  61.2278070
  28.5637750 114.3210910  60.8782850  14.2369180 111.6612480  50.2231710
  14.9460880 111.2395700  49.7378990  13.5209120 111.7287710  49.5915060
  13.8843340 107.7151810  49.2634360  14.6071470 108.2560750  49.5815580
  14.1567860 107.4415230  48.3875900  13.5735530 106.9658000  59.1656980
  14.2211720 106.4155380  58.7252140  13.9937370 107.2201150  59.9872790
  27.4687870 107.1599360  62.5226620  28.1060090 107.7733500  62.8885810
  27.6162760 107.1960020  61.5775850  27.0269330 123.8615360  55.9244860
  27.6228400 123.5399930  55.2479280  27.2847480 123.3887180  56.7158130
  13.3267530 107.1213670  61.9082300  12.9782350 107.5777490  62.6740480
  12.9955230 106.2270800  61.9904730  14.9331900 120.2933270  66.0735490
  14.8901530 119.9226180  66.9549950  15.0642910 121.2310840  66.2137310
  18.6337930 121.8492860  61.6745210  18.3929290 122.1167420  60.7875730
  19.5740570 122.0198590  61.7296070  20.8392350 108.3125550  65.4301720
  20.7781240 108.9047380  66.1797130  21.7792730 108.2051510  65.2851980
  23.4766910 107.9695610  65.0694010  24.0907320 108.2874900  64.4075090
  24.0216470 107.4844200  65.6889870  29.8942090 123.8687240  62.4755850
  29.4000370 124.2656110  61.7582980  29.2855380 123.2436450  62.8693130
  13.9988170 106.6489870  65.1833070  14.5471160 106.4677920  64.4199180
  14.0643480 105.8583980  65.7189380  14.7719930 123.2395520  63.1933270
  14.1780250 123.1080220  63.9323310  14.7643770 122.4033660  62.7275370
  24.2174950 106.5327750  61.3963300  23.3434790 106.8662860  61.1936230
  24.1085700 106.0600930  62.2215170  25.1246930 108.7398620  62.7805020
  24.7960290 107.9250380  62.4006750  26.0729230 108.6968430  62.6570710
  27.5781540 124.5110660  59.7542590  27.1184510 125.2626470  59.3800610
  26.9494000 123.7917130  59.6957390  14.4032160 120.6053900  62.1441310
  13.6766220 119.9859190  62.0767260  14.4641310 120.9994510  61.2739390
  18.0077260 122.8198900  58.9290720  18.5242280 122.2086260  58.4038980
  18.6574640 123.3227680  59.4201730  20.7472760 123.7107390  59.7559700
  21.0350570 123.4561690  58.8792710  21.2595980 123.1584750  60.3465270
  21.9649770 107.4497590  60.3356210  21.1821560 107.9243090  60.6152970
  21.6712700 106.5452420  60.2269390  26.5170840 108.1520690  58.3805300
  26.9578930 108.0965790  57.5326900  26.2478430 109.0678700  58.4515480
  28.3809410 107.7835930  56.3914120  28.3197810 106.8397150  56.2445140
  29.1601440 107.8916020  56.9367580  12.6862160 123.9228290  55.3538070
  12.5184200 123.2898970  56.0519960  11.8196670 124.1287690  55.0032260
  13.3090180 107.7545070  52.8569930  14.0669540 107.8673950  52.2833960
  12.8467350 108.5914270  52.8113360  19.8503990 109.8684340  55.8472240
  19.0378500 109.4941230  55.5068120  20.3545630 109.1129420  56.1493430
  24.3528970 106.5326790  57.0855310  24.9558340 107.1047000  57.5603830
  23.6121960 107.0966230  56.8629210  14.2924860 122.6161520  52.7988210
  13.7672480 122.9969550  52.0950170  14.2169440 123.2412290  53.5197920
  15.6815330 108.2809120  51.3971900  16.2108090 107.4938920  51.2679850
  16.3143650 108.9600310  51.6307430  17.8753170 108.0184260  54.4517290
  17.2455910 107.3171570  54.6187420  17.3358310 108.7788390  54.2350450
  20.8145120 124.6323490  67.1227900  21.7412430 124.3967760  67.1663860
  20.7995550 125.4595490  66.6413930  29.0490180 124.1749060  54.1202150
  29.2242370 123.4886800  53.4763070  28.3511750 124.6996110  53.7278820
  18.0008730 107.2968240  66.8869780  17.7193000 107.8001840  66.1230600
  18.3828430 106.4989990  66.5211910  16.8917830 124.5643900  51.6737460
  17.6236650 124.2803180  51.1261350  17.1511500 124.3257180  52.5636840
  16.0532620 120.6808630  51.6783790  15.4241500 121.1493730  52.2269620
  16.1680450 119.8357850  52.1129980  24.6024190 106.7121820  67.4650250
  24.4889640 107.0316430  68.3601770  25.4193930 107.1134330  67.1687530
  27.3822680 123.8593350  66.9468940  28.1748000 123.3642580  66.7394900
  27.6755830 124.5383490  67.5544550  23.5082340 114.7314290  37.8284990
  23.4276390 113.8168900  37.5576700  23.0946760 115.2281360  37.1224700
  21.6400380 116.5093310  39.7094260  20.8642480 116.0293750  39.9992830
  22.2913310 115.8298960  39.5350420  15.6566210 116.8213120  40.5870020
  14.8251090 116.5661830  40.9866530  16.2647190 116.8923890  41.3227940
  25.6607810 120.9153500  38.4893390  25.1989340 120.1440740  38.8180560
  26.4733360 120.9419570  38.9945840  15.6367470 120.8553210  40.7828040
  15.9395510 119.9650950  40.6038260  16.3811060 121.4123430  40.5550290
  14.0658160 111.7815010  34.3712410  13.1774860 112.1230980  34.2692290
  14.3499350 111.5815330  33.4793240  12.0291170 114.3820660  40.2552110
  12.6007280 113.6142860  40.2555750  12.0292710 114.6809420  39.3458720
  21.8871120 123.2011510  38.1097380  21.2682560 123.6569010  37.5391820
  22.7422900 123.3562970  37.7087080  21.0809370 119.1850500  39.7164420
  21.0117650 118.2440440  39.5553550  21.8429230 119.2751910  40.2886990
  13.2716040 109.7905020  42.0421040  13.0918880 108.8930770  42.3223800
  12.8696120 110.3376890  42.7167990  22.1114540 111.9920880  39.9433350
  22.4879360 111.1192760  39.8307020  22.0134050 112.3279580  39.0523790
  16.2419550 110.3646510  35.4050790  16.3486300 111.2650240  35.7119550
  15.3311910 110.3164480  35.1145440  25.8938660 109.4871320  36.8761690
  26.7148280 108.9967890  36.9187170  25.9272740 110.0768980  37.6293530
  13.8902710 112.2865520  40.6503380  14.5712820 112.5503890  41.2690780
  13.5750760 111.4466390  40.9841390  18.0827280 113.3332880  39.7375970
  18.5905500 113.8313850  40.3780990  18.6140520 112.5568080  39.5615330
  30.1838210 111.5038070  43.4405320  29.4790380 111.8919780  42.9220430
  30.4496130 112.1988360  44.0426250  16.3663380 107.9731440  44.0039390
  16.3681820 108.4903830  43.1985290  15.5367690 107.4961620  43.9809320
  22.7534470 118.0850750  35.5029290  22.1351740 118.5500200  34.9392010
  23.2657720 118.7778230  35.9198800  17.6166230 117.6126620  42.1812890
  17.2835610 118.2395540  42.8233960  17.7932910 118.1388500  41.4014560
  26.1300140 111.4271700  39.6489230  25.4255710 111.7156590  40.2292340
  26.4912300 112.2371810  39.2888790  16.0478710 109.6841400  42.0109840
  16.3895520 110.5283450  41.7163710  15.1094520 109.8325140  42.1275180
  16.8285330 119.5807420  43.9962070  17.4459330 120.2558500  43.7146520
  15.9678450 119.9895400  43.9049570  12.1217670 118.7707280  32.8768920
  11.7445650 119.2594380  32.1453820  12.3790740 119.4432560  33.5075450
  27.7462920 121.0446830  41.9116710  27.0626440 121.7145940  41.9033380
  28.2857210 121.2427480  41.1461570  29.1987060 110.8726490  40.0398440
  28.2511970 110.9065470  40.1713870  29.5237050 111.6865440  40.4247800
  19.7306600 107.1723670  38.3354430  20.0381580 106.6170560  37.6189930
  18.8007300 107.3068130  38.1527420  25.2821660 122.8890960  40.6261890
  25.2948820 122.4853250  39.7584150  24.7296880 123.6638250  40.5223320
  26.5767080 119.6107180  35.7152060  26.4663410 118.6681510  35.8401480
  26.5735330 119.9722820  36.6014820  24.6807100 117.7920800  41.9544500
  25.0975890 117.5780910  41.1197960  25.4046920 118.0493590  42.5253120
  22.1187360 115.2372500  35.0714550  21.1916640 115.1709880  35.3003020
  22.2712180 116.1752630  34.9569790  22.1056440 111.5089500  32.0681710
  21.1660110 111.6703460  32.1534170  22.4239700 112.2275180  31.5217700
  28.6269200 116.1908020  42.0460740  27.7987830 116.2601110  41.5710870
  29.2219680 116.7762330  41.5776570  26.1484650 116.7992800  35.5749800
  25.5297070 116.4612350  34.9276100  26.1309100 116.1552560  36.2828990
  25.5911210 112.9777340  42.9915610  25.1782390 113.8031050  43.2455600
  24.8587160 112.3922380  42.7991970  17.7244000 115.7637240  37.8534280
  17.3201000 115.0514490  37.3580180  17.8107120 115.4190480  38.7422320
  18.1925700 119.4504800  40.0173490  17.8953990 118.8450270  39.3381270
  19.1425520 119.4882110  39.9062850  16.4372620 112.5380450  41.6333320
  16.9887210 112.6475790  40.8586570  16.9516130 112.9118050  42.3488550
  26.2811310 123.0236670  43.6796590  25.8041870 123.8308860  43.4869200
  25.5973100 122.3715000  43.8322800  17.2844130 119.1886490  46.6681290
  16.3872660 119.4126460  46.9154690  17.3097000 119.3121430  45.7192690
  24.3249350 116.0379610  32.5822550  24.7642630 115.2002040  32.4360370
  25.0377770 116.6709010  32.6686690  16.1115350 116.0599810  45.2438660
  15.9723120 116.9322610  45.6126060  15.2296710 115.7172620  45.0986600
  22.4344730 120.9775680  36.5503790  22.8740640 121.7200010  36.1359180
  22.3731620 121.2202250  37.4742750  17.9095700 122.0021510  47.4523810
  17.8811130 122.4064460  46.5852240  17.7460670 121.0731870  47.2895410
  27.9066490 107.2922420  30.8963590  27.5939150 107.3849250  31.7962660
  28.6678960 107.8703450  30.8461020  14.4248630 114.6582220  35.3540930
  14.3046230 115.3844310  34.7422200  14.1149520 113.8885130  34.8768840
  29.8610520 122.7848610  48.7487980  30.3370240 123.2631500  49.4277060
  30.4817680 122.7166100  48.0233480  12.0634000 117.8297360  41.1609570
  12.1414420 117.9646130  40.2165290  12.6775680 117.1213250  41.3537690
  13.3081630 119.5297550  37.5715750  12.9009710 119.6712140  36.7169350
  14.1994640 119.2457710  37.3686960  29.2643770 119.9761460  45.9087990
  29.3906830 119.7373340  44.9905170  29.3065150 119.1446000  46.3810070
  23.1260510 123.6789460  44.4782800  23.6405180 123.5897470  45.2805230
  22.2829590 124.0249160  44.7710710  25.1014910 123.9644800  33.9066800
  24.9416050 123.6747740  34.8048630  24.9361620 123.1884930  33.3712030
  17.5803290 123.7443330  35.6838420  17.4045770 122.8278870  35.4706220
  16.7259030 124.1030620  35.9236220  24.8041040 121.4732360  32.4664800
  24.1106200 121.4709650  31.8067080  25.5463900 121.0491680  32.0358970
  24.3690970 123.0995070  36.5413290  24.8247920 122.3184450  36.8551910
  24.7083490 123.8101890  37.0854470  29.1167780 112.0293920  46.8737730
  28.5012050 112.5373590  46.3453190  28.7964200 111.1292250  46.8163670
  12.1193520 118.8711530  43.7004030  12.2824560 118.4016890  42.8823400
  12.5845970 118.3635090  44.3652870  16.8912290 108.0017290  38.7364600
  16.4480440 108.7826830  38.4049120  17.4497280 108.3247180  39.4435540
  21.1782100 110.8685810  44.3399920  20.7161470 111.0768830  45.1519860
  20.7760210 110.0545160  44.0370590  26.1786610 112.0894760  45.4696580
  25.3280200 111.7900510  45.7905650  26.0188400 112.3336770  44.5580400
  23.2736320 113.5896510  47.5695370  23.5989730 112.7560260  47.2297600
  24.0616650 114.1125030  47.7173700  20.0071110 107.6227990  33.6170430
  19.3825290 107.6187860  34.3423740  19.9201230 106.7558950  33.2206400
  18.9288190 108.5464620  40.5954200  19.2260520 109.4527450  40.5146220
  19.4773750 108.0583400  39.9813770  16.6826510 113.1250860  36.4645850
  16.4567430 112.9088030  37.3692470  15.9019040 113.5579320  36.1191820
  23.9124270 113.1314230  35.0636500  23.3133160 113.8550030  34.8800120
  24.4603880 113.0691010  34.2812950  19.1225720 114.0236440  47.1306120
  19.0269320 113.0831170  46.9806520  19.9657700 114.2451510  46.7354190
  22.5189140 111.7677770  37.0939780  22.9118710 112.0849970  36.2808470
  22.8805990 110.8889650  37.2084300  14.2536260 110.4350110  45.2839900
  13.8599650 111.2825320  45.4912680  13.5654660 109.7976480  45.4748540
  20.8281310 110.5185080  48.3536640  20.1379630 110.3257280  48.9882730
  21.5713610 110.8019720  48.8860940  11.5553310 108.3578570  39.3169980
  11.2666360 108.9281430  40.0294960  12.2999070 107.8783020  39.6801210
  11.7423540 112.2998690  30.5272700  11.6598210 113.2429450  30.6687690
  11.3906600 112.1573600  29.6485050  23.1044280 114.3583520  41.1890560
  22.3725400 114.8670330  41.5380660  22.7068620 113.5413500  40.8879340
  19.5421670 111.0337720  39.5943050  19.5457730 110.5927670  38.7447590
  20.4372790 111.3555050  39.7014870  15.3924050 110.9164210  38.5537260
  15.0524100 111.3939440  39.3104310  14.6301370 110.4629330  38.1938360
  19.6041820 112.0349800  32.5849810  19.7254640 111.9936280  33.5335630
  19.2190330 112.8973950  32.4296540  23.5670190 109.8117200  40.6013500
  23.5842930 110.2625850  41.4455350  23.3185770 108.9122840  40.8146940
  18.6163320 114.3450940  31.9833110  18.0480220 113.8969190  31.3569020
  19.3252320 114.7043720  31.4498260  13.6932500 118.2462960  45.8599840
  13.3087290 117.6056630  46.4582800  14.0044690 118.9499080  46.4294570
  19.8429640 115.0939500  41.3408460  20.2099770 114.6198070  42.0869800
  19.6534700 115.9681070  41.6816800  12.7070130 109.8383190  37.4701930
  12.4217050 109.4738860  38.3080550  12.6448990 109.1063650  36.8565070
  17.6329010 114.1348140  43.6592670  17.3286080 115.0140120  43.8843030
  18.5875470 114.1947930  43.6950110  16.1610800 118.3409130  34.2559520
  15.3873060 117.8006750  34.0958240  16.8905430 117.8215740  33.9177280
  26.9198780 117.3374490  40.0485910  27.6397900 117.8329780  39.6582020
  26.7180600 116.6592380  39.4039780  22.3808720 108.7312450  34.1915300
  21.5673330 108.2325620  34.1160610  22.1870670 109.5710700  33.7751650
  22.3017580 117.4083550  45.9354910  22.2354890 116.4879220  45.6812500
  21.6722720 117.5058990  46.6499550  25.0957110 113.1032100  32.4877460
  25.9836730 113.4149330  32.3128800  25.0662200 112.2304350  32.0958040
  16.2048200 118.0089510  37.8938330  16.7226870 117.2057770  37.8395220
  15.7532220 117.9468650  38.7355160  21.0917700 119.2755790  33.1665630
  21.4333400 120.0198020  32.6708950  20.2630410 119.5886910  33.5290460
  13.6892740 114.9750880  44.8064030  13.3307680 115.6404730  45.3937370
  13.3947300 114.1434430  45.1776650  16.8905860 115.4335120  47.6903580
  16.5906000 115.5792300  46.7931400  17.6617100 114.8740410  47.5976970
  22.2334310 120.2304120  45.6858710  22.2478850 119.2985080  45.4677620
  21.5259410 120.3163880  46.3248480  27.3671380 114.4143940  31.9557320
  27.2835100 114.8458160  31.1053760  28.0865570 114.8742290  32.3884140
  28.4445520 116.8711460  45.0327290  27.7193710 117.4640240  44.8356680
  28.9720980 116.8635000  44.2340660  28.3958630 121.2686200  34.6839450
  27.7534790 120.6141820  34.9583170  28.0089290 121.6741290  33.9080120
  23.9745110 118.5971630  38.5311140  24.3268930 117.9999760  37.8712510
  23.0907440 118.2715860  38.7019390  20.0608390 119.3569320  35.9381550
  20.7479520 119.9038530  36.3189140  19.2740810 119.9010050  35.9731160
  12.2000790 114.9742140  31.4298630  13.0695640 115.2566940  31.7134550
  11.7091110 115.7878010  31.3147440  19.3635600 116.3615350  35.5506910
  19.8198380 117.1720600  35.7767100  19.0123810 116.0438490  36.3825400
  21.6668210 121.8721690  42.7799210  22.3110430 122.0781070  43.4572630
  22.0297650 121.1110090  42.3270060  15.2647380 106.7053000  36.0229430
  15.1362010 106.6970900  36.9714350  14.4409400 107.0436090  35.6720440
  22.9400290 119.8754040  41.4976660  23.5822520 119.1747200  41.6108830
  23.4649640 120.6552480  41.3173550  26.7856010 120.1602660  31.2215800
  26.5593590 119.4433100  31.8140440  26.3952210 119.9115100  30.3837550
  24.7137910 120.6748940  44.7012720  25.0494150 121.2615630  45.3790640
  23.7938250 120.5441650  44.9310510  12.5672040 124.1869520  31.9960260
  12.9269680 124.7858860  31.3417530  12.4264380 124.7329410  32.7695290
  12.2641310 108.4644120  45.4836130  11.5499830 108.6641040  46.0888740
  12.6836350 107.6883690  45.8550930  26.3672260 118.0774600  32.8829960
  26.0793960 118.5387290  33.6707840  27.1624430 117.6172370  33.1514180
  12.5513900 122.4524380  46.4702660  12.6605020 121.5119120  46.3298050
  11.8994460 122.7179130  45.8216390  20.5426490 120.7240270  47.8700780
  20.2223360 120.0049510  48.4146470  19.8684850 121.3995340  47.9436840
  18.5840660 121.5700720  32.8133930  18.5750760 122.3030410  32.1978440
  17.6639020 121.3232300  32.9060890  14.1847300 116.7915610  33.5580690
  13.5775250 117.5314510  33.5675990  14.6596650 116.8814970  32.7318890
  23.7580090 110.9566430  43.2337580  24.1260910 110.1361640  43.5617150
  22.8978290 111.0168320  43.6493230  27.1242120 109.9123370  34.0425140
  26.4955280 110.0169040  33.3283370  26.6294040 110.1320150  34.8319020
  21.5700260 121.6328960  31.4759120  21.6712240 121.4292950  30.5461100
  20.6702000 121.3787240  31.6806900  19.0926150 112.1909320  35.4583020
  18.3842300 112.6595660  35.8996630  19.3770630 111.5331330  36.0928210
  20.7182080 113.6106020  43.4575550  21.2167330 114.0851840  44.1227400
  20.8605030 112.6869540  43.6645580  23.1241580 108.9159980  36.8978810
  23.0009360 108.9346110  35.9488320  24.0726140 108.9638920  37.0177210
  20.2118370 124.1515280  36.1706790  20.4659870 124.1136670  35.2486160
  19.2630850 124.0248610  36.1635040  17.2961170 110.4994400  32.8333730
  18.1451700 110.9364550  32.7673920  16.9292440 110.8114660  33.6605790
  27.9248940 109.8273980  44.3003940  27.4222540 110.5679380  44.6397750
  28.7405600 110.2157980  43.9840730  26.2170950 115.0707160  37.7465300
  25.2761090 115.0857390  37.9212990  26.5315020 114.2843120  38.1925600
  16.1952590 116.7526760  31.3069260  16.9615860 116.6408120  31.8694690
  16.2727280 116.0564730  30.6546030  14.8899350 114.1851830  31.9902150
  14.9702940 113.2379340  32.1019550  15.7819100 114.5158710  32.0962810
  28.2196530 122.2416010  39.4219560  28.3443950 123.0647180  39.8943370
  29.0862090 122.0306740  39.0743710  15.6914060 124.3347220  39.0936690
  16.4276540 123.7862680  39.3645260  16.0754980 125.2003230  38.9542680
  12.5759540 120.4020790  34.9678200  11.6499320 120.6441930  34.9583610
  13.0415970 121.2295050  34.8462950  14.6972340 123.5193290  48.2822270
  15.4985070 123.8405340  48.6957670  14.1824160 123.1588870  49.0042180
  18.8016370 123.5077530  30.9162260  19.5944980 123.7966360  30.4644050
  18.2820720 123.0769700  30.2374740  23.5336970 119.6273160  48.2297680
  22.9275130 119.6504760  47.4893430  23.2291080 118.8956200  48.7664930
  24.9637340 123.3553450  46.8407090  25.9159090 123.2711470  46.7907330
  24.8165560 124.0195160  47.5140880  27.8546540 122.7347660  32.3399000
  27.5688050 122.3212800  31.5253180  27.6566090 123.6635370  32.2199520
  12.4170150 116.0066750  47.2258320  12.9209170 115.4274030  47.7974550
  11.6777570 116.2906980  47.7634690  19.3193770 118.7280940  30.7804610
  19.2144410 118.1133290  31.5065990  19.1517990 118.2046830  29.9967620
  19.4708090 117.4137740  46.7593840  18.7053760 117.9822740  46.6748510
  19.6524050 117.1213950  45.8662070  22.5596500 117.7900970  31.3846600
  22.0106600 118.2370270  32.0289340  23.1815760 117.2850220  31.9084270
  26.6131440 119.1443070  47.3168860  27.3540910 119.4818830  46.8136320
  25.8504120 119.3135130  46.7638630  14.4493230 114.1496340  48.1208390
  14.4898570 113.8510210  49.0293620  15.3038730 114.5503950  47.9615910
  18.2271620 116.7491890  33.2811900  18.6488040 116.5831760  34.1243290
  18.3522460 115.9392120  32.7867040  16.3899040 112.7288440  46.0882880
  15.8595500 112.2379390  45.4606220  17.0587110 113.1572640  45.5540810
  20.7399260 115.7729500  30.5289000  21.2604920 115.0578520  30.1630150
  21.3867660 116.4115370  30.8289510  25.2877100 117.1957900  45.8524070
  25.7018120 117.3502980  46.7014490  24.3528100 117.3213120  46.0149850
  25.7599270 114.5354060  47.8563220  26.3420040 113.7806380  47.7683700
  25.9361040 115.0661500  47.0794700  16.8771340 109.6950810  46.1680170
  16.7828210 109.0771560  45.4431040  16.2968730 110.4217100  45.9410080
  19.6432780 108.2524050  43.2007560  19.1950080 108.2748310  42.3553110
  19.0097980 107.8543070  43.7977860  20.0492330 117.1478380  43.8220000
  20.4680440 117.9911110  43.6496240  19.1300960 117.2850420  43.5926780
  22.3856230 114.8794560  45.2057840  22.5052440 114.2835700  45.9452680
  23.2450230 114.9164250  44.7859140  24.7244130 115.4331750  43.7820350
  24.1979350 115.9574370  43.1785490  25.0675470 116.0659140  44.4130080
  17.1230520 112.8225120  30.2270060  16.9219580 111.9592480  30.5883400
  16.9522570 112.7358480  29.2891660  17.8999750 123.4531390  44.9377730
  17.3620840 124.1777450  44.6186430  18.1533710 122.9761730  44.1475070
  19.1525000 111.4215910  46.4633660  19.7424690 111.1131760  47.1511480
  18.3345240 110.9495660  46.6193560  23.9718430 111.0381720  46.6966680
  23.2833950 110.3763260  46.6316670  24.6924450 110.5919990  47.1415140
  24.6018830 107.6333350  32.7556940  24.8821120 106.7901250  33.1116360
  23.8284560 107.8656460  33.2695690  15.9213320 109.9225740  30.2147940
  16.2239220 109.9293170  29.3067090  16.6607910 109.5723600  30.7115600
  20.7561960 124.6882600  45.1964380  20.6820660 125.5917740  45.5036750
  19.8540800 124.3694500  45.1686450  19.1398250 108.8660360  31.2004140
  18.7920250 108.1884350  30.6206590  19.3411020 108.4049870  32.0147530
  21.3047290 123.8541110  32.8190740  22.1998080 124.1926080  32.8409500
  21.3364920 123.1320520  32.1915020  14.9443450 119.2268160  31.0477740
  15.3818320 119.7697830  31.7035320  15.4291180 118.4015110  31.0574080
  12.1589250 122.0157190  38.4998000  12.4892260 121.1478250  38.2676640
  12.5880250 122.2215710  39.3302960  16.7551170 120.3466200  36.1599970
  16.4546710 120.2231170  37.0603880  16.6488660 119.4874790  35.7515700
  12.6479460 122.8827780  41.2379630  12.2110450 123.0628580  42.0703780
  13.2157140 123.6402400  41.0961350  28.2841640 122.3844780  45.5256940
  27.6843630 122.4437340  44.7820860  28.4135540 121.4449760  45.6553790
  29.5243090 120.1262600  30.8626650  28.6936050 120.1939250  31.3333880
  29.7014920 121.0166720  30.5593510  28.9799550 116.8710080  33.3660850
  29.7418460 117.4406730  33.4720540  28.9953920 116.3037280  34.1369160
  12.4803890 115.3948010  37.5968510  11.8252730 115.1259650  36.9528210
  13.3181840 115.2852490  37.1470490  29.9859520 117.7260180  38.2102780
  30.3568350 116.9427500  37.8038750  30.6261450 118.4149280  38.0320080
  26.9693280 119.1096760  43.6233100  26.1553120 119.5393920  43.8858890
  27.3767480 119.7215170  43.0102150  29.0318720 117.1644450  30.5233370
  29.3067560 118.0723330  30.3952590  28.8429460 117.1006980  31.4595360
  25.4294330 110.1889300  31.8187000  25.8479210 110.0020280  30.9783660
  25.1230390 109.3368350  32.1289930  28.9284060 115.1013440  35.5162800
  28.5527660 114.3341370  35.0844090  28.1987180 115.4836140  36.0037730
  13.5179820 115.7800580  42.1371850  13.8852860 115.6927980  43.0167870
  12.9490640 115.0167130  42.0378710  28.3183680 114.2484960  45.1502320
  28.0869770 114.0197710  44.2500270  28.5788230 115.1684510  45.1047210
  13.0695820 112.6909670  46.0430270  12.1751870 112.6576430  46.3823980
  13.6093370 112.8896460  46.8081520  26.7571750 109.4741390  47.9282020
  27.6341930 109.4824790  48.3116020  26.7692590 108.7372230  47.3174370
  11.6941970 112.6046940  33.5393840  10.7906050 112.8677140  33.3645500
  12.1782590 112.8758110  32.7593800  28.2035020 113.3270930  38.8170040
  28.7272500 112.8333580  38.1860210  28.7894440 113.4621290  39.5617610
  28.3824740 113.4110800  42.3389590  27.4327450 113.3774340  42.4534580
  28.5637750 114.3210910  42.1039360  14.2369180 111.6612480  31.4488220
  14.9460880 111.2395700  30.9635500  13.5209120 111.7287710  30.8171570
  13.8843340 107.7151810  30.4890870  14.6071470 108.2560750  30.8072090
  14.1567860 107.4415230  29.6132410  27.6934990 112.5844280  34.7562450
  28.1894110 112.3515150  35.5411330  27.4951060 111.7456120  34.3400090
  13.5735530 106.9658000  40.3913490  14.2211720 106.4155380  39.9508650
  13.9937370 107.2201150  41.2129300  29.1222150 111.2205230  37.2900130
  29.0121430 111.0661270  38.2282400  29.8829740 110.6926170  37.0475540
  27.4687870 107.1599360  43.7483130  28.1060090 107.7733500  44.1142320
  27.6162760 107.1960020  42.8032360  30.0112420 109.0513150  30.5306270
  30.9361730 108.9194330  30.3224560  29.9888210 109.1305970  31.4842720
  30.0850910 109.8223810  33.1562980  29.2902410 109.7568930  33.6855890
  30.2894190 110.7574450  33.1448330  27.0269330 123.8615360  37.1501370
  27.6228400 123.5399930  36.4735790  27.2847480 123.3887180  37.9414640
  13.3267530 107.1213670  43.1338810  12.9782350 107.5777490  43.8996990
  12.9955230 106.2270800  43.2161240  14.9331900 120.2933270  47.2992000
  14.8901530 119.9226180  48.1806460  15.0642910 121.2310840  47.4393820
  18.6337930 121.8492860  42.9001720  18.3929290 122.1167420  42.0132240
  19.5740570 122.0198590  42.9552580  20.8392350 108.3125550  46.6558230
  20.7781240 108.9047380  47.4053640  21.7792730 108.2051510  46.5108490
  23.4766910 107.9695610  46.2950520  24.0907320 108.2874900  45.6331600
  24.0216470 107.4844200  46.9146380  29.8942090 123.8687240  43.7012360
  29.4000370 124.2656110  42.9839490  29.2855380 123.2436450  44.0949640
  13.9988170 106.6489870  46.4089580  14.5471160 106.4677920  45.6455690
  14.0643480 105.8583980  46.9445890  14.7719930 123.2395520  44.4189780
  14.1780250 123.1080220  45.1579820  14.7643770 122.4033660  43.9531880
  24.2174950 106.5327750  42.6219810  23.3434790 106.8662860  42.4192740
  24.1085700 106.0600930  43.4471680  25.1246930 108.7398620  44.0061530
  24.7960290 107.9250380  43.6263260  26.0729230 108.6968430  43.8827220
  27.5781540 124.5110660  40.9799100  27.1184510 125.2626470  40.6057120
  26.9494000 123.7917130  40.9213900  14.4032160 120.6053900  43.3697820
  13.6766220 119.9859190  43.3023770  14.4641310 120.9994510  42.4995900
  18.0077260 122.8198900  40.1547230  18.5242280 122.2086260  39.6295490
  18.6574640 123.3227680  40.6458240  20.7472760 123.7107390  40.9816210
  21.0350570 123.4561690  40.1049220  21.2595980 123.1584750  41.5721780
  21.9649770 107.4497590  41.5612720  21.1821560 107.9243090  41.8409480
  21.6712700 106.5452420  41.4525900  26.5170840 108.1520690  39.6061810
  26.9578930 108.0965790  38.7583410  26.2478430 109.0678700  39.6771990
  28.3809410 107.7835930  37.6170630  28.3197810 106.8397150  37.4701650
  29.1601440 107.8916020  38.1624090  12.6862160 123.9228290  36.5794580
  12.5184200 123.2898970  37.2776470  11.8196670 124.1287690  36.2288770
  13.3090180 107.7545070  34.0826440  14.0669540 107.8673950  33.5090470
  12.8467350 108.5914270  34.0369870  19.8503990 109.8684340  37.0728750
  19.0378500 109.4941230  36.7324630  20.3545630 109.1129420  37.3749940
  24.3528970 106.5326790  38.3111820  24.9558340 107.1047000  38.7860340
  23.6121960 107.0966230  38.0885720  27.4963570 106.9348350  33.5852100
  27.6914200 107.8331800  33.8519530  26.7093440 106.7035430  34.0785050
  14.2924860 122.6161520  34.0244720  13.7672480 122.9969550  33.3206680
  14.2169440 123.2412290  34.7454430  15.6815330 108.2809120  32.6228410
  16.2108090 107.4938920  32.4936360  16.3143650 108.9600310  32.8563940
  17.8753170 108.0184260  35.6773800  17.2455910 107.3171570  35.8443930
  17.3358310 108.7788390  35.4606960  20.8145120 124.6323490  48.3484410
  21.7412430 124.3967760  48.3920370  20.7995550 125.4595490  47.8670440
  29.0490180 124.1749060  35.3458660  29.2242370 123.4886800  34.7019580
  28.3511750 124.6996110  34.9535330  18.0008730 107.2968240  48.1126290
  17.7193000 107.8001840  47.3487110  18.3828430 106.4989990  47.7468420
  16.8917830 124.5643900  32.8993970  17.6236650 124.2803180  32.3517860
  17.1511500 124.3257180  33.7893350  16.0532620 120.6808630  32.9040300
  15.4241500 121.1493730  33.4526130  16.1680450 119.8357850  33.3386490
  24.6024190 106.7121820  48.6906760  24.4889640 107.0316430  49.5858280
  25.4193930 107.1134330  48.3944040  27.3822680 123.8593350  48.1725450
  28.1748000 123.3642580  47.9651410  27.6755830 124.5383490  48.7801060
  23.5082340 114.7314290  19.0541500  23.4276390 113.8168900  18.7833210
  23.0946760 115.2281360  18.3481210  21.6400380 116.5093310  20.9350770
  20.8642480 116.0293750  21.2249340  22.2913310 115.8298960  20.7606930
  15.6566210 116.8213120  21.8126530  14.8251090 116.5661830  22.2123040
  16.2647190 116.8923890  22.5484450  25.6607810 120.9153500  19.7149900
  25.1989340 120.1440740  20.0437070  26.4733360 120.9419570  20.2202350
  15.6367470 120.8553210  22.0084550  15.9395510 119.9650950  21.8294770
  16.3811060 121.4123430  21.7806800  14.0658160 111.7815010  15.5968920
  13.1774860 112.1230980  15.4948800  14.3499350 111.5815330  14.7049750
  12.0291170 114.3820660  21.4808620  12.6007280 113.6142860  21.4812260
  12.0292710 114.6809420  20.5715230  21.8871120 123.2011510  19.3353890
  21.2682560 123.6569010  18.7648330  22.7422900 123.3562970  18.9343590
  21.0809370 119.1850500  20.9420930  21.0117650 118.2440440  20.7810060
  21.8429230 119.2751910  21.5143500  13.2716040 109.7905020  23.2677550
  13.0918880 108.8930770  23.5480310  12.8696120 110.3376890  23.9424500
  22.1114540 111.9920880  21.1689860  22.4879360 111.1192760  21.0563530
  22.0134050 112.3279580  20.2780300  16.2419550 110.3646510  16.6307300
  16.3486300 111.2650240  16.9376060  15.3311910 110.3164480  16.3401950
  25.8938660 109.4871320  18.1018200  26.7148280 108.9967890  18.1443680
  25.9272740 110.0768980  18.8550040  13.8902710 112.2865520  21.8759890
  14.5712820 112.5503890  22.4947290  13.5750760 111.4466390  22.2097900
  18.0827280 113.3332880  20.9632480  18.5905500 113.8313850  21.6037500
  18.6140520 112.5568080  20.7871840  30.1838210 111.5038070  24.6661830
  29.4790380 111.8919780  24.1476940  30.4496130 112.1988360  25.2682760
  16.3663380 107.9731440  25.2295900  16.3681820 108.4903830  24.4241800
  15.5367690 107.4961620  25.2065830  22.7534470 118.0850750  16.7285800
  22.1351740 118.5500200  16.1648520  23.2657720 118.7778230  17.1455310
  17.6166230 117.6126620  23.4069400  17.2835610 118.2395540  24.0490470
  17.7932910 118.1388500  22.6271070  26.1300140 111.4271700  20.8745740
  25.4255710 111.7156590  21.4548850  26.4912300 112.2371810  20.5145300
  16.0478710 109.6841400  23.2366350  16.3895520 110.5283450  22.9420220
  15.1094520 109.8325140  23.3531690  16.8285330 119.5807420  25.2218580
  17.4459330 120.2558500  24.9403030  15.9678450 119.9895400  25.1306080
  12.1217670 118.7707280  14.1025430  11.7445650 119.2594380  13.3710330
  12.3790740 119.4432560  14.7331960  27.7462920 121.0446830  23.1373220
  27.0626440 121.7145940  23.1289890  28.2857210 121.2427480  22.3718080
  29.1987060 110.8726490  21.2654950  28.2511970 110.9065470  21.3970380
  29.5237050 111.6865440  21.6504310  19.7306600 107.1723670  19.5610940
  20.0381580 106.6170560  18.8446440  18.8007300 107.3068130  19.3783930
  25.2821660 122.8890960  21.8518400  25.2948820 122.4853250  20.9840660
  24.7296880 123.6638250  21.7479830  26.5767080 119.6107180  16.9408570
  26.4663410 118.6681510  17.0657990  26.5735330 119.9722820  17.8271330
  24.6807100 117.7920800  23.1801010  25.0975890 117.5780910  22.3454470
  25.4046920 118.0493590  23.7509630  22.1187360 115.2372500  16.2971060
  21.1916640 115.1709880  16.5259530  22.2712180 116.1752630  16.1826300
  22.1056440 111.5089500  13.2938220  21.1660110 111.6703460  13.3790680
  22.4239700 112.2275180  12.7474210  28.6269200 116.1908020  23.2717250
  27.7987830 116.2601110  22.7967380  29.2219680 116.7762330  22.8033080
  26.1484650 116.7992800  16.8006310  25.5297070 116.4612350  16.1532610
  26.1309100 116.1552560  17.5085500  25.5911210 112.9777340  24.2172120
  25.1782390 113.8031050  24.4712110  24.8587160 112.3922380  24.0248480
  17.7244000 115.7637240  19.0790790  17.3201000 115.0514490  18.5836690
  17.8107120 115.4190480  19.9678830  18.1925700 119.4504800  21.2430000
  17.8953990 118.8450270  20.5637780  19.1425520 119.4882110  21.1319360
  16.4372620 112.5380450  22.8589830  16.9887210 112.6475790  22.0843080
  16.9516130 112.9118050  23.5745060  26.2811310 123.0236670  24.9053100
  25.8041870 123.8308860  24.7125710  25.5973100 122.3715000  25.0579310
  17.2844130 119.1886490  27.8937800  16.3872660 119.4126460  28.1411200
  17.3097000 119.3121430  26.9449200  24.3249350 116.0379610  13.8079060
  24.7642630 115.2002040  13.6616880  25.0377770 116.6709010  13.8943200
  16.1115350 116.0599810  26.4695170  15.9723120 116.9322610  26.8382570
  15.2296710 115.7172620  26.3243110  22.4344730 120.9775680  17.7760300
  22.8740640 121.7200010  17.3615690  22.3731620 121.2202250  18.6999260
  17.9095700 122.0021510  28.6780320  17.8811130 122.4064460  27.8108750
  17.7460670 121.0731870  28.5151920  27.9066490 107.2922420  12.1220100
  27.5939150 107.3849250  13.0219170  28.6678960 107.8703450  12.0717530
  14.4248630 114.6582220  16.5797440  14.3046230 115.3844310  15.9678710
  14.1149520 113.8885130  16.1025350  29.8610520 122.7848610  29.9744490
  30.3370240 123.2631500  30.6533570  30.4817680 122.7166100  29.2489990
  12.0634000 117.8297360  22.3866080  12.1414420 117.9646130  21.4421800
  12.6775680 117.1213250  22.5794200  13.3081630 119.5297550  18.7972260
  12.9009710 119.6712140  17.9425860  14.1994640 119.2457710  18.5943470
  29.2643770 119.9761460  27.1344500  29.3906830 119.7373340  26.2161680
  29.3065150 119.1446000  27.6066580  23.1260510 123.6789460  25.7039310
  23.6405180 123.5897470  26.5061740  22.2829590 124.0249160  25.9967220
  25.1014910 123.9644800  15.1323310  24.9416050 123.6747740  16.0305140
  24.9361620 123.1884930  14.5968540  17.5803290 123.7443330  16.9094930
  17.4045770 122.8278870  16.6962730  16.7259030 124.1030620  17.1492730
  24.8041040 121.4732360  13.6921310  24.1106200 121.4709650  13.0323590
  25.5463900 121.0491680  13.2615480  24.3690970 123.0995070  17.7669800
  24.8247920 122.3184450  18.0808420  24.7083490 123.8101890  18.3110980
  29.1167780 112.0293920  28.0994240  28.5012050 112.5373590  27.5709700
  28.7964200 111.1292250  28.0420180  12.1193520 118.8711530  24.9260540
  12.2824560 118.4016890  24.1079910  12.5845970 118.3635090  25.5909380
  16.8912290 108.0017290  19.9621110  16.4480440 108.7826830  19.6305630
  17.4497280 108.3247180  20.6692050  21.1782100 110.8685810  25.5656430
  20.7161470 111.0768830  26.3776370  20.7760210 110.0545160  25.2627100
  26.1786610 112.0894760  26.6953090  25.3280200 111.7900510  27.0162160
  26.0188400 112.3336770  25.7836910  23.2736320 113.5896510  28.7951880
  23.5989730 112.7560260  28.4554110  24.0616650 114.1125030  28.9430210
  20.0071110 107.6227990  14.8426940  19.3825290 107.6187860  15.5680250
  19.9201230 106.7558950  14.4462910  18.9288190 108.5464620  21.8210710
  19.2260520 109.4527450  21.7402730  19.4773750 108.0583400  21.2070280
  16.6826510 113.1250860  17.6902360  16.4567430 112.9088030  18.5948980
  15.9019040 113.5579320  17.3448330  23.9124270 113.1314230  16.2893010
  23.3133160 113.8550030  16.1056630  24.4603880 113.0691010  15.5069460
  19.1225720 114.0236440  28.3562630  19.0269320 113.0831170  28.2063030
  19.9657700 114.2451510  27.9610700  22.5189140 111.7677770  18.3196290
  22.9118710 112.0849970  17.5064980  22.8805990 110.8889650  18.4340810
  14.2536260 110.4350110  26.5096410  13.8599650 111.2825320  26.7169190
  13.5654660 109.7976480  26.7005050  20.8281310 110.5185080  29.5793150
  20.1379630 110.3257280  30.2139240  21.5713610 110.8019720  30.1117450
  11.5553310 108.3578570  20.5426490  11.2666360 108.9281430  21.2551470
  12.2999070 107.8783020  20.9057720  11.7423540 112.2998690  11.7529210
  11.6598210 113.2429450  11.8944200  11.3906600 112.1573600  10.8741560
  23.1044280 114.3583520  22.4147070  22.3725400 114.8670330  22.7637170
  22.7068620 113.5413500  22.1135850  19.5421670 111.0337720  20.8199560
  19.5457730 110.5927670  19.9704100  20.4372790 111.3555050  20.9271380
  15.3924050 110.9164210  19.7793770  15.0524100 111.3939440  20.5360820
  14.6301370 110.4629330  19.4194870  19.6041820 112.0349800  13.8106320
  19.7254640 111.9936280  14.7592140  19.2190330 112.8973950  13.6553050
  23.5670190 109.8117200  21.8270010  23.5842930 110.2625850  22.6711860
  23.3185770 108.9122840  22.0403450  18.6163320 114.3450940  13.2089620
  18.0480220 113.8969190  12.5825530  19.3252320 114.7043720  12.6754770
  26.9940940 107.2249380  27.6656390  27.3186710 106.4939040  28.1914370
  27.0297450 106.9063020  26.7637380  13.6932500 118.2462960  27.0856350
  13.3087290 117.6056630  27.6839310  14.0044690 118.9499080  27.6551080
  19.8429640 115.0939500  22.5664970  20.2099770 114.6198070  23.3126310
  19.6534700 115.9681070  22.9073310  12.7070130 109.8383190  18.6958440
  12.4217050 109.4738860  19.5337060  12.6448990 109.1063650  18.0821580
  17.6329010 114.1348140  24.8849180  17.3286080 115.0140120  25.1099540
  18.5875470 114.1947930  24.9206620  16.1610800 118.3409130  15.4816030
  15.3873060 117.8006750  15.3214750  16.8905430 117.8215740  15.1433790
  26.9198780 117.3374490  21.2742420  27.6397900 117.8329780  20.8838530
  26.7180600 116.6592380  20.6296290  22.3808720 108.7312450  15.4171810
  21.5673330 108.2325620  15.3417120  22.1870670 109.5710700  15.0008160
  22.3017580 117.4083550  27.1611420  22.2354890 116.4879220  26.9069010
  21.6722720 117.5058990  27.8756060  25.0957110 113.1032100  13.7133970
  25.9836730 113.4149330  13.5385310  25.0662200 112.2304350  13.3214550
  16.2048200 118.0089510  19.1194840  16.7226870 117.2057770  19.0651730
  15.7532220 117.9468650  19.9611670  21.0917700 119.2755790  14.3922140
  21.4333400 120.0198020  13.8965460  20.2630410 119.5886910  14.7546970
  13.6892740 114.9750880  26.0320540  13.3307680 115.6404730  26.6193880
  13.3947300 114.1434430  26.4033160  16.8905860 115.4335120  28.9160090
  16.5906000 115.5792300  28.0187910  17.6617100 114.8740410  28.8233480
  22.2334310 120.2304120  26.9115220  22.2478850 119.2985080  26.6934130
  21.5259410 120.3163880  27.5504990  27.3671380 114.4143940  13.1813830
  27.2835100 114.8458160  12.3310270  28.0865570 114.8742290  13.6140650
  28.4445520 116.8711460  26.2583800  27.7193710 117.4640240  26.0613190
  28.9720980 116.8635000  25.4597170  28.3958630 121.2686200  15.9095960
  27.7534790 120.6141820  16.1839680  28.0089290 121.6741290  15.1336630
  23.9745110 118.5971630  19.7567650  24.3268930 117.9999760  19.0969020
  23.0907440 118.2715860  19.9275900  20.0608390 119.3569320  17.1638060
  20.7479520 119.9038530  17.5445650  19.2740810 119.9010050  17.1987670
  12.2000790 114.9742140  12.6555140  13.0695640 115.2566940  12.9391060
  11.7091110 115.7878010  12.5403950  19.3635600 116.3615350  16.7763420
  19.8198380 117.1720600  17.0023610  19.0123810 116.0438490  17.6081910
  21.6668210 121.8721690  24.0055720  22.3110430 122.0781070  24.6829140
  22.0297650 121.1110090  23.5526570  15.2647380 106.7053000  17.2485940
  15.1362010 106.6970900  18.1970860  14.4409400 107.0436090  16.8976950
  22.9400290 119.8754040  22.7233170  23.5822520 119.1747200  22.8365340
  23.4649640 120.6552480  22.5430060  26.7856010 120.1602660  12.4472310
  26.5593590 119.4433100  13.0396950  26.3952210 119.9115100  11.6094060
  24.7137910 120.6748940  25.9269230  25.0494150 121.2615630  26.6047150
  23.7938250 120.5441650  26.1567020  12.5672040 124.1869520  13.2216770
  12.9269680 124.7858860  12.5674040  12.4264380 124.7329410  13.9951800
  12.2641310 108.4644120  26.7092640  11.5499830 108.6641040  27.3145250
  12.6836350 107.6883690  27.0807440  26.3672260 118.0774600  14.1086470
  26.0793960 118.5387290  14.8964350  27.1624430 117.6172370  14.3770690
  12.5513900 122.4524380  27.6959170  12.6605020 121.5119120  27.5554560
  11.8994460 122.7179130  27.0472900  20.5426490 120.7240270  29.0957290
  20.2223360 120.0049510  29.6402980  19.8684850 121.3995340  29.1693350
  18.5840660 121.5700720  14.0390440  18.5750760 122.3030410  13.4234950
  17.6639020 121.3232300  14.1317400  14.1847300 116.7915610  14.7837200
  13.5775250 117.5314510  14.7932500  14.6596650 116.8814970  13.9575400
  23.7580090 110.9566430  24.4594090  24.1260910 110.1361640  24.7873660
  22.8978290 111.0168320  24.8749740  27.1242120 109.9123370  15.2681650
  26.4955280 110.0169040  14.5539880  26.6294040 110.1320150  16.0575530
  21.5700260 121.6328960  12.7015630  21.6712240 121.4292950  11.7717610
  20.6702000 121.3787240  12.9063410  19.0926150 112.1909320  16.6839530
  18.3842300 112.6595660  17.1253140  19.3770630 111.5331330  17.3184720
  20.7182080 113.6106020  24.6832060  21.2167330 114.0851840  25.3483910
  20.8605030 112.6869540  24.8902090  23.1241580 108.9159980  18.1235320
  23.0009360 108.9346110  17.1744830  24.0726140 108.9638920  18.2433720
  20.2118370 124.1515280  17.3963300  20.4659870 124.1136670  16.4742670
  19.2630850 124.0248610  17.3891550  17.2961170 110.4994400  14.0590240
  18.1451700 110.9364550  13.9930430  16.9292440 110.8114660  14.8862300
  27.9248940 109.8273980  25.5260450  27.4222540 110.5679380  25.8654260
  28.7405600 110.2157980  25.2097240  26.2170950 115.0707160  18.9721810
  25.2761090 115.0857390  19.1469500  26.5315020 114.2843120  19.4182110
  16.1952590 116.7526760  12.5325770  16.9615860 116.6408120  13.0951200
  16.2727280 116.0564730  11.8802540  14.8899350 114.1851830  13.2158660
  14.9702940 113.2379340  13.3276060  15.7819100 114.5158710  13.3219320
  28.2196530 122.2416010  20.6476070  28.3443950 123.0647180  21.1199880
  29.0862090 122.0306740  20.3000220  15.6914060 124.3347220  20.3193200
  16.4276540 123.7862680  20.5901770  16.0754980 125.2003230  20.1799190
  12.5759540 120.4020790  16.1934710  11.6499320 120.6441930  16.1840120
  13.0415970 121.2295050  16.0719460  14.6972340 123.5193290  29.5078780
  15.4985070 123.8405340  29.9214180  14.1824160 123.1588870  30.2298690
  18.8016370 123.5077530  12.1418770  19.5944980 123.7966360  11.6900560
  18.2820720 123.0769700  11.4631250  23.5336970 119.6273160  29.4554190
  22.9275130 119.6504760  28.7149940  23.2291080 118.8956200  29.9921440
  24.9637340 123.3553450  28.0663600  25.9159090 123.2711470  28.0163840
  24.8165560 124.0195160  28.7397390  27.8546540 122.7347660  13.5655510
  27.5688050 122.3212800  12.7509690  27.6566090 123.6635370  13.4456030
  12.4170150 116.0066750  28.4514830  12.9209170 115.4274030  29.0231060
  11.6777570 116.2906980  28.9891200  19.3193770 118.7280940  12.0061120
  19.2144410 118.1133290  12.7322500  19.1517990 118.2046830  11.2224130
  19.4708090 117.4137740  27.9850350  18.7053760 117.9822740  27.9005020
  19.6524050 117.1213950  27.0918580  22.5596500 117.7900970  12.6103110
  22.0106600 118.2370270  13.2545850  23.1815760 117.2850220  13.1340780
  26.6131440 119.1443070  28.5425370  27.3540910 119.4818830  28.0392830
  25.8504120 119.3135130  27.9895140  14.4493230 114.1496340  29.3464900
  14.4898570 113.8510210  30.2550130  15.3038730 114.5503950  29.1872420
  18.2271620 116.7491890  14.5068410  18.6488040 116.5831760  15.3499800
  18.3522460 115.9392120  14.0123550  16.3899040 112.7288440  27.3139390
  15.8595500 112.2379390  26.6862730  17.0587110 113.1572640  26.7797320
  20.7399260 115.7729500  11.7545510  21.2604920 115.0578520  11.3886660
  21.3867660 116.4115370  12.0546020  25.2877100 117.1957900  27.0780580
  25.7018120 117.3502980  27.9271000  24.3528100 117.3213120  27.2406360
  25.7599270 114.5354060  29.0819730  26.3420040 113.7806380  28.9940210
  25.9361040 115.0661500  28.3051210  16.8771340 109.6950810  27.3936680
  16.7828210 109.0771560  26.6687550  16.2968730 110.4217100  27.1666590
  19.6432780 108.2524050  24.4264070  19.1950080 108.2748310  23.5809620
  19.0097980 107.8543070  25.0234370  20.0492330 117.1478380  25.0476510
  20.4680440 117.9911110  24.8752750  19.1300960 117.2850420  24.8183290
  22.3856230 114.8794560  26.4314350  22.5052440 114.2835700  27.1709190
  23.2450230 114.9164250  26.0115650  24.7244130 115.4331750  25.0076860
  24.1979350 115.9574370  24.4042000  25.0675470 116.0659140  25.6386590
  17.1230520 112.8225120  11.4526570  16.9219580 111.9592480  11.8139910
  16.9522570 112.7358480  10.5148170  17.8999750 123.4531390  26.1634240
  17.3620840 124.1777450  25.8442940  18.1533710 122.9761730  25.3731580
  19.1525000 111.4215910  27.6890170  19.7424690 111.1131760  28.3767990
  18.3345240 110.9495660  27.8450070  23.9718430 111.0381720  27.9223190
  23.2833950 110.3763260  27.8573180  24.6924450 110.5919990  28.3671650
  24.6018830 107.6333350  13.9813450  24.8821120 106.7901250  14.3372870
  23.8284560 107.8656460  14.4952200  15.9213320 109.9225740  11.4404450
  16.2239220 109.9293170  10.5323600  16.6607910 109.5723600  11.9372110
  20.7561960 124.6882600  26.4220890  20.6820660 125.5917740  26.7293260
  19.8540800 124.3694500  26.3942960  19.1398250 108.8660360  12.4260650
  18.7920250 108.1884350  11.8463100  19.3411020 108.4049870  13.2404040
  21.3047290 123.8541110  14.0447250  22.1998080 124.1926080  14.0666010
  21.3364920 123.1320520  13.4171530  14.9443450 119.2268160  12.2734250
  15.3818320 119.7697830  12.9291830  15.4291180 118.4015110  12.2830590
  12.1589250 122.0157190  19.7254510  12.4892260 121.1478250  19.4933150
  12.5880250 122.2215710  20.5559470  16.7551170 120.3466200  17.3856480
  16.4546710 120.2231170  18.2860390  16.6488660 119.4874790  16.9772210
  12.6479460 122.8827780  22.4636140  12.2110450 123.0628580  23.2960290
  13.2157140 123.6402400  22.3217860  28.2841640 122.3844780  26.7513450
  27.6843630 122.4437340  26.0077370  28.4135540 121.4449760  26.8810300
  29.5243090 120.1262600  12.0883160  28.6936050 120.1939250  12.5590390
  29.7014920 121.0166720  11.7850020  28.9799550 116.8710080  14.5917360
  29.7418460 117.4406730  14.6977050  28.9953920 116.3037280  15.3625670
  12.4803890 115.3948010  18.8225020  11.8252730 115.1259650  18.1784720
  13.3181840 115.2852490  18.3727000  29.9859520 117.7260180  19.4359290
  30.3568350 116.9427500  19.0295260  30.6261450 118.4149280  19.2576590
  26.9693280 119.1096760  24.8489610  26.1553120 119.5393920  25.1115400
  27.3767480 119.7215170  24.2358660  29.0318720 117.1644450  11.7489880
  29.3067560 118.0723330  11.6209100  28.8429460 117.1006980  12.6851870
  25.4294330 110.1889300  13.0443510  25.8479210 110.0020280  12.2040170
  25.1230390 109.3368350  13.3546440  28.9284060 115.1013440  16.7419310
  28.5527660 114.3341370  16.3100600  28.1987180 115.4836140  17.2294240
  13.5179820 115.7800580  23.3628360  13.8852860 115.6927980  24.2424380
  12.9490640 115.0167130  23.2635220  28.3183680 114.2484960  26.3758830
  28.0869770 114.0197710  25.4756780  28.5788230 115.1684510  26.3303720
  13.0695820 112.6909670  27.2686780  12.1751870 112.6576430  27.6080490
  13.6093370 112.8896460  28.0338030  26.7571750 109.4741390  29.1538530
  27.6341930 109.4824790  29.5372530  26.7692590 108.7372230  28.5430880
  11.6941970 112.6046940  14.7650350  10.7906050 112.8677140  14.5902010
  12.1782590 112.8758110  13.9850310  28.2035020 113.3270930  20.0426550
  28.7272500 112.8333580  19.4116720  28.7894440 113.4621290  20.7874120
  28.3824740 113.4110800  23.5646100  27.4327450 113.3774340  23.6791090
  28.5637750 114.3210910  23.3295870  14.2369180 111.6612480  12.6744730
  14.9460880 111.2395700  12.1892010  13.5209120 111.7287710  12.0428080
  13.8843340 107.7151810  11.7147380  14.6071470 108.2560750  12.0328600
  14.1567860 107.4415230  10.8388920  27.6934990 112.5844280  15.9818960
  28.1894110 112.3515150  16.7667840  27.4951060 111.7456120  15.5656600
  13.5735530 106.9658000  21.6170000  14.2211720 106.4155380  21.1765160
  13.9937370 107.2201150  22.4385810  29.1222150 111.2205230  18.5156640
  29.0121430 111.0661270  19.4538910  29.8829740 110.6926170  18.2732050
  27.4687870 107.1599360  24.9739640  28.1060090 107.7733500  25.3398830
  27.6162760 107.1960020  24.0288870  30.0112420 109.0513150  11.7562780
  30.9361730 108.9194330  11.5481070  29.9888210 109.1305970  12.7099230
  30.0850910 109.8223810  14.3819490  29.2902410 109.7568930  14.9112400
  30.2894190 110.7574450  14.3704840  27.0269330 123.8615360  18.3757880
  27.6228400 123.5399930  17.6992300  27.2847480 123.3887180  19.1671150
  13.3267530 107.1213670  24.3595320  12.9782350 107.5777490  25.1253500
  12.9955230 106.2270800  24.4417750  14.9331900 120.2933270  28.5248510
  14.8901530 119.9226180  29.4062970  15.0642910 121.2310840  28.6650330
  18.6337930 121.8492860  24.1258230  18.3929290 122.1167420  23.2388750
  19.5740570 122.0198590  24.1809090  20.8392350 108.3125550  27.8814740
  20.7781240 108.9047380  28.6310150  21.7792730 108.2051510  27.7365000
  23.4766910 107.9695610  27.5207030  24.0907320 108.2874900  26.8588110
  24.0216470 107.4844200  28.1402890  29.8942090 123.8687240  24.9268870
  29.4000370 124.2656110  24.2096000  29.2855380 123.2436450  25.3206150
  13.9988170 106.6489870  27.6346090  14.5471160 106.4677920  26.8712200
  14.0643480 105.8583980  28.1702400  14.7719930 123.2395520  25.6446290
  14.1780250 123.1080220  26.3836330  14.7643770 122.4033660  25.1788390
  24.2174950 106.5327750  23.8476320  23.3434790 106.8662860  23.6449250
  24.1085700 106.0600930  24.6728190  25.1246930 108.7398620  25.2318040
  24.7960290 107.9250380  24.8519770  26.0729230 108.6968430  25.1083730
  27.5781540 124.5110660  22.2055610  27.1184510 125.2626470  21.8313630
  26.9494000 123.7917130  22.1470410  14.4032160 120.6053900  24.5954330
  13.6766220 119.9859190  24.5280280  14.4641310 120.9994510  23.7252410
  18.0077260 122.8198900  21.3803740  18.5242280 122.2086260  20.8552000
  18.6574640 123.3227680  21.8714750  20.7472760 123.7107390  22.2072720
  21.0350570 123.4561690  21.3305730  21.2595980 123.1584750  22.7978290
  21.9649770 107.4497590  22.7869230  21.1821560 107.9243090  23.0665990
  21.6712700 106.5452420  22.6782410  26.5170840 108.1520690  20.8318320
  26.9578930 108.0965790  19.9839920  26.2478430 109.0678700  20.9028500
  28.3809410 107.7835930  18.8427140  28.3197810 106.8397150  18.6958160
  29.1601440 107.8916020  19.3880600  12.6862160 123.9228290  17.8051090
  12.5184200 123.2898970  18.5032980  11.8196670 124.1287690  17.4545280
  13.3090180 107.7545070  15.3082950  14.0669540 107.8673950  14.7346980
  12.8467350 108.5914270  15.2626380  19.8503990 109.8684340  18.2985260
  19.0378500 109.4941230  17.9581140  20.3545630 109.1129420  18.6006450
  24.3528970 106.5326790  19.5368330  24.9558340 107.1047000  20.0116850
  23.6121960 107.0966230  19.3142230  27.4963570 106.9348350  14.8108610
  27.6914200 107.8331800  15.0776040  26.7093440 106.7035430  15.3041560
  14.2924860 122.6161520  15.2501230  13.7672480 122.9969550  14.5463190
  14.2169440 123.2412290  15.9710940  15.6815330 108.2809120  13.8484920
  16.2108090 107.4938920  13.7192870  16.3143650 108.9600310  14.0820450
  17.8753170 108.0184260  16.9030310  17.2455910 107.3171570  17.0700440
  17.3358310 108.7788390  16.6863470  20.8145120 124.6323490  29.5740920
  21.7412430 124.3967760  29.6176880  20.7995550 125.4595490  29.0926950
  29.0490180 124.1749060  16.5715170  29.2242370 123.4886800  15.9276090
  28.3511750 124.6996110  16.1791840  18.0008730 107.2968240  29.3382800
  17.7193000 107.8001840  28.5743620  18.3828430 106.4989990  28.9724930
  16.8917830 124.5643900  14.1250480  17.6236650 124.2803180  13.5774370
  17.1511500 124.3257180  15.0149860  16.0532620 120.6808630  14.1296810
  15.4241500 121.1493730  14.6782640  16.1680450 119.8357850  14.5643000
  24.6024190 106.7121820  29.9163270  24.4889640 107.0316430  30.8114790
  25.4193930 107.1134330  29.6200550  27.3822680 123.8593350  29.3981960
  28.1748000 123.3642580  29.1907920  27.6755830 124.5383490  30.0057570
  21.6400380 116.5093310   2.1607280  20.8642480 116.0293750   2.4505850
  22.2913310 115.8298960   1.9863440  15.6566210 116.8213120   3.0383040
  14.8251090 116.5661830   3.4379550  16.2647190 116.8923890   3.7740960
  15.6367470 120.8553210   3.2341060  15.9395510 119.9650950   3.0551280
  16.3811060 121.4123430   3.0063310  12.0291170 114.3820660   2.7065130
  12.6007280 113.6142860   2.7068770  12.0292710 114.6809420   1.7971740
  21.0809370 119.1850500   2.1677440  21.0117650 118.2440440   2.0066570
  21.8429230 119.2751910   2.7400010  13.2716040 109.7905020   4.4934060
  13.0918880 108.8930770   4.7736820  12.8696120 110.3376890   5.1681010
  13.8902710 112.2865520   3.1016400  14.5712820 112.5503890   3.7203800
  13.5750760 111.4466390   3.4354410  18.0827280 113.3332880   2.1888990
  18.5905500 113.8313850   2.8294010  18.6140520 112.5568080   2.0128350
  30.1838210 111.5038070   5.8918340  29.4790380 111.8919780   5.3733450
  30.4496130 112.1988360   6.4939270  16.3663380 107.9731440   6.4552410
  16.3681820 108.4903830   5.6498310  15.5367690 107.4961620   6.4322340
  17.6166230 117.6126620   4.6325910  17.2835610 118.2395540   5.2746980
  17.7932910 118.1388500   3.8527580  26.1300140 111.4271700   2.1002250
  25.4255710 111.7156590   2.6805360  26.4912300 112.2371810   1.7401810
  16.0478710 109.6841400   4.4622860  16.3895520 110.5283450   4.1676730
  15.1094520 109.8325140   4.5788200  16.8285330 119.5807420   6.4475090
  17.4459330 120.2558500   6.1659540  15.9678450 119.9895400   6.3562590
  27.7462920 121.0446830   4.3629730  27.0626440 121.7145940   4.3546400
  28.2857210 121.2427480   3.5974590  29.1987060 110.8726490   2.4911460
  28.2511970 110.9065470   2.6226890  29.5237050 111.6865440   2.8760820
  25.2821660 122.8890960   3.0774910  25.2948820 122.4853250   2.2097170
  24.7296880 123.6638250   2.9736340  24.6807100 117.7920800   4.4057520
  25.0975890 117.5780910   3.5710980  25.4046920 118.0493590   4.9766140
  28.6269200 116.1908020   4.4973760  27.7987830 116.2601110   4.0223890
  29.2219680 116.7762330   4.0289590  25.5911210 112.9777340   5.4428630
  25.1782390 113.8031050   5.6968620  24.8587160 112.3922380   5.2504990
  18.1925700 119.4504800   2.4686510  17.8953990 118.8450270   1.7894290
  19.1425520 119.4882110   2.3575870  16.4372620 112.5380450   4.0846340
  16.9887210 112.6475790   3.3099590  16.9516130 112.9118050   4.8001570
  26.2811310 123.0236670   6.1309610  25.8041870 123.8308860   5.9382220
  25.5973100 122.3715000   6.2835820  17.2844130 119.1886490   9.1194310
  16.3872660 119.4126460   9.3667710  17.3097000 119.3121430   8.1705710
  16.1115350 116.0599810   7.6951680  15.9723120 116.9322610   8.0639080
  15.2296710 115.7172620   7.5499620  17.9095700 122.0021510   9.9036830
  17.8811130 122.4064460   9.0365260  17.7460670 121.0731870   9.7408430
  29.8610520 122.7848610  11.2001000  30.3370240 123.2631500  11.8790080
  30.4817680 122.7166100  10.4746500  12.0634000 117.8297360   3.6122590
  12.1414420 117.9646130   2.6678310  12.6775680 117.1213250   3.8050710
  29.2643770 119.9761460   8.3601010  29.3906830 119.7373340   7.4418190
  29.3065150 119.1446000   8.8323090  23.1260510 123.6789460   6.9295820
  23.6405180 123.5897470   7.7318250  22.2829590 124.0249160   7.2223730
  29.1167780 112.0293920   9.3250750  28.5012050 112.5373590   8.7966210
  28.7964200 111.1292250   9.2676690  12.1193520 118.8711530   6.1517050
  12.2824560 118.4016890   5.3336420  12.5845970 118.3635090   6.8165890
  21.1782100 110.8685810   6.7912940  20.7161470 111.0768830   7.6032880
  20.7760210 110.0545160   6.4883610  26.1786610 112.0894760   7.9209600
  25.3280200 111.7900510   8.2418670  26.0188400 112.3336770   7.0093420
  23.2736320 113.5896510  10.0208390  23.5989730 112.7560260   9.6810620
  24.0616650 114.1125030  10.1686720  18.9288190 108.5464620   3.0467220
  19.2260520 109.4527450   2.9659240  19.4773750 108.0583400   2.4326790
  19.1225720 114.0236440   9.5819140  19.0269320 113.0831170   9.4319540
  19.9657700 114.2451510   9.1867210  14.2536260 110.4350110   7.7352920
  13.8599650 111.2825320   7.9425700  13.5654660 109.7976480   7.9261560
  20.8281310 110.5185080  10.8049660  20.1379630 110.3257280  11.4395750
  21.5713610 110.8019720  11.3373960  11.5553310 108.3578570   1.7683000
  11.2666360 108.9281430   2.4807980  12.2999070 107.8783020   2.1314230
  23.1044280 114.3583520   3.6403580  22.3725400 114.8670330   3.9893680
  22.7068620 113.5413500   3.3392360  23.5670190 109.8117200   3.0526520
  23.5842930 110.2625850   3.8968370  23.3185770 108.9122840   3.2659960
  26.9940940 107.2249380   8.8912900  27.3186710 106.4939040   9.4170880
  27.0297450 106.9063020   7.9893890  13.6932500 118.2462960   8.3112860
  13.3087290 117.6056630   8.9095820  14.0044690 118.9499080   8.8807590
  19.8429640 115.0939500   3.7921480  20.2099770 114.6198070   4.5382820
  19.6534700 115.9681070   4.1329820  17.6329010 114.1348140   6.1105690
  17.3286080 115.0140120   6.3356050  18.5875470 114.1947930   6.1463130
  26.9198780 117.3374490   2.4998930  27.6397900 117.8329780   2.1095040
  26.7180600 116.6592380   1.8552800  22.3017580 117.4083550   8.3867930
  22.2354890 116.4879220   8.1325520  21.6722720 117.5058990   9.1012570
  13.6892740 114.9750880   7.2577050  13.3307680 115.6404730   7.8450390
  13.3947300 114.1434430   7.6289670  16.8905860 115.4335120  10.1416600
  16.5906000 115.5792300   9.2444420  17.6617100 114.8740410  10.0489990
  22.2334310 120.2304120   8.1371730  22.2478850 119.2985080   7.9190640
  21.5259410 120.3163880   8.7761500  28.4445520 116.8711460   7.4840310
  27.7193710 117.4640240   7.2869700  28.9720980 116.8635000   6.6853680
  21.6668210 121.8721690   5.2312230  22.3110430 122.0781070   5.9085650
  22.0297650 121.1110090   4.7783080  22.9400290 119.8754040   3.9489680
  23.5822520 119.1747200   4.0621850  23.4649640 120.6552480   3.7686570
  24.7137910 120.6748940   7.1525740  25.0494150 121.2615630   7.8303660
  23.7938250 120.5441650   7.3823530  12.2641310 108.4644120   7.9349150
  11.5499830 108.6641040   8.5401760  12.6836350 107.6883690   8.3063950
  12.5513900 122.4524380   8.9215680  12.6605020 121.5119120   8.7811070
  11.8994460 122.7179130   8.2729410  20.5426490 120.7240270  10.3213800
  20.2223360 120.0049510  10.8659490  19.8684850 121.3995340  10.3949860
  23.7580090 110.9566430   5.6850600  24.1260910 110.1361640   6.0130170
  22.8978290 111.0168320   6.1006250  20.7182080 113.6106020   5.9088570
  21.2167330 114.0851840   6.5740420  20.8605030 112.6869540   6.1158600
  27.9248940 109.8273980   6.7516960  27.4222540 110.5679380   7.0910770
  28.7405600 110.2157980   6.4353750  14.6972340 123.5193290  10.7335290
  15.4985070 123.8405340  11.1470690  14.1824160 123.1588870  11.4555200
  23.5336970 119.6273160  10.6810700  22.9275130 119.6504760   9.9406450
  23.2291080 118.8956200  11.2177950  24.9637340 123.3553450   9.2920110
  25.9159090 123.2711470   9.2420350  24.8165560 124.0195160   9.9653900
  12.4170150 116.0066750   9.6771340  12.9209170 115.4274030  10.2487570
  11.6777570 116.2906980  10.2147710  19.4708090 117.4137740   9.2106860
  18.7053760 117.9822740   9.1261530  19.6524050 117.1213950   8.3175090
  26.6131440 119.1443070   9.7681880  27.3540910 119.4818830   9.2649340
  25.8504120 119.3135130   9.2151650  14.4493230 114.1496340  10.5721410
  14.4898570 113.8510210  11.4806640  15.3038730 114.5503950  10.4128930
  16.3899040 112.7288440   8.5395900  15.8595500 112.2379390   7.9119240
  17.0587110 113.1572640   8.0053830  25.2877100 117.1957900   8.3037090
  25.7018120 117.3502980   9.1527510  24.3528100 117.3213120   8.4662870
  25.7599270 114.5354060  10.3076240  26.3420040 113.7806380  10.2196720
  25.9361040 115.0661500   9.5307720  16.8771340 109.6950810   8.6193190
  16.7828210 109.0771560   7.8944060  16.2968730 110.4217100   8.3923100
  19.6432780 108.2524050   5.6520580  19.1950080 108.2748310   4.8066130
  19.0097980 107.8543070   6.2490880  20.0492330 117.1478380   6.2733020
  20.4680440 117.9911110   6.1009260  19.1300960 117.2850420   6.0439800
  22.3856230 114.8794560   7.6570860  22.5052440 114.2835700   8.3965700
  23.2450230 114.9164250   7.2372160  24.7244130 115.4331750   6.2333370
  24.1979350 115.9574370   5.6298510  25.0675470 116.0659140   6.8643100
  17.8999750 123.4531390   7.3890750  17.3620840 124.1777450   7.0699450
  18.1533710 122.9761730   6.5988090  19.1525000 111.4215910   8.9146680
  19.7424690 111.1131760   9.6024500  18.3345240 110.9495660   9.0706580
  23.9718430 111.0381720   9.1479700  23.2833950 110.3763260   9.0829690
  24.6924450 110.5919990   9.5928160  20.7561960 124.6882600   7.6477400
  20.6820660 125.5917740   7.9549770  19.8540800 124.3694500   7.6199470
  12.6479460 122.8827780   3.6892650  12.2110450 123.0628580   4.5216800
  13.2157140 123.6402400   3.5474370  28.2841640 122.3844780   7.9769960
  27.6843630 122.4437340   7.2333880  28.4135540 121.4449760   8.1066810
  26.9693280 119.1096760   6.0746120  26.1553120 119.5393920   6.3371910
  27.3767480 119.7215170   5.4615170  13.5179820 115.7800580   4.5884870
  13.8852860 115.6927980   5.4680890  12.9490640 115.0167130   4.4891730
  28.3183680 114.2484960   7.6015340  28.0869770 114.0197710   6.7013290
  28.5788230 115.1684510   7.5560230  13.0695820 112.6909670   8.4943290
  12.1751870 112.6576430   8.8337000  13.6093370 112.8896460   9.2594540
  26.7571750 109.4741390  10.3795040  27.6341930 109.4824790  10.7629040
  26.7692590 108.7372230   9.7687390  28.3824740 113.4110800   4.7902610
  27.4327450 113.3774340   4.9047600  28.5637750 114.3210910   4.5552380
  13.5735530 106.9658000   2.8426510  14.2211720 106.4155380   2.4021670
  13.9937370 107.2201150   3.6642320  27.4687870 107.1599360   6.1996150
  28.1060090 107.7733500   6.5655340  27.6162760 107.1960020   5.2545380
  13.3267530 107.1213670   5.5851830  12.9782350 107.5777490   6.3510010
  12.9955230 106.2270800   5.6674260  14.9331900 120.2933270   9.7505020
  14.8901530 119.9226180  10.6319480  15.0642910 121.2310840   9.8906840
  18.6337930 121.8492860   5.3514740  18.3929290 122.1167420   4.4645260
  19.5740570 122.0198590   5.4065600  20.8392350 108.3125550   9.1071250
  20.7781240 108.9047380   9.8566660  21.7792730 108.2051510   8.9621510
  23.4766910 107.9695610   8.7463540  24.0907320 108.2874900   8.0844620
  24.0216470 107.4844200   9.3659400  29.8942090 123.8687240   6.1525380
  29.4000370 124.2656110   5.4352510  29.2855380 123.2436450   6.5462660
  13.9988170 106.6489870   8.8602600  14.5471160 106.4677920   8.0968710
  14.0643480 105.8583980   9.3958910  14.7719930 123.2395520   6.8702800
  14.1780250 123.1080220   7.6092840  14.7643770 122.4033660   6.4044900
  24.2174950 106.5327750   5.0732830  23.3434790 106.8662860   4.8705760
  24.1085700 106.0600930   5.8984700  25.1246930 108.7398620   6.4574550
  24.7960290 107.9250380   6.0776280  26.0729230 108.6968430   6.3340240
  27.5781540 124.5110660   3.4312120  27.1184510 125.2626470   3.0570140
  26.9494000 123.7917130   3.3726920  14.4032160 120.6053900   5.8210840
  13.6766220 119.9859190   5.7536790  14.4641310 120.9994510   4.9508920
  18.0077260 122.8198900   2.6060250  18.5242280 122.2086260   2.0808510
  18.6574640 123.3227680   3.0971260  20.7472760 123.7107390   3.4329230
  21.0350570 123.4561690   2.5562240  21.2595980 123.1584750   4.0234800
  21.9649770 107.4497590   4.0125740  21.1821560 107.9243090   4.2922500
  21.6712700 106.5452420   3.9038920  20.8145120 124.6323490  10.7997430
  21.7412430 124.3967760  10.8433390  20.7995550 125.4595490  10.3183460
  18.0008730 107.2968240  10.5639310  17.7193000 107.8001840   9.8000130
  18.3828430 106.4989990  10.1981440  24.6024190 106.7121820  11.1419780
  24.4889640 107.0316430  12.0371300  25.4193930 107.1134330  10.8457060
  27.3822680 123.8593350  10.6238470  28.1748000 123.3642580  10.4164430
  27.6755830 124.5383490  11.2314080  23.5082340  95.9570800 150.4745930
  23.4276390  95.0425410 150.2037640  23.0946760  96.4537870 149.7685640
  25.6607810 102.1410010 151.1354330  25.1989340 101.3697250 151.4641500
  26.4733360 102.1676080 151.6406780  14.0658160  93.0071520 147.0173350
  13.1774860  93.3487490 146.9153230  14.3499350  92.8071840 146.1254180
  21.8871120 104.4268020 150.7558320  21.2682560 104.8825520 150.1852760
  22.7422900 104.5819480 150.3548020  16.2419550  91.5903020 148.0511730
  16.3486300  92.4906750 148.3580490  15.3311910  91.5420990 147.7606380
  25.8938660  90.7127830 149.5222630  26.7148280  90.2224400 149.5648110
  25.9272740  91.3025490 150.2754470  22.7534470  99.3107260 148.1490230
  22.1351740  99.7756710 147.5852950  23.2657720 100.0034740 148.5659740
  12.1217670  99.9963790 145.5229860  11.7445650 100.4850890 144.7914760
  12.3790740 100.6689070 146.1536390  19.7306600  88.3980180 150.9815370
  20.0381580  87.8427070 150.2650870  18.8007300  88.5324640 150.7988360
  26.5767080 100.8363690 148.3613000  26.4663410  99.8938020 148.4862420
  26.5735330 101.1979330 149.2475760  22.1187360  96.4629010 147.7175490
  21.1916640  96.3966390 147.9463960  22.2712180  97.4009140 147.6030730
  22.1056440  92.7346010 144.7142650  21.1660110  92.8959970 144.7995110
  22.4239700  93.4531690 144.1678640  26.1484650  98.0249310 148.2210740
  25.5297070  97.6868860 147.5737040  26.1309100  97.3809070 148.9289930
  17.7244000  96.9893750 150.4995220  17.3201000  96.2771000 150.0041120
  17.8107120  96.6446990 151.3883260  24.3249350  97.2636120 145.2283490
  24.7642630  96.4258550 145.0821310  25.0377770  97.8965520 145.3147630
  22.4344730 102.2032190 149.1964730  22.8740640 102.9456520 148.7820120
  22.3731620 102.4458760 150.1203690  27.9066490  88.5178930 143.5424530
  27.5939150  88.6105760 144.4423600  28.6678960  89.0959960 143.4921960
  14.4248630  95.8838730 148.0001870  14.3046230  96.6100820 147.3883140
  14.1149520  95.1141640 147.5229780  13.3081630 100.7554060 150.2176690
  12.9009710 100.8968650 149.3630290  14.1994640 100.4714220 150.0147900
  25.1014910 105.1901310 146.5527740  24.9416050 104.9004250 147.4509570
  24.9361620 104.4141440 146.0172970  17.5803290 104.9699840 148.3299360
  17.4045770 104.0535380 148.1167160  16.7259030 105.3287130 148.5697160
  24.8041040 102.6988870 145.1125740  24.1106200 102.6966160 144.4528020
  25.5463900 102.2748190 144.6819910  24.3690970 104.3251580 149.1874230
  24.8247920 103.5440960 149.5012850  24.7083490 105.0358400 149.7315410
  16.8912290  89.2273800 151.3825540  16.4480440  90.0083340 151.0510060
  17.4497280  89.5503690 152.0896480  20.0071110  88.8484500 146.2631370
  19.3825290  88.8444370 146.9884680  19.9201230  87.9815460 145.8667340
  16.6826510  94.3507370 149.1106790  16.4567430  94.1344540 150.0153410
  15.9019040  94.7835830 148.7652760  23.9124270  94.3570740 147.7097440
  23.3133160  95.0806540 147.5261060  24.4603880  94.2947520 146.9273890
  22.5189140  92.9934280 149.7400720  22.9118710  93.3106480 148.9269410
  22.8805990  92.1146160 149.8545240  11.7423540  93.5255200 143.1733640
  11.6598210  94.4685960 143.3148630  11.3906600  93.3830110 142.2945990
  19.5421670  92.2594230 152.2403990  19.5457730  91.8184180 151.3908530
  20.4372790  92.5811560 152.3475810  15.3924050  92.1420720 151.1998200
  15.0524100  92.6195950 151.9565250  14.6301370  91.6885840 150.8399300
  19.6041820  93.2606310 145.2310750  19.7254640  93.2192790 146.1796570
  19.2190330  94.1230460 145.0757480  18.6163320  95.5707450 144.6294050
  18.0480220  95.1225700 144.0029960  19.3252320  95.9300230 144.0959200
  12.7070130  91.0639700 150.1162870  12.4217050  90.6995370 150.9541490
  12.6448990  90.3320160 149.5026010  16.1610800  99.5665640 146.9020460
  15.3873060  99.0263260 146.7419180  16.8905430  99.0472250 146.5638220
  22.3808720  89.9568960 146.8376240  21.5673330  89.4582130 146.7621550
  22.1870670  90.7967210 146.4212590  25.0957110  94.3288610 145.1338400
  25.9836730  94.6405840 144.9589740  25.0662200  93.4560860 144.7418980
  16.2048200  99.2346020 150.5399270  16.7226870  98.4314280 150.4856160
  15.7532220  99.1725160 151.3816100  21.0917700 100.5012300 145.8126570
  21.4333400 101.2454530 145.3169890  20.2630410 100.8143420 146.1751400
  27.3671380  95.6400450 144.6018260  27.2835100  96.0714670 143.7514700
  28.0865570  96.0998800 145.0345080  28.3958630 102.4942710 147.3300390
  27.7534790 101.8398330 147.6044110  28.0089290 102.8997800 146.5541060
  23.9745110  99.8228140 151.1772080  24.3268930  99.2256270 150.5173450
  23.0907440  99.4972370 151.3480330  20.0608390 100.5825830 148.5842490
  20.7479520 101.1295040 148.9650080  19.2740810 101.1266560 148.6192100
  12.2000790  96.1998650 144.0759570  13.0695640  96.4823450 144.3595490
  11.7091110  97.0134520 143.9608380  19.3635600  97.5871860 148.1967850
  19.8198380  98.3977110 148.4228040  19.0123810  97.2695000 149.0286340
  15.2647380  87.9309510 148.6690370  15.1362010  87.9227410 149.6175290
  14.4409400  88.2692600 148.3181380  26.7856010 101.3859170 143.8676740
  26.5593590 100.6689610 144.4601380  26.3952210 101.1371610 143.0298490
  12.5672040 105.4126030 144.6421200  12.9269680 106.0115370 143.9878470
  12.4264380 105.9585920 145.4156230  26.3672260  99.3031110 145.5290900
  26.0793960  99.7643800 146.3168780  27.1624430  98.8428880 145.7975120
  18.5840660 102.7957230 145.4594870  18.5750760 103.5286920 144.8439380
  17.6639020 102.5488810 145.5521830  14.1847300  98.0172120 146.2041630
  13.5775250  98.7571020 146.2136930  14.6596650  98.1071480 145.3779830
  27.1242120  91.1379880 146.6886080  26.4955280  91.2425550 145.9744310
  26.6294040  91.3576660 147.4779960  21.5700260 102.8585470 144.1220060
  21.6712240 102.6549460 143.1922040  20.6702000 102.6043750 144.3267840
  19.0926150  93.4165830 148.1043960  18.3842300  93.8852170 148.5457570
  19.3770630  92.7587840 148.7389150  23.1241580  90.1416490 149.5439750
  23.0009360  90.1602620 148.5949260  24.0726140  90.1895430 149.6638150
  20.2118370 105.3771790 148.8167730  20.4659870 105.3393180 147.8947100
  19.2630850 105.2505120 148.8095980  17.2961170  91.7250910 145.4794670
  18.1451700  92.1621060 145.4134860  16.9292440  92.0371170 146.3066730
  26.2170950  96.2963670 150.3926240  25.2761090  96.3113900 150.5673930
  26.5315020  95.5099630 150.8386540  16.1952590  97.9783270 143.9530200
  16.9615860  97.8664630 144.5155630  16.2727280  97.2821240 143.3006970
  14.8899350  95.4108340 144.6363090  14.9702940  94.4635850 144.7480490
  15.7819100  95.7415220 144.7423750  15.6914060 105.5603730 151.7397630
  16.4276540 105.0119190 152.0106200  16.0754980 106.4259740 151.6003620
  12.5759540 101.6277300 147.6139140  11.6499320 101.8698440 147.6044550
  13.0415970 102.4551560 147.4923890  18.8016370 104.7334040 143.5623200
  19.5944980 105.0222870 143.1104990  18.2820720 104.3026210 142.8835680
  27.8546540 103.9604170 144.9859940  27.5688050 103.5469310 144.1714120
  27.6566090 104.8891880 144.8660460  19.3193770  99.9537450 143.4265550
  19.2144410  99.3389800 144.1526930  19.1517990  99.4303340 142.6428560
  22.5596500  99.0157480 144.0307540  22.0106600  99.4626780 144.6750280
  23.1815760  98.5106730 144.5545210  18.2271620  97.9748400 145.9272840
  18.6488040  97.8088270 146.7704230  18.3522460  97.1648630 145.4327980
  20.7399260  96.9986010 143.1749940  21.2604920  96.2835030 142.8091090
  21.3867660  97.6371880 143.4750450  17.1230520  94.0481630 142.8731000
  16.9219580  93.1848990 143.2344340  16.9522570  93.9614990 141.9352600
  24.6018830  88.8589860 145.4017880  24.8821120  88.0157760 145.7577300
  23.8284560  89.0912970 145.9156630  15.9213320  91.1482250 142.8608880
  16.2239220  91.1549680 141.9528030  16.6607910  90.7980110 143.3576540
  19.1398250  90.0916870 143.8465080  18.7920250  89.4140860 143.2667530
  19.3411020  89.6306380 144.6608470  21.3047290 105.0797620 145.4651680
  22.1998080 105.4182590 145.4870440  21.3364920 104.3577030 144.8375960
  14.9443450 100.4524670 143.6938680  15.3818320 100.9954340 144.3496260
  15.4291180  99.6271620 143.7035020  12.1589250 103.2413700 151.1458940
  12.4892260 102.3734760 150.9137580  12.5880250 103.4472220 151.9763900
  16.7551170 101.5722710 148.8060910  16.4546710 101.4487680 149.7064820
  16.6488660 100.7131300 148.3976640  29.5243090 101.3519110 143.5087590
  28.6936050 101.4195760 143.9794820  29.7014920 102.2423230 143.2054450
  28.9799550  98.0966590 146.0121790  29.7418460  98.6663240 146.1181480
  28.9953920  97.5293790 146.7830100  12.4803890  96.6204520 150.2429450
  11.8252730  96.3516160 149.5989150  13.3181840  96.5109000 149.7931430
  29.9859520  98.9516690 150.8563720  30.3568350  98.1684010 150.4499690
  30.6261450  99.6405790 150.6781020  29.0318720  98.3900960 143.1694310
  29.3067560  99.2979840 143.0413530  28.8429460  98.3263490 144.1056300
  25.4294330  91.4145810 144.4647940  25.8479210  91.2276790 143.6244600
  25.1230390  90.5624860 144.7750870  28.9284060  96.3269950 148.1623740
  28.5527660  95.5597880 147.7305030  28.1987180  96.7092650 148.6498670
  11.6941970  93.8303450 146.1854780  10.7906050  94.0933650 146.0106440
  12.1782590  94.1014620 145.4054740  28.2035020  94.5527440 151.4630980
  28.7272500  94.0590090 150.8321150  28.7894440  94.6877800 152.2078550
  14.2369180  92.8868990 144.0949160  14.9460880  92.4652210 143.6096440
  13.5209120  92.9544220 143.4632510  13.8843340  88.9408320 143.1351810
  14.6071470  89.4817260 143.4533030  14.1567860  88.6671740 142.2593350
  27.6934990  93.8100790 147.4023390  28.1894110  93.5771660 148.1872270
  27.4951060  92.9712630 146.9861030  29.1222150  92.4461740 149.9361070
  29.0121430  92.2917780 150.8743340  29.8829740  91.9182680 149.6936480
  30.0112420  90.2769660 143.1767210  30.9361730  90.1450840 142.9685500
  29.9888210  90.3562480 144.1303660  30.0850910  91.0480320 145.8023920
  29.2902410  90.9825440 146.3316830  30.2894190  91.9830960 145.7909270
  27.0269330 105.0871870 149.7962310  27.6228400 104.7656440 149.1196730
  27.2847480 104.6143690 150.5875580  26.5170840  89.3777200 152.2522750
  26.9578930  89.3222300 151.4044350  26.2478430  90.2935210 152.3232930
  28.3809410  89.0092440 150.2631570  28.3197810  88.0653660 150.1162590
  29.1601440  89.1172530 150.8085030  12.6862160 105.1484800 149.2255520
  12.5184200 104.5155480 149.9237410  11.8196670 105.3544200 148.8749710
  13.3090180  88.9801580 146.7287380  14.0669540  89.0930460 146.1551410
  12.8467350  89.8170780 146.6830810  19.8503990  91.0940850 149.7189690
  19.0378500  90.7197740 149.3785570  20.3545630  90.3385930 150.0210880
  24.3528970  87.7583300 150.9572760  24.9558340  88.3303510 151.4321280
  23.6121960  88.3222740 150.7346660  27.4963570  88.1604860 146.2313040
  27.6914200  89.0588310 146.4980470  26.7093440  87.9291940 146.7245990
  14.2924860 103.8418030 146.6705660  13.7672480 104.2226060 145.9667620
  14.2169440 104.4668800 147.3915370  15.6815330  89.5065630 145.2689350
  16.2108090  88.7195430 145.1397300  16.3143650  90.1856820 145.5024880
  17.8753170  89.2440770 148.3234740  17.2455910  88.5428080 148.4904870
  17.3358310  90.0044900 148.1067900  29.0490180 105.4005570 147.9919600
  29.2242370 104.7143310 147.3480520  28.3511750 105.9252620 147.5996270
  16.8917830 105.7900410 145.5454910  17.6236650 105.5059690 144.9978800
  17.1511500 105.5513690 146.4354290  16.0532620 101.9065140 145.5501240
  15.4241500 102.3750240 146.0987070  16.1680450 101.0614360 145.9847430
  23.5082340  95.9570800 131.7002440  23.4276390  95.0425410 131.4294150
  23.0946760  96.4537870 130.9942150  21.6400380  97.7349820 133.5811710
  20.8642480  97.2550260 133.8710280  22.2913310  97.0555470 133.4067870
  15.6566210  98.0469630 134.4587470  14.8251090  97.7918340 134.8583980
  16.2647190  98.1180400 135.1945390  25.6607810 102.1410010 132.3610840
  25.1989340 101.3697250 132.6898010  26.4733360 102.1676080 132.8663290
  15.6367470 102.0809720 134.6545490  15.9395510 101.1907460 134.4755710
  16.3811060 102.6379940 134.4267740  14.0658160  93.0071520 128.2429860
  13.1774860  93.3487490 128.1409740  14.3499350  92.8071840 127.3510690
  12.0291170  95.6077170 134.1269560  12.6007280  94.8399370 134.1273200
  12.0292710  95.9065930 133.2176170  21.8871120 104.4268020 131.9814830
  21.2682560 104.8825520 131.4109270  22.7422900 104.5819480 131.5804530
  21.0809370 100.4107010 133.5881870  21.0117650  99.4696950 133.4271000
  21.8429230 100.5008420 134.1604440  13.2716040  91.0161530 135.9138490
  13.0918880  90.1187280 136.1941250  12.8696120  91.5633400 136.5885440
  22.1114540  93.2177390 133.8150800  22.4879360  92.3449270 133.7024470
  22.0134050  93.5536090 132.9241240  16.2419550  91.5903020 129.2768240
  16.3486300  92.4906750 129.5837000  15.3311910  91.5420990 128.9862890
  25.8938660  90.7127830 130.7479140  26.7148280  90.2224400 130.7904620
  25.9272740  91.3025490 131.5010980  13.8902710  93.5122030 134.5220830
  14.5712820  93.7760400 135.1408230  13.5750760  92.6722900 134.8558840
  18.0827280  94.5589390 133.6093420  18.5905500  95.0570360 134.2498440
  18.6140520  93.7824590 133.4332780  30.1838210  92.7294580 137.3122770
  29.4790380  93.1176290 136.7937880  30.4496130  93.4244870 137.9143700
  16.3663380  89.1987950 137.8756840  16.3681820  89.7160340 137.0702740
  15.5367690  88.7218130 137.8526770  22.7534470  99.3107260 129.3746740
  22.1351740  99.7756710 128.8109460  23.2657720 100.0034740 129.7916250
  17.6166230  98.8383130 136.0530340  17.2835610  99.4652050 136.6951410
  17.7932910  99.3645010 135.2732010  26.1300140  92.6528210 133.5206680
  25.4255710  92.9413100 134.1009790  26.4912300  93.4628320 133.1606240
  16.0478710  90.9097910 135.8827290  16.3895520  91.7539960 135.5881160
  15.1094520  91.0581650 135.9992630  16.8285330 100.8063930 137.8679520
  17.4459330 101.4815010 137.5863970  15.9678450 101.2151910 137.7767020
  12.1217670  99.9963790 126.7486370  11.7445650 100.4850890 126.0171270
  12.3790740 100.6689070 127.3792900  27.7462920 102.2703340 135.7834160
  27.0626440 102.9402450 135.7750830  28.2857210 102.4683990 135.0179020
  29.1987060  92.0983000 133.9115890  28.2511970  92.1321980 134.0431320
  29.5237050  92.9121950 134.2965250  19.7306600  88.3980180 132.2071880
  20.0381580  87.8427070 131.4907380  18.8007300  88.5324640 132.0244870
  25.2821660 104.1147470 134.4979340  25.2948820 103.7109760 133.6301600
  24.7296880 104.8894760 134.3940770  26.5767080 100.8363690 129.5869510
  26.4663410  99.8938020 129.7118930  26.5735330 101.1979330 130.4732270
  24.6807100  99.0177310 135.8261950  25.0975890  98.8037420 134.9915410
  25.4046920  99.2750100 136.3970570  22.1187360  96.4629010 128.9432000
  21.1916640  96.3966390 129.1720470  22.2712180  97.4009140 128.8287240
  22.1056440  92.7346010 125.9399160  21.1660110  92.8959970 126.0251620
  22.4239700  93.4531690 125.3935150  28.6269200  97.4164530 135.9178190
  27.7987830  97.4857620 135.4428320  29.2219680  98.0018840 135.4494020
  26.1484650  98.0249310 129.4467250  25.5297070  97.6868860 128.7993550
  26.1309100  97.3809070 130.1546440  25.5911210  94.2033850 136.8633060
  25.1782390  95.0287560 137.1173050  24.8587160  93.6178890 136.6709420
  17.7244000  96.9893750 131.7251730  17.3201000  96.2771000 131.2297630
  17.8107120  96.6446990 132.6139770  18.1925700 100.6761310 133.8890940
  17.8953990 100.0706780 133.2098720  19.1425520 100.7138620 133.7780300
  16.4372620  93.7636960 135.5050770  16.9887210  93.8732300 134.7304020
  16.9516130  94.1374560 136.2206000  26.2811310 104.2493180 137.5514040
  25.8041870 105.0565370 137.3586650  25.5973100 103.5971510 137.7040250
  17.2844130 100.4143000 140.5398740  16.3872660 100.6382970 140.7872140
  17.3097000 100.5377940 139.5910140  24.3249350  97.2636120 126.4540000
  24.7642630  96.4258550 126.3077820  25.0377770  97.8965520 126.5404140
  16.1115350  97.2856320 139.1156110  15.9723120  98.1579120 139.4843510
  15.2296710  96.9429130 138.9704050  22.4344730 102.2032190 130.4221240
  22.8740640 102.9456520 130.0076630  22.3731620 102.4458760 131.3460200
  17.9095700 103.2278020 141.3241260  17.8811130 103.6320970 140.4569690
  17.7460670 102.2988380 141.1612860  27.9066490  88.5178930 124.7681040
  27.5939150  88.6105760 125.6680110  28.6678960  89.0959960 124.7178470
  14.4248630  95.8838730 129.2258380  14.3046230  96.6100820 128.6139650
  14.1149520  95.1141640 128.7486290  29.8610520 104.0105120 142.6205430
  30.3370240 104.4888010 143.2994510  30.4817680 103.9422610 141.8950930
  12.0634000  99.0553870 135.0327020  12.1414420  99.1902640 134.0882740
  12.6775680  98.3469760 135.2255140  13.3081630 100.7554060 131.4433200
  12.9009710 100.8968650 130.5886800  14.1994640 100.4714220 131.2404410
  29.2643770 101.2017970 139.7805440  29.3906830 100.9629850 138.8622620
  29.3065150 100.3702510 140.2527520  23.1260510 104.9045970 138.3500250
  23.6405180 104.8153980 139.1522680  22.2829590 105.2505670 138.6428160
  25.1014910 105.1901310 127.7784250  24.9416050 104.9004250 128.6766080
  24.9361620 104.4141440 127.2429480  17.5803290 104.9699840 129.5555870
  17.4045770 104.0535380 129.3423670  16.7259030 105.3287130 129.7953670
  24.8041040 102.6988870 126.3382250  24.1106200 102.6966160 125.6784530
  25.5463900 102.2748190 125.9076420  24.3690970 104.3251580 130.4130740
  24.8247920 103.5440960 130.7269360  24.7083490 105.0358400 130.9571920
  29.1167780  93.2550430 140.7455180  28.5012050  93.7630100 140.2170640
  28.7964200  92.3548760 140.6881120  12.1193520 100.0968040 137.5721480
  12.2824560  99.6273400 136.7540850  12.5845970  99.5891600 138.2370320
  16.8912290  89.2273800 132.6082050  16.4480440  90.0083340 132.2766570
  17.4497280  89.5503690 133.3152990  21.1782100  92.0942320 138.2117370
  20.7161470  92.3025340 139.0237310  20.7760210  91.2801670 137.9088040
  26.1786610  93.3151270 139.3414030  25.3280200  93.0157020 139.6623100
  26.0188400  93.5593280 138.4297850  23.2736320  94.8153020 141.4412820
  23.5989730  93.9816770 141.1015050  24.0616650  95.3381540 141.5891150
  20.0071110  88.8484500 127.4887880  19.3825290  88.8444370 128.2141190
  19.9201230  87.9815460 127.0923850  18.9288190  89.7721130 134.4671650
  19.2260520  90.6783960 134.3863670  19.4773750  89.2839910 133.8531220
  16.6826510  94.3507370 130.3363300  16.4567430  94.1344540 131.2409920
  15.9019040  94.7835830 129.9909270  23.9124270  94.3570740 128.9353950
  23.3133160  95.0806540 128.7517570  24.4603880  94.2947520 128.1530400
  19.1225720  95.2492950 141.0023570  19.0269320  94.3087680 140.8523970
  19.9657700  95.4708020 140.6071640  22.5189140  92.9934280 130.9657230
  22.9118710  93.3106480 130.1525920  22.8805990  92.1146160 131.0801750
  14.2536260  91.6606620 139.1557350  13.8599650  92.5081830 139.3630130
  13.5654660  91.0232990 139.3465990  20.8281310  91.7441590 142.2254090
  20.1379630  91.5513790 142.8600180  21.5713610  92.0276230 142.7578390
  11.5553310  89.5835080 133.1887430  11.2666360  90.1537940 133.9012410
  12.2999070  89.1039530 133.5518660  11.7423540  93.5255200 124.3990150
  11.6598210  94.4685960 124.5405140  11.3906600  93.3830110 123.5202500
  23.1044280  95.5840030 135.0608010  22.3725400  96.0926840 135.4098110
  22.7068620  94.7670010 134.7596790  19.5421670  92.2594230 133.4660500
  19.5457730  91.8184180 132.6165040  20.4372790  92.5811560 133.5732320
  15.3924050  92.1420720 132.4254710  15.0524100  92.6195950 133.1821760
  14.6301370  91.6885840 132.0655810  19.6041820  93.2606310 126.4567260
  19.7254640  93.2192790 127.4053080  19.2190330  94.1230460 126.3013990
  23.5670190  91.0373710 134.4730950  23.5842930  91.4882360 135.3172800
  23.3185770  90.1379350 134.6864390  18.6163320  95.5707450 125.8550560
  18.0480220  95.1225700 125.2286470  19.3252320  95.9300230 125.3215710
  26.9940940  88.4505890 140.3117330  27.3186710  87.7195550 140.8375310
  27.0297450  88.1319530 139.4098320  13.6932500  99.4719470 139.7317290
  13.3087290  98.8313140 140.3300250  14.0044690 100.1755590 140.3012020
  19.8429640  96.3196010 135.2125910  20.2099770  95.8454580 135.9587250
  19.6534700  97.1937580 135.5534250  12.7070130  91.0639700 131.3419380
  12.4217050  90.6995370 132.1798000  12.6448990  90.3320160 130.7282520
  17.6329010  95.3604650 137.5310120  17.3286080  96.2396630 137.7560480
  18.5875470  95.4204440 137.5667560  16.1610800  99.5665640 128.1276970
  15.3873060  99.0263260 127.9675690  16.8905430  99.0472250 127.7894730
  26.9198780  98.5631000 133.9203360  27.6397900  99.0586290 133.5299470
  26.7180600  97.8848890 133.2757230  22.3808720  89.9568960 128.0632750
  21.5673330  89.4582130 127.9878060  22.1870670  90.7967210 127.6469100
  22.3017580  98.6340060 139.8072360  22.2354890  97.7135730 139.5529950
  21.6722720  98.7315500 140.5217000  25.0957110  94.3288610 126.3594910
  25.9836730  94.6405840 126.1846250  25.0662200  93.4560860 125.9675490
  16.2048200  99.2346020 131.7655780  16.7226870  98.4314280 131.7112670
  15.7532220  99.1725160 132.6072610  21.0917700 100.5012300 127.0383080
  21.4333400 101.2454530 126.5426400  20.2630410 100.8143420 127.4007910
  13.6892740  96.2007390 138.6781480  13.3307680  96.8661240 139.2654820
  13.3947300  95.3690940 139.0494100  16.8905860  96.6591630 141.5621030
  16.5906000  96.8048810 140.6648850  17.6617100  96.0996920 141.4694420
  22.2334310 101.4560630 139.5576160  22.2478850 100.5241590 139.3395070
  21.5259410 101.5420390 140.1965930  27.3671380  95.6400450 125.8274770
  27.2835100  96.0714670 124.9771210  28.0865570  96.0998800 126.2601590
  28.4445520  98.0967970 138.9044740  27.7193710  98.6896750 138.7074130
  28.9720980  98.0891510 138.1058110  28.3958630 102.4942710 128.5556900
  27.7534790 101.8398330 128.8300620  28.0089290 102.8997800 127.7797570
  23.9745110  99.8228140 132.4028590  24.3268930  99.2256270 131.7429960
  23.0907440  99.4972370 132.5736840  20.0608390 100.5825830 129.8099000
  20.7479520 101.1295040 130.1906590  19.2740810 101.1266560 129.8448610
  12.2000790  96.1998650 125.3016080  13.0695640  96.4823450 125.5852000
  11.7091110  97.0134520 125.1864890  19.3635600  97.5871860 129.4224360
  19.8198380  98.3977110 129.6484550  19.0123810  97.2695000 130.2542850
  21.6668210 103.0978200 136.6516660  22.3110430 103.3037580 137.3290080
  22.0297650 102.3366600 136.1987510  15.2647380  87.9309510 129.8946880
  15.1362010  87.9227410 130.8431800  14.4409400  88.2692600 129.5437890
  22.9400290 101.1010550 135.3694110  23.5822520 100.4003710 135.4826280
  23.4649640 101.8808990 135.1891000  26.7856010 101.3859170 125.0933250
  26.5593590 100.6689610 125.6857890  26.3952210 101.1371610 124.2555000
  24.7137910 101.9005450 138.5730170  25.0494150 102.4872140 139.2508090
  23.7938250 101.7698160 138.8027960  12.5672040 105.4126030 125.8677710
  12.9269680 106.0115370 125.2134980  12.4264380 105.9585920 126.6412740
  12.2641310  89.6900630 139.3553580  11.5499830  89.8897550 139.9606190
  12.6836350  88.9140200 139.7268380  26.3672260  99.3031110 126.7547410
  26.0793960  99.7643800 127.5425290  27.1624430  98.8428880 127.0231630
  12.5513900 103.6780890 140.3420110  12.6605020 102.7375630 140.2015500
  11.8994460 103.9435640 139.6933840  20.5426490 101.9496780 141.7418230
  20.2223360 101.2306020 142.2863920  19.8684850 102.6251850 141.8154290
  18.5840660 102.7957230 126.6851380  18.5750760 103.5286920 126.0695890
  17.6639020 102.5488810 126.7778340  14.1847300  98.0172120 127.4298140
  13.5775250  98.7571020 127.4393440  14.6596650  98.1071480 126.6036340
  23.7580090  92.1822940 137.1055030  24.1260910  91.3618150 137.4334600
  22.8978290  92.2424830 137.5210680  27.1242120  91.1379880 127.9142590
  26.4955280  91.2425550 127.2000820  26.6294040  91.3576660 128.7036470
  21.5700260 102.8585470 125.3476570  21.6712240 102.6549460 124.4178550
  20.6702000 102.6043750 125.5524350  19.0926150  93.4165830 129.3300470
  18.3842300  93.8852170 129.7714080  19.3770630  92.7587840 129.9645660
  20.7182080  94.8362530 137.3293000  21.2167330  95.3108350 137.9944850
  20.8605030  93.9126050 137.5363030  23.1241580  90.1416490 130.7696260
  23.0009360  90.1602620 129.8205770  24.0726140  90.1895430 130.8894660
  20.2118370 105.3771790 130.0424240  20.4659870 105.3393180 129.1203610
  19.2630850 105.2505120 130.0352490  17.2961170  91.7250910 126.7051180
  18.1451700  92.1621060 126.6391370  16.9292440  92.0371170 127.5323240
  27.9248940  91.0530490 138.1721390  27.4222540  91.7935890 138.5115200
  28.7405600  91.4414490 137.8558180  26.2170950  96.2963670 131.6182750
  25.2761090  96.3113900 131.7930440  26.5315020  95.5099630 132.0643050
  16.1952590  97.9783270 125.1786710  16.9615860  97.8664630 125.7412140
  16.2727280  97.2821240 124.5263480  14.8899350  95.4108340 125.8619600
  14.9702940  94.4635850 125.9737000  15.7819100  95.7415220 125.9680260
  28.2196530 103.4672520 133.2937010  28.3443950 104.2903690 133.7660820
  29.0862090 103.2563250 132.9461160  15.6914060 105.5603730 132.9654140
  16.4276540 105.0119190 133.2362710  16.0754980 106.4259740 132.8260130
  12.5759540 101.6277300 128.8395650  11.6499320 101.8698440 128.8301060
  13.0415970 102.4551560 128.7180400  14.6972340 104.7449800 142.1539720
  15.4985070 105.0661850 142.5675120  14.1824160 104.3845380 142.8759630
  18.8016370 104.7334040 124.7879710  19.5944980 105.0222870 124.3361500
  18.2820720 104.3026210 124.1092190  23.5336970 100.8529670 142.1015130
  22.9275130 100.8761270 141.3610880  23.2291080 100.1212710 142.6382380
  24.9637340 104.5809960 140.7124540  25.9159090 104.4967980 140.6624780
  24.8165560 105.2451670 141.3858330  27.8546540 103.9604170 126.2116450
  27.5688050 103.5469310 125.3970630  27.6566090 104.8891880 126.0916970
  12.4170150  97.2323260 141.0975770  12.9209170  96.6530540 141.6692000
  11.6777570  97.5163490 141.6352140  19.3193770  99.9537450 124.6522060
  19.2144410  99.3389800 125.3783440  19.1517990  99.4303340 123.8685070
  19.4708090  98.6394250 140.6311290  18.7053760  99.2079250 140.5465960
  19.6524050  98.3470460 139.7379520  22.5596500  99.0157480 125.2564050
  22.0106600  99.4626780 125.9006790  23.1815760  98.5106730 125.7801720
  26.6131440 100.3699580 141.1886310  27.3540910 100.7075340 140.6853770
  25.8504120 100.5391640 140.6356080  14.4493230  95.3752850 141.9925840
  14.4898570  95.0766720 142.9011070  15.3038730  95.7760460 141.8333360
  18.2271620  97.9748400 127.1529350  18.6488040  97.8088270 127.9960740
  18.3522460  97.1648630 126.6584490  16.3899040  93.9544950 139.9600330
  15.8595500  93.4635900 139.3323670  17.0587110  94.3829150 139.4258260
  20.7399260  96.9986010 124.4006450  21.2604920  96.2835030 124.0347600
  21.3867660  97.6371880 124.7006960  25.2877100  98.4214410 139.7241520
  25.7018120  98.5759490 140.5731940  24.3528100  98.5469630 139.8867300
  25.7599270  95.7610570 141.7280670  26.3420040  95.0062890 141.6401150
  25.9361040  96.2918010 140.9512150  16.8771340  90.9207320 140.0397620
  16.7828210  90.3028070 139.3148490  16.2968730  91.6473610 139.8127530
  19.6432780  89.4780560 137.0725010  19.1950080  89.5004820 136.2270560
  19.0097980  89.0799580 137.6695310  20.0492330  98.3734890 137.6937450
  20.4680440  99.2167620 137.5213690  19.1300960  98.5106930 137.4644230
  22.3856230  96.1051070 139.0775290  22.5052440  95.5092210 139.8170130
  23.2450230  96.1420760 138.6576590  24.7244130  96.6588260 137.6537800
  24.1979350  97.1830880 137.0502940  25.0675470  97.2915650 138.2847530
  17.1230520  94.0481630 124.0987510  16.9219580  93.1848990 124.4600850
  16.9522570  93.9614990 123.1609110  17.8999750 104.6787900 138.8095180
  17.3620840 105.4033960 138.4903880  18.1533710 104.2018240 138.0192520
  19.1525000  92.6472420 140.3351110  19.7424690  92.3388270 141.0228930
  18.3345240  92.1752170 140.4911010  23.9718430  92.2638230 140.5684130
  23.2833950  91.6019770 140.5034120  24.6924450  91.8176500 141.0132590
  24.6018830  88.8589860 126.6274390  24.8821120  88.0157760 126.9833810
  23.8284560  89.0912970 127.1413140  15.9213320  91.1482250 124.0865390
  16.2239220  91.1549680 123.1784540  16.6607910  90.7980110 124.5833050
  20.7561960 105.9139110 139.0681830  20.6820660 106.8174250 139.3754200
  19.8540800 105.5951010 139.0403900  19.1398250  90.0916870 125.0721590
  18.7920250  89.4140860 124.4924040  19.3411020  89.6306380 125.8864980
  21.3047290 105.0797620 126.6908190  22.1998080 105.4182590 126.7126950
  21.3364920 104.3577030 126.0632470  14.9443450 100.4524670 124.9195190
  15.3818320 100.9954340 125.5752770  15.4291180  99.6271620 124.9291530
  12.1589250 103.2413700 132.3715450  12.4892260 102.3734760 132.1394090
  12.5880250 103.4472220 133.2020410  16.7551170 101.5722710 130.0317420
  16.4546710 101.4487680 130.9321330  16.6488660 100.7131300 129.6233150
  12.6479460 104.1084290 135.1097080  12.2110450 104.2885090 135.9421230
  13.2157140 104.8658910 134.9678800  28.2841640 103.6101290 139.3974390
  27.6843630 103.6693850 138.6538310  28.4135540 102.6706270 139.5271240
  29.5243090 101.3519110 124.7344100  28.6936050 101.4195760 125.2051330
  29.7014920 102.2423230 124.4310960  28.9799550  98.0966590 127.2378300
  29.7418460  98.6663240 127.3437990  28.9953920  97.5293790 128.0086610
  12.4803890  96.6204520 131.4685960  11.8252730  96.3516160 130.8245660
  13.3181840  96.5109000 131.0187940  29.9859520  98.9516690 132.0820230
  30.3568350  98.1684010 131.6756200  30.6261450  99.6405790 131.9037530
  26.9693280 100.3353270 137.4950550  26.1553120 100.7650430 137.7576340
  27.3767480 100.9471680 136.8819600  29.0318720  98.3900960 124.3950820
  29.3067560  99.2979840 124.2670040  28.8429460  98.3263490 125.3312810
  25.4294330  91.4145810 125.6904450  25.8479210  91.2276790 124.8501110
  25.1230390  90.5624860 126.0007380  28.9284060  96.3269950 129.3880250
  28.5527660  95.5597880 128.9561540  28.1987180  96.7092650 129.8755180
  13.5179820  97.0057090 136.0089300  13.8852860  96.9184490 136.8885320
  12.9490640  96.2423640 135.9096160  28.3183680  95.4741470 139.0219770
  28.0869770  95.2454220 138.1217720  28.5788230  96.3941020 138.9764660
  13.0695820  93.9166180 139.9147720  12.1751870  93.8832940 140.2541430
  13.6093370  94.1152970 140.6798970  26.7571750  90.6997900 141.7999470
  27.6341930  90.7081300 142.1833470  26.7692590  89.9628740 141.1891820
  11.6941970  93.8303450 127.4111290  10.7906050  94.0933650 127.2362950
  12.1782590  94.1014620 126.6311250  28.2035020  94.5527440 132.6887490
  28.7272500  94.0590090 132.0577660  28.7894440  94.6877800 133.4335060
  28.3824740  94.6367310 136.2107040  27.4327450  94.6030850 136.3252030
  28.5637750  95.5467420 135.9756810  14.2369180  92.8868990 125.3205670
  14.9460880  92.4652210 124.8352950  13.5209120  92.9544220 124.6889020
  13.8843340  88.9408320 124.3608320  14.6071470  89.4817260 124.6789540
  14.1567860  88.6671740 123.4849860  27.6934990  93.8100790 128.6279900
  28.1894110  93.5771660 129.4128780  27.4951060  92.9712630 128.2117540
  13.5735530  88.1914510 134.2630940  14.2211720  87.6411890 133.8226100
  13.9937370  88.4457660 135.0846750  29.1222150  92.4461740 131.1617580
  29.0121430  92.2917780 132.0999850  29.8829740  91.9182680 130.9192990
  27.4687870  88.3855870 137.6200580  28.1060090  88.9990010 137.9859770
  27.6162760  88.4216530 136.6749810  30.0112420  90.2769660 124.4023720
  30.9361730  90.1450840 124.1942010  29.9888210  90.3562480 125.3560170
  30.0850910  91.0480320 127.0280430  29.2902410  90.9825440 127.5573340
  30.2894190  91.9830960 127.0165780  27.0269330 105.0871870 131.0218820
  27.6228400 104.7656440 130.3453240  27.2847480 104.6143690 131.8132090
  13.3267530  88.3470180 137.0056260  12.9782350  88.8034000 137.7714440
  12.9955230  87.4527310 137.0878690  14.9331900 101.5189780 141.1709450
  14.8901530 101.1482690 142.0523910  15.0642910 102.4567350 141.3111270
  18.6337930 103.0749370 136.7719170  18.3929290 103.3423930 135.8849690
  19.5740570 103.2455100 136.8270030  20.8392350  89.5382060 140.5275680
  20.7781240  90.1303890 141.2771090  21.7792730  89.4308020 140.3825940
  23.4766910  89.1952120 140.1667970  24.0907320  89.5131410 139.5049050
  24.0216470  88.7100710 140.7863830  29.8942090 105.0943750 137.5729810
  29.4000370 105.4912620 136.8556940  29.2855380 104.4692960 137.9667090
  13.9988170  87.8746380 140.2807030  14.5471160  87.6934430 139.5173140
  14.0643480  87.0840490 140.8163340  14.7719930 104.4652030 138.2907230
  14.1780250 104.3336730 139.0297270  14.7643770 103.6290170 137.8249330
  24.2174950  87.7584260 136.4937260  23.3434790  88.0919370 136.2910190
  24.1085700  87.2857440 137.3189130  25.1246930  89.9655130 137.8778980
  24.7960290  89.1506890 137.4980710  26.0729230  89.9224940 137.7544670
  27.5781540 105.7367170 134.8516550  27.1184510 106.4882980 134.4774570
  26.9494000 105.0173640 134.7931350  14.4032160 101.8310410 137.2415270
  13.6766220 101.2115700 137.1741220  14.4641310 102.2251020 136.3713350
  18.0077260 104.0455410 134.0264680  18.5242280 103.4342770 133.5012940
  18.6574640 104.5484190 134.5175690  20.7472760 104.9363900 134.8533660
  21.0350570 104.6818200 133.9766670  21.2595980 104.3841260 135.4439230
  21.9649770  88.6754100 135.4330170  21.1821560  89.1499600 135.7126930
  21.6712700  87.7708930 135.3243350  26.5170840  89.3777200 133.4779260
  26.9578930  89.3222300 132.6300860  26.2478430  90.2935210 133.5489440
  28.3809410  89.0092440 131.4888080  28.3197810  88.0653660 131.3419100
  29.1601440  89.1172530 132.0341540  12.6862160 105.1484800 130.4512030
  12.5184200 104.5155480 131.1493920  11.8196670 105.3544200 130.1006220
  13.3090180  88.9801580 127.9543890  14.0669540  89.0930460 127.3807920
  12.8467350  89.8170780 127.9087320  19.8503990  91.0940850 130.9446200
  19.0378500  90.7197740 130.6042080  20.3545630  90.3385930 131.2467390
  24.3528970  87.7583300 132.1829270  24.9558340  88.3303510 132.6577790
  23.6121960  88.3222740 131.9603170  27.4963570  88.1604860 127.4569550
  27.6914200  89.0588310 127.7236980  26.7093440  87.9291940 127.9502500
  14.2924860 103.8418030 127.8962170  13.7672480 104.2226060 127.1924130
  14.2169440 104.4668800 128.6171880  15.6815330  89.5065630 126.4945860
  16.2108090  88.7195430 126.3653810  16.3143650  90.1856820 126.7281390
  17.8753170  89.2440770 129.5491250  17.2455910  88.5428080 129.7161380
  17.3358310  90.0044900 129.3324410  20.8145120 105.8580000 142.2201860
  21.7412430 105.6224270 142.2637820  20.7995550 106.6852000 141.7387890
  29.0490180 105.4005570 129.2176110  29.2242370 104.7143310 128.5737030
  28.3511750 105.9252620 128.8252780  18.0008730  88.5224750 141.9843740
  17.7193000  89.0258350 141.2204560  18.3828430  87.7246500 141.6185870
  16.8917830 105.7900410 126.7711420  17.6236650 105.5059690 126.2235310
  17.1511500 105.5513690 127.6610800  16.0532620 101.9065140 126.7757750
  15.4241500 102.3750240 127.3243580  16.1680450 101.0614360 127.2103940
  24.6024190  87.9378330 142.5624210  24.4889640  88.2572940 143.4575730
  25.4193930  88.3390840 142.2661490  27.3822680 105.0849860 142.0442900
  28.1748000 104.5899090 141.8368860  27.6755830 105.7640000 142.6518510
  23.5082340  95.9570800 112.9258950  23.4276390  95.0425410 112.6550660
  23.0946760  96.4537870 112.2198660  21.6400380  97.7349820 114.8068220
  20.8642480  97.2550260 115.0966790  22.2913310  97.0555470 114.6324380
  15.6566210  98.0469630 115.6843980  14.8251090  97.7918340 116.0840490
  16.2647190  98.1180400 116.4201900  25.6607810 102.1410010 113.5867350
  25.1989340 101.3697250 113.9154520  26.4733360 102.1676080 114.0919800
  15.6367470 102.0809720 115.8802000  15.9395510 101.1907460 115.7012220
  16.3811060 102.6379940 115.6524250  14.0658160  93.0071520 109.4686370
  13.1774860  93.3487490 109.3666250  14.3499350  92.8071840 108.5767200
  12.0291170  95.6077170 115.3526070  12.6007280  94.8399370 115.3529710
  12.0292710  95.9065930 114.4432680  21.8871120 104.4268020 113.2071340
  21.2682560 104.8825520 112.6365780  22.7422900 104.5819480 112.8061040
  21.0809370 100.4107010 114.8138380  21.0117650  99.4696950 114.6527510
  21.8429230 100.5008420 115.3860950  13.2716040  91.0161530 117.1395000
  13.0918880  90.1187280 117.4197760  12.8696120  91.5633400 117.8141950
  22.1114540  93.2177390 115.0407310  22.4879360  92.3449270 114.9280980
  22.0134050  93.5536090 114.1497750  16.2419550  91.5903020 110.5024750
  16.3486300  92.4906750 110.8093510  15.3311910  91.5420990 110.2119400
  25.8938660  90.7127830 111.9735650  26.7148280  90.2224400 112.0161130
  25.9272740  91.3025490 112.7267490  13.8902710  93.5122030 115.7477340
  14.5712820  93.7760400 116.3664740  13.5750760  92.6722900 116.0815350
  18.0827280  94.5589390 114.8349930  18.5905500  95.0570360 115.4754950
  18.6140520  93.7824590 114.6589290  30.1838210  92.7294580 118.5379280
  29.4790380  93.1176290 118.0194390  30.4496130  93.4244870 119.1400210
  16.3663380  89.1987950 119.1013350  16.3681820  89.7160340 118.2959250
  15.5367690  88.7218130 119.0783280  22.7534470  99.3107260 110.6003250
  22.1351740  99.7756710 110.0365970  23.2657720 100.0034740 111.0172760
  17.6166230  98.8383130 117.2786850  17.2835610  99.4652050 117.9207920
  17.7932910  99.3645010 116.4988520  26.1300140  92.6528210 114.7463190
  25.4255710  92.9413100 115.3266300  26.4912300  93.4628320 114.3862750
  16.0478710  90.9097910 117.1083800  16.3895520  91.7539960 116.8137670
  15.1094520  91.0581650 117.2249140  16.8285330 100.8063930 119.0936030
  17.4459330 101.4815010 118.8120480  15.9678450 101.2151910 119.0023530
  12.1217670  99.9963790 107.9742880  11.7445650 100.4850890 107.2427780
  12.3790740 100.6689070 108.6049410  27.7462920 102.2703340 117.0090670
  27.0626440 102.9402450 117.0007340  28.2857210 102.4683990 116.2435530
  29.1987060  92.0983000 115.1372400  28.2511970  92.1321980 115.2687830
  29.5237050  92.9121950 115.5221760  19.7306600  88.3980180 113.4328390
  20.0381580  87.8427070 112.7163890  18.8007300  88.5324640 113.2501380
  25.2821660 104.1147470 115.7235850  25.2948820 103.7109760 114.8558110
  24.7296880 104.8894760 115.6197280  26.5767080 100.8363690 110.8126020
  26.4663410  99.8938020 110.9375440  26.5735330 101.1979330 111.6988780
  24.6807100  99.0177310 117.0518460  25.0975890  98.8037420 116.2171920
  25.4046920  99.2750100 117.6227080  22.1187360  96.4629010 110.1688510
  21.1916640  96.3966390 110.3976980  22.2712180  97.4009140 110.0543750
  22.1056440  92.7346010 107.1655670  21.1660110  92.8959970 107.2508130
  22.4239700  93.4531690 106.6191660  28.6269200  97.4164530 117.1434700
  27.7987830  97.4857620 116.6684830  29.2219680  98.0018840 116.6750530
  26.1484650  98.0249310 110.6723760  25.5297070  97.6868860 110.0250060
  26.1309100  97.3809070 111.3802950  25.5911210  94.2033850 118.0889570
  25.1782390  95.0287560 118.3429560  24.8587160  93.6178890 117.8965930
  17.7244000  96.9893750 112.9508240  17.3201000  96.2771000 112.4554140
  17.8107120  96.6446990 113.8396280  18.1925700 100.6761310 115.1147450
  17.8953990 100.0706780 114.4355230  19.1425520 100.7138620 115.0036810
  16.4372620  93.7636960 116.7307280  16.9887210  93.8732300 115.9560530
  16.9516130  94.1374560 117.4462510  26.2811310 104.2493180 118.7770550
  25.8041870 105.0565370 118.5843160  25.5973100 103.5971510 118.9296760
  17.2844130 100.4143000 121.7655250  16.3872660 100.6382970 122.0128650
  17.3097000 100.5377940 120.8166650  24.3249350  97.2636120 107.6796510
  24.7642630  96.4258550 107.5334330  25.0377770  97.8965520 107.7660650
  16.1115350  97.2856320 120.3412620  15.9723120  98.1579120 120.7100020
  15.2296710  96.9429130 120.1960560  22.4344730 102.2032190 111.6477750
  22.8740640 102.9456520 111.2333140  22.3731620 102.4458760 112.5716710
  17.9095700 103.2278020 122.5497770  17.8811130 103.6320970 121.6826200
  17.7460670 102.2988380 122.3869370  27.9066490  88.5178930 105.9937550
  27.5939150  88.6105760 106.8936620  28.6678960  89.0959960 105.9434980
  14.4248630  95.8838730 110.4514890  14.3046230  96.6100820 109.8396160
  14.1149520  95.1141640 109.9742800  29.8610520 104.0105120 123.8461940
  30.3370240 104.4888010 124.5251020  30.4817680 103.9422610 123.1207440
  12.0634000  99.0553870 116.2583530  12.1414420  99.1902640 115.3139250
  12.6775680  98.3469760 116.4511650  13.3081630 100.7554060 112.6689710
  12.9009710 100.8968650 111.8143310  14.1994640 100.4714220 112.4660920
  29.2643770 101.2017970 121.0061950  29.3906830 100.9629850 120.0879130
  29.3065150 100.3702510 121.4784030  23.1260510 104.9045970 119.5756760
  23.6405180 104.8153980 120.3779190  22.2829590 105.2505670 119.8684670
  25.1014910 105.1901310 109.0040760  24.9416050 104.9004250 109.9022590
  24.9361620 104.4141440 108.4685990  17.5803290 104.9699840 110.7812380
  17.4045770 104.0535380 110.5680180  16.7259030 105.3287130 111.0210180
  24.8041040 102.6988870 107.5638760  24.1106200 102.6966160 106.9041040
  25.5463900 102.2748190 107.1332930  24.3690970 104.3251580 111.6387250
  24.8247920 103.5440960 111.9525870  24.7083490 105.0358400 112.1828430
  29.1167780  93.2550430 121.9711690  28.5012050  93.7630100 121.4427150
  28.7964200  92.3548760 121.9137630  12.1193520 100.0968040 118.7977990
  12.2824560  99.6273400 117.9797360  12.5845970  99.5891600 119.4626830
  16.8912290  89.2273800 113.8338560  16.4480440  90.0083340 113.5023080
  17.4497280  89.5503690 114.5409500  21.1782100  92.0942320 119.4373880
  20.7161470  92.3025340 120.2493820  20.7760210  91.2801670 119.1344550
  26.1786610  93.3151270 120.5670540  25.3280200  93.0157020 120.8879610
  26.0188400  93.5593280 119.6554360  23.2736320  94.8153020 122.6669330
  23.5989730  93.9816770 122.3271560  24.0616650  95.3381540 122.8147660
  20.0071110  88.8484500 108.7144390  19.3825290  88.8444370 109.4397700
  19.9201230  87.9815460 108.3180360  18.9288190  89.7721130 115.6928160
  19.2260520  90.6783960 115.6120180  19.4773750  89.2839910 115.0787730
  16.6826510  94.3507370 111.5619810  16.4567430  94.1344540 112.4666430
  15.9019040  94.7835830 111.2165780  23.9124270  94.3570740 110.1610460
  23.3133160  95.0806540 109.9774080  24.4603880  94.2947520 109.3786910
  19.1225720  95.2492950 122.2280080  19.0269320  94.3087680 122.0780480
  19.9657700  95.4708020 121.8328150  22.5189140  92.9934280 112.1913740
  22.9118710  93.3106480 111.3782430  22.8805990  92.1146160 112.3058260
  14.2536260  91.6606620 120.3813860  13.8599650  92.5081830 120.5886640
  13.5654660  91.0232990 120.5722500  20.8281310  91.7441590 123.4510600
  20.1379630  91.5513790 124.0856690  21.5713610  92.0276230 123.9834900
  11.5553310  89.5835080 114.4143940  11.2666360  90.1537940 115.1268920
  12.2999070  89.1039530 114.7775170  11.7423540  93.5255200 105.6246660
  11.6598210  94.4685960 105.7661650  11.3906600  93.3830110 104.7459010
  23.1044280  95.5840030 116.2864520  22.3725400  96.0926840 116.6354620
  22.7068620  94.7670010 115.9853300  19.5421670  92.2594230 114.6917010
  19.5457730  91.8184180 113.8421550  20.4372790  92.5811560 114.7988830
  15.3924050  92.1420720 113.6511220  15.0524100  92.6195950 114.4078270
  14.6301370  91.6885840 113.2912320  19.6041820  93.2606310 107.6823770
  19.7254640  93.2192790 108.6309590  19.2190330  94.1230460 107.5270500
  23.5670190  91.0373710 115.6987460  23.5842930  91.4882360 116.5429310
  23.3185770  90.1379350 115.9120900  18.6163320  95.5707450 107.0807070
  18.0480220  95.1225700 106.4542980  19.3252320  95.9300230 106.5472220
  26.9940940  88.4505890 121.5373840  27.3186710  87.7195550 122.0631820
  27.0297450  88.1319530 120.6354830  13.6932500  99.4719470 120.9573800
  13.3087290  98.8313140 121.5556760  14.0044690 100.1755590 121.5268530
  19.8429640  96.3196010 116.4382420  20.2099770  95.8454580 117.1843760
  19.6534700  97.1937580 116.7790760  12.7070130  91.0639700 112.5675890
  12.4217050  90.6995370 113.4054510  12.6448990  90.3320160 111.9539030
  17.6329010  95.3604650 118.7566630  17.3286080  96.2396630 118.9816990
  18.5875470  95.4204440 118.7924070  16.1610800  99.5665640 109.3533480
  15.3873060  99.0263260 109.1932200  16.8905430  99.0472250 109.0151240
  26.9198780  98.5631000 115.1459870  27.6397900  99.0586290 114.7555980
  26.7180600  97.8848890 114.5013740  22.3808720  89.9568960 109.2889260
  21.5673330  89.4582130 109.2134570  22.1870670  90.7967210 108.8725610
  22.3017580  98.6340060 121.0328870  22.2354890  97.7135730 120.7786460
  21.6722720  98.7315500 121.7473510  25.0957110  94.3288610 107.5851420
  25.9836730  94.6405840 107.4102760  25.0662200  93.4560860 107.1932000
  16.2048200  99.2346020 112.9912290  16.7226870  98.4314280 112.9369180
  15.7532220  99.1725160 113.8329120  21.0917700 100.5012300 108.2639590
  21.4333400 101.2454530 107.7682910  20.2630410 100.8143420 108.6264420
  13.6892740  96.2007390 119.9037990  13.3307680  96.8661240 120.4911330
  13.3947300  95.3690940 120.2750610  16.8905860  96.6591630 122.7877540
  16.5906000  96.8048810 121.8905360  17.6617100  96.0996920 122.6950930
  22.2334310 101.4560630 120.7832670  22.2478850 100.5241590 120.5651580
  21.5259410 101.5420390 121.4222440  27.3671380  95.6400450 107.0531280
  27.2835100  96.0714670 106.2027720  28.0865570  96.0998800 107.4858100
  28.4445520  98.0967970 120.1301250  27.7193710  98.6896750 119.9330640
  28.9720980  98.0891510 119.3314620  23.9745110  99.8228140 113.6285100
  24.3268930  99.2256270 112.9686470  23.0907440  99.4972370 113.7993350
  20.0608390 100.5825830 111.0355510  20.7479520 101.1295040 111.4163100
  19.2740810 101.1266560 111.0705120  12.2000790  96.1998650 106.5272590
  13.0695640  96.4823450 106.8108510  11.7091110  97.0134520 106.4121400
  19.3635600  97.5871860 110.6480870  19.8198380  98.3977110 110.8741060
  19.0123810  97.2695000 111.4799360  21.6668210 103.0978200 117.8773170
  22.3110430 103.3037580 118.5546590  22.0297650 102.3366600 117.4244020
  15.2647380  87.9309510 111.1203390  15.1362010  87.9227410 112.0688310
  14.4409400  88.2692600 110.7694400  22.9400290 101.1010550 116.5950620
  23.5822520 100.4003710 116.7082790  23.4649640 101.8808990 116.4147510
  24.7137910 101.9005450 119.7986680  25.0494150 102.4872140 120.4764600
  23.7938250 101.7698160 120.0284470  12.5672040 105.4126030 107.0934220
  12.9269680 106.0115370 106.4391490  12.4264380 105.9585920 107.8669250
  12.2641310  89.6900630 120.5810090  11.5499830  89.8897550 121.1862700
  12.6836350  88.9140200 120.9524890  26.3672260  99.3031110 107.9803920
  26.0793960  99.7643800 108.7681800  27.1624430  98.8428880 108.2488140
  12.5513900 103.6780890 121.5676620  12.6605020 102.7375630 121.4272010
  11.8994460 103.9435640 120.9190350  20.5426490 101.9496780 122.9674740
  20.2223360 101.2306020 123.5120430  19.8684850 102.6251850 123.0410800
  18.5840660 102.7957230 107.9107890  18.5750760 103.5286920 107.2952400
  17.6639020 102.5488810 108.0034850  14.1847300  98.0172120 108.6554650
  13.5775250  98.7571020 108.6649950  14.6596650  98.1071480 107.8292850
  23.7580090  92.1822940 118.3311540  24.1260910  91.3618150 118.6591110
  22.8978290  92.2424830 118.7467190  27.1242120  91.1379880 109.1399100
  26.4955280  91.2425550 108.4257330  26.6294040  91.3576660 109.9292980
  21.5700260 102.8585470 106.5733080  21.6712240 102.6549460 105.6435060
  20.6702000 102.6043750 106.7780860  19.0926150  93.4165830 110.5556980
  18.3842300  93.8852170 110.9970590  19.3770630  92.7587840 111.1902170
  20.7182080  94.8362530 118.5549510  21.2167330  95.3108350 119.2201360
  20.8605030  93.9126050 118.7619540  23.1241580  90.1416490 111.9952770
  23.0009360  90.1602620 111.0462280  24.0726140  90.1895430 112.1151170
  20.2118370 105.3771790 111.2680750  20.4659870 105.3393180 110.3460120
  19.2630850 105.2505120 111.2609000  17.2961170  91.7250910 107.9307690
  18.1451700  92.1621060 107.8647880  16.9292440  92.0371170 108.7579750
  27.9248940  91.0530490 119.3977900  27.4222540  91.7935890 119.7371710
  28.7405600  91.4414490 119.0814690  26.2170950  96.2963670 112.8439260
  25.2761090  96.3113900 113.0186950  26.5315020  95.5099630 113.2899560
  16.1952590  97.9783270 106.4043220  16.9615860  97.8664630 106.9668650
  16.2727280  97.2821240 105.7519990  14.8899350  95.4108340 107.0876110
  14.9702940  94.4635850 107.1993510  15.7819100  95.7415220 107.1936770
  28.2196530 103.4672520 114.5193520  28.3443950 104.2903690 114.9917330
  29.0862090 103.2563250 114.1717670  15.6914060 105.5603730 114.1910650
  16.4276540 105.0119190 114.4619220  16.0754980 106.4259740 114.0516640
  12.5759540 101.6277300 110.0652160  11.6499320 101.8698440 110.0557570
  13.0415970 102.4551560 109.9436910  14.6972340 104.7449800 123.3796230
  15.4985070 105.0661850 123.7931630  14.1824160 104.3845380 124.1016140
  18.8016370 104.7334040 106.0136220  19.5944980 105.0222870 105.5618010
  18.2820720 104.3026210 105.3348700  23.5336970 100.8529670 123.3271640
  22.9275130 100.8761270 122.5867390  23.2291080 100.1212710 123.8638890
  24.9637340 104.5809960 121.9381050  25.9159090 104.4967980 121.8881290
  24.8165560 105.2451670 122.6114840  12.4170150  97.2323260 122.3232280
  12.9209170  96.6530540 122.8948510  11.6777570  97.5163490 122.8608650
  19.3193770  99.9537450 105.8778570  19.2144410  99.3389800 106.6039950
  19.1517990  99.4303340 105.0941580  19.4708090  98.6394250 121.8567800
  18.7053760  99.2079250 121.7722470  19.6524050  98.3470460 120.9636030
  22.5596500  99.0157480 106.4820560  22.0106600  99.4626780 107.1263300
  23.1815760  98.5106730 107.0058230  26.6131440 100.3699580 122.4142820
  27.3540910 100.7075340 121.9110280  25.8504120 100.5391640 121.8612590
  14.4493230  95.3752850 123.2182350  14.4898570  95.0766720 124.1267580
  15.3038730  95.7760460 123.0589870  18.2271620  97.9748400 108.3785860
  18.6488040  97.8088270 109.2217250  18.3522460  97.1648630 107.8841000
  16.3899040  93.9544950 121.1856840  15.8595500  93.4635900 120.5580180
  17.0587110  94.3829150 120.6514770  20.7399260  96.9986010 105.6262960
  21.2604920  96.2835030 105.2604110  21.3867660  97.6371880 105.9263470
  25.2877100  98.4214410 120.9498030  25.7018120  98.5759490 121.7988450
  24.3528100  98.5469630 121.1123810  25.7599270  95.7610570 122.9537180
  26.3420040  95.0062890 122.8657660  25.9361040  96.2918010 122.1768660
  16.8771340  90.9207320 121.2654130  16.7828210  90.3028070 120.5405000
  16.2968730  91.6473610 121.0384040  19.6432780  89.4780560 118.2981520
  19.1950080  89.5004820 117.4527070  19.0097980  89.0799580 118.8951820
  20.0492330  98.3734890 118.9193960  20.4680440  99.2167620 118.7470200
  19.1300960  98.5106930 118.6900740  22.3856230  96.1051070 120.3031800
  22.5052440  95.5092210 121.0426640  23.2450230  96.1420760 119.8833100
  24.7244130  96.6588260 118.8794310  24.1979350  97.1830880 118.2759450
  25.0675470  97.2915650 119.5104040  17.1230520  94.0481630 105.3244020
  16.9219580  93.1848990 105.6857360  16.9522570  93.9614990 104.3865620
  17.8999750 104.6787900 120.0351690  17.3620840 105.4033960 119.7160390
  18.1533710 104.2018240 119.2449030  19.1525000  92.6472420 121.5607620
  19.7424690  92.3388270 122.2485440  18.3345240  92.1752170 121.7167520
  23.9718430  92.2638230 121.7940640  23.2833950  91.6019770 121.7290630
  24.6924450  91.8176500 122.2389100  24.6018830  88.8589860 107.8530900
  24.8821120  88.0157760 108.2090320  23.8284560  89.0912970 108.3669650
  15.9213320  91.1482250 105.3121900  16.2239220  91.1549680 104.4041050
  16.6607910  90.7980110 105.8089560  20.7561960 105.9139110 120.2938340
  20.6820660 106.8174250 120.6010710  19.8540800 105.5951010 120.2660410
  19.1398250  90.0916870 106.2978100  18.7920250  89.4140860 105.7180550
  19.3411020  89.6306380 107.1121490  21.3047290 105.0797620 107.9164700
  22.1998080 105.4182590 107.9383460  21.3364920 104.3577030 107.2888980
  14.9443450 100.4524670 106.1451700  15.3818320 100.9954340 106.8009280
  15.4291180  99.6271620 106.1548040  12.1589250 103.2413700 113.5971960
  12.4892260 102.3734760 113.3650600  12.5880250 103.4472220 114.4276920
  16.7551170 101.5722710 111.2573930  16.4546710 101.4487680 112.1577840
  16.6488660 100.7131300 110.8489660  12.6479460 104.1084290 116.3353590
  12.2110450 104.2885090 117.1677740  13.2157140 104.8658910 116.1935310
  28.2841640 103.6101290 120.6230900  27.6843630 103.6693850 119.8794820
  28.4135540 102.6706270 120.7527750  12.4803890  96.6204520 112.6942470
  11.8252730  96.3516160 112.0502170  13.3181840  96.5109000 112.2444450
  29.9859520  98.9516690 113.3076740  30.3568350  98.1684010 112.9012710
  30.6261450  99.6405790 113.1294040  26.9693280 100.3353270 118.7207060
  26.1553120 100.7650430 118.9832850  27.3767480 100.9471680 118.1076110
  29.0318720  98.3900960 105.6207330  29.3067560  99.2979840 105.4926550
  28.8429460  98.3263490 106.5569320  25.4294330  91.4145810 106.9160960
  25.8479210  91.2276790 106.0757620  25.1230390  90.5624860 107.2263890
  28.9284060  96.3269950 110.6136760  28.5527660  95.5597880 110.1818050
  28.1987180  96.7092650 111.1011690  13.5179820  97.0057090 117.2345810
  13.8852860  96.9184490 118.1141830  12.9490640  96.2423640 117.1352670
  28.3183680  95.4741470 120.2476280  28.0869770  95.2454220 119.3474230
  28.5788230  96.3941020 120.2021170  13.0695820  93.9166180 121.1404230
  12.1751870  93.8832940 121.4797940  13.6093370  94.1152970 121.9055480
  26.7571750  90.6997900 123.0255980  27.6341930  90.7081300 123.4089980
  26.7692590  89.9628740 122.4148330  11.6941970  93.8303450 108.6367800
  10.7906050  94.0933650 108.4619460  12.1782590  94.1014620 107.8567760
  28.2035020  94.5527440 113.9144000  28.7272500  94.0590090 113.2834170
  28.7894440  94.6877800 114.6591570  28.3824740  94.6367310 117.4363550
  27.4327450  94.6030850 117.5508540  28.5637750  95.5467420 117.2013320
  14.2369180  92.8868990 106.5462180  14.9460880  92.4652210 106.0609460
  13.5209120  92.9544220 105.9145530  13.8843340  88.9408320 105.5864830
  14.6071470  89.4817260 105.9046050  14.1567860  88.6671740 104.7106370
  27.6934990  93.8100790 109.8536410  28.1894110  93.5771660 110.6385290
  27.4951060  92.9712630 109.4374050  13.5735530  88.1914510 115.4887450
  14.2211720  87.6411890 115.0482610  13.9937370  88.4457660 116.3103260
  29.1222150  92.4461740 112.3874090  29.0121430  92.2917780 113.3256360
  29.8829740  91.9182680 112.1449500  27.4687870  88.3855870 118.8457090
  28.1060090  88.9990010 119.2116280  27.6162760  88.4216530 117.9006320
  30.0850910  91.0480320 108.2536940  29.2902410  90.9825440 108.7829850
  30.2894190  91.9830960 108.2422290  27.0269330 105.0871870 112.2475330
  27.6228400 104.7656440 111.5709750  27.2847480 104.6143690 113.0388600
  13.3267530  88.3470180 118.2312770  12.9782350  88.8034000 118.9970950
  12.9955230  87.4527310 118.3135200  14.9331900 101.5189780 122.3965960
  14.8901530 101.1482690 123.2780420  15.0642910 102.4567350 122.5367780
  18.6337930 103.0749370 117.9975680  18.3929290 103.3423930 117.1106200
  19.5740570 103.2455100 118.0526540  20.8392350  89.5382060 121.7532190
  20.7781240  90.1303890 122.5027600  21.7792730  89.4308020 121.6082450
  23.4766910  89.1952120 121.3924480  24.0907320  89.5131410 120.7305560
  24.0216470  88.7100710 122.0120340  29.8942090 105.0943750 118.7986320
  29.4000370 105.4912620 118.0813450  29.2855380 104.4692960 119.1923600
  13.9988170  87.8746380 121.5063540  14.5471160  87.6934430 120.7429650
  14.0643480  87.0840490 122.0419850  14.7719930 104.4652030 119.5163740
  14.1780250 104.3336730 120.2553780  14.7643770 103.6290170 119.0505840
  24.2174950  87.7584260 117.7193770  23.3434790  88.0919370 117.5166700
  24.1085700  87.2857440 118.5445640  25.1246930  89.9655130 119.1035490
  24.7960290  89.1506890 118.7237220  26.0729230  89.9224940 118.9801180
  27.5781540 105.7367170 116.0773060  27.1184510 106.4882980 115.7031080
  26.9494000 105.0173640 116.0187860  14.4032160 101.8310410 118.4671780
  13.6766220 101.2115700 118.3997730  14.4641310 102.2251020 117.5969860
  18.0077260 104.0455410 115.2521190  18.5242280 103.4342770 114.7269450
  18.6574640 104.5484190 115.7432200  20.7472760 104.9363900 116.0790170
  21.0350570 104.6818200 115.2023180  21.2595980 104.3841260 116.6695740
  21.9649770  88.6754100 116.6586680  21.1821560  89.1499600 116.9383440
  21.6712700  87.7708930 116.5499860  26.5170840  89.3777200 114.7035770
  26.9578930  89.3222300 113.8557370  26.2478430  90.2935210 114.7745950
  28.3809410  89.0092440 112.7144590  28.3197810  88.0653660 112.5675610
  29.1601440  89.1172530 113.2598050  12.6862160 105.1484800 111.6768540
  12.5184200 104.5155480 112.3750430  11.8196670 105.3544200 111.3262730
  13.3090180  88.9801580 109.1800400  14.0669540  89.0930460 108.6064430
  12.8467350  89.8170780 109.1343830  19.8503990  91.0940850 112.1702710
  19.0378500  90.7197740 111.8298590  20.3545630  90.3385930 112.4723900
  24.3528970  87.7583300 113.4085780  24.9558340  88.3303510 113.8834300
  23.6121960  88.3222740 113.1859680  27.4963570  88.1604860 108.6826060
  27.6914200  89.0588310 108.9493490  26.7093440  87.9291940 109.1759010
  14.2924860 103.8418030 109.1218680  13.7672480 104.2226060 108.4180640
  14.2169440 104.4668800 109.8428390  15.6815330  89.5065630 107.7202370
  16.2108090  88.7195430 107.5910320  16.3143650  90.1856820 107.9537900
  17.8753170  89.2440770 110.7747760  17.2455910  88.5428080 110.9417890
  17.3358310  90.0044900 110.5580920  20.8145120 105.8580000 123.4458370
  21.7412430 105.6224270 123.4894330  20.7995550 106.6852000 122.9644400
  29.0490180 105.4005570 110.4432620  29.2242370 104.7143310 109.7993540
  28.3511750 105.9252620 110.0509290  18.0008730  88.5224750 123.2100250
  17.7193000  89.0258350 122.4461070  18.3828430  87.7246500 122.8442380
  16.8917830 105.7900410 107.9967930  17.6236650 105.5059690 107.4491820
  17.1511500 105.5513690 108.8867310  16.0532620 101.9065140 108.0014260
  15.4241500 102.3750240 108.5500090  16.1680450 101.0614360 108.4360450
  24.6024190  87.9378330 123.7880720  24.4889640  88.2572940 124.6832240
  25.4193930  88.3390840 123.4918000  27.3822680 105.0849860 123.2699410
  28.1748000 104.5899090 123.0625370  27.6755830 105.7640000 123.8775020
  15.6566210  98.0469630  96.9100490  14.8251090  97.7918340  97.3097000
  16.2647190  98.1180400  97.6458410  15.6367470 102.0809720  97.1058510
  15.9395510 101.1907460  96.9268730  16.3811060 102.6379940  96.8780760
  14.0658160  93.0071520  90.6942880  13.1774860  93.3487490  90.5922760
  14.3499350  92.8071840  89.8023710  12.0291170  95.6077170  96.5782580
  12.6007280  94.8399370  96.5786220  12.0292710  95.9065930  95.6689190
  13.2716040  91.0161530  98.3651510  13.0918880  90.1187280  98.6454270
  12.8696120  91.5633400  99.0398460  22.1114540  93.2177390  96.2663820
  22.4879360  92.3449270  96.1537490  22.0134050  93.5536090  95.3754260
  16.2419550  91.5903020  91.7281260  16.3486300  92.4906750  92.0350020
  15.3311910  91.5420990  91.4375910  13.8902710  93.5122030  96.9733850
  14.5712820  93.7760400  97.5921250  13.5750760  92.6722900  97.3071860
  18.0827280  94.5589390  96.0606440  18.5905500  95.0570360  96.7011460
  18.6140520  93.7824590  95.8845800  16.3663380  89.1987950 100.3269860
  16.3681820  89.7160340  99.5215760  15.5367690  88.7218130 100.3039790
  16.0478710  90.9097910  98.3340310  16.3895520  91.7539960  98.0394180
  15.1094520  91.0581650  98.4505650  16.8285330 100.8063930 100.3192540
  17.4459330 101.4815010 100.0376990  15.9678450 101.2151910 100.2280040
  12.1217670  99.9963790  89.1999390  11.7445650 100.4850890  88.4684290
  12.3790740 100.6689070  89.8305920  27.7462920 102.2703340  98.2347180
  27.0626440 102.9402450  98.2263850  28.2857210 102.4683990  97.4692040
  29.1987060  92.0983000  96.3628910  28.2511970  92.1321980  96.4944340
  29.5237050  92.9121950  96.7478270  19.7306600  88.3980180  94.6584900
  20.0381580  87.8427070  93.9420400  18.8007300  88.5324640  94.4757890
  22.1056440  92.7346010  88.3912180  21.1660110  92.8959970  88.4764640
  22.4239700  93.4531690  87.8448170  28.6269200  97.4164530  98.3691210
  27.7987830  97.4857620  97.8941340  29.2219680  98.0018840  97.9007040
  25.5911210  94.2033850  99.3146080  25.1782390  95.0287560  99.5686070
  24.8587160  93.6178890  99.1222440  17.7244000  96.9893750  94.1764750
  17.3201000  96.2771000  93.6810650  17.8107120  96.6446990  95.0652790
  18.1925700 100.6761310  96.3403960  17.8953990 100.0706780  95.6611740
  19.1425520 100.7138620  96.2293320  16.4372620  93.7636960  97.9563790
  16.9887210  93.8732300  97.1817040  16.9516130  94.1374560  98.6719020
  26.2811310 104.2493180 100.0027060  25.8041870 105.0565370  99.8099670
  25.5973100 103.5971510 100.1553270  17.2844130 100.4143000 102.9911760
  16.3872660 100.6382970 103.2385160  17.3097000 100.5377940 102.0423160
  16.1115350  97.2856320 101.5669130  15.9723120  98.1579120 101.9356530
  15.2296710  96.9429130 101.4217070  17.9095700 103.2278020 103.7754280
  17.8811130 103.6320970 102.9082710  17.7460670 102.2988380 103.6125880
  27.9066490  88.5178930  87.2194060  27.5939150  88.6105760  88.1193130
  28.6678960  89.0959960  87.1691490  14.4248630  95.8838730  91.6771400
  14.3046230  96.6100820  91.0652670  14.1149520  95.1141640  91.1999310
  12.0634000  99.0553870  97.4840040  12.1414420  99.1902640  96.5395760
  12.6775680  98.3469760  97.6768160  13.3081630 100.7554060  93.8946220
  12.9009710 100.8968650  93.0399820  14.1994640 100.4714220  93.6917430
  17.5803290 104.9699840  92.0068890  17.4045770 104.0535380  91.7936690
  16.7259030 105.3287130  92.2466690  12.1193520 100.0968040 100.0234500
  12.2824560  99.6273400  99.2053870  12.5845970  99.5891600 100.6883340
  16.8912290  89.2273800  95.0595070  16.4480440  90.0083340  94.7279590
  17.4497280  89.5503690  95.7666010  21.1782100  92.0942320 100.6630390
  20.7161470  92.3025340 101.4750330  20.7760210  91.2801670 100.3601060
  23.2736320  94.8153020 103.8925840  23.5989730  93.9816770 103.5528070
  24.0616650  95.3381540 104.0404170  20.0071110  88.8484500  89.9400900
  19.3825290  88.8444370  90.6654210  19.9201230  87.9815460  89.5436870
  18.9288190  89.7721130  96.9184670  19.2260520  90.6783960  96.8376690
  19.4773750  89.2839910  96.3044240  16.6826510  94.3507370  92.7876320
  16.4567430  94.1344540  93.6922940  15.9019040  94.7835830  92.4422290
  19.1225720  95.2492950 103.4536590  19.0269320  94.3087680 103.3036990
  19.9657700  95.4708020 103.0584660  14.2536260  91.6606620 101.6070370
  13.8599650  92.5081830 101.8143150  13.5654660  91.0232990 101.7979010
  20.8281310  91.7441590 104.6767110  20.1379630  91.5513790 105.3113200
  21.5713610  92.0276230 105.2091410  11.5553310  89.5835080  95.6400450
  11.2666360  90.1537940  96.3525430  12.2999070  89.1039530  96.0031680
  11.7423540  93.5255200  86.8503170  11.6598210  94.4685960  86.9918160
  11.3906600  93.3830110  85.9715520  19.5421670  92.2594230  95.9173520
  19.5457730  91.8184180  95.0678060  20.4372790  92.5811560  96.0245340
  15.3924050  92.1420720  94.8767730  15.0524100  92.6195950  95.6334780
  14.6301370  91.6885840  94.5168830  19.6041820  93.2606310  88.9080280
  19.7254640  93.2192790  89.8566100  19.2190330  94.1230460  88.7527010
  23.5670190  91.0373710  96.9243970  23.5842930  91.4882360  97.7685820
  23.3185770  90.1379350  97.1377410  18.6163320  95.5707450  88.3063580
  18.0480220  95.1225700  87.6799490  19.3252320  95.9300230  87.7728730
  26.9940940  88.4505890 102.7630350  27.3186710  87.7195550 103.2888330
  27.0297450  88.1319530 101.8611340  13.6932500  99.4719470 102.1830310
  13.3087290  98.8313140 102.7813270  14.0044690 100.1755590 102.7525040
  12.7070130  91.0639700  93.7932400  12.4217050  90.6995370  94.6311020
  12.6448990  90.3320160  93.1795540  17.6329010  95.3604650  99.9823140
  17.3286080  96.2396630 100.2073500  18.5875470  95.4204440 100.0180580
  16.1610800  99.5665640  90.5789990  15.3873060  99.0263260  90.4188710
  16.8905430  99.0472250  90.2407750  16.2048200  99.2346020  94.2168800
  16.7226870  98.4314280  94.1625690  15.7532220  99.1725160  95.0585630
  13.6892740  96.2007390 101.1294500  13.3307680  96.8661240 101.7167840
  13.3947300  95.3690940 101.5007120  16.8905860  96.6591630 104.0134050
  16.5906000  96.8048810 103.1161870  17.6617100  96.0996920 103.9207440
  20.0608390 100.5825830  92.2612020  20.7479520 101.1295040  92.6419610
  19.2740810 101.1266560  92.2961630  12.2000790  96.1998650  87.7529100
  13.0695640  96.4823450  88.0365020  11.7091110  97.0134520  87.6377910
  19.3635600  97.5871860  91.8737380  19.8198380  98.3977110  92.0997570
  19.0123810  97.2695000  92.7055870  15.2647380  87.9309510  92.3459900
  15.1362010  87.9227410  93.2944820  14.4409400  88.2692600  91.9950910
  12.5672040 105.4126030  88.3190730  12.9269680 106.0115370  87.6648000
  12.4264380 105.9585920  89.0925760  12.2641310  89.6900630 101.8066600
  11.5499830  89.8897550 102.4119210  12.6836350  88.9140200 102.1781400
  12.5513900 103.6780890 102.7933130  12.6605020 102.7375630 102.6528520
  11.8994460 103.9435640 102.1446860  20.5426490 101.9496780 104.1931250
  20.2223360 101.2306020 104.7376940  19.8684850 102.6251850 104.2667310
  18.5840660 102.7957230  89.1364400  18.5750760 103.5286920  88.5208910
  17.6639020 102.5488810  89.2291360  14.1847300  98.0172120  89.8811160
  13.5775250  98.7571020  89.8906460  14.6596650  98.1071480  89.0549360
  23.7580090  92.1822940  99.5568050  24.1260910  91.3618150  99.8847620
  22.8978290  92.2424830  99.9723700  19.0926150  93.4165830  91.7813490
  18.3842300  93.8852170  92.2227100  19.3770630  92.7587840  92.4158680
  20.2118370 105.3771790  92.4937260  20.4659870 105.3393180  91.5716630
  19.2630850 105.2505120  92.4865510  17.2961170  91.7250910  89.1564200
  18.1451700  92.1621060  89.0904390  16.9292440  92.0371170  89.9836260
  16.1952590  97.9783270  87.6299730  16.9615860  97.8664630  88.1925160
  16.2727280  97.2821240  86.9776500  14.8899350  95.4108340  88.3132620
  14.9702940  94.4635850  88.4250020  15.7819100  95.7415220  88.4193280
  15.6914060 105.5603730  95.4167160  16.4276540 105.0119190  95.6875730
  16.0754980 106.4259740  95.2773150  12.5759540 101.6277300  91.2908670
  11.6499320 101.8698440  91.2814080  13.0415970 102.4551560  91.1693420
  14.6972340 104.7449800 104.6052740  15.4985070 105.0661850 105.0188140
  14.1824160 104.3845380 105.3272650  18.8016370 104.7334040  87.2392730
  19.5944980 105.0222870  86.7874520  18.2820720 104.3026210  86.5605210
  23.5336970 100.8529670 104.5528150  22.9275130 100.8761270 103.8123900
  23.2291080 100.1212710 105.0895400  24.9637340 104.5809960 103.1637560
  25.9159090 104.4967980 103.1137800  24.8165560 105.2451670 103.8371350
  12.4170150  97.2323260 103.5488790  12.9209170  96.6530540 104.1205020
  11.6777570  97.5163490 104.0865160  19.4708090  98.6394250 103.0824310
  18.7053760  99.2079250 102.9978980  19.6524050  98.3470460 102.1892540
  26.6131440 100.3699580 103.6399330  27.3540910 100.7075340 103.1366790
  25.8504120 100.5391640 103.0869100  14.4493230  95.3752850 104.4438860
  14.4898570  95.0766720 105.3524090  15.3038730  95.7760460 104.2846380
  18.2271620  97.9748400  89.6042370  18.6488040  97.8088270  90.4473760
  18.3522460  97.1648630  89.1097510  16.3899040  93.9544950 102.4113350
  15.8595500  93.4635900 101.7836690  17.0587110  94.3829150 101.8771280
  20.7399260  96.9986010  86.8519470  21.2604920  96.2835030  86.4860620
  21.3867660  97.6371880  87.1519980  25.7599270  95.7610570 104.1793690
  26.3420040  95.0062890 104.0914170  25.9361040  96.2918010 103.4025170
  16.8771340  90.9207320 102.4910640  16.7828210  90.3028070 101.7661510
  16.2968730  91.6473610 102.2640550  19.6432780  89.4780560  99.5238030
  19.1950080  89.5004820  98.6783580  19.0097980  89.0799580 100.1208330
  17.1230520  94.0481630  86.5500530  16.9219580  93.1848990  86.9113870
  16.9522570  93.9614990  85.6122130  17.8999750 104.6787900 101.2608200
  17.3620840 105.4033960 100.9416900  18.1533710 104.2018240 100.4705540
  19.1525000  92.6472420 102.7864130  19.7424690  92.3388270 103.4741950
  18.3345240  92.1752170 102.9424030  23.9718430  92.2638230 103.0197150
  23.2833950  91.6019770 102.9547140  24.6924450  91.8176500 103.4645610
  15.9213320  91.1482250  86.5378410  16.2239220  91.1549680  85.6297560
  16.6607910  90.7980110  87.0346070  20.7561960 105.9139110 101.5194850
  20.6820660 106.8174250 101.8267220  19.8540800 105.5951010 101.4916920
  19.1398250  90.0916870  87.5234610  18.7920250  89.4140860  86.9437060
  19.3411020  89.6306380  88.3378000  14.9443450 100.4524670  87.3708210
  15.3818320 100.9954340  88.0265790  15.4291180  99.6271620  87.3804550
  12.1589250 103.2413700  94.8228470  12.4892260 102.3734760  94.5907110
  12.5880250 103.4472220  95.6533430  16.7551170 101.5722710  92.4830440
  16.4546710 101.4487680  93.3834350  16.6488660 100.7131300  92.0746170
  12.6479460 104.1084290  97.5610100  12.2110450 104.2885090  98.3934250
  13.2157140 104.8658910  97.4191820  29.5243090 101.3519110  87.1857120
  28.6936050 101.4195760  87.6564350  29.7014920 102.2423230  86.8823980
  12.4803890  96.6204520  93.9198980  11.8252730  96.3516160  93.2758680
  13.3181840  96.5109000  93.4700960  29.0318720  98.3900960  86.8463840
  29.3067560  99.2979840  86.7183060  28.8429460  98.3263490  87.7825830
  13.5179820  97.0057090  98.4602320  13.8852860  96.9184490  99.3398340
  12.9490640  96.2423640  98.3609180  13.0695820  93.9166180 102.3660740
  12.1751870  93.8832940 102.7054450  13.6093370  94.1152970 103.1311990
  11.6941970  93.8303450  89.8624310  10.7906050  94.0933650  89.6875970
  12.1782590  94.1014620  89.0824270  14.2369180  92.8868990  87.7718690
  14.9460880  92.4652210  87.2865970  13.5209120  92.9544220  87.1402040
  13.8843340  88.9408320  86.8121340  14.6071470  89.4817260  87.1302560
  14.1567860  88.6671740  85.9362880  13.5735530  88.1914510  96.7143960
  14.2211720  87.6411890  96.2739120  13.9937370  88.4457660  97.5359770
  27.4687870  88.3855870 100.0713600  28.1060090  88.9990010 100.4372790
  27.6162760  88.4216530  99.1262830  30.0112420  90.2769660  86.8536740
  30.9361730  90.1450840  86.6455030  29.9888210  90.3562480  87.8073190
  13.3267530  88.3470180  99.4569280  12.9782350  88.8034000 100.2227460
  12.9955230  87.4527310  99.5391710  14.9331900 101.5189780 103.6222470
  14.8901530 101.1482690 104.5036930  15.0642910 102.4567350 103.7624290
  18.6337930 103.0749370  99.2232190  18.3929290 103.3423930  98.3362710
  19.5740570 103.2455100  99.2783050  20.8392350  89.5382060 102.9788700
  20.7781240  90.1303890 103.7284110  21.7792730  89.4308020 102.8338960
  23.4766910  89.1952120 102.6180990  24.0907320  89.5131410 101.9562070
  24.0216470  88.7100710 103.2376850  13.9988170  87.8746380 102.7320050
  14.5471160  87.6934430 101.9686160  14.0643480  87.0840490 103.2676360
  14.7719930 104.4652030 100.7420250  14.1780250 104.3336730 101.4810290
  14.7643770 103.6290170 100.2762350  24.2174950  87.7584260  98.9450280
  23.3434790  88.0919370  98.7423210  24.1085700  87.2857440  99.7702150
  25.1246930  89.9655130 100.3292000  24.7960290  89.1506890  99.9493730
  26.0729230  89.9224940 100.2057690  14.4032160 101.8310410  99.6928290
  13.6766220 101.2115700  99.6254240  14.4641310 102.2251020  98.8226370
  18.0077260 104.0455410  96.4777700  18.5242280 103.4342770  95.9525960
  18.6574640 104.5484190  96.9688710  20.7472760 104.9363900  97.3046680
  21.0350570 104.6818200  96.4279690  21.2595980 104.3841260  97.8952250
  21.9649770  88.6754100  97.8843190  21.1821560  89.1499600  98.1639950
  21.6712700  87.7708930  97.7756370  12.6862160 105.1484800  92.9025050
  12.5184200 104.5155480  93.6006940  11.8196670 105.3544200  92.5519240
  13.3090180  88.9801580  90.4056910  14.0669540  89.0930460  89.8320940
  12.8467350  89.8170780  90.3600340  19.8503990  91.0940850  93.3959220
  19.0378500  90.7197740  93.0555100  20.3545630  90.3385930  93.6980410
  24.3528970  87.7583300  94.6342290  24.9558340  88.3303510  95.1090810
  23.6121960  88.3222740  94.4116190  14.2924860 103.8418030  90.3475190
  13.7672480 104.2226060  89.6437150  14.2169440 104.4668800  91.0684900
  15.6815330  89.5065630  88.9458880  16.2108090  88.7195430  88.8166830
  16.3143650  90.1856820  89.1794410  17.8753170  89.2440770  92.0004270
  17.2455910  88.5428080  92.1674400  17.3358310  90.0044900  91.7837430
  20.8145120 105.8580000 104.6714880  21.7412430 105.6224270 104.7150840
  20.7995550 106.6852000 104.1900910  18.0008730  88.5224750 104.4356760
  17.7193000  89.0258350 103.6717580  18.3828430  87.7246500 104.0698890
  16.8917830 105.7900410  89.2224440  17.6236650 105.5059690  88.6748330
  17.1511500 105.5513690  90.1123820  16.0532620 101.9065140  89.2270770
  15.4241500 102.3750240  89.7756600  16.1680450 101.0614360  89.6616960
  24.6024190  87.9378330 105.0137230  24.4889640  88.2572940 105.9088750
  25.4193930  88.3390840 104.7174510  15.6566210  98.0469630  78.1357000
  14.8251090  97.7918340  78.5353510  16.2647190  98.1180400  78.8714920
  25.6607810 102.1410010  76.0380370  25.1989340 101.3697250  76.3667540
  26.4733360 102.1676080  76.5432820  15.6367470 102.0809720  78.3315020
  15.9395510 101.1907460  78.1525240  16.3811060 102.6379940  78.1037270
  14.0658160  93.0071520  71.9199390  13.1774860  93.3487490  71.8179270
  14.3499350  92.8071840  71.0280220  12.0291170  95.6077170  77.8039090
  12.6007280  94.8399370  77.8042730  12.0292710  95.9065930  76.8945700
  21.8871120 104.4268020  75.6584360  21.2682560 104.8825520  75.0878800
  22.7422900 104.5819480  75.2574060  21.0809370 100.4107010  77.2651400
  21.0117650  99.4696950  77.1040530  21.8429230 100.5008420  77.8373970
  13.2716040  91.0161530  79.5908020  13.0918880  90.1187280  79.8710780
  12.8696120  91.5633400  80.2654970  16.2419550  91.5903020  72.9537770
  16.3486300  92.4906750  73.2606530  15.3311910  91.5420990  72.6632420
  13.8902710  93.5122030  78.1990360  14.5712820  93.7760400  78.8177760
  13.5750760  92.6722900  78.5328370  18.0827280  94.5589390  77.2862950
  18.5905500  95.0570360  77.9267970  18.6140520  93.7824590  77.1102310
  30.1838210  92.7294580  80.9892300  29.4790380  93.1176290  80.4707410
  30.4496130  93.4244870  81.5913230  16.3663380  89.1987950  81.5526370
  16.3681820  89.7160340  80.7472270  15.5367690  88.7218130  81.5296300
  17.6166230  98.8383130  79.7299870  17.2835610  99.4652050  80.3720940
  17.7932910  99.3645010  78.9501540  16.0478710  90.9097910  79.5596820
  16.3895520  91.7539960  79.2650690  15.1094520  91.0581650  79.6762160
  16.8285330 100.8063930  81.5449050  17.4459330 101.4815010  81.2633500
  15.9678450 101.2151910  81.4536550  12.1217670  99.9963790  70.4255900
  11.7445650 100.4850890  69.6940800  12.3790740 100.6689070  71.0562430
  29.1987060  92.0983000  77.5885420  28.2511970  92.1321980  77.7200850
  29.5237050  92.9121950  77.9734780  25.2821660 104.1147470  78.1748870
  25.2948820 103.7109760  77.3071130  24.7296880 104.8894760  78.0710300
  24.6807100  99.0177310  79.5031480  25.0975890  98.8037420  78.6684940
  25.4046920  99.2750100  80.0740100  25.5911210  94.2033850  80.5402590
  25.1782390  95.0287560  80.7942580  24.8587160  93.6178890  80.3478950
  17.7244000  96.9893750  75.4021260  17.3201000  96.2771000  74.9067160
  17.8107120  96.6446990  76.2909300  18.1925700 100.6761310  77.5660470
  17.8953990 100.0706780  76.8868250  19.1425520 100.7138620  77.4549830
  16.4372620  93.7636960  79.1820300  16.9887210  93.8732300  78.4073550
  16.9516130  94.1374560  79.8975530  26.2811310 104.2493180  81.2283570
  25.8041870 105.0565370  81.0356180  25.5973100 103.5971510  81.3809780
  17.2844130 100.4143000  84.2168270  16.3872660 100.6382970  84.4641670
  17.3097000 100.5377940  83.2679670  16.1115350  97.2856320  82.7925640
  15.9723120  98.1579120  83.1613040  15.2296710  96.9429130  82.6473580
  17.9095700 103.2278020  85.0010790  17.8811130 103.6320970  84.1339220
  17.7460670 102.2988380  84.8382390  27.9066490  88.5178930  68.4450570
  27.5939150  88.6105760  69.3449640  28.6678960  89.0959960  68.3948000
  14.4248630  95.8838730  72.9027910  14.3046230  96.6100820  72.2909180
  14.1149520  95.1141640  72.4255820  12.0634000  99.0553870  78.7096550
  12.1414420  99.1902640  77.7652270  12.6775680  98.3469760  78.9024670
  13.3081630 100.7554060  75.1202730  12.9009710 100.8968650  74.2656330
  14.1994640 100.4714220  74.9173940  25.1014910 105.1901310  71.4553780
  24.9416050 104.9004250  72.3535610  24.9361620 104.4141440  70.9199010
  17.5803290 104.9699840  73.2325400  17.4045770 104.0535380  73.0193200
  16.7259030 105.3287130  73.4723200  24.3690970 104.3251580  74.0900270
  24.8247920 103.5440960  74.4038890  24.7083490 105.0358400  74.6341450
  29.1167780  93.2550430  84.4224710  28.5012050  93.7630100  83.8940170
  28.7964200  92.3548760  84.3650650  12.1193520 100.0968040  81.2491010
  12.2824560  99.6273400  80.4310380  12.5845970  99.5891600  81.9139850
  16.8912290  89.2273800  76.2851580  16.4480440  90.0083340  75.9536100
  17.4497280  89.5503690  76.9922520  26.1786610  93.3151270  83.0183560
  25.3280200  93.0157020  83.3392630  26.0188400  93.5593280  82.1067380
  23.2736320  94.8153020  85.1182350  23.5989730  93.9816770  84.7784580
  24.0616650  95.3381540  85.2660680  16.6826510  94.3507370  74.0132830
  16.4567430  94.1344540  74.9179450  15.9019040  94.7835830  73.6678800
  19.1225720  95.2492950  84.6793100  19.0269320  94.3087680  84.5293500
  19.9657700  95.4708020  84.2841170  14.2536260  91.6606620  82.8326880
  13.8599650  92.5081830  83.0399660  13.5654660  91.0232990  83.0235520
  20.8281310  91.7441590  85.9023620  20.1379630  91.5513790  86.5369710
  21.5713610  92.0276230  86.4347920  11.5553310  89.5835080  76.8656960
  11.2666360  90.1537940  77.5781940  12.2999070  89.1039530  77.2288190
  11.7423540  93.5255200  68.0759680  11.6598210  94.4685960  68.2174670
  11.3906600  93.3830110  67.1972030  23.1044280  95.5840030  78.7377540
  22.3725400  96.0926840  79.0867640  22.7068620  94.7670010  78.4366320
  15.3924050  92.1420720  76.1024240  15.0524100  92.6195950  76.8591290
  14.6301370  91.6885840  75.7425340  26.9940940  88.4505890  83.9886860
  27.3186710  87.7195550  84.5144840  27.0297450  88.1319530  83.0867850
  13.6932500  99.4719470  83.4086820  13.3087290  98.8313140  84.0069780
  14.0044690 100.1755590  83.9781550  19.8429640  96.3196010  78.8895440
  20.2099770  95.8454580  79.6356780  19.6534700  97.1937580  79.2303780
  12.7070130  91.0639700  75.0188910  12.4217050  90.6995370  75.8567530
  12.6448990  90.3320160  74.4052050  17.6329010  95.3604650  81.2079650
  17.3286080  96.2396630  81.4330010  18.5875470  95.4204440  81.2437090
  26.9198780  98.5631000  77.5972890  27.6397900  99.0586290  77.2069000
  26.7180600  97.8848890  76.9526760  22.3017580  98.6340060  83.4841890
  22.2354890  97.7135730  83.2299480  21.6722720  98.7315500  84.1986530
  16.2048200  99.2346020  75.4425310  16.7226870  98.4314280  75.3882200
  15.7532220  99.1725160  76.2842140  13.6892740  96.2007390  82.3551010
  13.3307680  96.8661240  82.9424350  13.3947300  95.3690940  82.7263630
  16.8905860  96.6591630  85.2390560  16.5906000  96.8048810  84.3418380
  17.6617100  96.0996920  85.1463950  28.3958630 102.4942710  72.2326430
  27.7534790 101.8398330  72.5070150  28.0089290 102.8997800  71.4567100
  12.2000790  96.1998650  68.9785610  13.0695640  96.4823450  69.2621530
  11.7091110  97.0134520  68.8634420  21.6668210 103.0978200  80.3286190
  22.3110430 103.3037580  81.0059610  22.0297650 102.3366600  79.8757040
  22.9400290 101.1010550  79.0463640  23.5822520 100.4003710  79.1595810
  23.4649640 101.8808990  78.8660530  24.7137910 101.9005450  82.2499700
  25.0494150 102.4872140  82.9277620  23.7938250 101.7698160  82.4797490
  12.5672040 105.4126030  69.5447240  12.9269680 106.0115370  68.8904510
  12.4264380 105.9585920  70.3182270  12.2641310  89.6900630  83.0323110
  11.5499830  89.8897550  83.6375720  12.6836350  88.9140200  83.4037910
  12.5513900 103.6780890  84.0189640  12.6605020 102.7375630  83.8785030
  11.8994460 103.9435640  83.3703370  14.1847300  98.0172120  71.1067670
  13.5775250  98.7571020  71.1162970  14.6596650  98.1071480  70.2805870
  20.7182080  94.8362530  81.0062530  21.2167330  95.3108350  81.6714380
  20.8605030  93.9126050  81.2132560  20.2118370 105.3771790  73.7193770
  20.4659870 105.3393180  72.7973140  19.2630850 105.2505120  73.7122020
  17.2961170  91.7250910  70.3820710  18.1451700  92.1621060  70.3160900
  16.9292440  92.0371170  71.2092770  27.9248940  91.0530490  81.8490920
  27.4222540  91.7935890  82.1884730  28.7405600  91.4414490  81.5327710
  14.8899350  95.4108340  69.5389130  14.9702940  94.4635850  69.6506530
  15.7819100  95.7415220  69.6449790  28.2196530 103.4672520  76.9706540
  28.3443950 104.2903690  77.4430350  29.0862090 103.2563250  76.6230690
  15.6914060 105.5603730  76.6423670  16.4276540 105.0119190  76.9132240
  16.0754980 106.4259740  76.5029660  12.5759540 101.6277300  72.5165180
  11.6499320 101.8698440  72.5070590  13.0415970 102.4551560  72.3949930
  14.6972340 104.7449800  85.8309250  15.4985070 105.0661850  86.2444650
  14.1824160 104.3845380  86.5529160  27.8546540 103.9604170  69.8885980
  27.5688050 103.5469310  69.0740160  27.6566090 104.8891880  69.7686500
  12.4170150  97.2323260  84.7745300  12.9209170  96.6530540  85.3461530
  11.6777570  97.5163490  85.3121670  19.4708090  98.6394250  84.3080820
  18.7053760  99.2079250  84.2235490  19.6524050  98.3470460  83.4149050
  26.6131440 100.3699580  84.8655840  27.3540910 100.7075340  84.3623300
  25.8504120 100.5391640  84.3125610  14.4493230  95.3752850  85.6695370
  14.4898570  95.0766720  86.5780600  15.3038730  95.7760460  85.5102890
  16.3899040  93.9544950  83.6369860  15.8595500  93.4635900  83.0093200
  17.0587110  94.3829150  83.1027790  25.2877100  98.4214410  83.4011050
  25.7018120  98.5759490  84.2501470  24.3528100  98.5469630  83.5636830
  25.7599270  95.7610570  85.4050200  26.3420040  95.0062890  85.3170680
  25.9361040  96.2918010  84.6281680  16.8771340  90.9207320  83.7167150
  16.7828210  90.3028070  82.9918020  16.2968730  91.6473610  83.4897060
  20.0492330  98.3734890  81.3706980  20.4680440  99.2167620  81.1983220
  19.1300960  98.5106930  81.1413760  22.3856230  96.1051070  82.7544820
  22.5052440  95.5092210  83.4939660  23.2450230  96.1420760  82.3346120
  24.7244130  96.6588260  81.3307330  24.1979350  97.1830880  80.7272470
  25.0675470  97.2915650  81.9617060  17.1230520  94.0481630  67.7757040
  16.9219580  93.1848990  68.1370380  16.9522570  93.9614990  66.8378640
  17.8999750 104.6787900  82.4864710  17.3620840 105.4033960  82.1673410
  18.1533710 104.2018240  81.6962050  19.1525000  92.6472420  84.0120640
  19.7424690  92.3388270  84.6998460  18.3345240  92.1752170  84.1680540
  23.9718430  92.2638230  84.2453660  23.2833950  91.6019770  84.1803650
  24.6924450  91.8176500  84.6902120  15.9213320  91.1482250  67.7634920
  16.2239220  91.1549680  66.8554070  16.6607910  90.7980110  68.2602580
  20.7561960 105.9139110  82.7451360  20.6820660 106.8174250  83.0523730
  19.8540800 105.5951010  82.7173430  21.3047290 105.0797620  70.3677720
  22.1998080 105.4182590  70.3896480  21.3364920 104.3577030  69.7402000
  12.1589250 103.2413700  76.0484980  12.4892260 102.3734760  75.8163620
  12.5880250 103.4472220  76.8789940  16.7551170 101.5722710  73.7086950
  16.4546710 101.4487680  74.6090860  16.6488660 100.7131300  73.3002680
  12.6479460 104.1084290  78.7866610  12.2110450 104.2885090  79.6190760
  13.2157140 104.8658910  78.6448330  28.2841640 103.6101290  83.0743920
  27.6843630 103.6693850  82.3307840  28.4135540 102.6706270  83.2040770
  12.4803890  96.6204520  75.1455490  11.8252730  96.3516160  74.5015190
  13.3181840  96.5109000  74.6957470  29.9859520  98.9516690  75.7589760
  30.3568350  98.1684010  75.3525730  30.6261450  99.6405790  75.5807060
  13.5179820  97.0057090  79.6858830  13.8852860  96.9184490  80.5654850
  12.9490640  96.2423640  79.5865690  13.0695820  93.9166180  83.5917250
  12.1751870  93.8832940  83.9310960  13.6093370  94.1152970  84.3568500
  26.7571750  90.6997900  85.4769000  27.6341930  90.7081300  85.8603000
  26.7692590  89.9628740  84.8661350  11.6941970  93.8303450  71.0880820
  10.7906050  94.0933650  70.9132480  12.1782590  94.1014620  70.3080780
  28.2035020  94.5527440  76.3657020  28.7272500  94.0590090  75.7347190
  28.7894440  94.6877800  77.1104590  14.2369180  92.8868990  68.9975200
  14.9460880  92.4652210  68.5122480  13.5209120  92.9544220  68.3658550
  13.8843340  88.9408320  68.0377850  14.6071470  89.4817260  68.3559070
  14.1567860  88.6671740  67.1619390  13.5735530  88.1914510  77.9400470
  14.2211720  87.6411890  77.4995630  13.9937370  88.4457660  78.7616280
  29.1222150  92.4461740  74.8387110  29.0121430  92.2917780  75.7769380
  29.8829740  91.9182680  74.5962520  27.4687870  88.3855870  81.2970110
  28.1060090  88.9990010  81.6629300  27.6162760  88.4216530  80.3519340
  30.0112420  90.2769660  68.0793250  30.9361730  90.1450840  67.8711540
  29.9888210  90.3562480  69.0329700  27.0269330 105.0871870  74.6988350
  27.6228400 104.7656440  74.0222770  27.2847480 104.6143690  75.4901620
  13.3267530  88.3470180  80.6825790  12.9782350  88.8034000  81.4483970
  12.9955230  87.4527310  80.7648220  14.9331900 101.5189780  84.8478980
  14.8901530 101.1482690  85.7293440  15.0642910 102.4567350  84.9880800
  18.6337930 103.0749370  80.4488700  18.3929290 103.3423930  79.5619220
  19.5740570 103.2455100  80.5039560  20.8392350  89.5382060  84.2045210
  20.7781240  90.1303890  84.9540620  21.7792730  89.4308020  84.0595470
  23.4766910  89.1952120  83.8437500  24.0907320  89.5131410  83.1818580
  24.0216470  88.7100710  84.4633360  29.8942090 105.0943750  81.2499340
  29.4000370 105.4912620  80.5326470  29.2855380 104.4692960  81.6436620
  13.9988170  87.8746380  83.9576560  14.5471160  87.6934430  83.1942670
  14.0643480  87.0840490  84.4932870  14.7719930 104.4652030  81.9676760
  14.1780250 104.3336730  82.7066800  14.7643770 103.6290170  81.5018860
  27.5781540 105.7367170  78.5286080  27.1184510 106.4882980  78.1544100
  26.9494000 105.0173640  78.4700880  14.4032160 101.8310410  80.9184800
  13.6766220 101.2115700  80.8510750  14.4641310 102.2251020  80.0482880
  18.0077260 104.0455410  77.7034210  18.5242280 103.4342770  77.1782470
  18.6574640 104.5484190  78.1945220  20.7472760 104.9363900  78.5303190
  21.0350570 104.6818200  77.6536200  21.2595980 104.3841260  79.1208760
  12.6862160 105.1484800  74.1281560  12.5184200 104.5155480  74.8263450
  11.8196670 105.3544200  73.7775750  13.3090180  88.9801580  71.6313420
  14.0669540  89.0930460  71.0577450  12.8467350  89.8170780  71.5856850
  14.2924860 103.8418030  71.5731700  13.7672480 104.2226060  70.8693660
  14.2169440 104.4668800  72.2941410  15.6815330  89.5065630  70.1715390
  16.2108090  88.7195430  70.0423340  16.3143650  90.1856820  70.4050920
  17.8753170  89.2440770  73.2260780  17.2455910  88.5428080  73.3930910
  17.3358310  90.0044900  73.0093940  29.0490180 105.4005570  72.8945640
  29.2242370 104.7143310  72.2506560  28.3511750 105.9252620  72.5022310
  18.0008730  88.5224750  85.6613270  17.7193000  89.0258350  84.8974090
  18.3828430  87.7246500  85.2955400  16.8917830 105.7900410  70.4480950
  17.6236650 105.5059690  69.9004840  17.1511500 105.5513690  71.3380330
  24.6024190  87.9378330  86.2393740  24.4889640  88.2572940  87.1345260
  25.4193930  88.3390840  85.9431020  23.5082340  95.9570800  56.6028480
  23.4276390  95.0425410  56.3320190  23.0946760  96.4537870  55.8968190
  21.6400380  97.7349820  58.4837750  20.8642480  97.2550260  58.7736320
  22.2913310  97.0555470  58.3093910  15.6566210  98.0469630  59.3613510
  14.8251090  97.7918340  59.7610020  16.2647190  98.1180400  60.0971430
  25.6607810 102.1410010  57.2636880  25.1989340 101.3697250  57.5924050
  26.4733360 102.1676080  57.7689330  15.6367470 102.0809720  59.5571530
  15.9395510 101.1907460  59.3781750  16.3811060 102.6379940  59.3293780
  14.0658160  93.0071520  53.1455900  13.1774860  93.3487490  53.0435780
  14.3499350  92.8071840  52.2536730  12.0291170  95.6077170  59.0295600
  12.6007280  94.8399370  59.0299240  12.0292710  95.9065930  58.1202210
  21.8871120 104.4268020  56.8840870  21.2682560 104.8825520  56.3135310
  22.7422900 104.5819480  56.4830570  21.0809370 100.4107010  58.4907910
  21.0117650  99.4696950  58.3297040  21.8429230 100.5008420  59.0630480
  13.2716040  91.0161530  60.8164530  13.0918880  90.1187280  61.0967290
  12.8696120  91.5633400  61.4911480  22.1114540  93.2177390  58.7176840
  22.4879360  92.3449270  58.6050510  22.0134050  93.5536090  57.8267280
  16.2419550  91.5903020  54.1794280  16.3486300  92.4906750  54.4863040
  15.3311910  91.5420990  53.8888930  25.8938660  90.7127830  55.6505180
  26.7148280  90.2224400  55.6930660  25.9272740  91.3025490  56.4037020
  13.8902710  93.5122030  59.4246870  14.5712820  93.7760400  60.0434270
  13.5750760  92.6722900  59.7584880  18.0827280  94.5589390  58.5119460
  18.5905500  95.0570360  59.1524480  18.6140520  93.7824590  58.3358820
  30.1838210  92.7294580  62.2148810  29.4790380  93.1176290  61.6963920
  30.4496130  93.4244870  62.8169740  16.3663380  89.1987950  62.7782880
  16.3681820  89.7160340  61.9728780  15.5367690  88.7218130  62.7552810
  22.7534470  99.3107260  54.2772780  22.1351740  99.7756710  53.7135500
  23.2657720 100.0034740  54.6942290  17.6166230  98.8383130  60.9556380
  17.2835610  99.4652050  61.5977450  17.7932910  99.3645010  60.1758050
  26.1300140  92.6528210  58.4232720  25.4255710  92.9413100  59.0035830
  26.4912300  93.4628320  58.0632280  16.0478710  90.9097910  60.7853330
  16.3895520  91.7539960  60.4907200  15.1094520  91.0581650  60.9018670
  16.8285330 100.8063930  62.7705560  17.4459330 101.4815010  62.4890010
  15.9678450 101.2151910  62.6793060  12.1217670  99.9963790  51.6512410
  11.7445650 100.4850890  50.9197310  12.3790740 100.6689070  52.2818940
  27.7462920 102.2703340  60.6860200  27.0626440 102.9402450  60.6776870
  28.2857210 102.4683990  59.9205060  29.1987060  92.0983000  58.8141930
  28.2511970  92.1321980  58.9457360  29.5237050  92.9121950  59.1991290
  19.7306600  88.3980180  57.1097920  20.0381580  87.8427070  56.3933420
  18.8007300  88.5324640  56.9270910  25.2821660 104.1147470  59.4005380
  25.2948820 103.7109760  58.5327640  24.7296880 104.8894760  59.2966810
  26.5767080 100.8363690  54.4895550  26.4663410  99.8938020  54.6144970
  26.5735330 101.1979330  55.3758310  24.6807100  99.0177310  60.7287990
  25.0975890  98.8037420  59.8941450  25.4046920  99.2750100  61.2996610
  28.6269200  97.4164530  60.8204230  27.7987830  97.4857620  60.3454360
  29.2219680  98.0018840  60.3520060  26.1484650  98.0249310  54.3493290
  25.5297070  97.6868860  53.7019590  26.1309100  97.3809070  55.0572480
  25.5911210  94.2033850  61.7659100  25.1782390  95.0287560  62.0199090
  24.8587160  93.6178890  61.5735460  17.7244000  96.9893750  56.6277770
  17.3201000  96.2771000  56.1323670  17.8107120  96.6446990  57.5165810
  18.1925700 100.6761310  58.7916980  17.8953990 100.0706780  58.1124760
  19.1425520 100.7138620  58.6806340  16.4372620  93.7636960  60.4076810
  16.9887210  93.8732300  59.6330060  16.9516130  94.1374560  61.1232040
  26.2811310 104.2493180  62.4540080  25.8041870 105.0565370  62.2612690
  25.5973100 103.5971510  62.6066290  16.1115350  97.2856320  64.0182150
  15.9723120  98.1579120  64.3869550  15.2296710  96.9429130  63.8730090
  22.4344730 102.2032190  55.3247280  22.8740640 102.9456520  54.9102670
  22.3731620 102.4458760  56.2486240  14.4248630  95.8838730  54.1284420
  14.3046230  96.6100820  53.5165690  14.1149520  95.1141640  53.6512330
  29.8610520 104.0105120  67.5231470  30.3370240 104.4888010  68.2020550
  30.4817680 103.9422610  66.7976970  12.0634000  99.0553870  59.9353060
  12.1414420  99.1902640  58.9908780  12.6775680  98.3469760  60.1281180
  13.3081630 100.7554060  56.3459240  12.9009710 100.8968650  55.4912840
  14.1994640 100.4714220  56.1430450  29.2643770 101.2017970  64.6831480
  29.3906830 100.9629850  63.7648660  29.3065150 100.3702510  65.1553560
  23.1260510 104.9045970  63.2526290  23.6405180 104.8153980  64.0548720
  22.2829590 105.2505670  63.5454200  17.5803290 104.9699840  54.4581910
  17.4045770 104.0535380  54.2449710  16.7259030 105.3287130  54.6979710
  24.8041040 102.6988870  51.2408290  24.1106200 102.6966160  50.5810570
  25.5463900 102.2748190  50.8102460  24.3690970 104.3251580  55.3156780
  24.8247920 103.5440960  55.6295400  24.7083490 105.0358400  55.8597960
  29.1167780  93.2550430  65.6481220  28.5012050  93.7630100  65.1196680
  28.7964200  92.3548760  65.5907160  12.1193520 100.0968040  62.4747520
  12.2824560  99.6273400  61.6566890  12.5845970  99.5891600  63.1396360
  16.8912290  89.2273800  57.5108090  16.4480440  90.0083340  57.1792610
  17.4497280  89.5503690  58.2179030  20.0071110  88.8484500  52.3913920
  19.3825290  88.8444370  53.1167230  19.9201230  87.9815460  51.9949890
  18.9288190  89.7721130  59.3697690  19.2260520  90.6783960  59.2889710
  19.4773750  89.2839910  58.7557260  16.6826510  94.3507370  55.2389340
  16.4567430  94.1344540  56.1435960  15.9019040  94.7835830  54.8935310
  14.2536260  91.6606620  64.0583390  13.8599650  92.5081830  64.2656170
  13.5654660  91.0232990  64.2492030  11.5553310  89.5835080  58.0913470
  11.2666360  90.1537940  58.8038450  12.2999070  89.1039530  58.4544700
  11.7423540  93.5255200  49.3016190  11.6598210  94.4685960  49.4431180
  11.3906600  93.3830110  48.4228540  23.1044280  95.5840030  59.9634050
  22.3725400  96.0926840  60.3124150  22.7068620  94.7670010  59.6622830
  19.5421670  92.2594230  58.3686540  19.5457730  91.8184180  57.5191080
  20.4372790  92.5811560  58.4758360  15.3924050  92.1420720  57.3280750
  15.0524100  92.6195950  58.0847800  14.6301370  91.6885840  56.9681850
  23.5670190  91.0373710  59.3756990  23.5842930  91.4882360  60.2198840
  23.3185770  90.1379350  59.5890430  18.6163320  95.5707450  50.7576600
  18.0480220  95.1225700  50.1312510  19.3252320  95.9300230  50.2241750
  26.9940940  88.4505890  65.2143370  27.3186710  87.7195550  65.7401350
  27.0297450  88.1319530  64.3124360  13.6932500  99.4719470  64.6343330
  13.3087290  98.8313140  65.2326290  14.0044690 100.1755590  65.2038060
  19.8429640  96.3196010  60.1151950  20.2099770  95.8454580  60.8613290
  19.6534700  97.1937580  60.4560290  12.7070130  91.0639700  56.2445420
  12.4217050  90.6995370  57.0824040  12.6448990  90.3320160  55.6308560
  17.6329010  95.3604650  62.4336160  17.3286080  96.2396630  62.6586520
  18.5875470  95.4204440  62.4693600  16.1610800  99.5665640  53.0303010
  15.3873060  99.0263260  52.8701730  16.8905430  99.0472250  52.6920770
  26.9198780  98.5631000  58.8229400  27.6397900  99.0586290  58.4325510
  26.7180600  97.8848890  58.1783270  16.2048200  99.2346020  56.6681820
  16.7226870  98.4314280  56.6138710  15.7532220  99.1725160  57.5098650
  21.0917700 100.5012300  51.9409120  21.4333400 101.2454530  51.4452440
  20.2630410 100.8143420  52.3033950  13.6892740  96.2007390  63.5807520
  13.3307680  96.8661240  64.1680860  13.3947300  95.3690940  63.9520140
  27.3671380  95.6400450  50.7300810  27.2835100  96.0714670  49.8797250
  28.0865570  96.0998800  51.1627630  28.4445520  98.0967970  63.8070780
  27.7193710  98.6896750  63.6100170  28.9720980  98.0891510  63.0084150
  23.9745110  99.8228140  57.3054630  24.3268930  99.2256270  56.6456000
  23.0907440  99.4972370  57.4762880  20.0608390 100.5825830  54.7125040
  20.7479520 101.1295040  55.0932630  19.2740810 101.1266560  54.7474650
  12.2000790  96.1998650  50.2042120  13.0695640  96.4823450  50.4878040
  11.7091110  97.0134520  50.0890930  19.3635600  97.5871860  54.3250400
  19.8198380  98.3977110  54.5510590  19.0123810  97.2695000  55.1568890
  21.6668210 103.0978200  61.5542700  22.3110430 103.3037580  62.2316120
  22.0297650 102.3366600  61.1013550  15.2647380  87.9309510  54.7972920
  15.1362010  87.9227410  55.7457840  14.4409400  88.2692600  54.4463930
  22.9400290 101.1010550  60.2720150  23.5822520 100.4003710  60.3852320
  23.4649640 101.8808990  60.0917040  24.7137910 101.9005450  63.4756210
  25.0494150 102.4872140  64.1534130  23.7938250 101.7698160  63.7054000
  12.5672040 105.4126030  50.7703750  12.9269680 106.0115370  50.1161020
  12.4264380 105.9585920  51.5438780  12.2641310  89.6900630  64.2579620
  11.5499830  89.8897550  64.8632230  12.6836350  88.9140200  64.6294420
  26.3672260  99.3031110  51.6573450  26.0793960  99.7643800  52.4451330
  27.1624430  98.8428880  51.9257670  12.5513900 103.6780890  65.2446150
  12.6605020 102.7375630  65.1041540  11.8994460 103.9435640  64.5959880
  18.5840660 102.7957230  51.5877420  18.5750760 103.5286920  50.9721930
  17.6639020 102.5488810  51.6804380  14.1847300  98.0172120  52.3324180
  13.5775250  98.7571020  52.3419480  14.6596650  98.1071480  51.5062380
  21.5700260 102.8585470  50.2502610  21.6712240 102.6549460  49.3204590
  20.6702000 102.6043750  50.4550390  19.0926150  93.4165830  54.2326510
  18.3842300  93.8852170  54.6740120  19.3770630  92.7587840  54.8671700
  23.1241580  90.1416490  55.6722300  23.0009360  90.1602620  54.7231810
  24.0726140  90.1895430  55.7920700  20.2118370 105.3771790  54.9450280
  20.4659870 105.3393180  54.0229650  19.2630850 105.2505120  54.9378530
  17.2961170  91.7250910  51.6077220  18.1451700  92.1621060  51.5417410
  16.9292440  92.0371170  52.4349280  27.9248940  91.0530490  63.0747430
  27.4222540  91.7935890  63.4141240  28.7405600  91.4414490  62.7584220
  26.2170950  96.2963670  56.5208790  25.2761090  96.3113900  56.6956480
  26.5315020  95.5099630  56.9669090  16.1952590  97.9783270  50.0812750
  16.9615860  97.8664630  50.6438180  16.2727280  97.2821240  49.4289520
  14.8899350  95.4108340  50.7645640  14.9702940  94.4635850  50.8763040
  15.7819100  95.7415220  50.8706300  15.6914060 105.5603730  57.8680180
  16.4276540 105.0119190  58.1388750  16.0754980 106.4259740  57.7286170
  12.5759540 101.6277300  53.7421690  11.6499320 101.8698440  53.7327100
  13.0415970 102.4551560  53.6206440  14.6972340 104.7449800  67.0565760
  15.4985070 105.0661850  67.4701160  14.1824160 104.3845380  67.7785670
  18.8016370 104.7334040  49.6905750  19.5944980 105.0222870  49.2387540
  18.2820720 104.3026210  49.0118230  23.5336970 100.8529670  67.0041170
  22.9275130 100.8761270  66.2636920  23.2291080 100.1212710  67.5408420
  24.9637340 104.5809960  65.6150580  25.9159090 104.4967980  65.5650820
  24.8165560 105.2451670  66.2884370  12.4170150  97.2323260  66.0001810
  12.9209170  96.6530540  66.5718040  11.6777570  97.5163490  66.5378180
  19.3193770  99.9537450  49.5548100  19.2144410  99.3389800  50.2809480
  19.1517990  99.4303340  48.7711110  22.5596500  99.0157480  50.1590090
  22.0106600  99.4626780  50.8032830  23.1815760  98.5106730  50.6827760
  26.6131440 100.3699580  66.0912350  27.3540910 100.7075340  65.5879810
  25.8504120 100.5391640  65.5382120  14.4493230  95.3752850  66.8951880
  14.4898570  95.0766720  67.8037110  15.3038730  95.7760460  66.7359400
  18.2271620  97.9748400  52.0555390  18.6488040  97.8088270  52.8986780
  18.3522460  97.1648630  51.5610530  25.2877100  98.4214410  64.6267560
  25.7018120  98.5759490  65.4757980  24.3528100  98.5469630  64.7893340
  16.8771340  90.9207320  64.9423660  16.7828210  90.3028070  64.2174530
  16.2968730  91.6473610  64.7153570  19.6432780  89.4780560  61.9751050
  19.1950080  89.5004820  61.1296600  19.0097980  89.0799580  62.5721350
  20.0492330  98.3734890  62.5963490  20.4680440  99.2167620  62.4239730
  19.1300960  98.5106930  62.3670270  17.1230520  94.0481630  49.0013550
  16.9219580  93.1848990  49.3626890  16.9522570  93.9614990  48.0635150
  17.8999750 104.6787900  63.7121220  17.3620840 105.4033960  63.3929920
  18.1533710 104.2018240  62.9218560  15.9213320  91.1482250  48.9891430
  16.2239220  91.1549680  48.0810580  16.6607910  90.7980110  49.4859090
  20.7561960 105.9139110  63.9707870  20.6820660 106.8174250  64.2780240
  19.8540800 105.5951010  63.9429940  19.1398250  90.0916870  49.9747630
  18.7920250  89.4140860  49.3950080  19.3411020  89.6306380  50.7891020
  21.3047290 105.0797620  51.5934230  22.1998080 105.4182590  51.6152990
  21.3364920 104.3577030  50.9658510  14.9443450 100.4524670  49.8221230
  15.3818320 100.9954340  50.4778810  15.4291180  99.6271620  49.8317570
  12.1589250 103.2413700  57.2741490  12.4892260 102.3734760  57.0420130
  12.5880250 103.4472220  58.1046450  16.7551170 101.5722710  54.9343460
  16.4546710 101.4487680  55.8347370  16.6488660 100.7131300  54.5259190
  12.6479460 104.1084290  60.0123120  12.2110450 104.2885090  60.8447270
  13.2157140 104.8658910  59.8704840  28.2841640 103.6101290  64.3000430
  27.6843630 103.6693850  63.5564350  28.4135540 102.6706270  64.4297280
  28.9799550  98.0966590  52.1404340  29.7418460  98.6663240  52.2464030
  28.9953920  97.5293790  52.9112650  12.4803890  96.6204520  56.3712000
  11.8252730  96.3516160  55.7271700  13.3181840  96.5109000  55.9213980
  29.9859520  98.9516690  56.9846270  30.3568350  98.1684010  56.5782240
  30.6261450  99.6405790  56.8063570  26.9693280 100.3353270  62.3976590
  26.1553120 100.7650430  62.6602380  27.3767480 100.9471680  61.7845640
  29.0318720  98.3900960  49.2976860  29.3067560  99.2979840  49.1696080
  28.8429460  98.3263490  50.2338850  28.9284060  96.3269950  54.2906290
  28.5527660  95.5597880  53.8587580  28.1987180  96.7092650  54.7781220
  13.5179820  97.0057090  60.9115340  13.8852860  96.9184490  61.7911360
  12.9490640  96.2423640  60.8122200  28.3183680  95.4741470  63.9245810
  28.0869770  95.2454220  63.0243760  28.5788230  96.3941020  63.8790700
  13.0695820  93.9166180  64.8173760  12.1751870  93.8832940  65.1567470
  13.6093370  94.1152970  65.5825010  26.7571750  90.6997900  66.7025510
  27.6341930  90.7081300  67.0859510  26.7692590  89.9628740  66.0917860
  11.6941970  93.8303450  52.3137330  10.7906050  94.0933650  52.1388990
  12.1782590  94.1014620  51.5337290  28.2035020  94.5527440  57.5913530
  28.7272500  94.0590090  56.9603700  28.7894440  94.6877800  58.3361100
  28.3824740  94.6367310  61.1133080  27.4327450  94.6030850  61.2278070
  28.5637750  95.5467420  60.8782850  14.2369180  92.8868990  50.2231710
  14.9460880  92.4652210  49.7378990  13.5209120  92.9544220  49.5915060
  13.8843340  88.9408320  49.2634360  14.6071470  89.4817260  49.5815580
  14.1567860  88.6671740  48.3875900  27.6934990  93.8100790  53.5305940
  28.1894110  93.5771660  54.3154820  27.4951060  92.9712630  53.1143580
  13.5735530  88.1914510  59.1656980  14.2211720  87.6411890  58.7252140
  13.9937370  88.4457660  59.9872790  29.1222150  92.4461740  56.0643620
  29.0121430  92.2917780  57.0025890  29.8829740  91.9182680  55.8219030
  27.4687870  88.3855870  62.5226620  28.1060090  88.9990010  62.8885810
  27.6162760  88.4216530  61.5775850  30.0850910  91.0480320  51.9306470
  29.2902410  90.9825440  52.4599380  30.2894190  91.9830960  51.9191820
  27.0269330 105.0871870  55.9244860  27.6228400 104.7656440  55.2479280
  27.2847480 104.6143690  56.7158130  13.3267530  88.3470180  61.9082300
  12.9782350  88.8034000  62.6740480  12.9955230  87.4527310  61.9904730
  18.6337930 103.0749370  61.6745210  18.3929290 103.3423930  60.7875730
  19.5740570 103.2455100  61.7296070  20.8392350  89.5382060  65.4301720
  20.7781240  90.1303890  66.1797130  21.7792730  89.4308020  65.2851980
  23.4766910  89.1952120  65.0694010  24.0907320  89.5131410  64.4075090
  24.0216470  88.7100710  65.6889870  13.9988170  87.8746380  65.1833070
  14.5471160  87.6934430  64.4199180  14.0643480  87.0840490  65.7189380
  14.7719930 104.4652030  63.1933270  14.1780250 104.3336730  63.9323310
  14.7643770 103.6290170  62.7275370  24.2174950  87.7584260  61.3963300
  23.3434790  88.0919370  61.1936230  24.1085700  87.2857440  62.2215170
  25.1246930  89.9655130  62.7805020  24.7960290  89.1506890  62.4006750
  26.0729230  89.9224940  62.6570710  27.5781540 105.7367170  59.7542590
  27.1184510 106.4882980  59.3800610  26.9494000 105.0173640  59.6957390
  14.4032160 101.8310410  62.1441310  13.6766220 101.2115700  62.0767260
  14.4641310 102.2251020  61.2739390  18.0077260 104.0455410  58.9290720
  18.5242280 103.4342770  58.4038980  18.6574640 104.5484190  59.4201730
  20.7472760 104.9363900  59.7559700  21.0350570 104.6818200  58.8792710
  21.2595980 104.3841260  60.3465270  21.9649770  88.6754100  60.3356210
  21.1821560  89.1499600  60.6152970  21.6712700  87.7708930  60.2269390
  26.5170840  89.3777200  58.3805300  26.9578930  89.3222300  57.5326900
  26.2478430  90.2935210  58.4515480  28.3809410  89.0092440  56.3914120
  28.3197810  88.0653660  56.2445140  29.1601440  89.1172530  56.9367580
  12.6862160 105.1484800  55.3538070  12.5184200 104.5155480  56.0519960
  11.8196670 105.3544200  55.0032260  13.3090180  88.9801580  52.8569930
  14.0669540  89.0930460  52.2833960  12.8467350  89.8170780  52.8113360
  19.8503990  91.0940850  55.8472240  19.0378500  90.7197740  55.5068120
  20.3545630  90.3385930  56.1493430  24.3528970  87.7583300  57.0855310
  24.9558340  88.3303510  57.5603830  23.6121960  88.3222740  56.8629210
  14.2924860 103.8418030  52.7988210  13.7672480 104.2226060  52.0950170
  14.2169440 104.4668800  53.5197920  15.6815330  89.5065630  51.3971900
  16.2108090  88.7195430  51.2679850  16.3143650  90.1856820  51.6307430
  17.8753170  89.2440770  54.4517290  17.2455910  88.5428080  54.6187420
  17.3358310  90.0044900  54.2350450  20.8145120 105.8580000  67.1227900
  21.7412430 105.6224270  67.1663860  20.7995550 106.6852000  66.6413930
  18.0008730  88.5224750  66.8869780  17.7193000  89.0258350  66.1230600
  18.3828430  87.7246500  66.5211910  16.8917830 105.7900410  51.6737460
  17.6236650 105.5059690  51.1261350  17.1511500 105.5513690  52.5636840
  16.0532620 101.9065140  51.6783790  15.4241500 102.3750240  52.2269620
  16.1680450 101.0614360  52.1129980  24.6024190  87.9378330  67.4650250
  24.4889640  88.2572940  68.3601770  25.4193930  88.3390840  67.1687530
  27.3822680 105.0849860  66.9468940  28.1748000 104.5899090  66.7394900
  27.6755830 105.7640000  67.5544550  23.5082340  95.9570800  37.8284990
  23.4276390  95.0425410  37.5576700  23.0946760  96.4537870  37.1224700
  21.6400380  97.7349820  39.7094260  20.8642480  97.2550260  39.9992830
  22.2913310  97.0555470  39.5350420  15.6566210  98.0469630  40.5870020
  14.8251090  97.7918340  40.9866530  16.2647190  98.1180400  41.3227940
  25.6607810 102.1410010  38.4893390  25.1989340 101.3697250  38.8180560
  26.4733360 102.1676080  38.9945840  15.6367470 102.0809720  40.7828040
  15.9395510 101.1907460  40.6038260  16.3811060 102.6379940  40.5550290
  14.0658160  93.0071520  34.3712410  13.1774860  93.3487490  34.2692290
  14.3499350  92.8071840  33.4793240  12.0291170  95.6077170  40.2552110
  12.6007280  94.8399370  40.2555750  12.0292710  95.9065930  39.3458720
  21.8871120 104.4268020  38.1097380  21.2682560 104.8825520  37.5391820
  22.7422900 104.5819480  37.7087080  21.0809370 100.4107010  39.7164420
  21.0117650  99.4696950  39.5553550  21.8429230 100.5008420  40.2886990
  13.2716040  91.0161530  42.0421040  13.0918880  90.1187280  42.3223800
  12.8696120  91.5633400  42.7167990  22.1114540  93.2177390  39.9433350
  22.4879360  92.3449270  39.8307020  22.0134050  93.5536090  39.0523790
  16.2419550  91.5903020  35.4050790  16.3486300  92.4906750  35.7119550
  15.3311910  91.5420990  35.1145440  25.8938660  90.7127830  36.8761690
  26.7148280  90.2224400  36.9187170  25.9272740  91.3025490  37.6293530
  13.8902710  93.5122030  40.6503380  14.5712820  93.7760400  41.2690780
  13.5750760  92.6722900  40.9841390  18.0827280  94.5589390  39.7375970
  18.5905500  95.0570360  40.3780990  18.6140520  93.7824590  39.5615330
  16.3663380  89.1987950  44.0039390  16.3681820  89.7160340  43.1985290
  15.5367690  88.7218130  43.9809320  22.7534470  99.3107260  35.5029290
  22.1351740  99.7756710  34.9392010  23.2657720 100.0034740  35.9198800
  17.6166230  98.8383130  42.1812890  17.2835610  99.4652050  42.8233960
  17.7932910  99.3645010  41.4014560  26.1300140  92.6528210  39.6489230
  25.4255710  92.9413100  40.2292340  26.4912300  93.4628320  39.2888790
  16.0478710  90.9097910  42.0109840  16.3895520  91.7539960  41.7163710
  15.1094520  91.0581650  42.1275180  16.8285330 100.8063930  43.9962070
  17.4459330 101.4815010  43.7146520  15.9678450 101.2151910  43.9049570
  12.1217670  99.9963790  32.8768920  11.7445650 100.4850890  32.1453820
  12.3790740 100.6689070  33.5075450  27.7462920 102.2703340  41.9116710
  27.0626440 102.9402450  41.9033380  28.2857210 102.4683990  41.1461570
  19.7306600  88.3980180  38.3354430  20.0381580  87.8427070  37.6189930
  18.8007300  88.5324640  38.1527420  25.2821660 104.1147470  40.6261890
  25.2948820 103.7109760  39.7584150  24.7296880 104.8894760  40.5223320
  26.5767080 100.8363690  35.7152060  26.4663410  99.8938020  35.8401480
  26.5735330 101.1979330  36.6014820  22.1187360  96.4629010  35.0714550
  21.1916640  96.3966390  35.3003020  22.2712180  97.4009140  34.9569790
  22.1056440  92.7346010  32.0681710  21.1660110  92.8959970  32.1534170
  22.4239700  93.4531690  31.5217700  26.1484650  98.0249310  35.5749800
  25.5297070  97.6868860  34.9276100  26.1309100  97.3809070  36.2828990
  17.7244000  96.9893750  37.8534280  17.3201000  96.2771000  37.3580180
  17.8107120  96.6446990  38.7422320  18.1925700 100.6761310  40.0173490
  17.8953990 100.0706780  39.3381270  19.1425520 100.7138620  39.9062850
  16.4372620  93.7636960  41.6333320  16.9887210  93.8732300  40.8586570
  16.9516130  94.1374560  42.3488550  26.2811310 104.2493180  43.6796590
  25.8041870 105.0565370  43.4869200  25.5973100 103.5971510  43.8322800
  17.2844130 100.4143000  46.6681290  16.3872660 100.6382970  46.9154690
  17.3097000 100.5377940  45.7192690  24.3249350  97.2636120  32.5822550
  24.7642630  96.4258550  32.4360370  25.0377770  97.8965520  32.6686690
  16.1115350  97.2856320  45.2438660  15.9723120  98.1579120  45.6126060
  15.2296710  96.9429130  45.0986600  22.4344730 102.2032190  36.5503790
  22.8740640 102.9456520  36.1359180  22.3731620 102.4458760  37.4742750
  17.9095700 103.2278020  47.4523810  17.8811130 103.6320970  46.5852240
  17.7460670 102.2988380  47.2895410  27.9066490  88.5178930  30.8963590
  27.5939150  88.6105760  31.7962660  28.6678960  89.0959960  30.8461020
  14.4248630  95.8838730  35.3540930  14.3046230  96.6100820  34.7422200
  14.1149520  95.1141640  34.8768840  12.0634000  99.0553870  41.1609570
  12.1414420  99.1902640  40.2165290  12.6775680  98.3469760  41.3537690
  13.3081630 100.7554060  37.5715750  12.9009710 100.8968650  36.7169350
  14.1994640 100.4714220  37.3686960  23.1260510 104.9045970  44.4782800
  23.6405180 104.8153980  45.2805230  22.2829590 105.2505670  44.7710710
  25.1014910 105.1901310  33.9066800  24.9416050 104.9004250  34.8048630
  24.9361620 104.4141440  33.3712030  17.5803290 104.9699840  35.6838420
  17.4045770 104.0535380  35.4706220  16.7259030 105.3287130  35.9236220
  24.8041040 102.6988870  32.4664800  24.1106200 102.6966160  31.8067080
  25.5463900 102.2748190  32.0358970  24.3690970 104.3251580  36.5413290
  24.8247920 103.5440960  36.8551910  24.7083490 105.0358400  37.0854470
  12.1193520 100.0968040  43.7004030  12.2824560  99.6273400  42.8823400
  12.5845970  99.5891600  44.3652870  16.8912290  89.2273800  38.7364600
  16.4480440  90.0083340  38.4049120  17.4497280  89.5503690  39.4435540
  21.1782100  92.0942320  44.3399920  20.7161470  92.3025340  45.1519860
  20.7760210  91.2801670  44.0370590  20.0071110  88.8484500  33.6170430
  19.3825290  88.8444370  34.3423740  19.9201230  87.9815460  33.2206400
  18.9288190  89.7721130  40.5954200  19.2260520  90.6783960  40.5146220
  19.4773750  89.2839910  39.9813770  16.6826510  94.3507370  36.4645850
  16.4567430  94.1344540  37.3692470  15.9019040  94.7835830  36.1191820
  23.9124270  94.3570740  35.0636500  23.3133160  95.0806540  34.8800120
  24.4603880  94.2947520  34.2812950  19.1225720  95.2492950  47.1306120
  19.0269320  94.3087680  46.9806520  19.9657700  95.4708020  46.7354190
  22.5189140  92.9934280  37.0939780  22.9118710  93.3106480  36.2808470
  22.8805990  92.1146160  37.2084300  14.2536260  91.6606620  45.2839900
  13.8599650  92.5081830  45.4912680  13.5654660  91.0232990  45.4748540
  11.5553310  89.5835080  39.3169980  11.2666360  90.1537940  40.0294960
  12.2999070  89.1039530  39.6801210  11.7423540  93.5255200  30.5272700
  11.6598210  94.4685960  30.6687690  11.3906600  93.3830110  29.6485050
  19.5421670  92.2594230  39.5943050  19.5457730  91.8184180  38.7447590
  20.4372790  92.5811560  39.7014870  15.3924050  92.1420720  38.5537260
  15.0524100  92.6195950  39.3104310  14.6301370  91.6885840  38.1938360
  19.6041820  93.2606310  32.5849810  19.7254640  93.2192790  33.5335630
  19.2190330  94.1230460  32.4296540  23.5670190  91.0373710  40.6013500
  23.5842930  91.4882360  41.4455350  23.3185770  90.1379350  40.8146940
  18.6163320  95.5707450  31.9833110  18.0480220  95.1225700  31.3569020
  19.3252320  95.9300230  31.4498260  13.6932500  99.4719470  45.8599840
  13.3087290  98.8313140  46.4582800  14.0044690 100.1755590  46.4294570
  19.8429640  96.3196010  41.3408460  20.2099770  95.8454580  42.0869800
  19.6534700  97.1937580  41.6816800  12.7070130  91.0639700  37.4701930
  12.4217050  90.6995370  38.3080550  12.6448990  90.3320160  36.8565070
  17.6329010  95.3604650  43.6592670  17.3286080  96.2396630  43.8843030
  18.5875470  95.4204440  43.6950110  16.1610800  99.5665640  34.2559520
  15.3873060  99.0263260  34.0958240  16.8905430  99.0472250  33.9177280
  26.9198780  98.5631000  40.0485910  27.6397900  99.0586290  39.6582020
  26.7180600  97.8848890  39.4039780  22.3808720  89.9568960  34.1915300
  21.5673330  89.4582130  34.1160610  22.1870670  90.7967210  33.7751650
  25.0957110  94.3288610  32.4877460  25.9836730  94.6405840  32.3128800
  25.0662200  93.4560860  32.0958040  16.2048200  99.2346020  37.8938330
  16.7226870  98.4314280  37.8395220  15.7532220  99.1725160  38.7355160
  21.0917700 100.5012300  33.1665630  21.4333400 101.2454530  32.6708950
  20.2630410 100.8143420  33.5290460  13.6892740  96.2007390  44.8064030
  13.3307680  96.8661240  45.3937370  13.3947300  95.3690940  45.1776650
  16.8905860  96.6591630  47.6903580  16.5906000  96.8048810  46.7931400
  17.6617100  96.0996920  47.5976970  22.2334310 101.4560630  45.6858710
  22.2478850 100.5241590  45.4677620  21.5259410 101.5420390  46.3248480
  27.3671380  95.6400450  31.9557320  27.2835100  96.0714670  31.1053760
  28.0865570  96.0998800  32.3884140  28.3958630 102.4942710  34.6839450
  27.7534790 101.8398330  34.9583170  28.0089290 102.8997800  33.9080120
  23.9745110  99.8228140  38.5311140  24.3268930  99.2256270  37.8712510
  23.0907440  99.4972370  38.7019390  20.0608390 100.5825830  35.9381550
  20.7479520 101.1295040  36.3189140  19.2740810 101.1266560  35.9731160
  12.2000790  96.1998650  31.4298630  13.0695640  96.4823450  31.7134550
  11.7091110  97.0134520  31.3147440  19.3635600  97.5871860  35.5506910
  19.8198380  98.3977110  35.7767100  19.0123810  97.2695000  36.3825400
  21.6668210 103.0978200  42.7799210  22.3110430 103.3037580  43.4572630
  22.0297650 102.3366600  42.3270060  15.2647380  87.9309510  36.0229430
  15.1362010  87.9227410  36.9714350  14.4409400  88.2692600  35.6720440
  22.9400290 101.1010550  41.4976660  23.5822520 100.4003710  41.6108830
  23.4649640 101.8808990  41.3173550  26.7856010 101.3859170  31.2215800
  26.5593590 100.6689610  31.8140440  26.3952210 101.1371610  30.3837550
  24.7137910 101.9005450  44.7012720  25.0494150 102.4872140  45.3790640
  23.7938250 101.7698160  44.9310510  12.5672040 105.4126030  31.9960260
  12.9269680 106.0115370  31.3417530  12.4264380 105.9585920  32.7695290
  12.2641310  89.6900630  45.4836130  11.5499830  89.8897550  46.0888740
  12.6836350  88.9140200  45.8550930  26.3672260  99.3031110  32.8829960
  26.0793960  99.7643800  33.6707840  27.1624430  98.8428880  33.1514180
  12.5513900 103.6780890  46.4702660  12.6605020 102.7375630  46.3298050
  11.8994460 103.9435640  45.8216390  20.5426490 101.9496780  47.8700780
  20.2223360 101.2306020  48.4146470  19.8684850 102.6251850  47.9436840
  18.5840660 102.7957230  32.8133930  18.5750760 103.5286920  32.1978440
  17.6639020 102.5488810  32.9060890  14.1847300  98.0172120  33.5580690
  13.5775250  98.7571020  33.5675990  14.6596650  98.1071480  32.7318890
  23.7580090  92.1822940  43.2337580  24.1260910  91.3618150  43.5617150
  22.8978290  92.2424830  43.6493230  27.1242120  91.1379880  34.0425140
  26.4955280  91.2425550  33.3283370  26.6294040  91.3576660  34.8319020
  21.5700260 102.8585470  31.4759120  21.6712240 102.6549460  30.5461100
  20.6702000 102.6043750  31.6806900  19.0926150  93.4165830  35.4583020
  18.3842300  93.8852170  35.8996630  19.3770630  92.7587840  36.0928210
  23.1241580  90.1416490  36.8978810  23.0009360  90.1602620  35.9488320
  24.0726140  90.1895430  37.0177210  20.2118370 105.3771790  36.1706790
  20.4659870 105.3393180  35.2486160  19.2630850 105.2505120  36.1635040
  17.2961170  91.7250910  32.8333730  18.1451700  92.1621060  32.7673920
  16.9292440  92.0371170  33.6605790  26.2170950  96.2963670  37.7465300
  25.2761090  96.3113900  37.9212990  26.5315020  95.5099630  38.1925600
  16.1952590  97.9783270  31.3069260  16.9615860  97.8664630  31.8694690
  16.2727280  97.2821240  30.6546030  14.8899350  95.4108340  31.9902150
  14.9702940  94.4635850  32.1019550  15.7819100  95.7415220  32.0962810
  28.2196530 103.4672520  39.4219560  28.3443950 104.2903690  39.8943370
  29.0862090 103.2563250  39.0743710  15.6914060 105.5603730  39.0936690
  16.4276540 105.0119190  39.3645260  16.0754980 106.4259740  38.9542680
  12.5759540 101.6277300  34.9678200  11.6499320 101.8698440  34.9583610
  13.0415970 102.4551560  34.8462950  14.6972340 104.7449800  48.2822270
  15.4985070 105.0661850  48.6957670  14.1824160 104.3845380  49.0042180
  18.8016370 104.7334040  30.9162260  19.5944980 105.0222870  30.4644050
  18.2820720 104.3026210  30.2374740  23.5336970 100.8529670  48.2297680
  22.9275130 100.8761270  47.4893430  23.2291080 100.1212710  48.7664930
  24.9637340 104.5809960  46.8407090  25.9159090 104.4967980  46.7907330
  24.8165560 105.2451670  47.5140880  27.8546540 103.9604170  32.3399000
  27.5688050 103.5469310  31.5253180  27.6566090 104.8891880  32.2199520
  12.4170150  97.2323260  47.2258320  12.9209170  96.6530540  47.7974550
  11.6777570  97.5163490  47.7634690  19.3193770  99.9537450  30.7804610
  19.2144410  99.3389800  31.5065990  19.1517990  99.4303340  29.9967620
  19.4708090  98.6394250  46.7593840  18.7053760  99.2079250  46.6748510
  19.6524050  98.3470460  45.8662070  22.5596500  99.0157480  31.3846600
  22.0106600  99.4626780  32.0289340  23.1815760  98.5106730  31.9084270
  14.4493230  95.3752850  48.1208390  14.4898570  95.0766720  49.0293620
  15.3038730  95.7760460  47.9615910  18.2271620  97.9748400  33.2811900
  18.6488040  97.8088270  34.1243290  18.3522460  97.1648630  32.7867040
  16.3899040  93.9544950  46.0882880  15.8595500  93.4635900  45.4606220
  17.0587110  94.3829150  45.5540810  20.7399260  96.9986010  30.5289000
  21.2604920  96.2835030  30.1630150  21.3867660  97.6371880  30.8289510
  16.8771340  90.9207320  46.1680170  16.7828210  90.3028070  45.4431040
  16.2968730  91.6473610  45.9410080  19.6432780  89.4780560  43.2007560
  19.1950080  89.5004820  42.3553110  19.0097980  89.0799580  43.7977860
  20.0492330  98.3734890  43.8220000  20.4680440  99.2167620  43.6496240
  19.1300960  98.5106930  43.5926780  17.1230520  94.0481630  30.2270060
  16.9219580  93.1848990  30.5883400  16.9522570  93.9614990  29.2891660
  17.8999750 104.6787900  44.9377730  17.3620840 105.4033960  44.6186430
  18.1533710 104.2018240  44.1475070  24.6018830  88.8589860  32.7556940
  24.8821120  88.0157760  33.1116360  23.8284560  89.0912970  33.2695690
  15.9213320  91.1482250  30.2147940  16.2239220  91.1549680  29.3067090
  16.6607910  90.7980110  30.7115600  20.7561960 105.9139110  45.1964380
  20.6820660 106.8174250  45.5036750  19.8540800 105.5951010  45.1686450
  19.1398250  90.0916870  31.2004140  18.7920250  89.4140860  30.6206590
  19.3411020  89.6306380  32.0147530  21.3047290 105.0797620  32.8190740
  22.1998080 105.4182590  32.8409500  21.3364920 104.3577030  32.1915020
  14.9443450 100.4524670  31.0477740  15.3818320 100.9954340  31.7035320
  15.4291180  99.6271620  31.0574080  12.1589250 103.2413700  38.4998000
  12.4892260 102.3734760  38.2676640  12.5880250 103.4472220  39.3302960
  16.7551170 101.5722710  36.1599970  16.4546710 101.4487680  37.0603880
  16.6488660 100.7131300  35.7515700  12.6479460 104.1084290  41.2379630
  12.2110450 104.2885090  42.0703780  13.2157140 104.8658910  41.0961350
  29.5243090 101.3519110  30.8626650  28.6936050 101.4195760  31.3333880
  29.7014920 102.2423230  30.5593510  28.9799550  98.0966590  33.3660850
  29.7418460  98.6663240  33.4720540  28.9953920  97.5293790  34.1369160
  12.4803890  96.6204520  37.5968510  11.8252730  96.3516160  36.9528210
  13.3181840  96.5109000  37.1470490  29.0318720  98.3900960  30.5233370
  29.3067560  99.2979840  30.3952590  28.8429460  98.3263490  31.4595360
  25.4294330  91.4145810  31.8187000  25.8479210  91.2276790  30.9783660
  25.1230390  90.5624860  32.1289930  28.9284060  96.3269950  35.5162800
  28.5527660  95.5597880  35.0844090  28.1987180  96.7092650  36.0037730
  13.5179820  97.0057090  42.1371850  13.8852860  96.9184490  43.0167870
  12.9490640  96.2423640  42.0378710  13.0695820  93.9166180  46.0430270
  12.1751870  93.8832940  46.3823980  13.6093370  94.1152970  46.8081520
  11.6941970  93.8303450  33.5393840  10.7906050  94.0933650  33.3645500
  12.1782590  94.1014620  32.7593800  28.2035020  94.5527440  38.8170040
  28.7272500  94.0590090  38.1860210  28.7894440  94.6877800  39.5617610
  14.2369180  92.8868990  31.4488220  14.9460880  92.4652210  30.9635500
  13.5209120  92.9544220  30.8171570  13.8843340  88.9408320  30.4890870
  14.6071470  89.4817260  30.8072090  14.1567860  88.6671740  29.6132410
  27.6934990  93.8100790  34.7562450  28.1894110  93.5771660  35.5411330
  27.4951060  92.9712630  34.3400090  13.5735530  88.1914510  40.3913490
  14.2211720  87.6411890  39.9508650  13.9937370  88.4457660  41.2129300
  29.1222150  92.4461740  37.2900130  29.0121430  92.2917780  38.2282400
  29.8829740  91.9182680  37.0475540  30.0112420  90.2769660  30.5306270
  30.9361730  90.1450840  30.3224560  29.9888210  90.3562480  31.4842720
  30.0850910  91.0480320  33.1562980  29.2902410  90.9825440  33.6855890
  30.2894190  91.9830960  33.1448330  27.0269330 105.0871870  37.1501370
  27.6228400 104.7656440  36.4735790  27.2847480 104.6143690  37.9414640
  13.3267530  88.3470180  43.1338810  12.9782350  88.8034000  43.8996990
  12.9955230  87.4527310  43.2161240  14.9331900 101.5189780  47.2992000
  14.8901530 101.1482690  48.1806460  15.0642910 102.4567350  47.4393820
  18.6337930 103.0749370  42.9001720  18.3929290 103.3423930  42.0132240
  19.5740570 103.2455100  42.9552580  20.8392350  89.5382060  46.6558230
  20.7781240  90.1303890  47.4053640  21.7792730  89.4308020  46.5108490
  29.8942090 105.0943750  43.7012360  29.4000370 105.4912620  42.9839490
  29.2855380 104.4692960  44.0949640  13.9988170  87.8746380  46.4089580
  14.5471160  87.6934430  45.6455690  14.0643480  87.0840490  46.9445890
  14.7719930 104.4652030  44.4189780  14.1780250 104.3336730  45.1579820
  14.7643770 103.6290170  43.9531880  24.2174950  87.7584260  42.6219810
  23.3434790  88.0919370  42.4192740  24.1085700  87.2857440  43.4471680
  27.5781540 105.7367170  40.9799100  27.1184510 106.4882980  40.6057120
  26.9494000 105.0173640  40.9213900  14.4032160 101.8310410  43.3697820
  13.6766220 101.2115700  43.3023770  14.4641310 102.2251020  42.4995900
  18.0077260 104.0455410  40.1547230  18.5242280 103.4342770  39.6295490
  18.6574640 104.5484190  40.6458240  20.7472760 104.9363900  40.9816210
  21.0350570 104.6818200  40.1049220  21.2595980 104.3841260  41.5721780
  21.9649770  88.6754100  41.5612720  21.1821560  89.1499600  41.8409480
  21.6712700  87.7708930  41.4525900  26.5170840  89.3777200  39.6061810
  26.9578930  89.3222300  38.7583410  26.2478430  90.2935210  39.6771990
  28.3809410  89.0092440  37.6170630  28.3197810  88.0653660  37.4701650
  29.1601440  89.1172530  38.1624090  12.6862160 105.1484800  36.5794580
  12.5184200 104.5155480  37.2776470  11.8196670 105.3544200  36.2288770
  13.3090180  88.9801580  34.0826440  14.0669540  89.0930460  33.5090470
  12.8467350  89.8170780  34.0369870  19.8503990  91.0940850  37.0728750
  19.0378500  90.7197740  36.7324630  20.3545630  90.3385930  37.3749940
  24.3528970  87.7583300  38.3111820  24.9558340  88.3303510  38.7860340
  23.6121960  88.3222740  38.0885720  27.4963570  88.1604860  33.5852100
  27.6914200  89.0588310  33.8519530  26.7093440  87.9291940  34.0785050
  14.2924860 103.8418030  34.0244720  13.7672480 104.2226060  33.3206680
  14.2169440 104.4668800  34.7454430  15.6815330  89.5065630  32.6228410
  16.2108090  88.7195430  32.4936360  16.3143650  90.1856820  32.8563940
  17.8753170  89.2440770  35.6773800  17.2455910  88.5428080  35.8443930
  17.3358310  90.0044900  35.4606960  20.8145120 105.8580000  48.3484410
  21.7412430 105.6224270  48.3920370  20.7995550 106.6852000  47.8670440
  29.0490180 105.4005570  35.3458660  29.2242370 104.7143310  34.7019580
  28.3511750 105.9252620  34.9535330  18.0008730  88.5224750  48.1126290
  17.7193000  89.0258350  47.3487110  18.3828430  87.7246500  47.7468420
  16.8917830 105.7900410  32.8993970  17.6236650 105.5059690  32.3517860
  17.1511500 105.5513690  33.7893350  16.0532620 101.9065140  32.9040300
  15.4241500 102.3750240  33.4526130  16.1680450 101.0614360  33.3386490
  23.5082340  95.9570800  19.0541500  23.4276390  95.0425410  18.7833210
  23.0946760  96.4537870  18.3481210  21.6400380  97.7349820  20.9350770
  20.8642480  97.2550260  21.2249340  22.2913310  97.0555470  20.7606930
  15.6566210  98.0469630  21.8126530  14.8251090  97.7918340  22.2123040
  16.2647190  98.1180400  22.5484450  25.6607810 102.1410010  19.7149900
  25.1989340 101.3697250  20.0437070  26.4733360 102.1676080  20.2202350
  15.6367470 102.0809720  22.0084550  15.9395510 101.1907460  21.8294770
  16.3811060 102.6379940  21.7806800  14.0658160  93.0071520  15.5968920
  13.1774860  93.3487490  15.4948800  14.3499350  92.8071840  14.7049750
  12.0291170  95.6077170  21.4808620  12.6007280  94.8399370  21.4812260
  12.0292710  95.9065930  20.5715230  21.8871120 104.4268020  19.3353890
  21.2682560 104.8825520  18.7648330  22.7422900 104.5819480  18.9343590
  21.0809370 100.4107010  20.9420930  21.0117650  99.4696950  20.7810060
  21.8429230 100.5008420  21.5143500  13.2716040  91.0161530  23.2677550
  13.0918880  90.1187280  23.5480310  12.8696120  91.5633400  23.9424500
  22.1114540  93.2177390  21.1689860  22.4879360  92.3449270  21.0563530
  22.0134050  93.5536090  20.2780300  16.2419550  91.5903020  16.6307300
  16.3486300  92.4906750  16.9376060  15.3311910  91.5420990  16.3401950
  25.8938660  90.7127830  18.1018200  26.7148280  90.2224400  18.1443680
  25.9272740  91.3025490  18.8550040  13.8902710  93.5122030  21.8759890
  14.5712820  93.7760400  22.4947290  13.5750760  92.6722900  22.2097900
  18.0827280  94.5589390  20.9632480  18.5905500  95.0570360  21.6037500
  18.6140520  93.7824590  20.7871840  30.1838210  92.7294580  24.6661830
  29.4790380  93.1176290  24.1476940  30.4496130  93.4244870  25.2682760
  16.3663380  89.1987950  25.2295900  16.3681820  89.7160340  24.4241800
  15.5367690  88.7218130  25.2065830  22.7534470  99.3107260  16.7285800
  22.1351740  99.7756710  16.1648520  23.2657720 100.0034740  17.1455310
  17.6166230  98.8383130  23.4069400  17.2835610  99.4652050  24.0490470
  17.7932910  99.3645010  22.6271070  26.1300140  92.6528210  20.8745740
  25.4255710  92.9413100  21.4548850  26.4912300  93.4628320  20.5145300
  16.0478710  90.9097910  23.2366350  16.3895520  91.7539960  22.9420220
  15.1094520  91.0581650  23.3531690  16.8285330 100.8063930  25.2218580
  17.4459330 101.4815010  24.9403030  15.9678450 101.2151910  25.1306080
  12.1217670  99.9963790  14.1025430  11.7445650 100.4850890  13.3710330
  12.3790740 100.6689070  14.7331960  27.7462920 102.2703340  23.1373220
  27.0626440 102.9402450  23.1289890  28.2857210 102.4683990  22.3718080
  29.1987060  92.0983000  21.2654950  28.2511970  92.1321980  21.3970380
  29.5237050  92.9121950  21.6504310  19.7306600  88.3980180  19.5610940
  20.0381580  87.8427070  18.8446440  18.8007300  88.5324640  19.3783930
  25.2821660 104.1147470  21.8518400  25.2948820 103.7109760  20.9840660
  24.7296880 104.8894760  21.7479830  26.5767080 100.8363690  16.9408570
  26.4663410  99.8938020  17.0657990  26.5735330 101.1979330  17.8271330
  24.6807100  99.0177310  23.1801010  25.0975890  98.8037420  22.3454470
  25.4046920  99.2750100  23.7509630  22.1187360  96.4629010  16.2971060
  21.1916640  96.3966390  16.5259530  22.2712180  97.4009140  16.1826300
  22.1056440  92.7346010  13.2938220  21.1660110  92.8959970  13.3790680
  22.4239700  93.4531690  12.7474210  28.6269200  97.4164530  23.2717250
  27.7987830  97.4857620  22.7967380  29.2219680  98.0018840  22.8033080
  26.1484650  98.0249310  16.8006310  25.5297070  97.6868860  16.1532610
  26.1309100  97.3809070  17.5085500  25.5911210  94.2033850  24.2172120
  25.1782390  95.0287560  24.4712110  24.8587160  93.6178890  24.0248480
  17.7244000  96.9893750  19.0790790  17.3201000  96.2771000  18.5836690
  17.8107120  96.6446990  19.9678830  18.1925700 100.6761310  21.2430000
  17.8953990 100.0706780  20.5637780  19.1425520 100.7138620  21.1319360
  16.4372620  93.7636960  22.8589830  16.9887210  93.8732300  22.0843080
  16.9516130  94.1374560  23.5745060  26.2811310 104.2493180  24.9053100
  25.8041870 105.0565370  24.7125710  25.5973100 103.5971510  25.0579310
  17.2844130 100.4143000  27.8937800  16.3872660 100.6382970  28.1411200
  17.3097000 100.5377940  26.9449200  24.3249350  97.2636120  13.8079060
  24.7642630  96.4258550  13.6616880  25.0377770  97.8965520  13.8943200
  16.1115350  97.2856320  26.4695170  15.9723120  98.1579120  26.8382570
  15.2296710  96.9429130  26.3243110  22.4344730 102.2032190  17.7760300
  22.8740640 102.9456520  17.3615690  22.3731620 102.4458760  18.6999260
  17.9095700 103.2278020  28.6780320  17.8811130 103.6320970  27.8108750
  17.7460670 102.2988380  28.5151920  27.9066490  88.5178930  12.1220100
  27.5939150  88.6105760  13.0219170  28.6678960  89.0959960  12.0717530
  14.4248630  95.8838730  16.5797440  14.3046230  96.6100820  15.9678710
  14.1149520  95.1141640  16.1025350  29.8610520 104.0105120  29.9744490
  30.3370240 104.4888010  30.6533570  30.4817680 103.9422610  29.2489990
  12.0634000  99.0553870  22.3866080  12.1414420  99.1902640  21.4421800
  12.6775680  98.3469760  22.5794200  13.3081630 100.7554060  18.7972260
  12.9009710 100.8968650  17.9425860  14.1994640 100.4714220  18.5943470
  29.2643770 101.2017970  27.1344500  29.3906830 100.9629850  26.2161680
  29.3065150 100.3702510  27.6066580  23.1260510 104.9045970  25.7039310
  23.6405180 104.8153980  26.5061740  22.2829590 105.2505670  25.9967220
  25.1014910 105.1901310  15.1323310  24.9416050 104.9004250  16.0305140
  24.9361620 104.4141440  14.5968540  17.5803290 104.9699840  16.9094930
  17.4045770 104.0535380  16.6962730  16.7259030 105.3287130  17.1492730
  24.8041040 102.6988870  13.6921310  24.1106200 102.6966160  13.0323590
  25.5463900 102.2748190  13.2615480  24.3690970 104.3251580  17.7669800
  24.8247920 103.5440960  18.0808420  24.7083490 105.0358400  18.3110980
  29.1167780  93.2550430  28.0994240  28.5012050  93.7630100  27.5709700
  28.7964200  92.3548760  28.0420180  12.1193520 100.0968040  24.9260540
  12.2824560  99.6273400  24.1079910  12.5845970  99.5891600  25.5909380
  16.8912290  89.2273800  19.9621110  16.4480440  90.0083340  19.6305630
  17.4497280  89.5503690  20.6692050  21.1782100  92.0942320  25.5656430
  20.7161470  92.3025340  26.3776370  20.7760210  91.2801670  25.2627100
  26.1786610  93.3151270  26.6953090  25.3280200  93.0157020  27.0162160
  26.0188400  93.5593280  25.7836910  23.2736320  94.8153020  28.7951880
  23.5989730  93.9816770  28.4554110  24.0616650  95.3381540  28.9430210
  20.0071110  88.8484500  14.8426940  19.3825290  88.8444370  15.5680250
  19.9201230  87.9815460  14.4462910  18.9288190  89.7721130  21.8210710
  19.2260520  90.6783960  21.7402730  19.4773750  89.2839910  21.2070280
  16.6826510  94.3507370  17.6902360  16.4567430  94.1344540  18.5948980
  15.9019040  94.7835830  17.3448330  23.9124270  94.3570740  16.2893010
  23.3133160  95.0806540  16.1056630  24.4603880  94.2947520  15.5069460
  19.1225720  95.2492950  28.3562630  19.0269320  94.3087680  28.2063030
  19.9657700  95.4708020  27.9610700  22.5189140  92.9934280  18.3196290
  22.9118710  93.3106480  17.5064980  22.8805990  92.1146160  18.4340810
  14.2536260  91.6606620  26.5096410  13.8599650  92.5081830  26.7169190
  13.5654660  91.0232990  26.7005050  20.8281310  91.7441590  29.5793150
  20.1379630  91.5513790  30.2139240  21.5713610  92.0276230  30.1117450
  11.5553310  89.5835080  20.5426490  11.2666360  90.1537940  21.2551470
  12.2999070  89.1039530  20.9057720  11.7423540  93.5255200  11.7529210
  11.6598210  94.4685960  11.8944200  11.3906600  93.3830110  10.8741560
  23.1044280  95.5840030  22.4147070  22.3725400  96.0926840  22.7637170
  22.7068620  94.7670010  22.1135850  19.5421670  92.2594230  20.8199560
  19.5457730  91.8184180  19.9704100  20.4372790  92.5811560  20.9271380
  15.3924050  92.1420720  19.7793770  15.0524100  92.6195950  20.5360820
  14.6301370  91.6885840  19.4194870  19.6041820  93.2606310  13.8106320
  19.7254640  93.2192790  14.7592140  19.2190330  94.1230460  13.6553050
  23.5670190  91.0373710  21.8270010  23.5842930  91.4882360  22.6711860
  23.3185770  90.1379350  22.0403450  18.6163320  95.5707450  13.2089620
  18.0480220  95.1225700  12.5825530  19.3252320  95.9300230  12.6754770
  26.9940940  88.4505890  27.6656390  27.3186710  87.7195550  28.1914370
  27.0297450  88.1319530  26.7637380  13.6932500  99.4719470  27.0856350
  13.3087290  98.8313140  27.6839310  14.0044690 100.1755590  27.6551080
  19.8429640  96.3196010  22.5664970  20.2099770  95.8454580  23.3126310
  19.6534700  97.1937580  22.9073310  12.7070130  91.0639700  18.6958440
  12.4217050  90.6995370  19.5337060  12.6448990  90.3320160  18.0821580
  17.6329010  95.3604650  24.8849180  17.3286080  96.2396630  25.1099540
  18.5875470  95.4204440  24.9206620  16.1610800  99.5665640  15.4816030
  15.3873060  99.0263260  15.3214750  16.8905430  99.0472250  15.1433790
  26.9198780  98.5631000  21.2742420  27.6397900  99.0586290  20.8838530
  26.7180600  97.8848890  20.6296290  22.3808720  89.9568960  15.4171810
  21.5673330  89.4582130  15.3417120  22.1870670  90.7967210  15.0008160
  22.3017580  98.6340060  27.1611420  22.2354890  97.7135730  26.9069010
  21.6722720  98.7315500  27.8756060  25.0957110  94.3288610  13.7133970
  25.9836730  94.6405840  13.5385310  25.0662200  93.4560860  13.3214550
  16.2048200  99.2346020  19.1194840  16.7226870  98.4314280  19.0651730
  15.7532220  99.1725160  19.9611670  21.0917700 100.5012300  14.3922140
  21.4333400 101.2454530  13.8965460  20.2630410 100.8143420  14.7546970
  13.6892740  96.2007390  26.0320540  13.3307680  96.8661240  26.6193880
  13.3947300  95.3690940  26.4033160  16.8905860  96.6591630  28.9160090
  16.5906000  96.8048810  28.0187910  17.6617100  96.0996920  28.8233480
  22.2334310 101.4560630  26.9115220  22.2478850 100.5241590  26.6934130
  21.5259410 101.5420390  27.5504990  27.3671380  95.6400450  13.1813830
  27.2835100  96.0714670  12.3310270  28.0865570  96.0998800  13.6140650
  28.4445520  98.0967970  26.2583800  27.7193710  98.6896750  26.0613190
  28.9720980  98.0891510  25.4597170  28.3958630 102.4942710  15.9095960
  27.7534790 101.8398330  16.1839680  28.0089290 102.8997800  15.1336630
  23.9745110  99.8228140  19.7567650  24.3268930  99.2256270  19.0969020
  23.0907440  99.4972370  19.9275900  20.0608390 100.5825830  17.1638060
  20.7479520 101.1295040  17.5445650  19.2740810 101.1266560  17.1987670
  12.2000790  96.1998650  12.6555140  13.0695640  96.4823450  12.9391060
  11.7091110  97.0134520  12.5403950  19.3635600  97.5871860  16.7763420
  19.8198380  98.3977110  17.0023610  19.0123810  97.2695000  17.6081910
  21.6668210 103.0978200  24.0055720  22.3110430 103.3037580  24.6829140
  22.0297650 102.3366600  23.5526570  15.2647380  87.9309510  17.2485940
  15.1362010  87.9227410  18.1970860  14.4409400  88.2692600  16.8976950
  22.9400290 101.1010550  22.7233170  23.5822520 100.4003710  22.8365340
  23.4649640 101.8808990  22.5430060  26.7856010 101.3859170  12.4472310
  26.5593590 100.6689610  13.0396950  26.3952210 101.1371610  11.6094060
  24.7137910 101.9005450  25.9269230  25.0494150 102.4872140  26.6047150
  23.7938250 101.7698160  26.1567020  12.5672040 105.4126030  13.2216770
  12.9269680 106.0115370  12.5674040  12.4264380 105.9585920  13.9951800
  12.2641310  89.6900630  26.7092640  11.5499830  89.8897550  27.3145250
  12.6836350  88.9140200  27.0807440  26.3672260  99.3031110  14.1086470
  26.0793960  99.7643800  14.8964350  27.1624430  98.8428880  14.3770690
  12.5513900 103.6780890  27.6959170  12.6605020 102.7375630  27.5554560
  11.8994460 103.9435640  27.0472900  20.5426490 101.9496780  29.0957290
  20.2223360 101.2306020  29.6402980  19.8684850 102.6251850  29.1693350
  18.5840660 102.7957230  14.0390440  18.5750760 103.5286920  13.4234950
  17.6639020 102.5488810  14.1317400  14.1847300  98.0172120  14.7837200
  13.5775250  98.7571020  14.7932500  14.6596650  98.1071480  13.9575400
  23.7580090  92.1822940  24.4594090  24.1260910  91.3618150  24.7873660
  22.8978290  92.2424830  24.8749740  27.1242120  91.1379880  15.2681650
  26.4955280  91.2425550  14.5539880  26.6294040  91.3576660  16.0575530
  21.5700260 102.8585470  12.7015630  21.6712240 102.6549460  11.7717610
  20.6702000 102.6043750  12.9063410  19.0926150  93.4165830  16.6839530
  18.3842300  93.8852170  17.1253140  19.3770630  92.7587840  17.3184720
  20.7182080  94.8362530  24.6832060  21.2167330  95.3108350  25.3483910
  20.8605030  93.9126050  24.8902090  23.1241580  90.1416490  18.1235320
  23.0009360  90.1602620  17.1744830  24.0726140  90.1895430  18.2433720
  20.2118370 105.3771790  17.3963300  20.4659870 105.3393180  16.4742670
  19.2630850 105.2505120  17.3891550  17.2961170  91.7250910  14.0590240
  18.1451700  92.1621060  13.9930430  16.9292440  92.0371170  14.8862300
  27.9248940  91.0530490  25.5260450  27.4222540  91.7935890  25.8654260
  28.7405600  91.4414490  25.2097240  26.2170950  96.2963670  18.9721810
  25.2761090  96.3113900  19.1469500  26.5315020  95.5099630  19.4182110
  16.1952590  97.9783270  12.5325770  16.9615860  97.8664630  13.0951200
  16.2727280  97.2821240  11.8802540  14.8899350  95.4108340  13.2158660
  14.9702940  94.4635850  13.3276060  15.7819100  95.7415220  13.3219320
  28.2196530 103.4672520  20.6476070  28.3443950 104.2903690  21.1199880
  29.0862090 103.2563250  20.3000220  15.6914060 105.5603730  20.3193200
  16.4276540 105.0119190  20.5901770  16.0754980 106.4259740  20.1799190
  12.5759540 101.6277300  16.1934710  11.6499320 101.8698440  16.1840120
  13.0415970 102.4551560  16.0719460  14.6972340 104.7449800  29.5078780
  15.4985070 105.0661850  29.9214180  14.1824160 104.3845380  30.2298690
  18.8016370 104.7334040  12.1418770  19.5944980 105.0222870  11.6900560
  18.2820720 104.3026210  11.4631250  23.5336970 100.8529670  29.4554190
  22.9275130 100.8761270  28.7149940  23.2291080 100.1212710  29.9921440
  24.9637340 104.5809960  28.0663600  25.9159090 104.4967980  28.0163840
  24.8165560 105.2451670  28.7397390  27.8546540 103.9604170  13.5655510
  27.5688050 103.5469310  12.7509690  27.6566090 104.8891880  13.4456030
  12.4170150  97.2323260  28.4514830  12.9209170  96.6530540  29.0231060
  11.6777570  97.5163490  28.9891200  19.3193770  99.9537450  12.0061120
  19.2144410  99.3389800  12.7322500  19.1517990  99.4303340  11.2224130
  19.4708090  98.6394250  27.9850350  18.7053760  99.2079250  27.9005020
  19.6524050  98.3470460  27.0918580  22.5596500  99.0157480  12.6103110
  22.0106600  99.4626780  13.2545850  23.1815760  98.5106730  13.1340780
  26.6131440 100.3699580  28.5425370  27.3540910 100.7075340  28.0392830
  25.8504120 100.5391640  27.9895140  14.4493230  95.3752850  29.3464900
  14.4898570  95.0766720  30.2550130  15.3038730  95.7760460  29.1872420
  18.2271620  97.9748400  14.5068410  18.6488040  97.8088270  15.3499800
  18.3522460  97.1648630  14.0123550  16.3899040  93.9544950  27.3139390
  15.8595500  93.4635900  26.6862730  17.0587110  94.3829150  26.7797320
  20.7399260  96.9986010  11.7545510  21.2604920  96.2835030  11.3886660
  21.3867660  97.6371880  12.0546020  25.2877100  98.4214410  27.0780580
  25.7018120  98.5759490  27.9271000  24.3528100  98.5469630  27.2406360
  25.7599270  95.7610570  29.0819730  26.3420040  95.0062890  28.9940210
  25.9361040  96.2918010  28.3051210  16.8771340  90.9207320  27.3936680
  16.7828210  90.3028070  26.6687550  16.2968730  91.6473610  27.1666590
  19.6432780  89.4780560  24.4264070  19.1950080  89.5004820  23.5809620
  19.0097980  89.0799580  25.0234370  20.0492330  98.3734890  25.0476510
  20.4680440  99.2167620  24.8752750  19.1300960  98.5106930  24.8183290
  22.3856230  96.1051070  26.4314350  22.5052440  95.5092210  27.1709190
  23.2450230  96.1420760  26.0115650  24.7244130  96.6588260  25.0076860
  24.1979350  97.1830880  24.4042000  25.0675470  97.2915650  25.6386590
  17.1230520  94.0481630  11.4526570  16.9219580  93.1848990  11.8139910
  16.9522570  93.9614990  10.5148170  17.8999750 104.6787900  26.1634240
  17.3620840 105.4033960  25.8442940  18.1533710 104.2018240  25.3731580
  19.1525000  92.6472420  27.6890170  19.7424690  92.3388270  28.3767990
  18.3345240  92.1752170  27.8450070  23.9718430  92.2638230  27.9223190
  23.2833950  91.6019770  27.8573180  24.6924450  91.8176500  28.3671650
  24.6018830  88.8589860  13.9813450  24.8821120  88.0157760  14.3372870
  23.8284560  89.0912970  14.4952200  15.9213320  91.1482250  11.4404450
  16.2239220  91.1549680  10.5323600  16.6607910  90.7980110  11.9372110
  20.7561960 105.9139110  26.4220890  20.6820660 106.8174250  26.7293260
  19.8540800 105.5951010  26.3942960  19.1398250  90.0916870  12.4260650
  18.7920250  89.4140860  11.8463100  19.3411020  89.6306380  13.2404040
  21.3047290 105.0797620  14.0447250  22.1998080 105.4182590  14.0666010
  21.3364920 104.3577030  13.4171530  14.9443450 100.4524670  12.2734250
  15.3818320 100.9954340  12.9291830  15.4291180  99.6271620  12.2830590
  12.1589250 103.2413700  19.7254510  12.4892260 102.3734760  19.4933150
  12.5880250 103.4472220  20.5559470  16.7551170 101.5722710  17.3856480
  16.4546710 101.4487680  18.2860390  16.6488660 100.7131300  16.9772210
  12.6479460 104.1084290  22.4636140  12.2110450 104.2885090  23.2960290
  13.2157140 104.8658910  22.3217860  28.2841640 103.6101290  26.7513450
  27.6843630 103.6693850  26.0077370  28.4135540 102.6706270  26.8810300
  29.5243090 101.3519110  12.0883160  28.6936050 101.4195760  12.5590390
  29.7014920 102.2423230  11.7850020  28.9799550  98.0966590  14.5917360
  29.7418460  98.6663240  14.6977050  28.9953920  97.5293790  15.3625670
  12.4803890  96.6204520  18.8225020  11.8252730  96.3516160  18.1784720
  13.3181840  96.5109000  18.3727000  29.9859520  98.9516690  19.4359290
  30.3568350  98.1684010  19.0295260  30.6261450  99.6405790  19.2576590
  26.9693280 100.3353270  24.8489610  26.1553120 100.7650430  25.1115400
  27.3767480 100.9471680  24.2358660  29.0318720  98.3900960  11.7489880
  29.3067560  99.2979840  11.6209100  28.8429460  98.3263490  12.6851870
  25.4294330  91.4145810  13.0443510  25.8479210  91.2276790  12.2040170
  25.1230390  90.5624860  13.3546440  28.9284060  96.3269950  16.7419310
  28.5527660  95.5597880  16.3100600  28.1987180  96.7092650  17.2294240
  13.5179820  97.0057090  23.3628360  13.8852860  96.9184490  24.2424380
  12.9490640  96.2423640  23.2635220  28.3183680  95.4741470  26.3758830
  28.0869770  95.2454220  25.4756780  28.5788230  96.3941020  26.3303720
  13.0695820  93.9166180  27.2686780  12.1751870  93.8832940  27.6080490
  13.6093370  94.1152970  28.0338030  26.7571750  90.6997900  29.1538530
  27.6341930  90.7081300  29.5372530  26.7692590  89.9628740  28.5430880
  11.6941970  93.8303450  14.7650350  10.7906050  94.0933650  14.5902010
  12.1782590  94.1014620  13.9850310  28.2035020  94.5527440  20.0426550
  28.7272500  94.0590090  19.4116720  28.7894440  94.6877800  20.7874120
  28.3824740  94.6367310  23.5646100  27.4327450  94.6030850  23.6791090
  28.5637750  95.5467420  23.3295870  14.2369180  92.8868990  12.6744730
  14.9460880  92.4652210  12.1892010  13.5209120  92.9544220  12.0428080
  13.8843340  88.9408320  11.7147380  14.6071470  89.4817260  12.0328600
  14.1567860  88.6671740  10.8388920  27.6934990  93.8100790  15.9818960
  28.1894110  93.5771660  16.7667840  27.4951060  92.9712630  15.5656600
  13.5735530  88.1914510  21.6170000  14.2211720  87.6411890  21.1765160
  13.9937370  88.4457660  22.4385810  29.1222150  92.4461740  18.5156640
  29.0121430  92.2917780  19.4538910  29.8829740  91.9182680  18.2732050
  27.4687870  88.3855870  24.9739640  28.1060090  88.9990010  25.3398830
  27.6162760  88.4216530  24.0288870  30.0112420  90.2769660  11.7562780
  30.9361730  90.1450840  11.5481070  29.9888210  90.3562480  12.7099230
  30.0850910  91.0480320  14.3819490  29.2902410  90.9825440  14.9112400
  30.2894190  91.9830960  14.3704840  27.0269330 105.0871870  18.3757880
  27.6228400 104.7656440  17.6992300  27.2847480 104.6143690  19.1671150
  13.3267530  88.3470180  24.3595320  12.9782350  88.8034000  25.1253500
  12.9955230  87.4527310  24.4417750  14.9331900 101.5189780  28.5248510
  14.8901530 101.1482690  29.4062970  15.0642910 102.4567350  28.6650330
  18.6337930 103.0749370  24.1258230  18.3929290 103.3423930  23.2388750
  19.5740570 103.2455100  24.1809090  20.8392350  89.5382060  27.8814740
  20.7781240  90.1303890  28.6310150  21.7792730  89.4308020  27.7365000
  23.4766910  89.1952120  27.5207030  24.0907320  89.5131410  26.8588110
  24.0216470  88.7100710  28.1402890  29.8942090 105.0943750  24.9268870
  29.4000370 105.4912620  24.2096000  29.2855380 104.4692960  25.3206150
  13.9988170  87.8746380  27.6346090  14.5471160  87.6934430  26.8712200
  14.0643480  87.0840490  28.1702400  14.7719930 104.4652030  25.6446290
  14.1780250 104.3336730  26.3836330  14.7643770 103.6290170  25.1788390
  24.2174950  87.7584260  23.8476320  23.3434790  88.0919370  23.6449250
  24.1085700  87.2857440  24.6728190  25.1246930  89.9655130  25.2318040
  24.7960290  89.1506890  24.8519770  26.0729230  89.9224940  25.1083730
  27.5781540 105.7367170  22.2055610  27.1184510 106.4882980  21.8313630
  26.9494000 105.0173640  22.1470410  14.4032160 101.8310410  24.5954330
  13.6766220 101.2115700  24.5280280  14.4641310 102.2251020  23.7252410
  18.0077260 104.0455410  21.3803740  18.5242280 103.4342770  20.8552000
  18.6574640 104.5484190  21.8714750  20.7472760 104.9363900  22.2072720
  21.0350570 104.6818200  21.3305730  21.2595980 104.3841260  22.7978290
  21.9649770  88.6754100  22.7869230  21.1821560  89.1499600  23.0665990
  21.6712700  87.7708930  22.6782410  26.5170840  89.3777200  20.8318320
  26.9578930  89.3222300  19.9839920  26.2478430  90.2935210  20.9028500
  28.3809410  89.0092440  18.8427140  28.3197810  88.0653660  18.6958160
  29.1601440  89.1172530  19.3880600  12.6862160 105.1484800  17.8051090
  12.5184200 104.5155480  18.5032980  11.8196670 105.3544200  17.4545280
  13.3090180  88.9801580  15.3082950  14.0669540  89.0930460  14.7346980
  12.8467350  89.8170780  15.2626380  19.8503990  91.0940850  18.2985260
  19.0378500  90.7197740  17.9581140  20.3545630  90.3385930  18.6006450
  24.3528970  87.7583300  19.5368330  24.9558340  88.3303510  20.0116850
  23.6121960  88.3222740  19.3142230  27.4963570  88.1604860  14.8108610
  27.6914200  89.0588310  15.0776040  26.7093440  87.9291940  15.3041560
  14.2924860 103.8418030  15.2501230  13.7672480 104.2226060  14.5463190
  14.2169440 104.4668800  15.9710940  15.6815330  89.5065630  13.8484920
  16.2108090  88.7195430  13.7192870  16.3143650  90.1856820  14.0820450
  17.8753170  89.2440770  16.9030310  17.2455910  88.5428080  17.0700440
  17.3358310  90.0044900  16.6863470  20.8145120 105.8580000  29.5740920
  21.7412430 105.6224270  29.6176880  20.7995550 106.6852000  29.0926950
  29.0490180 105.4005570  16.5715170  29.2242370 104.7143310  15.9276090
  28.3511750 105.9252620  16.1791840  18.0008730  88.5224750  29.3382800
  17.7193000  89.0258350  28.5743620  18.3828430  87.7246500  28.9724930
  16.8917830 105.7900410  14.1250480  17.6236650 105.5059690  13.5774370
  17.1511500 105.5513690  15.0149860  16.0532620 101.9065140  14.1296810
  15.4241500 102.3750240  14.6782640  16.1680450 101.0614360  14.5643000
  24.6024190  87.9378330  29.9163270  24.4889640  88.2572940  30.8114790
  25.4193930  88.3390840  29.6200550  27.3822680 105.0849860  29.3981960
  28.1748000 104.5899090  29.1907920  27.6755830 105.7640000  30.0057570
  21.6400380  97.7349820   2.1607280  20.8642480  97.2550260   2.4505850
  22.2913310  97.0555470   1.9863440  15.6566210  98.0469630   3.0383040
  14.8251090  97.7918340   3.4379550  16.2647190  98.1180400   3.7740960
  15.6367470 102.0809720   3.2341060  15.9395510 101.1907460   3.0551280
  16.3811060 102.6379940   3.0063310  12.0291170  95.6077170   2.7065130
  12.6007280  94.8399370   2.7068770  12.0292710  95.9065930   1.7971740
  21.0809370 100.4107010   2.1677440  21.0117650  99.4696950   2.0066570
  21.8429230 100.5008420   2.7400010  13.2716040  91.0161530   4.4934060
  13.0918880  90.1187280   4.7736820  12.8696120  91.5633400   5.1681010
  13.8902710  93.5122030   3.1016400  14.5712820  93.7760400   3.7203800
  13.5750760  92.6722900   3.4354410  18.0827280  94.5589390   2.1888990
  18.5905500  95.0570360   2.8294010  18.6140520  93.7824590   2.0128350
  30.1838210  92.7294580   5.8918340  29.4790380  93.1176290   5.3733450
  30.4496130  93.4244870   6.4939270  16.3663380  89.1987950   6.4552410
  16.3681820  89.7160340   5.6498310  15.5367690  88.7218130   6.4322340
  17.6166230  98.8383130   4.6325910  17.2835610  99.4652050   5.2746980
  17.7932910  99.3645010   3.8527580  26.1300140  92.6528210   2.1002250
  25.4255710  92.9413100   2.6805360  26.4912300  93.4628320   1.7401810
  16.0478710  90.9097910   4.4622860  16.3895520  91.7539960   4.1676730
  15.1094520  91.0581650   4.5788200  16.8285330 100.8063930   6.4475090
  17.4459330 101.4815010   6.1659540  15.9678450 101.2151910   6.3562590
  27.7462920 102.2703340   4.3629730  27.0626440 102.9402450   4.3546400
  28.2857210 102.4683990   3.5974590  29.1987060  92.0983000   2.4911460
  28.2511970  92.1321980   2.6226890  29.5237050  92.9121950   2.8760820
  25.2821660 104.1147470   3.0774910  25.2948820 103.7109760   2.2097170
  24.7296880 104.8894760   2.9736340  24.6807100  99.0177310   4.4057520
  25.0975890  98.8037420   3.5710980  25.4046920  99.2750100   4.9766140
  28.6269200  97.4164530   4.4973760  27.7987830  97.4857620   4.0223890
  29.2219680  98.0018840   4.0289590  25.5911210  94.2033850   5.4428630
  25.1782390  95.0287560   5.6968620  24.8587160  93.6178890   5.2504990
  18.1925700 100.6761310   2.4686510  17.8953990 100.0706780   1.7894290
  19.1425520 100.7138620   2.3575870  16.4372620  93.7636960   4.0846340
  16.9887210  93.8732300   3.3099590  16.9516130  94.1374560   4.8001570
  26.2811310 104.2493180   6.1309610  25.8041870 105.0565370   5.9382220
  25.5973100 103.5971510   6.2835820  17.2844130 100.4143000   9.1194310
  16.3872660 100.6382970   9.3667710  17.3097000 100.5377940   8.1705710
  16.1115350  97.2856320   7.6951680  15.9723120  98.1579120   8.0639080
  15.2296710  96.9429130   7.5499620  17.9095700 103.2278020   9.9036830
  17.8811130 103.6320970   9.0365260  17.7460670 102.2988380   9.7408430
  29.8610520 104.0105120  11.2001000  30.3370240 104.4888010  11.8790080
  30.4817680 103.9422610  10.4746500  12.0634000  99.0553870   3.6122590
  12.1414420  99.1902640   2.6678310  12.6775680  98.3469760   3.8050710
  29.2643770 101.2017970   8.3601010  29.3906830 100.9629850   7.4418190
  29.3065150 100.3702510   8.8323090  23.1260510 104.9045970   6.9295820
  23.6405180 104.8153980   7.7318250  22.2829590 105.2505670   7.2223730
  29.1167780  93.2550430   9.3250750  28.5012050  93.7630100   8.7966210
  28.7964200  92.3548760   9.2676690  12.1193520 100.0968040   6.1517050
  12.2824560  99.6273400   5.3336420  12.5845970  99.5891600   6.8165890
  21.1782100  92.0942320   6.7912940  20.7161470  92.3025340   7.6032880
  20.7760210  91.2801670   6.4883610  26.1786610  93.3151270   7.9209600
  25.3280200  93.0157020   8.2418670  26.0188400  93.5593280   7.0093420
  23.2736320  94.8153020  10.0208390  23.5989730  93.9816770   9.6810620
  24.0616650  95.3381540  10.1686720  18.9288190  89.7721130   3.0467220
  19.2260520  90.6783960   2.9659240  19.4773750  89.2839910   2.4326790
  19.1225720  95.2492950   9.5819140  19.0269320  94.3087680   9.4319540
  19.9657700  95.4708020   9.1867210  14.2536260  91.6606620   7.7352920
  13.8599650  92.5081830   7.9425700  13.5654660  91.0232990   7.9261560
  20.8281310  91.7441590  10.8049660  20.1379630  91.5513790  11.4395750
  21.5713610  92.0276230  11.3373960  11.5553310  89.5835080   1.7683000
  11.2666360  90.1537940   2.4807980  12.2999070  89.1039530   2.1314230
  23.1044280  95.5840030   3.6403580  22.3725400  96.0926840   3.9893680
  22.7068620  94.7670010   3.3392360  23.5670190  91.0373710   3.0526520
  23.5842930  91.4882360   3.8968370  23.3185770  90.1379350   3.2659960
  26.9940940  88.4505890   8.8912900  27.3186710  87.7195550   9.4170880
  27.0297450  88.1319530   7.9893890  13.6932500  99.4719470   8.3112860
  13.3087290  98.8313140   8.9095820  14.0044690 100.1755590   8.8807590
  19.8429640  96.3196010   3.7921480  20.2099770  95.8454580   4.5382820
  19.6534700  97.1937580   4.1329820  17.6329010  95.3604650   6.1105690
  17.3286080  96.2396630   6.3356050  18.5875470  95.4204440   6.1463130
  26.9198780  98.5631000   2.4998930  27.6397900  99.0586290   2.1095040
  26.7180600  97.8848890   1.8552800  22.3017580  98.6340060   8.3867930
  22.2354890  97.7135730   8.1325520  21.6722720  98.7315500   9.1012570
  13.6892740  96.2007390   7.2577050  13.3307680  96.8661240   7.8450390
  13.3947300  95.3690940   7.6289670  16.8905860  96.6591630  10.1416600
  16.5906000  96.8048810   9.2444420  17.6617100  96.0996920  10.0489990
  22.2334310 101.4560630   8.1371730  22.2478850 100.5241590   7.9190640
  21.5259410 101.5420390   8.7761500  28.4445520  98.0967970   7.4840310
  27.7193710  98.6896750   7.2869700  28.9720980  98.0891510   6.6853680
  21.6668210 103.0978200   5.2312230  22.3110430 103.3037580   5.9085650
  22.0297650 102.3366600   4.7783080  22.9400290 101.1010550   3.9489680
  23.5822520 100.4003710   4.0621850  23.4649640 101.8808990   3.7686570
  24.7137910 101.9005450   7.1525740  25.0494150 102.4872140   7.8303660
  23.7938250 101.7698160   7.3823530  12.2641310  89.6900630   7.9349150
  11.5499830  89.8897550   8.5401760  12.6836350  88.9140200   8.3063950
  12.5513900 103.6780890   8.9215680  12.6605020 102.7375630   8.7811070
  11.8994460 103.9435640   8.2729410  20.5426490 101.9496780  10.3213800
  20.2223360 101.2306020  10.8659490  19.8684850 102.6251850  10.3949860
  23.7580090  92.1822940   5.6850600  24.1260910  91.3618150   6.0130170
  22.8978290  92.2424830   6.1006250  20.7182080  94.8362530   5.9088570
  21.2167330  95.3108350   6.5740420  20.8605030  93.9126050   6.1158600
  27.9248940  91.0530490   6.7516960  27.4222540  91.7935890   7.0910770
  28.7405600  91.4414490   6.4353750  14.6972340 104.7449800  10.7335290
  15.4985070 105.0661850  11.1470690  14.1824160 104.3845380  11.4555200
  23.5336970 100.8529670  10.6810700  22.9275130 100.8761270   9.9406450
  23.2291080 100.1212710  11.2177950  24.9637340 104.5809960   9.2920110
  25.9159090 104.4967980   9.2420350  24.8165560 105.2451670   9.9653900
  12.4170150  97.2323260   9.6771340  12.9209170  96.6530540  10.2487570
  11.6777570  97.5163490  10.2147710  19.4708090  98.6394250   9.2106860
  18.7053760  99.2079250   9.1261530  19.6524050  98.3470460   8.3175090
  26.6131440 100.3699580   9.7681880  27.3540910 100.7075340   9.2649340
  25.8504120 100.5391640   9.2151650  14.4493230  95.3752850  10.5721410
  14.4898570  95.0766720  11.4806640  15.3038730  95.7760460  10.4128930
  16.3899040  93.9544950   8.5395900  15.8595500  93.4635900   7.9119240
  17.0587110  94.3829150   8.0053830  25.2877100  98.4214410   8.3037090
  25.7018120  98.5759490   9.1527510  24.3528100  98.5469630   8.4662870
  25.7599270  95.7610570  10.3076240  26.3420040  95.0062890  10.2196720
  25.9361040  96.2918010   9.5307720  16.8771340  90.9207320   8.6193190
  16.7828210  90.3028070   7.8944060  16.2968730  91.6473610   8.3923100
  19.6432780  89.4780560   5.6520580  19.1950080  89.5004820   4.8066130
  19.0097980  89.0799580   6.2490880  20.0492330  98.3734890   6.2733020
  20.4680440  99.2167620   6.1009260  19.1300960  98.5106930   6.0439800
  22.3856230  96.1051070   7.6570860  22.5052440  95.5092210   8.3965700
  23.2450230  96.1420760   7.2372160  24.7244130  96.6588260   6.2333370
  24.1979350  97.1830880   5.6298510  25.0675470  97.2915650   6.8643100
  17.8999750 104.6787900   7.3890750  17.3620840 105.4033960   7.0699450
  18.1533710 104.2018240   6.5988090  19.1525000  92.6472420   8.9146680
  19.7424690  92.3388270   9.6024500  18.3345240  92.1752170   9.0706580
  23.9718430  92.2638230   9.1479700  23.2833950  91.6019770   9.0829690
  24.6924450  91.8176500   9.5928160  20.7561960 105.9139110   7.6477400
  20.6820660 106.8174250   7.9549770  19.8540800 105.5951010   7.6199470
  12.6479460 104.1084290   3.6892650  12.2110450 104.2885090   4.5216800
  13.2157140 104.8658910   3.5474370  28.2841640 103.6101290   7.9769960
  27.6843630 103.6693850   7.2333880  28.4135540 102.6706270   8.1066810
  26.9693280 100.3353270   6.0746120  26.1553120 100.7650430   6.3371910
  27.3767480 100.9471680   5.4615170  13.5179820  97.0057090   4.5884870
  13.8852860  96.9184490   5.4680890  12.9490640  96.2423640   4.4891730
  28.3183680  95.4741470   7.6015340  28.0869770  95.2454220   6.7013290
  28.5788230  96.3941020   7.5560230  13.0695820  93.9166180   8.4943290
  12.1751870  93.8832940   8.8337000  13.6093370  94.1152970   9.2594540
  26.7571750  90.6997900  10.3795040  27.6341930  90.7081300  10.7629040
  26.7692590  89.9628740   9.7687390  28.3824740  94.6367310   4.7902610
  27.4327450  94.6030850   4.9047600  28.5637750  95.5467420   4.5552380
  13.5735530  88.1914510   2.8426510  14.2211720  87.6411890   2.4021670
  13.9937370  88.4457660   3.6642320  27.4687870  88.3855870   6.1996150
  28.1060090  88.9990010   6.5655340  27.6162760  88.4216530   5.2545380
  13.3267530  88.3470180   5.5851830  12.9782350  88.8034000   6.3510010
  12.9955230  87.4527310   5.6674260  14.9331900 101.5189780   9.7505020
  14.8901530 101.1482690  10.6319480  15.0642910 102.4567350   9.8906840
  18.6337930 103.0749370   5.3514740  18.3929290 103.3423930   4.4645260
  19.5740570 103.2455100   5.4065600  20.8392350  89.5382060   9.1071250
  20.7781240  90.1303890   9.8566660  21.7792730  89.4308020   8.9621510
  23.4766910  89.1952120   8.7463540  24.0907320  89.5131410   8.0844620
  24.0216470  88.7100710   9.3659400  29.8942090 105.0943750   6.1525380
  29.4000370 105.4912620   5.4352510  29.2855380 104.4692960   6.5462660
  13.9988170  87.8746380   8.8602600  14.5471160  87.6934430   8.0968710
  14.0643480  87.0840490   9.3958910  14.7719930 104.4652030   6.8702800
  14.1780250 104.3336730   7.6092840  14.7643770 103.6290170   6.4044900
  24.2174950  87.7584260   5.0732830  23.3434790  88.0919370   4.8705760
  24.1085700  87.2857440   5.8984700  25.1246930  89.9655130   6.4574550
  24.7960290  89.1506890   6.0776280  26.0729230  89.9224940   6.3340240
  27.5781540 105.7367170   3.4312120  27.1184510 106.4882980   3.0570140
  26.9494000 105.0173640   3.3726920  14.4032160 101.8310410   5.8210840
  13.6766220 101.2115700   5.7536790  14.4641310 102.2251020   4.9508920
  18.0077260 104.0455410   2.6060250  18.5242280 103.4342770   2.0808510
  18.6574640 104.5484190   3.0971260  20.7472760 104.9363900   3.4329230
  21.0350570 104.6818200   2.5562240  21.2595980 104.3841260   4.0234800
  21.9649770  88.6754100   4.0125740  21.1821560  89.1499600   4.2922500
  21.6712700  87.7708930   3.9038920  20.8145120 105.8580000  10.7997430
  21.7412430 105.6224270  10.8433390  20.7995550 106.6852000  10.3183460
  18.0008730  88.5224750  10.5639310  17.7193000  89.0258350   9.8000130
  18.3828430  87.7246500  10.1981440  24.6024190  87.9378330  11.1419780
  24.4889640  88.2572940  12.0371300  25.4193930  88.3390840  10.8457060
  27.3822680 105.0849860  10.6238470  28.1748000 104.5899090  10.4164430
  27.6755830 105.7640000  11.2314080  23.5082340  77.1827310 150.4745930
  23.4276390  76.2681920 150.2037640  23.0946760  77.6794380 149.7685640
  25.6607810  83.3666520 151.1354330  25.1989340  82.5953760 151.4641500
  26.4733360  83.3932590 151.6406780  14.0658160  74.2328030 147.0173350
  13.1774860  74.5744000 146.9153230  14.3499350  74.0328350 146.1254180
  21.8871120  85.6524530 150.7558320  21.2682560  86.1082030 150.1852760
  22.7422900  85.8075990 150.3548020  16.2419550  72.8159530 148.0511730
  16.3486300  73.7163260 148.3580490  15.3311910  72.7677500 147.7606380
  25.8938660  71.9384340 149.5222630  26.7148280  71.4480910 149.5648110
  25.9272740  72.5282000 150.2754470  22.7534470  80.5363770 148.1490230
  22.1351740  81.0013220 147.5852950  23.2657720  81.2291250 148.5659740
  12.1217670  81.2220300 145.5229860  11.7445650  81.7107400 144.7914760
  12.3790740  81.8945580 146.1536390  19.7306600  69.6236690 150.9815370
  20.0381580  69.0683580 150.2650870  18.8007300  69.7581150 150.7988360
  26.5767080  82.0620200 148.3613000  26.4663410  81.1194530 148.4862420
  26.5735330  82.4235840 149.2475760  22.1187360  77.6885520 147.7175490
  21.1916640  77.6222900 147.9463960  22.2712180  78.6265650 147.6030730
  22.1056440  73.9602520 144.7142650  21.1660110  74.1216480 144.7995110
  22.4239700  74.6788200 144.1678640  26.1484650  79.2505820 148.2210740
  25.5297070  78.9125370 147.5737040  26.1309100  78.6065580 148.9289930
  17.7244000  78.2150260 150.4995220  17.3201000  77.5027510 150.0041120
  17.8107120  77.8703500 151.3883260  24.3249350  78.4892630 145.2283490
  24.7642630  77.6515060 145.0821310  25.0377770  79.1222030 145.3147630
  22.4344730  83.4288700 149.1964730  22.8740640  84.1713030 148.7820120
  22.3731620  83.6715270 150.1203690  27.9066490  69.7435440 143.5424530
  27.5939150  69.8362270 144.4423600  28.6678960  70.3216470 143.4921960
  14.4248630  77.1095240 148.0001870  14.3046230  77.8357330 147.3883140
  14.1149520  76.3398150 147.5229780  13.3081630  81.9810570 150.2176690
  12.9009710  82.1225160 149.3630290  14.1994640  81.6970730 150.0147900
  25.1014910  86.4157820 146.5527740  24.9416050  86.1260760 147.4509570
  24.9361620  85.6397950 146.0172970  17.5803290  86.1956350 148.3299360
  17.4045770  85.2791890 148.1167160  16.7259030  86.5543640 148.5697160
  24.8041040  83.9245380 145.1125740  24.1106200  83.9222670 144.4528020
  25.5463900  83.5004700 144.6819910  24.3690970  85.5508090 149.1874230
  24.8247920  84.7697470 149.5012850  24.7083490  86.2614910 149.7315410
  16.8912290  70.4530310 151.3825540  16.4480440  71.2339850 151.0510060
  17.4497280  70.7760200 152.0896480  20.0071110  70.0741010 146.2631370
  19.3825290  70.0700880 146.9884680  19.9201230  69.2071970 145.8667340
  16.6826510  75.5763880 149.1106790  16.4567430  75.3601050 150.0153410
  15.9019040  76.0092340 148.7652760  23.9124270  75.5827250 147.7097440
  23.3133160  76.3063050 147.5261060  24.4603880  75.5204030 146.9273890
  22.5189140  74.2190790 149.7400720  22.9118710  74.5362990 148.9269410
  22.8805990  73.3402670 149.8545240  11.7423540  74.7511710 143.1733640
  11.6598210  75.6942470 143.3148630  11.3906600  74.6086620 142.2945990
  19.5421670  73.4850740 152.2403990  19.5457730  73.0440690 151.3908530
  20.4372790  73.8068070 152.3475810  15.3924050  73.3677230 151.1998200
  15.0524100  73.8452460 151.9565250  14.6301370  72.9142350 150.8399300
  19.6041820  74.4862820 145.2310750  19.7254640  74.4449300 146.1796570
  19.2190330  75.3486970 145.0757480  18.6163320  76.7963960 144.6294050
  18.0480220  76.3482210 144.0029960  19.3252320  77.1556740 144.0959200
  12.7070130  72.2896210 150.1162870  12.4217050  71.9251880 150.9541490
  12.6448990  71.5576670 149.5026010  16.1610800  80.7922150 146.9020460
  15.3873060  80.2519770 146.7419180  16.8905430  80.2728760 146.5638220
  22.3808720  71.1825470 146.8376240  21.5673330  70.6838640 146.7621550
  22.1870670  72.0223720 146.4212590  25.0957110  75.5545120 145.1338400
  25.9836730  75.8662350 144.9589740  25.0662200  74.6817370 144.7418980
  16.2048200  80.4602530 150.5399270  16.7226870  79.6570790 150.4856160
  15.7532220  80.3981670 151.3816100  21.0917700  81.7268810 145.8126570
  21.4333400  82.4711040 145.3169890  20.2630410  82.0399930 146.1751400
  27.3671380  76.8656960 144.6018260  27.2835100  77.2971180 143.7514700
  28.0865570  77.3255310 145.0345080  28.3958630  83.7199220 147.3300390
  27.7534790  83.0654840 147.6044110  28.0089290  84.1254310 146.5541060
  23.9745110  81.0484650 151.1772080  24.3268930  80.4512780 150.5173450
  23.0907440  80.7228880 151.3480330  20.0608390  81.8082340 148.5842490
  20.7479520  82.3551550 148.9650080  19.2740810  82.3523070 148.6192100
  12.2000790  77.4255160 144.0759570  13.0695640  77.7079960 144.3595490
  11.7091110  78.2391030 143.9608380  19.3635600  78.8128370 148.1967850
  19.8198380  79.6233620 148.4228040  19.0123810  78.4951510 149.0286340
  15.2647380  69.1566020 148.6690370  15.1362010  69.1483920 149.6175290
  14.4409400  69.4949110 148.3181380  26.7856010  82.6115680 143.8676740
  26.5593590  81.8946120 144.4601380  26.3952210  82.3628120 143.0298490
  12.5672040  86.6382540 144.6421200  12.9269680  87.2371880 143.9878470
  12.4264380  87.1842430 145.4156230  26.3672260  80.5287620 145.5290900
  26.0793960  80.9900310 146.3168780  27.1624430  80.0685390 145.7975120
  18.5840660  84.0213740 145.4594870  18.5750760  84.7543430 144.8439380
  17.6639020  83.7745320 145.5521830  14.1847300  79.2428630 146.2041630
  13.5775250  79.9827530 146.2136930  14.6596650  79.3327990 145.3779830
  27.1242120  72.3636390 146.6886080  26.4955280  72.4682060 145.9744310
  26.6294040  72.5833170 147.4779960  21.5700260  84.0841980 144.1220060
  21.6712240  83.8805970 143.1922040  20.6702000  83.8300260 144.3267840
  19.0926150  74.6422340 148.1043960  18.3842300  75.1108680 148.5457570
  19.3770630  73.9844350 148.7389150  23.1241580  71.3673000 149.5439750
  23.0009360  71.3859130 148.5949260  24.0726140  71.4151940 149.6638150
  20.2118370  86.6028300 148.8167730  20.4659870  86.5649690 147.8947100
  19.2630850  86.4761630 148.8095980  17.2961170  72.9507420 145.4794670
  18.1451700  73.3877570 145.4134860  16.9292440  73.2627680 146.3066730
  26.2170950  77.5220180 150.3926240  25.2761090  77.5370410 150.5673930
  26.5315020  76.7356140 150.8386540  16.1952590  79.2039780 143.9530200
  16.9615860  79.0921140 144.5155630  16.2727280  78.5077750 143.3006970
  14.8899350  76.6364850 144.6363090  14.9702940  75.6892360 144.7480490
  15.7819100  76.9671730 144.7423750  15.6914060  86.7860240 151.7397630
  16.4276540  86.2375700 152.0106200  16.0754980  87.6516250 151.6003620
  12.5759540  82.8533810 147.6139140  11.6499320  83.0954950 147.6044550
  13.0415970  83.6808070 147.4923890  18.8016370  85.9590550 143.5623200
  19.5944980  86.2479380 143.1104990  18.2820720  85.5282720 142.8835680
  27.8546540  85.1860680 144.9859940  27.5688050  84.7725820 144.1714120
  27.6566090  86.1148390 144.8660460  19.3193770  81.1793960 143.4265550
  19.2144410  80.5646310 144.1526930  19.1517990  80.6559850 142.6428560
  22.5596500  80.2413990 144.0307540  22.0106600  80.6883290 144.6750280
  23.1815760  79.7363240 144.5545210  18.2271620  79.2004910 145.9272840
  18.6488040  79.0344780 146.7704230  18.3522460  78.3905140 145.4327980
  20.7399260  78.2242520 143.1749940  21.2604920  77.5091540 142.8091090
  21.3867660  78.8628390 143.4750450  17.1230520  75.2738140 142.8731000
  16.9219580  74.4105500 143.2344340  16.9522570  75.1871500 141.9352600
  24.6018830  70.0846370 145.4017880  24.8821120  69.2414270 145.7577300
  23.8284560  70.3169480 145.9156630  15.9213320  72.3738760 142.8608880
  16.2239220  72.3806190 141.9528030  16.6607910  72.0236620 143.3576540
  19.1398250  71.3173380 143.8465080  18.7920250  70.6397370 143.2667530
  19.3411020  70.8562890 144.6608470  21.3047290  86.3054130 145.4651680
  22.1998080  86.6439100 145.4870440  21.3364920  85.5833540 144.8375960
  14.9443450  81.6781180 143.6938680  15.3818320  82.2210850 144.3496260
  15.4291180  80.8528130 143.7035020  12.1589250  84.4670210 151.1458940
  12.4892260  83.5991270 150.9137580  12.5880250  84.6728730 151.9763900
  16.7551170  82.7979220 148.8060910  16.4546710  82.6744190 149.7064820
  16.6488660  81.9387810 148.3976640  29.5243090  82.5775620 143.5087590
  28.6936050  82.6452270 143.9794820  29.7014920  83.4679740 143.2054450
  28.9799550  79.3223100 146.0121790  29.7418460  79.8919750 146.1181480
  28.9953920  78.7550300 146.7830100  12.4803890  77.8461030 150.2429450
  11.8252730  77.5772670 149.5989150  13.3181840  77.7365510 149.7931430
  29.9859520  80.1773200 150.8563720  30.3568350  79.3940520 150.4499690
  30.6261450  80.8662300 150.6781020  29.0318720  79.6157470 143.1694310
  29.3067560  80.5236350 143.0413530  28.8429460  79.5520000 144.1056300
  25.4294330  72.6402320 144.4647940  25.8479210  72.4533300 143.6244600
  25.1230390  71.7881370 144.7750870  28.9284060  77.5526460 148.1623740
  28.5527660  76.7854390 147.7305030  28.1987180  77.9349160 148.6498670
  11.6941970  75.0559960 146.1854780  10.7906050  75.3190160 146.0106440
  12.1782590  75.3271130 145.4054740  28.2035020  75.7783950 151.4630980
  28.7272500  75.2846600 150.8321150  28.7894440  75.9134310 152.2078550
  14.2369180  74.1125500 144.0949160  14.9460880  73.6908720 143.6096440
  13.5209120  74.1800730 143.4632510  13.8843340  70.1664830 143.1351810
  14.6071470  70.7073770 143.4533030  14.1567860  69.8928250 142.2593350
  27.6934990  75.0357300 147.4023390  28.1894110  74.8028170 148.1872270
  27.4951060  74.1969140 146.9861030  29.1222150  73.6718250 149.9361070
  29.0121430  73.5174290 150.8743340  29.8829740  73.1439190 149.6936480
  30.0112420  71.5026170 143.1767210  30.9361730  71.3707350 142.9685500
  29.9888210  71.5818990 144.1303660  30.0850910  72.2736830 145.8023920
  29.2902410  72.2081950 146.3316830  30.2894190  73.2087470 145.7909270
  27.0269330  86.3128380 149.7962310  27.6228400  85.9912950 149.1196730
  27.2847480  85.8400200 150.5875580  26.5170840  70.6033710 152.2522750
  26.9578930  70.5478810 151.4044350  26.2478430  71.5191720 152.3232930
  28.3809410  70.2348950 150.2631570  28.3197810  69.2910170 150.1162590
  29.1601440  70.3429040 150.8085030  12.6862160  86.3741310 149.2255520
  12.5184200  85.7411990 149.9237410  11.8196670  86.5800710 148.8749710
  13.3090180  70.2058090 146.7287380  14.0669540  70.3186970 146.1551410
  12.8467350  71.0427290 146.6830810  19.8503990  72.3197360 149.7189690
  19.0378500  71.9454250 149.3785570  20.3545630  71.5642440 150.0210880
  24.3528970  68.9839810 150.9572760  24.9558340  69.5560020 151.4321280
  23.6121960  69.5479250 150.7346660  27.4963570  69.3861370 146.2313040
  27.6914200  70.2844820 146.4980470  26.7093440  69.1548450 146.7245990
  14.2924860  85.0674540 146.6705660  13.7672480  85.4482570 145.9667620
  14.2169440  85.6925310 147.3915370  15.6815330  70.7322140 145.2689350
  16.2108090  69.9451940 145.1397300  16.3143650  71.4113330 145.5024880
  17.8753170  70.4697280 148.3234740  17.2455910  69.7684590 148.4904870
  17.3358310  71.2301410 148.1067900  29.0490180  86.6262080 147.9919600
  29.2242370  85.9399820 147.3480520  28.3511750  87.1509130 147.5996270
  16.8917830  87.0156920 145.5454910  17.6236650  86.7316200 144.9978800
  17.1511500  86.7770200 146.4354290  16.0532620  83.1321650 145.5501240
  15.4241500  83.6006750 146.0987070  16.1680450  82.2870870 145.9847430
  23.5082340  77.1827310 131.7002440  23.4276390  76.2681920 131.4294150
  23.0946760  77.6794380 130.9942150  21.6400380  78.9606330 133.5811710
  20.8642480  78.4806770 133.8710280  22.2913310  78.2811980 133.4067870
  15.6566210  79.2726140 134.4587470  14.8251090  79.0174850 134.8583980
  16.2647190  79.3436910 135.1945390  25.6607810  83.3666520 132.3610840
  25.1989340  82.5953760 132.6898010  26.4733360  83.3932590 132.8663290
  15.6367470  83.3066230 134.6545490  15.9395510  82.4163970 134.4755710
  16.3811060  83.8636450 134.4267740  14.0658160  74.2328030 128.2429860
  13.1774860  74.5744000 128.1409740  14.3499350  74.0328350 127.3510690
  12.0291170  76.8333680 134.1269560  12.6007280  76.0655880 134.1273200
  12.0292710  77.1322440 133.2176170  21.8871120  85.6524530 131.9814830
  21.2682560  86.1082030 131.4109270  22.7422900  85.8075990 131.5804530
  21.0809370  81.6363520 133.5881870  21.0117650  80.6953460 133.4271000
  21.8429230  81.7264930 134.1604440  13.2716040  72.2418040 135.9138490
  13.0918880  71.3443790 136.1941250  12.8696120  72.7889910 136.5885440
  22.1114540  74.4433900 133.8150800  22.4879360  73.5705780 133.7024470
  22.0134050  74.7792600 132.9241240  16.2419550  72.8159530 129.2768240
  16.3486300  73.7163260 129.5837000  15.3311910  72.7677500 128.9862890
  25.8938660  71.9384340 130.7479140  26.7148280  71.4480910 130.7904620
  25.9272740  72.5282000 131.5010980  13.8902710  74.7378540 134.5220830
  14.5712820  75.0016910 135.1408230  13.5750760  73.8979410 134.8558840
  18.0827280  75.7845900 133.6093420  18.5905500  76.2826870 134.2498440
  18.6140520  75.0081100 133.4332780  30.1838210  73.9551090 137.3122770
  29.4790380  74.3432800 136.7937880  30.4496130  74.6501380 137.9143700
  16.3663380  70.4244460 137.8756840  16.3681820  70.9416850 137.0702740
  15.5367690  69.9474640 137.8526770  22.7534470  80.5363770 129.3746740
  22.1351740  81.0013220 128.8109460  23.2657720  81.2291250 129.7916250
  17.6166230  80.0639640 136.0530340  17.2835610  80.6908560 136.6951410
  17.7932910  80.5901520 135.2732010  26.1300140  73.8784720 133.5206680
  25.4255710  74.1669610 134.1009790  26.4912300  74.6884830 133.1606240
  16.0478710  72.1354420 135.8827290  16.3895520  72.9796470 135.5881160
  15.1094520  72.2838160 135.9992630  16.8285330  82.0320440 137.8679520
  17.4459330  82.7071520 137.5863970  15.9678450  82.4408420 137.7767020
  12.1217670  81.2220300 126.7486370  11.7445650  81.7107400 126.0171270
  12.3790740  81.8945580 127.3792900  27.7462920  83.4959850 135.7834160
  27.0626440  84.1658960 135.7750830  28.2857210  83.6940500 135.0179020
  29.1987060  73.3239510 133.9115890  28.2511970  73.3578490 134.0431320
  29.5237050  74.1378460 134.2965250  19.7306600  69.6236690 132.2071880
  20.0381580  69.0683580 131.4907380  18.8007300  69.7581150 132.0244870
  25.2821660  85.3403980 134.4979340  25.2948820  84.9366270 133.6301600
  24.7296880  86.1151270 134.3940770  26.5767080  82.0620200 129.5869510
  26.4663410  81.1194530 129.7118930  26.5735330  82.4235840 130.4732270
  24.6807100  80.2433820 135.8261950  25.0975890  80.0293930 134.9915410
  25.4046920  80.5006610 136.3970570  22.1187360  77.6885520 128.9432000
  21.1916640  77.6222900 129.1720470  22.2712180  78.6265650 128.8287240
  22.1056440  73.9602520 125.9399160  21.1660110  74.1216480 126.0251620
  22.4239700  74.6788200 125.3935150  28.6269200  78.6421040 135.9178190
  27.7987830  78.7114130 135.4428320  29.2219680  79.2275350 135.4494020
  26.1484650  79.2505820 129.4467250  25.5297070  78.9125370 128.7993550
  26.1309100  78.6065580 130.1546440  25.5911210  75.4290360 136.8633060
  25.1782390  76.2544070 137.1173050  24.8587160  74.8435400 136.6709420
  17.7244000  78.2150260 131.7251730  17.3201000  77.5027510 131.2297630
  17.8107120  77.8703500 132.6139770  18.1925700  81.9017820 133.8890940
  17.8953990  81.2963290 133.2098720  19.1425520  81.9395130 133.7780300
  16.4372620  74.9893470 135.5050770  16.9887210  75.0988810 134.7304020
  16.9516130  75.3631070 136.2206000  26.2811310  85.4749690 137.5514040
  25.8041870  86.2821880 137.3586650  25.5973100  84.8228020 137.7040250
  17.2844130  81.6399510 140.5398740  16.3872660  81.8639480 140.7872140
  17.3097000  81.7634450 139.5910140  24.3249350  78.4892630 126.4540000
  24.7642630  77.6515060 126.3077820  25.0377770  79.1222030 126.5404140
  16.1115350  78.5112830 139.1156110  15.9723120  79.3835630 139.4843510
  15.2296710  78.1685640 138.9704050  22.4344730  83.4288700 130.4221240
  22.8740640  84.1713030 130.0076630  22.3731620  83.6715270 131.3460200
  17.9095700  84.4534530 141.3241260  17.8811130  84.8577480 140.4569690
  17.7460670  83.5244890 141.1612860  27.9066490  69.7435440 124.7681040
  27.5939150  69.8362270 125.6680110  28.6678960  70.3216470 124.7178470
  14.4248630  77.1095240 129.2258380  14.3046230  77.8357330 128.6139650
  14.1149520  76.3398150 128.7486290  29.8610520  85.2361630 142.6205430
  30.3370240  85.7144520 143.2994510  30.4817680  85.1679120 141.8950930
  12.0634000  80.2810380 135.0327020  12.1414420  80.4159150 134.0882740
  12.6775680  79.5726270 135.2255140  13.3081630  81.9810570 131.4433200
  12.9009710  82.1225160 130.5886800  14.1994640  81.6970730 131.2404410
  29.2643770  82.4274480 139.7805440  29.3906830  82.1886360 138.8622620
  29.3065150  81.5959020 140.2527520  23.1260510  86.1302480 138.3500250
  23.6405180  86.0410490 139.1522680  22.2829590  86.4762180 138.6428160
  25.1014910  86.4157820 127.7784250  24.9416050  86.1260760 128.6766080
  24.9361620  85.6397950 127.2429480  17.5803290  86.1956350 129.5555870
  17.4045770  85.2791890 129.3423670  16.7259030  86.5543640 129.7953670
  24.8041040  83.9245380 126.3382250  24.1106200  83.9222670 125.6784530
  25.5463900  83.5004700 125.9076420  24.3690970  85.5508090 130.4130740
  24.8247920  84.7697470 130.7269360  24.7083490  86.2614910 130.9571920
  29.1167780  74.4806940 140.7455180  28.5012050  74.9886610 140.2170640
  28.7964200  73.5805270 140.6881120  12.1193520  81.3224550 137.5721480
  12.2824560  80.8529910 136.7540850  12.5845970  80.8148110 138.2370320
  16.8912290  70.4530310 132.6082050  16.4480440  71.2339850 132.2766570
  17.4497280  70.7760200 133.3152990  21.1782100  73.3198830 138.2117370
  20.7161470  73.5281850 139.0237310  20.7760210  72.5058180 137.9088040
  26.1786610  74.5407780 139.3414030  25.3280200  74.2413530 139.6623100
  26.0188400  74.7849790 138.4297850  23.2736320  76.0409530 141.4412820
  23.5989730  75.2073280 141.1015050  24.0616650  76.5638050 141.5891150
  20.0071110  70.0741010 127.4887880  19.3825290  70.0700880 128.2141190
  19.9201230  69.2071970 127.0923850  18.9288190  70.9977640 134.4671650
  19.2260520  71.9040470 134.3863670  19.4773750  70.5096420 133.8531220
  16.6826510  75.5763880 130.3363300  16.4567430  75.3601050 131.2409920
  15.9019040  76.0092340 129.9909270  23.9124270  75.5827250 128.9353950
  23.3133160  76.3063050 128.7517570  24.4603880  75.5204030 128.1530400
  19.1225720  76.4749460 141.0023570  19.0269320  75.5344190 140.8523970
  19.9657700  76.6964530 140.6071640  22.5189140  74.2190790 130.9657230
  22.9118710  74.5362990 130.1525920  22.8805990  73.3402670 131.0801750
  14.2536260  72.8863130 139.1557350  13.8599650  73.7338340 139.3630130
  13.5654660  72.2489500 139.3465990  20.8281310  72.9698100 142.2254090
  20.1379630  72.7770300 142.8600180  21.5713610  73.2532740 142.7578390
  11.5553310  70.8091590 133.1887430  11.2666360  71.3794450 133.9012410
  12.2999070  70.3296040 133.5518660  11.7423540  74.7511710 124.3990150
  11.6598210  75.6942470 124.5405140  11.3906600  74.6086620 123.5202500
  23.1044280  76.8096540 135.0608010  22.3725400  77.3183350 135.4098110
  22.7068620  75.9926520 134.7596790  19.5421670  73.4850740 133.4660500
  19.5457730  73.0440690 132.6165040  20.4372790  73.8068070 133.5732320
  15.3924050  73.3677230 132.4254710  15.0524100  73.8452460 133.1821760
  14.6301370  72.9142350 132.0655810  19.6041820  74.4862820 126.4567260
  19.7254640  74.4449300 127.4053080  19.2190330  75.3486970 126.3013990
  23.5670190  72.2630220 134.4730950  23.5842930  72.7138870 135.3172800
  23.3185770  71.3635860 134.6864390  18.6163320  76.7963960 125.8550560
  18.0480220  76.3482210 125.2286470  19.3252320  77.1556740 125.3215710
  26.9940940  69.6762400 140.3117330  27.3186710  68.9452060 140.8375310
  27.0297450  69.3576040 139.4098320  13.6932500  80.6975980 139.7317290
  13.3087290  80.0569650 140.3300250  14.0044690  81.4012100 140.3012020
  19.8429640  77.5452520 135.2125910  20.2099770  77.0711090 135.9587250
  19.6534700  78.4194090 135.5534250  12.7070130  72.2896210 131.3419380
  12.4217050  71.9251880 132.1798000  12.6448990  71.5576670 130.7282520
  17.6329010  76.5861160 137.5310120  17.3286080  77.4653140 137.7560480
  18.5875470  76.6460950 137.5667560  16.1610800  80.7922150 128.1276970
  15.3873060  80.2519770 127.9675690  16.8905430  80.2728760 127.7894730
  26.9198780  79.7887510 133.9203360  27.6397900  80.2842800 133.5299470
  26.7180600  79.1105400 133.2757230  22.3808720  71.1825470 128.0632750
  21.5673330  70.6838640 127.9878060  22.1870670  72.0223720 127.6469100
  22.3017580  79.8596570 139.8072360  22.2354890  78.9392240 139.5529950
  21.6722720  79.9572010 140.5217000  25.0957110  75.5545120 126.3594910
  25.9836730  75.8662350 126.1846250  25.0662200  74.6817370 125.9675490
  16.2048200  80.4602530 131.7655780  16.7226870  79.6570790 131.7112670
  15.7532220  80.3981670 132.6072610  21.0917700  81.7268810 127.0383080
  21.4333400  82.4711040 126.5426400  20.2630410  82.0399930 127.4007910
  13.6892740  77.4263900 138.6781480  13.3307680  78.0917750 139.2654820
  13.3947300  76.5947450 139.0494100  16.8905860  77.8848140 141.5621030
  16.5906000  78.0305320 140.6648850  17.6617100  77.3253430 141.4694420
  22.2334310  82.6817140 139.5576160  22.2478850  81.7498100 139.3395070
  21.5259410  82.7676900 140.1965930  27.3671380  76.8656960 125.8274770
  27.2835100  77.2971180 124.9771210  28.0865570  77.3255310 126.2601590
  28.4445520  79.3224480 138.9044740  27.7193710  79.9153260 138.7074130
  28.9720980  79.3148020 138.1058110  28.3958630  83.7199220 128.5556900
  27.7534790  83.0654840 128.8300620  28.0089290  84.1254310 127.7797570
  23.9745110  81.0484650 132.4028590  24.3268930  80.4512780 131.7429960
  23.0907440  80.7228880 132.5736840  20.0608390  81.8082340 129.8099000
  20.7479520  82.3551550 130.1906590  19.2740810  82.3523070 129.8448610
  12.2000790  77.4255160 125.3016080  13.0695640  77.7079960 125.5852000
  11.7091110  78.2391030 125.1864890  19.3635600  78.8128370 129.4224360
  19.8198380  79.6233620 129.6484550  19.0123810  78.4951510 130.2542850
  21.6668210  84.3234710 136.6516660  22.3110430  84.5294090 137.3290080
  22.0297650  83.5623110 136.1987510  15.2647380  69.1566020 129.8946880
  15.1362010  69.1483920 130.8431800  14.4409400  69.4949110 129.5437890
  22.9400290  82.3267060 135.3694110  23.5822520  81.6260220 135.4826280
  23.4649640  83.1065500 135.1891000  26.7856010  82.6115680 125.0933250
  26.5593590  81.8946120 125.6857890  26.3952210  82.3628120 124.2555000
  24.7137910  83.1261960 138.5730170  25.0494150  83.7128650 139.2508090
  23.7938250  82.9954670 138.8027960  12.5672040  86.6382540 125.8677710
  12.9269680  87.2371880 125.2134980  12.4264380  87.1842430 126.6412740
  12.2641310  70.9157140 139.3553580  11.5499830  71.1154060 139.9606190
  12.6836350  70.1396710 139.7268380  26.3672260  80.5287620 126.7547410
  26.0793960  80.9900310 127.5425290  27.1624430  80.0685390 127.0231630
  12.5513900  84.9037400 140.3420110  12.6605020  83.9632140 140.2015500
  11.8994460  85.1692150 139.6933840  20.5426490  83.1753290 141.7418230
  20.2223360  82.4562530 142.2863920  19.8684850  83.8508360 141.8154290
  18.5840660  84.0213740 126.6851380  18.5750760  84.7543430 126.0695890
  17.6639020  83.7745320 126.7778340  14.1847300  79.2428630 127.4298140
  13.5775250  79.9827530 127.4393440  14.6596650  79.3327990 126.6036340
  23.7580090  73.4079450 137.1055030  24.1260910  72.5874660 137.4334600
  22.8978290  73.4681340 137.5210680  27.1242120  72.3636390 127.9142590
  26.4955280  72.4682060 127.2000820  26.6294040  72.5833170 128.7036470
  21.5700260  84.0841980 125.3476570  21.6712240  83.8805970 124.4178550
  20.6702000  83.8300260 125.5524350  19.0926150  74.6422340 129.3300470
  18.3842300  75.1108680 129.7714080  19.3770630  73.9844350 129.9645660
  20.7182080  76.0619040 137.3293000  21.2167330  76.5364860 137.9944850
  20.8605030  75.1382560 137.5363030  23.1241580  71.3673000 130.7696260
  23.0009360  71.3859130 129.8205770  24.0726140  71.4151940 130.8894660
  20.2118370  86.6028300 130.0424240  20.4659870  86.5649690 129.1203610
  19.2630850  86.4761630 130.0352490  17.2961170  72.9507420 126.7051180
  18.1451700  73.3877570 126.6391370  16.9292440  73.2627680 127.5323240
  27.9248940  72.2787000 138.1721390  27.4222540  73.0192400 138.5115200
  28.7405600  72.6671000 137.8558180  26.2170950  77.5220180 131.6182750
  25.2761090  77.5370410 131.7930440  26.5315020  76.7356140 132.0643050
  16.1952590  79.2039780 125.1786710  16.9615860  79.0921140 125.7412140
  16.2727280  78.5077750 124.5263480  14.8899350  76.6364850 125.8619600
  14.9702940  75.6892360 125.9737000  15.7819100  76.9671730 125.9680260
  28.2196530  84.6929030 133.2937010  28.3443950  85.5160200 133.7660820
  29.0862090  84.4819760 132.9461160  15.6914060  86.7860240 132.9654140
  16.4276540  86.2375700 133.2362710  16.0754980  87.6516250 132.8260130
  12.5759540  82.8533810 128.8395650  11.6499320  83.0954950 128.8301060
  13.0415970  83.6808070 128.7180400  14.6972340  85.9706310 142.1539720
  15.4985070  86.2918360 142.5675120  14.1824160  85.6101890 142.8759630
  18.8016370  85.9590550 124.7879710  19.5944980  86.2479380 124.3361500
  18.2820720  85.5282720 124.1092190  23.5336970  82.0786180 142.1015130
  22.9275130  82.1017780 141.3610880  23.2291080  81.3469220 142.6382380
  24.9637340  85.8066470 140.7124540  25.9159090  85.7224490 140.6624780
  24.8165560  86.4708180 141.3858330  27.8546540  85.1860680 126.2116450
  27.5688050  84.7725820 125.3970630  27.6566090  86.1148390 126.0916970
  12.4170150  78.4579770 141.0975770  12.9209170  77.8787050 141.6692000
  11.6777570  78.7420000 141.6352140  19.3193770  81.1793960 124.6522060
  19.2144410  80.5646310 125.3783440  19.1517990  80.6559850 123.8685070
  19.4708090  79.8650760 140.6311290  18.7053760  80.4335760 140.5465960
  19.6524050  79.5726970 139.7379520  22.5596500  80.2413990 125.2564050
  22.0106600  80.6883290 125.9006790  23.1815760  79.7363240 125.7801720
  26.6131440  81.5956090 141.1886310  27.3540910  81.9331850 140.6853770
  25.8504120  81.7648150 140.6356080  14.4493230  76.6009360 141.9925840
  14.4898570  76.3023230 142.9011070  15.3038730  77.0016970 141.8333360
  18.2271620  79.2004910 127.1529350  18.6488040  79.0344780 127.9960740
  18.3522460  78.3905140 126.6584490  16.3899040  75.1801460 139.9600330
  15.8595500  74.6892410 139.3323670  17.0587110  75.6085660 139.4258260
  20.7399260  78.2242520 124.4006450  21.2604920  77.5091540 124.0347600
  21.3867660  78.8628390 124.7006960  25.2877100  79.6470920 139.7241520
  25.7018120  79.8016000 140.5731940  24.3528100  79.7726140 139.8867300
  25.7599270  76.9867080 141.7280670  26.3420040  76.2319400 141.6401150
  25.9361040  77.5174520 140.9512150  16.8771340  72.1463830 140.0397620
  16.7828210  71.5284580 139.3148490  16.2968730  72.8730120 139.8127530
  19.6432780  70.7037070 137.0725010  19.1950080  70.7261330 136.2270560
  19.0097980  70.3056090 137.6695310  20.0492330  79.5991400 137.6937450
  20.4680440  80.4424130 137.5213690  19.1300960  79.7363440 137.4644230
  22.3856230  77.3307580 139.0775290  22.5052440  76.7348720 139.8170130
  23.2450230  77.3677270 138.6576590  24.7244130  77.8844770 137.6537800
  24.1979350  78.4087390 137.0502940  25.0675470  78.5172160 138.2847530
  17.1230520  75.2738140 124.0987510  16.9219580  74.4105500 124.4600850
  16.9522570  75.1871500 123.1609110  17.8999750  85.9044410 138.8095180
  17.3620840  86.6290470 138.4903880  18.1533710  85.4274750 138.0192520
  19.1525000  73.8728930 140.3351110  19.7424690  73.5644780 141.0228930
  18.3345240  73.4008680 140.4911010  23.9718430  73.4894740 140.5684130
  23.2833950  72.8276280 140.5034120  24.6924450  73.0433010 141.0132590
  24.6018830  70.0846370 126.6274390  24.8821120  69.2414270 126.9833810
  23.8284560  70.3169480 127.1413140  15.9213320  72.3738760 124.0865390
  16.2239220  72.3806190 123.1784540  16.6607910  72.0236620 124.5833050
  20.7561960  87.1395620 139.0681830  20.6820660  88.0430760 139.3754200
  19.8540800  86.8207520 139.0403900  19.1398250  71.3173380 125.0721590
  18.7920250  70.6397370 124.4924040  19.3411020  70.8562890 125.8864980
  21.3047290  86.3054130 126.6908190  22.1998080  86.6439100 126.7126950
  21.3364920  85.5833540 126.0632470  14.9443450  81.6781180 124.9195190
  15.3818320  82.2210850 125.5752770  15.4291180  80.8528130 124.9291530
  12.1589250  84.4670210 132.3715450  12.4892260  83.5991270 132.1394090
  12.5880250  84.6728730 133.2020410  16.7551170  82.7979220 130.0317420
  16.4546710  82.6744190 130.9321330  16.6488660  81.9387810 129.6233150
  12.6479460  85.3340800 135.1097080  12.2110450  85.5141600 135.9421230
  13.2157140  86.0915420 134.9678800  28.2841640  84.8357800 139.3974390
  27.6843630  84.8950360 138.6538310  28.4135540  83.8962780 139.5271240
  29.5243090  82.5775620 124.7344100  28.6936050  82.6452270 125.2051330
  29.7014920  83.4679740 124.4310960  28.9799550  79.3223100 127.2378300
  29.7418460  79.8919750 127.3437990  28.9953920  78.7550300 128.0086610
  12.4803890  77.8461030 131.4685960  11.8252730  77.5772670 130.8245660
  13.3181840  77.7365510 131.0187940  29.9859520  80.1773200 132.0820230
  30.3568350  79.3940520 131.6756200  30.6261450  80.8662300 131.9037530
  26.9693280  81.5609780 137.4950550  26.1553120  81.9906940 137.7576340
  27.3767480  82.1728190 136.8819600  29.0318720  79.6157470 124.3950820
  29.3067560  80.5236350 124.2670040  28.8429460  79.5520000 125.3312810
  25.4294330  72.6402320 125.6904450  25.8479210  72.4533300 124.8501110
  25.1230390  71.7881370 126.0007380  28.9284060  77.5526460 129.3880250
  28.5527660  76.7854390 128.9561540  28.1987180  77.9349160 129.8755180
  13.5179820  78.2313600 136.0089300  13.8852860  78.1441000 136.8885320
  12.9490640  77.4680150 135.9096160  28.3183680  76.6997980 139.0219770
  28.0869770  76.4710730 138.1217720  28.5788230  77.6197530 138.9764660
  13.0695820  75.1422690 139.9147720  12.1751870  75.1089450 140.2541430
  13.6093370  75.3409480 140.6798970  26.7571750  71.9254410 141.7999470
  27.6341930  71.9337810 142.1833470  26.7692590  71.1885250 141.1891820
  11.6941970  75.0559960 127.4111290  10.7906050  75.3190160 127.2362950
  12.1782590  75.3271130 126.6311250  28.2035020  75.7783950 132.6887490
  28.7272500  75.2846600 132.0577660  28.7894440  75.9134310 133.4335060
  28.3824740  75.8623820 136.2107040  27.4327450  75.8287360 136.3252030
  28.5637750  76.7723930 135.9756810  14.2369180  74.1125500 125.3205670
  14.9460880  73.6908720 124.8352950  13.5209120  74.1800730 124.6889020
  13.8843340  70.1664830 124.3608320  14.6071470  70.7073770 124.6789540
  14.1567860  69.8928250 123.4849860  27.6934990  75.0357300 128.6279900
  28.1894110  74.8028170 129.4128780  27.4951060  74.1969140 128.2117540
  13.5735530  69.4171020 134.2630940  14.2211720  68.8668400 133.8226100
  13.9937370  69.6714170 135.0846750  29.1222150  73.6718250 131.1617580
  29.0121430  73.5174290 132.0999850  29.8829740  73.1439190 130.9192990
  27.4687870  69.6112380 137.6200580  28.1060090  70.2246520 137.9859770
  27.6162760  69.6473040 136.6749810  30.0112420  71.5026170 124.4023720
  30.9361730  71.3707350 124.1942010  29.9888210  71.5818990 125.3560170
  30.0850910  72.2736830 127.0280430  29.2902410  72.2081950 127.5573340
  30.2894190  73.2087470 127.0165780  27.0269330  86.3128380 131.0218820
  27.6228400  85.9912950 130.3453240  27.2847480  85.8400200 131.8132090
  13.3267530  69.5726690 137.0056260  12.9782350  70.0290510 137.7714440
  12.9955230  68.6783820 137.0878690  14.9331900  82.7446290 141.1709450
  14.8901530  82.3739200 142.0523910  15.0642910  83.6823860 141.3111270
  18.6337930  84.3005880 136.7719170  18.3929290  84.5680440 135.8849690
  19.5740570  84.4711610 136.8270030  20.8392350  70.7638570 140.5275680
  20.7781240  71.3560400 141.2771090  21.7792730  70.6564530 140.3825940
  23.4766910  70.4208630 140.1667970  24.0907320  70.7387920 139.5049050
  24.0216470  69.9357220 140.7863830  29.8942090  86.3200260 137.5729810
  29.4000370  86.7169130 136.8556940  29.2855380  85.6949470 137.9667090
  13.9988170  69.1002890 140.2807030  14.5471160  68.9190940 139.5173140
  14.0643480  68.3097000 140.8163340  14.7719930  85.6908540 138.2907230
  14.1780250  85.5593240 139.0297270  14.7643770  84.8546680 137.8249330
  24.2174950  68.9840770 136.4937260  23.3434790  69.3175880 136.2910190
  24.1085700  68.5113950 137.3189130  25.1246930  71.1911640 137.8778980
  24.7960290  70.3763400 137.4980710  26.0729230  71.1481450 137.7544670
  27.5781540  86.9623680 134.8516550  27.1184510  87.7139490 134.4774570
  26.9494000  86.2430150 134.7931350  14.4032160  83.0566920 137.2415270
  13.6766220  82.4372210 137.1741220  14.4641310  83.4507530 136.3713350
  18.0077260  85.2711920 134.0264680  18.5242280  84.6599280 133.5012940
  18.6574640  85.7740700 134.5175690  20.7472760  86.1620410 134.8533660
  21.0350570  85.9074710 133.9766670  21.2595980  85.6097770 135.4439230
  21.9649770  69.9010610 135.4330170  21.1821560  70.3756110 135.7126930
  21.6712700  68.9965440 135.3243350  26.5170840  70.6033710 133.4779260
  26.9578930  70.5478810 132.6300860  26.2478430  71.5191720 133.5489440
  28.3809410  70.2348950 131.4888080  28.3197810  69.2910170 131.3419100
  29.1601440  70.3429040 132.0341540  12.6862160  86.3741310 130.4512030
  12.5184200  85.7411990 131.1493920  11.8196670  86.5800710 130.1006220
  13.3090180  70.2058090 127.9543890  14.0669540  70.3186970 127.3807920
  12.8467350  71.0427290 127.9087320  19.8503990  72.3197360 130.9446200
  19.0378500  71.9454250 130.6042080  20.3545630  71.5642440 131.2467390
  24.3528970  68.9839810 132.1829270  24.9558340  69.5560020 132.6577790
  23.6121960  69.5479250 131.9603170  27.4963570  69.3861370 127.4569550
  27.6914200  70.2844820 127.7236980  26.7093440  69.1548450 127.9502500
  14.2924860  85.0674540 127.8962170  13.7672480  85.4482570 127.1924130
  14.2169440  85.6925310 128.6171880  15.6815330  70.7322140 126.4945860
  16.2108090  69.9451940 126.3653810  16.3143650  71.4113330 126.7281390
  17.8753170  70.4697280 129.5491250  17.2455910  69.7684590 129.7161380
  17.3358310  71.2301410 129.3324410  20.8145120  87.0836510 142.2201860
  21.7412430  86.8480780 142.2637820  20.7995550  87.9108510 141.7387890
  29.0490180  86.6262080 129.2176110  29.2242370  85.9399820 128.5737030
  28.3511750  87.1509130 128.8252780  18.0008730  69.7481260 141.9843740
  17.7193000  70.2514860 141.2204560  18.3828430  68.9503010 141.6185870
  16.8917830  87.0156920 126.7711420  17.6236650  86.7316200 126.2235310
  17.1511500  86.7770200 127.6610800  16.0532620  83.1321650 126.7757750
  15.4241500  83.6006750 127.3243580  16.1680450  82.2870870 127.2103940
  24.6024190  69.1634840 142.5624210  24.4889640  69.4829450 143.4575730
  25.4193930  69.5647350 142.2661490  27.3822680  86.3106370 142.0442900
  28.1748000  85.8155600 141.8368860  27.6755830  86.9896510 142.6518510
  23.5082340  77.1827310 112.9258950  23.4276390  76.2681920 112.6550660
  23.0946760  77.6794380 112.2198660  21.6400380  78.9606330 114.8068220
  20.8642480  78.4806770 115.0966790  22.2913310  78.2811980 114.6324380
  15.6566210  79.2726140 115.6843980  14.8251090  79.0174850 116.0840490
  16.2647190  79.3436910 116.4201900  25.6607810  83.3666520 113.5867350
  25.1989340  82.5953760 113.9154520  26.4733360  83.3932590 114.0919800
  15.6367470  83.3066230 115.8802000  15.9395510  82.4163970 115.7012220
  16.3811060  83.8636450 115.6524250  14.0658160  74.2328030 109.4686370
  13.1774860  74.5744000 109.3666250  14.3499350  74.0328350 108.5767200
  12.0291170  76.8333680 115.3526070  12.6007280  76.0655880 115.3529710
  12.0292710  77.1322440 114.4432680  21.8871120  85.6524530 113.2071340
  21.2682560  86.1082030 112.6365780  22.7422900  85.8075990 112.8061040
  21.0809370  81.6363520 114.8138380  21.0117650  80.6953460 114.6527510
  21.8429230  81.7264930 115.3860950  13.2716040  72.2418040 117.1395000
  13.0918880  71.3443790 117.4197760  12.8696120  72.7889910 117.8141950
  22.1114540  74.4433900 115.0407310  22.4879360  73.5705780 114.9280980
  22.0134050  74.7792600 114.1497750  16.2419550  72.8159530 110.5024750
  16.3486300  73.7163260 110.8093510  15.3311910  72.7677500 110.2119400
  13.8902710  74.7378540 115.7477340  14.5712820  75.0016910 116.3664740
  13.5750760  73.8979410 116.0815350  18.0827280  75.7845900 114.8349930
  18.5905500  76.2826870 115.4754950  18.6140520  75.0081100 114.6589290
  30.1838210  73.9551090 118.5379280  29.4790380  74.3432800 118.0194390
  30.4496130  74.6501380 119.1400210  16.3663380  70.4244460 119.1013350
  16.3681820  70.9416850 118.2959250  15.5367690  69.9474640 119.0783280
  22.7534470  80.5363770 110.6003250  22.1351740  81.0013220 110.0365970
  23.2657720  81.2291250 111.0172760  17.6166230  80.0639640 117.2786850
  17.2835610  80.6908560 117.9207920  17.7932910  80.5901520 116.4988520
  26.1300140  73.8784720 114.7463190  25.4255710  74.1669610 115.3266300
  26.4912300  74.6884830 114.3862750  16.0478710  72.1354420 117.1083800
  16.3895520  72.9796470 116.8137670  15.1094520  72.2838160 117.2249140
  16.8285330  82.0320440 119.0936030  17.4459330  82.7071520 118.8120480
  15.9678450  82.4408420 119.0023530  12.1217670  81.2220300 107.9742880
  11.7445650  81.7107400 107.2427780  12.3790740  81.8945580 108.6049410
  27.7462920  83.4959850 117.0090670  27.0626440  84.1658960 117.0007340
  28.2857210  83.6940500 116.2435530  19.7306600  69.6236690 113.4328390
  20.0381580  69.0683580 112.7163890  18.8007300  69.7581150 113.2501380
  25.2821660  85.3403980 115.7235850  25.2948820  84.9366270 114.8558110
  24.7296880  86.1151270 115.6197280  26.5767080  82.0620200 110.8126020
  26.4663410  81.1194530 110.9375440  26.5735330  82.4235840 111.6988780
  24.6807100  80.2433820 117.0518460  25.0975890  80.0293930 116.2171920
  25.4046920  80.5006610 117.6227080  22.1187360  77.6885520 110.1688510
  21.1916640  77.6222900 110.3976980  22.2712180  78.6265650 110.0543750
  22.1056440  73.9602520 107.1655670  21.1660110  74.1216480 107.2508130
  22.4239700  74.6788200 106.6191660  28.6269200  78.6421040 117.1434700
  27.7987830  78.7114130 116.6684830  29.2219680  79.2275350 116.6750530
  25.5911210  75.4290360 118.0889570  25.1782390  76.2544070 118.3429560
  24.8587160  74.8435400 117.8965930  17.7244000  78.2150260 112.9508240
  17.3201000  77.5027510 112.4554140  17.8107120  77.8703500 113.8396280
  18.1925700  81.9017820 115.1147450  17.8953990  81.2963290 114.4355230
  19.1425520  81.9395130 115.0036810  16.4372620  74.9893470 116.7307280
  16.9887210  75.0988810 115.9560530  16.9516130  75.3631070 117.4462510
  26.2811310  85.4749690 118.7770550  25.8041870  86.2821880 118.5843160
  25.5973100  84.8228020 118.9296760  17.2844130  81.6399510 121.7655250
  16.3872660  81.8639480 122.0128650  17.3097000  81.7634450 120.8166650
  24.3249350  78.4892630 107.6796510  24.7642630  77.6515060 107.5334330
  25.0377770  79.1222030 107.7660650  16.1115350  78.5112830 120.3412620
  15.9723120  79.3835630 120.7100020  15.2296710  78.1685640 120.1960560
  22.4344730  83.4288700 111.6477750  22.8740640  84.1713030 111.2333140
  22.3731620  83.6715270 112.5716710  17.9095700  84.4534530 122.5497770
  17.8811130  84.8577480 121.6826200  17.7460670  83.5244890 122.3869370
  14.4248630  77.1095240 110.4514890  14.3046230  77.8357330 109.8396160
  14.1149520  76.3398150 109.9742800  29.8610520  85.2361630 123.8461940
  30.3370240  85.7144520 124.5251020  30.4817680  85.1679120 123.1207440
  12.0634000  80.2810380 116.2583530  12.1414420  80.4159150 115.3139250
  12.6775680  79.5726270 116.4511650  13.3081630  81.9810570 112.6689710
  12.9009710  82.1225160 111.8143310  14.1994640  81.6970730 112.4660920
  29.2643770  82.4274480 121.0061950  29.3906830  82.1886360 120.0879130
  29.3065150  81.5959020 121.4784030  23.1260510  86.1302480 119.5756760
  23.6405180  86.0410490 120.3779190  22.2829590  86.4762180 119.8684670
  25.1014910  86.4157820 109.0040760  24.9416050  86.1260760 109.9022590
  24.9361620  85.6397950 108.4685990  17.5803290  86.1956350 110.7812380
  17.4045770  85.2791890 110.5680180  16.7259030  86.5543640 111.0210180
  24.8041040  83.9245380 107.5638760  24.1106200  83.9222670 106.9041040
  25.5463900  83.5004700 107.1332930  24.3690970  85.5508090 111.6387250
  24.8247920  84.7697470 111.9525870  24.7083490  86.2614910 112.1828430
  29.1167780  74.4806940 121.9711690  28.5012050  74.9886610 121.4427150
  28.7964200  73.5805270 121.9137630  12.1193520  81.3224550 118.7977990
  12.2824560  80.8529910 117.9797360  12.5845970  80.8148110 119.4626830
  16.8912290  70.4530310 113.8338560  16.4480440  71.2339850 113.5023080
  17.4497280  70.7760200 114.5409500  21.1782100  73.3198830 119.4373880
  20.7161470  73.5281850 120.2493820  20.7760210  72.5058180 119.1344550
  26.1786610  74.5407780 120.5670540  25.3280200  74.2413530 120.8879610
  26.0188400  74.7849790 119.6554360  23.2736320  76.0409530 122.6669330
  23.5989730  75.2073280 122.3271560  24.0616650  76.5638050 122.8147660
  20.0071110  70.0741010 108.7144390  19.3825290  70.0700880 109.4397700
  19.9201230  69.2071970 108.3180360  18.9288190  70.9977640 115.6928160
  19.2260520  71.9040470 115.6120180  19.4773750  70.5096420 115.0787730
  16.6826510  75.5763880 111.5619810  16.4567430  75.3601050 112.4666430
  15.9019040  76.0092340 111.2165780  19.1225720  76.4749460 122.2280080
  19.0269320  75.5344190 122.0780480  19.9657700  76.6964530 121.8328150
  22.5189140  74.2190790 112.1913740  22.9118710  74.5362990 111.3782430
  22.8805990  73.3402670 112.3058260  14.2536260  72.8863130 120.3813860
  13.8599650  73.7338340 120.5886640  13.5654660  72.2489500 120.5722500
  20.8281310  72.9698100 123.4510600  20.1379630  72.7770300 124.0856690
  21.5713610  73.2532740 123.9834900  11.5553310  70.8091590 114.4143940
  11.2666360  71.3794450 115.1268920  12.2999070  70.3296040 114.7775170
  11.7423540  74.7511710 105.6246660  11.6598210  75.6942470 105.7661650
  11.3906600  74.6086620 104.7459010  23.1044280  76.8096540 116.2864520
  22.3725400  77.3183350 116.6354620  22.7068620  75.9926520 115.9853300
  19.5421670  73.4850740 114.6917010  19.5457730  73.0440690 113.8421550
  20.4372790  73.8068070 114.7988830  15.3924050  73.3677230 113.6511220
  15.0524100  73.8452460 114.4078270  14.6301370  72.9142350 113.2912320
  19.6041820  74.4862820 107.6823770  19.7254640  74.4449300 108.6309590
  19.2190330  75.3486970 107.5270500  23.5670190  72.2630220 115.6987460
  23.5842930  72.7138870 116.5429310  23.3185770  71.3635860 115.9120900
  18.6163320  76.7963960 107.0807070  18.0480220  76.3482210 106.4542980
  19.3252320  77.1556740 106.5472220  26.9940940  69.6762400 121.5373840
  27.3186710  68.9452060 122.0631820  27.0297450  69.3576040 120.6354830
  13.6932500  80.6975980 120.9573800  13.3087290  80.0569650 121.5556760
  14.0044690  81.4012100 121.5268530  19.8429640  77.5452520 116.4382420
  20.2099770  77.0711090 117.1843760  19.6534700  78.4194090 116.7790760
  12.7070130  72.2896210 112.5675890  12.4217050  71.9251880 113.4054510
  12.6448990  71.5576670 111.9539030  17.6329010  76.5861160 118.7566630
  17.3286080  77.4653140 118.9816990  18.5875470  76.6460950 118.7924070
  16.1610800  80.7922150 109.3533480  15.3873060  80.2519770 109.1932200
  16.8905430  80.2728760 109.0151240  26.9198780  79.7887510 115.1459870
  27.6397900  80.2842800 114.7555980  26.7180600  79.1105400 114.5013740
  22.3808720  71.1825470 109.2889260  21.5673330  70.6838640 109.2134570
  22.1870670  72.0223720 108.8725610  22.3017580  79.8596570 121.0328870
  22.2354890  78.9392240 120.7786460  21.6722720  79.9572010 121.7473510
  16.2048200  80.4602530 112.9912290  16.7226870  79.6570790 112.9369180
  15.7532220  80.3981670 113.8329120  21.0917700  81.7268810 108.2639590
  21.4333400  82.4711040 107.7682910  20.2630410  82.0399930 108.6264420
  13.6892740  77.4263900 119.9037990  13.3307680  78.0917750 120.4911330
  13.3947300  76.5947450 120.2750610  16.8905860  77.8848140 122.7877540
  16.5906000  78.0305320 121.8905360  17.6617100  77.3253430 122.6950930
  22.2334310  82.6817140 120.7832670  22.2478850  81.7498100 120.5651580
  21.5259410  82.7676900 121.4222440  28.4445520  79.3224480 120.1301250
  27.7193710  79.9153260 119.9330640  28.9720980  79.3148020 119.3314620
  28.3958630  83.7199220 109.7813410  27.7534790  83.0654840 110.0557130
  28.0089290  84.1254310 109.0054080  23.9745110  81.0484650 113.6285100
  24.3268930  80.4512780 112.9686470  23.0907440  80.7228880 113.7993350
  20.0608390  81.8082340 111.0355510  20.7479520  82.3551550 111.4163100
  19.2740810  82.3523070 111.0705120  12.2000790  77.4255160 106.5272590
  13.0695640  77.7079960 106.8108510  11.7091110  78.2391030 106.4121400
  19.3635600  78.8128370 110.6480870  19.8198380  79.6233620 110.8741060
  19.0123810  78.4951510 111.4799360  21.6668210  84.3234710 117.8773170
  22.3110430  84.5294090 118.5546590  22.0297650  83.5623110 117.4244020
  15.2647380  69.1566020 111.1203390  15.1362010  69.1483920 112.0688310
  14.4409400  69.4949110 110.7694400  22.9400290  82.3267060 116.5950620
  23.5822520  81.6260220 116.7082790  23.4649640  83.1065500 116.4147510
  26.7856010  82.6115680 106.3189760  26.5593590  81.8946120 106.9114400
  26.3952210  82.3628120 105.4811510  24.7137910  83.1261960 119.7986680
  25.0494150  83.7128650 120.4764600  23.7938250  82.9954670 120.0284470
  12.5672040  86.6382540 107.0934220  12.9269680  87.2371880 106.4391490
  12.4264380  87.1842430 107.8669250  12.2641310  70.9157140 120.5810090
  11.5499830  71.1154060 121.1862700  12.6836350  70.1396710 120.9524890
  26.3672260  80.5287620 107.9803920  26.0793960  80.9900310 108.7681800
  27.1624430  80.0685390 108.2488140  12.5513900  84.9037400 121.5676620
  12.6605020  83.9632140 121.4272010  11.8994460  85.1692150 120.9190350
  20.5426490  83.1753290 122.9674740  20.2223360  82.4562530 123.5120430
  19.8684850  83.8508360 123.0410800  18.5840660  84.0213740 107.9107890
  18.5750760  84.7543430 107.2952400  17.6639020  83.7745320 108.0034850
  14.1847300  79.2428630 108.6554650  13.5775250  79.9827530 108.6649950
  14.6596650  79.3327990 107.8292850  23.7580090  73.4079450 118.3311540
  24.1260910  72.5874660 118.6591110  22.8978290  73.4681340 118.7467190
  21.5700260  84.0841980 106.5733080  21.6712240  83.8805970 105.6435060
  20.6702000  83.8300260 106.7780860  19.0926150  74.6422340 110.5556980
  18.3842300  75.1108680 110.9970590  19.3770630  73.9844350 111.1902170
  20.7182080  76.0619040 118.5549510  21.2167330  76.5364860 119.2201360
  20.8605030  75.1382560 118.7619540  23.1241580  71.3673000 111.9952770
  23.0009360  71.3859130 111.0462280  24.0726140  71.4151940 112.1151170
  20.2118370  86.6028300 111.2680750  20.4659870  86.5649690 110.3460120
  19.2630850  86.4761630 111.2609000  17.2961170  72.9507420 107.9307690
  18.1451700  73.3877570 107.8647880  16.9292440  73.2627680 108.7579750
  27.9248940  72.2787000 119.3977900  27.4222540  73.0192400 119.7371710
  28.7405600  72.6671000 119.0814690  16.1952590  79.2039780 106.4043220
  16.9615860  79.0921140 106.9668650  16.2727280  78.5077750 105.7519990
  14.8899350  76.6364850 107.0876110  14.9702940  75.6892360 107.1993510
  15.7819100  76.9671730 107.1936770  28.2196530  84.6929030 114.5193520
  28.3443950  85.5160200 114.9917330  29.0862090  84.4819760 114.1717670
  15.6914060  86.7860240 114.1910650  16.4276540  86.2375700 114.4619220
  16.0754980  87.6516250 114.0516640  12.5759540  82.8533810 110.0652160
  11.6499320  83.0954950 110.0557570  13.0415970  83.6808070 109.9436910
  14.6972340  85.9706310 123.3796230  15.4985070  86.2918360 123.7931630
  14.1824160  85.6101890 124.1016140  18.8016370  85.9590550 106.0136220
  19.5944980  86.2479380 105.5618010  18.2820720  85.5282720 105.3348700
  23.5336970  82.0786180 123.3271640  22.9275130  82.1017780 122.5867390
  23.2291080  81.3469220 123.8638890  24.9637340  85.8066470 121.9381050
  25.9159090  85.7224490 121.8881290  24.8165560  86.4708180 122.6114840
  27.8546540  85.1860680 107.4372960  27.5688050  84.7725820 106.6227140
  27.6566090  86.1148390 107.3173480  12.4170150  78.4579770 122.3232280
  12.9209170  77.8787050 122.8948510  11.6777570  78.7420000 122.8608650
  19.3193770  81.1793960 105.8778570  19.2144410  80.5646310 106.6039950
  19.1517990  80.6559850 105.0941580  19.4708090  79.8650760 121.8567800
  18.7053760  80.4335760 121.7722470  19.6524050  79.5726970 120.9636030
  22.5596500  80.2413990 106.4820560  22.0106600  80.6883290 107.1263300
  23.1815760  79.7363240 107.0058230  26.6131440  81.5956090 122.4142820
  27.3540910  81.9331850 121.9110280  25.8504120  81.7648150 121.8612590
  14.4493230  76.6009360 123.2182350  14.4898570  76.3023230 124.1267580
  15.3038730  77.0016970 123.0589870  18.2271620  79.2004910 108.3785860
  18.6488040  79.0344780 109.2217250  18.3522460  78.3905140 107.8841000
  16.3899040  75.1801460 121.1856840  15.8595500  74.6892410 120.5580180
  17.0587110  75.6085660 120.6514770  20.7399260  78.2242520 105.6262960
  21.2604920  77.5091540 105.2604110  21.3867660  78.8628390 105.9263470
  25.2877100  79.6470920 120.9498030  25.7018120  79.8016000 121.7988450
  24.3528100  79.7726140 121.1123810  25.7599270  76.9867080 122.9537180
  26.3420040  76.2319400 122.8657660  25.9361040  77.5174520 122.1768660
  16.8771340  72.1463830 121.2654130  16.7828210  71.5284580 120.5405000
  16.2968730  72.8730120 121.0384040  19.6432780  70.7037070 118.2981520
  19.1950080  70.7261330 117.4527070  19.0097980  70.3056090 118.8951820
  20.0492330  79.5991400 118.9193960  20.4680440  80.4424130 118.7470200
  19.1300960  79.7363440 118.6900740  22.3856230  77.3307580 120.3031800
  22.5052440  76.7348720 121.0426640  23.2450230  77.3677270 119.8833100
  24.7244130  77.8844770 118.8794310  24.1979350  78.4087390 118.2759450
  25.0675470  78.5172160 119.5104040  17.1230520  75.2738140 105.3244020
  16.9219580  74.4105500 105.6857360  16.9522570  75.1871500 104.3865620
  17.8999750  85.9044410 120.0351690  17.3620840  86.6290470 119.7160390
  18.1533710  85.4274750 119.2449030  19.1525000  73.8728930 121.5607620
  19.7424690  73.5644780 122.2485440  18.3345240  73.4008680 121.7167520
  23.9718430  73.4894740 121.7940640  23.2833950  72.8276280 121.7290630
  24.6924450  73.0433010 122.2389100  15.9213320  72.3738760 105.3121900
  16.2239220  72.3806190 104.4041050  16.6607910  72.0236620 105.8089560
  20.7561960  87.1395620 120.2938340  20.6820660  88.0430760 120.6010710
  19.8540800  86.8207520 120.2660410  19.1398250  71.3173380 106.2978100
  18.7920250  70.6397370 105.7180550  19.3411020  70.8562890 107.1121490
  21.3047290  86.3054130 107.9164700  22.1998080  86.6439100 107.9383460
  21.3364920  85.5833540 107.2888980  14.9443450  81.6781180 106.1451700
  15.3818320  82.2210850 106.8009280  15.4291180  80.8528130 106.1548040
  12.1589250  84.4670210 113.5971960  12.4892260  83.5991270 113.3650600
  12.5880250  84.6728730 114.4276920  16.7551170  82.7979220 111.2573930
  16.4546710  82.6744190 112.1577840  16.6488660  81.9387810 110.8489660
  12.6479460  85.3340800 116.3353590  12.2110450  85.5141600 117.1677740
  13.2157140  86.0915420 116.1935310  28.2841640  84.8357800 120.6230900
  27.6843630  84.8950360 119.8794820  28.4135540  83.8962780 120.7527750
  29.5243090  82.5775620 105.9600610  28.6936050  82.6452270 106.4307840
  29.7014920  83.4679740 105.6567470  12.4803890  77.8461030 112.6942470
  11.8252730  77.5772670 112.0502170  13.3181840  77.7365510 112.2444450
  29.9859520  80.1773200 113.3076740  30.3568350  79.3940520 112.9012710
  30.6261450  80.8662300 113.1294040  26.9693280  81.5609780 118.7207060
  26.1553120  81.9906940 118.9832850  27.3767480  82.1728190 118.1076110
  29.0318720  79.6157470 105.6207330  29.3067560  80.5236350 105.4926550
  28.8429460  79.5520000 106.5569320  13.5179820  78.2313600 117.2345810
  13.8852860  78.1441000 118.1141830  12.9490640  77.4680150 117.1352670
  28.3183680  76.6997980 120.2476280  28.0869770  76.4710730 119.3474230
  28.5788230  77.6197530 120.2021170  13.0695820  75.1422690 121.1404230
  12.1751870  75.1089450 121.4797940  13.6093370  75.3409480 121.9055480
  26.7571750  71.9254410 123.0255980  27.6341930  71.9337810 123.4089980
  26.7692590  71.1885250 122.4148330  11.6941970  75.0559960 108.6367800
  10.7906050  75.3190160 108.4619460  12.1782590  75.3271130 107.8567760
  28.3824740  75.8623820 117.4363550  27.4327450  75.8287360 117.5508540
  28.5637750  76.7723930 117.2013320  14.2369180  74.1125500 106.5462180
  14.9460880  73.6908720 106.0609460  13.5209120  74.1800730 105.9145530
  13.8843340  70.1664830 105.5864830  14.6071470  70.7073770 105.9046050
  14.1567860  69.8928250 104.7106370  13.5735530  69.4171020 115.4887450
  14.2211720  68.8668400 115.0482610  13.9937370  69.6714170 116.3103260
  27.0269330  86.3128380 112.2475330  27.6228400  85.9912950 111.5709750
  27.2847480  85.8400200 113.0388600  13.3267530  69.5726690 118.2312770
  12.9782350  70.0290510 118.9970950  12.9955230  68.6783820 118.3135200
  14.9331900  82.7446290 122.3965960  14.8901530  82.3739200 123.2780420
  15.0642910  83.6823860 122.5367780  18.6337930  84.3005880 117.9975680
  18.3929290  84.5680440 117.1106200  19.5740570  84.4711610 118.0526540
  20.8392350  70.7638570 121.7532190  20.7781240  71.3560400 122.5027600
  21.7792730  70.6564530 121.6082450  23.4766910  70.4208630 121.3924480
  24.0907320  70.7387920 120.7305560  24.0216470  69.9357220 122.0120340
  29.8942090  86.3200260 118.7986320  29.4000370  86.7169130 118.0813450
  29.2855380  85.6949470 119.1923600  13.9988170  69.1002890 121.5063540
  14.5471160  68.9190940 120.7429650  14.0643480  68.3097000 122.0419850
  14.7719930  85.6908540 119.5163740  14.1780250  85.5593240 120.2553780
  14.7643770  84.8546680 119.0505840  24.2174950  68.9840770 117.7193770
  23.3434790  69.3175880 117.5166700  24.1085700  68.5113950 118.5445640
  25.1246930  71.1911640 119.1035490  24.7960290  70.3763400 118.7237220
  26.0729230  71.1481450 118.9801180  27.5781540  86.9623680 116.0773060
  27.1184510  87.7139490 115.7031080  26.9494000  86.2430150 116.0187860
  14.4032160  83.0566920 118.4671780  13.6766220  82.4372210 118.3997730
  14.4641310  83.4507530 117.5969860  18.0077260  85.2711920 115.2521190
  18.5242280  84.6599280 114.7269450  18.6574640  85.7740700 115.7432200
  20.7472760  86.1620410 116.0790170  21.0350570  85.9074710 115.2023180
  21.2595980  85.6097770 116.6695740  21.9649770  69.9010610 116.6586680
  21.1821560  70.3756110 116.9383440  21.6712700  68.9965440 116.5499860
  12.6862160  86.3741310 111.6768540  12.5184200  85.7411990 112.3750430
  11.8196670  86.5800710 111.3262730  13.3090180  70.2058090 109.1800400
  14.0669540  70.3186970 108.6064430  12.8467350  71.0427290 109.1343830
  19.8503990  72.3197360 112.1702710  19.0378500  71.9454250 111.8298590
  20.3545630  71.5642440 112.4723900  14.2924860  85.0674540 109.1218680
  13.7672480  85.4482570 108.4180640  14.2169440  85.6925310 109.8428390
  15.6815330  70.7322140 107.7202370  16.2108090  69.9451940 107.5910320
  16.3143650  71.4113330 107.9537900  17.8753170  70.4697280 110.7747760
  17.2455910  69.7684590 110.9417890  17.3358310  71.2301410 110.5580920
  20.8145120  87.0836510 123.4458370  21.7412430  86.8480780 123.4894330
  20.7995550  87.9108510 122.9644400  29.0490180  86.6262080 110.4432620
  29.2242370  85.9399820 109.7993540  28.3511750  87.1509130 110.0509290
  18.0008730  69.7481260 123.2100250  17.7193000  70.2514860 122.4461070
  18.3828430  68.9503010 122.8442380  16.8917830  87.0156920 107.9967930
  17.6236650  86.7316200 107.4491820  17.1511500  86.7770200 108.8867310
  16.0532620  83.1321650 108.0014260  15.4241500  83.6006750 108.5500090
  16.1680450  82.2870870 108.4360450  24.6024190  69.1634840 123.7880720
  24.4889640  69.4829450 124.6832240  25.4193930  69.5647350 123.4918000
  27.3822680  86.3106370 123.2699410  28.1748000  85.8155600 123.0625370
  27.6755830  86.9896510 123.8775020  15.6566210  79.2726140  96.9100490
  14.8251090  79.0174850  97.3097000  16.2647190  79.3436910  97.6458410
  15.6367470  83.3066230  97.1058510  15.9395510  82.4163970  96.9268730
  16.3811060  83.8636450  96.8780760  14.0658160  74.2328030  90.6942880
  13.1774860  74.5744000  90.5922760  14.3499350  74.0328350  89.8023710
  12.0291170  76.8333680  96.5782580  12.6007280  76.0655880  96.5786220
  12.0292710  77.1322440  95.6689190  21.8871120  85.6524530  94.4327850
  21.2682560  86.1082030  93.8622290  22.7422900  85.8075990  94.0317550
  13.2716040  72.2418040  98.3651510  13.0918880  71.3443790  98.6454270
  12.8696120  72.7889910  99.0398460  16.2419550  72.8159530  91.7281260
  16.3486300  73.7163260  92.0350020  15.3311910  72.7677500  91.4375910
  13.8902710  74.7378540  96.9733850  14.5712820  75.0016910  97.5921250
  13.5750760  73.8979410  97.3071860  18.0827280  75.7845900  96.0606440
  18.5905500  76.2826870  96.7011460  18.6140520  75.0081100  95.8845800
  30.1838210  73.9551090  99.7635790  29.4790380  74.3432800  99.2450900
  30.4496130  74.6501380 100.3656720  16.3663380  70.4244460 100.3269860
  16.3681820  70.9416850  99.5215760  15.5367690  69.9474640 100.3039790
  17.6166230  80.0639640  98.5043360  17.2835610  80.6908560  99.1464430
  17.7932910  80.5901520  97.7245030  26.1300140  73.8784720  95.9719700
  25.4255710  74.1669610  96.5522810  26.4912300  74.6884830  95.6119260
  16.0478710  72.1354420  98.3340310  16.3895520  72.9796470  98.0394180
  15.1094520  72.2838160  98.4505650  16.8285330  82.0320440 100.3192540
  17.4459330  82.7071520 100.0376990  15.9678450  82.4408420 100.2280040
  12.1217670  81.2220300  89.1999390  11.7445650  81.7107400  88.4684290
  12.3790740  81.8945580  89.8305920  29.1987060  73.3239510  96.3628910
  28.2511970  73.3578490  96.4944340  29.5237050  74.1378460  96.7478270
  19.7306600  69.6236690  94.6584900  20.0381580  69.0683580  93.9420400
  18.8007300  69.7581150  94.4757890  24.6807100  80.2433820  98.2774970
  25.0975890  80.0293930  97.4428430  25.4046920  80.5006610  98.8483590
  22.1056440  73.9602520  88.3912180  21.1660110  74.1216480  88.4764640
  22.4239700  74.6788200  87.8448170  25.5911210  75.4290360  99.3146080
  25.1782390  76.2544070  99.5686070  24.8587160  74.8435400  99.1222440
  16.4372620  74.9893470  97.9563790  16.9887210  75.0988810  97.1817040
  16.9516130  75.3631070  98.6719020  17.2844130  81.6399510 102.9911760
  16.3872660  81.8639480 103.2385160  17.3097000  81.7634450 102.0423160
  16.1115350  78.5112830 101.5669130  15.9723120  79.3835630 101.9356530
  15.2296710  78.1685640 101.4217070  17.9095700  84.4534530 103.7754280
  17.8811130  84.8577480 102.9082710  17.7460670  83.5244890 103.6125880
  14.4248630  77.1095240  91.6771400  14.3046230  77.8357330  91.0652670
  14.1149520  76.3398150  91.1999310  29.8610520  85.2361630 105.0718450
  30.3370240  85.7144520 105.7507530  30.4817680  85.1679120 104.3463950
  12.0634000  80.2810380  97.4840040  12.1414420  80.4159150  96.5395760
  12.6775680  79.5726270  97.6768160  13.3081630  81.9810570  93.8946220
  12.9009710  82.1225160  93.0399820  14.1994640  81.6970730  93.6917430
  29.2643770  82.4274480 102.2318460  29.3906830  82.1886360 101.3135640
  29.3065150  81.5959020 102.7040540  23.1260510  86.1302480 100.8013270
  23.6405180  86.0410490 101.6035700  22.2829590  86.4762180 101.0941180
  25.1014910  86.4157820  90.2297270  24.9416050  86.1260760  91.1279100
  24.9361620  85.6397950  89.6942500  17.5803290  86.1956350  92.0068890
  17.4045770  85.2791890  91.7936690  16.7259030  86.5543640  92.2466690
  24.8041040  83.9245380  88.7895270  24.1106200  83.9222670  88.1297550
  25.5463900  83.5004700  88.3589440  24.3690970  85.5508090  92.8643760
  24.8247920  84.7697470  93.1782380  24.7083490  86.2614910  93.4084940
  12.1193520  81.3224550 100.0234500  12.2824560  80.8529910  99.2053870
  12.5845970  80.8148110 100.6883340  16.8912290  70.4530310  95.0595070
  16.4480440  71.2339850  94.7279590  17.4497280  70.7760200  95.7666010
  21.1782100  73.3198830 100.6630390  20.7161470  73.5281850 101.4750330
  20.7760210  72.5058180 100.3601060  23.2736320  76.0409530 103.8925840
  23.5989730  75.2073280 103.5528070  24.0616650  76.5638050 104.0404170
  20.0071110  70.0741010  89.9400900  19.3825290  70.0700880  90.6654210
  19.9201230  69.2071970  89.5436870  18.9288190  70.9977640  96.9184670
  19.2260520  71.9040470  96.8376690  19.4773750  70.5096420  96.3044240
  16.6826510  75.5763880  92.7876320  16.4567430  75.3601050  93.6922940
  15.9019040  76.0092340  92.4422290  19.1225720  76.4749460 103.4536590
  19.0269320  75.5344190 103.3036990  19.9657700  76.6964530 103.0584660
  14.2536260  72.8863130 101.6070370  13.8599650  73.7338340 101.8143150
  13.5654660  72.2489500 101.7979010  20.8281310  72.9698100 104.6767110
  20.1379630  72.7770300 105.3113200  21.5713610  73.2532740 105.2091410
  11.5553310  70.8091590  95.6400450  11.2666360  71.3794450  96.3525430
  12.2999070  70.3296040  96.0031680  11.7423540  74.7511710  86.8503170
  11.6598210  75.6942470  86.9918160  11.3906600  74.6086620  85.9715520
  19.5421670  73.4850740  95.9173520  19.5457730  73.0440690  95.0678060
  20.4372790  73.8068070  96.0245340  15.3924050  73.3677230  94.8767730
  15.0524100  73.8452460  95.6334780  14.6301370  72.9142350  94.5168830
  19.6041820  74.4862820  88.9080280  19.7254640  74.4449300  89.8566100
  19.2190330  75.3486970  88.7527010  23.5670190  72.2630220  96.9243970
  23.5842930  72.7138870  97.7685820  23.3185770  71.3635860  97.1377410
  18.6163320  76.7963960  88.3063580  18.0480220  76.3482210  87.6799490
  19.3252320  77.1556740  87.7728730  13.6932500  80.6975980 102.1830310
  13.3087290  80.0569650 102.7813270  14.0044690  81.4012100 102.7525040
  12.7070130  72.2896210  93.7932400  12.4217050  71.9251880  94.6311020
  12.6448990  71.5576670  93.1795540  17.6329010  76.5861160  99.9823140
  17.3286080  77.4653140 100.2073500  18.5875470  76.6460950 100.0180580
  16.1610800  80.7922150  90.5789990  15.3873060  80.2519770  90.4188710
  16.8905430  80.2728760  90.2407750  22.3017580  79.8596570 102.2585380
  22.2354890  78.9392240 102.0042970  21.6722720  79.9572010 102.9730020
  25.0957110  75.5545120  88.8107930  25.9836730  75.8662350  88.6359270
  25.0662200  74.6817370  88.4188510  16.2048200  80.4602530  94.2168800
  16.7226870  79.6570790  94.1625690  15.7532220  80.3981670  95.0585630
  13.6892740  77.4263900 101.1294500  13.3307680  78.0917750 101.7167840
  13.3947300  76.5947450 101.5007120  16.8905860  77.8848140 104.0134050
  16.5906000  78.0305320 103.1161870  17.6617100  77.3253430 103.9207440
  22.2334310  82.6817140 102.0089180  22.2478850  81.7498100 101.7908090
  21.5259410  82.7676900 102.6478950  27.3671380  76.8656960  88.2787790
  27.2835100  77.2971180  87.4284230  28.0865570  77.3255310  88.7114610
  28.4445520  79.3224480 101.3557760  27.7193710  79.9153260 101.1587150
  28.9720980  79.3148020 100.5571130  12.2000790  77.4255160  87.7529100
  13.0695640  77.7079960  88.0365020  11.7091110  78.2391030  87.6377910
  21.6668210  84.3234710  99.1029680  22.3110430  84.5294090  99.7803100
  22.0297650  83.5623110  98.6500530  15.2647380  69.1566020  92.3459900
  15.1362010  69.1483920  93.2944820  14.4409400  69.4949110  91.9950910
  22.9400290  82.3267060  97.8207130  23.5822520  81.6260220  97.9339300
  23.4649640  83.1065500  97.6404020  26.7856010  82.6115680  87.5446270
  26.5593590  81.8946120  88.1370910  26.3952210  82.3628120  86.7068020
  24.7137910  83.1261960 101.0243190  25.0494150  83.7128650 101.7021110
  23.7938250  82.9954670 101.2540980  12.5672040  86.6382540  88.3190730
  12.9269680  87.2371880  87.6648000  12.4264380  87.1842430  89.0925760
  12.2641310  70.9157140 101.8066600  11.5499830  71.1154060 102.4119210
  12.6836350  70.1396710 102.1781400  26.3672260  80.5287620  89.2060430
  26.0793960  80.9900310  89.9938310  27.1624430  80.0685390  89.4744650
  12.5513900  84.9037400 102.7933130  12.6605020  83.9632140 102.6528520
  11.8994460  85.1692150 102.1446860  20.5426490  83.1753290 104.1931250
  20.2223360  82.4562530 104.7376940  19.8684850  83.8508360 104.2667310
  18.5840660  84.0213740  89.1364400  18.5750760  84.7543430  88.5208910
  17.6639020  83.7745320  89.2291360  14.1847300  79.2428630  89.8811160
  13.5775250  79.9827530  89.8906460  14.6596650  79.3327990  89.0549360
  23.7580090  73.4079450  99.5568050  24.1260910  72.5874660  99.8847620
  22.8978290  73.4681340  99.9723700  21.5700260  84.0841980  87.7989590
  21.6712240  83.8805970  86.8691570  20.6702000  83.8300260  88.0037370
  19.0926150  74.6422340  91.7813490  18.3842300  75.1108680  92.2227100
  19.3770630  73.9844350  92.4158680  20.7182080  76.0619040  99.7806020
  21.2167330  76.5364860 100.4457870  20.8605030  75.1382560  99.9876050
  20.2118370  86.6028300  92.4937260  20.4659870  86.5649690  91.5716630
  19.2630850  86.4761630  92.4865510  17.2961170  72.9507420  89.1564200
  18.1451700  73.3877570  89.0904390  16.9292440  73.2627680  89.9836260
  16.1952590  79.2039780  87.6299730  16.9615860  79.0921140  88.1925160
  16.2727280  78.5077750  86.9776500  14.8899350  76.6364850  88.3132620
  14.9702940  75.6892360  88.4250020  15.7819100  76.9671730  88.4193280
  15.6914060  86.7860240  95.4167160  16.4276540  86.2375700  95.6875730
  16.0754980  87.6516250  95.2773150  12.5759540  82.8533810  91.2908670
  11.6499320  83.0954950  91.2814080  13.0415970  83.6808070  91.1693420
  14.6972340  85.9706310 104.6052740  15.4985070  86.2918360 105.0188140
  14.1824160  85.6101890 105.3272650  18.8016370  85.9590550  87.2392730
  19.5944980  86.2479380  86.7874520  18.2820720  85.5282720  86.5605210
  23.5336970  82.0786180 104.5528150  22.9275130  82.1017780 103.8123900
  23.2291080  81.3469220 105.0895400  24.9637340  85.8066470 103.1637560
  25.9159090  85.7224490 103.1137800  24.8165560  86.4708180 103.8371350
  27.8546540  85.1860680  88.6629470  27.5688050  84.7725820  87.8483650
  27.6566090  86.1148390  88.5429990  12.4170150  78.4579770 103.5488790
  12.9209170  77.8787050 104.1205020  11.6777570  78.7420000 104.0865160
  19.4708090  79.8650760 103.0824310  18.7053760  80.4335760 102.9978980
  19.6524050  79.5726970 102.1892540  22.5596500  80.2413990  87.7077070
  22.0106600  80.6883290  88.3519810  23.1815760  79.7363240  88.2314740
  26.6131440  81.5956090 103.6399330  27.3540910  81.9331850 103.1366790
  25.8504120  81.7648150 103.0869100  14.4493230  76.6009360 104.4438860
  14.4898570  76.3023230 105.3524090  15.3038730  77.0016970 104.2846380
  18.2271620  79.2004910  89.6042370  18.6488040  79.0344780  90.4473760
  18.3522460  78.3905140  89.1097510  16.3899040  75.1801460 102.4113350
  15.8595500  74.6892410 101.7836690  17.0587110  75.6085660 101.8771280
  20.7399260  78.2242520  86.8519470  21.2604920  77.5091540  86.4860620
  21.3867660  78.8628390  87.1519980  25.2877100  79.6470920 102.1754540
  25.7018120  79.8016000 103.0244960  24.3528100  79.7726140 102.3380320
  25.7599270  76.9867080 104.1793690  26.3420040  76.2319400 104.0914170
  25.9361040  77.5174520 103.4025170  16.8771340  72.1463830 102.4910640
  16.7828210  71.5284580 101.7661510  16.2968730  72.8730120 102.2640550
  19.6432780  70.7037070  99.5238030  19.1950080  70.7261330  98.6783580
  19.0097980  70.3056090 100.1208330  20.0492330  79.5991400 100.1450470
  20.4680440  80.4424130  99.9726710  19.1300960  79.7363440  99.9157250
  22.3856230  77.3307580 101.5288310  22.5052440  76.7348720 102.2683150
  23.2450230  77.3677270 101.1089610  24.7244130  77.8844770 100.1050820
  24.1979350  78.4087390  99.5015960  25.0675470  78.5172160 100.7360550
  17.1230520  75.2738140  86.5500530  16.9219580  74.4105500  86.9113870
  16.9522570  75.1871500  85.6122130  17.8999750  85.9044410 101.2608200
  17.3620840  86.6290470 100.9416900  18.1533710  85.4274750 100.4705540
  19.1525000  73.8728930 102.7864130  19.7424690  73.5644780 103.4741950
  18.3345240  73.4008680 102.9424030  15.9213320  72.3738760  86.5378410
  16.2239220  72.3806190  85.6297560  16.6607910  72.0236620  87.0346070
  20.7561960  87.1395620 101.5194850  20.6820660  88.0430760 101.8267220
  19.8540800  86.8207520 101.4916920  19.1398250  71.3173380  87.5234610
  18.7920250  70.6397370  86.9437060  19.3411020  70.8562890  88.3378000
  21.3047290  86.3054130  89.1421210  22.1998080  86.6439100  89.1639970
  21.3364920  85.5833540  88.5145490  14.9443450  81.6781180  87.3708210
  15.3818320  82.2210850  88.0265790  15.4291180  80.8528130  87.3804550
  12.1589250  84.4670210  94.8228470  12.4892260  83.5991270  94.5907110
  12.5880250  84.6728730  95.6533430  16.7551170  82.7979220  92.4830440
  16.4546710  82.6744190  93.3834350  16.6488660  81.9387810  92.0746170
  12.6479460  85.3340800  97.5610100  12.2110450  85.5141600  98.3934250
  13.2157140  86.0915420  97.4191820  28.2841640  84.8357800 101.8487410
  27.6843630  84.8950360 101.1051330  28.4135540  83.8962780 101.9784260
  29.5243090  82.5775620  87.1857120  28.6936050  82.6452270  87.6564350
  29.7014920  83.4679740  86.8823980  28.9799550  79.3223100  89.6891320
  29.7418460  79.8919750  89.7951010  28.9953920  78.7550300  90.4599630
  12.4803890  77.8461030  93.9198980  11.8252730  77.5772670  93.2758680
  13.3181840  77.7365510  93.4700960  29.0318720  79.6157470  86.8463840
  29.3067560  80.5236350  86.7183060  28.8429460  79.5520000  87.7825830
  28.9284060  77.5526460  91.8393270  28.5527660  76.7854390  91.4074560
  28.1987180  77.9349160  92.3268200  13.5179820  78.2313600  98.4602320
  13.8852860  78.1441000  99.3398340  12.9490640  77.4680150  98.3609180
  28.3183680  76.6997980 101.4732790  28.0869770  76.4710730 100.5730740
  28.5788230  77.6197530 101.4277680  13.0695820  75.1422690 102.3660740
  12.1751870  75.1089450 102.7054450  13.6093370  75.3409480 103.1311990
  11.6941970  75.0559960  89.8624310  10.7906050  75.3190160  89.6875970
  12.1782590  75.3271130  89.0824270  28.2035020  75.7783950  95.1400510
  28.7272500  75.2846600  94.5090680  28.7894440  75.9134310  95.8848080
  28.3824740  75.8623820  98.6620060  27.4327450  75.8287360  98.7765050
  28.5637750  76.7723930  98.4269830  14.2369180  74.1125500  87.7718690
  14.9460880  73.6908720  87.2865970  13.5209120  74.1800730  87.1402040
  13.8843340  70.1664830  86.8121340  14.6071470  70.7073770  87.1302560
  14.1567860  69.8928250  85.9362880  27.6934990  75.0357300  91.0792920
  28.1894110  74.8028170  91.8641800  27.4951060  74.1969140  90.6630560
  13.5735530  69.4171020  96.7143960  14.2211720  68.8668400  96.2739120
  13.9937370  69.6714170  97.5359770  29.1222150  73.6718250  93.6130600
  29.0121430  73.5174290  94.5512870  29.8829740  73.1439190  93.3706010
  13.3267530  69.5726690  99.4569280  12.9782350  70.0290510 100.2227460
  12.9955230  68.6783820  99.5391710  14.9331900  82.7446290 103.6222470
  14.8901530  82.3739200 104.5036930  15.0642910  83.6823860 103.7624290
  18.6337930  84.3005880  99.2232190  18.3929290  84.5680440  98.3362710
  19.5740570  84.4711610  99.2783050  20.8392350  70.7638570 102.9788700
  20.7781240  71.3560400 103.7284110  21.7792730  70.6564530 102.8338960
  29.8942090  86.3200260 100.0242830  29.4000370  86.7169130  99.3069960
  29.2855380  85.6949470 100.4180110  13.9988170  69.1002890 102.7320050
  14.5471160  68.9190940 101.9686160  14.0643480  68.3097000 103.2676360
  14.7719930  85.6908540 100.7420250  14.1780250  85.5593240 101.4810290
  14.7643770  84.8546680 100.2762350  24.2174950  68.9840770  98.9450280
  23.3434790  69.3175880  98.7423210  24.1085700  68.5113950  99.7702150
  25.1246930  71.1911640 100.3292000  24.7960290  70.3763400  99.9493730
  26.0729230  71.1481450 100.2057690  14.4032160  83.0566920  99.6928290
  13.6766220  82.4372210  99.6254240  14.4641310  83.4507530  98.8226370
  18.0077260  85.2711920  96.4777700  18.5242280  84.6599280  95.9525960
  18.6574640  85.7740700  96.9688710  20.7472760  86.1620410  97.3046680
  21.0350570  85.9074710  96.4279690  21.2595980  85.6097770  97.8952250
  21.9649770  69.9010610  97.8843190  21.1821560  70.3756110  98.1639950
  21.6712700  68.9965440  97.7756370  26.5170840  70.6033710  95.9292280
  26.9578930  70.5478810  95.0813880  26.2478430  71.5191720  96.0002460
  28.3809410  70.2348950  93.9401100  28.3197810  69.2910170  93.7932120
  29.1601440  70.3429040  94.4854560  12.6862160  86.3741310  92.9025050
  12.5184200  85.7411990  93.6006940  11.8196670  86.5800710  92.5519240
  13.3090180  70.2058090  90.4056910  14.0669540  70.3186970  89.8320940
  12.8467350  71.0427290  90.3600340  19.8503990  72.3197360  93.3959220
  19.0378500  71.9454250  93.0555100  20.3545630  71.5642440  93.6980410
  14.2924860  85.0674540  90.3475190  13.7672480  85.4482570  89.6437150
  14.2169440  85.6925310  91.0684900  15.6815330  70.7322140  88.9458880
  16.2108090  69.9451940  88.8166830  16.3143650  71.4113330  89.1794410
  17.8753170  70.4697280  92.0004270  17.2455910  69.7684590  92.1674400
  17.3358310  71.2301410  91.7837430  20.8145120  87.0836510 104.6714880
  21.7412430  86.8480780 104.7150840  20.7995550  87.9108510 104.1900910
  29.0490180  86.6262080  91.6689130  29.2242370  85.9399820  91.0250050
  28.3511750  87.1509130  91.2765800  18.0008730  69.7481260 104.4356760
  17.7193000  70.2514860 103.6717580  18.3828430  68.9503010 104.0698890
  16.8917830  87.0156920  89.2224440  17.6236650  86.7316200  88.6748330
  17.1511500  86.7770200  90.1123820  16.0532620  83.1321650  89.2270770
  15.4241500  83.6006750  89.7756600  16.1680450  82.2870870  89.6616960
  27.3822680  86.3106370 104.4955920  28.1748000  85.8155600 104.2881880
  27.6755830  86.9896510 105.1031530  23.5082340  77.1827310  75.3771970
  23.4276390  76.2681920  75.1063680  23.0946760  77.6794380  74.6711680
  21.6400380  78.9606330  77.2581240  20.8642480  78.4806770  77.5479810
  22.2913310  78.2811980  77.0837400  15.6566210  79.2726140  78.1357000
  14.8251090  79.0174850  78.5353510  16.2647190  79.3436910  78.8714920
  12.0291170  76.8333680  77.8039090  12.6007280  76.0655880  77.8042730
  12.0292710  77.1322440  76.8945700  21.8871120  85.6524530  75.6584360
  21.2682560  86.1082030  75.0878800  22.7422900  85.8075990  75.2574060
  13.2716040  72.2418040  79.5908020  13.0918880  71.3443790  79.8710780
  12.8696120  72.7889910  80.2654970  22.1114540  74.4433900  77.4920330
  22.4879360  73.5705780  77.3794000  22.0134050  74.7792600  76.6010770
  25.8938660  71.9384340  74.4248670  26.7148280  71.4480910  74.4674150
  25.9272740  72.5282000  75.1780510  13.8902710  74.7378540  78.1990360
  14.5712820  75.0016910  78.8177760  13.5750760  73.8979410  78.5328370
  18.0827280  75.7845900  77.2862950  18.5905500  76.2826870  77.9267970
  18.6140520  75.0081100  77.1102310  30.1838210  73.9551090  80.9892300
  29.4790380  74.3432800  80.4707410  30.4496130  74.6501380  81.5913230
  16.3663380  70.4244460  81.5526370  16.3681820  70.9416850  80.7472270
  15.5367690  69.9474640  81.5296300  22.7534470  80.5363770  73.0516270
  22.1351740  81.0013220  72.4878990  23.2657720  81.2291250  73.4685780
  26.1300140  73.8784720  77.1976210  25.4255710  74.1669610  77.7779320
  26.4912300  74.6884830  76.8375770  16.0478710  72.1354420  79.5596820
  16.3895520  72.9796470  79.2650690  15.1094520  72.2838160  79.6762160
  12.1217670  81.2220300  70.4255900  11.7445650  81.7107400  69.6940800
  12.3790740  81.8945580  71.0562430  29.1987060  73.3239510  77.5885420
  28.2511970  73.3578490  77.7200850  29.5237050  74.1378460  77.9734780
  19.7306600  69.6236690  75.8841410  20.0381580  69.0683580  75.1676910
  18.8007300  69.7581150  75.7014400  26.5767080  82.0620200  73.2639040
  26.4663410  81.1194530  73.3888460  26.5735330  82.4235840  74.1501800
  22.1187360  77.6885520  72.6201530  21.1916640  77.6222900  72.8490000
  22.2712180  78.6265650  72.5056770  22.1056440  73.9602520  69.6168690
  21.1660110  74.1216480  69.7021150  22.4239700  74.6788200  69.0704680
  26.1484650  79.2505820  73.1236780  25.5297070  78.9125370  72.4763080
  26.1309100  78.6065580  73.8315970  25.5911210  75.4290360  80.5402590
  25.1782390  76.2544070  80.7942580  24.8587160  74.8435400  80.3478950
  17.7244000  78.2150260  75.4021260  17.3201000  77.5027510  74.9067160
  17.8107120  77.8703500  76.2909300  16.4372620  74.9893470  79.1820300
  16.9887210  75.0988810  78.4073550  16.9516130  75.3631070  79.8975530
  22.4344730  83.4288700  74.0990770  22.8740640  84.1713030  73.6846160
  22.3731620  83.6715270  75.0229730  17.9095700  84.4534530  85.0010790
  17.8811130  84.8577480  84.1339220  17.7460670  83.5244890  84.8382390
  14.4248630  77.1095240  72.9027910  14.3046230  77.8357330  72.2909180
  14.1149520  76.3398150  72.4255820  29.8610520  85.2361630  86.2974960
  30.3370240  85.7144520  86.9764040  30.4817680  85.1679120  85.5720460
  12.0634000  80.2810380  78.7096550  12.1414420  80.4159150  77.7652270
  12.6775680  79.5726270  78.9024670  25.1014910  86.4157820  71.4553780
  24.9416050  86.1260760  72.3535610  24.9361620  85.6397950  70.9199010
  24.8041040  83.9245380  70.0151780  24.1106200  83.9222670  69.3554060
  25.5463900  83.5004700  69.5845950  24.3690970  85.5508090  74.0900270
  24.8247920  84.7697470  74.4038890  24.7083490  86.2614910  74.6341450
  29.1167780  74.4806940  84.4224710  28.5012050  74.9886610  83.8940170
  28.7964200  73.5805270  84.3650650  12.1193520  81.3224550  81.2491010
  12.2824560  80.8529910  80.4310380  12.5845970  80.8148110  81.9139850
  16.8912290  70.4530310  76.2851580  16.4480440  71.2339850  75.9536100
  17.4497280  70.7760200  76.9922520  21.1782100  73.3198830  81.8886900
  20.7161470  73.5281850  82.7006840  20.7760210  72.5058180  81.5857570
  26.1786610  74.5407780  83.0183560  25.3280200  74.2413530  83.3392630
  26.0188400  74.7849790  82.1067380  23.2736320  76.0409530  85.1182350
  23.5989730  75.2073280  84.7784580  24.0616650  76.5638050  85.2660680
  20.0071110  70.0741010  71.1657410  19.3825290  70.0700880  71.8910720
  19.9201230  69.2071970  70.7693380  18.9288190  70.9977640  78.1441180
  19.2260520  71.9040470  78.0633200  19.4773750  70.5096420  77.5300750
  23.9124270  75.5827250  72.6123480  23.3133160  76.3063050  72.4287100
  24.4603880  75.5204030  71.8299930  19.1225720  76.4749460  84.6793100
  19.0269320  75.5344190  84.5293500  19.9657700  76.6964530  84.2841170
  22.5189140  74.2190790  74.6426760  22.9118710  74.5362990  73.8295450
  22.8805990  73.3402670  74.7571280  14.2536260  72.8863130  82.8326880
  13.8599650  73.7338340  83.0399660  13.5654660  72.2489500  83.0235520
  20.8281310  72.9698100  85.9023620  20.1379630  72.7770300  86.5369710
  21.5713610  73.2532740  86.4347920  11.5553310  70.8091590  76.8656960
  11.2666360  71.3794450  77.5781940  12.2999070  70.3296040  77.2288190
  23.1044280  76.8096540  78.7377540  22.3725400  77.3183350  79.0867640
  22.7068620  75.9926520  78.4366320  19.5421670  73.4850740  77.1430030
  19.5457730  73.0440690  76.2934570  20.4372790  73.8068070  77.2501850
  15.3924050  73.3677230  76.1024240  15.0524100  73.8452460  76.8591290
  14.6301370  72.9142350  75.7425340  23.5670190  72.2630220  78.1500480
  23.5842930  72.7138870  78.9942330  23.3185770  71.3635860  78.3633920
  18.6163320  76.7963960  69.5320090  18.0480220  76.3482210  68.9056000
  19.3252320  77.1556740  68.9985240  26.9940940  69.6762400  83.9886860
  27.3186710  68.9452060  84.5144840  27.0297450  69.3576040  83.0867850
  13.6932500  80.6975980  83.4086820  13.3087290  80.0569650  84.0069780
  14.0044690  81.4012100  83.9781550  16.1610800  80.7922150  71.8046500
  15.3873060  80.2519770  71.6445220  16.8905430  80.2728760  71.4664260
  22.3808720  71.1825470  71.7402280  21.5673330  70.6838640  71.6647590
  22.1870670  72.0223720  71.3238630  25.0957110  75.5545120  70.0364440
  25.9836730  75.8662350  69.8615780  25.0662200  74.6817370  69.6445020
  21.0917700  81.7268810  70.7152610  21.4333400  82.4711040  70.2195930
  20.2630410  82.0399930  71.0777440  13.6892740  77.4263900  82.3551010
  13.3307680  78.0917750  82.9424350  13.3947300  76.5947450  82.7263630
  16.8905860  77.8848140  85.2390560  16.5906000  78.0305320  84.3418380
  17.6617100  77.3253430  85.1463950  23.9745110  81.0484650  76.0798120
  24.3268930  80.4512780  75.4199490  23.0907440  80.7228880  76.2506370
  20.0608390  81.8082340  73.4868530  20.7479520  82.3551550  73.8676120
  19.2740810  82.3523070  73.5218140  12.2000790  77.4255160  68.9785610
  13.0695640  77.7079960  69.2621530  11.7091110  78.2391030  68.8634420
  19.3635600  78.8128370  73.0993890  19.8198380  79.6233620  73.3254080
  19.0123810  78.4951510  73.9312380  15.2647380  69.1566020  73.5716410
  15.1362010  69.1483920  74.5201330  14.4409400  69.4949110  73.2207420
  12.5672040  86.6382540  69.5447240  12.9269680  87.2371880  68.8904510
  12.4264380  87.1842430  70.3182270  12.2641310  70.9157140  83.0323110
  11.5499830  71.1154060  83.6375720  12.6836350  70.1396710  83.4037910
  12.5513900  84.9037400  84.0189640  12.6605020  83.9632140  83.8785030
  11.8994460  85.1692150  83.3703370  18.5840660  84.0213740  70.3620910
  18.5750760  84.7543430  69.7465420  17.6639020  83.7745320  70.4547870
  14.1847300  79.2428630  71.1067670  13.5775250  79.9827530  71.1162970
  14.6596650  79.3327990  70.2805870  23.7580090  73.4079450  80.7824560
  24.1260910  72.5874660  81.1104130  22.8978290  73.4681340  81.1980210
  21.5700260  84.0841980  69.0246100  21.6712240  83.8805970  68.0948080
  20.6702000  83.8300260  69.2293880  20.7182080  76.0619040  81.0062530
  21.2167330  76.5364860  81.6714380  20.8605030  75.1382560  81.2132560
  23.1241580  71.3673000  74.4465790  23.0009360  71.3859130  73.4975300
  24.0726140  71.4151940  74.5664190  27.9248940  72.2787000  81.8490920
  27.4222540  73.0192400  82.1884730  28.7405600  72.6671000  81.5327710
  26.2170950  77.5220180  75.2952280  25.2761090  77.5370410  75.4699970
  26.5315020  76.7356140  75.7412580  16.1952590  79.2039780  68.8556240
  16.9615860  79.0921140  69.4181670  16.2727280  78.5077750  68.2033010
  14.6972340  85.9706310  85.8309250  15.4985070  86.2918360  86.2444650
  14.1824160  85.6101890  86.5529160  18.8016370  85.9590550  68.4649240
  19.5944980  86.2479380  68.0131030  18.2820720  85.5282720  67.7861720
  27.8546540  85.1860680  69.8885980  27.5688050  84.7725820  69.0740160
  27.6566090  86.1148390  69.7686500  12.4170150  78.4579770  84.7745300
  12.9209170  77.8787050  85.3461530  11.6777570  78.7420000  85.3121670
  19.3193770  81.1793960  68.3291590  19.2144410  80.5646310  69.0552970
  19.1517990  80.6559850  67.5454600  14.4493230  76.6009360  85.6695370
  14.4898570  76.3023230  86.5780600  15.3038730  77.0016970  85.5102890
  18.2271620  79.2004910  70.8298880  18.6488040  79.0344780  71.6730270
  18.3522460  78.3905140  70.3354020  16.3899040  75.1801460  83.6369860
  15.8595500  74.6892410  83.0093200  17.0587110  75.6085660  83.1027790
  20.7399260  78.2242520  68.0775980  21.2604920  77.5091540  67.7117130
  21.3867660  78.8628390  68.3776490  25.7599270  76.9867080  85.4050200
  26.3420040  76.2319400  85.3170680  25.9361040  77.5174520  84.6281680
  16.8771340  72.1463830  83.7167150  16.7828210  71.5284580  82.9918020
  16.2968730  72.8730120  83.4897060  19.6432780  70.7037070  80.7494540
  19.1950080  70.7261330  79.9040090  19.0097980  70.3056090  81.3464840
  24.7244130  77.8844770  81.3307330  24.1979350  78.4087390  80.7272470
  25.0675470  78.5172160  81.9617060  17.8999750  85.9044410  82.4864710
  17.3620840  86.6290470  82.1673410  18.1533710  85.4274750  81.6962050
  19.1525000  73.8728930  84.0120640  19.7424690  73.5644780  84.6998460
  18.3345240  73.4008680  84.1680540  23.9718430  73.4894740  84.2453660
  23.2833950  72.8276280  84.1803650  24.6924450  73.0433010  84.6902120
  20.7561960  87.1395620  82.7451360  20.6820660  88.0430760  83.0523730
  19.8540800  86.8207520  82.7173430  21.3047290  86.3054130  70.3677720
  22.1998080  86.6439100  70.3896480  21.3364920  85.5833540  69.7402000
  14.9443450  81.6781180  68.5964720  15.3818320  82.2210850  69.2522300
  15.4291180  80.8528130  68.6061060  28.9799550  79.3223100  70.9147830
  29.7418460  79.8919750  71.0207520  28.9953920  78.7550300  71.6856140
  12.4803890  77.8461030  75.1455490  11.8252730  77.5772670  74.5015190
  13.3181840  77.7365510  74.6957470  29.9859520  80.1773200  75.7589760
  30.3568350  79.3940520  75.3525730  30.6261450  80.8662300  75.5807060
  13.5179820  78.2313600  79.6858830  13.8852860  78.1441000  80.5654850
  12.9490640  77.4680150  79.5865690  28.3183680  76.6997980  82.6989300
  28.0869770  76.4710730  81.7987250  28.5788230  77.6197530  82.6534190
  13.0695820  75.1422690  83.5917250  12.1751870  75.1089450  83.9310960
  13.6093370  75.3409480  84.3568500  28.2035020  75.7783950  76.3657020
  28.7272500  75.2846600  75.7347190  28.7894440  75.9134310  77.1104590
  28.3824740  75.8623820  79.8876570  27.4327450  75.8287360  80.0021560
  28.5637750  76.7723930  79.6526340  13.5735530  69.4171020  77.9400470
  14.2211720  68.8668400  77.4995630  13.9937370  69.6714170  78.7616280
  27.4687870  69.6112380  81.2970110  28.1060090  70.2246520  81.6629300
  27.6162760  69.6473040  80.3519340  13.3267530  69.5726690  80.6825790
  12.9782350  70.0290510  81.4483970  12.9955230  68.6783820  80.7648220
  14.9331900  82.7446290  84.8478980  14.8901530  82.3739200  85.7293440
  15.0642910  83.6823860  84.9880800  20.8392350  70.7638570  84.2045210
  20.7781240  71.3560400  84.9540620  21.7792730  70.6564530  84.0595470
  23.4766910  70.4208630  83.8437500  24.0907320  70.7387920  83.1818580
  24.0216470  69.9357220  84.4633360  13.9988170  69.1002890  83.9576560
  14.5471160  68.9190940  83.1942670  14.0643480  68.3097000  84.4932870
  14.7719930  85.6908540  81.9676760  14.1780250  85.5593240  82.7066800
  14.7643770  84.8546680  81.5018860  24.2174950  68.9840770  80.1706790
  23.3434790  69.3175880  79.9679720  24.1085700  68.5113950  80.9958660
  25.1246930  71.1911640  81.5548510  24.7960290  70.3763400  81.1750240
  26.0729230  71.1481450  81.4314200  14.4032160  83.0566920  80.9184800
  13.6766220  82.4372210  80.8510750  14.4641310  83.4507530  80.0482880
  20.7472760  86.1620410  78.5303190  21.0350570  85.9074710  77.6536200
  21.2595980  85.6097770  79.1208760  21.9649770  69.9010610  79.1099700
  21.1821560  70.3756110  79.3896460  21.6712700  68.9965440  79.0012880
  26.5170840  70.6033710  77.1548790  26.9578930  70.5478810  76.3070390
  26.2478430  71.5191720  77.2258970  28.3809410  70.2348950  75.1657610
  28.3197810  69.2910170  75.0188630  29.1601440  70.3429040  75.7111070
  19.8503990  72.3197360  74.6215730  19.0378500  71.9454250  74.2811610
  20.3545630  71.5642440  74.9236920  24.3528970  68.9839810  75.8598800
  24.9558340  69.5560020  76.3347320  23.6121960  69.5479250  75.6372700
  17.8753170  70.4697280  73.2260780  17.2455910  69.7684590  73.3930910
  17.3358310  71.2301410  73.0093940  20.8145120  87.0836510  85.8971390
  21.7412430  86.8480780  85.9407350  20.7995550  87.9108510  85.4157420
  18.0008730  69.7481260  85.6613270  17.7193000  70.2514860  84.8974090
  18.3828430  68.9503010  85.2955400  23.5082340  77.1827310  56.6028480
  23.4276390  76.2681920  56.3320190  23.0946760  77.6794380  55.8968190
  21.6400380  78.9606330  58.4837750  20.8642480  78.4806770  58.7736320
  22.2913310  78.2811980  58.3093910  15.6566210  79.2726140  59.3613510
  14.8251090  79.0174850  59.7610020  16.2647190  79.3436910  60.0971430
  15.6367470  83.3066230  59.5571530  15.9395510  82.4163970  59.3781750
  16.3811060  83.8636450  59.3293780  14.0658160  74.2328030  53.1455900
  13.1774860  74.5744000  53.0435780  14.3499350  74.0328350  52.2536730
  12.0291170  76.8333680  59.0295600  12.6007280  76.0655880  59.0299240
  12.0292710  77.1322440  58.1202210  21.8871120  85.6524530  56.8840870
  21.2682560  86.1082030  56.3135310  22.7422900  85.8075990  56.4830570
  21.0809370  81.6363520  58.4907910  21.0117650  80.6953460  58.3297040
  21.8429230  81.7264930  59.0630480  13.2716040  72.2418040  60.8164530
  13.0918880  71.3443790  61.0967290  12.8696120  72.7889910  61.4911480
  22.1114540  74.4433900  58.7176840  22.4879360  73.5705780  58.6050510
  22.0134050  74.7792600  57.8267280  16.2419550  72.8159530  54.1794280
  16.3486300  73.7163260  54.4863040  15.3311910  72.7677500  53.8888930
  25.8938660  71.9384340  55.6505180  26.7148280  71.4480910  55.6930660
  25.9272740  72.5282000  56.4037020  13.8902710  74.7378540  59.4246870
  14.5712820  75.0016910  60.0434270  13.5750760  73.8979410  59.7584880
  18.0827280  75.7845900  58.5119460  18.5905500  76.2826870  59.1524480
  18.6140520  75.0081100  58.3358820  30.1838210  73.9551090  62.2148810
  29.4790380  74.3432800  61.6963920  30.4496130  74.6501380  62.8169740
  16.3663380  70.4244460  62.7782880  16.3681820  70.9416850  61.9728780
  15.5367690  69.9474640  62.7552810  17.6166230  80.0639640  60.9556380
  17.2835610  80.6908560  61.5977450  17.7932910  80.5901520  60.1758050
  26.1300140  73.8784720  58.4232720  25.4255710  74.1669610  59.0035830
  26.4912300  74.6884830  58.0632280  16.0478710  72.1354420  60.7853330
  16.3895520  72.9796470  60.4907200  15.1094520  72.2838160  60.9018670
  16.8285330  82.0320440  62.7705560  17.4459330  82.7071520  62.4890010
  15.9678450  82.4408420  62.6793060  12.1217670  81.2220300  51.6512410
  11.7445650  81.7107400  50.9197310  12.3790740  81.8945580  52.2818940
  27.7462920  83.4959850  60.6860200  27.0626440  84.1658960  60.6776870
  28.2857210  83.6940500  59.9205060  29.1987060  73.3239510  58.8141930
  28.2511970  73.3578490  58.9457360  29.5237050  74.1378460  59.1991290
  19.7306600  69.6236690  57.1097920  20.0381580  69.0683580  56.3933420
  18.8007300  69.7581150  56.9270910  25.2821660  85.3403980  59.4005380
  25.2948820  84.9366270  58.5327640  24.7296880  86.1151270  59.2966810
  24.6807100  80.2433820  60.7287990  25.0975890  80.0293930  59.8941450
  25.4046920  80.5006610  61.2996610  22.1187360  77.6885520  53.8458040
  21.1916640  77.6222900  54.0746510  22.2712180  78.6265650  53.7313280
  22.1056440  73.9602520  50.8425200  21.1660110  74.1216480  50.9277660
  22.4239700  74.6788200  50.2961190  17.7244000  78.2150260  56.6277770
  17.3201000  77.5027510  56.1323670  17.8107120  77.8703500  57.5165810
  18.1925700  81.9017820  58.7916980  17.8953990  81.2963290  58.1124760
  19.1425520  81.9395130  58.6806340  16.4372620  74.9893470  60.4076810
  16.9887210  75.0988810  59.6330060  16.9516130  75.3631070  61.1232040
  26.2811310  85.4749690  62.4540080  25.8041870  86.2821880  62.2612690
  25.5973100  84.8228020  62.6066290  17.2844130  81.6399510  65.4424780
  16.3872660  81.8639480  65.6898180  17.3097000  81.7634450  64.4936180
  16.1115350  78.5112830  64.0182150  15.9723120  79.3835630  64.3869550
  15.2296710  78.1685640  63.8730090  17.9095700  84.4534530  66.2267300
  17.8811130  84.8577480  65.3595730  17.7460670  83.5244890  66.0638900
  14.4248630  77.1095240  54.1284420  14.3046230  77.8357330  53.5165690
  14.1149520  76.3398150  53.6512330  29.8610520  85.2361630  67.5231470
  30.3370240  85.7144520  68.2020550  30.4817680  85.1679120  66.7976970
  12.0634000  80.2810380  59.9353060  12.1414420  80.4159150  58.9908780
  12.6775680  79.5726270  60.1281180  13.3081630  81.9810570  56.3459240
  12.9009710  82.1225160  55.4912840  14.1994640  81.6970730  56.1430450
  23.1260510  86.1302480  63.2526290  23.6405180  86.0410490  64.0548720
  22.2829590  86.4762180  63.5454200  17.5803290  86.1956350  54.4581910
  17.4045770  85.2791890  54.2449710  16.7259030  86.5543640  54.6979710
  12.1193520  81.3224550  62.4747520  12.2824560  80.8529910  61.6566890
  12.5845970  80.8148110  63.1396360  16.8912290  70.4530310  57.5108090
  16.4480440  71.2339850  57.1792610  17.4497280  70.7760200  58.2179030
  20.0071110  70.0741010  52.3913920  19.3825290  70.0700880  53.1167230
  19.9201230  69.2071970  51.9949890  18.9288190  70.9977640  59.3697690
  19.2260520  71.9040470  59.2889710  19.4773750  70.5096420  58.7557260
  16.6826510  75.5763880  55.2389340  16.4567430  75.3601050  56.1435960
  15.9019040  76.0092340  54.8935310  23.9124270  75.5827250  53.8379990
  23.3133160  76.3063050  53.6543610  24.4603880  75.5204030  53.0556440
  19.1225720  76.4749460  65.9049610  19.0269320  75.5344190  65.7550010
  19.9657700  76.6964530  65.5097680  22.5189140  74.2190790  55.8683270
  22.9118710  74.5362990  55.0551960  22.8805990  73.3402670  55.9827790
  14.2536260  72.8863130  64.0583390  13.8599650  73.7338340  64.2656170
  13.5654660  72.2489500  64.2492030  11.5553310  70.8091590  58.0913470
  11.2666360  71.3794450  58.8038450  12.2999070  70.3296040  58.4544700
  11.7423540  74.7511710  49.3016190  11.6598210  75.6942470  49.4431180
  11.3906600  74.6086620  48.4228540  23.1044280  76.8096540  59.9634050
  22.3725400  77.3183350  60.3124150  22.7068620  75.9926520  59.6622830
  19.5421670  73.4850740  58.3686540  19.5457730  73.0440690  57.5191080
  20.4372790  73.8068070  58.4758360  15.3924050  73.3677230  57.3280750
  15.0524100  73.8452460  58.0847800  14.6301370  72.9142350  56.9681850
  19.6041820  74.4862820  51.3593300  19.7254640  74.4449300  52.3079120
  19.2190330  75.3486970  51.2040030  23.5670190  72.2630220  59.3756990
  23.5842930  72.7138870  60.2198840  23.3185770  71.3635860  59.5890430
  18.6163320  76.7963960  50.7576600  18.0480220  76.3482210  50.1312510
  19.3252320  77.1556740  50.2241750  13.6932500  80.6975980  64.6343330
  13.3087290  80.0569650  65.2326290  14.0044690  81.4012100  65.2038060
  19.8429640  77.5452520  60.1151950  20.2099770  77.0711090  60.8613290
  19.6534700  78.4194090  60.4560290  12.7070130  72.2896210  56.2445420
  12.4217050  71.9251880  57.0824040  12.6448990  71.5576670  55.6308560
  17.6329010  76.5861160  62.4336160  17.3286080  77.4653140  62.6586520
  18.5875470  76.6460950  62.4693600  16.1610800  80.7922150  53.0303010
  15.3873060  80.2519770  52.8701730  16.8905430  80.2728760  52.6920770
  26.9198780  79.7887510  58.8229400  27.6397900  80.2842800  58.4325510
  26.7180600  79.1105400  58.1783270  22.3808720  71.1825470  52.9658790
  21.5673330  70.6838640  52.8904100  22.1870670  72.0223720  52.5495140
  25.0957110  75.5545120  51.2620950  25.9836730  75.8662350  51.0872290
  25.0662200  74.6817370  50.8701530  16.2048200  80.4602530  56.6681820
  16.7226870  79.6570790  56.6138710  15.7532220  80.3981670  57.5098650
  21.0917700  81.7268810  51.9409120  21.4333400  82.4711040  51.4452440
  20.2630410  82.0399930  52.3033950  13.6892740  77.4263900  63.5807520
  13.3307680  78.0917750  64.1680860  13.3947300  76.5947450  63.9520140
  16.8905860  77.8848140  66.4647070  16.5906000  78.0305320  65.5674890
  17.6617100  77.3253430  66.3720460  20.0608390  81.8082340  54.7125040
  20.7479520  82.3551550  55.0932630  19.2740810  82.3523070  54.7474650
  12.2000790  77.4255160  50.2042120  13.0695640  77.7079960  50.4878040
  11.7091110  78.2391030  50.0890930  19.3635600  78.8128370  54.3250400
  19.8198380  79.6233620  54.5510590  19.0123810  78.4951510  55.1568890
  21.6668210  84.3234710  61.5542700  22.3110430  84.5294090  62.2316120
  22.0297650  83.5623110  61.1013550  15.2647380  69.1566020  54.7972920
  15.1362010  69.1483920  55.7457840  14.4409400  69.4949110  54.4463930
  22.9400290  82.3267060  60.2720150  23.5822520  81.6260220  60.3852320
  23.4649640  83.1065500  60.0917040  12.5672040  86.6382540  50.7703750
  12.9269680  87.2371880  50.1161020  12.4264380  87.1842430  51.5438780
  12.2641310  70.9157140  64.2579620  11.5499830  71.1154060  64.8632230
  12.6836350  70.1396710  64.6294420  12.5513900  84.9037400  65.2446150
  12.6605020  83.9632140  65.1041540  11.8994460  85.1692150  64.5959880
  20.5426490  83.1753290  66.6444270  20.2223360  82.4562530  67.1889960
  19.8684850  83.8508360  66.7180330  18.5840660  84.0213740  51.5877420
  18.5750760  84.7543430  50.9721930  17.6639020  83.7745320  51.6804380
  14.1847300  79.2428630  52.3324180  13.5775250  79.9827530  52.3419480
  14.6596650  79.3327990  51.5062380  27.1242120  72.3636390  52.8168630
  26.4955280  72.4682060  52.1026860  26.6294040  72.5833170  53.6062510
  19.0926150  74.6422340  54.2326510  18.3842300  75.1108680  54.6740120
  19.3770630  73.9844350  54.8671700  20.7182080  76.0619040  62.2319040
  21.2167330  76.5364860  62.8970890  20.8605030  75.1382560  62.4389070
  23.1241580  71.3673000  55.6722300  23.0009360  71.3859130  54.7231810
  24.0726140  71.4151940  55.7920700  20.2118370  86.6028300  54.9450280
  20.4659870  86.5649690  54.0229650  19.2630850  86.4761630  54.9378530
  17.2961170  72.9507420  51.6077220  18.1451700  73.3877570  51.5417410
  16.9292440  73.2627680  52.4349280  26.2170950  77.5220180  56.5208790
  25.2761090  77.5370410  56.6956480  26.5315020  76.7356140  56.9669090
  16.1952590  79.2039780  50.0812750  16.9615860  79.0921140  50.6438180
  16.2727280  78.5077750  49.4289520  14.8899350  76.6364850  50.7645640
  14.9702940  75.6892360  50.8763040  15.7819100  76.9671730  50.8706300
  15.6914060  86.7860240  57.8680180  16.4276540  86.2375700  58.1388750
  16.0754980  87.6516250  57.7286170  12.5759540  82.8533810  53.7421690
  11.6499320  83.0954950  53.7327100  13.0415970  83.6808070  53.6206440
  14.6972340  85.9706310  67.0565760  15.4985070  86.2918360  67.4701160
  14.1824160  85.6101890  67.7785670  18.8016370  85.9590550  49.6905750
  19.5944980  86.2479380  49.2387540  18.2820720  85.5282720  49.0118230
  24.9637340  85.8066470  65.6150580  25.9159090  85.7224490  65.5650820
  24.8165560  86.4708180  66.2884370  12.4170150  78.4579770  66.0001810
  12.9209170  77.8787050  66.5718040  11.6777570  78.7420000  66.5378180
  19.3193770  81.1793960  49.5548100  19.2144410  80.5646310  50.2809480
  19.1517990  80.6559850  48.7711110  19.4708090  79.8650760  65.5337330
  18.7053760  80.4335760  65.4492000  19.6524050  79.5726970  64.6405560
  22.5596500  80.2413990  50.1590090  22.0106600  80.6883290  50.8032830
  23.1815760  79.7363240  50.6827760  18.2271620  79.2004910  52.0555390
  18.6488040  79.0344780  52.8986780  18.3522460  78.3905140  51.5610530
  16.3899040  75.1801460  64.8626370  15.8595500  74.6892410  64.2349710
  17.0587110  75.6085660  64.3284300  20.7399260  78.2242520  49.3032490
  21.2604920  77.5091540  48.9373640  21.3867660  78.8628390  49.6033000
  16.8771340  72.1463830  64.9423660  16.7828210  71.5284580  64.2174530
  16.2968730  72.8730120  64.7153570  19.6432780  70.7037070  61.9751050
  19.1950080  70.7261330  61.1296600  19.0097980  70.3056090  62.5721350
  20.0492330  79.5991400  62.5963490  20.4680440  80.4424130  62.4239730
  19.1300960  79.7363440  62.3670270  17.1230520  75.2738140  49.0013550
  16.9219580  74.4105500  49.3626890  16.9522570  75.1871500  48.0635150
  17.8999750  85.9044410  63.7121220  17.3620840  86.6290470  63.3929920
  18.1533710  85.4274750  62.9218560  19.1525000  73.8728930  65.2377150
  19.7424690  73.5644780  65.9254970  18.3345240  73.4008680  65.3937050
  24.6018830  70.0846370  51.5300430  24.8821120  69.2414270  51.8859850
  23.8284560  70.3169480  52.0439180  15.9213320  72.3738760  48.9891430
  16.2239220  72.3806190  48.0810580  16.6607910  72.0236620  49.4859090
  20.7561960  87.1395620  63.9707870  20.6820660  88.0430760  64.2780240
  19.8540800  86.8207520  63.9429940  19.1398250  71.3173380  49.9747630
  18.7920250  70.6397370  49.3950080  19.3411020  70.8562890  50.7891020
  14.9443450  81.6781180  49.8221230  15.3818320  82.2210850  50.4778810
  15.4291180  80.8528130  49.8317570  12.1589250  84.4670210  57.2741490
  12.4892260  83.5991270  57.0420130  12.5880250  84.6728730  58.1046450
  16.7551170  82.7979220  54.9343460  16.4546710  82.6744190  55.8347370
  16.6488660  81.9387810  54.5259190  12.6479460  85.3340800  60.0123120
  12.2110450  85.5141600  60.8447270  13.2157140  86.0915420  59.8704840
  28.2841640  84.8357800  64.3000430  27.6843630  84.8950360  63.5564350
  28.4135540  83.8962780  64.4297280  12.4803890  77.8461030  56.3712000
  11.8252730  77.5772670  55.7271700  13.3181840  77.7365510  55.9213980
  25.4294330  72.6402320  50.5930490  25.8479210  72.4533300  49.7527150
  25.1230390  71.7881370  50.9033420  28.9284060  77.5526460  54.2906290
  28.5527660  76.7854390  53.8587580  28.1987180  77.9349160  54.7781220
  13.5179820  78.2313600  60.9115340  13.8852860  78.1441000  61.7911360
  12.9490640  77.4680150  60.8122200  13.0695820  75.1422690  64.8173760
  12.1751870  75.1089450  65.1567470  13.6093370  75.3409480  65.5825010
  11.6941970  75.0559960  52.3137330  10.7906050  75.3190160  52.1388990
  12.1782590  75.3271130  51.5337290  28.2035020  75.7783950  57.5913530
  28.7272500  75.2846600  56.9603700  28.7894440  75.9134310  58.3361100
  28.3824740  75.8623820  61.1133080  27.4327450  75.8287360  61.2278070
  28.5637750  76.7723930  60.8782850  14.2369180  74.1125500  50.2231710
  14.9460880  73.6908720  49.7378990  13.5209120  74.1800730  49.5915060
  13.8843340  70.1664830  49.2634360  14.6071470  70.7073770  49.5815580
  14.1567860  69.8928250  48.3875900  27.6934990  75.0357300  53.5305940
  28.1894110  74.8028170  54.3154820  27.4951060  74.1969140  53.1143580
  13.5735530  69.4171020  59.1656980  14.2211720  68.8668400  58.7252140
  13.9937370  69.6714170  59.9872790  29.1222150  73.6718250  56.0643620
  29.0121430  73.5174290  57.0025890  29.8829740  73.1439190  55.8219030
  30.0112420  71.5026170  49.3049760  30.9361730  71.3707350  49.0968050
  29.9888210  71.5818990  50.2586210  30.0850910  72.2736830  51.9306470
  29.2902410  72.2081950  52.4599380  30.2894190  73.2087470  51.9191820
  13.3267530  69.5726690  61.9082300  12.9782350  70.0290510  62.6740480
  12.9955230  68.6783820  61.9904730  14.9331900  82.7446290  66.0735490
  14.8901530  82.3739200  66.9549950  15.0642910  83.6823860  66.2137310
  18.6337930  84.3005880  61.6745210  18.3929290  84.5680440  60.7875730
  19.5740570  84.4711610  61.7296070  29.8942090  86.3200260  62.4755850
  29.4000370  86.7169130  61.7582980  29.2855380  85.6949470  62.8693130
  13.9988170  69.1002890  65.1833070  14.5471160  68.9190940  64.4199180
  14.0643480  68.3097000  65.7189380  14.7719930  85.6908540  63.1933270
  14.1780250  85.5593240  63.9323310  14.7643770  84.8546680  62.7275370
  24.2174950  68.9840770  61.3963300  23.3434790  69.3175880  61.1936230
  24.1085700  68.5113950  62.2215170  27.5781540  86.9623680  59.7542590
  27.1184510  87.7139490  59.3800610  26.9494000  86.2430150  59.6957390
  14.4032160  83.0566920  62.1441310  13.6766220  82.4372210  62.0767260
  14.4641310  83.4507530  61.2739390  18.0077260  85.2711920  58.9290720
  18.5242280  84.6599280  58.4038980  18.6574640  85.7740700  59.4201730
  20.7472760  86.1620410  59.7559700  21.0350570  85.9074710  58.8792710
  21.2595980  85.6097770  60.3465270  21.9649770  69.9010610  60.3356210
  21.1821560  70.3756110  60.6152970  21.6712700  68.9965440  60.2269390
  26.5170840  70.6033710  58.3805300  26.9578930  70.5478810  57.5326900
  26.2478430  71.5191720  58.4515480  28.3809410  70.2348950  56.3914120
  28.3197810  69.2910170  56.2445140  29.1601440  70.3429040  56.9367580
  12.6862160  86.3741310  55.3538070  12.5184200  85.7411990  56.0519960
  11.8196670  86.5800710  55.0032260  13.3090180  70.2058090  52.8569930
  14.0669540  70.3186970  52.2833960  12.8467350  71.0427290  52.8113360
  19.8503990  72.3197360  55.8472240  19.0378500  71.9454250  55.5068120
  20.3545630  71.5642440  56.1493430  24.3528970  68.9839810  57.0855310
  24.9558340  69.5560020  57.5603830  23.6121960  69.5479250  56.8629210
  27.4963570  69.3861370  52.3595590  27.6914200  70.2844820  52.6263020
  26.7093440  69.1548450  52.8528540  14.2924860  85.0674540  52.7988210
  13.7672480  85.4482570  52.0950170  14.2169440  85.6925310  53.5197920
  15.6815330  70.7322140  51.3971900  16.2108090  69.9451940  51.2679850
  16.3143650  71.4113330  51.6307430  17.8753170  70.4697280  54.4517290
  17.2455910  69.7684590  54.6187420  17.3358310  71.2301410  54.2350450
  20.8145120  87.0836510  67.1227900  21.7412430  86.8480780  67.1663860
  20.7995550  87.9108510  66.6413930  18.0008730  69.7481260  66.8869780
  17.7193000  70.2514860  66.1230600  18.3828430  68.9503010  66.5211910
  16.8917830  87.0156920  51.6737460  17.6236650  86.7316200  51.1261350
  17.1511500  86.7770200  52.5636840  16.0532620  83.1321650  51.6783790
  15.4241500  83.6006750  52.2269620  16.1680450  82.2870870  52.1129980
  24.6024190  69.1634840  67.4650250  24.4889640  69.4829450  68.3601770
  25.4193930  69.5647350  67.1687530  27.3822680  86.3106370  66.9468940
  28.1748000  85.8155600  66.7394900  27.6755830  86.9896510  67.5544550
  23.5082340  77.1827310  37.8284990  23.4276390  76.2681920  37.5576700
  23.0946760  77.6794380  37.1224700  21.6400380  78.9606330  39.7094260
  20.8642480  78.4806770  39.9992830  22.2913310  78.2811980  39.5350420
  15.6566210  79.2726140  40.5870020  14.8251090  79.0174850  40.9866530
  16.2647190  79.3436910  41.3227940  25.6607810  83.3666520  38.4893390
  25.1989340  82.5953760  38.8180560  26.4733360  83.3932590  38.9945840
  15.6367470  83.3066230  40.7828040  15.9395510  82.4163970  40.6038260
  16.3811060  83.8636450  40.5550290  14.0658160  74.2328030  34.3712410
  13.1774860  74.5744000  34.2692290  14.3499350  74.0328350  33.4793240
  12.0291170  76.8333680  40.2552110  12.6007280  76.0655880  40.2555750
  12.0292710  77.1322440  39.3458720  21.8871120  85.6524530  38.1097380
  21.2682560  86.1082030  37.5391820  22.7422900  85.8075990  37.7087080
  21.0809370  81.6363520  39.7164420  21.0117650  80.6953460  39.5553550
  21.8429230  81.7264930  40.2886990  13.2716040  72.2418040  42.0421040
  13.0918880  71.3443790  42.3223800  12.8696120  72.7889910  42.7167990
  22.1114540  74.4433900  39.9433350  22.4879360  73.5705780  39.8307020
  22.0134050  74.7792600  39.0523790  16.2419550  72.8159530  35.4050790
  16.3486300  73.7163260  35.7119550  15.3311910  72.7677500  35.1145440
  25.8938660  71.9384340  36.8761690  26.7148280  71.4480910  36.9187170
  25.9272740  72.5282000  37.6293530  13.8902710  74.7378540  40.6503380
  14.5712820  75.0016910  41.2690780  13.5750760  73.8979410  40.9841390
  18.0827280  75.7845900  39.7375970  18.5905500  76.2826870  40.3780990
  18.6140520  75.0081100  39.5615330  16.3663380  70.4244460  44.0039390
  16.3681820  70.9416850  43.1985290  15.5367690  69.9474640  43.9809320
  22.7534470  80.5363770  35.5029290  22.1351740  81.0013220  34.9392010
  23.2657720  81.2291250  35.9198800  17.6166230  80.0639640  42.1812890
  17.2835610  80.6908560  42.8233960  17.7932910  80.5901520  41.4014560
  26.1300140  73.8784720  39.6489230  25.4255710  74.1669610  40.2292340
  26.4912300  74.6884830  39.2888790  16.0478710  72.1354420  42.0109840
  16.3895520  72.9796470  41.7163710  15.1094520  72.2838160  42.1275180
  16.8285330  82.0320440  43.9962070  17.4459330  82.7071520  43.7146520
  15.9678450  82.4408420  43.9049570  12.1217670  81.2220300  32.8768920
  11.7445650  81.7107400  32.1453820  12.3790740  81.8945580  33.5075450
  27.7462920  83.4959850  41.9116710  27.0626440  84.1658960  41.9033380
  28.2857210  83.6940500  41.1461570  29.1987060  73.3239510  40.0398440
  28.2511970  73.3578490  40.1713870  29.5237050  74.1378460  40.4247800
  19.7306600  69.6236690  38.3354430  20.0381580  69.0683580  37.6189930
  18.8007300  69.7581150  38.1527420  25.2821660  85.3403980  40.6261890
  25.2948820  84.9366270  39.7584150  24.7296880  86.1151270  40.5223320
  26.5767080  82.0620200  35.7152060  26.4663410  81.1194530  35.8401480
  26.5735330  82.4235840  36.6014820  24.6807100  80.2433820  41.9544500
  25.0975890  80.0293930  41.1197960  25.4046920  80.5006610  42.5253120
  22.1187360  77.6885520  35.0714550  21.1916640  77.6222900  35.3003020
  22.2712180  78.6265650  34.9569790  22.1056440  73.9602520  32.0681710
  21.1660110  74.1216480  32.1534170  22.4239700  74.6788200  31.5217700
  26.1484650  79.2505820  35.5749800  25.5297070  78.9125370  34.9276100
  26.1309100  78.6065580  36.2828990  17.7244000  78.2150260  37.8534280
  17.3201000  77.5027510  37.3580180  17.8107120  77.8703500  38.7422320
  18.1925700  81.9017820  40.0173490  17.8953990  81.2963290  39.3381270
  19.1425520  81.9395130  39.9062850  16.4372620  74.9893470  41.6333320
  16.9887210  75.0988810  40.8586570  16.9516130  75.3631070  42.3488550
  26.2811310  85.4749690  43.6796590  25.8041870  86.2821880  43.4869200
  25.5973100  84.8228020  43.8322800  17.2844130  81.6399510  46.6681290
  16.3872660  81.8639480  46.9154690  17.3097000  81.7634450  45.7192690
  24.3249350  78.4892630  32.5822550  24.7642630  77.6515060  32.4360370
  25.0377770  79.1222030  32.6686690  16.1115350  78.5112830  45.2438660
  15.9723120  79.3835630  45.6126060  15.2296710  78.1685640  45.0986600
  22.4344730  83.4288700  36.5503790  22.8740640  84.1713030  36.1359180
  22.3731620  83.6715270  37.4742750  17.9095700  84.4534530  47.4523810
  17.8811130  84.8577480  46.5852240  17.7460670  83.5244890  47.2895410
  27.9066490  69.7435440  30.8963590  27.5939150  69.8362270  31.7962660
  28.6678960  70.3216470  30.8461020  14.4248630  77.1095240  35.3540930
  14.3046230  77.8357330  34.7422200  14.1149520  76.3398150  34.8768840
  29.8610520  85.2361630  48.7487980  30.3370240  85.7144520  49.4277060
  30.4817680  85.1679120  48.0233480  12.0634000  80.2810380  41.1609570
  12.1414420  80.4159150  40.2165290  12.6775680  79.5726270  41.3537690
  13.3081630  81.9810570  37.5715750  12.9009710  82.1225160  36.7169350
  14.1994640  81.6970730  37.3686960  25.1014910  86.4157820  33.9066800
  24.9416050  86.1260760  34.8048630  24.9361620  85.6397950  33.3712030
  17.5803290  86.1956350  35.6838420  17.4045770  85.2791890  35.4706220
  16.7259030  86.5543640  35.9236220  24.8041040  83.9245380  32.4664800
  24.1106200  83.9222670  31.8067080  25.5463900  83.5004700  32.0358970
  24.3690970  85.5508090  36.5413290  24.8247920  84.7697470  36.8551910
  24.7083490  86.2614910  37.0854470  12.1193520  81.3224550  43.7004030
  12.2824560  80.8529910  42.8823400  12.5845970  80.8148110  44.3652870
  16.8912290  70.4530310  38.7364600  16.4480440  71.2339850  38.4049120
  17.4497280  70.7760200  39.4435540  21.1782100  73.3198830  44.3399920
  20.7161470  73.5281850  45.1519860  20.7760210  72.5058180  44.0370590
  23.2736320  76.0409530  47.5695370  23.5989730  75.2073280  47.2297600
  24.0616650  76.5638050  47.7173700  20.0071110  70.0741010  33.6170430
  19.3825290  70.0700880  34.3423740  19.9201230  69.2071970  33.2206400
  18.9288190  70.9977640  40.5954200  19.2260520  71.9040470  40.5146220
  19.4773750  70.5096420  39.9813770  16.6826510  75.5763880  36.4645850
  16.4567430  75.3601050  37.3692470  15.9019040  76.0092340  36.1191820
  23.9124270  75.5827250  35.0636500  23.3133160  76.3063050  34.8800120
  24.4603880  75.5204030  34.2812950  19.1225720  76.4749460  47.1306120
  19.0269320  75.5344190  46.9806520  19.9657700  76.6964530  46.7354190
  22.5189140  74.2190790  37.0939780  22.9118710  74.5362990  36.2808470
  22.8805990  73.3402670  37.2084300  14.2536260  72.8863130  45.2839900
  13.8599650  73.7338340  45.4912680  13.5654660  72.2489500  45.4748540
  20.8281310  72.9698100  48.3536640  20.1379630  72.7770300  48.9882730
  21.5713610  73.2532740  48.8860940  11.5553310  70.8091590  39.3169980
  11.2666360  71.3794450  40.0294960  12.2999070  70.3296040  39.6801210
  11.7423540  74.7511710  30.5272700  11.6598210  75.6942470  30.6687690
  11.3906600  74.6086620  29.6485050  23.1044280  76.8096540  41.1890560
  22.3725400  77.3183350  41.5380660  22.7068620  75.9926520  40.8879340
  19.5421670  73.4850740  39.5943050  19.5457730  73.0440690  38.7447590
  20.4372790  73.8068070  39.7014870  15.3924050  73.3677230  38.5537260
  15.0524100  73.8452460  39.3104310  14.6301370  72.9142350  38.1938360
  19.6041820  74.4862820  32.5849810  19.7254640  74.4449300  33.5335630
  19.2190330  75.3486970  32.4296540  23.5670190  72.2630220  40.6013500
  23.5842930  72.7138870  41.4455350  23.3185770  71.3635860  40.8146940
  18.6163320  76.7963960  31.9833110  18.0480220  76.3482210  31.3569020
  19.3252320  77.1556740  31.4498260  13.6932500  80.6975980  45.8599840
  13.3087290  80.0569650  46.4582800  14.0044690  81.4012100  46.4294570
  19.8429640  77.5452520  41.3408460  20.2099770  77.0711090  42.0869800
  19.6534700  78.4194090  41.6816800  12.7070130  72.2896210  37.4701930
  12.4217050  71.9251880  38.3080550  12.6448990  71.5576670  36.8565070
  17.6329010  76.5861160  43.6592670  17.3286080  77.4653140  43.8843030
  18.5875470  76.6460950  43.6950110  16.1610800  80.7922150  34.2559520
  15.3873060  80.2519770  34.0958240  16.8905430  80.2728760  33.9177280
  26.9198780  79.7887510  40.0485910  27.6397900  80.2842800  39.6582020
  26.7180600  79.1105400  39.4039780  22.3808720  71.1825470  34.1915300
  21.5673330  70.6838640  34.1160610  22.1870670  72.0223720  33.7751650
  22.3017580  79.8596570  45.9354910  22.2354890  78.9392240  45.6812500
  21.6722720  79.9572010  46.6499550  25.0957110  75.5545120  32.4877460
  25.9836730  75.8662350  32.3128800  25.0662200  74.6817370  32.0958040
  16.2048200  80.4602530  37.8938330  16.7226870  79.6570790  37.8395220
  15.7532220  80.3981670  38.7355160  21.0917700  81.7268810  33.1665630
  21.4333400  82.4711040  32.6708950  20.2630410  82.0399930  33.5290460
  13.6892740  77.4263900  44.8064030  13.3307680  78.0917750  45.3937370
  13.3947300  76.5947450  45.1776650  16.8905860  77.8848140  47.6903580
  16.5906000  78.0305320  46.7931400  17.6617100  77.3253430  47.5976970
  27.3671380  76.8656960  31.9557320  27.2835100  77.2971180  31.1053760
  28.0865570  77.3255310  32.3884140  28.3958630  83.7199220  34.6839450
  27.7534790  83.0654840  34.9583170  28.0089290  84.1254310  33.9080120
  23.9745110  81.0484650  38.5311140  24.3268930  80.4512780  37.8712510
  23.0907440  80.7228880  38.7019390  20.0608390  81.8082340  35.9381550
  20.7479520  82.3551550  36.3189140  19.2740810  82.3523070  35.9731160
  12.2000790  77.4255160  31.4298630  13.0695640  77.7079960  31.7134550
  11.7091110  78.2391030  31.3147440  19.3635600  78.8128370  35.5506910
  19.8198380  79.6233620  35.7767100  19.0123810  78.4951510  36.3825400
  21.6668210  84.3234710  42.7799210  22.3110430  84.5294090  43.4572630
  22.0297650  83.5623110  42.3270060  15.2647380  69.1566020  36.0229430
  15.1362010  69.1483920  36.9714350  14.4409400  69.4949110  35.6720440
  22.9400290  82.3267060  41.4976660  23.5822520  81.6260220  41.6108830
  23.4649640  83.1065500  41.3173550  26.7856010  82.6115680  31.2215800
  26.5593590  81.8946120  31.8140440  26.3952210  82.3628120  30.3837550
  24.7137910  83.1261960  44.7012720  25.0494150  83.7128650  45.3790640
  23.7938250  82.9954670  44.9310510  12.5672040  86.6382540  31.9960260
  12.9269680  87.2371880  31.3417530  12.4264380  87.1842430  32.7695290
  12.2641310  70.9157140  45.4836130  11.5499830  71.1154060  46.0888740
  12.6836350  70.1396710  45.8550930  26.3672260  80.5287620  32.8829960
  26.0793960  80.9900310  33.6707840  27.1624430  80.0685390  33.1514180
  12.5513900  84.9037400  46.4702660  12.6605020  83.9632140  46.3298050
  11.8994460  85.1692150  45.8216390  18.5840660  84.0213740  32.8133930
  18.5750760  84.7543430  32.1978440  17.6639020  83.7745320  32.9060890
  14.1847300  79.2428630  33.5580690  13.5775250  79.9827530  33.5675990
  14.6596650  79.3327990  32.7318890  23.7580090  73.4079450  43.2337580
  24.1260910  72.5874660  43.5617150  22.8978290  73.4681340  43.6493230
  27.1242120  72.3636390  34.0425140  26.4955280  72.4682060  33.3283370
  26.6294040  72.5833170  34.8319020  21.5700260  84.0841980  31.4759120
  21.6712240  83.8805970  30.5461100  20.6702000  83.8300260  31.6806900
  19.0926150  74.6422340  35.4583020  18.3842300  75.1108680  35.8996630
  19.3770630  73.9844350  36.0928210  20.7182080  76.0619040  43.4575550
  21.2167330  76.5364860  44.1227400  20.8605030  75.1382560  43.6645580
  23.1241580  71.3673000  36.8978810  23.0009360  71.3859130  35.9488320
  24.0726140  71.4151940  37.0177210  20.2118370  86.6028300  36.1706790
  20.4659870  86.5649690  35.2486160  19.2630850  86.4761630  36.1635040
  17.2961170  72.9507420  32.8333730  18.1451700  73.3877570  32.7673920
  16.9292440  73.2627680  33.6605790  26.2170950  77.5220180  37.7465300
  25.2761090  77.5370410  37.9212990  26.5315020  76.7356140  38.1925600
  16.1952590  79.2039780  31.3069260  16.9615860  79.0921140  31.8694690
  16.2727280  78.5077750  30.6546030  14.8899350  76.6364850  31.9902150
  14.9702940  75.6892360  32.1019550  15.7819100  76.9671730  32.0962810
  28.2196530  84.6929030  39.4219560  28.3443950  85.5160200  39.8943370
  29.0862090  84.4819760  39.0743710  15.6914060  86.7860240  39.0936690
  16.4276540  86.2375700  39.3645260  16.0754980  87.6516250  38.9542680
  12.5759540  82.8533810  34.9678200  11.6499320  83.0954950  34.9583610
  13.0415970  83.6808070  34.8462950  14.6972340  85.9706310  48.2822270
  15.4985070  86.2918360  48.6957670  14.1824160  85.6101890  49.0042180
  18.8016370  85.9590550  30.9162260  19.5944980  86.2479380  30.4644050
  18.2820720  85.5282720  30.2374740  27.8546540  85.1860680  32.3399000
  27.5688050  84.7725820  31.5253180  27.6566090  86.1148390  32.2199520
  12.4170150  78.4579770  47.2258320  12.9209170  77.8787050  47.7974550
  11.6777570  78.7420000  47.7634690  19.3193770  81.1793960  30.7804610
  19.2144410  80.5646310  31.5065990  19.1517990  80.6559850  29.9967620
  19.4708090  79.8650760  46.7593840  18.7053760  80.4335760  46.6748510
  19.6524050  79.5726970  45.8662070  22.5596500  80.2413990  31.3846600
  22.0106600  80.6883290  32.0289340  23.1815760  79.7363240  31.9084270
  26.6131440  81.5956090  47.3168860  27.3540910  81.9331850  46.8136320
  25.8504120  81.7648150  46.7638630  14.4493230  76.6009360  48.1208390
  14.4898570  76.3023230  49.0293620  15.3038730  77.0016970  47.9615910
  18.2271620  79.2004910  33.2811900  18.6488040  79.0344780  34.1243290
  18.3522460  78.3905140  32.7867040  16.3899040  75.1801460  46.0882880
  15.8595500  74.6892410  45.4606220  17.0587110  75.6085660  45.5540810
  20.7399260  78.2242520  30.5289000  21.2604920  77.5091540  30.1630150
  21.3867660  78.8628390  30.8289510  16.8771340  72.1463830  46.1680170
  16.7828210  71.5284580  45.4431040  16.2968730  72.8730120  45.9410080
  19.6432780  70.7037070  43.2007560  19.1950080  70.7261330  42.3553110
  19.0097980  70.3056090  43.7977860  20.0492330  79.5991400  43.8220000
  20.4680440  80.4424130  43.6496240  19.1300960  79.7363440  43.5926780
  22.3856230  77.3307580  45.2057840  22.5052440  76.7348720  45.9452680
  23.2450230  77.3677270  44.7859140  17.1230520  75.2738140  30.2270060
  16.9219580  74.4105500  30.5883400  16.9522570  75.1871500  29.2891660
  17.8999750  85.9044410  44.9377730  17.3620840  86.6290470  44.6186430
  18.1533710  85.4274750  44.1475070  19.1525000  73.8728930  46.4633660
  19.7424690  73.5644780  47.1511480  18.3345240  73.4008680  46.6193560
  23.9718430  73.4894740  46.6966680  23.2833950  72.8276280  46.6316670
  24.6924450  73.0433010  47.1415140  24.6018830  70.0846370  32.7556940
  24.8821120  69.2414270  33.1116360  23.8284560  70.3169480  33.2695690
  15.9213320  72.3738760  30.2147940  16.2239220  72.3806190  29.3067090
  16.6607910  72.0236620  30.7115600  20.7561960  87.1395620  45.1964380
  20.6820660  88.0430760  45.5036750  19.8540800  86.8207520  45.1686450
  19.1398250  71.3173380  31.2004140  18.7920250  70.6397370  30.6206590
  19.3411020  70.8562890  32.0147530  21.3047290  86.3054130  32.8190740
  22.1998080  86.6439100  32.8409500  21.3364920  85.5833540  32.1915020
  14.9443450  81.6781180  31.0477740  15.3818320  82.2210850  31.7035320
  15.4291180  80.8528130  31.0574080  12.1589250  84.4670210  38.4998000
  12.4892260  83.5991270  38.2676640  12.5880250  84.6728730  39.3302960
  16.7551170  82.7979220  36.1599970  16.4546710  82.6744190  37.0603880
  16.6488660  81.9387810  35.7515700  12.6479460  85.3340800  41.2379630
  12.2110450  85.5141600  42.0703780  13.2157140  86.0915420  41.0961350
  28.2841640  84.8357800  45.5256940  27.6843630  84.8950360  44.7820860
  28.4135540  83.8962780  45.6553790  29.5243090  82.5775620  30.8626650
  28.6936050  82.6452270  31.3333880  29.7014920  83.4679740  30.5593510
  28.9799550  79.3223100  33.3660850  29.7418460  79.8919750  33.4720540
  28.9953920  78.7550300  34.1369160  12.4803890  77.8461030  37.5968510
  11.8252730  77.5772670  36.9528210  13.3181840  77.7365510  37.1470490
  29.9859520  80.1773200  38.2102780  30.3568350  79.3940520  37.8038750
  30.6261450  80.8662300  38.0320080  29.0318720  79.6157470  30.5233370
  29.3067560  80.5236350  30.3952590  28.8429460  79.5520000  31.4595360
  25.4294330  72.6402320  31.8187000  25.8479210  72.4533300  30.9783660
  25.1230390  71.7881370  32.1289930  28.9284060  77.5526460  35.5162800
  28.5527660  76.7854390  35.0844090  28.1987180  77.9349160  36.0037730
  13.5179820  78.2313600  42.1371850  13.8852860  78.1441000  43.0167870
  12.9490640  77.4680150  42.0378710  13.0695820  75.1422690  46.0430270
  12.1751870  75.1089450  46.3823980  13.6093370  75.3409480  46.8081520
  11.6941970  75.0559960  33.5393840  10.7906050  75.3190160  33.3645500
  12.1782590  75.3271130  32.7593800  28.2035020  75.7783950  38.8170040
  28.7272500  75.2846600  38.1860210  28.7894440  75.9134310  39.5617610
  14.2369180  74.1125500  31.4488220  14.9460880  73.6908720  30.9635500
  13.5209120  74.1800730  30.8171570  13.8843340  70.1664830  30.4890870
  14.6071470  70.7073770  30.8072090  14.1567860  69.8928250  29.6132410
  27.6934990  75.0357300  34.7562450  28.1894110  74.8028170  35.5411330
  27.4951060  74.1969140  34.3400090  13.5735530  69.4171020  40.3913490
  14.2211720  68.8668400  39.9508650  13.9937370  69.6714170  41.2129300
  29.1222150  73.6718250  37.2900130  29.0121430  73.5174290  38.2282400
  29.8829740  73.1439190  37.0475540  30.0112420  71.5026170  30.5306270
  30.9361730  71.3707350  30.3224560  29.9888210  71.5818990  31.4842720
  30.0850910  72.2736830  33.1562980  29.2902410  72.2081950  33.6855890
  30.2894190  73.2087470  33.1448330  27.0269330  86.3128380  37.1501370
  27.6228400  85.9912950  36.4735790  27.2847480  85.8400200  37.9414640
  13.3267530  69.5726690  43.1338810  12.9782350  70.0290510  43.8996990
  12.9955230  68.6783820  43.2161240  14.9331900  82.7446290  47.2992000
  14.8901530  82.3739200  48.1806460  15.0642910  83.6823860  47.4393820
  18.6337930  84.3005880  42.9001720  18.3929290  84.5680440  42.0132240
  19.5740570  84.4711610  42.9552580  20.8392350  70.7638570  46.6558230
  20.7781240  71.3560400  47.4053640  21.7792730  70.6564530  46.5108490
  13.9988170  69.1002890  46.4089580  14.5471160  68.9190940  45.6455690
  14.0643480  68.3097000  46.9445890  14.7719930  85.6908540  44.4189780
  14.1780250  85.5593240  45.1579820  14.7643770  84.8546680  43.9531880
  27.5781540  86.9623680  40.9799100  27.1184510  87.7139490  40.6057120
  26.9494000  86.2430150  40.9213900  14.4032160  83.0566920  43.3697820
  13.6766220  82.4372210  43.3023770  14.4641310  83.4507530  42.4995900
  18.0077260  85.2711920  40.1547230  18.5242280  84.6599280  39.6295490
  18.6574640  85.7740700  40.6458240  20.7472760  86.1620410  40.9816210
  21.0350570  85.9074710  40.1049220  21.2595980  85.6097770  41.5721780
  21.9649770  69.9010610  41.5612720  21.1821560  70.3756110  41.8409480
  21.6712700  68.9965440  41.4525900  12.6862160  86.3741310  36.5794580
  12.5184200  85.7411990  37.2776470  11.8196670  86.5800710  36.2288770
  13.3090180  70.2058090  34.0826440  14.0669540  70.3186970  33.5090470
  12.8467350  71.0427290  34.0369870  19.8503990  72.3197360  37.0728750
  19.0378500  71.9454250  36.7324630  20.3545630  71.5642440  37.3749940
  27.4963570  69.3861370  33.5852100  27.6914200  70.2844820  33.8519530
  26.7093440  69.1548450  34.0785050  14.2924860  85.0674540  34.0244720
  13.7672480  85.4482570  33.3206680  14.2169440  85.6925310  34.7454430
  15.6815330  70.7322140  32.6228410  16.2108090  69.9451940  32.4936360
  16.3143650  71.4113330  32.8563940  17.8753170  70.4697280  35.6773800
  17.2455910  69.7684590  35.8443930  17.3358310  71.2301410  35.4606960
  29.0490180  86.6262080  35.3458660  29.2242370  85.9399820  34.7019580
  28.3511750  87.1509130  34.9535330  18.0008730  69.7481260  48.1126290
  17.7193000  70.2514860  47.3487110  18.3828430  68.9503010  47.7468420
  16.8917830  87.0156920  32.8993970  17.6236650  86.7316200  32.3517860
  17.1511500  86.7770200  33.7893350  16.0532620  83.1321650  32.9040300
  15.4241500  83.6006750  33.4526130  16.1680450  82.2870870  33.3386490
  23.5082340  77.1827310  19.0541500  23.4276390  76.2681920  18.7833210
  23.0946760  77.6794380  18.3481210  21.6400380  78.9606330  20.9350770
  20.8642480  78.4806770  21.2249340  22.2913310  78.2811980  20.7606930
  15.6566210  79.2726140  21.8126530  14.8251090  79.0174850  22.2123040
  16.2647190  79.3436910  22.5484450  25.6607810  83.3666520  19.7149900
  25.1989340  82.5953760  20.0437070  26.4733360  83.3932590  20.2202350
  15.6367470  83.3066230  22.0084550  15.9395510  82.4163970  21.8294770
  16.3811060  83.8636450  21.7806800  14.0658160  74.2328030  15.5968920
  13.1774860  74.5744000  15.4948800  14.3499350  74.0328350  14.7049750
  12.0291170  76.8333680  21.4808620  12.6007280  76.0655880  21.4812260
  12.0292710  77.1322440  20.5715230  21.8871120  85.6524530  19.3353890
  21.2682560  86.1082030  18.7648330  22.7422900  85.8075990  18.9343590
  21.0809370  81.6363520  20.9420930  21.0117650  80.6953460  20.7810060
  21.8429230  81.7264930  21.5143500  13.2716040  72.2418040  23.2677550
  13.0918880  71.3443790  23.5480310  12.8696120  72.7889910  23.9424500
  22.1114540  74.4433900  21.1689860  22.4879360  73.5705780  21.0563530
  22.0134050  74.7792600  20.2780300  16.2419550  72.8159530  16.6307300
  16.3486300  73.7163260  16.9376060  15.3311910  72.7677500  16.3401950
  25.8938660  71.9384340  18.1018200  26.7148280  71.4480910  18.1443680
  25.9272740  72.5282000  18.8550040  13.8902710  74.7378540  21.8759890
  14.5712820  75.0016910  22.4947290  13.5750760  73.8979410  22.2097900
  18.0827280  75.7845900  20.9632480  18.5905500  76.2826870  21.6037500
  18.6140520  75.0081100  20.7871840  30.1838210  73.9551090  24.6661830
  29.4790380  74.3432800  24.1476940  30.4496130  74.6501380  25.2682760
  16.3663380  70.4244460  25.2295900  16.3681820  70.9416850  24.4241800
  15.5367690  69.9474640  25.2065830  22.7534470  80.5363770  16.7285800
  22.1351740  81.0013220  16.1648520  23.2657720  81.2291250  17.1455310
  17.6166230  80.0639640  23.4069400  17.2835610  80.6908560  24.0490470
  17.7932910  80.5901520  22.6271070  26.1300140  73.8784720  20.8745740
  25.4255710  74.1669610  21.4548850  26.4912300  74.6884830  20.5145300
  16.0478710  72.1354420  23.2366350  16.3895520  72.9796470  22.9420220
  15.1094520  72.2838160  23.3531690  16.8285330  82.0320440  25.2218580
  17.4459330  82.7071520  24.9403030  15.9678450  82.4408420  25.1306080
  12.1217670  81.2220300  14.1025430  11.7445650  81.7107400  13.3710330
  12.3790740  81.8945580  14.7331960  27.7462920  83.4959850  23.1373220
  27.0626440  84.1658960  23.1289890  28.2857210  83.6940500  22.3718080
  29.1987060  73.3239510  21.2654950  28.2511970  73.3578490  21.3970380
  29.5237050  74.1378460  21.6504310  19.7306600  69.6236690  19.5610940
  20.0381580  69.0683580  18.8446440  18.8007300  69.7581150  19.3783930
  25.2821660  85.3403980  21.8518400  25.2948820  84.9366270  20.9840660
  24.7296880  86.1151270  21.7479830  26.5767080  82.0620200  16.9408570
  26.4663410  81.1194530  17.0657990  26.5735330  82.4235840  17.8271330
  24.6807100  80.2433820  23.1801010  25.0975890  80.0293930  22.3454470
  25.4046920  80.5006610  23.7509630  22.1187360  77.6885520  16.2971060
  21.1916640  77.6222900  16.5259530  22.2712180  78.6265650  16.1826300
  22.1056440  73.9602520  13.2938220  21.1660110  74.1216480  13.3790680
  22.4239700  74.6788200  12.7474210  28.6269200  78.6421040  23.2717250
  27.7987830  78.7114130  22.7967380  29.2219680  79.2275350  22.8033080
  26.1484650  79.2505820  16.8006310  25.5297070  78.9125370  16.1532610
  26.1309100  78.6065580  17.5085500  25.5911210  75.4290360  24.2172120
  25.1782390  76.2544070  24.4712110  24.8587160  74.8435400  24.0248480
  17.7244000  78.2150260  19.0790790  17.3201000  77.5027510  18.5836690
  17.8107120  77.8703500  19.9678830  18.1925700  81.9017820  21.2430000
  17.8953990  81.2963290  20.5637780  19.1425520  81.9395130  21.1319360
  16.4372620  74.9893470  22.8589830  16.9887210  75.0988810  22.0843080
  16.9516130  75.3631070  23.5745060  26.2811310  85.4749690  24.9053100
  25.8041870  86.2821880  24.7125710  25.5973100  84.8228020  25.0579310
  17.2844130  81.6399510  27.8937800  16.3872660  81.8639480  28.1411200
  17.3097000  81.7634450  26.9449200  24.3249350  78.4892630  13.8079060
  24.7642630  77.6515060  13.6616880  25.0377770  79.1222030  13.8943200
  16.1115350  78.5112830  26.4695170  15.9723120  79.3835630  26.8382570
  15.2296710  78.1685640  26.3243110  22.4344730  83.4288700  17.7760300
  22.8740640  84.1713030  17.3615690  22.3731620  83.6715270  18.6999260
  17.9095700  84.4534530  28.6780320  17.8811130  84.8577480  27.8108750
  17.7460670  83.5244890  28.5151920  27.9066490  69.7435440  12.1220100
  27.5939150  69.8362270  13.0219170  28.6678960  70.3216470  12.0717530
  14.4248630  77.1095240  16.5797440  14.3046230  77.8357330  15.9678710
  14.1149520  76.3398150  16.1025350  29.8610520  85.2361630  29.9744490
  30.3370240  85.7144520  30.6533570  30.4817680  85.1679120  29.2489990
  12.0634000  80.2810380  22.3866080  12.1414420  80.4159150  21.4421800
  12.6775680  79.5726270  22.5794200  13.3081630  81.9810570  18.7972260
  12.9009710  82.1225160  17.9425860  14.1994640  81.6970730  18.5943470
  29.2643770  82.4274480  27.1344500  29.3906830  82.1886360  26.2161680
  29.3065150  81.5959020  27.6066580  23.1260510  86.1302480  25.7039310
  23.6405180  86.0410490  26.5061740  22.2829590  86.4762180  25.9967220
  25.1014910  86.4157820  15.1323310  24.9416050  86.1260760  16.0305140
  24.9361620  85.6397950  14.5968540  17.5803290  86.1956350  16.9094930
  17.4045770  85.2791890  16.6962730  16.7259030  86.5543640  17.1492730
  24.8041040  83.9245380  13.6921310  24.1106200  83.9222670  13.0323590
  25.5463900  83.5004700  13.2615480  24.3690970  85.5508090  17.7669800
  24.8247920  84.7697470  18.0808420  24.7083490  86.2614910  18.3110980
  29.1167780  74.4806940  28.0994240  28.5012050  74.9886610  27.5709700
  28.7964200  73.5805270  28.0420180  12.1193520  81.3224550  24.9260540
  12.2824560  80.8529910  24.1079910  12.5845970  80.8148110  25.5909380
  16.8912290  70.4530310  19.9621110  16.4480440  71.2339850  19.6305630
  17.4497280  70.7760200  20.6692050  21.1782100  73.3198830  25.5656430
  20.7161470  73.5281850  26.3776370  20.7760210  72.5058180  25.2627100
  26.1786610  74.5407780  26.6953090  25.3280200  74.2413530  27.0162160
  26.0188400  74.7849790  25.7836910  23.2736320  76.0409530  28.7951880
  23.5989730  75.2073280  28.4554110  24.0616650  76.5638050  28.9430210
  20.0071110  70.0741010  14.8426940  19.3825290  70.0700880  15.5680250
  19.9201230  69.2071970  14.4462910  18.9288190  70.9977640  21.8210710
  19.2260520  71.9040470  21.7402730  19.4773750  70.5096420  21.2070280
  16.6826510  75.5763880  17.6902360  16.4567430  75.3601050  18.5948980
  15.9019040  76.0092340  17.3448330  23.9124270  75.5827250  16.2893010
  23.3133160  76.3063050  16.1056630  24.4603880  75.5204030  15.5069460
  19.1225720  76.4749460  28.3562630  19.0269320  75.5344190  28.2063030
  19.9657700  76.6964530  27.9610700  22.5189140  74.2190790  18.3196290
  22.9118710  74.5362990  17.5064980  22.8805990  73.3402670  18.4340810
  14.2536260  72.8863130  26.5096410  13.8599650  73.7338340  26.7169190
  13.5654660  72.2489500  26.7005050  20.8281310  72.9698100  29.5793150
  20.1379630  72.7770300  30.2139240  21.5713610  73.2532740  30.1117450
  11.5553310  70.8091590  20.5426490  11.2666360  71.3794450  21.2551470
  12.2999070  70.3296040  20.9057720  11.7423540  74.7511710  11.7529210
  11.6598210  75.6942470  11.8944200  11.3906600  74.6086620  10.8741560
  23.1044280  76.8096540  22.4147070  22.3725400  77.3183350  22.7637170
  22.7068620  75.9926520  22.1135850  19.5421670  73.4850740  20.8199560
  19.5457730  73.0440690  19.9704100  20.4372790  73.8068070  20.9271380
  15.3924050  73.3677230  19.7793770  15.0524100  73.8452460  20.5360820
  14.6301370  72.9142350  19.4194870  19.6041820  74.4862820  13.8106320
  19.7254640  74.4449300  14.7592140  19.2190330  75.3486970  13.6553050
  23.5670190  72.2630220  21.8270010  23.5842930  72.7138870  22.6711860
  23.3185770  71.3635860  22.0403450  18.6163320  76.7963960  13.2089620
  18.0480220  76.3482210  12.5825530  19.3252320  77.1556740  12.6754770
  26.9940940  69.6762400  27.6656390  27.3186710  68.9452060  28.1914370
  27.0297450  69.3576040  26.7637380  13.6932500  80.6975980  27.0856350
  13.3087290  80.0569650  27.6839310  14.0044690  81.4012100  27.6551080
  19.8429640  77.5452520  22.5664970  20.2099770  77.0711090  23.3126310
  19.6534700  78.4194090  22.9073310  12.7070130  72.2896210  18.6958440
  12.4217050  71.9251880  19.5337060  12.6448990  71.5576670  18.0821580
  17.6329010  76.5861160  24.8849180  17.3286080  77.4653140  25.1099540
  18.5875470  76.6460950  24.9206620  16.1610800  80.7922150  15.4816030
  15.3873060  80.2519770  15.3214750  16.8905430  80.2728760  15.1433790
  26.9198780  79.7887510  21.2742420  27.6397900  80.2842800  20.8838530
  26.7180600  79.1105400  20.6296290  22.3808720  71.1825470  15.4171810
  21.5673330  70.6838640  15.3417120  22.1870670  72.0223720  15.0008160
  22.3017580  79.8596570  27.1611420  22.2354890  78.9392240  26.9069010
  21.6722720  79.9572010  27.8756060  25.0957110  75.5545120  13.7133970
  25.9836730  75.8662350  13.5385310  25.0662200  74.6817370  13.3214550
  16.2048200  80.4602530  19.1194840  16.7226870  79.6570790  19.0651730
  15.7532220  80.3981670  19.9611670  21.0917700  81.7268810  14.3922140
  21.4333400  82.4711040  13.8965460  20.2630410  82.0399930  14.7546970
  13.6892740  77.4263900  26.0320540  13.3307680  78.0917750  26.6193880
  13.3947300  76.5947450  26.4033160  16.8905860  77.8848140  28.9160090
  16.5906000  78.0305320  28.0187910  17.6617100  77.3253430  28.8233480
  22.2334310  82.6817140  26.9115220  22.2478850  81.7498100  26.6934130
  21.5259410  82.7676900  27.5504990  27.3671380  76.8656960  13.1813830
  27.2835100  77.2971180  12.3310270  28.0865570  77.3255310  13.6140650
  28.4445520  79.3224480  26.2583800  27.7193710  79.9153260  26.0613190
  28.9720980  79.3148020  25.4597170  28.3958630  83.7199220  15.9095960
  27.7534790  83.0654840  16.1839680  28.0089290  84.1254310  15.1336630
  23.9745110  81.0484650  19.7567650  24.3268930  80.4512780  19.0969020
  23.0907440  80.7228880  19.9275900  20.0608390  81.8082340  17.1638060
  20.7479520  82.3551550  17.5445650  19.2740810  82.3523070  17.1987670
  12.2000790  77.4255160  12.6555140  13.0695640  77.7079960  12.9391060
  11.7091110  78.2391030  12.5403950  19.3635600  78.8128370  16.7763420
  19.8198380  79.6233620  17.0023610  19.0123810  78.4951510  17.6081910
  21.6668210  84.3234710  24.0055720  22.3110430  84.5294090  24.6829140
  22.0297650  83.5623110  23.5526570  15.2647380  69.1566020  17.2485940
  15.1362010  69.1483920  18.1970860  14.4409400  69.4949110  16.8976950
  22.9400290  82.3267060  22.7233170  23.5822520  81.6260220  22.8365340
  23.4649640  83.1065500  22.5430060  26.7856010  82.6115680  12.4472310
  26.5593590  81.8946120  13.0396950  26.3952210  82.3628120  11.6094060
  24.7137910  83.1261960  25.9269230  25.0494150  83.7128650  26.6047150
  23.7938250  82.9954670  26.1567020  12.5672040  86.6382540  13.2216770
  12.9269680  87.2371880  12.5674040  12.4264380  87.1842430  13.9951800
  12.2641310  70.9157140  26.7092640  11.5499830  71.1154060  27.3145250
  12.6836350  70.1396710  27.0807440  26.3672260  80.5287620  14.1086470
  26.0793960  80.9900310  14.8964350  27.1624430  80.0685390  14.3770690
  12.5513900  84.9037400  27.6959170  12.6605020  83.9632140  27.5554560
  11.8994460  85.1692150  27.0472900  20.5426490  83.1753290  29.0957290
  20.2223360  82.4562530  29.6402980  19.8684850  83.8508360  29.1693350
  18.5840660  84.0213740  14.0390440  18.5750760  84.7543430  13.4234950
  17.6639020  83.7745320  14.1317400  14.1847300  79.2428630  14.7837200
  13.5775250  79.9827530  14.7932500  14.6596650  79.3327990  13.9575400
  23.7580090  73.4079450  24.4594090  24.1260910  72.5874660  24.7873660
  22.8978290  73.4681340  24.8749740  27.1242120  72.3636390  15.2681650
  26.4955280  72.4682060  14.5539880  26.6294040  72.5833170  16.0575530
  21.5700260  84.0841980  12.7015630  21.6712240  83.8805970  11.7717610
  20.6702000  83.8300260  12.9063410  19.0926150  74.6422340  16.6839530
  18.3842300  75.1108680  17.1253140  19.3770630  73.9844350  17.3184720
  20.7182080  76.0619040  24.6832060  21.2167330  76.5364860  25.3483910
  20.8605030  75.1382560  24.8902090  23.1241580  71.3673000  18.1235320
  23.0009360  71.3859130  17.1744830  24.0726140  71.4151940  18.2433720
  20.2118370  86.6028300  17.3963300  20.4659870  86.5649690  16.4742670
  19.2630850  86.4761630  17.3891550  17.2961170  72.9507420  14.0590240
  18.1451700  73.3877570  13.9930430  16.9292440  73.2627680  14.8862300
  27.9248940  72.2787000  25.5260450  27.4222540  73.0192400  25.8654260
  28.7405600  72.6671000  25.2097240  26.2170950  77.5220180  18.9721810
  25.2761090  77.5370410  19.1469500  26.5315020  76.7356140  19.4182110
  16.1952590  79.2039780  12.5325770  16.9615860  79.0921140  13.0951200
  16.2727280  78.5077750  11.8802540  14.8899350  76.6364850  13.2158660
  14.9702940  75.6892360  13.3276060  15.7819100  76.9671730  13.3219320
  28.2196530  84.6929030  20.6476070  28.3443950  85.5160200  21.1199880
  29.0862090  84.4819760  20.3000220  15.6914060  86.7860240  20.3193200
  16.4276540  86.2375700  20.5901770  16.0754980  87.6516250  20.1799190
  12.5759540  82.8533810  16.1934710  11.6499320  83.0954950  16.1840120
  13.0415970  83.6808070  16.0719460  14.6972340  85.9706310  29.5078780
  15.4985070  86.2918360  29.9214180  14.1824160  85.6101890  30.2298690
  18.8016370  85.9590550  12.1418770  19.5944980  86.2479380  11.6900560
  18.2820720  85.5282720  11.4631250  23.5336970  82.0786180  29.4554190
  22.9275130  82.1017780  28.7149940  23.2291080  81.3469220  29.9921440
  24.9637340  85.8066470  28.0663600  25.9159090  85.7224490  28.0163840
  24.8165560  86.4708180  28.7397390  27.8546540  85.1860680  13.5655510
  27.5688050  84.7725820  12.7509690  27.6566090  86.1148390  13.4456030
  12.4170150  78.4579770  28.4514830  12.9209170  77.8787050  29.0231060
  11.6777570  78.7420000  28.9891200  19.3193770  81.1793960  12.0061120
  19.2144410  80.5646310  12.7322500  19.1517990  80.6559850  11.2224130
  19.4708090  79.8650760  27.9850350  18.7053760  80.4335760  27.9005020
  19.6524050  79.5726970  27.0918580  22.5596500  80.2413990  12.6103110
  22.0106600  80.6883290  13.2545850  23.1815760  79.7363240  13.1340780
  26.6131440  81.5956090  28.5425370  27.3540910  81.9331850  28.0392830
  25.8504120  81.7648150  27.9895140  14.4493230  76.6009360  29.3464900
  14.4898570  76.3023230  30.2550130  15.3038730  77.0016970  29.1872420
  18.2271620  79.2004910  14.5068410  18.6488040  79.0344780  15.3499800
  18.3522460  78.3905140  14.0123550  16.3899040  75.1801460  27.3139390
  15.8595500  74.6892410  26.6862730  17.0587110  75.6085660  26.7797320
  20.7399260  78.2242520  11.7545510  21.2604920  77.5091540  11.3886660
  21.3867660  78.8628390  12.0546020  25.2877100  79.6470920  27.0780580
  25.7018120  79.8016000  27.9271000  24.3528100  79.7726140  27.2406360
  25.7599270  76.9867080  29.0819730  26.3420040  76.2319400  28.9940210
  25.9361040  77.5174520  28.3051210  16.8771340  72.1463830  27.3936680
  16.7828210  71.5284580  26.6687550  16.2968730  72.8730120  27.1666590
  19.6432780  70.7037070  24.4264070  19.1950080  70.7261330  23.5809620
  19.0097980  70.3056090  25.0234370  20.0492330  79.5991400  25.0476510
  20.4680440  80.4424130  24.8752750  19.1300960  79.7363440  24.8183290
  22.3856230  77.3307580  26.4314350  22.5052440  76.7348720  27.1709190
  23.2450230  77.3677270  26.0115650  24.7244130  77.8844770  25.0076860
  24.1979350  78.4087390  24.4042000  25.0675470  78.5172160  25.6386590
  17.1230520  75.2738140  11.4526570  16.9219580  74.4105500  11.8139910
  16.9522570  75.1871500  10.5148170  17.8999750  85.9044410  26.1634240
  17.3620840  86.6290470  25.8442940  18.1533710  85.4274750  25.3731580
  19.1525000  73.8728930  27.6890170  19.7424690  73.5644780  28.3767990
  18.3345240  73.4008680  27.8450070  23.9718430  73.4894740  27.9223190
  23.2833950  72.8276280  27.8573180  24.6924450  73.0433010  28.3671650
  24.6018830  70.0846370  13.9813450  24.8821120  69.2414270  14.3372870
  23.8284560  70.3169480  14.4952200  15.9213320  72.3738760  11.4404450
  16.2239220  72.3806190  10.5323600  16.6607910  72.0236620  11.9372110
  20.7561960  87.1395620  26.4220890  20.6820660  88.0430760  26.7293260
  19.8540800  86.8207520  26.3942960  19.1398250  71.3173380  12.4260650
  18.7920250  70.6397370  11.8463100  19.3411020  70.8562890  13.2404040
  21.3047290  86.3054130  14.0447250  22.1998080  86.6439100  14.0666010
  21.3364920  85.5833540  13.4171530  14.9443450  81.6781180  12.2734250
  15.3818320  82.2210850  12.9291830  15.4291180  80.8528130  12.2830590
  12.1589250  84.4670210  19.7254510  12.4892260  83.5991270  19.4933150
  12.5880250  84.6728730  20.5559470  16.7551170  82.7979220  17.3856480
  16.4546710  82.6744190  18.2860390  16.6488660  81.9387810  16.9772210
  12.6479460  85.3340800  22.4636140  12.2110450  85.5141600  23.2960290
  13.2157140  86.0915420  22.3217860  28.2841640  84.8357800  26.7513450
  27.6843630  84.8950360  26.0077370  28.4135540  83.8962780  26.8810300
  29.5243090  82.5775620  12.0883160  28.6936050  82.6452270  12.5590390
  29.7014920  83.4679740  11.7850020  28.9799550  79.3223100  14.5917360
  29.7418460  79.8919750  14.6977050  28.9953920  78.7550300  15.3625670
  12.4803890  77.8461030  18.8225020  11.8252730  77.5772670  18.1784720
  13.3181840  77.7365510  18.3727000  29.9859520  80.1773200  19.4359290
  30.3568350  79.3940520  19.0295260  30.6261450  80.8662300  19.2576590
  26.9693280  81.5609780  24.8489610  26.1553120  81.9906940  25.1115400
  27.3767480  82.1728190  24.2358660  29.0318720  79.6157470  11.7489880
  29.3067560  80.5236350  11.6209100  28.8429460  79.5520000  12.6851870
  25.4294330  72.6402320  13.0443510  25.8479210  72.4533300  12.2040170
  25.1230390  71.7881370  13.3546440  28.9284060  77.5526460  16.7419310
  28.5527660  76.7854390  16.3100600  28.1987180  77.9349160  17.2294240
  13.5179820  78.2313600  23.3628360  13.8852860  78.1441000  24.2424380
  12.9490640  77.4680150  23.2635220  28.3183680  76.6997980  26.3758830
  28.0869770  76.4710730  25.4756780  28.5788230  77.6197530  26.3303720
  13.0695820  75.1422690  27.2686780  12.1751870  75.1089450  27.6080490
  13.6093370  75.3409480  28.0338030  26.7571750  71.9254410  29.1538530
  27.6341930  71.9337810  29.5372530  26.7692590  71.1885250  28.5430880
  11.6941970  75.0559960  14.7650350  10.7906050  75.3190160  14.5902010
  12.1782590  75.3271130  13.9850310  28.2035020  75.7783950  20.0426550
  28.7272500  75.2846600  19.4116720  28.7894440  75.9134310  20.7874120
  28.3824740  75.8623820  23.5646100  27.4327450  75.8287360  23.6791090
  28.5637750  76.7723930  23.3295870  14.2369180  74.1125500  12.6744730
  14.9460880  73.6908720  12.1892010  13.5209120  74.1800730  12.0428080
  13.8843340  70.1664830  11.7147380  14.6071470  70.7073770  12.0328600
  14.1567860  69.8928250  10.8388920  27.6934990  75.0357300  15.9818960
  28.1894110  74.8028170  16.7667840  27.4951060  74.1969140  15.5656600
  13.5735530  69.4171020  21.6170000  14.2211720  68.8668400  21.1765160
  13.9937370  69.6714170  22.4385810  29.1222150  73.6718250  18.5156640
  29.0121430  73.5174290  19.4538910  29.8829740  73.1439190  18.2732050
  27.4687870  69.6112380  24.9739640  28.1060090  70.2246520  25.3398830
  27.6162760  69.6473040  24.0288870  30.0112420  71.5026170  11.7562780
  30.9361730  71.3707350  11.5481070  29.9888210  71.5818990  12.7099230
  30.0850910  72.2736830  14.3819490  29.2902410  72.2081950  14.9112400
  30.2894190  73.2087470  14.3704840  27.0269330  86.3128380  18.3757880
  27.6228400  85.9912950  17.6992300  27.2847480  85.8400200  19.1671150
  13.3267530  69.5726690  24.3595320  12.9782350  70.0290510  25.1253500
  12.9955230  68.6783820  24.4417750  14.9331900  82.7446290  28.5248510
  14.8901530  82.3739200  29.4062970  15.0642910  83.6823860  28.6650330
  18.6337930  84.3005880  24.1258230  18.3929290  84.5680440  23.2388750
  19.5740570  84.4711610  24.1809090  20.8392350  70.7638570  27.8814740
  20.7781240  71.3560400  28.6310150  21.7792730  70.6564530  27.7365000
  23.4766910  70.4208630  27.5207030  24.0907320  70.7387920  26.8588110
  24.0216470  69.9357220  28.1402890  29.8942090  86.3200260  24.9268870
  29.4000370  86.7169130  24.2096000  29.2855380  85.6949470  25.3206150
  13.9988170  69.1002890  27.6346090  14.5471160  68.9190940  26.8712200
  14.0643480  68.3097000  28.1702400  14.7719930  85.6908540  25.6446290
  14.1780250  85.5593240  26.3836330  14.7643770  84.8546680  25.1788390
  24.2174950  68.9840770  23.8476320  23.3434790  69.3175880  23.6449250
  24.1085700  68.5113950  24.6728190  25.1246930  71.1911640  25.2318040
  24.7960290  70.3763400  24.8519770  26.0729230  71.1481450  25.1083730
  27.5781540  86.9623680  22.2055610  27.1184510  87.7139490  21.8313630
  26.9494000  86.2430150  22.1470410  14.4032160  83.0566920  24.5954330
  13.6766220  82.4372210  24.5280280  14.4641310  83.4507530  23.7252410
  18.0077260  85.2711920  21.3803740  18.5242280  84.6599280  20.8552000
  18.6574640  85.7740700  21.8714750  20.7472760  86.1620410  22.2072720
  21.0350570  85.9074710  21.3305730  21.2595980  85.6097770  22.7978290
  21.9649770  69.9010610  22.7869230  21.1821560  70.3756110  23.0665990
  21.6712700  68.9965440  22.6782410  26.5170840  70.6033710  20.8318320
  26.9578930  70.5478810  19.9839920  26.2478430  71.5191720  20.9028500
  28.3809410  70.2348950  18.8427140  28.3197810  69.2910170  18.6958160
  29.1601440  70.3429040  19.3880600  12.6862160  86.3741310  17.8051090
  12.5184200  85.7411990  18.5032980  11.8196670  86.5800710  17.4545280
  13.3090180  70.2058090  15.3082950  14.0669540  70.3186970  14.7346980
  12.8467350  71.0427290  15.2626380  19.8503990  72.3197360  18.2985260
  19.0378500  71.9454250  17.9581140  20.3545630  71.5642440  18.6006450
  24.3528970  68.9839810  19.5368330  24.9558340  69.5560020  20.0116850
  23.6121960  69.5479250  19.3142230  27.4963570  69.3861370  14.8108610
  27.6914200  70.2844820  15.0776040  26.7093440  69.1548450  15.3041560
  14.2924860  85.0674540  15.2501230  13.7672480  85.4482570  14.5463190
  14.2169440  85.6925310  15.9710940  15.6815330  70.7322140  13.8484920
  16.2108090  69.9451940  13.7192870  16.3143650  71.4113330  14.0820450
  17.8753170  70.4697280  16.9030310  17.2455910  69.7684590  17.0700440
  17.3358310  71.2301410  16.6863470  20.8145120  87.0836510  29.5740920
  21.7412430  86.8480780  29.6176880  20.7995550  87.9108510  29.0926950
  29.0490180  86.6262080  16.5715170  29.2242370  85.9399820  15.9276090
  28.3511750  87.1509130  16.1791840  18.0008730  69.7481260  29.3382800
  17.7193000  70.2514860  28.5743620  18.3828430  68.9503010  28.9724930
  16.8917830  87.0156920  14.1250480  17.6236650  86.7316200  13.5774370
  17.1511500  86.7770200  15.0149860  16.0532620  83.1321650  14.1296810
  15.4241500  83.6006750  14.6782640  16.1680450  82.2870870  14.5643000
  24.6024190  69.1634840  29.9163270  24.4889640  69.4829450  30.8114790
  25.4193930  69.5647350  29.6200550  27.3822680  86.3106370  29.3981960
  28.1748000  85.8155600  29.1907920  27.6755830  86.9896510  30.0057570
  21.6400380  78.9606330   2.1607280  20.8642480  78.4806770   2.4505850
  22.2913310  78.2811980   1.9863440  15.6566210  79.2726140   3.0383040
  14.8251090  79.0174850   3.4379550  16.2647190  79.3436910   3.7740960
  15.6367470  83.3066230   3.2341060  15.9395510  82.4163970   3.0551280
  16.3811060  83.8636450   3.0063310  12.0291170  76.8333680   2.7065130
  12.6007280  76.0655880   2.7068770  12.0292710  77.1322440   1.7971740
  21.0809370  81.6363520   2.1677440  21.0117650  80.6953460   2.0066570
  21.8429230  81.7264930   2.7400010  13.2716040  72.2418040   4.4934060
  13.0918880  71.3443790   4.7736820  12.8696120  72.7889910   5.1681010
  13.8902710  74.7378540   3.1016400  14.5712820  75.0016910   3.7203800
  13.5750760  73.8979410   3.4354410  18.0827280  75.7845900   2.1888990
  18.5905500  76.2826870   2.8294010  18.6140520  75.0081100   2.0128350
  30.1838210  73.9551090   5.8918340  29.4790380  74.3432800   5.3733450
  30.4496130  74.6501380   6.4939270  16.3663380  70.4244460   6.4552410
  16.3681820  70.9416850   5.6498310  15.5367690  69.9474640   6.4322340
  17.6166230  80.0639640   4.6325910  17.2835610  80.6908560   5.2746980
  17.7932910  80.5901520   3.8527580  26.1300140  73.8784720   2.1002250
  25.4255710  74.1669610   2.6805360  26.4912300  74.6884830   1.7401810
  16.0478710  72.1354420   4.4622860  16.3895520  72.9796470   4.1676730
  15.1094520  72.2838160   4.5788200  16.8285330  82.0320440   6.4475090
  17.4459330  82.7071520   6.1659540  15.9678450  82.4408420   6.3562590
  27.7462920  83.4959850   4.3629730  27.0626440  84.1658960   4.3546400
  28.2857210  83.6940500   3.5974590  29.1987060  73.3239510   2.4911460
  28.2511970  73.3578490   2.6226890  29.5237050  74.1378460   2.8760820
  25.2821660  85.3403980   3.0774910  25.2948820  84.9366270   2.2097170
  24.7296880  86.1151270   2.9736340  24.6807100  80.2433820   4.4057520
  25.0975890  80.0293930   3.5710980  25.4046920  80.5006610   4.9766140
  28.6269200  78.6421040   4.4973760  27.7987830  78.7114130   4.0223890
  29.2219680  79.2275350   4.0289590  25.5911210  75.4290360   5.4428630
  25.1782390  76.2544070   5.6968620  24.8587160  74.8435400   5.2504990
  18.1925700  81.9017820   2.4686510  17.8953990  81.2963290   1.7894290
  19.1425520  81.9395130   2.3575870  16.4372620  74.9893470   4.0846340
  16.9887210  75.0988810   3.3099590  16.9516130  75.3631070   4.8001570
  26.2811310  85.4749690   6.1309610  25.8041870  86.2821880   5.9382220
  25.5973100  84.8228020   6.2835820  17.2844130  81.6399510   9.1194310
  16.3872660  81.8639480   9.3667710  17.3097000  81.7634450   8.1705710
  16.1115350  78.5112830   7.6951680  15.9723120  79.3835630   8.0639080
  15.2296710  78.1685640   7.5499620  17.9095700  84.4534530   9.9036830
  17.8811130  84.8577480   9.0365260  17.7460670  83.5244890   9.7408430
  29.8610520  85.2361630  11.2001000  30.3370240  85.7144520  11.8790080
  30.4817680  85.1679120  10.4746500  12.0634000  80.2810380   3.6122590
  12.1414420  80.4159150   2.6678310  12.6775680  79.5726270   3.8050710
  29.2643770  82.4274480   8.3601010  29.3906830  82.1886360   7.4418190
  29.3065150  81.5959020   8.8323090  23.1260510  86.1302480   6.9295820
  23.6405180  86.0410490   7.7318250  22.2829590  86.4762180   7.2223730
  29.1167780  74.4806940   9.3250750  28.5012050  74.9886610   8.7966210
  28.7964200  73.5805270   9.2676690  12.1193520  81.3224550   6.1517050
  12.2824560  80.8529910   5.3336420  12.5845970  80.8148110   6.8165890
  21.1782100  73.3198830   6.7912940  20.7161470  73.5281850   7.6032880
  20.7760210  72.5058180   6.4883610  26.1786610  74.5407780   7.9209600
  25.3280200  74.2413530   8.2418670  26.0188400  74.7849790   7.0093420
  23.2736320  76.0409530  10.0208390  23.5989730  75.2073280   9.6810620
  24.0616650  76.5638050  10.1686720  18.9288190  70.9977640   3.0467220
  19.2260520  71.9040470   2.9659240  19.4773750  70.5096420   2.4326790
  19.1225720  76.4749460   9.5819140  19.0269320  75.5344190   9.4319540
  19.9657700  76.6964530   9.1867210  14.2536260  72.8863130   7.7352920
  13.8599650  73.7338340   7.9425700  13.5654660  72.2489500   7.9261560
  20.8281310  72.9698100  10.8049660  20.1379630  72.7770300  11.4395750
  21.5713610  73.2532740  11.3373960  11.5553310  70.8091590   1.7683000
  11.2666360  71.3794450   2.4807980  12.2999070  70.3296040   2.1314230
  23.1044280  76.8096540   3.6403580  22.3725400  77.3183350   3.9893680
  22.7068620  75.9926520   3.3392360  23.5670190  72.2630220   3.0526520
  23.5842930  72.7138870   3.8968370  23.3185770  71.3635860   3.2659960
  26.9940940  69.6762400   8.8912900  27.3186710  68.9452060   9.4170880
  27.0297450  69.3576040   7.9893890  13.6932500  80.6975980   8.3112860
  13.3087290  80.0569650   8.9095820  14.0044690  81.4012100   8.8807590
  19.8429640  77.5452520   3.7921480  20.2099770  77.0711090   4.5382820
  19.6534700  78.4194090   4.1329820  17.6329010  76.5861160   6.1105690
  17.3286080  77.4653140   6.3356050  18.5875470  76.6460950   6.1463130
  26.9198780  79.7887510   2.4998930  27.6397900  80.2842800   2.1095040
  26.7180600  79.1105400   1.8552800  22.3017580  79.8596570   8.3867930
  22.2354890  78.9392240   8.1325520  21.6722720  79.9572010   9.1012570
  13.6892740  77.4263900   7.2577050  13.3307680  78.0917750   7.8450390
  13.3947300  76.5947450   7.6289670  16.8905860  77.8848140  10.1416600
  16.5906000  78.0305320   9.2444420  17.6617100  77.3253430  10.0489990
  22.2334310  82.6817140   8.1371730  22.2478850  81.7498100   7.9190640
  21.5259410  82.7676900   8.7761500  28.4445520  79.3224480   7.4840310
  27.7193710  79.9153260   7.2869700  28.9720980  79.3148020   6.6853680
  21.6668210  84.3234710   5.2312230  22.3110430  84.5294090   5.9085650
  22.0297650  83.5623110   4.7783080  22.9400290  82.3267060   3.9489680
  23.5822520  81.6260220   4.0621850  23.4649640  83.1065500   3.7686570
  24.7137910  83.1261960   7.1525740  25.0494150  83.7128650   7.8303660
  23.7938250  82.9954670   7.3823530  12.2641310  70.9157140   7.9349150
  11.5499830  71.1154060   8.5401760  12.6836350  70.1396710   8.3063950
  12.5513900  84.9037400   8.9215680  12.6605020  83.9632140   8.7811070
  11.8994460  85.1692150   8.2729410  20.5426490  83.1753290  10.3213800
  20.2223360  82.4562530  10.8659490  19.8684850  83.8508360  10.3949860
  23.7580090  73.4079450   5.6850600  24.1260910  72.5874660   6.0130170
  22.8978290  73.4681340   6.1006250  20.7182080  76.0619040   5.9088570
  21.2167330  76.5364860   6.5740420  20.8605030  75.1382560   6.1158600
  27.9248940  72.2787000   6.7516960  27.4222540  73.0192400   7.0910770
  28.7405600  72.6671000   6.4353750  14.6972340  85.9706310  10.7335290
  15.4985070  86.2918360  11.1470690  14.1824160  85.6101890  11.4555200
  23.5336970  82.0786180  10.6810700  22.9275130  82.1017780   9.9406450
  23.2291080  81.3469220  11.2177950  24.9637340  85.8066470   9.2920110
  25.9159090  85.7224490   9.2420350  24.8165560  86.4708180   9.9653900
  12.4170150  78.4579770   9.6771340  12.9209170  77.8787050  10.2487570
  11.6777570  78.7420000  10.2147710  19.4708090  79.8650760   9.2106860
  18.7053760  80.4335760   9.1261530  19.6524050  79.5726970   8.3175090
  26.6131440  81.5956090   9.7681880  27.3540910  81.9331850   9.2649340
  25.8504120  81.7648150   9.2151650  14.4493230  76.6009360  10.5721410
  14.4898570  76.3023230  11.4806640  15.3038730  77.0016970  10.4128930
  16.3899040  75.1801460   8.5395900  15.8595500  74.6892410   7.9119240
  17.0587110  75.6085660   8.0053830  25.2877100  79.6470920   8.3037090
  25.7018120  79.8016000   9.1527510  24.3528100  79.7726140   8.4662870
  25.7599270  76.9867080  10.3076240  26.3420040  76.2319400  10.2196720
  25.9361040  77.5174520   9.5307720  16.8771340  72.1463830   8.6193190
  16.7828210  71.5284580   7.8944060  16.2968730  72.8730120   8.3923100
  19.6432780  70.7037070   5.6520580  19.1950080  70.7261330   4.8066130
  19.0097980  70.3056090   6.2490880  20.0492330  79.5991400   6.2733020
  20.4680440  80.4424130   6.1009260  19.1300960  79.7363440   6.0439800
  22.3856230  77.3307580   7.6570860  22.5052440  76.7348720   8.3965700
  23.2450230  77.3677270   7.2372160  24.7244130  77.8844770   6.2333370
  24.1979350  78.4087390   5.6298510  25.0675470  78.5172160   6.8643100
  17.8999750  85.9044410   7.3890750  17.3620840  86.6290470   7.0699450
  18.1533710  85.4274750   6.5988090  19.1525000  73.8728930   8.9146680
  19.7424690  73.5644780   9.6024500  18.3345240  73.4008680   9.0706580
  23.9718430  73.4894740   9.1479700  23.2833950  72.8276280   9.0829690
  24.6924450  73.0433010   9.5928160  20.7561960  87.1395620   7.6477400
  20.6820660  88.0430760   7.9549770  19.8540800  86.8207520   7.6199470
  12.6479460  85.3340800   3.6892650  12.2110450  85.5141600   4.5216800
  13.2157140  86.0915420   3.5474370  28.2841640  84.8357800   7.9769960
  27.6843630  84.8950360   7.2333880  28.4135540  83.8962780   8.1066810
  26.9693280  81.5609780   6.0746120  26.1553120  81.9906940   6.3371910
  27.3767480  82.1728190   5.4615170  13.5179820  78.2313600   4.5884870
  13.8852860  78.1441000   5.4680890  12.9490640  77.4680150   4.4891730
  28.3183680  76.6997980   7.6015340  28.0869770  76.4710730   6.7013290
  28.5788230  77.6197530   7.5560230  13.0695820  75.1422690   8.4943290
  12.1751870  75.1089450   8.8337000  13.6093370  75.3409480   9.2594540
  26.7571750  71.9254410  10.3795040  27.6341930  71.9337810  10.7629040
  26.7692590  71.1885250   9.7687390  28.3824740  75.8623820   4.7902610
  27.4327450  75.8287360   4.9047600  28.5637750  76.7723930   4.5552380
  13.5735530  69.4171020   2.8426510  14.2211720  68.8668400   2.4021670
  13.9937370  69.6714170   3.6642320  27.4687870  69.6112380   6.1996150
  28.1060090  70.2246520   6.5655340  27.6162760  69.6473040   5.2545380
  13.3267530  69.5726690   5.5851830  12.9782350  70.0290510   6.3510010
  12.9955230  68.6783820   5.6674260  14.9331900  82.7446290   9.7505020
  14.8901530  82.3739200  10.6319480  15.0642910  83.6823860   9.8906840
  18.6337930  84.3005880   5.3514740  18.3929290  84.5680440   4.4645260
  19.5740570  84.4711610   5.4065600  20.8392350  70.7638570   9.1071250
  20.7781240  71.3560400   9.8566660  21.7792730  70.6564530   8.9621510
  23.4766910  70.4208630   8.7463540  24.0907320  70.7387920   8.0844620
  24.0216470  69.9357220   9.3659400  29.8942090  86.3200260   6.1525380
  29.4000370  86.7169130   5.4352510  29.2855380  85.6949470   6.5462660
  13.9988170  69.1002890   8.8602600  14.5471160  68.9190940   8.0968710
  14.0643480  68.3097000   9.3958910  14.7719930  85.6908540   6.8702800
  14.1780250  85.5593240   7.6092840  14.7643770  84.8546680   6.4044900
  24.2174950  68.9840770   5.0732830  23.3434790  69.3175880   4.8705760
  24.1085700  68.5113950   5.8984700  25.1246930  71.1911640   6.4574550
  24.7960290  70.3763400   6.0776280  26.0729230  71.1481450   6.3340240
  27.5781540  86.9623680   3.4312120  27.1184510  87.7139490   3.0570140
  26.9494000  86.2430150   3.3726920  14.4032160  83.0566920   5.8210840
  13.6766220  82.4372210   5.7536790  14.4641310  83.4507530   4.9508920
  18.0077260  85.2711920   2.6060250  18.5242280  84.6599280   2.0808510
  18.6574640  85.7740700   3.0971260  20.7472760  86.1620410   3.4329230
  21.0350570  85.9074710   2.5562240  21.2595980  85.6097770   4.0234800
  21.9649770  69.9010610   4.0125740  21.1821560  70.3756110   4.2922500
  21.6712700  68.9965440   3.9038920  20.8145120  87.0836510  10.7997430
  21.7412430  86.8480780  10.8433390  20.7995550  87.9108510  10.3183460
  18.0008730  69.7481260  10.5639310  17.7193000  70.2514860   9.8000130
  18.3828430  68.9503010  10.1981440  24.6024190  69.1634840  11.1419780
  24.4889640  69.4829450  12.0371300  25.4193930  69.5647350  10.8457060
  27.3822680  86.3106370  10.6238470  28.1748000  85.8155600  10.4164430
  27.6755830  86.9896510  11.2314080  23.5082340  58.4083820 150.4745930
  23.4276390  57.4938430 150.2037640  23.0946760  58.9050890 149.7685640
  25.6607810  64.5923030 151.1354330  25.1989340  63.8210270 151.4641500
  26.4733360  64.6189100 151.6406780  14.0658160  55.4584540 147.0173350
  13.1774860  55.8000510 146.9153230  14.3499350  55.2584860 146.1254180
  21.8871120  66.8781040 150.7558320  21.2682560  67.3338540 150.1852760
  22.7422900  67.0332500 150.3548020  16.2419550  54.0416040 148.0511730
  16.3486300  54.9419770 148.3580490  15.3311910  53.9934010 147.7606380
  25.8938660  53.1640850 149.5222630  26.7148280  52.6737420 149.5648110
  25.9272740  53.7538510 150.2754470  22.7534470  61.7620280 148.1490230
  22.1351740  62.2269730 147.5852950  23.2657720  62.4547760 148.5659740
  12.1217670  62.4476810 145.5229860  11.7445650  62.9363910 144.7914760
  12.3790740  63.1202090 146.1536390  19.7306600  50.8493200 150.9815370
  20.0381580  50.2940090 150.2650870  18.8007300  50.9837660 150.7988360
  26.5767080  63.2876710 148.3613000  26.4663410  62.3451040 148.4862420
  26.5735330  63.6492350 149.2475760  22.1187360  58.9142030 147.7175490
  21.1916640  58.8479410 147.9463960  22.2712180  59.8522160 147.6030730
  22.1056440  55.1859030 144.7142650  21.1660110  55.3472990 144.7995110
  22.4239700  55.9044710 144.1678640  26.1484650  60.4762330 148.2210740
  25.5297070  60.1381880 147.5737040  26.1309100  59.8322090 148.9289930
  17.7244000  59.4406770 150.4995220  17.3201000  58.7284020 150.0041120
  17.8107120  59.0960010 151.3883260  24.3249350  59.7149140 145.2283490
  24.7642630  58.8771570 145.0821310  25.0377770  60.3478540 145.3147630
  22.4344730  64.6545210 149.1964730  22.8740640  65.3969540 148.7820120
  22.3731620  64.8971780 150.1203690  27.9066490  50.9691950 143.5424530
  27.5939150  51.0618780 144.4423600  28.6678960  51.5472980 143.4921960
  14.4248630  58.3351750 148.0001870  14.3046230  59.0613840 147.3883140
  14.1149520  57.5654660 147.5229780  13.3081630  63.2067080 150.2176690
  12.9009710  63.3481670 149.3630290  14.1994640  62.9227240 150.0147900
  25.1014910  67.6414330 146.5527740  24.9416050  67.3517270 147.4509570
  24.9361620  66.8654460 146.0172970  17.5803290  67.4212860 148.3299360
  17.4045770  66.5048400 148.1167160  16.7259030  67.7800150 148.5697160
  24.8041040  65.1501890 145.1125740  24.1106200  65.1479180 144.4528020
  25.5463900  64.7261210 144.6819910  24.3690970  66.7764600 149.1874230
  24.8247920  65.9953980 149.5012850  24.7083490  67.4871420 149.7315410
  16.8912290  51.6786820 151.3825540  16.4480440  52.4596360 151.0510060
  17.4497280  52.0016710 152.0896480  20.0071110  51.2997520 146.2631370
  19.3825290  51.2957390 146.9884680  19.9201230  50.4328480 145.8667340
  16.6826510  56.8020390 149.1106790  16.4567430  56.5857560 150.0153410
  15.9019040  57.2348850 148.7652760  23.9124270  56.8083760 147.7097440
  23.3133160  57.5319560 147.5261060  24.4603880  56.7460540 146.9273890
  22.5189140  55.4447300 149.7400720  22.9118710  55.7619500 148.9269410
  22.8805990  54.5659180 149.8545240  11.7423540  55.9768220 143.1733640
  11.6598210  56.9198980 143.3148630  11.3906600  55.8343130 142.2945990
  19.5421670  54.7107250 152.2403990  19.5457730  54.2697200 151.3908530
  20.4372790  55.0324580 152.3475810  15.3924050  54.5933740 151.1998200
  15.0524100  55.0708970 151.9565250  14.6301370  54.1398860 150.8399300
  19.6041820  55.7119330 145.2310750  19.7254640  55.6705810 146.1796570
  19.2190330  56.5743480 145.0757480  18.6163320  58.0220470 144.6294050
  18.0480220  57.5738720 144.0029960  19.3252320  58.3813250 144.0959200
  12.7070130  53.5152720 150.1162870  12.4217050  53.1508390 150.9541490
  12.6448990  52.7833180 149.5026010  16.1610800  62.0178660 146.9020460
  15.3873060  61.4776280 146.7419180  16.8905430  61.4985270 146.5638220
  22.3808720  52.4081980 146.8376240  21.5673330  51.9095150 146.7621550
  22.1870670  53.2480230 146.4212590  25.0957110  56.7801630 145.1338400
  25.9836730  57.0918860 144.9589740  25.0662200  55.9073880 144.7418980
  16.2048200  61.6859040 150.5399270  16.7226870  60.8827300 150.4856160
  15.7532220  61.6238180 151.3816100  21.0917700  62.9525320 145.8126570
  21.4333400  63.6967550 145.3169890  20.2630410  63.2656440 146.1751400
  27.3671380  58.0913470 144.6018260  27.2835100  58.5227690 143.7514700
  28.0865570  58.5511820 145.0345080  28.3958630  64.9455730 147.3300390
  27.7534790  64.2911350 147.6044110  28.0089290  65.3510820 146.5541060
  23.9745110  62.2741160 151.1772080  24.3268930  61.6769290 150.5173450
  23.0907440  61.9485390 151.3480330  20.0608390  63.0338850 148.5842490
  20.7479520  63.5808060 148.9650080  19.2740810  63.5779580 148.6192100
  12.2000790  58.6511670 144.0759570  13.0695640  58.9336470 144.3595490
  11.7091110  59.4647540 143.9608380  19.3635600  60.0384880 148.1967850
  19.8198380  60.8490130 148.4228040  19.0123810  59.7208020 149.0286340
  15.2647380  50.3822530 148.6690370  15.1362010  50.3740430 149.6175290
  14.4409400  50.7205620 148.3181380  26.7856010  63.8372190 143.8676740
  26.5593590  63.1202630 144.4601380  26.3952210  63.5884630 143.0298490
  12.5672040  67.8639050 144.6421200  12.9269680  68.4628390 143.9878470
  12.4264380  68.4098940 145.4156230  26.3672260  61.7544130 145.5290900
  26.0793960  62.2156820 146.3168780  27.1624430  61.2941900 145.7975120
  18.5840660  65.2470250 145.4594870  18.5750760  65.9799940 144.8439380
  17.6639020  65.0001830 145.5521830  14.1847300  60.4685140 146.2041630
  13.5775250  61.2084040 146.2136930  14.6596650  60.5584500 145.3779830
  27.1242120  53.5892900 146.6886080  26.4955280  53.6938570 145.9744310
  26.6294040  53.8089680 147.4779960  21.5700260  65.3098490 144.1220060
  21.6712240  65.1062480 143.1922040  20.6702000  65.0556770 144.3267840
  19.0926150  55.8678850 148.1043960  18.3842300  56.3365190 148.5457570
  19.3770630  55.2100860 148.7389150  23.1241580  52.5929510 149.5439750
  23.0009360  52.6115640 148.5949260  24.0726140  52.6408450 149.6638150
  20.2118370  67.8284810 148.8167730  20.4659870  67.7906200 147.8947100
  19.2630850  67.7018140 148.8095980  17.2961170  54.1763930 145.4794670
  18.1451700  54.6134080 145.4134860  16.9292440  54.4884190 146.3066730
  26.2170950  58.7476690 150.3926240  25.2761090  58.7626920 150.5673930
  26.5315020  57.9612650 150.8386540  16.1952590  60.4296290 143.9530200
  16.9615860  60.3177650 144.5155630  16.2727280  59.7334260 143.3006970
  14.8899350  57.8621360 144.6363090  14.9702940  56.9148870 144.7480490
  15.7819100  58.1928240 144.7423750  15.6914060  68.0116750 151.7397630
  16.4276540  67.4632210 152.0106200  16.0754980  68.8772760 151.6003620
  12.5759540  64.0790320 147.6139140  11.6499320  64.3211460 147.6044550
  13.0415970  64.9064580 147.4923890  18.8016370  67.1847060 143.5623200
  19.5944980  67.4735890 143.1104990  18.2820720  66.7539230 142.8835680
  27.8546540  66.4117190 144.9859940  27.5688050  65.9982330 144.1714120
  27.6566090  67.3404900 144.8660460  19.3193770  62.4050470 143.4265550
  19.2144410  61.7902820 144.1526930  19.1517990  61.8816360 142.6428560
  22.5596500  61.4670500 144.0307540  22.0106600  61.9139800 144.6750280
  23.1815760  60.9619750 144.5545210  18.2271620  60.4261420 145.9272840
  18.6488040  60.2601290 146.7704230  18.3522460  59.6161650 145.4327980
  20.7399260  59.4499030 143.1749940  21.2604920  58.7348050 142.8091090
  21.3867660  60.0884900 143.4750450  17.1230520  56.4994650 142.8731000
  16.9219580  55.6362010 143.2344340  16.9522570  56.4128010 141.9352600
  24.6018830  51.3102880 145.4017880  24.8821120  50.4670780 145.7577300
  23.8284560  51.5425990 145.9156630  15.9213320  53.5995270 142.8608880
  16.2239220  53.6062700 141.9528030  16.6607910  53.2493130 143.3576540
  19.1398250  52.5429890 143.8465080  18.7920250  51.8653880 143.2667530
  19.3411020  52.0819400 144.6608470  21.3047290  67.5310640 145.4651680
  22.1998080  67.8695610 145.4870440  21.3364920  66.8090050 144.8375960
  14.9443450  62.9037690 143.6938680  15.3818320  63.4467360 144.3496260
  15.4291180  62.0784640 143.7035020  12.1589250  65.6926720 151.1458940
  12.4892260  64.8247780 150.9137580  12.5880250  65.8985240 151.9763900
  16.7551170  64.0235730 148.8060910  16.4546710  63.9000700 149.7064820
  16.6488660  63.1644320 148.3976640  29.5243090  63.8032130 143.5087590
  28.6936050  63.8708780 143.9794820  29.7014920  64.6936250 143.2054450
  28.9799550  60.5479610 146.0121790  29.7418460  61.1176260 146.1181480
  28.9953920  59.9806810 146.7830100  12.4803890  59.0717540 150.2429450
  11.8252730  58.8029180 149.5989150  13.3181840  58.9622020 149.7931430
  29.9859520  61.4029710 150.8563720  30.3568350  60.6197030 150.4499690
  30.6261450  62.0918810 150.6781020  29.0318720  60.8413980 143.1694310
  29.3067560  61.7492860 143.0413530  28.8429460  60.7776510 144.1056300
  25.4294330  53.8658830 144.4647940  25.8479210  53.6789810 143.6244600
  25.1230390  53.0137880 144.7750870  28.9284060  58.7782970 148.1623740
  28.5527660  58.0110900 147.7305030  28.1987180  59.1605670 148.6498670
  11.6941970  56.2816470 146.1854780  10.7906050  56.5446670 146.0106440
  12.1782590  56.5527640 145.4054740  28.2035020  57.0040460 151.4630980
  28.7272500  56.5103110 150.8321150  28.7894440  57.1390820 152.2078550
  14.2369180  55.3382010 144.0949160  14.9460880  54.9165230 143.6096440
  13.5209120  55.4057240 143.4632510  13.8843340  51.3921340 143.1351810
  14.6071470  51.9330280 143.4533030  14.1567860  51.1184760 142.2593350
  27.6934990  56.2613810 147.4023390  28.1894110  56.0284680 148.1872270
  27.4951060  55.4225650 146.9861030  29.1222150  54.8974760 149.9361070
  29.0121430  54.7430800 150.8743340  29.8829740  54.3695700 149.6936480
  30.0112420  52.7282680 143.1767210  30.9361730  52.5963860 142.9685500
  29.9888210  52.8075500 144.1303660  30.0850910  53.4993340 145.8023920
  29.2902410  53.4338460 146.3316830  30.2894190  54.4343980 145.7909270
  27.0269330  67.5384890 149.7962310  27.6228400  67.2169460 149.1196730
  27.2847480  67.0656710 150.5875580  26.5170840  51.8290220 152.2522750
  26.9578930  51.7735320 151.4044350  26.2478430  52.7448230 152.3232930
  28.3809410  51.4605460 150.2631570  28.3197810  50.5166680 150.1162590
  29.1601440  51.5685550 150.8085030  12.6862160  67.5997820 149.2255520
  12.5184200  66.9668500 149.9237410  11.8196670  67.8057220 148.8749710
  13.3090180  51.4314600 146.7287380  14.0669540  51.5443480 146.1551410
  12.8467350  52.2683800 146.6830810  19.8503990  53.5453870 149.7189690
  19.0378500  53.1710760 149.3785570  20.3545630  52.7898950 150.0210880
  24.3528970  50.2096320 150.9572760  24.9558340  50.7816530 151.4321280
  23.6121960  50.7735760 150.7346660  27.4963570  50.6117880 146.2313040
  27.6914200  51.5101330 146.4980470  26.7093440  50.3804960 146.7245990
  14.2924860  66.2931050 146.6705660  13.7672480  66.6739080 145.9667620
  14.2169440  66.9181820 147.3915370  15.6815330  51.9578650 145.2689350
  16.2108090  51.1708450 145.1397300  16.3143650  52.6369840 145.5024880
  17.8753170  51.6953790 148.3234740  17.2455910  50.9941100 148.4904870
  17.3358310  52.4557920 148.1067900  29.0490180  67.8518590 147.9919600
  29.2242370  67.1656330 147.3480520  28.3511750  68.3765640 147.5996270
  16.8917830  68.2413430 145.5454910  17.6236650  67.9572710 144.9978800
  17.1511500  68.0026710 146.4354290  16.0532620  64.3578160 145.5501240
  15.4241500  64.8263260 146.0987070  16.1680450  63.5127380 145.9847430
  23.5082340  58.4083820 131.7002440  23.4276390  57.4938430 131.4294150
  23.0946760  58.9050890 130.9942150  21.6400380  60.1862840 133.5811710
  20.8642480  59.7063280 133.8710280  22.2913310  59.5068490 133.4067870
  15.6566210  60.4982650 134.4587470  14.8251090  60.2431360 134.8583980
  16.2647190  60.5693420 135.1945390  25.6607810  64.5923030 132.3610840
  25.1989340  63.8210270 132.6898010  26.4733360  64.6189100 132.8663290
  15.6367470  64.5322740 134.6545490  15.9395510  63.6420480 134.4755710
  16.3811060  65.0892960 134.4267740  14.0658160  55.4584540 128.2429860
  13.1774860  55.8000510 128.1409740  14.3499350  55.2584860 127.3510690
  12.0291170  58.0590190 134.1269560  12.6007280  57.2912390 134.1273200
  12.0292710  58.3578950 133.2176170  21.8871120  66.8781040 131.9814830
  21.2682560  67.3338540 131.4109270  22.7422900  67.0332500 131.5804530
  21.0809370  62.8620030 133.5881870  21.0117650  61.9209970 133.4271000
  21.8429230  62.9521440 134.1604440  13.2716040  53.4674550 135.9138490
  13.0918880  52.5700300 136.1941250  12.8696120  54.0146420 136.5885440
  22.1114540  55.6690410 133.8150800  22.4879360  54.7962290 133.7024470
  22.0134050  56.0049110 132.9241240  16.2419550  54.0416040 129.2768240
  16.3486300  54.9419770 129.5837000  15.3311910  53.9934010 128.9862890
  25.8938660  53.1640850 130.7479140  26.7148280  52.6737420 130.7904620
  25.9272740  53.7538510 131.5010980  13.8902710  55.9635050 134.5220830
  14.5712820  56.2273420 135.1408230  13.5750760  55.1235920 134.8558840
  18.0827280  57.0102410 133.6093420  18.5905500  57.5083380 134.2498440
  18.6140520  56.2337610 133.4332780  30.1838210  55.1807600 137.3122770
  29.4790380  55.5689310 136.7937880  30.4496130  55.8757890 137.9143700
  16.3663380  51.6500970 137.8756840  16.3681820  52.1673360 137.0702740
  15.5367690  51.1731150 137.8526770  22.7534470  61.7620280 129.3746740
  22.1351740  62.2269730 128.8109460  23.2657720  62.4547760 129.7916250
  17.6166230  61.2896150 136.0530340  17.2835610  61.9165070 136.6951410
  17.7932910  61.8158030 135.2732010  26.1300140  55.1041230 133.5206680
  25.4255710  55.3926120 134.1009790  26.4912300  55.9141340 133.1606240
  16.0478710  53.3610930 135.8827290  16.3895520  54.2052980 135.5881160
  15.1094520  53.5094670 135.9992630  16.8285330  63.2576950 137.8679520
  17.4459330  63.9328030 137.5863970  15.9678450  63.6664930 137.7767020
  12.1217670  62.4476810 126.7486370  11.7445650  62.9363910 126.0171270
  12.3790740  63.1202090 127.3792900  27.7462920  64.7216360 135.7834160
  27.0626440  65.3915470 135.7750830  28.2857210  64.9197010 135.0179020
  29.1987060  54.5496020 133.9115890  28.2511970  54.5835000 134.0431320
  29.5237050  55.3634970 134.2965250  19.7306600  50.8493200 132.2071880
  20.0381580  50.2940090 131.4907380  18.8007300  50.9837660 132.0244870
  25.2821660  66.5660490 134.4979340  25.2948820  66.1622780 133.6301600
  24.7296880  67.3407780 134.3940770  26.5767080  63.2876710 129.5869510
  26.4663410  62.3451040 129.7118930  26.5735330  63.6492350 130.4732270
  24.6807100  61.4690330 135.8261950  25.0975890  61.2550440 134.9915410
  25.4046920  61.7263120 136.3970570  22.1187360  58.9142030 128.9432000
  21.1916640  58.8479410 129.1720470  22.2712180  59.8522160 128.8287240
  22.1056440  55.1859030 125.9399160  21.1660110  55.3472990 126.0251620
  22.4239700  55.9044710 125.3935150  28.6269200  59.8677550 135.9178190
  27.7987830  59.9370640 135.4428320  29.2219680  60.4531860 135.4494020
  26.1484650  60.4762330 129.4467250  25.5297070  60.1381880 128.7993550
  26.1309100  59.8322090 130.1546440  25.5911210  56.6546870 136.8633060
  25.1782390  57.4800580 137.1173050  24.8587160  56.0691910 136.6709420
  17.7244000  59.4406770 131.7251730  17.3201000  58.7284020 131.2297630
  17.8107120  59.0960010 132.6139770  18.1925700  63.1274330 133.8890940
  17.8953990  62.5219800 133.2098720  19.1425520  63.1651640 133.7780300
  16.4372620  56.2149980 135.5050770  16.9887210  56.3245320 134.7304020
  16.9516130  56.5887580 136.2206000  26.2811310  66.7006200 137.5514040
  25.8041870  67.5078390 137.3586650  25.5973100  66.0484530 137.7040250
  17.2844130  62.8656020 140.5398740  16.3872660  63.0895990 140.7872140
  17.3097000  62.9890960 139.5910140  24.3249350  59.7149140 126.4540000
  24.7642630  58.8771570 126.3077820  25.0377770  60.3478540 126.5404140
  16.1115350  59.7369340 139.1156110  15.9723120  60.6092140 139.4843510
  15.2296710  59.3942150 138.9704050  22.4344730  64.6545210 130.4221240
  22.8740640  65.3969540 130.0076630  22.3731620  64.8971780 131.3460200
  17.9095700  65.6791040 141.3241260  17.8811130  66.0833990 140.4569690
  17.7460670  64.7501400 141.1612860  27.9066490  50.9691950 124.7681040
  27.5939150  51.0618780 125.6680110  28.6678960  51.5472980 124.7178470
  14.4248630  58.3351750 129.2258380  14.3046230  59.0613840 128.6139650
  14.1149520  57.5654660 128.7486290  29.8610520  66.4618140 142.6205430
  30.3370240  66.9401030 143.2994510  30.4817680  66.3935630 141.8950930
  12.0634000  61.5066890 135.0327020  12.1414420  61.6415660 134.0882740
  12.6775680  60.7982780 135.2255140  13.3081630  63.2067080 131.4433200
  12.9009710  63.3481670 130.5886800  14.1994640  62.9227240 131.2404410
  29.2643770  63.6530990 139.7805440  29.3906830  63.4142870 138.8622620
  29.3065150  62.8215530 140.2527520  23.1260510  67.3558990 138.3500250
  23.6405180  67.2667000 139.1522680  22.2829590  67.7018690 138.6428160
  25.1014910  67.6414330 127.7784250  24.9416050  67.3517270 128.6766080
  24.9361620  66.8654460 127.2429480  17.5803290  67.4212860 129.5555870
  17.4045770  66.5048400 129.3423670  16.7259030  67.7800150 129.7953670
  24.8041040  65.1501890 126.3382250  24.1106200  65.1479180 125.6784530
  25.5463900  64.7261210 125.9076420  24.3690970  66.7764600 130.4130740
  24.8247920  65.9953980 130.7269360  24.7083490  67.4871420 130.9571920
  29.1167780  55.7063450 140.7455180  28.5012050  56.2143120 140.2170640
  28.7964200  54.8061780 140.6881120  12.1193520  62.5481060 137.5721480
  12.2824560  62.0786420 136.7540850  12.5845970  62.0404620 138.2370320
  16.8912290  51.6786820 132.6082050  16.4480440  52.4596360 132.2766570
  17.4497280  52.0016710 133.3152990  21.1782100  54.5455340 138.2117370
  20.7161470  54.7538360 139.0237310  20.7760210  53.7314690 137.9088040
  26.1786610  55.7664290 139.3414030  25.3280200  55.4670040 139.6623100
  26.0188400  56.0106300 138.4297850  23.2736320  57.2666040 141.4412820
  23.5989730  56.4329790 141.1015050  24.0616650  57.7894560 141.5891150
  20.0071110  51.2997520 127.4887880  19.3825290  51.2957390 128.2141190
  19.9201230  50.4328480 127.0923850  18.9288190  52.2234150 134.4671650
  19.2260520  53.1296980 134.3863670  19.4773750  51.7352930 133.8531220
  16.6826510  56.8020390 130.3363300  16.4567430  56.5857560 131.2409920
  15.9019040  57.2348850 129.9909270  23.9124270  56.8083760 128.9353950
  23.3133160  57.5319560 128.7517570  24.4603880  56.7460540 128.1530400
  19.1225720  57.7005970 141.0023570  19.0269320  56.7600700 140.8523970
  19.9657700  57.9221040 140.6071640  22.5189140  55.4447300 130.9657230
  22.9118710  55.7619500 130.1525920  22.8805990  54.5659180 131.0801750
  14.2536260  54.1119640 139.1557350  13.8599650  54.9594850 139.3630130
  13.5654660  53.4746010 139.3465990  20.8281310  54.1954610 142.2254090
  20.1379630  54.0026810 142.8600180  21.5713610  54.4789250 142.7578390
  11.5553310  52.0348100 133.1887430  11.2666360  52.6050960 133.9012410
  12.2999070  51.5552550 133.5518660  11.7423540  55.9768220 124.3990150
  11.6598210  56.9198980 124.5405140  11.3906600  55.8343130 123.5202500
  23.1044280  58.0353050 135.0608010  22.3725400  58.5439860 135.4098110
  22.7068620  57.2183030 134.7596790  19.5421670  54.7107250 133.4660500
  19.5457730  54.2697200 132.6165040  20.4372790  55.0324580 133.5732320
  15.3924050  54.5933740 132.4254710  15.0524100  55.0708970 133.1821760
  14.6301370  54.1398860 132.0655810  19.6041820  55.7119330 126.4567260
  19.7254640  55.6705810 127.4053080  19.2190330  56.5743480 126.3013990
  23.5670190  53.4886730 134.4730950  23.5842930  53.9395380 135.3172800
  23.3185770  52.5892370 134.6864390  18.6163320  58.0220470 125.8550560
  18.0480220  57.5738720 125.2286470  19.3252320  58.3813250 125.3215710
  26.9940940  50.9018910 140.3117330  27.3186710  50.1708570 140.8375310
  27.0297450  50.5832550 139.4098320  13.6932500  61.9232490 139.7317290
  13.3087290  61.2826160 140.3300250  14.0044690  62.6268610 140.3012020
  19.8429640  58.7709030 135.2125910  20.2099770  58.2967600 135.9587250
  19.6534700  59.6450600 135.5534250  12.7070130  53.5152720 131.3419380
  12.4217050  53.1508390 132.1798000  12.6448990  52.7833180 130.7282520
  17.6329010  57.8117670 137.5310120  17.3286080  58.6909650 137.7560480
  18.5875470  57.8717460 137.5667560  16.1610800  62.0178660 128.1276970
  15.3873060  61.4776280 127.9675690  16.8905430  61.4985270 127.7894730
  26.9198780  61.0144020 133.9203360  27.6397900  61.5099310 133.5299470
  26.7180600  60.3361910 133.2757230  22.3808720  52.4081980 128.0632750
  21.5673330  51.9095150 127.9878060  22.1870670  53.2480230 127.6469100
  22.3017580  61.0853080 139.8072360  22.2354890  60.1648750 139.5529950
  21.6722720  61.1828520 140.5217000  25.0957110  56.7801630 126.3594910
  25.9836730  57.0918860 126.1846250  25.0662200  55.9073880 125.9675490
  16.2048200  61.6859040 131.7655780  16.7226870  60.8827300 131.7112670
  15.7532220  61.6238180 132.6072610  21.0917700  62.9525320 127.0383080
  21.4333400  63.6967550 126.5426400  20.2630410  63.2656440 127.4007910
  13.6892740  58.6520410 138.6781480  13.3307680  59.3174260 139.2654820
  13.3947300  57.8203960 139.0494100  16.8905860  59.1104650 141.5621030
  16.5906000  59.2561830 140.6648850  17.6617100  58.5509940 141.4694420
  22.2334310  63.9073650 139.5576160  22.2478850  62.9754610 139.3395070
  21.5259410  63.9933410 140.1965930  27.3671380  58.0913470 125.8274770
  27.2835100  58.5227690 124.9771210  28.0865570  58.5511820 126.2601590
  28.4445520  60.5480990 138.9044740  27.7193710  61.1409770 138.7074130
  28.9720980  60.5404530 138.1058110  28.3958630  64.9455730 128.5556900
  27.7534790  64.2911350 128.8300620  28.0089290  65.3510820 127.7797570
  23.9745110  62.2741160 132.4028590  24.3268930  61.6769290 131.7429960
  23.0907440  61.9485390 132.5736840  20.0608390  63.0338850 129.8099000
  20.7479520  63.5808060 130.1906590  19.2740810  63.5779580 129.8448610
  12.2000790  58.6511670 125.3016080  13.0695640  58.9336470 125.5852000
  11.7091110  59.4647540 125.1864890  19.3635600  60.0384880 129.4224360
  19.8198380  60.8490130 129.6484550  19.0123810  59.7208020 130.2542850
  21.6668210  65.5491220 136.6516660  22.3110430  65.7550600 137.3290080
  22.0297650  64.7879620 136.1987510  15.2647380  50.3822530 129.8946880
  15.1362010  50.3740430 130.8431800  14.4409400  50.7205620 129.5437890
  22.9400290  63.5523570 135.3694110  23.5822520  62.8516730 135.4826280
  23.4649640  64.3322010 135.1891000  26.7856010  63.8372190 125.0933250
  26.5593590  63.1202630 125.6857890  26.3952210  63.5884630 124.2555000
  24.7137910  64.3518470 138.5730170  25.0494150  64.9385160 139.2508090
  23.7938250  64.2211180 138.8027960  12.5672040  67.8639050 125.8677710
  12.9269680  68.4628390 125.2134980  12.4264380  68.4098940 126.6412740
  12.2641310  52.1413650 139.3553580  11.5499830  52.3410570 139.9606190
  12.6836350  51.3653220 139.7268380  26.3672260  61.7544130 126.7547410
  26.0793960  62.2156820 127.5425290  27.1624430  61.2941900 127.0231630
  12.5513900  66.1293910 140.3420110  12.6605020  65.1888650 140.2015500
  11.8994460  66.3948660 139.6933840  20.5426490  64.4009800 141.7418230
  20.2223360  63.6819040 142.2863920  19.8684850  65.0764870 141.8154290
  18.5840660  65.2470250 126.6851380  18.5750760  65.9799940 126.0695890
  17.6639020  65.0001830 126.7778340  14.1847300  60.4685140 127.4298140
  13.5775250  61.2084040 127.4393440  14.6596650  60.5584500 126.6036340
  23.7580090  54.6335960 137.1055030  24.1260910  53.8131170 137.4334600
  22.8978290  54.6937850 137.5210680  27.1242120  53.5892900 127.9142590
  26.4955280  53.6938570 127.2000820  26.6294040  53.8089680 128.7036470
  21.5700260  65.3098490 125.3476570  21.6712240  65.1062480 124.4178550
  20.6702000  65.0556770 125.5524350  19.0926150  55.8678850 129.3300470
  18.3842300  56.3365190 129.7714080  19.3770630  55.2100860 129.9645660
  20.7182080  57.2875550 137.3293000  21.2167330  57.7621370 137.9944850
  20.8605030  56.3639070 137.5363030  23.1241580  52.5929510 130.7696260
  23.0009360  52.6115640 129.8205770  24.0726140  52.6408450 130.8894660
  20.2118370  67.8284810 130.0424240  20.4659870  67.7906200 129.1203610
  19.2630850  67.7018140 130.0352490  17.2961170  54.1763930 126.7051180
  18.1451700  54.6134080 126.6391370  16.9292440  54.4884190 127.5323240
  27.9248940  53.5043510 138.1721390  27.4222540  54.2448910 138.5115200
  28.7405600  53.8927510 137.8558180  26.2170950  58.7476690 131.6182750
  25.2761090  58.7626920 131.7930440  26.5315020  57.9612650 132.0643050
  16.1952590  60.4296290 125.1786710  16.9615860  60.3177650 125.7412140
  16.2727280  59.7334260 124.5263480  14.8899350  57.8621360 125.8619600
  14.9702940  56.9148870 125.9737000  15.7819100  58.1928240 125.9680260
  28.2196530  65.9185540 133.2937010  28.3443950  66.7416710 133.7660820
  29.0862090  65.7076270 132.9461160  15.6914060  68.0116750 132.9654140
  16.4276540  67.4632210 133.2362710  16.0754980  68.8772760 132.8260130
  12.5759540  64.0790320 128.8395650  11.6499320  64.3211460 128.8301060
  13.0415970  64.9064580 128.7180400  14.6972340  67.1962820 142.1539720
  15.4985070  67.5174870 142.5675120  14.1824160  66.8358400 142.8759630
  18.8016370  67.1847060 124.7879710  19.5944980  67.4735890 124.3361500
  18.2820720  66.7539230 124.1092190  23.5336970  63.3042690 142.1015130
  22.9275130  63.3274290 141.3610880  23.2291080  62.5725730 142.6382380
  24.9637340  67.0322980 140.7124540  25.9159090  66.9481000 140.6624780
  24.8165560  67.6964690 141.3858330  27.8546540  66.4117190 126.2116450
  27.5688050  65.9982330 125.3970630  27.6566090  67.3404900 126.0916970
  12.4170150  59.6836280 141.0975770  12.9209170  59.1043560 141.6692000
  11.6777570  59.9676510 141.6352140  19.3193770  62.4050470 124.6522060
  19.2144410  61.7902820 125.3783440  19.1517990  61.8816360 123.8685070
  19.4708090  61.0907270 140.6311290  18.7053760  61.6592270 140.5465960
  19.6524050  60.7983480 139.7379520  22.5596500  61.4670500 125.2564050
  22.0106600  61.9139800 125.9006790  23.1815760  60.9619750 125.7801720
  26.6131440  62.8212600 141.1886310  27.3540910  63.1588360 140.6853770
  25.8504120  62.9904660 140.6356080  14.4493230  57.8265870 141.9925840
  14.4898570  57.5279740 142.9011070  15.3038730  58.2273480 141.8333360
  18.2271620  60.4261420 127.1529350  18.6488040  60.2601290 127.9960740
  18.3522460  59.6161650 126.6584490  16.3899040  56.4057970 139.9600330
  15.8595500  55.9148920 139.3323670  17.0587110  56.8342170 139.4258260
  20.7399260  59.4499030 124.4006450  21.2604920  58.7348050 124.0347600
  21.3867660  60.0884900 124.7006960  25.2877100  60.8727430 139.7241520
  25.7018120  61.0272510 140.5731940  24.3528100  60.9982650 139.8867300
  25.7599270  58.2123590 141.7280670  26.3420040  57.4575910 141.6401150
  25.9361040  58.7431030 140.9512150  16.8771340  53.3720340 140.0397620
  16.7828210  52.7541090 139.3148490  16.2968730  54.0986630 139.8127530
  19.6432780  51.9293580 137.0725010  19.1950080  51.9517840 136.2270560
  19.0097980  51.5312600 137.6695310  20.0492330  60.8247910 137.6937450
  20.4680440  61.6680640 137.5213690  19.1300960  60.9619950 137.4644230
  22.3856230  58.5564090 139.0775290  22.5052440  57.9605230 139.8170130
  23.2450230  58.5933780 138.6576590  24.7244130  59.1101280 137.6537800
  24.1979350  59.6343900 137.0502940  25.0675470  59.7428670 138.2847530
  17.1230520  56.4994650 124.0987510  16.9219580  55.6362010 124.4600850
  16.9522570  56.4128010 123.1609110  17.8999750  67.1300920 138.8095180
  17.3620840  67.8546980 138.4903880  18.1533710  66.6531260 138.0192520
  19.1525000  55.0985440 140.3351110  19.7424690  54.7901290 141.0228930
  18.3345240  54.6265190 140.4911010  23.9718430  54.7151250 140.5684130
  23.2833950  54.0532790 140.5034120  24.6924450  54.2689520 141.0132590
  24.6018830  51.3102880 126.6274390  24.8821120  50.4670780 126.9833810
  23.8284560  51.5425990 127.1413140  15.9213320  53.5995270 124.0865390
  16.2239220  53.6062700 123.1784540  16.6607910  53.2493130 124.5833050
  20.7561960  68.3652130 139.0681830  20.6820660  69.2687270 139.3754200
  19.8540800  68.0464030 139.0403900  19.1398250  52.5429890 125.0721590
  18.7920250  51.8653880 124.4924040  19.3411020  52.0819400 125.8864980
  21.3047290  67.5310640 126.6908190  22.1998080  67.8695610 126.7126950
  21.3364920  66.8090050 126.0632470  14.9443450  62.9037690 124.9195190
  15.3818320  63.4467360 125.5752770  15.4291180  62.0784640 124.9291530
  12.1589250  65.6926720 132.3715450  12.4892260  64.8247780 132.1394090
  12.5880250  65.8985240 133.2020410  16.7551170  64.0235730 130.0317420
  16.4546710  63.9000700 130.9321330  16.6488660  63.1644320 129.6233150
  12.6479460  66.5597310 135.1097080  12.2110450  66.7398110 135.9421230
  13.2157140  67.3171930 134.9678800  28.2841640  66.0614310 139.3974390
  27.6843630  66.1206870 138.6538310  28.4135540  65.1219290 139.5271240
  29.5243090  63.8032130 124.7344100  28.6936050  63.8708780 125.2051330
  29.7014920  64.6936250 124.4310960  28.9799550  60.5479610 127.2378300
  29.7418460  61.1176260 127.3437990  28.9953920  59.9806810 128.0086610
  12.4803890  59.0717540 131.4685960  11.8252730  58.8029180 130.8245660
  13.3181840  58.9622020 131.0187940  29.9859520  61.4029710 132.0820230
  30.3568350  60.6197030 131.6756200  30.6261450  62.0918810 131.9037530
  26.9693280  62.7866290 137.4950550  26.1553120  63.2163450 137.7576340
  27.3767480  63.3984700 136.8819600  29.0318720  60.8413980 124.3950820
  29.3067560  61.7492860 124.2670040  28.8429460  60.7776510 125.3312810
  25.4294330  53.8658830 125.6904450  25.8479210  53.6789810 124.8501110
  25.1230390  53.0137880 126.0007380  28.9284060  58.7782970 129.3880250
  28.5527660  58.0110900 128.9561540  28.1987180  59.1605670 129.8755180
  13.5179820  59.4570110 136.0089300  13.8852860  59.3697510 136.8885320
  12.9490640  58.6936660 135.9096160  28.3183680  57.9254490 139.0219770
  28.0869770  57.6967240 138.1217720  28.5788230  58.8454040 138.9764660
  13.0695820  56.3679200 139.9147720  12.1751870  56.3345960 140.2541430
  13.6093370  56.5665990 140.6798970  26.7571750  53.1510920 141.7999470
  27.6341930  53.1594320 142.1833470  26.7692590  52.4141760 141.1891820
  11.6941970  56.2816470 127.4111290  10.7906050  56.5446670 127.2362950
  12.1782590  56.5527640 126.6311250  28.2035020  57.0040460 132.6887490
  28.7272500  56.5103110 132.0577660  28.7894440  57.1390820 133.4335060
  28.3824740  57.0880330 136.2107040  27.4327450  57.0543870 136.3252030
  28.5637750  57.9980440 135.9756810  14.2369180  55.3382010 125.3205670
  14.9460880  54.9165230 124.8352950  13.5209120  55.4057240 124.6889020
  13.8843340  51.3921340 124.3608320  14.6071470  51.9330280 124.6789540
  14.1567860  51.1184760 123.4849860  27.6934990  56.2613810 128.6279900
  28.1894110  56.0284680 129.4128780  27.4951060  55.4225650 128.2117540
  13.5735530  50.6427530 134.2630940  14.2211720  50.0924910 133.8226100
  13.9937370  50.8970680 135.0846750  29.1222150  54.8974760 131.1617580
  29.0121430  54.7430800 132.0999850  29.8829740  54.3695700 130.9192990
  27.4687870  50.8368890 137.6200580  28.1060090  51.4503030 137.9859770
  27.6162760  50.8729550 136.6749810  30.0112420  52.7282680 124.4023720
  30.9361730  52.5963860 124.1942010  29.9888210  52.8075500 125.3560170
  30.0850910  53.4993340 127.0280430  29.2902410  53.4338460 127.5573340
  30.2894190  54.4343980 127.0165780  27.0269330  67.5384890 131.0218820
  27.6228400  67.2169460 130.3453240  27.2847480  67.0656710 131.8132090
  13.3267530  50.7983200 137.0056260  12.9782350  51.2547020 137.7714440
  12.9955230  49.9040330 137.0878690  14.9331900  63.9702800 141.1709450
  14.8901530  63.5995710 142.0523910  15.0642910  64.9080370 141.3111270
  18.6337930  65.5262390 136.7719170  18.3929290  65.7936950 135.8849690
  19.5740570  65.6968120 136.8270030  20.8392350  51.9895080 140.5275680
  20.7781240  52.5816910 141.2771090  21.7792730  51.8821040 140.3825940
  23.4766910  51.6465140 140.1667970  24.0907320  51.9644430 139.5049050
  24.0216470  51.1613730 140.7863830  29.8942090  67.5456770 137.5729810
  29.4000370  67.9425640 136.8556940  29.2855380  66.9205980 137.9667090
  13.9988170  50.3259400 140.2807030  14.5471160  50.1447450 139.5173140
  14.0643480  49.5353510 140.8163340  14.7719930  66.9165050 138.2907230
  14.1780250  66.7849750 139.0297270  14.7643770  66.0803190 137.8249330
  24.2174950  50.2097280 136.4937260  23.3434790  50.5432390 136.2910190
  24.1085700  49.7370460 137.3189130  25.1246930  52.4168150 137.8778980
  24.7960290  51.6019910 137.4980710  26.0729230  52.3737960 137.7544670
  27.5781540  68.1880190 134.8516550  27.1184510  68.9396000 134.4774570
  26.9494000  67.4686660 134.7931350  14.4032160  64.2823430 137.2415270
  13.6766220  63.6628720 137.1741220  14.4641310  64.6764040 136.3713350
  18.0077260  66.4968430 134.0264680  18.5242280  65.8855790 133.5012940
  18.6574640  66.9997210 134.5175690  20.7472760  67.3876920 134.8533660
  21.0350570  67.1331220 133.9766670  21.2595980  66.8354280 135.4439230
  21.9649770  51.1267120 135.4330170  21.1821560  51.6012620 135.7126930
  21.6712700  50.2221950 135.3243350  26.5170840  51.8290220 133.4779260
  26.9578930  51.7735320 132.6300860  26.2478430  52.7448230 133.5489440
  28.3809410  51.4605460 131.4888080  28.3197810  50.5166680 131.3419100
  29.1601440  51.5685550 132.0341540  12.6862160  67.5997820 130.4512030
  12.5184200  66.9668500 131.1493920  11.8196670  67.8057220 130.1006220
  13.3090180  51.4314600 127.9543890  14.0669540  51.5443480 127.3807920
  12.8467350  52.2683800 127.9087320  19.8503990  53.5453870 130.9446200
  19.0378500  53.1710760 130.6042080  20.3545630  52.7898950 131.2467390
  24.3528970  50.2096320 132.1829270  24.9558340  50.7816530 132.6577790
  23.6121960  50.7735760 131.9603170  27.4963570  50.6117880 127.4569550
  27.6914200  51.5101330 127.7236980  26.7093440  50.3804960 127.9502500
  14.2924860  66.2931050 127.8962170  13.7672480  66.6739080 127.1924130
  14.2169440  66.9181820 128.6171880  15.6815330  51.9578650 126.4945860
  16.2108090  51.1708450 126.3653810  16.3143650  52.6369840 126.7281390
  17.8753170  51.6953790 129.5491250  17.2455910  50.9941100 129.7161380
  17.3358310  52.4557920 129.3324410  20.8145120  68.3093020 142.2201860
  21.7412430  68.0737290 142.2637820  20.7995550  69.1365020 141.7387890
  29.0490180  67.8518590 129.2176110  29.2242370  67.1656330 128.5737030
  28.3511750  68.3765640 128.8252780  18.0008730  50.9737770 141.9843740
  17.7193000  51.4771370 141.2204560  18.3828430  50.1759520 141.6185870
  16.8917830  68.2413430 126.7711420  17.6236650  67.9572710 126.2235310
  17.1511500  68.0026710 127.6610800  16.0532620  64.3578160 126.7757750
  15.4241500  64.8263260 127.3243580  16.1680450  63.5127380 127.2103940
  24.6024190  50.3891350 142.5624210  24.4889640  50.7085960 143.4575730
  25.4193930  50.7903860 142.2661490  27.3822680  67.5362880 142.0442900
  28.1748000  67.0412110 141.8368860  27.6755830  68.2153020 142.6518510
  23.5082340  58.4083820 112.9258950  23.4276390  57.4938430 112.6550660
  23.0946760  58.9050890 112.2198660  21.6400380  60.1862840 114.8068220
  20.8642480  59.7063280 115.0966790  22.2913310  59.5068490 114.6324380
  15.6566210  60.4982650 115.6843980  14.8251090  60.2431360 116.0840490
  16.2647190  60.5693420 116.4201900  15.6367470  64.5322740 115.8802000
  15.9395510  63.6420480 115.7012220  16.3811060  65.0892960 115.6524250
  14.0658160  55.4584540 109.4686370  13.1774860  55.8000510 109.3666250
  14.3499350  55.2584860 108.5767200  12.0291170  58.0590190 115.3526070
  12.6007280  57.2912390 115.3529710  12.0292710  58.3578950 114.4432680
  21.8871120  66.8781040 113.2071340  21.2682560  67.3338540 112.6365780
  22.7422900  67.0332500 112.8061040  21.0809370  62.8620030 114.8138380
  21.0117650  61.9209970 114.6527510  21.8429230  62.9521440 115.3860950
  13.2716040  53.4674550 117.1395000  13.0918880  52.5700300 117.4197760
  12.8696120  54.0146420 117.8141950  22.1114540  55.6690410 115.0407310
  22.4879360  54.7962290 114.9280980  22.0134050  56.0049110 114.1497750
  16.2419550  54.0416040 110.5024750  16.3486300  54.9419770 110.8093510
  15.3311910  53.9934010 110.2119400  25.8938660  53.1640850 111.9735650
  26.7148280  52.6737420 112.0161130  25.9272740  53.7538510 112.7267490
  13.8902710  55.9635050 115.7477340  14.5712820  56.2273420 116.3664740
  13.5750760  55.1235920 116.0815350  18.0827280  57.0102410 114.8349930
  18.5905500  57.5083380 115.4754950  18.6140520  56.2337610 114.6589290
  30.1838210  55.1807600 118.5379280  29.4790380  55.5689310 118.0194390
  30.4496130  55.8757890 119.1400210  16.3663380  51.6500970 119.1013350
  16.3681820  52.1673360 118.2959250  15.5367690  51.1731150 119.0783280
  22.7534470  61.7620280 110.6003250  22.1351740  62.2269730 110.0365970
  23.2657720  62.4547760 111.0172760  17.6166230  61.2896150 117.2786850
  17.2835610  61.9165070 117.9207920  17.7932910  61.8158030 116.4988520
  26.1300140  55.1041230 114.7463190  25.4255710  55.3926120 115.3266300
  26.4912300  55.9141340 114.3862750  16.0478710  53.3610930 117.1083800
  16.3895520  54.2052980 116.8137670  15.1094520  53.5094670 117.2249140
  16.8285330  63.2576950 119.0936030  17.4459330  63.9328030 118.8120480
  15.9678450  63.6664930 119.0023530  12.1217670  62.4476810 107.9742880
  11.7445650  62.9363910 107.2427780  12.3790740  63.1202090 108.6049410
  29.1987060  54.5496020 115.1372400  28.2511970  54.5835000 115.2687830
  29.5237050  55.3634970 115.5221760  19.7306600  50.8493200 113.4328390
  20.0381580  50.2940090 112.7163890  18.8007300  50.9837660 113.2501380
  26.5767080  63.2876710 110.8126020  26.4663410  62.3451040 110.9375440
  26.5735330  63.6492350 111.6988780  24.6807100  61.4690330 117.0518460
  25.0975890  61.2550440 116.2171920  25.4046920  61.7263120 117.6227080
  22.1187360  58.9142030 110.1688510  21.1916640  58.8479410 110.3976980
  22.2712180  59.8522160 110.0543750  22.1056440  55.1859030 107.1655670
  21.1660110  55.3472990 107.2508130  22.4239700  55.9044710 106.6191660
  28.6269200  59.8677550 117.1434700  27.7987830  59.9370640 116.6684830
  29.2219680  60.4531860 116.6750530  26.1484650  60.4762330 110.6723760
  25.5297070  60.1381880 110.0250060  26.1309100  59.8322090 111.3802950
  25.5911210  56.6546870 118.0889570  25.1782390  57.4800580 118.3429560
  24.8587160  56.0691910 117.8965930  17.7244000  59.4406770 112.9508240
  17.3201000  58.7284020 112.4554140  17.8107120  59.0960010 113.8396280
  18.1925700  63.1274330 115.1147450  17.8953990  62.5219800 114.4355230
  19.1425520  63.1651640 115.0036810  16.4372620  56.2149980 116.7307280
  16.9887210  56.3245320 115.9560530  16.9516130  56.5887580 117.4462510
  17.2844130  62.8656020 121.7655250  16.3872660  63.0895990 122.0128650
  17.3097000  62.9890960 120.8166650  24.3249350  59.7149140 107.6796510
  24.7642630  58.8771570 107.5334330  25.0377770  60.3478540 107.7660650
  16.1115350  59.7369340 120.3412620  15.9723120  60.6092140 120.7100020
  15.2296710  59.3942150 120.1960560  22.4344730  64.6545210 111.6477750
  22.8740640  65.3969540 111.2333140  22.3731620  64.8971780 112.5716710
  17.9095700  65.6791040 122.5497770  17.8811130  66.0833990 121.6826200
  17.7460670  64.7501400 122.3869370  14.4248630  58.3351750 110.4514890
  14.3046230  59.0613840 109.8396160  14.1149520  57.5654660 109.9742800
  29.8610520  66.4618140 123.8461940  30.3370240  66.9401030 124.5251020
  30.4817680  66.3935630 123.1207440  12.0634000  61.5066890 116.2583530
  12.1414420  61.6415660 115.3139250  12.6775680  60.7982780 116.4511650
  13.3081630  63.2067080 112.6689710  12.9009710  63.3481670 111.8143310
  14.1994640  62.9227240 112.4660920  29.2643770  63.6530990 121.0061950
  29.3906830  63.4142870 120.0879130  29.3065150  62.8215530 121.4784030
  23.1260510  67.3558990 119.5756760  23.6405180  67.2667000 120.3779190
  22.2829590  67.7018690 119.8684670  17.5803290  67.4212860 110.7812380
  17.4045770  66.5048400 110.5680180  16.7259030  67.7800150 111.0210180
  24.8041040  65.1501890 107.5638760  24.1106200  65.1479180 106.9041040
  25.5463900  64.7261210 107.1332930  29.1167780  55.7063450 121.9711690
  28.5012050  56.2143120 121.4427150  28.7964200  54.8061780 121.9137630
  12.1193520  62.5481060 118.7977990  12.2824560  62.0786420 117.9797360
  12.5845970  62.0404620 119.4626830  16.8912290  51.6786820 113.8338560
  16.4480440  52.4596360 113.5023080  17.4497280  52.0016710 114.5409500
  21.1782100  54.5455340 119.4373880  20.7161470  54.7538360 120.2493820
  20.7760210  53.7314690 119.1344550  26.1786610  55.7664290 120.5670540
  25.3280200  55.4670040 120.8879610  26.0188400  56.0106300 119.6554360
  23.2736320  57.2666040 122.6669330  23.5989730  56.4329790 122.3271560
  24.0616650  57.7894560 122.8147660  20.0071110  51.2997520 108.7144390
  19.3825290  51.2957390 109.4397700  19.9201230  50.4328480 108.3180360
  18.9288190  52.2234150 115.6928160  19.2260520  53.1296980 115.6120180
  19.4773750  51.7352930 115.0787730  16.6826510  56.8020390 111.5619810
  16.4567430  56.5857560 112.4666430  15.9019040  57.2348850 111.2165780
  23.9124270  56.8083760 110.1610460  23.3133160  57.5319560 109.9774080
  24.4603880  56.7460540 109.3786910  19.1225720  57.7005970 122.2280080
  19.0269320  56.7600700 122.0780480  19.9657700  57.9221040 121.8328150
  22.5189140  55.4447300 112.1913740  22.9118710  55.7619500 111.3782430
  22.8805990  54.5659180 112.3058260  14.2536260  54.1119640 120.3813860
  13.8599650  54.9594850 120.5886640  13.5654660  53.4746010 120.5722500
  20.8281310  54.1954610 123.4510600  20.1379630  54.0026810 124.0856690
  21.5713610  54.4789250 123.9834900  11.5553310  52.0348100 114.4143940
  11.2666360  52.6050960 115.1268920  12.2999070  51.5552550 114.7775170
  11.7423540  55.9768220 105.6246660  11.6598210  56.9198980 105.7661650
  11.3906600  55.8343130 104.7459010  23.1044280  58.0353050 116.2864520
  22.3725400  58.5439860 116.6354620  22.7068620  57.2183030 115.9853300
  19.5421670  54.7107250 114.6917010  19.5457730  54.2697200 113.8421550
  20.4372790  55.0324580 114.7988830  15.3924050  54.5933740 113.6511220
  15.0524100  55.0708970 114.4078270  14.6301370  54.1398860 113.2912320
  19.6041820  55.7119330 107.6823770  19.7254640  55.6705810 108.6309590
  19.2190330  56.5743480 107.5270500  23.5670190  53.4886730 115.6987460
  23.5842930  53.9395380 116.5429310  23.3185770  52.5892370 115.9120900
  18.6163320  58.0220470 107.0807070  18.0480220  57.5738720 106.4542980
  19.3252320  58.3813250 106.5472220  26.9940940  50.9018910 121.5373840
  27.3186710  50.1708570 122.0631820  27.0297450  50.5832550 120.6354830
  13.6932500  61.9232490 120.9573800  13.3087290  61.2826160 121.5556760
  14.0044690  62.6268610 121.5268530  19.8429640  58.7709030 116.4382420
  20.2099770  58.2967600 117.1843760  19.6534700  59.6450600 116.7790760
  12.7070130  53.5152720 112.5675890  12.4217050  53.1508390 113.4054510
  12.6448990  52.7833180 111.9539030  17.6329010  57.8117670 118.7566630
  17.3286080  58.6909650 118.9816990  18.5875470  57.8717460 118.7924070
  16.1610800  62.0178660 109.3533480  15.3873060  61.4776280 109.1932200
  16.8905430  61.4985270 109.0151240  26.9198780  61.0144020 115.1459870
  27.6397900  61.5099310 114.7555980  26.7180600  60.3361910 114.5013740
  22.3808720  52.4081980 109.2889260  21.5673330  51.9095150 109.2134570
  22.1870670  53.2480230 108.8725610  22.3017580  61.0853080 121.0328870
  22.2354890  60.1648750 120.7786460  21.6722720  61.1828520 121.7473510
  25.0957110  56.7801630 107.5851420  25.9836730  57.0918860 107.4102760
  25.0662200  55.9073880 107.1932000  16.2048200  61.6859040 112.9912290
  16.7226870  60.8827300 112.9369180  15.7532220  61.6238180 113.8329120
  21.0917700  62.9525320 108.2639590  21.4333400  63.6967550 107.7682910
  20.2630410  63.2656440 108.6264420  13.6892740  58.6520410 119.9037990
  13.3307680  59.3174260 120.4911330  13.3947300  57.8203960 120.2750610
  16.8905860  59.1104650 122.7877540  16.5906000  59.2561830 121.8905360
  17.6617100  58.5509940 122.6950930  22.2334310  63.9073650 120.7832670
  22.2478850  62.9754610 120.5651580  21.5259410  63.9933410 121.4222440
  28.4445520  60.5480990 120.1301250  27.7193710  61.1409770 119.9330640
  28.9720980  60.5404530 119.3314620  28.3958630  64.9455730 109.7813410
  27.7534790  64.2911350 110.0557130  28.0089290  65.3510820 109.0054080
  23.9745110  62.2741160 113.6285100  24.3268930  61.6769290 112.9686470
  23.0907440  61.9485390 113.7993350  20.0608390  63.0338850 111.0355510
  20.7479520  63.5808060 111.4163100  19.2740810  63.5779580 111.0705120
  12.2000790  58.6511670 106.5272590  13.0695640  58.9336470 106.8108510
  11.7091110  59.4647540 106.4121400  19.3635600  60.0384880 110.6480870
  19.8198380  60.8490130 110.8741060  19.0123810  59.7208020 111.4799360
  21.6668210  65.5491220 117.8773170  22.3110430  65.7550600 118.5546590
  22.0297650  64.7879620 117.4244020  15.2647380  50.3822530 111.1203390
  15.1362010  50.3740430 112.0688310  14.4409400  50.7205620 110.7694400
  22.9400290  63.5523570 116.5950620  23.5822520  62.8516730 116.7082790
  23.4649640  64.3322010 116.4147510  26.7856010  63.8372190 106.3189760
  26.5593590  63.1202630 106.9114400  26.3952210  63.5884630 105.4811510
  24.7137910  64.3518470 119.7986680  25.0494150  64.9385160 120.4764600
  23.7938250  64.2211180 120.0284470  12.5672040  67.8639050 107.0934220
  12.9269680  68.4628390 106.4391490  12.4264380  68.4098940 107.8669250
  12.2641310  52.1413650 120.5810090  11.5499830  52.3410570 121.1862700
  12.6836350  51.3653220 120.9524890  26.3672260  61.7544130 107.9803920
  26.0793960  62.2156820 108.7681800  27.1624430  61.2941900 108.2488140
  12.5513900  66.1293910 121.5676620  12.6605020  65.1888650 121.4272010
  11.8994460  66.3948660 120.9190350  20.5426490  64.4009800 122.9674740
  20.2223360  63.6819040 123.5120430  19.8684850  65.0764870 123.0410800
  18.5840660  65.2470250 107.9107890  18.5750760  65.9799940 107.2952400
  17.6639020  65.0001830 108.0034850  14.1847300  60.4685140 108.6554650
  13.5775250  61.2084040 108.6649950  14.6596650  60.5584500 107.8292850
  23.7580090  54.6335960 118.3311540  24.1260910  53.8131170 118.6591110
  22.8978290  54.6937850 118.7467190  21.5700260  65.3098490 106.5733080
  21.6712240  65.1062480 105.6435060  20.6702000  65.0556770 106.7780860
  19.0926150  55.8678850 110.5556980  18.3842300  56.3365190 110.9970590
  19.3770630  55.2100860 111.1902170  20.7182080  57.2875550 118.5549510
  21.2167330  57.7621370 119.2201360  20.8605030  56.3639070 118.7619540
  23.1241580  52.5929510 111.9952770  23.0009360  52.6115640 111.0462280
  24.0726140  52.6408450 112.1151170  20.2118370  67.8284810 111.2680750
  20.4659870  67.7906200 110.3460120  19.2630850  67.7018140 111.2609000
  17.2961170  54.1763930 107.9307690  18.1451700  54.6134080 107.8647880
  16.9292440  54.4884190 108.7579750  27.9248940  53.5043510 119.3977900
  27.4222540  54.2448910 119.7371710  28.7405600  53.8927510 119.0814690
  26.2170950  58.7476690 112.8439260  25.2761090  58.7626920 113.0186950
  26.5315020  57.9612650 113.2899560  16.1952590  60.4296290 106.4043220
  16.9615860  60.3177650 106.9668650  16.2727280  59.7334260 105.7519990
  14.8899350  57.8621360 107.0876110  14.9702940  56.9148870 107.1993510
  15.7819100  58.1928240 107.1936770  15.6914060  68.0116750 114.1910650
  16.4276540  67.4632210 114.4619220  16.0754980  68.8772760 114.0516640
  12.5759540  64.0790320 110.0652160  11.6499320  64.3211460 110.0557570
  13.0415970  64.9064580 109.9436910  14.6972340  67.1962820 123.3796230
  15.4985070  67.5174870 123.7931630  14.1824160  66.8358400 124.1016140
  18.8016370  67.1847060 106.0136220  19.5944980  67.4735890 105.5618010
  18.2820720  66.7539230 105.3348700  23.5336970  63.3042690 123.3271640
  22.9275130  63.3274290 122.5867390  23.2291080  62.5725730 123.8638890
  24.9637340  67.0322980 121.9381050  25.9159090  66.9481000 121.8881290
  24.8165560  67.6964690 122.6114840  12.4170150  59.6836280 122.3232280
  12.9209170  59.1043560 122.8948510  11.6777570  59.9676510 122.8608650
  19.3193770  62.4050470 105.8778570  19.2144410  61.7902820 106.6039950
  19.1517990  61.8816360 105.0941580  19.4708090  61.0907270 121.8567800
  18.7053760  61.6592270 121.7722470  19.6524050  60.7983480 120.9636030
  22.5596500  61.4670500 106.4820560  22.0106600  61.9139800 107.1263300
  23.1815760  60.9619750 107.0058230  26.6131440  62.8212600 122.4142820
  27.3540910  63.1588360 121.9110280  25.8504120  62.9904660 121.8612590
  14.4493230  57.8265870 123.2182350  14.4898570  57.5279740 124.1267580
  15.3038730  58.2273480 123.0589870  18.2271620  60.4261420 108.3785860
  18.6488040  60.2601290 109.2217250  18.3522460  59.6161650 107.8841000
  16.3899040  56.4057970 121.1856840  15.8595500  55.9148920 120.5580180
  17.0587110  56.8342170 120.6514770  20.7399260  59.4499030 105.6262960
  21.2604920  58.7348050 105.2604110  21.3867660  60.0884900 105.9263470
  25.2877100  60.8727430 120.9498030  25.7018120  61.0272510 121.7988450
  24.3528100  60.9982650 121.1123810  25.7599270  58.2123590 122.9537180
  26.3420040  57.4575910 122.8657660  25.9361040  58.7431030 122.1768660
  16.8771340  53.3720340 121.2654130  16.7828210  52.7541090 120.5405000
  16.2968730  54.0986630 121.0384040  19.6432780  51.9293580 118.2981520
  19.1950080  51.9517840 117.4527070  19.0097980  51.5312600 118.8951820
  20.0492330  60.8247910 118.9193960  20.4680440  61.6680640 118.7470200
  19.1300960  60.9619950 118.6900740  22.3856230  58.5564090 120.3031800
  22.5052440  57.9605230 121.0426640  23.2450230  58.5933780 119.8833100
  24.7244130  59.1101280 118.8794310  24.1979350  59.6343900 118.2759450
  25.0675470  59.7428670 119.5104040  17.1230520  56.4994650 105.3244020
  16.9219580  55.6362010 105.6857360  16.9522570  56.4128010 104.3865620
  17.8999750  67.1300920 120.0351690  17.3620840  67.8546980 119.7160390
  18.1533710  66.6531260 119.2449030  19.1525000  55.0985440 121.5607620
  19.7424690  54.7901290 122.2485440  18.3345240  54.6265190 121.7167520
  23.9718430  54.7151250 121.7940640  23.2833950  54.0532790 121.7290630
  24.6924450  54.2689520 122.2389100  24.6018830  51.3102880 107.8530900
  24.8821120  50.4670780 108.2090320  23.8284560  51.5425990 108.3669650
  15.9213320  53.5995270 105.3121900  16.2239220  53.6062700 104.4041050
  16.6607910  53.2493130 105.8089560  20.7561960  68.3652130 120.2938340
  20.6820660  69.2687270 120.6010710  19.8540800  68.0464030 120.2660410
  19.1398250  52.5429890 106.2978100  18.7920250  51.8653880 105.7180550
  19.3411020  52.0819400 107.1121490  21.3047290  67.5310640 107.9164700
  22.1998080  67.8695610 107.9383460  21.3364920  66.8090050 107.2888980
  14.9443450  62.9037690 106.1451700  15.3818320  63.4467360 106.8009280
  15.4291180  62.0784640 106.1548040  12.1589250  65.6926720 113.5971960
  12.4892260  64.8247780 113.3650600  12.5880250  65.8985240 114.4276920
  16.7551170  64.0235730 111.2573930  16.4546710  63.9000700 112.1577840
  16.6488660  63.1644320 110.8489660  12.6479460  66.5597310 116.3353590
  12.2110450  66.7398110 117.1677740  13.2157140  67.3171930 116.1935310
  28.2841640  66.0614310 120.6230900  27.6843630  66.1206870 119.8794820
  28.4135540  65.1219290 120.7527750  29.5243090  63.8032130 105.9600610
  28.6936050  63.8708780 106.4307840  29.7014920  64.6936250 105.6567470
  28.9799550  60.5479610 108.4634810  29.7418460  61.1176260 108.5694500
  28.9953920  59.9806810 109.2343120  12.4803890  59.0717540 112.6942470
  11.8252730  58.8029180 112.0502170  13.3181840  58.9622020 112.2444450
  29.9859520  61.4029710 113.3076740  30.3568350  60.6197030 112.9012710
  30.6261450  62.0918810 113.1294040  26.9693280  62.7866290 118.7207060
  26.1553120  63.2163450 118.9832850  27.3767480  63.3984700 118.1076110
  29.0318720  60.8413980 105.6207330  29.3067560  61.7492860 105.4926550
  28.8429460  60.7776510 106.5569320  28.9284060  58.7782970 110.6136760
  28.5527660  58.0110900 110.1818050  28.1987180  59.1605670 111.1011690
  13.5179820  59.4570110 117.2345810  13.8852860  59.3697510 118.1141830
  12.9490640  58.6936660 117.1352670  28.3183680  57.9254490 120.2476280
  28.0869770  57.6967240 119.3474230  28.5788230  58.8454040 120.2021170
  13.0695820  56.3679200 121.1404230  12.1751870  56.3345960 121.4797940
  13.6093370  56.5665990 121.9055480  26.7571750  53.1510920 123.0255980
  27.6341930  53.1594320 123.4089980  26.7692590  52.4141760 122.4148330
  11.6941970  56.2816470 108.6367800  10.7906050  56.5446670 108.4619460
  12.1782590  56.5527640 107.8567760  28.2035020  57.0040460 113.9144000
  28.7272500  56.5103110 113.2834170  28.7894440  57.1390820 114.6591570
  28.3824740  57.0880330 117.4363550  27.4327450  57.0543870 117.5508540
  28.5637750  57.9980440 117.2013320  14.2369180  55.3382010 106.5462180
  14.9460880  54.9165230 106.0609460  13.5209120  55.4057240 105.9145530
  13.8843340  51.3921340 105.5864830  14.6071470  51.9330280 105.9046050
  14.1567860  51.1184760 104.7106370  27.6934990  56.2613810 109.8536410
  28.1894110  56.0284680 110.6385290  27.4951060  55.4225650 109.4374050
  13.5735530  50.6427530 115.4887450  14.2211720  50.0924910 115.0482610
  13.9937370  50.8970680 116.3103260  29.1222150  54.8974760 112.3874090
  29.0121430  54.7430800 113.3256360  29.8829740  54.3695700 112.1449500
  27.4687870  50.8368890 118.8457090  28.1060090  51.4503030 119.2116280
  27.6162760  50.8729550 117.9006320  13.3267530  50.7983200 118.2312770
  12.9782350  51.2547020 118.9970950  12.9955230  49.9040330 118.3135200
  14.9331900  63.9702800 122.3965960  14.8901530  63.5995710 123.2780420
  15.0642910  64.9080370 122.5367780  18.6337930  65.5262390 117.9975680
  18.3929290  65.7936950 117.1106200  19.5740570  65.6968120 118.0526540
  20.8392350  51.9895080 121.7532190  20.7781240  52.5816910 122.5027600
  21.7792730  51.8821040 121.6082450  23.4766910  51.6465140 121.3924480
  24.0907320  51.9644430 120.7305560  24.0216470  51.1613730 122.0120340
  13.9988170  50.3259400 121.5063540  14.5471160  50.1447450 120.7429650
  14.0643480  49.5353510 122.0419850  14.7719930  66.9165050 119.5163740
  14.1780250  66.7849750 120.2553780  14.7643770  66.0803190 119.0505840
  24.2174950  50.2097280 117.7193770  23.3434790  50.5432390 117.5166700
  24.1085700  49.7370460 118.5445640  25.1246930  52.4168150 119.1035490
  24.7960290  51.6019910 118.7237220  26.0729230  52.3737960 118.9801180
  14.4032160  64.2823430 118.4671780  13.6766220  63.6628720 118.3997730
  14.4641310  64.6764040 117.5969860  18.0077260  66.4968430 115.2521190
  18.5242280  65.8855790 114.7269450  18.6574640  66.9997210 115.7432200
  20.7472760  67.3876920 116.0790170  21.0350570  67.1331220 115.2023180
  21.2595980  66.8354280 116.6695740  21.9649770  51.1267120 116.6586680
  21.1821560  51.6012620 116.9383440  21.6712700  50.2221950 116.5499860
  26.5170840  51.8290220 114.7035770  26.9578930  51.7735320 113.8557370
  26.2478430  52.7448230 114.7745950  28.3809410  51.4605460 112.7144590
  28.3197810  50.5166680 112.5675610  29.1601440  51.5685550 113.2598050
  12.6862160  67.5997820 111.6768540  12.5184200  66.9668500 112.3750430
  11.8196670  67.8057220 111.3262730  13.3090180  51.4314600 109.1800400
  14.0669540  51.5443480 108.6064430  12.8467350  52.2683800 109.1343830
  19.8503990  53.5453870 112.1702710  19.0378500  53.1710760 111.8298590
  20.3545630  52.7898950 112.4723900  24.3528970  50.2096320 113.4085780
  24.9558340  50.7816530 113.8834300  23.6121960  50.7735760 113.1859680
  14.2924860  66.2931050 109.1218680  13.7672480  66.6739080 108.4180640
  14.2169440  66.9181820 109.8428390  15.6815330  51.9578650 107.7202370
  16.2108090  51.1708450 107.5910320  16.3143650  52.6369840 107.9537900
  17.8753170  51.6953790 110.7747760  17.2455910  50.9941100 110.9417890
  17.3358310  52.4557920 110.5580920  20.8145120  68.3093020 123.4458370
  21.7412430  68.0737290 123.4894330  20.7995550  69.1365020 122.9644400
  18.0008730  50.9737770 123.2100250  17.7193000  51.4771370 122.4461070
  18.3828430  50.1759520 122.8442380  16.8917830  68.2413430 107.9967930
  17.6236650  67.9572710 107.4491820  17.1511500  68.0026710 108.8867310
  16.0532620  64.3578160 108.0014260  15.4241500  64.8263260 108.5500090
  16.1680450  63.5127380 108.4360450  24.6024190  50.3891350 123.7880720
  24.4889640  50.7085960 124.6832240  25.4193930  50.7903860 123.4918000
  27.3822680  67.5362880 123.2699410  28.1748000  67.0412110 123.0625370
  27.6755830  68.2153020 123.8775020  21.6400380  60.1862840  96.0324730
  20.8642480  59.7063280  96.3223300  22.2913310  59.5068490  95.8580890
  15.6566210  60.4982650  96.9100490  14.8251090  60.2431360  97.3097000
  16.2647190  60.5693420  97.6458410  25.6607810  64.5923030  94.8123860
  25.1989340  63.8210270  95.1411030  26.4733360  64.6189100  95.3176310
  15.6367470  64.5322740  97.1058510  15.9395510  63.6420480  96.9268730
  16.3811060  65.0892960  96.8780760  14.0658160  55.4584540  90.6942880
  13.1774860  55.8000510  90.5922760  14.3499350  55.2584860  89.8023710
  12.0291170  58.0590190  96.5782580  12.6007280  57.2912390  96.5786220
  12.0292710  58.3578950  95.6689190  21.8871120  66.8781040  94.4327850
  21.2682560  67.3338540  93.8622290  22.7422900  67.0332500  94.0317550
  21.0809370  62.8620030  96.0394890  21.0117650  61.9209970  95.8784020
  21.8429230  62.9521440  96.6117460  13.2716040  53.4674550  98.3651510
  13.0918880  52.5700300  98.6454270  12.8696120  54.0146420  99.0398460
  22.1114540  55.6690410  96.2663820  22.4879360  54.7962290  96.1537490
  22.0134050  56.0049110  95.3754260  16.2419550  54.0416040  91.7281260
  16.3486300  54.9419770  92.0350020  15.3311910  53.9934010  91.4375910
  13.8902710  55.9635050  96.9733850  14.5712820  56.2273420  97.5921250
  13.5750760  55.1235920  97.3071860  18.0827280  57.0102410  96.0606440
  18.5905500  57.5083380  96.7011460  18.6140520  56.2337610  95.8845800
  30.1838210  55.1807600  99.7635790  29.4790380  55.5689310  99.2450900
  30.4496130  55.8757890 100.3656720  16.3663380  51.6500970 100.3269860
  16.3681820  52.1673360  99.5215760  15.5367690  51.1731150 100.3039790
  17.6166230  61.2896150  98.5043360  17.2835610  61.9165070  99.1464430
  17.7932910  61.8158030  97.7245030  16.0478710  53.3610930  98.3340310
  16.3895520  54.2052980  98.0394180  15.1094520  53.5094670  98.4505650
  16.8285330  63.2576950 100.3192540  17.4459330  63.9328030 100.0376990
  15.9678450  63.6664930 100.2280040  12.1217670  62.4476810  89.1999390
  11.7445650  62.9363910  88.4684290  12.3790740  63.1202090  89.8305920
  27.7462920  64.7216360  98.2347180  27.0626440  65.3915470  98.2263850
  28.2857210  64.9197010  97.4692040  19.7306600  50.8493200  94.6584900
  20.0381580  50.2940090  93.9420400  18.8007300  50.9837660  94.4757890
  25.2821660  66.5660490  96.9492360  25.2948820  66.1622780  96.0814620
  24.7296880  67.3407780  96.8453790  26.5767080  63.2876710  92.0382530
  26.4663410  62.3451040  92.1631950  26.5735330  63.6492350  92.9245290
  24.6807100  61.4690330  98.2774970  25.0975890  61.2550440  97.4428430
  25.4046920  61.7263120  98.8483590  25.5911210  56.6546870  99.3146080
  25.1782390  57.4800580  99.5686070  24.8587160  56.0691910  99.1222440
  17.7244000  59.4406770  94.1764750  17.3201000  58.7284020  93.6810650
  17.8107120  59.0960010  95.0652790  18.1925700  63.1274330  96.3403960
  17.8953990  62.5219800  95.6611740  19.1425520  63.1651640  96.2293320
  16.4372620  56.2149980  97.9563790  16.9887210  56.3245320  97.1817040
  16.9516130  56.5887580  98.6719020  17.2844130  62.8656020 102.9911760
  16.3872660  63.0895990 103.2385160  17.3097000  62.9890960 102.0423160
  16.1115350  59.7369340 101.5669130  15.9723120  60.6092140 101.9356530
  15.2296710  59.3942150 101.4217070  22.4344730  64.6545210  92.8734260
  22.8740640  65.3969540  92.4589650  22.3731620  64.8971780  93.7973220
  17.9095700  65.6791040 103.7754280  17.8811130  66.0833990 102.9082710
  17.7460670  64.7501400 103.6125880  14.4248630  58.3351750  91.6771400
  14.3046230  59.0613840  91.0652670  14.1149520  57.5654660  91.1999310
  12.0634000  61.5066890  97.4840040  12.1414420  61.6415660  96.5395760
  12.6775680  60.7982780  97.6768160  13.3081630  63.2067080  93.8946220
  12.9009710  63.3481670  93.0399820  14.1994640  62.9227240  93.6917430
  23.1260510  67.3558990 100.8013270  23.6405180  67.2667000 101.6035700
  22.2829590  67.7018690 101.0941180  17.5803290  67.4212860  92.0068890
  17.4045770  66.5048400  91.7936690  16.7259030  67.7800150  92.2466690
  12.1193520  62.5481060 100.0234500  12.2824560  62.0786420  99.2053870
  12.5845970  62.0404620 100.6883340  16.8912290  51.6786820  95.0595070
  16.4480440  52.4596360  94.7279590  17.4497280  52.0016710  95.7666010
  21.1782100  54.5455340 100.6630390  20.7161470  54.7538360 101.4750330
  20.7760210  53.7314690 100.3601060  23.2736320  57.2666040 103.8925840
  23.5989730  56.4329790 103.5528070  24.0616650  57.7894560 104.0404170
  18.9288190  52.2234150  96.9184670  19.2260520  53.1296980  96.8376690
  19.4773750  51.7352930  96.3044240  16.6826510  56.8020390  92.7876320
  16.4567430  56.5857560  93.6922940  15.9019040  57.2348850  92.4422290
  19.1225720  57.7005970 103.4536590  19.0269320  56.7600700 103.3036990
  19.9657700  57.9221040 103.0584660  14.2536260  54.1119640 101.6070370
  13.8599650  54.9594850 101.8143150  13.5654660  53.4746010 101.7979010
  20.8281310  54.1954610 104.6767110  20.1379630  54.0026810 105.3113200
  21.5713610  54.4789250 105.2091410  11.5553310  52.0348100  95.6400450
  11.2666360  52.6050960  96.3525430  12.2999070  51.5552550  96.0031680
  11.7423540  55.9768220  86.8503170  11.6598210  56.9198980  86.9918160
  11.3906600  55.8343130  85.9715520  23.1044280  58.0353050  97.5121030
  22.3725400  58.5439860  97.8611130  22.7068620  57.2183030  97.2109810
  19.5421670  54.7107250  95.9173520  19.5457730  54.2697200  95.0678060
  20.4372790  55.0324580  96.0245340  15.3924050  54.5933740  94.8767730
  15.0524100  55.0708970  95.6334780  14.6301370  54.1398860  94.5168830
  23.5670190  53.4886730  96.9243970  23.5842930  53.9395380  97.7685820
  23.3185770  52.5892370  97.1377410  18.6163320  58.0220470  88.3063580
  18.0480220  57.5738720  87.6799490  19.3252320  58.3813250  87.7728730
  13.6932500  61.9232490 102.1830310  13.3087290  61.2826160 102.7813270
  14.0044690  62.6268610 102.7525040  19.8429640  58.7709030  97.6638930
  20.2099770  58.2967600  98.4100270  19.6534700  59.6450600  98.0047270
  12.7070130  53.5152720  93.7932400  12.4217050  53.1508390  94.6311020
  12.6448990  52.7833180  93.1795540  17.6329010  57.8117670  99.9823140
  17.3286080  58.6909650 100.2073500  18.5875470  57.8717460 100.0180580
  16.1610800  62.0178660  90.5789990  15.3873060  61.4776280  90.4188710
  16.8905430  61.4985270  90.2407750  22.3017580  61.0853080 102.2585380
  22.2354890  60.1648750 102.0042970  21.6722720  61.1828520 102.9730020
  16.2048200  61.6859040  94.2168800  16.7226870  60.8827300  94.1625690
  15.7532220  61.6238180  95.0585630  13.6892740  58.6520410 101.1294500
  13.3307680  59.3174260 101.7167840  13.3947300  57.8203960 101.5007120
  16.8905860  59.1104650 104.0134050  16.5906000  59.2561830 103.1161870
  17.6617100  58.5509940 103.9207440  22.2334310  63.9073650 102.0089180
  22.2478850  62.9754610 101.7908090  21.5259410  63.9933410 102.6478950
  28.4445520  60.5480990 101.3557760  27.7193710  61.1409770 101.1587150
  28.9720980  60.5404530 100.5571130  20.0608390  63.0338850  92.2612020
  20.7479520  63.5808060  92.6419610  19.2740810  63.5779580  92.2961630
  12.2000790  58.6511670  87.7529100  13.0695640  58.9336470  88.0365020
  11.7091110  59.4647540  87.6377910  19.3635600  60.0384880  91.8737380
  19.8198380  60.8490130  92.0997570  19.0123810  59.7208020  92.7055870
  21.6668210  65.5491220  99.1029680  22.3110430  65.7550600  99.7803100
  22.0297650  64.7879620  98.6500530  15.2647380  50.3822530  92.3459900
  15.1362010  50.3740430  93.2944820  14.4409400  50.7205620  91.9950910
  22.9400290  63.5523570  97.8207130  23.5822520  62.8516730  97.9339300
  23.4649640  64.3322010  97.6404020  26.7856010  63.8372190  87.5446270
  26.5593590  63.1202630  88.1370910  26.3952210  63.5884630  86.7068020
  24.7137910  64.3518470 101.0243190  25.0494150  64.9385160 101.7021110
  23.7938250  64.2211180 101.2540980  12.5672040  67.8639050  88.3190730
  12.9269680  68.4628390  87.6648000  12.4264380  68.4098940  89.0925760
  12.2641310  52.1413650 101.8066600  11.5499830  52.3410570 102.4119210
  12.6836350  51.3653220 102.1781400  12.5513900  66.1293910 102.7933130
  12.6605020  65.1888650 102.6528520  11.8994460  66.3948660 102.1446860
  20.5426490  64.4009800 104.1931250  20.2223360  63.6819040 104.7376940
  19.8684850  65.0764870 104.2667310  14.1847300  60.4685140  89.8811160
  13.5775250  61.2084040  89.8906460  14.6596650  60.5584500  89.0549360
  23.7580090  54.6335960  99.5568050  24.1260910  53.8131170  99.8847620
  22.8978290  54.6937850  99.9723700  20.7182080  57.2875550  99.7806020
  21.2167330  57.7621370 100.4457870  20.8605030  56.3639070  99.9876050
  20.2118370  67.8284810  92.4937260  20.4659870  67.7906200  91.5716630
  19.2630850  67.7018140  92.4865510  27.9248940  53.5043510 100.6234410
  27.4222540  54.2448910 100.9628220  28.7405600  53.8927510 100.3071200
  14.8899350  57.8621360  88.3132620  14.9702940  56.9148870  88.4250020
  15.7819100  58.1928240  88.4193280  28.2196530  65.9185540  95.7450030
  28.3443950  66.7416710  96.2173840  29.0862090  65.7076270  95.3974180
  15.6914060  68.0116750  95.4167160  16.4276540  67.4632210  95.6875730
  16.0754980  68.8772760  95.2773150  12.5759540  64.0790320  91.2908670
  11.6499320  64.3211460  91.2814080  13.0415970  64.9064580  91.1693420
  14.6972340  67.1962820 104.6052740  15.4985070  67.5174870 105.0188140
  14.1824160  66.8358400 105.3272650  23.5336970  63.3042690 104.5528150
  22.9275130  63.3274290 103.8123900  23.2291080  62.5725730 105.0895400
  12.4170150  59.6836280 103.5488790  12.9209170  59.1043560 104.1205020
  11.6777570  59.9676510 104.0865160  19.4708090  61.0907270 103.0824310
  18.7053760  61.6592270 102.9978980  19.6524050  60.7983480 102.1892540
  26.6131440  62.8212600 103.6399330  27.3540910  63.1588360 103.1366790
  25.8504120  62.9904660 103.0869100  14.4493230  57.8265870 104.4438860
  14.4898570  57.5279740 105.3524090  15.3038730  58.2273480 104.2846380
  16.3899040  56.4057970 102.4113350  15.8595500  55.9148920 101.7836690
  17.0587110  56.8342170 101.8771280  25.2877100  60.8727430 102.1754540
  25.7018120  61.0272510 103.0244960  24.3528100  60.9982650 102.3380320
  16.8771340  53.3720340 102.4910640  16.7828210  52.7541090 101.7661510
  16.2968730  54.0986630 102.2640550  19.6432780  51.9293580  99.5238030
  19.1950080  51.9517840  98.6783580  19.0097980  51.5312600 100.1208330
  20.0492330  60.8247910 100.1450470  20.4680440  61.6680640  99.9726710
  19.1300960  60.9619950  99.9157250  22.3856230  58.5564090 101.5288310
  22.5052440  57.9605230 102.2683150  23.2450230  58.5933780 101.1089610
  24.7244130  59.1101280 100.1050820  24.1979350  59.6343900  99.5015960
  25.0675470  59.7428670 100.7360550  17.1230520  56.4994650  86.5500530
  16.9219580  55.6362010  86.9113870  16.9522570  56.4128010  85.6122130
  17.8999750  67.1300920 101.2608200  17.3620840  67.8546980 100.9416900
  18.1533710  66.6531260 100.4705540  19.1525000  55.0985440 102.7864130
  19.7424690  54.7901290 103.4741950  18.3345240  54.6265190 102.9424030
  23.9718430  54.7151250 103.0197150  23.2833950  54.0532790 102.9547140
  24.6924450  54.2689520 103.4645610  15.9213320  53.5995270  86.5378410
  16.2239220  53.6062700  85.6297560  16.6607910  53.2493130  87.0346070
  20.7561960  68.3652130 101.5194850  20.6820660  69.2687270 101.8267220
  19.8540800  68.0464030 101.4916920  12.1589250  65.6926720  94.8228470
  12.4892260  64.8247780  94.5907110  12.5880250  65.8985240  95.6533430
  16.7551170  64.0235730  92.4830440  16.4546710  63.9000700  93.3834350
  16.6488660  63.1644320  92.0746170  12.6479460  66.5597310  97.5610100
  12.2110450  66.7398110  98.3934250  13.2157140  67.3171930  97.4191820
  29.5243090  63.8032130  87.1857120  28.6936050  63.8708780  87.6564350
  29.7014920  64.6936250  86.8823980  12.4803890  59.0717540  93.9198980
  11.8252730  58.8029180  93.2758680  13.3181840  58.9622020  93.4700960
  26.9693280  62.7866290  99.9463570  26.1553120  63.2163450 100.2089360
  27.3767480  63.3984700  99.3332620  13.5179820  59.4570110  98.4602320
  13.8852860  59.3697510  99.3398340  12.9490640  58.6936660  98.3609180
  28.3183680  57.9254490 101.4732790  28.0869770  57.6967240 100.5730740
  28.5788230  58.8454040 101.4277680  13.0695820  56.3679200 102.3660740
  12.1751870  56.3345960 102.7054450  13.6093370  56.5665990 103.1311990
  11.6941970  56.2816470  89.8624310  10.7906050  56.5446670  89.6875970
  12.1782590  56.5527640  89.0824270  14.2369180  55.3382010  87.7718690
  14.9460880  54.9165230  87.2865970  13.5209120  55.4057240  87.1402040
  13.8843340  51.3921340  86.8121340  14.6071470  51.9330280  87.1302560
  14.1567860  51.1184760  85.9362880  13.5735530  50.6427530  96.7143960
  14.2211720  50.0924910  96.2739120  13.9937370  50.8970680  97.5359770
  27.4687870  50.8368890 100.0713600  28.1060090  51.4503030 100.4372790
  27.6162760  50.8729550  99.1262830  13.3267530  50.7983200  99.4569280
  12.9782350  51.2547020 100.2227460  12.9955230  49.9040330  99.5391710
  14.9331900  63.9702800 103.6222470  14.8901530  63.5995710 104.5036930
  15.0642910  64.9080370 103.7624290  18.6337930  65.5262390  99.2232190
  18.3929290  65.7936950  98.3362710  19.5740570  65.6968120  99.2783050
  20.8392350  51.9895080 102.9788700  20.7781240  52.5816910 103.7284110
  21.7792730  51.8821040 102.8338960  23.4766910  51.6465140 102.6180990
  24.0907320  51.9644430 101.9562070  24.0216470  51.1613730 103.2376850
  13.9988170  50.3259400 102.7320050  14.5471160  50.1447450 101.9686160
  14.0643480  49.5353510 103.2676360  14.7719930  66.9165050 100.7420250
  14.1780250  66.7849750 101.4810290  14.7643770  66.0803190 100.2762350
  24.2174950  50.2097280  98.9450280  23.3434790  50.5432390  98.7423210
  24.1085700  49.7370460  99.7702150  25.1246930  52.4168150 100.3292000
  24.7960290  51.6019910  99.9493730  26.0729230  52.3737960 100.2057690
  14.4032160  64.2823430  99.6928290  13.6766220  63.6628720  99.6254240
  14.4641310  64.6764040  98.8226370  18.0077260  66.4968430  96.4777700
  18.5242280  65.8855790  95.9525960  18.6574640  66.9997210  96.9688710
  20.7472760  67.3876920  97.3046680  21.0350570  67.1331220  96.4279690
  21.2595980  66.8354280  97.8952250  21.9649770  51.1267120  97.8843190
  21.1821560  51.6012620  98.1639950  21.6712700  50.2221950  97.7756370
  26.5170840  51.8290220  95.9292280  26.9578930  51.7735320  95.0813880
  26.2478430  52.7448230  96.0002460  12.6862160  67.5997820  92.9025050
  12.5184200  66.9668500  93.6006940  11.8196670  67.8057220  92.5519240
  13.3090180  51.4314600  90.4056910  14.0669540  51.5443480  89.8320940
  12.8467350  52.2683800  90.3600340  24.3528970  50.2096320  94.6342290
  24.9558340  50.7816530  95.1090810  23.6121960  50.7735760  94.4116190
  14.2924860  66.2931050  90.3475190  13.7672480  66.6739080  89.6437150
  14.2169440  66.9181820  91.0684900  15.6815330  51.9578650  88.9458880
  16.2108090  51.1708450  88.8166830  16.3143650  52.6369840  89.1794410
  17.8753170  51.6953790  92.0004270  17.2455910  50.9941100  92.1674400
  17.3358310  52.4557920  91.7837430  20.8145120  68.3093020 104.6714880
  21.7412430  68.0737290 104.7150840  20.7995550  69.1365020 104.1900910
  18.0008730  50.9737770 104.4356760  17.7193000  51.4771370 103.6717580
  18.3828430  50.1759520 104.0698890  16.8917830  68.2413430  89.2224440
  17.6236650  67.9572710  88.6748330  17.1511500  68.0026710  90.1123820
  24.6024190  50.3891350 105.0137230  24.4889640  50.7085960 105.9088750
  25.4193930  50.7903860 104.7174510  23.5082340  58.4083820  75.3771970
  23.4276390  57.4938430  75.1063680  23.0946760  58.9050890  74.6711680
  15.6566210  60.4982650  78.1357000  14.8251090  60.2431360  78.5353510
  16.2647190  60.5693420  78.8714920  25.6607810  64.5923030  76.0380370
  25.1989340  63.8210270  76.3667540  26.4733360  64.6189100  76.5432820
  15.6367470  64.5322740  78.3315020  15.9395510  63.6420480  78.1525240
  16.3811060  65.0892960  78.1037270  14.0658160  55.4584540  71.9199390
  13.1774860  55.8000510  71.8179270  14.3499350  55.2584860  71.0280220
  12.0291170  58.0590190  77.8039090  12.6007280  57.2912390  77.8042730
  12.0292710  58.3578950  76.8945700  21.8871120  66.8781040  75.6584360
  21.2682560  67.3338540  75.0878800  22.7422900  67.0332500  75.2574060
  21.0809370  62.8620030  77.2651400  21.0117650  61.9209970  77.1040530
  21.8429230  62.9521440  77.8373970  13.2716040  53.4674550  79.5908020
  13.0918880  52.5700300  79.8710780  12.8696120  54.0146420  80.2654970
  22.1114540  55.6690410  77.4920330  22.4879360  54.7962290  77.3794000
  22.0134050  56.0049110  76.6010770  16.2419550  54.0416040  72.9537770
  16.3486300  54.9419770  73.2606530  15.3311910  53.9934010  72.6632420
  25.8938660  53.1640850  74.4248670  26.7148280  52.6737420  74.4674150
  25.9272740  53.7538510  75.1780510  13.8902710  55.9635050  78.1990360
  14.5712820  56.2273420  78.8177760  13.5750760  55.1235920  78.5328370
  18.0827280  57.0102410  77.2862950  18.5905500  57.5083380  77.9267970
  18.6140520  56.2337610  77.1102310  16.3663380  51.6500970  81.5526370
  16.3681820  52.1673360  80.7472270  15.5367690  51.1731150  81.5296300
  16.0478710  53.3610930  79.5596820  16.3895520  54.2052980  79.2650690
  15.1094520  53.5094670  79.6762160  16.8285330  63.2576950  81.5449050
  17.4459330  63.9328030  81.2633500  15.9678450  63.6664930  81.4536550
  12.1217670  62.4476810  70.4255900  11.7445650  62.9363910  69.6940800
  12.3790740  63.1202090  71.0562430  27.7462920  64.7216360  79.4603690
  27.0626440  65.3915470  79.4520360  28.2857210  64.9197010  78.6948550
  29.1987060  54.5496020  77.5885420  28.2511970  54.5835000  77.7200850
  29.5237050  55.3634970  77.9734780  19.7306600  50.8493200  75.8841410
  20.0381580  50.2940090  75.1676910  18.8007300  50.9837660  75.7014400
  25.2821660  66.5660490  78.1748870  25.2948820  66.1622780  77.3071130
  24.7296880  67.3407780  78.0710300  26.5767080  63.2876710  73.2639040
  26.4663410  62.3451040  73.3888460  26.5735330  63.6492350  74.1501800
  24.6807100  61.4690330  79.5031480  25.0975890  61.2550440  78.6684940
  25.4046920  61.7263120  80.0740100  28.6269200  59.8677550  79.5947720
  27.7987830  59.9370640  79.1197850  29.2219680  60.4531860  79.1263550
  26.1484650  60.4762330  73.1236780  25.5297070  60.1381880  72.4763080
  26.1309100  59.8322090  73.8315970  17.7244000  59.4406770  75.4021260
  17.3201000  58.7284020  74.9067160  17.8107120  59.0960010  76.2909300
  18.1925700  63.1274330  77.5660470  17.8953990  62.5219800  76.8868250
  19.1425520  63.1651640  77.4549830  16.4372620  56.2149980  79.1820300
  16.9887210  56.3245320  78.4073550  16.9516130  56.5887580  79.8975530
  26.2811310  66.7006200  81.2283570  25.8041870  67.5078390  81.0356180
  25.5973100  66.0484530  81.3809780  16.1115350  59.7369340  82.7925640
  15.9723120  60.6092140  83.1613040  15.2296710  59.3942150  82.6473580
  22.4344730  64.6545210  74.0990770  22.8740640  65.3969540  73.6846160
  22.3731620  64.8971780  75.0229730  14.4248630  58.3351750  72.9027910
  14.3046230  59.0613840  72.2909180  14.1149520  57.5654660  72.4255820
  12.0634000  61.5066890  78.7096550  12.1414420  61.6415660  77.7652270
  12.6775680  60.7982780  78.9024670  13.3081630  63.2067080  75.1202730
  12.9009710  63.3481670  74.2656330  14.1994640  62.9227240  74.9173940
  29.2643770  63.6530990  83.4574970  29.3906830  63.4142870  82.5392150
  29.3065150  62.8215530  83.9297050  23.1260510  67.3558990  82.0269780
  23.6405180  67.2667000  82.8292210  22.2829590  67.7018690  82.3197690
  25.1014910  67.6414330  71.4553780  24.9416050  67.3517270  72.3535610
  24.9361620  66.8654460  70.9199010  17.5803290  67.4212860  73.2325400
  17.4045770  66.5048400  73.0193200  16.7259030  67.7800150  73.4723200
  24.8041040  65.1501890  70.0151780  24.1106200  65.1479180  69.3554060
  25.5463900  64.7261210  69.5845950  24.3690970  66.7764600  74.0900270
  24.8247920  65.9953980  74.4038890  24.7083490  67.4871420  74.6341450
  12.1193520  62.5481060  81.2491010  12.2824560  62.0786420  80.4310380
  12.5845970  62.0404620  81.9139850  16.8912290  51.6786820  76.2851580
  16.4480440  52.4596360  75.9536100  17.4497280  52.0016710  76.9922520
  18.9288190  52.2234150  78.1441180  19.2260520  53.1296980  78.0633200
  19.4773750  51.7352930  77.5300750  16.6826510  56.8020390  74.0132830
  16.4567430  56.5857560  74.9179450  15.9019040  57.2348850  73.6678800
  23.9124270  56.8083760  72.6123480  23.3133160  57.5319560  72.4287100
  24.4603880  56.7460540  71.8299930  22.5189140  55.4447300  74.6426760
  22.9118710  55.7619500  73.8295450  22.8805990  54.5659180  74.7571280
  14.2536260  54.1119640  82.8326880  13.8599650  54.9594850  83.0399660
  13.5654660  53.4746010  83.0235520  11.5553310  52.0348100  76.8656960
  11.2666360  52.6050960  77.5781940  12.2999070  51.5552550  77.2288190
  11.7423540  55.9768220  68.0759680  11.6598210  56.9198980  68.2174670
  11.3906600  55.8343130  67.1972030  19.5421670  54.7107250  77.1430030
  19.5457730  54.2697200  76.2934570  20.4372790  55.0324580  77.2501850
  15.3924050  54.5933740  76.1024240  15.0524100  55.0708970  76.8591290
  14.6301370  54.1398860  75.7425340  13.6932500  61.9232490  83.4086820
  13.3087290  61.2826160  84.0069780  14.0044690  62.6268610  83.9781550
  12.7070130  53.5152720  75.0188910  12.4217050  53.1508390  75.8567530
  12.6448990  52.7833180  74.4052050  26.9198780  61.0144020  77.5972890
  27.6397900  61.5099310  77.2069000  26.7180600  60.3361910  76.9526760
  25.0957110  56.7801630  70.0364440  25.9836730  57.0918860  69.8615780
  25.0662200  55.9073880  69.6445020  16.2048200  61.6859040  75.4425310
  16.7226870  60.8827300  75.3882200  15.7532220  61.6238180  76.2842140
  13.6892740  58.6520410  82.3551010  13.3307680  59.3174260  82.9424350
  13.3947300  57.8203960  82.7263630  16.8905860  59.1104650  85.2390560
  16.5906000  59.2561830  84.3418380  17.6617100  58.5509940  85.1463950
  27.3671380  58.0913470  69.5044300  27.2835100  58.5227690  68.6540740
  28.0865570  58.5511820  69.9371120  28.3958630  64.9455730  72.2326430
  27.7534790  64.2911350  72.5070150  28.0089290  65.3510820  71.4567100
  23.9745110  62.2741160  76.0798120  24.3268930  61.6769290  75.4199490
  23.0907440  61.9485390  76.2506370  12.2000790  58.6511670  68.9785610
  13.0695640  58.9336470  69.2621530  11.7091110  59.4647540  68.8634420
  21.6668210  65.5491220  80.3286190  22.3110430  65.7550600  81.0059610
  22.0297650  64.7879620  79.8757040  15.2647380  50.3822530  73.5716410
  15.1362010  50.3740430  74.5201330  14.4409400  50.7205620  73.2207420
  22.9400290  63.5523570  79.0463640  23.5822520  62.8516730  79.1595810
  23.4649640  64.3322010  78.8660530  26.7856010  63.8372190  68.7702780
  26.5593590  63.1202630  69.3627420  26.3952210  63.5884630  67.9324530
  24.7137910  64.3518470  82.2499700  25.0494150  64.9385160  82.9277620
  23.7938250  64.2211180  82.4797490  12.5672040  67.8639050  69.5447240
  12.9269680  68.4628390  68.8904510  12.4264380  68.4098940  70.3182270
  12.2641310  52.1413650  83.0323110  11.5499830  52.3410570  83.6375720
  12.6836350  51.3653220  83.4037910  26.3672260  61.7544130  70.4316940
  26.0793960  62.2156820  71.2194820  27.1624430  61.2941900  70.7001160
  12.5513900  66.1293910  84.0189640  12.6605020  65.1888650  83.8785030
  11.8994460  66.3948660  83.3703370  14.1847300  60.4685140  71.1067670
  13.5775250  61.2084040  71.1162970  14.6596650  60.5584500  70.2805870
  27.1242120  53.5892900  71.5912120  26.4955280  53.6938570  70.8770350
  26.6294040  53.8089680  72.3806000  23.1241580  52.5929510  74.4465790
  23.0009360  52.6115640  73.4975300  24.0726140  52.6408450  74.5664190
  20.2118370  67.8284810  73.7193770  20.4659870  67.7906200  72.7973140
  19.2630850  67.7018140  73.7122020  26.2170950  58.7476690  75.2952280
  25.2761090  58.7626920  75.4699970  26.5315020  57.9612650  75.7412580
  14.8899350  57.8621360  69.5389130  14.9702940  56.9148870  69.6506530
  15.7819100  58.1928240  69.6449790  28.2196530  65.9185540  76.9706540
  28.3443950  66.7416710  77.4430350  29.0862090  65.7076270  76.6230690
  15.6914060  68.0116750  76.6423670  16.4276540  67.4632210  76.9132240
  16.0754980  68.8772760  76.5029660  12.5759540  64.0790320  72.5165180
  11.6499320  64.3211460  72.5070590  13.0415970  64.9064580  72.3949930
  14.6972340  67.1962820  85.8309250  15.4985070  67.5174870  86.2444650
  14.1824160  66.8358400  86.5529160  18.8016370  67.1847060  68.4649240
  19.5944980  67.4735890  68.0131030  18.2820720  66.7539230  67.7861720
  24.9637340  67.0322980  84.3894070  25.9159090  66.9481000  84.3394310
  24.8165560  67.6964690  85.0627860  27.8546540  66.4117190  69.8885980
  27.5688050  65.9982330  69.0740160  27.6566090  67.3404900  69.7686500
  12.4170150  59.6836280  84.7745300  12.9209170  59.1043560  85.3461530
  11.6777570  59.9676510  85.3121670  26.6131440  62.8212600  84.8655840
  27.3540910  63.1588360  84.3623300  25.8504120  62.9904660  84.3125610
  14.4493230  57.8265870  85.6695370  14.4898570  57.5279740  86.5780600
  15.3038730  58.2273480  85.5102890  16.3899040  56.4057970  83.6369860
  15.8595500  55.9148920  83.0093200  17.0587110  56.8342170  83.1027790
  25.2877100  60.8727430  83.4011050  25.7018120  61.0272510  84.2501470
  24.3528100  60.9982650  83.5636830  16.8771340  53.3720340  83.7167150
  16.7828210  52.7541090  82.9918020  16.2968730  54.0986630  83.4897060
  19.6432780  51.9293580  80.7494540  19.1950080  51.9517840  79.9040090
  19.0097980  51.5312600  81.3464840  17.8999750  67.1300920  82.4864710
  17.3620840  67.8546980  82.1673410  18.1533710  66.6531260  81.6962050
  24.6018830  51.3102880  70.3043920  24.8821120  50.4670780  70.6603340
  23.8284560  51.5425990  70.8182670  20.7561960  68.3652130  82.7451360
  20.6820660  69.2687270  83.0523730  19.8540800  68.0464030  82.7173430
  21.3047290  67.5310640  70.3677720  22.1998080  67.8695610  70.3896480
  21.3364920  66.8090050  69.7402000  12.1589250  65.6926720  76.0484980
  12.4892260  64.8247780  75.8163620  12.5880250  65.8985240  76.8789940
  12.6479460  66.5597310  78.7866610  12.2110450  66.7398110  79.6190760
  13.2157140  67.3171930  78.6448330  28.2841640  66.0614310  83.0743920
  27.6843630  66.1206870  82.3307840  28.4135540  65.1219290  83.2040770
  29.5243090  63.8032130  68.4113630  28.6936050  63.8708780  68.8820860
  29.7014920  64.6936250  68.1080490  28.9799550  60.5479610  70.9147830
  29.7418460  61.1176260  71.0207520  28.9953920  59.9806810  71.6856140
  12.4803890  59.0717540  75.1455490  11.8252730  58.8029180  74.5015190
  13.3181840  58.9622020  74.6957470  29.9859520  61.4029710  75.7589760
  30.3568350  60.6197030  75.3525730  30.6261450  62.0918810  75.5807060
  26.9693280  62.7866290  81.1720080  26.1553120  63.2163450  81.4345870
  27.3767480  63.3984700  80.5589130  29.0318720  60.8413980  68.0720350
  29.3067560  61.7492860  67.9439570  28.8429460  60.7776510  69.0082340
  25.4294330  53.8658830  69.3673980  25.8479210  53.6789810  68.5270640
  25.1230390  53.0137880  69.6776910  28.9284060  58.7782970  73.0649780
  28.5527660  58.0110900  72.6331070  28.1987180  59.1605670  73.5524710
  13.5179820  59.4570110  79.6858830  13.8852860  59.3697510  80.5654850
  12.9490640  58.6936660  79.5865690  13.0695820  56.3679200  83.5917250
  12.1751870  56.3345960  83.9310960  13.6093370  56.5665990  84.3568500
  11.6941970  56.2816470  71.0880820  10.7906050  56.5446670  70.9132480
  12.1782590  56.5527640  70.3080780  28.2035020  57.0040460  76.3657020
  28.7272500  56.5103110  75.7347190  28.7894440  57.1390820  77.1104590
  14.2369180  55.3382010  68.9975200  14.9460880  54.9165230  68.5122480
  13.5209120  55.4057240  68.3658550  13.8843340  51.3921340  68.0377850
  14.6071470  51.9330280  68.3559070  14.1567860  51.1184760  67.1619390
  27.6934990  56.2613810  72.3049430  28.1894110  56.0284680  73.0898310
  27.4951060  55.4225650  71.8887070  13.5735530  50.6427530  77.9400470
  14.2211720  50.0924910  77.4995630  13.9937370  50.8970680  78.7616280
  29.1222150  54.8974760  74.8387110  29.0121430  54.7430800  75.7769380
  29.8829740  54.3695700  74.5962520  30.0850910  53.4993340  70.7049960
  29.2902410  53.4338460  71.2342870  30.2894190  54.4343980  70.6935310
  27.0269330  67.5384890  74.6988350  27.6228400  67.2169460  74.0222770
  27.2847480  67.0656710  75.4901620  13.3267530  50.7983200  80.6825790
  12.9782350  51.2547020  81.4483970  12.9955230  49.9040330  80.7648220
  18.6337930  65.5262390  80.4488700  18.3929290  65.7936950  79.5619220
  19.5740570  65.6968120  80.5039560  29.8942090  67.5456770  81.2499340
  29.4000370  67.9425640  80.5326470  29.2855380  66.9205980  81.6436620
  13.9988170  50.3259400  83.9576560  14.5471160  50.1447450  83.1942670
  14.0643480  49.5353510  84.4932870  14.7719930  66.9165050  81.9676760
  14.1780250  66.7849750  82.7066800  14.7643770  66.0803190  81.5018860
  27.5781540  68.1880190  78.5286080  27.1184510  68.9396000  78.1544100
  26.9494000  67.4686660  78.4700880  14.4032160  64.2823430  80.9184800
  13.6766220  63.6628720  80.8510750  14.4641310  64.6764040  80.0482880
  18.0077260  66.4968430  77.7034210  18.5242280  65.8855790  77.1782470
  18.6574640  66.9997210  78.1945220  20.7472760  67.3876920  78.5303190
  21.0350570  67.1331220  77.6536200  21.2595980  66.8354280  79.1208760
  26.5170840  51.8290220  77.1548790  26.9578930  51.7735320  76.3070390
  26.2478430  52.7448230  77.2258970  28.3809410  51.4605460  75.1657610
  28.3197810  50.5166680  75.0188630  29.1601440  51.5685550  75.7111070
  12.6862160  67.5997820  74.1281560  12.5184200  66.9668500  74.8263450
  11.8196670  67.8057220  73.7775750  13.3090180  51.4314600  71.6313420
  14.0669540  51.5443480  71.0577450  12.8467350  52.2683800  71.5856850
  19.8503990  53.5453870  74.6215730  19.0378500  53.1710760  74.2811610
  20.3545630  52.7898950  74.9236920  24.3528970  50.2096320  75.8598800
  24.9558340  50.7816530  76.3347320  23.6121960  50.7735760  75.6372700
  27.4963570  50.6117880  71.1339080  27.6914200  51.5101330  71.4006510
  26.7093440  50.3804960  71.6272030  14.2924860  66.2931050  71.5731700
  13.7672480  66.6739080  70.8693660  14.2169440  66.9181820  72.2941410
  15.6815330  51.9578650  70.1715390  16.2108090  51.1708450  70.0423340
  16.3143650  52.6369840  70.4050920  17.8753170  51.6953790  73.2260780
  17.2455910  50.9941100  73.3930910  17.3358310  52.4557920  73.0093940
  20.8145120  68.3093020  85.8971390  21.7412430  68.0737290  85.9407350
  20.7995550  69.1365020  85.4157420  29.0490180  67.8518590  72.8945640
  29.2242370  67.1656330  72.2506560  28.3511750  68.3765640  72.5022310
  18.0008730  50.9737770  85.6613270  17.7193000  51.4771370  84.8974090
  18.3828430  50.1759520  85.2955400  16.8917830  68.2413430  70.4480950
  17.6236650  67.9572710  69.9004840  17.1511500  68.0026710  71.3380330
  25.6607810  64.5923030  57.2636880  25.1989340  63.8210270  57.5924050
  26.4733360  64.6189100  57.7689330  15.6367470  64.5322740  59.5571530
  15.9395510  63.6420480  59.3781750  16.3811060  65.0892960  59.3293780
  14.0658160  55.4584540  53.1455900  13.1774860  55.8000510  53.0435780
  14.3499350  55.2584860  52.2536730  12.0291170  58.0590190  59.0295600
  12.6007280  57.2912390  59.0299240  12.0292710  58.3578950  58.1202210
  21.8871120  66.8781040  56.8840870  21.2682560  67.3338540  56.3135310
  22.7422900  67.0332500  56.4830570  21.0809370  62.8620030  58.4907910
  21.0117650  61.9209970  58.3297040  21.8429230  62.9521440  59.0630480
  13.2716040  53.4674550  60.8164530  13.0918880  52.5700300  61.0967290
  12.8696120  54.0146420  61.4911480  16.2419550  54.0416040  54.1794280
  16.3486300  54.9419770  54.4863040  15.3311910  53.9934010  53.8888930
  13.8902710  55.9635050  59.4246870  14.5712820  56.2273420  60.0434270
  13.5750760  55.1235920  59.7584880  16.3663380  51.6500970  62.7782880
  16.3681820  52.1673360  61.9728780  15.5367690  51.1731150  62.7552810
  22.7534470  61.7620280  54.2772780  22.1351740  62.2269730  53.7135500
  23.2657720  62.4547760  54.6942290  17.6166230  61.2896150  60.9556380
  17.2835610  61.9165070  61.5977450  17.7932910  61.8158030  60.1758050
  26.1300140  55.1041230  58.4232720  25.4255710  55.3926120  59.0035830
  26.4912300  55.9141340  58.0632280  16.0478710  53.3610930  60.7853330
  16.3895520  54.2052980  60.4907200  15.1094520  53.5094670  60.9018670
  16.8285330  63.2576950  62.7705560  17.4459330  63.9328030  62.4890010
  15.9678450  63.6664930  62.6793060  12.1217670  62.4476810  51.6512410
  11.7445650  62.9363910  50.9197310  12.3790740  63.1202090  52.2818940
  27.7462920  64.7216360  60.6860200  27.0626440  65.3915470  60.6776870
  28.2857210  64.9197010  59.9205060  19.7306600  50.8493200  57.1097920
  20.0381580  50.2940090  56.3933420  18.8007300  50.9837660  56.9270910
  25.2821660  66.5660490  59.4005380  25.2948820  66.1622780  58.5327640
  24.7296880  67.3407780  59.2966810  26.5767080  63.2876710  54.4895550
  26.4663410  62.3451040  54.6144970  26.5735330  63.6492350  55.3758310
  22.1056440  55.1859030  50.8425200  21.1660110  55.3472990  50.9277660
  22.4239700  55.9044710  50.2961190  26.1484650  60.4762330  54.3493290
  25.5297070  60.1381880  53.7019590  26.1309100  59.8322090  55.0572480
  18.1925700  63.1274330  58.7916980  17.8953990  62.5219800  58.1124760
  19.1425520  63.1651640  58.6806340  26.2811310  66.7006200  62.4540080
  25.8041870  67.5078390  62.2612690  25.5973100  66.0484530  62.6066290
  17.2844130  62.8656020  65.4424780  16.3872660  63.0895990  65.6898180
  17.3097000  62.9890960  64.4936180  24.3249350  59.7149140  51.3566040
  24.7642630  58.8771570  51.2103860  25.0377770  60.3478540  51.4430180
  16.1115350  59.7369340  64.0182150  15.9723120  60.6092140  64.3869550
  15.2296710  59.3942150  63.8730090  22.4344730  64.6545210  55.3247280
  22.8740640  65.3969540  54.9102670  22.3731620  64.8971780  56.2486240
  17.9095700  65.6791040  66.2267300  17.8811130  66.0833990  65.3595730
  17.7460670  64.7501400  66.0638900  14.4248630  58.3351750  54.1284420
  14.3046230  59.0613840  53.5165690  14.1149520  57.5654660  53.6512330
  29.8610520  66.4618140  67.5231470  30.3370240  66.9401030  68.2020550
  30.4817680  66.3935630  66.7976970  12.0634000  61.5066890  59.9353060
  12.1414420  61.6415660  58.9908780  12.6775680  60.7982780  60.1281180
  13.3081630  63.2067080  56.3459240  12.9009710  63.3481670  55.4912840
  14.1994640  62.9227240  56.1430450  29.2643770  63.6530990  64.6831480
  29.3906830  63.4142870  63.7648660  29.3065150  62.8215530  65.1553560
  23.1260510  67.3558990  63.2526290  23.6405180  67.2667000  64.0548720
  22.2829590  67.7018690  63.5454200  25.1014910  67.6414330  52.6810290
  24.9416050  67.3517270  53.5792120  24.9361620  66.8654460  52.1455520
  17.5803290  67.4212860  54.4581910  17.4045770  66.5048400  54.2449710
  16.7259030  67.7800150  54.6979710  24.8041040  65.1501890  51.2408290
  24.1106200  65.1479180  50.5810570  25.5463900  64.7261210  50.8102460
  24.3690970  66.7764600  55.3156780  24.8247920  65.9953980  55.6295400
  24.7083490  67.4871420  55.8597960  12.1193520  62.5481060  62.4747520
  12.2824560  62.0786420  61.6566890  12.5845970  62.0404620  63.1396360
  16.8912290  51.6786820  57.5108090  16.4480440  52.4596360  57.1792610
  17.4497280  52.0016710  58.2179030  20.0071110  51.2997520  52.3913920
  19.3825290  51.2957390  53.1167230  19.9201230  50.4328480  51.9949890
  18.9288190  52.2234150  59.3697690  19.2260520  53.1296980  59.2889710
  19.4773750  51.7352930  58.7557260  23.9124270  56.8083760  53.8379990
  23.3133160  57.5319560  53.6543610  24.4603880  56.7460540  53.0556440
  14.2536260  54.1119640  64.0583390  13.8599650  54.9594850  64.2656170
  13.5654660  53.4746010  64.2492030  11.5553310  52.0348100  58.0913470
  11.2666360  52.6050960  58.8038450  12.2999070  51.5552550  58.4544700
  11.7423540  55.9768220  49.3016190  11.6598210  56.9198980  49.4431180
  11.3906600  55.8343130  48.4228540  15.3924050  54.5933740  57.3280750
  15.0524100  55.0708970  58.0847800  14.6301370  54.1398860  56.9681850
  19.6041820  55.7119330  51.3593300  19.7254640  55.6705810  52.3079120
  19.2190330  56.5743480  51.2040030  23.5670190  53.4886730  59.3756990
  23.5842930  53.9395380  60.2198840  23.3185770  52.5892370  59.5890430
  18.6163320  58.0220470  50.7576600  18.0480220  57.5738720  50.1312510
  19.3252320  58.3813250  50.2241750  13.6932500  61.9232490  64.6343330
  13.3087290  61.2826160  65.2326290  14.0044690  62.6268610  65.2038060
  12.7070130  53.5152720  56.2445420  12.4217050  53.1508390  57.0824040
  12.6448990  52.7833180  55.6308560  16.1610800  62.0178660  53.0303010
  15.3873060  61.4776280  52.8701730  16.8905430  61.4985270  52.6920770
  26.9198780  61.0144020  58.8229400  27.6397900  61.5099310  58.4325510
  26.7180600  60.3361910  58.1783270  22.3808720  52.4081980  52.9658790
  21.5673330  51.9095150  52.8904100  22.1870670  53.2480230  52.5495140
  25.0957110  56.7801630  51.2620950  25.9836730  57.0918860  51.0872290
  25.0662200  55.9073880  50.8701530  16.2048200  61.6859040  56.6681820
  16.7226870  60.8827300  56.6138710  15.7532220  61.6238180  57.5098650
  21.0917700  62.9525320  51.9409120  21.4333400  63.6967550  51.4452440
  20.2630410  63.2656440  52.3033950  13.6892740  58.6520410  63.5807520
  13.3307680  59.3174260  64.1680860  13.3947300  57.8203960  63.9520140
  22.2334310  63.9073650  64.4602200  22.2478850  62.9754610  64.2421110
  21.5259410  63.9933410  65.0991970  27.3671380  58.0913470  50.7300810
  27.2835100  58.5227690  49.8797250  28.0865570  58.5511820  51.1627630
  28.3958630  64.9455730  53.4582940  27.7534790  64.2911350  53.7326660
  28.0089290  65.3510820  52.6823610  23.9745110  62.2741160  57.3054630
  24.3268930  61.6769290  56.6456000  23.0907440  61.9485390  57.4762880
  20.0608390  63.0338850  54.7125040  20.7479520  63.5808060  55.0932630
  19.2740810  63.5779580  54.7474650  12.2000790  58.6511670  50.2042120
  13.0695640  58.9336470  50.4878040  11.7091110  59.4647540  50.0890930
  21.6668210  65.5491220  61.5542700  22.3110430  65.7550600  62.2316120
  22.0297650  64.7879620  61.1013550  15.2647380  50.3822530  54.7972920
  15.1362010  50.3740430  55.7457840  14.4409400  50.7205620  54.4463930
  22.9400290  63.5523570  60.2720150  23.5822520  62.8516730  60.3852320
  23.4649640  64.3322010  60.0917040  26.7856010  63.8372190  49.9959290
  26.5593590  63.1202630  50.5883930  26.3952210  63.5884630  49.1581040
  24.7137910  64.3518470  63.4756210  25.0494150  64.9385160  64.1534130
  23.7938250  64.2211180  63.7054000  12.5672040  67.8639050  50.7703750
  12.9269680  68.4628390  50.1161020  12.4264380  68.4098940  51.5438780
  12.2641310  52.1413650  64.2579620  11.5499830  52.3410570  64.8632230
  12.6836350  51.3653220  64.6294420  26.3672260  61.7544130  51.6573450
  26.0793960  62.2156820  52.4451330  27.1624430  61.2941900  51.9257670
  12.5513900  66.1293910  65.2446150  12.6605020  65.1888650  65.1041540
  11.8994460  66.3948660  64.5959880  20.5426490  64.4009800  66.6444270
  20.2223360  63.6819040  67.1889960  19.8684850  65.0764870  66.7180330
  18.5840660  65.2470250  51.5877420  18.5750760  65.9799940  50.9721930
  17.6639020  65.0001830  51.6804380  14.1847300  60.4685140  52.3324180
  13.5775250  61.2084040  52.3419480  14.6596650  60.5584500  51.5062380
  21.5700260  65.3098490  50.2502610  21.6712240  65.1062480  49.3204590
  20.6702000  65.0556770  50.4550390  19.0926150  55.8678850  54.2326510
  18.3842300  56.3365190  54.6740120  19.3770630  55.2100860  54.8671700
  23.1241580  52.5929510  55.6722300  23.0009360  52.6115640  54.7231810
  24.0726140  52.6408450  55.7920700  20.2118370  67.8284810  54.9450280
  20.4659870  67.7906200  54.0229650  19.2630850  67.7018140  54.9378530
  17.2961170  54.1763930  51.6077220  18.1451700  54.6134080  51.5417410
  16.9292440  54.4884190  52.4349280  26.2170950  58.7476690  56.5208790
  25.2761090  58.7626920  56.6956480  26.5315020  57.9612650  56.9669090
  16.1952590  60.4296290  50.0812750  16.9615860  60.3177650  50.6438180
  16.2727280  59.7334260  49.4289520  14.8899350  57.8621360  50.7645640
  14.9702940  56.9148870  50.8763040  15.7819100  58.1928240  50.8706300
  28.2196530  65.9185540  58.1963050  28.3443950  66.7416710  58.6686860
  29.0862090  65.7076270  57.8487200  15.6914060  68.0116750  57.8680180
  16.4276540  67.4632210  58.1388750  16.0754980  68.8772760  57.7286170
  12.5759540  64.0790320  53.7421690  11.6499320  64.3211460  53.7327100
  13.0415970  64.9064580  53.6206440  14.6972340  67.1962820  67.0565760
  15.4985070  67.5174870  67.4701160  14.1824160  66.8358400  67.7785670
  18.8016370  67.1847060  49.6905750  19.5944980  67.4735890  49.2387540
  18.2820720  66.7539230  49.0118230  23.5336970  63.3042690  67.0041170
  22.9275130  63.3274290  66.2636920  23.2291080  62.5725730  67.5408420
  24.9637340  67.0322980  65.6150580  25.9159090  66.9481000  65.5650820
  24.8165560  67.6964690  66.2884370  27.8546540  66.4117190  51.1142490
  27.5688050  65.9982330  50.2996670  27.6566090  67.3404900  50.9943010
  12.4170150  59.6836280  66.0001810  12.9209170  59.1043560  66.5718040
  11.6777570  59.9676510  66.5378180  19.3193770  62.4050470  49.5548100
  19.2144410  61.7902820  50.2809480  19.1517990  61.8816360  48.7711110
  22.5596500  61.4670500  50.1590090  22.0106600  61.9139800  50.8032830
  23.1815760  60.9619750  50.6827760  26.6131440  62.8212600  66.0912350
  27.3540910  63.1588360  65.5879810  25.8504120  62.9904660  65.5382120
  14.4493230  57.8265870  66.8951880  14.4898570  57.5279740  67.8037110
  15.3038730  58.2273480  66.7359400  18.2271620  60.4261420  52.0555390
  18.6488040  60.2601290  52.8986780  18.3522460  59.6161650  51.5610530
  20.7399260  59.4499030  49.3032490  21.2604920  58.7348050  48.9373640
  21.3867660  60.0884900  49.6033000  16.8771340  53.3720340  64.9423660
  16.7828210  52.7541090  64.2174530  16.2968730  54.0986630  64.7153570
  19.6432780  51.9293580  61.9751050  19.1950080  51.9517840  61.1296600
  19.0097980  51.5312600  62.5721350  17.1230520  56.4994650  49.0013550
  16.9219580  55.6362010  49.3626890  16.9522570  56.4128010  48.0635150
  17.8999750  67.1300920  63.7121220  17.3620840  67.8546980  63.3929920
  18.1533710  66.6531260  62.9218560  15.9213320  53.5995270  48.9891430
  16.2239220  53.6062700  48.0810580  16.6607910  53.2493130  49.4859090
  20.7561960  68.3652130  63.9707870  20.6820660  69.2687270  64.2780240
  19.8540800  68.0464030  63.9429940  19.1398250  52.5429890  49.9747630
  18.7920250  51.8653880  49.3950080  19.3411020  52.0819400  50.7891020
  21.3047290  67.5310640  51.5934230  22.1998080  67.8695610  51.6152990
  21.3364920  66.8090050  50.9658510  14.9443450  62.9037690  49.8221230
  15.3818320  63.4467360  50.4778810  15.4291180  62.0784640  49.8317570
  12.1589250  65.6926720  57.2741490  12.4892260  64.8247780  57.0420130
  12.5880250  65.8985240  58.1046450  16.7551170  64.0235730  54.9343460
  16.4546710  63.9000700  55.8347370  16.6488660  63.1644320  54.5259190
  12.6479460  66.5597310  60.0123120  12.2110450  66.7398110  60.8447270
  13.2157140  67.3171930  59.8704840  28.2841640  66.0614310  64.3000430
  27.6843630  66.1206870  63.5564350  28.4135540  65.1219290  64.4297280
  28.9799550  60.5479610  52.1404340  29.7418460  61.1176260  52.2464030
  28.9953920  59.9806810  52.9112650  12.4803890  59.0717540  56.3712000
  11.8252730  58.8029180  55.7271700  13.3181840  58.9622020  55.9213980
  29.9859520  61.4029710  56.9846270  30.3568350  60.6197030  56.5782240
  30.6261450  62.0918810  56.8063570  26.9693280  62.7866290  62.3976590
  26.1553120  63.2163450  62.6602380  27.3767480  63.3984700  61.7845640
  25.4294330  53.8658830  50.5930490  25.8479210  53.6789810  49.7527150
  25.1230390  53.0137880  50.9033420  28.9284060  58.7782970  54.2906290
  28.5527660  58.0110900  53.8587580  28.1987180  59.1605670  54.7781220
  13.5179820  59.4570110  60.9115340  13.8852860  59.3697510  61.7911360
  12.9490640  58.6936660  60.8122200  13.0695820  56.3679200  64.8173760
  12.1751870  56.3345960  65.1567470  13.6093370  56.5665990  65.5825010
  11.6941970  56.2816470  52.3137330  10.7906050  56.5446670  52.1388990
  12.1782590  56.5527640  51.5337290  14.2369180  55.3382010  50.2231710
  14.9460880  54.9165230  49.7378990  13.5209120  55.4057240  49.5915060
  13.8843340  51.3921340  49.2634360  14.6071470  51.9330280  49.5815580
  14.1567860  51.1184760  48.3875900  27.6934990  56.2613810  53.5305940
  28.1894110  56.0284680  54.3154820  27.4951060  55.4225650  53.1143580
  13.5735530  50.6427530  59.1656980  14.2211720  50.0924910  58.7252140
  13.9937370  50.8970680  59.9872790  27.0269330  67.5384890  55.9244860
  27.6228400  67.2169460  55.2479280  27.2847480  67.0656710  56.7158130
  13.3267530  50.7983200  61.9082300  12.9782350  51.2547020  62.6740480
  12.9955230  49.9040330  61.9904730  14.9331900  63.9702800  66.0735490
  14.8901530  63.5995710  66.9549950  15.0642910  64.9080370  66.2137310
  18.6337930  65.5262390  61.6745210  18.3929290  65.7936950  60.7875730
  19.5740570  65.6968120  61.7296070  29.8942090  67.5456770  62.4755850
  29.4000370  67.9425640  61.7582980  29.2855380  66.9205980  62.8693130
  13.9988170  50.3259400  65.1833070  14.5471160  50.1447450  64.4199180
  14.0643480  49.5353510  65.7189380  14.7719930  66.9165050  63.1933270
  14.1780250  66.7849750  63.9323310  14.7643770  66.0803190  62.7275370
  24.2174950  50.2097280  61.3963300  23.3434790  50.5432390  61.1936230
  24.1085700  49.7370460  62.2215170  27.5781540  68.1880190  59.7542590
  27.1184510  68.9396000  59.3800610  26.9494000  67.4686660  59.6957390
  14.4032160  64.2823430  62.1441310  13.6766220  63.6628720  62.0767260
  14.4641310  64.6764040  61.2739390  18.0077260  66.4968430  58.9290720
  18.5242280  65.8855790  58.4038980  18.6574640  66.9997210  59.4201730
  20.7472760  67.3876920  59.7559700  21.0350570  67.1331220  58.8792710
  21.2595980  66.8354280  60.3465270  21.9649770  51.1267120  60.3356210
  21.1821560  51.6012620  60.6152970  21.6712700  50.2221950  60.2269390
  26.5170840  51.8290220  58.3805300  26.9578930  51.7735320  57.5326900
  26.2478430  52.7448230  58.4515480  12.6862160  67.5997820  55.3538070
  12.5184200  66.9668500  56.0519960  11.8196670  67.8057220  55.0032260
  13.3090180  51.4314600  52.8569930  14.0669540  51.5443480  52.2833960
  12.8467350  52.2683800  52.8113360  19.8503990  53.5453870  55.8472240
  19.0378500  53.1710760  55.5068120  20.3545630  52.7898950  56.1493430
  24.3528970  50.2096320  57.0855310  24.9558340  50.7816530  57.5603830
  23.6121960  50.7735760  56.8629210  14.2924860  66.2931050  52.7988210
  13.7672480  66.6739080  52.0950170  14.2169440  66.9181820  53.5197920
  15.6815330  51.9578650  51.3971900  16.2108090  51.1708450  51.2679850
  16.3143650  52.6369840  51.6307430  17.8753170  51.6953790  54.4517290
  17.2455910  50.9941100  54.6187420  17.3358310  52.4557920  54.2350450
  20.8145120  68.3093020  67.1227900  21.7412430  68.0737290  67.1663860
  20.7995550  69.1365020  66.6413930  29.0490180  67.8518590  54.1202150
  29.2242370  67.1656330  53.4763070  28.3511750  68.3765640  53.7278820
  18.0008730  50.9737770  66.8869780  17.7193000  51.4771370  66.1230600
  18.3828430  50.1759520  66.5211910  16.8917830  68.2413430  51.6737460
  17.6236650  67.9572710  51.1261350  17.1511500  68.0026710  52.5636840
  16.0532620  64.3578160  51.6783790  15.4241500  64.8263260  52.2269620
  16.1680450  63.5127380  52.1129980  23.5082340  58.4083820  37.8284990
  23.4276390  57.4938430  37.5576700  23.0946760  58.9050890  37.1224700
  21.6400380  60.1862840  39.7094260  20.8642480  59.7063280  39.9992830
  22.2913310  59.5068490  39.5350420  15.6566210  60.4982650  40.5870020
  14.8251090  60.2431360  40.9866530  16.2647190  60.5693420  41.3227940
  15.6367470  64.5322740  40.7828040  15.9395510  63.6420480  40.6038260
  16.3811060  65.0892960  40.5550290  14.0658160  55.4584540  34.3712410
  13.1774860  55.8000510  34.2692290  14.3499350  55.2584860  33.4793240
  12.0291170  58.0590190  40.2552110  12.6007280  57.2912390  40.2555750
  12.0292710  58.3578950  39.3458720  21.0809370  62.8620030  39.7164420
  21.0117650  61.9209970  39.5553550  21.8429230  62.9521440  40.2886990
  13.2716040  53.4674550  42.0421040  13.0918880  52.5700300  42.3223800
  12.8696120  54.0146420  42.7167990  22.1114540  55.6690410  39.9433350
  22.4879360  54.7962290  39.8307020  22.0134050  56.0049110  39.0523790
  16.2419550  54.0416040  35.4050790  16.3486300  54.9419770  35.7119550
  15.3311910  53.9934010  35.1145440  25.8938660  53.1640850  36.8761690
  26.7148280  52.6737420  36.9187170  25.9272740  53.7538510  37.6293530
  13.8902710  55.9635050  40.6503380  14.5712820  56.2273420  41.2690780
  13.5750760  55.1235920  40.9841390  18.0827280  57.0102410  39.7375970
  18.5905500  57.5083380  40.3780990  18.6140520  56.2337610  39.5615330
  30.1838210  55.1807600  43.4405320  29.4790380  55.5689310  42.9220430
  30.4496130  55.8757890  44.0426250  16.3663380  51.6500970  44.0039390
  16.3681820  52.1673360  43.1985290  15.5367690  51.1731150  43.9809320
  22.7534470  61.7620280  35.5029290  22.1351740  62.2269730  34.9392010
  23.2657720  62.4547760  35.9198800  17.6166230  61.2896150  42.1812890
  17.2835610  61.9165070  42.8233960  17.7932910  61.8158030  41.4014560
  26.1300140  55.1041230  39.6489230  25.4255710  55.3926120  40.2292340
  26.4912300  55.9141340  39.2888790  16.0478710  53.3610930  42.0109840
  16.3895520  54.2052980  41.7163710  15.1094520  53.5094670  42.1275180
  16.8285330  63.2576950  43.9962070  17.4459330  63.9328030  43.7146520
  15.9678450  63.6664930  43.9049570  12.1217670  62.4476810  32.8768920
  11.7445650  62.9363910  32.1453820  12.3790740  63.1202090  33.5075450
  29.1987060  54.5496020  40.0398440  28.2511970  54.5835000  40.1713870
  29.5237050  55.3634970  40.4247800  19.7306600  50.8493200  38.3354430
  20.0381580  50.2940090  37.6189930  18.8007300  50.9837660  38.1527420
  26.5767080  63.2876710  35.7152060  26.4663410  62.3451040  35.8401480
  26.5735330  63.6492350  36.6014820  24.6807100  61.4690330  41.9544500
  25.0975890  61.2550440  41.1197960  25.4046920  61.7263120  42.5253120
  22.1187360  58.9142030  35.0714550  21.1916640  58.8479410  35.3003020
  22.2712180  59.8522160  34.9569790  22.1056440  55.1859030  32.0681710
  21.1660110  55.3472990  32.1534170  22.4239700  55.9044710  31.5217700
  26.1484650  60.4762330  35.5749800  25.5297070  60.1381880  34.9276100
  26.1309100  59.8322090  36.2828990  25.5911210  56.6546870  42.9915610
  25.1782390  57.4800580  43.2455600  24.8587160  56.0691910  42.7991970
  17.7244000  59.4406770  37.8534280  17.3201000  58.7284020  37.3580180
  17.8107120  59.0960010  38.7422320  18.1925700  63.1274330  40.0173490
  17.8953990  62.5219800  39.3381270  19.1425520  63.1651640  39.9062850
  16.4372620  56.2149980  41.6333320  16.9887210  56.3245320  40.8586570
  16.9516130  56.5887580  42.3488550  17.2844130  62.8656020  46.6681290
  16.3872660  63.0895990  46.9154690  17.3097000  62.9890960  45.7192690
  24.3249350  59.7149140  32.5822550  24.7642630  58.8771570  32.4360370
  25.0377770  60.3478540  32.6686690  16.1115350  59.7369340  45.2438660
  15.9723120  60.6092140  45.6126060  15.2296710  59.3942150  45.0986600
  22.4344730  64.6545210  36.5503790  22.8740640  65.3969540  36.1359180
  22.3731620  64.8971780  37.4742750  17.9095700  65.6791040  47.4523810
  17.8811130  66.0833990  46.5852240  17.7460670  64.7501400  47.2895410
  27.9066490  50.9691950  30.8963590  27.5939150  51.0618780  31.7962660
  28.6678960  51.5472980  30.8461020  14.4248630  58.3351750  35.3540930
  14.3046230  59.0613840  34.7422200  14.1149520  57.5654660  34.8768840
  29.8610520  66.4618140  48.7487980  30.3370240  66.9401030  49.4277060
  30.4817680  66.3935630  48.0233480  12.0634000  61.5066890  41.1609570
  12.1414420  61.6415660  40.2165290  12.6775680  60.7982780  41.3537690
  13.3081630  63.2067080  37.5715750  12.9009710  63.3481670  36.7169350
  14.1994640  62.9227240  37.3686960  25.1014910  67.6414330  33.9066800
  24.9416050  67.3517270  34.8048630  24.9361620  66.8654460  33.3712030
  17.5803290  67.4212860  35.6838420  17.4045770  66.5048400  35.4706220
  16.7259030  67.7800150  35.9236220  24.8041040  65.1501890  32.4664800
  24.1106200  65.1479180  31.8067080  25.5463900  64.7261210  32.0358970
  29.1167780  55.7063450  46.8737730  28.5012050  56.2143120  46.3453190
  28.7964200  54.8061780  46.8163670  12.1193520  62.5481060  43.7004030
  12.2824560  62.0786420  42.8823400  12.5845970  62.0404620  44.3652870
  16.8912290  51.6786820  38.7364600  16.4480440  52.4596360  38.4049120
  17.4497280  52.0016710  39.4435540  21.1782100  54.5455340  44.3399920
  20.7161470  54.7538360  45.1519860  20.7760210  53.7314690  44.0370590
  26.1786610  55.7664290  45.4696580  25.3280200  55.4670040  45.7905650
  26.0188400  56.0106300  44.5580400  23.2736320  57.2666040  47.5695370
  23.5989730  56.4329790  47.2297600  24.0616650  57.7894560  47.7173700
  20.0071110  51.2997520  33.6170430  19.3825290  51.2957390  34.3423740
  19.9201230  50.4328480  33.2206400  18.9288190  52.2234150  40.5954200
  19.2260520  53.1296980  40.5146220  19.4773750  51.7352930  39.9813770
  16.6826510  56.8020390  36.4645850  16.4567430  56.5857560  37.3692470
  15.9019040  57.2348850  36.1191820  23.9124270  56.8083760  35.0636500
  23.3133160  57.5319560  34.8800120  24.4603880  56.7460540  34.2812950
  19.1225720  57.7005970  47.1306120  19.0269320  56.7600700  46.9806520
  19.9657700  57.9221040  46.7354190  22.5189140  55.4447300  37.0939780
  22.9118710  55.7619500  36.2808470  22.8805990  54.5659180  37.2084300
  14.2536260  54.1119640  45.2839900  13.8599650  54.9594850  45.4912680
  13.5654660  53.4746010  45.4748540  20.8281310  54.1954610  48.3536640
  20.1379630  54.0026810  48.9882730  21.5713610  54.4789250  48.8860940
  11.5553310  52.0348100  39.3169980  11.2666360  52.6050960  40.0294960
  12.2999070  51.5552550  39.6801210  11.7423540  55.9768220  30.5272700
  11.6598210  56.9198980  30.6687690  11.3906600  55.8343130  29.6485050
  23.1044280  58.0353050  41.1890560  22.3725400  58.5439860  41.5380660
  22.7068620  57.2183030  40.8879340  19.5421670  54.7107250  39.5943050
  19.5457730  54.2697200  38.7447590  20.4372790  55.0324580  39.7014870
  15.3924050  54.5933740  38.5537260  15.0524100  55.0708970  39.3104310
  14.6301370  54.1398860  38.1938360  19.6041820  55.7119330  32.5849810
  19.7254640  55.6705810  33.5335630  19.2190330  56.5743480  32.4296540
  23.5670190  53.4886730  40.6013500  23.5842930  53.9395380  41.4455350
  23.3185770  52.5892370  40.8146940  18.6163320  58.0220470  31.9833110
  18.0480220  57.5738720  31.3569020  19.3252320  58.3813250  31.4498260
  26.9940940  50.9018910  46.4399880  27.3186710  50.1708570  46.9657860
  27.0297450  50.5832550  45.5380870  13.6932500  61.9232490  45.8599840
  13.3087290  61.2826160  46.4582800  14.0044690  62.6268610  46.4294570
  19.8429640  58.7709030  41.3408460  20.2099770  58.2967600  42.0869800
  19.6534700  59.6450600  41.6816800  12.7070130  53.5152720  37.4701930
  12.4217050  53.1508390  38.3080550  12.6448990  52.7833180  36.8565070
  17.6329010  57.8117670  43.6592670  17.3286080  58.6909650  43.8843030
  18.5875470  57.8717460  43.6950110  16.1610800  62.0178660  34.2559520
  15.3873060  61.4776280  34.0958240  16.8905430  61.4985270  33.9177280
  26.9198780  61.0144020  40.0485910  27.6397900  61.5099310  39.6582020
  26.7180600  60.3361910  39.4039780  22.3808720  52.4081980  34.1915300
  21.5673330  51.9095150  34.1160610  22.1870670  53.2480230  33.7751650
  22.3017580  61.0853080  45.9354910  22.2354890  60.1648750  45.6812500
  21.6722720  61.1828520  46.6499550  25.0957110  56.7801630  32.4877460
  25.9836730  57.0918860  32.3128800  25.0662200  55.9073880  32.0958040
  16.2048200  61.6859040  37.8938330  16.7226870  60.8827300  37.8395220
  15.7532220  61.6238180  38.7355160  21.0917700  62.9525320  33.1665630
  21.4333400  63.6967550  32.6708950  20.2630410  63.2656440  33.5290460
  13.6892740  58.6520410  44.8064030  13.3307680  59.3174260  45.3937370
  13.3947300  57.8203960  45.1776650  16.8905860  59.1104650  47.6903580
  16.5906000  59.2561830  46.7931400  17.6617100  58.5509940  47.5976970
  27.3671380  58.0913470  31.9557320  27.2835100  58.5227690  31.1053760
  28.0865570  58.5511820  32.3884140  28.3958630  64.9455730  34.6839450
  27.7534790  64.2911350  34.9583170  28.0089290  65.3510820  33.9080120
  23.9745110  62.2741160  38.5311140  24.3268930  61.6769290  37.8712510
  23.0907440  61.9485390  38.7019390  20.0608390  63.0338850  35.9381550
  20.7479520  63.5808060  36.3189140  19.2740810  63.5779580  35.9731160
  12.2000790  58.6511670  31.4298630  13.0695640  58.9336470  31.7134550
  11.7091110  59.4647540  31.3147440  19.3635600  60.0384880  35.5506910
  19.8198380  60.8490130  35.7767100  19.0123810  59.7208020  36.3825400
  15.2647380  50.3822530  36.0229430  15.1362010  50.3740430  36.9714350
  14.4409400  50.7205620  35.6720440  22.9400290  63.5523570  41.4976660
  23.5822520  62.8516730  41.6108830  23.4649640  64.3322010  41.3173550
  26.7856010  63.8372190  31.2215800  26.5593590  63.1202630  31.8140440
  26.3952210  63.5884630  30.3837550  12.5672040  67.8639050  31.9960260
  12.9269680  68.4628390  31.3417530  12.4264380  68.4098940  32.7695290
  12.2641310  52.1413650  45.4836130  11.5499830  52.3410570  46.0888740
  12.6836350  51.3653220  45.8550930  26.3672260  61.7544130  32.8829960
  26.0793960  62.2156820  33.6707840  27.1624430  61.2941900  33.1514180
  12.5513900  66.1293910  46.4702660  12.6605020  65.1888650  46.3298050
  11.8994460  66.3948660  45.8216390  20.5426490  64.4009800  47.8700780
  20.2223360  63.6819040  48.4146470  19.8684850  65.0764870  47.9436840
  18.5840660  65.2470250  32.8133930  18.5750760  65.9799940  32.1978440
  17.6639020  65.0001830  32.9060890  14.1847300  60.4685140  33.5580690
  13.5775250  61.2084040  33.5675990  14.6596650  60.5584500  32.7318890
  23.7580090  54.6335960  43.2337580  24.1260910  53.8131170  43.5617150
  22.8978290  54.6937850  43.6493230  27.1242120  53.5892900  34.0425140
  26.4955280  53.6938570  33.3283370  26.6294040  53.8089680  34.8319020
  21.5700260  65.3098490  31.4759120  21.6712240  65.1062480  30.5461100
  20.6702000  65.0556770  31.6806900  19.0926150  55.8678850  35.4583020
  18.3842300  56.3365190  35.8996630  19.3770630  55.2100860  36.0928210
  20.7182080  57.2875550  43.4575550  21.2167330  57.7621370  44.1227400
  20.8605030  56.3639070  43.6645580  23.1241580  52.5929510  36.8978810
  23.0009360  52.6115640  35.9488320  24.0726140  52.6408450  37.0177210
  20.2118370  67.8284810  36.1706790  20.4659870  67.7906200  35.2486160
  19.2630850  67.7018140  36.1635040  17.2961170  54.1763930  32.8333730
  18.1451700  54.6134080  32.7673920  16.9292440  54.4884190  33.6605790
  27.9248940  53.5043510  44.3003940  27.4222540  54.2448910  44.6397750
  28.7405600  53.8927510  43.9840730  26.2170950  58.7476690  37.7465300
  25.2761090  58.7626920  37.9212990  26.5315020  57.9612650  38.1925600
  16.1952590  60.4296290  31.3069260  16.9615860  60.3177650  31.8694690
  16.2727280  59.7334260  30.6546030  14.8899350  57.8621360  31.9902150
  14.9702940  56.9148870  32.1019550  15.7819100  58.1928240  32.0962810
  15.6914060  68.0116750  39.0936690  16.4276540  67.4632210  39.3645260
  16.0754980  68.8772760  38.9542680  12.5759540  64.0790320  34.9678200
  11.6499320  64.3211460  34.9583610  13.0415970  64.9064580  34.8462950
  14.6972340  67.1962820  48.2822270  15.4985070  67.5174870  48.6957670
  14.1824160  66.8358400  49.0042180  18.8016370  67.1847060  30.9162260
  19.5944980  67.4735890  30.4644050  18.2820720  66.7539230  30.2374740
  23.5336970  63.3042690  48.2297680  22.9275130  63.3274290  47.4893430
  23.2291080  62.5725730  48.7664930  27.8546540  66.4117190  32.3399000
  27.5688050  65.9982330  31.5253180  27.6566090  67.3404900  32.2199520
  12.4170150  59.6836280  47.2258320  12.9209170  59.1043560  47.7974550
  11.6777570  59.9676510  47.7634690  19.3193770  62.4050470  30.7804610
  19.2144410  61.7902820  31.5065990  19.1517990  61.8816360  29.9967620
  19.4708090  61.0907270  46.7593840  18.7053760  61.6592270  46.6748510
  19.6524050  60.7983480  45.8662070  22.5596500  61.4670500  31.3846600
  22.0106600  61.9139800  32.0289340  23.1815760  60.9619750  31.9084270
  26.6131440  62.8212600  47.3168860  27.3540910  63.1588360  46.8136320
  25.8504120  62.9904660  46.7638630  14.4493230  57.8265870  48.1208390
  14.4898570  57.5279740  49.0293620  15.3038730  58.2273480  47.9615910
  18.2271620  60.4261420  33.2811900  18.6488040  60.2601290  34.1243290
  18.3522460  59.6161650  32.7867040  16.3899040  56.4057970  46.0882880
  15.8595500  55.9148920  45.4606220  17.0587110  56.8342170  45.5540810
  20.7399260  59.4499030  30.5289000  21.2604920  58.7348050  30.1630150
  21.3867660  60.0884900  30.8289510  25.2877100  60.8727430  45.8524070
  25.7018120  61.0272510  46.7014490  24.3528100  60.9982650  46.0149850
  25.7599270  58.2123590  47.8563220  26.3420040  57.4575910  47.7683700
  25.9361040  58.7431030  47.0794700  16.8771340  53.3720340  46.1680170
  16.7828210  52.7541090  45.4431040  16.2968730  54.0986630  45.9410080
  19.6432780  51.9293580  43.2007560  19.1950080  51.9517840  42.3553110
  19.0097980  51.5312600  43.7977860  20.0492330  60.8247910  43.8220000
  20.4680440  61.6680640  43.6496240  19.1300960  60.9619950  43.5926780
  22.3856230  58.5564090  45.2057840  22.5052440  57.9605230  45.9452680
  23.2450230  58.5933780  44.7859140  24.7244130  59.1101280  43.7820350
  24.1979350  59.6343900  43.1785490  25.0675470  59.7428670  44.4130080
  17.1230520  56.4994650  30.2270060  16.9219580  55.6362010  30.5883400
  16.9522570  56.4128010  29.2891660  17.8999750  67.1300920  44.9377730
  17.3620840  67.8546980  44.6186430  18.1533710  66.6531260  44.1475070
  19.1525000  55.0985440  46.4633660  19.7424690  54.7901290  47.1511480
  18.3345240  54.6265190  46.6193560  23.9718430  54.7151250  46.6966680
  23.2833950  54.0532790  46.6316670  24.6924450  54.2689520  47.1415140
  24.6018830  51.3102880  32.7556940  24.8821120  50.4670780  33.1116360
  23.8284560  51.5425990  33.2695690  15.9213320  53.5995270  30.2147940
  16.2239220  53.6062700  29.3067090  16.6607910  53.2493130  30.7115600
  19.1398250  52.5429890  31.2004140  18.7920250  51.8653880  30.6206590
  19.3411020  52.0819400  32.0147530  21.3047290  67.5310640  32.8190740
  22.1998080  67.8695610  32.8409500  21.3364920  66.8090050  32.1915020
  14.9443450  62.9037690  31.0477740  15.3818320  63.4467360  31.7035320
  15.4291180  62.0784640  31.0574080  12.1589250  65.6926720  38.4998000
  12.4892260  64.8247780  38.2676640  12.5880250  65.8985240  39.3302960
  16.7551170  64.0235730  36.1599970  16.4546710  63.9000700  37.0603880
  16.6488660  63.1644320  35.7515700  12.6479460  66.5597310  41.2379630
  12.2110450  66.7398110  42.0703780  13.2157140  67.3171930  41.0961350
  29.5243090  63.8032130  30.8626650  28.6936050  63.8708780  31.3333880
  29.7014920  64.6936250  30.5593510  28.9799550  60.5479610  33.3660850
  29.7418460  61.1176260  33.4720540  28.9953920  59.9806810  34.1369160
  12.4803890  59.0717540  37.5968510  11.8252730  58.8029180  36.9528210
  13.3181840  58.9622020  37.1470490  29.9859520  61.4029710  38.2102780
  30.3568350  60.6197030  37.8038750  30.6261450  62.0918810  38.0320080
  26.9693280  62.7866290  43.6233100  26.1553120  63.2163450  43.8858890
  27.3767480  63.3984700  43.0102150  29.0318720  60.8413980  30.5233370
  29.3067560  61.7492860  30.3952590  28.8429460  60.7776510  31.4595360
  25.4294330  53.8658830  31.8187000  25.8479210  53.6789810  30.9783660
  25.1230390  53.0137880  32.1289930  28.9284060  58.7782970  35.5162800
  28.5527660  58.0110900  35.0844090  28.1987180  59.1605670  36.0037730
  13.5179820  59.4570110  42.1371850  13.8852860  59.3697510  43.0167870
  12.9490640  58.6936660  42.0378710  13.0695820  56.3679200  46.0430270
  12.1751870  56.3345960  46.3823980  13.6093370  56.5665990  46.8081520
  26.7571750  53.1510920  47.9282020  27.6341930  53.1594320  48.3116020
  26.7692590  52.4141760  47.3174370  11.6941970  56.2816470  33.5393840
  10.7906050  56.5446670  33.3645500  12.1782590  56.5527640  32.7593800
  28.2035020  57.0040460  38.8170040  28.7272500  56.5103110  38.1860210
  28.7894440  57.1390820  39.5617610  28.3824740  57.0880330  42.3389590
  27.4327450  57.0543870  42.4534580  28.5637750  57.9980440  42.1039360
  14.2369180  55.3382010  31.4488220  14.9460880  54.9165230  30.9635500
  13.5209120  55.4057240  30.8171570  13.8843340  51.3921340  30.4890870
  14.6071470  51.9330280  30.8072090  14.1567860  51.1184760  29.6132410
  27.6934990  56.2613810  34.7562450  28.1894110  56.0284680  35.5411330
  27.4951060  55.4225650  34.3400090  13.5735530  50.6427530  40.3913490
  14.2211720  50.0924910  39.9508650  13.9937370  50.8970680  41.2129300
  29.1222150  54.8974760  37.2900130  29.0121430  54.7430800  38.2282400
  29.8829740  54.3695700  37.0475540  27.4687870  50.8368890  43.7483130
  28.1060090  51.4503030  44.1142320  27.6162760  50.8729550  42.8032360
  30.0112420  52.7282680  30.5306270  30.9361730  52.5963860  30.3224560
  29.9888210  52.8075500  31.4842720  30.0850910  53.4993340  33.1562980
  29.2902410  53.4338460  33.6855890  30.2894190  54.4343980  33.1448330
  13.3267530  50.7983200  43.1338810  12.9782350  51.2547020  43.8996990
  12.9955230  49.9040330  43.2161240  14.9331900  63.9702800  47.2992000
  14.8901530  63.5995710  48.1806460  15.0642910  64.9080370  47.4393820
  18.6337930  65.5262390  42.9001720  18.3929290  65.7936950  42.0132240
  19.5740570  65.6968120  42.9552580  20.8392350  51.9895080  46.6558230
  20.7781240  52.5816910  47.4053640  21.7792730  51.8821040  46.5108490
  23.4766910  51.6465140  46.2950520  24.0907320  51.9644430  45.6331600
  24.0216470  51.1613730  46.9146380  13.9988170  50.3259400  46.4089580
  14.5471160  50.1447450  45.6455690  14.0643480  49.5353510  46.9445890
  14.7719930  66.9165050  44.4189780  14.1780250  66.7849750  45.1579820
  14.7643770  66.0803190  43.9531880  24.2174950  50.2097280  42.6219810
  23.3434790  50.5432390  42.4192740  24.1085700  49.7370460  43.4471680
  25.1246930  52.4168150  44.0061530  24.7960290  51.6019910  43.6263260
  26.0729230  52.3737960  43.8827220  14.4032160  64.2823430  43.3697820
  13.6766220  63.6628720  43.3023770  14.4641310  64.6764040  42.4995900
  18.0077260  66.4968430  40.1547230  18.5242280  65.8855790  39.6295490
  18.6574640  66.9997210  40.6458240  20.7472760  67.3876920  40.9816210
  21.0350570  67.1331220  40.1049220  21.2595980  66.8354280  41.5721780
  21.9649770  51.1267120  41.5612720  21.1821560  51.6012620  41.8409480
  21.6712700  50.2221950  41.4525900  26.5170840  51.8290220  39.6061810
  26.9578930  51.7735320  38.7583410  26.2478430  52.7448230  39.6771990
  28.3809410  51.4605460  37.6170630  28.3197810  50.5166680  37.4701650
  29.1601440  51.5685550  38.1624090  12.6862160  67.5997820  36.5794580
  12.5184200  66.9668500  37.2776470  11.8196670  67.8057220  36.2288770
  13.3090180  51.4314600  34.0826440  14.0669540  51.5443480  33.5090470
  12.8467350  52.2683800  34.0369870  19.8503990  53.5453870  37.0728750
  19.0378500  53.1710760  36.7324630  20.3545630  52.7898950  37.3749940
  24.3528970  50.2096320  38.3111820  24.9558340  50.7816530  38.7860340
  23.6121960  50.7735760  38.0885720  27.4963570  50.6117880  33.5852100
  27.6914200  51.5101330  33.8519530  26.7093440  50.3804960  34.0785050
  14.2924860  66.2931050  34.0244720  13.7672480  66.6739080  33.3206680
  14.2169440  66.9181820  34.7454430  15.6815330  51.9578650  32.6228410
  16.2108090  51.1708450  32.4936360  16.3143650  52.6369840  32.8563940
  17.8753170  51.6953790  35.6773800  17.2455910  50.9941100  35.8443930
  17.3358310  52.4557920  35.4606960  20.8145120  68.3093020  48.3484410
  21.7412430  68.0737290  48.3920370  20.7995550  69.1365020  47.8670440
  18.0008730  50.9737770  48.1126290  17.7193000  51.4771370  47.3487110
  18.3828430  50.1759520  47.7468420  16.8917830  68.2413430  32.8993970
  17.6236650  67.9572710  32.3517860  17.1511500  68.0026710  33.7893350
  16.0532620  64.3578160  32.9040300  15.4241500  64.8263260  33.4526130
  16.1680450  63.5127380  33.3386490  24.6024190  50.3891350  48.6906760
  24.4889640  50.7085960  49.5858280  25.4193930  50.7903860  48.3944040
  23.5082340  58.4083820  19.0541500  23.4276390  57.4938430  18.7833210
  23.0946760  58.9050890  18.3481210  21.6400380  60.1862840  20.9350770
  20.8642480  59.7063280  21.2249340  22.2913310  59.5068490  20.7606930
  15.6566210  60.4982650  21.8126530  14.8251090  60.2431360  22.2123040
  16.2647190  60.5693420  22.5484450  25.6607810  64.5923030  19.7149900
  25.1989340  63.8210270  20.0437070  26.4733360  64.6189100  20.2202350
  15.6367470  64.5322740  22.0084550  15.9395510  63.6420480  21.8294770
  16.3811060  65.0892960  21.7806800  14.0658160  55.4584540  15.5968920
  13.1774860  55.8000510  15.4948800  14.3499350  55.2584860  14.7049750
  12.0291170  58.0590190  21.4808620  12.6007280  57.2912390  21.4812260
  12.0292710  58.3578950  20.5715230  21.8871120  66.8781040  19.3353890
  21.2682560  67.3338540  18.7648330  22.7422900  67.0332500  18.9343590
  21.0809370  62.8620030  20.9420930  21.0117650  61.9209970  20.7810060
  21.8429230  62.9521440  21.5143500  13.2716040  53.4674550  23.2677550
  13.0918880  52.5700300  23.5480310  12.8696120  54.0146420  23.9424500
  22.1114540  55.6690410  21.1689860  22.4879360  54.7962290  21.0563530
  22.0134050  56.0049110  20.2780300  16.2419550  54.0416040  16.6307300
  16.3486300  54.9419770  16.9376060  15.3311910  53.9934010  16.3401950
  25.8938660  53.1640850  18.1018200  26.7148280  52.6737420  18.1443680
  25.9272740  53.7538510  18.8550040  13.8902710  55.9635050  21.8759890
  14.5712820  56.2273420  22.4947290  13.5750760  55.1235920  22.2097900
  18.0827280  57.0102410  20.9632480  18.5905500  57.5083380  21.6037500
  18.6140520  56.2337610  20.7871840  30.1838210  55.1807600  24.6661830
  29.4790380  55.5689310  24.1476940  30.4496130  55.8757890  25.2682760
  16.3663380  51.6500970  25.2295900  16.3681820  52.1673360  24.4241800
  15.5367690  51.1731150  25.2065830  22.7534470  61.7620280  16.7285800
  22.1351740  62.2269730  16.1648520  23.2657720  62.4547760  17.1455310
  17.6166230  61.2896150  23.4069400  17.2835610  61.9165070  24.0490470
  17.7932910  61.8158030  22.6271070  26.1300140  55.1041230  20.8745740
  25.4255710  55.3926120  21.4548850  26.4912300  55.9141340  20.5145300
  16.0478710  53.3610930  23.2366350  16.3895520  54.2052980  22.9420220
  15.1094520  53.5094670  23.3531690  16.8285330  63.2576950  25.2218580
  17.4459330  63.9328030  24.9403030  15.9678450  63.6664930  25.1306080
  12.1217670  62.4476810  14.1025430  11.7445650  62.9363910  13.3710330
  12.3790740  63.1202090  14.7331960  27.7462920  64.7216360  23.1373220
  27.0626440  65.3915470  23.1289890  28.2857210  64.9197010  22.3718080
  29.1987060  54.5496020  21.2654950  28.2511970  54.5835000  21.3970380
  29.5237050  55.3634970  21.6504310  19.7306600  50.8493200  19.5610940
  20.0381580  50.2940090  18.8446440  18.8007300  50.9837660  19.3783930
  25.2821660  66.5660490  21.8518400  25.2948820  66.1622780  20.9840660
  24.7296880  67.3407780  21.7479830  26.5767080  63.2876710  16.9408570
  26.4663410  62.3451040  17.0657990  26.5735330  63.6492350  17.8271330
  24.6807100  61.4690330  23.1801010  25.0975890  61.2550440  22.3454470
  25.4046920  61.7263120  23.7509630  22.1187360  58.9142030  16.2971060
  21.1916640  58.8479410  16.5259530  22.2712180  59.8522160  16.1826300
  22.1056440  55.1859030  13.2938220  21.1660110  55.3472990  13.3790680
  22.4239700  55.9044710  12.7474210  28.6269200  59.8677550  23.2717250
  27.7987830  59.9370640  22.7967380  29.2219680  60.4531860  22.8033080
  26.1484650  60.4762330  16.8006310  25.5297070  60.1381880  16.1532610
  26.1309100  59.8322090  17.5085500  25.5911210  56.6546870  24.2172120
  25.1782390  57.4800580  24.4712110  24.8587160  56.0691910  24.0248480
  17.7244000  59.4406770  19.0790790  17.3201000  58.7284020  18.5836690
  17.8107120  59.0960010  19.9678830  18.1925700  63.1274330  21.2430000
  17.8953990  62.5219800  20.5637780  19.1425520  63.1651640  21.1319360
  16.4372620  56.2149980  22.8589830  16.9887210  56.3245320  22.0843080
  16.9516130  56.5887580  23.5745060  26.2811310  66.7006200  24.9053100
  25.8041870  67.5078390  24.7125710  25.5973100  66.0484530  25.0579310
  17.2844130  62.8656020  27.8937800  16.3872660  63.0895990  28.1411200
  17.3097000  62.9890960  26.9449200  24.3249350  59.7149140  13.8079060
  24.7642630  58.8771570  13.6616880  25.0377770  60.3478540  13.8943200
  16.1115350  59.7369340  26.4695170  15.9723120  60.6092140  26.8382570
  15.2296710  59.3942150  26.3243110  22.4344730  64.6545210  17.7760300
  22.8740640  65.3969540  17.3615690  22.3731620  64.8971780  18.6999260
  17.9095700  65.6791040  28.6780320  17.8811130  66.0833990  27.8108750
  17.7460670  64.7501400  28.5151920  27.9066490  50.9691950  12.1220100
  27.5939150  51.0618780  13.0219170  28.6678960  51.5472980  12.0717530
  14.4248630  58.3351750  16.5797440  14.3046230  59.0613840  15.9678710
  14.1149520  57.5654660  16.1025350  29.8610520  66.4618140  29.9744490
  30.3370240  66.9401030  30.6533570  30.4817680  66.3935630  29.2489990
  12.0634000  61.5066890  22.3866080  12.1414420  61.6415660  21.4421800
  12.6775680  60.7982780  22.5794200  13.3081630  63.2067080  18.7972260
  12.9009710  63.3481670  17.9425860  14.1994640  62.9227240  18.5943470
  29.2643770  63.6530990  27.1344500  29.3906830  63.4142870  26.2161680
  29.3065150  62.8215530  27.6066580  23.1260510  67.3558990  25.7039310
  23.6405180  67.2667000  26.5061740  22.2829590  67.7018690  25.9967220
  25.1014910  67.6414330  15.1323310  24.9416050  67.3517270  16.0305140
  24.9361620  66.8654460  14.5968540  17.5803290  67.4212860  16.9094930
  17.4045770  66.5048400  16.6962730  16.7259030  67.7800150  17.1492730
  24.8041040  65.1501890  13.6921310  24.1106200  65.1479180  13.0323590
  25.5463900  64.7261210  13.2615480  24.3690970  66.7764600  17.7669800
  24.8247920  65.9953980  18.0808420  24.7083490  67.4871420  18.3110980
  29.1167780  55.7063450  28.0994240  28.5012050  56.2143120  27.5709700
  28.7964200  54.8061780  28.0420180  12.1193520  62.5481060  24.9260540
  12.2824560  62.0786420  24.1079910  12.5845970  62.0404620  25.5909380
  16.8912290  51.6786820  19.9621110  16.4480440  52.4596360  19.6305630
  17.4497280  52.0016710  20.6692050  21.1782100  54.5455340  25.5656430
  20.7161470  54.7538360  26.3776370  20.7760210  53.7314690  25.2627100
  26.1786610  55.7664290  26.6953090  25.3280200  55.4670040  27.0162160
  26.0188400  56.0106300  25.7836910  23.2736320  57.2666040  28.7951880
  23.5989730  56.4329790  28.4554110  24.0616650  57.7894560  28.9430210
  20.0071110  51.2997520  14.8426940  19.3825290  51.2957390  15.5680250
  19.9201230  50.4328480  14.4462910  18.9288190  52.2234150  21.8210710
  19.2260520  53.1296980  21.7402730  19.4773750  51.7352930  21.2070280
  16.6826510  56.8020390  17.6902360  16.4567430  56.5857560  18.5948980
  15.9019040  57.2348850  17.3448330  23.9124270  56.8083760  16.2893010
  23.3133160  57.5319560  16.1056630  24.4603880  56.7460540  15.5069460
  19.1225720  57.7005970  28.3562630  19.0269320  56.7600700  28.2063030
  19.9657700  57.9221040  27.9610700  22.5189140  55.4447300  18.3196290
  22.9118710  55.7619500  17.5064980  22.8805990  54.5659180  18.4340810
  14.2536260  54.1119640  26.5096410  13.8599650  54.9594850  26.7169190
  13.5654660  53.4746010  26.7005050  20.8281310  54.1954610  29.5793150
  20.1379630  54.0026810  30.2139240  21.5713610  54.4789250  30.1117450
  11.5553310  52.0348100  20.5426490  11.2666360  52.6050960  21.2551470
  12.2999070  51.5552550  20.9057720  11.7423540  55.9768220  11.7529210
  11.6598210  56.9198980  11.8944200  11.3906600  55.8343130  10.8741560
  23.1044280  58.0353050  22.4147070  22.3725400  58.5439860  22.7637170
  22.7068620  57.2183030  22.1135850  19.5421670  54.7107250  20.8199560
  19.5457730  54.2697200  19.9704100  20.4372790  55.0324580  20.9271380
  15.3924050  54.5933740  19.7793770  15.0524100  55.0708970  20.5360820
  14.6301370  54.1398860  19.4194870  19.6041820  55.7119330  13.8106320
  19.7254640  55.6705810  14.7592140  19.2190330  56.5743480  13.6553050
  23.5670190  53.4886730  21.8270010  23.5842930  53.9395380  22.6711860
  23.3185770  52.5892370  22.0403450  18.6163320  58.0220470  13.2089620
  18.0480220  57.5738720  12.5825530  19.3252320  58.3813250  12.6754770
  26.9940940  50.9018910  27.6656390  27.3186710  50.1708570  28.1914370
  27.0297450  50.5832550  26.7637380  13.6932500  61.9232490  27.0856350
  13.3087290  61.2826160  27.6839310  14.0044690  62.6268610  27.6551080
  19.8429640  58.7709030  22.5664970  20.2099770  58.2967600  23.3126310
  19.6534700  59.6450600  22.9073310  12.7070130  53.5152720  18.6958440
  12.4217050  53.1508390  19.5337060  12.6448990  52.7833180  18.0821580
  17.6329010  57.8117670  24.8849180  17.3286080  58.6909650  25.1099540
  18.5875470  57.8717460  24.9206620  16.1610800  62.0178660  15.4816030
  15.3873060  61.4776280  15.3214750  16.8905430  61.4985270  15.1433790
  26.9198780  61.0144020  21.2742420  27.6397900  61.5099310  20.8838530
  26.7180600  60.3361910  20.6296290  22.3808720  52.4081980  15.4171810
  21.5673330  51.9095150  15.3417120  22.1870670  53.2480230  15.0008160
  22.3017580  61.0853080  27.1611420  22.2354890  60.1648750  26.9069010
  21.6722720  61.1828520  27.8756060  25.0957110  56.7801630  13.7133970
  25.9836730  57.0918860  13.5385310  25.0662200  55.9073880  13.3214550
  16.2048200  61.6859040  19.1194840  16.7226870  60.8827300  19.0651730
  15.7532220  61.6238180  19.9611670  21.0917700  62.9525320  14.3922140
  21.4333400  63.6967550  13.8965460  20.2630410  63.2656440  14.7546970
  13.6892740  58.6520410  26.0320540  13.3307680  59.3174260  26.6193880
  13.3947300  57.8203960  26.4033160  16.8905860  59.1104650  28.9160090
  16.5906000  59.2561830  28.0187910  17.6617100  58.5509940  28.8233480
  22.2334310  63.9073650  26.9115220  22.2478850  62.9754610  26.6934130
  21.5259410  63.9933410  27.5504990  27.3671380  58.0913470  13.1813830
  27.2835100  58.5227690  12.3310270  28.0865570  58.5511820  13.6140650
  28.4445520  60.5480990  26.2583800  27.7193710  61.1409770  26.0613190
  28.9720980  60.5404530  25.4597170  28.3958630  64.9455730  15.9095960
  27.7534790  64.2911350  16.1839680  28.0089290  65.3510820  15.1336630
  23.9745110  62.2741160  19.7567650  24.3268930  61.6769290  19.0969020
  23.0907440  61.9485390  19.9275900  20.0608390  63.0338850  17.1638060
  20.7479520  63.5808060  17.5445650  19.2740810  63.5779580  17.1987670
  12.2000790  58.6511670  12.6555140  13.0695640  58.9336470  12.9391060
  11.7091110  59.4647540  12.5403950  19.3635600  60.0384880  16.7763420
  19.8198380  60.8490130  17.0023610  19.0123810  59.7208020  17.6081910
  21.6668210  65.5491220  24.0055720  22.3110430  65.7550600  24.6829140
  22.0297650  64.7879620  23.5526570  15.2647380  50.3822530  17.2485940
  15.1362010  50.3740430  18.1970860  14.4409400  50.7205620  16.8976950
  22.9400290  63.5523570  22.7233170  23.5822520  62.8516730  22.8365340
  23.4649640  64.3322010  22.5430060  26.7856010  63.8372190  12.4472310
  26.5593590  63.1202630  13.0396950  26.3952210  63.5884630  11.6094060
  24.7137910  64.3518470  25.9269230  25.0494150  64.9385160  26.6047150
  23.7938250  64.2211180  26.1567020  12.5672040  67.8639050  13.2216770
  12.9269680  68.4628390  12.5674040  12.4264380  68.4098940  13.9951800
  12.2641310  52.1413650  26.7092640  11.5499830  52.3410570  27.3145250
  12.6836350  51.3653220  27.0807440  26.3672260  61.7544130  14.1086470
  26.0793960  62.2156820  14.8964350  27.1624430  61.2941900  14.3770690
  12.5513900  66.1293910  27.6959170  12.6605020  65.1888650  27.5554560
  11.8994460  66.3948660  27.0472900  20.5426490  64.4009800  29.0957290
  20.2223360  63.6819040  29.6402980  19.8684850  65.0764870  29.1693350
  18.5840660  65.2470250  14.0390440  18.5750760  65.9799940  13.4234950
  17.6639020  65.0001830  14.1317400  14.1847300  60.4685140  14.7837200
  13.5775250  61.2084040  14.7932500  14.6596650  60.5584500  13.9575400
  23.7580090  54.6335960  24.4594090  24.1260910  53.8131170  24.7873660
  22.8978290  54.6937850  24.8749740  27.1242120  53.5892900  15.2681650
  26.4955280  53.6938570  14.5539880  26.6294040  53.8089680  16.0575530
  21.5700260  65.3098490  12.7015630  21.6712240  65.1062480  11.7717610
  20.6702000  65.0556770  12.9063410  19.0926150  55.8678850  16.6839530
  18.3842300  56.3365190  17.1253140  19.3770630  55.2100860  17.3184720
  20.7182080  57.2875550  24.6832060  21.2167330  57.7621370  25.3483910
  20.8605030  56.3639070  24.8902090  23.1241580  52.5929510  18.1235320
  23.0009360  52.6115640  17.1744830  24.0726140  52.6408450  18.2433720
  20.2118370  67.8284810  17.3963300  20.4659870  67.7906200  16.4742670
  19.2630850  67.7018140  17.3891550  17.2961170  54.1763930  14.0590240
  18.1451700  54.6134080  13.9930430  16.9292440  54.4884190  14.8862300
  27.9248940  53.5043510  25.5260450  27.4222540  54.2448910  25.8654260
  28.7405600  53.8927510  25.2097240  26.2170950  58.7476690  18.9721810
  25.2761090  58.7626920  19.1469500  26.5315020  57.9612650  19.4182110
  16.1952590  60.4296290  12.5325770  16.9615860  60.3177650  13.0951200
  16.2727280  59.7334260  11.8802540  14.8899350  57.8621360  13.2158660
  14.9702940  56.9148870  13.3276060  15.7819100  58.1928240  13.3219320
  28.2196530  65.9185540  20.6476070  28.3443950  66.7416710  21.1199880
  29.0862090  65.7076270  20.3000220  15.6914060  68.0116750  20.3193200
  16.4276540  67.4632210  20.5901770  16.0754980  68.8772760  20.1799190
  12.5759540  64.0790320  16.1934710  11.6499320  64.3211460  16.1840120
  13.0415970  64.9064580  16.0719460  14.6972340  67.1962820  29.5078780
  15.4985070  67.5174870  29.9214180  14.1824160  66.8358400  30.2298690
  18.8016370  67.1847060  12.1418770  19.5944980  67.4735890  11.6900560
  18.2820720  66.7539230  11.4631250  23.5336970  63.3042690  29.4554190
  22.9275130  63.3274290  28.7149940  23.2291080  62.5725730  29.9921440
  24.9637340  67.0322980  28.0663600  25.9159090  66.9481000  28.0163840
  24.8165560  67.6964690  28.7397390  27.8546540  66.4117190  13.5655510
  27.5688050  65.9982330  12.7509690  27.6566090  67.3404900  13.4456030
  12.4170150  59.6836280  28.4514830  12.9209170  59.1043560  29.0231060
  11.6777570  59.9676510  28.9891200  19.3193770  62.4050470  12.0061120
  19.2144410  61.7902820  12.7322500  19.1517990  61.8816360  11.2224130
  19.4708090  61.0907270  27.9850350  18.7053760  61.6592270  27.9005020
  19.6524050  60.7983480  27.0918580  22.5596500  61.4670500  12.6103110
  22.0106600  61.9139800  13.2545850  23.1815760  60.9619750  13.1340780
  26.6131440  62.8212600  28.5425370  27.3540910  63.1588360  28.0392830
  25.8504120  62.9904660  27.9895140  14.4493230  57.8265870  29.3464900
  14.4898570  57.5279740  30.2550130  15.3038730  58.2273480  29.1872420
  18.2271620  60.4261420  14.5068410  18.6488040  60.2601290  15.3499800
  18.3522460  59.6161650  14.0123550  16.3899040  56.4057970  27.3139390
  15.8595500  55.9148920  26.6862730  17.0587110  56.8342170  26.7797320
  20.7399260  59.4499030  11.7545510  21.2604920  58.7348050  11.3886660
  21.3867660  60.0884900  12.0546020  25.2877100  60.8727430  27.0780580
  25.7018120  61.0272510  27.9271000  24.3528100  60.9982650  27.2406360
  25.7599270  58.2123590  29.0819730  26.3420040  57.4575910  28.9940210
  25.9361040  58.7431030  28.3051210  16.8771340  53.3720340  27.3936680
  16.7828210  52.7541090  26.6687550  16.2968730  54.0986630  27.1666590
  19.6432780  51.9293580  24.4264070  19.1950080  51.9517840  23.5809620
  19.0097980  51.5312600  25.0234370  20.0492330  60.8247910  25.0476510
  20.4680440  61.6680640  24.8752750  19.1300960  60.9619950  24.8183290
  22.3856230  58.5564090  26.4314350  22.5052440  57.9605230  27.1709190
  23.2450230  58.5933780  26.0115650  24.7244130  59.1101280  25.0076860
  24.1979350  59.6343900  24.4042000  25.0675470  59.7428670  25.6386590
  17.1230520  56.4994650  11.4526570  16.9219580  55.6362010  11.8139910
  16.9522570  56.4128010  10.5148170  17.8999750  67.1300920  26.1634240
  17.3620840  67.8546980  25.8442940  18.1533710  66.6531260  25.3731580
  19.1525000  55.0985440  27.6890170  19.7424690  54.7901290  28.3767990
  18.3345240  54.6265190  27.8450070  23.9718430  54.7151250  27.9223190
  23.2833950  54.0532790  27.8573180  24.6924450  54.2689520  28.3671650
  24.6018830  51.3102880  13.9813450  24.8821120  50.4670780  14.3372870
  23.8284560  51.5425990  14.4952200  15.9213320  53.5995270  11.4404450
  16.2239220  53.6062700  10.5323600  16.6607910  53.2493130  11.9372110
  20.7561960  68.3652130  26.4220890  20.6820660  69.2687270  26.7293260
  19.8540800  68.0464030  26.3942960  19.1398250  52.5429890  12.4260650
  18.7920250  51.8653880  11.8463100  19.3411020  52.0819400  13.2404040
  21.3047290  67.5310640  14.0447250  22.1998080  67.8695610  14.0666010
  21.3364920  66.8090050  13.4171530  14.9443450  62.9037690  12.2734250
  15.3818320  63.4467360  12.9291830  15.4291180  62.0784640  12.2830590
  12.1589250  65.6926720  19.7254510  12.4892260  64.8247780  19.4933150
  12.5880250  65.8985240  20.5559470  16.7551170  64.0235730  17.3856480
  16.4546710  63.9000700  18.2860390  16.6488660  63.1644320  16.9772210
  12.6479460  66.5597310  22.4636140  12.2110450  66.7398110  23.2960290
  13.2157140  67.3171930  22.3217860  28.2841640  66.0614310  26.7513450
  27.6843630  66.1206870  26.0077370  28.4135540  65.1219290  26.8810300
  29.5243090  63.8032130  12.0883160  28.6936050  63.8708780  12.5590390
  29.7014920  64.6936250  11.7850020  28.9799550  60.5479610  14.5917360
  29.7418460  61.1176260  14.6977050  28.9953920  59.9806810  15.3625670
  12.4803890  59.0717540  18.8225020  11.8252730  58.8029180  18.1784720
  13.3181840  58.9622020  18.3727000  29.9859520  61.4029710  19.4359290
  30.3568350  60.6197030  19.0295260  30.6261450  62.0918810  19.2576590
  26.9693280  62.7866290  24.8489610  26.1553120  63.2163450  25.1115400
  27.3767480  63.3984700  24.2358660  29.0318720  60.8413980  11.7489880
  29.3067560  61.7492860  11.6209100  28.8429460  60.7776510  12.6851870
  25.4294330  53.8658830  13.0443510  25.8479210  53.6789810  12.2040170
  25.1230390  53.0137880  13.3546440  28.9284060  58.7782970  16.7419310
  28.5527660  58.0110900  16.3100600  28.1987180  59.1605670  17.2294240
  13.5179820  59.4570110  23.3628360  13.8852860  59.3697510  24.2424380
  12.9490640  58.6936660  23.2635220  28.3183680  57.9254490  26.3758830
  28.0869770  57.6967240  25.4756780  28.5788230  58.8454040  26.3303720
  13.0695820  56.3679200  27.2686780  12.1751870  56.3345960  27.6080490
  13.6093370  56.5665990  28.0338030  26.7571750  53.1510920  29.1538530
  27.6341930  53.1594320  29.5372530  26.7692590  52.4141760  28.5430880
  11.6941970  56.2816470  14.7650350  10.7906050  56.5446670  14.5902010
  12.1782590  56.5527640  13.9850310  28.2035020  57.0040460  20.0426550
  28.7272500  56.5103110  19.4116720  28.7894440  57.1390820  20.7874120
  28.3824740  57.0880330  23.5646100  27.4327450  57.0543870  23.6791090
  28.5637750  57.9980440  23.3295870  14.2369180  55.3382010  12.6744730
  14.9460880  54.9165230  12.1892010  13.5209120  55.4057240  12.0428080
  13.8843340  51.3921340  11.7147380  14.6071470  51.9330280  12.0328600
  14.1567860  51.1184760  10.8388920  27.6934990  56.2613810  15.9818960
  28.1894110  56.0284680  16.7667840  27.4951060  55.4225650  15.5656600
  13.5735530  50.6427530  21.6170000  14.2211720  50.0924910  21.1765160
  13.9937370  50.8970680  22.4385810  29.1222150  54.8974760  18.5156640
  29.0121430  54.7430800  19.4538910  29.8829740  54.3695700  18.2732050
  27.4687870  50.8368890  24.9739640  28.1060090  51.4503030  25.3398830
  27.6162760  50.8729550  24.0288870  30.0112420  52.7282680  11.7562780
  30.9361730  52.5963860  11.5481070  29.9888210  52.8075500  12.7099230
  30.0850910  53.4993340  14.3819490  29.2902410  53.4338460  14.9112400
  30.2894190  54.4343980  14.3704840  27.0269330  67.5384890  18.3757880
  27.6228400  67.2169460  17.6992300  27.2847480  67.0656710  19.1671150
  13.3267530  50.7983200  24.3595320  12.9782350  51.2547020  25.1253500
  12.9955230  49.9040330  24.4417750  14.9331900  63.9702800  28.5248510
  14.8901530  63.5995710  29.4062970  15.0642910  64.9080370  28.6650330
  18.6337930  65.5262390  24.1258230  18.3929290  65.7936950  23.2388750
  19.5740570  65.6968120  24.1809090  20.8392350  51.9895080  27.8814740
  20.7781240  52.5816910  28.6310150  21.7792730  51.8821040  27.7365000
  23.4766910  51.6465140  27.5207030  24.0907320  51.9644430  26.8588110
  24.0216470  51.1613730  28.1402890  29.8942090  67.5456770  24.9268870
  29.4000370  67.9425640  24.2096000  29.2855380  66.9205980  25.3206150
  13.9988170  50.3259400  27.6346090  14.5471160  50.1447450  26.8712200
  14.0643480  49.5353510  28.1702400  14.7719930  66.9165050  25.6446290
  14.1780250  66.7849750  26.3836330  14.7643770  66.0803190  25.1788390
  24.2174950  50.2097280  23.8476320  23.3434790  50.5432390  23.6449250
  24.1085700  49.7370460  24.6728190  25.1246930  52.4168150  25.2318040
  24.7960290  51.6019910  24.8519770  26.0729230  52.3737960  25.1083730
  27.5781540  68.1880190  22.2055610  27.1184510  68.9396000  21.8313630
  26.9494000  67.4686660  22.1470410  14.4032160  64.2823430  24.5954330
  13.6766220  63.6628720  24.5280280  14.4641310  64.6764040  23.7252410
  18.0077260  66.4968430  21.3803740  18.5242280  65.8855790  20.8552000
  18.6574640  66.9997210  21.8714750  20.7472760  67.3876920  22.2072720
  21.0350570  67.1331220  21.3305730  21.2595980  66.8354280  22.7978290
  21.9649770  51.1267120  22.7869230  21.1821560  51.6012620  23.0665990
  21.6712700  50.2221950  22.6782410  26.5170840  51.8290220  20.8318320
  26.9578930  51.7735320  19.9839920  26.2478430  52.7448230  20.9028500
  28.3809410  51.4605460  18.8427140  28.3197810  50.5166680  18.6958160
  29.1601440  51.5685550  19.3880600  12.6862160  67.5997820  17.8051090
  12.5184200  66.9668500  18.5032980  11.8196670  67.8057220  17.4545280
  13.3090180  51.4314600  15.3082950  14.0669540  51.5443480  14.7346980
  12.8467350  52.2683800  15.2626380  19.8503990  53.5453870  18.2985260
  19.0378500  53.1710760  17.9581140  20.3545630  52.7898950  18.6006450
  24.3528970  50.2096320  19.5368330  24.9558340  50.7816530  20.0116850
  23.6121960  50.7735760  19.3142230  27.4963570  50.6117880  14.8108610
  27.6914200  51.5101330  15.0776040  26.7093440  50.3804960  15.3041560
  14.2924860  66.2931050  15.2501230  13.7672480  66.6739080  14.5463190
  14.2169440  66.9181820  15.9710940  15.6815330  51.9578650  13.8484920
  16.2108090  51.1708450  13.7192870  16.3143650  52.6369840  14.0820450
  17.8753170  51.6953790  16.9030310  17.2455910  50.9941100  17.0700440
  17.3358310  52.4557920  16.6863470  20.8145120  68.3093020  29.5740920
  21.7412430  68.0737290  29.6176880  20.7995550  69.1365020  29.0926950
  29.0490180  67.8518590  16.5715170  29.2242370  67.1656330  15.9276090
  28.3511750  68.3765640  16.1791840  18.0008730  50.9737770  29.3382800
  17.7193000  51.4771370  28.5743620  18.3828430  50.1759520  28.9724930
  16.8917830  68.2413430  14.1250480  17.6236650  67.9572710  13.5774370
  17.1511500  68.0026710  15.0149860  16.0532620  64.3578160  14.1296810
  15.4241500  64.8263260  14.6782640  16.1680450  63.5127380  14.5643000
  24.6024190  50.3891350  29.9163270  24.4889640  50.7085960  30.8114790
  25.4193930  50.7903860  29.6200550  27.3822680  67.5362880  29.3981960
  28.1748000  67.0412110  29.1907920  27.6755830  68.2153020  30.0057570
  21.6400380  60.1862840   2.1607280  20.8642480  59.7063280   2.4505850
  22.2913310  59.5068490   1.9863440  15.6566210  60.4982650   3.0383040
  14.8251090  60.2431360   3.4379550  16.2647190  60.5693420   3.7740960
  15.6367470  64.5322740   3.2341060  15.9395510  63.6420480   3.0551280
  16.3811060  65.0892960   3.0063310  12.0291170  58.0590190   2.7065130
  12.6007280  57.2912390   2.7068770  12.0292710  58.3578950   1.7971740
  21.0809370  62.8620030   2.1677440  21.0117650  61.9209970   2.0066570
  21.8429230  62.9521440   2.7400010  13.2716040  53.4674550   4.4934060
  13.0918880  52.5700300   4.7736820  12.8696120  54.0146420   5.1681010
  13.8902710  55.9635050   3.1016400  14.5712820  56.2273420   3.7203800
  13.5750760  55.1235920   3.4354410  18.0827280  57.0102410   2.1888990
  18.5905500  57.5083380   2.8294010  18.6140520  56.2337610   2.0128350
  30.1838210  55.1807600   5.8918340  29.4790380  55.5689310   5.3733450
  30.4496130  55.8757890   6.4939270  16.3663380  51.6500970   6.4552410
  16.3681820  52.1673360   5.6498310  15.5367690  51.1731150   6.4322340
  17.6166230  61.2896150   4.6325910  17.2835610  61.9165070   5.2746980
  17.7932910  61.8158030   3.8527580  26.1300140  55.1041230   2.1002250
  25.4255710  55.3926120   2.6805360  26.4912300  55.9141340   1.7401810
  16.0478710  53.3610930   4.4622860  16.3895520  54.2052980   4.1676730
  15.1094520  53.5094670   4.5788200  16.8285330  63.2576950   6.4475090
  17.4459330  63.9328030   6.1659540  15.9678450  63.6664930   6.3562590
  27.7462920  64.7216360   4.3629730  27.0626440  65.3915470   4.3546400
  28.2857210  64.9197010   3.5974590  29.1987060  54.5496020   2.4911460
  28.2511970  54.5835000   2.6226890  29.5237050  55.3634970   2.8760820
  25.2821660  66.5660490   3.0774910  25.2948820  66.1622780   2.2097170
  24.7296880  67.3407780   2.9736340  24.6807100  61.4690330   4.4057520
  25.0975890  61.2550440   3.5710980  25.4046920  61.7263120   4.9766140
  28.6269200  59.8677550   4.4973760  27.7987830  59.9370640   4.0223890
  29.2219680  60.4531860   4.0289590  25.5911210  56.6546870   5.4428630
  25.1782390  57.4800580   5.6968620  24.8587160  56.0691910   5.2504990
  18.1925700  63.1274330   2.4686510  17.8953990  62.5219800   1.7894290
  19.1425520  63.1651640   2.3575870  16.4372620  56.2149980   4.0846340
  16.9887210  56.3245320   3.3099590  16.9516130  56.5887580   4.8001570
  26.2811310  66.7006200   6.1309610  25.8041870  67.5078390   5.9382220
  25.5973100  66.0484530   6.2835820  17.2844130  62.8656020   9.1194310
  16.3872660  63.0895990   9.3667710  17.3097000  62.9890960   8.1705710
  16.1115350  59.7369340   7.6951680  15.9723120  60.6092140   8.0639080
  15.2296710  59.3942150   7.5499620  17.9095700  65.6791040   9.9036830
  17.8811130  66.0833990   9.0365260  17.7460670  64.7501400   9.7408430
  29.8610520  66.4618140  11.2001000  30.3370240  66.9401030  11.8790080
  30.4817680  66.3935630  10.4746500  12.0634000  61.5066890   3.6122590
  12.1414420  61.6415660   2.6678310  12.6775680  60.7982780   3.8050710
  29.2643770  63.6530990   8.3601010  29.3906830  63.4142870   7.4418190
  29.3065150  62.8215530   8.8323090  23.1260510  67.3558990   6.9295820
  23.6405180  67.2667000   7.7318250  22.2829590  67.7018690   7.2223730
  29.1167780  55.7063450   9.3250750  28.5012050  56.2143120   8.7966210
  28.7964200  54.8061780   9.2676690  12.1193520  62.5481060   6.1517050
  12.2824560  62.0786420   5.3336420  12.5845970  62.0404620   6.8165890
  21.1782100  54.5455340   6.7912940  20.7161470  54.7538360   7.6032880
  20.7760210  53.7314690   6.4883610  26.1786610  55.7664290   7.9209600
  25.3280200  55.4670040   8.2418670  26.0188400  56.0106300   7.0093420
  23.2736320  57.2666040  10.0208390  23.5989730  56.4329790   9.6810620
  24.0616650  57.7894560  10.1686720  18.9288190  52.2234150   3.0467220
  19.2260520  53.1296980   2.9659240  19.4773750  51.7352930   2.4326790
  19.1225720  57.7005970   9.5819140  19.0269320  56.7600700   9.4319540
  19.9657700  57.9221040   9.1867210  14.2536260  54.1119640   7.7352920
  13.8599650  54.9594850   7.9425700  13.5654660  53.4746010   7.9261560
  20.8281310  54.1954610  10.8049660  20.1379630  54.0026810  11.4395750
  21.5713610  54.4789250  11.3373960  11.5553310  52.0348100   1.7683000
  11.2666360  52.6050960   2.4807980  12.2999070  51.5552550   2.1314230
  23.1044280  58.0353050   3.6403580  22.3725400  58.5439860   3.9893680
  22.7068620  57.2183030   3.3392360  23.5670190  53.4886730   3.0526520
  23.5842930  53.9395380   3.8968370  23.3185770  52.5892370   3.2659960
  26.9940940  50.9018910   8.8912900  27.3186710  50.1708570   9.4170880
  27.0297450  50.5832550   7.9893890  13.6932500  61.9232490   8.3112860
  13.3087290  61.2826160   8.9095820  14.0044690  62.6268610   8.8807590
  19.8429640  58.7709030   3.7921480  20.2099770  58.2967600   4.5382820
  19.6534700  59.6450600   4.1329820  17.6329010  57.8117670   6.1105690
  17.3286080  58.6909650   6.3356050  18.5875470  57.8717460   6.1463130
  26.9198780  61.0144020   2.4998930  27.6397900  61.5099310   2.1095040
  26.7180600  60.3361910   1.8552800  22.3017580  61.0853080   8.3867930
  22.2354890  60.1648750   8.1325520  21.6722720  61.1828520   9.1012570
  13.6892740  58.6520410   7.2577050  13.3307680  59.3174260   7.8450390
  13.3947300  57.8203960   7.6289670  16.8905860  59.1104650  10.1416600
  16.5906000  59.2561830   9.2444420  17.6617100  58.5509940  10.0489990
  22.2334310  63.9073650   8.1371730  22.2478850  62.9754610   7.9190640
  21.5259410  63.9933410   8.7761500  28.4445520  60.5480990   7.4840310
  27.7193710  61.1409770   7.2869700  28.9720980  60.5404530   6.6853680
  21.6668210  65.5491220   5.2312230  22.3110430  65.7550600   5.9085650
  22.0297650  64.7879620   4.7783080  22.9400290  63.5523570   3.9489680
  23.5822520  62.8516730   4.0621850  23.4649640  64.3322010   3.7686570
  24.7137910  64.3518470   7.1525740  25.0494150  64.9385160   7.8303660
  23.7938250  64.2211180   7.3823530  12.2641310  52.1413650   7.9349150
  11.5499830  52.3410570   8.5401760  12.6836350  51.3653220   8.3063950
  12.5513900  66.1293910   8.9215680  12.6605020  65.1888650   8.7811070
  11.8994460  66.3948660   8.2729410  20.5426490  64.4009800  10.3213800
  20.2223360  63.6819040  10.8659490  19.8684850  65.0764870  10.3949860
  23.7580090  54.6335960   5.6850600  24.1260910  53.8131170   6.0130170
  22.8978290  54.6937850   6.1006250  20.7182080  57.2875550   5.9088570
  21.2167330  57.7621370   6.5740420  20.8605030  56.3639070   6.1158600
  27.9248940  53.5043510   6.7516960  27.4222540  54.2448910   7.0910770
  28.7405600  53.8927510   6.4353750  14.6972340  67.1962820  10.7335290
  15.4985070  67.5174870  11.1470690  14.1824160  66.8358400  11.4555200
  23.5336970  63.3042690  10.6810700  22.9275130  63.3274290   9.9406450
  23.2291080  62.5725730  11.2177950  24.9637340  67.0322980   9.2920110
  25.9159090  66.9481000   9.2420350  24.8165560  67.6964690   9.9653900
  12.4170150  59.6836280   9.6771340  12.9209170  59.1043560  10.2487570
  11.6777570  59.9676510  10.2147710  19.4708090  61.0907270   9.2106860
  18.7053760  61.6592270   9.1261530  19.6524050  60.7983480   8.3175090
  26.6131440  62.8212600   9.7681880  27.3540910  63.1588360   9.2649340
  25.8504120  62.9904660   9.2151650  14.4493230  57.8265870  10.5721410
  14.4898570  57.5279740  11.4806640  15.3038730  58.2273480  10.4128930
  16.3899040  56.4057970   8.5395900  15.8595500  55.9148920   7.9119240
  17.0587110  56.8342170   8.0053830  25.2877100  60.8727430   8.3037090
  25.7018120  61.0272510   9.1527510  24.3528100  60.9982650   8.4662870
  25.7599270  58.2123590  10.3076240  26.3420040  57.4575910  10.2196720
  25.9361040  58.7431030   9.5307720  16.8771340  53.3720340   8.6193190
  16.7828210  52.7541090   7.8944060  16.2968730  54.0986630   8.3923100
  19.6432780  51.9293580   5.6520580  19.1950080  51.9517840   4.8066130
  19.0097980  51.5312600   6.2490880  20.0492330  60.8247910   6.2733020
  20.4680440  61.6680640   6.1009260  19.1300960  60.9619950   6.0439800
  22.3856230  58.5564090   7.6570860  22.5052440  57.9605230   8.3965700
  23.2450230  58.5933780   7.2372160  24.7244130  59.1101280   6.2333370
  24.1979350  59.6343900   5.6298510  25.0675470  59.7428670   6.8643100
  17.8999750  67.1300920   7.3890750  17.3620840  67.8546980   7.0699450
  18.1533710  66.6531260   6.5988090  19.1525000  55.0985440   8.9146680
  19.7424690  54.7901290   9.6024500  18.3345240  54.6265190   9.0706580
  23.9718430  54.7151250   9.1479700  23.2833950  54.0532790   9.0829690
  24.6924450  54.2689520   9.5928160  20.7561960  68.3652130   7.6477400
  20.6820660  69.2687270   7.9549770  19.8540800  68.0464030   7.6199470
  12.6479460  66.5597310   3.6892650  12.2110450  66.7398110   4.5216800
  13.2157140  67.3171930   3.5474370  28.2841640  66.0614310   7.9769960
  27.6843630  66.1206870   7.2333880  28.4135540  65.1219290   8.1066810
  26.9693280  62.7866290   6.0746120  26.1553120  63.2163450   6.3371910
  27.3767480  63.3984700   5.4615170  13.5179820  59.4570110   4.5884870
  13.8852860  59.3697510   5.4680890  12.9490640  58.6936660   4.4891730
  28.3183680  57.9254490   7.6015340  28.0869770  57.6967240   6.7013290
  28.5788230  58.8454040   7.5560230  13.0695820  56.3679200   8.4943290
  12.1751870  56.3345960   8.8337000  13.6093370  56.5665990   9.2594540
  26.7571750  53.1510920  10.3795040  27.6341930  53.1594320  10.7629040
  26.7692590  52.4141760   9.7687390  28.3824740  57.0880330   4.7902610
  27.4327450  57.0543870   4.9047600  28.5637750  57.9980440   4.5552380
  13.5735530  50.6427530   2.8426510  14.2211720  50.0924910   2.4021670
  13.9937370  50.8970680   3.6642320  27.4687870  50.8368890   6.1996150
  28.1060090  51.4503030   6.5655340  27.6162760  50.8729550   5.2545380
  13.3267530  50.7983200   5.5851830  12.9782350  51.2547020   6.3510010
  12.9955230  49.9040330   5.6674260  14.9331900  63.9702800   9.7505020
  14.8901530  63.5995710  10.6319480  15.0642910  64.9080370   9.8906840
  18.6337930  65.5262390   5.3514740  18.3929290  65.7936950   4.4645260
  19.5740570  65.6968120   5.4065600  20.8392350  51.9895080   9.1071250
  20.7781240  52.5816910   9.8566660  21.7792730  51.8821040   8.9621510
  23.4766910  51.6465140   8.7463540  24.0907320  51.9644430   8.0844620
  24.0216470  51.1613730   9.3659400  29.8942090  67.5456770   6.1525380
  29.4000370  67.9425640   5.4352510  29.2855380  66.9205980   6.5462660
  13.9988170  50.3259400   8.8602600  14.5471160  50.1447450   8.0968710
  14.0643480  49.5353510   9.3958910  14.7719930  66.9165050   6.8702800
  14.1780250  66.7849750   7.6092840  14.7643770  66.0803190   6.4044900
  24.2174950  50.2097280   5.0732830  23.3434790  50.5432390   4.8705760
  24.1085700  49.7370460   5.8984700  25.1246930  52.4168150   6.4574550
  24.7960290  51.6019910   6.0776280  26.0729230  52.3737960   6.3340240
  27.5781540  68.1880190   3.4312120  27.1184510  68.9396000   3.0570140
  26.9494000  67.4686660   3.3726920  14.4032160  64.2823430   5.8210840
  13.6766220  63.6628720   5.7536790  14.4641310  64.6764040   4.9508920
  18.0077260  66.4968430   2.6060250  18.5242280  65.8855790   2.0808510
  18.6574640  66.9997210   3.0971260  20.7472760  67.3876920   3.4329230
  21.0350570  67.1331220   2.5562240  21.2595980  66.8354280   4.0234800
  21.9649770  51.1267120   4.0125740  21.1821560  51.6012620   4.2922500
  21.6712700  50.2221950   3.9038920  20.8145120  68.3093020  10.7997430
  21.7412430  68.0737290  10.8433390  20.7995550  69.1365020  10.3183460
  18.0008730  50.9737770  10.5639310  17.7193000  51.4771370   9.8000130
  18.3828430  50.1759520  10.1981440  24.6024190  50.3891350  11.1419780
  24.4889640  50.7085960  12.0371300  25.4193930  50.7903860  10.8457060
  27.3822680  67.5362880  10.6238470  28.1748000  67.0412110  10.4164430
  27.6755830  68.2153020  11.2314080  23.5082340  39.6340330 150.4745930
  23.4276390  38.7194940 150.2037640  23.0946760  40.1307400 149.7685640
  25.6607810  45.8179540 151.1354330  25.1989340  45.0466780 151.4641500
  26.4733360  45.8445610 151.6406780  14.0658160  36.6841050 147.0173350
  13.1774860  37.0257020 146.9153230  14.3499350  36.4841370 146.1254180
  21.8871120  48.1037550 150.7558320  21.2682560  48.5595050 150.1852760
  22.7422900  48.2589010 150.3548020  16.2419550  35.2672550 148.0511730
  16.3486300  36.1676280 148.3580490  15.3311910  35.2190520 147.7606380
  25.8938660  34.3897360 149.5222630  26.7148280  33.8993930 149.5648110
  25.9272740  34.9795020 150.2754470  22.7534470  42.9876790 148.1490230
  22.1351740  43.4526240 147.5852950  23.2657720  43.6804270 148.5659740
  12.1217670  43.6733320 145.5229860  11.7445650  44.1620420 144.7914760
  12.3790740  44.3458600 146.1536390  19.7306600  32.0749710 150.9815370
  20.0381580  31.5196600 150.2650870  18.8007300  32.2094170 150.7988360
  26.5767080  44.5133220 148.3613000  26.4663410  43.5707550 148.4862420
  26.5735330  44.8748860 149.2475760  22.1187360  40.1398540 147.7175490
  21.1916640  40.0735920 147.9463960  22.2712180  41.0778670 147.6030730
  22.1056440  36.4115540 144.7142650  21.1660110  36.5729500 144.7995110
  22.4239700  37.1301220 144.1678640  26.1484650  41.7018840 148.2210740
  25.5297070  41.3638390 147.5737040  26.1309100  41.0578600 148.9289930
  17.7244000  40.6663280 150.4995220  17.3201000  39.9540530 150.0041120
  17.8107120  40.3216520 151.3883260  24.3249350  40.9405650 145.2283490
  24.7642630  40.1028080 145.0821310  25.0377770  41.5735050 145.3147630
  22.4344730  45.8801720 149.1964730  22.8740640  46.6226050 148.7820120
  22.3731620  46.1228290 150.1203690  27.9066490  32.1948460 143.5424530
  27.5939150  32.2875290 144.4423600  28.6678960  32.7729490 143.4921960
  14.4248630  39.5608260 148.0001870  14.3046230  40.2870350 147.3883140
  14.1149520  38.7911170 147.5229780  13.3081630  44.4323590 150.2176690
  12.9009710  44.5738180 149.3630290  14.1994640  44.1483750 150.0147900
  25.1014910  48.8670840 146.5527740  24.9416050  48.5773780 147.4509570
  24.9361620  48.0910970 146.0172970  17.5803290  48.6469370 148.3299360
  17.4045770  47.7304910 148.1167160  16.7259030  49.0056660 148.5697160
  24.8041040  46.3758400 145.1125740  24.1106200  46.3735690 144.4528020
  25.5463900  45.9517720 144.6819910  24.3690970  48.0021110 149.1874230
  24.8247920  47.2210490 149.5012850  24.7083490  48.7127930 149.7315410
  16.8912290  32.9043330 151.3825540  16.4480440  33.6852870 151.0510060
  17.4497280  33.2273220 152.0896480  20.0071110  32.5254030 146.2631370
  19.3825290  32.5213900 146.9884680  19.9201230  31.6584990 145.8667340
  16.6826510  38.0276900 149.1106790  16.4567430  37.8114070 150.0153410
  15.9019040  38.4605360 148.7652760  23.9124270  38.0340270 147.7097440
  23.3133160  38.7576070 147.5261060  24.4603880  37.9717050 146.9273890
  22.5189140  36.6703810 149.7400720  22.9118710  36.9876010 148.9269410
  22.8805990  35.7915690 149.8545240  11.7423540  37.2024730 143.1733640
  11.6598210  38.1455490 143.3148630  11.3906600  37.0599640 142.2945990
  19.5421670  35.9363760 152.2403990  19.5457730  35.4953710 151.3908530
  20.4372790  36.2581090 152.3475810  15.3924050  35.8190250 151.1998200
  15.0524100  36.2965480 151.9565250  14.6301370  35.3655370 150.8399300
  19.6041820  36.9375840 145.2310750  19.7254640  36.8962320 146.1796570
  19.2190330  37.7999990 145.0757480  18.6163320  39.2476980 144.6294050
  18.0480220  38.7995230 144.0029960  19.3252320  39.6069760 144.0959200
  12.7070130  34.7409230 150.1162870  12.4217050  34.3764900 150.9541490
  12.6448990  34.0089690 149.5026010  16.1610800  43.2435170 146.9020460
  15.3873060  42.7032790 146.7419180  16.8905430  42.7241780 146.5638220
  22.3808720  33.6338490 146.8376240  21.5673330  33.1351660 146.7621550
  22.1870670  34.4736740 146.4212590  25.0957110  38.0058140 145.1338400
  25.9836730  38.3175370 144.9589740  25.0662200  37.1330390 144.7418980
  16.2048200  42.9115550 150.5399270  16.7226870  42.1083810 150.4856160
  15.7532220  42.8494690 151.3816100  21.0917700  44.1781830 145.8126570
  21.4333400  44.9224060 145.3169890  20.2630410  44.4912950 146.1751400
  27.3671380  39.3169980 144.6018260  27.2835100  39.7484200 143.7514700
  28.0865570  39.7768330 145.0345080  28.3958630  46.1712240 147.3300390
  27.7534790  45.5167860 147.6044110  28.0089290  46.5767330 146.5541060
  23.9745110  43.4997670 151.1772080  24.3268930  42.9025800 150.5173450
  23.0907440  43.1741900 151.3480330  20.0608390  44.2595360 148.5842490
  20.7479520  44.8064570 148.9650080  19.2740810  44.8036090 148.6192100
  12.2000790  39.8768180 144.0759570  13.0695640  40.1592980 144.3595490
  11.7091110  40.6904050 143.9608380  19.3635600  41.2641390 148.1967850
  19.8198380  42.0746640 148.4228040  19.0123810  40.9464530 149.0286340
  15.2647380  31.6079040 148.6690370  15.1362010  31.5996940 149.6175290
  14.4409400  31.9462130 148.3181380  26.7856010  45.0628700 143.8676740
  26.5593590  44.3459140 144.4601380  26.3952210  44.8141140 143.0298490
  12.5672040  49.0895560 144.6421200  12.9269680  49.6884900 143.9878470
  12.4264380  49.6355450 145.4156230  26.3672260  42.9800640 145.5290900
  26.0793960  43.4413330 146.3168780  27.1624430  42.5198410 145.7975120
  18.5840660  46.4726760 145.4594870  18.5750760  47.2056450 144.8439380
  17.6639020  46.2258340 145.5521830  14.1847300  41.6941650 146.2041630
  13.5775250  42.4340550 146.2136930  14.6596650  41.7841010 145.3779830
  27.1242120  34.8149410 146.6886080  26.4955280  34.9195080 145.9744310
  26.6294040  35.0346190 147.4779960  21.5700260  46.5355000 144.1220060
  21.6712240  46.3318990 143.1922040  20.6702000  46.2813280 144.3267840
  19.0926150  37.0935360 148.1043960  18.3842300  37.5621700 148.5457570
  19.3770630  36.4357370 148.7389150  23.1241580  33.8186020 149.5439750
  23.0009360  33.8372150 148.5949260  24.0726140  33.8664960 149.6638150
  20.2118370  49.0541320 148.8167730  20.4659870  49.0162710 147.8947100
  19.2630850  48.9274650 148.8095980  17.2961170  35.4020440 145.4794670
  18.1451700  35.8390590 145.4134860  16.9292440  35.7140700 146.3066730
  26.2170950  39.9733200 150.3926240  25.2761090  39.9883430 150.5673930
  26.5315020  39.1869160 150.8386540  16.1952590  41.6552800 143.9530200
  16.9615860  41.5434160 144.5155630  16.2727280  40.9590770 143.3006970
  14.8899350  39.0877870 144.6363090  14.9702940  38.1405380 144.7480490
  15.7819100  39.4184750 144.7423750  15.6914060  49.2373260 151.7397630
  16.4276540  48.6888720 152.0106200  16.0754980  50.1029270 151.6003620
  12.5759540  45.3046830 147.6139140  11.6499320  45.5467970 147.6044550
  13.0415970  46.1321090 147.4923890  18.8016370  48.4103570 143.5623200
  19.5944980  48.6992400 143.1104990  18.2820720  47.9795740 142.8835680
  27.8546540  47.6373700 144.9859940  27.5688050  47.2238840 144.1714120
  27.6566090  48.5661410 144.8660460  19.3193770  43.6306980 143.4265550
  19.2144410  43.0159330 144.1526930  19.1517990  43.1072870 142.6428560
  22.5596500  42.6927010 144.0307540  22.0106600  43.1396310 144.6750280
  23.1815760  42.1876260 144.5545210  18.2271620  41.6517930 145.9272840
  18.6488040  41.4857800 146.7704230  18.3522460  40.8418160 145.4327980
  20.7399260  40.6755540 143.1749940  21.2604920  39.9604560 142.8091090
  21.3867660  41.3141410 143.4750450  17.1230520  37.7251160 142.8731000
  16.9219580  36.8618520 143.2344340  16.9522570  37.6384520 141.9352600
  24.6018830  32.5359390 145.4017880  24.8821120  31.6927290 145.7577300
  23.8284560  32.7682500 145.9156630  15.9213320  34.8251780 142.8608880
  16.2239220  34.8319210 141.9528030  16.6607910  34.4749640 143.3576540
  19.1398250  33.7686400 143.8465080  18.7920250  33.0910390 143.2667530
  19.3411020  33.3075910 144.6608470  21.3047290  48.7567150 145.4651680
  22.1998080  49.0952120 145.4870440  21.3364920  48.0346560 144.8375960
  14.9443450  44.1294200 143.6938680  15.3818320  44.6723870 144.3496260
  15.4291180  43.3041150 143.7035020  12.1589250  46.9183230 151.1458940
  12.4892260  46.0504290 150.9137580  12.5880250  47.1241750 151.9763900
  16.7551170  45.2492240 148.8060910  16.4546710  45.1257210 149.7064820
  16.6488660  44.3900830 148.3976640  29.5243090  45.0288640 143.5087590
  28.6936050  45.0965290 143.9794820  29.7014920  45.9192760 143.2054450
  28.9799550  41.7736120 146.0121790  29.7418460  42.3432770 146.1181480
  28.9953920  41.2063320 146.7830100  12.4803890  40.2974050 150.2429450
  11.8252730  40.0285690 149.5989150  13.3181840  40.1878530 149.7931430
  29.9859520  42.6286220 150.8563720  30.3568350  41.8453540 150.4499690
  30.6261450  43.3175320 150.6781020  29.0318720  42.0670490 143.1694310
  29.3067560  42.9749370 143.0413530  28.8429460  42.0033020 144.1056300
  25.4294330  35.0915340 144.4647940  25.8479210  34.9046320 143.6244600
  25.1230390  34.2394390 144.7750870  28.9284060  40.0039480 148.1623740
  28.5527660  39.2367410 147.7305030  28.1987180  40.3862180 148.6498670
  11.6941970  37.5072980 146.1854780  10.7906050  37.7703180 146.0106440
  12.1782590  37.7784150 145.4054740  28.2035020  38.2296970 151.4630980
  28.7272500  37.7359620 150.8321150  28.7894440  38.3647330 152.2078550
  14.2369180  36.5638520 144.0949160  14.9460880  36.1421740 143.6096440
  13.5209120  36.6313750 143.4632510  13.8843340  32.6177850 143.1351810
  14.6071470  33.1586790 143.4533030  14.1567860  32.3441270 142.2593350
  27.6934990  37.4870320 147.4023390  28.1894110  37.2541190 148.1872270
  27.4951060  36.6482160 146.9861030  29.1222150  36.1231270 149.9361070
  29.0121430  35.9687310 150.8743340  29.8829740  35.5952210 149.6936480
  30.0112420  33.9539190 143.1767210  30.9361730  33.8220370 142.9685500
  29.9888210  34.0332010 144.1303660  30.0850910  34.7249850 145.8023920
  29.2902410  34.6594970 146.3316830  30.2894190  35.6600490 145.7909270
  27.0269330  48.7641400 149.7962310  27.6228400  48.4425970 149.1196730
  27.2847480  48.2913220 150.5875580  26.5170840  33.0546730 152.2522750
  26.9578930  32.9991830 151.4044350  26.2478430  33.9704740 152.3232930
  28.3809410  32.6861970 150.2631570  28.3197810  31.7423190 150.1162590
  29.1601440  32.7942060 150.8085030  12.6862160  48.8254330 149.2255520
  12.5184200  48.1925010 149.9237410  11.8196670  49.0313730 148.8749710
  13.3090180  32.6571110 146.7287380  14.0669540  32.7699990 146.1551410
  12.8467350  33.4940310 146.6830810  19.8503990  34.7710380 149.7189690
  19.0378500  34.3967270 149.3785570  20.3545630  34.0155460 150.0210880
  24.3528970  31.4352830 150.9572760  24.9558340  32.0073040 151.4321280
  23.6121960  31.9992270 150.7346660  27.4963570  31.8374390 146.2313040
  27.6914200  32.7357840 146.4980470  26.7093440  31.6061470 146.7245990
  14.2924860  47.5187560 146.6705660  13.7672480  47.8995590 145.9667620
  14.2169440  48.1438330 147.3915370  15.6815330  33.1835160 145.2689350
  16.2108090  32.3964960 145.1397300  16.3143650  33.8626350 145.5024880
  17.8753170  32.9210300 148.3234740  17.2455910  32.2197610 148.4904870
  17.3358310  33.6814430 148.1067900  29.0490180  49.0775100 147.9919600
  29.2242370  48.3912840 147.3480520  28.3511750  49.6022150 147.5996270
  16.8917830  49.4669940 145.5454910  17.6236650  49.1829220 144.9978800
  17.1511500  49.2283220 146.4354290  16.0532620  45.5834670 145.5501240
  15.4241500  46.0519770 146.0987070  16.1680450  44.7383890 145.9847430
  23.5082340  39.6340330 131.7002440  23.4276390  38.7194940 131.4294150
  23.0946760  40.1307400 130.9942150  21.6400380  41.4119350 133.5811710
  20.8642480  40.9319790 133.8710280  22.2913310  40.7325000 133.4067870
  15.6566210  41.7239160 134.4587470  14.8251090  41.4687870 134.8583980
  16.2647190  41.7949930 135.1945390  25.6607810  45.8179540 132.3610840
  25.1989340  45.0466780 132.6898010  26.4733360  45.8445610 132.8663290
  15.6367470  45.7579250 134.6545490  15.9395510  44.8676990 134.4755710
  16.3811060  46.3149470 134.4267740  14.0658160  36.6841050 128.2429860
  13.1774860  37.0257020 128.1409740  14.3499350  36.4841370 127.3510690
  12.0291170  39.2846700 134.1269560  12.6007280  38.5168900 134.1273200
  12.0292710  39.5835460 133.2176170  21.8871120  48.1037550 131.9814830
  21.2682560  48.5595050 131.4109270  22.7422900  48.2589010 131.5804530
  21.0809370  44.0876540 133.5881870  21.0117650  43.1466480 133.4271000
  21.8429230  44.1777950 134.1604440  13.2716040  34.6931060 135.9138490
  13.0918880  33.7956810 136.1941250  12.8696120  35.2402930 136.5885440
  22.1114540  36.8946920 133.8150800  22.4879360  36.0218800 133.7024470
  22.0134050  37.2305620 132.9241240  16.2419550  35.2672550 129.2768240
  16.3486300  36.1676280 129.5837000  15.3311910  35.2190520 128.9862890
  25.8938660  34.3897360 130.7479140  26.7148280  33.8993930 130.7904620
  25.9272740  34.9795020 131.5010980  13.8902710  37.1891560 134.5220830
  14.5712820  37.4529930 135.1408230  13.5750760  36.3492430 134.8558840
  18.0827280  38.2358920 133.6093420  18.5905500  38.7339890 134.2498440
  18.6140520  37.4594120 133.4332780  30.1838210  36.4064110 137.3122770
  29.4790380  36.7945820 136.7937880  30.4496130  37.1014400 137.9143700
  16.3663380  32.8757480 137.8756840  16.3681820  33.3929870 137.0702740
  15.5367690  32.3987660 137.8526770  22.7534470  42.9876790 129.3746740
  22.1351740  43.4526240 128.8109460  23.2657720  43.6804270 129.7916250
  17.6166230  42.5152660 136.0530340  17.2835610  43.1421580 136.6951410
  17.7932910  43.0414540 135.2732010  26.1300140  36.3297740 133.5206680
  25.4255710  36.6182630 134.1009790  26.4912300  37.1397850 133.1606240
  16.0478710  34.5867440 135.8827290  16.3895520  35.4309490 135.5881160
  15.1094520  34.7351180 135.9992630  16.8285330  44.4833460 137.8679520
  17.4459330  45.1584540 137.5863970  15.9678450  44.8921440 137.7767020
  12.1217670  43.6733320 126.7486370  11.7445650  44.1620420 126.0171270
  12.3790740  44.3458600 127.3792900  27.7462920  45.9472870 135.7834160
  27.0626440  46.6171980 135.7750830  28.2857210  46.1453520 135.0179020
  29.1987060  35.7752530 133.9115890  28.2511970  35.8091510 134.0431320
  29.5237050  36.5891480 134.2965250  19.7306600  32.0749710 132.2071880
  20.0381580  31.5196600 131.4907380  18.8007300  32.2094170 132.0244870
  25.2821660  47.7917000 134.4979340  25.2948820  47.3879290 133.6301600
  24.7296880  48.5664290 134.3940770  26.5767080  44.5133220 129.5869510
  26.4663410  43.5707550 129.7118930  26.5735330  44.8748860 130.4732270
  24.6807100  42.6946840 135.8261950  25.0975890  42.4806950 134.9915410
  25.4046920  42.9519630 136.3970570  22.1187360  40.1398540 128.9432000
  21.1916640  40.0735920 129.1720470  22.2712180  41.0778670 128.8287240
  22.1056440  36.4115540 125.9399160  21.1660110  36.5729500 126.0251620
  22.4239700  37.1301220 125.3935150  28.6269200  41.0934060 135.9178190
  27.7987830  41.1627150 135.4428320  29.2219680  41.6788370 135.4494020
  26.1484650  41.7018840 129.4467250  25.5297070  41.3638390 128.7993550
  26.1309100  41.0578600 130.1546440  25.5911210  37.8803380 136.8633060
  25.1782390  38.7057090 137.1173050  24.8587160  37.2948420 136.6709420
  17.7244000  40.6663280 131.7251730  17.3201000  39.9540530 131.2297630
  17.8107120  40.3216520 132.6139770  18.1925700  44.3530840 133.8890940
  17.8953990  43.7476310 133.2098720  19.1425520  44.3908150 133.7780300
  16.4372620  37.4406490 135.5050770  16.9887210  37.5501830 134.7304020
  16.9516130  37.8144090 136.2206000  26.2811310  47.9262710 137.5514040
  25.8041870  48.7334900 137.3586650  25.5973100  47.2741040 137.7040250
  17.2844130  44.0912530 140.5398740  16.3872660  44.3152500 140.7872140
  17.3097000  44.2147470 139.5910140  24.3249350  40.9405650 126.4540000
  24.7642630  40.1028080 126.3077820  25.0377770  41.5735050 126.5404140
  16.1115350  40.9625850 139.1156110  15.9723120  41.8348650 139.4843510
  15.2296710  40.6198660 138.9704050  22.4344730  45.8801720 130.4221240
  22.8740640  46.6226050 130.0076630  22.3731620  46.1228290 131.3460200
  17.9095700  46.9047550 141.3241260  17.8811130  47.3090500 140.4569690
  17.7460670  45.9757910 141.1612860  27.9066490  32.1948460 124.7681040
  27.5939150  32.2875290 125.6680110  28.6678960  32.7729490 124.7178470
  14.4248630  39.5608260 129.2258380  14.3046230  40.2870350 128.6139650
  14.1149520  38.7911170 128.7486290  29.8610520  47.6874650 142.6205430
  30.3370240  48.1657540 143.2994510  30.4817680  47.6192140 141.8950930
  12.0634000  42.7323400 135.0327020  12.1414420  42.8672170 134.0882740
  12.6775680  42.0239290 135.2255140  13.3081630  44.4323590 131.4433200
  12.9009710  44.5738180 130.5886800  14.1994640  44.1483750 131.2404410
  29.2643770  44.8787500 139.7805440  29.3906830  44.6399380 138.8622620
  29.3065150  44.0472040 140.2527520  23.1260510  48.5815500 138.3500250
  23.6405180  48.4923510 139.1522680  22.2829590  48.9275200 138.6428160
  25.1014910  48.8670840 127.7784250  24.9416050  48.5773780 128.6766080
  24.9361620  48.0910970 127.2429480  17.5803290  48.6469370 129.5555870
  17.4045770  47.7304910 129.3423670  16.7259030  49.0056660 129.7953670
  24.8041040  46.3758400 126.3382250  24.1106200  46.3735690 125.6784530
  25.5463900  45.9517720 125.9076420  24.3690970  48.0021110 130.4130740
  24.8247920  47.2210490 130.7269360  24.7083490  48.7127930 130.9571920
  29.1167780  36.9319960 140.7455180  28.5012050  37.4399630 140.2170640
  28.7964200  36.0318290 140.6881120  12.1193520  43.7737570 137.5721480
  12.2824560  43.3042930 136.7540850  12.5845970  43.2661130 138.2370320
  16.8912290  32.9043330 132.6082050  16.4480440  33.6852870 132.2766570
  17.4497280  33.2273220 133.3152990  21.1782100  35.7711850 138.2117370
  20.7161470  35.9794870 139.0237310  20.7760210  34.9571200 137.9088040
  26.1786610  36.9920800 139.3414030  25.3280200  36.6926550 139.6623100
  26.0188400  37.2362810 138.4297850  23.2736320  38.4922550 141.4412820
  23.5989730  37.6586300 141.1015050  24.0616650  39.0151070 141.5891150
  20.0071110  32.5254030 127.4887880  19.3825290  32.5213900 128.2141190
  19.9201230  31.6584990 127.0923850  18.9288190  33.4490660 134.4671650
  19.2260520  34.3553490 134.3863670  19.4773750  32.9609440 133.8531220
  16.6826510  38.0276900 130.3363300  16.4567430  37.8114070 131.2409920
  15.9019040  38.4605360 129.9909270  23.9124270  38.0340270 128.9353950
  23.3133160  38.7576070 128.7517570  24.4603880  37.9717050 128.1530400
  19.1225720  38.9262480 141.0023570  19.0269320  37.9857210 140.8523970
  19.9657700  39.1477550 140.6071640  22.5189140  36.6703810 130.9657230
  22.9118710  36.9876010 130.1525920  22.8805990  35.7915690 131.0801750
  14.2536260  35.3376150 139.1557350  13.8599650  36.1851360 139.3630130
  13.5654660  34.7002520 139.3465990  20.8281310  35.4211120 142.2254090
  20.1379630  35.2283320 142.8600180  21.5713610  35.7045760 142.7578390
  11.5553310  33.2604610 133.1887430  11.2666360  33.8307470 133.9012410
  12.2999070  32.7809060 133.5518660  11.7423540  37.2024730 124.3990150
  11.6598210  38.1455490 124.5405140  11.3906600  37.0599640 123.5202500
  23.1044280  39.2609560 135.0608010  22.3725400  39.7696370 135.4098110
  22.7068620  38.4439540 134.7596790  19.5421670  35.9363760 133.4660500
  19.5457730  35.4953710 132.6165040  20.4372790  36.2581090 133.5732320
  15.3924050  35.8190250 132.4254710  15.0524100  36.2965480 133.1821760
  14.6301370  35.3655370 132.0655810  19.6041820  36.9375840 126.4567260
  19.7254640  36.8962320 127.4053080  19.2190330  37.7999990 126.3013990
  23.5670190  34.7143240 134.4730950  23.5842930  35.1651890 135.3172800
  23.3185770  33.8148880 134.6864390  18.6163320  39.2476980 125.8550560
  18.0480220  38.7995230 125.2286470  19.3252320  39.6069760 125.3215710
  26.9940940  32.1275420 140.3117330  27.3186710  31.3965080 140.8375310
  27.0297450  31.8089060 139.4098320  13.6932500  43.1489000 139.7317290
  13.3087290  42.5082670 140.3300250  14.0044690  43.8525120 140.3012020
  19.8429640  39.9965540 135.2125910  20.2099770  39.5224110 135.9587250
  19.6534700  40.8707110 135.5534250  12.7070130  34.7409230 131.3419380
  12.4217050  34.3764900 132.1798000  12.6448990  34.0089690 130.7282520
  17.6329010  39.0374180 137.5310120  17.3286080  39.9166160 137.7560480
  18.5875470  39.0973970 137.5667560  16.1610800  43.2435170 128.1276970
  15.3873060  42.7032790 127.9675690  16.8905430  42.7241780 127.7894730
  26.9198780  42.2400530 133.9203360  27.6397900  42.7355820 133.5299470
  26.7180600  41.5618420 133.2757230  22.3808720  33.6338490 128.0632750
  21.5673330  33.1351660 127.9878060  22.1870670  34.4736740 127.6469100
  22.3017580  42.3109590 139.8072360  22.2354890  41.3905260 139.5529950
  21.6722720  42.4085030 140.5217000  25.0957110  38.0058140 126.3594910
  25.9836730  38.3175370 126.1846250  25.0662200  37.1330390 125.9675490
  16.2048200  42.9115550 131.7655780  16.7226870  42.1083810 131.7112670
  15.7532220  42.8494690 132.6072610  21.0917700  44.1781830 127.0383080
  21.4333400  44.9224060 126.5426400  20.2630410  44.4912950 127.4007910
  13.6892740  39.8776920 138.6781480  13.3307680  40.5430770 139.2654820
  13.3947300  39.0460470 139.0494100  16.8905860  40.3361160 141.5621030
  16.5906000  40.4818340 140.6648850  17.6617100  39.7766450 141.4694420
  22.2334310  45.1330160 139.5576160  22.2478850  44.2011120 139.3395070
  21.5259410  45.2189920 140.1965930  27.3671380  39.3169980 125.8274770
  27.2835100  39.7484200 124.9771210  28.0865570  39.7768330 126.2601590
  28.4445520  41.7737500 138.9044740  27.7193710  42.3666280 138.7074130
  28.9720980  41.7661040 138.1058110  28.3958630  46.1712240 128.5556900
  27.7534790  45.5167860 128.8300620  28.0089290  46.5767330 127.7797570
  23.9745110  43.4997670 132.4028590  24.3268930  42.9025800 131.7429960
  23.0907440  43.1741900 132.5736840  20.0608390  44.2595360 129.8099000
  20.7479520  44.8064570 130.1906590  19.2740810  44.8036090 129.8448610
  12.2000790  39.8768180 125.3016080  13.0695640  40.1592980 125.5852000
  11.7091110  40.6904050 125.1864890  19.3635600  41.2641390 129.4224360
  19.8198380  42.0746640 129.6484550  19.0123810  40.9464530 130.2542850
  21.6668210  46.7747730 136.6516660  22.3110430  46.9807110 137.3290080
  22.0297650  46.0136130 136.1987510  15.2647380  31.6079040 129.8946880
  15.1362010  31.5996940 130.8431800  14.4409400  31.9462130 129.5437890
  22.9400290  44.7780080 135.3694110  23.5822520  44.0773240 135.4826280
  23.4649640  45.5578520 135.1891000  26.7856010  45.0628700 125.0933250
  26.5593590  44.3459140 125.6857890  26.3952210  44.8141140 124.2555000
  24.7137910  45.5774980 138.5730170  25.0494150  46.1641670 139.2508090
  23.7938250  45.4467690 138.8027960  12.5672040  49.0895560 125.8677710
  12.9269680  49.6884900 125.2134980  12.4264380  49.6355450 126.6412740
  12.2641310  33.3670160 139.3553580  11.5499830  33.5667080 139.9606190
  12.6836350  32.5909730 139.7268380  26.3672260  42.9800640 126.7547410
  26.0793960  43.4413330 127.5425290  27.1624430  42.5198410 127.0231630
  12.5513900  47.3550420 140.3420110  12.6605020  46.4145160 140.2015500
  11.8994460  47.6205170 139.6933840  20.5426490  45.6266310 141.7418230
  20.2223360  44.9075550 142.2863920  19.8684850  46.3021380 141.8154290
  18.5840660  46.4726760 126.6851380  18.5750760  47.2056450 126.0695890
  17.6639020  46.2258340 126.7778340  14.1847300  41.6941650 127.4298140
  13.5775250  42.4340550 127.4393440  14.6596650  41.7841010 126.6036340
  23.7580090  35.8592470 137.1055030  24.1260910  35.0387680 137.4334600
  22.8978290  35.9194360 137.5210680  27.1242120  34.8149410 127.9142590
  26.4955280  34.9195080 127.2000820  26.6294040  35.0346190 128.7036470
  21.5700260  46.5355000 125.3476570  21.6712240  46.3318990 124.4178550
  20.6702000  46.2813280 125.5524350  19.0926150  37.0935360 129.3300470
  18.3842300  37.5621700 129.7714080  19.3770630  36.4357370 129.9645660
  20.7182080  38.5132060 137.3293000  21.2167330  38.9877880 137.9944850
  20.8605030  37.5895580 137.5363030  23.1241580  33.8186020 130.7696260
  23.0009360  33.8372150 129.8205770  24.0726140  33.8664960 130.8894660
  20.2118370  49.0541320 130.0424240  20.4659870  49.0162710 129.1203610
  19.2630850  48.9274650 130.0352490  17.2961170  35.4020440 126.7051180
  18.1451700  35.8390590 126.6391370  16.9292440  35.7140700 127.5323240
  27.9248940  34.7300020 138.1721390  27.4222540  35.4705420 138.5115200
  28.7405600  35.1184020 137.8558180  26.2170950  39.9733200 131.6182750
  25.2761090  39.9883430 131.7930440  26.5315020  39.1869160 132.0643050
  16.1952590  41.6552800 125.1786710  16.9615860  41.5434160 125.7412140
  16.2727280  40.9590770 124.5263480  14.8899350  39.0877870 125.8619600
  14.9702940  38.1405380 125.9737000  15.7819100  39.4184750 125.9680260
  28.2196530  47.1442050 133.2937010  28.3443950  47.9673220 133.7660820
  29.0862090  46.9332780 132.9461160  15.6914060  49.2373260 132.9654140
  16.4276540  48.6888720 133.2362710  16.0754980  50.1029270 132.8260130
  12.5759540  45.3046830 128.8395650  11.6499320  45.5467970 128.8301060
  13.0415970  46.1321090 128.7180400  14.6972340  48.4219330 142.1539720
  15.4985070  48.7431380 142.5675120  14.1824160  48.0614910 142.8759630
  18.8016370  48.4103570 124.7879710  19.5944980  48.6992400 124.3361500
  18.2820720  47.9795740 124.1092190  23.5336970  44.5299200 142.1015130
  22.9275130  44.5530800 141.3610880  23.2291080  43.7982240 142.6382380
  24.9637340  48.2579490 140.7124540  25.9159090  48.1737510 140.6624780
  24.8165560  48.9221200 141.3858330  27.8546540  47.6373700 126.2116450
  27.5688050  47.2238840 125.3970630  27.6566090  48.5661410 126.0916970
  12.4170150  40.9092790 141.0975770  12.9209170  40.3300070 141.6692000
  11.6777570  41.1933020 141.6352140  19.3193770  43.6306980 124.6522060
  19.2144410  43.0159330 125.3783440  19.1517990  43.1072870 123.8685070
  19.4708090  42.3163780 140.6311290  18.7053760  42.8848780 140.5465960
  19.6524050  42.0239990 139.7379520  22.5596500  42.6927010 125.2564050
  22.0106600  43.1396310 125.9006790  23.1815760  42.1876260 125.7801720
  26.6131440  44.0469110 141.1886310  27.3540910  44.3844870 140.6853770
  25.8504120  44.2161170 140.6356080  14.4493230  39.0522380 141.9925840
  14.4898570  38.7536250 142.9011070  15.3038730  39.4529990 141.8333360
  18.2271620  41.6517930 127.1529350  18.6488040  41.4857800 127.9960740
  18.3522460  40.8418160 126.6584490  16.3899040  37.6314480 139.9600330
  15.8595500  37.1405430 139.3323670  17.0587110  38.0598680 139.4258260
  20.7399260  40.6755540 124.4006450  21.2604920  39.9604560 124.0347600
  21.3867660  41.3141410 124.7006960  25.2877100  42.0983940 139.7241520
  25.7018120  42.2529020 140.5731940  24.3528100  42.2239160 139.8867300
  25.7599270  39.4380100 141.7280670  26.3420040  38.6832420 141.6401150
  25.9361040  39.9687540 140.9512150  16.8771340  34.5976850 140.0397620
  16.7828210  33.9797600 139.3148490  16.2968730  35.3243140 139.8127530
  19.6432780  33.1550090 137.0725010  19.1950080  33.1774350 136.2270560
  19.0097980  32.7569110 137.6695310  20.0492330  42.0504420 137.6937450
  20.4680440  42.8937150 137.5213690  19.1300960  42.1876460 137.4644230
  22.3856230  39.7820600 139.0775290  22.5052440  39.1861740 139.8170130
  23.2450230  39.8190290 138.6576590  24.7244130  40.3357790 137.6537800
  24.1979350  40.8600410 137.0502940  25.0675470  40.9685180 138.2847530
  17.1230520  37.7251160 124.0987510  16.9219580  36.8618520 124.4600850
  16.9522570  37.6384520 123.1609110  17.8999750  48.3557430 138.8095180
  17.3620840  49.0803490 138.4903880  18.1533710  47.8787770 138.0192520
  19.1525000  36.3241950 140.3351110  19.7424690  36.0157800 141.0228930
  18.3345240  35.8521700 140.4911010  23.9718430  35.9407760 140.5684130
  23.2833950  35.2789300 140.5034120  24.6924450  35.4946030 141.0132590
  24.6018830  32.5359390 126.6274390  24.8821120  31.6927290 126.9833810
  23.8284560  32.7682500 127.1413140  15.9213320  34.8251780 124.0865390
  16.2239220  34.8319210 123.1784540  16.6607910  34.4749640 124.5833050
  20.7561960  49.5908640 139.0681830  20.6820660  50.4943780 139.3754200
  19.8540800  49.2720540 139.0403900  19.1398250  33.7686400 125.0721590
  18.7920250  33.0910390 124.4924040  19.3411020  33.3075910 125.8864980
  21.3047290  48.7567150 126.6908190  22.1998080  49.0952120 126.7126950
  21.3364920  48.0346560 126.0632470  14.9443450  44.1294200 124.9195190
  15.3818320  44.6723870 125.5752770  15.4291180  43.3041150 124.9291530
  12.1589250  46.9183230 132.3715450  12.4892260  46.0504290 132.1394090
  12.5880250  47.1241750 133.2020410  16.7551170  45.2492240 130.0317420
  16.4546710  45.1257210 130.9321330  16.6488660  44.3900830 129.6233150
  12.6479460  47.7853820 135.1097080  12.2110450  47.9654620 135.9421230
  13.2157140  48.5428440 134.9678800  28.2841640  47.2870820 139.3974390
  27.6843630  47.3463380 138.6538310  28.4135540  46.3475800 139.5271240
  29.5243090  45.0288640 124.7344100  28.6936050  45.0965290 125.2051330
  29.7014920  45.9192760 124.4310960  28.9799550  41.7736120 127.2378300
  29.7418460  42.3432770 127.3437990  28.9953920  41.2063320 128.0086610
  12.4803890  40.2974050 131.4685960  11.8252730  40.0285690 130.8245660
  13.3181840  40.1878530 131.0187940  29.9859520  42.6286220 132.0820230
  30.3568350  41.8453540 131.6756200  30.6261450  43.3175320 131.9037530
  26.9693280  44.0122800 137.4950550  26.1553120  44.4419960 137.7576340
  27.3767480  44.6241210 136.8819600  29.0318720  42.0670490 124.3950820
  29.3067560  42.9749370 124.2670040  28.8429460  42.0033020 125.3312810
  25.4294330  35.0915340 125.6904450  25.8479210  34.9046320 124.8501110
  25.1230390  34.2394390 126.0007380  28.9284060  40.0039480 129.3880250
  28.5527660  39.2367410 128.9561540  28.1987180  40.3862180 129.8755180
  13.5179820  40.6826620 136.0089300  13.8852860  40.5954020 136.8885320
  12.9490640  39.9193170 135.9096160  28.3183680  39.1511000 139.0219770
  28.0869770  38.9223750 138.1217720  28.5788230  40.0710550 138.9764660
  13.0695820  37.5935710 139.9147720  12.1751870  37.5602470 140.2541430
  13.6093370  37.7922500 140.6798970  26.7571750  34.3767430 141.7999470
  27.6341930  34.3850830 142.1833470  26.7692590  33.6398270 141.1891820
  11.6941970  37.5072980 127.4111290  10.7906050  37.7703180 127.2362950
  12.1782590  37.7784150 126.6311250  28.2035020  38.2296970 132.6887490
  28.7272500  37.7359620 132.0577660  28.7894440  38.3647330 133.4335060
  28.3824740  38.3136840 136.2107040  27.4327450  38.2800380 136.3252030
  28.5637750  39.2236950 135.9756810  14.2369180  36.5638520 125.3205670
  14.9460880  36.1421740 124.8352950  13.5209120  36.6313750 124.6889020
  13.8843340  32.6177850 124.3608320  14.6071470  33.1586790 124.6789540
  14.1567860  32.3441270 123.4849860  27.6934990  37.4870320 128.6279900
  28.1894110  37.2541190 129.4128780  27.4951060  36.6482160 128.2117540
  13.5735530  31.8684040 134.2630940  14.2211720  31.3181420 133.8226100
  13.9937370  32.1227190 135.0846750  29.1222150  36.1231270 131.1617580
  29.0121430  35.9687310 132.0999850  29.8829740  35.5952210 130.9192990
  27.4687870  32.0625400 137.6200580  28.1060090  32.6759540 137.9859770
  27.6162760  32.0986060 136.6749810  30.0112420  33.9539190 124.4023720
  30.9361730  33.8220370 124.1942010  29.9888210  34.0332010 125.3560170
  30.0850910  34.7249850 127.0280430  29.2902410  34.6594970 127.5573340
  30.2894190  35.6600490 127.0165780  27.0269330  48.7641400 131.0218820
  27.6228400  48.4425970 130.3453240  27.2847480  48.2913220 131.8132090
  13.3267530  32.0239710 137.0056260  12.9782350  32.4803530 137.7714440
  12.9955230  31.1296840 137.0878690  14.9331900  45.1959310 141.1709450
  14.8901530  44.8252220 142.0523910  15.0642910  46.1336880 141.3111270
  18.6337930  46.7518900 136.7719170  18.3929290  47.0193460 135.8849690
  19.5740570  46.9224630 136.8270030  20.8392350  33.2151590 140.5275680
  20.7781240  33.8073420 141.2771090  21.7792730  33.1077550 140.3825940
  23.4766910  32.8721650 140.1667970  24.0907320  33.1900940 139.5049050
  24.0216470  32.3870240 140.7863830  29.8942090  48.7713280 137.5729810
  29.4000370  49.1682150 136.8556940  29.2855380  48.1462490 137.9667090
  13.9988170  31.5515910 140.2807030  14.5471160  31.3703960 139.5173140
  14.0643480  30.7610020 140.8163340  14.7719930  48.1421560 138.2907230
  14.1780250  48.0106260 139.0297270  14.7643770  47.3059700 137.8249330
  24.2174950  31.4353790 136.4937260  23.3434790  31.7688900 136.2910190
  24.1085700  30.9626970 137.3189130  25.1246930  33.6424660 137.8778980
  24.7960290  32.8276420 137.4980710  26.0729230  33.5994470 137.7544670
  27.5781540  49.4136700 134.8516550  27.1184510  50.1652510 134.4774570
  26.9494000  48.6943170 134.7931350  14.4032160  45.5079940 137.2415270
  13.6766220  44.8885230 137.1741220  14.4641310  45.9020550 136.3713350
  18.0077260  47.7224940 134.0264680  18.5242280  47.1112300 133.5012940
  18.6574640  48.2253720 134.5175690  20.7472760  48.6133430 134.8533660
  21.0350570  48.3587730 133.9766670  21.2595980  48.0610790 135.4439230
  21.9649770  32.3523630 135.4330170  21.1821560  32.8269130 135.7126930
  21.6712700  31.4478460 135.3243350  26.5170840  33.0546730 133.4779260
  26.9578930  32.9991830 132.6300860  26.2478430  33.9704740 133.5489440
  28.3809410  32.6861970 131.4888080  28.3197810  31.7423190 131.3419100
  29.1601440  32.7942060 132.0341540  12.6862160  48.8254330 130.4512030
  12.5184200  48.1925010 131.1493920  11.8196670  49.0313730 130.1006220
  13.3090180  32.6571110 127.9543890  14.0669540  32.7699990 127.3807920
  12.8467350  33.4940310 127.9087320  19.8503990  34.7710380 130.9446200
  19.0378500  34.3967270 130.6042080  20.3545630  34.0155460 131.2467390
  24.3528970  31.4352830 132.1829270  24.9558340  32.0073040 132.6577790
  23.6121960  31.9992270 131.9603170  27.4963570  31.8374390 127.4569550
  27.6914200  32.7357840 127.7236980  26.7093440  31.6061470 127.9502500
  14.2924860  47.5187560 127.8962170  13.7672480  47.8995590 127.1924130
  14.2169440  48.1438330 128.6171880  15.6815330  33.1835160 126.4945860
  16.2108090  32.3964960 126.3653810  16.3143650  33.8626350 126.7281390
  17.8753170  32.9210300 129.5491250  17.2455910  32.2197610 129.7161380
  17.3358310  33.6814430 129.3324410  20.8145120  49.5349530 142.2201860
  21.7412430  49.2993800 142.2637820  20.7995550  50.3621530 141.7387890
  29.0490180  49.0775100 129.2176110  29.2242370  48.3912840 128.5737030
  28.3511750  49.6022150 128.8252780  18.0008730  32.1994280 141.9843740
  17.7193000  32.7027880 141.2204560  18.3828430  31.4016030 141.6185870
  16.8917830  49.4669940 126.7711420  17.6236650  49.1829220 126.2235310
  17.1511500  49.2283220 127.6610800  16.0532620  45.5834670 126.7757750
  15.4241500  46.0519770 127.3243580  16.1680450  44.7383890 127.2103940
  24.6024190  31.6147860 142.5624210  24.4889640  31.9342470 143.4575730
  25.4193930  32.0160370 142.2661490  27.3822680  48.7619390 142.0442900
  28.1748000  48.2668620 141.8368860  27.6755830  49.4409530 142.6518510
  23.5082340  39.6340330 112.9258950  23.4276390  38.7194940 112.6550660
  23.0946760  40.1307400 112.2198660  21.6400380  41.4119350 114.8068220
  20.8642480  40.9319790 115.0966790  22.2913310  40.7325000 114.6324380
  15.6566210  41.7239160 115.6843980  14.8251090  41.4687870 116.0840490
  16.2647190  41.7949930 116.4201900  25.6607810  45.8179540 113.5867350
  25.1989340  45.0466780 113.9154520  26.4733360  45.8445610 114.0919800
  15.6367470  45.7579250 115.8802000  15.9395510  44.8676990 115.7012220
  16.3811060  46.3149470 115.6524250  14.0658160  36.6841050 109.4686370
  13.1774860  37.0257020 109.3666250  14.3499350  36.4841370 108.5767200
  12.0291170  39.2846700 115.3526070  12.6007280  38.5168900 115.3529710
  12.0292710  39.5835460 114.4432680  21.8871120  48.1037550 113.2071340
  21.2682560  48.5595050 112.6365780  22.7422900  48.2589010 112.8061040
  21.0809370  44.0876540 114.8138380  21.0117650  43.1466480 114.6527510
  21.8429230  44.1777950 115.3860950  13.2716040  34.6931060 117.1395000
  13.0918880  33.7956810 117.4197760  12.8696120  35.2402930 117.8141950
  22.1114540  36.8946920 115.0407310  22.4879360  36.0218800 114.9280980
  22.0134050  37.2305620 114.1497750  16.2419550  35.2672550 110.5024750
  16.3486300  36.1676280 110.8093510  15.3311910  35.2190520 110.2119400
  25.8938660  34.3897360 111.9735650  26.7148280  33.8993930 112.0161130
  25.9272740  34.9795020 112.7267490  13.8902710  37.1891560 115.7477340
  14.5712820  37.4529930 116.3664740  13.5750760  36.3492430 116.0815350
  18.0827280  38.2358920 114.8349930  18.5905500  38.7339890 115.4754950
  18.6140520  37.4594120 114.6589290  30.1838210  36.4064110 118.5379280
  29.4790380  36.7945820 118.0194390  30.4496130  37.1014400 119.1400210
  16.3663380  32.8757480 119.1013350  16.3681820  33.3929870 118.2959250
  15.5367690  32.3987660 119.0783280  22.7534470  42.9876790 110.6003250
  22.1351740  43.4526240 110.0365970  23.2657720  43.6804270 111.0172760
  17.6166230  42.5152660 117.2786850  17.2835610  43.1421580 117.9207920
  17.7932910  43.0414540 116.4988520  26.1300140  36.3297740 114.7463190
  25.4255710  36.6182630 115.3266300  26.4912300  37.1397850 114.3862750
  16.0478710  34.5867440 117.1083800  16.3895520  35.4309490 116.8137670
  15.1094520  34.7351180 117.2249140  16.8285330  44.4833460 119.0936030
  17.4459330  45.1584540 118.8120480  15.9678450  44.8921440 119.0023530
  12.1217670  43.6733320 107.9742880  11.7445650  44.1620420 107.2427780
  12.3790740  44.3458600 108.6049410  27.7462920  45.9472870 117.0090670
  27.0626440  46.6171980 117.0007340  28.2857210  46.1453520 116.2435530
  29.1987060  35.7752530 115.1372400  28.2511970  35.8091510 115.2687830
  29.5237050  36.5891480 115.5221760  19.7306600  32.0749710 113.4328390
  20.0381580  31.5196600 112.7163890  18.8007300  32.2094170 113.2501380
  25.2821660  47.7917000 115.7235850  25.2948820  47.3879290 114.8558110
  24.7296880  48.5664290 115.6197280  26.5767080  44.5133220 110.8126020
  26.4663410  43.5707550 110.9375440  26.5735330  44.8748860 111.6988780
  24.6807100  42.6946840 117.0518460  25.0975890  42.4806950 116.2171920
  25.4046920  42.9519630 117.6227080  22.1187360  40.1398540 110.1688510
  21.1916640  40.0735920 110.3976980  22.2712180  41.0778670 110.0543750
  22.1056440  36.4115540 107.1655670  21.1660110  36.5729500 107.2508130
  22.4239700  37.1301220 106.6191660  28.6269200  41.0934060 117.1434700
  27.7987830  41.1627150 116.6684830  29.2219680  41.6788370 116.6750530
  26.1484650  41.7018840 110.6723760  25.5297070  41.3638390 110.0250060
  26.1309100  41.0578600 111.3802950  25.5911210  37.8803380 118.0889570
  25.1782390  38.7057090 118.3429560  24.8587160  37.2948420 117.8965930
  17.7244000  40.6663280 112.9508240  17.3201000  39.9540530 112.4554140
  17.8107120  40.3216520 113.8396280  18.1925700  44.3530840 115.1147450
  17.8953990  43.7476310 114.4355230  19.1425520  44.3908150 115.0036810
  16.4372620  37.4406490 116.7307280  16.9887210  37.5501830 115.9560530
  16.9516130  37.8144090 117.4462510  26.2811310  47.9262710 118.7770550
  25.8041870  48.7334900 118.5843160  25.5973100  47.2741040 118.9296760
  17.2844130  44.0912530 121.7655250  16.3872660  44.3152500 122.0128650
  17.3097000  44.2147470 120.8166650  24.3249350  40.9405650 107.6796510
  24.7642630  40.1028080 107.5334330  25.0377770  41.5735050 107.7660650
  16.1115350  40.9625850 120.3412620  15.9723120  41.8348650 120.7100020
  15.2296710  40.6198660 120.1960560  22.4344730  45.8801720 111.6477750
  22.8740640  46.6226050 111.2333140  22.3731620  46.1228290 112.5716710
  17.9095700  46.9047550 122.5497770  17.8811130  47.3090500 121.6826200
  17.7460670  45.9757910 122.3869370  27.9066490  32.1948460 105.9937550
  27.5939150  32.2875290 106.8936620  28.6678960  32.7729490 105.9434980
  14.4248630  39.5608260 110.4514890  14.3046230  40.2870350 109.8396160
  14.1149520  38.7911170 109.9742800  29.8610520  47.6874650 123.8461940
  30.3370240  48.1657540 124.5251020  30.4817680  47.6192140 123.1207440
  12.0634000  42.7323400 116.2583530  12.1414420  42.8672170 115.3139250
  12.6775680  42.0239290 116.4511650  13.3081630  44.4323590 112.6689710
  12.9009710  44.5738180 111.8143310  14.1994640  44.1483750 112.4660920
  29.2643770  44.8787500 121.0061950  29.3906830  44.6399380 120.0879130
  29.3065150  44.0472040 121.4784030  23.1260510  48.5815500 119.5756760
  23.6405180  48.4923510 120.3779190  22.2829590  48.9275200 119.8684670
  25.1014910  48.8670840 109.0040760  24.9416050  48.5773780 109.9022590
  24.9361620  48.0910970 108.4685990  17.5803290  48.6469370 110.7812380
  17.4045770  47.7304910 110.5680180  16.7259030  49.0056660 111.0210180
  24.8041040  46.3758400 107.5638760  24.1106200  46.3735690 106.9041040
  25.5463900  45.9517720 107.1332930  24.3690970  48.0021110 111.6387250
  24.8247920  47.2210490 111.9525870  24.7083490  48.7127930 112.1828430
  29.1167780  36.9319960 121.9711690  28.5012050  37.4399630 121.4427150
  28.7964200  36.0318290 121.9137630  12.1193520  43.7737570 118.7977990
  12.2824560  43.3042930 117.9797360  12.5845970  43.2661130 119.4626830
  16.8912290  32.9043330 113.8338560  16.4480440  33.6852870 113.5023080
  17.4497280  33.2273220 114.5409500  21.1782100  35.7711850 119.4373880
  20.7161470  35.9794870 120.2493820  20.7760210  34.9571200 119.1344550
  26.1786610  36.9920800 120.5670540  25.3280200  36.6926550 120.8879610
  26.0188400  37.2362810 119.6554360  23.2736320  38.4922550 122.6669330
  23.5989730  37.6586300 122.3271560  24.0616650  39.0151070 122.8147660
  20.0071110  32.5254030 108.7144390  19.3825290  32.5213900 109.4397700
  19.9201230  31.6584990 108.3180360  18.9288190  33.4490660 115.6928160
  19.2260520  34.3553490 115.6120180  19.4773750  32.9609440 115.0787730
  16.6826510  38.0276900 111.5619810  16.4567430  37.8114070 112.4666430
  15.9019040  38.4605360 111.2165780  23.9124270  38.0340270 110.1610460
  23.3133160  38.7576070 109.9774080  24.4603880  37.9717050 109.3786910
  19.1225720  38.9262480 122.2280080  19.0269320  37.9857210 122.0780480
  19.9657700  39.1477550 121.8328150  22.5189140  36.6703810 112.1913740
  22.9118710  36.9876010 111.3782430  22.8805990  35.7915690 112.3058260
  14.2536260  35.3376150 120.3813860  13.8599650  36.1851360 120.5886640
  13.5654660  34.7002520 120.5722500  20.8281310  35.4211120 123.4510600
  20.1379630  35.2283320 124.0856690  21.5713610  35.7045760 123.9834900
  11.5553310  33.2604610 114.4143940  11.2666360  33.8307470 115.1268920
  12.2999070  32.7809060 114.7775170  11.7423540  37.2024730 105.6246660
  11.6598210  38.1455490 105.7661650  11.3906600  37.0599640 104.7459010
  23.1044280  39.2609560 116.2864520  22.3725400  39.7696370 116.6354620
  22.7068620  38.4439540 115.9853300  19.5421670  35.9363760 114.6917010
  19.5457730  35.4953710 113.8421550  20.4372790  36.2581090 114.7988830
  15.3924050  35.8190250 113.6511220  15.0524100  36.2965480 114.4078270
  14.6301370  35.3655370 113.2912320  19.6041820  36.9375840 107.6823770
  19.7254640  36.8962320 108.6309590  19.2190330  37.7999990 107.5270500
  23.5670190  34.7143240 115.6987460  23.5842930  35.1651890 116.5429310
  23.3185770  33.8148880 115.9120900  18.6163320  39.2476980 107.0807070
  18.0480220  38.7995230 106.4542980  19.3252320  39.6069760 106.5472220
  26.9940940  32.1275420 121.5373840  27.3186710  31.3965080 122.0631820
  27.0297450  31.8089060 120.6354830  13.6932500  43.1489000 120.9573800
  13.3087290  42.5082670 121.5556760  14.0044690  43.8525120 121.5268530
  19.8429640  39.9965540 116.4382420  20.2099770  39.5224110 117.1843760
  19.6534700  40.8707110 116.7790760  12.7070130  34.7409230 112.5675890
  12.4217050  34.3764900 113.4054510  12.6448990  34.0089690 111.9539030
  17.6329010  39.0374180 118.7566630  17.3286080  39.9166160 118.9816990
  18.5875470  39.0973970 118.7924070  16.1610800  43.2435170 109.3533480
  15.3873060  42.7032790 109.1932200  16.8905430  42.7241780 109.0151240
  26.9198780  42.2400530 115.1459870  27.6397900  42.7355820 114.7555980
  26.7180600  41.5618420 114.5013740  22.3808720  33.6338490 109.2889260
  21.5673330  33.1351660 109.2134570  22.1870670  34.4736740 108.8725610
  22.3017580  42.3109590 121.0328870  22.2354890  41.3905260 120.7786460
  21.6722720  42.4085030 121.7473510  25.0957110  38.0058140 107.5851420
  25.9836730  38.3175370 107.4102760  25.0662200  37.1330390 107.1932000
  16.2048200  42.9115550 112.9912290  16.7226870  42.1083810 112.9369180
  15.7532220  42.8494690 113.8329120  21.0917700  44.1781830 108.2639590
  21.4333400  44.9224060 107.7682910  20.2630410  44.4912950 108.6264420
  13.6892740  39.8776920 119.9037990  13.3307680  40.5430770 120.4911330
  13.3947300  39.0460470 120.2750610  16.8905860  40.3361160 122.7877540
  16.5906000  40.4818340 121.8905360  17.6617100  39.7766450 122.6950930
  22.2334310  45.1330160 120.7832670  22.2478850  44.2011120 120.5651580
  21.5259410  45.2189920 121.4222440  27.3671380  39.3169980 107.0531280
  27.2835100  39.7484200 106.2027720  28.0865570  39.7768330 107.4858100
  28.4445520  41.7737500 120.1301250  27.7193710  42.3666280 119.9330640
  28.9720980  41.7661040 119.3314620  23.9745110  43.4997670 113.6285100
  24.3268930  42.9025800 112.9686470  23.0907440  43.1741900 113.7993350
  20.0608390  44.2595360 111.0355510  20.7479520  44.8064570 111.4163100
  19.2740810  44.8036090 111.0705120  12.2000790  39.8768180 106.5272590
  13.0695640  40.1592980 106.8108510  11.7091110  40.6904050 106.4121400
  19.3635600  41.2641390 110.6480870  19.8198380  42.0746640 110.8741060
  19.0123810  40.9464530 111.4799360  21.6668210  46.7747730 117.8773170
  22.3110430  46.9807110 118.5546590  22.0297650  46.0136130 117.4244020
  15.2647380  31.6079040 111.1203390  15.1362010  31.5996940 112.0688310
  14.4409400  31.9462130 110.7694400  22.9400290  44.7780080 116.5950620
  23.5822520  44.0773240 116.7082790  23.4649640  45.5578520 116.4147510
  24.7137910  45.5774980 119.7986680  25.0494150  46.1641670 120.4764600
  23.7938250  45.4467690 120.0284470  12.5672040  49.0895560 107.0934220
  12.9269680  49.6884900 106.4391490  12.4264380  49.6355450 107.8669250
  12.2641310  33.3670160 120.5810090  11.5499830  33.5667080 121.1862700
  12.6836350  32.5909730 120.9524890  26.3672260  42.9800640 107.9803920
  26.0793960  43.4413330 108.7681800  27.1624430  42.5198410 108.2488140
  12.5513900  47.3550420 121.5676620  12.6605020  46.4145160 121.4272010
  11.8994460  47.6205170 120.9190350  20.5426490  45.6266310 122.9674740
  20.2223360  44.9075550 123.5120430  19.8684850  46.3021380 123.0410800
  18.5840660  46.4726760 107.9107890  18.5750760  47.2056450 107.2952400
  17.6639020  46.2258340 108.0034850  14.1847300  41.6941650 108.6554650
  13.5775250  42.4340550 108.6649950  14.6596650  41.7841010 107.8292850
  23.7580090  35.8592470 118.3311540  24.1260910  35.0387680 118.6591110
  22.8978290  35.9194360 118.7467190  27.1242120  34.8149410 109.1399100
  26.4955280  34.9195080 108.4257330  26.6294040  35.0346190 109.9292980
  21.5700260  46.5355000 106.5733080  21.6712240  46.3318990 105.6435060
  20.6702000  46.2813280 106.7780860  19.0926150  37.0935360 110.5556980
  18.3842300  37.5621700 110.9970590  19.3770630  36.4357370 111.1902170
  20.7182080  38.5132060 118.5549510  21.2167330  38.9877880 119.2201360
  20.8605030  37.5895580 118.7619540  23.1241580  33.8186020 111.9952770
  23.0009360  33.8372150 111.0462280  24.0726140  33.8664960 112.1151170
  20.2118370  49.0541320 111.2680750  20.4659870  49.0162710 110.3460120
  19.2630850  48.9274650 111.2609000  17.2961170  35.4020440 107.9307690
  18.1451700  35.8390590 107.8647880  16.9292440  35.7140700 108.7579750
  27.9248940  34.7300020 119.3977900  27.4222540  35.4705420 119.7371710
  28.7405600  35.1184020 119.0814690  26.2170950  39.9733200 112.8439260
  25.2761090  39.9883430 113.0186950  26.5315020  39.1869160 113.2899560
  16.1952590  41.6552800 106.4043220  16.9615860  41.5434160 106.9668650
  16.2727280  40.9590770 105.7519990  14.8899350  39.0877870 107.0876110
  14.9702940  38.1405380 107.1993510  15.7819100  39.4184750 107.1936770
  28.2196530  47.1442050 114.5193520  28.3443950  47.9673220 114.9917330
  29.0862090  46.9332780 114.1717670  15.6914060  49.2373260 114.1910650
  16.4276540  48.6888720 114.4619220  16.0754980  50.1029270 114.0516640
  12.5759540  45.3046830 110.0652160  11.6499320  45.5467970 110.0557570
  13.0415970  46.1321090 109.9436910  14.6972340  48.4219330 123.3796230
  15.4985070  48.7431380 123.7931630  14.1824160  48.0614910 124.1016140
  18.8016370  48.4103570 106.0136220  19.5944980  48.6992400 105.5618010
  18.2820720  47.9795740 105.3348700  23.5336970  44.5299200 123.3271640
  22.9275130  44.5530800 122.5867390  23.2291080  43.7982240 123.8638890
  24.9637340  48.2579490 121.9381050  25.9159090  48.1737510 121.8881290
  24.8165560  48.9221200 122.6114840  12.4170150  40.9092790 122.3232280
  12.9209170  40.3300070 122.8948510  11.6777570  41.1933020 122.8608650
  19.3193770  43.6306980 105.8778570  19.2144410  43.0159330 106.6039950
  19.1517990  43.1072870 105.0941580  19.4708090  42.3163780 121.8567800
  18.7053760  42.8848780 121.7722470  19.6524050  42.0239990 120.9636030
  22.5596500  42.6927010 106.4820560  22.0106600  43.1396310 107.1263300
  23.1815760  42.1876260 107.0058230  26.6131440  44.0469110 122.4142820
  27.3540910  44.3844870 121.9110280  25.8504120  44.2161170 121.8612590
  14.4493230  39.0522380 123.2182350  14.4898570  38.7536250 124.1267580
  15.3038730  39.4529990 123.0589870  18.2271620  41.6517930 108.3785860
  18.6488040  41.4857800 109.2217250  18.3522460  40.8418160 107.8841000
  16.3899040  37.6314480 121.1856840  15.8595500  37.1405430 120.5580180
  17.0587110  38.0598680 120.6514770  20.7399260  40.6755540 105.6262960
  21.2604920  39.9604560 105.2604110  21.3867660  41.3141410 105.9263470
  25.2877100  42.0983940 120.9498030  25.7018120  42.2529020 121.7988450
  24.3528100  42.2239160 121.1123810  25.7599270  39.4380100 122.9537180
  26.3420040  38.6832420 122.8657660  25.9361040  39.9687540 122.1768660
  16.8771340  34.5976850 121.2654130  16.7828210  33.9797600 120.5405000
  16.2968730  35.3243140 121.0384040  19.6432780  33.1550090 118.2981520
  19.1950080  33.1774350 117.4527070  19.0097980  32.7569110 118.8951820
  20.0492330  42.0504420 118.9193960  20.4680440  42.8937150 118.7470200
  19.1300960  42.1876460 118.6900740  22.3856230  39.7820600 120.3031800
  22.5052440  39.1861740 121.0426640  23.2450230  39.8190290 119.8833100
  24.7244130  40.3357790 118.8794310  24.1979350  40.8600410 118.2759450
  25.0675470  40.9685180 119.5104040  17.1230520  37.7251160 105.3244020
  16.9219580  36.8618520 105.6857360  16.9522570  37.6384520 104.3865620
  17.8999750  48.3557430 120.0351690  17.3620840  49.0803490 119.7160390
  18.1533710  47.8787770 119.2449030  19.1525000  36.3241950 121.5607620
  19.7424690  36.0157800 122.2485440  18.3345240  35.8521700 121.7167520
  23.9718430  35.9407760 121.7940640  23.2833950  35.2789300 121.7290630
  24.6924450  35.4946030 122.2389100  24.6018830  32.5359390 107.8530900
  24.8821120  31.6927290 108.2090320  23.8284560  32.7682500 108.3669650
  15.9213320  34.8251780 105.3121900  16.2239220  34.8319210 104.4041050
  16.6607910  34.4749640 105.8089560  20.7561960  49.5908640 120.2938340
  20.6820660  50.4943780 120.6010710  19.8540800  49.2720540 120.2660410
  19.1398250  33.7686400 106.2978100  18.7920250  33.0910390 105.7180550
  19.3411020  33.3075910 107.1121490  21.3047290  48.7567150 107.9164700
  22.1998080  49.0952120 107.9383460  21.3364920  48.0346560 107.2888980
  14.9443450  44.1294200 106.1451700  15.3818320  44.6723870 106.8009280
  15.4291180  43.3041150 106.1548040  12.1589250  46.9183230 113.5971960
  12.4892260  46.0504290 113.3650600  12.5880250  47.1241750 114.4276920
  16.7551170  45.2492240 111.2573930  16.4546710  45.1257210 112.1577840
  16.6488660  44.3900830 110.8489660  12.6479460  47.7853820 116.3353590
  12.2110450  47.9654620 117.1677740  13.2157140  48.5428440 116.1935310
  28.2841640  47.2870820 120.6230900  27.6843630  47.3463380 119.8794820
  28.4135540  46.3475800 120.7527750  12.4803890  40.2974050 112.6942470
  11.8252730  40.0285690 112.0502170  13.3181840  40.1878530 112.2444450
  29.9859520  42.6286220 113.3076740  30.3568350  41.8453540 112.9012710
  30.6261450  43.3175320 113.1294040  26.9693280  44.0122800 118.7207060
  26.1553120  44.4419960 118.9832850  27.3767480  44.6241210 118.1076110
  25.4294330  35.0915340 106.9160960  25.8479210  34.9046320 106.0757620
  25.1230390  34.2394390 107.2263890  28.9284060  40.0039480 110.6136760
  28.5527660  39.2367410 110.1818050  28.1987180  40.3862180 111.1011690
  13.5179820  40.6826620 117.2345810  13.8852860  40.5954020 118.1141830
  12.9490640  39.9193170 117.1352670  28.3183680  39.1511000 120.2476280
  28.0869770  38.9223750 119.3474230  28.5788230  40.0710550 120.2021170
  13.0695820  37.5935710 121.1404230  12.1751870  37.5602470 121.4797940
  13.6093370  37.7922500 121.9055480  26.7571750  34.3767430 123.0255980
  27.6341930  34.3850830 123.4089980  26.7692590  33.6398270 122.4148330
  11.6941970  37.5072980 108.6367800  10.7906050  37.7703180 108.4619460
  12.1782590  37.7784150 107.8567760  28.2035020  38.2296970 113.9144000
  28.7272500  37.7359620 113.2834170  28.7894440  38.3647330 114.6591570
  28.3824740  38.3136840 117.4363550  27.4327450  38.2800380 117.5508540
  28.5637750  39.2236950 117.2013320  14.2369180  36.5638520 106.5462180
  14.9460880  36.1421740 106.0609460  13.5209120  36.6313750 105.9145530
  13.8843340  32.6177850 105.5864830  14.6071470  33.1586790 105.9046050
  14.1567860  32.3441270 104.7106370  27.6934990  37.4870320 109.8536410
  28.1894110  37.2541190 110.6385290  27.4951060  36.6482160 109.4374050
  13.5735530  31.8684040 115.4887450  14.2211720  31.3181420 115.0482610
  13.9937370  32.1227190 116.3103260  29.1222150  36.1231270 112.3874090
  29.0121430  35.9687310 113.3256360  29.8829740  35.5952210 112.1449500
  27.4687870  32.0625400 118.8457090  28.1060090  32.6759540 119.2116280
  27.6162760  32.0986060 117.9006320  30.0112420  33.9539190 105.6280230
  30.9361730  33.8220370 105.4198520  29.9888210  34.0332010 106.5816680
  30.0850910  34.7249850 108.2536940  29.2902410  34.6594970 108.7829850
  30.2894190  35.6600490 108.2422290  27.0269330  48.7641400 112.2475330
  27.6228400  48.4425970 111.5709750  27.2847480  48.2913220 113.0388600
  13.3267530  32.0239710 118.2312770  12.9782350  32.4803530 118.9970950
  12.9955230  31.1296840 118.3135200  14.9331900  45.1959310 122.3965960
  14.8901530  44.8252220 123.2780420  15.0642910  46.1336880 122.5367780
  18.6337930  46.7518900 117.9975680  18.3929290  47.0193460 117.1106200
  19.5740570  46.9224630 118.0526540  20.8392350  33.2151590 121.7532190
  20.7781240  33.8073420 122.5027600  21.7792730  33.1077550 121.6082450
  23.4766910  32.8721650 121.3924480  24.0907320  33.1900940 120.7305560
  24.0216470  32.3870240 122.0120340  29.8942090  48.7713280 118.7986320
  29.4000370  49.1682150 118.0813450  29.2855380  48.1462490 119.1923600
  13.9988170  31.5515910 121.5063540  14.5471160  31.3703960 120.7429650
  14.0643480  30.7610020 122.0419850  14.7719930  48.1421560 119.5163740
  14.1780250  48.0106260 120.2553780  14.7643770  47.3059700 119.0505840
  24.2174950  31.4353790 117.7193770  23.3434790  31.7688900 117.5166700
  24.1085700  30.9626970 118.5445640  25.1246930  33.6424660 119.1035490
  24.7960290  32.8276420 118.7237220  26.0729230  33.5994470 118.9801180
  27.5781540  49.4136700 116.0773060  27.1184510  50.1652510 115.7031080
  26.9494000  48.6943170 116.0187860  14.4032160  45.5079940 118.4671780
  13.6766220  44.8885230 118.3997730  14.4641310  45.9020550 117.5969860
  18.0077260  47.7224940 115.2521190  18.5242280  47.1112300 114.7269450
  18.6574640  48.2253720 115.7432200  20.7472760  48.6133430 116.0790170
  21.0350570  48.3587730 115.2023180  21.2595980  48.0610790 116.6695740
  21.9649770  32.3523630 116.6586680  21.1821560  32.8269130 116.9383440
  21.6712700  31.4478460 116.5499860  26.5170840  33.0546730 114.7035770
  26.9578930  32.9991830 113.8557370  26.2478430  33.9704740 114.7745950
  28.3809410  32.6861970 112.7144590  28.3197810  31.7423190 112.5675610
  29.1601440  32.7942060 113.2598050  12.6862160  48.8254330 111.6768540
  12.5184200  48.1925010 112.3750430  11.8196670  49.0313730 111.3262730
  13.3090180  32.6571110 109.1800400  14.0669540  32.7699990 108.6064430
  12.8467350  33.4940310 109.1343830  19.8503990  34.7710380 112.1702710
  19.0378500  34.3967270 111.8298590  20.3545630  34.0155460 112.4723900
  24.3528970  31.4352830 113.4085780  24.9558340  32.0073040 113.8834300
  23.6121960  31.9992270 113.1859680  27.4963570  31.8374390 108.6826060
  27.6914200  32.7357840 108.9493490  26.7093440  31.6061470 109.1759010
  14.2924860  47.5187560 109.1218680  13.7672480  47.8995590 108.4180640
  14.2169440  48.1438330 109.8428390  15.6815330  33.1835160 107.7202370
  16.2108090  32.3964960 107.5910320  16.3143650  33.8626350 107.9537900
  17.8753170  32.9210300 110.7747760  17.2455910  32.2197610 110.9417890
  17.3358310  33.6814430 110.5580920  20.8145120  49.5349530 123.4458370
  21.7412430  49.2993800 123.4894330  20.7995550  50.3621530 122.9644400
  29.0490180  49.0775100 110.4432620  29.2242370  48.3912840 109.7993540
  28.3511750  49.6022150 110.0509290  18.0008730  32.1994280 123.2100250
  17.7193000  32.7027880 122.4461070  18.3828430  31.4016030 122.8442380
  16.8917830  49.4669940 107.9967930  17.6236650  49.1829220 107.4491820
  17.1511500  49.2283220 108.8867310  16.0532620  45.5834670 108.0014260
  15.4241500  46.0519770 108.5500090  16.1680450  44.7383890 108.4360450
  24.6024190  31.6147860 123.7880720  24.4889640  31.9342470 124.6832240
  25.4193930  32.0160370 123.4918000  27.3822680  48.7619390 123.2699410
  28.1748000  48.2668620 123.0625370  27.6755830  49.4409530 123.8775020
  23.5082340  39.6340330  94.1515460  23.4276390  38.7194940  93.8807170
  23.0946760  40.1307400  93.4455170  21.6400380  41.4119350  96.0324730
  20.8642480  40.9319790  96.3223300  22.2913310  40.7325000  95.8580890
  15.6566210  41.7239160  96.9100490  14.8251090  41.4687870  97.3097000
  16.2647190  41.7949930  97.6458410  25.6607810  45.8179540  94.8123860
  25.1989340  45.0466780  95.1411030  26.4733360  45.8445610  95.3176310
  15.6367470  45.7579250  97.1058510  15.9395510  44.8676990  96.9268730
  16.3811060  46.3149470  96.8780760  14.0658160  36.6841050  90.6942880
  13.1774860  37.0257020  90.5922760  14.3499350  36.4841370  89.8023710
  12.0291170  39.2846700  96.5782580  12.6007280  38.5168900  96.5786220
  12.0292710  39.5835460  95.6689190  21.8871120  48.1037550  94.4327850
  21.2682560  48.5595050  93.8622290  22.7422900  48.2589010  94.0317550
  21.0809370  44.0876540  96.0394890  21.0117650  43.1466480  95.8784020
  21.8429230  44.1777950  96.6117460  13.2716040  34.6931060  98.3651510
  13.0918880  33.7956810  98.6454270  12.8696120  35.2402930  99.0398460
  22.1114540  36.8946920  96.2663820  22.4879360  36.0218800  96.1537490
  22.0134050  37.2305620  95.3754260  16.2419550  35.2672550  91.7281260
  16.3486300  36.1676280  92.0350020  15.3311910  35.2190520  91.4375910
  25.8938660  34.3897360  93.1992160  26.7148280  33.8993930  93.2417640
  25.9272740  34.9795020  93.9524000  13.8902710  37.1891560  96.9733850
  14.5712820  37.4529930  97.5921250  13.5750760  36.3492430  97.3071860
  18.0827280  38.2358920  96.0606440  18.5905500  38.7339890  96.7011460
  18.6140520  37.4594120  95.8845800  30.1838210  36.4064110  99.7635790
  29.4790380  36.7945820  99.2450900  30.4496130  37.1014400 100.3656720
  16.3663380  32.8757480 100.3269860  16.3681820  33.3929870  99.5215760
  15.5367690  32.3987660 100.3039790  22.7534470  42.9876790  91.8259760
  22.1351740  43.4526240  91.2622480  23.2657720  43.6804270  92.2429270
  17.6166230  42.5152660  98.5043360  17.2835610  43.1421580  99.1464430
  17.7932910  43.0414540  97.7245030  26.1300140  36.3297740  95.9719700
  25.4255710  36.6182630  96.5522810  26.4912300  37.1397850  95.6119260
  16.0478710  34.5867440  98.3340310  16.3895520  35.4309490  98.0394180
  15.1094520  34.7351180  98.4505650  16.8285330  44.4833460 100.3192540
  17.4459330  45.1584540 100.0376990  15.9678450  44.8921440 100.2280040
  12.1217670  43.6733320  89.1999390  11.7445650  44.1620420  88.4684290
  12.3790740  44.3458600  89.8305920  29.1987060  35.7752530  96.3628910
  28.2511970  35.8091510  96.4944340  29.5237050  36.5891480  96.7478270
  19.7306600  32.0749710  94.6584900  20.0381580  31.5196600  93.9420400
  18.8007300  32.2094170  94.4757890  25.2821660  47.7917000  96.9492360
  25.2948820  47.3879290  96.0814620  24.7296880  48.5664290  96.8453790
  26.5767080  44.5133220  92.0382530  26.4663410  43.5707550  92.1631950
  26.5735330  44.8748860  92.9245290  24.6807100  42.6946840  98.2774970
  25.0975890  42.4806950  97.4428430  25.4046920  42.9519630  98.8483590
  22.1187360  40.1398540  91.3945020  21.1916640  40.0735920  91.6233490
  22.2712180  41.0778670  91.2800260  22.1056440  36.4115540  88.3912180
  21.1660110  36.5729500  88.4764640  22.4239700  37.1301220  87.8448170
  28.6269200  41.0934060  98.3691210  27.7987830  41.1627150  97.8941340
  29.2219680  41.6788370  97.9007040  26.1484650  41.7018840  91.8980270
  25.5297070  41.3638390  91.2506570  26.1309100  41.0578600  92.6059460
  25.5911210  37.8803380  99.3146080  25.1782390  38.7057090  99.5686070
  24.8587160  37.2948420  99.1222440  17.7244000  40.6663280  94.1764750
  17.3201000  39.9540530  93.6810650  17.8107120  40.3216520  95.0652790
  18.1925700  44.3530840  96.3403960  17.8953990  43.7476310  95.6611740
  19.1425520  44.3908150  96.2293320  16.4372620  37.4406490  97.9563790
  16.9887210  37.5501830  97.1817040  16.9516130  37.8144090  98.6719020
  26.2811310  47.9262710 100.0027060  25.8041870  48.7334900  99.8099670
  25.5973100  47.2741040 100.1553270  17.2844130  44.0912530 102.9911760
  16.3872660  44.3152500 103.2385160  17.3097000  44.2147470 102.0423160
  24.3249350  40.9405650  88.9053020  24.7642630  40.1028080  88.7590840
  25.0377770  41.5735050  88.9917160  16.1115350  40.9625850 101.5669130
  15.9723120  41.8348650 101.9356530  15.2296710  40.6198660 101.4217070
  17.9095700  46.9047550 103.7754280  17.8811130  47.3090500 102.9082710
  17.7460670  45.9757910 103.6125880  27.9066490  32.1948460  87.2194060
  27.5939150  32.2875290  88.1193130  28.6678960  32.7729490  87.1691490
  14.4248630  39.5608260  91.6771400  14.3046230  40.2870350  91.0652670
  14.1149520  38.7911170  91.1999310  12.0634000  42.7323400  97.4840040
  12.1414420  42.8672170  96.5395760  12.6775680  42.0239290  97.6768160
  13.3081630  44.4323590  93.8946220  12.9009710  44.5738180  93.0399820
  14.1994640  44.1483750  93.6917430  23.1260510  48.5815500 100.8013270
  23.6405180  48.4923510 101.6035700  22.2829590  48.9275200 101.0941180
  17.5803290  48.6469370  92.0068890  17.4045770  47.7304910  91.7936690
  16.7259030  49.0056660  92.2466690  29.1167780  36.9319960 103.1968200
  28.5012050  37.4399630 102.6683660  28.7964200  36.0318290 103.1394140
  12.1193520  43.7737570 100.0234500  12.2824560  43.3042930  99.2053870
  12.5845970  43.2661130 100.6883340  16.8912290  32.9043330  95.0595070
  16.4480440  33.6852870  94.7279590  17.4497280  33.2273220  95.7666010
  21.1782100  35.7711850 100.6630390  20.7161470  35.9794870 101.4750330
  20.7760210  34.9571200 100.3601060  26.1786610  36.9920800 101.7927050
  25.3280200  36.6926550 102.1136120  26.0188400  37.2362810 100.8810870
  23.2736320  38.4922550 103.8925840  23.5989730  37.6586300 103.5528070
  24.0616650  39.0151070 104.0404170  20.0071110  32.5254030  89.9400900
  19.3825290  32.5213900  90.6654210  19.9201230  31.6584990  89.5436870
  18.9288190  33.4490660  96.9184670  19.2260520  34.3553490  96.8376690
  19.4773750  32.9609440  96.3044240  16.6826510  38.0276900  92.7876320
  16.4567430  37.8114070  93.6922940  15.9019040  38.4605360  92.4422290
  23.9124270  38.0340270  91.3866970  23.3133160  38.7576070  91.2030590
  24.4603880  37.9717050  90.6043420  19.1225720  38.9262480 103.4536590
  19.0269320  37.9857210 103.3036990  19.9657700  39.1477550 103.0584660
  22.5189140  36.6703810  93.4170250  22.9118710  36.9876010  92.6038940
  22.8805990  35.7915690  93.5314770  14.2536260  35.3376150 101.6070370
  13.8599650  36.1851360 101.8143150  13.5654660  34.7002520 101.7979010
  20.8281310  35.4211120 104.6767110  20.1379630  35.2283320 105.3113200
  21.5713610  35.7045760 105.2091410  11.5553310  33.2604610  95.6400450
  11.2666360  33.8307470  96.3525430  12.2999070  32.7809060  96.0031680
  11.7423540  37.2024730  86.8503170  11.6598210  38.1455490  86.9918160
  11.3906600  37.0599640  85.9715520  23.1044280  39.2609560  97.5121030
  22.3725400  39.7696370  97.8611130  22.7068620  38.4439540  97.2109810
  19.5421670  35.9363760  95.9173520  19.5457730  35.4953710  95.0678060
  20.4372790  36.2581090  96.0245340  15.3924050  35.8190250  94.8767730
  15.0524100  36.2965480  95.6334780  14.6301370  35.3655370  94.5168830
  19.6041820  36.9375840  88.9080280  19.7254640  36.8962320  89.8566100
  19.2190330  37.7999990  88.7527010  23.5670190  34.7143240  96.9243970
  23.5842930  35.1651890  97.7685820  23.3185770  33.8148880  97.1377410
  18.6163320  39.2476980  88.3063580  18.0480220  38.7995230  87.6799490
  19.3252320  39.6069760  87.7728730  26.9940940  32.1275420 102.7630350
  27.3186710  31.3965080 103.2888330  27.0297450  31.8089060 101.8611340
  13.6932500  43.1489000 102.1830310  13.3087290  42.5082670 102.7813270
  14.0044690  43.8525120 102.7525040  19.8429640  39.9965540  97.6638930
  20.2099770  39.5224110  98.4100270  19.6534700  40.8707110  98.0047270
  12.7070130  34.7409230  93.7932400  12.4217050  34.3764900  94.6311020
  12.6448990  34.0089690  93.1795540  17.6329010  39.0374180  99.9823140
  17.3286080  39.9166160 100.2073500  18.5875470  39.0973970 100.0180580
  16.1610800  43.2435170  90.5789990  15.3873060  42.7032790  90.4188710
  16.8905430  42.7241780  90.2407750  22.3808720  33.6338490  90.5145770
  21.5673330  33.1351660  90.4391080  22.1870670  34.4736740  90.0982120
  22.3017580  42.3109590 102.2585380  22.2354890  41.3905260 102.0042970
  21.6722720  42.4085030 102.9730020  25.0957110  38.0058140  88.8107930
  25.9836730  38.3175370  88.6359270  25.0662200  37.1330390  88.4188510
  16.2048200  42.9115550  94.2168800  16.7226870  42.1083810  94.1625690
  15.7532220  42.8494690  95.0585630  13.6892740  39.8776920 101.1294500
  13.3307680  40.5430770 101.7167840  13.3947300  39.0460470 101.5007120
  16.8905860  40.3361160 104.0134050  16.5906000  40.4818340 103.1161870
  17.6617100  39.7766450 103.9207440  22.2334310  45.1330160 102.0089180
  22.2478850  44.2011120 101.7908090  21.5259410  45.2189920 102.6478950
  27.3671380  39.3169980  88.2787790  27.2835100  39.7484200  87.4284230
  28.0865570  39.7768330  88.7114610  23.9745110  43.4997670  94.8541610
  24.3268930  42.9025800  94.1942980  23.0907440  43.1741900  95.0249860
  20.0608390  44.2595360  92.2612020  20.7479520  44.8064570  92.6419610
  19.2740810  44.8036090  92.2961630  12.2000790  39.8768180  87.7529100
  13.0695640  40.1592980  88.0365020  11.7091110  40.6904050  87.6377910
  19.3635600  41.2641390  91.8737380  19.8198380  42.0746640  92.0997570
  19.0123810  40.9464530  92.7055870  21.6668210  46.7747730  99.1029680
  22.3110430  46.9807110  99.7803100  22.0297650  46.0136130  98.6500530
  15.2647380  31.6079040  92.3459900  15.1362010  31.5996940  93.2944820
  14.4409400  31.9462130  91.9950910  22.9400290  44.7780080  97.8207130
  23.5822520  44.0773240  97.9339300  23.4649640  45.5578520  97.6404020
  24.7137910  45.5774980 101.0243190  25.0494150  46.1641670 101.7021110
  23.7938250  45.4467690 101.2540980  12.5672040  49.0895560  88.3190730
  12.9269680  49.6884900  87.6648000  12.4264380  49.6355450  89.0925760
  12.2641310  33.3670160 101.8066600  11.5499830  33.5667080 102.4119210
  12.6836350  32.5909730 102.1781400  26.3672260  42.9800640  89.2060430
  26.0793960  43.4413330  89.9938310  27.1624430  42.5198410  89.4744650
  12.5513900  47.3550420 102.7933130  12.6605020  46.4145160 102.6528520
  11.8994460  47.6205170 102.1446860  20.5426490  45.6266310 104.1931250
  20.2223360  44.9075550 104.7376940  19.8684850  46.3021380 104.2667310
  14.1847300  41.6941650  89.8811160  13.5775250  42.4340550  89.8906460
  14.6596650  41.7841010  89.0549360  23.7580090  35.8592470  99.5568050
  24.1260910  35.0387680  99.8847620  22.8978290  35.9194360  99.9723700
  27.1242120  34.8149410  90.3655610  26.4955280  34.9195080  89.6513840
  26.6294040  35.0346190  91.1549490  19.0926150  37.0935360  91.7813490
  18.3842300  37.5621700  92.2227100  19.3770630  36.4357370  92.4158680
  20.7182080  38.5132060  99.7806020  21.2167330  38.9877880 100.4457870
  20.8605030  37.5895580  99.9876050  23.1241580  33.8186020  93.2209280
  23.0009360  33.8372150  92.2718790  24.0726140  33.8664960  93.3407680
  17.2961170  35.4020440  89.1564200  18.1451700  35.8390590  89.0904390
  16.9292440  35.7140700  89.9836260  27.9248940  34.7300020 100.6234410
  27.4222540  35.4705420 100.9628220  28.7405600  35.1184020 100.3071200
  26.2170950  39.9733200  94.0695770  25.2761090  39.9883430  94.2443460
  26.5315020  39.1869160  94.5156070  16.1952590  41.6552800  87.6299730
  16.9615860  41.5434160  88.1925160  16.2727280  40.9590770  86.9776500
  14.8899350  39.0877870  88.3132620  14.9702940  38.1405380  88.4250020
  15.7819100  39.4184750  88.4193280  15.6914060  49.2373260  95.4167160
  16.4276540  48.6888720  95.6875730  16.0754980  50.1029270  95.2773150
  12.5759540  45.3046830  91.2908670  11.6499320  45.5467970  91.2814080
  13.0415970  46.1321090  91.1693420  14.6972340  48.4219330 104.6052740
  15.4985070  48.7431380 105.0188140  14.1824160  48.0614910 105.3272650
  23.5336970  44.5299200 104.5528150  22.9275130  44.5530800 103.8123900
  23.2291080  43.7982240 105.0895400  24.9637340  48.2579490 103.1637560
  25.9159090  48.1737510 103.1137800  24.8165560  48.9221200 103.8371350
  12.4170150  40.9092790 103.5488790  12.9209170  40.3300070 104.1205020
  11.6777570  41.1933020 104.0865160  19.3193770  43.6306980  87.1035080
  19.2144410  43.0159330  87.8296460  19.1517990  43.1072870  86.3198090
  19.4708090  42.3163780 103.0824310  18.7053760  42.8848780 102.9978980
  19.6524050  42.0239990 102.1892540  22.5596500  42.6927010  87.7077070
  22.0106600  43.1396310  88.3519810  23.1815760  42.1876260  88.2314740
  14.4493230  39.0522380 104.4438860  14.4898570  38.7536250 105.3524090
  15.3038730  39.4529990 104.2846380  18.2271620  41.6517930  89.6042370
  18.6488040  41.4857800  90.4473760  18.3522460  40.8418160  89.1097510
  16.3899040  37.6314480 102.4113350  15.8595500  37.1405430 101.7836690
  17.0587110  38.0598680 101.8771280  20.7399260  40.6755540  86.8519470
  21.2604920  39.9604560  86.4860620  21.3867660  41.3141410  87.1519980
  25.2877100  42.0983940 102.1754540  25.7018120  42.2529020 103.0244960
  24.3528100  42.2239160 102.3380320  25.7599270  39.4380100 104.1793690
  26.3420040  38.6832420 104.0914170  25.9361040  39.9687540 103.4025170
  16.8771340  34.5976850 102.4910640  16.7828210  33.9797600 101.7661510
  16.2968730  35.3243140 102.2640550  19.6432780  33.1550090  99.5238030
  19.1950080  33.1774350  98.6783580  19.0097980  32.7569110 100.1208330
  20.0492330  42.0504420 100.1450470  20.4680440  42.8937150  99.9726710
  19.1300960  42.1876460  99.9157250  22.3856230  39.7820600 101.5288310
  22.5052440  39.1861740 102.2683150  23.2450230  39.8190290 101.1089610
  24.7244130  40.3357790 100.1050820  24.1979350  40.8600410  99.5015960
  25.0675470  40.9685180 100.7360550  17.1230520  37.7251160  86.5500530
  16.9219580  36.8618520  86.9113870  16.9522570  37.6384520  85.6122130
  17.8999750  48.3557430 101.2608200  17.3620840  49.0803490 100.9416900
  18.1533710  47.8787770 100.4705540  19.1525000  36.3241950 102.7864130
  19.7424690  36.0157800 103.4741950  18.3345240  35.8521700 102.9424030
  23.9718430  35.9407760 103.0197150  23.2833950  35.2789300 102.9547140
  24.6924450  35.4946030 103.4645610  24.6018830  32.5359390  89.0787410
  24.8821120  31.6927290  89.4346830  23.8284560  32.7682500  89.5926160
  15.9213320  34.8251780  86.5378410  16.2239220  34.8319210  85.6297560
  16.6607910  34.4749640  87.0346070  20.7561960  49.5908640 101.5194850
  20.6820660  50.4943780 101.8267220  19.8540800  49.2720540 101.4916920
  19.1398250  33.7686400  87.5234610  18.7920250  33.0910390  86.9437060
  19.3411020  33.3075910  88.3378000  14.9443450  44.1294200  87.3708210
  15.3818320  44.6723870  88.0265790  15.4291180  43.3041150  87.3804550
  12.1589250  46.9183230  94.8228470  12.4892260  46.0504290  94.5907110
  12.5880250  47.1241750  95.6533430  16.7551170  45.2492240  92.4830440
  16.4546710  45.1257210  93.3834350  16.6488660  44.3900830  92.0746170
  12.6479460  47.7853820  97.5610100  12.2110450  47.9654620  98.3934250
  13.2157140  48.5428440  97.4191820  12.4803890  40.2974050  93.9198980
  11.8252730  40.0285690  93.2758680  13.3181840  40.1878530  93.4700960
  26.9693280  44.0122800  99.9463570  26.1553120  44.4419960 100.2089360
  27.3767480  44.6241210  99.3332620  25.4294330  35.0915340  88.1417470
  25.8479210  34.9046320  87.3014130  25.1230390  34.2394390  88.4520400
  28.9284060  40.0039480  91.8393270  28.5527660  39.2367410  91.4074560
  28.1987180  40.3862180  92.3268200  13.5179820  40.6826620  98.4602320
  13.8852860  40.5954020  99.3398340  12.9490640  39.9193170  98.3609180
  28.3183680  39.1511000 101.4732790  28.0869770  38.9223750 100.5730740
  28.5788230  40.0710550 101.4277680  13.0695820  37.5935710 102.3660740
  12.1751870  37.5602470 102.7054450  13.6093370  37.7922500 103.1311990
  26.7571750  34.3767430 104.2512490  27.6341930  34.3850830 104.6346490
  26.7692590  33.6398270 103.6404840  11.6941970  37.5072980  89.8624310
  10.7906050  37.7703180  89.6875970  12.1782590  37.7784150  89.0824270
  28.2035020  38.2296970  95.1400510  28.7272500  37.7359620  94.5090680
  28.7894440  38.3647330  95.8848080  28.3824740  38.3136840  98.6620060
  27.4327450  38.2800380  98.7765050  28.5637750  39.2236950  98.4269830
  14.2369180  36.5638520  87.7718690  14.9460880  36.1421740  87.2865970
  13.5209120  36.6313750  87.1402040  13.8843340  32.6177850  86.8121340
  14.6071470  33.1586790  87.1302560  14.1567860  32.3441270  85.9362880
  27.6934990  37.4870320  91.0792920  28.1894110  37.2541190  91.8641800
  27.4951060  36.6482160  90.6630560  13.5735530  31.8684040  96.7143960
  14.2211720  31.3181420  96.2739120  13.9937370  32.1227190  97.5359770
  29.1222150  36.1231270  93.6130600  29.0121430  35.9687310  94.5512870
  29.8829740  35.5952210  93.3706010  27.4687870  32.0625400 100.0713600
  28.1060090  32.6759540 100.4372790  27.6162760  32.0986060  99.1262830
  30.0112420  33.9539190  86.8536740  30.9361730  33.8220370  86.6455030
  29.9888210  34.0332010  87.8073190  30.0850910  34.7249850  89.4793450
  29.2902410  34.6594970  90.0086360  30.2894190  35.6600490  89.4678800
  13.3267530  32.0239710  99.4569280  12.9782350  32.4803530 100.2227460
  12.9955230  31.1296840  99.5391710  14.9331900  45.1959310 103.6222470
  14.8901530  44.8252220 104.5036930  15.0642910  46.1336880 103.7624290
  18.6337930  46.7518900  99.2232190  18.3929290  47.0193460  98.3362710
  19.5740570  46.9224630  99.2783050  20.8392350  33.2151590 102.9788700
  20.7781240  33.8073420 103.7284110  21.7792730  33.1077550 102.8338960
  23.4766910  32.8721650 102.6180990  24.0907320  33.1900940 101.9562070
  24.0216470  32.3870240 103.2376850  29.8942090  48.7713280 100.0242830
  29.4000370  49.1682150  99.3069960  29.2855380  48.1462490 100.4180110
  13.9988170  31.5515910 102.7320050  14.5471160  31.3703960 101.9686160
  14.0643480  30.7610020 103.2676360  14.7719930  48.1421560 100.7420250
  14.1780250  48.0106260 101.4810290  14.7643770  47.3059700 100.2762350
  24.2174950  31.4353790  98.9450280  23.3434790  31.7688900  98.7423210
  24.1085700  30.9626970  99.7702150  25.1246930  33.6424660 100.3292000
  24.7960290  32.8276420  99.9493730  26.0729230  33.5994470 100.2057690
  27.5781540  49.4136700  97.3029570  27.1184510  50.1652510  96.9287590
  26.9494000  48.6943170  97.2444370  14.4032160  45.5079940  99.6928290
  13.6766220  44.8885230  99.6254240  14.4641310  45.9020550  98.8226370
  18.0077260  47.7224940  96.4777700  18.5242280  47.1112300  95.9525960
  18.6574640  48.2253720  96.9688710  20.7472760  48.6133430  97.3046680
  21.0350570  48.3587730  96.4279690  21.2595980  48.0610790  97.8952250
  21.9649770  32.3523630  97.8843190  21.1821560  32.8269130  98.1639950
  21.6712700  31.4478460  97.7756370  26.5170840  33.0546730  95.9292280
  26.9578930  32.9991830  95.0813880  26.2478430  33.9704740  96.0002460
  28.3809410  32.6861970  93.9401100  28.3197810  31.7423190  93.7932120
  29.1601440  32.7942060  94.4854560  12.6862160  48.8254330  92.9025050
  12.5184200  48.1925010  93.6006940  11.8196670  49.0313730  92.5519240
  13.3090180  32.6571110  90.4056910  14.0669540  32.7699990  89.8320940
  12.8467350  33.4940310  90.3600340  19.8503990  34.7710380  93.3959220
  19.0378500  34.3967270  93.0555100  20.3545630  34.0155460  93.6980410
  24.3528970  31.4352830  94.6342290  24.9558340  32.0073040  95.1090810
  23.6121960  31.9992270  94.4116190  27.4963570  31.8374390  89.9082570
  27.6914200  32.7357840  90.1750000  26.7093440  31.6061470  90.4015520
  14.2924860  47.5187560  90.3475190  13.7672480  47.8995590  89.6437150
  14.2169440  48.1438330  91.0684900  15.6815330  33.1835160  88.9458880
  16.2108090  32.3964960  88.8166830  16.3143650  33.8626350  89.1794410
  17.8753170  32.9210300  92.0004270  17.2455910  32.2197610  92.1674400
  17.3358310  33.6814430  91.7837430  20.8145120  49.5349530 104.6714880
  21.7412430  49.2993800 104.7150840  20.7995550  50.3621530 104.1900910
  29.0490180  49.0775100  91.6689130  29.2242370  48.3912840  91.0250050
  28.3511750  49.6022150  91.2765800  18.0008730  32.1994280 104.4356760
  17.7193000  32.7027880 103.6717580  18.3828430  31.4016030 104.0698890
  16.8917830  49.4669940  89.2224440  17.6236650  49.1829220  88.6748330
  17.1511500  49.2283220  90.1123820  16.0532620  45.5834670  89.2270770
  15.4241500  46.0519770  89.7756600  16.1680450  44.7383890  89.6616960
  24.6024190  31.6147860 105.0137230  24.4889640  31.9342470 105.9088750
  25.4193930  32.0160370 104.7174510  23.5082340  39.6340330  75.3771970
  23.4276390  38.7194940  75.1063680  23.0946760  40.1307400  74.6711680
  21.6400380  41.4119350  77.2581240  20.8642480  40.9319790  77.5479810
  22.2913310  40.7325000  77.0837400  15.6566210  41.7239160  78.1357000
  14.8251090  41.4687870  78.5353510  16.2647190  41.7949930  78.8714920
  25.6607810  45.8179540  76.0380370  25.1989340  45.0466780  76.3667540
  26.4733360  45.8445610  76.5432820  15.6367470  45.7579250  78.3315020
  15.9395510  44.8676990  78.1525240  16.3811060  46.3149470  78.1037270
  14.0658160  36.6841050  71.9199390  13.1774860  37.0257020  71.8179270
  14.3499350  36.4841370  71.0280220  12.0291170  39.2846700  77.8039090
  12.6007280  38.5168900  77.8042730  12.0292710  39.5835460  76.8945700
  21.8871120  48.1037550  75.6584360  21.2682560  48.5595050  75.0878800
  22.7422900  48.2589010  75.2574060  21.0809370  44.0876540  77.2651400
  21.0117650  43.1466480  77.1040530  21.8429230  44.1777950  77.8373970
  13.2716040  34.6931060  79.5908020  13.0918880  33.7956810  79.8710780
  12.8696120  35.2402930  80.2654970  22.1114540  36.8946920  77.4920330
  22.4879360  36.0218800  77.3794000  22.0134050  37.2305620  76.6010770
  16.2419550  35.2672550  72.9537770  16.3486300  36.1676280  73.2606530
  15.3311910  35.2190520  72.6632420  25.8938660  34.3897360  74.4248670
  26.7148280  33.8993930  74.4674150  25.9272740  34.9795020  75.1780510
  13.8902710  37.1891560  78.1990360  14.5712820  37.4529930  78.8177760
  13.5750760  36.3492430  78.5328370  18.0827280  38.2358920  77.2862950
  18.5905500  38.7339890  77.9267970  18.6140520  37.4594120  77.1102310
  30.1838210  36.4064110  80.9892300  29.4790380  36.7945820  80.4707410
  30.4496130  37.1014400  81.5913230  16.3663380  32.8757480  81.5526370
  16.3681820  33.3929870  80.7472270  15.5367690  32.3987660  81.5296300
  22.7534470  42.9876790  73.0516270  22.1351740  43.4526240  72.4878990
  23.2657720  43.6804270  73.4685780  17.6166230  42.5152660  79.7299870
  17.2835610  43.1421580  80.3720940  17.7932910  43.0414540  78.9501540
  26.1300140  36.3297740  77.1976210  25.4255710  36.6182630  77.7779320
  26.4912300  37.1397850  76.8375770  16.0478710  34.5867440  79.5596820
  16.3895520  35.4309490  79.2650690  15.1094520  34.7351180  79.6762160
  16.8285330  44.4833460  81.5449050  17.4459330  45.1584540  81.2633500
  15.9678450  44.8921440  81.4536550  12.1217670  43.6733320  70.4255900
  11.7445650  44.1620420  69.6940800  12.3790740  44.3458600  71.0562430
  29.1987060  35.7752530  77.5885420  28.2511970  35.8091510  77.7200850
  29.5237050  36.5891480  77.9734780  19.7306600  32.0749710  75.8841410
  20.0381580  31.5196600  75.1676910  18.8007300  32.2094170  75.7014400
  25.2821660  47.7917000  78.1748870  25.2948820  47.3879290  77.3071130
  24.7296880  48.5664290  78.0710300  26.5767080  44.5133220  73.2639040
  26.4663410  43.5707550  73.3888460  26.5735330  44.8748860  74.1501800
  24.6807100  42.6946840  79.5031480  25.0975890  42.4806950  78.6684940
  25.4046920  42.9519630  80.0740100  22.1187360  40.1398540  72.6201530
  21.1916640  40.0735920  72.8490000  22.2712180  41.0778670  72.5056770
  22.1056440  36.4115540  69.6168690  21.1660110  36.5729500  69.7021150
  22.4239700  37.1301220  69.0704680  26.1484650  41.7018840  73.1236780
  25.5297070  41.3638390  72.4763080  26.1309100  41.0578600  73.8315970
  25.5911210  37.8803380  80.5402590  25.1782390  38.7057090  80.7942580
  24.8587160  37.2948420  80.3478950  17.7244000  40.6663280  75.4021260
  17.3201000  39.9540530  74.9067160  17.8107120  40.3216520  76.2909300
  18.1925700  44.3530840  77.5660470  17.8953990  43.7476310  76.8868250
  19.1425520  44.3908150  77.4549830  16.4372620  37.4406490  79.1820300
  16.9887210  37.5501830  78.4073550  16.9516130  37.8144090  79.8975530
  26.2811310  47.9262710  81.2283570  25.8041870  48.7334900  81.0356180
  25.5973100  47.2741040  81.3809780  17.2844130  44.0912530  84.2168270
  16.3872660  44.3152500  84.4641670  17.3097000  44.2147470  83.2679670
  24.3249350  40.9405650  70.1309530  24.7642630  40.1028080  69.9847350
  25.0377770  41.5735050  70.2173670  16.1115350  40.9625850  82.7925640
  15.9723120  41.8348650  83.1613040  15.2296710  40.6198660  82.6473580
  22.4344730  45.8801720  74.0990770  22.8740640  46.6226050  73.6846160
  22.3731620  46.1228290  75.0229730  17.9095700  46.9047550  85.0010790
  17.8811130  47.3090500  84.1339220  17.7460670  45.9757910  84.8382390
  27.9066490  32.1948460  68.4450570  27.5939150  32.2875290  69.3449640
  28.6678960  32.7729490  68.3948000  14.4248630  39.5608260  72.9027910
  14.3046230  40.2870350  72.2909180  14.1149520  38.7911170  72.4255820
  29.8610520  47.6874650  86.2974960  30.3370240  48.1657540  86.9764040
  30.4817680  47.6192140  85.5720460  12.0634000  42.7323400  78.7096550
  12.1414420  42.8672170  77.7652270  12.6775680  42.0239290  78.9024670
  13.3081630  44.4323590  75.1202730  12.9009710  44.5738180  74.2656330
  14.1994640  44.1483750  74.9173940  23.1260510  48.5815500  82.0269780
  23.6405180  48.4923510  82.8292210  22.2829590  48.9275200  82.3197690
  25.1014910  48.8670840  71.4553780  24.9416050  48.5773780  72.3535610
  24.9361620  48.0910970  70.9199010  17.5803290  48.6469370  73.2325400
  17.4045770  47.7304910  73.0193200  16.7259030  49.0056660  73.4723200
  24.8041040  46.3758400  70.0151780  24.1106200  46.3735690  69.3554060
  25.5463900  45.9517720  69.5845950  24.3690970  48.0021110  74.0900270
  24.8247920  47.2210490  74.4038890  24.7083490  48.7127930  74.6341450
  29.1167780  36.9319960  84.4224710  28.5012050  37.4399630  83.8940170
  28.7964200  36.0318290  84.3650650  12.1193520  43.7737570  81.2491010
  12.2824560  43.3042930  80.4310380  12.5845970  43.2661130  81.9139850
  16.8912290  32.9043330  76.2851580  16.4480440  33.6852870  75.9536100
  17.4497280  33.2273220  76.9922520  21.1782100  35.7711850  81.8886900
  20.7161470  35.9794870  82.7006840  20.7760210  34.9571200  81.5857570
  26.1786610  36.9920800  83.0183560  25.3280200  36.6926550  83.3392630
  26.0188400  37.2362810  82.1067380  23.2736320  38.4922550  85.1182350
  23.5989730  37.6586300  84.7784580  24.0616650  39.0151070  85.2660680
  20.0071110  32.5254030  71.1657410  19.3825290  32.5213900  71.8910720
  19.9201230  31.6584990  70.7693380  18.9288190  33.4490660  78.1441180
  19.2260520  34.3553490  78.0633200  19.4773750  32.9609440  77.5300750
  16.6826510  38.0276900  74.0132830  16.4567430  37.8114070  74.9179450
  15.9019040  38.4605360  73.6678800  23.9124270  38.0340270  72.6123480
  23.3133160  38.7576070  72.4287100  24.4603880  37.9717050  71.8299930
  19.1225720  38.9262480  84.6793100  19.0269320  37.9857210  84.5293500
  19.9657700  39.1477550  84.2841170  22.5189140  36.6703810  74.6426760
  22.9118710  36.9876010  73.8295450  22.8805990  35.7915690  74.7571280
  14.2536260  35.3376150  82.8326880  13.8599650  36.1851360  83.0399660
  13.5654660  34.7002520  83.0235520  20.8281310  35.4211120  85.9023620
  20.1379630  35.2283320  86.5369710  21.5713610  35.7045760  86.4347920
  11.5553310  33.2604610  76.8656960  11.2666360  33.8307470  77.5781940
  12.2999070  32.7809060  77.2288190  11.7423540  37.2024730  68.0759680
  11.6598210  38.1455490  68.2174670  11.3906600  37.0599640  67.1972030
  23.1044280  39.2609560  78.7377540  22.3725400  39.7696370  79.0867640
  22.7068620  38.4439540  78.4366320  19.5421670  35.9363760  77.1430030
  19.5457730  35.4953710  76.2934570  20.4372790  36.2581090  77.2501850
  15.3924050  35.8190250  76.1024240  15.0524100  36.2965480  76.8591290
  14.6301370  35.3655370  75.7425340  19.6041820  36.9375840  70.1336790
  19.7254640  36.8962320  71.0822610  19.2190330  37.7999990  69.9783520
  23.5670190  34.7143240  78.1500480  23.5842930  35.1651890  78.9942330
  23.3185770  33.8148880  78.3633920  18.6163320  39.2476980  69.5320090
  18.0480220  38.7995230  68.9056000  19.3252320  39.6069760  68.9985240
  26.9940940  32.1275420  83.9886860  27.3186710  31.3965080  84.5144840
  27.0297450  31.8089060  83.0867850  13.6932500  43.1489000  83.4086820
  13.3087290  42.5082670  84.0069780  14.0044690  43.8525120  83.9781550
  19.8429640  39.9965540  78.8895440  20.2099770  39.5224110  79.6356780
  19.6534700  40.8707110  79.2303780  12.7070130  34.7409230  75.0188910
  12.4217050  34.3764900  75.8567530  12.6448990  34.0089690  74.4052050
  17.6329010  39.0374180  81.2079650  17.3286080  39.9166160  81.4330010
  18.5875470  39.0973970  81.2437090  16.1610800  43.2435170  71.8046500
  15.3873060  42.7032790  71.6445220  16.8905430  42.7241780  71.4664260
  22.3808720  33.6338490  71.7402280  21.5673330  33.1351660  71.6647590
  22.1870670  34.4736740  71.3238630  22.3017580  42.3109590  83.4841890
  22.2354890  41.3905260  83.2299480  21.6722720  42.4085030  84.1986530
  25.0957110  38.0058140  70.0364440  25.9836730  38.3175370  69.8615780
  25.0662200  37.1330390  69.6445020  16.2048200  42.9115550  75.4425310
  16.7226870  42.1083810  75.3882200  15.7532220  42.8494690  76.2842140
  21.0917700  44.1781830  70.7152610  21.4333400  44.9224060  70.2195930
  20.2630410  44.4912950  71.0777440  13.6892740  39.8776920  82.3551010
  13.3307680  40.5430770  82.9424350  13.3947300  39.0460470  82.7263630
  16.8905860  40.3361160  85.2390560  16.5906000  40.4818340  84.3418380
  17.6617100  39.7766450  85.1463950  22.2334310  45.1330160  83.2345690
  22.2478850  44.2011120  83.0164600  21.5259410  45.2189920  83.8735460
  27.3671380  39.3169980  69.5044300  27.2835100  39.7484200  68.6540740
  28.0865570  39.7768330  69.9371120  28.3958630  46.1712240  72.2326430
  27.7534790  45.5167860  72.5070150  28.0089290  46.5767330  71.4567100
  23.9745110  43.4997670  76.0798120  24.3268930  42.9025800  75.4199490
  23.0907440  43.1741900  76.2506370  20.0608390  44.2595360  73.4868530
  20.7479520  44.8064570  73.8676120  19.2740810  44.8036090  73.5218140
  12.2000790  39.8768180  68.9785610  13.0695640  40.1592980  69.2621530
  11.7091110  40.6904050  68.8634420  19.3635600  41.2641390  73.0993890
  19.8198380  42.0746640  73.3254080  19.0123810  40.9464530  73.9312380
  21.6668210  46.7747730  80.3286190  22.3110430  46.9807110  81.0059610
  22.0297650  46.0136130  79.8757040  15.2647380  31.6079040  73.5716410
  15.1362010  31.5996940  74.5201330  14.4409400  31.9462130  73.2207420
  22.9400290  44.7780080  79.0463640  23.5822520  44.0773240  79.1595810
  23.4649640  45.5578520  78.8660530  24.7137910  45.5774980  82.2499700
  25.0494150  46.1641670  82.9277620  23.7938250  45.4467690  82.4797490
  12.5672040  49.0895560  69.5447240  12.9269680  49.6884900  68.8904510
  12.4264380  49.6355450  70.3182270  12.2641310  33.3670160  83.0323110
  11.5499830  33.5667080  83.6375720  12.6836350  32.5909730  83.4037910
  26.3672260  42.9800640  70.4316940  26.0793960  43.4413330  71.2194820
  27.1624430  42.5198410  70.7001160  12.5513900  47.3550420  84.0189640
  12.6605020  46.4145160  83.8785030  11.8994460  47.6205170  83.3703370
  20.5426490  45.6266310  85.4187760  20.2223360  44.9075550  85.9633450
  19.8684850  46.3021380  85.4923820  18.5840660  46.4726760  70.3620910
  18.5750760  47.2056450  69.7465420  17.6639020  46.2258340  70.4547870
  14.1847300  41.6941650  71.1067670  13.5775250  42.4340550  71.1162970
  14.6596650  41.7841010  70.2805870  23.7580090  35.8592470  80.7824560
  24.1260910  35.0387680  81.1104130  22.8978290  35.9194360  81.1980210
  27.1242120  34.8149410  71.5912120  26.4955280  34.9195080  70.8770350
  26.6294040  35.0346190  72.3806000  21.5700260  46.5355000  69.0246100
  21.6712240  46.3318990  68.0948080  20.6702000  46.2813280  69.2293880
  19.0926150  37.0935360  73.0070000  18.3842300  37.5621700  73.4483610
  19.3770630  36.4357370  73.6415190  20.7182080  38.5132060  81.0062530
  21.2167330  38.9877880  81.6714380  20.8605030  37.5895580  81.2132560
  23.1241580  33.8186020  74.4465790  23.0009360  33.8372150  73.4975300
  24.0726140  33.8664960  74.5664190  20.2118370  49.0541320  73.7193770
  20.4659870  49.0162710  72.7973140  19.2630850  48.9274650  73.7122020
  17.2961170  35.4020440  70.3820710  18.1451700  35.8390590  70.3160900
  16.9292440  35.7140700  71.2092770  27.9248940  34.7300020  81.8490920
  27.4222540  35.4705420  82.1884730  28.7405600  35.1184020  81.5327710
  26.2170950  39.9733200  75.2952280  25.2761090  39.9883430  75.4699970
  26.5315020  39.1869160  75.7412580  16.1952590  41.6552800  68.8556240
  16.9615860  41.5434160  69.4181670  16.2727280  40.9590770  68.2033010
  14.8899350  39.0877870  69.5389130  14.9702940  38.1405380  69.6506530
  15.7819100  39.4184750  69.6449790  28.2196530  47.1442050  76.9706540
  28.3443950  47.9673220  77.4430350  29.0862090  46.9332780  76.6230690
  15.6914060  49.2373260  76.6423670  16.4276540  48.6888720  76.9132240
  16.0754980  50.1029270  76.5029660  12.5759540  45.3046830  72.5165180
  11.6499320  45.5467970  72.5070590  13.0415970  46.1321090  72.3949930
  14.6972340  48.4219330  85.8309250  15.4985070  48.7431380  86.2444650
  14.1824160  48.0614910  86.5529160  18.8016370  48.4103570  68.4649240
  19.5944980  48.6992400  68.0131030  18.2820720  47.9795740  67.7861720
  24.9637340  48.2579490  84.3894070  25.9159090  48.1737510  84.3394310
  24.8165560  48.9221200  85.0627860  12.4170150  40.9092790  84.7745300
  12.9209170  40.3300070  85.3461530  11.6777570  41.1933020  85.3121670
  19.3193770  43.6306980  68.3291590  19.2144410  43.0159330  69.0552970
  19.1517990  43.1072870  67.5454600  19.4708090  42.3163780  84.3080820
  18.7053760  42.8848780  84.2235490  19.6524050  42.0239990  83.4149050
  22.5596500  42.6927010  68.9333580  22.0106600  43.1396310  69.5776320
  23.1815760  42.1876260  69.4571250  14.4493230  39.0522380  85.6695370
  14.4898570  38.7536250  86.5780600  15.3038730  39.4529990  85.5102890
  18.2271620  41.6517930  70.8298880  18.6488040  41.4857800  71.6730270
  18.3522460  40.8418160  70.3354020  16.3899040  37.6314480  83.6369860
  15.8595500  37.1405430  83.0093200  17.0587110  38.0598680  83.1027790
  20.7399260  40.6755540  68.0775980  21.2604920  39.9604560  67.7117130
  21.3867660  41.3141410  68.3776490  25.2877100  42.0983940  83.4011050
  25.7018120  42.2529020  84.2501470  24.3528100  42.2239160  83.5636830
  25.7599270  39.4380100  85.4050200  26.3420040  38.6832420  85.3170680
  25.9361040  39.9687540  84.6281680  16.8771340  34.5976850  83.7167150
  16.7828210  33.9797600  82.9918020  16.2968730  35.3243140  83.4897060
  19.6432780  33.1550090  80.7494540  19.1950080  33.1774350  79.9040090
  19.0097980  32.7569110  81.3464840  20.0492330  42.0504420  81.3706980
  20.4680440  42.8937150  81.1983220  19.1300960  42.1876460  81.1413760
  22.3856230  39.7820600  82.7544820  22.5052440  39.1861740  83.4939660
  23.2450230  39.8190290  82.3346120  24.7244130  40.3357790  81.3307330
  24.1979350  40.8600410  80.7272470  25.0675470  40.9685180  81.9617060
  17.1230520  37.7251160  67.7757040  16.9219580  36.8618520  68.1370380
  16.9522570  37.6384520  66.8378640  17.8999750  48.3557430  82.4864710
  17.3620840  49.0803490  82.1673410  18.1533710  47.8787770  81.6962050
  19.1525000  36.3241950  84.0120640  19.7424690  36.0157800  84.6998460
  18.3345240  35.8521700  84.1680540  23.9718430  35.9407760  84.2453660
  23.2833950  35.2789300  84.1803650  24.6924450  35.4946030  84.6902120
  24.6018830  32.5359390  70.3043920  24.8821120  31.6927290  70.6603340
  23.8284560  32.7682500  70.8182670  15.9213320  34.8251780  67.7634920
  16.2239220  34.8319210  66.8554070  16.6607910  34.4749640  68.2602580
  20.7561960  49.5908640  82.7451360  20.6820660  50.4943780  83.0523730
  19.8540800  49.2720540  82.7173430  19.1398250  33.7686400  68.7491120
  18.7920250  33.0910390  68.1693570  19.3411020  33.3075910  69.5634510
  21.3047290  48.7567150  70.3677720  22.1998080  49.0952120  70.3896480
  21.3364920  48.0346560  69.7402000  14.9443450  44.1294200  68.5964720
  15.3818320  44.6723870  69.2522300  15.4291180  43.3041150  68.6061060
  12.1589250  46.9183230  76.0484980  12.4892260  46.0504290  75.8163620
  12.5880250  47.1241750  76.8789940  16.7551170  45.2492240  73.7086950
  16.4546710  45.1257210  74.6090860  16.6488660  44.3900830  73.3002680
  12.6479460  47.7853820  78.7866610  12.2110450  47.9654620  79.6190760
  13.2157140  48.5428440  78.6448330  28.9799550  41.7736120  70.9147830
  29.7418460  42.3432770  71.0207520  28.9953920  41.2063320  71.6856140
  12.4803890  40.2974050  75.1455490  11.8252730  40.0285690  74.5015190
  13.3181840  40.1878530  74.6957470  29.9859520  42.6286220  75.7589760
  30.3568350  41.8453540  75.3525730  30.6261450  43.3175320  75.5807060
  29.0318720  42.0670490  68.0720350  29.3067560  42.9749370  67.9439570
  28.8429460  42.0033020  69.0082340  25.4294330  35.0915340  69.3673980
  25.8479210  34.9046320  68.5270640  25.1230390  34.2394390  69.6776910
  28.9284060  40.0039480  73.0649780  28.5527660  39.2367410  72.6331070
  28.1987180  40.3862180  73.5524710  13.5179820  40.6826620  79.6858830
  13.8852860  40.5954020  80.5654850  12.9490640  39.9193170  79.5865690
  13.0695820  37.5935710  83.5917250  12.1751870  37.5602470  83.9310960
  13.6093370  37.7922500  84.3568500  26.7571750  34.3767430  85.4769000
  27.6341930  34.3850830  85.8603000  26.7692590  33.6398270  84.8661350
  11.6941970  37.5072980  71.0880820  10.7906050  37.7703180  70.9132480
  12.1782590  37.7784150  70.3080780  28.2035020  38.2296970  76.3657020
  28.7272500  37.7359620  75.7347190  28.7894440  38.3647330  77.1104590
  28.3824740  38.3136840  79.8876570  27.4327450  38.2800380  80.0021560
  28.5637750  39.2236950  79.6526340  14.2369180  36.5638520  68.9975200
  14.9460880  36.1421740  68.5122480  13.5209120  36.6313750  68.3658550
  13.8843340  32.6177850  68.0377850  14.6071470  33.1586790  68.3559070
  14.1567860  32.3441270  67.1619390  27.6934990  37.4870320  72.3049430
  28.1894110  37.2541190  73.0898310  27.4951060  36.6482160  71.8887070
  13.5735530  31.8684040  77.9400470  14.2211720  31.3181420  77.4995630
  13.9937370  32.1227190  78.7616280  29.1222150  36.1231270  74.8387110
  29.0121430  35.9687310  75.7769380  29.8829740  35.5952210  74.5962520
  27.4687870  32.0625400  81.2970110  28.1060090  32.6759540  81.6629300
  27.6162760  32.0986060  80.3519340  30.0112420  33.9539190  68.0793250
  30.9361730  33.8220370  67.8711540  29.9888210  34.0332010  69.0329700
  30.0850910  34.7249850  70.7049960  29.2902410  34.6594970  71.2342870
  30.2894190  35.6600490  70.6935310  27.0269330  48.7641400  74.6988350
  27.6228400  48.4425970  74.0222770  27.2847480  48.2913220  75.4901620
  13.3267530  32.0239710  80.6825790  12.9782350  32.4803530  81.4483970
  12.9955230  31.1296840  80.7648220  14.9331900  45.1959310  84.8478980
  14.8901530  44.8252220  85.7293440  15.0642910  46.1336880  84.9880800
  18.6337930  46.7518900  80.4488700  18.3929290  47.0193460  79.5619220
  19.5740570  46.9224630  80.5039560  20.8392350  33.2151590  84.2045210
  20.7781240  33.8073420  84.9540620  21.7792730  33.1077550  84.0595470
  23.4766910  32.8721650  83.8437500  24.0907320  33.1900940  83.1818580
  24.0216470  32.3870240  84.4633360  13.9988170  31.5515910  83.9576560
  14.5471160  31.3703960  83.1942670  14.0643480  30.7610020  84.4932870
  14.7719930  48.1421560  81.9676760  14.1780250  48.0106260  82.7066800
  14.7643770  47.3059700  81.5018860  24.2174950  31.4353790  80.1706790
  23.3434790  31.7688900  79.9679720  24.1085700  30.9626970  80.9958660
  25.1246930  33.6424660  81.5548510  24.7960290  32.8276420  81.1750240
  26.0729230  33.5994470  81.4314200  27.5781540  49.4136700  78.5286080
  27.1184510  50.1652510  78.1544100  26.9494000  48.6943170  78.4700880
  14.4032160  45.5079940  80.9184800  13.6766220  44.8885230  80.8510750
  14.4641310  45.9020550  80.0482880  18.0077260  47.7224940  77.7034210
  18.5242280  47.1112300  77.1782470  18.6574640  48.2253720  78.1945220
  20.7472760  48.6133430  78.5303190  21.0350570  48.3587730  77.6536200
  21.2595980  48.0610790  79.1208760  21.9649770  32.3523630  79.1099700
  21.1821560  32.8269130  79.3896460  21.6712700  31.4478460  79.0012880
  26.5170840  33.0546730  77.1548790  26.9578930  32.9991830  76.3070390
  26.2478430  33.9704740  77.2258970  28.3809410  32.6861970  75.1657610
  28.3197810  31.7423190  75.0188630  29.1601440  32.7942060  75.7111070
  12.6862160  48.8254330  74.1281560  12.5184200  48.1925010  74.8263450
  11.8196670  49.0313730  73.7775750  13.3090180  32.6571110  71.6313420
  14.0669540  32.7699990  71.0577450  12.8467350  33.4940310  71.5856850
  19.8503990  34.7710380  74.6215730  19.0378500  34.3967270  74.2811610
  20.3545630  34.0155460  74.9236920  24.3528970  31.4352830  75.8598800
  24.9558340  32.0073040  76.3347320  23.6121960  31.9992270  75.6372700
  27.4963570  31.8374390  71.1339080  27.6914200  32.7357840  71.4006510
  26.7093440  31.6061470  71.6272030  14.2924860  47.5187560  71.5731700
  13.7672480  47.8995590  70.8693660  14.2169440  48.1438330  72.2941410
  15.6815330  33.1835160  70.1715390  16.2108090  32.3964960  70.0423340
  16.3143650  33.8626350  70.4050920  17.8753170  32.9210300  73.2260780
  17.2455910  32.2197610  73.3930910  17.3358310  33.6814430  73.0093940
  29.0490180  49.0775100  72.8945640  29.2242370  48.3912840  72.2506560
  28.3511750  49.6022150  72.5022310  18.0008730  32.1994280  85.6613270
  17.7193000  32.7027880  84.8974090  18.3828430  31.4016030  85.2955400
  16.8917830  49.4669940  70.4480950  17.6236650  49.1829220  69.9004840
  17.1511500  49.2283220  71.3380330  16.0532620  45.5834670  70.4527280
  15.4241500  46.0519770  71.0013110  16.1680450  44.7383890  70.8873470
  24.6024190  31.6147860  86.2393740  24.4889640  31.9342470  87.1345260
  25.4193930  32.0160370  85.9431020  23.5082340  39.6340330  56.6028480
  23.4276390  38.7194940  56.3320190  23.0946760  40.1307400  55.8968190
  21.6400380  41.4119350  58.4837750  20.8642480  40.9319790  58.7736320
  22.2913310  40.7325000  58.3093910  15.6566210  41.7239160  59.3613510
  14.8251090  41.4687870  59.7610020  16.2647190  41.7949930  60.0971430
  15.6367470  45.7579250  59.5571530  15.9395510  44.8676990  59.3781750
  16.3811060  46.3149470  59.3293780  14.0658160  36.6841050  53.1455900
  13.1774860  37.0257020  53.0435780  14.3499350  36.4841370  52.2536730
  12.0291170  39.2846700  59.0295600  12.6007280  38.5168900  59.0299240
  12.0292710  39.5835460  58.1202210  21.8871120  48.1037550  56.8840870
  21.2682560  48.5595050  56.3135310  22.7422900  48.2589010  56.4830570
  21.0809370  44.0876540  58.4907910  21.0117650  43.1466480  58.3297040
  21.8429230  44.1777950  59.0630480  13.2716040  34.6931060  60.8164530
  13.0918880  33.7956810  61.0967290  12.8696120  35.2402930  61.4911480
  22.1114540  36.8946920  58.7176840  22.4879360  36.0218800  58.6050510
  22.0134050  37.2305620  57.8267280  16.2419550  35.2672550  54.1794280
  16.3486300  36.1676280  54.4863040  15.3311910  35.2190520  53.8888930
  25.8938660  34.3897360  55.6505180  26.7148280  33.8993930  55.6930660
  25.9272740  34.9795020  56.4037020  13.8902710  37.1891560  59.4246870
  14.5712820  37.4529930  60.0434270  13.5750760  36.3492430  59.7584880
  18.0827280  38.2358920  58.5119460  18.5905500  38.7339890  59.1524480
  18.6140520  37.4594120  58.3358820  30.1838210  36.4064110  62.2148810
  29.4790380  36.7945820  61.6963920  30.4496130  37.1014400  62.8169740
  16.3663380  32.8757480  62.7782880  16.3681820  33.3929870  61.9728780
  15.5367690  32.3987660  62.7552810  22.7534470  42.9876790  54.2772780
  22.1351740  43.4526240  53.7135500  23.2657720  43.6804270  54.6942290
  17.6166230  42.5152660  60.9556380  17.2835610  43.1421580  61.5977450
  17.7932910  43.0414540  60.1758050  26.1300140  36.3297740  58.4232720
  25.4255710  36.6182630  59.0035830  26.4912300  37.1397850  58.0632280
  16.0478710  34.5867440  60.7853330  16.3895520  35.4309490  60.4907200
  15.1094520  34.7351180  60.9018670  16.8285330  44.4833460  62.7705560
  17.4459330  45.1584540  62.4890010  15.9678450  44.8921440  62.6793060
  12.1217670  43.6733320  51.6512410  11.7445650  44.1620420  50.9197310
  12.3790740  44.3458600  52.2818940  29.1987060  35.7752530  58.8141930
  28.2511970  35.8091510  58.9457360  29.5237050  36.5891480  59.1991290
  19.7306600  32.0749710  57.1097920  20.0381580  31.5196600  56.3933420
  18.8007300  32.2094170  56.9270910  26.5767080  44.5133220  54.4895550
  26.4663410  43.5707550  54.6144970  26.5735330  44.8748860  55.3758310
  22.1187360  40.1398540  53.8458040  21.1916640  40.0735920  54.0746510
  22.2712180  41.0778670  53.7313280  22.1056440  36.4115540  50.8425200
  21.1660110  36.5729500  50.9277660  22.4239700  37.1301220  50.2961190
  26.1484650  41.7018840  54.3493290  25.5297070  41.3638390  53.7019590
  26.1309100  41.0578600  55.0572480  25.5911210  37.8803380  61.7659100
  25.1782390  38.7057090  62.0199090  24.8587160  37.2948420  61.5735460
  17.7244000  40.6663280  56.6277770  17.3201000  39.9540530  56.1323670
  17.8107120  40.3216520  57.5165810  18.1925700  44.3530840  58.7916980
  17.8953990  43.7476310  58.1124760  19.1425520  44.3908150  58.6806340
  16.4372620  37.4406490  60.4076810  16.9887210  37.5501830  59.6330060
  16.9516130  37.8144090  61.1232040  17.2844130  44.0912530  65.4424780
  16.3872660  44.3152500  65.6898180  17.3097000  44.2147470  64.4936180
  24.3249350  40.9405650  51.3566040  24.7642630  40.1028080  51.2103860
  25.0377770  41.5735050  51.4430180  16.1115350  40.9625850  64.0182150
  15.9723120  41.8348650  64.3869550  15.2296710  40.6198660  63.8730090
  22.4344730  45.8801720  55.3247280  22.8740640  46.6226050  54.9102670
  22.3731620  46.1228290  56.2486240  17.9095700  46.9047550  66.2267300
  17.8811130  47.3090500  65.3595730  17.7460670  45.9757910  66.0638900
  27.9066490  32.1948460  49.6707080  27.5939150  32.2875290  50.5706150
  28.6678960  32.7729490  49.6204510  14.4248630  39.5608260  54.1284420
  14.3046230  40.2870350  53.5165690  14.1149520  38.7911170  53.6512330
  12.0634000  42.7323400  59.9353060  12.1414420  42.8672170  58.9908780
  12.6775680  42.0239290  60.1281180  13.3081630  44.4323590  56.3459240
  12.9009710  44.5738180  55.4912840  14.1994640  44.1483750  56.1430450
  17.5803290  48.6469370  54.4581910  17.4045770  47.7304910  54.2449710
  16.7259030  49.0056660  54.6979710  24.8041040  46.3758400  51.2408290
  24.1106200  46.3735690  50.5810570  25.5463900  45.9517720  50.8102460
  24.3690970  48.0021110  55.3156780  24.8247920  47.2210490  55.6295400
  24.7083490  48.7127930  55.8597960  29.1167780  36.9319960  65.6481220
  28.5012050  37.4399630  65.1196680  28.7964200  36.0318290  65.5907160
  12.1193520  43.7737570  62.4747520  12.2824560  43.3042930  61.6566890
  12.5845970  43.2661130  63.1396360  16.8912290  32.9043330  57.5108090
  16.4480440  33.6852870  57.1792610  17.4497280  33.2273220  58.2179030
  21.1782100  35.7711850  63.1143410  20.7161470  35.9794870  63.9263350
  20.7760210  34.9571200  62.8114080  26.1786610  36.9920800  64.2440070
  25.3280200  36.6926550  64.5649140  26.0188400  37.2362810  63.3323890
  23.2736320  38.4922550  66.3438860  23.5989730  37.6586300  66.0041090
  24.0616650  39.0151070  66.4917190  20.0071110  32.5254030  52.3913920
  19.3825290  32.5213900  53.1167230  19.9201230  31.6584990  51.9949890
  18.9288190  33.4490660  59.3697690  19.2260520  34.3553490  59.2889710
  19.4773750  32.9609440  58.7557260  16.6826510  38.0276900  55.2389340
  16.4567430  37.8114070  56.1435960  15.9019040  38.4605360  54.8935310
  23.9124270  38.0340270  53.8379990  23.3133160  38.7576070  53.6543610
  24.4603880  37.9717050  53.0556440  19.1225720  38.9262480  65.9049610
  19.0269320  37.9857210  65.7550010  19.9657700  39.1477550  65.5097680
  22.5189140  36.6703810  55.8683270  22.9118710  36.9876010  55.0551960
  22.8805990  35.7915690  55.9827790  14.2536260  35.3376150  64.0583390
  13.8599650  36.1851360  64.2656170  13.5654660  34.7002520  64.2492030
  20.8281310  35.4211120  67.1280130  20.1379630  35.2283320  67.7626220
  21.5713610  35.7045760  67.6604430  11.5553310  33.2604610  58.0913470
  11.2666360  33.8307470  58.8038450  12.2999070  32.7809060  58.4544700
  11.7423540  37.2024730  49.3016190  11.6598210  38.1455490  49.4431180
  11.3906600  37.0599640  48.4228540  23.1044280  39.2609560  59.9634050
  22.3725400  39.7696370  60.3124150  22.7068620  38.4439540  59.6622830
  19.5421670  35.9363760  58.3686540  19.5457730  35.4953710  57.5191080
  20.4372790  36.2581090  58.4758360  15.3924050  35.8190250  57.3280750
  15.0524100  36.2965480  58.0847800  14.6301370  35.3655370  56.9681850
  19.6041820  36.9375840  51.3593300  19.7254640  36.8962320  52.3079120
  19.2190330  37.7999990  51.2040030  23.5670190  34.7143240  59.3756990
  23.5842930  35.1651890  60.2198840  23.3185770  33.8148880  59.5890430
  18.6163320  39.2476980  50.7576600  18.0480220  38.7995230  50.1312510
  19.3252320  39.6069760  50.2241750  26.9940940  32.1275420  65.2143370
  27.3186710  31.3965080  65.7401350  27.0297450  31.8089060  64.3124360
  13.6932500  43.1489000  64.6343330  13.3087290  42.5082670  65.2326290
  14.0044690  43.8525120  65.2038060  19.8429640  39.9965540  60.1151950
  20.2099770  39.5224110  60.8613290  19.6534700  40.8707110  60.4560290
  12.7070130  34.7409230  56.2445420  12.4217050  34.3764900  57.0824040
  12.6448990  34.0089690  55.6308560  17.6329010  39.0374180  62.4336160
  17.3286080  39.9166160  62.6586520  18.5875470  39.0973970  62.4693600
  16.1610800  43.2435170  53.0303010  15.3873060  42.7032790  52.8701730
  16.8905430  42.7241780  52.6920770  22.3808720  33.6338490  52.9658790
  21.5673330  33.1351660  52.8904100  22.1870670  34.4736740  52.5495140
  25.0957110  38.0058140  51.2620950  25.9836730  38.3175370  51.0872290
  25.0662200  37.1330390  50.8701530  16.2048200  42.9115550  56.6681820
  16.7226870  42.1083810  56.6138710  15.7532220  42.8494690  57.5098650
  21.0917700  44.1781830  51.9409120  21.4333400  44.9224060  51.4452440
  20.2630410  44.4912950  52.3033950  13.6892740  39.8776920  63.5807520
  13.3307680  40.5430770  64.1680860  13.3947300  39.0460470  63.9520140
  16.8905860  40.3361160  66.4647070  16.5906000  40.4818340  65.5674890
  17.6617100  39.7766450  66.3720460  27.3671380  39.3169980  50.7300810
  27.2835100  39.7484200  49.8797250  28.0865570  39.7768330  51.1627630
  28.4445520  41.7737500  63.8070780  27.7193710  42.3666280  63.6100170
  28.9720980  41.7661040  63.0084150  20.0608390  44.2595360  54.7125040
  20.7479520  44.8064570  55.0932630  19.2740810  44.8036090  54.7474650
  12.2000790  39.8768180  50.2042120  13.0695640  40.1592980  50.4878040
  11.7091110  40.6904050  50.0890930  19.3635600  41.2641390  54.3250400
  19.8198380  42.0746640  54.5510590  19.0123810  40.9464530  55.1568890
  15.2647380  31.6079040  54.7972920  15.1362010  31.5996940  55.7457840
  14.4409400  31.9462130  54.4463930  26.7856010  45.0628700  49.9959290
  26.5593590  44.3459140  50.5883930  26.3952210  44.8141140  49.1581040
  12.5672040  49.0895560  50.7703750  12.9269680  49.6884900  50.1161020
  12.4264380  49.6355450  51.5438780  12.2641310  33.3670160  64.2579620
  11.5499830  33.5667080  64.8632230  12.6836350  32.5909730  64.6294420
  26.3672260  42.9800640  51.6573450  26.0793960  43.4413330  52.4451330
  27.1624430  42.5198410  51.9257670  12.5513900  47.3550420  65.2446150
  12.6605020  46.4145160  65.1041540  11.8994460  47.6205170  64.5959880
  20.5426490  45.6266310  66.6444270  20.2223360  44.9075550  67.1889960
  19.8684850  46.3021380  66.7180330  18.5840660  46.4726760  51.5877420
  18.5750760  47.2056450  50.9721930  17.6639020  46.2258340  51.6804380
  14.1847300  41.6941650  52.3324180  13.5775250  42.4340550  52.3419480
  14.6596650  41.7841010  51.5062380  23.7580090  35.8592470  62.0081070
  24.1260910  35.0387680  62.3360640  22.8978290  35.9194360  62.4236720
  27.1242120  34.8149410  52.8168630  26.4955280  34.9195080  52.1026860
  26.6294040  35.0346190  53.6062510  21.5700260  46.5355000  50.2502610
  21.6712240  46.3318990  49.3204590  20.6702000  46.2813280  50.4550390
  19.0926150  37.0935360  54.2326510  18.3842300  37.5621700  54.6740120
  19.3770630  36.4357370  54.8671700  20.7182080  38.5132060  62.2319040
  21.2167330  38.9877880  62.8970890  20.8605030  37.5895580  62.4389070
  23.1241580  33.8186020  55.6722300  23.0009360  33.8372150  54.7231810
  24.0726140  33.8664960  55.7920700  20.2118370  49.0541320  54.9450280
  20.4659870  49.0162710  54.0229650  19.2630850  48.9274650  54.9378530
  17.2961170  35.4020440  51.6077220  18.1451700  35.8390590  51.5417410
  16.9292440  35.7140700  52.4349280  27.9248940  34.7300020  63.0747430
  27.4222540  35.4705420  63.4141240  28.7405600  35.1184020  62.7584220
  26.2170950  39.9733200  56.5208790  25.2761090  39.9883430  56.6956480
  26.5315020  39.1869160  56.9669090  16.1952590  41.6552800  50.0812750
  16.9615860  41.5434160  50.6438180  16.2727280  40.9590770  49.4289520
  14.8899350  39.0877870  50.7645640  14.9702940  38.1405380  50.8763040
  15.7819100  39.4184750  50.8706300  15.6914060  49.2373260  57.8680180
  16.4276540  48.6888720  58.1388750  16.0754980  50.1029270  57.7286170
  12.5759540  45.3046830  53.7421690  11.6499320  45.5467970  53.7327100
  13.0415970  46.1321090  53.6206440  14.6972340  48.4219330  67.0565760
  15.4985070  48.7431380  67.4701160  14.1824160  48.0614910  67.7785670
  18.8016370  48.4103570  49.6905750  19.5944980  48.6992400  49.2387540
  18.2820720  47.9795740  49.0118230  12.4170150  40.9092790  66.0001810
  12.9209170  40.3300070  66.5718040  11.6777570  41.1933020  66.5378180
  19.3193770  43.6306980  49.5548100  19.2144410  43.0159330  50.2809480
  19.1517990  43.1072870  48.7711110  19.4708090  42.3163780  65.5337330
  18.7053760  42.8848780  65.4492000  19.6524050  42.0239990  64.6405560
  22.5596500  42.6927010  50.1590090  22.0106600  43.1396310  50.8032830
  23.1815760  42.1876260  50.6827760  14.4493230  39.0522380  66.8951880
  14.4898570  38.7536250  67.8037110  15.3038730  39.4529990  66.7359400
  18.2271620  41.6517930  52.0555390  18.6488040  41.4857800  52.8986780
  18.3522460  40.8418160  51.5610530  16.3899040  37.6314480  64.8626370
  15.8595500  37.1405430  64.2349710  17.0587110  38.0598680  64.3284300
  20.7399260  40.6755540  49.3032490  21.2604920  39.9604560  48.9373640
  21.3867660  41.3141410  49.6033000  25.7599270  39.4380100  66.6306710
  26.3420040  38.6832420  66.5427190  25.9361040  39.9687540  65.8538190
  16.8771340  34.5976850  64.9423660  16.7828210  33.9797600  64.2174530
  16.2968730  35.3243140  64.7153570  19.6432780  33.1550090  61.9751050
  19.1950080  33.1774350  61.1296600  19.0097980  32.7569110  62.5721350
  20.0492330  42.0504420  62.5963490  20.4680440  42.8937150  62.4239730
  19.1300960  42.1876460  62.3670270  22.3856230  39.7820600  63.9801330
  22.5052440  39.1861740  64.7196170  23.2450230  39.8190290  63.5602630
  17.1230520  37.7251160  49.0013550  16.9219580  36.8618520  49.3626890
  16.9522570  37.6384520  48.0635150  17.8999750  48.3557430  63.7121220
  17.3620840  49.0803490  63.3929920  18.1533710  47.8787770  62.9218560
  19.1525000  36.3241950  65.2377150  19.7424690  36.0157800  65.9254970
  18.3345240  35.8521700  65.3937050  23.9718430  35.9407760  65.4710170
  23.2833950  35.2789300  65.4060160  24.6924450  35.4946030  65.9158630
  24.6018830  32.5359390  51.5300430  24.8821120  31.6927290  51.8859850
  23.8284560  32.7682500  52.0439180  15.9213320  34.8251780  48.9891430
  16.2239220  34.8319210  48.0810580  16.6607910  34.4749640  49.4859090
  20.7561960  49.5908640  63.9707870  20.6820660  50.4943780  64.2780240
  19.8540800  49.2720540  63.9429940  19.1398250  33.7686400  49.9747630
  18.7920250  33.0910390  49.3950080  19.3411020  33.3075910  50.7891020
  21.3047290  48.7567150  51.5934230  22.1998080  49.0952120  51.6152990
  21.3364920  48.0346560  50.9658510  14.9443450  44.1294200  49.8221230
  15.3818320  44.6723870  50.4778810  15.4291180  43.3041150  49.8317570
  12.1589250  46.9183230  57.2741490  12.4892260  46.0504290  57.0420130
  12.5880250  47.1241750  58.1046450  16.7551170  45.2492240  54.9343460
  16.4546710  45.1257210  55.8347370  16.6488660  44.3900830  54.5259190
  12.6479460  47.7853820  60.0123120  12.2110450  47.9654620  60.8447270
  13.2157140  48.5428440  59.8704840  29.5243090  45.0288640  49.6370140
  28.6936050  45.0965290  50.1077370  29.7014920  45.9192760  49.3337000
  28.9799550  41.7736120  52.1404340  29.7418460  42.3432770  52.2464030
  28.9953920  41.2063320  52.9112650  12.4803890  40.2974050  56.3712000
  11.8252730  40.0285690  55.7271700  13.3181840  40.1878530  55.9213980
  29.9859520  42.6286220  56.9846270  30.3568350  41.8453540  56.5782240
  30.6261450  43.3175320  56.8063570  29.0318720  42.0670490  49.2976860
  29.3067560  42.9749370  49.1696080  28.8429460  42.0033020  50.2338850
  25.4294330  35.0915340  50.5930490  25.8479210  34.9046320  49.7527150
  25.1230390  34.2394390  50.9033420  28.9284060  40.0039480  54.2906290
  28.5527660  39.2367410  53.8587580  28.1987180  40.3862180  54.7781220
  13.5179820  40.6826620  60.9115340  13.8852860  40.5954020  61.7911360
  12.9490640  39.9193170  60.8122200  28.3183680  39.1511000  63.9245810
  28.0869770  38.9223750  63.0243760  28.5788230  40.0710550  63.8790700
  13.0695820  37.5935710  64.8173760  12.1751870  37.5602470  65.1567470
  13.6093370  37.7922500  65.5825010  26.7571750  34.3767430  66.7025510
  27.6341930  34.3850830  67.0859510  26.7692590  33.6398270  66.0917860
  11.6941970  37.5072980  52.3137330  10.7906050  37.7703180  52.1388990
  12.1782590  37.7784150  51.5337290  28.2035020  38.2296970  57.5913530
  28.7272500  37.7359620  56.9603700  28.7894440  38.3647330  58.3361100
  28.3824740  38.3136840  61.1133080  27.4327450  38.2800380  61.2278070
  28.5637750  39.2236950  60.8782850  14.2369180  36.5638520  50.2231710
  14.9460880  36.1421740  49.7378990  13.5209120  36.6313750  49.5915060
  13.8843340  32.6177850  49.2634360  14.6071470  33.1586790  49.5815580
  14.1567860  32.3441270  48.3875900  27.6934990  37.4870320  53.5305940
  28.1894110  37.2541190  54.3154820  27.4951060  36.6482160  53.1143580
  13.5735530  31.8684040  59.1656980  14.2211720  31.3181420  58.7252140
  13.9937370  32.1227190  59.9872790  29.1222150  36.1231270  56.0643620
  29.0121430  35.9687310  57.0025890  29.8829740  35.5952210  55.8219030
  27.4687870  32.0625400  62.5226620  28.1060090  32.6759540  62.8885810
  27.6162760  32.0986060  61.5775850  30.0112420  33.9539190  49.3049760
  30.9361730  33.8220370  49.0968050  29.9888210  34.0332010  50.2586210
  30.0850910  34.7249850  51.9306470  29.2902410  34.6594970  52.4599380
  30.2894190  35.6600490  51.9191820  13.3267530  32.0239710  61.9082300
  12.9782350  32.4803530  62.6740480  12.9955230  31.1296840  61.9904730
  14.9331900  45.1959310  66.0735490  14.8901530  44.8252220  66.9549950
  15.0642910  46.1336880  66.2137310  18.6337930  46.7518900  61.6745210
  18.3929290  47.0193460  60.7875730  19.5740570  46.9224630  61.7296070
  20.8392350  33.2151590  65.4301720  20.7781240  33.8073420  66.1797130
  21.7792730  33.1077550  65.2851980  23.4766910  32.8721650  65.0694010
  24.0907320  33.1900940  64.4075090  24.0216470  32.3870240  65.6889870
  13.9988170  31.5515910  65.1833070  14.5471160  31.3703960  64.4199180
  14.0643480  30.7610020  65.7189380  14.7719930  48.1421560  63.1933270
  14.1780250  48.0106260  63.9323310  14.7643770  47.3059700  62.7275370
  24.2174950  31.4353790  61.3963300  23.3434790  31.7688900  61.1936230
  24.1085700  30.9626970  62.2215170  25.1246930  33.6424660  62.7805020
  24.7960290  32.8276420  62.4006750  26.0729230  33.5994470  62.6570710
  14.4032160  45.5079940  62.1441310  13.6766220  44.8885230  62.0767260
  14.4641310  45.9020550  61.2739390  18.0077260  47.7224940  58.9290720
  18.5242280  47.1112300  58.4038980  18.6574640  48.2253720  59.4201730
  20.7472760  48.6133430  59.7559700  21.0350570  48.3587730  58.8792710
  21.2595980  48.0610790  60.3465270  21.9649770  32.3523630  60.3356210
  21.1821560  32.8269130  60.6152970  21.6712700  31.4478460  60.2269390
  26.5170840  33.0546730  58.3805300  26.9578930  32.9991830  57.5326900
  26.2478430  33.9704740  58.4515480  28.3809410  32.6861970  56.3914120
  28.3197810  31.7423190  56.2445140  29.1601440  32.7942060  56.9367580
  12.6862160  48.8254330  55.3538070  12.5184200  48.1925010  56.0519960
  11.8196670  49.0313730  55.0032260  13.3090180  32.6571110  52.8569930
  14.0669540  32.7699990  52.2833960  12.8467350  33.4940310  52.8113360
  19.8503990  34.7710380  55.8472240  19.0378500  34.3967270  55.5068120
  20.3545630  34.0155460  56.1493430  24.3528970  31.4352830  57.0855310
  24.9558340  32.0073040  57.5603830  23.6121960  31.9992270  56.8629210
  27.4963570  31.8374390  52.3595590  27.6914200  32.7357840  52.6263020
  26.7093440  31.6061470  52.8528540  14.2924860  47.5187560  52.7988210
  13.7672480  47.8995590  52.0950170  14.2169440  48.1438330  53.5197920
  15.6815330  33.1835160  51.3971900  16.2108090  32.3964960  51.2679850
  16.3143650  33.8626350  51.6307430  17.8753170  32.9210300  54.4517290
  17.2455910  32.2197610  54.6187420  17.3358310  33.6814430  54.2350450
  20.8145120  49.5349530  67.1227900  21.7412430  49.2993800  67.1663860
  20.7995550  50.3621530  66.6413930  18.0008730  32.1994280  66.8869780
  17.7193000  32.7027880  66.1230600  18.3828430  31.4016030  66.5211910
  16.8917830  49.4669940  51.6737460  17.6236650  49.1829220  51.1261350
  17.1511500  49.2283220  52.5636840  16.0532620  45.5834670  51.6783790
  15.4241500  46.0519770  52.2269620  16.1680450  44.7383890  52.1129980
  24.6024190  31.6147860  67.4650250  24.4889640  31.9342470  68.3601770
  25.4193930  32.0160370  67.1687530  23.5082340  39.6340330  37.8284990
  23.4276390  38.7194940  37.5576700  23.0946760  40.1307400  37.1224700
  21.6400380  41.4119350  39.7094260  20.8642480  40.9319790  39.9992830
  22.2913310  40.7325000  39.5350420  15.6566210  41.7239160  40.5870020
  14.8251090  41.4687870  40.9866530  16.2647190  41.7949930  41.3227940
  25.6607810  45.8179540  38.4893390  25.1989340  45.0466780  38.8180560
  26.4733360  45.8445610  38.9945840  15.6367470  45.7579250  40.7828040
  15.9395510  44.8676990  40.6038260  16.3811060  46.3149470  40.5550290
  14.0658160  36.6841050  34.3712410  13.1774860  37.0257020  34.2692290
  14.3499350  36.4841370  33.4793240  12.0291170  39.2846700  40.2552110
  12.6007280  38.5168900  40.2555750  12.0292710  39.5835460  39.3458720
  21.8871120  48.1037550  38.1097380  21.2682560  48.5595050  37.5391820
  22.7422900  48.2589010  37.7087080  21.0809370  44.0876540  39.7164420
  21.0117650  43.1466480  39.5553550  21.8429230  44.1777950  40.2886990
  13.2716040  34.6931060  42.0421040  13.0918880  33.7956810  42.3223800
  12.8696120  35.2402930  42.7167990  22.1114540  36.8946920  39.9433350
  22.4879360  36.0218800  39.8307020  22.0134050  37.2305620  39.0523790
  16.2419550  35.2672550  35.4050790  16.3486300  36.1676280  35.7119550
  15.3311910  35.2190520  35.1145440  25.8938660  34.3897360  36.8761690
  26.7148280  33.8993930  36.9187170  25.9272740  34.9795020  37.6293530
  13.8902710  37.1891560  40.6503380  14.5712820  37.4529930  41.2690780
  13.5750760  36.3492430  40.9841390  18.0827280  38.2358920  39.7375970
  18.5905500  38.7339890  40.3780990  18.6140520  37.4594120  39.5615330
  30.1838210  36.4064110  43.4405320  29.4790380  36.7945820  42.9220430
  30.4496130  37.1014400  44.0426250  16.3663380  32.8757480  44.0039390
  16.3681820  33.3929870  43.1985290  15.5367690  32.3987660  43.9809320
  22.7534470  42.9876790  35.5029290  22.1351740  43.4526240  34.9392010
  23.2657720  43.6804270  35.9198800  17.6166230  42.5152660  42.1812890
  17.2835610  43.1421580  42.8233960  17.7932910  43.0414540  41.4014560
  26.1300140  36.3297740  39.6489230  25.4255710  36.6182630  40.2292340
  26.4912300  37.1397850  39.2888790  16.0478710  34.5867440  42.0109840
  16.3895520  35.4309490  41.7163710  15.1094520  34.7351180  42.1275180
  16.8285330  44.4833460  43.9962070  17.4459330  45.1584540  43.7146520
  15.9678450  44.8921440  43.9049570  12.1217670  43.6733320  32.8768920
  11.7445650  44.1620420  32.1453820  12.3790740  44.3458600  33.5075450
  27.7462920  45.9472870  41.9116710  27.0626440  46.6171980  41.9033380
  28.2857210  46.1453520  41.1461570  29.1987060  35.7752530  40.0398440
  28.2511970  35.8091510  40.1713870  29.5237050  36.5891480  40.4247800
  19.7306600  32.0749710  38.3354430  20.0381580  31.5196600  37.6189930
  18.8007300  32.2094170  38.1527420  25.2821660  47.7917000  40.6261890
  25.2948820  47.3879290  39.7584150  24.7296880  48.5664290  40.5223320
  26.5767080  44.5133220  35.7152060  26.4663410  43.5707550  35.8401480
  26.5735330  44.8748860  36.6014820  24.6807100  42.6946840  41.9544500
  25.0975890  42.4806950  41.1197960  25.4046920  42.9519630  42.5253120
  22.1187360  40.1398540  35.0714550  21.1916640  40.0735920  35.3003020
  22.2712180  41.0778670  34.9569790  22.1056440  36.4115540  32.0681710
  21.1660110  36.5729500  32.1534170  22.4239700  37.1301220  31.5217700
  28.6269200  41.0934060  42.0460740  27.7987830  41.1627150  41.5710870
  29.2219680  41.6788370  41.5776570  26.1484650  41.7018840  35.5749800
  25.5297070  41.3638390  34.9276100  26.1309100  41.0578600  36.2828990
  25.5911210  37.8803380  42.9915610  25.1782390  38.7057090  43.2455600
  24.8587160  37.2948420  42.7991970  17.7244000  40.6663280  37.8534280
  17.3201000  39.9540530  37.3580180  17.8107120  40.3216520  38.7422320
  18.1925700  44.3530840  40.0173490  17.8953990  43.7476310  39.3381270
  19.1425520  44.3908150  39.9062850  16.4372620  37.4406490  41.6333320
  16.9887210  37.5501830  40.8586570  16.9516130  37.8144090  42.3488550
  26.2811310  47.9262710  43.6796590  25.8041870  48.7334900  43.4869200
  25.5973100  47.2741040  43.8322800  17.2844130  44.0912530  46.6681290
  16.3872660  44.3152500  46.9154690  17.3097000  44.2147470  45.7192690
  24.3249350  40.9405650  32.5822550  24.7642630  40.1028080  32.4360370
  25.0377770  41.5735050  32.6686690  16.1115350  40.9625850  45.2438660
  15.9723120  41.8348650  45.6126060  15.2296710  40.6198660  45.0986600
  22.4344730  45.8801720  36.5503790  22.8740640  46.6226050  36.1359180
  22.3731620  46.1228290  37.4742750  17.9095700  46.9047550  47.4523810
  17.8811130  47.3090500  46.5852240  17.7460670  45.9757910  47.2895410
  27.9066490  32.1948460  30.8963590  27.5939150  32.2875290  31.7962660
  28.6678960  32.7729490  30.8461020  14.4248630  39.5608260  35.3540930
  14.3046230  40.2870350  34.7422200  14.1149520  38.7911170  34.8768840
  29.8610520  47.6874650  48.7487980  30.3370240  48.1657540  49.4277060
  30.4817680  47.6192140  48.0233480  12.0634000  42.7323400  41.1609570
  12.1414420  42.8672170  40.2165290  12.6775680  42.0239290  41.3537690
  13.3081630  44.4323590  37.5715750  12.9009710  44.5738180  36.7169350
  14.1994640  44.1483750  37.3686960  29.2643770  44.8787500  45.9087990
  29.3906830  44.6399380  44.9905170  29.3065150  44.0472040  46.3810070
  23.1260510  48.5815500  44.4782800  23.6405180  48.4923510  45.2805230
  22.2829590  48.9275200  44.7710710  25.1014910  48.8670840  33.9066800
  24.9416050  48.5773780  34.8048630  24.9361620  48.0910970  33.3712030
  17.5803290  48.6469370  35.6838420  17.4045770  47.7304910  35.4706220
  16.7259030  49.0056660  35.9236220  24.8041040  46.3758400  32.4664800
  24.1106200  46.3735690  31.8067080  25.5463900  45.9517720  32.0358970
  24.3690970  48.0021110  36.5413290  24.8247920  47.2210490  36.8551910
  24.7083490  48.7127930  37.0854470  29.1167780  36.9319960  46.8737730
  28.5012050  37.4399630  46.3453190  28.7964200  36.0318290  46.8163670
  12.1193520  43.7737570  43.7004030  12.2824560  43.3042930  42.8823400
  12.5845970  43.2661130  44.3652870  16.8912290  32.9043330  38.7364600
  16.4480440  33.6852870  38.4049120  17.4497280  33.2273220  39.4435540
  21.1782100  35.7711850  44.3399920  20.7161470  35.9794870  45.1519860
  20.7760210  34.9571200  44.0370590  26.1786610  36.9920800  45.4696580
  25.3280200  36.6926550  45.7905650  26.0188400  37.2362810  44.5580400
  23.2736320  38.4922550  47.5695370  23.5989730  37.6586300  47.2297600
  24.0616650  39.0151070  47.7173700  20.0071110  32.5254030  33.6170430
  19.3825290  32.5213900  34.3423740  19.9201230  31.6584990  33.2206400
  18.9288190  33.4490660  40.5954200  19.2260520  34.3553490  40.5146220
  19.4773750  32.9609440  39.9813770  16.6826510  38.0276900  36.4645850
  16.4567430  37.8114070  37.3692470  15.9019040  38.4605360  36.1191820
  23.9124270  38.0340270  35.0636500  23.3133160  38.7576070  34.8800120
  24.4603880  37.9717050  34.2812950  19.1225720  38.9262480  47.1306120
  19.0269320  37.9857210  46.9806520  19.9657700  39.1477550  46.7354190
  22.5189140  36.6703810  37.0939780  22.9118710  36.9876010  36.2808470
  22.8805990  35.7915690  37.2084300  14.2536260  35.3376150  45.2839900
  13.8599650  36.1851360  45.4912680  13.5654660  34.7002520  45.4748540
  20.8281310  35.4211120  48.3536640  20.1379630  35.2283320  48.9882730
  21.5713610  35.7045760  48.8860940  11.5553310  33.2604610  39.3169980
  11.2666360  33.8307470  40.0294960  12.2999070  32.7809060  39.6801210
  11.7423540  37.2024730  30.5272700  11.6598210  38.1455490  30.6687690
  11.3906600  37.0599640  29.6485050  23.1044280  39.2609560  41.1890560
  22.3725400  39.7696370  41.5380660  22.7068620  38.4439540  40.8879340
  19.5421670  35.9363760  39.5943050  19.5457730  35.4953710  38.7447590
  20.4372790  36.2581090  39.7014870  15.3924050  35.8190250  38.5537260
  15.0524100  36.2965480  39.3104310  14.6301370  35.3655370  38.1938360
  19.6041820  36.9375840  32.5849810  19.7254640  36.8962320  33.5335630
  19.2190330  37.7999990  32.4296540  23.5670190  34.7143240  40.6013500
  23.5842930  35.1651890  41.4455350  23.3185770  33.8148880  40.8146940
  18.6163320  39.2476980  31.9833110  18.0480220  38.7995230  31.3569020
  19.3252320  39.6069760  31.4498260  26.9940940  32.1275420  46.4399880
  27.3186710  31.3965080  46.9657860  27.0297450  31.8089060  45.5380870
  13.6932500  43.1489000  45.8599840  13.3087290  42.5082670  46.4582800
  14.0044690  43.8525120  46.4294570  19.8429640  39.9965540  41.3408460
  20.2099770  39.5224110  42.0869800  19.6534700  40.8707110  41.6816800
  12.7070130  34.7409230  37.4701930  12.4217050  34.3764900  38.3080550
  12.6448990  34.0089690  36.8565070  17.6329010  39.0374180  43.6592670
  17.3286080  39.9166160  43.8843030  18.5875470  39.0973970  43.6950110
  16.1610800  43.2435170  34.2559520  15.3873060  42.7032790  34.0958240
  16.8905430  42.7241780  33.9177280  26.9198780  42.2400530  40.0485910
  27.6397900  42.7355820  39.6582020  26.7180600  41.5618420  39.4039780
  22.3808720  33.6338490  34.1915300  21.5673330  33.1351660  34.1160610
  22.1870670  34.4736740  33.7751650  22.3017580  42.3109590  45.9354910
  22.2354890  41.3905260  45.6812500  21.6722720  42.4085030  46.6499550
  25.0957110  38.0058140  32.4877460  25.9836730  38.3175370  32.3128800
  25.0662200  37.1330390  32.0958040  16.2048200  42.9115550  37.8938330
  16.7226870  42.1083810  37.8395220  15.7532220  42.8494690  38.7355160
  21.0917700  44.1781830  33.1665630  21.4333400  44.9224060  32.6708950
  20.2630410  44.4912950  33.5290460  13.6892740  39.8776920  44.8064030
  13.3307680  40.5430770  45.3937370  13.3947300  39.0460470  45.1776650
  16.8905860  40.3361160  47.6903580  16.5906000  40.4818340  46.7931400
  17.6617100  39.7766450  47.5976970  22.2334310  45.1330160  45.6858710
  22.2478850  44.2011120  45.4677620  21.5259410  45.2189920  46.3248480
  27.3671380  39.3169980  31.9557320  27.2835100  39.7484200  31.1053760
  28.0865570  39.7768330  32.3884140  28.4445520  41.7737500  45.0327290
  27.7193710  42.3666280  44.8356680  28.9720980  41.7661040  44.2340660
  28.3958630  46.1712240  34.6839450  27.7534790  45.5167860  34.9583170
  28.0089290  46.5767330  33.9080120  23.9745110  43.4997670  38.5311140
  24.3268930  42.9025800  37.8712510  23.0907440  43.1741900  38.7019390
  20.0608390  44.2595360  35.9381550  20.7479520  44.8064570  36.3189140
  19.2740810  44.8036090  35.9731160  12.2000790  39.8768180  31.4298630
  13.0695640  40.1592980  31.7134550  11.7091110  40.6904050  31.3147440
  19.3635600  41.2641390  35.5506910  19.8198380  42.0746640  35.7767100
  19.0123810  40.9464530  36.3825400  21.6668210  46.7747730  42.7799210
  22.3110430  46.9807110  43.4572630  22.0297650  46.0136130  42.3270060
  15.2647380  31.6079040  36.0229430  15.1362010  31.5996940  36.9714350
  14.4409400  31.9462130  35.6720440  22.9400290  44.7780080  41.4976660
  23.5822520  44.0773240  41.6108830  23.4649640  45.5578520  41.3173550
  26.7856010  45.0628700  31.2215800  26.5593590  44.3459140  31.8140440
  26.3952210  44.8141140  30.3837550  24.7137910  45.5774980  44.7012720
  25.0494150  46.1641670  45.3790640  23.7938250  45.4467690  44.9310510
  12.5672040  49.0895560  31.9960260  12.9269680  49.6884900  31.3417530
  12.4264380  49.6355450  32.7695290  12.2641310  33.3670160  45.4836130
  11.5499830  33.5667080  46.0888740  12.6836350  32.5909730  45.8550930
  26.3672260  42.9800640  32.8829960  26.0793960  43.4413330  33.6707840
  27.1624430  42.5198410  33.1514180  12.5513900  47.3550420  46.4702660
  12.6605020  46.4145160  46.3298050  11.8994460  47.6205170  45.8216390
  20.5426490  45.6266310  47.8700780  20.2223360  44.9075550  48.4146470
  19.8684850  46.3021380  47.9436840  18.5840660  46.4726760  32.8133930
  18.5750760  47.2056450  32.1978440  17.6639020  46.2258340  32.9060890
  14.1847300  41.6941650  33.5580690  13.5775250  42.4340550  33.5675990
  14.6596650  41.7841010  32.7318890  23.7580090  35.8592470  43.2337580
  24.1260910  35.0387680  43.5617150  22.8978290  35.9194360  43.6493230
  27.1242120  34.8149410  34.0425140  26.4955280  34.9195080  33.3283370
  26.6294040  35.0346190  34.8319020  21.5700260  46.5355000  31.4759120
  21.6712240  46.3318990  30.5461100  20.6702000  46.2813280  31.6806900
  19.0926150  37.0935360  35.4583020  18.3842300  37.5621700  35.8996630
  19.3770630  36.4357370  36.0928210  20.7182080  38.5132060  43.4575550
  21.2167330  38.9877880  44.1227400  20.8605030  37.5895580  43.6645580
  23.1241580  33.8186020  36.8978810  23.0009360  33.8372150  35.9488320
  24.0726140  33.8664960  37.0177210  20.2118370  49.0541320  36.1706790
  20.4659870  49.0162710  35.2486160  19.2630850  48.9274650  36.1635040
  17.2961170  35.4020440  32.8333730  18.1451700  35.8390590  32.7673920
  16.9292440  35.7140700  33.6605790  27.9248940  34.7300020  44.3003940
  27.4222540  35.4705420  44.6397750  28.7405600  35.1184020  43.9840730
  26.2170950  39.9733200  37.7465300  25.2761090  39.9883430  37.9212990
  26.5315020  39.1869160  38.1925600  16.1952590  41.6552800  31.3069260
  16.9615860  41.5434160  31.8694690  16.2727280  40.9590770  30.6546030
  14.8899350  39.0877870  31.9902150  14.9702940  38.1405380  32.1019550
  15.7819100  39.4184750  32.0962810  28.2196530  47.1442050  39.4219560
  28.3443950  47.9673220  39.8943370  29.0862090  46.9332780  39.0743710
  15.6914060  49.2373260  39.0936690  16.4276540  48.6888720  39.3645260
  16.0754980  50.1029270  38.9542680  12.5759540  45.3046830  34.9678200
  11.6499320  45.5467970  34.9583610  13.0415970  46.1321090  34.8462950
  14.6972340  48.4219330  48.2822270  15.4985070  48.7431380  48.6957670
  14.1824160  48.0614910  49.0042180  18.8016370  48.4103570  30.9162260
  19.5944980  48.6992400  30.4644050  18.2820720  47.9795740  30.2374740
  23.5336970  44.5299200  48.2297680  22.9275130  44.5530800  47.4893430
  23.2291080  43.7982240  48.7664930  24.9637340  48.2579490  46.8407090
  25.9159090  48.1737510  46.7907330  24.8165560  48.9221200  47.5140880
  27.8546540  47.6373700  32.3399000  27.5688050  47.2238840  31.5253180
  27.6566090  48.5661410  32.2199520  12.4170150  40.9092790  47.2258320
  12.9209170  40.3300070  47.7974550  11.6777570  41.1933020  47.7634690
  19.3193770  43.6306980  30.7804610  19.2144410  43.0159330  31.5065990
  19.1517990  43.1072870  29.9967620  19.4708090  42.3163780  46.7593840
  18.7053760  42.8848780  46.6748510  19.6524050  42.0239990  45.8662070
  22.5596500  42.6927010  31.3846600  22.0106600  43.1396310  32.0289340
  23.1815760  42.1876260  31.9084270  26.6131440  44.0469110  47.3168860
  27.3540910  44.3844870  46.8136320  25.8504120  44.2161170  46.7638630
  14.4493230  39.0522380  48.1208390  14.4898570  38.7536250  49.0293620
  15.3038730  39.4529990  47.9615910  18.2271620  41.6517930  33.2811900
  18.6488040  41.4857800  34.1243290  18.3522460  40.8418160  32.7867040
  16.3899040  37.6314480  46.0882880  15.8595500  37.1405430  45.4606220
  17.0587110  38.0598680  45.5540810  20.7399260  40.6755540  30.5289000
  21.2604920  39.9604560  30.1630150  21.3867660  41.3141410  30.8289510
  25.2877100  42.0983940  45.8524070  25.7018120  42.2529020  46.7014490
  24.3528100  42.2239160  46.0149850  25.7599270  39.4380100  47.8563220
  26.3420040  38.6832420  47.7683700  25.9361040  39.9687540  47.0794700
  16.8771340  34.5976850  46.1680170  16.7828210  33.9797600  45.4431040
  16.2968730  35.3243140  45.9410080  19.6432780  33.1550090  43.2007560
  19.1950080  33.1774350  42.3553110  19.0097980  32.7569110  43.7977860
  20.0492330  42.0504420  43.8220000  20.4680440  42.8937150  43.6496240
  19.1300960  42.1876460  43.5926780  22.3856230  39.7820600  45.2057840
  22.5052440  39.1861740  45.9452680  23.2450230  39.8190290  44.7859140
  24.7244130  40.3357790  43.7820350  24.1979350  40.8600410  43.1785490
  25.0675470  40.9685180  44.4130080  17.1230520  37.7251160  30.2270060
  16.9219580  36.8618520  30.5883400  16.9522570  37.6384520  29.2891660
  17.8999750  48.3557430  44.9377730  17.3620840  49.0803490  44.6186430
  18.1533710  47.8787770  44.1475070  19.1525000  36.3241950  46.4633660
  19.7424690  36.0157800  47.1511480  18.3345240  35.8521700  46.6193560
  23.9718430  35.9407760  46.6966680  23.2833950  35.2789300  46.6316670
  24.6924450  35.4946030  47.1415140  24.6018830  32.5359390  32.7556940
  24.8821120  31.6927290  33.1116360  23.8284560  32.7682500  33.2695690
  15.9213320  34.8251780  30.2147940  16.2239220  34.8319210  29.3067090
  16.6607910  34.4749640  30.7115600  20.7561960  49.5908640  45.1964380
  20.6820660  50.4943780  45.5036750  19.8540800  49.2720540  45.1686450
  19.1398250  33.7686400  31.2004140  18.7920250  33.0910390  30.6206590
  19.3411020  33.3075910  32.0147530  21.3047290  48.7567150  32.8190740
  22.1998080  49.0952120  32.8409500  21.3364920  48.0346560  32.1915020
  14.9443450  44.1294200  31.0477740  15.3818320  44.6723870  31.7035320
  15.4291180  43.3041150  31.0574080  12.1589250  46.9183230  38.4998000
  12.4892260  46.0504290  38.2676640  12.5880250  47.1241750  39.3302960
  16.7551170  45.2492240  36.1599970  16.4546710  45.1257210  37.0603880
  16.6488660  44.3900830  35.7515700  12.6479460  47.7853820  41.2379630
  12.2110450  47.9654620  42.0703780  13.2157140  48.5428440  41.0961350
  28.2841640  47.2870820  45.5256940  27.6843630  47.3463380  44.7820860
  28.4135540  46.3475800  45.6553790  29.5243090  45.0288640  30.8626650
  28.6936050  45.0965290  31.3333880  29.7014920  45.9192760  30.5593510
  28.9799550  41.7736120  33.3660850  29.7418460  42.3432770  33.4720540
  28.9953920  41.2063320  34.1369160  12.4803890  40.2974050  37.5968510
  11.8252730  40.0285690  36.9528210  13.3181840  40.1878530  37.1470490
  29.9859520  42.6286220  38.2102780  30.3568350  41.8453540  37.8038750
  30.6261450  43.3175320  38.0320080  26.9693280  44.0122800  43.6233100
  26.1553120  44.4419960  43.8858890  27.3767480  44.6241210  43.0102150
  29.0318720  42.0670490  30.5233370  29.3067560  42.9749370  30.3952590
  28.8429460  42.0033020  31.4595360  25.4294330  35.0915340  31.8187000
  25.8479210  34.9046320  30.9783660  25.1230390  34.2394390  32.1289930
  28.9284060  40.0039480  35.5162800  28.5527660  39.2367410  35.0844090
  28.1987180  40.3862180  36.0037730  13.5179820  40.6826620  42.1371850
  13.8852860  40.5954020  43.0167870  12.9490640  39.9193170  42.0378710
  28.3183680  39.1511000  45.1502320  28.0869770  38.9223750  44.2500270
  28.5788230  40.0710550  45.1047210  13.0695820  37.5935710  46.0430270
  12.1751870  37.5602470  46.3823980  13.6093370  37.7922500  46.8081520
  26.7571750  34.3767430  47.9282020  27.6341930  34.3850830  48.3116020
  26.7692590  33.6398270  47.3174370  11.6941970  37.5072980  33.5393840
  10.7906050  37.7703180  33.3645500  12.1782590  37.7784150  32.7593800
  28.2035020  38.2296970  38.8170040  28.7272500  37.7359620  38.1860210
  28.7894440  38.3647330  39.5617610  28.3824740  38.3136840  42.3389590
  27.4327450  38.2800380  42.4534580  28.5637750  39.2236950  42.1039360
  14.2369180  36.5638520  31.4488220  14.9460880  36.1421740  30.9635500
  13.5209120  36.6313750  30.8171570  13.8843340  32.6177850  30.4890870
  14.6071470  33.1586790  30.8072090  14.1567860  32.3441270  29.6132410
  27.6934990  37.4870320  34.7562450  28.1894110  37.2541190  35.5411330
  27.4951060  36.6482160  34.3400090  13.5735530  31.8684040  40.3913490
  14.2211720  31.3181420  39.9508650  13.9937370  32.1227190  41.2129300
  29.1222150  36.1231270  37.2900130  29.0121430  35.9687310  38.2282400
  29.8829740  35.5952210  37.0475540  27.4687870  32.0625400  43.7483130
  28.1060090  32.6759540  44.1142320  27.6162760  32.0986060  42.8032360
  30.0112420  33.9539190  30.5306270  30.9361730  33.8220370  30.3224560
  29.9888210  34.0332010  31.4842720  30.0850910  34.7249850  33.1562980
  29.2902410  34.6594970  33.6855890  30.2894190  35.6600490  33.1448330
  27.0269330  48.7641400  37.1501370  27.6228400  48.4425970  36.4735790
  27.2847480  48.2913220  37.9414640  13.3267530  32.0239710  43.1338810
  12.9782350  32.4803530  43.8996990  12.9955230  31.1296840  43.2161240
  14.9331900  45.1959310  47.2992000  14.8901530  44.8252220  48.1806460
  15.0642910  46.1336880  47.4393820  18.6337930  46.7518900  42.9001720
  18.3929290  47.0193460  42.0132240  19.5740570  46.9224630  42.9552580
  20.8392350  33.2151590  46.6558230  20.7781240  33.8073420  47.4053640
  21.7792730  33.1077550  46.5108490  23.4766910  32.8721650  46.2950520
  24.0907320  33.1900940  45.6331600  24.0216470  32.3870240  46.9146380
  29.8942090  48.7713280  43.7012360  29.4000370  49.1682150  42.9839490
  29.2855380  48.1462490  44.0949640  13.9988170  31.5515910  46.4089580
  14.5471160  31.3703960  45.6455690  14.0643480  30.7610020  46.9445890
  14.7719930  48.1421560  44.4189780  14.1780250  48.0106260  45.1579820
  14.7643770  47.3059700  43.9531880  24.2174950  31.4353790  42.6219810
  23.3434790  31.7688900  42.4192740  24.1085700  30.9626970  43.4471680
  25.1246930  33.6424660  44.0061530  24.7960290  32.8276420  43.6263260
  26.0729230  33.5994470  43.8827220  27.5781540  49.4136700  40.9799100
  27.1184510  50.1652510  40.6057120  26.9494000  48.6943170  40.9213900
  14.4032160  45.5079940  43.3697820  13.6766220  44.8885230  43.3023770
  14.4641310  45.9020550  42.4995900  18.0077260  47.7224940  40.1547230
  18.5242280  47.1112300  39.6295490  18.6574640  48.2253720  40.6458240
  20.7472760  48.6133430  40.9816210  21.0350570  48.3587730  40.1049220
  21.2595980  48.0610790  41.5721780  21.9649770  32.3523630  41.5612720
  21.1821560  32.8269130  41.8409480  21.6712700  31.4478460  41.4525900
  26.5170840  33.0546730  39.6061810  26.9578930  32.9991830  38.7583410
  26.2478430  33.9704740  39.6771990  28.3809410  32.6861970  37.6170630
  28.3197810  31.7423190  37.4701650  29.1601440  32.7942060  38.1624090
  12.6862160  48.8254330  36.5794580  12.5184200  48.1925010  37.2776470
  11.8196670  49.0313730  36.2288770  13.3090180  32.6571110  34.0826440
  14.0669540  32.7699990  33.5090470  12.8467350  33.4940310  34.0369870
  19.8503990  34.7710380  37.0728750  19.0378500  34.3967270  36.7324630
  20.3545630  34.0155460  37.3749940  24.3528970  31.4352830  38.3111820
  24.9558340  32.0073040  38.7860340  23.6121960  31.9992270  38.0885720
  27.4963570  31.8374390  33.5852100  27.6914200  32.7357840  33.8519530
  26.7093440  31.6061470  34.0785050  14.2924860  47.5187560  34.0244720
  13.7672480  47.8995590  33.3206680  14.2169440  48.1438330  34.7454430
  15.6815330  33.1835160  32.6228410  16.2108090  32.3964960  32.4936360
  16.3143650  33.8626350  32.8563940  17.8753170  32.9210300  35.6773800
  17.2455910  32.2197610  35.8443930  17.3358310  33.6814430  35.4606960
  20.8145120  49.5349530  48.3484410  21.7412430  49.2993800  48.3920370
  20.7995550  50.3621530  47.8670440  29.0490180  49.0775100  35.3458660
  29.2242370  48.3912840  34.7019580  28.3511750  49.6022150  34.9535330
  18.0008730  32.1994280  48.1126290  17.7193000  32.7027880  47.3487110
  18.3828430  31.4016030  47.7468420  16.8917830  49.4669940  32.8993970
  17.6236650  49.1829220  32.3517860  17.1511500  49.2283220  33.7893350
  16.0532620  45.5834670  32.9040300  15.4241500  46.0519770  33.4526130
  16.1680450  44.7383890  33.3386490  24.6024190  31.6147860  48.6906760
  24.4889640  31.9342470  49.5858280  25.4193930  32.0160370  48.3944040
  27.3822680  48.7619390  48.1725450  28.1748000  48.2668620  47.9651410
  27.6755830  49.4409530  48.7801060  23.5082340  39.6340330  19.0541500
  23.4276390  38.7194940  18.7833210  23.0946760  40.1307400  18.3481210
  21.6400380  41.4119350  20.9350770  20.8642480  40.9319790  21.2249340
  22.2913310  40.7325000  20.7606930  15.6566210  41.7239160  21.8126530
  14.8251090  41.4687870  22.2123040  16.2647190  41.7949930  22.5484450
  25.6607810  45.8179540  19.7149900  25.1989340  45.0466780  20.0437070
  26.4733360  45.8445610  20.2202350  15.6367470  45.7579250  22.0084550
  15.9395510  44.8676990  21.8294770  16.3811060  46.3149470  21.7806800
  14.0658160  36.6841050  15.5968920  13.1774860  37.0257020  15.4948800
  14.3499350  36.4841370  14.7049750  12.0291170  39.2846700  21.4808620
  12.6007280  38.5168900  21.4812260  12.0292710  39.5835460  20.5715230
  21.8871120  48.1037550  19.3353890  21.2682560  48.5595050  18.7648330
  22.7422900  48.2589010  18.9343590  21.0809370  44.0876540  20.9420930
  21.0117650  43.1466480  20.7810060  21.8429230  44.1777950  21.5143500
  13.2716040  34.6931060  23.2677550  13.0918880  33.7956810  23.5480310
  12.8696120  35.2402930  23.9424500  22.1114540  36.8946920  21.1689860
  22.4879360  36.0218800  21.0563530  22.0134050  37.2305620  20.2780300
  16.2419550  35.2672550  16.6307300  16.3486300  36.1676280  16.9376060
  15.3311910  35.2190520  16.3401950  25.8938660  34.3897360  18.1018200
  26.7148280  33.8993930  18.1443680  25.9272740  34.9795020  18.8550040
  13.8902710  37.1891560  21.8759890  14.5712820  37.4529930  22.4947290
  13.5750760  36.3492430  22.2097900  18.0827280  38.2358920  20.9632480
  18.5905500  38.7339890  21.6037500  18.6140520  37.4594120  20.7871840
  30.1838210  36.4064110  24.6661830  29.4790380  36.7945820  24.1476940
  30.4496130  37.1014400  25.2682760  16.3663380  32.8757480  25.2295900
  16.3681820  33.3929870  24.4241800  15.5367690  32.3987660  25.2065830
  22.7534470  42.9876790  16.7285800  22.1351740  43.4526240  16.1648520
  23.2657720  43.6804270  17.1455310  17.6166230  42.5152660  23.4069400
  17.2835610  43.1421580  24.0490470  17.7932910  43.0414540  22.6271070
  26.1300140  36.3297740  20.8745740  25.4255710  36.6182630  21.4548850
  26.4912300  37.1397850  20.5145300  16.0478710  34.5867440  23.2366350
  16.3895520  35.4309490  22.9420220  15.1094520  34.7351180  23.3531690
  16.8285330  44.4833460  25.2218580  17.4459330  45.1584540  24.9403030
  15.9678450  44.8921440  25.1306080  12.1217670  43.6733320  14.1025430
  11.7445650  44.1620420  13.3710330  12.3790740  44.3458600  14.7331960
  27.7462920  45.9472870  23.1373220  27.0626440  46.6171980  23.1289890
  28.2857210  46.1453520  22.3718080  29.1987060  35.7752530  21.2654950
  28.2511970  35.8091510  21.3970380  29.5237050  36.5891480  21.6504310
  19.7306600  32.0749710  19.5610940  20.0381580  31.5196600  18.8446440
  18.8007300  32.2094170  19.3783930  25.2821660  47.7917000  21.8518400
  25.2948820  47.3879290  20.9840660  24.7296880  48.5664290  21.7479830
  26.5767080  44.5133220  16.9408570  26.4663410  43.5707550  17.0657990
  26.5735330  44.8748860  17.8271330  24.6807100  42.6946840  23.1801010
  25.0975890  42.4806950  22.3454470  25.4046920  42.9519630  23.7509630
  22.1187360  40.1398540  16.2971060  21.1916640  40.0735920  16.5259530
  22.2712180  41.0778670  16.1826300  22.1056440  36.4115540  13.2938220
  21.1660110  36.5729500  13.3790680  22.4239700  37.1301220  12.7474210
  28.6269200  41.0934060  23.2717250  27.7987830  41.1627150  22.7967380
  29.2219680  41.6788370  22.8033080  26.1484650  41.7018840  16.8006310
  25.5297070  41.3638390  16.1532610  26.1309100  41.0578600  17.5085500
  25.5911210  37.8803380  24.2172120  25.1782390  38.7057090  24.4712110
  24.8587160  37.2948420  24.0248480  17.7244000  40.6663280  19.0790790
  17.3201000  39.9540530  18.5836690  17.8107120  40.3216520  19.9678830
  18.1925700  44.3530840  21.2430000  17.8953990  43.7476310  20.5637780
  19.1425520  44.3908150  21.1319360  16.4372620  37.4406490  22.8589830
  16.9887210  37.5501830  22.0843080  16.9516130  37.8144090  23.5745060
  26.2811310  47.9262710  24.9053100  25.8041870  48.7334900  24.7125710
  25.5973100  47.2741040  25.0579310  17.2844130  44.0912530  27.8937800
  16.3872660  44.3152500  28.1411200  17.3097000  44.2147470  26.9449200
  24.3249350  40.9405650  13.8079060  24.7642630  40.1028080  13.6616880
  25.0377770  41.5735050  13.8943200  16.1115350  40.9625850  26.4695170
  15.9723120  41.8348650  26.8382570  15.2296710  40.6198660  26.3243110
  22.4344730  45.8801720  17.7760300  22.8740640  46.6226050  17.3615690
  22.3731620  46.1228290  18.6999260  17.9095700  46.9047550  28.6780320
  17.8811130  47.3090500  27.8108750  17.7460670  45.9757910  28.5151920
  27.9066490  32.1948460  12.1220100  27.5939150  32.2875290  13.0219170
  28.6678960  32.7729490  12.0717530  14.4248630  39.5608260  16.5797440
  14.3046230  40.2870350  15.9678710  14.1149520  38.7911170  16.1025350
  29.8610520  47.6874650  29.9744490  30.3370240  48.1657540  30.6533570
  30.4817680  47.6192140  29.2489990  12.0634000  42.7323400  22.3866080
  12.1414420  42.8672170  21.4421800  12.6775680  42.0239290  22.5794200
  13.3081630  44.4323590  18.7972260  12.9009710  44.5738180  17.9425860
  14.1994640  44.1483750  18.5943470  29.2643770  44.8787500  27.1344500
  29.3906830  44.6399380  26.2161680  29.3065150  44.0472040  27.6066580
  23.1260510  48.5815500  25.7039310  23.6405180  48.4923510  26.5061740
  22.2829590  48.9275200  25.9967220  25.1014910  48.8670840  15.1323310
  24.9416050  48.5773780  16.0305140  24.9361620  48.0910970  14.5968540
  17.5803290  48.6469370  16.9094930  17.4045770  47.7304910  16.6962730
  16.7259030  49.0056660  17.1492730  24.8041040  46.3758400  13.6921310
  24.1106200  46.3735690  13.0323590  25.5463900  45.9517720  13.2615480
  24.3690970  48.0021110  17.7669800  24.8247920  47.2210490  18.0808420
  24.7083490  48.7127930  18.3110980  29.1167780  36.9319960  28.0994240
  28.5012050  37.4399630  27.5709700  28.7964200  36.0318290  28.0420180
  12.1193520  43.7737570  24.9260540  12.2824560  43.3042930  24.1079910
  12.5845970  43.2661130  25.5909380  16.8912290  32.9043330  19.9621110
  16.4480440  33.6852870  19.6305630  17.4497280  33.2273220  20.6692050
  21.1782100  35.7711850  25.5656430  20.7161470  35.9794870  26.3776370
  20.7760210  34.9571200  25.2627100  26.1786610  36.9920800  26.6953090
  25.3280200  36.6926550  27.0162160  26.0188400  37.2362810  25.7836910
  23.2736320  38.4922550  28.7951880  23.5989730  37.6586300  28.4554110
  24.0616650  39.0151070  28.9430210  20.0071110  32.5254030  14.8426940
  19.3825290  32.5213900  15.5680250  19.9201230  31.6584990  14.4462910
  18.9288190  33.4490660  21.8210710  19.2260520  34.3553490  21.7402730
  19.4773750  32.9609440  21.2070280  16.6826510  38.0276900  17.6902360
  16.4567430  37.8114070  18.5948980  15.9019040  38.4605360  17.3448330
  23.9124270  38.0340270  16.2893010  23.3133160  38.7576070  16.1056630
  24.4603880  37.9717050  15.5069460  19.1225720  38.9262480  28.3562630
  19.0269320  37.9857210  28.2063030  19.9657700  39.1477550  27.9610700
  22.5189140  36.6703810  18.3196290  22.9118710  36.9876010  17.5064980
  22.8805990  35.7915690  18.4340810  14.2536260  35.3376150  26.5096410
  13.8599650  36.1851360  26.7169190  13.5654660  34.7002520  26.7005050
  20.8281310  35.4211120  29.5793150  20.1379630  35.2283320  30.2139240
  21.5713610  35.7045760  30.1117450  11.5553310  33.2604610  20.5426490
  11.2666360  33.8307470  21.2551470  12.2999070  32.7809060  20.9057720
  11.7423540  37.2024730  11.7529210  11.6598210  38.1455490  11.8944200
  11.3906600  37.0599640  10.8741560  23.1044280  39.2609560  22.4147070
  22.3725400  39.7696370  22.7637170  22.7068620  38.4439540  22.1135850
  19.5421670  35.9363760  20.8199560  19.5457730  35.4953710  19.9704100
  20.4372790  36.2581090  20.9271380  15.3924050  35.8190250  19.7793770
  15.0524100  36.2965480  20.5360820  14.6301370  35.3655370  19.4194870
  19.6041820  36.9375840  13.8106320  19.7254640  36.8962320  14.7592140
  19.2190330  37.7999990  13.6553050  23.5670190  34.7143240  21.8270010
  23.5842930  35.1651890  22.6711860  23.3185770  33.8148880  22.0403450
  18.6163320  39.2476980  13.2089620  18.0480220  38.7995230  12.5825530
  19.3252320  39.6069760  12.6754770  26.9940940  32.1275420  27.6656390
  27.3186710  31.3965080  28.1914370  27.0297450  31.8089060  26.7637380
  13.6932500  43.1489000  27.0856350  13.3087290  42.5082670  27.6839310
  14.0044690  43.8525120  27.6551080  19.8429640  39.9965540  22.5664970
  20.2099770  39.5224110  23.3126310  19.6534700  40.8707110  22.9073310
  12.7070130  34.7409230  18.6958440  12.4217050  34.3764900  19.5337060
  12.6448990  34.0089690  18.0821580  17.6329010  39.0374180  24.8849180
  17.3286080  39.9166160  25.1099540  18.5875470  39.0973970  24.9206620
  16.1610800  43.2435170  15.4816030  15.3873060  42.7032790  15.3214750
  16.8905430  42.7241780  15.1433790  26.9198780  42.2400530  21.2742420
  27.6397900  42.7355820  20.8838530  26.7180600  41.5618420  20.6296290
  22.3808720  33.6338490  15.4171810  21.5673330  33.1351660  15.3417120
  22.1870670  34.4736740  15.0008160  22.3017580  42.3109590  27.1611420
  22.2354890  41.3905260  26.9069010  21.6722720  42.4085030  27.8756060
  25.0957110  38.0058140  13.7133970  25.9836730  38.3175370  13.5385310
  25.0662200  37.1330390  13.3214550  16.2048200  42.9115550  19.1194840
  16.7226870  42.1083810  19.0651730  15.7532220  42.8494690  19.9611670
  21.0917700  44.1781830  14.3922140  21.4333400  44.9224060  13.8965460
  20.2630410  44.4912950  14.7546970  13.6892740  39.8776920  26.0320540
  13.3307680  40.5430770  26.6193880  13.3947300  39.0460470  26.4033160
  16.8905860  40.3361160  28.9160090  16.5906000  40.4818340  28.0187910
  17.6617100  39.7766450  28.8233480  22.2334310  45.1330160  26.9115220
  22.2478850  44.2011120  26.6934130  21.5259410  45.2189920  27.5504990
  27.3671380  39.3169980  13.1813830  27.2835100  39.7484200  12.3310270
  28.0865570  39.7768330  13.6140650  28.4445520  41.7737500  26.2583800
  27.7193710  42.3666280  26.0613190  28.9720980  41.7661040  25.4597170
  28.3958630  46.1712240  15.9095960  27.7534790  45.5167860  16.1839680
  28.0089290  46.5767330  15.1336630  23.9745110  43.4997670  19.7567650
  24.3268930  42.9025800  19.0969020  23.0907440  43.1741900  19.9275900
  20.0608390  44.2595360  17.1638060  20.7479520  44.8064570  17.5445650
  19.2740810  44.8036090  17.1987670  12.2000790  39.8768180  12.6555140
  13.0695640  40.1592980  12.9391060  11.7091110  40.6904050  12.5403950
  19.3635600  41.2641390  16.7763420  19.8198380  42.0746640  17.0023610
  19.0123810  40.9464530  17.6081910  21.6668210  46.7747730  24.0055720
  22.3110430  46.9807110  24.6829140  22.0297650  46.0136130  23.5526570
  15.2647380  31.6079040  17.2485940  15.1362010  31.5996940  18.1970860
  14.4409400  31.9462130  16.8976950  22.9400290  44.7780080  22.7233170
  23.5822520  44.0773240  22.8365340  23.4649640  45.5578520  22.5430060
  26.7856010  45.0628700  12.4472310  26.5593590  44.3459140  13.0396950
  26.3952210  44.8141140  11.6094060  24.7137910  45.5774980  25.9269230
  25.0494150  46.1641670  26.6047150  23.7938250  45.4467690  26.1567020
  12.5672040  49.0895560  13.2216770  12.9269680  49.6884900  12.5674040
  12.4264380  49.6355450  13.9951800  12.2641310  33.3670160  26.7092640
  11.5499830  33.5667080  27.3145250  12.6836350  32.5909730  27.0807440
  26.3672260  42.9800640  14.1086470  26.0793960  43.4413330  14.8964350
  27.1624430  42.5198410  14.3770690  12.5513900  47.3550420  27.6959170
  12.6605020  46.4145160  27.5554560  11.8994460  47.6205170  27.0472900
  20.5426490  45.6266310  29.0957290  20.2223360  44.9075550  29.6402980
  19.8684850  46.3021380  29.1693350  18.5840660  46.4726760  14.0390440
  18.5750760  47.2056450  13.4234950  17.6639020  46.2258340  14.1317400
  14.1847300  41.6941650  14.7837200  13.5775250  42.4340550  14.7932500
  14.6596650  41.7841010  13.9575400  23.7580090  35.8592470  24.4594090
  24.1260910  35.0387680  24.7873660  22.8978290  35.9194360  24.8749740
  27.1242120  34.8149410  15.2681650  26.4955280  34.9195080  14.5539880
  26.6294040  35.0346190  16.0575530  21.5700260  46.5355000  12.7015630
  21.6712240  46.3318990  11.7717610  20.6702000  46.2813280  12.9063410
  19.0926150  37.0935360  16.6839530  18.3842300  37.5621700  17.1253140
  19.3770630  36.4357370  17.3184720  20.7182080  38.5132060  24.6832060
  21.2167330  38.9877880  25.3483910  20.8605030  37.5895580  24.8902090
  23.1241580  33.8186020  18.1235320  23.0009360  33.8372150  17.1744830
  24.0726140  33.8664960  18.2433720  20.2118370  49.0541320  17.3963300
  20.4659870  49.0162710  16.4742670  19.2630850  48.9274650  17.3891550
  17.2961170  35.4020440  14.0590240  18.1451700  35.8390590  13.9930430
  16.9292440  35.7140700  14.8862300  27.9248940  34.7300020  25.5260450
  27.4222540  35.4705420  25.8654260  28.7405600  35.1184020  25.2097240
  26.2170950  39.9733200  18.9721810  25.2761090  39.9883430  19.1469500
  26.5315020  39.1869160  19.4182110  16.1952590  41.6552800  12.5325770
  16.9615860  41.5434160  13.0951200  16.2727280  40.9590770  11.8802540
  14.8899350  39.0877870  13.2158660  14.9702940  38.1405380  13.3276060
  15.7819100  39.4184750  13.3219320  28.2196530  47.1442050  20.6476070
  28.3443950  47.9673220  21.1199880  29.0862090  46.9332780  20.3000220
  15.6914060  49.2373260  20.3193200  16.4276540  48.6888720  20.5901770
  16.0754980  50.1029270  20.1799190  12.5759540  45.3046830  16.1934710
  11.6499320  45.5467970  16.1840120  13.0415970  46.1321090  16.0719460
  14.6972340  48.4219330  29.5078780  15.4985070  48.7431380  29.9214180
  14.1824160  48.0614910  30.2298690  18.8016370  48.4103570  12.1418770
  19.5944980  48.6992400  11.6900560  18.2820720  47.9795740  11.4631250
  23.5336970  44.5299200  29.4554190  22.9275130  44.5530800  28.7149940
  23.2291080  43.7982240  29.9921440  24.9637340  48.2579490  28.0663600
  25.9159090  48.1737510  28.0163840  24.8165560  48.9221200  28.7397390
  27.8546540  47.6373700  13.5655510  27.5688050  47.2238840  12.7509690
  27.6566090  48.5661410  13.4456030  12.4170150  40.9092790  28.4514830
  12.9209170  40.3300070  29.0231060  11.6777570  41.1933020  28.9891200
  19.3193770  43.6306980  12.0061120  19.2144410  43.0159330  12.7322500
  19.1517990  43.1072870  11.2224130  19.4708090  42.3163780  27.9850350
  18.7053760  42.8848780  27.9005020  19.6524050  42.0239990  27.0918580
  22.5596500  42.6927010  12.6103110  22.0106600  43.1396310  13.2545850
  23.1815760  42.1876260  13.1340780  26.6131440  44.0469110  28.5425370
  27.3540910  44.3844870  28.0392830  25.8504120  44.2161170  27.9895140
  14.4493230  39.0522380  29.3464900  14.4898570  38.7536250  30.2550130
  15.3038730  39.4529990  29.1872420  18.2271620  41.6517930  14.5068410
  18.6488040  41.4857800  15.3499800  18.3522460  40.8418160  14.0123550
  16.3899040  37.6314480  27.3139390  15.8595500  37.1405430  26.6862730
  17.0587110  38.0598680  26.7797320  20.7399260  40.6755540  11.7545510
  21.2604920  39.9604560  11.3886660  21.3867660  41.3141410  12.0546020
  25.2877100  42.0983940  27.0780580  25.7018120  42.2529020  27.9271000
  24.3528100  42.2239160  27.2406360  25.7599270  39.4380100  29.0819730
  26.3420040  38.6832420  28.9940210  25.9361040  39.9687540  28.3051210
  16.8771340  34.5976850  27.3936680  16.7828210  33.9797600  26.6687550
  16.2968730  35.3243140  27.1666590  19.6432780  33.1550090  24.4264070
  19.1950080  33.1774350  23.5809620  19.0097980  32.7569110  25.0234370
  20.0492330  42.0504420  25.0476510  20.4680440  42.8937150  24.8752750
  19.1300960  42.1876460  24.8183290  22.3856230  39.7820600  26.4314350
  22.5052440  39.1861740  27.1709190  23.2450230  39.8190290  26.0115650
  24.7244130  40.3357790  25.0076860  24.1979350  40.8600410  24.4042000
  25.0675470  40.9685180  25.6386590  17.1230520  37.7251160  11.4526570
  16.9219580  36.8618520  11.8139910  16.9522570  37.6384520  10.5148170
  17.8999750  48.3557430  26.1634240  17.3620840  49.0803490  25.8442940
  18.1533710  47.8787770  25.3731580  19.1525000  36.3241950  27.6890170
  19.7424690  36.0157800  28.3767990  18.3345240  35.8521700  27.8450070
  23.9718430  35.9407760  27.9223190  23.2833950  35.2789300  27.8573180
  24.6924450  35.4946030  28.3671650  24.6018830  32.5359390  13.9813450
  24.8821120  31.6927290  14.3372870  23.8284560  32.7682500  14.4952200
  15.9213320  34.8251780  11.4404450  16.2239220  34.8319210  10.5323600
  16.6607910  34.4749640  11.9372110  20.7561960  49.5908640  26.4220890
  20.6820660  50.4943780  26.7293260  19.8540800  49.2720540  26.3942960
  19.1398250  33.7686400  12.4260650  18.7920250  33.0910390  11.8463100
  19.3411020  33.3075910  13.2404040  21.3047290  48.7567150  14.0447250
  22.1998080  49.0952120  14.0666010  21.3364920  48.0346560  13.4171530
  14.9443450  44.1294200  12.2734250  15.3818320  44.6723870  12.9291830
  15.4291180  43.3041150  12.2830590  12.1589250  46.9183230  19.7254510
  12.4892260  46.0504290  19.4933150  12.5880250  47.1241750  20.5559470
  16.7551170  45.2492240  17.3856480  16.4546710  45.1257210  18.2860390
  16.6488660  44.3900830  16.9772210  12.6479460  47.7853820  22.4636140
  12.2110450  47.9654620  23.2960290  13.2157140  48.5428440  22.3217860
  28.2841640  47.2870820  26.7513450  27.6843630  47.3463380  26.0077370
  28.4135540  46.3475800  26.8810300  29.5243090  45.0288640  12.0883160
  28.6936050  45.0965290  12.5590390  29.7014920  45.9192760  11.7850020
  28.9799550  41.7736120  14.5917360  29.7418460  42.3432770  14.6977050
  28.9953920  41.2063320  15.3625670  12.4803890  40.2974050  18.8225020
  11.8252730  40.0285690  18.1784720  13.3181840  40.1878530  18.3727000
  29.9859520  42.6286220  19.4359290  30.3568350  41.8453540  19.0295260
  30.6261450  43.3175320  19.2576590  26.9693280  44.0122800  24.8489610
  26.1553120  44.4419960  25.1115400  27.3767480  44.6241210  24.2358660
  29.0318720  42.0670490  11.7489880  29.3067560  42.9749370  11.6209100
  28.8429460  42.0033020  12.6851870  25.4294330  35.0915340  13.0443510
  25.8479210  34.9046320  12.2040170  25.1230390  34.2394390  13.3546440
  28.9284060  40.0039480  16.7419310  28.5527660  39.2367410  16.3100600
  28.1987180  40.3862180  17.2294240  13.5179820  40.6826620  23.3628360
  13.8852860  40.5954020  24.2424380  12.9490640  39.9193170  23.2635220
  28.3183680  39.1511000  26.3758830  28.0869770  38.9223750  25.4756780
  28.5788230  40.0710550  26.3303720  13.0695820  37.5935710  27.2686780
  12.1751870  37.5602470  27.6080490  13.6093370  37.7922500  28.0338030
  26.7571750  34.3767430  29.1538530  27.6341930  34.3850830  29.5372530
  26.7692590  33.6398270  28.5430880  11.6941970  37.5072980  14.7650350
  10.7906050  37.7703180  14.5902010  12.1782590  37.7784150  13.9850310
  28.2035020  38.2296970  20.0426550  28.7272500  37.7359620  19.4116720
  28.7894440  38.3647330  20.7874120  28.3824740  38.3136840  23.5646100
  27.4327450  38.2800380  23.6791090  28.5637750  39.2236950  23.3295870
  14.2369180  36.5638520  12.6744730  14.9460880  36.1421740  12.1892010
  13.5209120  36.6313750  12.0428080  13.8843340  32.6177850  11.7147380
  14.6071470  33.1586790  12.0328600  14.1567860  32.3441270  10.8388920
  27.6934990  37.4870320  15.9818960  28.1894110  37.2541190  16.7667840
  27.4951060  36.6482160  15.5656600  13.5735530  31.8684040  21.6170000
  14.2211720  31.3181420  21.1765160  13.9937370  32.1227190  22.4385810
  29.1222150  36.1231270  18.5156640  29.0121430  35.9687310  19.4538910
  29.8829740  35.5952210  18.2732050  27.4687870  32.0625400  24.9739640
  28.1060090  32.6759540  25.3398830  27.6162760  32.0986060  24.0288870
  30.0112420  33.9539190  11.7562780  30.9361730  33.8220370  11.5481070
  29.9888210  34.0332010  12.7099230  30.0850910  34.7249850  14.3819490
  29.2902410  34.6594970  14.9112400  30.2894190  35.6600490  14.3704840
  27.0269330  48.7641400  18.3757880  27.6228400  48.4425970  17.6992300
  27.2847480  48.2913220  19.1671150  13.3267530  32.0239710  24.3595320
  12.9782350  32.4803530  25.1253500  12.9955230  31.1296840  24.4417750
  14.9331900  45.1959310  28.5248510  14.8901530  44.8252220  29.4062970
  15.0642910  46.1336880  28.6650330  18.6337930  46.7518900  24.1258230
  18.3929290  47.0193460  23.2388750  19.5740570  46.9224630  24.1809090
  20.8392350  33.2151590  27.8814740  20.7781240  33.8073420  28.6310150
  21.7792730  33.1077550  27.7365000  23.4766910  32.8721650  27.5207030
  24.0907320  33.1900940  26.8588110  24.0216470  32.3870240  28.1402890
  29.8942090  48.7713280  24.9268870  29.4000370  49.1682150  24.2096000
  29.2855380  48.1462490  25.3206150  13.9988170  31.5515910  27.6346090
  14.5471160  31.3703960  26.8712200  14.0643480  30.7610020  28.1702400
  14.7719930  48.1421560  25.6446290  14.1780250  48.0106260  26.3836330
  14.7643770  47.3059700  25.1788390  24.2174950  31.4353790  23.8476320
  23.3434790  31.7688900  23.6449250  24.1085700  30.9626970  24.6728190
  25.1246930  33.6424660  25.2318040  24.7960290  32.8276420  24.8519770
  26.0729230  33.5994470  25.1083730  27.5781540  49.4136700  22.2055610
  27.1184510  50.1652510  21.8313630  26.9494000  48.6943170  22.1470410
  14.4032160  45.5079940  24.5954330  13.6766220  44.8885230  24.5280280
  14.4641310  45.9020550  23.7252410  18.0077260  47.7224940  21.3803740
  18.5242280  47.1112300  20.8552000  18.6574640  48.2253720  21.8714750
  20.7472760  48.6133430  22.2072720  21.0350570  48.3587730  21.3305730
  21.2595980  48.0610790  22.7978290  21.9649770  32.3523630  22.7869230
  21.1821560  32.8269130  23.0665990  21.6712700  31.4478460  22.6782410
  26.5170840  33.0546730  20.8318320  26.9578930  32.9991830  19.9839920
  26.2478430  33.9704740  20.9028500  28.3809410  32.6861970  18.8427140
  28.3197810  31.7423190  18.6958160  29.1601440  32.7942060  19.3880600
  12.6862160  48.8254330  17.8051090  12.5184200  48.1925010  18.5032980
  11.8196670  49.0313730  17.4545280  13.3090180  32.6571110  15.3082950
  14.0669540  32.7699990  14.7346980  12.8467350  33.4940310  15.2626380
  19.8503990  34.7710380  18.2985260  19.0378500  34.3967270  17.9581140
  20.3545630  34.0155460  18.6006450  24.3528970  31.4352830  19.5368330
  24.9558340  32.0073040  20.0116850  23.6121960  31.9992270  19.3142230
  27.4963570  31.8374390  14.8108610  27.6914200  32.7357840  15.0776040
  26.7093440  31.6061470  15.3041560  14.2924860  47.5187560  15.2501230
  13.7672480  47.8995590  14.5463190  14.2169440  48.1438330  15.9710940
  15.6815330  33.1835160  13.8484920  16.2108090  32.3964960  13.7192870
  16.3143650  33.8626350  14.0820450  17.8753170  32.9210300  16.9030310
  17.2455910  32.2197610  17.0700440  17.3358310  33.6814430  16.6863470
  20.8145120  49.5349530  29.5740920  21.7412430  49.2993800  29.6176880
  20.7995550  50.3621530  29.0926950  29.0490180  49.0775100  16.5715170
  29.2242370  48.3912840  15.9276090  28.3511750  49.6022150  16.1791840
  18.0008730  32.1994280  29.3382800  17.7193000  32.7027880  28.5743620
  18.3828430  31.4016030  28.9724930  16.8917830  49.4669940  14.1250480
  17.6236650  49.1829220  13.5774370  17.1511500  49.2283220  15.0149860
  16.0532620  45.5834670  14.1296810  15.4241500  46.0519770  14.6782640
  16.1680450  44.7383890  14.5643000  24.6024190  31.6147860  29.9163270
  24.4889640  31.9342470  30.8114790  25.4193930  32.0160370  29.6200550
  27.3822680  48.7619390  29.3981960  28.1748000  48.2668620  29.1907920
  27.6755830  49.4409530  30.0057570  21.6400380  41.4119350   2.1607280
  20.8642480  40.9319790   2.4505850  22.2913310  40.7325000   1.9863440
  15.6566210  41.7239160   3.0383040  14.8251090  41.4687870   3.4379550
  16.2647190  41.7949930   3.7740960  15.6367470  45.7579250   3.2341060
  15.9395510  44.8676990   3.0551280  16.3811060  46.3149470   3.0063310
  12.0291170  39.2846700   2.7065130  12.6007280  38.5168900   2.7068770
  12.0292710  39.5835460   1.7971740  21.0809370  44.0876540   2.1677440
  21.0117650  43.1466480   2.0066570  21.8429230  44.1777950   2.7400010
  13.2716040  34.6931060   4.4934060  13.0918880  33.7956810   4.7736820
  12.8696120  35.2402930   5.1681010  13.8902710  37.1891560   3.1016400
  14.5712820  37.4529930   3.7203800  13.5750760  36.3492430   3.4354410
  18.0827280  38.2358920   2.1888990  18.5905500  38.7339890   2.8294010
  18.6140520  37.4594120   2.0128350  30.1838210  36.4064110   5.8918340
  29.4790380  36.7945820   5.3733450  30.4496130  37.1014400   6.4939270
  16.3663380  32.8757480   6.4552410  16.3681820  33.3929870   5.6498310
  15.5367690  32.3987660   6.4322340  17.6166230  42.5152660   4.6325910
  17.2835610  43.1421580   5.2746980  17.7932910  43.0414540   3.8527580
  26.1300140  36.3297740   2.1002250  25.4255710  36.6182630   2.6805360
  26.4912300  37.1397850   1.7401810  16.0478710  34.5867440   4.4622860
  16.3895520  35.4309490   4.1676730  15.1094520  34.7351180   4.5788200
  16.8285330  44.4833460   6.4475090  17.4459330  45.1584540   6.1659540
  15.9678450  44.8921440   6.3562590  27.7462920  45.9472870   4.3629730
  27.0626440  46.6171980   4.3546400  28.2857210  46.1453520   3.5974590
  29.1987060  35.7752530   2.4911460  28.2511970  35.8091510   2.6226890
  29.5237050  36.5891480   2.8760820  25.2821660  47.7917000   3.0774910
  25.2948820  47.3879290   2.2097170  24.7296880  48.5664290   2.9736340
  24.6807100  42.6946840   4.4057520  25.0975890  42.4806950   3.5710980
  25.4046920  42.9519630   4.9766140  28.6269200  41.0934060   4.4973760
  27.7987830  41.1627150   4.0223890  29.2219680  41.6788370   4.0289590
  25.5911210  37.8803380   5.4428630  25.1782390  38.7057090   5.6968620
  24.8587160  37.2948420   5.2504990  18.1925700  44.3530840   2.4686510
  17.8953990  43.7476310   1.7894290  19.1425520  44.3908150   2.3575870
  16.4372620  37.4406490   4.0846340  16.9887210  37.5501830   3.3099590
  16.9516130  37.8144090   4.8001570  26.2811310  47.9262710   6.1309610
  25.8041870  48.7334900   5.9382220  25.5973100  47.2741040   6.2835820
  17.2844130  44.0912530   9.1194310  16.3872660  44.3152500   9.3667710
  17.3097000  44.2147470   8.1705710  16.1115350  40.9625850   7.6951680
  15.9723120  41.8348650   8.0639080  15.2296710  40.6198660   7.5499620
  17.9095700  46.9047550   9.9036830  17.8811130  47.3090500   9.0365260
  17.7460670  45.9757910   9.7408430  29.8610520  47.6874650  11.2001000
  30.3370240  48.1657540  11.8790080  30.4817680  47.6192140  10.4746500
  12.0634000  42.7323400   3.6122590  12.1414420  42.8672170   2.6678310
  12.6775680  42.0239290   3.8050710  29.2643770  44.8787500   8.3601010
  29.3906830  44.6399380   7.4418190  29.3065150  44.0472040   8.8323090
  23.1260510  48.5815500   6.9295820  23.6405180  48.4923510   7.7318250
  22.2829590  48.9275200   7.2223730  29.1167780  36.9319960   9.3250750
  28.5012050  37.4399630   8.7966210  28.7964200  36.0318290   9.2676690
  12.1193520  43.7737570   6.1517050  12.2824560  43.3042930   5.3336420
  12.5845970  43.2661130   6.8165890  21.1782100  35.7711850   6.7912940
  20.7161470  35.9794870   7.6032880  20.7760210  34.9571200   6.4883610
  26.1786610  36.9920800   7.9209600  25.3280200  36.6926550   8.2418670
  26.0188400  37.2362810   7.0093420  23.2736320  38.4922550  10.0208390
  23.5989730  37.6586300   9.6810620  24.0616650  39.0151070  10.1686720
  18.9288190  33.4490660   3.0467220  19.2260520  34.3553490   2.9659240
  19.4773750  32.9609440   2.4326790  19.1225720  38.9262480   9.5819140
  19.0269320  37.9857210   9.4319540  19.9657700  39.1477550   9.1867210
  14.2536260  35.3376150   7.7352920  13.8599650  36.1851360   7.9425700
  13.5654660  34.7002520   7.9261560  20.8281310  35.4211120  10.8049660
  20.1379630  35.2283320  11.4395750  21.5713610  35.7045760  11.3373960
  11.5553310  33.2604610   1.7683000  11.2666360  33.8307470   2.4807980
  12.2999070  32.7809060   2.1314230  23.1044280  39.2609560   3.6403580
  22.3725400  39.7696370   3.9893680  22.7068620  38.4439540   3.3392360
  23.5670190  34.7143240   3.0526520  23.5842930  35.1651890   3.8968370
  23.3185770  33.8148880   3.2659960  26.9940940  32.1275420   8.8912900
  27.3186710  31.3965080   9.4170880  27.0297450  31.8089060   7.9893890
  13.6932500  43.1489000   8.3112860  13.3087290  42.5082670   8.9095820
  14.0044690  43.8525120   8.8807590  19.8429640  39.9965540   3.7921480
  20.2099770  39.5224110   4.5382820  19.6534700  40.8707110   4.1329820
  17.6329010  39.0374180   6.1105690  17.3286080  39.9166160   6.3356050
  18.5875470  39.0973970   6.1463130  26.9198780  42.2400530   2.4998930
  27.6397900  42.7355820   2.1095040  26.7180600  41.5618420   1.8552800
  22.3017580  42.3109590   8.3867930  22.2354890  41.3905260   8.1325520
  21.6722720  42.4085030   9.1012570  13.6892740  39.8776920   7.2577050
  13.3307680  40.5430770   7.8450390  13.3947300  39.0460470   7.6289670
  16.8905860  40.3361160  10.1416600  16.5906000  40.4818340   9.2444420
  17.6617100  39.7766450  10.0489990  22.2334310  45.1330160   8.1371730
  22.2478850  44.2011120   7.9190640  21.5259410  45.2189920   8.7761500
  28.4445520  41.7737500   7.4840310  27.7193710  42.3666280   7.2869700
  28.9720980  41.7661040   6.6853680  21.6668210  46.7747730   5.2312230
  22.3110430  46.9807110   5.9085650  22.0297650  46.0136130   4.7783080
  22.9400290  44.7780080   3.9489680  23.5822520  44.0773240   4.0621850
  23.4649640  45.5578520   3.7686570  24.7137910  45.5774980   7.1525740
  25.0494150  46.1641670   7.8303660  23.7938250  45.4467690   7.3823530
  12.2641310  33.3670160   7.9349150  11.5499830  33.5667080   8.5401760
  12.6836350  32.5909730   8.3063950  12.5513900  47.3550420   8.9215680
  12.6605020  46.4145160   8.7811070  11.8994460  47.6205170   8.2729410
  20.5426490  45.6266310  10.3213800  20.2223360  44.9075550  10.8659490
  19.8684850  46.3021380  10.3949860  23.7580090  35.8592470   5.6850600
  24.1260910  35.0387680   6.0130170  22.8978290  35.9194360   6.1006250
  20.7182080  38.5132060   5.9088570  21.2167330  38.9877880   6.5740420
  20.8605030  37.5895580   6.1158600  27.9248940  34.7300020   6.7516960
  27.4222540  35.4705420   7.0910770  28.7405600  35.1184020   6.4353750
  14.6972340  48.4219330  10.7335290  15.4985070  48.7431380  11.1470690
  14.1824160  48.0614910  11.4555200  23.5336970  44.5299200  10.6810700
  22.9275130  44.5530800   9.9406450  23.2291080  43.7982240  11.2177950
  24.9637340  48.2579490   9.2920110  25.9159090  48.1737510   9.2420350
  24.8165560  48.9221200   9.9653900  12.4170150  40.9092790   9.6771340
  12.9209170  40.3300070  10.2487570  11.6777570  41.1933020  10.2147710
  19.4708090  42.3163780   9.2106860  18.7053760  42.8848780   9.1261530
  19.6524050  42.0239990   8.3175090  26.6131440  44.0469110   9.7681880
  27.3540910  44.3844870   9.2649340  25.8504120  44.2161170   9.2151650
  14.4493230  39.0522380  10.5721410  14.4898570  38.7536250  11.4806640
  15.3038730  39.4529990  10.4128930  16.3899040  37.6314480   8.5395900
  15.8595500  37.1405430   7.9119240  17.0587110  38.0598680   8.0053830
  25.2877100  42.0983940   8.3037090  25.7018120  42.2529020   9.1527510
  24.3528100  42.2239160   8.4662870  25.7599270  39.4380100  10.3076240
  26.3420040  38.6832420  10.2196720  25.9361040  39.9687540   9.5307720
  16.8771340  34.5976850   8.6193190  16.7828210  33.9797600   7.8944060
  16.2968730  35.3243140   8.3923100  19.6432780  33.1550090   5.6520580
  19.1950080  33.1774350   4.8066130  19.0097980  32.7569110   6.2490880
  20.0492330  42.0504420   6.2733020  20.4680440  42.8937150   6.1009260
  19.1300960  42.1876460   6.0439800  22.3856230  39.7820600   7.6570860
  22.5052440  39.1861740   8.3965700  23.2450230  39.8190290   7.2372160
  24.7244130  40.3357790   6.2333370  24.1979350  40.8600410   5.6298510
  25.0675470  40.9685180   6.8643100  17.8999750  48.3557430   7.3890750
  17.3620840  49.0803490   7.0699450  18.1533710  47.8787770   6.5988090
  19.1525000  36.3241950   8.9146680  19.7424690  36.0157800   9.6024500
  18.3345240  35.8521700   9.0706580  23.9718430  35.9407760   9.1479700
  23.2833950  35.2789300   9.0829690  24.6924450  35.4946030   9.5928160
  20.7561960  49.5908640   7.6477400  20.6820660  50.4943780   7.9549770
  19.8540800  49.2720540   7.6199470  12.6479460  47.7853820   3.6892650
  12.2110450  47.9654620   4.5216800  13.2157140  48.5428440   3.5474370
  28.2841640  47.2870820   7.9769960  27.6843630  47.3463380   7.2333880
  28.4135540  46.3475800   8.1066810  26.9693280  44.0122800   6.0746120
  26.1553120  44.4419960   6.3371910  27.3767480  44.6241210   5.4615170
  13.5179820  40.6826620   4.5884870  13.8852860  40.5954020   5.4680890
  12.9490640  39.9193170   4.4891730  28.3183680  39.1511000   7.6015340
  28.0869770  38.9223750   6.7013290  28.5788230  40.0710550   7.5560230
  13.0695820  37.5935710   8.4943290  12.1751870  37.5602470   8.8337000
  13.6093370  37.7922500   9.2594540  26.7571750  34.3767430  10.3795040
  27.6341930  34.3850830  10.7629040  26.7692590  33.6398270   9.7687390
  28.3824740  38.3136840   4.7902610  27.4327450  38.2800380   4.9047600
  28.5637750  39.2236950   4.5552380  13.5735530  31.8684040   2.8426510
  14.2211720  31.3181420   2.4021670  13.9937370  32.1227190   3.6642320
  27.4687870  32.0625400   6.1996150  28.1060090  32.6759540   6.5655340
  27.6162760  32.0986060   5.2545380  13.3267530  32.0239710   5.5851830
  12.9782350  32.4803530   6.3510010  12.9955230  31.1296840   5.6674260
  14.9331900  45.1959310   9.7505020  14.8901530  44.8252220  10.6319480
  15.0642910  46.1336880   9.8906840  18.6337930  46.7518900   5.3514740
  18.3929290  47.0193460   4.4645260  19.5740570  46.9224630   5.4065600
  20.8392350  33.2151590   9.1071250  20.7781240  33.8073420   9.8566660
  21.7792730  33.1077550   8.9621510  23.4766910  32.8721650   8.7463540
  24.0907320  33.1900940   8.0844620  24.0216470  32.3870240   9.3659400
  29.8942090  48.7713280   6.1525380  29.4000370  49.1682150   5.4352510
  29.2855380  48.1462490   6.5462660  13.9988170  31.5515910   8.8602600
  14.5471160  31.3703960   8.0968710  14.0643480  30.7610020   9.3958910
  14.7719930  48.1421560   6.8702800  14.1780250  48.0106260   7.6092840
  14.7643770  47.3059700   6.4044900  24.2174950  31.4353790   5.0732830
  23.3434790  31.7688900   4.8705760  24.1085700  30.9626970   5.8984700
  25.1246930  33.6424660   6.4574550  24.7960290  32.8276420   6.0776280
  26.0729230  33.5994470   6.3340240  27.5781540  49.4136700   3.4312120
  27.1184510  50.1652510   3.0570140  26.9494000  48.6943170   3.3726920
  14.4032160  45.5079940   5.8210840  13.6766220  44.8885230   5.7536790
  14.4641310  45.9020550   4.9508920  18.0077260  47.7224940   2.6060250
  18.5242280  47.1112300   2.0808510  18.6574640  48.2253720   3.0971260
  20.7472760  48.6133430   3.4329230  21.0350570  48.3587730   2.5562240
  21.2595980  48.0610790   4.0234800  21.9649770  32.3523630   4.0125740
  21.1821560  32.8269130   4.2922500  21.6712700  31.4478460   3.9038920
  20.8145120  49.5349530  10.7997430  21.7412430  49.2993800  10.8433390
  20.7995550  50.3621530  10.3183460  18.0008730  32.1994280  10.5639310
  17.7193000  32.7027880   9.8000130  18.3828430  31.4016030  10.1981440
  24.6024190  31.6147860  11.1419780  24.4889640  31.9342470  12.0371300
  25.4193930  32.0160370  10.8457060  27.3822680  48.7619390  10.6238470
  28.1748000  48.2668620  10.4164430  27.6755830  49.4409530  11.2314080
  23.5082340  20.8596840 150.4745930  23.4276390  19.9451450 150.2037640
  23.0946760  21.3563910 149.7685640  25.6607810  27.0436050 151.1354330
  25.1989340  26.2723290 151.4641500  26.4733360  27.0702120 151.6406780
  14.0658160  17.9097560 147.0173350  13.1774860  18.2513530 146.9153230
  14.3499350  17.7097880 146.1254180  21.8871120  29.3294060 150.7558320
  21.2682560  29.7851560 150.1852760  22.7422900  29.4845520 150.3548020
  16.2419550  16.4929060 148.0511730  16.3486300  17.3932790 148.3580490
  15.3311910  16.4447030 147.7606380  25.8938660  15.6153870 149.5222630
  26.7148280  15.1250440 149.5648110  25.9272740  16.2051530 150.2754470
  22.7534470  24.2133300 148.1490230  22.1351740  24.6782750 147.5852950
  23.2657720  24.9060780 148.5659740  12.1217670  24.8989830 145.5229860
  11.7445650  25.3876930 144.7914760  12.3790740  25.5715110 146.1536390
  19.7306600  13.3006220 150.9815370  20.0381580  12.7453110 150.2650870
  18.8007300  13.4350680 150.7988360  26.5767080  25.7389730 148.3613000
  26.4663410  24.7964060 148.4862420  26.5735330  26.1005370 149.2475760
  22.1187360  21.3655050 147.7175490  21.1916640  21.2992430 147.9463960
  22.2712180  22.3035180 147.6030730  22.1056440  17.6372050 144.7142650
  21.1660110  17.7986010 144.7995110  22.4239700  18.3557730 144.1678640
  26.1484650  22.9275350 148.2210740  25.5297070  22.5894900 147.5737040
  26.1309100  22.2835110 148.9289930  17.7244000  21.8919790 150.4995220
  17.3201000  21.1797040 150.0041120  17.8107120  21.5473030 151.3883260
  24.3249350  22.1662160 145.2283490  24.7642630  21.3284590 145.0821310
  25.0377770  22.7991560 145.3147630  22.4344730  27.1058230 149.1964730
  22.8740640  27.8482560 148.7820120  22.3731620  27.3484800 150.1203690
  27.9066490  13.4204970 143.5424530  27.5939150  13.5131800 144.4423600
  28.6678960  13.9986000 143.4921960  14.4248630  20.7864770 148.0001870
  14.3046230  21.5126860 147.3883140  14.1149520  20.0167680 147.5229780
  13.3081630  25.6580100 150.2176690  12.9009710  25.7994690 149.3630290
  14.1994640  25.3740260 150.0147900  25.1014910  30.0927350 146.5527740
  24.9416050  29.8030290 147.4509570  24.9361620  29.3167480 146.0172970
  17.5803290  29.8725880 148.3299360  17.4045770  28.9561420 148.1167160
  16.7259030  30.2313170 148.5697160  24.8041040  27.6014910 145.1125740
  24.1106200  27.5992200 144.4528020  25.5463900  27.1774230 144.6819910
  24.3690970  29.2277620 149.1874230  24.8247920  28.4467000 149.5012850
  24.7083490  29.9384440 149.7315410  16.8912290  14.1299840 151.3825540
  16.4480440  14.9109380 151.0510060  17.4497280  14.4529730 152.0896480
  20.0071110  13.7510540 146.2631370  19.3825290  13.7470410 146.9884680
  19.9201230  12.8841500 145.8667340  16.6826510  19.2533410 149.1106790
  16.4567430  19.0370580 150.0153410  15.9019040  19.6861870 148.7652760
  23.9124270  19.2596780 147.7097440  23.3133160  19.9832580 147.5261060
  24.4603880  19.1973560 146.9273890  22.5189140  17.8960320 149.7400720
  22.9118710  18.2132520 148.9269410  22.8805990  17.0172200 149.8545240
  11.7423540  18.4281240 143.1733640  11.6598210  19.3712000 143.3148630
  11.3906600  18.2856150 142.2945990  19.5421670  17.1620270 152.2403990
  19.5457730  16.7210220 151.3908530  20.4372790  17.4837600 152.3475810
  15.3924050  17.0446760 151.1998200  15.0524100  17.5221990 151.9565250
  14.6301370  16.5911880 150.8399300  19.6041820  18.1632350 145.2310750
  19.7254640  18.1218830 146.1796570  19.2190330  19.0256500 145.0757480
  18.6163320  20.4733490 144.6294050  18.0480220  20.0251740 144.0029960
  19.3252320  20.8326270 144.0959200  12.7070130  15.9665740 150.1162870
  12.4217050  15.6021410 150.9541490  12.6448990  15.2346200 149.5026010
  16.1610800  24.4691680 146.9020460  15.3873060  23.9289300 146.7419180
  16.8905430  23.9498290 146.5638220  22.3808720  14.8595000 146.8376240
  21.5673330  14.3608170 146.7621550  22.1870670  15.6993250 146.4212590
  25.0957110  19.2314650 145.1338400  25.9836730  19.5431880 144.9589740
  25.0662200  18.3586900 144.7418980  16.2048200  24.1372060 150.5399270
  16.7226870  23.3340320 150.4856160  15.7532220  24.0751200 151.3816100
  21.0917700  25.4038340 145.8126570  21.4333400  26.1480570 145.3169890
  20.2630410  25.7169460 146.1751400  27.3671380  20.5426490 144.6018260
  27.2835100  20.9740710 143.7514700  28.0865570  21.0024840 145.0345080
  28.3958630  27.3968750 147.3300390  27.7534790  26.7424370 147.6044110
  28.0089290  27.8023840 146.5541060  23.9745110  24.7254180 151.1772080
  24.3268930  24.1282310 150.5173450  23.0907440  24.3998410 151.3480330
  20.0608390  25.4851870 148.5842490  20.7479520  26.0321080 148.9650080
  19.2740810  26.0292600 148.6192100  12.2000790  21.1024690 144.0759570
  13.0695640  21.3849490 144.3595490  11.7091110  21.9160560 143.9608380
  19.3635600  22.4897900 148.1967850  19.8198380  23.3003150 148.4228040
  19.0123810  22.1721040 149.0286340  15.2647380  12.8335550 148.6690370
  15.1362010  12.8253450 149.6175290  14.4409400  13.1718640 148.3181380
  26.7856010  26.2885210 143.8676740  26.5593590  25.5715650 144.4601380
  26.3952210  26.0397650 143.0298490  12.5672040  30.3152070 144.6421200
  12.9269680  30.9141410 143.9878470  12.4264380  30.8611960 145.4156230
  26.3672260  24.2057150 145.5290900  26.0793960  24.6669840 146.3168780
  27.1624430  23.7454920 145.7975120  18.5840660  27.6983270 145.4594870
  18.5750760  28.4312960 144.8439380  17.6639020  27.4514850 145.5521830
  14.1847300  22.9198160 146.2041630  13.5775250  23.6597060 146.2136930
  14.6596650  23.0097520 145.3779830  27.1242120  16.0405920 146.6886080
  26.4955280  16.1451590 145.9744310  26.6294040  16.2602700 147.4779960
  21.5700260  27.7611510 144.1220060  21.6712240  27.5575500 143.1922040
  20.6702000  27.5069790 144.3267840  19.0926150  18.3191870 148.1043960
  18.3842300  18.7878210 148.5457570  19.3770630  17.6613880 148.7389150
  23.1241580  15.0442530 149.5439750  23.0009360  15.0628660 148.5949260
  24.0726140  15.0921470 149.6638150  20.2118370  30.2797830 148.8167730
  20.4659870  30.2419220 147.8947100  19.2630850  30.1531160 148.8095980
  17.2961170  16.6276950 145.4794670  18.1451700  17.0647100 145.4134860
  16.9292440  16.9397210 146.3066730  26.2170950  21.1989710 150.3926240
  25.2761090  21.2139940 150.5673930  26.5315020  20.4125670 150.8386540
  16.1952590  22.8809310 143.9530200  16.9615860  22.7690670 144.5155630
  16.2727280  22.1847280 143.3006970  14.8899350  20.3134380 144.6363090
  14.9702940  19.3661890 144.7480490  15.7819100  20.6441260 144.7423750
  15.6914060  30.4629770 151.7397630  16.4276540  29.9145230 152.0106200
  16.0754980  31.3285780 151.6003620  12.5759540  26.5303340 147.6139140
  11.6499320  26.7724480 147.6044550  13.0415970  27.3577600 147.4923890
  18.8016370  29.6360080 143.5623200  19.5944980  29.9248910 143.1104990
  18.2820720  29.2052250 142.8835680  27.8546540  28.8630210 144.9859940
  27.5688050  28.4495350 144.1714120  27.6566090  29.7917920 144.8660460
  19.3193770  24.8563490 143.4265550  19.2144410  24.2415840 144.1526930
  19.1517990  24.3329380 142.6428560  22.5596500  23.9183520 144.0307540
  22.0106600  24.3652820 144.6750280  23.1815760  23.4132770 144.5545210
  18.2271620  22.8774440 145.9272840  18.6488040  22.7114310 146.7704230
  18.3522460  22.0674670 145.4327980  20.7399260  21.9012050 143.1749940
  21.2604920  21.1861070 142.8091090  21.3867660  22.5397920 143.4750450
  17.1230520  18.9507670 142.8731000  16.9219580  18.0875030 143.2344340
  16.9522570  18.8641030 141.9352600  24.6018830  13.7615900 145.4017880
  24.8821120  12.9183800 145.7577300  23.8284560  13.9939010 145.9156630
  15.9213320  16.0508290 142.8608880  16.2239220  16.0575720 141.9528030
  16.6607910  15.7006150 143.3576540  19.1398250  14.9942910 143.8465080
  18.7920250  14.3166900 143.2667530  19.3411020  14.5332420 144.6608470
  21.3047290  29.9823660 145.4651680  22.1998080  30.3208630 145.4870440
  21.3364920  29.2603070 144.8375960  14.9443450  25.3550710 143.6938680
  15.3818320  25.8980380 144.3496260  15.4291180  24.5297660 143.7035020
  12.1589250  28.1439740 151.1458940  12.4892260  27.2760800 150.9137580
  12.5880250  28.3498260 151.9763900  16.7551170  26.4748750 148.8060910
  16.4546710  26.3513720 149.7064820  16.6488660  25.6157340 148.3976640
  29.5243090  26.2545150 143.5087590  28.6936050  26.3221800 143.9794820
  29.7014920  27.1449270 143.2054450  28.9799550  22.9992630 146.0121790
  29.7418460  23.5689280 146.1181480  28.9953920  22.4319830 146.7830100
  12.4803890  21.5230560 150.2429450  11.8252730  21.2542200 149.5989150
  13.3181840  21.4135040 149.7931430  29.9859520  23.8542730 150.8563720
  30.3568350  23.0710050 150.4499690  30.6261450  24.5431830 150.6781020
  29.0318720  23.2927000 143.1694310  29.3067560  24.2005880 143.0413530
  28.8429460  23.2289530 144.1056300  25.4294330  16.3171850 144.4647940
  25.8479210  16.1302830 143.6244600  25.1230390  15.4650900 144.7750870
  28.9284060  21.2295990 148.1623740  28.5527660  20.4623920 147.7305030
  28.1987180  21.6118690 148.6498670  11.6941970  18.7329490 146.1854780
  10.7906050  18.9959690 146.0106440  12.1782590  19.0040660 145.4054740
  28.2035020  19.4553480 151.4630980  28.7272500  18.9616130 150.8321150
  28.7894440  19.5903840 152.2078550  14.2369180  17.7895030 144.0949160
  14.9460880  17.3678250 143.6096440  13.5209120  17.8570260 143.4632510
  13.8843340  13.8434360 143.1351810  14.6071470  14.3843300 143.4533030
  14.1567860  13.5697780 142.2593350  27.6934990  18.7126830 147.4023390
  28.1894110  18.4797700 148.1872270  27.4951060  17.8738670 146.9861030
  29.1222150  17.3487780 149.9361070  29.0121430  17.1943820 150.8743340
  29.8829740  16.8208720 149.6936480  30.0112420  15.1795700 143.1767210
  30.9361730  15.0476880 142.9685500  29.9888210  15.2588520 144.1303660
  30.0850910  15.9506360 145.8023920  29.2902410  15.8851480 146.3316830
  30.2894190  16.8857000 145.7909270  27.0269330  29.9897910 149.7962310
  27.6228400  29.6682480 149.1196730  27.2847480  29.5169730 150.5875580
  26.5170840  14.2803240 152.2522750  26.9578930  14.2248340 151.4044350
  26.2478430  15.1961250 152.3232930  28.3809410  13.9118480 150.2631570
  28.3197810  12.9679700 150.1162590  29.1601440  14.0198570 150.8085030
  12.6862160  30.0510840 149.2255520  12.5184200  29.4181520 149.9237410
  11.8196670  30.2570240 148.8749710  13.3090180  13.8827620 146.7287380
  14.0669540  13.9956500 146.1551410  12.8467350  14.7196820 146.6830810
  19.8503990  15.9966890 149.7189690  19.0378500  15.6223780 149.3785570
  20.3545630  15.2411970 150.0210880  24.3528970  12.6609340 150.9572760
  24.9558340  13.2329550 151.4321280  23.6121960  13.2248780 150.7346660
  27.4963570  13.0630900 146.2313040  27.6914200  13.9614350 146.4980470
  26.7093440  12.8317980 146.7245990  14.2924860  28.7444070 146.6705660
  13.7672480  29.1252100 145.9667620  14.2169440  29.3694840 147.3915370
  15.6815330  14.4091670 145.2689350  16.2108090  13.6221470 145.1397300
  16.3143650  15.0882860 145.5024880  17.8753170  14.1466810 148.3234740
  17.2455910  13.4454120 148.4904870  17.3358310  14.9070940 148.1067900
  29.0490180  30.3031610 147.9919600  29.2242370  29.6169350 147.3480520
  28.3511750  30.8278660 147.5996270  16.8917830  30.6926450 145.5454910
  17.6236650  30.4085730 144.9978800  17.1511500  30.4539730 146.4354290
  16.0532620  26.8091180 145.5501240  15.4241500  27.2776280 146.0987070
  16.1680450  25.9640400 145.9847430  23.5082340  20.8596840 131.7002440
  23.4276390  19.9451450 131.4294150  23.0946760  21.3563910 130.9942150
  21.6400380  22.6375860 133.5811710  20.8642480  22.1576300 133.8710280
  22.2913310  21.9581510 133.4067870  15.6566210  22.9495670 134.4587470
  14.8251090  22.6944380 134.8583980  16.2647190  23.0206440 135.1945390
  25.6607810  27.0436050 132.3610840  25.1989340  26.2723290 132.6898010
  26.4733360  27.0702120 132.8663290  15.6367470  26.9835760 134.6545490
  15.9395510  26.0933500 134.4755710  16.3811060  27.5405980 134.4267740
  14.0658160  17.9097560 128.2429860  13.1774860  18.2513530 128.1409740
  14.3499350  17.7097880 127.3510690  12.0291170  20.5103210 134.1269560
  12.6007280  19.7425410 134.1273200  12.0292710  20.8091970 133.2176170
  21.8871120  29.3294060 131.9814830  21.2682560  29.7851560 131.4109270
  22.7422900  29.4845520 131.5804530  21.0809370  25.3133050 133.5881870
  21.0117650  24.3722990 133.4271000  21.8429230  25.4034460 134.1604440
  13.2716040  15.9187570 135.9138490  13.0918880  15.0213320 136.1941250
  12.8696120  16.4659440 136.5885440  22.1114540  18.1203430 133.8150800
  22.4879360  17.2475310 133.7024470  22.0134050  18.4562130 132.9241240
  16.2419550  16.4929060 129.2768240  16.3486300  17.3932790 129.5837000
  15.3311910  16.4447030 128.9862890  25.8938660  15.6153870 130.7479140
  26.7148280  15.1250440 130.7904620  25.9272740  16.2051530 131.5010980
  13.8902710  18.4148070 134.5220830  14.5712820  18.6786440 135.1408230
  13.5750760  17.5748940 134.8558840  18.0827280  19.4615430 133.6093420
  18.5905500  19.9596400 134.2498440  18.6140520  18.6850630 133.4332780
  30.1838210  17.6320620 137.3122770  29.4790380  18.0202330 136.7937880
  30.4496130  18.3270910 137.9143700  16.3663380  14.1013990 137.8756840
  16.3681820  14.6186380 137.0702740  15.5367690  13.6244170 137.8526770
  22.7534470  24.2133300 129.3746740  22.1351740  24.6782750 128.8109460
  23.2657720  24.9060780 129.7916250  17.6166230  23.7409170 136.0530340
  17.2835610  24.3678090 136.6951410  17.7932910  24.2671050 135.2732010
  26.1300140  17.5554250 133.5206680  25.4255710  17.8439140 134.1009790
  26.4912300  18.3654360 133.1606240  16.0478710  15.8123950 135.8827290
  16.3895520  16.6566000 135.5881160  15.1094520  15.9607690 135.9992630
  16.8285330  25.7089970 137.8679520  17.4459330  26.3841050 137.5863970
  15.9678450  26.1177950 137.7767020  12.1217670  24.8989830 126.7486370
  11.7445650  25.3876930 126.0171270  12.3790740  25.5715110 127.3792900
  27.7462920  27.1729380 135.7834160  27.0626440  27.8428490 135.7750830
  28.2857210  27.3710030 135.0179020  29.1987060  17.0009040 133.9115890
  28.2511970  17.0348020 134.0431320  29.5237050  17.8147990 134.2965250
  19.7306600  13.3006220 132.2071880  20.0381580  12.7453110 131.4907380
  18.8007300  13.4350680 132.0244870  25.2821660  29.0173510 134.4979340
  25.2948820  28.6135800 133.6301600  24.7296880  29.7920800 134.3940770
  26.5767080  25.7389730 129.5869510  26.4663410  24.7964060 129.7118930
  26.5735330  26.1005370 130.4732270  24.6807100  23.9203350 135.8261950
  25.0975890  23.7063460 134.9915410  25.4046920  24.1776140 136.3970570
  22.1187360  21.3655050 128.9432000  21.1916640  21.2992430 129.1720470
  22.2712180  22.3035180 128.8287240  22.1056440  17.6372050 125.9399160
  21.1660110  17.7986010 126.0251620  22.4239700  18.3557730 125.3935150
  28.6269200  22.3190570 135.9178190  27.7987830  22.3883660 135.4428320
  29.2219680  22.9044880 135.4494020  26.1484650  22.9275350 129.4467250
  25.5297070  22.5894900 128.7993550  26.1309100  22.2835110 130.1546440
  25.5911210  19.1059890 136.8633060  25.1782390  19.9313600 137.1173050
  24.8587160  18.5204930 136.6709420  17.7244000  21.8919790 131.7251730
  17.3201000  21.1797040 131.2297630  17.8107120  21.5473030 132.6139770
  18.1925700  25.5787350 133.8890940  17.8953990  24.9732820 133.2098720
  19.1425520  25.6164660 133.7780300  16.4372620  18.6663000 135.5050770
  16.9887210  18.7758340 134.7304020  16.9516130  19.0400600 136.2206000
  26.2811310  29.1519220 137.5514040  25.8041870  29.9591410 137.3586650
  25.5973100  28.4997550 137.7040250  17.2844130  25.3169040 140.5398740
  16.3872660  25.5409010 140.7872140  17.3097000  25.4403980 139.5910140
  24.3249350  22.1662160 126.4540000  24.7642630  21.3284590 126.3077820
  25.0377770  22.7991560 126.5404140  16.1115350  22.1882360 139.1156110
  15.9723120  23.0605160 139.4843510  15.2296710  21.8455170 138.9704050
  22.4344730  27.1058230 130.4221240  22.8740640  27.8482560 130.0076630
  22.3731620  27.3484800 131.3460200  17.9095700  28.1304060 141.3241260
  17.8811130  28.5347010 140.4569690  17.7460670  27.2014420 141.1612860
  27.9066490  13.4204970 124.7681040  27.5939150  13.5131800 125.6680110
  28.6678960  13.9986000 124.7178470  14.4248630  20.7864770 129.2258380
  14.3046230  21.5126860 128.6139650  14.1149520  20.0167680 128.7486290
  29.8610520  28.9131160 142.6205430  30.3370240  29.3914050 143.2994510
  30.4817680  28.8448650 141.8950930  12.0634000  23.9579910 135.0327020
  12.1414420  24.0928680 134.0882740  12.6775680  23.2495800 135.2255140
  13.3081630  25.6580100 131.4433200  12.9009710  25.7994690 130.5886800
  14.1994640  25.3740260 131.2404410  29.2643770  26.1044010 139.7805440
  29.3906830  25.8655890 138.8622620  29.3065150  25.2728550 140.2527520
  23.1260510  29.8072010 138.3500250  23.6405180  29.7180020 139.1522680
  22.2829590  30.1531710 138.6428160  25.1014910  30.0927350 127.7784250
  24.9416050  29.8030290 128.6766080  24.9361620  29.3167480 127.2429480
  17.5803290  29.8725880 129.5555870  17.4045770  28.9561420 129.3423670
  16.7259030  30.2313170 129.7953670  24.8041040  27.6014910 126.3382250
  24.1106200  27.5992200 125.6784530  25.5463900  27.1774230 125.9076420
  24.3690970  29.2277620 130.4130740  24.8247920  28.4467000 130.7269360
  24.7083490  29.9384440 130.9571920  29.1167780  18.1576470 140.7455180
  28.5012050  18.6656140 140.2170640  28.7964200  17.2574800 140.6881120
  12.1193520  24.9994080 137.5721480  12.2824560  24.5299440 136.7540850
  12.5845970  24.4917640 138.2370320  16.8912290  14.1299840 132.6082050
  16.4480440  14.9109380 132.2766570  17.4497280  14.4529730 133.3152990
  21.1782100  16.9968360 138.2117370  20.7161470  17.2051380 139.0237310
  20.7760210  16.1827710 137.9088040  26.1786610  18.2177310 139.3414030
  25.3280200  17.9183060 139.6623100  26.0188400  18.4619320 138.4297850
  23.2736320  19.7179060 141.4412820  23.5989730  18.8842810 141.1015050
  24.0616650  20.2407580 141.5891150  20.0071110  13.7510540 127.4887880
  19.3825290  13.7470410 128.2141190  19.9201230  12.8841500 127.0923850
  18.9288190  14.6747170 134.4671650  19.2260520  15.5810000 134.3863670
  19.4773750  14.1865950 133.8531220  16.6826510  19.2533410 130.3363300
  16.4567430  19.0370580 131.2409920  15.9019040  19.6861870 129.9909270
  23.9124270  19.2596780 128.9353950  23.3133160  19.9832580 128.7517570
  24.4603880  19.1973560 128.1530400  19.1225720  20.1518990 141.0023570
  19.0269320  19.2113720 140.8523970  19.9657700  20.3734060 140.6071640
  22.5189140  17.8960320 130.9657230  22.9118710  18.2132520 130.1525920
  22.8805990  17.0172200 131.0801750  14.2536260  16.5632660 139.1557350
  13.8599650  17.4107870 139.3630130  13.5654660  15.9259030 139.3465990
  20.8281310  16.6467630 142.2254090  20.1379630  16.4539830 142.8600180
  21.5713610  16.9302270 142.7578390  11.5553310  14.4861120 133.1887430
  11.2666360  15.0563980 133.9012410  12.2999070  14.0065570 133.5518660
  11.7423540  18.4281240 124.3990150  11.6598210  19.3712000 124.5405140
  11.3906600  18.2856150 123.5202500  23.1044280  20.4866070 135.0608010
  22.3725400  20.9952880 135.4098110  22.7068620  19.6696050 134.7596790
  19.5421670  17.1620270 133.4660500  19.5457730  16.7210220 132.6165040
  20.4372790  17.4837600 133.5732320  15.3924050  17.0446760 132.4254710
  15.0524100  17.5221990 133.1821760  14.6301370  16.5911880 132.0655810
  19.6041820  18.1632350 126.4567260  19.7254640  18.1218830 127.4053080
  19.2190330  19.0256500 126.3013990  23.5670190  15.9399750 134.4730950
  23.5842930  16.3908400 135.3172800  23.3185770  15.0405390 134.6864390
  18.6163320  20.4733490 125.8550560  18.0480220  20.0251740 125.2286470
  19.3252320  20.8326270 125.3215710  26.9940940  13.3531930 140.3117330
  27.3186710  12.6221590 140.8375310  27.0297450  13.0345570 139.4098320
  13.6932500  24.3745510 139.7317290  13.3087290  23.7339180 140.3300250
  14.0044690  25.0781630 140.3012020  19.8429640  21.2222050 135.2125910
  20.2099770  20.7480620 135.9587250  19.6534700  22.0963620 135.5534250
  12.7070130  15.9665740 131.3419380  12.4217050  15.6021410 132.1798000
  12.6448990  15.2346200 130.7282520  17.6329010  20.2630690 137.5310120
  17.3286080  21.1422670 137.7560480  18.5875470  20.3230480 137.5667560
  16.1610800  24.4691680 128.1276970  15.3873060  23.9289300 127.9675690
  16.8905430  23.9498290 127.7894730  26.9198780  23.4657040 133.9203360
  27.6397900  23.9612330 133.5299470  26.7180600  22.7874930 133.2757230
  22.3808720  14.8595000 128.0632750  21.5673330  14.3608170 127.9878060
  22.1870670  15.6993250 127.6469100  22.3017580  23.5366100 139.8072360
  22.2354890  22.6161770 139.5529950  21.6722720  23.6341540 140.5217000
  25.0957110  19.2314650 126.3594910  25.9836730  19.5431880 126.1846250
  25.0662200  18.3586900 125.9675490  16.2048200  24.1372060 131.7655780
  16.7226870  23.3340320 131.7112670  15.7532220  24.0751200 132.6072610
  21.0917700  25.4038340 127.0383080  21.4333400  26.1480570 126.5426400
  20.2630410  25.7169460 127.4007910  13.6892740  21.1033430 138.6781480
  13.3307680  21.7687280 139.2654820  13.3947300  20.2716980 139.0494100
  16.8905860  21.5617670 141.5621030  16.5906000  21.7074850 140.6648850
  17.6617100  21.0022960 141.4694420  22.2334310  26.3586670 139.5576160
  22.2478850  25.4267630 139.3395070  21.5259410  26.4446430 140.1965930
  27.3671380  20.5426490 125.8274770  27.2835100  20.9740710 124.9771210
  28.0865570  21.0024840 126.2601590  28.4445520  22.9994010 138.9044740
  27.7193710  23.5922790 138.7074130  28.9720980  22.9917550 138.1058110
  28.3958630  27.3968750 128.5556900  27.7534790  26.7424370 128.8300620
  28.0089290  27.8023840 127.7797570  23.9745110  24.7254180 132.4028590
  24.3268930  24.1282310 131.7429960  23.0907440  24.3998410 132.5736840
  20.0608390  25.4851870 129.8099000  20.7479520  26.0321080 130.1906590
  19.2740810  26.0292600 129.8448610  12.2000790  21.1024690 125.3016080
  13.0695640  21.3849490 125.5852000  11.7091110  21.9160560 125.1864890
  19.3635600  22.4897900 129.4224360  19.8198380  23.3003150 129.6484550
  19.0123810  22.1721040 130.2542850  21.6668210  28.0004240 136.6516660
  22.3110430  28.2063620 137.3290080  22.0297650  27.2392640 136.1987510
  15.2647380  12.8335550 129.8946880  15.1362010  12.8253450 130.8431800
  14.4409400  13.1718640 129.5437890  22.9400290  26.0036590 135.3694110
  23.5822520  25.3029750 135.4826280  23.4649640  26.7835030 135.1891000
  26.7856010  26.2885210 125.0933250  26.5593590  25.5715650 125.6857890
  26.3952210  26.0397650 124.2555000  24.7137910  26.8031490 138.5730170
  25.0494150  27.3898180 139.2508090  23.7938250  26.6724200 138.8027960
  12.5672040  30.3152070 125.8677710  12.9269680  30.9141410 125.2134980
  12.4264380  30.8611960 126.6412740  12.2641310  14.5926670 139.3553580
  11.5499830  14.7923590 139.9606190  12.6836350  13.8166240 139.7268380
  26.3672260  24.2057150 126.7547410  26.0793960  24.6669840 127.5425290
  27.1624430  23.7454920 127.0231630  12.5513900  28.5806930 140.3420110
  12.6605020  27.6401670 140.2015500  11.8994460  28.8461680 139.6933840
  20.5426490  26.8522820 141.7418230  20.2223360  26.1332060 142.2863920
  19.8684850  27.5277890 141.8154290  18.5840660  27.6983270 126.6851380
  18.5750760  28.4312960 126.0695890  17.6639020  27.4514850 126.7778340
  14.1847300  22.9198160 127.4298140  13.5775250  23.6597060 127.4393440
  14.6596650  23.0097520 126.6036340  23.7580090  17.0848980 137.1055030
  24.1260910  16.2644190 137.4334600  22.8978290  17.1450870 137.5210680
  27.1242120  16.0405920 127.9142590  26.4955280  16.1451590 127.2000820
  26.6294040  16.2602700 128.7036470  21.5700260  27.7611510 125.3476570
  21.6712240  27.5575500 124.4178550  20.6702000  27.5069790 125.5524350
  19.0926150  18.3191870 129.3300470  18.3842300  18.7878210 129.7714080
  19.3770630  17.6613880 129.9645660  20.7182080  19.7388570 137.3293000
  21.2167330  20.2134390 137.9944850  20.8605030  18.8152090 137.5363030
  23.1241580  15.0442530 130.7696260  23.0009360  15.0628660 129.8205770
  24.0726140  15.0921470 130.8894660  20.2118370  30.2797830 130.0424240
  20.4659870  30.2419220 129.1203610  19.2630850  30.1531160 130.0352490
  17.2961170  16.6276950 126.7051180  18.1451700  17.0647100 126.6391370
  16.9292440  16.9397210 127.5323240  27.9248940  15.9556530 138.1721390
  27.4222540  16.6961930 138.5115200  28.7405600  16.3440530 137.8558180
  26.2170950  21.1989710 131.6182750  25.2761090  21.2139940 131.7930440
  26.5315020  20.4125670 132.0643050  16.1952590  22.8809310 125.1786710
  16.9615860  22.7690670 125.7412140  16.2727280  22.1847280 124.5263480
  14.8899350  20.3134380 125.8619600  14.9702940  19.3661890 125.9737000
  15.7819100  20.6441260 125.9680260  28.2196530  28.3698560 133.2937010
  28.3443950  29.1929730 133.7660820  29.0862090  28.1589290 132.9461160
  15.6914060  30.4629770 132.9654140  16.4276540  29.9145230 133.2362710
  16.0754980  31.3285780 132.8260130  12.5759540  26.5303340 128.8395650
  11.6499320  26.7724480 128.8301060  13.0415970  27.3577600 128.7180400
  14.6972340  29.6475840 142.1539720  15.4985070  29.9687890 142.5675120
  14.1824160  29.2871420 142.8759630  18.8016370  29.6360080 124.7879710
  19.5944980  29.9248910 124.3361500  18.2820720  29.2052250 124.1092190
  23.5336970  25.7555710 142.1015130  22.9275130  25.7787310 141.3610880
  23.2291080  25.0238750 142.6382380  24.9637340  29.4836000 140.7124540
  25.9159090  29.3994020 140.6624780  24.8165560  30.1477710 141.3858330
  27.8546540  28.8630210 126.2116450  27.5688050  28.4495350 125.3970630
  27.6566090  29.7917920 126.0916970  12.4170150  22.1349300 141.0975770
  12.9209170  21.5556580 141.6692000  11.6777570  22.4189530 141.6352140
  19.3193770  24.8563490 124.6522060  19.2144410  24.2415840 125.3783440
  19.1517990  24.3329380 123.8685070  19.4708090  23.5420290 140.6311290
  18.7053760  24.1105290 140.5465960  19.6524050  23.2496500 139.7379520
  22.5596500  23.9183520 125.2564050  22.0106600  24.3652820 125.9006790
  23.1815760  23.4132770 125.7801720  26.6131440  25.2725620 141.1886310
  27.3540910  25.6101380 140.6853770  25.8504120  25.4417680 140.6356080
  14.4493230  20.2778890 141.9925840  14.4898570  19.9792760 142.9011070
  15.3038730  20.6786500 141.8333360  18.2271620  22.8774440 127.1529350
  18.6488040  22.7114310 127.9960740  18.3522460  22.0674670 126.6584490
  16.3899040  18.8570990 139.9600330  15.8595500  18.3661940 139.3323670
  17.0587110  19.2855190 139.4258260  20.7399260  21.9012050 124.4006450
  21.2604920  21.1861070 124.0347600  21.3867660  22.5397920 124.7006960
  25.2877100  23.3240450 139.7241520  25.7018120  23.4785530 140.5731940
  24.3528100  23.4495670 139.8867300  25.7599270  20.6636610 141.7280670
  26.3420040  19.9088930 141.6401150  25.9361040  21.1944050 140.9512150
  16.8771340  15.8233360 140.0397620  16.7828210  15.2054110 139.3148490
  16.2968730  16.5499650 139.8127530  19.6432780  14.3806600 137.0725010
  19.1950080  14.4030860 136.2270560  19.0097980  13.9825620 137.6695310
  20.0492330  23.2760930 137.6937450  20.4680440  24.1193660 137.5213690
  19.1300960  23.4132970 137.4644230  22.3856230  21.0077110 139.0775290
  22.5052440  20.4118250 139.8170130  23.2450230  21.0446800 138.6576590
  24.7244130  21.5614300 137.6537800  24.1979350  22.0856920 137.0502940
  25.0675470  22.1941690 138.2847530  17.1230520  18.9507670 124.0987510
  16.9219580  18.0875030 124.4600850  16.9522570  18.8641030 123.1609110
  17.8999750  29.5813940 138.8095180  17.3620840  30.3060000 138.4903880
  18.1533710  29.1044280 138.0192520  19.1525000  17.5498460 140.3351110
  19.7424690  17.2414310 141.0228930  18.3345240  17.0778210 140.4911010
  23.9718430  17.1664270 140.5684130  23.2833950  16.5045810 140.5034120
  24.6924450  16.7202540 141.0132590  24.6018830  13.7615900 126.6274390
  24.8821120  12.9183800 126.9833810  23.8284560  13.9939010 127.1413140
  15.9213320  16.0508290 124.0865390  16.2239220  16.0575720 123.1784540
  16.6607910  15.7006150 124.5833050  20.7561960  30.8165150 139.0681830
  20.6820660  31.7200290 139.3754200  19.8540800  30.4977050 139.0403900
  19.1398250  14.9942910 125.0721590  18.7920250  14.3166900 124.4924040
  19.3411020  14.5332420 125.8864980  21.3047290  29.9823660 126.6908190
  22.1998080  30.3208630 126.7126950  21.3364920  29.2603070 126.0632470
  14.9443450  25.3550710 124.9195190  15.3818320  25.8980380 125.5752770
  15.4291180  24.5297660 124.9291530  12.1589250  28.1439740 132.3715450
  12.4892260  27.2760800 132.1394090  12.5880250  28.3498260 133.2020410
  16.7551170  26.4748750 130.0317420  16.4546710  26.3513720 130.9321330
  16.6488660  25.6157340 129.6233150  12.6479460  29.0110330 135.1097080
  12.2110450  29.1911130 135.9421230  13.2157140  29.7684950 134.9678800
  28.2841640  28.5127330 139.3974390  27.6843630  28.5719890 138.6538310
  28.4135540  27.5732310 139.5271240  29.5243090  26.2545150 124.7344100
  28.6936050  26.3221800 125.2051330  29.7014920  27.1449270 124.4310960
  28.9799550  22.9992630 127.2378300  29.7418460  23.5689280 127.3437990
  28.9953920  22.4319830 128.0086610  12.4803890  21.5230560 131.4685960
  11.8252730  21.2542200 130.8245660  13.3181840  21.4135040 131.0187940
  29.9859520  23.8542730 132.0820230  30.3568350  23.0710050 131.6756200
  30.6261450  24.5431830 131.9037530  26.9693280  25.2379310 137.4950550
  26.1553120  25.6676470 137.7576340  27.3767480  25.8497720 136.8819600
  29.0318720  23.2927000 124.3950820  29.3067560  24.2005880 124.2670040
  28.8429460  23.2289530 125.3312810  25.4294330  16.3171850 125.6904450
  25.8479210  16.1302830 124.8501110  25.1230390  15.4650900 126.0007380
  28.9284060  21.2295990 129.3880250  28.5527660  20.4623920 128.9561540
  28.1987180  21.6118690 129.8755180  13.5179820  21.9083130 136.0089300
  13.8852860  21.8210530 136.8885320  12.9490640  21.1449680 135.9096160
  28.3183680  20.3767510 139.0219770  28.0869770  20.1480260 138.1217720
  28.5788230  21.2967060 138.9764660  13.0695820  18.8192220 139.9147720
  12.1751870  18.7858980 140.2541430  13.6093370  19.0179010 140.6798970
  26.7571750  15.6023940 141.7999470  27.6341930  15.6107340 142.1833470
  26.7692590  14.8654780 141.1891820  11.6941970  18.7329490 127.4111290
  10.7906050  18.9959690 127.2362950  12.1782590  19.0040660 126.6311250
  28.2035020  19.4553480 132.6887490  28.7272500  18.9616130 132.0577660
  28.7894440  19.5903840 133.4335060  28.3824740  19.5393350 136.2107040
  27.4327450  19.5056890 136.3252030  28.5637750  20.4493460 135.9756810
  14.2369180  17.7895030 125.3205670  14.9460880  17.3678250 124.8352950
  13.5209120  17.8570260 124.6889020  13.8843340  13.8434360 124.3608320
  14.6071470  14.3843300 124.6789540  14.1567860  13.5697780 123.4849860
  27.6934990  18.7126830 128.6279900  28.1894110  18.4797700 129.4128780
  27.4951060  17.8738670 128.2117540  13.5735530  13.0940550 134.2630940
  14.2211720  12.5437930 133.8226100  13.9937370  13.3483700 135.0846750
  29.1222150  17.3487780 131.1617580  29.0121430  17.1943820 132.0999850
  29.8829740  16.8208720 130.9192990  27.4687870  13.2881910 137.6200580
  28.1060090  13.9016050 137.9859770  27.6162760  13.3242570 136.6749810
  30.0112420  15.1795700 124.4023720  30.9361730  15.0476880 124.1942010
  29.9888210  15.2588520 125.3560170  30.0850910  15.9506360 127.0280430
  29.2902410  15.8851480 127.5573340  30.2894190  16.8857000 127.0165780
  27.0269330  29.9897910 131.0218820  27.6228400  29.6682480 130.3453240
  27.2847480  29.5169730 131.8132090  13.3267530  13.2496220 137.0056260
  12.9782350  13.7060040 137.7714440  12.9955230  12.3553350 137.0878690
  14.9331900  26.4215820 141.1709450  14.8901530  26.0508730 142.0523910
  15.0642910  27.3593390 141.3111270  18.6337930  27.9775410 136.7719170
  18.3929290  28.2449970 135.8849690  19.5740570  28.1481140 136.8270030
  20.8392350  14.4408100 140.5275680  20.7781240  15.0329930 141.2771090
  21.7792730  14.3334060 140.3825940  23.4766910  14.0978160 140.1667970
  24.0907320  14.4157450 139.5049050  24.0216470  13.6126750 140.7863830
  29.8942090  29.9969790 137.5729810  29.4000370  30.3938660 136.8556940
  29.2855380  29.3719000 137.9667090  13.9988170  12.7772420 140.2807030
  14.5471160  12.5960470 139.5173140  14.0643480  11.9866530 140.8163340
  14.7719930  29.3678070 138.2907230  14.1780250  29.2362770 139.0297270
  14.7643770  28.5316210 137.8249330  24.2174950  12.6610300 136.4937260
  23.3434790  12.9945410 136.2910190  24.1085700  12.1883480 137.3189130
  25.1246930  14.8681170 137.8778980  24.7960290  14.0532930 137.4980710
  26.0729230  14.8250980 137.7544670  27.5781540  30.6393210 134.8516550
  27.1184510  31.3909020 134.4774570  26.9494000  29.9199680 134.7931350
  14.4032160  26.7336450 137.2415270  13.6766220  26.1141740 137.1741220
  14.4641310  27.1277060 136.3713350  18.0077260  28.9481450 134.0264680
  18.5242280  28.3368810 133.5012940  18.6574640  29.4510230 134.5175690
  20.7472760  29.8389940 134.8533660  21.0350570  29.5844240 133.9766670
  21.2595980  29.2867300 135.4439230  21.9649770  13.5780140 135.4330170
  21.1821560  14.0525640 135.7126930  21.6712700  12.6734970 135.3243350
  26.5170840  14.2803240 133.4779260  26.9578930  14.2248340 132.6300860
  26.2478430  15.1961250 133.5489440  28.3809410  13.9118480 131.4888080
  28.3197810  12.9679700 131.3419100  29.1601440  14.0198570 132.0341540
  12.6862160  30.0510840 130.4512030  12.5184200  29.4181520 131.1493920
  11.8196670  30.2570240 130.1006220  13.3090180  13.8827620 127.9543890
  14.0669540  13.9956500 127.3807920  12.8467350  14.7196820 127.9087320
  19.8503990  15.9966890 130.9446200  19.0378500  15.6223780 130.6042080
  20.3545630  15.2411970 131.2467390  24.3528970  12.6609340 132.1829270
  24.9558340  13.2329550 132.6577790  23.6121960  13.2248780 131.9603170
  27.4963570  13.0630900 127.4569550  27.6914200  13.9614350 127.7236980
  26.7093440  12.8317980 127.9502500  14.2924860  28.7444070 127.8962170
  13.7672480  29.1252100 127.1924130  14.2169440  29.3694840 128.6171880
  15.6815330  14.4091670 126.4945860  16.2108090  13.6221470 126.3653810
  16.3143650  15.0882860 126.7281390  17.8753170  14.1466810 129.5491250
  17.2455910  13.4454120 129.7161380  17.3358310  14.9070940 129.3324410
  20.8145120  30.7606040 142.2201860  21.7412430  30.5250310 142.2637820
  20.7995550  31.5878040 141.7387890  29.0490180  30.3031610 129.2176110
  29.2242370  29.6169350 128.5737030  28.3511750  30.8278660 128.8252780
  18.0008730  13.4250790 141.9843740  17.7193000  13.9284390 141.2204560
  18.3828430  12.6272540 141.6185870  16.8917830  30.6926450 126.7711420
  17.6236650  30.4085730 126.2235310  17.1511500  30.4539730 127.6610800
  16.0532620  26.8091180 126.7757750  15.4241500  27.2776280 127.3243580
  16.1680450  25.9640400 127.2103940  24.6024190  12.8404370 142.5624210
  24.4889640  13.1598980 143.4575730  25.4193930  13.2416880 142.2661490
  27.3822680  29.9875900 142.0442900  28.1748000  29.4925130 141.8368860
  27.6755830  30.6666040 142.6518510  23.5082340  20.8596840 112.9258950
  23.4276390  19.9451450 112.6550660  23.0946760  21.3563910 112.2198660
  21.6400380  22.6375860 114.8068220  20.8642480  22.1576300 115.0966790
  22.2913310  21.9581510 114.6324380  15.6566210  22.9495670 115.6843980
  14.8251090  22.6944380 116.0840490  16.2647190  23.0206440 116.4201900
  25.6607810  27.0436050 113.5867350  25.1989340  26.2723290 113.9154520
  26.4733360  27.0702120 114.0919800  15.6367470  26.9835760 115.8802000
  15.9395510  26.0933500 115.7012220  16.3811060  27.5405980 115.6524250
  14.0658160  17.9097560 109.4686370  13.1774860  18.2513530 109.3666250
  14.3499350  17.7097880 108.5767200  12.0291170  20.5103210 115.3526070
  12.6007280  19.7425410 115.3529710  12.0292710  20.8091970 114.4432680
  21.8871120  29.3294060 113.2071340  21.2682560  29.7851560 112.6365780
  22.7422900  29.4845520 112.8061040  21.0809370  25.3133050 114.8138380
  21.0117650  24.3722990 114.6527510  21.8429230  25.4034460 115.3860950
  13.2716040  15.9187570 117.1395000  13.0918880  15.0213320 117.4197760
  12.8696120  16.4659440 117.8141950  22.1114540  18.1203430 115.0407310
  22.4879360  17.2475310 114.9280980  22.0134050  18.4562130 114.1497750
  16.2419550  16.4929060 110.5024750  16.3486300  17.3932790 110.8093510
  15.3311910  16.4447030 110.2119400  25.8938660  15.6153870 111.9735650
  26.7148280  15.1250440 112.0161130  25.9272740  16.2051530 112.7267490
  13.8902710  18.4148070 115.7477340  14.5712820  18.6786440 116.3664740
  13.5750760  17.5748940 116.0815350  18.0827280  19.4615430 114.8349930
  18.5905500  19.9596400 115.4754950  18.6140520  18.6850630 114.6589290
  30.1838210  17.6320620 118.5379280  29.4790380  18.0202330 118.0194390
  30.4496130  18.3270910 119.1400210  16.3663380  14.1013990 119.1013350
  16.3681820  14.6186380 118.2959250  15.5367690  13.6244170 119.0783280
  22.7534470  24.2133300 110.6003250  22.1351740  24.6782750 110.0365970
  23.2657720  24.9060780 111.0172760  17.6166230  23.7409170 117.2786850
  17.2835610  24.3678090 117.9207920  17.7932910  24.2671050 116.4988520
  26.1300140  17.5554250 114.7463190  25.4255710  17.8439140 115.3266300
  26.4912300  18.3654360 114.3862750  16.0478710  15.8123950 117.1083800
  16.3895520  16.6566000 116.8137670  15.1094520  15.9607690 117.2249140
  16.8285330  25.7089970 119.0936030  17.4459330  26.3841050 118.8120480
  15.9678450  26.1177950 119.0023530  12.1217670  24.8989830 107.9742880
  11.7445650  25.3876930 107.2427780  12.3790740  25.5715110 108.6049410
  27.7462920  27.1729380 117.0090670  27.0626440  27.8428490 117.0007340
  28.2857210  27.3710030 116.2435530  29.1987060  17.0009040 115.1372400
  28.2511970  17.0348020 115.2687830  29.5237050  17.8147990 115.5221760
  19.7306600  13.3006220 113.4328390  20.0381580  12.7453110 112.7163890
  18.8007300  13.4350680 113.2501380  25.2821660  29.0173510 115.7235850
  25.2948820  28.6135800 114.8558110  24.7296880  29.7920800 115.6197280
  26.5767080  25.7389730 110.8126020  26.4663410  24.7964060 110.9375440
  26.5735330  26.1005370 111.6988780  24.6807100  23.9203350 117.0518460
  25.0975890  23.7063460 116.2171920  25.4046920  24.1776140 117.6227080
  22.1187360  21.3655050 110.1688510  21.1916640  21.2992430 110.3976980
  22.2712180  22.3035180 110.0543750  22.1056440  17.6372050 107.1655670
  21.1660110  17.7986010 107.2508130  22.4239700  18.3557730 106.6191660
  28.6269200  22.3190570 117.1434700  27.7987830  22.3883660 116.6684830
  29.2219680  22.9044880 116.6750530  26.1484650  22.9275350 110.6723760
  25.5297070  22.5894900 110.0250060  26.1309100  22.2835110 111.3802950
  25.5911210  19.1059890 118.0889570  25.1782390  19.9313600 118.3429560
  24.8587160  18.5204930 117.8965930  17.7244000  21.8919790 112.9508240
  17.3201000  21.1797040 112.4554140  17.8107120  21.5473030 113.8396280
  18.1925700  25.5787350 115.1147450  17.8953990  24.9732820 114.4355230
  19.1425520  25.6164660 115.0036810  16.4372620  18.6663000 116.7307280
  16.9887210  18.7758340 115.9560530  16.9516130  19.0400600 117.4462510
  26.2811310  29.1519220 118.7770550  25.8041870  29.9591410 118.5843160
  25.5973100  28.4997550 118.9296760  17.2844130  25.3169040 121.7655250
  16.3872660  25.5409010 122.0128650  17.3097000  25.4403980 120.8166650
  24.3249350  22.1662160 107.6796510  24.7642630  21.3284590 107.5334330
  25.0377770  22.7991560 107.7660650  16.1115350  22.1882360 120.3412620
  15.9723120  23.0605160 120.7100020  15.2296710  21.8455170 120.1960560
  22.4344730  27.1058230 111.6477750  22.8740640  27.8482560 111.2333140
  22.3731620  27.3484800 112.5716710  17.9095700  28.1304060 122.5497770
  17.8811130  28.5347010 121.6826200  17.7460670  27.2014420 122.3869370
  27.9066490  13.4204970 105.9937550  27.5939150  13.5131800 106.8936620
  28.6678960  13.9986000 105.9434980  14.4248630  20.7864770 110.4514890
  14.3046230  21.5126860 109.8396160  14.1149520  20.0167680 109.9742800
  29.8610520  28.9131160 123.8461940  30.3370240  29.3914050 124.5251020
  30.4817680  28.8448650 123.1207440  12.0634000  23.9579910 116.2583530
  12.1414420  24.0928680 115.3139250  12.6775680  23.2495800 116.4511650
  13.3081630  25.6580100 112.6689710  12.9009710  25.7994690 111.8143310
  14.1994640  25.3740260 112.4660920  29.2643770  26.1044010 121.0061950
  29.3906830  25.8655890 120.0879130  29.3065150  25.2728550 121.4784030
  23.1260510  29.8072010 119.5756760  23.6405180  29.7180020 120.3779190
  22.2829590  30.1531710 119.8684670  25.1014910  30.0927350 109.0040760
  24.9416050  29.8030290 109.9022590  24.9361620  29.3167480 108.4685990
  17.5803290  29.8725880 110.7812380  17.4045770  28.9561420 110.5680180
  16.7259030  30.2313170 111.0210180  24.8041040  27.6014910 107.5638760
  24.1106200  27.5992200 106.9041040  25.5463900  27.1774230 107.1332930
  24.3690970  29.2277620 111.6387250  24.8247920  28.4467000 111.9525870
  24.7083490  29.9384440 112.1828430  29.1167780  18.1576470 121.9711690
  28.5012050  18.6656140 121.4427150  28.7964200  17.2574800 121.9137630
  12.1193520  24.9994080 118.7977990  12.2824560  24.5299440 117.9797360
  12.5845970  24.4917640 119.4626830  16.8912290  14.1299840 113.8338560
  16.4480440  14.9109380 113.5023080  17.4497280  14.4529730 114.5409500
  21.1782100  16.9968360 119.4373880  20.7161470  17.2051380 120.2493820
  20.7760210  16.1827710 119.1344550  26.1786610  18.2177310 120.5670540
  25.3280200  17.9183060 120.8879610  26.0188400  18.4619320 119.6554360
  23.2736320  19.7179060 122.6669330  23.5989730  18.8842810 122.3271560
  24.0616650  20.2407580 122.8147660  20.0071110  13.7510540 108.7144390
  19.3825290  13.7470410 109.4397700  19.9201230  12.8841500 108.3180360
  18.9288190  14.6747170 115.6928160  19.2260520  15.5810000 115.6120180
  19.4773750  14.1865950 115.0787730  16.6826510  19.2533410 111.5619810
  16.4567430  19.0370580 112.4666430  15.9019040  19.6861870 111.2165780
  23.9124270  19.2596780 110.1610460  23.3133160  19.9832580 109.9774080
  24.4603880  19.1973560 109.3786910  19.1225720  20.1518990 122.2280080
  19.0269320  19.2113720 122.0780480  19.9657700  20.3734060 121.8328150
  22.5189140  17.8960320 112.1913740  22.9118710  18.2132520 111.3782430
  22.8805990  17.0172200 112.3058260  14.2536260  16.5632660 120.3813860
  13.8599650  17.4107870 120.5886640  13.5654660  15.9259030 120.5722500
  20.8281310  16.6467630 123.4510600  20.1379630  16.4539830 124.0856690
  21.5713610  16.9302270 123.9834900  11.5553310  14.4861120 114.4143940
  11.2666360  15.0563980 115.1268920  12.2999070  14.0065570 114.7775170
  11.7423540  18.4281240 105.6246660  11.6598210  19.3712000 105.7661650
  11.3906600  18.2856150 104.7459010  23.1044280  20.4866070 116.2864520
  22.3725400  20.9952880 116.6354620  22.7068620  19.6696050 115.9853300
  19.5421670  17.1620270 114.6917010  19.5457730  16.7210220 113.8421550
  20.4372790  17.4837600 114.7988830  15.3924050  17.0446760 113.6511220
  15.0524100  17.5221990 114.4078270  14.6301370  16.5911880 113.2912320
  19.6041820  18.1632350 107.6823770  19.7254640  18.1218830 108.6309590
  19.2190330  19.0256500 107.5270500  23.5670190  15.9399750 115.6987460
  23.5842930  16.3908400 116.5429310  23.3185770  15.0405390 115.9120900
  18.6163320  20.4733490 107.0807070  18.0480220  20.0251740 106.4542980
  19.3252320  20.8326270 106.5472220  26.9940940  13.3531930 121.5373840
  27.3186710  12.6221590 122.0631820  27.0297450  13.0345570 120.6354830
  13.6932500  24.3745510 120.9573800  13.3087290  23.7339180 121.5556760
  14.0044690  25.0781630 121.5268530  19.8429640  21.2222050 116.4382420
  20.2099770  20.7480620 117.1843760  19.6534700  22.0963620 116.7790760
  12.7070130  15.9665740 112.5675890  12.4217050  15.6021410 113.4054510
  12.6448990  15.2346200 111.9539030  17.6329010  20.2630690 118.7566630
  17.3286080  21.1422670 118.9816990  18.5875470  20.3230480 118.7924070
  16.1610800  24.4691680 109.3533480  15.3873060  23.9289300 109.1932200
  16.8905430  23.9498290 109.0151240  26.9198780  23.4657040 115.1459870
  27.6397900  23.9612330 114.7555980  26.7180600  22.7874930 114.5013740
  22.3808720  14.8595000 109.2889260  21.5673330  14.3608170 109.2134570
  22.1870670  15.6993250 108.8725610  22.3017580  23.5366100 121.0328870
  22.2354890  22.6161770 120.7786460  21.6722720  23.6341540 121.7473510
  25.0957110  19.2314650 107.5851420  25.9836730  19.5431880 107.4102760
  25.0662200  18.3586900 107.1932000  16.2048200  24.1372060 112.9912290
  16.7226870  23.3340320 112.9369180  15.7532220  24.0751200 113.8329120
  21.0917700  25.4038340 108.2639590  21.4333400  26.1480570 107.7682910
  20.2630410  25.7169460 108.6264420  13.6892740  21.1033430 119.9037990
  13.3307680  21.7687280 120.4911330  13.3947300  20.2716980 120.2750610
  16.8905860  21.5617670 122.7877540  16.5906000  21.7074850 121.8905360
  17.6617100  21.0022960 122.6950930  22.2334310  26.3586670 120.7832670
  22.2478850  25.4267630 120.5651580  21.5259410  26.4446430 121.4222440
  27.3671380  20.5426490 107.0531280  27.2835100  20.9740710 106.2027720
  28.0865570  21.0024840 107.4858100  28.4445520  22.9994010 120.1301250
  27.7193710  23.5922790 119.9330640  28.9720980  22.9917550 119.3314620
  28.3958630  27.3968750 109.7813410  27.7534790  26.7424370 110.0557130
  28.0089290  27.8023840 109.0054080  23.9745110  24.7254180 113.6285100
  24.3268930  24.1282310 112.9686470  23.0907440  24.3998410 113.7993350
  20.0608390  25.4851870 111.0355510  20.7479520  26.0321080 111.4163100
  19.2740810  26.0292600 111.0705120  12.2000790  21.1024690 106.5272590
  13.0695640  21.3849490 106.8108510  11.7091110  21.9160560 106.4121400
  19.3635600  22.4897900 110.6480870  19.8198380  23.3003150 110.8741060
  19.0123810  22.1721040 111.4799360  21.6668210  28.0004240 117.8773170
  22.3110430  28.2063620 118.5546590  22.0297650  27.2392640 117.4244020
  15.2647380  12.8335550 111.1203390  15.1362010  12.8253450 112.0688310
  14.4409400  13.1718640 110.7694400  22.9400290  26.0036590 116.5950620
  23.5822520  25.3029750 116.7082790  23.4649640  26.7835030 116.4147510
  26.7856010  26.2885210 106.3189760  26.5593590  25.5715650 106.9114400
  26.3952210  26.0397650 105.4811510  24.7137910  26.8031490 119.7986680
  25.0494150  27.3898180 120.4764600  23.7938250  26.6724200 120.0284470
  12.5672040  30.3152070 107.0934220  12.9269680  30.9141410 106.4391490
  12.4264380  30.8611960 107.8669250  12.2641310  14.5926670 120.5810090
  11.5499830  14.7923590 121.1862700  12.6836350  13.8166240 120.9524890
  26.3672260  24.2057150 107.9803920  26.0793960  24.6669840 108.7681800
  27.1624430  23.7454920 108.2488140  12.5513900  28.5806930 121.5676620
  12.6605020  27.6401670 121.4272010  11.8994460  28.8461680 120.9190350
  20.5426490  26.8522820 122.9674740  20.2223360  26.1332060 123.5120430
  19.8684850  27.5277890 123.0410800  18.5840660  27.6983270 107.9107890
  18.5750760  28.4312960 107.2952400  17.6639020  27.4514850 108.0034850
  14.1847300  22.9198160 108.6554650  13.5775250  23.6597060 108.6649950
  14.6596650  23.0097520 107.8292850  23.7580090  17.0848980 118.3311540
  24.1260910  16.2644190 118.6591110  22.8978290  17.1450870 118.7467190
  27.1242120  16.0405920 109.1399100  26.4955280  16.1451590 108.4257330
  26.6294040  16.2602700 109.9292980  21.5700260  27.7611510 106.5733080
  21.6712240  27.5575500 105.6435060  20.6702000  27.5069790 106.7780860
  19.0926150  18.3191870 110.5556980  18.3842300  18.7878210 110.9970590
  19.3770630  17.6613880 111.1902170  20.7182080  19.7388570 118.5549510
  21.2167330  20.2134390 119.2201360  20.8605030  18.8152090 118.7619540
  23.1241580  15.0442530 111.9952770  23.0009360  15.0628660 111.0462280
  24.0726140  15.0921470 112.1151170  20.2118370  30.2797830 111.2680750
  20.4659870  30.2419220 110.3460120  19.2630850  30.1531160 111.2609000
  17.2961170  16.6276950 107.9307690  18.1451700  17.0647100 107.8647880
  16.9292440  16.9397210 108.7579750  27.9248940  15.9556530 119.3977900
  27.4222540  16.6961930 119.7371710  28.7405600  16.3440530 119.0814690
  26.2170950  21.1989710 112.8439260  25.2761090  21.2139940 113.0186950
  26.5315020  20.4125670 113.2899560  16.1952590  22.8809310 106.4043220
  16.9615860  22.7690670 106.9668650  16.2727280  22.1847280 105.7519990
  14.8899350  20.3134380 107.0876110  14.9702940  19.3661890 107.1993510
  15.7819100  20.6441260 107.1936770  28.2196530  28.3698560 114.5193520
  28.3443950  29.1929730 114.9917330  29.0862090  28.1589290 114.1717670
  15.6914060  30.4629770 114.1910650  16.4276540  29.9145230 114.4619220
  16.0754980  31.3285780 114.0516640  12.5759540  26.5303340 110.0652160
  11.6499320  26.7724480 110.0557570  13.0415970  27.3577600 109.9436910
  14.6972340  29.6475840 123.3796230  15.4985070  29.9687890 123.7931630
  14.1824160  29.2871420 124.1016140  18.8016370  29.6360080 106.0136220
  19.5944980  29.9248910 105.5618010  18.2820720  29.2052250 105.3348700
  23.5336970  25.7555710 123.3271640  22.9275130  25.7787310 122.5867390
  23.2291080  25.0238750 123.8638890  24.9637340  29.4836000 121.9381050
  25.9159090  29.3994020 121.8881290  24.8165560  30.1477710 122.6114840
  27.8546540  28.8630210 107.4372960  27.5688050  28.4495350 106.6227140
  27.6566090  29.7917920 107.3173480  12.4170150  22.1349300 122.3232280
  12.9209170  21.5556580 122.8948510  11.6777570  22.4189530 122.8608650
  19.3193770  24.8563490 105.8778570  19.2144410  24.2415840 106.6039950
  19.1517990  24.3329380 105.0941580  19.4708090  23.5420290 121.8567800
  18.7053760  24.1105290 121.7722470  19.6524050  23.2496500 120.9636030
  22.5596500  23.9183520 106.4820560  22.0106600  24.3652820 107.1263300
  23.1815760  23.4132770 107.0058230  26.6131440  25.2725620 122.4142820
  27.3540910  25.6101380 121.9110280  25.8504120  25.4417680 121.8612590
  14.4493230  20.2778890 123.2182350  14.4898570  19.9792760 124.1267580
  15.3038730  20.6786500 123.0589870  18.2271620  22.8774440 108.3785860
  18.6488040  22.7114310 109.2217250  18.3522460  22.0674670 107.8841000
  16.3899040  18.8570990 121.1856840  15.8595500  18.3661940 120.5580180
  17.0587110  19.2855190 120.6514770  20.7399260  21.9012050 105.6262960
  21.2604920  21.1861070 105.2604110  21.3867660  22.5397920 105.9263470
  25.2877100  23.3240450 120.9498030  25.7018120  23.4785530 121.7988450
  24.3528100  23.4495670 121.1123810  25.7599270  20.6636610 122.9537180
  26.3420040  19.9088930 122.8657660  25.9361040  21.1944050 122.1768660
  16.8771340  15.8233360 121.2654130  16.7828210  15.2054110 120.5405000
  16.2968730  16.5499650 121.0384040  19.6432780  14.3806600 118.2981520
  19.1950080  14.4030860 117.4527070  19.0097980  13.9825620 118.8951820
  20.0492330  23.2760930 118.9193960  20.4680440  24.1193660 118.7470200
  19.1300960  23.4132970 118.6900740  22.3856230  21.0077110 120.3031800
  22.5052440  20.4118250 121.0426640  23.2450230  21.0446800 119.8833100
  24.7244130  21.5614300 118.8794310  24.1979350  22.0856920 118.2759450
  25.0675470  22.1941690 119.5104040  17.1230520  18.9507670 105.3244020
  16.9219580  18.0875030 105.6857360  16.9522570  18.8641030 104.3865620
  17.8999750  29.5813940 120.0351690  17.3620840  30.3060000 119.7160390
  18.1533710  29.1044280 119.2449030  19.1525000  17.5498460 121.5607620
  19.7424690  17.2414310 122.2485440  18.3345240  17.0778210 121.7167520
  23.9718430  17.1664270 121.7940640  23.2833950  16.5045810 121.7290630
  24.6924450  16.7202540 122.2389100  24.6018830  13.7615900 107.8530900
  24.8821120  12.9183800 108.2090320  23.8284560  13.9939010 108.3669650
  15.9213320  16.0508290 105.3121900  16.2239220  16.0575720 104.4041050
  16.6607910  15.7006150 105.8089560  20.7561960  30.8165150 120.2938340
  20.6820660  31.7200290 120.6010710  19.8540800  30.4977050 120.2660410
  19.1398250  14.9942910 106.2978100  18.7920250  14.3166900 105.7180550
  19.3411020  14.5332420 107.1121490  21.3047290  29.9823660 107.9164700
  22.1998080  30.3208630 107.9383460  21.3364920  29.2603070 107.2888980
  14.9443450  25.3550710 106.1451700  15.3818320  25.8980380 106.8009280
  15.4291180  24.5297660 106.1548040  12.1589250  28.1439740 113.5971960
  12.4892260  27.2760800 113.3650600  12.5880250  28.3498260 114.4276920
  16.7551170  26.4748750 111.2573930  16.4546710  26.3513720 112.1577840
  16.6488660  25.6157340 110.8489660  12.6479460  29.0110330 116.3353590
  12.2110450  29.1911130 117.1677740  13.2157140  29.7684950 116.1935310
  28.2841640  28.5127330 120.6230900  27.6843630  28.5719890 119.8794820
  28.4135540  27.5732310 120.7527750  29.5243090  26.2545150 105.9600610
  28.6936050  26.3221800 106.4307840  29.7014920  27.1449270 105.6567470
  28.9799550  22.9992630 108.4634810  29.7418460  23.5689280 108.5694500
  28.9953920  22.4319830 109.2343120  12.4803890  21.5230560 112.6942470
  11.8252730  21.2542200 112.0502170  13.3181840  21.4135040 112.2444450
  29.9859520  23.8542730 113.3076740  30.3568350  23.0710050 112.9012710
  30.6261450  24.5431830 113.1294040  26.9693280  25.2379310 118.7207060
  26.1553120  25.6676470 118.9832850  27.3767480  25.8497720 118.1076110
  29.0318720  23.2927000 105.6207330  29.3067560  24.2005880 105.4926550
  28.8429460  23.2289530 106.5569320  25.4294330  16.3171850 106.9160960
  25.8479210  16.1302830 106.0757620  25.1230390  15.4650900 107.2263890
  28.9284060  21.2295990 110.6136760  28.5527660  20.4623920 110.1818050
  28.1987180  21.6118690 111.1011690  13.5179820  21.9083130 117.2345810
  13.8852860  21.8210530 118.1141830  12.9490640  21.1449680 117.1352670
  28.3183680  20.3767510 120.2476280  28.0869770  20.1480260 119.3474230
  28.5788230  21.2967060 120.2021170  13.0695820  18.8192220 121.1404230
  12.1751870  18.7858980 121.4797940  13.6093370  19.0179010 121.9055480
  26.7571750  15.6023940 123.0255980  27.6341930  15.6107340 123.4089980
  26.7692590  14.8654780 122.4148330  11.6941970  18.7329490 108.6367800
  10.7906050  18.9959690 108.4619460  12.1782590  19.0040660 107.8567760
  28.2035020  19.4553480 113.9144000  28.7272500  18.9616130 113.2834170
  28.7894440  19.5903840 114.6591570  28.3824740  19.5393350 117.4363550
  27.4327450  19.5056890 117.5508540  28.5637750  20.4493460 117.2013320
  14.2369180  17.7895030 106.5462180  14.9460880  17.3678250 106.0609460
  13.5209120  17.8570260 105.9145530  13.8843340  13.8434360 105.5864830
  14.6071470  14.3843300 105.9046050  14.1567860  13.5697780 104.7106370
  27.6934990  18.7126830 109.8536410  28.1894110  18.4797700 110.6385290
  27.4951060  17.8738670 109.4374050  13.5735530  13.0940550 115.4887450
  14.2211720  12.5437930 115.0482610  13.9937370  13.3483700 116.3103260
  29.1222150  17.3487780 112.3874090  29.0121430  17.1943820 113.3256360
  29.8829740  16.8208720 112.1449500  27.4687870  13.2881910 118.8457090
  28.1060090  13.9016050 119.2116280  27.6162760  13.3242570 117.9006320
  30.0112420  15.1795700 105.6280230  30.9361730  15.0476880 105.4198520
  29.9888210  15.2588520 106.5816680  30.0850910  15.9506360 108.2536940
  29.2902410  15.8851480 108.7829850  30.2894190  16.8857000 108.2422290
  27.0269330  29.9897910 112.2475330  27.6228400  29.6682480 111.5709750
  27.2847480  29.5169730 113.0388600  13.3267530  13.2496220 118.2312770
  12.9782350  13.7060040 118.9970950  12.9955230  12.3553350 118.3135200
  14.9331900  26.4215820 122.3965960  14.8901530  26.0508730 123.2780420
  15.0642910  27.3593390 122.5367780  18.6337930  27.9775410 117.9975680
  18.3929290  28.2449970 117.1106200  19.5740570  28.1481140 118.0526540
  20.8392350  14.4408100 121.7532190  20.7781240  15.0329930 122.5027600
  21.7792730  14.3334060 121.6082450  23.4766910  14.0978160 121.3924480
  24.0907320  14.4157450 120.7305560  24.0216470  13.6126750 122.0120340
  29.8942090  29.9969790 118.7986320  29.4000370  30.3938660 118.0813450
  29.2855380  29.3719000 119.1923600  13.9988170  12.7772420 121.5063540
  14.5471160  12.5960470 120.7429650  14.0643480  11.9866530 122.0419850
  14.7719930  29.3678070 119.5163740  14.1780250  29.2362770 120.2553780
  14.7643770  28.5316210 119.0505840  24.2174950  12.6610300 117.7193770
  23.3434790  12.9945410 117.5166700  24.1085700  12.1883480 118.5445640
  25.1246930  14.8681170 119.1035490  24.7960290  14.0532930 118.7237220
  26.0729230  14.8250980 118.9801180  27.5781540  30.6393210 116.0773060
  27.1184510  31.3909020 115.7031080  26.9494000  29.9199680 116.0187860
  14.4032160  26.7336450 118.4671780  13.6766220  26.1141740 118.3997730
  14.4641310  27.1277060 117.5969860  18.0077260  28.9481450 115.2521190
  18.5242280  28.3368810 114.7269450  18.6574640  29.4510230 115.7432200
  20.7472760  29.8389940 116.0790170  21.0350570  29.5844240 115.2023180
  21.2595980  29.2867300 116.6695740  21.9649770  13.5780140 116.6586680
  21.1821560  14.0525640 116.9383440  21.6712700  12.6734970 116.5499860
  26.5170840  14.2803240 114.7035770  26.9578930  14.2248340 113.8557370
  26.2478430  15.1961250 114.7745950  28.3809410  13.9118480 112.7144590
  28.3197810  12.9679700 112.5675610  29.1601440  14.0198570 113.2598050
  12.6862160  30.0510840 111.6768540  12.5184200  29.4181520 112.3750430
  11.8196670  30.2570240 111.3262730  13.3090180  13.8827620 109.1800400
  14.0669540  13.9956500 108.6064430  12.8467350  14.7196820 109.1343830
  19.8503990  15.9966890 112.1702710  19.0378500  15.6223780 111.8298590
  20.3545630  15.2411970 112.4723900  24.3528970  12.6609340 113.4085780
  24.9558340  13.2329550 113.8834300  23.6121960  13.2248780 113.1859680
  27.4963570  13.0630900 108.6826060  27.6914200  13.9614350 108.9493490
  26.7093440  12.8317980 109.1759010  14.2924860  28.7444070 109.1218680
  13.7672480  29.1252100 108.4180640  14.2169440  29.3694840 109.8428390
  15.6815330  14.4091670 107.7202370  16.2108090  13.6221470 107.5910320
  16.3143650  15.0882860 107.9537900  17.8753170  14.1466810 110.7747760
  17.2455910  13.4454120 110.9417890  17.3358310  14.9070940 110.5580920
  20.8145120  30.7606040 123.4458370  21.7412430  30.5250310 123.4894330
  20.7995550  31.5878040 122.9644400  29.0490180  30.3031610 110.4432620
  29.2242370  29.6169350 109.7993540  28.3511750  30.8278660 110.0509290
  18.0008730  13.4250790 123.2100250  17.7193000  13.9284390 122.4461070
  18.3828430  12.6272540 122.8442380  16.8917830  30.6926450 107.9967930
  17.6236650  30.4085730 107.4491820  17.1511500  30.4539730 108.8867310
  16.0532620  26.8091180 108.0014260  15.4241500  27.2776280 108.5500090
  16.1680450  25.9640400 108.4360450  24.6024190  12.8404370 123.7880720
  24.4889640  13.1598980 124.6832240  25.4193930  13.2416880 123.4918000
  27.3822680  29.9875900 123.2699410  28.1748000  29.4925130 123.0625370
  27.6755830  30.6666040 123.8775020  23.5082340  20.8596840  94.1515460
  23.4276390  19.9451450  93.8807170  23.0946760  21.3563910  93.4455170
  21.6400380  22.6375860  96.0324730  20.8642480  22.1576300  96.3223300
  22.2913310  21.9581510  95.8580890  15.6566210  22.9495670  96.9100490
  14.8251090  22.6944380  97.3097000  16.2647190  23.0206440  97.6458410
  25.6607810  27.0436050  94.8123860  25.1989340  26.2723290  95.1411030
  26.4733360  27.0702120  95.3176310  15.6367470  26.9835760  97.1058510
  15.9395510  26.0933500  96.9268730  16.3811060  27.5405980  96.8780760
  14.0658160  17.9097560  90.6942880  13.1774860  18.2513530  90.5922760
  14.3499350  17.7097880  89.8023710  12.0291170  20.5103210  96.5782580
  12.6007280  19.7425410  96.5786220  12.0292710  20.8091970  95.6689190
  21.8871120  29.3294060  94.4327850  21.2682560  29.7851560  93.8622290
  22.7422900  29.4845520  94.0317550  21.0809370  25.3133050  96.0394890
  21.0117650  24.3722990  95.8784020  21.8429230  25.4034460  96.6117460
  13.2716040  15.9187570  98.3651510  13.0918880  15.0213320  98.6454270
  12.8696120  16.4659440  99.0398460  22.1114540  18.1203430  96.2663820
  22.4879360  17.2475310  96.1537490  22.0134050  18.4562130  95.3754260
  16.2419550  16.4929060  91.7281260  16.3486300  17.3932790  92.0350020
  15.3311910  16.4447030  91.4375910  25.8938660  15.6153870  93.1992160
  26.7148280  15.1250440  93.2417640  25.9272740  16.2051530  93.9524000
  13.8902710  18.4148070  96.9733850  14.5712820  18.6786440  97.5921250
  13.5750760  17.5748940  97.3071860  18.0827280  19.4615430  96.0606440
  18.5905500  19.9596400  96.7011460  18.6140520  18.6850630  95.8845800
  30.1838210  17.6320620  99.7635790  29.4790380  18.0202330  99.2450900
  30.4496130  18.3270910 100.3656720  16.3663380  14.1013990 100.3269860
  16.3681820  14.6186380  99.5215760  15.5367690  13.6244170 100.3039790
  22.7534470  24.2133300  91.8259760  22.1351740  24.6782750  91.2622480
  23.2657720  24.9060780  92.2429270  17.6166230  23.7409170  98.5043360
  17.2835610  24.3678090  99.1464430  17.7932910  24.2671050  97.7245030
  26.1300140  17.5554250  95.9719700  25.4255710  17.8439140  96.5522810
  26.4912300  18.3654360  95.6119260  16.0478710  15.8123950  98.3340310
  16.3895520  16.6566000  98.0394180  15.1094520  15.9607690  98.4505650
  16.8285330  25.7089970 100.3192540  17.4459330  26.3841050 100.0376990
  15.9678450  26.1177950 100.2280040  12.1217670  24.8989830  89.1999390
  11.7445650  25.3876930  88.4684290  12.3790740  25.5715110  89.8305920
  27.7462920  27.1729380  98.2347180  27.0626440  27.8428490  98.2263850
  28.2857210  27.3710030  97.4692040  29.1987060  17.0009040  96.3628910
  28.2511970  17.0348020  96.4944340  29.5237050  17.8147990  96.7478270
  19.7306600  13.3006220  94.6584900  20.0381580  12.7453110  93.9420400
  18.8007300  13.4350680  94.4757890  25.2821660  29.0173510  96.9492360
  25.2948820  28.6135800  96.0814620  24.7296880  29.7920800  96.8453790
  26.5767080  25.7389730  92.0382530  26.4663410  24.7964060  92.1631950
  26.5735330  26.1005370  92.9245290  24.6807100  23.9203350  98.2774970
  25.0975890  23.7063460  97.4428430  25.4046920  24.1776140  98.8483590
  22.1187360  21.3655050  91.3945020  21.1916640  21.2992430  91.6233490
  22.2712180  22.3035180  91.2800260  22.1056440  17.6372050  88.3912180
  21.1660110  17.7986010  88.4764640  22.4239700  18.3557730  87.8448170
  28.6269200  22.3190570  98.3691210  27.7987830  22.3883660  97.8941340
  29.2219680  22.9044880  97.9007040  26.1484650  22.9275350  91.8980270
  25.5297070  22.5894900  91.2506570  26.1309100  22.2835110  92.6059460
  25.5911210  19.1059890  99.3146080  25.1782390  19.9313600  99.5686070
  24.8587160  18.5204930  99.1222440  17.7244000  21.8919790  94.1764750
  17.3201000  21.1797040  93.6810650  17.8107120  21.5473030  95.0652790
  18.1925700  25.5787350  96.3403960  17.8953990  24.9732820  95.6611740
  19.1425520  25.6164660  96.2293320  16.4372620  18.6663000  97.9563790
  16.9887210  18.7758340  97.1817040  16.9516130  19.0400600  98.6719020
  26.2811310  29.1519220 100.0027060  25.8041870  29.9591410  99.8099670
  25.5973100  28.4997550 100.1553270  17.2844130  25.3169040 102.9911760
  16.3872660  25.5409010 103.2385160  17.3097000  25.4403980 102.0423160
  24.3249350  22.1662160  88.9053020  24.7642630  21.3284590  88.7590840
  25.0377770  22.7991560  88.9917160  16.1115350  22.1882360 101.5669130
  15.9723120  23.0605160 101.9356530  15.2296710  21.8455170 101.4217070
  22.4344730  27.1058230  92.8734260  22.8740640  27.8482560  92.4589650
  22.3731620  27.3484800  93.7973220  17.9095700  28.1304060 103.7754280
  17.8811130  28.5347010 102.9082710  17.7460670  27.2014420 103.6125880
  27.9066490  13.4204970  87.2194060  27.5939150  13.5131800  88.1193130
  28.6678960  13.9986000  87.1691490  14.4248630  20.7864770  91.6771400
  14.3046230  21.5126860  91.0652670  14.1149520  20.0167680  91.1999310
  29.8610520  28.9131160 105.0718450  30.3370240  29.3914050 105.7507530
  30.4817680  28.8448650 104.3463950  12.0634000  23.9579910  97.4840040
  12.1414420  24.0928680  96.5395760  12.6775680  23.2495800  97.6768160
  13.3081630  25.6580100  93.8946220  12.9009710  25.7994690  93.0399820
  14.1994640  25.3740260  93.6917430  29.2643770  26.1044010 102.2318460
  29.3906830  25.8655890 101.3135640  29.3065150  25.2728550 102.7040540
  23.1260510  29.8072010 100.8013270  23.6405180  29.7180020 101.6035700
  22.2829590  30.1531710 101.0941180  25.1014910  30.0927350  90.2297270
  24.9416050  29.8030290  91.1279100  24.9361620  29.3167480  89.6942500
  17.5803290  29.8725880  92.0068890  17.4045770  28.9561420  91.7936690
  16.7259030  30.2313170  92.2466690  24.8041040  27.6014910  88.7895270
  24.1106200  27.5992200  88.1297550  25.5463900  27.1774230  88.3589440
  24.3690970  29.2277620  92.8643760  24.8247920  28.4467000  93.1782380
  24.7083490  29.9384440  93.4084940  29.1167780  18.1576470 103.1968200
  28.5012050  18.6656140 102.6683660  28.7964200  17.2574800 103.1394140
  12.1193520  24.9994080 100.0234500  12.2824560  24.5299440  99.2053870
  12.5845970  24.4917640 100.6883340  16.8912290  14.1299840  95.0595070
  16.4480440  14.9109380  94.7279590  17.4497280  14.4529730  95.7666010
  21.1782100  16.9968360 100.6630390  20.7161470  17.2051380 101.4750330
  20.7760210  16.1827710 100.3601060  26.1786610  18.2177310 101.7927050
  25.3280200  17.9183060 102.1136120  26.0188400  18.4619320 100.8810870
  23.2736320  19.7179060 103.8925840  23.5989730  18.8842810 103.5528070
  24.0616650  20.2407580 104.0404170  20.0071110  13.7510540  89.9400900
  19.3825290  13.7470410  90.6654210  19.9201230  12.8841500  89.5436870
  18.9288190  14.6747170  96.9184670  19.2260520  15.5810000  96.8376690
  19.4773750  14.1865950  96.3044240  16.6826510  19.2533410  92.7876320
  16.4567430  19.0370580  93.6922940  15.9019040  19.6861870  92.4422290
  23.9124270  19.2596780  91.3866970  23.3133160  19.9832580  91.2030590
  24.4603880  19.1973560  90.6043420  19.1225720  20.1518990 103.4536590
  19.0269320  19.2113720 103.3036990  19.9657700  20.3734060 103.0584660
  22.5189140  17.8960320  93.4170250  22.9118710  18.2132520  92.6038940
  22.8805990  17.0172200  93.5314770  14.2536260  16.5632660 101.6070370
  13.8599650  17.4107870 101.8143150  13.5654660  15.9259030 101.7979010
  20.8281310  16.6467630 104.6767110  20.1379630  16.4539830 105.3113200
  21.5713610  16.9302270 105.2091410  11.5553310  14.4861120  95.6400450
  11.2666360  15.0563980  96.3525430  12.2999070  14.0065570  96.0031680
  11.7423540  18.4281240  86.8503170  11.6598210  19.3712000  86.9918160
  11.3906600  18.2856150  85.9715520  23.1044280  20.4866070  97.5121030
  22.3725400  20.9952880  97.8611130  22.7068620  19.6696050  97.2109810
  19.5421670  17.1620270  95.9173520  19.5457730  16.7210220  95.0678060
  20.4372790  17.4837600  96.0245340  15.3924050  17.0446760  94.8767730
  15.0524100  17.5221990  95.6334780  14.6301370  16.5911880  94.5168830
  19.6041820  18.1632350  88.9080280  19.7254640  18.1218830  89.8566100
  19.2190330  19.0256500  88.7527010  23.5670190  15.9399750  96.9243970
  23.5842930  16.3908400  97.7685820  23.3185770  15.0405390  97.1377410
  18.6163320  20.4733490  88.3063580  18.0480220  20.0251740  87.6799490
  19.3252320  20.8326270  87.7728730  26.9940940  13.3531930 102.7630350
  27.3186710  12.6221590 103.2888330  27.0297450  13.0345570 101.8611340
  13.6932500  24.3745510 102.1830310  13.3087290  23.7339180 102.7813270
  14.0044690  25.0781630 102.7525040  19.8429640  21.2222050  97.6638930
  20.2099770  20.7480620  98.4100270  19.6534700  22.0963620  98.0047270
  12.7070130  15.9665740  93.7932400  12.4217050  15.6021410  94.6311020
  12.6448990  15.2346200  93.1795540  17.6329010  20.2630690  99.9823140
  17.3286080  21.1422670 100.2073500  18.5875470  20.3230480 100.0180580
  16.1610800  24.4691680  90.5789990  15.3873060  23.9289300  90.4188710
  16.8905430  23.9498290  90.2407750  26.9198780  23.4657040  96.3716380
  27.6397900  23.9612330  95.9812490  26.7180600  22.7874930  95.7270250
  22.3808720  14.8595000  90.5145770  21.5673330  14.3608170  90.4391080
  22.1870670  15.6993250  90.0982120  22.3017580  23.5366100 102.2585380
  22.2354890  22.6161770 102.0042970  21.6722720  23.6341540 102.9730020
  25.0957110  19.2314650  88.8107930  25.9836730  19.5431880  88.6359270
  25.0662200  18.3586900  88.4188510  16.2048200  24.1372060  94.2168800
  16.7226870  23.3340320  94.1625690  15.7532220  24.0751200  95.0585630
  21.0917700  25.4038340  89.4896100  21.4333400  26.1480570  88.9939420
  20.2630410  25.7169460  89.8520930  13.6892740  21.1033430 101.1294500
  13.3307680  21.7687280 101.7167840  13.3947300  20.2716980 101.5007120
  16.8905860  21.5617670 104.0134050  16.5906000  21.7074850 103.1161870
  17.6617100  21.0022960 103.9207440  22.2334310  26.3586670 102.0089180
  22.2478850  25.4267630 101.7908090  21.5259410  26.4446430 102.6478950
  27.3671380  20.5426490  88.2787790  27.2835100  20.9740710  87.4284230
  28.0865570  21.0024840  88.7114610  28.4445520  22.9994010 101.3557760
  27.7193710  23.5922790 101.1587150  28.9720980  22.9917550 100.5571130
  28.3958630  27.3968750  91.0069920  27.7534790  26.7424370  91.2813640
  28.0089290  27.8023840  90.2310590  23.9745110  24.7254180  94.8541610
  24.3268930  24.1282310  94.1942980  23.0907440  24.3998410  95.0249860
  20.0608390  25.4851870  92.2612020  20.7479520  26.0321080  92.6419610
  19.2740810  26.0292600  92.2961630  12.2000790  21.1024690  87.7529100
  13.0695640  21.3849490  88.0365020  11.7091110  21.9160560  87.6377910
  19.3635600  22.4897900  91.8737380  19.8198380  23.3003150  92.0997570
  19.0123810  22.1721040  92.7055870  21.6668210  28.0004240  99.1029680
  22.3110430  28.2063620  99.7803100  22.0297650  27.2392640  98.6500530
  15.2647380  12.8335550  92.3459900  15.1362010  12.8253450  93.2944820
  14.4409400  13.1718640  91.9950910  22.9400290  26.0036590  97.8207130
  23.5822520  25.3029750  97.9339300  23.4649640  26.7835030  97.6404020
  26.7856010  26.2885210  87.5446270  26.5593590  25.5715650  88.1370910
  26.3952210  26.0397650  86.7068020  24.7137910  26.8031490 101.0243190
  25.0494150  27.3898180 101.7021110  23.7938250  26.6724200 101.2540980
  12.5672040  30.3152070  88.3190730  12.9269680  30.9141410  87.6648000
  12.4264380  30.8611960  89.0925760  12.2641310  14.5926670 101.8066600
  11.5499830  14.7923590 102.4119210  12.6836350  13.8166240 102.1781400
  26.3672260  24.2057150  89.2060430  26.0793960  24.6669840  89.9938310
  27.1624430  23.7454920  89.4744650  12.5513900  28.5806930 102.7933130
  12.6605020  27.6401670 102.6528520  11.8994460  28.8461680 102.1446860
  20.5426490  26.8522820 104.1931250  20.2223360  26.1332060 104.7376940
  19.8684850  27.5277890 104.2667310  18.5840660  27.6983270  89.1364400
  18.5750760  28.4312960  88.5208910  17.6639020  27.4514850  89.2291360
  14.1847300  22.9198160  89.8811160  13.5775250  23.6597060  89.8906460
  14.6596650  23.0097520  89.0549360  23.7580090  17.0848980  99.5568050
  24.1260910  16.2644190  99.8847620  22.8978290  17.1450870  99.9723700
  27.1242120  16.0405920  90.3655610  26.4955280  16.1451590  89.6513840
  26.6294040  16.2602700  91.1549490  21.5700260  27.7611510  87.7989590
  21.6712240  27.5575500  86.8691570  20.6702000  27.5069790  88.0037370
  19.0926150  18.3191870  91.7813490  18.3842300  18.7878210  92.2227100
  19.3770630  17.6613880  92.4158680  20.7182080  19.7388570  99.7806020
  21.2167330  20.2134390 100.4457870  20.8605030  18.8152090  99.9876050
  23.1241580  15.0442530  93.2209280  23.0009360  15.0628660  92.2718790
  24.0726140  15.0921470  93.3407680  20.2118370  30.2797830  92.4937260
  20.4659870  30.2419220  91.5716630  19.2630850  30.1531160  92.4865510
  17.2961170  16.6276950  89.1564200  18.1451700  17.0647100  89.0904390
  16.9292440  16.9397210  89.9836260  27.9248940  15.9556530 100.6234410
  27.4222540  16.6961930 100.9628220  28.7405600  16.3440530 100.3071200
  26.2170950  21.1989710  94.0695770  25.2761090  21.2139940  94.2443460
  26.5315020  20.4125670  94.5156070  16.1952590  22.8809310  87.6299730
  16.9615860  22.7690670  88.1925160  16.2727280  22.1847280  86.9776500
  14.8899350  20.3134380  88.3132620  14.9702940  19.3661890  88.4250020
  15.7819100  20.6441260  88.4193280  28.2196530  28.3698560  95.7450030
  28.3443950  29.1929730  96.2173840  29.0862090  28.1589290  95.3974180
  15.6914060  30.4629770  95.4167160  16.4276540  29.9145230  95.6875730
  16.0754980  31.3285780  95.2773150  12.5759540  26.5303340  91.2908670
  11.6499320  26.7724480  91.2814080  13.0415970  27.3577600  91.1693420
  14.6972340  29.6475840 104.6052740  15.4985070  29.9687890 105.0188140
  14.1824160  29.2871420 105.3272650  18.8016370  29.6360080  87.2392730
  19.5944980  29.9248910  86.7874520  18.2820720  29.2052250  86.5605210
  23.5336970  25.7555710 104.5528150  22.9275130  25.7787310 103.8123900
  23.2291080  25.0238750 105.0895400  24.9637340  29.4836000 103.1637560
  25.9159090  29.3994020 103.1137800  24.8165560  30.1477710 103.8371350
  27.8546540  28.8630210  88.6629470  27.5688050  28.4495350  87.8483650
  27.6566090  29.7917920  88.5429990  12.4170150  22.1349300 103.5488790
  12.9209170  21.5556580 104.1205020  11.6777570  22.4189530 104.0865160
  19.3193770  24.8563490  87.1035080  19.2144410  24.2415840  87.8296460
  19.1517990  24.3329380  86.3198090  19.4708090  23.5420290 103.0824310
  18.7053760  24.1105290 102.9978980  19.6524050  23.2496500 102.1892540
  22.5596500  23.9183520  87.7077070  22.0106600  24.3652820  88.3519810
  23.1815760  23.4132770  88.2314740  26.6131440  25.2725620 103.6399330
  27.3540910  25.6101380 103.1366790  25.8504120  25.4417680 103.0869100
  14.4493230  20.2778890 104.4438860  14.4898570  19.9792760 105.3524090
  15.3038730  20.6786500 104.2846380  18.2271620  22.8774440  89.6042370
  18.6488040  22.7114310  90.4473760  18.3522460  22.0674670  89.1097510
  16.3899040  18.8570990 102.4113350  15.8595500  18.3661940 101.7836690
  17.0587110  19.2855190 101.8771280  20.7399260  21.9012050  86.8519470
  21.2604920  21.1861070  86.4860620  21.3867660  22.5397920  87.1519980
  25.2877100  23.3240450 102.1754540  25.7018120  23.4785530 103.0244960
  24.3528100  23.4495670 102.3380320  25.7599270  20.6636610 104.1793690
  26.3420040  19.9088930 104.0914170  25.9361040  21.1944050 103.4025170
  16.8771340  15.8233360 102.4910640  16.7828210  15.2054110 101.7661510
  16.2968730  16.5499650 102.2640550  19.6432780  14.3806600  99.5238030
  19.1950080  14.4030860  98.6783580  19.0097980  13.9825620 100.1208330
  20.0492330  23.2760930 100.1450470  20.4680440  24.1193660  99.9726710
  19.1300960  23.4132970  99.9157250  22.3856230  21.0077110 101.5288310
  22.5052440  20.4118250 102.2683150  23.2450230  21.0446800 101.1089610
  24.7244130  21.5614300 100.1050820  24.1979350  22.0856920  99.5015960
  25.0675470  22.1941690 100.7360550  17.1230520  18.9507670  86.5500530
  16.9219580  18.0875030  86.9113870  16.9522570  18.8641030  85.6122130
  17.8999750  29.5813940 101.2608200  17.3620840  30.3060000 100.9416900
  18.1533710  29.1044280 100.4705540  19.1525000  17.5498460 102.7864130
  19.7424690  17.2414310 103.4741950  18.3345240  17.0778210 102.9424030
  23.9718430  17.1664270 103.0197150  23.2833950  16.5045810 102.9547140
  24.6924450  16.7202540 103.4645610  24.6018830  13.7615900  89.0787410
  24.8821120  12.9183800  89.4346830  23.8284560  13.9939010  89.5926160
  15.9213320  16.0508290  86.5378410  16.2239220  16.0575720  85.6297560
  16.6607910  15.7006150  87.0346070  20.7561960  30.8165150 101.5194850
  20.6820660  31.7200290 101.8267220  19.8540800  30.4977050 101.4916920
  19.1398250  14.9942910  87.5234610  18.7920250  14.3166900  86.9437060
  19.3411020  14.5332420  88.3378000  21.3047290  29.9823660  89.1421210
  22.1998080  30.3208630  89.1639970  21.3364920  29.2603070  88.5145490
  14.9443450  25.3550710  87.3708210  15.3818320  25.8980380  88.0265790
  15.4291180  24.5297660  87.3804550  12.1589250  28.1439740  94.8228470
  12.4892260  27.2760800  94.5907110  12.5880250  28.3498260  95.6533430
  16.7551170  26.4748750  92.4830440  16.4546710  26.3513720  93.3834350
  16.6488660  25.6157340  92.0746170  12.6479460  29.0110330  97.5610100
  12.2110450  29.1911130  98.3934250  13.2157140  29.7684950  97.4191820
  28.2841640  28.5127330 101.8487410  27.6843630  28.5719890 101.1051330
  28.4135540  27.5732310 101.9784260  29.5243090  26.2545150  87.1857120
  28.6936050  26.3221800  87.6564350  29.7014920  27.1449270  86.8823980
  28.9799550  22.9992630  89.6891320  29.7418460  23.5689280  89.7951010
  28.9953920  22.4319830  90.4599630  12.4803890  21.5230560  93.9198980
  11.8252730  21.2542200  93.2758680  13.3181840  21.4135040  93.4700960
  29.9859520  23.8542730  94.5333250  30.3568350  23.0710050  94.1269220
  30.6261450  24.5431830  94.3550550  26.9693280  25.2379310  99.9463570
  26.1553120  25.6676470 100.2089360  27.3767480  25.8497720  99.3332620
  29.0318720  23.2927000  86.8463840  29.3067560  24.2005880  86.7183060
  28.8429460  23.2289530  87.7825830  25.4294330  16.3171850  88.1417470
  25.8479210  16.1302830  87.3014130  25.1230390  15.4650900  88.4520400
  28.9284060  21.2295990  91.8393270  28.5527660  20.4623920  91.4074560
  28.1987180  21.6118690  92.3268200  13.5179820  21.9083130  98.4602320
  13.8852860  21.8210530  99.3398340  12.9490640  21.1449680  98.3609180
  28.3183680  20.3767510 101.4732790  28.0869770  20.1480260 100.5730740
  28.5788230  21.2967060 101.4277680  13.0695820  18.8192220 102.3660740
  12.1751870  18.7858980 102.7054450  13.6093370  19.0179010 103.1311990
  26.7571750  15.6023940 104.2512490  27.6341930  15.6107340 104.6346490
  26.7692590  14.8654780 103.6404840  11.6941970  18.7329490  89.8624310
  10.7906050  18.9959690  89.6875970  12.1782590  19.0040660  89.0824270
  28.2035020  19.4553480  95.1400510  28.7272500  18.9616130  94.5090680
  28.7894440  19.5903840  95.8848080  28.3824740  19.5393350  98.6620060
  27.4327450  19.5056890  98.7765050  28.5637750  20.4493460  98.4269830
  14.2369180  17.7895030  87.7718690  14.9460880  17.3678250  87.2865970
  13.5209120  17.8570260  87.1402040  13.8843340  13.8434360  86.8121340
  14.6071470  14.3843300  87.1302560  14.1567860  13.5697780  85.9362880
  27.6934990  18.7126830  91.0792920  28.1894110  18.4797700  91.8641800
  27.4951060  17.8738670  90.6630560  13.5735530  13.0940550  96.7143960
  14.2211720  12.5437930  96.2739120  13.9937370  13.3483700  97.5359770
  29.1222150  17.3487780  93.6130600  29.0121430  17.1943820  94.5512870
  29.8829740  16.8208720  93.3706010  27.4687870  13.2881910 100.0713600
  28.1060090  13.9016050 100.4372790  27.6162760  13.3242570  99.1262830
  30.0112420  15.1795700  86.8536740  30.9361730  15.0476880  86.6455030
  29.9888210  15.2588520  87.8073190  30.0850910  15.9506360  89.4793450
  29.2902410  15.8851480  90.0086360  30.2894190  16.8857000  89.4678800
  27.0269330  29.9897910  93.4731840  27.6228400  29.6682480  92.7966260
  27.2847480  29.5169730  94.2645110  13.3267530  13.2496220  99.4569280
  12.9782350  13.7060040 100.2227460  12.9955230  12.3553350  99.5391710
  14.9331900  26.4215820 103.6222470  14.8901530  26.0508730 104.5036930
  15.0642910  27.3593390 103.7624290  18.6337930  27.9775410  99.2232190
  18.3929290  28.2449970  98.3362710  19.5740570  28.1481140  99.2783050
  20.8392350  14.4408100 102.9788700  20.7781240  15.0329930 103.7284110
  21.7792730  14.3334060 102.8338960  23.4766910  14.0978160 102.6180990
  24.0907320  14.4157450 101.9562070  24.0216470  13.6126750 103.2376850
  29.8942090  29.9969790 100.0242830  29.4000370  30.3938660  99.3069960
  29.2855380  29.3719000 100.4180110  13.9988170  12.7772420 102.7320050
  14.5471160  12.5960470 101.9686160  14.0643480  11.9866530 103.2676360
  14.7719930  29.3678070 100.7420250  14.1780250  29.2362770 101.4810290
  14.7643770  28.5316210 100.2762350  24.2174950  12.6610300  98.9450280
  23.3434790  12.9945410  98.7423210  24.1085700  12.1883480  99.7702150
  25.1246930  14.8681170 100.3292000  24.7960290  14.0532930  99.9493730
  26.0729230  14.8250980 100.2057690  27.5781540  30.6393210  97.3029570
  27.1184510  31.3909020  96.9287590  26.9494000  29.9199680  97.2444370
  14.4032160  26.7336450  99.6928290  13.6766220  26.1141740  99.6254240
  14.4641310  27.1277060  98.8226370  18.0077260  28.9481450  96.4777700
  18.5242280  28.3368810  95.9525960  18.6574640  29.4510230  96.9688710
  20.7472760  29.8389940  97.3046680  21.0350570  29.5844240  96.4279690
  21.2595980  29.2867300  97.8952250  21.9649770  13.5780140  97.8843190
  21.1821560  14.0525640  98.1639950  21.6712700  12.6734970  97.7756370
  26.5170840  14.2803240  95.9292280  26.9578930  14.2248340  95.0813880
  26.2478430  15.1961250  96.0002460  28.3809410  13.9118480  93.9401100
  28.3197810  12.9679700  93.7932120  29.1601440  14.0198570  94.4854560
  12.6862160  30.0510840  92.9025050  12.5184200  29.4181520  93.6006940
  11.8196670  30.2570240  92.5519240  13.3090180  13.8827620  90.4056910
  14.0669540  13.9956500  89.8320940  12.8467350  14.7196820  90.3600340
  19.8503990  15.9966890  93.3959220  19.0378500  15.6223780  93.0555100
  20.3545630  15.2411970  93.6980410  24.3528970  12.6609340  94.6342290
  24.9558340  13.2329550  95.1090810  23.6121960  13.2248780  94.4116190
  27.4963570  13.0630900  89.9082570  27.6914200  13.9614350  90.1750000
  26.7093440  12.8317980  90.4015520  14.2924860  28.7444070  90.3475190
  13.7672480  29.1252100  89.6437150  14.2169440  29.3694840  91.0684900
  15.6815330  14.4091670  88.9458880  16.2108090  13.6221470  88.8166830
  16.3143650  15.0882860  89.1794410  17.8753170  14.1466810  92.0004270
  17.2455910  13.4454120  92.1674400  17.3358310  14.9070940  91.7837430
  20.8145120  30.7606040 104.6714880  21.7412430  30.5250310 104.7150840
  20.7995550  31.5878040 104.1900910  29.0490180  30.3031610  91.6689130
  29.2242370  29.6169350  91.0250050  28.3511750  30.8278660  91.2765800
  18.0008730  13.4250790 104.4356760  17.7193000  13.9284390 103.6717580
  18.3828430  12.6272540 104.0698890  16.8917830  30.6926450  89.2224440
  17.6236650  30.4085730  88.6748330  17.1511500  30.4539730  90.1123820
  16.0532620  26.8091180  89.2270770  15.4241500  27.2776280  89.7756600
  16.1680450  25.9640400  89.6616960  24.6024190  12.8404370 105.0137230
  24.4889640  13.1598980 105.9088750  25.4193930  13.2416880 104.7174510
  27.3822680  29.9875900 104.4955920  28.1748000  29.4925130 104.2881880
  27.6755830  30.6666040 105.1031530  23.5082340  20.8596840  75.3771970
  23.4276390  19.9451450  75.1063680  23.0946760  21.3563910  74.6711680
  21.6400380  22.6375860  77.2581240  20.8642480  22.1576300  77.5479810
  22.2913310  21.9581510  77.0837400  15.6566210  22.9495670  78.1357000
  14.8251090  22.6944380  78.5353510  16.2647190  23.0206440  78.8714920
  25.6607810  27.0436050  76.0380370  25.1989340  26.2723290  76.3667540
  26.4733360  27.0702120  76.5432820  15.6367470  26.9835760  78.3315020
  15.9395510  26.0933500  78.1525240  16.3811060  27.5405980  78.1037270
  14.0658160  17.9097560  71.9199390  13.1774860  18.2513530  71.8179270
  14.3499350  17.7097880  71.0280220  12.0291170  20.5103210  77.8039090
  12.6007280  19.7425410  77.8042730  12.0292710  20.8091970  76.8945700
  21.8871120  29.3294060  75.6584360  21.2682560  29.7851560  75.0878800
  22.7422900  29.4845520  75.2574060  21.0809370  25.3133050  77.2651400
  21.0117650  24.3722990  77.1040530  21.8429230  25.4034460  77.8373970
  13.2716040  15.9187570  79.5908020  13.0918880  15.0213320  79.8710780
  12.8696120  16.4659440  80.2654970  22.1114540  18.1203430  77.4920330
  22.4879360  17.2475310  77.3794000  22.0134050  18.4562130  76.6010770
  16.2419550  16.4929060  72.9537770  16.3486300  17.3932790  73.2606530
  15.3311910  16.4447030  72.6632420  25.8938660  15.6153870  74.4248670
  26.7148280  15.1250440  74.4674150  25.9272740  16.2051530  75.1780510
  13.8902710  18.4148070  78.1990360  14.5712820  18.6786440  78.8177760
  13.5750760  17.5748940  78.5328370  18.0827280  19.4615430  77.2862950
  18.5905500  19.9596400  77.9267970  18.6140520  18.6850630  77.1102310
  30.1838210  17.6320620  80.9892300  29.4790380  18.0202330  80.4707410
  30.4496130  18.3270910  81.5913230  16.3663380  14.1013990  81.5526370
  16.3681820  14.6186380  80.7472270  15.5367690  13.6244170  81.5296300
  22.7534470  24.2133300  73.0516270  22.1351740  24.6782750  72.4878990
  23.2657720  24.9060780  73.4685780  17.6166230  23.7409170  79.7299870
  17.2835610  24.3678090  80.3720940  17.7932910  24.2671050  78.9501540
  26.1300140  17.5554250  77.1976210  25.4255710  17.8439140  77.7779320
  26.4912300  18.3654360  76.8375770  16.0478710  15.8123950  79.5596820
  16.3895520  16.6566000  79.2650690  15.1094520  15.9607690  79.6762160
  16.8285330  25.7089970  81.5449050  17.4459330  26.3841050  81.2633500
  15.9678450  26.1177950  81.4536550  12.1217670  24.8989830  70.4255900
  11.7445650  25.3876930  69.6940800  12.3790740  25.5715110  71.0562430
  27.7462920  27.1729380  79.4603690  27.0626440  27.8428490  79.4520360
  28.2857210  27.3710030  78.6948550  29.1987060  17.0009040  77.5885420
  28.2511970  17.0348020  77.7200850  29.5237050  17.8147990  77.9734780
  19.7306600  13.3006220  75.8841410  20.0381580  12.7453110  75.1676910
  18.8007300  13.4350680  75.7014400  25.2821660  29.0173510  78.1748870
  25.2948820  28.6135800  77.3071130  24.7296880  29.7920800  78.0710300
  26.5767080  25.7389730  73.2639040  26.4663410  24.7964060  73.3888460
  26.5735330  26.1005370  74.1501800  24.6807100  23.9203350  79.5031480
  25.0975890  23.7063460  78.6684940  25.4046920  24.1776140  80.0740100
  22.1187360  21.3655050  72.6201530  21.1916640  21.2992430  72.8490000
  22.2712180  22.3035180  72.5056770  22.1056440  17.6372050  69.6168690
  21.1660110  17.7986010  69.7021150  22.4239700  18.3557730  69.0704680
  28.6269200  22.3190570  79.5947720  27.7987830  22.3883660  79.1197850
  29.2219680  22.9044880  79.1263550  26.1484650  22.9275350  73.1236780
  25.5297070  22.5894900  72.4763080  26.1309100  22.2835110  73.8315970
  25.5911210  19.1059890  80.5402590  25.1782390  19.9313600  80.7942580
  24.8587160  18.5204930  80.3478950  17.7244000  21.8919790  75.4021260
  17.3201000  21.1797040  74.9067160  17.8107120  21.5473030  76.2909300
  18.1925700  25.5787350  77.5660470  17.8953990  24.9732820  76.8868250
  19.1425520  25.6164660  77.4549830  16.4372620  18.6663000  79.1820300
  16.9887210  18.7758340  78.4073550  16.9516130  19.0400600  79.8975530
  26.2811310  29.1519220  81.2283570  25.8041870  29.9591410  81.0356180
  25.5973100  28.4997550  81.3809780  17.2844130  25.3169040  84.2168270
  16.3872660  25.5409010  84.4641670  17.3097000  25.4403980  83.2679670
  24.3249350  22.1662160  70.1309530  24.7642630  21.3284590  69.9847350
  25.0377770  22.7991560  70.2173670  16.1115350  22.1882360  82.7925640
  15.9723120  23.0605160  83.1613040  15.2296710  21.8455170  82.6473580
  22.4344730  27.1058230  74.0990770  22.8740640  27.8482560  73.6846160
  22.3731620  27.3484800  75.0229730  17.9095700  28.1304060  85.0010790
  17.8811130  28.5347010  84.1339220  17.7460670  27.2014420  84.8382390
  27.9066490  13.4204970  68.4450570  27.5939150  13.5131800  69.3449640
  28.6678960  13.9986000  68.3948000  14.4248630  20.7864770  72.9027910
  14.3046230  21.5126860  72.2909180  14.1149520  20.0167680  72.4255820
  29.8610520  28.9131160  86.2974960  30.3370240  29.3914050  86.9764040
  30.4817680  28.8448650  85.5720460  12.0634000  23.9579910  78.7096550
  12.1414420  24.0928680  77.7652270  12.6775680  23.2495800  78.9024670
  13.3081630  25.6580100  75.1202730  12.9009710  25.7994690  74.2656330
  14.1994640  25.3740260  74.9173940  29.2643770  26.1044010  83.4574970
  29.3906830  25.8655890  82.5392150  29.3065150  25.2728550  83.9297050
  23.1260510  29.8072010  82.0269780  23.6405180  29.7180020  82.8292210
  22.2829590  30.1531710  82.3197690  25.1014910  30.0927350  71.4553780
  24.9416050  29.8030290  72.3535610  24.9361620  29.3167480  70.9199010
  17.5803290  29.8725880  73.2325400  17.4045770  28.9561420  73.0193200
  16.7259030  30.2313170  73.4723200  24.8041040  27.6014910  70.0151780
  24.1106200  27.5992200  69.3554060  25.5463900  27.1774230  69.5845950
  24.3690970  29.2277620  74.0900270  24.8247920  28.4467000  74.4038890
  24.7083490  29.9384440  74.6341450  29.1167780  18.1576470  84.4224710
  28.5012050  18.6656140  83.8940170  28.7964200  17.2574800  84.3650650
  12.1193520  24.9994080  81.2491010  12.2824560  24.5299440  80.4310380
  12.5845970  24.4917640  81.9139850  16.8912290  14.1299840  76.2851580
  16.4480440  14.9109380  75.9536100  17.4497280  14.4529730  76.9922520
  21.1782100  16.9968360  81.8886900  20.7161470  17.2051380  82.7006840
  20.7760210  16.1827710  81.5857570  26.1786610  18.2177310  83.0183560
  25.3280200  17.9183060  83.3392630  26.0188400  18.4619320  82.1067380
  23.2736320  19.7179060  85.1182350  23.5989730  18.8842810  84.7784580
  24.0616650  20.2407580  85.2660680  20.0071110  13.7510540  71.1657410
  19.3825290  13.7470410  71.8910720  19.9201230  12.8841500  70.7693380
  18.9288190  14.6747170  78.1441180  19.2260520  15.5810000  78.0633200
  19.4773750  14.1865950  77.5300750  16.6826510  19.2533410  74.0132830
  16.4567430  19.0370580  74.9179450  15.9019040  19.6861870  73.6678800
  23.9124270  19.2596780  72.6123480  23.3133160  19.9832580  72.4287100
  24.4603880  19.1973560  71.8299930  19.1225720  20.1518990  84.6793100
  19.0269320  19.2113720  84.5293500  19.9657700  20.3734060  84.2841170
  22.5189140  17.8960320  74.6426760  22.9118710  18.2132520  73.8295450
  22.8805990  17.0172200  74.7571280  14.2536260  16.5632660  82.8326880
  13.8599650  17.4107870  83.0399660  13.5654660  15.9259030  83.0235520
  20.8281310  16.6467630  85.9023620  20.1379630  16.4539830  86.5369710
  21.5713610  16.9302270  86.4347920  11.5553310  14.4861120  76.8656960
  11.2666360  15.0563980  77.5781940  12.2999070  14.0065570  77.2288190
  11.7423540  18.4281240  68.0759680  11.6598210  19.3712000  68.2174670
  11.3906600  18.2856150  67.1972030  23.1044280  20.4866070  78.7377540
  22.3725400  20.9952880  79.0867640  22.7068620  19.6696050  78.4366320
  19.5421670  17.1620270  77.1430030  19.5457730  16.7210220  76.2934570
  20.4372790  17.4837600  77.2501850  15.3924050  17.0446760  76.1024240
  15.0524100  17.5221990  76.8591290  14.6301370  16.5911880  75.7425340
  19.6041820  18.1632350  70.1336790  19.7254640  18.1218830  71.0822610
  19.2190330  19.0256500  69.9783520  23.5670190  15.9399750  78.1500480
  23.5842930  16.3908400  78.9942330  23.3185770  15.0405390  78.3633920
  18.6163320  20.4733490  69.5320090  18.0480220  20.0251740  68.9056000
  19.3252320  20.8326270  68.9985240  26.9940940  13.3531930  83.9886860
  27.3186710  12.6221590  84.5144840  27.0297450  13.0345570  83.0867850
  13.6932500  24.3745510  83.4086820  13.3087290  23.7339180  84.0069780
  14.0044690  25.0781630  83.9781550  19.8429640  21.2222050  78.8895440
  20.2099770  20.7480620  79.6356780  19.6534700  22.0963620  79.2303780
  12.7070130  15.9665740  75.0188910  12.4217050  15.6021410  75.8567530
  12.6448990  15.2346200  74.4052050  17.6329010  20.2630690  81.2079650
  17.3286080  21.1422670  81.4330010  18.5875470  20.3230480  81.2437090
  16.1610800  24.4691680  71.8046500  15.3873060  23.9289300  71.6445220
  16.8905430  23.9498290  71.4664260  26.9198780  23.4657040  77.5972890
  27.6397900  23.9612330  77.2069000  26.7180600  22.7874930  76.9526760
  22.3808720  14.8595000  71.7402280  21.5673330  14.3608170  71.6647590
  22.1870670  15.6993250  71.3238630  22.3017580  23.5366100  83.4841890
  22.2354890  22.6161770  83.2299480  21.6722720  23.6341540  84.1986530
  25.0957110  19.2314650  70.0364440  25.9836730  19.5431880  69.8615780
  25.0662200  18.3586900  69.6445020  16.2048200  24.1372060  75.4425310
  16.7226870  23.3340320  75.3882200  15.7532220  24.0751200  76.2842140
  21.0917700  25.4038340  70.7152610  21.4333400  26.1480570  70.2195930
  20.2630410  25.7169460  71.0777440  13.6892740  21.1033430  82.3551010
  13.3307680  21.7687280  82.9424350  13.3947300  20.2716980  82.7263630
  16.8905860  21.5617670  85.2390560  16.5906000  21.7074850  84.3418380
  17.6617100  21.0022960  85.1463950  22.2334310  26.3586670  83.2345690
  22.2478850  25.4267630  83.0164600  21.5259410  26.4446430  83.8735460
  27.3671380  20.5426490  69.5044300  27.2835100  20.9740710  68.6540740
  28.0865570  21.0024840  69.9371120  28.4445520  22.9994010  82.5814270
  27.7193710  23.5922790  82.3843660  28.9720980  22.9917550  81.7827640
  28.3958630  27.3968750  72.2326430  27.7534790  26.7424370  72.5070150
  28.0089290  27.8023840  71.4567100  23.9745110  24.7254180  76.0798120
  24.3268930  24.1282310  75.4199490  23.0907440  24.3998410  76.2506370
  20.0608390  25.4851870  73.4868530  20.7479520  26.0321080  73.8676120
  19.2740810  26.0292600  73.5218140  12.2000790  21.1024690  68.9785610
  13.0695640  21.3849490  69.2621530  11.7091110  21.9160560  68.8634420
  19.3635600  22.4897900  73.0993890  19.8198380  23.3003150  73.3254080
  19.0123810  22.1721040  73.9312380  21.6668210  28.0004240  80.3286190
  22.3110430  28.2063620  81.0059610  22.0297650  27.2392640  79.8757040
  15.2647380  12.8335550  73.5716410  15.1362010  12.8253450  74.5201330
  14.4409400  13.1718640  73.2207420  22.9400290  26.0036590  79.0463640
  23.5822520  25.3029750  79.1595810  23.4649640  26.7835030  78.8660530
  26.7856010  26.2885210  68.7702780  26.5593590  25.5715650  69.3627420
  26.3952210  26.0397650  67.9324530  24.7137910  26.8031490  82.2499700
  25.0494150  27.3898180  82.9277620  23.7938250  26.6724200  82.4797490
  12.5672040  30.3152070  69.5447240  12.9269680  30.9141410  68.8904510
  12.4264380  30.8611960  70.3182270  12.2641310  14.5926670  83.0323110
  11.5499830  14.7923590  83.6375720  12.6836350  13.8166240  83.4037910
  26.3672260  24.2057150  70.4316940  26.0793960  24.6669840  71.2194820
  27.1624430  23.7454920  70.7001160  12.5513900  28.5806930  84.0189640
  12.6605020  27.6401670  83.8785030  11.8994460  28.8461680  83.3703370
  20.5426490  26.8522820  85.4187760  20.2223360  26.1332060  85.9633450
  19.8684850  27.5277890  85.4923820  18.5840660  27.6983270  70.3620910
  18.5750760  28.4312960  69.7465420  17.6639020  27.4514850  70.4547870
  14.1847300  22.9198160  71.1067670  13.5775250  23.6597060  71.1162970
  14.6596650  23.0097520  70.2805870  23.7580090  17.0848980  80.7824560
  24.1260910  16.2644190  81.1104130  22.8978290  17.1450870  81.1980210
  27.1242120  16.0405920  71.5912120  26.4955280  16.1451590  70.8770350
  26.6294040  16.2602700  72.3806000  21.5700260  27.7611510  69.0246100
  21.6712240  27.5575500  68.0948080  20.6702000  27.5069790  69.2293880
  19.0926150  18.3191870  73.0070000  18.3842300  18.7878210  73.4483610
  19.3770630  17.6613880  73.6415190  20.7182080  19.7388570  81.0062530
  21.2167330  20.2134390  81.6714380  20.8605030  18.8152090  81.2132560
  23.1241580  15.0442530  74.4465790  23.0009360  15.0628660  73.4975300
  24.0726140  15.0921470  74.5664190  20.2118370  30.2797830  73.7193770
  20.4659870  30.2419220  72.7973140  19.2630850  30.1531160  73.7122020
  17.2961170  16.6276950  70.3820710  18.1451700  17.0647100  70.3160900
  16.9292440  16.9397210  71.2092770  27.9248940  15.9556530  81.8490920
  27.4222540  16.6961930  82.1884730  28.7405600  16.3440530  81.5327710
  26.2170950  21.1989710  75.2952280  25.2761090  21.2139940  75.4699970
  26.5315020  20.4125670  75.7412580  16.1952590  22.8809310  68.8556240
  16.9615860  22.7690670  69.4181670  16.2727280  22.1847280  68.2033010
  14.8899350  20.3134380  69.5389130  14.9702940  19.3661890  69.6506530
  15.7819100  20.6441260  69.6449790  28.2196530  28.3698560  76.9706540
  28.3443950  29.1929730  77.4430350  29.0862090  28.1589290  76.6230690
  15.6914060  30.4629770  76.6423670  16.4276540  29.9145230  76.9132240
  16.0754980  31.3285780  76.5029660  12.5759540  26.5303340  72.5165180
  11.6499320  26.7724480  72.5070590  13.0415970  27.3577600  72.3949930
  14.6972340  29.6475840  85.8309250  15.4985070  29.9687890  86.2444650
  14.1824160  29.2871420  86.5529160  18.8016370  29.6360080  68.4649240
  19.5944980  29.9248910  68.0131030  18.2820720  29.2052250  67.7861720
  23.5336970  25.7555710  85.7784660  22.9275130  25.7787310  85.0380410
  23.2291080  25.0238750  86.3151910  24.9637340  29.4836000  84.3894070
  25.9159090  29.3994020  84.3394310  24.8165560  30.1477710  85.0627860
  27.8546540  28.8630210  69.8885980  27.5688050  28.4495350  69.0740160
  27.6566090  29.7917920  69.7686500  12.4170150  22.1349300  84.7745300
  12.9209170  21.5556580  85.3461530  11.6777570  22.4189530  85.3121670
  19.3193770  24.8563490  68.3291590  19.2144410  24.2415840  69.0552970
  19.1517990  24.3329380  67.5454600  19.4708090  23.5420290  84.3080820
  18.7053760  24.1105290  84.2235490  19.6524050  23.2496500  83.4149050
  22.5596500  23.9183520  68.9333580  22.0106600  24.3652820  69.5776320
  23.1815760  23.4132770  69.4571250  26.6131440  25.2725620  84.8655840
  27.3540910  25.6101380  84.3623300  25.8504120  25.4417680  84.3125610
  14.4493230  20.2778890  85.6695370  14.4898570  19.9792760  86.5780600
  15.3038730  20.6786500  85.5102890  18.2271620  22.8774440  70.8298880
  18.6488040  22.7114310  71.6730270  18.3522460  22.0674670  70.3354020
  16.3899040  18.8570990  83.6369860  15.8595500  18.3661940  83.0093200
  17.0587110  19.2855190  83.1027790  20.7399260  21.9012050  68.0775980
  21.2604920  21.1861070  67.7117130  21.3867660  22.5397920  68.3776490
  25.2877100  23.3240450  83.4011050  25.7018120  23.4785530  84.2501470
  24.3528100  23.4495670  83.5636830  25.7599270  20.6636610  85.4050200
  26.3420040  19.9088930  85.3170680  25.9361040  21.1944050  84.6281680
  16.8771340  15.8233360  83.7167150  16.7828210  15.2054110  82.9918020
  16.2968730  16.5499650  83.4897060  19.6432780  14.3806600  80.7494540
  19.1950080  14.4030860  79.9040090  19.0097980  13.9825620  81.3464840
  20.0492330  23.2760930  81.3706980  20.4680440  24.1193660  81.1983220
  19.1300960  23.4132970  81.1413760  22.3856230  21.0077110  82.7544820
  22.5052440  20.4118250  83.4939660  23.2450230  21.0446800  82.3346120
  24.7244130  21.5614300  81.3307330  24.1979350  22.0856920  80.7272470
  25.0675470  22.1941690  81.9617060  17.1230520  18.9507670  67.7757040
  16.9219580  18.0875030  68.1370380  16.9522570  18.8641030  66.8378640
  17.8999750  29.5813940  82.4864710  17.3620840  30.3060000  82.1673410
  18.1533710  29.1044280  81.6962050  19.1525000  17.5498460  84.0120640
  19.7424690  17.2414310  84.6998460  18.3345240  17.0778210  84.1680540
  23.9718430  17.1664270  84.2453660  23.2833950  16.5045810  84.1803650
  24.6924450  16.7202540  84.6902120  24.6018830  13.7615900  70.3043920
  24.8821120  12.9183800  70.6603340  23.8284560  13.9939010  70.8182670
  15.9213320  16.0508290  67.7634920  16.2239220  16.0575720  66.8554070
  16.6607910  15.7006150  68.2602580  20.7561960  30.8165150  82.7451360
  20.6820660  31.7200290  83.0523730  19.8540800  30.4977050  82.7173430
  19.1398250  14.9942910  68.7491120  18.7920250  14.3166900  68.1693570
  19.3411020  14.5332420  69.5634510  21.3047290  29.9823660  70.3677720
  22.1998080  30.3208630  70.3896480  21.3364920  29.2603070  69.7402000
  14.9443450  25.3550710  68.5964720  15.3818320  25.8980380  69.2522300
  15.4291180  24.5297660  68.6061060  12.1589250  28.1439740  76.0484980
  12.4892260  27.2760800  75.8163620  12.5880250  28.3498260  76.8789940
  16.7551170  26.4748750  73.7086950  16.4546710  26.3513720  74.6090860
  16.6488660  25.6157340  73.3002680  12.6479460  29.0110330  78.7866610
  12.2110450  29.1911130  79.6190760  13.2157140  29.7684950  78.6448330
  28.2841640  28.5127330  83.0743920  27.6843630  28.5719890  82.3307840
  28.4135540  27.5732310  83.2040770  29.5243090  26.2545150  68.4113630
  28.6936050  26.3221800  68.8820860  29.7014920  27.1449270  68.1080490
  28.9799550  22.9992630  70.9147830  29.7418460  23.5689280  71.0207520
  28.9953920  22.4319830  71.6856140  12.4803890  21.5230560  75.1455490
  11.8252730  21.2542200  74.5015190  13.3181840  21.4135040  74.6957470
  29.9859520  23.8542730  75.7589760  30.3568350  23.0710050  75.3525730
  30.6261450  24.5431830  75.5807060  26.9693280  25.2379310  81.1720080
  26.1553120  25.6676470  81.4345870  27.3767480  25.8497720  80.5589130
  29.0318720  23.2927000  68.0720350  29.3067560  24.2005880  67.9439570
  28.8429460  23.2289530  69.0082340  25.4294330  16.3171850  69.3673980
  25.8479210  16.1302830  68.5270640  25.1230390  15.4650900  69.6776910
  28.9284060  21.2295990  73.0649780  28.5527660  20.4623920  72.6331070
  28.1987180  21.6118690  73.5524710  13.5179820  21.9083130  79.6858830
  13.8852860  21.8210530  80.5654850  12.9490640  21.1449680  79.5865690
  28.3183680  20.3767510  82.6989300  28.0869770  20.1480260  81.7987250
  28.5788230  21.2967060  82.6534190  13.0695820  18.8192220  83.5917250
  12.1751870  18.7858980  83.9310960  13.6093370  19.0179010  84.3568500
  26.7571750  15.6023940  85.4769000  27.6341930  15.6107340  85.8603000
  26.7692590  14.8654780  84.8661350  11.6941970  18.7329490  71.0880820
  10.7906050  18.9959690  70.9132480  12.1782590  19.0040660  70.3080780
  28.2035020  19.4553480  76.3657020  28.7272500  18.9616130  75.7347190
  28.7894440  19.5903840  77.1104590  28.3824740  19.5393350  79.8876570
  27.4327450  19.5056890  80.0021560  28.5637750  20.4493460  79.6526340
  14.2369180  17.7895030  68.9975200  14.9460880  17.3678250  68.5122480
  13.5209120  17.8570260  68.3658550  13.8843340  13.8434360  68.0377850
  14.6071470  14.3843300  68.3559070  14.1567860  13.5697780  67.1619390
  27.6934990  18.7126830  72.3049430  28.1894110  18.4797700  73.0898310
  27.4951060  17.8738670  71.8887070  13.5735530  13.0940550  77.9400470
  14.2211720  12.5437930  77.4995630  13.9937370  13.3483700  78.7616280
  29.1222150  17.3487780  74.8387110  29.0121430  17.1943820  75.7769380
  29.8829740  16.8208720  74.5962520  27.4687870  13.2881910  81.2970110
  28.1060090  13.9016050  81.6629300  27.6162760  13.3242570  80.3519340
  30.0112420  15.1795700  68.0793250  30.9361730  15.0476880  67.8711540
  29.9888210  15.2588520  69.0329700  30.0850910  15.9506360  70.7049960
  29.2902410  15.8851480  71.2342870  30.2894190  16.8857000  70.6935310
  27.0269330  29.9897910  74.6988350  27.6228400  29.6682480  74.0222770
  27.2847480  29.5169730  75.4901620  13.3267530  13.2496220  80.6825790
  12.9782350  13.7060040  81.4483970  12.9955230  12.3553350  80.7648220
  14.9331900  26.4215820  84.8478980  14.8901530  26.0508730  85.7293440
  15.0642910  27.3593390  84.9880800  18.6337930  27.9775410  80.4488700
  18.3929290  28.2449970  79.5619220  19.5740570  28.1481140  80.5039560
  20.8392350  14.4408100  84.2045210  20.7781240  15.0329930  84.9540620
  21.7792730  14.3334060  84.0595470  23.4766910  14.0978160  83.8437500
  24.0907320  14.4157450  83.1818580  24.0216470  13.6126750  84.4633360
  29.8942090  29.9969790  81.2499340  29.4000370  30.3938660  80.5326470
  29.2855380  29.3719000  81.6436620  13.9988170  12.7772420  83.9576560
  14.5471160  12.5960470  83.1942670  14.0643480  11.9866530  84.4932870
  14.7719930  29.3678070  81.9676760  14.1780250  29.2362770  82.7066800
  14.7643770  28.5316210  81.5018860  24.2174950  12.6610300  80.1706790
  23.3434790  12.9945410  79.9679720  24.1085700  12.1883480  80.9958660
  25.1246930  14.8681170  81.5548510  24.7960290  14.0532930  81.1750240
  26.0729230  14.8250980  81.4314200  27.5781540  30.6393210  78.5286080
  27.1184510  31.3909020  78.1544100  26.9494000  29.9199680  78.4700880
  14.4032160  26.7336450  80.9184800  13.6766220  26.1141740  80.8510750
  14.4641310  27.1277060  80.0482880  18.0077260  28.9481450  77.7034210
  18.5242280  28.3368810  77.1782470  18.6574640  29.4510230  78.1945220
  20.7472760  29.8389940  78.5303190  21.0350570  29.5844240  77.6536200
  21.2595980  29.2867300  79.1208760  21.9649770  13.5780140  79.1099700
  21.1821560  14.0525640  79.3896460  21.6712700  12.6734970  79.0012880
  26.5170840  14.2803240  77.1548790  26.9578930  14.2248340  76.3070390
  26.2478430  15.1961250  77.2258970  28.3809410  13.9118480  75.1657610
  28.3197810  12.9679700  75.0188630  29.1601440  14.0198570  75.7111070
  12.6862160  30.0510840  74.1281560  12.5184200  29.4181520  74.8263450
  11.8196670  30.2570240  73.7775750  13.3090180  13.8827620  71.6313420
  14.0669540  13.9956500  71.0577450  12.8467350  14.7196820  71.5856850
  19.8503990  15.9966890  74.6215730  19.0378500  15.6223780  74.2811610
  20.3545630  15.2411970  74.9236920  24.3528970  12.6609340  75.8598800
  24.9558340  13.2329550  76.3347320  23.6121960  13.2248780  75.6372700
  27.4963570  13.0630900  71.1339080  27.6914200  13.9614350  71.4006510
  26.7093440  12.8317980  71.6272030  14.2924860  28.7444070  71.5731700
  13.7672480  29.1252100  70.8693660  14.2169440  29.3694840  72.2941410
  15.6815330  14.4091670  70.1715390  16.2108090  13.6221470  70.0423340
  16.3143650  15.0882860  70.4050920  17.8753170  14.1466810  73.2260780
  17.2455910  13.4454120  73.3930910  17.3358310  14.9070940  73.0093940
  20.8145120  30.7606040  85.8971390  21.7412430  30.5250310  85.9407350
  20.7995550  31.5878040  85.4157420  29.0490180  30.3031610  72.8945640
  29.2242370  29.6169350  72.2506560  28.3511750  30.8278660  72.5022310
  18.0008730  13.4250790  85.6613270  17.7193000  13.9284390  84.8974090
  18.3828430  12.6272540  85.2955400  16.8917830  30.6926450  70.4480950
  17.6236650  30.4085730  69.9004840  17.1511500  30.4539730  71.3380330
  16.0532620  26.8091180  70.4527280  15.4241500  27.2776280  71.0013110
  16.1680450  25.9640400  70.8873470  24.6024190  12.8404370  86.2393740
  24.4889640  13.1598980  87.1345260  25.4193930  13.2416880  85.9431020
  27.3822680  29.9875900  85.7212430  28.1748000  29.4925130  85.5138390
  27.6755830  30.6666040  86.3288040  23.5082340  20.8596840  56.6028480
  23.4276390  19.9451450  56.3320190  23.0946760  21.3563910  55.8968190
  21.6400380  22.6375860  58.4837750  20.8642480  22.1576300  58.7736320
  22.2913310  21.9581510  58.3093910  15.6566210  22.9495670  59.3613510
  14.8251090  22.6944380  59.7610020  16.2647190  23.0206440  60.0971430
  25.6607810  27.0436050  57.2636880  25.1989340  26.2723290  57.5924050
  26.4733360  27.0702120  57.7689330  15.6367470  26.9835760  59.5571530
  15.9395510  26.0933500  59.3781750  16.3811060  27.5405980  59.3293780
  14.0658160  17.9097560  53.1455900  13.1774860  18.2513530  53.0435780
  14.3499350  17.7097880  52.2536730  12.0291170  20.5103210  59.0295600
  12.6007280  19.7425410  59.0299240  12.0292710  20.8091970  58.1202210
  21.8871120  29.3294060  56.8840870  21.2682560  29.7851560  56.3135310
  22.7422900  29.4845520  56.4830570  21.0809370  25.3133050  58.4907910
  21.0117650  24.3722990  58.3297040  21.8429230  25.4034460  59.0630480
  13.2716040  15.9187570  60.8164530  13.0918880  15.0213320  61.0967290
  12.8696120  16.4659440  61.4911480  22.1114540  18.1203430  58.7176840
  22.4879360  17.2475310  58.6050510  22.0134050  18.4562130  57.8267280
  16.2419550  16.4929060  54.1794280  16.3486300  17.3932790  54.4863040
  15.3311910  16.4447030  53.8888930  25.8938660  15.6153870  55.6505180
  26.7148280  15.1250440  55.6930660  25.9272740  16.2051530  56.4037020
  13.8902710  18.4148070  59.4246870  14.5712820  18.6786440  60.0434270
  13.5750760  17.5748940  59.7584880  18.0827280  19.4615430  58.5119460
  18.5905500  19.9596400  59.1524480  18.6140520  18.6850630  58.3358820
  30.1838210  17.6320620  62.2148810  29.4790380  18.0202330  61.6963920
  30.4496130  18.3270910  62.8169740  16.3663380  14.1013990  62.7782880
  16.3681820  14.6186380  61.9728780  15.5367690  13.6244170  62.7552810
  22.7534470  24.2133300  54.2772780  22.1351740  24.6782750  53.7135500
  23.2657720  24.9060780  54.6942290  17.6166230  23.7409170  60.9556380
  17.2835610  24.3678090  61.5977450  17.7932910  24.2671050  60.1758050
  26.1300140  17.5554250  58.4232720  25.4255710  17.8439140  59.0035830
  26.4912300  18.3654360  58.0632280  16.0478710  15.8123950  60.7853330
  16.3895520  16.6566000  60.4907200  15.1094520  15.9607690  60.9018670
  16.8285330  25.7089970  62.7705560  17.4459330  26.3841050  62.4890010
  15.9678450  26.1177950  62.6793060  12.1217670  24.8989830  51.6512410
  11.7445650  25.3876930  50.9197310  12.3790740  25.5715110  52.2818940
  27.7462920  27.1729380  60.6860200  27.0626440  27.8428490  60.6776870
  28.2857210  27.3710030  59.9205060  29.1987060  17.0009040  58.8141930
  28.2511970  17.0348020  58.9457360  29.5237050  17.8147990  59.1991290
  19.7306600  13.3006220  57.1097920  20.0381580  12.7453110  56.3933420
  18.8007300  13.4350680  56.9270910  25.2821660  29.0173510  59.4005380
  25.2948820  28.6135800  58.5327640  24.7296880  29.7920800  59.2966810
  26.5767080  25.7389730  54.4895550  26.4663410  24.7964060  54.6144970
  26.5735330  26.1005370  55.3758310  24.6807100  23.9203350  60.7287990
  25.0975890  23.7063460  59.8941450  25.4046920  24.1776140  61.2996610
  22.1187360  21.3655050  53.8458040  21.1916640  21.2992430  54.0746510
  22.2712180  22.3035180  53.7313280  22.1056440  17.6372050  50.8425200
  21.1660110  17.7986010  50.9277660  22.4239700  18.3557730  50.2961190
  28.6269200  22.3190570  60.8204230  27.7987830  22.3883660  60.3454360
  29.2219680  22.9044880  60.3520060  26.1484650  22.9275350  54.3493290
  25.5297070  22.5894900  53.7019590  26.1309100  22.2835110  55.0572480
  25.5911210  19.1059890  61.7659100  25.1782390  19.9313600  62.0199090
  24.8587160  18.5204930  61.5735460  17.7244000  21.8919790  56.6277770
  17.3201000  21.1797040  56.1323670  17.8107120  21.5473030  57.5165810
  18.1925700  25.5787350  58.7916980  17.8953990  24.9732820  58.1124760
  19.1425520  25.6164660  58.6806340  16.4372620  18.6663000  60.4076810
  16.9887210  18.7758340  59.6330060  16.9516130  19.0400600  61.1232040
  26.2811310  29.1519220  62.4540080  25.8041870  29.9591410  62.2612690
  25.5973100  28.4997550  62.6066290  17.2844130  25.3169040  65.4424780
  16.3872660  25.5409010  65.6898180  17.3097000  25.4403980  64.4936180
  24.3249350  22.1662160  51.3566040  24.7642630  21.3284590  51.2103860
  25.0377770  22.7991560  51.4430180  16.1115350  22.1882360  64.0182150
  15.9723120  23.0605160  64.3869550  15.2296710  21.8455170  63.8730090
  22.4344730  27.1058230  55.3247280  22.8740640  27.8482560  54.9102670
  22.3731620  27.3484800  56.2486240  17.9095700  28.1304060  66.2267300
  17.8811130  28.5347010  65.3595730  17.7460670  27.2014420  66.0638900
  27.9066490  13.4204970  49.6707080  27.5939150  13.5131800  50.5706150
  28.6678960  13.9986000  49.6204510  14.4248630  20.7864770  54.1284420
  14.3046230  21.5126860  53.5165690  14.1149520  20.0167680  53.6512330
  29.8610520  28.9131160  67.5231470  30.3370240  29.3914050  68.2020550
  30.4817680  28.8448650  66.7976970  12.0634000  23.9579910  59.9353060
  12.1414420  24.0928680  58.9908780  12.6775680  23.2495800  60.1281180
  13.3081630  25.6580100  56.3459240  12.9009710  25.7994690  55.4912840
  14.1994640  25.3740260  56.1430450  29.2643770  26.1044010  64.6831480
  29.3906830  25.8655890  63.7648660  29.3065150  25.2728550  65.1553560
  23.1260510  29.8072010  63.2526290  23.6405180  29.7180020  64.0548720
  22.2829590  30.1531710  63.5454200  25.1014910  30.0927350  52.6810290
  24.9416050  29.8030290  53.5792120  24.9361620  29.3167480  52.1455520
  17.5803290  29.8725880  54.4581910  17.4045770  28.9561420  54.2449710
  16.7259030  30.2313170  54.6979710  24.8041040  27.6014910  51.2408290
  24.1106200  27.5992200  50.5810570  25.5463900  27.1774230  50.8102460
  24.3690970  29.2277620  55.3156780  24.8247920  28.4467000  55.6295400
  24.7083490  29.9384440  55.8597960  29.1167780  18.1576470  65.6481220
  28.5012050  18.6656140  65.1196680  28.7964200  17.2574800  65.5907160
  12.1193520  24.9994080  62.4747520  12.2824560  24.5299440  61.6566890
  12.5845970  24.4917640  63.1396360  16.8912290  14.1299840  57.5108090
  16.4480440  14.9109380  57.1792610  17.4497280  14.4529730  58.2179030
  21.1782100  16.9968360  63.1143410  20.7161470  17.2051380  63.9263350
  20.7760210  16.1827710  62.8114080  26.1786610  18.2177310  64.2440070
  25.3280200  17.9183060  64.5649140  26.0188400  18.4619320  63.3323890
  23.2736320  19.7179060  66.3438860  23.5989730  18.8842810  66.0041090
  24.0616650  20.2407580  66.4917190  20.0071110  13.7510540  52.3913920
  19.3825290  13.7470410  53.1167230  19.9201230  12.8841500  51.9949890
  18.9288190  14.6747170  59.3697690  19.2260520  15.5810000  59.2889710
  19.4773750  14.1865950  58.7557260  16.6826510  19.2533410  55.2389340
  16.4567430  19.0370580  56.1435960  15.9019040  19.6861870  54.8935310
  23.9124270  19.2596780  53.8379990  23.3133160  19.9832580  53.6543610
  24.4603880  19.1973560  53.0556440  19.1225720  20.1518990  65.9049610
  19.0269320  19.2113720  65.7550010  19.9657700  20.3734060  65.5097680
  22.5189140  17.8960320  55.8683270  22.9118710  18.2132520  55.0551960
  22.8805990  17.0172200  55.9827790  14.2536260  16.5632660  64.0583390
  13.8599650  17.4107870  64.2656170  13.5654660  15.9259030  64.2492030
  20.8281310  16.6467630  67.1280130  20.1379630  16.4539830  67.7626220
  21.5713610  16.9302270  67.6604430  11.5553310  14.4861120  58.0913470
  11.2666360  15.0563980  58.8038450  12.2999070  14.0065570  58.4544700
  11.7423540  18.4281240  49.3016190  11.6598210  19.3712000  49.4431180
  11.3906600  18.2856150  48.4228540  23.1044280  20.4866070  59.9634050
  22.3725400  20.9952880  60.3124150  22.7068620  19.6696050  59.6622830
  19.5421670  17.1620270  58.3686540  19.5457730  16.7210220  57.5191080
  20.4372790  17.4837600  58.4758360  15.3924050  17.0446760  57.3280750
  15.0524100  17.5221990  58.0847800  14.6301370  16.5911880  56.9681850
  19.6041820  18.1632350  51.3593300  19.7254640  18.1218830  52.3079120
  19.2190330  19.0256500  51.2040030  23.5670190  15.9399750  59.3756990
  23.5842930  16.3908400  60.2198840  23.3185770  15.0405390  59.5890430
  18.6163320  20.4733490  50.7576600  18.0480220  20.0251740  50.1312510
  19.3252320  20.8326270  50.2241750  26.9940940  13.3531930  65.2143370
  27.3186710  12.6221590  65.7401350  27.0297450  13.0345570  64.3124360
  13.6932500  24.3745510  64.6343330  13.3087290  23.7339180  65.2326290
  14.0044690  25.0781630  65.2038060  19.8429640  21.2222050  60.1151950
  20.2099770  20.7480620  60.8613290  19.6534700  22.0963620  60.4560290
  12.7070130  15.9665740  56.2445420  12.4217050  15.6021410  57.0824040
  12.6448990  15.2346200  55.6308560  17.6329010  20.2630690  62.4336160
  17.3286080  21.1422670  62.6586520  18.5875470  20.3230480  62.4693600
  16.1610800  24.4691680  53.0303010  15.3873060  23.9289300  52.8701730
  16.8905430  23.9498290  52.6920770  26.9198780  23.4657040  58.8229400
  27.6397900  23.9612330  58.4325510  26.7180600  22.7874930  58.1783270
  22.3808720  14.8595000  52.9658790  21.5673330  14.3608170  52.8904100
  22.1870670  15.6993250  52.5495140  22.3017580  23.5366100  64.7098400
  22.2354890  22.6161770  64.4555990  21.6722720  23.6341540  65.4243040
  25.0957110  19.2314650  51.2620950  25.9836730  19.5431880  51.0872290
  25.0662200  18.3586900  50.8701530  16.2048200  24.1372060  56.6681820
  16.7226870  23.3340320  56.6138710  15.7532220  24.0751200  57.5098650
  21.0917700  25.4038340  51.9409120  21.4333400  26.1480570  51.4452440
  20.2630410  25.7169460  52.3033950  13.6892740  21.1033430  63.5807520
  13.3307680  21.7687280  64.1680860  13.3947300  20.2716980  63.9520140
  16.8905860  21.5617670  66.4647070  16.5906000  21.7074850  65.5674890
  17.6617100  21.0022960  66.3720460  22.2334310  26.3586670  64.4602200
  22.2478850  25.4267630  64.2421110  21.5259410  26.4446430  65.0991970
  27.3671380  20.5426490  50.7300810  27.2835100  20.9740710  49.8797250
  28.0865570  21.0024840  51.1627630  28.4445520  22.9994010  63.8070780
  27.7193710  23.5922790  63.6100170  28.9720980  22.9917550  63.0084150
  28.3958630  27.3968750  53.4582940  27.7534790  26.7424370  53.7326660
  28.0089290  27.8023840  52.6823610  23.9745110  24.7254180  57.3054630
  24.3268930  24.1282310  56.6456000  23.0907440  24.3998410  57.4762880
  20.0608390  25.4851870  54.7125040  20.7479520  26.0321080  55.0932630
  19.2740810  26.0292600  54.7474650  12.2000790  21.1024690  50.2042120
  13.0695640  21.3849490  50.4878040  11.7091110  21.9160560  50.0890930
  19.3635600  22.4897900  54.3250400  19.8198380  23.3003150  54.5510590
  19.0123810  22.1721040  55.1568890  21.6668210  28.0004240  61.5542700
  22.3110430  28.2063620  62.2316120  22.0297650  27.2392640  61.1013550
  15.2647380  12.8335550  54.7972920  15.1362010  12.8253450  55.7457840
  14.4409400  13.1718640  54.4463930  22.9400290  26.0036590  60.2720150
  23.5822520  25.3029750  60.3852320  23.4649640  26.7835030  60.0917040
  26.7856010  26.2885210  49.9959290  26.5593590  25.5715650  50.5883930
  26.3952210  26.0397650  49.1581040  24.7137910  26.8031490  63.4756210
  25.0494150  27.3898180  64.1534130  23.7938250  26.6724200  63.7054000
  12.5672040  30.3152070  50.7703750  12.9269680  30.9141410  50.1161020
  12.4264380  30.8611960  51.5438780  12.2641310  14.5926670  64.2579620
  11.5499830  14.7923590  64.8632230  12.6836350  13.8166240  64.6294420
  26.3672260  24.2057150  51.6573450  26.0793960  24.6669840  52.4451330
  27.1624430  23.7454920  51.9257670  12.5513900  28.5806930  65.2446150
  12.6605020  27.6401670  65.1041540  11.8994460  28.8461680  64.5959880
  20.5426490  26.8522820  66.6444270  20.2223360  26.1332060  67.1889960
  19.8684850  27.5277890  66.7180330  18.5840660  27.6983270  51.5877420
  18.5750760  28.4312960  50.9721930  17.6639020  27.4514850  51.6804380
  14.1847300  22.9198160  52.3324180  13.5775250  23.6597060  52.3419480
  14.6596650  23.0097520  51.5062380  23.7580090  17.0848980  62.0081070
  24.1260910  16.2644190  62.3360640  22.8978290  17.1450870  62.4236720
  27.1242120  16.0405920  52.8168630  26.4955280  16.1451590  52.1026860
  26.6294040  16.2602700  53.6062510  21.5700260  27.7611510  50.2502610
  21.6712240  27.5575500  49.3204590  20.6702000  27.5069790  50.4550390
  19.0926150  18.3191870  54.2326510  18.3842300  18.7878210  54.6740120
  19.3770630  17.6613880  54.8671700  20.7182080  19.7388570  62.2319040
  21.2167330  20.2134390  62.8970890  20.8605030  18.8152090  62.4389070
  23.1241580  15.0442530  55.6722300  23.0009360  15.0628660  54.7231810
  24.0726140  15.0921470  55.7920700  20.2118370  30.2797830  54.9450280
  20.4659870  30.2419220  54.0229650  19.2630850  30.1531160  54.9378530
  17.2961170  16.6276950  51.6077220  18.1451700  17.0647100  51.5417410
  16.9292440  16.9397210  52.4349280  27.9248940  15.9556530  63.0747430
  27.4222540  16.6961930  63.4141240  28.7405600  16.3440530  62.7584220
  26.2170950  21.1989710  56.5208790  25.2761090  21.2139940  56.6956480
  26.5315020  20.4125670  56.9669090  16.1952590  22.8809310  50.0812750
  16.9615860  22.7690670  50.6438180  16.2727280  22.1847280  49.4289520
  14.8899350  20.3134380  50.7645640  14.9702940  19.3661890  50.8763040
  15.7819100  20.6441260  50.8706300  28.2196530  28.3698560  58.1963050
  28.3443950  29.1929730  58.6686860  29.0862090  28.1589290  57.8487200
  15.6914060  30.4629770  57.8680180  16.4276540  29.9145230  58.1388750
  16.0754980  31.3285780  57.7286170  12.5759540  26.5303340  53.7421690
  11.6499320  26.7724480  53.7327100  13.0415970  27.3577600  53.6206440
  14.6972340  29.6475840  67.0565760  15.4985070  29.9687890  67.4701160
  14.1824160  29.2871420  67.7785670  18.8016370  29.6360080  49.6905750
  19.5944980  29.9248910  49.2387540  18.2820720  29.2052250  49.0118230
  23.5336970  25.7555710  67.0041170  22.9275130  25.7787310  66.2636920
  23.2291080  25.0238750  67.5408420  24.9637340  29.4836000  65.6150580
  25.9159090  29.3994020  65.5650820  24.8165560  30.1477710  66.2884370
  27.8546540  28.8630210  51.1142490  27.5688050  28.4495350  50.2996670
  27.6566090  29.7917920  50.9943010  12.4170150  22.1349300  66.0001810
  12.9209170  21.5556580  66.5718040  11.6777570  22.4189530  66.5378180
  19.3193770  24.8563490  49.5548100  19.2144410  24.2415840  50.2809480
  19.1517990  24.3329380  48.7711110  19.4708090  23.5420290  65.5337330
  18.7053760  24.1105290  65.4492000  19.6524050  23.2496500  64.6405560
  22.5596500  23.9183520  50.1590090  22.0106600  24.3652820  50.8032830
  23.1815760  23.4132770  50.6827760  26.6131440  25.2725620  66.0912350
  27.3540910  25.6101380  65.5879810  25.8504120  25.4417680  65.5382120
  14.4493230  20.2778890  66.8951880  14.4898570  19.9792760  67.8037110
  15.3038730  20.6786500  66.7359400  18.2271620  22.8774440  52.0555390
  18.6488040  22.7114310  52.8986780  18.3522460  22.0674670  51.5610530
  16.3899040  18.8570990  64.8626370  15.8595500  18.3661940  64.2349710
  17.0587110  19.2855190  64.3284300  20.7399260  21.9012050  49.3032490
  21.2604920  21.1861070  48.9373640  21.3867660  22.5397920  49.6033000
  25.2877100  23.3240450  64.6267560  25.7018120  23.4785530  65.4757980
  24.3528100  23.4495670  64.7893340  25.7599270  20.6636610  66.6306710
  26.3420040  19.9088930  66.5427190  25.9361040  21.1944050  65.8538190
  16.8771340  15.8233360  64.9423660  16.7828210  15.2054110  64.2174530
  16.2968730  16.5499650  64.7153570  19.6432780  14.3806600  61.9751050
  19.1950080  14.4030860  61.1296600  19.0097980  13.9825620  62.5721350
  20.0492330  23.2760930  62.5963490  20.4680440  24.1193660  62.4239730
  19.1300960  23.4132970  62.3670270  22.3856230  21.0077110  63.9801330
  22.5052440  20.4118250  64.7196170  23.2450230  21.0446800  63.5602630
  24.7244130  21.5614300  62.5563840  24.1979350  22.0856920  61.9528980
  25.0675470  22.1941690  63.1873570  17.1230520  18.9507670  49.0013550
  16.9219580  18.0875030  49.3626890  16.9522570  18.8641030  48.0635150
  17.8999750  29.5813940  63.7121220  17.3620840  30.3060000  63.3929920
  18.1533710  29.1044280  62.9218560  19.1525000  17.5498460  65.2377150
  19.7424690  17.2414310  65.9254970  18.3345240  17.0778210  65.3937050
  23.9718430  17.1664270  65.4710170  23.2833950  16.5045810  65.4060160
  24.6924450  16.7202540  65.9158630  24.6018830  13.7615900  51.5300430
  24.8821120  12.9183800  51.8859850  23.8284560  13.9939010  52.0439180
  15.9213320  16.0508290  48.9891430  16.2239220  16.0575720  48.0810580
  16.6607910  15.7006150  49.4859090  20.7561960  30.8165150  63.9707870
  20.6820660  31.7200290  64.2780240  19.8540800  30.4977050  63.9429940
  19.1398250  14.9942910  49.9747630  18.7920250  14.3166900  49.3950080
  19.3411020  14.5332420  50.7891020  21.3047290  29.9823660  51.5934230
  22.1998080  30.3208630  51.6152990  21.3364920  29.2603070  50.9658510
  14.9443450  25.3550710  49.8221230  15.3818320  25.8980380  50.4778810
  15.4291180  24.5297660  49.8317570  12.1589250  28.1439740  57.2741490
  12.4892260  27.2760800  57.0420130  12.5880250  28.3498260  58.1046450
  16.7551170  26.4748750  54.9343460  16.4546710  26.3513720  55.8347370
  16.6488660  25.6157340  54.5259190  12.6479460  29.0110330  60.0123120
  12.2110450  29.1911130  60.8447270  13.2157140  29.7684950  59.8704840
  28.2841640  28.5127330  64.3000430  27.6843630  28.5719890  63.5564350
  28.4135540  27.5732310  64.4297280  29.5243090  26.2545150  49.6370140
  28.6936050  26.3221800  50.1077370  29.7014920  27.1449270  49.3337000
  28.9799550  22.9992630  52.1404340  29.7418460  23.5689280  52.2464030
  28.9953920  22.4319830  52.9112650  12.4803890  21.5230560  56.3712000
  11.8252730  21.2542200  55.7271700  13.3181840  21.4135040  55.9213980
  29.9859520  23.8542730  56.9846270  30.3568350  23.0710050  56.5782240
  30.6261450  24.5431830  56.8063570  26.9693280  25.2379310  62.3976590
  26.1553120  25.6676470  62.6602380  27.3767480  25.8497720  61.7845640
  29.0318720  23.2927000  49.2976860  29.3067560  24.2005880  49.1696080
  28.8429460  23.2289530  50.2338850  25.4294330  16.3171850  50.5930490
  25.8479210  16.1302830  49.7527150  25.1230390  15.4650900  50.9033420
  28.9284060  21.2295990  54.2906290  28.5527660  20.4623920  53.8587580
  28.1987180  21.6118690  54.7781220  13.5179820  21.9083130  60.9115340
  13.8852860  21.8210530  61.7911360  12.9490640  21.1449680  60.8122200
  28.3183680  20.3767510  63.9245810  28.0869770  20.1480260  63.0243760
  28.5788230  21.2967060  63.8790700  13.0695820  18.8192220  64.8173760
  12.1751870  18.7858980  65.1567470  13.6093370  19.0179010  65.5825010
  26.7571750  15.6023940  66.7025510  27.6341930  15.6107340  67.0859510
  26.7692590  14.8654780  66.0917860  11.6941970  18.7329490  52.3137330
  10.7906050  18.9959690  52.1388990  12.1782590  19.0040660  51.5337290
  28.2035020  19.4553480  57.5913530  28.7272500  18.9616130  56.9603700
  28.7894440  19.5903840  58.3361100  28.3824740  19.5393350  61.1133080
  27.4327450  19.5056890  61.2278070  28.5637750  20.4493460  60.8782850
  14.2369180  17.7895030  50.2231710  14.9460880  17.3678250  49.7378990
  13.5209120  17.8570260  49.5915060  13.8843340  13.8434360  49.2634360
  14.6071470  14.3843300  49.5815580  14.1567860  13.5697780  48.3875900
  27.6934990  18.7126830  53.5305940  28.1894110  18.4797700  54.3154820
  27.4951060  17.8738670  53.1143580  13.5735530  13.0940550  59.1656980
  14.2211720  12.5437930  58.7252140  13.9937370  13.3483700  59.9872790
  29.1222150  17.3487780  56.0643620  29.0121430  17.1943820  57.0025890
  29.8829740  16.8208720  55.8219030  27.4687870  13.2881910  62.5226620
  28.1060090  13.9016050  62.8885810  27.6162760  13.3242570  61.5775850
  30.0112420  15.1795700  49.3049760  30.9361730  15.0476880  49.0968050
  29.9888210  15.2588520  50.2586210  30.0850910  15.9506360  51.9306470
  29.2902410  15.8851480  52.4599380  30.2894190  16.8857000  51.9191820
  27.0269330  29.9897910  55.9244860  27.6228400  29.6682480  55.2479280
  27.2847480  29.5169730  56.7158130  13.3267530  13.2496220  61.9082300
  12.9782350  13.7060040  62.6740480  12.9955230  12.3553350  61.9904730
  14.9331900  26.4215820  66.0735490  14.8901530  26.0508730  66.9549950
  15.0642910  27.3593390  66.2137310  18.6337930  27.9775410  61.6745210
  18.3929290  28.2449970  60.7875730  19.5740570  28.1481140  61.7296070
  20.8392350  14.4408100  65.4301720  20.7781240  15.0329930  66.1797130
  21.7792730  14.3334060  65.2851980  23.4766910  14.0978160  65.0694010
  24.0907320  14.4157450  64.4075090  24.0216470  13.6126750  65.6889870
  29.8942090  29.9969790  62.4755850  29.4000370  30.3938660  61.7582980
  29.2855380  29.3719000  62.8693130  13.9988170  12.7772420  65.1833070
  14.5471160  12.5960470  64.4199180  14.0643480  11.9866530  65.7189380
  14.7719930  29.3678070  63.1933270  14.1780250  29.2362770  63.9323310
  14.7643770  28.5316210  62.7275370  24.2174950  12.6610300  61.3963300
  23.3434790  12.9945410  61.1936230  24.1085700  12.1883480  62.2215170
  25.1246930  14.8681170  62.7805020  24.7960290  14.0532930  62.4006750
  26.0729230  14.8250980  62.6570710  27.5781540  30.6393210  59.7542590
  27.1184510  31.3909020  59.3800610  26.9494000  29.9199680  59.6957390
  14.4032160  26.7336450  62.1441310  13.6766220  26.1141740  62.0767260
  14.4641310  27.1277060  61.2739390  18.0077260  28.9481450  58.9290720
  18.5242280  28.3368810  58.4038980  18.6574640  29.4510230  59.4201730
  20.7472760  29.8389940  59.7559700  21.0350570  29.5844240  58.8792710
  21.2595980  29.2867300  60.3465270  21.9649770  13.5780140  60.3356210
  21.1821560  14.0525640  60.6152970  21.6712700  12.6734970  60.2269390
  26.5170840  14.2803240  58.3805300  26.9578930  14.2248340  57.5326900
  26.2478430  15.1961250  58.4515480  28.3809410  13.9118480  56.3914120
  28.3197810  12.9679700  56.2445140  29.1601440  14.0198570  56.9367580
  12.6862160  30.0510840  55.3538070  12.5184200  29.4181520  56.0519960
  11.8196670  30.2570240  55.0032260  13.3090180  13.8827620  52.8569930
  14.0669540  13.9956500  52.2833960  12.8467350  14.7196820  52.8113360
  19.8503990  15.9966890  55.8472240  19.0378500  15.6223780  55.5068120
  20.3545630  15.2411970  56.1493430  24.3528970  12.6609340  57.0855310
  24.9558340  13.2329550  57.5603830  23.6121960  13.2248780  56.8629210
  27.4963570  13.0630900  52.3595590  27.6914200  13.9614350  52.6263020
  26.7093440  12.8317980  52.8528540  14.2924860  28.7444070  52.7988210
  13.7672480  29.1252100  52.0950170  14.2169440  29.3694840  53.5197920
  15.6815330  14.4091670  51.3971900  16.2108090  13.6221470  51.2679850
  16.3143650  15.0882860  51.6307430  17.8753170  14.1466810  54.4517290
  17.2455910  13.4454120  54.6187420  17.3358310  14.9070940  54.2350450
  20.8145120  30.7606040  67.1227900  21.7412430  30.5250310  67.1663860
  20.7995550  31.5878040  66.6413930  29.0490180  30.3031610  54.1202150
  29.2242370  29.6169350  53.4763070  28.3511750  30.8278660  53.7278820
  18.0008730  13.4250790  66.8869780  17.7193000  13.9284390  66.1230600
  18.3828430  12.6272540  66.5211910  16.8917830  30.6926450  51.6737460
  17.6236650  30.4085730  51.1261350  17.1511500  30.4539730  52.5636840
  16.0532620  26.8091180  51.6783790  15.4241500  27.2776280  52.2269620
  16.1680450  25.9640400  52.1129980  24.6024190  12.8404370  67.4650250
  24.4889640  13.1598980  68.3601770  25.4193930  13.2416880  67.1687530
  27.3822680  29.9875900  66.9468940  28.1748000  29.4925130  66.7394900
  27.6755830  30.6666040  67.5544550  23.5082340  20.8596840  37.8284990
  23.4276390  19.9451450  37.5576700  23.0946760  21.3563910  37.1224700
  21.6400380  22.6375860  39.7094260  20.8642480  22.1576300  39.9992830
  22.2913310  21.9581510  39.5350420  15.6566210  22.9495670  40.5870020
  14.8251090  22.6944380  40.9866530  16.2647190  23.0206440  41.3227940
  25.6607810  27.0436050  38.4893390  25.1989340  26.2723290  38.8180560
  26.4733360  27.0702120  38.9945840  15.6367470  26.9835760  40.7828040
  15.9395510  26.0933500  40.6038260  16.3811060  27.5405980  40.5550290
  14.0658160  17.9097560  34.3712410  13.1774860  18.2513530  34.2692290
  14.3499350  17.7097880  33.4793240  12.0291170  20.5103210  40.2552110
  12.6007280  19.7425410  40.2555750  12.0292710  20.8091970  39.3458720
  21.8871120  29.3294060  38.1097380  21.2682560  29.7851560  37.5391820
  22.7422900  29.4845520  37.7087080  21.0809370  25.3133050  39.7164420
  21.0117650  24.3722990  39.5553550  21.8429230  25.4034460  40.2886990
  13.2716040  15.9187570  42.0421040  13.0918880  15.0213320  42.3223800
  12.8696120  16.4659440  42.7167990  22.1114540  18.1203430  39.9433350
  22.4879360  17.2475310  39.8307020  22.0134050  18.4562130  39.0523790
  16.2419550  16.4929060  35.4050790  16.3486300  17.3932790  35.7119550
  15.3311910  16.4447030  35.1145440  25.8938660  15.6153870  36.8761690
  26.7148280  15.1250440  36.9187170  25.9272740  16.2051530  37.6293530
  13.8902710  18.4148070  40.6503380  14.5712820  18.6786440  41.2690780
  13.5750760  17.5748940  40.9841390  18.0827280  19.4615430  39.7375970
  18.5905500  19.9596400  40.3780990  18.6140520  18.6850630  39.5615330
  30.1838210  17.6320620  43.4405320  29.4790380  18.0202330  42.9220430
  30.4496130  18.3270910  44.0426250  16.3663380  14.1013990  44.0039390
  16.3681820  14.6186380  43.1985290  15.5367690  13.6244170  43.9809320
  22.7534470  24.2133300  35.5029290  22.1351740  24.6782750  34.9392010
  23.2657720  24.9060780  35.9198800  17.6166230  23.7409170  42.1812890
  17.2835610  24.3678090  42.8233960  17.7932910  24.2671050  41.4014560
  26.1300140  17.5554250  39.6489230  25.4255710  17.8439140  40.2292340
  26.4912300  18.3654360  39.2888790  16.0478710  15.8123950  42.0109840
  16.3895520  16.6566000  41.7163710  15.1094520  15.9607690  42.1275180
  16.8285330  25.7089970  43.9962070  17.4459330  26.3841050  43.7146520
  15.9678450  26.1177950  43.9049570  12.1217670  24.8989830  32.8768920
  11.7445650  25.3876930  32.1453820  12.3790740  25.5715110  33.5075450
  27.7462920  27.1729380  41.9116710  27.0626440  27.8428490  41.9033380
  28.2857210  27.3710030  41.1461570  29.1987060  17.0009040  40.0398440
  28.2511970  17.0348020  40.1713870  29.5237050  17.8147990  40.4247800
  19.7306600  13.3006220  38.3354430  20.0381580  12.7453110  37.6189930
  18.8007300  13.4350680  38.1527420  25.2821660  29.0173510  40.6261890
  25.2948820  28.6135800  39.7584150  24.7296880  29.7920800  40.5223320
  26.5767080  25.7389730  35.7152060  26.4663410  24.7964060  35.8401480
  26.5735330  26.1005370  36.6014820  24.6807100  23.9203350  41.9544500
  25.0975890  23.7063460  41.1197960  25.4046920  24.1776140  42.5253120
  22.1187360  21.3655050  35.0714550  21.1916640  21.2992430  35.3003020
  22.2712180  22.3035180  34.9569790  22.1056440  17.6372050  32.0681710
  21.1660110  17.7986010  32.1534170  22.4239700  18.3557730  31.5217700
  28.6269200  22.3190570  42.0460740  27.7987830  22.3883660  41.5710870
  29.2219680  22.9044880  41.5776570  26.1484650  22.9275350  35.5749800
  25.5297070  22.5894900  34.9276100  26.1309100  22.2835110  36.2828990
  25.5911210  19.1059890  42.9915610  25.1782390  19.9313600  43.2455600
  24.8587160  18.5204930  42.7991970  17.7244000  21.8919790  37.8534280
  17.3201000  21.1797040  37.3580180  17.8107120  21.5473030  38.7422320
  18.1925700  25.5787350  40.0173490  17.8953990  24.9732820  39.3381270
  19.1425520  25.6164660  39.9062850  16.4372620  18.6663000  41.6333320
  16.9887210  18.7758340  40.8586570  16.9516130  19.0400600  42.3488550
  26.2811310  29.1519220  43.6796590  25.8041870  29.9591410  43.4869200
  25.5973100  28.4997550  43.8322800  17.2844130  25.3169040  46.6681290
  16.3872660  25.5409010  46.9154690  17.3097000  25.4403980  45.7192690
  24.3249350  22.1662160  32.5822550  24.7642630  21.3284590  32.4360370
  25.0377770  22.7991560  32.6686690  16.1115350  22.1882360  45.2438660
  15.9723120  23.0605160  45.6126060  15.2296710  21.8455170  45.0986600
  22.4344730  27.1058230  36.5503790  22.8740640  27.8482560  36.1359180
  22.3731620  27.3484800  37.4742750  17.9095700  28.1304060  47.4523810
  17.8811130  28.5347010  46.5852240  17.7460670  27.2014420  47.2895410
  27.9066490  13.4204970  30.8963590  27.5939150  13.5131800  31.7962660
  28.6678960  13.9986000  30.8461020  14.4248630  20.7864770  35.3540930
  14.3046230  21.5126860  34.7422200  14.1149520  20.0167680  34.8768840
  29.8610520  28.9131160  48.7487980  30.3370240  29.3914050  49.4277060
  30.4817680  28.8448650  48.0233480  12.0634000  23.9579910  41.1609570
  12.1414420  24.0928680  40.2165290  12.6775680  23.2495800  41.3537690
  13.3081630  25.6580100  37.5715750  12.9009710  25.7994690  36.7169350
  14.1994640  25.3740260  37.3686960  29.2643770  26.1044010  45.9087990
  29.3906830  25.8655890  44.9905170  29.3065150  25.2728550  46.3810070
  23.1260510  29.8072010  44.4782800  23.6405180  29.7180020  45.2805230
  22.2829590  30.1531710  44.7710710  25.1014910  30.0927350  33.9066800
  24.9416050  29.8030290  34.8048630  24.9361620  29.3167480  33.3712030
  17.5803290  29.8725880  35.6838420  17.4045770  28.9561420  35.4706220
  16.7259030  30.2313170  35.9236220  24.8041040  27.6014910  32.4664800
  24.1106200  27.5992200  31.8067080  25.5463900  27.1774230  32.0358970
  24.3690970  29.2277620  36.5413290  24.8247920  28.4467000  36.8551910
  24.7083490  29.9384440  37.0854470  29.1167780  18.1576470  46.8737730
  28.5012050  18.6656140  46.3453190  28.7964200  17.2574800  46.8163670
  12.1193520  24.9994080  43.7004030  12.2824560  24.5299440  42.8823400
  12.5845970  24.4917640  44.3652870  16.8912290  14.1299840  38.7364600
  16.4480440  14.9109380  38.4049120  17.4497280  14.4529730  39.4435540
  21.1782100  16.9968360  44.3399920  20.7161470  17.2051380  45.1519860
  20.7760210  16.1827710  44.0370590  26.1786610  18.2177310  45.4696580
  25.3280200  17.9183060  45.7905650  26.0188400  18.4619320  44.5580400
  23.2736320  19.7179060  47.5695370  23.5989730  18.8842810  47.2297600
  24.0616650  20.2407580  47.7173700  20.0071110  13.7510540  33.6170430
  19.3825290  13.7470410  34.3423740  19.9201230  12.8841500  33.2206400
  18.9288190  14.6747170  40.5954200  19.2260520  15.5810000  40.5146220
  19.4773750  14.1865950  39.9813770  16.6826510  19.2533410  36.4645850
  16.4567430  19.0370580  37.3692470  15.9019040  19.6861870  36.1191820
  23.9124270  19.2596780  35.0636500  23.3133160  19.9832580  34.8800120
  24.4603880  19.1973560  34.2812950  19.1225720  20.1518990  47.1306120
  19.0269320  19.2113720  46.9806520  19.9657700  20.3734060  46.7354190
  22.5189140  17.8960320  37.0939780  22.9118710  18.2132520  36.2808470
  22.8805990  17.0172200  37.2084300  14.2536260  16.5632660  45.2839900
  13.8599650  17.4107870  45.4912680  13.5654660  15.9259030  45.4748540
  20.8281310  16.6467630  48.3536640  20.1379630  16.4539830  48.9882730
  21.5713610  16.9302270  48.8860940  11.5553310  14.4861120  39.3169980
  11.2666360  15.0563980  40.0294960  12.2999070  14.0065570  39.6801210
  11.7423540  18.4281240  30.5272700  11.6598210  19.3712000  30.6687690
  11.3906600  18.2856150  29.6485050  23.1044280  20.4866070  41.1890560
  22.3725400  20.9952880  41.5380660  22.7068620  19.6696050  40.8879340
  19.5421670  17.1620270  39.5943050  19.5457730  16.7210220  38.7447590
  20.4372790  17.4837600  39.7014870  15.3924050  17.0446760  38.5537260
  15.0524100  17.5221990  39.3104310  14.6301370  16.5911880  38.1938360
  19.6041820  18.1632350  32.5849810  19.7254640  18.1218830  33.5335630
  19.2190330  19.0256500  32.4296540  23.5670190  15.9399750  40.6013500
  23.5842930  16.3908400  41.4455350  23.3185770  15.0405390  40.8146940
  18.6163320  20.4733490  31.9833110  18.0480220  20.0251740  31.3569020
  19.3252320  20.8326270  31.4498260  26.9940940  13.3531930  46.4399880
  27.3186710  12.6221590  46.9657860  27.0297450  13.0345570  45.5380870
  13.6932500  24.3745510  45.8599840  13.3087290  23.7339180  46.4582800
  14.0044690  25.0781630  46.4294570  19.8429640  21.2222050  41.3408460
  20.2099770  20.7480620  42.0869800  19.6534700  22.0963620  41.6816800
  12.7070130  15.9665740  37.4701930  12.4217050  15.6021410  38.3080550
  12.6448990  15.2346200  36.8565070  17.6329010  20.2630690  43.6592670
  17.3286080  21.1422670  43.8843030  18.5875470  20.3230480  43.6950110
  16.1610800  24.4691680  34.2559520  15.3873060  23.9289300  34.0958240
  16.8905430  23.9498290  33.9177280  26.9198780  23.4657040  40.0485910
  27.6397900  23.9612330  39.6582020  26.7180600  22.7874930  39.4039780
  22.3808720  14.8595000  34.1915300  21.5673330  14.3608170  34.1160610
  22.1870670  15.6993250  33.7751650  22.3017580  23.5366100  45.9354910
  22.2354890  22.6161770  45.6812500  21.6722720  23.6341540  46.6499550
  25.0957110  19.2314650  32.4877460  25.9836730  19.5431880  32.3128800
  25.0662200  18.3586900  32.0958040  16.2048200  24.1372060  37.8938330
  16.7226870  23.3340320  37.8395220  15.7532220  24.0751200  38.7355160
  21.0917700  25.4038340  33.1665630  21.4333400  26.1480570  32.6708950
  20.2630410  25.7169460  33.5290460  13.6892740  21.1033430  44.8064030
  13.3307680  21.7687280  45.3937370  13.3947300  20.2716980  45.1776650
  16.8905860  21.5617670  47.6903580  16.5906000  21.7074850  46.7931400
  17.6617100  21.0022960  47.5976970  22.2334310  26.3586670  45.6858710
  22.2478850  25.4267630  45.4677620  21.5259410  26.4446430  46.3248480
  27.3671380  20.5426490  31.9557320  27.2835100  20.9740710  31.1053760
  28.0865570  21.0024840  32.3884140  28.4445520  22.9994010  45.0327290
  27.7193710  23.5922790  44.8356680  28.9720980  22.9917550  44.2340660
  28.3958630  27.3968750  34.6839450  27.7534790  26.7424370  34.9583170
  28.0089290  27.8023840  33.9080120  23.9745110  24.7254180  38.5311140
  24.3268930  24.1282310  37.8712510  23.0907440  24.3998410  38.7019390
  20.0608390  25.4851870  35.9381550  20.7479520  26.0321080  36.3189140
  19.2740810  26.0292600  35.9731160  12.2000790  21.1024690  31.4298630
  13.0695640  21.3849490  31.7134550  11.7091110  21.9160560  31.3147440
  19.3635600  22.4897900  35.5506910  19.8198380  23.3003150  35.7767100
  19.0123810  22.1721040  36.3825400  21.6668210  28.0004240  42.7799210
  22.3110430  28.2063620  43.4572630  22.0297650  27.2392640  42.3270060
  15.2647380  12.8335550  36.0229430  15.1362010  12.8253450  36.9714350
  14.4409400  13.1718640  35.6720440  22.9400290  26.0036590  41.4976660
  23.5822520  25.3029750  41.6108830  23.4649640  26.7835030  41.3173550
  26.7856010  26.2885210  31.2215800  26.5593590  25.5715650  31.8140440
  26.3952210  26.0397650  30.3837550  24.7137910  26.8031490  44.7012720
  25.0494150  27.3898180  45.3790640  23.7938250  26.6724200  44.9310510
  12.5672040  30.3152070  31.9960260  12.9269680  30.9141410  31.3417530
  12.4264380  30.8611960  32.7695290  12.2641310  14.5926670  45.4836130
  11.5499830  14.7923590  46.0888740  12.6836350  13.8166240  45.8550930
  26.3672260  24.2057150  32.8829960  26.0793960  24.6669840  33.6707840
  27.1624430  23.7454920  33.1514180  12.5513900  28.5806930  46.4702660
  12.6605020  27.6401670  46.3298050  11.8994460  28.8461680  45.8216390
  20.5426490  26.8522820  47.8700780  20.2223360  26.1332060  48.4146470
  19.8684850  27.5277890  47.9436840  18.5840660  27.6983270  32.8133930
  18.5750760  28.4312960  32.1978440  17.6639020  27.4514850  32.9060890
  14.1847300  22.9198160  33.5580690  13.5775250  23.6597060  33.5675990
  14.6596650  23.0097520  32.7318890  23.7580090  17.0848980  43.2337580
  24.1260910  16.2644190  43.5617150  22.8978290  17.1450870  43.6493230
  27.1242120  16.0405920  34.0425140  26.4955280  16.1451590  33.3283370
  26.6294040  16.2602700  34.8319020  21.5700260  27.7611510  31.4759120
  21.6712240  27.5575500  30.5461100  20.6702000  27.5069790  31.6806900
  19.0926150  18.3191870  35.4583020  18.3842300  18.7878210  35.8996630
  19.3770630  17.6613880  36.0928210  20.7182080  19.7388570  43.4575550
  21.2167330  20.2134390  44.1227400  20.8605030  18.8152090  43.6645580
  23.1241580  15.0442530  36.8978810  23.0009360  15.0628660  35.9488320
  24.0726140  15.0921470  37.0177210  20.2118370  30.2797830  36.1706790
  20.4659870  30.2419220  35.2486160  19.2630850  30.1531160  36.1635040
  17.2961170  16.6276950  32.8333730  18.1451700  17.0647100  32.7673920
  16.9292440  16.9397210  33.6605790  27.9248940  15.9556530  44.3003940
  27.4222540  16.6961930  44.6397750  28.7405600  16.3440530  43.9840730
  26.2170950  21.1989710  37.7465300  25.2761090  21.2139940  37.9212990
  26.5315020  20.4125670  38.1925600  16.1952590  22.8809310  31.3069260
  16.9615860  22.7690670  31.8694690  16.2727280  22.1847280  30.6546030
  14.8899350  20.3134380  31.9902150  14.9702940  19.3661890  32.1019550
  15.7819100  20.6441260  32.0962810  28.2196530  28.3698560  39.4219560
  28.3443950  29.1929730  39.8943370  29.0862090  28.1589290  39.0743710
  15.6914060  30.4629770  39.0936690  16.4276540  29.9145230  39.3645260
  16.0754980  31.3285780  38.9542680  12.5759540  26.5303340  34.9678200
  11.6499320  26.7724480  34.9583610  13.0415970  27.3577600  34.8462950
  14.6972340  29.6475840  48.2822270  15.4985070  29.9687890  48.6957670
  14.1824160  29.2871420  49.0042180  18.8016370  29.6360080  30.9162260
  19.5944980  29.9248910  30.4644050  18.2820720  29.2052250  30.2374740
  23.5336970  25.7555710  48.2297680  22.9275130  25.7787310  47.4893430
  23.2291080  25.0238750  48.7664930  24.9637340  29.4836000  46.8407090
  25.9159090  29.3994020  46.7907330  24.8165560  30.1477710  47.5140880
  27.8546540  28.8630210  32.3399000  27.5688050  28.4495350  31.5253180
  27.6566090  29.7917920  32.2199520  12.4170150  22.1349300  47.2258320
  12.9209170  21.5556580  47.7974550  11.6777570  22.4189530  47.7634690
  19.3193770  24.8563490  30.7804610  19.2144410  24.2415840  31.5065990
  19.1517990  24.3329380  29.9967620  19.4708090  23.5420290  46.7593840
  18.7053760  24.1105290  46.6748510  19.6524050  23.2496500  45.8662070
  22.5596500  23.9183520  31.3846600  22.0106600  24.3652820  32.0289340
  23.1815760  23.4132770  31.9084270  26.6131440  25.2725620  47.3168860
  27.3540910  25.6101380  46.8136320  25.8504120  25.4417680  46.7638630
  14.4493230  20.2778890  48.1208390  14.4898570  19.9792760  49.0293620
  15.3038730  20.6786500  47.9615910  18.2271620  22.8774440  33.2811900
  18.6488040  22.7114310  34.1243290  18.3522460  22.0674670  32.7867040
  16.3899040  18.8570990  46.0882880  15.8595500  18.3661940  45.4606220
  17.0587110  19.2855190  45.5540810  20.7399260  21.9012050  30.5289000
  21.2604920  21.1861070  30.1630150  21.3867660  22.5397920  30.8289510
  25.2877100  23.3240450  45.8524070  25.7018120  23.4785530  46.7014490
  24.3528100  23.4495670  46.0149850  25.7599270  20.6636610  47.8563220
  26.3420040  19.9088930  47.7683700  25.9361040  21.1944050  47.0794700
  16.8771340  15.8233360  46.1680170  16.7828210  15.2054110  45.4431040
  16.2968730  16.5499650  45.9410080  19.6432780  14.3806600  43.2007560
  19.1950080  14.4030860  42.3553110  19.0097980  13.9825620  43.7977860
  20.0492330  23.2760930  43.8220000  20.4680440  24.1193660  43.6496240
  19.1300960  23.4132970  43.5926780  22.3856230  21.0077110  45.2057840
  22.5052440  20.4118250  45.9452680  23.2450230  21.0446800  44.7859140
  24.7244130  21.5614300  43.7820350  24.1979350  22.0856920  43.1785490
  25.0675470  22.1941690  44.4130080  17.1230520  18.9507670  30.2270060
  16.9219580  18.0875030  30.5883400  16.9522570  18.8641030  29.2891660
  17.8999750  29.5813940  44.9377730  17.3620840  30.3060000  44.6186430
  18.1533710  29.1044280  44.1475070  19.1525000  17.5498460  46.4633660
  19.7424690  17.2414310  47.1511480  18.3345240  17.0778210  46.6193560
  23.9718430  17.1664270  46.6966680  23.2833950  16.5045810  46.6316670
  24.6924450  16.7202540  47.1415140  24.6018830  13.7615900  32.7556940
  24.8821120  12.9183800  33.1116360  23.8284560  13.9939010  33.2695690
  15.9213320  16.0508290  30.2147940  16.2239220  16.0575720  29.3067090
  16.6607910  15.7006150  30.7115600  20.7561960  30.8165150  45.1964380
  20.6820660  31.7200290  45.5036750  19.8540800  30.4977050  45.1686450
  19.1398250  14.9942910  31.2004140  18.7920250  14.3166900  30.6206590
  19.3411020  14.5332420  32.0147530  21.3047290  29.9823660  32.8190740
  22.1998080  30.3208630  32.8409500  21.3364920  29.2603070  32.1915020
  14.9443450  25.3550710  31.0477740  15.3818320  25.8980380  31.7035320
  15.4291180  24.5297660  31.0574080  12.1589250  28.1439740  38.4998000
  12.4892260  27.2760800  38.2676640  12.5880250  28.3498260  39.3302960
  16.7551170  26.4748750  36.1599970  16.4546710  26.3513720  37.0603880
  16.6488660  25.6157340  35.7515700  12.6479460  29.0110330  41.2379630
  12.2110450  29.1911130  42.0703780  13.2157140  29.7684950  41.0961350
  28.2841640  28.5127330  45.5256940  27.6843630  28.5719890  44.7820860
  28.4135540  27.5732310  45.6553790  29.5243090  26.2545150  30.8626650
  28.6936050  26.3221800  31.3333880  29.7014920  27.1449270  30.5593510
  28.9799550  22.9992630  33.3660850  29.7418460  23.5689280  33.4720540
  28.9953920  22.4319830  34.1369160  12.4803890  21.5230560  37.5968510
  11.8252730  21.2542200  36.9528210  13.3181840  21.4135040  37.1470490
  29.9859520  23.8542730  38.2102780  30.3568350  23.0710050  37.8038750
  30.6261450  24.5431830  38.0320080  26.9693280  25.2379310  43.6233100
  26.1553120  25.6676470  43.8858890  27.3767480  25.8497720  43.0102150
  29.0318720  23.2927000  30.5233370  29.3067560  24.2005880  30.3952590
  28.8429460  23.2289530  31.4595360  25.4294330  16.3171850  31.8187000
  25.8479210  16.1302830  30.9783660  25.1230390  15.4650900  32.1289930
  28.9284060  21.2295990  35.5162800  28.5527660  20.4623920  35.0844090
  28.1987180  21.6118690  36.0037730  13.5179820  21.9083130  42.1371850
  13.8852860  21.8210530  43.0167870  12.9490640  21.1449680  42.0378710
  28.3183680  20.3767510  45.1502320  28.0869770  20.1480260  44.2500270
  28.5788230  21.2967060  45.1047210  13.0695820  18.8192220  46.0430270
  12.1751870  18.7858980  46.3823980  13.6093370  19.0179010  46.8081520
  26.7571750  15.6023940  47.9282020  27.6341930  15.6107340  48.3116020
  26.7692590  14.8654780  47.3174370  11.6941970  18.7329490  33.5393840
  10.7906050  18.9959690  33.3645500  12.1782590  19.0040660  32.7593800
  28.2035020  19.4553480  38.8170040  28.7272500  18.9616130  38.1860210
  28.7894440  19.5903840  39.5617610  28.3824740  19.5393350  42.3389590
  27.4327450  19.5056890  42.4534580  28.5637750  20.4493460  42.1039360
  14.2369180  17.7895030  31.4488220  14.9460880  17.3678250  30.9635500
  13.5209120  17.8570260  30.8171570  13.8843340  13.8434360  30.4890870
  14.6071470  14.3843300  30.8072090  14.1567860  13.5697780  29.6132410
  27.6934990  18.7126830  34.7562450  28.1894110  18.4797700  35.5411330
  27.4951060  17.8738670  34.3400090  13.5735530  13.0940550  40.3913490
  14.2211720  12.5437930  39.9508650  13.9937370  13.3483700  41.2129300
  29.1222150  17.3487780  37.2900130  29.0121430  17.1943820  38.2282400
  29.8829740  16.8208720  37.0475540  27.4687870  13.2881910  43.7483130
  28.1060090  13.9016050  44.1142320  27.6162760  13.3242570  42.8032360
  30.0112420  15.1795700  30.5306270  30.9361730  15.0476880  30.3224560
  29.9888210  15.2588520  31.4842720  30.0850910  15.9506360  33.1562980
  29.2902410  15.8851480  33.6855890  30.2894190  16.8857000  33.1448330
  27.0269330  29.9897910  37.1501370  27.6228400  29.6682480  36.4735790
  27.2847480  29.5169730  37.9414640  13.3267530  13.2496220  43.1338810
  12.9782350  13.7060040  43.8996990  12.9955230  12.3553350  43.2161240
  14.9331900  26.4215820  47.2992000  14.8901530  26.0508730  48.1806460
  15.0642910  27.3593390  47.4393820  18.6337930  27.9775410  42.9001720
  18.3929290  28.2449970  42.0132240  19.5740570  28.1481140  42.9552580
  20.8392350  14.4408100  46.6558230  20.7781240  15.0329930  47.4053640
  21.7792730  14.3334060  46.5108490  23.4766910  14.0978160  46.2950520
  24.0907320  14.4157450  45.6331600  24.0216470  13.6126750  46.9146380
  29.8942090  29.9969790  43.7012360  29.4000370  30.3938660  42.9839490
  29.2855380  29.3719000  44.0949640  13.9988170  12.7772420  46.4089580
  14.5471160  12.5960470  45.6455690  14.0643480  11.9866530  46.9445890
  14.7719930  29.3678070  44.4189780  14.1780250  29.2362770  45.1579820
  14.7643770  28.5316210  43.9531880  24.2174950  12.6610300  42.6219810
  23.3434790  12.9945410  42.4192740  24.1085700  12.1883480  43.4471680
  25.1246930  14.8681170  44.0061530  24.7960290  14.0532930  43.6263260
  26.0729230  14.8250980  43.8827220  27.5781540  30.6393210  40.9799100
  27.1184510  31.3909020  40.6057120  26.9494000  29.9199680  40.9213900
  14.4032160  26.7336450  43.3697820  13.6766220  26.1141740  43.3023770
  14.4641310  27.1277060  42.4995900  18.0077260  28.9481450  40.1547230
  18.5242280  28.3368810  39.6295490  18.6574640  29.4510230  40.6458240
  20.7472760  29.8389940  40.9816210  21.0350570  29.5844240  40.1049220
  21.2595980  29.2867300  41.5721780  21.9649770  13.5780140  41.5612720
  21.1821560  14.0525640  41.8409480  21.6712700  12.6734970  41.4525900
  26.5170840  14.2803240  39.6061810  26.9578930  14.2248340  38.7583410
  26.2478430  15.1961250  39.6771990  28.3809410  13.9118480  37.6170630
  28.3197810  12.9679700  37.4701650  29.1601440  14.0198570  38.1624090
  12.6862160  30.0510840  36.5794580  12.5184200  29.4181520  37.2776470
  11.8196670  30.2570240  36.2288770  13.3090180  13.8827620  34.0826440
  14.0669540  13.9956500  33.5090470  12.8467350  14.7196820  34.0369870
  19.8503990  15.9966890  37.0728750  19.0378500  15.6223780  36.7324630
  20.3545630  15.2411970  37.3749940  24.3528970  12.6609340  38.3111820
  24.9558340  13.2329550  38.7860340  23.6121960  13.2248780  38.0885720
  27.4963570  13.0630900  33.5852100  27.6914200  13.9614350  33.8519530
  26.7093440  12.8317980  34.0785050  14.2924860  28.7444070  34.0244720
  13.7672480  29.1252100  33.3206680  14.2169440  29.3694840  34.7454430
  15.6815330  14.4091670  32.6228410  16.2108090  13.6221470  32.4936360
  16.3143650  15.0882860  32.8563940  17.8753170  14.1466810  35.6773800
  17.2455910  13.4454120  35.8443930  17.3358310  14.9070940  35.4606960
  20.8145120  30.7606040  48.3484410  21.7412430  30.5250310  48.3920370
  20.7995550  31.5878040  47.8670440  29.0490180  30.3031610  35.3458660
  29.2242370  29.6169350  34.7019580  28.3511750  30.8278660  34.9535330
  18.0008730  13.4250790  48.1126290  17.7193000  13.9284390  47.3487110
  18.3828430  12.6272540  47.7468420  16.8917830  30.6926450  32.8993970
  17.6236650  30.4085730  32.3517860  17.1511500  30.4539730  33.7893350
  16.0532620  26.8091180  32.9040300  15.4241500  27.2776280  33.4526130
  16.1680450  25.9640400  33.3386490  24.6024190  12.8404370  48.6906760
  24.4889640  13.1598980  49.5858280  25.4193930  13.2416880  48.3944040
  27.3822680  29.9875900  48.1725450  28.1748000  29.4925130  47.9651410
  27.6755830  30.6666040  48.7801060  23.5082340  20.8596840  19.0541500
  23.4276390  19.9451450  18.7833210  23.0946760  21.3563910  18.3481210
  21.6400380  22.6375860  20.9350770  20.8642480  22.1576300  21.2249340
  22.2913310  21.9581510  20.7606930  15.6566210  22.9495670  21.8126530
  14.8251090  22.6944380  22.2123040  16.2647190  23.0206440  22.5484450
  25.6607810  27.0436050  19.7149900  25.1989340  26.2723290  20.0437070
  26.4733360  27.0702120  20.2202350  15.6367470  26.9835760  22.0084550
  15.9395510  26.0933500  21.8294770  16.3811060  27.5405980  21.7806800
  14.0658160  17.9097560  15.5968920  13.1774860  18.2513530  15.4948800
  14.3499350  17.7097880  14.7049750  12.0291170  20.5103210  21.4808620
  12.6007280  19.7425410  21.4812260  12.0292710  20.8091970  20.5715230
  21.8871120  29.3294060  19.3353890  21.2682560  29.7851560  18.7648330
  22.7422900  29.4845520  18.9343590  21.0809370  25.3133050  20.9420930
  21.0117650  24.3722990  20.7810060  21.8429230  25.4034460  21.5143500
  13.2716040  15.9187570  23.2677550  13.0918880  15.0213320  23.5480310
  12.8696120  16.4659440  23.9424500  22.1114540  18.1203430  21.1689860
  22.4879360  17.2475310  21.0563530  22.0134050  18.4562130  20.2780300
  16.2419550  16.4929060  16.6307300  16.3486300  17.3932790  16.9376060
  15.3311910  16.4447030  16.3401950  25.8938660  15.6153870  18.1018200
  26.7148280  15.1250440  18.1443680  25.9272740  16.2051530  18.8550040
  13.8902710  18.4148070  21.8759890  14.5712820  18.6786440  22.4947290
  13.5750760  17.5748940  22.2097900  18.0827280  19.4615430  20.9632480
  18.5905500  19.9596400  21.6037500  18.6140520  18.6850630  20.7871840
  30.1838210  17.6320620  24.6661830  29.4790380  18.0202330  24.1476940
  30.4496130  18.3270910  25.2682760  16.3663380  14.1013990  25.2295900
  16.3681820  14.6186380  24.4241800  15.5367690  13.6244170  25.2065830
  22.7534470  24.2133300  16.7285800  22.1351740  24.6782750  16.1648520
  23.2657720  24.9060780  17.1455310  17.6166230  23.7409170  23.4069400
  17.2835610  24.3678090  24.0490470  17.7932910  24.2671050  22.6271070
  26.1300140  17.5554250  20.8745740  25.4255710  17.8439140  21.4548850
  26.4912300  18.3654360  20.5145300  16.0478710  15.8123950  23.2366350
  16.3895520  16.6566000  22.9420220  15.1094520  15.9607690  23.3531690
  16.8285330  25.7089970  25.2218580  17.4459330  26.3841050  24.9403030
  15.9678450  26.1177950  25.1306080  12.1217670  24.8989830  14.1025430
  11.7445650  25.3876930  13.3710330  12.3790740  25.5715110  14.7331960
  27.7462920  27.1729380  23.1373220  27.0626440  27.8428490  23.1289890
  28.2857210  27.3710030  22.3718080  29.1987060  17.0009040  21.2654950
  28.2511970  17.0348020  21.3970380  29.5237050  17.8147990  21.6504310
  19.7306600  13.3006220  19.5610940  20.0381580  12.7453110  18.8446440
  18.8007300  13.4350680  19.3783930  25.2821660  29.0173510  21.8518400
  25.2948820  28.6135800  20.9840660  24.7296880  29.7920800  21.7479830
  26.5767080  25.7389730  16.9408570  26.4663410  24.7964060  17.0657990
  26.5735330  26.1005370  17.8271330  24.6807100  23.9203350  23.1801010
  25.0975890  23.7063460  22.3454470  25.4046920  24.1776140  23.7509630
  22.1187360  21.3655050  16.2971060  21.1916640  21.2992430  16.5259530
  22.2712180  22.3035180  16.1826300  22.1056440  17.6372050  13.2938220
  21.1660110  17.7986010  13.3790680  22.4239700  18.3557730  12.7474210
  28.6269200  22.3190570  23.2717250  27.7987830  22.3883660  22.7967380
  29.2219680  22.9044880  22.8033080  26.1484650  22.9275350  16.8006310
  25.5297070  22.5894900  16.1532610  26.1309100  22.2835110  17.5085500
  25.5911210  19.1059890  24.2172120  25.1782390  19.9313600  24.4712110
  24.8587160  18.5204930  24.0248480  17.7244000  21.8919790  19.0790790
  17.3201000  21.1797040  18.5836690  17.8107120  21.5473030  19.9678830
  18.1925700  25.5787350  21.2430000  17.8953990  24.9732820  20.5637780
  19.1425520  25.6164660  21.1319360  16.4372620  18.6663000  22.8589830
  16.9887210  18.7758340  22.0843080  16.9516130  19.0400600  23.5745060
  26.2811310  29.1519220  24.9053100  25.8041870  29.9591410  24.7125710
  25.5973100  28.4997550  25.0579310  17.2844130  25.3169040  27.8937800
  16.3872660  25.5409010  28.1411200  17.3097000  25.4403980  26.9449200
  24.3249350  22.1662160  13.8079060  24.7642630  21.3284590  13.6616880
  25.0377770  22.7991560  13.8943200  16.1115350  22.1882360  26.4695170
  15.9723120  23.0605160  26.8382570  15.2296710  21.8455170  26.3243110
  22.4344730  27.1058230  17.7760300  22.8740640  27.8482560  17.3615690
  22.3731620  27.3484800  18.6999260  17.9095700  28.1304060  28.6780320
  17.8811130  28.5347010  27.8108750  17.7460670  27.2014420  28.5151920
  27.9066490  13.4204970  12.1220100  27.5939150  13.5131800  13.0219170
  28.6678960  13.9986000  12.0717530  14.4248630  20.7864770  16.5797440
  14.3046230  21.5126860  15.9678710  14.1149520  20.0167680  16.1025350
  29.8610520  28.9131160  29.9744490  30.3370240  29.3914050  30.6533570
  30.4817680  28.8448650  29.2489990  12.0634000  23.9579910  22.3866080
  12.1414420  24.0928680  21.4421800  12.6775680  23.2495800  22.5794200
  13.3081630  25.6580100  18.7972260  12.9009710  25.7994690  17.9425860
  14.1994640  25.3740260  18.5943470  29.2643770  26.1044010  27.1344500
  29.3906830  25.8655890  26.2161680  29.3065150  25.2728550  27.6066580
  23.1260510  29.8072010  25.7039310  23.6405180  29.7180020  26.5061740
  22.2829590  30.1531710  25.9967220  25.1014910  30.0927350  15.1323310
  24.9416050  29.8030290  16.0305140  24.9361620  29.3167480  14.5968540
  17.5803290  29.8725880  16.9094930  17.4045770  28.9561420  16.6962730
  16.7259030  30.2313170  17.1492730  24.8041040  27.6014910  13.6921310
  24.1106200  27.5992200  13.0323590  25.5463900  27.1774230  13.2615480
  24.3690970  29.2277620  17.7669800  24.8247920  28.4467000  18.0808420
  24.7083490  29.9384440  18.3110980  29.1167780  18.1576470  28.0994240
  28.5012050  18.6656140  27.5709700  28.7964200  17.2574800  28.0420180
  12.1193520  24.9994080  24.9260540  12.2824560  24.5299440  24.1079910
  12.5845970  24.4917640  25.5909380  16.8912290  14.1299840  19.9621110
  16.4480440  14.9109380  19.6305630  17.4497280  14.4529730  20.6692050
  21.1782100  16.9968360  25.5656430  20.7161470  17.2051380  26.3776370
  20.7760210  16.1827710  25.2627100  26.1786610  18.2177310  26.6953090
  25.3280200  17.9183060  27.0162160  26.0188400  18.4619320  25.7836910
  23.2736320  19.7179060  28.7951880  23.5989730  18.8842810  28.4554110
  24.0616650  20.2407580  28.9430210  20.0071110  13.7510540  14.8426940
  19.3825290  13.7470410  15.5680250  19.9201230  12.8841500  14.4462910
  18.9288190  14.6747170  21.8210710  19.2260520  15.5810000  21.7402730
  19.4773750  14.1865950  21.2070280  16.6826510  19.2533410  17.6902360
  16.4567430  19.0370580  18.5948980  15.9019040  19.6861870  17.3448330
  23.9124270  19.2596780  16.2893010  23.3133160  19.9832580  16.1056630
  24.4603880  19.1973560  15.5069460  19.1225720  20.1518990  28.3562630
  19.0269320  19.2113720  28.2063030  19.9657700  20.3734060  27.9610700
  22.5189140  17.8960320  18.3196290  22.9118710  18.2132520  17.5064980
  22.8805990  17.0172200  18.4340810  14.2536260  16.5632660  26.5096410
  13.8599650  17.4107870  26.7169190  13.5654660  15.9259030  26.7005050
  20.8281310  16.6467630  29.5793150  20.1379630  16.4539830  30.2139240
  21.5713610  16.9302270  30.1117450  11.5553310  14.4861120  20.5426490
  11.2666360  15.0563980  21.2551470  12.2999070  14.0065570  20.9057720
  11.7423540  18.4281240  11.7529210  11.6598210  19.3712000  11.8944200
  11.3906600  18.2856150  10.8741560  23.1044280  20.4866070  22.4147070
  22.3725400  20.9952880  22.7637170  22.7068620  19.6696050  22.1135850
  19.5421670  17.1620270  20.8199560  19.5457730  16.7210220  19.9704100
  20.4372790  17.4837600  20.9271380  15.3924050  17.0446760  19.7793770
  15.0524100  17.5221990  20.5360820  14.6301370  16.5911880  19.4194870
  19.6041820  18.1632350  13.8106320  19.7254640  18.1218830  14.7592140
  19.2190330  19.0256500  13.6553050  23.5670190  15.9399750  21.8270010
  23.5842930  16.3908400  22.6711860  23.3185770  15.0405390  22.0403450
  18.6163320  20.4733490  13.2089620  18.0480220  20.0251740  12.5825530
  19.3252320  20.8326270  12.6754770  26.9940940  13.3531930  27.6656390
  27.3186710  12.6221590  28.1914370  27.0297450  13.0345570  26.7637380
  13.6932500  24.3745510  27.0856350  13.3087290  23.7339180  27.6839310
  14.0044690  25.0781630  27.6551080  19.8429640  21.2222050  22.5664970
  20.2099770  20.7480620  23.3126310  19.6534700  22.0963620  22.9073310
  12.7070130  15.9665740  18.6958440  12.4217050  15.6021410  19.5337060
  12.6448990  15.2346200  18.0821580  17.6329010  20.2630690  24.8849180
  17.3286080  21.1422670  25.1099540  18.5875470  20.3230480  24.9206620
  16.1610800  24.4691680  15.4816030  15.3873060  23.9289300  15.3214750
  16.8905430  23.9498290  15.1433790  26.9198780  23.4657040  21.2742420
  27.6397900  23.9612330  20.8838530  26.7180600  22.7874930  20.6296290
  22.3808720  14.8595000  15.4171810  21.5673330  14.3608170  15.3417120
  22.1870670  15.6993250  15.0008160  22.3017580  23.5366100  27.1611420
  22.2354890  22.6161770  26.9069010  21.6722720  23.6341540  27.8756060
  25.0957110  19.2314650  13.7133970  25.9836730  19.5431880  13.5385310
  25.0662200  18.3586900  13.3214550  16.2048200  24.1372060  19.1194840
  16.7226870  23.3340320  19.0651730  15.7532220  24.0751200  19.9611670
  21.0917700  25.4038340  14.3922140  21.4333400  26.1480570  13.8965460
  20.2630410  25.7169460  14.7546970  13.6892740  21.1033430  26.0320540
  13.3307680  21.7687280  26.6193880  13.3947300  20.2716980  26.4033160
  16.8905860  21.5617670  28.9160090  16.5906000  21.7074850  28.0187910
  17.6617100  21.0022960  28.8233480  22.2334310  26.3586670  26.9115220
  22.2478850  25.4267630  26.6934130  21.5259410  26.4446430  27.5504990
  27.3671380  20.5426490  13.1813830  27.2835100  20.9740710  12.3310270
  28.0865570  21.0024840  13.6140650  28.4445520  22.9994010  26.2583800
  27.7193710  23.5922790  26.0613190  28.9720980  22.9917550  25.4597170
  28.3958630  27.3968750  15.9095960  27.7534790  26.7424370  16.1839680
  28.0089290  27.8023840  15.1336630  23.9745110  24.7254180  19.7567650
  24.3268930  24.1282310  19.0969020  23.0907440  24.3998410  19.9275900
  20.0608390  25.4851870  17.1638060  20.7479520  26.0321080  17.5445650
  19.2740810  26.0292600  17.1987670  12.2000790  21.1024690  12.6555140
  13.0695640  21.3849490  12.9391060  11.7091110  21.9160560  12.5403950
  19.3635600  22.4897900  16.7763420  19.8198380  23.3003150  17.0023610
  19.0123810  22.1721040  17.6081910  21.6668210  28.0004240  24.0055720
  22.3110430  28.2063620  24.6829140  22.0297650  27.2392640  23.5526570
  15.2647380  12.8335550  17.2485940  15.1362010  12.8253450  18.1970860
  14.4409400  13.1718640  16.8976950  22.9400290  26.0036590  22.7233170
  23.5822520  25.3029750  22.8365340  23.4649640  26.7835030  22.5430060
  26.7856010  26.2885210  12.4472310  26.5593590  25.5715650  13.0396950
  26.3952210  26.0397650  11.6094060  24.7137910  26.8031490  25.9269230
  25.0494150  27.3898180  26.6047150  23.7938250  26.6724200  26.1567020
  12.5672040  30.3152070  13.2216770  12.9269680  30.9141410  12.5674040
  12.4264380  30.8611960  13.9951800  12.2641310  14.5926670  26.7092640
  11.5499830  14.7923590  27.3145250  12.6836350  13.8166240  27.0807440
  26.3672260  24.2057150  14.1086470  26.0793960  24.6669840  14.8964350
  27.1624430  23.7454920  14.3770690  12.5513900  28.5806930  27.6959170
  12.6605020  27.6401670  27.5554560  11.8994460  28.8461680  27.0472900
  20.5426490  26.8522820  29.0957290  20.2223360  26.1332060  29.6402980
  19.8684850  27.5277890  29.1693350  18.5840660  27.6983270  14.0390440
  18.5750760  28.4312960  13.4234950  17.6639020  27.4514850  14.1317400
  14.1847300  22.9198160  14.7837200  13.5775250  23.6597060  14.7932500
  14.6596650  23.0097520  13.9575400  23.7580090  17.0848980  24.4594090
  24.1260910  16.2644190  24.7873660  22.8978290  17.1450870  24.8749740
  27.1242120  16.0405920  15.2681650  26.4955280  16.1451590  14.5539880
  26.6294040  16.2602700  16.0575530  21.5700260  27.7611510  12.7015630
  21.6712240  27.5575500  11.7717610  20.6702000  27.5069790  12.9063410
  19.0926150  18.3191870  16.6839530  18.3842300  18.7878210  17.1253140
  19.3770630  17.6613880  17.3184720  20.7182080  19.7388570  24.6832060
  21.2167330  20.2134390  25.3483910  20.8605030  18.8152090  24.8902090
  23.1241580  15.0442530  18.1235320  23.0009360  15.0628660  17.1744830
  24.0726140  15.0921470  18.2433720  20.2118370  30.2797830  17.3963300
  20.4659870  30.2419220  16.4742670  19.2630850  30.1531160  17.3891550
  17.2961170  16.6276950  14.0590240  18.1451700  17.0647100  13.9930430
  16.9292440  16.9397210  14.8862300  27.9248940  15.9556530  25.5260450
  27.4222540  16.6961930  25.8654260  28.7405600  16.3440530  25.2097240
  26.2170950  21.1989710  18.9721810  25.2761090  21.2139940  19.1469500
  26.5315020  20.4125670  19.4182110  16.1952590  22.8809310  12.5325770
  16.9615860  22.7690670  13.0951200  16.2727280  22.1847280  11.8802540
  14.8899350  20.3134380  13.2158660  14.9702940  19.3661890  13.3276060
  15.7819100  20.6441260  13.3219320  28.2196530  28.3698560  20.6476070
  28.3443950  29.1929730  21.1199880  29.0862090  28.1589290  20.3000220
  15.6914060  30.4629770  20.3193200  16.4276540  29.9145230  20.5901770
  16.0754980  31.3285780  20.1799190  12.5759540  26.5303340  16.1934710
  11.6499320  26.7724480  16.1840120  13.0415970  27.3577600  16.0719460
  14.6972340  29.6475840  29.5078780  15.4985070  29.9687890  29.9214180
  14.1824160  29.2871420  30.2298690  18.8016370  29.6360080  12.1418770
  19.5944980  29.9248910  11.6900560  18.2820720  29.2052250  11.4631250
  23.5336970  25.7555710  29.4554190  22.9275130  25.7787310  28.7149940
  23.2291080  25.0238750  29.9921440  24.9637340  29.4836000  28.0663600
  25.9159090  29.3994020  28.0163840  24.8165560  30.1477710  28.7397390
  27.8546540  28.8630210  13.5655510  27.5688050  28.4495350  12.7509690
  27.6566090  29.7917920  13.4456030  12.4170150  22.1349300  28.4514830
  12.9209170  21.5556580  29.0231060  11.6777570  22.4189530  28.9891200
  19.3193770  24.8563490  12.0061120  19.2144410  24.2415840  12.7322500
  19.1517990  24.3329380  11.2224130  19.4708090  23.5420290  27.9850350
  18.7053760  24.1105290  27.9005020  19.6524050  23.2496500  27.0918580
  22.5596500  23.9183520  12.6103110  22.0106600  24.3652820  13.2545850
  23.1815760  23.4132770  13.1340780  26.6131440  25.2725620  28.5425370
  27.3540910  25.6101380  28.0392830  25.8504120  25.4417680  27.9895140
  14.4493230  20.2778890  29.3464900  14.4898570  19.9792760  30.2550130
  15.3038730  20.6786500  29.1872420  18.2271620  22.8774440  14.5068410
  18.6488040  22.7114310  15.3499800  18.3522460  22.0674670  14.0123550
  16.3899040  18.8570990  27.3139390  15.8595500  18.3661940  26.6862730
  17.0587110  19.2855190  26.7797320  20.7399260  21.9012050  11.7545510
  21.2604920  21.1861070  11.3886660  21.3867660  22.5397920  12.0546020
  25.2877100  23.3240450  27.0780580  25.7018120  23.4785530  27.9271000
  24.3528100  23.4495670  27.2406360  25.7599270  20.6636610  29.0819730
  26.3420040  19.9088930  28.9940210  25.9361040  21.1944050  28.3051210
  16.8771340  15.8233360  27.3936680  16.7828210  15.2054110  26.6687550
  16.2968730  16.5499650  27.1666590  19.6432780  14.3806600  24.4264070
  19.1950080  14.4030860  23.5809620  19.0097980  13.9825620  25.0234370
  20.0492330  23.2760930  25.0476510  20.4680440  24.1193660  24.8752750
  19.1300960  23.4132970  24.8183290  22.3856230  21.0077110  26.4314350
  22.5052440  20.4118250  27.1709190  23.2450230  21.0446800  26.0115650
  24.7244130  21.5614300  25.0076860  24.1979350  22.0856920  24.4042000
  25.0675470  22.1941690  25.6386590  17.1230520  18.9507670  11.4526570
  16.9219580  18.0875030  11.8139910  16.9522570  18.8641030  10.5148170
  17.8999750  29.5813940  26.1634240  17.3620840  30.3060000  25.8442940
  18.1533710  29.1044280  25.3731580  19.1525000  17.5498460  27.6890170
  19.7424690  17.2414310  28.3767990  18.3345240  17.0778210  27.8450070
  23.9718430  17.1664270  27.9223190  23.2833950  16.5045810  27.8573180
  24.6924450  16.7202540  28.3671650  24.6018830  13.7615900  13.9813450
  24.8821120  12.9183800  14.3372870  23.8284560  13.9939010  14.4952200
  15.9213320  16.0508290  11.4404450  16.2239220  16.0575720  10.5323600
  16.6607910  15.7006150  11.9372110  20.7561960  30.8165150  26.4220890
  20.6820660  31.7200290  26.7293260  19.8540800  30.4977050  26.3942960
  19.1398250  14.9942910  12.4260650  18.7920250  14.3166900  11.8463100
  19.3411020  14.5332420  13.2404040  21.3047290  29.9823660  14.0447250
  22.1998080  30.3208630  14.0666010  21.3364920  29.2603070  13.4171530
  14.9443450  25.3550710  12.2734250  15.3818320  25.8980380  12.9291830
  15.4291180  24.5297660  12.2830590  12.1589250  28.1439740  19.7254510
  12.4892260  27.2760800  19.4933150  12.5880250  28.3498260  20.5559470
  16.7551170  26.4748750  17.3856480  16.4546710  26.3513720  18.2860390
  16.6488660  25.6157340  16.9772210  12.6479460  29.0110330  22.4636140
  12.2110450  29.1911130  23.2960290  13.2157140  29.7684950  22.3217860
  28.2841640  28.5127330  26.7513450  27.6843630  28.5719890  26.0077370
  28.4135540  27.5732310  26.8810300  29.5243090  26.2545150  12.0883160
  28.6936050  26.3221800  12.5590390  29.7014920  27.1449270  11.7850020
  28.9799550  22.9992630  14.5917360  29.7418460  23.5689280  14.6977050
  28.9953920  22.4319830  15.3625670  12.4803890  21.5230560  18.8225020
  11.8252730  21.2542200  18.1784720  13.3181840  21.4135040  18.3727000
  29.9859520  23.8542730  19.4359290  30.3568350  23.0710050  19.0295260
  30.6261450  24.5431830  19.2576590  26.9693280  25.2379310  24.8489610
  26.1553120  25.6676470  25.1115400  27.3767480  25.8497720  24.2358660
  29.0318720  23.2927000  11.7489880  29.3067560  24.2005880  11.6209100
  28.8429460  23.2289530  12.6851870  25.4294330  16.3171850  13.0443510
  25.8479210  16.1302830  12.2040170  25.1230390  15.4650900  13.3546440
  28.9284060  21.2295990  16.7419310  28.5527660  20.4623920  16.3100600
  28.1987180  21.6118690  17.2294240  13.5179820  21.9083130  23.3628360
  13.8852860  21.8210530  24.2424380  12.9490640  21.1449680  23.2635220
  28.3183680  20.3767510  26.3758830  28.0869770  20.1480260  25.4756780
  28.5788230  21.2967060  26.3303720  13.0695820  18.8192220  27.2686780
  12.1751870  18.7858980  27.6080490  13.6093370  19.0179010  28.0338030
  26.7571750  15.6023940  29.1538530  27.6341930  15.6107340  29.5372530
  26.7692590  14.8654780  28.5430880  11.6941970  18.7329490  14.7650350
  10.7906050  18.9959690  14.5902010  12.1782590  19.0040660  13.9850310
  28.2035020  19.4553480  20.0426550  28.7272500  18.9616130  19.4116720
  28.7894440  19.5903840  20.7874120  28.3824740  19.5393350  23.5646100
  27.4327450  19.5056890  23.6791090  28.5637750  20.4493460  23.3295870
  14.2369180  17.7895030  12.6744730  14.9460880  17.3678250  12.1892010
  13.5209120  17.8570260  12.0428080  13.8843340  13.8434360  11.7147380
  14.6071470  14.3843300  12.0328600  14.1567860  13.5697780  10.8388920
  27.6934990  18.7126830  15.9818960  28.1894110  18.4797700  16.7667840
  27.4951060  17.8738670  15.5656600  13.5735530  13.0940550  21.6170000
  14.2211720  12.5437930  21.1765160  13.9937370  13.3483700  22.4385810
  29.1222150  17.3487780  18.5156640  29.0121430  17.1943820  19.4538910
  29.8829740  16.8208720  18.2732050  27.4687870  13.2881910  24.9739640
  28.1060090  13.9016050  25.3398830  27.6162760  13.3242570  24.0288870
  30.0112420  15.1795700  11.7562780  30.9361730  15.0476880  11.5481070
  29.9888210  15.2588520  12.7099230  30.0850910  15.9506360  14.3819490
  29.2902410  15.8851480  14.9112400  30.2894190  16.8857000  14.3704840
  27.0269330  29.9897910  18.3757880  27.6228400  29.6682480  17.6992300
  27.2847480  29.5169730  19.1671150  13.3267530  13.2496220  24.3595320
  12.9782350  13.7060040  25.1253500  12.9955230  12.3553350  24.4417750
  14.9331900  26.4215820  28.5248510  14.8901530  26.0508730  29.4062970
  15.0642910  27.3593390  28.6650330  18.6337930  27.9775410  24.1258230
  18.3929290  28.2449970  23.2388750  19.5740570  28.1481140  24.1809090
  20.8392350  14.4408100  27.8814740  20.7781240  15.0329930  28.6310150
  21.7792730  14.3334060  27.7365000  23.4766910  14.0978160  27.5207030
  24.0907320  14.4157450  26.8588110  24.0216470  13.6126750  28.1402890
  29.8942090  29.9969790  24.9268870  29.4000370  30.3938660  24.2096000
  29.2855380  29.3719000  25.3206150  13.9988170  12.7772420  27.6346090
  14.5471160  12.5960470  26.8712200  14.0643480  11.9866530  28.1702400
  14.7719930  29.3678070  25.6446290  14.1780250  29.2362770  26.3836330
  14.7643770  28.5316210  25.1788390  24.2174950  12.6610300  23.8476320
  23.3434790  12.9945410  23.6449250  24.1085700  12.1883480  24.6728190
  25.1246930  14.8681170  25.2318040  24.7960290  14.0532930  24.8519770
  26.0729230  14.8250980  25.1083730  27.5781540  30.6393210  22.2055610
  27.1184510  31.3909020  21.8313630  26.9494000  29.9199680  22.1470410
  14.4032160  26.7336450  24.5954330  13.6766220  26.1141740  24.5280280
  14.4641310  27.1277060  23.7252410  18.0077260  28.9481450  21.3803740
  18.5242280  28.3368810  20.8552000  18.6574640  29.4510230  21.8714750
  20.7472760  29.8389940  22.2072720  21.0350570  29.5844240  21.3305730
  21.2595980  29.2867300  22.7978290  21.9649770  13.5780140  22.7869230
  21.1821560  14.0525640  23.0665990  21.6712700  12.6734970  22.6782410
  26.5170840  14.2803240  20.8318320  26.9578930  14.2248340  19.9839920
  26.2478430  15.1961250  20.9028500  28.3809410  13.9118480  18.8427140
  28.3197810  12.9679700  18.6958160  29.1601440  14.0198570  19.3880600
  12.6862160  30.0510840  17.8051090  12.5184200  29.4181520  18.5032980
  11.8196670  30.2570240  17.4545280  13.3090180  13.8827620  15.3082950
  14.0669540  13.9956500  14.7346980  12.8467350  14.7196820  15.2626380
  19.8503990  15.9966890  18.2985260  19.0378500  15.6223780  17.9581140
  20.3545630  15.2411970  18.6006450  24.3528970  12.6609340  19.5368330
  24.9558340  13.2329550  20.0116850  23.6121960  13.2248780  19.3142230
  27.4963570  13.0630900  14.8108610  27.6914200  13.9614350  15.0776040
  26.7093440  12.8317980  15.3041560  14.2924860  28.7444070  15.2501230
  13.7672480  29.1252100  14.5463190  14.2169440  29.3694840  15.9710940
  15.6815330  14.4091670  13.8484920  16.2108090  13.6221470  13.7192870
  16.3143650  15.0882860  14.0820450  17.8753170  14.1466810  16.9030310
  17.2455910  13.4454120  17.0700440  17.3358310  14.9070940  16.6863470
  20.8145120  30.7606040  29.5740920  21.7412430  30.5250310  29.6176880
  20.7995550  31.5878040  29.0926950  29.0490180  30.3031610  16.5715170
  29.2242370  29.6169350  15.9276090  28.3511750  30.8278660  16.1791840
  18.0008730  13.4250790  29.3382800  17.7193000  13.9284390  28.5743620
  18.3828430  12.6272540  28.9724930  16.8917830  30.6926450  14.1250480
  17.6236650  30.4085730  13.5774370  17.1511500  30.4539730  15.0149860
  16.0532620  26.8091180  14.1296810  15.4241500  27.2776280  14.6782640
  16.1680450  25.9640400  14.5643000  24.6024190  12.8404370  29.9163270
  24.4889640  13.1598980  30.8114790  25.4193930  13.2416880  29.6200550
  27.3822680  29.9875900  29.3981960  28.1748000  29.4925130  29.1907920
  27.6755830  30.6666040  30.0057570  21.6400380  22.6375860   2.1607280
  20.8642480  22.1576300   2.4505850  22.2913310  21.9581510   1.9863440
  15.6566210  22.9495670   3.0383040  14.8251090  22.6944380   3.4379550
  16.2647190  23.0206440   3.7740960  15.6367470  26.9835760   3.2341060
  15.9395510  26.0933500   3.0551280  16.3811060  27.5405980   3.0063310
  12.0291170  20.5103210   2.7065130  12.6007280  19.7425410   2.7068770
  12.0292710  20.8091970   1.7971740  21.0809370  25.3133050   2.1677440
  21.0117650  24.3722990   2.0066570  21.8429230  25.4034460   2.7400010
  13.2716040  15.9187570   4.4934060  13.0918880  15.0213320   4.7736820
  12.8696120  16.4659440   5.1681010  13.8902710  18.4148070   3.1016400
  14.5712820  18.6786440   3.7203800  13.5750760  17.5748940   3.4354410
  18.0827280  19.4615430   2.1888990  18.5905500  19.9596400   2.8294010
  18.6140520  18.6850630   2.0128350  30.1838210  17.6320620   5.8918340
  29.4790380  18.0202330   5.3733450  30.4496130  18.3270910   6.4939270
  16.3663380  14.1013990   6.4552410  16.3681820  14.6186380   5.6498310
  15.5367690  13.6244170   6.4322340  17.6166230  23.7409170   4.6325910
  17.2835610  24.3678090   5.2746980  17.7932910  24.2671050   3.8527580
  26.1300140  17.5554250   2.1002250  25.4255710  17.8439140   2.6805360
  26.4912300  18.3654360   1.7401810  16.0478710  15.8123950   4.4622860
  16.3895520  16.6566000   4.1676730  15.1094520  15.9607690   4.5788200
  16.8285330  25.7089970   6.4475090  17.4459330  26.3841050   6.1659540
  15.9678450  26.1177950   6.3562590  27.7462920  27.1729380   4.3629730
  27.0626440  27.8428490   4.3546400  28.2857210  27.3710030   3.5974590
  29.1987060  17.0009040   2.4911460  28.2511970  17.0348020   2.6226890
  29.5237050  17.8147990   2.8760820  25.2821660  29.0173510   3.0774910
  25.2948820  28.6135800   2.2097170  24.7296880  29.7920800   2.9736340
  24.6807100  23.9203350   4.4057520  25.0975890  23.7063460   3.5710980
  25.4046920  24.1776140   4.9766140  28.6269200  22.3190570   4.4973760
  27.7987830  22.3883660   4.0223890  29.2219680  22.9044880   4.0289590
  25.5911210  19.1059890   5.4428630  25.1782390  19.9313600   5.6968620
  24.8587160  18.5204930   5.2504990  18.1925700  25.5787350   2.4686510
  17.8953990  24.9732820   1.7894290  19.1425520  25.6164660   2.3575870
  16.4372620  18.6663000   4.0846340  16.9887210  18.7758340   3.3099590
  16.9516130  19.0400600   4.8001570  26.2811310  29.1519220   6.1309610
  25.8041870  29.9591410   5.9382220  25.5973100  28.4997550   6.2835820
  17.2844130  25.3169040   9.1194310  16.3872660  25.5409010   9.3667710
  17.3097000  25.4403980   8.1705710  16.1115350  22.1882360   7.6951680
  15.9723120  23.0605160   8.0639080  15.2296710  21.8455170   7.5499620
  17.9095700  28.1304060   9.9036830  17.8811130  28.5347010   9.0365260
  17.7460670  27.2014420   9.7408430  29.8610520  28.9131160  11.2001000
  30.3370240  29.3914050  11.8790080  30.4817680  28.8448650  10.4746500
  12.0634000  23.9579910   3.6122590  12.1414420  24.0928680   2.6678310
  12.6775680  23.2495800   3.8050710  29.2643770  26.1044010   8.3601010
  29.3906830  25.8655890   7.4418190  29.3065150  25.2728550   8.8323090
  23.1260510  29.8072010   6.9295820  23.6405180  29.7180020   7.7318250
  22.2829590  30.1531710   7.2223730  29.1167780  18.1576470   9.3250750
  28.5012050  18.6656140   8.7966210  28.7964200  17.2574800   9.2676690
  12.1193520  24.9994080   6.1517050  12.2824560  24.5299440   5.3336420
  12.5845970  24.4917640   6.8165890  21.1782100  16.9968360   6.7912940
  20.7161470  17.2051380   7.6032880  20.7760210  16.1827710   6.4883610
  26.1786610  18.2177310   7.9209600  25.3280200  17.9183060   8.2418670
  26.0188400  18.4619320   7.0093420  23.2736320  19.7179060  10.0208390
  23.5989730  18.8842810   9.6810620  24.0616650  20.2407580  10.1686720
  18.9288190  14.6747170   3.0467220  19.2260520  15.5810000   2.9659240
  19.4773750  14.1865950   2.4326790  19.1225720  20.1518990   9.5819140
  19.0269320  19.2113720   9.4319540  19.9657700  20.3734060   9.1867210
  14.2536260  16.5632660   7.7352920  13.8599650  17.4107870   7.9425700
  13.5654660  15.9259030   7.9261560  20.8281310  16.6467630  10.8049660
  20.1379630  16.4539830  11.4395750  21.5713610  16.9302270  11.3373960
  11.5553310  14.4861120   1.7683000  11.2666360  15.0563980   2.4807980
  12.2999070  14.0065570   2.1314230  23.1044280  20.4866070   3.6403580
  22.3725400  20.9952880   3.9893680  22.7068620  19.6696050   3.3392360
  23.5670190  15.9399750   3.0526520  23.5842930  16.3908400   3.8968370
  23.3185770  15.0405390   3.2659960  26.9940940  13.3531930   8.8912900
  27.3186710  12.6221590   9.4170880  27.0297450  13.0345570   7.9893890
  13.6932500  24.3745510   8.3112860  13.3087290  23.7339180   8.9095820
  14.0044690  25.0781630   8.8807590  19.8429640  21.2222050   3.7921480
  20.2099770  20.7480620   4.5382820  19.6534700  22.0963620   4.1329820
  17.6329010  20.2630690   6.1105690  17.3286080  21.1422670   6.3356050
  18.5875470  20.3230480   6.1463130  26.9198780  23.4657040   2.4998930
  27.6397900  23.9612330   2.1095040  26.7180600  22.7874930   1.8552800
  22.3017580  23.5366100   8.3867930  22.2354890  22.6161770   8.1325520
  21.6722720  23.6341540   9.1012570  13.6892740  21.1033430   7.2577050
  13.3307680  21.7687280   7.8450390  13.3947300  20.2716980   7.6289670
  16.8905860  21.5617670  10.1416600  16.5906000  21.7074850   9.2444420
  17.6617100  21.0022960  10.0489990  22.2334310  26.3586670   8.1371730
  22.2478850  25.4267630   7.9190640  21.5259410  26.4446430   8.7761500
  28.4445520  22.9994010   7.4840310  27.7193710  23.5922790   7.2869700
  28.9720980  22.9917550   6.6853680  21.6668210  28.0004240   5.2312230
  22.3110430  28.2063620   5.9085650  22.0297650  27.2392640   4.7783080
  22.9400290  26.0036590   3.9489680  23.5822520  25.3029750   4.0621850
  23.4649640  26.7835030   3.7686570  24.7137910  26.8031490   7.1525740
  25.0494150  27.3898180   7.8303660  23.7938250  26.6724200   7.3823530
  12.2641310  14.5926670   7.9349150  11.5499830  14.7923590   8.5401760
  12.6836350  13.8166240   8.3063950  12.5513900  28.5806930   8.9215680
  12.6605020  27.6401670   8.7811070  11.8994460  28.8461680   8.2729410
  20.5426490  26.8522820  10.3213800  20.2223360  26.1332060  10.8659490
  19.8684850  27.5277890  10.3949860  23.7580090  17.0848980   5.6850600
  24.1260910  16.2644190   6.0130170  22.8978290  17.1450870   6.1006250
  20.7182080  19.7388570   5.9088570  21.2167330  20.2134390   6.5740420
  20.8605030  18.8152090   6.1158600  27.9248940  15.9556530   6.7516960
  27.4222540  16.6961930   7.0910770  28.7405600  16.3440530   6.4353750
  14.6972340  29.6475840  10.7335290  15.4985070  29.9687890  11.1470690
  14.1824160  29.2871420  11.4555200  23.5336970  25.7555710  10.6810700
  22.9275130  25.7787310   9.9406450  23.2291080  25.0238750  11.2177950
  24.9637340  29.4836000   9.2920110  25.9159090  29.3994020   9.2420350
  24.8165560  30.1477710   9.9653900  12.4170150  22.1349300   9.6771340
  12.9209170  21.5556580  10.2487570  11.6777570  22.4189530  10.2147710
  19.4708090  23.5420290   9.2106860  18.7053760  24.1105290   9.1261530
  19.6524050  23.2496500   8.3175090  26.6131440  25.2725620   9.7681880
  27.3540910  25.6101380   9.2649340  25.8504120  25.4417680   9.2151650
  14.4493230  20.2778890  10.5721410  14.4898570  19.9792760  11.4806640
  15.3038730  20.6786500  10.4128930  16.3899040  18.8570990   8.5395900
  15.8595500  18.3661940   7.9119240  17.0587110  19.2855190   8.0053830
  25.2877100  23.3240450   8.3037090  25.7018120  23.4785530   9.1527510
  24.3528100  23.4495670   8.4662870  25.7599270  20.6636610  10.3076240
  26.3420040  19.9088930  10.2196720  25.9361040  21.1944050   9.5307720
  16.8771340  15.8233360   8.6193190  16.7828210  15.2054110   7.8944060
  16.2968730  16.5499650   8.3923100  19.6432780  14.3806600   5.6520580
  19.1950080  14.4030860   4.8066130  19.0097980  13.9825620   6.2490880
  20.0492330  23.2760930   6.2733020  20.4680440  24.1193660   6.1009260
  19.1300960  23.4132970   6.0439800  22.3856230  21.0077110   7.6570860
  22.5052440  20.4118250   8.3965700  23.2450230  21.0446800   7.2372160
  24.7244130  21.5614300   6.2333370  24.1979350  22.0856920   5.6298510
  25.0675470  22.1941690   6.8643100  17.8999750  29.5813940   7.3890750
  17.3620840  30.3060000   7.0699450  18.1533710  29.1044280   6.5988090
  19.1525000  17.5498460   8.9146680  19.7424690  17.2414310   9.6024500
  18.3345240  17.0778210   9.0706580  23.9718430  17.1664270   9.1479700
  23.2833950  16.5045810   9.0829690  24.6924450  16.7202540   9.5928160
  20.7561960  30.8165150   7.6477400  20.6820660  31.7200290   7.9549770
  19.8540800  30.4977050   7.6199470  12.6479460  29.0110330   3.6892650
  12.2110450  29.1911130   4.5216800  13.2157140  29.7684950   3.5474370
  28.2841640  28.5127330   7.9769960  27.6843630  28.5719890   7.2333880
  28.4135540  27.5732310   8.1066810  26.9693280  25.2379310   6.0746120
  26.1553120  25.6676470   6.3371910  27.3767480  25.8497720   5.4615170
  13.5179820  21.9083130   4.5884870  13.8852860  21.8210530   5.4680890
  12.9490640  21.1449680   4.4891730  28.3183680  20.3767510   7.6015340
  28.0869770  20.1480260   6.7013290  28.5788230  21.2967060   7.5560230
  13.0695820  18.8192220   8.4943290  12.1751870  18.7858980   8.8337000
  13.6093370  19.0179010   9.2594540  26.7571750  15.6023940  10.3795040
  27.6341930  15.6107340  10.7629040  26.7692590  14.8654780   9.7687390
  28.3824740  19.5393350   4.7902610  27.4327450  19.5056890   4.9047600
  28.5637750  20.4493460   4.5552380  13.5735530  13.0940550   2.8426510
  14.2211720  12.5437930   2.4021670  13.9937370  13.3483700   3.6642320
  27.4687870  13.2881910   6.1996150  28.1060090  13.9016050   6.5655340
  27.6162760  13.3242570   5.2545380  13.3267530  13.2496220   5.5851830
  12.9782350  13.7060040   6.3510010  12.9955230  12.3553350   5.6674260
  14.9331900  26.4215820   9.7505020  14.8901530  26.0508730  10.6319480
  15.0642910  27.3593390   9.8906840  18.6337930  27.9775410   5.3514740
  18.3929290  28.2449970   4.4645260  19.5740570  28.1481140   5.4065600
  20.8392350  14.4408100   9.1071250  20.7781240  15.0329930   9.8566660
  21.7792730  14.3334060   8.9621510  23.4766910  14.0978160   8.7463540
  24.0907320  14.4157450   8.0844620  24.0216470  13.6126750   9.3659400
  29.8942090  29.9969790   6.1525380  29.4000370  30.3938660   5.4352510
  29.2855380  29.3719000   6.5462660  13.9988170  12.7772420   8.8602600
  14.5471160  12.5960470   8.0968710  14.0643480  11.9866530   9.3958910
  14.7719930  29.3678070   6.8702800  14.1780250  29.2362770   7.6092840
  14.7643770  28.5316210   6.4044900  24.2174950  12.6610300   5.0732830
  23.3434790  12.9945410   4.8705760  24.1085700  12.1883480   5.8984700
  25.1246930  14.8681170   6.4574550  24.7960290  14.0532930   6.0776280
  26.0729230  14.8250980   6.3340240  27.5781540  30.6393210   3.4312120
  27.1184510  31.3909020   3.0570140  26.9494000  29.9199680   3.3726920
  14.4032160  26.7336450   5.8210840  13.6766220  26.1141740   5.7536790
  14.4641310  27.1277060   4.9508920  18.0077260  28.9481450   2.6060250
  18.5242280  28.3368810   2.0808510  18.6574640  29.4510230   3.0971260
  20.7472760  29.8389940   3.4329230  21.0350570  29.5844240   2.5562240
  21.2595980  29.2867300   4.0234800  21.9649770  13.5780140   4.0125740
  21.1821560  14.0525640   4.2922500  21.6712700  12.6734970   3.9038920
  20.8145120  30.7606040  10.7997430  21.7412430  30.5250310  10.8433390
  20.7995550  31.5878040  10.3183460  18.0008730  13.4250790  10.5639310
  17.7193000  13.9284390   9.8000130  18.3828430  12.6272540  10.1981440
  24.6024190  12.8404370  11.1419780  24.4889640  13.1598980  12.0371300
  25.4193930  13.2416880  10.8457060  27.3822680  29.9875900  10.6238470
  28.1748000  29.4925130  10.4164430  27.6755830  30.6666040  11.2314080
  25.6607810   8.2692560 151.1354330  25.1989340   7.4979800 151.4641500
  26.4733360   8.2958630 151.6406780  21.8871120  10.5550570 150.7558320
  21.2682560  11.0108070 150.1852760  22.7422900  10.7102030 150.3548020
  22.7534470   5.4389810 148.1490230  22.1351740   5.9039260 147.5852950
  23.2657720   6.1317290 148.5659740  12.1217670   6.1246340 145.5229860
  11.7445650   6.6133440 144.7914760  12.3790740   6.7971620 146.1536390
  26.5767080   6.9646240 148.3613000  26.4663410   6.0220570 148.4862420
  26.5735330   7.3261880 149.2475760  22.1187360   2.5911560 147.7175490
  21.1916640   2.5248940 147.9463960  22.2712180   3.5291690 147.6030730
  26.1484650   4.1531860 148.2210740  25.5297070   3.8151410 147.5737040
  26.1309100   3.5091620 148.9289930  17.7244000   3.1176300 150.4995220
  17.3201000   2.4053550 150.0041120  17.8107120   2.7729540 151.3883260
  24.3249350   3.3918670 145.2283490  24.7642630   2.5541100 145.0821310
  25.0377770   4.0248070 145.3147630  22.4344730   8.3314740 149.1964730
  22.8740640   9.0739070 148.7820120  22.3731620   8.5741310 150.1203690
  13.3081630   6.8836610 150.2176690  12.9009710   7.0251200 149.3630290
  14.1994640   6.5996770 150.0147900  25.1014910  11.3183860 146.5527740
  24.9416050  11.0286800 147.4509570  24.9361620  10.5423990 146.0172970
  17.5803290  11.0982390 148.3299360  17.4045770  10.1817930 148.1167160
  16.7259030  11.4569680 148.5697160  24.8041040   8.8271420 145.1125740
  24.1106200   8.8248710 144.4528020  25.5463900   8.4030740 144.6819910
  24.3690970  10.4534130 149.1874230  24.8247920   9.6723510 149.5012850
  24.7083490  11.1640950 149.7315410  16.1610800   5.6948190 146.9020460
  15.3873060   5.1545810 146.7419180  16.8905430   5.1754800 146.5638220
  16.2048200   5.3628570 150.5399270  16.7226870   4.5596830 150.4856160
  15.7532220   5.3007710 151.3816100  21.0917700   6.6294850 145.8126570
  21.4333400   7.3737080 145.3169890  20.2630410   6.9425970 146.1751400
  27.3671380   1.7683000 144.6018260  27.2835100   2.1997220 143.7514700
  28.0865570   2.2281350 145.0345080  28.3958630   8.6225260 147.3300390
  27.7534790   7.9680880 147.6044110  28.0089290   9.0280350 146.5541060
  23.9745110   5.9510690 151.1772080  24.3268930   5.3538820 150.5173450
  23.0907440   5.6254920 151.3480330  20.0608390   6.7108380 148.5842490
  20.7479520   7.2577590 148.9650080  19.2740810   7.2549110 148.6192100
  12.2000790   2.3281200 144.0759570  13.0695640   2.6106000 144.3595490
  11.7091110   3.1417070 143.9608380  19.3635600   3.7154410 148.1967850
  19.8198380   4.5259660 148.4228040  19.0123810   3.3977550 149.0286340
  26.7856010   7.5141720 143.8676740  26.5593590   6.7972160 144.4601380
  26.3952210   7.2654160 143.0298490  12.5672040  11.5408580 144.6421200
  12.9269680  12.1397920 143.9878470  12.4264380  12.0868470 145.4156230
  26.3672260   5.4313660 145.5290900  26.0793960   5.8926350 146.3168780
  27.1624430   4.9711430 145.7975120  18.5840660   8.9239780 145.4594870
  18.5750760   9.6569470 144.8439380  17.6639020   8.6771360 145.5521830
  14.1847300   4.1454670 146.2041630  13.5775250   4.8853570 146.2136930
  14.6596650   4.2354030 145.3779830  21.5700260   8.9868020 144.1220060
  21.6712240   8.7832010 143.1922040  20.6702000   8.7326300 144.3267840
  20.2118370  11.5054340 148.8167730  20.4659870  11.4675730 147.8947100
  19.2630850  11.3787670 148.8095980  16.1952590   4.1065820 143.9530200
  16.9615860   3.9947180 144.5155630  16.2727280   3.4103790 143.3006970
  15.6914060  11.6886280 151.7397630  16.4276540  11.1401740 152.0106200
  16.0754980  12.5542290 151.6003620  12.5759540   7.7559850 147.6139140
  11.6499320   7.9980990 147.6044550  13.0415970   8.5834110 147.4923890
  18.8016370  10.8616590 143.5623200  19.5944980  11.1505420 143.1104990
  18.2820720  10.4308760 142.8835680  27.8546540  10.0886720 144.9859940
  27.5688050   9.6751860 144.1714120  27.6566090  11.0174430 144.8660460
  19.3193770   6.0820000 143.4265550  19.2144410   5.4672350 144.1526930
  19.1517990   5.5585890 142.6428560  22.5596500   5.1440030 144.0307540
  22.0106600   5.5909330 144.6750280  23.1815760   4.6389280 144.5545210
  18.2271620   4.1030950 145.9272840  18.6488040   3.9370820 146.7704230
  18.3522460   3.2931180 145.4327980  20.7399260   3.1268560 143.1749940
  21.2604920   2.4117580 142.8091090  21.3867660   3.7654430 143.4750450
  21.3047290  11.2080170 145.4651680  22.1998080  11.5465140 145.4870440
  21.3364920  10.4859580 144.8375960  14.9443450   6.5807220 143.6938680
  15.3818320   7.1236890 144.3496260  15.4291180   5.7554170 143.7035020
  12.1589250   9.3696250 151.1458940  12.4892260   8.5017310 150.9137580
  12.5880250   9.5754770 151.9763900  16.7551170   7.7005260 148.8060910
  16.4546710   7.5770230 149.7064820  16.6488660   6.8413850 148.3976640
  29.5243090   7.4801660 143.5087590  28.6936050   7.5478310 143.9794820
  29.7014920   8.3705780 143.2054450  28.9799550   4.2249140 146.0121790
  29.7418460   4.7945790 146.1181480  28.9953920   3.6576340 146.7830100
  12.4803890   2.7487070 150.2429450  11.8252730   2.4798710 149.5989150
  13.3181840   2.6391550 149.7931430  29.9859520   5.0799240 150.8563720
  30.3568350   4.2966560 150.4499690  30.6261450   5.7688340 150.6781020
  29.0318720   4.5183510 143.1694310  29.3067560   5.4262390 143.0413530
  28.8429460   4.4546040 144.1056300  28.9284060   2.4552500 148.1623740
  28.5527660   1.6880430 147.7305030  28.1987180   2.8375200 148.6498670
  27.0269330  11.2154420 149.7962310  27.6228400  10.8938990 149.1196730
  27.2847480  10.7426240 150.5875580  12.6862160  11.2767350 149.2255520
  12.5184200  10.6438030 149.9237410  11.8196670  11.4826750 148.8749710
  14.2924860   9.9700580 146.6705660  13.7672480  10.3508610 145.9667620
  14.2169440  10.5951350 147.3915370  29.0490180  11.5288120 147.9919600
  29.2242370  10.8425860 147.3480520  28.3511750  12.0535170 147.5996270
  16.8917830  11.9182960 145.5454910  17.6236650  11.6342240 144.9978800
  17.1511500  11.6796240 146.4354290  16.0532620   8.0347690 145.5501240
  15.4241500   8.5032790 146.0987070  16.1680450   7.1896910 145.9847430
  21.6400380   3.8632370 133.5811710  20.8642480   3.3832810 133.8710280
  22.2913310   3.1838020 133.4067870  15.6566210   4.1752180 134.4587470
  14.8251090   3.9200890 134.8583980  16.2647190   4.2462950 135.1945390
  25.6607810   8.2692560 132.3610840  25.1989340   7.4979800 132.6898010
  26.4733360   8.2958630 132.8663290  15.6367470   8.2092270 134.6545490
  15.9395510   7.3190010 134.4755710  16.3811060   8.7662490 134.4267740
  21.8871120  10.5550570 131.9814830  21.2682560  11.0108070 131.4109270
  22.7422900  10.7102030 131.5804530  21.0809370   6.5389560 133.5881870
  21.0117650   5.5979500 133.4271000  21.8429230   6.6290970 134.1604440
  22.7534470   5.4389810 129.3746740  22.1351740   5.9039260 128.8109460
  23.2657720   6.1317290 129.7916250  17.6166230   4.9665680 136.0530340
  17.2835610   5.5934600 136.6951410  17.7932910   5.4927560 135.2732010
  16.8285330   6.9346480 137.8679520  17.4459330   7.6097560 137.5863970
  15.9678450   7.3434460 137.7767020  12.1217670   6.1246340 126.7486370
  11.7445650   6.6133440 126.0171270  12.3790740   6.7971620 127.3792900
  27.7462920   8.3985890 135.7834160  27.0626440   9.0685000 135.7750830
  28.2857210   8.5966540 135.0179020  25.2821660  10.2430020 134.4979340
  25.2948820   9.8392310 133.6301600  24.7296880  11.0177310 134.3940770
  26.5767080   6.9646240 129.5869510  26.4663410   6.0220570 129.7118930
  26.5735330   7.3261880 130.4732270  24.6807100   5.1459860 135.8261950
  25.0975890   4.9319970 134.9915410  25.4046920   5.4032650 136.3970570
  22.1187360   2.5911560 128.9432000  21.1916640   2.5248940 129.1720470
  22.2712180   3.5291690 128.8287240  28.6269200   3.5447080 135.9178190
  27.7987830   3.6140170 135.4428320  29.2219680   4.1301390 135.4494020
  26.1484650   4.1531860 129.4467250  25.5297070   3.8151410 128.7993550
  26.1309100   3.5091620 130.1546440  17.7244000   3.1176300 131.7251730
  17.3201000   2.4053550 131.2297630  17.8107120   2.7729540 132.6139770
  18.1925700   6.8043860 133.8890940  17.8953990   6.1989330 133.2098720
  19.1425520   6.8421170 133.7780300  26.2811310  10.3775730 137.5514040
  25.8041870  11.1847920 137.3586650  25.5973100   9.7254060 137.7040250
  17.2844130   6.5425550 140.5398740  16.3872660   6.7665520 140.7872140
  17.3097000   6.6660490 139.5910140  24.3249350   3.3918670 126.4540000
  24.7642630   2.5541100 126.3077820  25.0377770   4.0248070 126.5404140
  16.1115350   3.4138870 139.1156110  15.9723120   4.2861670 139.4843510
  15.2296710   3.0711680 138.9704050  22.4344730   8.3314740 130.4221240
  22.8740640   9.0739070 130.0076630  22.3731620   8.5741310 131.3460200
  17.9095700   9.3560570 141.3241260  17.8811130   9.7603520 140.4569690
  17.7460670   8.4270930 141.1612860  29.8610520  10.1387670 142.6205430
  30.3370240  10.6170560 143.2994510  30.4817680  10.0705160 141.8950930
  12.0634000   5.1836420 135.0327020  12.1414420   5.3185190 134.0882740
  12.6775680   4.4752310 135.2255140  13.3081630   6.8836610 131.4433200
  12.9009710   7.0251200 130.5886800  14.1994640   6.5996770 131.2404410
  29.2643770   7.3300520 139.7805440  29.3906830   7.0912400 138.8622620
  29.3065150   6.4985060 140.2527520  23.1260510  11.0328520 138.3500250
  23.6405180  10.9436530 139.1522680  22.2829590  11.3788220 138.6428160
  25.1014910  11.3183860 127.7784250  24.9416050  11.0286800 128.6766080
  24.9361620  10.5423990 127.2429480  17.5803290  11.0982390 129.5555870
  17.4045770  10.1817930 129.3423670  16.7259030  11.4569680 129.7953670
  24.8041040   8.8271420 126.3382250  24.1106200   8.8248710 125.6784530
  25.5463900   8.4030740 125.9076420  24.3690970  10.4534130 130.4130740
  24.8247920   9.6723510 130.7269360  24.7083490  11.1640950 130.9571920
  12.1193520   6.2250590 137.5721480  12.2824560   5.7555950 136.7540850
  12.5845970   5.7174150 138.2370320  13.6932500   5.6002020 139.7317290
  13.3087290   4.9595690 140.3300250  14.0044690   6.3038140 140.3012020
  19.8429640   2.4478560 135.2125910  20.2099770   1.9737130 135.9587250
  19.6534700   3.3220130 135.5534250  16.1610800   5.6948190 128.1276970
  15.3873060   5.1545810 127.9675690  16.8905430   5.1754800 127.7894730
  26.9198780   4.6913550 133.9203360  27.6397900   5.1868840 133.5299470
  26.7180600   4.0131440 133.2757230  22.3017580   4.7622610 139.8072360
  22.2354890   3.8418280 139.5529950  21.6722720   4.8598050 140.5217000
  16.2048200   5.3628570 131.7655780  16.7226870   4.5596830 131.7112670
  15.7532220   5.3007710 132.6072610  21.0917700   6.6294850 127.0383080
  21.4333400   7.3737080 126.5426400  20.2630410   6.9425970 127.4007910
  16.8905860   2.7874180 141.5621030  16.5906000   2.9331360 140.6648850
  17.6617100   2.2279470 141.4694420  22.2334310   7.5843180 139.5576160
  22.2478850   6.6524140 139.3395070  21.5259410   7.6702940 140.1965930
  27.3671380   1.7683000 125.8274770  27.2835100   2.1997220 124.9771210
  28.0865570   2.2281350 126.2601590  28.4445520   4.2250520 138.9044740
  27.7193710   4.8179300 138.7074130  28.9720980   4.2174060 138.1058110
  28.3958630   8.6225260 128.5556900  27.7534790   7.9680880 128.8300620
  28.0089290   9.0280350 127.7797570  23.9745110   5.9510690 132.4028590
  24.3268930   5.3538820 131.7429960  23.0907440   5.6254920 132.5736840
  20.0608390   6.7108380 129.8099000  20.7479520   7.2577590 130.1906590
  19.2740810   7.2549110 129.8448610  12.2000790   2.3281200 125.3016080
  13.0695640   2.6106000 125.5852000  11.7091110   3.1417070 125.1864890
  19.3635600   3.7154410 129.4224360  19.8198380   4.5259660 129.6484550
  19.0123810   3.3977550 130.2542850  21.6668210   9.2260750 136.6516660
  22.3110430   9.4320130 137.3290080  22.0297650   8.4649150 136.1987510
  22.9400290   7.2293100 135.3694110  23.5822520   6.5286260 135.4826280
  23.4649640   8.0091540 135.1891000  26.7856010   7.5141720 125.0933250
  26.5593590   6.7972160 125.6857890  26.3952210   7.2654160 124.2555000
  24.7137910   8.0288000 138.5730170  25.0494150   8.6154690 139.2508090
  23.7938250   7.8980710 138.8027960  12.5672040  11.5408580 125.8677710
  12.9269680  12.1397920 125.2134980  12.4264380  12.0868470 126.6412740
  26.3672260   5.4313660 126.7547410  26.0793960   5.8926350 127.5425290
  27.1624430   4.9711430 127.0231630  12.5513900   9.8063440 140.3420110
  12.6605020   8.8658180 140.2015500  11.8994460  10.0718190 139.6933840
  20.5426490   8.0779330 141.7418230  20.2223360   7.3588570 142.2863920
  19.8684850   8.7534400 141.8154290  18.5840660   8.9239780 126.6851380
  18.5750760   9.6569470 126.0695890  17.6639020   8.6771360 126.7778340
  14.1847300   4.1454670 127.4298140  13.5775250   4.8853570 127.4393440
  14.6596650   4.2354030 126.6036340  21.5700260   8.9868020 125.3476570
  21.6712240   8.7832010 124.4178550  20.6702000   8.7326300 125.5524350
  20.2118370  11.5054340 130.0424240  20.4659870  11.4675730 129.1203610
  19.2630850  11.3787670 130.0352490  16.1952590   4.1065820 125.1786710
  16.9615860   3.9947180 125.7412140  16.2727280   3.4103790 124.5263480
  28.2196530   9.5955070 133.2937010  28.3443950  10.4186240 133.7660820
  29.0862090   9.3845800 132.9461160  15.6914060  11.6886280 132.9654140
  16.4276540  11.1401740 133.2362710  16.0754980  12.5542290 132.8260130
  12.5759540   7.7559850 128.8395650  11.6499320   7.9980990 128.8301060
  13.0415970   8.5834110 128.7180400  14.6972340  10.8732350 142.1539720
  15.4985070  11.1944400 142.5675120  14.1824160  10.5127930 142.8759630
  18.8016370  10.8616590 124.7879710  19.5944980  11.1505420 124.3361500
  18.2820720  10.4308760 124.1092190  23.5336970   6.9812220 142.1015130
  22.9275130   7.0043820 141.3610880  23.2291080   6.2495260 142.6382380
  24.9637340  10.7092510 140.7124540  25.9159090  10.6250530 140.6624780
  24.8165560  11.3734220 141.3858330  27.8546540  10.0886720 126.2116450
  27.5688050   9.6751860 125.3970630  27.6566090  11.0174430 126.0916970
  12.4170150   3.3605810 141.0975770  12.9209170   2.7813090 141.6692000
  11.6777570   3.6446040 141.6352140  19.3193770   6.0820000 124.6522060
  19.2144410   5.4672350 125.3783440  19.1517990   5.5585890 123.8685070
  19.4708090   4.7676800 140.6311290  18.7053760   5.3361800 140.5465960
  19.6524050   4.4753010 139.7379520  22.5596500   5.1440030 125.2564050
  22.0106600   5.5909330 125.9006790  23.1815760   4.6389280 125.7801720
  26.6131440   6.4982130 141.1886310  27.3540910   6.8357890 140.6853770
  25.8504120   6.6674190 140.6356080  18.2271620   4.1030950 127.1529350
  18.6488040   3.9370820 127.9960740  18.3522460   3.2931180 126.6584490
  20.7399260   3.1268560 124.4006450  21.2604920   2.4117580 124.0347600
  21.3867660   3.7654430 124.7006960  25.2877100   4.5496960 139.7241520
  25.7018120   4.7042040 140.5731940  24.3528100   4.6752180 139.8867300
  20.0492330   4.5017440 137.6937450  20.4680440   5.3450170 137.5213690
  19.1300960   4.6389480 137.4644230  24.7244130   2.7870810 137.6537800
  24.1979350   3.3113430 137.0502940  25.0675470   3.4198200 138.2847530
  17.8999750  10.8070450 138.8095180  17.3620840  11.5316510 138.4903880
  18.1533710  10.3300790 138.0192520  20.7561960  12.0421660 139.0681830
  20.6820660  12.9456800 139.3754200  19.8540800  11.7233560 139.0403900
  21.3047290  11.2080170 126.6908190  22.1998080  11.5465140 126.7126950
  21.3364920  10.4859580 126.0632470  14.9443450   6.5807220 124.9195190
  15.3818320   7.1236890 125.5752770  15.4291180   5.7554170 124.9291530
  12.1589250   9.3696250 132.3715450  12.4892260   8.5017310 132.1394090
  12.5880250   9.5754770 133.2020410  16.7551170   7.7005260 130.0317420
  16.4546710   7.5770230 130.9321330  16.6488660   6.8413850 129.6233150
  12.6479460  10.2366840 135.1097080  12.2110450  10.4167640 135.9421230
  13.2157140  10.9941460 134.9678800  28.2841640   9.7383840 139.3974390
  27.6843630   9.7976400 138.6538310  28.4135540   8.7988820 139.5271240
  29.5243090   7.4801660 124.7344100  28.6936050   7.5478310 125.2051330
  29.7014920   8.3705780 124.4310960  28.9799550   4.2249140 127.2378300
  29.7418460   4.7945790 127.3437990  28.9953920   3.6576340 128.0086610
  12.4803890   2.7487070 131.4685960  11.8252730   2.4798710 130.8245660
  13.3181840   2.6391550 131.0187940  29.9859520   5.0799240 132.0820230
  30.3568350   4.2966560 131.6756200  30.6261450   5.7688340 131.9037530
  26.9693280   6.4635820 137.4950550  26.1553120   6.8932980 137.7576340
  27.3767480   7.0754230 136.8819600  29.0318720   4.5183510 124.3950820
  29.3067560   5.4262390 124.2670040  28.8429460   4.4546040 125.3312810
  28.9284060   2.4552500 129.3880250  28.5527660   1.6880430 128.9561540
  28.1987180   2.8375200 129.8755180  13.5179820   3.1339640 136.0089300
  13.8852860   3.0467040 136.8885320  12.9490640   2.3706190 135.9096160
  27.0269330  11.2154420 131.0218820  27.6228400  10.8938990 130.3453240
  27.2847480  10.7426240 131.8132090  14.9331900   7.6472330 141.1709450
  14.8901530   7.2765240 142.0523910  15.0642910   8.5849900 141.3111270
  18.6337930   9.2031920 136.7719170  18.3929290   9.4706480 135.8849690
  19.5740570   9.3737650 136.8270030  29.8942090  11.2226300 137.5729810
  29.4000370  11.6195170 136.8556940  29.2855380  10.5975510 137.9667090
  14.7719930  10.5934580 138.2907230  14.1780250  10.4619280 139.0297270
  14.7643770   9.7572720 137.8249330  27.5781540  11.8649720 134.8516550
  27.1184510  12.6165530 134.4774570  26.9494000  11.1456190 134.7931350
  14.4032160   7.9592960 137.2415270  13.6766220   7.3398250 137.1741220
  14.4641310   8.3533570 136.3713350  18.0077260  10.1737960 134.0264680
  18.5242280   9.5625320 133.5012940  18.6574640  10.6766740 134.5175690
  20.7472760  11.0646450 134.8533660  21.0350570  10.8100750 133.9766670
  21.2595980  10.5123810 135.4439230  12.6862160  11.2767350 130.4512030
  12.5184200  10.6438030 131.1493920  11.8196670  11.4826750 130.1006220
  14.2924860   9.9700580 127.8962170  13.7672480  10.3508610 127.1924130
  14.2169440  10.5951350 128.6171880  20.8145120  11.9862550 142.2201860
  21.7412430  11.7506820 142.2637820  20.7995550  12.8134550 141.7387890
  29.0490180  11.5288120 129.2176110  29.2242370  10.8425860 128.5737030
  28.3511750  12.0535170 128.8252780  16.8917830  11.9182960 126.7711420
  17.6236650  11.6342240 126.2235310  17.1511500  11.6796240 127.6610800
  16.0532620   8.0347690 126.7757750  15.4241500   8.5032790 127.3243580
  16.1680450   7.1896910 127.2103940  27.3822680  11.2132410 142.0442900
  28.1748000  10.7181640 141.8368860  27.6755830  11.8922550 142.6518510
  21.6400380   3.8632370 114.8068220  20.8642480   3.3832810 115.0966790
  22.2913310   3.1838020 114.6324380  15.6566210   4.1752180 115.6843980
  14.8251090   3.9200890 116.0840490  16.2647190   4.2462950 116.4201900
  25.6607810   8.2692560 113.5867350  25.1989340   7.4979800 113.9154520
  26.4733360   8.2958630 114.0919800  15.6367470   8.2092270 115.8802000
  15.9395510   7.3190010 115.7012220  16.3811060   8.7662490 115.6524250
  21.8871120  10.5550570 113.2071340  21.2682560  11.0108070 112.6365780
  22.7422900  10.7102030 112.8061040  21.0809370   6.5389560 114.8138380
  21.0117650   5.5979500 114.6527510  21.8429230   6.6290970 115.3860950
  22.7534470   5.4389810 110.6003250  22.1351740   5.9039260 110.0365970
  23.2657720   6.1317290 111.0172760  17.6166230   4.9665680 117.2786850
  17.2835610   5.5934600 117.9207920  17.7932910   5.4927560 116.4988520
  16.8285330   6.9346480 119.0936030  17.4459330   7.6097560 118.8120480
  15.9678450   7.3434460 119.0023530  12.1217670   6.1246340 107.9742880
  11.7445650   6.6133440 107.2427780  12.3790740   6.7971620 108.6049410
  27.7462920   8.3985890 117.0090670  27.0626440   9.0685000 117.0007340
  28.2857210   8.5966540 116.2435530  25.2821660  10.2430020 115.7235850
  25.2948820   9.8392310 114.8558110  24.7296880  11.0177310 115.6197280
  26.5767080   6.9646240 110.8126020  26.4663410   6.0220570 110.9375440
  26.5735330   7.3261880 111.6988780  24.6807100   5.1459860 117.0518460
  25.0975890   4.9319970 116.2171920  25.4046920   5.4032650 117.6227080
  22.1187360   2.5911560 110.1688510  21.1916640   2.5248940 110.3976980
  22.2712180   3.5291690 110.0543750  28.6269200   3.5447080 117.1434700
  27.7987830   3.6140170 116.6684830  29.2219680   4.1301390 116.6750530
  26.1484650   4.1531860 110.6723760  25.5297070   3.8151410 110.0250060
  26.1309100   3.5091620 111.3802950  17.7244000   3.1176300 112.9508240
  17.3201000   2.4053550 112.4554140  17.8107120   2.7729540 113.8396280
  18.1925700   6.8043860 115.1147450  17.8953990   6.1989330 114.4355230
  19.1425520   6.8421170 115.0036810  26.2811310  10.3775730 118.7770550
  25.8041870  11.1847920 118.5843160  25.5973100   9.7254060 118.9296760
  17.2844130   6.5425550 121.7655250  16.3872660   6.7665520 122.0128650
  17.3097000   6.6660490 120.8166650  24.3249350   3.3918670 107.6796510
  24.7642630   2.5541100 107.5334330  25.0377770   4.0248070 107.7660650
  16.1115350   3.4138870 120.3412620  15.9723120   4.2861670 120.7100020
  15.2296710   3.0711680 120.1960560  22.4344730   8.3314740 111.6477750
  22.8740640   9.0739070 111.2333140  22.3731620   8.5741310 112.5716710
  17.9095700   9.3560570 122.5497770  17.8811130   9.7603520 121.6826200
  17.7460670   8.4270930 122.3869370  29.8610520  10.1387670 123.8461940
  30.3370240  10.6170560 124.5251020  30.4817680  10.0705160 123.1207440
  12.0634000   5.1836420 116.2583530  12.1414420   5.3185190 115.3139250
  12.6775680   4.4752310 116.4511650  13.3081630   6.8836610 112.6689710
  12.9009710   7.0251200 111.8143310  14.1994640   6.5996770 112.4660920
  29.2643770   7.3300520 121.0061950  29.3906830   7.0912400 120.0879130
  29.3065150   6.4985060 121.4784030  23.1260510  11.0328520 119.5756760
  23.6405180  10.9436530 120.3779190  22.2829590  11.3788220 119.8684670
  25.1014910  11.3183860 109.0040760  24.9416050  11.0286800 109.9022590
  24.9361620  10.5423990 108.4685990  17.5803290  11.0982390 110.7812380
  17.4045770  10.1817930 110.5680180  16.7259030  11.4569680 111.0210180
  24.8041040   8.8271420 107.5638760  24.1106200   8.8248710 106.9041040
  25.5463900   8.4030740 107.1332930  24.3690970  10.4534130 111.6387250
  24.8247920   9.6723510 111.9525870  24.7083490  11.1640950 112.1828430
  12.1193520   6.2250590 118.7977990  12.2824560   5.7555950 117.9797360
  12.5845970   5.7174150 119.4626830  13.6932500   5.6002020 120.9573800
  13.3087290   4.9595690 121.5556760  14.0044690   6.3038140 121.5268530
  19.8429640   2.4478560 116.4382420  20.2099770   1.9737130 117.1843760
  19.6534700   3.3220130 116.7790760  16.1610800   5.6948190 109.3533480
  15.3873060   5.1545810 109.1932200  16.8905430   5.1754800 109.0151240
  26.9198780   4.6913550 115.1459870  27.6397900   5.1868840 114.7555980
  26.7180600   4.0131440 114.5013740  22.3017580   4.7622610 121.0328870
  22.2354890   3.8418280 120.7786460  21.6722720   4.8598050 121.7473510
  16.2048200   5.3628570 112.9912290  16.7226870   4.5596830 112.9369180
  15.7532220   5.3007710 113.8329120  21.0917700   6.6294850 108.2639590
  21.4333400   7.3737080 107.7682910  20.2630410   6.9425970 108.6264420
  16.8905860   2.7874180 122.7877540  16.5906000   2.9331360 121.8905360
  17.6617100   2.2279470 122.6950930  22.2334310   7.5843180 120.7832670
  22.2478850   6.6524140 120.5651580  21.5259410   7.6702940 121.4222440
  27.3671380   1.7683000 107.0531280  27.2835100   2.1997220 106.2027720
  28.0865570   2.2281350 107.4858100  28.4445520   4.2250520 120.1301250
  27.7193710   4.8179300 119.9330640  28.9720980   4.2174060 119.3314620
  28.3958630   8.6225260 109.7813410  27.7534790   7.9680880 110.0557130
  28.0089290   9.0280350 109.0054080  23.9745110   5.9510690 113.6285100
  24.3268930   5.3538820 112.9686470  23.0907440   5.6254920 113.7993350
  20.0608390   6.7108380 111.0355510  20.7479520   7.2577590 111.4163100
  19.2740810   7.2549110 111.0705120  12.2000790   2.3281200 106.5272590
  13.0695640   2.6106000 106.8108510  11.7091110   3.1417070 106.4121400
  19.3635600   3.7154410 110.6480870  19.8198380   4.5259660 110.8741060
  19.0123810   3.3977550 111.4799360  21.6668210   9.2260750 117.8773170
  22.3110430   9.4320130 118.5546590  22.0297650   8.4649150 117.4244020
  22.9400290   7.2293100 116.5950620  23.5822520   6.5286260 116.7082790
  23.4649640   8.0091540 116.4147510  26.7856010   7.5141720 106.3189760
  26.5593590   6.7972160 106.9114400  26.3952210   7.2654160 105.4811510
  24.7137910   8.0288000 119.7986680  25.0494150   8.6154690 120.4764600
  23.7938250   7.8980710 120.0284470  12.5672040  11.5408580 107.0934220
  12.9269680  12.1397920 106.4391490  12.4264380  12.0868470 107.8669250
  26.3672260   5.4313660 107.9803920  26.0793960   5.8926350 108.7681800
  27.1624430   4.9711430 108.2488140  12.5513900   9.8063440 121.5676620
  12.6605020   8.8658180 121.4272010  11.8994460  10.0718190 120.9190350
  20.5426490   8.0779330 122.9674740  20.2223360   7.3588570 123.5120430
  19.8684850   8.7534400 123.0410800  18.5840660   8.9239780 107.9107890
  18.5750760   9.6569470 107.2952400  17.6639020   8.6771360 108.0034850
  14.1847300   4.1454670 108.6554650  13.5775250   4.8853570 108.6649950
  14.6596650   4.2354030 107.8292850  21.5700260   8.9868020 106.5733080
  21.6712240   8.7832010 105.6435060  20.6702000   8.7326300 106.7780860
  20.2118370  11.5054340 111.2680750  20.4659870  11.4675730 110.3460120
  19.2630850  11.3787670 111.2609000  16.1952590   4.1065820 106.4043220
  16.9615860   3.9947180 106.9668650  16.2727280   3.4103790 105.7519990
  28.2196530   9.5955070 114.5193520  28.3443950  10.4186240 114.9917330
  29.0862090   9.3845800 114.1717670  15.6914060  11.6886280 114.1910650
  16.4276540  11.1401740 114.4619220  16.0754980  12.5542290 114.0516640
  12.5759540   7.7559850 110.0652160  11.6499320   7.9980990 110.0557570
  13.0415970   8.5834110 109.9436910  14.6972340  10.8732350 123.3796230
  15.4985070  11.1944400 123.7931630  14.1824160  10.5127930 124.1016140
  18.8016370  10.8616590 106.0136220  19.5944980  11.1505420 105.5618010
  18.2820720  10.4308760 105.3348700  23.5336970   6.9812220 123.3271640
  22.9275130   7.0043820 122.5867390  23.2291080   6.2495260 123.8638890
  24.9637340  10.7092510 121.9381050  25.9159090  10.6250530 121.8881290
  24.8165560  11.3734220 122.6114840  27.8546540  10.0886720 107.4372960
  27.5688050   9.6751860 106.6227140  27.6566090  11.0174430 107.3173480
  12.4170150   3.3605810 122.3232280  12.9209170   2.7813090 122.8948510
  11.6777570   3.6446040 122.8608650  19.3193770   6.0820000 105.8778570
  19.2144410   5.4672350 106.6039950  19.1517990   5.5585890 105.0941580
  19.4708090   4.7676800 121.8567800  18.7053760   5.3361800 121.7722470
  19.6524050   4.4753010 120.9636030  22.5596500   5.1440030 106.4820560
  22.0106600   5.5909330 107.1263300  23.1815760   4.6389280 107.0058230
  26.6131440   6.4982130 122.4142820  27.3540910   6.8357890 121.9110280
  25.8504120   6.6674190 121.8612590  18.2271620   4.1030950 108.3785860
  18.6488040   3.9370820 109.2217250  18.3522460   3.2931180 107.8841000
  20.7399260   3.1268560 105.6262960  21.2604920   2.4117580 105.2604110
  21.3867660   3.7654430 105.9263470  25.2877100   4.5496960 120.9498030
  25.7018120   4.7042040 121.7988450  24.3528100   4.6752180 121.1123810
  20.0492330   4.5017440 118.9193960  20.4680440   5.3450170 118.7470200
  19.1300960   4.6389480 118.6900740  24.7244130   2.7870810 118.8794310
  24.1979350   3.3113430 118.2759450  25.0675470   3.4198200 119.5104040
  17.8999750  10.8070450 120.0351690  17.3620840  11.5316510 119.7160390
  18.1533710  10.3300790 119.2449030  20.7561960  12.0421660 120.2938340
  20.6820660  12.9456800 120.6010710  19.8540800  11.7233560 120.2660410
  21.3047290  11.2080170 107.9164700  22.1998080  11.5465140 107.9383460
  21.3364920  10.4859580 107.2888980  14.9443450   6.5807220 106.1451700
  15.3818320   7.1236890 106.8009280  15.4291180   5.7554170 106.1548040
  12.1589250   9.3696250 113.5971960  12.4892260   8.5017310 113.3650600
  12.5880250   9.5754770 114.4276920  16.7551170   7.7005260 111.2573930
  16.4546710   7.5770230 112.1577840  16.6488660   6.8413850 110.8489660
  12.6479460  10.2366840 116.3353590  12.2110450  10.4167640 117.1677740
  13.2157140  10.9941460 116.1935310  28.2841640   9.7383840 120.6230900
  27.6843630   9.7976400 119.8794820  28.4135540   8.7988820 120.7527750
  29.5243090   7.4801660 105.9600610  28.6936050   7.5478310 106.4307840
  29.7014920   8.3705780 105.6567470  28.9799550   4.2249140 108.4634810
  29.7418460   4.7945790 108.5694500  28.9953920   3.6576340 109.2343120
  12.4803890   2.7487070 112.6942470  11.8252730   2.4798710 112.0502170
  13.3181840   2.6391550 112.2444450  29.9859520   5.0799240 113.3076740
  30.3568350   4.2966560 112.9012710  30.6261450   5.7688340 113.1294040
  26.9693280   6.4635820 118.7207060  26.1553120   6.8932980 118.9832850
  27.3767480   7.0754230 118.1076110  29.0318720   4.5183510 105.6207330
  29.3067560   5.4262390 105.4926550  28.8429460   4.4546040 106.5569320
  28.9284060   2.4552500 110.6136760  28.5527660   1.6880430 110.1818050
  28.1987180   2.8375200 111.1011690  13.5179820   3.1339640 117.2345810
  13.8852860   3.0467040 118.1141830  12.9490640   2.3706190 117.1352670
  27.0269330  11.2154420 112.2475330  27.6228400  10.8938990 111.5709750
  27.2847480  10.7426240 113.0388600  14.9331900   7.6472330 122.3965960
  14.8901530   7.2765240 123.2780420  15.0642910   8.5849900 122.5367780
  18.6337930   9.2031920 117.9975680  18.3929290   9.4706480 117.1106200
  19.5740570   9.3737650 118.0526540  29.8942090  11.2226300 118.7986320
  29.4000370  11.6195170 118.0813450  29.2855380  10.5975510 119.1923600
  14.7719930  10.5934580 119.5163740  14.1780250  10.4619280 120.2553780
  14.7643770   9.7572720 119.0505840  27.5781540  11.8649720 116.0773060
  27.1184510  12.6165530 115.7031080  26.9494000  11.1456190 116.0187860
  14.4032160   7.9592960 118.4671780  13.6766220   7.3398250 118.3997730
  14.4641310   8.3533570 117.5969860  18.0077260  10.1737960 115.2521190
  18.5242280   9.5625320 114.7269450  18.6574640  10.6766740 115.7432200
  20.7472760  11.0646450 116.0790170  21.0350570  10.8100750 115.2023180
  21.2595980  10.5123810 116.6695740  12.6862160  11.2767350 111.6768540
  12.5184200  10.6438030 112.3750430  11.8196670  11.4826750 111.3262730
  14.2924860   9.9700580 109.1218680  13.7672480  10.3508610 108.4180640
  14.2169440  10.5951350 109.8428390  20.8145120  11.9862550 123.4458370
  21.7412430  11.7506820 123.4894330  20.7995550  12.8134550 122.9644400
  29.0490180  11.5288120 110.4432620  29.2242370  10.8425860 109.7993540
  28.3511750  12.0535170 110.0509290  16.8917830  11.9182960 107.9967930
  17.6236650  11.6342240 107.4491820  17.1511500  11.6796240 108.8867310
  16.0532620   8.0347690 108.0014260  15.4241500   8.5032790 108.5500090
  16.1680450   7.1896910 108.4360450  27.3822680  11.2132410 123.2699410
  28.1748000  10.7181640 123.0625370  27.6755830  11.8922550 123.8775020
  21.6400380   3.8632370  96.0324730  20.8642480   3.3832810  96.3223300
  22.2913310   3.1838020  95.8580890  15.6566210   4.1752180  96.9100490
  14.8251090   3.9200890  97.3097000  16.2647190   4.2462950  97.6458410
  25.6607810   8.2692560  94.8123860  25.1989340   7.4979800  95.1411030
  26.4733360   8.2958630  95.3176310  15.6367470   8.2092270  97.1058510
  15.9395510   7.3190010  96.9268730  16.3811060   8.7662490  96.8780760
  21.8871120  10.5550570  94.4327850  21.2682560  11.0108070  93.8622290
  22.7422900  10.7102030  94.0317550  21.0809370   6.5389560  96.0394890
  21.0117650   5.5979500  95.8784020  21.8429230   6.6290970  96.6117460
  22.7534470   5.4389810  91.8259760  22.1351740   5.9039260  91.2622480
  23.2657720   6.1317290  92.2429270  17.6166230   4.9665680  98.5043360
  17.2835610   5.5934600  99.1464430  17.7932910   5.4927560  97.7245030
  16.8285330   6.9346480 100.3192540  17.4459330   7.6097560 100.0376990
  15.9678450   7.3434460 100.2280040  12.1217670   6.1246340  89.1999390
  11.7445650   6.6133440  88.4684290  12.3790740   6.7971620  89.8305920
  27.7462920   8.3985890  98.2347180  27.0626440   9.0685000  98.2263850
  28.2857210   8.5966540  97.4692040  25.2821660  10.2430020  96.9492360
  25.2948820   9.8392310  96.0814620  24.7296880  11.0177310  96.8453790
  26.5767080   6.9646240  92.0382530  26.4663410   6.0220570  92.1631950
  26.5735330   7.3261880  92.9245290  24.6807100   5.1459860  98.2774970
  25.0975890   4.9319970  97.4428430  25.4046920   5.4032650  98.8483590
  22.1187360   2.5911560  91.3945020  21.1916640   2.5248940  91.6233490
  22.2712180   3.5291690  91.2800260  28.6269200   3.5447080  98.3691210
  27.7987830   3.6140170  97.8941340  29.2219680   4.1301390  97.9007040
  26.1484650   4.1531860  91.8980270  25.5297070   3.8151410  91.2506570
  26.1309100   3.5091620  92.6059460  17.7244000   3.1176300  94.1764750
  17.3201000   2.4053550  93.6810650  17.8107120   2.7729540  95.0652790
  18.1925700   6.8043860  96.3403960  17.8953990   6.1989330  95.6611740
  19.1425520   6.8421170  96.2293320  26.2811310  10.3775730 100.0027060
  25.8041870  11.1847920  99.8099670  25.5973100   9.7254060 100.1553270
  17.2844130   6.5425550 102.9911760  16.3872660   6.7665520 103.2385160
  17.3097000   6.6660490 102.0423160  24.3249350   3.3918670  88.9053020
  24.7642630   2.5541100  88.7590840  25.0377770   4.0248070  88.9917160
  16.1115350   3.4138870 101.5669130  15.9723120   4.2861670 101.9356530
  15.2296710   3.0711680 101.4217070  22.4344730   8.3314740  92.8734260
  22.8740640   9.0739070  92.4589650  22.3731620   8.5741310  93.7973220
  17.9095700   9.3560570 103.7754280  17.8811130   9.7603520 102.9082710
  17.7460670   8.4270930 103.6125880  29.8610520  10.1387670 105.0718450
  30.3370240  10.6170560 105.7507530  30.4817680  10.0705160 104.3463950
  12.0634000   5.1836420  97.4840040  12.1414420   5.3185190  96.5395760
  12.6775680   4.4752310  97.6768160  13.3081630   6.8836610  93.8946220
  12.9009710   7.0251200  93.0399820  14.1994640   6.5996770  93.6917430
  29.2643770   7.3300520 102.2318460  29.3906830   7.0912400 101.3135640
  29.3065150   6.4985060 102.7040540  23.1260510  11.0328520 100.8013270
  23.6405180  10.9436530 101.6035700  22.2829590  11.3788220 101.0941180
  25.1014910  11.3183860  90.2297270  24.9416050  11.0286800  91.1279100
  24.9361620  10.5423990  89.6942500  17.5803290  11.0982390  92.0068890
  17.4045770  10.1817930  91.7936690  16.7259030  11.4569680  92.2466690
  24.8041040   8.8271420  88.7895270  24.1106200   8.8248710  88.1297550
  25.5463900   8.4030740  88.3589440  24.3690970  10.4534130  92.8643760
  24.8247920   9.6723510  93.1782380  24.7083490  11.1640950  93.4084940
  12.1193520   6.2250590 100.0234500  12.2824560   5.7555950  99.2053870
  12.5845970   5.7174150 100.6883340  13.6932500   5.6002020 102.1830310
  13.3087290   4.9595690 102.7813270  14.0044690   6.3038140 102.7525040
  19.8429640   2.4478560  97.6638930  20.2099770   1.9737130  98.4100270
  19.6534700   3.3220130  98.0047270  16.1610800   5.6948190  90.5789990
  15.3873060   5.1545810  90.4188710  16.8905430   5.1754800  90.2407750
  26.9198780   4.6913550  96.3716380  27.6397900   5.1868840  95.9812490
  26.7180600   4.0131440  95.7270250  22.3017580   4.7622610 102.2585380
  22.2354890   3.8418280 102.0042970  21.6722720   4.8598050 102.9730020
  16.2048200   5.3628570  94.2168800  16.7226870   4.5596830  94.1625690
  15.7532220   5.3007710  95.0585630  21.0917700   6.6294850  89.4896100
  21.4333400   7.3737080  88.9939420  20.2630410   6.9425970  89.8520930
  16.8905860   2.7874180 104.0134050  16.5906000   2.9331360 103.1161870
  17.6617100   2.2279470 103.9207440  22.2334310   7.5843180 102.0089180
  22.2478850   6.6524140 101.7908090  21.5259410   7.6702940 102.6478950
  27.3671380   1.7683000  88.2787790  27.2835100   2.1997220  87.4284230
  28.0865570   2.2281350  88.7114610  28.4445520   4.2250520 101.3557760
  27.7193710   4.8179300 101.1587150  28.9720980   4.2174060 100.5571130
  28.3958630   8.6225260  91.0069920  27.7534790   7.9680880  91.2813640
  28.0089290   9.0280350  90.2310590  23.9745110   5.9510690  94.8541610
  24.3268930   5.3538820  94.1942980  23.0907440   5.6254920  95.0249860
  20.0608390   6.7108380  92.2612020  20.7479520   7.2577590  92.6419610
  19.2740810   7.2549110  92.2961630  12.2000790   2.3281200  87.7529100
  13.0695640   2.6106000  88.0365020  11.7091110   3.1417070  87.6377910
  19.3635600   3.7154410  91.8737380  19.8198380   4.5259660  92.0997570
  19.0123810   3.3977550  92.7055870  21.6668210   9.2260750  99.1029680
  22.3110430   9.4320130  99.7803100  22.0297650   8.4649150  98.6500530
  22.9400290   7.2293100  97.8207130  23.5822520   6.5286260  97.9339300
  23.4649640   8.0091540  97.6404020  26.7856010   7.5141720  87.5446270
  26.5593590   6.7972160  88.1370910  26.3952210   7.2654160  86.7068020
  24.7137910   8.0288000 101.0243190  25.0494150   8.6154690 101.7021110
  23.7938250   7.8980710 101.2540980  12.5672040  11.5408580  88.3190730
  12.9269680  12.1397920  87.6648000  12.4264380  12.0868470  89.0925760
  26.3672260   5.4313660  89.2060430  26.0793960   5.8926350  89.9938310
  27.1624430   4.9711430  89.4744650  12.5513900   9.8063440 102.7933130
  12.6605020   8.8658180 102.6528520  11.8994460  10.0718190 102.1446860
  20.5426490   8.0779330 104.1931250  20.2223360   7.3588570 104.7376940
  19.8684850   8.7534400 104.2667310  18.5840660   8.9239780  89.1364400
  18.5750760   9.6569470  88.5208910  17.6639020   8.6771360  89.2291360
  14.1847300   4.1454670  89.8811160  13.5775250   4.8853570  89.8906460
  14.6596650   4.2354030  89.0549360  21.5700260   8.9868020  87.7989590
  21.6712240   8.7832010  86.8691570  20.6702000   8.7326300  88.0037370
  20.2118370  11.5054340  92.4937260  20.4659870  11.4675730  91.5716630
  19.2630850  11.3787670  92.4865510  16.1952590   4.1065820  87.6299730
  16.9615860   3.9947180  88.1925160  16.2727280   3.4103790  86.9776500
  28.2196530   9.5955070  95.7450030  28.3443950  10.4186240  96.2173840
  29.0862090   9.3845800  95.3974180  15.6914060  11.6886280  95.4167160
  16.4276540  11.1401740  95.6875730  16.0754980  12.5542290  95.2773150
  12.5759540   7.7559850  91.2908670  11.6499320   7.9980990  91.2814080
  13.0415970   8.5834110  91.1693420  14.6972340  10.8732350 104.6052740
  15.4985070  11.1944400 105.0188140  14.1824160  10.5127930 105.3272650
  18.8016370  10.8616590  87.2392730  19.5944980  11.1505420  86.7874520
  18.2820720  10.4308760  86.5605210  23.5336970   6.9812220 104.5528150
  22.9275130   7.0043820 103.8123900  23.2291080   6.2495260 105.0895400
  24.9637340  10.7092510 103.1637560  25.9159090  10.6250530 103.1137800
  24.8165560  11.3734220 103.8371350  27.8546540  10.0886720  88.6629470
  27.5688050   9.6751860  87.8483650  27.6566090  11.0174430  88.5429990
  12.4170150   3.3605810 103.5488790  12.9209170   2.7813090 104.1205020
  11.6777570   3.6446040 104.0865160  19.3193770   6.0820000  87.1035080
  19.2144410   5.4672350  87.8296460  19.1517990   5.5585890  86.3198090
  19.4708090   4.7676800 103.0824310  18.7053760   5.3361800 102.9978980
  19.6524050   4.4753010 102.1892540  22.5596500   5.1440030  87.7077070
  22.0106600   5.5909330  88.3519810  23.1815760   4.6389280  88.2314740
  26.6131440   6.4982130 103.6399330  27.3540910   6.8357890 103.1366790
  25.8504120   6.6674190 103.0869100  18.2271620   4.1030950  89.6042370
  18.6488040   3.9370820  90.4473760  18.3522460   3.2931180  89.1097510
  20.7399260   3.1268560  86.8519470  21.2604920   2.4117580  86.4860620
  21.3867660   3.7654430  87.1519980  25.2877100   4.5496960 102.1754540
  25.7018120   4.7042040 103.0244960  24.3528100   4.6752180 102.3380320
  20.0492330   4.5017440 100.1450470  20.4680440   5.3450170  99.9726710
  19.1300960   4.6389480  99.9157250  24.7244130   2.7870810 100.1050820
  24.1979350   3.3113430  99.5015960  25.0675470   3.4198200 100.7360550
  17.8999750  10.8070450 101.2608200  17.3620840  11.5316510 100.9416900
  18.1533710  10.3300790 100.4705540  20.7561960  12.0421660 101.5194850
  20.6820660  12.9456800 101.8267220  19.8540800  11.7233560 101.4916920
  21.3047290  11.2080170  89.1421210  22.1998080  11.5465140  89.1639970
  21.3364920  10.4859580  88.5145490  14.9443450   6.5807220  87.3708210
  15.3818320   7.1236890  88.0265790  15.4291180   5.7554170  87.3804550
  12.1589250   9.3696250  94.8228470  12.4892260   8.5017310  94.5907110
  12.5880250   9.5754770  95.6533430  16.7551170   7.7005260  92.4830440
  16.4546710   7.5770230  93.3834350  16.6488660   6.8413850  92.0746170
  12.6479460  10.2366840  97.5610100  12.2110450  10.4167640  98.3934250
  13.2157140  10.9941460  97.4191820  28.2841640   9.7383840 101.8487410
  27.6843630   9.7976400 101.1051330  28.4135540   8.7988820 101.9784260
  29.5243090   7.4801660  87.1857120  28.6936050   7.5478310  87.6564350
  29.7014920   8.3705780  86.8823980  28.9799550   4.2249140  89.6891320
  29.7418460   4.7945790  89.7951010  28.9953920   3.6576340  90.4599630
  12.4803890   2.7487070  93.9198980  11.8252730   2.4798710  93.2758680
  13.3181840   2.6391550  93.4700960  29.9859520   5.0799240  94.5333250
  30.3568350   4.2966560  94.1269220  30.6261450   5.7688340  94.3550550
  26.9693280   6.4635820  99.9463570  26.1553120   6.8932980 100.2089360
  27.3767480   7.0754230  99.3332620  29.0318720   4.5183510  86.8463840
  29.3067560   5.4262390  86.7183060  28.8429460   4.4546040  87.7825830
  28.9284060   2.4552500  91.8393270  28.5527660   1.6880430  91.4074560
  28.1987180   2.8375200  92.3268200  13.5179820   3.1339640  98.4602320
  13.8852860   3.0467040  99.3398340  12.9490640   2.3706190  98.3609180
  27.0269330  11.2154420  93.4731840  27.6228400  10.8938990  92.7966260
  27.2847480  10.7426240  94.2645110  14.9331900   7.6472330 103.6222470
  14.8901530   7.2765240 104.5036930  15.0642910   8.5849900 103.7624290
  18.6337930   9.2031920  99.2232190  18.3929290   9.4706480  98.3362710
  19.5740570   9.3737650  99.2783050  29.8942090  11.2226300 100.0242830
  29.4000370  11.6195170  99.3069960  29.2855380  10.5975510 100.4180110
  14.7719930  10.5934580 100.7420250  14.1780250  10.4619280 101.4810290
  14.7643770   9.7572720 100.2762350  27.5781540  11.8649720  97.3029570
  27.1184510  12.6165530  96.9287590  26.9494000  11.1456190  97.2444370
  14.4032160   7.9592960  99.6928290  13.6766220   7.3398250  99.6254240
  14.4641310   8.3533570  98.8226370  18.0077260  10.1737960  96.4777700
  18.5242280   9.5625320  95.9525960  18.6574640  10.6766740  96.9688710
  20.7472760  11.0646450  97.3046680  21.0350570  10.8100750  96.4279690
  21.2595980  10.5123810  97.8952250  12.6862160  11.2767350  92.9025050
  12.5184200  10.6438030  93.6006940  11.8196670  11.4826750  92.5519240
  14.2924860   9.9700580  90.3475190  13.7672480  10.3508610  89.6437150
  14.2169440  10.5951350  91.0684900  20.8145120  11.9862550 104.6714880
  21.7412430  11.7506820 104.7150840  20.7995550  12.8134550 104.1900910
  29.0490180  11.5288120  91.6689130  29.2242370  10.8425860  91.0250050
  28.3511750  12.0535170  91.2765800  16.8917830  11.9182960  89.2224440
  17.6236650  11.6342240  88.6748330  17.1511500  11.6796240  90.1123820
  16.0532620   8.0347690  89.2270770  15.4241500   8.5032790  89.7756600
  16.1680450   7.1896910  89.6616960  27.3822680  11.2132410 104.4955920
  28.1748000  10.7181640 104.2881880  27.6755830  11.8922550 105.1031530
  21.6400380   3.8632370  77.2581240  20.8642480   3.3832810  77.5479810
  22.2913310   3.1838020  77.0837400  15.6566210   4.1752180  78.1357000
  14.8251090   3.9200890  78.5353510  16.2647190   4.2462950  78.8714920
  25.6607810   8.2692560  76.0380370  25.1989340   7.4979800  76.3667540
  26.4733360   8.2958630  76.5432820  15.6367470   8.2092270  78.3315020
  15.9395510   7.3190010  78.1525240  16.3811060   8.7662490  78.1037270
  21.8871120  10.5550570  75.6584360  21.2682560  11.0108070  75.0878800
  22.7422900  10.7102030  75.2574060  21.0809370   6.5389560  77.2651400
  21.0117650   5.5979500  77.1040530  21.8429230   6.6290970  77.8373970
  22.7534470   5.4389810  73.0516270  22.1351740   5.9039260  72.4878990
  23.2657720   6.1317290  73.4685780  17.6166230   4.9665680  79.7299870
  17.2835610   5.5934600  80.3720940  17.7932910   5.4927560  78.9501540
  16.8285330   6.9346480  81.5449050  17.4459330   7.6097560  81.2633500
  15.9678450   7.3434460  81.4536550  12.1217670   6.1246340  70.4255900
  11.7445650   6.6133440  69.6940800  12.3790740   6.7971620  71.0562430
  27.7462920   8.3985890  79.4603690  27.0626440   9.0685000  79.4520360
  28.2857210   8.5966540  78.6948550  25.2821660  10.2430020  78.1748870
  25.2948820   9.8392310  77.3071130  24.7296880  11.0177310  78.0710300
  26.5767080   6.9646240  73.2639040  26.4663410   6.0220570  73.3888460
  26.5735330   7.3261880  74.1501800  24.6807100   5.1459860  79.5031480
  25.0975890   4.9319970  78.6684940  25.4046920   5.4032650  80.0740100
  22.1187360   2.5911560  72.6201530  21.1916640   2.5248940  72.8490000
  22.2712180   3.5291690  72.5056770  28.6269200   3.5447080  79.5947720
  27.7987830   3.6140170  79.1197850  29.2219680   4.1301390  79.1263550
  26.1484650   4.1531860  73.1236780  25.5297070   3.8151410  72.4763080
  26.1309100   3.5091620  73.8315970  17.7244000   3.1176300  75.4021260
  17.3201000   2.4053550  74.9067160  17.8107120   2.7729540  76.2909300
  18.1925700   6.8043860  77.5660470  17.8953990   6.1989330  76.8868250
  19.1425520   6.8421170  77.4549830  26.2811310  10.3775730  81.2283570
  25.8041870  11.1847920  81.0356180  25.5973100   9.7254060  81.3809780
  17.2844130   6.5425550  84.2168270  16.3872660   6.7665520  84.4641670
  17.3097000   6.6660490  83.2679670  24.3249350   3.3918670  70.1309530
  24.7642630   2.5541100  69.9847350  25.0377770   4.0248070  70.2173670
  16.1115350   3.4138870  82.7925640  15.9723120   4.2861670  83.1613040
  15.2296710   3.0711680  82.6473580  22.4344730   8.3314740  74.0990770
  22.8740640   9.0739070  73.6846160  22.3731620   8.5741310  75.0229730
  17.9095700   9.3560570  85.0010790  17.8811130   9.7603520  84.1339220
  17.7460670   8.4270930  84.8382390  29.8610520  10.1387670  86.2974960
  30.3370240  10.6170560  86.9764040  30.4817680  10.0705160  85.5720460
  12.0634000   5.1836420  78.7096550  12.1414420   5.3185190  77.7652270
  12.6775680   4.4752310  78.9024670  13.3081630   6.8836610  75.1202730
  12.9009710   7.0251200  74.2656330  14.1994640   6.5996770  74.9173940
  29.2643770   7.3300520  83.4574970  29.3906830   7.0912400  82.5392150
  29.3065150   6.4985060  83.9297050  23.1260510  11.0328520  82.0269780
  23.6405180  10.9436530  82.8292210  22.2829590  11.3788220  82.3197690
  25.1014910  11.3183860  71.4553780  24.9416050  11.0286800  72.3535610
  24.9361620  10.5423990  70.9199010  17.5803290  11.0982390  73.2325400
  17.4045770  10.1817930  73.0193200  16.7259030  11.4569680  73.4723200
  24.8041040   8.8271420  70.0151780  24.1106200   8.8248710  69.3554060
  25.5463900   8.4030740  69.5845950  24.3690970  10.4534130  74.0900270
  24.8247920   9.6723510  74.4038890  24.7083490  11.1640950  74.6341450
  12.1193520   6.2250590  81.2491010  12.2824560   5.7555950  80.4310380
  12.5845970   5.7174150  81.9139850  13.6932500   5.6002020  83.4086820
  13.3087290   4.9595690  84.0069780  14.0044690   6.3038140  83.9781550
  19.8429640   2.4478560  78.8895440  20.2099770   1.9737130  79.6356780
  19.6534700   3.3220130  79.2303780  16.1610800   5.6948190  71.8046500
  15.3873060   5.1545810  71.6445220  16.8905430   5.1754800  71.4664260
  26.9198780   4.6913550  77.5972890  27.6397900   5.1868840  77.2069000
  26.7180600   4.0131440  76.9526760  22.3017580   4.7622610  83.4841890
  22.2354890   3.8418280  83.2299480  21.6722720   4.8598050  84.1986530
  16.2048200   5.3628570  75.4425310  16.7226870   4.5596830  75.3882200
  15.7532220   5.3007710  76.2842140  21.0917700   6.6294850  70.7152610
  21.4333400   7.3737080  70.2195930  20.2630410   6.9425970  71.0777440
  16.8905860   2.7874180  85.2390560  16.5906000   2.9331360  84.3418380
  17.6617100   2.2279470  85.1463950  22.2334310   7.5843180  83.2345690
  22.2478850   6.6524140  83.0164600  21.5259410   7.6702940  83.8735460
  27.3671380   1.7683000  69.5044300  27.2835100   2.1997220  68.6540740
  28.0865570   2.2281350  69.9371120  28.4445520   4.2250520  82.5814270
  27.7193710   4.8179300  82.3843660  28.9720980   4.2174060  81.7827640
  28.3958630   8.6225260  72.2326430  27.7534790   7.9680880  72.5070150
  28.0089290   9.0280350  71.4567100  23.9745110   5.9510690  76.0798120
  24.3268930   5.3538820  75.4199490  23.0907440   5.6254920  76.2506370
  20.0608390   6.7108380  73.4868530  20.7479520   7.2577590  73.8676120
  19.2740810   7.2549110  73.5218140  12.2000790   2.3281200  68.9785610
  13.0695640   2.6106000  69.2621530  11.7091110   3.1417070  68.8634420
  19.3635600   3.7154410  73.0993890  19.8198380   4.5259660  73.3254080
  19.0123810   3.3977550  73.9312380  21.6668210   9.2260750  80.3286190
  22.3110430   9.4320130  81.0059610  22.0297650   8.4649150  79.8757040
  22.9400290   7.2293100  79.0463640  23.5822520   6.5286260  79.1595810
  23.4649640   8.0091540  78.8660530  26.7856010   7.5141720  68.7702780
  26.5593590   6.7972160  69.3627420  26.3952210   7.2654160  67.9324530
  24.7137910   8.0288000  82.2499700  25.0494150   8.6154690  82.9277620
  23.7938250   7.8980710  82.4797490  12.5672040  11.5408580  69.5447240
  12.9269680  12.1397920  68.8904510  12.4264380  12.0868470  70.3182270
  26.3672260   5.4313660  70.4316940  26.0793960   5.8926350  71.2194820
  27.1624430   4.9711430  70.7001160  12.5513900   9.8063440  84.0189640
  12.6605020   8.8658180  83.8785030  11.8994460  10.0718190  83.3703370
  20.5426490   8.0779330  85.4187760  20.2223360   7.3588570  85.9633450
  19.8684850   8.7534400  85.4923820  18.5840660   8.9239780  70.3620910
  18.5750760   9.6569470  69.7465420  17.6639020   8.6771360  70.4547870
  14.1847300   4.1454670  71.1067670  13.5775250   4.8853570  71.1162970
  14.6596650   4.2354030  70.2805870  21.5700260   8.9868020  69.0246100
  21.6712240   8.7832010  68.0948080  20.6702000   8.7326300  69.2293880
  20.2118370  11.5054340  73.7193770  20.4659870  11.4675730  72.7973140
  19.2630850  11.3787670  73.7122020  16.1952590   4.1065820  68.8556240
  16.9615860   3.9947180  69.4181670  16.2727280   3.4103790  68.2033010
  28.2196530   9.5955070  76.9706540  28.3443950  10.4186240  77.4430350
  29.0862090   9.3845800  76.6230690  15.6914060  11.6886280  76.6423670
  16.4276540  11.1401740  76.9132240  16.0754980  12.5542290  76.5029660
  12.5759540   7.7559850  72.5165180  11.6499320   7.9980990  72.5070590
  13.0415970   8.5834110  72.3949930  14.6972340  10.8732350  85.8309250
  15.4985070  11.1944400  86.2444650  14.1824160  10.5127930  86.5529160
  18.8016370  10.8616590  68.4649240  19.5944980  11.1505420  68.0131030
  18.2820720  10.4308760  67.7861720  23.5336970   6.9812220  85.7784660
  22.9275130   7.0043820  85.0380410  23.2291080   6.2495260  86.3151910
  24.9637340  10.7092510  84.3894070  25.9159090  10.6250530  84.3394310
  24.8165560  11.3734220  85.0627860  27.8546540  10.0886720  69.8885980
  27.5688050   9.6751860  69.0740160  27.6566090  11.0174430  69.7686500
  12.4170150   3.3605810  84.7745300  12.9209170   2.7813090  85.3461530
  11.6777570   3.6446040  85.3121670  19.3193770   6.0820000  68.3291590
  19.2144410   5.4672350  69.0552970  19.1517990   5.5585890  67.5454600
  19.4708090   4.7676800  84.3080820  18.7053760   5.3361800  84.2235490
  19.6524050   4.4753010  83.4149050  22.5596500   5.1440030  68.9333580
  22.0106600   5.5909330  69.5776320  23.1815760   4.6389280  69.4571250
  26.6131440   6.4982130  84.8655840  27.3540910   6.8357890  84.3623300
  25.8504120   6.6674190  84.3125610  18.2271620   4.1030950  70.8298880
  18.6488040   3.9370820  71.6730270  18.3522460   3.2931180  70.3354020
  20.7399260   3.1268560  68.0775980  21.2604920   2.4117580  67.7117130
  21.3867660   3.7654430  68.3776490  25.2877100   4.5496960  83.4011050
  25.7018120   4.7042040  84.2501470  24.3528100   4.6752180  83.5636830
  20.0492330   4.5017440  81.3706980  20.4680440   5.3450170  81.1983220
  19.1300960   4.6389480  81.1413760  24.7244130   2.7870810  81.3307330
  24.1979350   3.3113430  80.7272470  25.0675470   3.4198200  81.9617060
  17.8999750  10.8070450  82.4864710  17.3620840  11.5316510  82.1673410
  18.1533710  10.3300790  81.6962050  20.7561960  12.0421660  82.7451360
  20.6820660  12.9456800  83.0523730  19.8540800  11.7233560  82.7173430
  21.3047290  11.2080170  70.3677720  22.1998080  11.5465140  70.3896480
  21.3364920  10.4859580  69.7402000  14.9443450   6.5807220  68.5964720
  15.3818320   7.1236890  69.2522300  15.4291180   5.7554170  68.6061060
  12.1589250   9.3696250  76.0484980  12.4892260   8.5017310  75.8163620
  12.5880250   9.5754770  76.8789940  16.7551170   7.7005260  73.7086950
  16.4546710   7.5770230  74.6090860  16.6488660   6.8413850  73.3002680
  12.6479460  10.2366840  78.7866610  12.2110450  10.4167640  79.6190760
  13.2157140  10.9941460  78.6448330  28.2841640   9.7383840  83.0743920
  27.6843630   9.7976400  82.3307840  28.4135540   8.7988820  83.2040770
  29.5243090   7.4801660  68.4113630  28.6936050   7.5478310  68.8820860
  29.7014920   8.3705780  68.1080490  28.9799550   4.2249140  70.9147830
  29.7418460   4.7945790  71.0207520  28.9953920   3.6576340  71.6856140
  12.4803890   2.7487070  75.1455490  11.8252730   2.4798710  74.5015190
  13.3181840   2.6391550  74.6957470  29.9859520   5.0799240  75.7589760
  30.3568350   4.2966560  75.3525730  30.6261450   5.7688340  75.5807060
  26.9693280   6.4635820  81.1720080  26.1553120   6.8932980  81.4345870
  27.3767480   7.0754230  80.5589130  29.0318720   4.5183510  68.0720350
  29.3067560   5.4262390  67.9439570  28.8429460   4.4546040  69.0082340
  28.9284060   2.4552500  73.0649780  28.5527660   1.6880430  72.6331070
  28.1987180   2.8375200  73.5524710  13.5179820   3.1339640  79.6858830
  13.8852860   3.0467040  80.5654850  12.9490640   2.3706190  79.5865690
  27.0269330  11.2154420  74.6988350  27.6228400  10.8938990  74.0222770
  27.2847480  10.7426240  75.4901620  14.9331900   7.6472330  84.8478980
  14.8901530   7.2765240  85.7293440  15.0642910   8.5849900  84.9880800
  18.6337930   9.2031920  80.4488700  18.3929290   9.4706480  79.5619220
  19.5740570   9.3737650  80.5039560  29.8942090  11.2226300  81.2499340
  29.4000370  11.6195170  80.5326470  29.2855380  10.5975510  81.6436620
  14.7719930  10.5934580  81.9676760  14.1780250  10.4619280  82.7066800
  14.7643770   9.7572720  81.5018860  27.5781540  11.8649720  78.5286080
  27.1184510  12.6165530  78.1544100  26.9494000  11.1456190  78.4700880
  14.4032160   7.9592960  80.9184800  13.6766220   7.3398250  80.8510750
  14.4641310   8.3533570  80.0482880  18.0077260  10.1737960  77.7034210
  18.5242280   9.5625320  77.1782470  18.6574640  10.6766740  78.1945220
  20.7472760  11.0646450  78.5303190  21.0350570  10.8100750  77.6536200
  21.2595980  10.5123810  79.1208760  12.6862160  11.2767350  74.1281560
  12.5184200  10.6438030  74.8263450  11.8196670  11.4826750  73.7775750
  14.2924860   9.9700580  71.5731700  13.7672480  10.3508610  70.8693660
  14.2169440  10.5951350  72.2941410  20.8145120  11.9862550  85.8971390
  21.7412430  11.7506820  85.9407350  20.7995550  12.8134550  85.4157420
  29.0490180  11.5288120  72.8945640  29.2242370  10.8425860  72.2506560
  28.3511750  12.0535170  72.5022310  16.8917830  11.9182960  70.4480950
  17.6236650  11.6342240  69.9004840  17.1511500  11.6796240  71.3380330
  16.0532620   8.0347690  70.4527280  15.4241500   8.5032790  71.0013110
  16.1680450   7.1896910  70.8873470  27.3822680  11.2132410  85.7212430
  28.1748000  10.7181640  85.5138390  27.6755830  11.8922550  86.3288040
  21.6400380   3.8632370  58.4837750  20.8642480   3.3832810  58.7736320
  22.2913310   3.1838020  58.3093910  15.6566210   4.1752180  59.3613510
  14.8251090   3.9200890  59.7610020  16.2647190   4.2462950  60.0971430
  25.6607810   8.2692560  57.2636880  25.1989340   7.4979800  57.5924050
  26.4733360   8.2958630  57.7689330  15.6367470   8.2092270  59.5571530
  15.9395510   7.3190010  59.3781750  16.3811060   8.7662490  59.3293780
  21.8871120  10.5550570  56.8840870  21.2682560  11.0108070  56.3135310
  22.7422900  10.7102030  56.4830570  21.0809370   6.5389560  58.4907910
  21.0117650   5.5979500  58.3297040  21.8429230   6.6290970  59.0630480
  22.7534470   5.4389810  54.2772780  22.1351740   5.9039260  53.7135500
  23.2657720   6.1317290  54.6942290  17.6166230   4.9665680  60.9556380
  17.2835610   5.5934600  61.5977450  17.7932910   5.4927560  60.1758050
  16.8285330   6.9346480  62.7705560  17.4459330   7.6097560  62.4890010
  15.9678450   7.3434460  62.6793060  12.1217670   6.1246340  51.6512410
  11.7445650   6.6133440  50.9197310  12.3790740   6.7971620  52.2818940
  27.7462920   8.3985890  60.6860200  27.0626440   9.0685000  60.6776870
  28.2857210   8.5966540  59.9205060  25.2821660  10.2430020  59.4005380
  25.2948820   9.8392310  58.5327640  24.7296880  11.0177310  59.2966810
  26.5767080   6.9646240  54.4895550  26.4663410   6.0220570  54.6144970
  26.5735330   7.3261880  55.3758310  24.6807100   5.1459860  60.7287990
  25.0975890   4.9319970  59.8941450  25.4046920   5.4032650  61.2996610
  22.1187360   2.5911560  53.8458040  21.1916640   2.5248940  54.0746510
  22.2712180   3.5291690  53.7313280  28.6269200   3.5447080  60.8204230
  27.7987830   3.6140170  60.3454360  29.2219680   4.1301390  60.3520060
  26.1484650   4.1531860  54.3493290  25.5297070   3.8151410  53.7019590
  26.1309100   3.5091620  55.0572480  17.7244000   3.1176300  56.6277770
  17.3201000   2.4053550  56.1323670  17.8107120   2.7729540  57.5165810
  18.1925700   6.8043860  58.7916980  17.8953990   6.1989330  58.1124760
  19.1425520   6.8421170  58.6806340  26.2811310  10.3775730  62.4540080
  25.8041870  11.1847920  62.2612690  25.5973100   9.7254060  62.6066290
  17.2844130   6.5425550  65.4424780  16.3872660   6.7665520  65.6898180
  17.3097000   6.6660490  64.4936180  24.3249350   3.3918670  51.3566040
  24.7642630   2.5541100  51.2103860  25.0377770   4.0248070  51.4430180
  16.1115350   3.4138870  64.0182150  15.9723120   4.2861670  64.3869550
  15.2296710   3.0711680  63.8730090  22.4344730   8.3314740  55.3247280
  22.8740640   9.0739070  54.9102670  22.3731620   8.5741310  56.2486240
  17.9095700   9.3560570  66.2267300  17.8811130   9.7603520  65.3595730
  17.7460670   8.4270930  66.0638900  29.8610520  10.1387670  67.5231470
  30.3370240  10.6170560  68.2020550  30.4817680  10.0705160  66.7976970
  12.0634000   5.1836420  59.9353060  12.1414420   5.3185190  58.9908780
  12.6775680   4.4752310  60.1281180  13.3081630   6.8836610  56.3459240
  12.9009710   7.0251200  55.4912840  14.1994640   6.5996770  56.1430450
  29.2643770   7.3300520  64.6831480  29.3906830   7.0912400  63.7648660
  29.3065150   6.4985060  65.1553560  23.1260510  11.0328520  63.2526290
  23.6405180  10.9436530  64.0548720  22.2829590  11.3788220  63.5454200
  25.1014910  11.3183860  52.6810290  24.9416050  11.0286800  53.5792120
  24.9361620  10.5423990  52.1455520  17.5803290  11.0982390  54.4581910
  17.4045770  10.1817930  54.2449710  16.7259030  11.4569680  54.6979710
  24.8041040   8.8271420  51.2408290  24.1106200   8.8248710  50.5810570
  25.5463900   8.4030740  50.8102460  24.3690970  10.4534130  55.3156780
  24.8247920   9.6723510  55.6295400  24.7083490  11.1640950  55.8597960
  12.1193520   6.2250590  62.4747520  12.2824560   5.7555950  61.6566890
  12.5845970   5.7174150  63.1396360  13.6932500   5.6002020  64.6343330
  13.3087290   4.9595690  65.2326290  14.0044690   6.3038140  65.2038060
  19.8429640   2.4478560  60.1151950  20.2099770   1.9737130  60.8613290
  19.6534700   3.3220130  60.4560290  16.1610800   5.6948190  53.0303010
  15.3873060   5.1545810  52.8701730  16.8905430   5.1754800  52.6920770
  26.9198780   4.6913550  58.8229400  27.6397900   5.1868840  58.4325510
  26.7180600   4.0131440  58.1783270  22.3017580   4.7622610  64.7098400
  22.2354890   3.8418280  64.4555990  21.6722720   4.8598050  65.4243040
  16.2048200   5.3628570  56.6681820  16.7226870   4.5596830  56.6138710
  15.7532220   5.3007710  57.5098650  21.0917700   6.6294850  51.9409120
  21.4333400   7.3737080  51.4452440  20.2630410   6.9425970  52.3033950
  16.8905860   2.7874180  66.4647070  16.5906000   2.9331360  65.5674890
  17.6617100   2.2279470  66.3720460  22.2334310   7.5843180  64.4602200
  22.2478850   6.6524140  64.2421110  21.5259410   7.6702940  65.0991970
  27.3671380   1.7683000  50.7300810  27.2835100   2.1997220  49.8797250
  28.0865570   2.2281350  51.1627630  28.4445520   4.2250520  63.8070780
  27.7193710   4.8179300  63.6100170  28.9720980   4.2174060  63.0084150
  28.3958630   8.6225260  53.4582940  27.7534790   7.9680880  53.7326660
  28.0089290   9.0280350  52.6823610  23.9745110   5.9510690  57.3054630
  24.3268930   5.3538820  56.6456000  23.0907440   5.6254920  57.4762880
  20.0608390   6.7108380  54.7125040  20.7479520   7.2577590  55.0932630
  19.2740810   7.2549110  54.7474650  12.2000790   2.3281200  50.2042120
  13.0695640   2.6106000  50.4878040  11.7091110   3.1417070  50.0890930
  19.3635600   3.7154410  54.3250400  19.8198380   4.5259660  54.5510590
  19.0123810   3.3977550  55.1568890  21.6668210   9.2260750  61.5542700
  22.3110430   9.4320130  62.2316120  22.0297650   8.4649150  61.1013550
  22.9400290   7.2293100  60.2720150  23.5822520   6.5286260  60.3852320
  23.4649640   8.0091540  60.0917040  26.7856010   7.5141720  49.9959290
  26.5593590   6.7972160  50.5883930  26.3952210   7.2654160  49.1581040
  24.7137910   8.0288000  63.4756210  25.0494150   8.6154690  64.1534130
  23.7938250   7.8980710  63.7054000  12.5672040  11.5408580  50.7703750
  12.9269680  12.1397920  50.1161020  12.4264380  12.0868470  51.5438780
  26.3672260   5.4313660  51.6573450  26.0793960   5.8926350  52.4451330
  27.1624430   4.9711430  51.9257670  12.5513900   9.8063440  65.2446150
  12.6605020   8.8658180  65.1041540  11.8994460  10.0718190  64.5959880
  20.5426490   8.0779330  66.6444270  20.2223360   7.3588570  67.1889960
  19.8684850   8.7534400  66.7180330  18.5840660   8.9239780  51.5877420
  18.5750760   9.6569470  50.9721930  17.6639020   8.6771360  51.6804380
  14.1847300   4.1454670  52.3324180  13.5775250   4.8853570  52.3419480
  14.6596650   4.2354030  51.5062380  21.5700260   8.9868020  50.2502610
  21.6712240   8.7832010  49.3204590  20.6702000   8.7326300  50.4550390
  20.2118370  11.5054340  54.9450280  20.4659870  11.4675730  54.0229650
  19.2630850  11.3787670  54.9378530  16.1952590   4.1065820  50.0812750
  16.9615860   3.9947180  50.6438180  16.2727280   3.4103790  49.4289520
  28.2196530   9.5955070  58.1963050  28.3443950  10.4186240  58.6686860
  29.0862090   9.3845800  57.8487200  15.6914060  11.6886280  57.8680180
  16.4276540  11.1401740  58.1388750  16.0754980  12.5542290  57.7286170
  12.5759540   7.7559850  53.7421690  11.6499320   7.9980990  53.7327100
  13.0415970   8.5834110  53.6206440  14.6972340  10.8732350  67.0565760
  15.4985070  11.1944400  67.4701160  14.1824160  10.5127930  67.7785670
  18.8016370  10.8616590  49.6905750  19.5944980  11.1505420  49.2387540
  18.2820720  10.4308760  49.0118230  23.5336970   6.9812220  67.0041170
  22.9275130   7.0043820  66.2636920  23.2291080   6.2495260  67.5408420
  24.9637340  10.7092510  65.6150580  25.9159090  10.6250530  65.5650820
  24.8165560  11.3734220  66.2884370  27.8546540  10.0886720  51.1142490
  27.5688050   9.6751860  50.2996670  27.6566090  11.0174430  50.9943010
  12.4170150   3.3605810  66.0001810  12.9209170   2.7813090  66.5718040
  11.6777570   3.6446040  66.5378180  19.3193770   6.0820000  49.5548100
  19.2144410   5.4672350  50.2809480  19.1517990   5.5585890  48.7711110
  19.4708090   4.7676800  65.5337330  18.7053760   5.3361800  65.4492000
  19.6524050   4.4753010  64.6405560  22.5596500   5.1440030  50.1590090
  22.0106600   5.5909330  50.8032830  23.1815760   4.6389280  50.6827760
  26.6131440   6.4982130  66.0912350  27.3540910   6.8357890  65.5879810
  25.8504120   6.6674190  65.5382120  18.2271620   4.1030950  52.0555390
  18.6488040   3.9370820  52.8986780  18.3522460   3.2931180  51.5610530
  20.7399260   3.1268560  49.3032490  21.2604920   2.4117580  48.9373640
  21.3867660   3.7654430  49.6033000  25.2877100   4.5496960  64.6267560
  25.7018120   4.7042040  65.4757980  24.3528100   4.6752180  64.7893340
  20.0492330   4.5017440  62.5963490  20.4680440   5.3450170  62.4239730
  19.1300960   4.6389480  62.3670270  24.7244130   2.7870810  62.5563840
  24.1979350   3.3113430  61.9528980  25.0675470   3.4198200  63.1873570
  17.8999750  10.8070450  63.7121220  17.3620840  11.5316510  63.3929920
  18.1533710  10.3300790  62.9218560  20.7561960  12.0421660  63.9707870
  20.6820660  12.9456800  64.2780240  19.8540800  11.7233560  63.9429940
  21.3047290  11.2080170  51.5934230  22.1998080  11.5465140  51.6152990
  21.3364920  10.4859580  50.9658510  14.9443450   6.5807220  49.8221230
  15.3818320   7.1236890  50.4778810  15.4291180   5.7554170  49.8317570
  12.1589250   9.3696250  57.2741490  12.4892260   8.5017310  57.0420130
  12.5880250   9.5754770  58.1046450  16.7551170   7.7005260  54.9343460
  16.4546710   7.5770230  55.8347370  16.6488660   6.8413850  54.5259190
  12.6479460  10.2366840  60.0123120  12.2110450  10.4167640  60.8447270
  13.2157140  10.9941460  59.8704840  28.2841640   9.7383840  64.3000430
  27.6843630   9.7976400  63.5564350  28.4135540   8.7988820  64.4297280
  29.5243090   7.4801660  49.6370140  28.6936050   7.5478310  50.1077370
  29.7014920   8.3705780  49.3337000  28.9799550   4.2249140  52.1404340
  29.7418460   4.7945790  52.2464030  28.9953920   3.6576340  52.9112650
  12.4803890   2.7487070  56.3712000  11.8252730   2.4798710  55.7271700
  13.3181840   2.6391550  55.9213980  29.9859520   5.0799240  56.9846270
  30.3568350   4.2966560  56.5782240  30.6261450   5.7688340  56.8063570
  26.9693280   6.4635820  62.3976590  26.1553120   6.8932980  62.6602380
  27.3767480   7.0754230  61.7845640  29.0318720   4.5183510  49.2976860
  29.3067560   5.4262390  49.1696080  28.8429460   4.4546040  50.2338850
  28.9284060   2.4552500  54.2906290  28.5527660   1.6880430  53.8587580
  28.1987180   2.8375200  54.7781220  13.5179820   3.1339640  60.9115340
  13.8852860   3.0467040  61.7911360  12.9490640   2.3706190  60.8122200
  27.0269330  11.2154420  55.9244860  27.6228400  10.8938990  55.2479280
  27.2847480  10.7426240  56.7158130  14.9331900   7.6472330  66.0735490
  14.8901530   7.2765240  66.9549950  15.0642910   8.5849900  66.2137310
  18.6337930   9.2031920  61.6745210  18.3929290   9.4706480  60.7875730
  19.5740570   9.3737650  61.7296070  29.8942090  11.2226300  62.4755850
  29.4000370  11.6195170  61.7582980  29.2855380  10.5975510  62.8693130
  14.7719930  10.5934580  63.1933270  14.1780250  10.4619280  63.9323310
  14.7643770   9.7572720  62.7275370  27.5781540  11.8649720  59.7542590
  27.1184510  12.6165530  59.3800610  26.9494000  11.1456190  59.6957390
  14.4032160   7.9592960  62.1441310  13.6766220   7.3398250  62.0767260
  14.4641310   8.3533570  61.2739390  18.0077260  10.1737960  58.9290720
  18.5242280   9.5625320  58.4038980  18.6574640  10.6766740  59.4201730
  20.7472760  11.0646450  59.7559700  21.0350570  10.8100750  58.8792710
  21.2595980  10.5123810  60.3465270  12.6862160  11.2767350  55.3538070
  12.5184200  10.6438030  56.0519960  11.8196670  11.4826750  55.0032260
  14.2924860   9.9700580  52.7988210  13.7672480  10.3508610  52.0950170
  14.2169440  10.5951350  53.5197920  20.8145120  11.9862550  67.1227900
  21.7412430  11.7506820  67.1663860  20.7995550  12.8134550  66.6413930
  29.0490180  11.5288120  54.1202150  29.2242370  10.8425860  53.4763070
  28.3511750  12.0535170  53.7278820  16.8917830  11.9182960  51.6737460
  17.6236650  11.6342240  51.1261350  17.1511500  11.6796240  52.5636840
  16.0532620   8.0347690  51.6783790  15.4241500   8.5032790  52.2269620
  16.1680450   7.1896910  52.1129980  27.3822680  11.2132410  66.9468940
  28.1748000  10.7181640  66.7394900  27.6755830  11.8922550  67.5544550
  21.6400380   3.8632370  39.7094260  20.8642480   3.3832810  39.9992830
  22.2913310   3.1838020  39.5350420  15.6566210   4.1752180  40.5870020
  14.8251090   3.9200890  40.9866530  16.2647190   4.2462950  41.3227940
  25.6607810   8.2692560  38.4893390  25.1989340   7.4979800  38.8180560
  26.4733360   8.2958630  38.9945840  15.6367470   8.2092270  40.7828040
  15.9395510   7.3190010  40.6038260  16.3811060   8.7662490  40.5550290
  21.8871120  10.5550570  38.1097380  21.2682560  11.0108070  37.5391820
  22.7422900  10.7102030  37.7087080  21.0809370   6.5389560  39.7164420
  21.0117650   5.5979500  39.5553550  21.8429230   6.6290970  40.2886990
  22.7534470   5.4389810  35.5029290  22.1351740   5.9039260  34.9392010
  23.2657720   6.1317290  35.9198800  17.6166230   4.9665680  42.1812890
  17.2835610   5.5934600  42.8233960  17.7932910   5.4927560  41.4014560
  16.8285330   6.9346480  43.9962070  17.4459330   7.6097560  43.7146520
  15.9678450   7.3434460  43.9049570  12.1217670   6.1246340  32.8768920
  11.7445650   6.6133440  32.1453820  12.3790740   6.7971620  33.5075450
  27.7462920   8.3985890  41.9116710  27.0626440   9.0685000  41.9033380
  28.2857210   8.5966540  41.1461570  25.2821660  10.2430020  40.6261890
  25.2948820   9.8392310  39.7584150  24.7296880  11.0177310  40.5223320
  26.5767080   6.9646240  35.7152060  26.4663410   6.0220570  35.8401480
  26.5735330   7.3261880  36.6014820  24.6807100   5.1459860  41.9544500
  25.0975890   4.9319970  41.1197960  25.4046920   5.4032650  42.5253120
  22.1187360   2.5911560  35.0714550  21.1916640   2.5248940  35.3003020
  22.2712180   3.5291690  34.9569790  28.6269200   3.5447080  42.0460740
  27.7987830   3.6140170  41.5710870  29.2219680   4.1301390  41.5776570
  26.1484650   4.1531860  35.5749800  25.5297070   3.8151410  34.9276100
  26.1309100   3.5091620  36.2828990  17.7244000   3.1176300  37.8534280
  17.3201000   2.4053550  37.3580180  17.8107120   2.7729540  38.7422320
  18.1925700   6.8043860  40.0173490  17.8953990   6.1989330  39.3381270
  19.1425520   6.8421170  39.9062850  26.2811310  10.3775730  43.6796590
  25.8041870  11.1847920  43.4869200  25.5973100   9.7254060  43.8322800
  17.2844130   6.5425550  46.6681290  16.3872660   6.7665520  46.9154690
  17.3097000   6.6660490  45.7192690  24.3249350   3.3918670  32.5822550
  24.7642630   2.5541100  32.4360370  25.0377770   4.0248070  32.6686690
  16.1115350   3.4138870  45.2438660  15.9723120   4.2861670  45.6126060
  15.2296710   3.0711680  45.0986600  22.4344730   8.3314740  36.5503790
  22.8740640   9.0739070  36.1359180  22.3731620   8.5741310  37.4742750
  17.9095700   9.3560570  47.4523810  17.8811130   9.7603520  46.5852240
  17.7460670   8.4270930  47.2895410  29.8610520  10.1387670  48.7487980
  30.3370240  10.6170560  49.4277060  30.4817680  10.0705160  48.0233480
  12.0634000   5.1836420  41.1609570  12.1414420   5.3185190  40.2165290
  12.6775680   4.4752310  41.3537690  13.3081630   6.8836610  37.5715750
  12.9009710   7.0251200  36.7169350  14.1994640   6.5996770  37.3686960
  29.2643770   7.3300520  45.9087990  29.3906830   7.0912400  44.9905170
  29.3065150   6.4985060  46.3810070  23.1260510  11.0328520  44.4782800
  23.6405180  10.9436530  45.2805230  22.2829590  11.3788220  44.7710710
  25.1014910  11.3183860  33.9066800  24.9416050  11.0286800  34.8048630
  24.9361620  10.5423990  33.3712030  17.5803290  11.0982390  35.6838420
  17.4045770  10.1817930  35.4706220  16.7259030  11.4569680  35.9236220
  24.8041040   8.8271420  32.4664800  24.1106200   8.8248710  31.8067080
  25.5463900   8.4030740  32.0358970  24.3690970  10.4534130  36.5413290
  24.8247920   9.6723510  36.8551910  24.7083490  11.1640950  37.0854470
  12.1193520   6.2250590  43.7004030  12.2824560   5.7555950  42.8823400
  12.5845970   5.7174150  44.3652870  13.6932500   5.6002020  45.8599840
  13.3087290   4.9595690  46.4582800  14.0044690   6.3038140  46.4294570
  19.8429640   2.4478560  41.3408460  20.2099770   1.9737130  42.0869800
  19.6534700   3.3220130  41.6816800  16.1610800   5.6948190  34.2559520
  15.3873060   5.1545810  34.0958240  16.8905430   5.1754800  33.9177280
  26.9198780   4.6913550  40.0485910  27.6397900   5.1868840  39.6582020
  26.7180600   4.0131440  39.4039780  22.3017580   4.7622610  45.9354910
  22.2354890   3.8418280  45.6812500  21.6722720   4.8598050  46.6499550
  16.2048200   5.3628570  37.8938330  16.7226870   4.5596830  37.8395220
  15.7532220   5.3007710  38.7355160  21.0917700   6.6294850  33.1665630
  21.4333400   7.3737080  32.6708950  20.2630410   6.9425970  33.5290460
  16.8905860   2.7874180  47.6903580  16.5906000   2.9331360  46.7931400
  17.6617100   2.2279470  47.5976970  22.2334310   7.5843180  45.6858710
  22.2478850   6.6524140  45.4677620  21.5259410   7.6702940  46.3248480
  27.3671380   1.7683000  31.9557320  27.2835100   2.1997220  31.1053760
  28.0865570   2.2281350  32.3884140  28.4445520   4.2250520  45.0327290
  27.7193710   4.8179300  44.8356680  28.9720980   4.2174060  44.2340660
  28.3958630   8.6225260  34.6839450  27.7534790   7.9680880  34.9583170
  28.0089290   9.0280350  33.9080120  23.9745110   5.9510690  38.5311140
  24.3268930   5.3538820  37.8712510  23.0907440   5.6254920  38.7019390
  20.0608390   6.7108380  35.9381550  20.7479520   7.2577590  36.3189140
  19.2740810   7.2549110  35.9731160  12.2000790   2.3281200  31.4298630
  13.0695640   2.6106000  31.7134550  11.7091110   3.1417070  31.3147440
  19.3635600   3.7154410  35.5506910  19.8198380   4.5259660  35.7767100
  19.0123810   3.3977550  36.3825400  21.6668210   9.2260750  42.7799210
  22.3110430   9.4320130  43.4572630  22.0297650   8.4649150  42.3270060
  22.9400290   7.2293100  41.4976660  23.5822520   6.5286260  41.6108830
  23.4649640   8.0091540  41.3173550  26.7856010   7.5141720  31.2215800
  26.5593590   6.7972160  31.8140440  26.3952210   7.2654160  30.3837550
  24.7137910   8.0288000  44.7012720  25.0494150   8.6154690  45.3790640
  23.7938250   7.8980710  44.9310510  12.5672040  11.5408580  31.9960260
  12.9269680  12.1397920  31.3417530  12.4264380  12.0868470  32.7695290
  26.3672260   5.4313660  32.8829960  26.0793960   5.8926350  33.6707840
  27.1624430   4.9711430  33.1514180  12.5513900   9.8063440  46.4702660
  12.6605020   8.8658180  46.3298050  11.8994460  10.0718190  45.8216390
  20.5426490   8.0779330  47.8700780  20.2223360   7.3588570  48.4146470
  19.8684850   8.7534400  47.9436840  18.5840660   8.9239780  32.8133930
  18.5750760   9.6569470  32.1978440  17.6639020   8.6771360  32.9060890
  14.1847300   4.1454670  33.5580690  13.5775250   4.8853570  33.5675990
  14.6596650   4.2354030  32.7318890  21.5700260   8.9868020  31.4759120
  21.6712240   8.7832010  30.5461100  20.6702000   8.7326300  31.6806900
  20.2118370  11.5054340  36.1706790  20.4659870  11.4675730  35.2486160
  19.2630850  11.3787670  36.1635040  16.1952590   4.1065820  31.3069260
  16.9615860   3.9947180  31.8694690  16.2727280   3.4103790  30.6546030
  28.2196530   9.5955070  39.4219560  28.3443950  10.4186240  39.8943370
  29.0862090   9.3845800  39.0743710  15.6914060  11.6886280  39.0936690
  16.4276540  11.1401740  39.3645260  16.0754980  12.5542290  38.9542680
  12.5759540   7.7559850  34.9678200  11.6499320   7.9980990  34.9583610
  13.0415970   8.5834110  34.8462950  14.6972340  10.8732350  48.2822270
  15.4985070  11.1944400  48.6957670  14.1824160  10.5127930  49.0042180
  18.8016370  10.8616590  30.9162260  19.5944980  11.1505420  30.4644050
  18.2820720  10.4308760  30.2374740  23.5336970   6.9812220  48.2297680
  22.9275130   7.0043820  47.4893430  23.2291080   6.2495260  48.7664930
  24.9637340  10.7092510  46.8407090  25.9159090  10.6250530  46.7907330
  24.8165560  11.3734220  47.5140880  27.8546540  10.0886720  32.3399000
  27.5688050   9.6751860  31.5253180  27.6566090  11.0174430  32.2199520
  12.4170150   3.3605810  47.2258320  12.9209170   2.7813090  47.7974550
  11.6777570   3.6446040  47.7634690  19.3193770   6.0820000  30.7804610
  19.2144410   5.4672350  31.5065990  19.1517990   5.5585890  29.9967620
  19.4708090   4.7676800  46.7593840  18.7053760   5.3361800  46.6748510
  19.6524050   4.4753010  45.8662070  22.5596500   5.1440030  31.3846600
  22.0106600   5.5909330  32.0289340  23.1815760   4.6389280  31.9084270
  26.6131440   6.4982130  47.3168860  27.3540910   6.8357890  46.8136320
  25.8504120   6.6674190  46.7638630  18.2271620   4.1030950  33.2811900
  18.6488040   3.9370820  34.1243290  18.3522460   3.2931180  32.7867040
  20.7399260   3.1268560  30.5289000  21.2604920   2.4117580  30.1630150
  21.3867660   3.7654430  30.8289510  25.2877100   4.5496960  45.8524070
  25.7018120   4.7042040  46.7014490  24.3528100   4.6752180  46.0149850
  20.0492330   4.5017440  43.8220000  20.4680440   5.3450170  43.6496240
  19.1300960   4.6389480  43.5926780  24.7244130   2.7870810  43.7820350
  24.1979350   3.3113430  43.1785490  25.0675470   3.4198200  44.4130080
  17.8999750  10.8070450  44.9377730  17.3620840  11.5316510  44.6186430
  18.1533710  10.3300790  44.1475070  20.7561960  12.0421660  45.1964380
  20.6820660  12.9456800  45.5036750  19.8540800  11.7233560  45.1686450
  21.3047290  11.2080170  32.8190740  22.1998080  11.5465140  32.8409500
  21.3364920  10.4859580  32.1915020  14.9443450   6.5807220  31.0477740
  15.3818320   7.1236890  31.7035320  15.4291180   5.7554170  31.0574080
  12.1589250   9.3696250  38.4998000  12.4892260   8.5017310  38.2676640
  12.5880250   9.5754770  39.3302960  16.7551170   7.7005260  36.1599970
  16.4546710   7.5770230  37.0603880  16.6488660   6.8413850  35.7515700
  12.6479460  10.2366840  41.2379630  12.2110450  10.4167640  42.0703780
  13.2157140  10.9941460  41.0961350  28.2841640   9.7383840  45.5256940
  27.6843630   9.7976400  44.7820860  28.4135540   8.7988820  45.6553790
  29.5243090   7.4801660  30.8626650  28.6936050   7.5478310  31.3333880
  29.7014920   8.3705780  30.5593510  28.9799550   4.2249140  33.3660850
  29.7418460   4.7945790  33.4720540  28.9953920   3.6576340  34.1369160
  12.4803890   2.7487070  37.5968510  11.8252730   2.4798710  36.9528210
  13.3181840   2.6391550  37.1470490  29.9859520   5.0799240  38.2102780
  30.3568350   4.2966560  37.8038750  30.6261450   5.7688340  38.0320080
  26.9693280   6.4635820  43.6233100  26.1553120   6.8932980  43.8858890
  27.3767480   7.0754230  43.0102150  29.0318720   4.5183510  30.5233370
  29.3067560   5.4262390  30.3952590  28.8429460   4.4546040  31.4595360
  28.9284060   2.4552500  35.5162800  28.5527660   1.6880430  35.0844090
  28.1987180   2.8375200  36.0037730  13.5179820   3.1339640  42.1371850
  13.8852860   3.0467040  43.0167870  12.9490640   2.3706190  42.0378710
  27.0269330  11.2154420  37.1501370  27.6228400  10.8938990  36.4735790
  27.2847480  10.7426240  37.9414640  14.9331900   7.6472330  47.2992000
  14.8901530   7.2765240  48.1806460  15.0642910   8.5849900  47.4393820
  18.6337930   9.2031920  42.9001720  18.3929290   9.4706480  42.0132240
  19.5740570   9.3737650  42.9552580  29.8942090  11.2226300  43.7012360
  29.4000370  11.6195170  42.9839490  29.2855380  10.5975510  44.0949640
  14.7719930  10.5934580  44.4189780  14.1780250  10.4619280  45.1579820
  14.7643770   9.7572720  43.9531880  27.5781540  11.8649720  40.9799100
  27.1184510  12.6165530  40.6057120  26.9494000  11.1456190  40.9213900
  14.4032160   7.9592960  43.3697820  13.6766220   7.3398250  43.3023770
  14.4641310   8.3533570  42.4995900  18.0077260  10.1737960  40.1547230
  18.5242280   9.5625320  39.6295490  18.6574640  10.6766740  40.6458240
  20.7472760  11.0646450  40.9816210  21.0350570  10.8100750  40.1049220
  21.2595980  10.5123810  41.5721780  12.6862160  11.2767350  36.5794580
  12.5184200  10.6438030  37.2776470  11.8196670  11.4826750  36.2288770
  14.2924860   9.9700580  34.0244720  13.7672480  10.3508610  33.3206680
  14.2169440  10.5951350  34.7454430  20.8145120  11.9862550  48.3484410
  21.7412430  11.7506820  48.3920370  20.7995550  12.8134550  47.8670440
  29.0490180  11.5288120  35.3458660  29.2242370  10.8425860  34.7019580
  28.3511750  12.0535170  34.9535330  16.8917830  11.9182960  32.8993970
  17.6236650  11.6342240  32.3517860  17.1511500  11.6796240  33.7893350
  16.0532620   8.0347690  32.9040300  15.4241500   8.5032790  33.4526130
  16.1680450   7.1896910  33.3386490  27.3822680  11.2132410  48.1725450
  28.1748000  10.7181640  47.9651410  27.6755830  11.8922550  48.7801060
  21.6400380   3.8632370  20.9350770  20.8642480   3.3832810  21.2249340
  22.2913310   3.1838020  20.7606930  15.6566210   4.1752180  21.8126530
  14.8251090   3.9200890  22.2123040  16.2647190   4.2462950  22.5484450
  25.6607810   8.2692560  19.7149900  25.1989340   7.4979800  20.0437070
  26.4733360   8.2958630  20.2202350  15.6367470   8.2092270  22.0084550
  15.9395510   7.3190010  21.8294770  16.3811060   8.7662490  21.7806800
  21.8871120  10.5550570  19.3353890  21.2682560  11.0108070  18.7648330
  22.7422900  10.7102030  18.9343590  21.0809370   6.5389560  20.9420930
  21.0117650   5.5979500  20.7810060  21.8429230   6.6290970  21.5143500
  22.7534470   5.4389810  16.7285800  22.1351740   5.9039260  16.1648520
  23.2657720   6.1317290  17.1455310  17.6166230   4.9665680  23.4069400
  17.2835610   5.5934600  24.0490470  17.7932910   5.4927560  22.6271070
  16.8285330   6.9346480  25.2218580  17.4459330   7.6097560  24.9403030
  15.9678450   7.3434460  25.1306080  12.1217670   6.1246340  14.1025430
  11.7445650   6.6133440  13.3710330  12.3790740   6.7971620  14.7331960
  27.7462920   8.3985890  23.1373220  27.0626440   9.0685000  23.1289890
  28.2857210   8.5966540  22.3718080  25.2821660  10.2430020  21.8518400
  25.2948820   9.8392310  20.9840660  24.7296880  11.0177310  21.7479830
  26.5767080   6.9646240  16.9408570  26.4663410   6.0220570  17.0657990
  26.5735330   7.3261880  17.8271330  24.6807100   5.1459860  23.1801010
  25.0975890   4.9319970  22.3454470  25.4046920   5.4032650  23.7509630
  22.1187360   2.5911560  16.2971060  21.1916640   2.5248940  16.5259530
  22.2712180   3.5291690  16.1826300  28.6269200   3.5447080  23.2717250
  27.7987830   3.6140170  22.7967380  29.2219680   4.1301390  22.8033080
  26.1484650   4.1531860  16.8006310  25.5297070   3.8151410  16.1532610
  26.1309100   3.5091620  17.5085500  17.7244000   3.1176300  19.0790790
  17.3201000   2.4053550  18.5836690  17.8107120   2.7729540  19.9678830
  18.1925700   6.8043860  21.2430000  17.8953990   6.1989330  20.5637780
  19.1425520   6.8421170  21.1319360  26.2811310  10.3775730  24.9053100
  25.8041870  11.1847920  24.7125710  25.5973100   9.7254060  25.0579310
  17.2844130   6.5425550  27.8937800  16.3872660   6.7665520  28.1411200
  17.3097000   6.6660490  26.9449200  24.3249350   3.3918670  13.8079060
  24.7642630   2.5541100  13.6616880  25.0377770   4.0248070  13.8943200
  16.1115350   3.4138870  26.4695170  15.9723120   4.2861670  26.8382570
  15.2296710   3.0711680  26.3243110  22.4344730   8.3314740  17.7760300
  22.8740640   9.0739070  17.3615690  22.3731620   8.5741310  18.6999260
  17.9095700   9.3560570  28.6780320  17.8811130   9.7603520  27.8108750
  17.7460670   8.4270930  28.5151920  29.8610520  10.1387670  29.9744490
  30.3370240  10.6170560  30.6533570  30.4817680  10.0705160  29.2489990
  12.0634000   5.1836420  22.3866080  12.1414420   5.3185190  21.4421800
  12.6775680   4.4752310  22.5794200  13.3081630   6.8836610  18.7972260
  12.9009710   7.0251200  17.9425860  14.1994640   6.5996770  18.5943470
  29.2643770   7.3300520  27.1344500  29.3906830   7.0912400  26.2161680
  29.3065150   6.4985060  27.6066580  23.1260510  11.0328520  25.7039310
  23.6405180  10.9436530  26.5061740  22.2829590  11.3788220  25.9967220
  25.1014910  11.3183860  15.1323310  24.9416050  11.0286800  16.0305140
  24.9361620  10.5423990  14.5968540  17.5803290  11.0982390  16.9094930
  17.4045770  10.1817930  16.6962730  16.7259030  11.4569680  17.1492730
  24.8041040   8.8271420  13.6921310  24.1106200   8.8248710  13.0323590
  25.5463900   8.4030740  13.2615480  24.3690970  10.4534130  17.7669800
  24.8247920   9.6723510  18.0808420  24.7083490  11.1640950  18.3110980
  12.1193520   6.2250590  24.9260540  12.2824560   5.7555950  24.1079910
  12.5845970   5.7174150  25.5909380  13.6932500   5.6002020  27.0856350
  13.3087290   4.9595690  27.6839310  14.0044690   6.3038140  27.6551080
  19.8429640   2.4478560  22.5664970  20.2099770   1.9737130  23.3126310
  19.6534700   3.3220130  22.9073310  16.1610800   5.6948190  15.4816030
  15.3873060   5.1545810  15.3214750  16.8905430   5.1754800  15.1433790
  26.9198780   4.6913550  21.2742420  27.6397900   5.1868840  20.8838530
  26.7180600   4.0131440  20.6296290  22.3017580   4.7622610  27.1611420
  22.2354890   3.8418280  26.9069010  21.6722720   4.8598050  27.8756060
  16.2048200   5.3628570  19.1194840  16.7226870   4.5596830  19.0651730
  15.7532220   5.3007710  19.9611670  21.0917700   6.6294850  14.3922140
  21.4333400   7.3737080  13.8965460  20.2630410   6.9425970  14.7546970
  16.8905860   2.7874180  28.9160090  16.5906000   2.9331360  28.0187910
  17.6617100   2.2279470  28.8233480  22.2334310   7.5843180  26.9115220
  22.2478850   6.6524140  26.6934130  21.5259410   7.6702940  27.5504990
  27.3671380   1.7683000  13.1813830  27.2835100   2.1997220  12.3310270
  28.0865570   2.2281350  13.6140650  28.4445520   4.2250520  26.2583800
  27.7193710   4.8179300  26.0613190  28.9720980   4.2174060  25.4597170
  28.3958630   8.6225260  15.9095960  27.7534790   7.9680880  16.1839680
  28.0089290   9.0280350  15.1336630  23.9745110   5.9510690  19.7567650
  24.3268930   5.3538820  19.0969020  23.0907440   5.6254920  19.9275900
  20.0608390   6.7108380  17.1638060  20.7479520   7.2577590  17.5445650
  19.2740810   7.2549110  17.1987670  12.2000790   2.3281200  12.6555140
  13.0695640   2.6106000  12.9391060  11.7091110   3.1417070  12.5403950
  19.3635600   3.7154410  16.7763420  19.8198380   4.5259660  17.0023610
  19.0123810   3.3977550  17.6081910  21.6668210   9.2260750  24.0055720
  22.3110430   9.4320130  24.6829140  22.0297650   8.4649150  23.5526570
  22.9400290   7.2293100  22.7233170  23.5822520   6.5286260  22.8365340
  23.4649640   8.0091540  22.5430060  26.7856010   7.5141720  12.4472310
  26.5593590   6.7972160  13.0396950  26.3952210   7.2654160  11.6094060
  24.7137910   8.0288000  25.9269230  25.0494150   8.6154690  26.6047150
  23.7938250   7.8980710  26.1567020  12.5672040  11.5408580  13.2216770
  12.9269680  12.1397920  12.5674040  12.4264380  12.0868470  13.9951800
  26.3672260   5.4313660  14.1086470  26.0793960   5.8926350  14.8964350
  27.1624430   4.9711430  14.3770690  12.5513900   9.8063440  27.6959170
  12.6605020   8.8658180  27.5554560  11.8994460  10.0718190  27.0472900
  20.5426490   8.0779330  29.0957290  20.2223360   7.3588570  29.6402980
  19.8684850   8.7534400  29.1693350  18.5840660   8.9239780  14.0390440
  18.5750760   9.6569470  13.4234950  17.6639020   8.6771360  14.1317400
  14.1847300   4.1454670  14.7837200  13.5775250   4.8853570  14.7932500
  14.6596650   4.2354030  13.9575400  21.5700260   8.9868020  12.7015630
  21.6712240   8.7832010  11.7717610  20.6702000   8.7326300  12.9063410
  20.2118370  11.5054340  17.3963300  20.4659870  11.4675730  16.4742670
  19.2630850  11.3787670  17.3891550  16.1952590   4.1065820  12.5325770
  16.9615860   3.9947180  13.0951200  16.2727280   3.4103790  11.8802540
  28.2196530   9.5955070  20.6476070  28.3443950  10.4186240  21.1199880
  29.0862090   9.3845800  20.3000220  15.6914060  11.6886280  20.3193200
  16.4276540  11.1401740  20.5901770  16.0754980  12.5542290  20.1799190
  12.5759540   7.7559850  16.1934710  11.6499320   7.9980990  16.1840120
  13.0415970   8.5834110  16.0719460  14.6972340  10.8732350  29.5078780
  15.4985070  11.1944400  29.9214180  14.1824160  10.5127930  30.2298690
  18.8016370  10.8616590  12.1418770  19.5944980  11.1505420  11.6900560
  18.2820720  10.4308760  11.4631250  23.5336970   6.9812220  29.4554190
  22.9275130   7.0043820  28.7149940  23.2291080   6.2495260  29.9921440
  24.9637340  10.7092510  28.0663600  25.9159090  10.6250530  28.0163840
  24.8165560  11.3734220  28.7397390  27.8546540  10.0886720  13.5655510
  27.5688050   9.6751860  12.7509690  27.6566090  11.0174430  13.4456030
  12.4170150   3.3605810  28.4514830  12.9209170   2.7813090  29.0231060
  11.6777570   3.6446040  28.9891200  19.3193770   6.0820000  12.0061120
  19.2144410   5.4672350  12.7322500  19.1517990   5.5585890  11.2224130
  19.4708090   4.7676800  27.9850350  18.7053760   5.3361800  27.9005020
  19.6524050   4.4753010  27.0918580  22.5596500   5.1440030  12.6103110
  22.0106600   5.5909330  13.2545850  23.1815760   4.6389280  13.1340780
  26.6131440   6.4982130  28.5425370  27.3540910   6.8357890  28.0392830
  25.8504120   6.6674190  27.9895140  18.2271620   4.1030950  14.5068410
  18.6488040   3.9370820  15.3499800  18.3522460   3.2931180  14.0123550
  20.7399260   3.1268560  11.7545510  21.2604920   2.4117580  11.3886660
  21.3867660   3.7654430  12.0546020  25.2877100   4.5496960  27.0780580
  25.7018120   4.7042040  27.9271000  24.3528100   4.6752180  27.2406360
  20.0492330   4.5017440  25.0476510  20.4680440   5.3450170  24.8752750
  19.1300960   4.6389480  24.8183290  24.7244130   2.7870810  25.0076860
  24.1979350   3.3113430  24.4042000  25.0675470   3.4198200  25.6386590
  17.8999750  10.8070450  26.1634240  17.3620840  11.5316510  25.8442940
  18.1533710  10.3300790  25.3731580  20.7561960  12.0421660  26.4220890
  20.6820660  12.9456800  26.7293260  19.8540800  11.7233560  26.3942960
  21.3047290  11.2080170  14.0447250  22.1998080  11.5465140  14.0666010
  21.3364920  10.4859580  13.4171530  14.9443450   6.5807220  12.2734250
  15.3818320   7.1236890  12.9291830  15.4291180   5.7554170  12.2830590
  12.1589250   9.3696250  19.7254510  12.4892260   8.5017310  19.4933150
  12.5880250   9.5754770  20.5559470  16.7551170   7.7005260  17.3856480
  16.4546710   7.5770230  18.2860390  16.6488660   6.8413850  16.9772210
  12.6479460  10.2366840  22.4636140  12.2110450  10.4167640  23.2960290
  13.2157140  10.9941460  22.3217860  28.2841640   9.7383840  26.7513450
  27.6843630   9.7976400  26.0077370  28.4135540   8.7988820  26.8810300
  29.5243090   7.4801660  12.0883160  28.6936050   7.5478310  12.5590390
  29.7014920   8.3705780  11.7850020  28.9799550   4.2249140  14.5917360
  29.7418460   4.7945790  14.6977050  28.9953920   3.6576340  15.3625670
  12.4803890   2.7487070  18.8225020  11.8252730   2.4798710  18.1784720
  13.3181840   2.6391550  18.3727000  29.9859520   5.0799240  19.4359290
  30.3568350   4.2966560  19.0295260  30.6261450   5.7688340  19.2576590
  26.9693280   6.4635820  24.8489610  26.1553120   6.8932980  25.1115400
  27.3767480   7.0754230  24.2358660  29.0318720   4.5183510  11.7489880
  29.3067560   5.4262390  11.6209100  28.8429460   4.4546040  12.6851870
  28.9284060   2.4552500  16.7419310  28.5527660   1.6880430  16.3100600
  28.1987180   2.8375200  17.2294240  13.5179820   3.1339640  23.3628360
  13.8852860   3.0467040  24.2424380  12.9490640   2.3706190  23.2635220
  27.0269330  11.2154420  18.3757880  27.6228400  10.8938990  17.6992300
  27.2847480  10.7426240  19.1671150  14.9331900   7.6472330  28.5248510
  14.8901530   7.2765240  29.4062970  15.0642910   8.5849900  28.6650330
  18.6337930   9.2031920  24.1258230  18.3929290   9.4706480  23.2388750
  19.5740570   9.3737650  24.1809090  29.8942090  11.2226300  24.9268870
  29.4000370  11.6195170  24.2096000  29.2855380  10.5975510  25.3206150
  14.7719930  10.5934580  25.6446290  14.1780250  10.4619280  26.3836330
  14.7643770   9.7572720  25.1788390  27.5781540  11.8649720  22.2055610
  27.1184510  12.6165530  21.8313630  26.9494000  11.1456190  22.1470410
  14.4032160   7.9592960  24.5954330  13.6766220   7.3398250  24.5280280
  14.4641310   8.3533570  23.7252410  18.0077260  10.1737960  21.3803740
  18.5242280   9.5625320  20.8552000  18.6574640  10.6766740  21.8714750
  20.7472760  11.0646450  22.2072720  21.0350570  10.8100750  21.3305730
  21.2595980  10.5123810  22.7978290  12.6862160  11.2767350  17.8051090
  12.5184200  10.6438030  18.5032980  11.8196670  11.4826750  17.4545280
  14.2924860   9.9700580  15.2501230  13.7672480  10.3508610  14.5463190
  14.2169440  10.5951350  15.9710940  20.8145120  11.9862550  29.5740920
  21.7412430  11.7506820  29.6176880  20.7995550  12.8134550  29.0926950
  29.0490180  11.5288120  16.5715170  29.2242370  10.8425860  15.9276090
  28.3511750  12.0535170  16.1791840  16.8917830  11.9182960  14.1250480
  17.6236650  11.6342240  13.5774370  17.1511500  11.6796240  15.0149860
  16.0532620   8.0347690  14.1296810  15.4241500   8.5032790  14.6782640
  16.1680450   7.1896910  14.5643000  27.3822680  11.2132410  29.3981960
  28.1748000  10.7181640  29.1907920  27.6755830  11.8922550  30.0057570
  21.6400380   3.8632370   2.1607280  20.8642480   3.3832810   2.4505850
  22.2913310   3.1838020   1.9863440  15.6566210   4.1752180   3.0383040
  14.8251090   3.9200890   3.4379550  16.2647190   4.2462950   3.7740960
  15.6367470   8.2092270   3.2341060  15.9395510   7.3190010   3.0551280
  16.3811060   8.7662490   3.0063310  21.0809370   6.5389560   2.1677440
  21.0117650   5.5979500   2.0066570  21.8429230   6.6290970   2.7400010
  17.6166230   4.9665680   4.6325910  17.2835610   5.5934600   5.2746980
  17.7932910   5.4927560   3.8527580  16.8285330   6.9346480   6.4475090
  17.4459330   7.6097560   6.1659540  15.9678450   7.3434460   6.3562590
  27.7462920   8.3985890   4.3629730  27.0626440   9.0685000   4.3546400
  28.2857210   8.5966540   3.5974590  25.2821660  10.2430020   3.0774910
  25.2948820   9.8392310   2.2097170  24.7296880  11.0177310   2.9736340
  24.6807100   5.1459860   4.4057520  25.0975890   4.9319970   3.5710980
  25.4046920   5.4032650   4.9766140  28.6269200   3.5447080   4.4973760
  27.7987830   3.6140170   4.0223890  29.2219680   4.1301390   4.0289590
  18.1925700   6.8043860   2.4686510  17.8953990   6.1989330   1.7894290
  19.1425520   6.8421170   2.3575870  26.2811310  10.3775730   6.1309610
  25.8041870  11.1847920   5.9382220  25.5973100   9.7254060   6.2835820
  17.2844130   6.5425550   9.1194310  16.3872660   6.7665520   9.3667710
  17.3097000   6.6660490   8.1705710  16.1115350   3.4138870   7.6951680
  15.9723120   4.2861670   8.0639080  15.2296710   3.0711680   7.5499620
  17.9095700   9.3560570   9.9036830  17.8811130   9.7603520   9.0365260
  17.7460670   8.4270930   9.7408430  29.8610520  10.1387670  11.2001000
  30.3370240  10.6170560  11.8790080  30.4817680  10.0705160  10.4746500
  12.0634000   5.1836420   3.6122590  12.1414420   5.3185190   2.6678310
  12.6775680   4.4752310   3.8050710  29.2643770   7.3300520   8.3601010
  29.3906830   7.0912400   7.4418190  29.3065150   6.4985060   8.8323090
  23.1260510  11.0328520   6.9295820  23.6405180  10.9436530   7.7318250
  22.2829590  11.3788220   7.2223730  12.1193520   6.2250590   6.1517050
  12.2824560   5.7555950   5.3336420  12.5845970   5.7174150   6.8165890
  13.6932500   5.6002020   8.3112860  13.3087290   4.9595690   8.9095820
  14.0044690   6.3038140   8.8807590  19.8429640   2.4478560   3.7921480
  20.2099770   1.9737130   4.5382820  19.6534700   3.3220130   4.1329820
  26.9198780   4.6913550   2.4998930  27.6397900   5.1868840   2.1095040
  26.7180600   4.0131440   1.8552800  22.3017580   4.7622610   8.3867930
  22.2354890   3.8418280   8.1325520  21.6722720   4.8598050   9.1012570
  16.8905860   2.7874180  10.1416600  16.5906000   2.9331360   9.2444420
  17.6617100   2.2279470  10.0489990  22.2334310   7.5843180   8.1371730
  22.2478850   6.6524140   7.9190640  21.5259410   7.6702940   8.7761500
  28.4445520   4.2250520   7.4840310  27.7193710   4.8179300   7.2869700
  28.9720980   4.2174060   6.6853680  21.6668210   9.2260750   5.2312230
  22.3110430   9.4320130   5.9085650  22.0297650   8.4649150   4.7783080
  22.9400290   7.2293100   3.9489680  23.5822520   6.5286260   4.0621850
  23.4649640   8.0091540   3.7686570  24.7137910   8.0288000   7.1525740
  25.0494150   8.6154690   7.8303660  23.7938250   7.8980710   7.3823530
  12.5513900   9.8063440   8.9215680  12.6605020   8.8658180   8.7811070
  11.8994460  10.0718190   8.2729410  20.5426490   8.0779330  10.3213800
  20.2223360   7.3588570  10.8659490  19.8684850   8.7534400  10.3949860
  14.6972340  10.8732350  10.7335290  15.4985070  11.1944400  11.1470690
  14.1824160  10.5127930  11.4555200  23.5336970   6.9812220  10.6810700
  22.9275130   7.0043820   9.9406450  23.2291080   6.2495260  11.2177950
  24.9637340  10.7092510   9.2920110  25.9159090  10.6250530   9.2420350
  24.8165560  11.3734220   9.9653900  12.4170150   3.3605810   9.6771340
  12.9209170   2.7813090  10.2487570  11.6777570   3.6446040  10.2147710
  19.4708090   4.7676800   9.2106860  18.7053760   5.3361800   9.1261530
  19.6524050   4.4753010   8.3175090  26.6131440   6.4982130   9.7681880
  27.3540910   6.8357890   9.2649340  25.8504120   6.6674190   9.2151650
  25.2877100   4.5496960   8.3037090  25.7018120   4.7042040   9.1527510
  24.3528100   4.6752180   8.4662870  20.0492330   4.5017440   6.2733020
  20.4680440   5.3450170   6.1009260  19.1300960   4.6389480   6.0439800
  24.7244130   2.7870810   6.2333370  24.1979350   3.3113430   5.6298510
  25.0675470   3.4198200   6.8643100  17.8999750  10.8070450   7.3890750
  17.3620840  11.5316510   7.0699450  18.1533710  10.3300790   6.5988090
  20.7561960  12.0421660   7.6477400  20.6820660  12.9456800   7.9549770
  19.8540800  11.7233560   7.6199470  12.6479460  10.2366840   3.6892650
  12.2110450  10.4167640   4.5216800  13.2157140  10.9941460   3.5474370
  28.2841640   9.7383840   7.9769960  27.6843630   9.7976400   7.2333880
  28.4135540   8.7988820   8.1066810  26.9693280   6.4635820   6.0746120
  26.1553120   6.8932980   6.3371910  27.3767480   7.0754230   5.4615170
  13.5179820   3.1339640   4.5884870  13.8852860   3.0467040   5.4680890
  12.9490640   2.3706190   4.4891730  14.9331900   7.6472330   9.7505020
  14.8901530   7.2765240  10.6319480  15.0642910   8.5849900   9.8906840
  18.6337930   9.2031920   5.3514740  18.3929290   9.4706480   4.4645260
  19.5740570   9.3737650   5.4065600  29.8942090  11.2226300   6.1525380
  29.4000370  11.6195170   5.4352510  29.2855380  10.5975510   6.5462660
  14.7719930  10.5934580   6.8702800  14.1780250  10.4619280   7.6092840
  14.7643770   9.7572720   6.4044900  27.5781540  11.8649720   3.4312120
  27.1184510  12.6165530   3.0570140  26.9494000  11.1456190   3.3726920
  14.4032160   7.9592960   5.8210840  13.6766220   7.3398250   5.7536790
  14.4641310   8.3533570   4.9508920  18.0077260  10.1737960   2.6060250
  18.5242280   9.5625320   2.0808510  18.6574640  10.6766740   3.0971260
  20.7472760  11.0646450   3.4329230  21.0350570  10.8100750   2.5562240
  21.2595980  10.5123810   4.0234800  20.8145120  11.9862550  10.7997430
  21.7412430  11.7506820  10.8433390  20.7995550  12.8134550  10.3183460
  27.3822680  11.2132410  10.6238470  28.1748000  10.7181640  10.4164430
  27.6755830  11.8922550  11.2314080   4.7338850 152.2801270 150.4745930
   4.6532900 151.3655880 150.2037640   4.3203270 152.7768340 149.7685640
   7.1195170 147.0358300 149.5222630   7.9404790 146.5454870 149.5648110
   7.1529250 147.6255960 150.2754470   3.3443870 152.7859480 147.7175490
   2.4173150 152.7196860 147.9463960   3.4968690 153.7239610 147.6030730
   3.3312950 149.0576480 144.7142650   2.3916620 149.2190440 144.7995110
   3.6496210 149.7762160 144.1678640   5.5505860 153.5866590 145.2283490
   5.9899140 152.7489020 145.0821310   6.2634280 154.2195990 145.3147630
   9.1323000 144.8409400 143.5424530   8.8195660 144.9336230 144.4423600
   9.8935470 145.4190430 143.4921960   5.1380780 150.6801210 147.7097440
   4.5389670 151.4037010 147.5261060   5.6860390 150.6177990 146.9273890
   3.7445650 149.3164750 149.7400720   4.1375220 149.6336950 148.9269410
   4.1062500 148.4376630 149.8545240   3.6065230 146.2799430 146.8376240
   2.7929840 145.7812600 146.7621550   3.4127180 147.1197680 146.4212590
   6.3213620 150.6519080 145.1338400   7.2093240 150.9636310 144.9589740
   6.2918710 149.7791330 144.7418980   8.5927890 151.9630920 144.6018260
   8.5091610 152.3945140 143.7514700   9.3122080 152.4229270 145.0345080
   8.3498630 147.4610350 146.6886080   7.7211790 147.5656020 145.9744310
   7.8550550 147.6807130 147.4779960   4.3498090 146.4646960 149.5439750
   4.2265870 146.4833090 148.5949260   5.2982650 146.5125900 149.6638150
   7.4427460 152.6194140 150.3926240   6.5017600 152.6344370 150.5673930
   7.7571530 151.8330100 150.8386540   1.9655770 153.3216480 143.1749940
   2.4861430 152.6065500 142.8091090   2.6124170 153.9602350 143.4750450
   5.8275340 145.1820330 145.4017880   6.1077630 144.3388230 145.7577300
   5.0541070 145.4143440 145.9156630   6.6550840 147.7376280 144.4647940
   7.0735720 147.5507260 143.6244600   6.3486900 146.8855330 144.7750870
  10.1540570 152.6500420 148.1623740   9.7784170 151.8828350 147.7305030
   9.4243690 153.0323120 148.6498670   9.4291530 150.8757910 151.4630980
   9.9529010 150.3820560 150.8321150  10.0150950 151.0108270 152.2078550
   8.9191500 150.1331260 147.4023390   9.4150620 149.9002130 148.1872270
   8.7207570 149.2943100 146.9861030  10.3478660 148.7692210 149.9361070
  10.2377940 148.6148250 150.8743340  11.1086250 148.2413150 149.6936480
  11.2368930 146.6000130 143.1767210  12.1618240 146.4681310 142.9685500
  11.2144720 146.6792950 144.1303660  11.3107420 147.3710790 145.8023920
  10.5158920 147.3055910 146.3316830  11.5150700 148.3061430 145.7909270
   7.7427350 145.7007670 152.2522750   8.1835440 145.6452770 151.4044350
   7.4734940 146.6165680 152.3232930   9.6065920 145.3322910 150.2631570
   9.5454320 144.3884130 150.1162590  10.3857950 145.4403000 150.8085030
   5.5785480 144.0813770 150.9572760   6.1814850 144.6533980 151.4321280
   4.8378470 144.6453210 150.7346660   8.7220080 144.4835330 146.2313040
   8.9170710 145.3818780 146.4980470   7.9349950 144.2522410 146.7245990
   4.7338850 152.2801270 131.7002440   4.6532900 151.3655880 131.4294150
   4.3203270 152.7768340 130.9942150   2.8656890 154.0580290 133.5811710
   2.0898990 153.5780730 133.8710280   3.5169820 153.3785940 133.4067870
   3.3371050 149.5407860 133.8150800   3.7135870 148.6679740 133.7024470
   3.2390560 149.8766560 132.9241240   7.1195170 147.0358300 130.7479140
   7.9404790 146.5454870 130.7904620   7.1529250 147.6255960 131.5010980
  11.4094720 149.0525050 137.3122770  10.7046890 149.4406760 136.7937880
  11.6752640 149.7475340 137.9143700   7.3556650 148.9758680 133.5206680
   6.6512220 149.2643570 134.1009790   7.7168810 149.7858790 133.1606240
  10.4243570 148.4213470 133.9115890   9.4768480 148.4552450 134.0431320
  10.7493560 149.2352420 134.2965250   3.3443870 152.7859480 128.9432000
   2.4173150 152.7196860 129.1720470   3.4968690 153.7239610 128.8287240
   3.3312950 149.0576480 125.9399160   2.3916620 149.2190440 126.0251620
   3.6496210 149.7762160 125.3935150   6.8167720 150.5264320 136.8633060
   6.4038900 151.3518030 137.1173050   6.0843670 149.9409360 136.6709420
   5.5505860 153.5866590 126.4540000   5.9899140 152.7489020 126.3077820
   6.2634280 154.2195990 126.5404140   9.1323000 144.8409400 124.7681040
   8.8195660 144.9336230 125.6680110   9.8935470 145.4190430 124.7178470
  10.3424290 149.5780900 140.7455180   9.7268560 150.0860570 140.2170640
  10.0220710 148.6779230 140.6881120   2.4038610 148.4172790 138.2117370
   1.9417980 148.6255810 139.0237310   2.0016720 147.6032140 137.9088040
   7.4043120 149.6381740 139.3414030   6.5536710 149.3387490 139.6623100
   7.2444910 149.8823750 138.4297850   4.4992830 151.1383490 141.4412820
   4.8246240 150.3047240 141.1015050   5.2873160 151.6612010 141.5891150
   5.1380780 150.6801210 128.9353950   4.5389670 151.4037010 128.7517570
   5.6860390 150.6177990 128.1530400   3.7445650 149.3164750 130.9657230
   4.1375220 149.6336950 130.1525920   4.1062500 148.4376630 131.0801750
   2.0537820 148.0672060 142.2254090   1.3636140 147.8744260 142.8600180
   2.7970120 148.3506700 142.7578390   4.3300790 151.9070500 135.0608010
   3.5981910 152.4157310 135.4098110   3.9325130 151.0900480 134.7596790
   4.7926700 147.3604180 134.4730950   4.8099440 147.8112830 135.3172800
   4.5442280 146.4609820 134.6864390   8.2197450 144.7736360 140.3117330
   8.5443220 144.0426020 140.8375310   8.2553960 144.4550000 139.4098320
   3.6065230 146.2799430 128.0632750   2.7929840 145.7812600 127.9878060
   3.4127180 147.1197680 127.6469100   6.3213620 150.6519080 126.3594910
   7.2093240 150.9636310 126.1846250   6.2918710 149.7791330 125.9675490
   8.5927890 151.9630920 125.8274770   8.5091610 152.3945140 124.9771210
   9.3122080 152.4229270 126.2601590   4.9836600 148.5053410 137.1055030
   5.3517420 147.6848620 137.4334600   4.1234800 148.5655300 137.5210680
   8.3498630 147.4610350 127.9142590   7.7211790 147.5656020 127.2000820
   7.8550550 147.6807130 128.7036470   1.9438590 151.1593000 137.3293000
   2.4423840 151.6338820 137.9944850   2.0861540 150.2356520 137.5363030
   4.3498090 146.4646960 130.7696260   4.2265870 146.4833090 129.8205770
   5.2982650 146.5125900 130.8894660   9.1505450 147.3760960 138.1721390
   8.6479050 148.1166360 138.5115200   9.9662110 147.7644960 137.8558180
   7.4427460 152.6194140 131.6182750   6.5017600 152.6344370 131.7930440
   7.7571530 151.8330100 132.0643050   1.9655770 153.3216480 124.4006450
   2.4861430 152.6065500 124.0347600   2.6124170 153.9602350 124.7006960
   6.9855780 152.0841040 141.7280670   7.5676550 151.3293360 141.6401150
   7.1617550 152.6148480 140.9512150   3.6112740 152.4281540 139.0775290
   3.7308950 151.8322680 139.8170130   4.4706740 152.4651230 138.6576590
   5.9500640 152.9818730 137.6537800   5.4235860 153.5061350 137.0502940
   6.2931980 153.6146120 138.2847530   5.1974940 148.5868700 140.5684130
   4.5090460 147.9250240 140.5034120   5.9180960 148.1406970 141.0132590
   5.8275340 145.1820330 126.6274390   6.1077630 144.3388230 126.9833810
   5.0541070 145.4143440 127.1413140   6.6550840 147.7376280 125.6904450
   7.0735720 147.5507260 124.8501110   6.3486900 146.8855330 126.0007380
  10.1540570 152.6500420 129.3880250   9.7784170 151.8828350 128.9561540
   9.4243690 153.0323120 129.8755180   9.5440190 151.7971940 139.0219770
   9.3126280 151.5684690 138.1217720   9.8044740 152.7171490 138.9764660
   7.9828260 147.0228370 141.7999470   8.8598440 147.0311770 142.1833470
   7.9949100 146.2859210 141.1891820   9.4291530 150.8757910 132.6887490
   9.9529010 150.3820560 132.0577660  10.0150950 151.0108270 133.4335060
   9.6081250 150.9597780 136.2107040   8.6583960 150.9261320 136.3252030
   9.7894260 151.8697890 135.9756810   8.9191500 150.1331260 128.6279900
   9.4150620 149.9002130 129.4128780   8.7207570 149.2943100 128.2117540
  10.3478660 148.7692210 131.1617580  10.2377940 148.6148250 132.0999850
  11.1086250 148.2413150 130.9192990   8.6944380 144.7086340 137.6200580
   9.3316600 145.3220480 137.9859770   8.8419270 144.7447000 136.6749810
  11.2368930 146.6000130 124.4023720  12.1618240 146.4681310 124.1942010
  11.2144720 146.6792950 125.3560170  11.3107420 147.3710790 127.0280430
  10.5158920 147.3055910 127.5573340  11.5150700 148.3061430 127.0165780
   2.0648860 145.8612530 140.5275680   2.0037750 146.4534360 141.2771090
   3.0049240 145.7538490 140.3825940   4.7023420 145.5182590 140.1667970
   5.3163830 145.8361880 139.5049050   5.2472980 145.0331180 140.7863830
   5.4431460 144.0814730 136.4937260   4.5691300 144.4149840 136.2910190
   5.3342210 143.6087910 137.3189130   6.3503440 146.2885600 137.8778980
   6.0216800 145.4737360 137.4980710   7.2985740 146.2455410 137.7544670
   3.1906280 144.9984570 135.4330170   2.4078070 145.4730070 135.7126930
   2.8969210 144.0939400 135.3243350   7.7427350 145.7007670 133.4779260
   8.1835440 145.6452770 132.6300860   7.4734940 146.6165680 133.5489440
   9.6065920 145.3322910 131.4888080   9.5454320 144.3884130 131.3419100
  10.3857950 145.4403000 132.0341540   5.5785480 144.0813770 132.1829270
   6.1814850 144.6533980 132.6577790   4.8378470 144.6453210 131.9603170
   8.7220080 144.4835330 127.4569550   8.9170710 145.3818780 127.7236980
   7.9349950 144.2522410 127.9502500   5.8280700 144.2608800 142.5624210
   5.7146150 144.5803410 143.4575730   6.6450440 144.6621310 142.2661490
   4.7338850 152.2801270 112.9258950   4.6532900 151.3655880 112.6550660
   4.3203270 152.7768340 112.2198660   2.8656890 154.0580290 114.8068220
   2.0898990 153.5780730 115.0966790   3.5169820 153.3785940 114.6324380
   3.3371050 149.5407860 115.0407310   3.7135870 148.6679740 114.9280980
   3.2390560 149.8766560 114.1497750   7.1195170 147.0358300 111.9735650
   7.9404790 146.5454870 112.0161130   7.1529250 147.6255960 112.7267490
  11.4094720 149.0525050 118.5379280  10.7046890 149.4406760 118.0194390
  11.6752640 149.7475340 119.1400210   7.3556650 148.9758680 114.7463190
   6.6512220 149.2643570 115.3266300   7.7168810 149.7858790 114.3862750
  10.4243570 148.4213470 115.1372400   9.4768480 148.4552450 115.2687830
  10.7493560 149.2352420 115.5221760   3.3443870 152.7859480 110.1688510
   2.4173150 152.7196860 110.3976980   3.4968690 153.7239610 110.0543750
   3.3312950 149.0576480 107.1655670   2.3916620 149.2190440 107.2508130
   3.6496210 149.7762160 106.6191660   6.8167720 150.5264320 118.0889570
   6.4038900 151.3518030 118.3429560   6.0843670 149.9409360 117.8965930
   5.5505860 153.5866590 107.6796510   5.9899140 152.7489020 107.5334330
   6.2634280 154.2195990 107.7660650   9.1323000 144.8409400 105.9937550
   8.8195660 144.9336230 106.8936620   9.8935470 145.4190430 105.9434980
  10.3424290 149.5780900 121.9711690   9.7268560 150.0860570 121.4427150
  10.0220710 148.6779230 121.9137630   2.4038610 148.4172790 119.4373880
   1.9417980 148.6255810 120.2493820   2.0016720 147.6032140 119.1344550
   7.4043120 149.6381740 120.5670540   6.5536710 149.3387490 120.8879610
   7.2444910 149.8823750 119.6554360   4.4992830 151.1383490 122.6669330
   4.8246240 150.3047240 122.3271560   5.2873160 151.6612010 122.8147660
   5.1380780 150.6801210 110.1610460   4.5389670 151.4037010 109.9774080
   5.6860390 150.6177990 109.3786910   3.7445650 149.3164750 112.1913740
   4.1375220 149.6336950 111.3782430   4.1062500 148.4376630 112.3058260
   2.0537820 148.0672060 123.4510600   1.3636140 147.8744260 124.0856690
   2.7970120 148.3506700 123.9834900   4.3300790 151.9070500 116.2864520
   3.5981910 152.4157310 116.6354620   3.9325130 151.0900480 115.9853300
   4.7926700 147.3604180 115.6987460   4.8099440 147.8112830 116.5429310
   4.5442280 146.4609820 115.9120900   8.2197450 144.7736360 121.5373840
   8.5443220 144.0426020 122.0631820   8.2553960 144.4550000 120.6354830
   3.6065230 146.2799430 109.2889260   2.7929840 145.7812600 109.2134570
   3.4127180 147.1197680 108.8725610   6.3213620 150.6519080 107.5851420
   7.2093240 150.9636310 107.4102760   6.2918710 149.7791330 107.1932000
   8.5927890 151.9630920 107.0531280   8.5091610 152.3945140 106.2027720
   9.3122080 152.4229270 107.4858100   4.9836600 148.5053410 118.3311540
   5.3517420 147.6848620 118.6591110   4.1234800 148.5655300 118.7467190
   8.3498630 147.4610350 109.1399100   7.7211790 147.5656020 108.4257330
   7.8550550 147.6807130 109.9292980   1.9438590 151.1593000 118.5549510
   2.4423840 151.6338820 119.2201360   2.0861540 150.2356520 118.7619540
   4.3498090 146.4646960 111.9952770   4.2265870 146.4833090 111.0462280
   5.2982650 146.5125900 112.1151170   9.1505450 147.3760960 119.3977900
   8.6479050 148.1166360 119.7371710   9.9662110 147.7644960 119.0814690
   7.4427460 152.6194140 112.8439260   6.5017600 152.6344370 113.0186950
   7.7571530 151.8330100 113.2899560   1.9655770 153.3216480 105.6262960
   2.4861430 152.6065500 105.2604110   2.6124170 153.9602350 105.9263470
   6.9855780 152.0841040 122.9537180   7.5676550 151.3293360 122.8657660
   7.1617550 152.6148480 122.1768660   3.6112740 152.4281540 120.3031800
   3.7308950 151.8322680 121.0426640   4.4706740 152.4651230 119.8833100
   5.9500640 152.9818730 118.8794310   5.4235860 153.5061350 118.2759450
   6.2931980 153.6146120 119.5104040   5.1974940 148.5868700 121.7940640
   4.5090460 147.9250240 121.7290630   5.9180960 148.1406970 122.2389100
   5.8275340 145.1820330 107.8530900   6.1077630 144.3388230 108.2090320
   5.0541070 145.4143440 108.3669650   6.6550840 147.7376280 106.9160960
   7.0735720 147.5507260 106.0757620   6.3486900 146.8855330 107.2263890
  10.1540570 152.6500420 110.6136760   9.7784170 151.8828350 110.1818050
   9.4243690 153.0323120 111.1011690   9.5440190 151.7971940 120.2476280
   9.3126280 151.5684690 119.3474230   9.8044740 152.7171490 120.2021170
   7.9828260 147.0228370 123.0255980   8.8598440 147.0311770 123.4089980
   7.9949100 146.2859210 122.4148330   9.4291530 150.8757910 113.9144000
   9.9529010 150.3820560 113.2834170  10.0150950 151.0108270 114.6591570
   9.6081250 150.9597780 117.4363550   8.6583960 150.9261320 117.5508540
   9.7894260 151.8697890 117.2013320   8.9191500 150.1331260 109.8536410
   9.4150620 149.9002130 110.6385290   8.7207570 149.2943100 109.4374050
  10.3478660 148.7692210 112.3874090  10.2377940 148.6148250 113.3256360
  11.1086250 148.2413150 112.1449500   8.6944380 144.7086340 118.8457090
   9.3316600 145.3220480 119.2116280   8.8419270 144.7447000 117.9006320
  11.2368930 146.6000130 105.6280230  12.1618240 146.4681310 105.4198520
  11.2144720 146.6792950 106.5816680  11.3107420 147.3710790 108.2536940
  10.5158920 147.3055910 108.7829850  11.5150700 148.3061430 108.2422290
   2.0648860 145.8612530 121.7532190   2.0037750 146.4534360 122.5027600
   3.0049240 145.7538490 121.6082450   4.7023420 145.5182590 121.3924480
   5.3163830 145.8361880 120.7305560   5.2472980 145.0331180 122.0120340
   5.4431460 144.0814730 117.7193770   4.5691300 144.4149840 117.5166700
   5.3342210 143.6087910 118.5445640   6.3503440 146.2885600 119.1035490
   6.0216800 145.4737360 118.7237220   7.2985740 146.2455410 118.9801180
   3.1906280 144.9984570 116.6586680   2.4078070 145.4730070 116.9383440
   2.8969210 144.0939400 116.5499860   7.7427350 145.7007670 114.7035770
   8.1835440 145.6452770 113.8557370   7.4734940 146.6165680 114.7745950
   9.6065920 145.3322910 112.7144590   9.5454320 144.3884130 112.5675610
  10.3857950 145.4403000 113.2598050   5.5785480 144.0813770 113.4085780
   6.1814850 144.6533980 113.8834300   4.8378470 144.6453210 113.1859680
   8.7220080 144.4835330 108.6826060   8.9170710 145.3818780 108.9493490
   7.9349950 144.2522410 109.1759010   5.8280700 144.2608800 123.7880720
   5.7146150 144.5803410 124.6832240   6.6450440 144.6621310 123.4918000
   4.7338850 152.2801270  94.1515460   4.6532900 151.3655880  93.8807170
   4.3203270 152.7768340  93.4455170   2.8656890 154.0580290  96.0324730
   2.0898990 153.5780730  96.3223300   3.5169820 153.3785940  95.8580890
   3.3371050 149.5407860  96.2663820   3.7135870 148.6679740  96.1537490
   3.2390560 149.8766560  95.3754260   7.1195170 147.0358300  93.1992160
   7.9404790 146.5454870  93.2417640   7.1529250 147.6255960  93.9524000
  11.4094720 149.0525050  99.7635790  10.7046890 149.4406760  99.2450900
  11.6752640 149.7475340 100.3656720   7.3556650 148.9758680  95.9719700
   6.6512220 149.2643570  96.5522810   7.7168810 149.7858790  95.6119260
  10.4243570 148.4213470  96.3628910   9.4768480 148.4552450  96.4944340
  10.7493560 149.2352420  96.7478270   3.3443870 152.7859480  91.3945020
   2.4173150 152.7196860  91.6233490   3.4968690 153.7239610  91.2800260
   3.3312950 149.0576480  88.3912180   2.3916620 149.2190440  88.4764640
   3.6496210 149.7762160  87.8448170   6.8167720 150.5264320  99.3146080
   6.4038900 151.3518030  99.5686070   6.0843670 149.9409360  99.1222440
   5.5505860 153.5866590  88.9053020   5.9899140 152.7489020  88.7590840
   6.2634280 154.2195990  88.9917160   9.1323000 144.8409400  87.2194060
   8.8195660 144.9336230  88.1193130   9.8935470 145.4190430  87.1691490
  10.3424290 149.5780900 103.1968200   9.7268560 150.0860570 102.6683660
  10.0220710 148.6779230 103.1394140   2.4038610 148.4172790 100.6630390
   1.9417980 148.6255810 101.4750330   2.0016720 147.6032140 100.3601060
   7.4043120 149.6381740 101.7927050   6.5536710 149.3387490 102.1136120
   7.2444910 149.8823750 100.8810870   4.4992830 151.1383490 103.8925840
   4.8246240 150.3047240 103.5528070   5.2873160 151.6612010 104.0404170
   5.1380780 150.6801210  91.3866970   4.5389670 151.4037010  91.2030590
   5.6860390 150.6177990  90.6043420   3.7445650 149.3164750  93.4170250
   4.1375220 149.6336950  92.6038940   4.1062500 148.4376630  93.5314770
   2.0537820 148.0672060 104.6767110   1.3636140 147.8744260 105.3113200
   2.7970120 148.3506700 105.2091410   4.3300790 151.9070500  97.5121030
   3.5981910 152.4157310  97.8611130   3.9325130 151.0900480  97.2109810
   4.7926700 147.3604180  96.9243970   4.8099440 147.8112830  97.7685820
   4.5442280 146.4609820  97.1377410   8.2197450 144.7736360 102.7630350
   8.5443220 144.0426020 103.2888330   8.2553960 144.4550000 101.8611340
   3.6065230 146.2799430  90.5145770   2.7929840 145.7812600  90.4391080
   3.4127180 147.1197680  90.0982120   6.3213620 150.6519080  88.8107930
   7.2093240 150.9636310  88.6359270   6.2918710 149.7791330  88.4188510
   8.5927890 151.9630920  88.2787790   8.5091610 152.3945140  87.4284230
   9.3122080 152.4229270  88.7114610   4.9836600 148.5053410  99.5568050
   5.3517420 147.6848620  99.8847620   4.1234800 148.5655300  99.9723700
   8.3498630 147.4610350  90.3655610   7.7211790 147.5656020  89.6513840
   7.8550550 147.6807130  91.1549490   1.9438590 151.1593000  99.7806020
   2.4423840 151.6338820 100.4457870   2.0861540 150.2356520  99.9876050
   4.3498090 146.4646960  93.2209280   4.2265870 146.4833090  92.2718790
   5.2982650 146.5125900  93.3407680   9.1505450 147.3760960 100.6234410
   8.6479050 148.1166360 100.9628220   9.9662110 147.7644960 100.3071200
   7.4427460 152.6194140  94.0695770   6.5017600 152.6344370  94.2443460
   7.7571530 151.8330100  94.5156070   1.9655770 153.3216480  86.8519470
   2.4861430 152.6065500  86.4860620   2.6124170 153.9602350  87.1519980
   6.9855780 152.0841040 104.1793690   7.5676550 151.3293360 104.0914170
   7.1617550 152.6148480 103.4025170   3.6112740 152.4281540 101.5288310
   3.7308950 151.8322680 102.2683150   4.4706740 152.4651230 101.1089610
   5.9500640 152.9818730 100.1050820   5.4235860 153.5061350  99.5015960
   6.2931980 153.6146120 100.7360550   5.1974940 148.5868700 103.0197150
   4.5090460 147.9250240 102.9547140   5.9180960 148.1406970 103.4645610
   5.8275340 145.1820330  89.0787410   6.1077630 144.3388230  89.4346830
   5.0541070 145.4143440  89.5926160   6.6550840 147.7376280  88.1417470
   7.0735720 147.5507260  87.3014130   6.3486900 146.8855330  88.4520400
  10.1540570 152.6500420  91.8393270   9.7784170 151.8828350  91.4074560
   9.4243690 153.0323120  92.3268200   9.5440190 151.7971940 101.4732790
   9.3126280 151.5684690 100.5730740   9.8044740 152.7171490 101.4277680
   7.9828260 147.0228370 104.2512490   8.8598440 147.0311770 104.6346490
   7.9949100 146.2859210 103.6404840   9.4291530 150.8757910  95.1400510
   9.9529010 150.3820560  94.5090680  10.0150950 151.0108270  95.8848080
   9.6081250 150.9597780  98.6620060   8.6583960 150.9261320  98.7765050
   9.7894260 151.8697890  98.4269830   8.9191500 150.1331260  91.0792920
   9.4150620 149.9002130  91.8641800   8.7207570 149.2943100  90.6630560
  10.3478660 148.7692210  93.6130600  10.2377940 148.6148250  94.5512870
  11.1086250 148.2413150  93.3706010   8.6944380 144.7086340 100.0713600
   9.3316600 145.3220480 100.4372790   8.8419270 144.7447000  99.1262830
  11.2368930 146.6000130  86.8536740  12.1618240 146.4681310  86.6455030
  11.2144720 146.6792950  87.8073190  11.3107420 147.3710790  89.4793450
  10.5158920 147.3055910  90.0086360  11.5150700 148.3061430  89.4678800
   2.0648860 145.8612530 102.9788700   2.0037750 146.4534360 103.7284110
   3.0049240 145.7538490 102.8338960   4.7023420 145.5182590 102.6180990
   5.3163830 145.8361880 101.9562070   5.2472980 145.0331180 103.2376850
   5.4431460 144.0814730  98.9450280   4.5691300 144.4149840  98.7423210
   5.3342210 143.6087910  99.7702150   6.3503440 146.2885600 100.3292000
   6.0216800 145.4737360  99.9493730   7.2985740 146.2455410 100.2057690
   3.1906280 144.9984570  97.8843190   2.4078070 145.4730070  98.1639950
   2.8969210 144.0939400  97.7756370   7.7427350 145.7007670  95.9292280
   8.1835440 145.6452770  95.0813880   7.4734940 146.6165680  96.0002460
   9.6065920 145.3322910  93.9401100   9.5454320 144.3884130  93.7932120
  10.3857950 145.4403000  94.4854560   5.5785480 144.0813770  94.6342290
   6.1814850 144.6533980  95.1090810   4.8378470 144.6453210  94.4116190
   8.7220080 144.4835330  89.9082570   8.9170710 145.3818780  90.1750000
   7.9349950 144.2522410  90.4015520   5.8280700 144.2608800 105.0137230
   5.7146150 144.5803410 105.9088750   6.6450440 144.6621310 104.7174510
   4.7338850 152.2801270  75.3771970   4.6532900 151.3655880  75.1063680
   4.3203270 152.7768340  74.6711680   2.8656890 154.0580290  77.2581240
   2.0898990 153.5780730  77.5479810   3.5169820 153.3785940  77.0837400
   3.3371050 149.5407860  77.4920330   3.7135870 148.6679740  77.3794000
   3.2390560 149.8766560  76.6010770   7.1195170 147.0358300  74.4248670
   7.9404790 146.5454870  74.4674150   7.1529250 147.6255960  75.1780510
  11.4094720 149.0525050  80.9892300  10.7046890 149.4406760  80.4707410
  11.6752640 149.7475340  81.5913230   7.3556650 148.9758680  77.1976210
   6.6512220 149.2643570  77.7779320   7.7168810 149.7858790  76.8375770
  10.4243570 148.4213470  77.5885420   9.4768480 148.4552450  77.7200850
  10.7493560 149.2352420  77.9734780   3.3443870 152.7859480  72.6201530
   2.4173150 152.7196860  72.8490000   3.4968690 153.7239610  72.5056770
   3.3312950 149.0576480  69.6168690   2.3916620 149.2190440  69.7021150
   3.6496210 149.7762160  69.0704680   6.8167720 150.5264320  80.5402590
   6.4038900 151.3518030  80.7942580   6.0843670 149.9409360  80.3478950
   5.5505860 153.5866590  70.1309530   5.9899140 152.7489020  69.9847350
   6.2634280 154.2195990  70.2173670   9.1323000 144.8409400  68.4450570
   8.8195660 144.9336230  69.3449640   9.8935470 145.4190430  68.3948000
  10.3424290 149.5780900  84.4224710   9.7268560 150.0860570  83.8940170
  10.0220710 148.6779230  84.3650650   2.4038610 148.4172790  81.8886900
   1.9417980 148.6255810  82.7006840   2.0016720 147.6032140  81.5857570
   7.4043120 149.6381740  83.0183560   6.5536710 149.3387490  83.3392630
   7.2444910 149.8823750  82.1067380   4.4992830 151.1383490  85.1182350
   4.8246240 150.3047240  84.7784580   5.2873160 151.6612010  85.2660680
   5.1380780 150.6801210  72.6123480   4.5389670 151.4037010  72.4287100
   5.6860390 150.6177990  71.8299930   3.7445650 149.3164750  74.6426760
   4.1375220 149.6336950  73.8295450   4.1062500 148.4376630  74.7571280
   2.0537820 148.0672060  85.9023620   1.3636140 147.8744260  86.5369710
   2.7970120 148.3506700  86.4347920   4.3300790 151.9070500  78.7377540
   3.5981910 152.4157310  79.0867640   3.9325130 151.0900480  78.4366320
   4.7926700 147.3604180  78.1500480   4.8099440 147.8112830  78.9942330
   4.5442280 146.4609820  78.3633920   8.2197450 144.7736360  83.9886860
   8.5443220 144.0426020  84.5144840   8.2553960 144.4550000  83.0867850
   3.6065230 146.2799430  71.7402280   2.7929840 145.7812600  71.6647590
   3.4127180 147.1197680  71.3238630   6.3213620 150.6519080  70.0364440
   7.2093240 150.9636310  69.8615780   6.2918710 149.7791330  69.6445020
   8.5927890 151.9630920  69.5044300   8.5091610 152.3945140  68.6540740
   9.3122080 152.4229270  69.9371120   4.9836600 148.5053410  80.7824560
   5.3517420 147.6848620  81.1104130   4.1234800 148.5655300  81.1980210
   8.3498630 147.4610350  71.5912120   7.7211790 147.5656020  70.8770350
   7.8550550 147.6807130  72.3806000   1.9438590 151.1593000  81.0062530
   2.4423840 151.6338820  81.6714380   2.0861540 150.2356520  81.2132560
   4.3498090 146.4646960  74.4465790   4.2265870 146.4833090  73.4975300
   5.2982650 146.5125900  74.5664190   9.1505450 147.3760960  81.8490920
   8.6479050 148.1166360  82.1884730   9.9662110 147.7644960  81.5327710
   7.4427460 152.6194140  75.2952280   6.5017600 152.6344370  75.4699970
   7.7571530 151.8330100  75.7412580   1.9655770 153.3216480  68.0775980
   2.4861430 152.6065500  67.7117130   2.6124170 153.9602350  68.3776490
   6.9855780 152.0841040  85.4050200   7.5676550 151.3293360  85.3170680
   7.1617550 152.6148480  84.6281680   3.6112740 152.4281540  82.7544820
   3.7308950 151.8322680  83.4939660   4.4706740 152.4651230  82.3346120
   5.9500640 152.9818730  81.3307330   5.4235860 153.5061350  80.7272470
   6.2931980 153.6146120  81.9617060   5.1974940 148.5868700  84.2453660
   4.5090460 147.9250240  84.1803650   5.9180960 148.1406970  84.6902120
   5.8275340 145.1820330  70.3043920   6.1077630 144.3388230  70.6603340
   5.0541070 145.4143440  70.8182670   6.6550840 147.7376280  69.3673980
   7.0735720 147.5507260  68.5270640   6.3486900 146.8855330  69.6776910
  10.1540570 152.6500420  73.0649780   9.7784170 151.8828350  72.6331070
   9.4243690 153.0323120  73.5524710   9.5440190 151.7971940  82.6989300
   9.3126280 151.5684690  81.7987250   9.8044740 152.7171490  82.6534190
   7.9828260 147.0228370  85.4769000   8.8598440 147.0311770  85.8603000
   7.9949100 146.2859210  84.8661350   9.4291530 150.8757910  76.3657020
   9.9529010 150.3820560  75.7347190  10.0150950 151.0108270  77.1104590
   9.6081250 150.9597780  79.8876570   8.6583960 150.9261320  80.0021560
   9.7894260 151.8697890  79.6526340   8.9191500 150.1331260  72.3049430
   9.4150620 149.9002130  73.0898310   8.7207570 149.2943100  71.8887070
  10.3478660 148.7692210  74.8387110  10.2377940 148.6148250  75.7769380
  11.1086250 148.2413150  74.5962520   8.6944380 144.7086340  81.2970110
   9.3316600 145.3220480  81.6629300   8.8419270 144.7447000  80.3519340
  11.2368930 146.6000130  68.0793250  12.1618240 146.4681310  67.8711540
  11.2144720 146.6792950  69.0329700  11.3107420 147.3710790  70.7049960
  10.5158920 147.3055910  71.2342870  11.5150700 148.3061430  70.6935310
   2.0648860 145.8612530  84.2045210   2.0037750 146.4534360  84.9540620
   3.0049240 145.7538490  84.0595470   4.7023420 145.5182590  83.8437500
   5.3163830 145.8361880  83.1818580   5.2472980 145.0331180  84.4633360
   5.4431460 144.0814730  80.1706790   4.5691300 144.4149840  79.9679720
   5.3342210 143.6087910  80.9958660   6.3503440 146.2885600  81.5548510
   6.0216800 145.4737360  81.1750240   7.2985740 146.2455410  81.4314200
   3.1906280 144.9984570  79.1099700   2.4078070 145.4730070  79.3896460
   2.8969210 144.0939400  79.0012880   7.7427350 145.7007670  77.1548790
   8.1835440 145.6452770  76.3070390   7.4734940 146.6165680  77.2258970
   9.6065920 145.3322910  75.1657610   9.5454320 144.3884130  75.0188630
  10.3857950 145.4403000  75.7111070   5.5785480 144.0813770  75.8598800
   6.1814850 144.6533980  76.3347320   4.8378470 144.6453210  75.6372700
   8.7220080 144.4835330  71.1339080   8.9170710 145.3818780  71.4006510
   7.9349950 144.2522410  71.6272030   5.8280700 144.2608800  86.2393740
   5.7146150 144.5803410  87.1345260   6.6450440 144.6621310  85.9431020
   4.7338850 152.2801270  56.6028480   4.6532900 151.3655880  56.3320190
   4.3203270 152.7768340  55.8968190   2.8656890 154.0580290  58.4837750
   2.0898990 153.5780730  58.7736320   3.5169820 153.3785940  58.3093910
   3.3371050 149.5407860  58.7176840   3.7135870 148.6679740  58.6050510
   3.2390560 149.8766560  57.8267280   7.1195170 147.0358300  55.6505180
   7.9404790 146.5454870  55.6930660   7.1529250 147.6255960  56.4037020
  11.4094720 149.0525050  62.2148810  10.7046890 149.4406760  61.6963920
  11.6752640 149.7475340  62.8169740   7.3556650 148.9758680  58.4232720
   6.6512220 149.2643570  59.0035830   7.7168810 149.7858790  58.0632280
  10.4243570 148.4213470  58.8141930   9.4768480 148.4552450  58.9457360
  10.7493560 149.2352420  59.1991290   3.3443870 152.7859480  53.8458040
   2.4173150 152.7196860  54.0746510   3.4968690 153.7239610  53.7313280
   3.3312950 149.0576480  50.8425200   2.3916620 149.2190440  50.9277660
   3.6496210 149.7762160  50.2961190   6.8167720 150.5264320  61.7659100
   6.4038900 151.3518030  62.0199090   6.0843670 149.9409360  61.5735460
   5.5505860 153.5866590  51.3566040   5.9899140 152.7489020  51.2103860
   6.2634280 154.2195990  51.4430180   9.1323000 144.8409400  49.6707080
   8.8195660 144.9336230  50.5706150   9.8935470 145.4190430  49.6204510
  10.3424290 149.5780900  65.6481220   9.7268560 150.0860570  65.1196680
  10.0220710 148.6779230  65.5907160   2.4038610 148.4172790  63.1143410
   1.9417980 148.6255810  63.9263350   2.0016720 147.6032140  62.8114080
   7.4043120 149.6381740  64.2440070   6.5536710 149.3387490  64.5649140
   7.2444910 149.8823750  63.3323890   4.4992830 151.1383490  66.3438860
   4.8246240 150.3047240  66.0041090   5.2873160 151.6612010  66.4917190
   5.1380780 150.6801210  53.8379990   4.5389670 151.4037010  53.6543610
   5.6860390 150.6177990  53.0556440   3.7445650 149.3164750  55.8683270
   4.1375220 149.6336950  55.0551960   4.1062500 148.4376630  55.9827790
   2.0537820 148.0672060  67.1280130   1.3636140 147.8744260  67.7626220
   2.7970120 148.3506700  67.6604430   4.3300790 151.9070500  59.9634050
   3.5981910 152.4157310  60.3124150   3.9325130 151.0900480  59.6622830
   4.7926700 147.3604180  59.3756990   4.8099440 147.8112830  60.2198840
   4.5442280 146.4609820  59.5890430   8.2197450 144.7736360  65.2143370
   8.5443220 144.0426020  65.7401350   8.2553960 144.4550000  64.3124360
   3.6065230 146.2799430  52.9658790   2.7929840 145.7812600  52.8904100
   3.4127180 147.1197680  52.5495140   6.3213620 150.6519080  51.2620950
   7.2093240 150.9636310  51.0872290   6.2918710 149.7791330  50.8701530
   8.5927890 151.9630920  50.7300810   8.5091610 152.3945140  49.8797250
   9.3122080 152.4229270  51.1627630   4.9836600 148.5053410  62.0081070
   5.3517420 147.6848620  62.3360640   4.1234800 148.5655300  62.4236720
   8.3498630 147.4610350  52.8168630   7.7211790 147.5656020  52.1026860
   7.8550550 147.6807130  53.6062510   1.9438590 151.1593000  62.2319040
   2.4423840 151.6338820  62.8970890   2.0861540 150.2356520  62.4389070
   4.3498090 146.4646960  55.6722300   4.2265870 146.4833090  54.7231810
   5.2982650 146.5125900  55.7920700   9.1505450 147.3760960  63.0747430
   8.6479050 148.1166360  63.4141240   9.9662110 147.7644960  62.7584220
   7.4427460 152.6194140  56.5208790   6.5017600 152.6344370  56.6956480
   7.7571530 151.8330100  56.9669090   1.9655770 153.3216480  49.3032490
   2.4861430 152.6065500  48.9373640   2.6124170 153.9602350  49.6033000
   6.9855780 152.0841040  66.6306710   7.5676550 151.3293360  66.5427190
   7.1617550 152.6148480  65.8538190   3.6112740 152.4281540  63.9801330
   3.7308950 151.8322680  64.7196170   4.4706740 152.4651230  63.5602630
   5.9500640 152.9818730  62.5563840   5.4235860 153.5061350  61.9528980
   6.2931980 153.6146120  63.1873570   5.1974940 148.5868700  65.4710170
   4.5090460 147.9250240  65.4060160   5.9180960 148.1406970  65.9158630
   5.8275340 145.1820330  51.5300430   6.1077630 144.3388230  51.8859850
   5.0541070 145.4143440  52.0439180   6.6550840 147.7376280  50.5930490
   7.0735720 147.5507260  49.7527150   6.3486900 146.8855330  50.9033420
  10.1540570 152.6500420  54.2906290   9.7784170 151.8828350  53.8587580
   9.4243690 153.0323120  54.7781220   9.5440190 151.7971940  63.9245810
   9.3126280 151.5684690  63.0243760   9.8044740 152.7171490  63.8790700
   7.9828260 147.0228370  66.7025510   8.8598440 147.0311770  67.0859510
   7.9949100 146.2859210  66.0917860   9.4291530 150.8757910  57.5913530
   9.9529010 150.3820560  56.9603700  10.0150950 151.0108270  58.3361100
   9.6081250 150.9597780  61.1133080   8.6583960 150.9261320  61.2278070
   9.7894260 151.8697890  60.8782850   8.9191500 150.1331260  53.5305940
   9.4150620 149.9002130  54.3154820   8.7207570 149.2943100  53.1143580
  10.3478660 148.7692210  56.0643620  10.2377940 148.6148250  57.0025890
  11.1086250 148.2413150  55.8219030   8.6944380 144.7086340  62.5226620
   9.3316600 145.3220480  62.8885810   8.8419270 144.7447000  61.5775850
  11.2368930 146.6000130  49.3049760  12.1618240 146.4681310  49.0968050
  11.2144720 146.6792950  50.2586210  11.3107420 147.3710790  51.9306470
  10.5158920 147.3055910  52.4599380  11.5150700 148.3061430  51.9191820
   2.0648860 145.8612530  65.4301720   2.0037750 146.4534360  66.1797130
   3.0049240 145.7538490  65.2851980   4.7023420 145.5182590  65.0694010
   5.3163830 145.8361880  64.4075090   5.2472980 145.0331180  65.6889870
   5.4431460 144.0814730  61.3963300   4.5691300 144.4149840  61.1936230
   5.3342210 143.6087910  62.2215170   6.3503440 146.2885600  62.7805020
   6.0216800 145.4737360  62.4006750   7.2985740 146.2455410  62.6570710
   3.1906280 144.9984570  60.3356210   2.4078070 145.4730070  60.6152970
   2.8969210 144.0939400  60.2269390   7.7427350 145.7007670  58.3805300
   8.1835440 145.6452770  57.5326900   7.4734940 146.6165680  58.4515480
   9.6065920 145.3322910  56.3914120   9.5454320 144.3884130  56.2445140
  10.3857950 145.4403000  56.9367580   5.5785480 144.0813770  57.0855310
   6.1814850 144.6533980  57.5603830   4.8378470 144.6453210  56.8629210
   8.7220080 144.4835330  52.3595590   8.9170710 145.3818780  52.6263020
   7.9349950 144.2522410  52.8528540   5.8280700 144.2608800  67.4650250
   5.7146150 144.5803410  68.3601770   6.6450440 144.6621310  67.1687530
   4.7338850 152.2801270  37.8284990   4.6532900 151.3655880  37.5576700
   4.3203270 152.7768340  37.1224700   2.8656890 154.0580290  39.7094260
   2.0898990 153.5780730  39.9992830   3.5169820 153.3785940  39.5350420
   3.3371050 149.5407860  39.9433350   3.7135870 148.6679740  39.8307020
   3.2390560 149.8766560  39.0523790   7.1195170 147.0358300  36.8761690
   7.9404790 146.5454870  36.9187170   7.1529250 147.6255960  37.6293530
  11.4094720 149.0525050  43.4405320  10.7046890 149.4406760  42.9220430
  11.6752640 149.7475340  44.0426250   7.3556650 148.9758680  39.6489230
   6.6512220 149.2643570  40.2292340   7.7168810 149.7858790  39.2888790
  10.4243570 148.4213470  40.0398440   9.4768480 148.4552450  40.1713870
  10.7493560 149.2352420  40.4247800   3.3443870 152.7859480  35.0714550
   2.4173150 152.7196860  35.3003020   3.4968690 153.7239610  34.9569790
   3.3312950 149.0576480  32.0681710   2.3916620 149.2190440  32.1534170
   3.6496210 149.7762160  31.5217700   6.8167720 150.5264320  42.9915610
   6.4038900 151.3518030  43.2455600   6.0843670 149.9409360  42.7991970
   5.5505860 153.5866590  32.5822550   5.9899140 152.7489020  32.4360370
   6.2634280 154.2195990  32.6686690   9.1323000 144.8409400  30.8963590
   8.8195660 144.9336230  31.7962660   9.8935470 145.4190430  30.8461020
  10.3424290 149.5780900  46.8737730   9.7268560 150.0860570  46.3453190
  10.0220710 148.6779230  46.8163670   2.4038610 148.4172790  44.3399920
   1.9417980 148.6255810  45.1519860   2.0016720 147.6032140  44.0370590
   7.4043120 149.6381740  45.4696580   6.5536710 149.3387490  45.7905650
   7.2444910 149.8823750  44.5580400   4.4992830 151.1383490  47.5695370
   4.8246240 150.3047240  47.2297600   5.2873160 151.6612010  47.7173700
   5.1380780 150.6801210  35.0636500   4.5389670 151.4037010  34.8800120
   5.6860390 150.6177990  34.2812950   3.7445650 149.3164750  37.0939780
   4.1375220 149.6336950  36.2808470   4.1062500 148.4376630  37.2084300
   2.0537820 148.0672060  48.3536640   1.3636140 147.8744260  48.9882730
   2.7970120 148.3506700  48.8860940   4.3300790 151.9070500  41.1890560
   3.5981910 152.4157310  41.5380660   3.9325130 151.0900480  40.8879340
   4.7926700 147.3604180  40.6013500   4.8099440 147.8112830  41.4455350
   4.5442280 146.4609820  40.8146940   8.2197450 144.7736360  46.4399880
   8.5443220 144.0426020  46.9657860   8.2553960 144.4550000  45.5380870
   3.6065230 146.2799430  34.1915300   2.7929840 145.7812600  34.1160610
   3.4127180 147.1197680  33.7751650   6.3213620 150.6519080  32.4877460
   7.2093240 150.9636310  32.3128800   6.2918710 149.7791330  32.0958040
   8.5927890 151.9630920  31.9557320   8.5091610 152.3945140  31.1053760
   9.3122080 152.4229270  32.3884140   4.9836600 148.5053410  43.2337580
   5.3517420 147.6848620  43.5617150   4.1234800 148.5655300  43.6493230
   8.3498630 147.4610350  34.0425140   7.7211790 147.5656020  33.3283370
   7.8550550 147.6807130  34.8319020   1.9438590 151.1593000  43.4575550
   2.4423840 151.6338820  44.1227400   2.0861540 150.2356520  43.6645580
   4.3498090 146.4646960  36.8978810   4.2265870 146.4833090  35.9488320
   5.2982650 146.5125900  37.0177210   9.1505450 147.3760960  44.3003940
   8.6479050 148.1166360  44.6397750   9.9662110 147.7644960  43.9840730
   7.4427460 152.6194140  37.7465300   6.5017600 152.6344370  37.9212990
   7.7571530 151.8330100  38.1925600   1.9655770 153.3216480  30.5289000
   2.4861430 152.6065500  30.1630150   2.6124170 153.9602350  30.8289510
   6.9855780 152.0841040  47.8563220   7.5676550 151.3293360  47.7683700
   7.1617550 152.6148480  47.0794700   3.6112740 152.4281540  45.2057840
   3.7308950 151.8322680  45.9452680   4.4706740 152.4651230  44.7859140
   5.9500640 152.9818730  43.7820350   5.4235860 153.5061350  43.1785490
   6.2931980 153.6146120  44.4130080   5.1974940 148.5868700  46.6966680
   4.5090460 147.9250240  46.6316670   5.9180960 148.1406970  47.1415140
   5.8275340 145.1820330  32.7556940   6.1077630 144.3388230  33.1116360
   5.0541070 145.4143440  33.2695690   6.6550840 147.7376280  31.8187000
   7.0735720 147.5507260  30.9783660   6.3486900 146.8855330  32.1289930
  10.1540570 152.6500420  35.5162800   9.7784170 151.8828350  35.0844090
   9.4243690 153.0323120  36.0037730   9.5440190 151.7971940  45.1502320
   9.3126280 151.5684690  44.2500270   9.8044740 152.7171490  45.1047210
   7.9828260 147.0228370  47.9282020   8.8598440 147.0311770  48.3116020
   7.9949100 146.2859210  47.3174370   9.4291530 150.8757910  38.8170040
   9.9529010 150.3820560  38.1860210  10.0150950 151.0108270  39.5617610
   9.6081250 150.9597780  42.3389590   8.6583960 150.9261320  42.4534580
   9.7894260 151.8697890  42.1039360   8.9191500 150.1331260  34.7562450
   9.4150620 149.9002130  35.5411330   8.7207570 149.2943100  34.3400090
  10.3478660 148.7692210  37.2900130  10.2377940 148.6148250  38.2282400
  11.1086250 148.2413150  37.0475540   8.6944380 144.7086340  43.7483130
   9.3316600 145.3220480  44.1142320   8.8419270 144.7447000  42.8032360
  11.2368930 146.6000130  30.5306270  12.1618240 146.4681310  30.3224560
  11.2144720 146.6792950  31.4842720  11.3107420 147.3710790  33.1562980
  10.5158920 147.3055910  33.6855890  11.5150700 148.3061430  33.1448330
   2.0648860 145.8612530  46.6558230   2.0037750 146.4534360  47.4053640
   3.0049240 145.7538490  46.5108490   4.7023420 145.5182590  46.2950520
   5.3163830 145.8361880  45.6331600   5.2472980 145.0331180  46.9146380
   5.4431460 144.0814730  42.6219810   4.5691300 144.4149840  42.4192740
   5.3342210 143.6087910  43.4471680   6.3503440 146.2885600  44.0061530
   6.0216800 145.4737360  43.6263260   7.2985740 146.2455410  43.8827220
   3.1906280 144.9984570  41.5612720   2.4078070 145.4730070  41.8409480
   2.8969210 144.0939400  41.4525900   7.7427350 145.7007670  39.6061810
   8.1835440 145.6452770  38.7583410   7.4734940 146.6165680  39.6771990
   9.6065920 145.3322910  37.6170630   9.5454320 144.3884130  37.4701650
  10.3857950 145.4403000  38.1624090   5.5785480 144.0813770  38.3111820
   6.1814850 144.6533980  38.7860340   4.8378470 144.6453210  38.0885720
   8.7220080 144.4835330  33.5852100   8.9170710 145.3818780  33.8519530
   7.9349950 144.2522410  34.0785050   5.8280700 144.2608800  48.6906760
   5.7146150 144.5803410  49.5858280   6.6450440 144.6621310  48.3944040
   4.7338850 152.2801270  19.0541500   4.6532900 151.3655880  18.7833210
   4.3203270 152.7768340  18.3481210   2.8656890 154.0580290  20.9350770
   2.0898990 153.5780730  21.2249340   3.5169820 153.3785940  20.7606930
   3.3371050 149.5407860  21.1689860   3.7135870 148.6679740  21.0563530
   3.2390560 149.8766560  20.2780300   7.1195170 147.0358300  18.1018200
   7.9404790 146.5454870  18.1443680   7.1529250 147.6255960  18.8550040
  11.4094720 149.0525050  24.6661830  10.7046890 149.4406760  24.1476940
  11.6752640 149.7475340  25.2682760   7.3556650 148.9758680  20.8745740
   6.6512220 149.2643570  21.4548850   7.7168810 149.7858790  20.5145300
  10.4243570 148.4213470  21.2654950   9.4768480 148.4552450  21.3970380
  10.7493560 149.2352420  21.6504310   3.3443870 152.7859480  16.2971060
   2.4173150 152.7196860  16.5259530   3.4968690 153.7239610  16.1826300
   3.3312950 149.0576480  13.2938220   2.3916620 149.2190440  13.3790680
   3.6496210 149.7762160  12.7474210   6.8167720 150.5264320  24.2172120
   6.4038900 151.3518030  24.4712110   6.0843670 149.9409360  24.0248480
   5.5505860 153.5866590  13.8079060   5.9899140 152.7489020  13.6616880
   6.2634280 154.2195990  13.8943200   9.1323000 144.8409400  12.1220100
   8.8195660 144.9336230  13.0219170   9.8935470 145.4190430  12.0717530
  10.3424290 149.5780900  28.0994240   9.7268560 150.0860570  27.5709700
  10.0220710 148.6779230  28.0420180   2.4038610 148.4172790  25.5656430
   1.9417980 148.6255810  26.3776370   2.0016720 147.6032140  25.2627100
   7.4043120 149.6381740  26.6953090   6.5536710 149.3387490  27.0162160
   7.2444910 149.8823750  25.7836910   4.4992830 151.1383490  28.7951880
   4.8246240 150.3047240  28.4554110   5.2873160 151.6612010  28.9430210
   5.1380780 150.6801210  16.2893010   4.5389670 151.4037010  16.1056630
   5.6860390 150.6177990  15.5069460   3.7445650 149.3164750  18.3196290
   4.1375220 149.6336950  17.5064980   4.1062500 148.4376630  18.4340810
   2.0537820 148.0672060  29.5793150   1.3636140 147.8744260  30.2139240
   2.7970120 148.3506700  30.1117450   4.3300790 151.9070500  22.4147070
   3.5981910 152.4157310  22.7637170   3.9325130 151.0900480  22.1135850
   4.7926700 147.3604180  21.8270010   4.8099440 147.8112830  22.6711860
   4.5442280 146.4609820  22.0403450   8.2197450 144.7736360  27.6656390
   8.5443220 144.0426020  28.1914370   8.2553960 144.4550000  26.7637380
   3.6065230 146.2799430  15.4171810   2.7929840 145.7812600  15.3417120
   3.4127180 147.1197680  15.0008160   6.3213620 150.6519080  13.7133970
   7.2093240 150.9636310  13.5385310   6.2918710 149.7791330  13.3214550
   8.5927890 151.9630920  13.1813830   8.5091610 152.3945140  12.3310270
   9.3122080 152.4229270  13.6140650   4.9836600 148.5053410  24.4594090
   5.3517420 147.6848620  24.7873660   4.1234800 148.5655300  24.8749740
   8.3498630 147.4610350  15.2681650   7.7211790 147.5656020  14.5539880
   7.8550550 147.6807130  16.0575530   1.9438590 151.1593000  24.6832060
   2.4423840 151.6338820  25.3483910   2.0861540 150.2356520  24.8902090
   4.3498090 146.4646960  18.1235320   4.2265870 146.4833090  17.1744830
   5.2982650 146.5125900  18.2433720   9.1505450 147.3760960  25.5260450
   8.6479050 148.1166360  25.8654260   9.9662110 147.7644960  25.2097240
   7.4427460 152.6194140  18.9721810   6.5017600 152.6344370  19.1469500
   7.7571530 151.8330100  19.4182110   1.9655770 153.3216480  11.7545510
   2.4861430 152.6065500  11.3886660   2.6124170 153.9602350  12.0546020
   6.9855780 152.0841040  29.0819730   7.5676550 151.3293360  28.9940210
   7.1617550 152.6148480  28.3051210   3.6112740 152.4281540  26.4314350
   3.7308950 151.8322680  27.1709190   4.4706740 152.4651230  26.0115650
   5.9500640 152.9818730  25.0076860   5.4235860 153.5061350  24.4042000
   6.2931980 153.6146120  25.6386590   5.1974940 148.5868700  27.9223190
   4.5090460 147.9250240  27.8573180   5.9180960 148.1406970  28.3671650
   5.8275340 145.1820330  13.9813450   6.1077630 144.3388230  14.3372870
   5.0541070 145.4143440  14.4952200   6.6550840 147.7376280  13.0443510
   7.0735720 147.5507260  12.2040170   6.3486900 146.8855330  13.3546440
  10.1540570 152.6500420  16.7419310   9.7784170 151.8828350  16.3100600
   9.4243690 153.0323120  17.2294240   9.5440190 151.7971940  26.3758830
   9.3126280 151.5684690  25.4756780   9.8044740 152.7171490  26.3303720
   7.9828260 147.0228370  29.1538530   8.8598440 147.0311770  29.5372530
   7.9949100 146.2859210  28.5430880   9.4291530 150.8757910  20.0426550
   9.9529010 150.3820560  19.4116720  10.0150950 151.0108270  20.7874120
   9.6081250 150.9597780  23.5646100   8.6583960 150.9261320  23.6791090
   9.7894260 151.8697890  23.3295870   8.9191500 150.1331260  15.9818960
   9.4150620 149.9002130  16.7667840   8.7207570 149.2943100  15.5656600
  10.3478660 148.7692210  18.5156640  10.2377940 148.6148250  19.4538910
  11.1086250 148.2413150  18.2732050   8.6944380 144.7086340  24.9739640
   9.3316600 145.3220480  25.3398830   8.8419270 144.7447000  24.0288870
  11.2368930 146.6000130  11.7562780  12.1618240 146.4681310  11.5481070
  11.2144720 146.6792950  12.7099230  11.3107420 147.3710790  14.3819490
  10.5158920 147.3055910  14.9112400  11.5150700 148.3061430  14.3704840
   2.0648860 145.8612530  27.8814740   2.0037750 146.4534360  28.6310150
   3.0049240 145.7538490  27.7365000   4.7023420 145.5182590  27.5207030
   5.3163830 145.8361880  26.8588110   5.2472980 145.0331180  28.1402890
   5.4431460 144.0814730  23.8476320   4.5691300 144.4149840  23.6449250
   5.3342210 143.6087910  24.6728190   6.3503440 146.2885600  25.2318040
   6.0216800 145.4737360  24.8519770   7.2985740 146.2455410  25.1083730
   3.1906280 144.9984570  22.7869230   2.4078070 145.4730070  23.0665990
   2.8969210 144.0939400  22.6782410   7.7427350 145.7007670  20.8318320
   8.1835440 145.6452770  19.9839920   7.4734940 146.6165680  20.9028500
   9.6065920 145.3322910  18.8427140   9.5454320 144.3884130  18.6958160
  10.3857950 145.4403000  19.3880600   5.5785480 144.0813770  19.5368330
   6.1814850 144.6533980  20.0116850   4.8378470 144.6453210  19.3142230
   8.7220080 144.4835330  14.8108610   8.9170710 145.3818780  15.0776040
   7.9349950 144.2522410  15.3041560   5.8280700 144.2608800  29.9163270
   5.7146150 144.5803410  30.8114790   6.6450440 144.6621310  29.6200550
   2.8656890 154.0580290   2.1607280   2.0898990 153.5780730   2.4505850
   3.5169820 153.3785940   1.9863440  11.4094720 149.0525050   5.8918340
  10.7046890 149.4406760   5.3733450  11.6752640 149.7475340   6.4939270
   7.3556650 148.9758680   2.1002250   6.6512220 149.2643570   2.6805360
   7.7168810 149.7858790   1.7401810  10.4243570 148.4213470   2.4911460
   9.4768480 148.4552450   2.6226890  10.7493560 149.2352420   2.8760820
   6.8167720 150.5264320   5.4428630   6.4038900 151.3518030   5.6968620
   6.0843670 149.9409360   5.2504990  10.3424290 149.5780900   9.3250750
   9.7268560 150.0860570   8.7966210  10.0220710 148.6779230   9.2676690
   2.4038610 148.4172790   6.7912940   1.9417980 148.6255810   7.6032880
   2.0016720 147.6032140   6.4883610   7.4043120 149.6381740   7.9209600
   6.5536710 149.3387490   8.2418670   7.2444910 149.8823750   7.0093420
   4.4992830 151.1383490  10.0208390   4.8246240 150.3047240   9.6810620
   5.2873160 151.6612010  10.1686720   2.0537820 148.0672060  10.8049660
   1.3636140 147.8744260  11.4395750   2.7970120 148.3506700  11.3373960
   4.3300790 151.9070500   3.6403580   3.5981910 152.4157310   3.9893680
   3.9325130 151.0900480   3.3392360   4.7926700 147.3604180   3.0526520
   4.8099440 147.8112830   3.8968370   4.5442280 146.4609820   3.2659960
   8.2197450 144.7736360   8.8912900   8.5443220 144.0426020   9.4170880
   8.2553960 144.4550000   7.9893890   4.9836600 148.5053410   5.6850600
   5.3517420 147.6848620   6.0130170   4.1234800 148.5655300   6.1006250
   1.9438590 151.1593000   5.9088570   2.4423840 151.6338820   6.5740420
   2.0861540 150.2356520   6.1158600   9.1505450 147.3760960   6.7516960
   8.6479050 148.1166360   7.0910770   9.9662110 147.7644960   6.4353750
   6.9855780 152.0841040  10.3076240   7.5676550 151.3293360  10.2196720
   7.1617550 152.6148480   9.5307720   3.6112740 152.4281540   7.6570860
   3.7308950 151.8322680   8.3965700   4.4706740 152.4651230   7.2372160
   5.9500640 152.9818730   6.2333370   5.4235860 153.5061350   5.6298510
   6.2931980 153.6146120   6.8643100   5.1974940 148.5868700   9.1479700
   4.5090460 147.9250240   9.0829690   5.9180960 148.1406970   9.5928160
   9.5440190 151.7971940   7.6015340   9.3126280 151.5684690   6.7013290
   9.8044740 152.7171490   7.5560230   7.9828260 147.0228370  10.3795040
   8.8598440 147.0311770  10.7629040   7.9949100 146.2859210   9.7687390
   9.6081250 150.9597780   4.7902610   8.6583960 150.9261320   4.9047600
   9.7894260 151.8697890   4.5552380   8.6944380 144.7086340   6.1996150
   9.3316600 145.3220480   6.5655340   8.8419270 144.7447000   5.2545380
   2.0648860 145.8612530   9.1071250   2.0037750 146.4534360   9.8566660
   3.0049240 145.7538490   8.9621510   4.7023420 145.5182590   8.7463540
   5.3163830 145.8361880   8.0844620   5.2472980 145.0331180   9.3659400
   5.4431460 144.0814730   5.0732830   4.5691300 144.4149840   4.8705760
   5.3342210 143.6087910   5.8984700   6.3503440 146.2885600   6.4574550
   6.0216800 145.4737360   6.0776280   7.2985740 146.2455410   6.3340240
   3.1906280 144.9984570   4.0125740   2.4078070 145.4730070   4.2922500
   2.8969210 144.0939400   3.9038920   5.8280700 144.2608800  11.1419780
   5.7146150 144.5803410  12.0371300   6.6450440 144.6621310  10.8457060
   4.7338850 133.5057780 150.4745930   4.6532900 132.5912390 150.2037640
   4.3203270 134.0024850 149.7685640   6.8864320 139.6896990 151.1354330
   6.4245850 138.9184230 151.4641500   7.6989870 139.7163060 151.6406780
   3.1127630 141.9755000 150.7558320   2.4939070 142.4312500 150.1852760
   3.9679410 142.1306460 150.3548020   7.1195170 128.2614810 149.5222630
   7.9404790 127.7711380 149.5648110   7.1529250 128.8512470 150.2754470
   3.9790980 136.8594240 148.1490230   3.3608250 137.3243690 147.5852950
   4.4914230 137.5521720 148.5659740   7.8023590 138.3850670 148.3613000
   7.6919920 137.4425000 148.4862420   7.7991840 138.7466310 149.2475760
   3.3443870 134.0115990 147.7175490   2.4173150 133.9453370 147.9463960
   3.4968690 134.9496120 147.6030730   3.3312950 130.2832990 144.7142650
   2.3916620 130.4446950 144.7995110   3.6496210 131.0018670 144.1678640
   7.3741160 135.5736290 148.2210740   6.7553580 135.2355840 147.5737040
   7.3565610 134.9296050 148.9289930   5.5505860 134.8123100 145.2283490
   5.9899140 133.9745530 145.0821310   6.2634280 135.4452500 145.3147630
   3.6601240 139.7519170 149.1964730   4.0997150 140.4943500 148.7820120
   3.5988130 139.9945740 150.1203690   9.1323000 126.0665910 143.5424530
   8.8195660 126.1592740 144.4423600   9.8935470 126.6446940 143.4921960
   6.3271420 142.7388290 146.5527740   6.1672560 142.4491230 147.4509570
   6.1618130 141.9628420 146.0172970   6.0297550 140.2475850 145.1125740
   5.3362710 140.2453140 144.4528020   6.7720410 139.8235170 144.6819910
   5.5947480 141.8738560 149.1874230   6.0504430 141.0927940 149.5012850
   5.9340000 142.5845380 149.7315410   5.1380780 131.9057720 147.7097440
   4.5389670 132.6293520 147.5261060   5.6860390 131.8434500 146.9273890
   3.7445650 130.5421260 149.7400720   4.1375220 130.8593460 148.9269410
   4.1062500 129.6633140 149.8545240   3.6065230 127.5055940 146.8376240
   2.7929840 127.0069110 146.7621550   3.4127180 128.3454190 146.4212590
   6.3213620 131.8775590 145.1338400   7.2093240 132.1892820 144.9589740
   6.2918710 131.0047840 144.7418980   2.3174210 138.0499280 145.8126570
   2.6589910 138.7941510 145.3169890   1.4886920 138.3630400 146.1751400
   8.5927890 133.1887430 144.6018260   8.5091610 133.6201650 143.7514700
   9.3122080 133.6485780 145.0345080   9.6215140 140.0429690 147.3300390
   8.9791300 139.3885310 147.6044110   9.2345800 140.4484780 146.5541060
   5.2001620 137.3715120 151.1772080   5.5525440 136.7743250 150.5173450
   4.3163950 137.0459350 151.3480330   8.0112520 138.9346150 143.8676740
   7.7850100 138.2176590 144.4601380   7.6208720 138.6858590 143.0298490
   7.5928770 136.8518090 145.5290900   7.3050470 137.3130780 146.3168780
   8.3880940 136.3915860 145.7975120   8.3498630 128.6866860 146.6886080
   7.7211790 128.7912530 145.9744310   7.8550550 128.9063640 147.4779960
   2.7956770 140.4072450 144.1220060   2.8968750 140.2036440 143.1922040
   1.8958510 140.1530730 144.3267840   4.3498090 127.6903470 149.5439750
   4.2265870 127.7089600 148.5949260   5.2982650 127.7382410 149.6638150
   7.4427460 133.8450650 150.3926240   6.5017600 133.8600880 150.5673930
   7.7571530 133.0586610 150.8386540   9.0803050 141.5091150 144.9859940
   8.7944560 141.0956290 144.1714120   8.8822600 142.4378860 144.8660460
   3.7853010 136.5644460 144.0307540   3.2363110 137.0113760 144.6750280
   4.4072270 136.0593710 144.5545210   1.9655770 134.5472990 143.1749940
   2.4861430 133.8322010 142.8091090   2.6124170 135.1858860 143.4750450
   5.8275340 126.4076840 145.4017880   6.1077630 125.5644740 145.7577300
   5.0541070 126.6399950 145.9156630   2.5303800 142.6284600 145.4651680
   3.4254590 142.9669570 145.4870440   2.5621430 141.9064010 144.8375960
  10.7499600 138.9006090 143.5087590   9.9192560 138.9682740 143.9794820
  10.9271430 139.7910210 143.2054450  10.2056060 135.6453570 146.0121790
  10.9674970 136.2150220 146.1181480  10.2210430 135.0780770 146.7830100
  11.2116030 136.5003670 150.8563720  11.5824860 135.7170990 150.4499690
  11.8517960 137.1892770 150.6781020  10.2575230 135.9387940 143.1694310
  10.5324070 136.8466820 143.0413530  10.0685970 135.8750470 144.1056300
   6.6550840 128.9632790 144.4647940   7.0735720 128.7763770 143.6244600
   6.3486900 128.1111840 144.7750870  10.1540570 133.8756930 148.1623740
   9.7784170 133.1084860 147.7305030   9.4243690 134.2579630 148.6498670
   9.4291530 132.1014420 151.4630980   9.9529010 131.6077070 150.8321150
  10.0150950 132.2364780 152.2078550   8.9191500 131.3587770 147.4023390
   9.4150620 131.1258640 148.1872270   8.7207570 130.5199610 146.9861030
  10.3478660 129.9948720 149.9361070  10.2377940 129.8404760 150.8743340
  11.1086250 129.4669660 149.6936480  11.2368930 127.8256640 143.1767210
  12.1618240 127.6937820 142.9685500  11.2144720 127.9049460 144.1303660
  11.3107420 128.5967300 145.8023920  10.5158920 128.5312420 146.3316830
  11.5150700 129.5317940 145.7909270   8.2525840 142.6358850 149.7962310
   8.8484910 142.3143420 149.1196730   8.5103990 142.1630670 150.5875580
   7.7427350 126.9264180 152.2522750   8.1835440 126.8709280 151.4044350
   7.4734940 127.8422190 152.3232930   9.6065920 126.5579420 150.2631570
   9.5454320 125.6140640 150.1162590  10.3857950 126.6659510 150.8085030
   5.5785480 125.3070280 150.9572760   6.1814850 125.8790490 151.4321280
   4.8378470 125.8709720 150.7346660   8.7220080 125.7091840 146.2313040
   8.9170710 126.6075290 146.4980470   7.9349950 125.4778920 146.7245990
  10.2746690 142.9492550 147.9919600  10.4498880 142.2630290 147.3480520
   9.5768260 143.4739600 147.5996270   4.7338850 133.5057780 131.7002440
   4.6532900 132.5912390 131.4294150   4.3203270 134.0024850 130.9942150
   2.8656890 135.2836800 133.5811710   2.0898990 134.8037240 133.8710280
   3.5169820 134.6042450 133.4067870   6.8864320 139.6896990 132.3610840
   6.4245850 138.9184230 132.6898010   7.6989870 139.7163060 132.8663290
   3.1127630 141.9755000 131.9814830   2.4939070 142.4312500 131.4109270
   3.9679410 142.1306460 131.5804530   2.3065880 137.9593990 133.5881870
   2.2374160 137.0183930 133.4271000   3.0685740 138.0495400 134.1604440
   3.3371050 130.7664370 133.8150800   3.7135870 129.8936250 133.7024470
   3.2390560 131.1023070 132.9241240   7.1195170 128.2614810 130.7479140
   7.9404790 127.7711380 130.7904620   7.1529250 128.8512470 131.5010980
  11.4094720 130.2781560 137.3122770  10.7046890 130.6663270 136.7937880
  11.6752640 130.9731850 137.9143700   3.9790980 136.8594240 129.3746740
   3.3608250 137.3243690 128.8109460   4.4914230 137.5521720 129.7916250
   7.3556650 130.2015190 133.5206680   6.6512220 130.4900080 134.1009790
   7.7168810 131.0115300 133.1606240   8.9719430 139.8190320 135.7834160
   8.2882950 140.4889430 135.7750830   9.5113720 140.0170970 135.0179020
  10.4243570 129.6469980 133.9115890   9.4768480 129.6808960 134.0431320
  10.7493560 130.4608930 134.2965250   6.5078170 141.6634450 134.4979340
   6.5205330 141.2596740 133.6301600   5.9553390 142.4381740 134.3940770
   7.8023590 138.3850670 129.5869510   7.6919920 137.4425000 129.7118930
   7.7991840 138.7466310 130.4732270   5.9063610 136.5664290 135.8261950
   6.3232400 136.3524400 134.9915410   6.6303430 136.8237080 136.3970570
   3.3443870 134.0115990 128.9432000   2.4173150 133.9453370 129.1720470
   3.4968690 134.9496120 128.8287240   3.3312950 130.2832990 125.9399160
   2.3916620 130.4446950 126.0251620   3.6496210 131.0018670 125.3935150
   9.8525710 134.9651510 135.9178190   9.0244340 135.0344600 135.4428320
  10.4476190 135.5505820 135.4494020   7.3741160 135.5736290 129.4467250
   6.7553580 135.2355840 128.7993550   7.3565610 134.9296050 130.1546440
   6.8167720 131.7520830 136.8633060   6.4038900 132.5774540 137.1173050
   6.0843670 131.1665870 136.6709420   7.5067820 141.7980160 137.5514040
   7.0298380 142.6052350 137.3586650   6.8229610 141.1458490 137.7040250
   5.5505860 134.8123100 126.4540000   5.9899140 133.9745530 126.3077820
   6.2634280 135.4452500 126.5404140   3.6601240 139.7519170 130.4221240
   4.0997150 140.4943500 130.0076630   3.5988130 139.9945740 131.3460200
   9.1323000 126.0665910 124.7681040   8.8195660 126.1592740 125.6680110
   9.8935470 126.6446940 124.7178470  11.0867030 141.5592100 142.6205430
  11.5626750 142.0374990 143.2994510  11.7074190 141.4909590 141.8950930
  10.4900280 138.7504950 139.7805440  10.6163340 138.5116830 138.8622620
  10.5321660 137.9189490 140.2527520   4.3517020 142.4532950 138.3500250
   4.8661690 142.3640960 139.1522680   3.5086100 142.7992650 138.6428160
   6.3271420 142.7388290 127.7784250   6.1672560 142.4491230 128.6766080
   6.1618130 141.9628420 127.2429480   6.0297550 140.2475850 126.3382250
   5.3362710 140.2453140 125.6784530   6.7720410 139.8235170 125.9076420
   5.5947480 141.8738560 130.4130740   6.0504430 141.0927940 130.7269360
   5.9340000 142.5845380 130.9571920  10.3424290 130.8037410 140.7455180
   9.7268560 131.3117080 140.2170640  10.0220710 129.9035740 140.6881120
   2.4038610 129.6429300 138.2117370   1.9417980 129.8512320 139.0237310
   2.0016720 128.8288650 137.9088040   7.4043120 130.8638250 139.3414030
   6.5536710 130.5644000 139.6623100   7.2444910 131.1080260 138.4297850
   4.4992830 132.3640000 141.4412820   4.8246240 131.5303750 141.1015050
   5.2873160 132.8868520 141.5891150   5.1380780 131.9057720 128.9353950
   4.5389670 132.6293520 128.7517570   5.6860390 131.8434500 128.1530400
   3.7445650 130.5421260 130.9657230   4.1375220 130.8593460 130.1525920
   4.1062500 129.6633140 131.0801750   2.0537820 129.2928570 142.2254090
   1.3636140 129.1000770 142.8600180   2.7970120 129.5763210 142.7578390
   4.3300790 133.1327010 135.0608010   3.5981910 133.6413820 135.4098110
   3.9325130 132.3156990 134.7596790   4.7926700 128.5860690 134.4730950
   4.8099440 129.0369340 135.3172800   4.5442280 127.6866330 134.6864390
   8.2197450 125.9992870 140.3117330   8.5443220 125.2682530 140.8375310
   8.2553960 125.6806510 139.4098320   8.1455290 136.1117980 133.9203360
   8.8654410 136.6073270 133.5299470   7.9437110 135.4335870 133.2757230
   3.6065230 127.5055940 128.0632750   2.7929840 127.0069110 127.9878060
   3.4127180 128.3454190 127.6469100   3.5274090 136.1827040 139.8072360
   3.4611400 135.2622710 139.5529950   2.8979230 136.2802480 140.5217000
   6.3213620 131.8775590 126.3594910   7.2093240 132.1892820 126.1846250
   6.2918710 131.0047840 125.9675490   2.3174210 138.0499280 127.0383080
   2.6589910 138.7941510 126.5426400   1.4886920 138.3630400 127.4007910
   3.4590820 139.0047610 139.5576160   3.4735360 138.0728570 139.3395070
   2.7515920 139.0907370 140.1965930   8.5927890 133.1887430 125.8274770
   8.5091610 133.6201650 124.9771210   9.3122080 133.6485780 126.2601590
   9.6702030 135.6454950 138.9044740   8.9450220 136.2383730 138.7074130
  10.1977490 135.6378490 138.1058110   9.6215140 140.0429690 128.5556900
   8.9791300 139.3885310 128.8300620   9.2345800 140.4484780 127.7797570
   5.2001620 137.3715120 132.4028590   5.5525440 136.7743250 131.7429960
   4.3163950 137.0459350 132.5736840   2.8924720 140.6465180 136.6516660
   3.5366940 140.8524560 137.3290080   3.2554160 139.8853580 136.1987510
   4.1656800 138.6497530 135.3694110   4.8079030 137.9490690 135.4826280
   4.6906150 139.4295970 135.1891000   8.0112520 138.9346150 125.0933250
   7.7850100 138.2176590 125.6857890   7.6208720 138.6858590 124.2555000
   5.9394420 139.4492430 138.5730170   6.2750660 140.0359120 139.2508090
   5.0194760 139.3185140 138.8027960   7.5928770 136.8518090 126.7547410
   7.3050470 137.3130780 127.5425290   8.3880940 136.3915860 127.0231630
   1.7683000 139.4983760 141.7418230   1.4479870 138.7793000 142.2863920
   1.0941360 140.1738830 141.8154290   4.9836600 129.7309920 137.1055030
   5.3517420 128.9105130 137.4334600   4.1234800 129.7911810 137.5210680
   8.3498630 128.6866860 127.9142590   7.7211790 128.7912530 127.2000820
   7.8550550 128.9063640 128.7036470   2.7956770 140.4072450 125.3476570
   2.8968750 140.2036440 124.4178550   1.8958510 140.1530730 125.5524350
   1.9438590 132.3849510 137.3293000   2.4423840 132.8595330 137.9944850
   2.0861540 131.4613030 137.5363030   4.3498090 127.6903470 130.7696260
   4.2265870 127.7089600 129.8205770   5.2982650 127.7382410 130.8894660
   9.1505450 128.6017470 138.1721390   8.6479050 129.3422870 138.5115200
   9.9662110 128.9901470 137.8558180   7.4427460 133.8450650 131.6182750
   6.5017600 133.8600880 131.7930440   7.7571530 133.0586610 132.0643050
   9.4453040 141.0159500 133.2937010   9.5700460 141.8390670 133.7660820
  10.3118600 140.8050230 132.9461160   4.7593480 138.4016650 142.1015130
   4.1531640 138.4248250 141.3610880   4.4547590 137.6699690 142.6382380
   6.1893850 142.1296940 140.7124540   7.1415600 142.0454960 140.6624780
   6.0422070 142.7938650 141.3858330   9.0803050 141.5091150 126.2116450
   8.7944560 141.0956290 125.3970630   8.8822600 142.4378860 126.0916970
   3.7853010 136.5644460 125.2564050   3.2363110 137.0113760 125.9006790
   4.4072270 136.0593710 125.7801720   7.8387950 137.9186560 141.1886310
   8.5797420 138.2562320 140.6853770   7.0760630 138.0878620 140.6356080
   1.9655770 134.5472990 124.4006450   2.4861430 133.8322010 124.0347600
   2.6124170 135.1858860 124.7006960   6.5133610 135.9701390 139.7241520
   6.9274630 136.1246470 140.5731940   5.5784610 136.0956610 139.8867300
   6.9855780 133.3097550 141.7280670   7.5676550 132.5549870 141.6401150
   7.1617550 133.8404990 140.9512150   3.6112740 133.6538050 139.0775290
   3.7308950 133.0579190 139.8170130   4.4706740 133.6907740 138.6576590
   5.9500640 134.2075240 137.6537800   5.4235860 134.7317860 137.0502940
   6.2931980 134.8402630 138.2847530   5.1974940 129.8125210 140.5684130
   4.5090460 129.1506750 140.5034120   5.9180960 129.3663480 141.0132590
   5.8275340 126.4076840 126.6274390   6.1077630 125.5644740 126.9833810
   5.0541070 126.6399950 127.1413140   1.9818470 143.4626090 139.0681830
   1.9077170 144.3661230 139.3754200   1.0797310 143.1437990 139.0403900
   2.5303800 142.6284600 126.6908190   3.4254590 142.9669570 126.7126950
   2.5621430 141.9064010 126.0632470   9.5098150 141.1588270 139.3974390
   8.9100140 141.2180830 138.6538310   9.6392050 140.2193250 139.5271240
  10.7499600 138.9006090 124.7344100   9.9192560 138.9682740 125.2051330
  10.9271430 139.7910210 124.4310960  10.2056060 135.6453570 127.2378300
  10.9674970 136.2150220 127.3437990  10.2210430 135.0780770 128.0086610
  11.2116030 136.5003670 132.0820230  11.5824860 135.7170990 131.6756200
  11.8517960 137.1892770 131.9037530   8.1949790 137.8840250 137.4950550
   7.3809630 138.3137410 137.7576340   8.6023990 138.4958660 136.8819600
  10.2575230 135.9387940 124.3950820  10.5324070 136.8466820 124.2670040
  10.0685970 135.8750470 125.3312810   6.6550840 128.9632790 125.6904450
   7.0735720 128.7763770 124.8501110   6.3486900 128.1111840 126.0007380
  10.1540570 133.8756930 129.3880250   9.7784170 133.1084860 128.9561540
   9.4243690 134.2579630 129.8755180   9.5440190 133.0228450 139.0219770
   9.3126280 132.7941200 138.1217720   9.8044740 133.9428000 138.9764660
   7.9828260 128.2484880 141.7999470   8.8598440 128.2568280 142.1833470
   7.9949100 127.5115720 141.1891820   9.4291530 132.1014420 132.6887490
   9.9529010 131.6077070 132.0577660  10.0150950 132.2364780 133.4335060
   9.6081250 132.1854290 136.2107040   8.6583960 132.1517830 136.3252030
   9.7894260 133.0954400 135.9756810   8.9191500 131.3587770 128.6279900
   9.4150620 131.1258640 129.4128780   8.7207570 130.5199610 128.2117540
  10.3478660 129.9948720 131.1617580  10.2377940 129.8404760 132.0999850
  11.1086250 129.4669660 130.9192990   8.6944380 125.9342850 137.6200580
   9.3316600 126.5476990 137.9859770   8.8419270 125.9703510 136.6749810
  11.2368930 127.8256640 124.4023720  12.1618240 127.6937820 124.1942010
  11.2144720 127.9049460 125.3560170  11.3107420 128.5967300 127.0280430
  10.5158920 128.5312420 127.5573340  11.5150700 129.5317940 127.0165780
   8.2525840 142.6358850 131.0218820   8.8484910 142.3143420 130.3453240
   8.5103990 142.1630670 131.8132090   2.0648860 127.0869040 140.5275680
   2.0037750 127.6790870 141.2771090   3.0049240 126.9795000 140.3825940
   4.7023420 126.7439100 140.1667970   5.3163830 127.0618390 139.5049050
   5.2472980 126.2587690 140.7863830  11.1198600 142.6430730 137.5729810
  10.6256880 143.0399600 136.8556940  10.5111890 142.0179940 137.9667090
   5.4431460 125.3071240 136.4937260   4.5691300 125.6406350 136.2910190
   5.3342210 124.8344420 137.3189130   6.3503440 127.5142110 137.8778980
   6.0216800 126.6993870 137.4980710   7.2985740 127.4711920 137.7544670
   8.8038050 143.2854150 134.8516550   8.3441020 144.0369960 134.4774570
   8.1750510 142.5660620 134.7931350   1.9729270 142.4850880 134.8533660
   2.2607080 142.2305180 133.9766670   2.4852490 141.9328240 135.4439230
   3.1906280 126.2241080 135.4330170   2.4078070 126.6986580 135.7126930
   2.8969210 125.3195910 135.3243350   7.7427350 126.9264180 133.4779260
   8.1835440 126.8709280 132.6300860   7.4734940 127.8422190 133.5489440
   9.6065920 126.5579420 131.4888080   9.5454320 125.6140640 131.3419100
  10.3857950 126.6659510 132.0341540   5.5785480 125.3070280 132.1829270
   6.1814850 125.8790490 132.6577790   4.8378470 125.8709720 131.9603170
   8.7220080 125.7091840 127.4569550   8.9170710 126.6075290 127.7236980
   7.9349950 125.4778920 127.9502500   2.0401630 143.4066980 142.2201860
   2.9668940 143.1711250 142.2637820   2.0252060 144.2338980 141.7387890
  10.2746690 142.9492550 129.2176110  10.4498880 142.2630290 128.5737030
   9.5768260 143.4739600 128.8252780   5.8280700 125.4865310 142.5624210
   5.7146150 125.8059920 143.4575730   6.6450440 125.8877820 142.2661490
   8.6079190 142.6336840 142.0442900   9.4004510 142.1386070 141.8368860
   8.9012340 143.3126980 142.6518510   4.7338850 133.5057780 112.9258950
   4.6532900 132.5912390 112.6550660   4.3203270 134.0024850 112.2198660
   2.8656890 135.2836800 114.8068220   2.0898990 134.8037240 115.0966790
   3.5169820 134.6042450 114.6324380   6.8864320 139.6896990 113.5867350
   6.4245850 138.9184230 113.9154520   7.6989870 139.7163060 114.0919800
   3.1127630 141.9755000 113.2071340   2.4939070 142.4312500 112.6365780
   3.9679410 142.1306460 112.8061040   2.3065880 137.9593990 114.8138380
   2.2374160 137.0183930 114.6527510   3.0685740 138.0495400 115.3860950
   3.3371050 130.7664370 115.0407310   3.7135870 129.8936250 114.9280980
   3.2390560 131.1023070 114.1497750   7.1195170 128.2614810 111.9735650
   7.9404790 127.7711380 112.0161130   7.1529250 128.8512470 112.7267490
  11.4094720 130.2781560 118.5379280  10.7046890 130.6663270 118.0194390
  11.6752640 130.9731850 119.1400210   3.9790980 136.8594240 110.6003250
   3.3608250 137.3243690 110.0365970   4.4914230 137.5521720 111.0172760
   7.3556650 130.2015190 114.7463190   6.6512220 130.4900080 115.3266300
   7.7168810 131.0115300 114.3862750   8.9719430 139.8190320 117.0090670
   8.2882950 140.4889430 117.0007340   9.5113720 140.0170970 116.2435530
  10.4243570 129.6469980 115.1372400   9.4768480 129.6808960 115.2687830
  10.7493560 130.4608930 115.5221760   6.5078170 141.6634450 115.7235850
   6.5205330 141.2596740 114.8558110   5.9553390 142.4381740 115.6197280
   7.8023590 138.3850670 110.8126020   7.6919920 137.4425000 110.9375440
   7.7991840 138.7466310 111.6988780   5.9063610 136.5664290 117.0518460
   6.3232400 136.3524400 116.2171920   6.6303430 136.8237080 117.6227080
   3.3443870 134.0115990 110.1688510   2.4173150 133.9453370 110.3976980
   3.4968690 134.9496120 110.0543750   3.3312950 130.2832990 107.1655670
   2.3916620 130.4446950 107.2508130   3.6496210 131.0018670 106.6191660
   9.8525710 134.9651510 117.1434700   9.0244340 135.0344600 116.6684830
  10.4476190 135.5505820 116.6750530   7.3741160 135.5736290 110.6723760
   6.7553580 135.2355840 110.0250060   7.3565610 134.9296050 111.3802950
   6.8167720 131.7520830 118.0889570   6.4038900 132.5774540 118.3429560
   6.0843670 131.1665870 117.8965930   7.5067820 141.7980160 118.7770550
   7.0298380 142.6052350 118.5843160   6.8229610 141.1458490 118.9296760
   5.5505860 134.8123100 107.6796510   5.9899140 133.9745530 107.5334330
   6.2634280 135.4452500 107.7660650   3.6601240 139.7519170 111.6477750
   4.0997150 140.4943500 111.2333140   3.5988130 139.9945740 112.5716710
   9.1323000 126.0665910 105.9937550   8.8195660 126.1592740 106.8936620
   9.8935470 126.6446940 105.9434980  11.0867030 141.5592100 123.8461940
  11.5626750 142.0374990 124.5251020  11.7074190 141.4909590 123.1207440
  10.4900280 138.7504950 121.0061950  10.6163340 138.5116830 120.0879130
  10.5321660 137.9189490 121.4784030   4.3517020 142.4532950 119.5756760
   4.8661690 142.3640960 120.3779190   3.5086100 142.7992650 119.8684670
   6.3271420 142.7388290 109.0040760   6.1672560 142.4491230 109.9022590
   6.1618130 141.9628420 108.4685990   6.0297550 140.2475850 107.5638760
   5.3362710 140.2453140 106.9041040   6.7720410 139.8235170 107.1332930
   5.5947480 141.8738560 111.6387250   6.0504430 141.0927940 111.9525870
   5.9340000 142.5845380 112.1828430  10.3424290 130.8037410 121.9711690
   9.7268560 131.3117080 121.4427150  10.0220710 129.9035740 121.9137630
   2.4038610 129.6429300 119.4373880   1.9417980 129.8512320 120.2493820
   2.0016720 128.8288650 119.1344550   7.4043120 130.8638250 120.5670540
   6.5536710 130.5644000 120.8879610   7.2444910 131.1080260 119.6554360
   4.4992830 132.3640000 122.6669330   4.8246240 131.5303750 122.3271560
   5.2873160 132.8868520 122.8147660   5.1380780 131.9057720 110.1610460
   4.5389670 132.6293520 109.9774080   5.6860390 131.8434500 109.3786910
   3.7445650 130.5421260 112.1913740   4.1375220 130.8593460 111.3782430
   4.1062500 129.6633140 112.3058260   2.0537820 129.2928570 123.4510600
   1.3636140 129.1000770 124.0856690   2.7970120 129.5763210 123.9834900
   4.3300790 133.1327010 116.2864520   3.5981910 133.6413820 116.6354620
   3.9325130 132.3156990 115.9853300   4.7926700 128.5860690 115.6987460
   4.8099440 129.0369340 116.5429310   4.5442280 127.6866330 115.9120900
   8.2197450 125.9992870 121.5373840   8.5443220 125.2682530 122.0631820
   8.2553960 125.6806510 120.6354830   8.1455290 136.1117980 115.1459870
   8.8654410 136.6073270 114.7555980   7.9437110 135.4335870 114.5013740
   3.6065230 127.5055940 109.2889260   2.7929840 127.0069110 109.2134570
   3.4127180 128.3454190 108.8725610   3.5274090 136.1827040 121.0328870
   3.4611400 135.2622710 120.7786460   2.8979230 136.2802480 121.7473510
   6.3213620 131.8775590 107.5851420   7.2093240 132.1892820 107.4102760
   6.2918710 131.0047840 107.1932000   2.3174210 138.0499280 108.2639590
   2.6589910 138.7941510 107.7682910   1.4886920 138.3630400 108.6264420
   3.4590820 139.0047610 120.7832670   3.4735360 138.0728570 120.5651580
   2.7515920 139.0907370 121.4222440   8.5927890 133.1887430 107.0531280
   8.5091610 133.6201650 106.2027720   9.3122080 133.6485780 107.4858100
   9.6702030 135.6454950 120.1301250   8.9450220 136.2383730 119.9330640
  10.1977490 135.6378490 119.3314620   9.6215140 140.0429690 109.7813410
   8.9791300 139.3885310 110.0557130   9.2345800 140.4484780 109.0054080
   5.2001620 137.3715120 113.6285100   5.5525440 136.7743250 112.9686470
   4.3163950 137.0459350 113.7993350   2.8924720 140.6465180 117.8773170
   3.5366940 140.8524560 118.5546590   3.2554160 139.8853580 117.4244020
   4.1656800 138.6497530 116.5950620   4.8079030 137.9490690 116.7082790
   4.6906150 139.4295970 116.4147510   8.0112520 138.9346150 106.3189760
   7.7850100 138.2176590 106.9114400   7.6208720 138.6858590 105.4811510
   5.9394420 139.4492430 119.7986680   6.2750660 140.0359120 120.4764600
   5.0194760 139.3185140 120.0284470   7.5928770 136.8518090 107.9803920
   7.3050470 137.3130780 108.7681800   8.3880940 136.3915860 108.2488140
   1.7683000 139.4983760 122.9674740   1.4479870 138.7793000 123.5120430
   1.0941360 140.1738830 123.0410800   4.9836600 129.7309920 118.3311540
   5.3517420 128.9105130 118.6591110   4.1234800 129.7911810 118.7467190
   8.3498630 128.6866860 109.1399100   7.7211790 128.7912530 108.4257330
   7.8550550 128.9063640 109.9292980   2.7956770 140.4072450 106.5733080
   2.8968750 140.2036440 105.6435060   1.8958510 140.1530730 106.7780860
   1.9438590 132.3849510 118.5549510   2.4423840 132.8595330 119.2201360
   2.0861540 131.4613030 118.7619540   4.3498090 127.6903470 111.9952770
   4.2265870 127.7089600 111.0462280   5.2982650 127.7382410 112.1151170
   9.1505450 128.6017470 119.3977900   8.6479050 129.3422870 119.7371710
   9.9662110 128.9901470 119.0814690   7.4427460 133.8450650 112.8439260
   6.5017600 133.8600880 113.0186950   7.7571530 133.0586610 113.2899560
   9.4453040 141.0159500 114.5193520   9.5700460 141.8390670 114.9917330
  10.3118600 140.8050230 114.1717670   4.7593480 138.4016650 123.3271640
   4.1531640 138.4248250 122.5867390   4.4547590 137.6699690 123.8638890
   6.1893850 142.1296940 121.9381050   7.1415600 142.0454960 121.8881290
   6.0422070 142.7938650 122.6114840   9.0803050 141.5091150 107.4372960
   8.7944560 141.0956290 106.6227140   8.8822600 142.4378860 107.3173480
   3.7853010 136.5644460 106.4820560   3.2363110 137.0113760 107.1263300
   4.4072270 136.0593710 107.0058230   7.8387950 137.9186560 122.4142820
   8.5797420 138.2562320 121.9110280   7.0760630 138.0878620 121.8612590
   1.9655770 134.5472990 105.6262960   2.4861430 133.8322010 105.2604110
   2.6124170 135.1858860 105.9263470   6.5133610 135.9701390 120.9498030
   6.9274630 136.1246470 121.7988450   5.5784610 136.0956610 121.1123810
   6.9855780 133.3097550 122.9537180   7.5676550 132.5549870 122.8657660
   7.1617550 133.8404990 122.1768660   3.6112740 133.6538050 120.3031800
   3.7308950 133.0579190 121.0426640   4.4706740 133.6907740 119.8833100
   5.9500640 134.2075240 118.8794310   5.4235860 134.7317860 118.2759450
   6.2931980 134.8402630 119.5104040   5.1974940 129.8125210 121.7940640
   4.5090460 129.1506750 121.7290630   5.9180960 129.3663480 122.2389100
   5.8275340 126.4076840 107.8530900   6.1077630 125.5644740 108.2090320
   5.0541070 126.6399950 108.3669650   1.9818470 143.4626090 120.2938340
   1.9077170 144.3661230 120.6010710   1.0797310 143.1437990 120.2660410
   2.5303800 142.6284600 107.9164700   3.4254590 142.9669570 107.9383460
   2.5621430 141.9064010 107.2888980   9.5098150 141.1588270 120.6230900
   8.9100140 141.2180830 119.8794820   9.6392050 140.2193250 120.7527750
  10.7499600 138.9006090 105.9600610   9.9192560 138.9682740 106.4307840
  10.9271430 139.7910210 105.6567470  10.2056060 135.6453570 108.4634810
  10.9674970 136.2150220 108.5694500  10.2210430 135.0780770 109.2343120
  11.2116030 136.5003670 113.3076740  11.5824860 135.7170990 112.9012710
  11.8517960 137.1892770 113.1294040   8.1949790 137.8840250 118.7207060
   7.3809630 138.3137410 118.9832850   8.6023990 138.4958660 118.1076110
  10.2575230 135.9387940 105.6207330  10.5324070 136.8466820 105.4926550
  10.0685970 135.8750470 106.5569320   6.6550840 128.9632790 106.9160960
   7.0735720 128.7763770 106.0757620   6.3486900 128.1111840 107.2263890
  10.1540570 133.8756930 110.6136760   9.7784170 133.1084860 110.1818050
   9.4243690 134.2579630 111.1011690   9.5440190 133.0228450 120.2476280
   9.3126280 132.7941200 119.3474230   9.8044740 133.9428000 120.2021170
   7.9828260 128.2484880 123.0255980   8.8598440 128.2568280 123.4089980
   7.9949100 127.5115720 122.4148330   9.4291530 132.1014420 113.9144000
   9.9529010 131.6077070 113.2834170  10.0150950 132.2364780 114.6591570
   9.6081250 132.1854290 117.4363550   8.6583960 132.1517830 117.5508540
   9.7894260 133.0954400 117.2013320   8.9191500 131.3587770 109.8536410
   9.4150620 131.1258640 110.6385290   8.7207570 130.5199610 109.4374050
  10.3478660 129.9948720 112.3874090  10.2377940 129.8404760 113.3256360
  11.1086250 129.4669660 112.1449500   8.6944380 125.9342850 118.8457090
   9.3316600 126.5476990 119.2116280   8.8419270 125.9703510 117.9006320
  11.2368930 127.8256640 105.6280230  12.1618240 127.6937820 105.4198520
  11.2144720 127.9049460 106.5816680  11.3107420 128.5967300 108.2536940
  10.5158920 128.5312420 108.7829850  11.5150700 129.5317940 108.2422290
   8.2525840 142.6358850 112.2475330   8.8484910 142.3143420 111.5709750
   8.5103990 142.1630670 113.0388600   2.0648860 127.0869040 121.7532190
   2.0037750 127.6790870 122.5027600   3.0049240 126.9795000 121.6082450
   4.7023420 126.7439100 121.3924480   5.3163830 127.0618390 120.7305560
   5.2472980 126.2587690 122.0120340  11.1198600 142.6430730 118.7986320
  10.6256880 143.0399600 118.0813450  10.5111890 142.0179940 119.1923600
   5.4431460 125.3071240 117.7193770   4.5691300 125.6406350 117.5166700
   5.3342210 124.8344420 118.5445640   6.3503440 127.5142110 119.1035490
   6.0216800 126.6993870 118.7237220   7.2985740 127.4711920 118.9801180
   8.8038050 143.2854150 116.0773060   8.3441020 144.0369960 115.7031080
   8.1750510 142.5660620 116.0187860   1.9729270 142.4850880 116.0790170
   2.2607080 142.2305180 115.2023180   2.4852490 141.9328240 116.6695740
   3.1906280 126.2241080 116.6586680   2.4078070 126.6986580 116.9383440
   2.8969210 125.3195910 116.5499860   7.7427350 126.9264180 114.7035770
   8.1835440 126.8709280 113.8557370   7.4734940 127.8422190 114.7745950
   9.6065920 126.5579420 112.7144590   9.5454320 125.6140640 112.5675610
  10.3857950 126.6659510 113.2598050   5.5785480 125.3070280 113.4085780
   6.1814850 125.8790490 113.8834300   4.8378470 125.8709720 113.1859680
   8.7220080 125.7091840 108.6826060   8.9170710 126.6075290 108.9493490
   7.9349950 125.4778920 109.1759010   2.0401630 143.4066980 123.4458370
   2.9668940 143.1711250 123.4894330   2.0252060 144.2338980 122.9644400
  10.2746690 142.9492550 110.4432620  10.4498880 142.2630290 109.7993540
   9.5768260 143.4739600 110.0509290   5.8280700 125.4865310 123.7880720
   5.7146150 125.8059920 124.6832240   6.6450440 125.8877820 123.4918000
   8.6079190 142.6336840 123.2699410   9.4004510 142.1386070 123.0625370
   8.9012340 143.3126980 123.8775020   4.7338850 133.5057780  94.1515460
   4.6532900 132.5912390  93.8807170   4.3203270 134.0024850  93.4455170
   2.8656890 135.2836800  96.0324730   2.0898990 134.8037240  96.3223300
   3.5169820 134.6042450  95.8580890   6.8864320 139.6896990  94.8123860
   6.4245850 138.9184230  95.1411030   7.6989870 139.7163060  95.3176310
   3.1127630 141.9755000  94.4327850   2.4939070 142.4312500  93.8622290
   3.9679410 142.1306460  94.0317550   2.3065880 137.9593990  96.0394890
   2.2374160 137.0183930  95.8784020   3.0685740 138.0495400  96.6117460
   3.3371050 130.7664370  96.2663820   3.7135870 129.8936250  96.1537490
   3.2390560 131.1023070  95.3754260   7.1195170 128.2614810  93.1992160
   7.9404790 127.7711380  93.2417640   7.1529250 128.8512470  93.9524000
  11.4094720 130.2781560  99.7635790  10.7046890 130.6663270  99.2450900
  11.6752640 130.9731850 100.3656720   3.9790980 136.8594240  91.8259760
   3.3608250 137.3243690  91.2622480   4.4914230 137.5521720  92.2429270
   7.3556650 130.2015190  95.9719700   6.6512220 130.4900080  96.5522810
   7.7168810 131.0115300  95.6119260   8.9719430 139.8190320  98.2347180
   8.2882950 140.4889430  98.2263850   9.5113720 140.0170970  97.4692040
  10.4243570 129.6469980  96.3628910   9.4768480 129.6808960  96.4944340
  10.7493560 130.4608930  96.7478270   6.5078170 141.6634450  96.9492360
   6.5205330 141.2596740  96.0814620   5.9553390 142.4381740  96.8453790
   7.8023590 138.3850670  92.0382530   7.6919920 137.4425000  92.1631950
   7.7991840 138.7466310  92.9245290   5.9063610 136.5664290  98.2774970
   6.3232400 136.3524400  97.4428430   6.6303430 136.8237080  98.8483590
   3.3443870 134.0115990  91.3945020   2.4173150 133.9453370  91.6233490
   3.4968690 134.9496120  91.2800260   3.3312950 130.2832990  88.3912180
   2.3916620 130.4446950  88.4764640   3.6496210 131.0018670  87.8448170
   9.8525710 134.9651510  98.3691210   9.0244340 135.0344600  97.8941340
  10.4476190 135.5505820  97.9007040   7.3741160 135.5736290  91.8980270
   6.7553580 135.2355840  91.2506570   7.3565610 134.9296050  92.6059460
   6.8167720 131.7520830  99.3146080   6.4038900 132.5774540  99.5686070
   6.0843670 131.1665870  99.1222440   7.5067820 141.7980160 100.0027060
   7.0298380 142.6052350  99.8099670   6.8229610 141.1458490 100.1553270
   5.5505860 134.8123100  88.9053020   5.9899140 133.9745530  88.7590840
   6.2634280 135.4452500  88.9917160   3.6601240 139.7519170  92.8734260
   4.0997150 140.4943500  92.4589650   3.5988130 139.9945740  93.7973220
   9.1323000 126.0665910  87.2194060   8.8195660 126.1592740  88.1193130
   9.8935470 126.6446940  87.1691490  11.0867030 141.5592100 105.0718450
  11.5626750 142.0374990 105.7507530  11.7074190 141.4909590 104.3463950
  10.4900280 138.7504950 102.2318460  10.6163340 138.5116830 101.3135640
  10.5321660 137.9189490 102.7040540   4.3517020 142.4532950 100.8013270
   4.8661690 142.3640960 101.6035700   3.5086100 142.7992650 101.0941180
   6.3271420 142.7388290  90.2297270   6.1672560 142.4491230  91.1279100
   6.1618130 141.9628420  89.6942500   6.0297550 140.2475850  88.7895270
   5.3362710 140.2453140  88.1297550   6.7720410 139.8235170  88.3589440
   5.5947480 141.8738560  92.8643760   6.0504430 141.0927940  93.1782380
   5.9340000 142.5845380  93.4084940  10.3424290 130.8037410 103.1968200
   9.7268560 131.3117080 102.6683660  10.0220710 129.9035740 103.1394140
   2.4038610 129.6429300 100.6630390   1.9417980 129.8512320 101.4750330
   2.0016720 128.8288650 100.3601060   7.4043120 130.8638250 101.7927050
   6.5536710 130.5644000 102.1136120   7.2444910 131.1080260 100.8810870
   4.4992830 132.3640000 103.8925840   4.8246240 131.5303750 103.5528070
   5.2873160 132.8868520 104.0404170   5.1380780 131.9057720  91.3866970
   4.5389670 132.6293520  91.2030590   5.6860390 131.8434500  90.6043420
   3.7445650 130.5421260  93.4170250   4.1375220 130.8593460  92.6038940
   4.1062500 129.6633140  93.5314770   2.0537820 129.2928570 104.6767110
   1.3636140 129.1000770 105.3113200   2.7970120 129.5763210 105.2091410
   4.3300790 133.1327010  97.5121030   3.5981910 133.6413820  97.8611130
   3.9325130 132.3156990  97.2109810   4.7926700 128.5860690  96.9243970
   4.8099440 129.0369340  97.7685820   4.5442280 127.6866330  97.1377410
   8.2197450 125.9992870 102.7630350   8.5443220 125.2682530 103.2888330
   8.2553960 125.6806510 101.8611340   8.1455290 136.1117980  96.3716380
   8.8654410 136.6073270  95.9812490   7.9437110 135.4335870  95.7270250
   3.6065230 127.5055940  90.5145770   2.7929840 127.0069110  90.4391080
   3.4127180 128.3454190  90.0982120   3.5274090 136.1827040 102.2585380
   3.4611400 135.2622710 102.0042970   2.8979230 136.2802480 102.9730020
   6.3213620 131.8775590  88.8107930   7.2093240 132.1892820  88.6359270
   6.2918710 131.0047840  88.4188510   2.3174210 138.0499280  89.4896100
   2.6589910 138.7941510  88.9939420   1.4886920 138.3630400  89.8520930
   3.4590820 139.0047610 102.0089180   3.4735360 138.0728570 101.7908090
   2.7515920 139.0907370 102.6478950   8.5927890 133.1887430  88.2787790
   8.5091610 133.6201650  87.4284230   9.3122080 133.6485780  88.7114610
   9.6702030 135.6454950 101.3557760   8.9450220 136.2383730 101.1587150
  10.1977490 135.6378490 100.5571130   9.6215140 140.0429690  91.0069920
   8.9791300 139.3885310  91.2813640   9.2345800 140.4484780  90.2310590
   5.2001620 137.3715120  94.8541610   5.5525440 136.7743250  94.1942980
   4.3163950 137.0459350  95.0249860   2.8924720 140.6465180  99.1029680
   3.5366940 140.8524560  99.7803100   3.2554160 139.8853580  98.6500530
   4.1656800 138.6497530  97.8207130   4.8079030 137.9490690  97.9339300
   4.6906150 139.4295970  97.6404020   8.0112520 138.9346150  87.5446270
   7.7850100 138.2176590  88.1370910   7.6208720 138.6858590  86.7068020
   5.9394420 139.4492430 101.0243190   6.2750660 140.0359120 101.7021110
   5.0194760 139.3185140 101.2540980   7.5928770 136.8518090  89.2060430
   7.3050470 137.3130780  89.9938310   8.3880940 136.3915860  89.4744650
   1.7683000 139.4983760 104.1931250   1.4479870 138.7793000 104.7376940
   1.0941360 140.1738830 104.2667310   4.9836600 129.7309920  99.5568050
   5.3517420 128.9105130  99.8847620   4.1234800 129.7911810  99.9723700
   8.3498630 128.6866860  90.3655610   7.7211790 128.7912530  89.6513840
   7.8550550 128.9063640  91.1549490   2.7956770 140.4072450  87.7989590
   2.8968750 140.2036440  86.8691570   1.8958510 140.1530730  88.0037370
   1.9438590 132.3849510  99.7806020   2.4423840 132.8595330 100.4457870
   2.0861540 131.4613030  99.9876050   4.3498090 127.6903470  93.2209280
   4.2265870 127.7089600  92.2718790   5.2982650 127.7382410  93.3407680
   9.1505450 128.6017470 100.6234410   8.6479050 129.3422870 100.9628220
   9.9662110 128.9901470 100.3071200   7.4427460 133.8450650  94.0695770
   6.5017600 133.8600880  94.2443460   7.7571530 133.0586610  94.5156070
   9.4453040 141.0159500  95.7450030   9.5700460 141.8390670  96.2173840
  10.3118600 140.8050230  95.3974180   4.7593480 138.4016650 104.5528150
   4.1531640 138.4248250 103.8123900   4.4547590 137.6699690 105.0895400
   6.1893850 142.1296940 103.1637560   7.1415600 142.0454960 103.1137800
   6.0422070 142.7938650 103.8371350   9.0803050 141.5091150  88.6629470
   8.7944560 141.0956290  87.8483650   8.8822600 142.4378860  88.5429990
   3.7853010 136.5644460  87.7077070   3.2363110 137.0113760  88.3519810
   4.4072270 136.0593710  88.2314740   7.8387950 137.9186560 103.6399330
   8.5797420 138.2562320 103.1366790   7.0760630 138.0878620 103.0869100
   1.9655770 134.5472990  86.8519470   2.4861430 133.8322010  86.4860620
   2.6124170 135.1858860  87.1519980   6.5133610 135.9701390 102.1754540
   6.9274630 136.1246470 103.0244960   5.5784610 136.0956610 102.3380320
   6.9855780 133.3097550 104.1793690   7.5676550 132.5549870 104.0914170
   7.1617550 133.8404990 103.4025170   3.6112740 133.6538050 101.5288310
   3.7308950 133.0579190 102.2683150   4.4706740 133.6907740 101.1089610
   5.9500640 134.2075240 100.1050820   5.4235860 134.7317860  99.5015960
   6.2931980 134.8402630 100.7360550   5.1974940 129.8125210 103.0197150
   4.5090460 129.1506750 102.9547140   5.9180960 129.3663480 103.4645610
   5.8275340 126.4076840  89.0787410   6.1077630 125.5644740  89.4346830
   5.0541070 126.6399950  89.5926160   1.9818470 143.4626090 101.5194850
   1.9077170 144.3661230 101.8267220   1.0797310 143.1437990 101.4916920
   2.5303800 142.6284600  89.1421210   3.4254590 142.9669570  89.1639970
   2.5621430 141.9064010  88.5145490   9.5098150 141.1588270 101.8487410
   8.9100140 141.2180830 101.1051330   9.6392050 140.2193250 101.9784260
  10.7499600 138.9006090  87.1857120   9.9192560 138.9682740  87.6564350
  10.9271430 139.7910210  86.8823980  10.2056060 135.6453570  89.6891320
  10.9674970 136.2150220  89.7951010  10.2210430 135.0780770  90.4599630
  11.2116030 136.5003670  94.5333250  11.5824860 135.7170990  94.1269220
  11.8517960 137.1892770  94.3550550   8.1949790 137.8840250  99.9463570
   7.3809630 138.3137410 100.2089360   8.6023990 138.4958660  99.3332620
  10.2575230 135.9387940  86.8463840  10.5324070 136.8466820  86.7183060
  10.0685970 135.8750470  87.7825830   6.6550840 128.9632790  88.1417470
   7.0735720 128.7763770  87.3014130   6.3486900 128.1111840  88.4520400
  10.1540570 133.8756930  91.8393270   9.7784170 133.1084860  91.4074560
   9.4243690 134.2579630  92.3268200   9.5440190 133.0228450 101.4732790
   9.3126280 132.7941200 100.5730740   9.8044740 133.9428000 101.4277680
   7.9828260 128.2484880 104.2512490   8.8598440 128.2568280 104.6346490
   7.9949100 127.5115720 103.6404840   9.4291530 132.1014420  95.1400510
   9.9529010 131.6077070  94.5090680  10.0150950 132.2364780  95.8848080
   9.6081250 132.1854290  98.6620060   8.6583960 132.1517830  98.7765050
   9.7894260 133.0954400  98.4269830   8.9191500 131.3587770  91.0792920
   9.4150620 131.1258640  91.8641800   8.7207570 130.5199610  90.6630560
  10.3478660 129.9948720  93.6130600  10.2377940 129.8404760  94.5512870
  11.1086250 129.4669660  93.3706010   8.6944380 125.9342850 100.0713600
   9.3316600 126.5476990 100.4372790   8.8419270 125.9703510  99.1262830
  11.2368930 127.8256640  86.8536740  12.1618240 127.6937820  86.6455030
  11.2144720 127.9049460  87.8073190  11.3107420 128.5967300  89.4793450
  10.5158920 128.5312420  90.0086360  11.5150700 129.5317940  89.4678800
   8.2525840 142.6358850  93.4731840   8.8484910 142.3143420  92.7966260
   8.5103990 142.1630670  94.2645110   2.0648860 127.0869040 102.9788700
   2.0037750 127.6790870 103.7284110   3.0049240 126.9795000 102.8338960
   4.7023420 126.7439100 102.6180990   5.3163830 127.0618390 101.9562070
   5.2472980 126.2587690 103.2376850  11.1198600 142.6430730 100.0242830
  10.6256880 143.0399600  99.3069960  10.5111890 142.0179940 100.4180110
   5.4431460 125.3071240  98.9450280   4.5691300 125.6406350  98.7423210
   5.3342210 124.8344420  99.7702150   6.3503440 127.5142110 100.3292000
   6.0216800 126.6993870  99.9493730   7.2985740 127.4711920 100.2057690
   8.8038050 143.2854150  97.3029570   8.3441020 144.0369960  96.9287590
   8.1750510 142.5660620  97.2444370   1.9729270 142.4850880  97.3046680
   2.2607080 142.2305180  96.4279690   2.4852490 141.9328240  97.8952250
   3.1906280 126.2241080  97.8843190   2.4078070 126.6986580  98.1639950
   2.8969210 125.3195910  97.7756370   7.7427350 126.9264180  95.9292280
   8.1835440 126.8709280  95.0813880   7.4734940 127.8422190  96.0002460
   9.6065920 126.5579420  93.9401100   9.5454320 125.6140640  93.7932120
  10.3857950 126.6659510  94.4854560   5.5785480 125.3070280  94.6342290
   6.1814850 125.8790490  95.1090810   4.8378470 125.8709720  94.4116190
   8.7220080 125.7091840  89.9082570   8.9170710 126.6075290  90.1750000
   7.9349950 125.4778920  90.4015520   2.0401630 143.4066980 104.6714880
   2.9668940 143.1711250 104.7150840   2.0252060 144.2338980 104.1900910
  10.2746690 142.9492550  91.6689130  10.4498880 142.2630290  91.0250050
   9.5768260 143.4739600  91.2765800   5.8280700 125.4865310 105.0137230
   5.7146150 125.8059920 105.9088750   6.6450440 125.8877820 104.7174510
   8.6079190 142.6336840 104.4955920   9.4004510 142.1386070 104.2881880
   8.9012340 143.3126980 105.1031530   4.7338850 133.5057780  75.3771970
   4.6532900 132.5912390  75.1063680   4.3203270 134.0024850  74.6711680
   2.8656890 135.2836800  77.2581240   2.0898990 134.8037240  77.5479810
   3.5169820 134.6042450  77.0837400   6.8864320 139.6896990  76.0380370
   6.4245850 138.9184230  76.3667540   7.6989870 139.7163060  76.5432820
   3.1127630 141.9755000  75.6584360   2.4939070 142.4312500  75.0878800
   3.9679410 142.1306460  75.2574060   2.3065880 137.9593990  77.2651400
   2.2374160 137.0183930  77.1040530   3.0685740 138.0495400  77.8373970
   3.3371050 130.7664370  77.4920330   3.7135870 129.8936250  77.3794000
   3.2390560 131.1023070  76.6010770   7.1195170 128.2614810  74.4248670
   7.9404790 127.7711380  74.4674150   7.1529250 128.8512470  75.1780510
  11.4094720 130.2781560  80.9892300  10.7046890 130.6663270  80.4707410
  11.6752640 130.9731850  81.5913230   3.9790980 136.8594240  73.0516270
   3.3608250 137.3243690  72.4878990   4.4914230 137.5521720  73.4685780
   7.3556650 130.2015190  77.1976210   6.6512220 130.4900080  77.7779320
   7.7168810 131.0115300  76.8375770   8.9719430 139.8190320  79.4603690
   8.2882950 140.4889430  79.4520360   9.5113720 140.0170970  78.6948550
  10.4243570 129.6469980  77.5885420   9.4768480 129.6808960  77.7200850
  10.7493560 130.4608930  77.9734780   6.5078170 141.6634450  78.1748870
   6.5205330 141.2596740  77.3071130   5.9553390 142.4381740  78.0710300
   7.8023590 138.3850670  73.2639040   7.6919920 137.4425000  73.3888460
   7.7991840 138.7466310  74.1501800   5.9063610 136.5664290  79.5031480
   6.3232400 136.3524400  78.6684940   6.6303430 136.8237080  80.0740100
   3.3443870 134.0115990  72.6201530   2.4173150 133.9453370  72.8490000
   3.4968690 134.9496120  72.5056770   3.3312950 130.2832990  69.6168690
   2.3916620 130.4446950  69.7021150   3.6496210 131.0018670  69.0704680
   9.8525710 134.9651510  79.5947720   9.0244340 135.0344600  79.1197850
  10.4476190 135.5505820  79.1263550   7.3741160 135.5736290  73.1236780
   6.7553580 135.2355840  72.4763080   7.3565610 134.9296050  73.8315970
   6.8167720 131.7520830  80.5402590   6.4038900 132.5774540  80.7942580
   6.0843670 131.1665870  80.3478950   7.5067820 141.7980160  81.2283570
   7.0298380 142.6052350  81.0356180   6.8229610 141.1458490  81.3809780
   5.5505860 134.8123100  70.1309530   5.9899140 133.9745530  69.9847350
   6.2634280 135.4452500  70.2173670   3.6601240 139.7519170  74.0990770
   4.0997150 140.4943500  73.6846160   3.5988130 139.9945740  75.0229730
   9.1323000 126.0665910  68.4450570   8.8195660 126.1592740  69.3449640
   9.8935470 126.6446940  68.3948000  11.0867030 141.5592100  86.2974960
  11.5626750 142.0374990  86.9764040  11.7074190 141.4909590  85.5720460
  10.4900280 138.7504950  83.4574970  10.6163340 138.5116830  82.5392150
  10.5321660 137.9189490  83.9297050   4.3517020 142.4532950  82.0269780
   4.8661690 142.3640960  82.8292210   3.5086100 142.7992650  82.3197690
   6.3271420 142.7388290  71.4553780   6.1672560 142.4491230  72.3535610
   6.1618130 141.9628420  70.9199010   6.0297550 140.2475850  70.0151780
   5.3362710 140.2453140  69.3554060   6.7720410 139.8235170  69.5845950
   5.5947480 141.8738560  74.0900270   6.0504430 141.0927940  74.4038890
   5.9340000 142.5845380  74.6341450  10.3424290 130.8037410  84.4224710
   9.7268560 131.3117080  83.8940170  10.0220710 129.9035740  84.3650650
   2.4038610 129.6429300  81.8886900   1.9417980 129.8512320  82.7006840
   2.0016720 128.8288650  81.5857570   7.4043120 130.8638250  83.0183560
   6.5536710 130.5644000  83.3392630   7.2444910 131.1080260  82.1067380
   4.4992830 132.3640000  85.1182350   4.8246240 131.5303750  84.7784580
   5.2873160 132.8868520  85.2660680   5.1380780 131.9057720  72.6123480
   4.5389670 132.6293520  72.4287100   5.6860390 131.8434500  71.8299930
   3.7445650 130.5421260  74.6426760   4.1375220 130.8593460  73.8295450
   4.1062500 129.6633140  74.7571280   2.0537820 129.2928570  85.9023620
   1.3636140 129.1000770  86.5369710   2.7970120 129.5763210  86.4347920
   4.3300790 133.1327010  78.7377540   3.5981910 133.6413820  79.0867640
   3.9325130 132.3156990  78.4366320   4.7926700 128.5860690  78.1500480
   4.8099440 129.0369340  78.9942330   4.5442280 127.6866330  78.3633920
   8.2197450 125.9992870  83.9886860   8.5443220 125.2682530  84.5144840
   8.2553960 125.6806510  83.0867850   8.1455290 136.1117980  77.5972890
   8.8654410 136.6073270  77.2069000   7.9437110 135.4335870  76.9526760
   3.6065230 127.5055940  71.7402280   2.7929840 127.0069110  71.6647590
   3.4127180 128.3454190  71.3238630   3.5274090 136.1827040  83.4841890
   3.4611400 135.2622710  83.2299480   2.8979230 136.2802480  84.1986530
   6.3213620 131.8775590  70.0364440   7.2093240 132.1892820  69.8615780
   6.2918710 131.0047840  69.6445020   2.3174210 138.0499280  70.7152610
   2.6589910 138.7941510  70.2195930   1.4886920 138.3630400  71.0777440
   3.4590820 139.0047610  83.2345690   3.4735360 138.0728570  83.0164600
   2.7515920 139.0907370  83.8735460   8.5927890 133.1887430  69.5044300
   8.5091610 133.6201650  68.6540740   9.3122080 133.6485780  69.9371120
   9.6702030 135.6454950  82.5814270   8.9450220 136.2383730  82.3843660
  10.1977490 135.6378490  81.7827640   9.6215140 140.0429690  72.2326430
   8.9791300 139.3885310  72.5070150   9.2345800 140.4484780  71.4567100
   5.2001620 137.3715120  76.0798120   5.5525440 136.7743250  75.4199490
   4.3163950 137.0459350  76.2506370   2.8924720 140.6465180  80.3286190
   3.5366940 140.8524560  81.0059610   3.2554160 139.8853580  79.8757040
   4.1656800 138.6497530  79.0463640   4.8079030 137.9490690  79.1595810
   4.6906150 139.4295970  78.8660530   8.0112520 138.9346150  68.7702780
   7.7850100 138.2176590  69.3627420   7.6208720 138.6858590  67.9324530
   5.9394420 139.4492430  82.2499700   6.2750660 140.0359120  82.9277620
   5.0194760 139.3185140  82.4797490   7.5928770 136.8518090  70.4316940
   7.3050470 137.3130780  71.2194820   8.3880940 136.3915860  70.7001160
   1.7683000 139.4983760  85.4187760   1.4479870 138.7793000  85.9633450
   1.0941360 140.1738830  85.4923820   4.9836600 129.7309920  80.7824560
   5.3517420 128.9105130  81.1104130   4.1234800 129.7911810  81.1980210
   8.3498630 128.6866860  71.5912120   7.7211790 128.7912530  70.8770350
   7.8550550 128.9063640  72.3806000   2.7956770 140.4072450  69.0246100
   2.8968750 140.2036440  68.0948080   1.8958510 140.1530730  69.2293880
   1.9438590 132.3849510  81.0062530   2.4423840 132.8595330  81.6714380
   2.0861540 131.4613030  81.2132560   4.3498090 127.6903470  74.4465790
   4.2265870 127.7089600  73.4975300   5.2982650 127.7382410  74.5664190
   9.1505450 128.6017470  81.8490920   8.6479050 129.3422870  82.1884730
   9.9662110 128.9901470  81.5327710   7.4427460 133.8450650  75.2952280
   6.5017600 133.8600880  75.4699970   7.7571530 133.0586610  75.7412580
   9.4453040 141.0159500  76.9706540   9.5700460 141.8390670  77.4430350
  10.3118600 140.8050230  76.6230690   4.7593480 138.4016650  85.7784660
   4.1531640 138.4248250  85.0380410   4.4547590 137.6699690  86.3151910
   6.1893850 142.1296940  84.3894070   7.1415600 142.0454960  84.3394310
   6.0422070 142.7938650  85.0627860   9.0803050 141.5091150  69.8885980
   8.7944560 141.0956290  69.0740160   8.8822600 142.4378860  69.7686500
   3.7853010 136.5644460  68.9333580   3.2363110 137.0113760  69.5776320
   4.4072270 136.0593710  69.4571250   7.8387950 137.9186560  84.8655840
   8.5797420 138.2562320  84.3623300   7.0760630 138.0878620  84.3125610
   1.9655770 134.5472990  68.0775980   2.4861430 133.8322010  67.7117130
   2.6124170 135.1858860  68.3776490   6.5133610 135.9701390  83.4011050
   6.9274630 136.1246470  84.2501470   5.5784610 136.0956610  83.5636830
   6.9855780 133.3097550  85.4050200   7.5676550 132.5549870  85.3170680
   7.1617550 133.8404990  84.6281680   3.6112740 133.6538050  82.7544820
   3.7308950 133.0579190  83.4939660   4.4706740 133.6907740  82.3346120
   5.9500640 134.2075240  81.3307330   5.4235860 134.7317860  80.7272470
   6.2931980 134.8402630  81.9617060   5.1974940 129.8125210  84.2453660
   4.5090460 129.1506750  84.1803650   5.9180960 129.3663480  84.6902120
   5.8275340 126.4076840  70.3043920   6.1077630 125.5644740  70.6603340
   5.0541070 126.6399950  70.8182670   1.9818470 143.4626090  82.7451360
   1.9077170 144.3661230  83.0523730   1.0797310 143.1437990  82.7173430
   2.5303800 142.6284600  70.3677720   3.4254590 142.9669570  70.3896480
   2.5621430 141.9064010  69.7402000   9.5098150 141.1588270  83.0743920
   8.9100140 141.2180830  82.3307840   9.6392050 140.2193250  83.2040770
  10.7499600 138.9006090  68.4113630   9.9192560 138.9682740  68.8820860
  10.9271430 139.7910210  68.1080490  10.2056060 135.6453570  70.9147830
  10.9674970 136.2150220  71.0207520  10.2210430 135.0780770  71.6856140
  11.2116030 136.5003670  75.7589760  11.5824860 135.7170990  75.3525730
  11.8517960 137.1892770  75.5807060   8.1949790 137.8840250  81.1720080
   7.3809630 138.3137410  81.4345870   8.6023990 138.4958660  80.5589130
  10.2575230 135.9387940  68.0720350  10.5324070 136.8466820  67.9439570
  10.0685970 135.8750470  69.0082340   6.6550840 128.9632790  69.3673980
   7.0735720 128.7763770  68.5270640   6.3486900 128.1111840  69.6776910
  10.1540570 133.8756930  73.0649780   9.7784170 133.1084860  72.6331070
   9.4243690 134.2579630  73.5524710   9.5440190 133.0228450  82.6989300
   9.3126280 132.7941200  81.7987250   9.8044740 133.9428000  82.6534190
   7.9828260 128.2484880  85.4769000   8.8598440 128.2568280  85.8603000
   7.9949100 127.5115720  84.8661350   9.4291530 132.1014420  76.3657020
   9.9529010 131.6077070  75.7347190  10.0150950 132.2364780  77.1104590
   9.6081250 132.1854290  79.8876570   8.6583960 132.1517830  80.0021560
   9.7894260 133.0954400  79.6526340   8.9191500 131.3587770  72.3049430
   9.4150620 131.1258640  73.0898310   8.7207570 130.5199610  71.8887070
  10.3478660 129.9948720  74.8387110  10.2377940 129.8404760  75.7769380
  11.1086250 129.4669660  74.5962520   8.6944380 125.9342850  81.2970110
   9.3316600 126.5476990  81.6629300   8.8419270 125.9703510  80.3519340
  11.2368930 127.8256640  68.0793250  12.1618240 127.6937820  67.8711540
  11.2144720 127.9049460  69.0329700  11.3107420 128.5967300  70.7049960
  10.5158920 128.5312420  71.2342870  11.5150700 129.5317940  70.6935310
   8.2525840 142.6358850  74.6988350   8.8484910 142.3143420  74.0222770
   8.5103990 142.1630670  75.4901620   2.0648860 127.0869040  84.2045210
   2.0037750 127.6790870  84.9540620   3.0049240 126.9795000  84.0595470
   4.7023420 126.7439100  83.8437500   5.3163830 127.0618390  83.1818580
   5.2472980 126.2587690  84.4633360  11.1198600 142.6430730  81.2499340
  10.6256880 143.0399600  80.5326470  10.5111890 142.0179940  81.6436620
   5.4431460 125.3071240  80.1706790   4.5691300 125.6406350  79.9679720
   5.3342210 124.8344420  80.9958660   6.3503440 127.5142110  81.5548510
   6.0216800 126.6993870  81.1750240   7.2985740 127.4711920  81.4314200
   8.8038050 143.2854150  78.5286080   8.3441020 144.0369960  78.1544100
   8.1750510 142.5660620  78.4700880   1.9729270 142.4850880  78.5303190
   2.2607080 142.2305180  77.6536200   2.4852490 141.9328240  79.1208760
   3.1906280 126.2241080  79.1099700   2.4078070 126.6986580  79.3896460
   2.8969210 125.3195910  79.0012880   7.7427350 126.9264180  77.1548790
   8.1835440 126.8709280  76.3070390   7.4734940 127.8422190  77.2258970
   9.6065920 126.5579420  75.1657610   9.5454320 125.6140640  75.0188630
  10.3857950 126.6659510  75.7111070   5.5785480 125.3070280  75.8598800
   6.1814850 125.8790490  76.3347320   4.8378470 125.8709720  75.6372700
   8.7220080 125.7091840  71.1339080   8.9170710 126.6075290  71.4006510
   7.9349950 125.4778920  71.6272030   2.0401630 143.4066980  85.8971390
   2.9668940 143.1711250  85.9407350   2.0252060 144.2338980  85.4157420
  10.2746690 142.9492550  72.8945640  10.4498880 142.2630290  72.2506560
   9.5768260 143.4739600  72.5022310   5.8280700 125.4865310  86.2393740
   5.7146150 125.8059920  87.1345260   6.6450440 125.8877820  85.9431020
   8.6079190 142.6336840  85.7212430   9.4004510 142.1386070  85.5138390
   8.9012340 143.3126980  86.3288040   4.7338850 133.5057780  56.6028480
   4.6532900 132.5912390  56.3320190   4.3203270 134.0024850  55.8968190
   2.8656890 135.2836800  58.4837750   2.0898990 134.8037240  58.7736320
   3.5169820 134.6042450  58.3093910   6.8864320 139.6896990  57.2636880
   6.4245850 138.9184230  57.5924050   7.6989870 139.7163060  57.7689330
   3.1127630 141.9755000  56.8840870   2.4939070 142.4312500  56.3135310
   3.9679410 142.1306460  56.4830570   2.3065880 137.9593990  58.4907910
   2.2374160 137.0183930  58.3297040   3.0685740 138.0495400  59.0630480
   3.3371050 130.7664370  58.7176840   3.7135870 129.8936250  58.6050510
   3.2390560 131.1023070  57.8267280   7.1195170 128.2614810  55.6505180
   7.9404790 127.7711380  55.6930660   7.1529250 128.8512470  56.4037020
  11.4094720 130.2781560  62.2148810  10.7046890 130.6663270  61.6963920
  11.6752640 130.9731850  62.8169740   3.9790980 136.8594240  54.2772780
   3.3608250 137.3243690  53.7135500   4.4914230 137.5521720  54.6942290
   7.3556650 130.2015190  58.4232720   6.6512220 130.4900080  59.0035830
   7.7168810 131.0115300  58.0632280   8.9719430 139.8190320  60.6860200
   8.2882950 140.4889430  60.6776870   9.5113720 140.0170970  59.9205060
  10.4243570 129.6469980  58.8141930   9.4768480 129.6808960  58.9457360
  10.7493560 130.4608930  59.1991290   6.5078170 141.6634450  59.4005380
   6.5205330 141.2596740  58.5327640   5.9553390 142.4381740  59.2966810
   7.8023590 138.3850670  54.4895550   7.6919920 137.4425000  54.6144970
   7.7991840 138.7466310  55.3758310   5.9063610 136.5664290  60.7287990
   6.3232400 136.3524400  59.8941450   6.6303430 136.8237080  61.2996610
   3.3443870 134.0115990  53.8458040   2.4173150 133.9453370  54.0746510
   3.4968690 134.9496120  53.7313280   3.3312950 130.2832990  50.8425200
   2.3916620 130.4446950  50.9277660   3.6496210 131.0018670  50.2961190
   9.8525710 134.9651510  60.8204230   9.0244340 135.0344600  60.3454360
  10.4476190 135.5505820  60.3520060   7.3741160 135.5736290  54.3493290
   6.7553580 135.2355840  53.7019590   7.3565610 134.9296050  55.0572480
   6.8167720 131.7520830  61.7659100   6.4038900 132.5774540  62.0199090
   6.0843670 131.1665870  61.5735460   7.5067820 141.7980160  62.4540080
   7.0298380 142.6052350  62.2612690   6.8229610 141.1458490  62.6066290
   5.5505860 134.8123100  51.3566040   5.9899140 133.9745530  51.2103860
   6.2634280 135.4452500  51.4430180   3.6601240 139.7519170  55.3247280
   4.0997150 140.4943500  54.9102670   3.5988130 139.9945740  56.2486240
   9.1323000 126.0665910  49.6707080   8.8195660 126.1592740  50.5706150
   9.8935470 126.6446940  49.6204510  11.0867030 141.5592100  67.5231470
  11.5626750 142.0374990  68.2020550  11.7074190 141.4909590  66.7976970
  10.4900280 138.7504950  64.6831480  10.6163340 138.5116830  63.7648660
  10.5321660 137.9189490  65.1553560   4.3517020 142.4532950  63.2526290
   4.8661690 142.3640960  64.0548720   3.5086100 142.7992650  63.5454200
   6.3271420 142.7388290  52.6810290   6.1672560 142.4491230  53.5792120
   6.1618130 141.9628420  52.1455520   6.0297550 140.2475850  51.2408290
   5.3362710 140.2453140  50.5810570   6.7720410 139.8235170  50.8102460
   5.5947480 141.8738560  55.3156780   6.0504430 141.0927940  55.6295400
   5.9340000 142.5845380  55.8597960  10.3424290 130.8037410  65.6481220
   9.7268560 131.3117080  65.1196680  10.0220710 129.9035740  65.5907160
   2.4038610 129.6429300  63.1143410   1.9417980 129.8512320  63.9263350
   2.0016720 128.8288650  62.8114080   7.4043120 130.8638250  64.2440070
   6.5536710 130.5644000  64.5649140   7.2444910 131.1080260  63.3323890
   4.4992830 132.3640000  66.3438860   4.8246240 131.5303750  66.0041090
   5.2873160 132.8868520  66.4917190   5.1380780 131.9057720  53.8379990
   4.5389670 132.6293520  53.6543610   5.6860390 131.8434500  53.0556440
   3.7445650 130.5421260  55.8683270   4.1375220 130.8593460  55.0551960
   4.1062500 129.6633140  55.9827790   2.0537820 129.2928570  67.1280130
   1.3636140 129.1000770  67.7626220   2.7970120 129.5763210  67.6604430
   4.3300790 133.1327010  59.9634050   3.5981910 133.6413820  60.3124150
   3.9325130 132.3156990  59.6622830   4.7926700 128.5860690  59.3756990
   4.8099440 129.0369340  60.2198840   4.5442280 127.6866330  59.5890430
   8.2197450 125.9992870  65.2143370   8.5443220 125.2682530  65.7401350
   8.2553960 125.6806510  64.3124360   8.1455290 136.1117980  58.8229400
   8.8654410 136.6073270  58.4325510   7.9437110 135.4335870  58.1783270
   3.6065230 127.5055940  52.9658790   2.7929840 127.0069110  52.8904100
   3.4127180 128.3454190  52.5495140   3.5274090 136.1827040  64.7098400
   3.4611400 135.2622710  64.4555990   2.8979230 136.2802480  65.4243040
   6.3213620 131.8775590  51.2620950   7.2093240 132.1892820  51.0872290
   6.2918710 131.0047840  50.8701530   2.3174210 138.0499280  51.9409120
   2.6589910 138.7941510  51.4452440   1.4886920 138.3630400  52.3033950
   3.4590820 139.0047610  64.4602200   3.4735360 138.0728570  64.2421110
   2.7515920 139.0907370  65.0991970   8.5927890 133.1887430  50.7300810
   8.5091610 133.6201650  49.8797250   9.3122080 133.6485780  51.1627630
   9.6702030 135.6454950  63.8070780   8.9450220 136.2383730  63.6100170
  10.1977490 135.6378490  63.0084150   9.6215140 140.0429690  53.4582940
   8.9791300 139.3885310  53.7326660   9.2345800 140.4484780  52.6823610
   5.2001620 137.3715120  57.3054630   5.5525440 136.7743250  56.6456000
   4.3163950 137.0459350  57.4762880   2.8924720 140.6465180  61.5542700
   3.5366940 140.8524560  62.2316120   3.2554160 139.8853580  61.1013550
   4.1656800 138.6497530  60.2720150   4.8079030 137.9490690  60.3852320
   4.6906150 139.4295970  60.0917040   8.0112520 138.9346150  49.9959290
   7.7850100 138.2176590  50.5883930   7.6208720 138.6858590  49.1581040
   5.9394420 139.4492430  63.4756210   6.2750660 140.0359120  64.1534130
   5.0194760 139.3185140  63.7054000   7.5928770 136.8518090  51.6573450
   7.3050470 137.3130780  52.4451330   8.3880940 136.3915860  51.9257670
   1.7683000 139.4983760  66.6444270   1.4479870 138.7793000  67.1889960
   1.0941360 140.1738830  66.7180330   4.9836600 129.7309920  62.0081070
   5.3517420 128.9105130  62.3360640   4.1234800 129.7911810  62.4236720
   8.3498630 128.6866860  52.8168630   7.7211790 128.7912530  52.1026860
   7.8550550 128.9063640  53.6062510   2.7956770 140.4072450  50.2502610
   2.8968750 140.2036440  49.3204590   1.8958510 140.1530730  50.4550390
   1.9438590 132.3849510  62.2319040   2.4423840 132.8595330  62.8970890
   2.0861540 131.4613030  62.4389070   4.3498090 127.6903470  55.6722300
   4.2265870 127.7089600  54.7231810   5.2982650 127.7382410  55.7920700
   9.1505450 128.6017470  63.0747430   8.6479050 129.3422870  63.4141240
   9.9662110 128.9901470  62.7584220   7.4427460 133.8450650  56.5208790
   6.5017600 133.8600880  56.6956480   7.7571530 133.0586610  56.9669090
   9.4453040 141.0159500  58.1963050   9.5700460 141.8390670  58.6686860
  10.3118600 140.8050230  57.8487200   4.7593480 138.4016650  67.0041170
   4.1531640 138.4248250  66.2636920   4.4547590 137.6699690  67.5408420
   6.1893850 142.1296940  65.6150580   7.1415600 142.0454960  65.5650820
   6.0422070 142.7938650  66.2884370   9.0803050 141.5091150  51.1142490
   8.7944560 141.0956290  50.2996670   8.8822600 142.4378860  50.9943010
   3.7853010 136.5644460  50.1590090   3.2363110 137.0113760  50.8032830
   4.4072270 136.0593710  50.6827760   7.8387950 137.9186560  66.0912350
   8.5797420 138.2562320  65.5879810   7.0760630 138.0878620  65.5382120
   1.9655770 134.5472990  49.3032490   2.4861430 133.8322010  48.9373640
   2.6124170 135.1858860  49.6033000   6.5133610 135.9701390  64.6267560
   6.9274630 136.1246470  65.4757980   5.5784610 136.0956610  64.7893340
   6.9855780 133.3097550  66.6306710   7.5676550 132.5549870  66.5427190
   7.1617550 133.8404990  65.8538190   3.6112740 133.6538050  63.9801330
   3.7308950 133.0579190  64.7196170   4.4706740 133.6907740  63.5602630
   5.9500640 134.2075240  62.5563840   5.4235860 134.7317860  61.9528980
   6.2931980 134.8402630  63.1873570   5.1974940 129.8125210  65.4710170
   4.5090460 129.1506750  65.4060160   5.9180960 129.3663480  65.9158630
   5.8275340 126.4076840  51.5300430   6.1077630 125.5644740  51.8859850
   5.0541070 126.6399950  52.0439180   1.9818470 143.4626090  63.9707870
   1.9077170 144.3661230  64.2780240   1.0797310 143.1437990  63.9429940
   2.5303800 142.6284600  51.5934230   3.4254590 142.9669570  51.6152990
   2.5621430 141.9064010  50.9658510   9.5098150 141.1588270  64.3000430
   8.9100140 141.2180830  63.5564350   9.6392050 140.2193250  64.4297280
  10.7499600 138.9006090  49.6370140   9.9192560 138.9682740  50.1077370
  10.9271430 139.7910210  49.3337000  10.2056060 135.6453570  52.1404340
  10.9674970 136.2150220  52.2464030  10.2210430 135.0780770  52.9112650
  11.2116030 136.5003670  56.9846270  11.5824860 135.7170990  56.5782240
  11.8517960 137.1892770  56.8063570   8.1949790 137.8840250  62.3976590
   7.3809630 138.3137410  62.6602380   8.6023990 138.4958660  61.7845640
  10.2575230 135.9387940  49.2976860  10.5324070 136.8466820  49.1696080
  10.0685970 135.8750470  50.2338850   6.6550840 128.9632790  50.5930490
   7.0735720 128.7763770  49.7527150   6.3486900 128.1111840  50.9033420
  10.1540570 133.8756930  54.2906290   9.7784170 133.1084860  53.8587580
   9.4243690 134.2579630  54.7781220   9.5440190 133.0228450  63.9245810
   9.3126280 132.7941200  63.0243760   9.8044740 133.9428000  63.8790700
   7.9828260 128.2484880  66.7025510   8.8598440 128.2568280  67.0859510
   7.9949100 127.5115720  66.0917860   9.4291530 132.1014420  57.5913530
   9.9529010 131.6077070  56.9603700  10.0150950 132.2364780  58.3361100
   9.6081250 132.1854290  61.1133080   8.6583960 132.1517830  61.2278070
   9.7894260 133.0954400  60.8782850   8.9191500 131.3587770  53.5305940
   9.4150620 131.1258640  54.3154820   8.7207570 130.5199610  53.1143580
  10.3478660 129.9948720  56.0643620  10.2377940 129.8404760  57.0025890
  11.1086250 129.4669660  55.8219030   8.6944380 125.9342850  62.5226620
   9.3316600 126.5476990  62.8885810   8.8419270 125.9703510  61.5775850
  11.2368930 127.8256640  49.3049760  12.1618240 127.6937820  49.0968050
  11.2144720 127.9049460  50.2586210  11.3107420 128.5967300  51.9306470
  10.5158920 128.5312420  52.4599380  11.5150700 129.5317940  51.9191820
   8.2525840 142.6358850  55.9244860   8.8484910 142.3143420  55.2479280
   8.5103990 142.1630670  56.7158130   2.0648860 127.0869040  65.4301720
   2.0037750 127.6790870  66.1797130   3.0049240 126.9795000  65.2851980
   4.7023420 126.7439100  65.0694010   5.3163830 127.0618390  64.4075090
   5.2472980 126.2587690  65.6889870  11.1198600 142.6430730  62.4755850
  10.6256880 143.0399600  61.7582980  10.5111890 142.0179940  62.8693130
   5.4431460 125.3071240  61.3963300   4.5691300 125.6406350  61.1936230
   5.3342210 124.8344420  62.2215170   6.3503440 127.5142110  62.7805020
   6.0216800 126.6993870  62.4006750   7.2985740 127.4711920  62.6570710
   8.8038050 143.2854150  59.7542590   8.3441020 144.0369960  59.3800610
   8.1750510 142.5660620  59.6957390   1.9729270 142.4850880  59.7559700
   2.2607080 142.2305180  58.8792710   2.4852490 141.9328240  60.3465270
   3.1906280 126.2241080  60.3356210   2.4078070 126.6986580  60.6152970
   2.8969210 125.3195910  60.2269390   7.7427350 126.9264180  58.3805300
   8.1835440 126.8709280  57.5326900   7.4734940 127.8422190  58.4515480
   9.6065920 126.5579420  56.3914120   9.5454320 125.6140640  56.2445140
  10.3857950 126.6659510  56.9367580   5.5785480 125.3070280  57.0855310
   6.1814850 125.8790490  57.5603830   4.8378470 125.8709720  56.8629210
   8.7220080 125.7091840  52.3595590   8.9170710 126.6075290  52.6263020
   7.9349950 125.4778920  52.8528540   2.0401630 143.4066980  67.1227900
   2.9668940 143.1711250  67.1663860   2.0252060 144.2338980  66.6413930
  10.2746690 142.9492550  54.1202150  10.4498880 142.2630290  53.4763070
   9.5768260 143.4739600  53.7278820   5.8280700 125.4865310  67.4650250
   5.7146150 125.8059920  68.3601770   6.6450440 125.8877820  67.1687530
   8.6079190 142.6336840  66.9468940   9.4004510 142.1386070  66.7394900
   8.9012340 143.3126980  67.5544550   4.7338850 133.5057780  37.8284990
   4.6532900 132.5912390  37.5576700   4.3203270 134.0024850  37.1224700
   2.8656890 135.2836800  39.7094260   2.0898990 134.8037240  39.9992830
   3.5169820 134.6042450  39.5350420   6.8864320 139.6896990  38.4893390
   6.4245850 138.9184230  38.8180560   7.6989870 139.7163060  38.9945840
   3.1127630 141.9755000  38.1097380   2.4939070 142.4312500  37.5391820
   3.9679410 142.1306460  37.7087080   2.3065880 137.9593990  39.7164420
   2.2374160 137.0183930  39.5553550   3.0685740 138.0495400  40.2886990
   3.3371050 130.7664370  39.9433350   3.7135870 129.8936250  39.8307020
   3.2390560 131.1023070  39.0523790   7.1195170 128.2614810  36.8761690
   7.9404790 127.7711380  36.9187170   7.1529250 128.8512470  37.6293530
  11.4094720 130.2781560  43.4405320  10.7046890 130.6663270  42.9220430
  11.6752640 130.9731850  44.0426250   3.9790980 136.8594240  35.5029290
   3.3608250 137.3243690  34.9392010   4.4914230 137.5521720  35.9198800
   7.3556650 130.2015190  39.6489230   6.6512220 130.4900080  40.2292340
   7.7168810 131.0115300  39.2888790   8.9719430 139.8190320  41.9116710
   8.2882950 140.4889430  41.9033380   9.5113720 140.0170970  41.1461570
  10.4243570 129.6469980  40.0398440   9.4768480 129.6808960  40.1713870
  10.7493560 130.4608930  40.4247800   6.5078170 141.6634450  40.6261890
   6.5205330 141.2596740  39.7584150   5.9553390 142.4381740  40.5223320
   7.8023590 138.3850670  35.7152060   7.6919920 137.4425000  35.8401480
   7.7991840 138.7466310  36.6014820   5.9063610 136.5664290  41.9544500
   6.3232400 136.3524400  41.1197960   6.6303430 136.8237080  42.5253120
   3.3443870 134.0115990  35.0714550   2.4173150 133.9453370  35.3003020
   3.4968690 134.9496120  34.9569790   3.3312950 130.2832990  32.0681710
   2.3916620 130.4446950  32.1534170   3.6496210 131.0018670  31.5217700
   9.8525710 134.9651510  42.0460740   9.0244340 135.0344600  41.5710870
  10.4476190 135.5505820  41.5776570   7.3741160 135.5736290  35.5749800
   6.7553580 135.2355840  34.9276100   7.3565610 134.9296050  36.2828990
   6.8167720 131.7520830  42.9915610   6.4038900 132.5774540  43.2455600
   6.0843670 131.1665870  42.7991970   7.5067820 141.7980160  43.6796590
   7.0298380 142.6052350  43.4869200   6.8229610 141.1458490  43.8322800
   5.5505860 134.8123100  32.5822550   5.9899140 133.9745530  32.4360370
   6.2634280 135.4452500  32.6686690   3.6601240 139.7519170  36.5503790
   4.0997150 140.4943500  36.1359180   3.5988130 139.9945740  37.4742750
   9.1323000 126.0665910  30.8963590   8.8195660 126.1592740  31.7962660
   9.8935470 126.6446940  30.8461020  11.0867030 141.5592100  48.7487980
  11.5626750 142.0374990  49.4277060  11.7074190 141.4909590  48.0233480
  10.4900280 138.7504950  45.9087990  10.6163340 138.5116830  44.9905170
  10.5321660 137.9189490  46.3810070   4.3517020 142.4532950  44.4782800
   4.8661690 142.3640960  45.2805230   3.5086100 142.7992650  44.7710710
   6.3271420 142.7388290  33.9066800   6.1672560 142.4491230  34.8048630
   6.1618130 141.9628420  33.3712030   6.0297550 140.2475850  32.4664800
   5.3362710 140.2453140  31.8067080   6.7720410 139.8235170  32.0358970
   5.5947480 141.8738560  36.5413290   6.0504430 141.0927940  36.8551910
   5.9340000 142.5845380  37.0854470  10.3424290 130.8037410  46.8737730
   9.7268560 131.3117080  46.3453190  10.0220710 129.9035740  46.8163670
   2.4038610 129.6429300  44.3399920   1.9417980 129.8512320  45.1519860
   2.0016720 128.8288650  44.0370590   7.4043120 130.8638250  45.4696580
   6.5536710 130.5644000  45.7905650   7.2444910 131.1080260  44.5580400
   4.4992830 132.3640000  47.5695370   4.8246240 131.5303750  47.2297600
   5.2873160 132.8868520  47.7173700   5.1380780 131.9057720  35.0636500
   4.5389670 132.6293520  34.8800120   5.6860390 131.8434500  34.2812950
   3.7445650 130.5421260  37.0939780   4.1375220 130.8593460  36.2808470
   4.1062500 129.6633140  37.2084300   2.0537820 129.2928570  48.3536640
   1.3636140 129.1000770  48.9882730   2.7970120 129.5763210  48.8860940
   4.3300790 133.1327010  41.1890560   3.5981910 133.6413820  41.5380660
   3.9325130 132.3156990  40.8879340   4.7926700 128.5860690  40.6013500
   4.8099440 129.0369340  41.4455350   4.5442280 127.6866330  40.8146940
   8.2197450 125.9992870  46.4399880   8.5443220 125.2682530  46.9657860
   8.2553960 125.6806510  45.5380870   8.1455290 136.1117980  40.0485910
   8.8654410 136.6073270  39.6582020   7.9437110 135.4335870  39.4039780
   3.6065230 127.5055940  34.1915300   2.7929840 127.0069110  34.1160610
   3.4127180 128.3454190  33.7751650   3.5274090 136.1827040  45.9354910
   3.4611400 135.2622710  45.6812500   2.8979230 136.2802480  46.6499550
   6.3213620 131.8775590  32.4877460   7.2093240 132.1892820  32.3128800
   6.2918710 131.0047840  32.0958040   2.3174210 138.0499280  33.1665630
   2.6589910 138.7941510  32.6708950   1.4886920 138.3630400  33.5290460
   3.4590820 139.0047610  45.6858710   3.4735360 138.0728570  45.4677620
   2.7515920 139.0907370  46.3248480   8.5927890 133.1887430  31.9557320
   8.5091610 133.6201650  31.1053760   9.3122080 133.6485780  32.3884140
   9.6702030 135.6454950  45.0327290   8.9450220 136.2383730  44.8356680
  10.1977490 135.6378490  44.2340660   9.6215140 140.0429690  34.6839450
   8.9791300 139.3885310  34.9583170   9.2345800 140.4484780  33.9080120
   5.2001620 137.3715120  38.5311140   5.5525440 136.7743250  37.8712510
   4.3163950 137.0459350  38.7019390   2.8924720 140.6465180  42.7799210
   3.5366940 140.8524560  43.4572630   3.2554160 139.8853580  42.3270060
   4.1656800 138.6497530  41.4976660   4.8079030 137.9490690  41.6108830
   4.6906150 139.4295970  41.3173550   8.0112520 138.9346150  31.2215800
   7.7850100 138.2176590  31.8140440   7.6208720 138.6858590  30.3837550
   5.9394420 139.4492430  44.7012720   6.2750660 140.0359120  45.3790640
   5.0194760 139.3185140  44.9310510   7.5928770 136.8518090  32.8829960
   7.3050470 137.3130780  33.6707840   8.3880940 136.3915860  33.1514180
   1.7683000 139.4983760  47.8700780   1.4479870 138.7793000  48.4146470
   1.0941360 140.1738830  47.9436840   4.9836600 129.7309920  43.2337580
   5.3517420 128.9105130  43.5617150   4.1234800 129.7911810  43.6493230
   8.3498630 128.6866860  34.0425140   7.7211790 128.7912530  33.3283370
   7.8550550 128.9063640  34.8319020   2.7956770 140.4072450  31.4759120
   2.8968750 140.2036440  30.5461100   1.8958510 140.1530730  31.6806900
   1.9438590 132.3849510  43.4575550   2.4423840 132.8595330  44.1227400
   2.0861540 131.4613030  43.6645580   4.3498090 127.6903470  36.8978810
   4.2265870 127.7089600  35.9488320   5.2982650 127.7382410  37.0177210
   9.1505450 128.6017470  44.3003940   8.6479050 129.3422870  44.6397750
   9.9662110 128.9901470  43.9840730   7.4427460 133.8450650  37.7465300
   6.5017600 133.8600880  37.9212990   7.7571530 133.0586610  38.1925600
   9.4453040 141.0159500  39.4219560   9.5700460 141.8390670  39.8943370
  10.3118600 140.8050230  39.0743710   4.7593480 138.4016650  48.2297680
   4.1531640 138.4248250  47.4893430   4.4547590 137.6699690  48.7664930
   6.1893850 142.1296940  46.8407090   7.1415600 142.0454960  46.7907330
   6.0422070 142.7938650  47.5140880   9.0803050 141.5091150  32.3399000
   8.7944560 141.0956290  31.5253180   8.8822600 142.4378860  32.2199520
   3.7853010 136.5644460  31.3846600   3.2363110 137.0113760  32.0289340
   4.4072270 136.0593710  31.9084270   7.8387950 137.9186560  47.3168860
   8.5797420 138.2562320  46.8136320   7.0760630 138.0878620  46.7638630
   1.9655770 134.5472990  30.5289000   2.4861430 133.8322010  30.1630150
   2.6124170 135.1858860  30.8289510   6.5133610 135.9701390  45.8524070
   6.9274630 136.1246470  46.7014490   5.5784610 136.0956610  46.0149850
   6.9855780 133.3097550  47.8563220   7.5676550 132.5549870  47.7683700
   7.1617550 133.8404990  47.0794700   3.6112740 133.6538050  45.2057840
   3.7308950 133.0579190  45.9452680   4.4706740 133.6907740  44.7859140
   5.9500640 134.2075240  43.7820350   5.4235860 134.7317860  43.1785490
   6.2931980 134.8402630  44.4130080   5.1974940 129.8125210  46.6966680
   4.5090460 129.1506750  46.6316670   5.9180960 129.3663480  47.1415140
   5.8275340 126.4076840  32.7556940   6.1077630 125.5644740  33.1116360
   5.0541070 126.6399950  33.2695690   1.9818470 143.4626090  45.1964380
   1.9077170 144.3661230  45.5036750   1.0797310 143.1437990  45.1686450
   2.5303800 142.6284600  32.8190740   3.4254590 142.9669570  32.8409500
   2.5621430 141.9064010  32.1915020   9.5098150 141.1588270  45.5256940
   8.9100140 141.2180830  44.7820860   9.6392050 140.2193250  45.6553790
  10.7499600 138.9006090  30.8626650   9.9192560 138.9682740  31.3333880
  10.9271430 139.7910210  30.5593510  10.2056060 135.6453570  33.3660850
  10.9674970 136.2150220  33.4720540  10.2210430 135.0780770  34.1369160
  11.2116030 136.5003670  38.2102780  11.5824860 135.7170990  37.8038750
  11.8517960 137.1892770  38.0320080   8.1949790 137.8840250  43.6233100
   7.3809630 138.3137410  43.8858890   8.6023990 138.4958660  43.0102150
  10.2575230 135.9387940  30.5233370  10.5324070 136.8466820  30.3952590
  10.0685970 135.8750470  31.4595360   6.6550840 128.9632790  31.8187000
   7.0735720 128.7763770  30.9783660   6.3486900 128.1111840  32.1289930
  10.1540570 133.8756930  35.5162800   9.7784170 133.1084860  35.0844090
   9.4243690 134.2579630  36.0037730   9.5440190 133.0228450  45.1502320
   9.3126280 132.7941200  44.2500270   9.8044740 133.9428000  45.1047210
   7.9828260 128.2484880  47.9282020   8.8598440 128.2568280  48.3116020
   7.9949100 127.5115720  47.3174370   9.4291530 132.1014420  38.8170040
   9.9529010 131.6077070  38.1860210  10.0150950 132.2364780  39.5617610
   9.6081250 132.1854290  42.3389590   8.6583960 132.1517830  42.4534580
   9.7894260 133.0954400  42.1039360   8.9191500 131.3587770  34.7562450
   9.4150620 131.1258640  35.5411330   8.7207570 130.5199610  34.3400090
  10.3478660 129.9948720  37.2900130  10.2377940 129.8404760  38.2282400
  11.1086250 129.4669660  37.0475540   8.6944380 125.9342850  43.7483130
   9.3316600 126.5476990  44.1142320   8.8419270 125.9703510  42.8032360
  11.2368930 127.8256640  30.5306270  12.1618240 127.6937820  30.3224560
  11.2144720 127.9049460  31.4842720  11.3107420 128.5967300  33.1562980
  10.5158920 128.5312420  33.6855890  11.5150700 129.5317940  33.1448330
   8.2525840 142.6358850  37.1501370   8.8484910 142.3143420  36.4735790
   8.5103990 142.1630670  37.9414640   2.0648860 127.0869040  46.6558230
   2.0037750 127.6790870  47.4053640   3.0049240 126.9795000  46.5108490
   4.7023420 126.7439100  46.2950520   5.3163830 127.0618390  45.6331600
   5.2472980 126.2587690  46.9146380  11.1198600 142.6430730  43.7012360
  10.6256880 143.0399600  42.9839490  10.5111890 142.0179940  44.0949640
   5.4431460 125.3071240  42.6219810   4.5691300 125.6406350  42.4192740
   5.3342210 124.8344420  43.4471680   6.3503440 127.5142110  44.0061530
   6.0216800 126.6993870  43.6263260   7.2985740 127.4711920  43.8827220
   8.8038050 143.2854150  40.9799100   8.3441020 144.0369960  40.6057120
   8.1750510 142.5660620  40.9213900   1.9729270 142.4850880  40.9816210
   2.2607080 142.2305180  40.1049220   2.4852490 141.9328240  41.5721780
   3.1906280 126.2241080  41.5612720   2.4078070 126.6986580  41.8409480
   2.8969210 125.3195910  41.4525900   7.7427350 126.9264180  39.6061810
   8.1835440 126.8709280  38.7583410   7.4734940 127.8422190  39.6771990
   9.6065920 126.5579420  37.6170630   9.5454320 125.6140640  37.4701650
  10.3857950 126.6659510  38.1624090   5.5785480 125.3070280  38.3111820
   6.1814850 125.8790490  38.7860340   4.8378470 125.8709720  38.0885720
   8.7220080 125.7091840  33.5852100   8.9170710 126.6075290  33.8519530
   7.9349950 125.4778920  34.0785050   2.0401630 143.4066980  48.3484410
   2.9668940 143.1711250  48.3920370   2.0252060 144.2338980  47.8670440
  10.2746690 142.9492550  35.3458660  10.4498880 142.2630290  34.7019580
   9.5768260 143.4739600  34.9535330   5.8280700 125.4865310  48.6906760
   5.7146150 125.8059920  49.5858280   6.6450440 125.8877820  48.3944040
   8.6079190 142.6336840  48.1725450   9.4004510 142.1386070  47.9651410
   8.9012340 143.3126980  48.7801060   4.7338850 133.5057780  19.0541500
   4.6532900 132.5912390  18.7833210   4.3203270 134.0024850  18.3481210
   2.8656890 135.2836800  20.9350770   2.0898990 134.8037240  21.2249340
   3.5169820 134.6042450  20.7606930   6.8864320 139.6896990  19.7149900
   6.4245850 138.9184230  20.0437070   7.6989870 139.7163060  20.2202350
   3.1127630 141.9755000  19.3353890   2.4939070 142.4312500  18.7648330
   3.9679410 142.1306460  18.9343590   2.3065880 137.9593990  20.9420930
   2.2374160 137.0183930  20.7810060   3.0685740 138.0495400  21.5143500
   3.3371050 130.7664370  21.1689860   3.7135870 129.8936250  21.0563530
   3.2390560 131.1023070  20.2780300   7.1195170 128.2614810  18.1018200
   7.9404790 127.7711380  18.1443680   7.1529250 128.8512470  18.8550040
  11.4094720 130.2781560  24.6661830  10.7046890 130.6663270  24.1476940
  11.6752640 130.9731850  25.2682760   3.9790980 136.8594240  16.7285800
   3.3608250 137.3243690  16.1648520   4.4914230 137.5521720  17.1455310
   7.3556650 130.2015190  20.8745740   6.6512220 130.4900080  21.4548850
   7.7168810 131.0115300  20.5145300   8.9719430 139.8190320  23.1373220
   8.2882950 140.4889430  23.1289890   9.5113720 140.0170970  22.3718080
  10.4243570 129.6469980  21.2654950   9.4768480 129.6808960  21.3970380
  10.7493560 130.4608930  21.6504310   6.5078170 141.6634450  21.8518400
   6.5205330 141.2596740  20.9840660   5.9553390 142.4381740  21.7479830
   7.8023590 138.3850670  16.9408570   7.6919920 137.4425000  17.0657990
   7.7991840 138.7466310  17.8271330   5.9063610 136.5664290  23.1801010
   6.3232400 136.3524400  22.3454470   6.6303430 136.8237080  23.7509630
   3.3443870 134.0115990  16.2971060   2.4173150 133.9453370  16.5259530
   3.4968690 134.9496120  16.1826300   3.3312950 130.2832990  13.2938220
   2.3916620 130.4446950  13.3790680   3.6496210 131.0018670  12.7474210
   9.8525710 134.9651510  23.2717250   9.0244340 135.0344600  22.7967380
  10.4476190 135.5505820  22.8033080   7.3741160 135.5736290  16.8006310
   6.7553580 135.2355840  16.1532610   7.3565610 134.9296050  17.5085500
   6.8167720 131.7520830  24.2172120   6.4038900 132.5774540  24.4712110
   6.0843670 131.1665870  24.0248480   7.5067820 141.7980160  24.9053100
   7.0298380 142.6052350  24.7125710   6.8229610 141.1458490  25.0579310
   5.5505860 134.8123100  13.8079060   5.9899140 133.9745530  13.6616880
   6.2634280 135.4452500  13.8943200   3.6601240 139.7519170  17.7760300
   4.0997150 140.4943500  17.3615690   3.5988130 139.9945740  18.6999260
   9.1323000 126.0665910  12.1220100   8.8195660 126.1592740  13.0219170
   9.8935470 126.6446940  12.0717530  11.0867030 141.5592100  29.9744490
  11.5626750 142.0374990  30.6533570  11.7074190 141.4909590  29.2489990
  10.4900280 138.7504950  27.1344500  10.6163340 138.5116830  26.2161680
  10.5321660 137.9189490  27.6066580   4.3517020 142.4532950  25.7039310
   4.8661690 142.3640960  26.5061740   3.5086100 142.7992650  25.9967220
   6.3271420 142.7388290  15.1323310   6.1672560 142.4491230  16.0305140
   6.1618130 141.9628420  14.5968540   6.0297550 140.2475850  13.6921310
   5.3362710 140.2453140  13.0323590   6.7720410 139.8235170  13.2615480
   5.5947480 141.8738560  17.7669800   6.0504430 141.0927940  18.0808420
   5.9340000 142.5845380  18.3110980  10.3424290 130.8037410  28.0994240
   9.7268560 131.3117080  27.5709700  10.0220710 129.9035740  28.0420180
   2.4038610 129.6429300  25.5656430   1.9417980 129.8512320  26.3776370
   2.0016720 128.8288650  25.2627100   7.4043120 130.8638250  26.6953090
   6.5536710 130.5644000  27.0162160   7.2444910 131.1080260  25.7836910
   4.4992830 132.3640000  28.7951880   4.8246240 131.5303750  28.4554110
   5.2873160 132.8868520  28.9430210   5.1380780 131.9057720  16.2893010
   4.5389670 132.6293520  16.1056630   5.6860390 131.8434500  15.5069460
   3.7445650 130.5421260  18.3196290   4.1375220 130.8593460  17.5064980
   4.1062500 129.6633140  18.4340810   2.0537820 129.2928570  29.5793150
   1.3636140 129.1000770  30.2139240   2.7970120 129.5763210  30.1117450
   4.3300790 133.1327010  22.4147070   3.5981910 133.6413820  22.7637170
   3.9325130 132.3156990  22.1135850   4.7926700 128.5860690  21.8270010
   4.8099440 129.0369340  22.6711860   4.5442280 127.6866330  22.0403450
   8.2197450 125.9992870  27.6656390   8.5443220 125.2682530  28.1914370
   8.2553960 125.6806510  26.7637380   8.1455290 136.1117980  21.2742420
   8.8654410 136.6073270  20.8838530   7.9437110 135.4335870  20.6296290
   3.6065230 127.5055940  15.4171810   2.7929840 127.0069110  15.3417120
   3.4127180 128.3454190  15.0008160   3.5274090 136.1827040  27.1611420
   3.4611400 135.2622710  26.9069010   2.8979230 136.2802480  27.8756060
   6.3213620 131.8775590  13.7133970   7.2093240 132.1892820  13.5385310
   6.2918710 131.0047840  13.3214550   2.3174210 138.0499280  14.3922140
   2.6589910 138.7941510  13.8965460   1.4886920 138.3630400  14.7546970
   3.4590820 139.0047610  26.9115220   3.4735360 138.0728570  26.6934130
   2.7515920 139.0907370  27.5504990   8.5927890 133.1887430  13.1813830
   8.5091610 133.6201650  12.3310270   9.3122080 133.6485780  13.6140650
   9.6702030 135.6454950  26.2583800   8.9450220 136.2383730  26.0613190
  10.1977490 135.6378490  25.4597170   9.6215140 140.0429690  15.9095960
   8.9791300 139.3885310  16.1839680   9.2345800 140.4484780  15.1336630
   5.2001620 137.3715120  19.7567650   5.5525440 136.7743250  19.0969020
   4.3163950 137.0459350  19.9275900   2.8924720 140.6465180  24.0055720
   3.5366940 140.8524560  24.6829140   3.2554160 139.8853580  23.5526570
   4.1656800 138.6497530  22.7233170   4.8079030 137.9490690  22.8365340
   4.6906150 139.4295970  22.5430060   8.0112520 138.9346150  12.4472310
   7.7850100 138.2176590  13.0396950   7.6208720 138.6858590  11.6094060
   5.9394420 139.4492430  25.9269230   6.2750660 140.0359120  26.6047150
   5.0194760 139.3185140  26.1567020   7.5928770 136.8518090  14.1086470
   7.3050470 137.3130780  14.8964350   8.3880940 136.3915860  14.3770690
   1.7683000 139.4983760  29.0957290   1.4479870 138.7793000  29.6402980
   1.0941360 140.1738830  29.1693350   4.9836600 129.7309920  24.4594090
   5.3517420 128.9105130  24.7873660   4.1234800 129.7911810  24.8749740
   8.3498630 128.6866860  15.2681650   7.7211790 128.7912530  14.5539880
   7.8550550 128.9063640  16.0575530   2.7956770 140.4072450  12.7015630
   2.8968750 140.2036440  11.7717610   1.8958510 140.1530730  12.9063410
   1.9438590 132.3849510  24.6832060   2.4423840 132.8595330  25.3483910
   2.0861540 131.4613030  24.8902090   4.3498090 127.6903470  18.1235320
   4.2265870 127.7089600  17.1744830   5.2982650 127.7382410  18.2433720
   9.1505450 128.6017470  25.5260450   8.6479050 129.3422870  25.8654260
   9.9662110 128.9901470  25.2097240   7.4427460 133.8450650  18.9721810
   6.5017600 133.8600880  19.1469500   7.7571530 133.0586610  19.4182110
   9.4453040 141.0159500  20.6476070   9.5700460 141.8390670  21.1199880
  10.3118600 140.8050230  20.3000220   4.7593480 138.4016650  29.4554190
   4.1531640 138.4248250  28.7149940   4.4547590 137.6699690  29.9921440
   6.1893850 142.1296940  28.0663600   7.1415600 142.0454960  28.0163840
   6.0422070 142.7938650  28.7397390   9.0803050 141.5091150  13.5655510
   8.7944560 141.0956290  12.7509690   8.8822600 142.4378860  13.4456030
   3.7853010 136.5644460  12.6103110   3.2363110 137.0113760  13.2545850
   4.4072270 136.0593710  13.1340780   7.8387950 137.9186560  28.5425370
   8.5797420 138.2562320  28.0392830   7.0760630 138.0878620  27.9895140
   1.9655770 134.5472990  11.7545510   2.4861430 133.8322010  11.3886660
   2.6124170 135.1858860  12.0546020   6.5133610 135.9701390  27.0780580
   6.9274630 136.1246470  27.9271000   5.5784610 136.0956610  27.2406360
   6.9855780 133.3097550  29.0819730   7.5676550 132.5549870  28.9940210
   7.1617550 133.8404990  28.3051210   3.6112740 133.6538050  26.4314350
   3.7308950 133.0579190  27.1709190   4.4706740 133.6907740  26.0115650
   5.9500640 134.2075240  25.0076860   5.4235860 134.7317860  24.4042000
   6.2931980 134.8402630  25.6386590   5.1974940 129.8125210  27.9223190
   4.5090460 129.1506750  27.8573180   5.9180960 129.3663480  28.3671650
   5.8275340 126.4076840  13.9813450   6.1077630 125.5644740  14.3372870
   5.0541070 126.6399950  14.4952200   1.9818470 143.4626090  26.4220890
   1.9077170 144.3661230  26.7293260   1.0797310 143.1437990  26.3942960
   2.5303800 142.6284600  14.0447250   3.4254590 142.9669570  14.0666010
   2.5621430 141.9064010  13.4171530   9.5098150 141.1588270  26.7513450
   8.9100140 141.2180830  26.0077370   9.6392050 140.2193250  26.8810300
  10.7499600 138.9006090  12.0883160   9.9192560 138.9682740  12.5590390
  10.9271430 139.7910210  11.7850020  10.2056060 135.6453570  14.5917360
  10.9674970 136.2150220  14.6977050  10.2210430 135.0780770  15.3625670
  11.2116030 136.5003670  19.4359290  11.5824860 135.7170990  19.0295260
  11.8517960 137.1892770  19.2576590   8.1949790 137.8840250  24.8489610
   7.3809630 138.3137410  25.1115400   8.6023990 138.4958660  24.2358660
  10.2575230 135.9387940  11.7489880  10.5324070 136.8466820  11.6209100
  10.0685970 135.8750470  12.6851870   6.6550840 128.9632790  13.0443510
   7.0735720 128.7763770  12.2040170   6.3486900 128.1111840  13.3546440
  10.1540570 133.8756930  16.7419310   9.7784170 133.1084860  16.3100600
   9.4243690 134.2579630  17.2294240   9.5440190 133.0228450  26.3758830
   9.3126280 132.7941200  25.4756780   9.8044740 133.9428000  26.3303720
   7.9828260 128.2484880  29.1538530   8.8598440 128.2568280  29.5372530
   7.9949100 127.5115720  28.5430880   9.4291530 132.1014420  20.0426550
   9.9529010 131.6077070  19.4116720  10.0150950 132.2364780  20.7874120
   9.6081250 132.1854290  23.5646100   8.6583960 132.1517830  23.6791090
   9.7894260 133.0954400  23.3295870   8.9191500 131.3587770  15.9818960
   9.4150620 131.1258640  16.7667840   8.7207570 130.5199610  15.5656600
  10.3478660 129.9948720  18.5156640  10.2377940 129.8404760  19.4538910
  11.1086250 129.4669660  18.2732050   8.6944380 125.9342850  24.9739640
   9.3316600 126.5476990  25.3398830   8.8419270 125.9703510  24.0288870
  11.2368930 127.8256640  11.7562780  12.1618240 127.6937820  11.5481070
  11.2144720 127.9049460  12.7099230  11.3107420 128.5967300  14.3819490
  10.5158920 128.5312420  14.9112400  11.5150700 129.5317940  14.3704840
   8.2525840 142.6358850  18.3757880   8.8484910 142.3143420  17.6992300
   8.5103990 142.1630670  19.1671150   2.0648860 127.0869040  27.8814740
   2.0037750 127.6790870  28.6310150   3.0049240 126.9795000  27.7365000
   4.7023420 126.7439100  27.5207030   5.3163830 127.0618390  26.8588110
   5.2472980 126.2587690  28.1402890  11.1198600 142.6430730  24.9268870
  10.6256880 143.0399600  24.2096000  10.5111890 142.0179940  25.3206150
   5.4431460 125.3071240  23.8476320   4.5691300 125.6406350  23.6449250
   5.3342210 124.8344420  24.6728190   6.3503440 127.5142110  25.2318040
   6.0216800 126.6993870  24.8519770   7.2985740 127.4711920  25.1083730
   8.8038050 143.2854150  22.2055610   8.3441020 144.0369960  21.8313630
   8.1750510 142.5660620  22.1470410   1.9729270 142.4850880  22.2072720
   2.2607080 142.2305180  21.3305730   2.4852490 141.9328240  22.7978290
   3.1906280 126.2241080  22.7869230   2.4078070 126.6986580  23.0665990
   2.8969210 125.3195910  22.6782410   7.7427350 126.9264180  20.8318320
   8.1835440 126.8709280  19.9839920   7.4734940 127.8422190  20.9028500
   9.6065920 126.5579420  18.8427140   9.5454320 125.6140640  18.6958160
  10.3857950 126.6659510  19.3880600   5.5785480 125.3070280  19.5368330
   6.1814850 125.8790490  20.0116850   4.8378470 125.8709720  19.3142230
   8.7220080 125.7091840  14.8108610   8.9170710 126.6075290  15.0776040
   7.9349950 125.4778920  15.3041560   2.0401630 143.4066980  29.5740920
   2.9668940 143.1711250  29.6176880   2.0252060 144.2338980  29.0926950
  10.2746690 142.9492550  16.5715170  10.4498880 142.2630290  15.9276090
   9.5768260 143.4739600  16.1791840   5.8280700 125.4865310  29.9163270
   5.7146150 125.8059920  30.8114790   6.6450440 125.8877820  29.6200550
   8.6079190 142.6336840  29.3981960   9.4004510 142.1386070  29.1907920
   8.9012340 143.3126980  30.0057570   2.8656890 135.2836800   2.1607280
   2.0898990 134.8037240   2.4505850   3.5169820 134.6042450   1.9863440
   2.3065880 137.9593990   2.1677440   2.2374160 137.0183930   2.0066570
   3.0685740 138.0495400   2.7400010  11.4094720 130.2781560   5.8918340
  10.7046890 130.6663270   5.3733450  11.6752640 130.9731850   6.4939270
   7.3556650 130.2015190   2.1002250   6.6512220 130.4900080   2.6805360
   7.7168810 131.0115300   1.7401810   8.9719430 139.8190320   4.3629730
   8.2882950 140.4889430   4.3546400   9.5113720 140.0170970   3.5974590
  10.4243570 129.6469980   2.4911460   9.4768480 129.6808960   2.6226890
  10.7493560 130.4608930   2.8760820   6.5078170 141.6634450   3.0774910
   6.5205330 141.2596740   2.2097170   5.9553390 142.4381740   2.9736340
   5.9063610 136.5664290   4.4057520   6.3232400 136.3524400   3.5710980
   6.6303430 136.8237080   4.9766140   9.8525710 134.9651510   4.4973760
   9.0244340 135.0344600   4.0223890  10.4476190 135.5505820   4.0289590
   6.8167720 131.7520830   5.4428630   6.4038900 132.5774540   5.6968620
   6.0843670 131.1665870   5.2504990   7.5067820 141.7980160   6.1309610
   7.0298380 142.6052350   5.9382220   6.8229610 141.1458490   6.2835820
  11.0867030 141.5592100  11.2001000  11.5626750 142.0374990  11.8790080
  11.7074190 141.4909590  10.4746500  10.4900280 138.7504950   8.3601010
  10.6163340 138.5116830   7.4418190  10.5321660 137.9189490   8.8323090
   4.3517020 142.4532950   6.9295820   4.8661690 142.3640960   7.7318250
   3.5086100 142.7992650   7.2223730  10.3424290 130.8037410   9.3250750
   9.7268560 131.3117080   8.7966210  10.0220710 129.9035740   9.2676690
   2.4038610 129.6429300   6.7912940   1.9417980 129.8512320   7.6032880
   2.0016720 128.8288650   6.4883610   7.4043120 130.8638250   7.9209600
   6.5536710 130.5644000   8.2418670   7.2444910 131.1080260   7.0093420
   4.4992830 132.3640000  10.0208390   4.8246240 131.5303750   9.6810620
   5.2873160 132.8868520  10.1686720   2.0537820 129.2928570  10.8049660
   1.3636140 129.1000770  11.4395750   2.7970120 129.5763210  11.3373960
   4.3300790 133.1327010   3.6403580   3.5981910 133.6413820   3.9893680
   3.9325130 132.3156990   3.3392360   4.7926700 128.5860690   3.0526520
   4.8099440 129.0369340   3.8968370   4.5442280 127.6866330   3.2659960
   8.2197450 125.9992870   8.8912900   8.5443220 125.2682530   9.4170880
   8.2553960 125.6806510   7.9893890   8.1455290 136.1117980   2.4998930
   8.8654410 136.6073270   2.1095040   7.9437110 135.4335870   1.8552800
   3.5274090 136.1827040   8.3867930   3.4611400 135.2622710   8.1325520
   2.8979230 136.2802480   9.1012570   3.4590820 139.0047610   8.1371730
   3.4735360 138.0728570   7.9190640   2.7515920 139.0907370   8.7761500
   9.6702030 135.6454950   7.4840310   8.9450220 136.2383730   7.2869700
  10.1977490 135.6378490   6.6853680   2.8924720 140.6465180   5.2312230
   3.5366940 140.8524560   5.9085650   3.2554160 139.8853580   4.7783080
   4.1656800 138.6497530   3.9489680   4.8079030 137.9490690   4.0621850
   4.6906150 139.4295970   3.7686570   5.9394420 139.4492430   7.1525740
   6.2750660 140.0359120   7.8303660   5.0194760 139.3185140   7.3823530
   1.7683000 139.4983760  10.3213800   1.4479870 138.7793000  10.8659490
   1.0941360 140.1738830  10.3949860   4.9836600 129.7309920   5.6850600
   5.3517420 128.9105130   6.0130170   4.1234800 129.7911810   6.1006250
   1.9438590 132.3849510   5.9088570   2.4423840 132.8595330   6.5740420
   2.0861540 131.4613030   6.1158600   9.1505450 128.6017470   6.7516960
   8.6479050 129.3422870   7.0910770   9.9662110 128.9901470   6.4353750
   4.7593480 138.4016650  10.6810700   4.1531640 138.4248250   9.9406450
   4.4547590 137.6699690  11.2177950   6.1893850 142.1296940   9.2920110
   7.1415600 142.0454960   9.2420350   6.0422070 142.7938650   9.9653900
   7.8387950 137.9186560   9.7681880   8.5797420 138.2562320   9.2649340
   7.0760630 138.0878620   9.2151650   6.5133610 135.9701390   8.3037090
   6.9274630 136.1246470   9.1527510   5.5784610 136.0956610   8.4662870
   6.9855780 133.3097550  10.3076240   7.5676550 132.5549870  10.2196720
   7.1617550 133.8404990   9.5307720   3.6112740 133.6538050   7.6570860
   3.7308950 133.0579190   8.3965700   4.4706740 133.6907740   7.2372160
   5.9500640 134.2075240   6.2333370   5.4235860 134.7317860   5.6298510
   6.2931980 134.8402630   6.8643100   5.1974940 129.8125210   9.1479700
   4.5090460 129.1506750   9.0829690   5.9180960 129.3663480   9.5928160
   1.9818470 143.4626090   7.6477400   1.9077170 144.3661230   7.9549770
   1.0797310 143.1437990   7.6199470   9.5098150 141.1588270   7.9769960
   8.9100140 141.2180830   7.2333880   9.6392050 140.2193250   8.1066810
   8.1949790 137.8840250   6.0746120   7.3809630 138.3137410   6.3371910
   8.6023990 138.4958660   5.4615170   9.5440190 133.0228450   7.6015340
   9.3126280 132.7941200   6.7013290   9.8044740 133.9428000   7.5560230
   7.9828260 128.2484880  10.3795040   8.8598440 128.2568280  10.7629040
   7.9949100 127.5115720   9.7687390   9.6081250 132.1854290   4.7902610
   8.6583960 132.1517830   4.9047600   9.7894260 133.0954400   4.5552380
   8.6944380 125.9342850   6.1996150   9.3316600 126.5476990   6.5655340
   8.8419270 125.9703510   5.2545380   2.0648860 127.0869040   9.1071250
   2.0037750 127.6790870   9.8566660   3.0049240 126.9795000   8.9621510
   4.7023420 126.7439100   8.7463540   5.3163830 127.0618390   8.0844620
   5.2472980 126.2587690   9.3659400  11.1198600 142.6430730   6.1525380
  10.6256880 143.0399600   5.4352510  10.5111890 142.0179940   6.5462660
   5.4431460 125.3071240   5.0732830   4.5691300 125.6406350   4.8705760
   5.3342210 124.8344420   5.8984700   6.3503440 127.5142110   6.4574550
   6.0216800 126.6993870   6.0776280   7.2985740 127.4711920   6.3340240
   8.8038050 143.2854150   3.4312120   8.3441020 144.0369960   3.0570140
   8.1750510 142.5660620   3.3726920   1.9729270 142.4850880   3.4329230
   2.2607080 142.2305180   2.5562240   2.4852490 141.9328240   4.0234800
   3.1906280 126.2241080   4.0125740   2.4078070 126.6986580   4.2922500
   2.8969210 125.3195910   3.9038920   2.0401630 143.4066980  10.7997430
   2.9668940 143.1711250  10.8433390   2.0252060 144.2338980  10.3183460
   5.8280700 125.4865310  11.1419780   5.7146150 125.8059920  12.0371300
   6.6450440 125.8877820  10.8457060   8.6079190 142.6336840  10.6238470
   9.4004510 142.1386070  10.4164430   8.9012340 143.3126980  11.2314080
   4.7338850 114.7314290 150.4745930   4.6532900 113.8168900 150.2037640
   4.3203270 115.2281360 149.7685640   6.8864320 120.9153500 151.1354330
   6.4245850 120.1440740 151.4641500   7.6989870 120.9419570 151.6406780
   3.1127630 123.2011510 150.7558320   2.4939070 123.6569010 150.1852760
   3.9679410 123.3562970 150.3548020   7.1195170 109.4871320 149.5222630
   7.9404790 108.9967890 149.5648110   7.1529250 110.0768980 150.2754470
   3.9790980 118.0850750 148.1490230   3.3608250 118.5500200 147.5852950
   4.4914230 118.7778230 148.5659740   7.8023590 119.6107180 148.3613000
   7.6919920 118.6681510 148.4862420   7.7991840 119.9722820 149.2475760
   3.3443870 115.2372500 147.7175490   2.4173150 115.1709880 147.9463960
   3.4968690 116.1752630 147.6030730   3.3312950 111.5089500 144.7142650
   2.3916620 111.6703460 144.7995110   3.6496210 112.2275180 144.1678640
   7.3741160 116.7992800 148.2210740   6.7553580 116.4612350 147.5737040
   7.3565610 116.1552560 148.9289930   5.5505860 116.0379610 145.2283490
   5.9899140 115.2002040 145.0821310   6.2634280 116.6709010 145.3147630
   3.6601240 120.9775680 149.1964730   4.0997150 121.7200010 148.7820120
   3.5988130 121.2202250 150.1203690   9.1323000 107.2922420 143.5424530
   8.8195660 107.3849250 144.4423600   9.8935470 107.8703450 143.4921960
   6.3271420 123.9644800 146.5527740   6.1672560 123.6747740 147.4509570
   6.1618130 123.1884930 146.0172970   6.0297550 121.4732360 145.1125740
   5.3362710 121.4709650 144.4528020   6.7720410 121.0491680 144.6819910
   5.5947480 123.0995070 149.1874230   6.0504430 122.3184450 149.5012850
   5.9340000 123.8101890 149.7315410   5.1380780 113.1314230 147.7097440
   4.5389670 113.8550030 147.5261060   5.6860390 113.0691010 146.9273890
   3.7445650 111.7677770 149.7400720   4.1375220 112.0849970 148.9269410
   4.1062500 110.8889650 149.8545240   3.6065230 108.7312450 146.8376240
   2.7929840 108.2325620 146.7621550   3.4127180 109.5710700 146.4212590
   6.3213620 113.1032100 145.1338400   7.2093240 113.4149330 144.9589740
   6.2918710 112.2304350 144.7418980   2.3174210 119.2755790 145.8126570
   2.6589910 120.0198020 145.3169890   1.4886920 119.5886910 146.1751400
   8.5927890 114.4143940 144.6018260   8.5091610 114.8458160 143.7514700
   9.3122080 114.8742290 145.0345080   9.6215140 121.2686200 147.3300390
   8.9791300 120.6141820 147.6044110   9.2345800 121.6741290 146.5541060
   5.2001620 118.5971630 151.1772080   5.5525440 117.9999760 150.5173450
   4.3163950 118.2715860 151.3480330   8.0112520 120.1602660 143.8676740
   7.7850100 119.4433100 144.4601380   7.6208720 119.9115100 143.0298490
   7.5928770 118.0774600 145.5290900   7.3050470 118.5387290 146.3168780
   8.3880940 117.6172370 145.7975120   8.3498630 109.9123370 146.6886080
   7.7211790 110.0169040 145.9744310   7.8550550 110.1320150 147.4779960
   2.7956770 121.6328960 144.1220060   2.8968750 121.4292950 143.1922040
   1.8958510 121.3787240 144.3267840   4.3498090 108.9159980 149.5439750
   4.2265870 108.9346110 148.5949260   5.2982650 108.9638920 149.6638150
   7.4427460 115.0707160 150.3926240   6.5017600 115.0857390 150.5673930
   7.7571530 114.2843120 150.8386540   9.0803050 122.7347660 144.9859940
   8.7944560 122.3212800 144.1714120   8.8822600 123.6635370 144.8660460
   3.7853010 117.7900970 144.0307540   3.2363110 118.2370270 144.6750280
   4.4072270 117.2850220 144.5545210   1.9655770 115.7729500 143.1749940
   2.4861430 115.0578520 142.8091090   2.6124170 116.4115370 143.4750450
   5.8275340 107.6333350 145.4017880   6.1077630 106.7901250 145.7577300
   5.0541070 107.8656460 145.9156630   2.5303800 123.8541110 145.4651680
   3.4254590 124.1926080 145.4870440   2.5621430 123.1320520 144.8375960
  10.7499600 120.1262600 143.5087590   9.9192560 120.1939250 143.9794820
  10.9271430 121.0166720 143.2054450  10.2056060 116.8710080 146.0121790
  10.9674970 117.4406730 146.1181480  10.2210430 116.3037280 146.7830100
  11.2116030 117.7260180 150.8563720  11.5824860 116.9427500 150.4499690
  11.8517960 118.4149280 150.6781020  10.2575230 117.1644450 143.1694310
  10.5324070 118.0723330 143.0413530  10.0685970 117.1006980 144.1056300
   6.6550840 110.1889300 144.4647940   7.0735720 110.0020280 143.6244600
   6.3486900 109.3368350 144.7750870  10.1540570 115.1013440 148.1623740
   9.7784170 114.3341370 147.7305030   9.4243690 115.4836140 148.6498670
   9.4291530 113.3270930 151.4630980   9.9529010 112.8333580 150.8321150
  10.0150950 113.4621290 152.2078550   8.9191500 112.5844280 147.4023390
   9.4150620 112.3515150 148.1872270   8.7207570 111.7456120 146.9861030
  10.3478660 111.2205230 149.9361070  10.2377940 111.0661270 150.8743340
  11.1086250 110.6926170 149.6936480  11.2368930 109.0513150 143.1767210
  12.1618240 108.9194330 142.9685500  11.2144720 109.1305970 144.1303660
  11.3107420 109.8223810 145.8023920  10.5158920 109.7568930 146.3316830
  11.5150700 110.7574450 145.7909270   8.2525840 123.8615360 149.7962310
   8.8484910 123.5399930 149.1196730   8.5103990 123.3887180 150.5875580
   7.7427350 108.1520690 152.2522750   8.1835440 108.0965790 151.4044350
   7.4734940 109.0678700 152.3232930   9.6065920 107.7835930 150.2631570
   9.5454320 106.8397150 150.1162590  10.3857950 107.8916020 150.8085030
   5.5785480 106.5326790 150.9572760   6.1814850 107.1047000 151.4321280
   4.8378470 107.0966230 150.7346660   8.7220080 106.9348350 146.2313040
   8.9170710 107.8331800 146.4980470   7.9349950 106.7035430 146.7245990
  10.2746690 124.1749060 147.9919600  10.4498880 123.4886800 147.3480520
   9.5768260 124.6996110 147.5996270   4.7338850 114.7314290 131.7002440
   4.6532900 113.8168900 131.4294150   4.3203270 115.2281360 130.9942150
   2.8656890 116.5093310 133.5811710   2.0898990 116.0293750 133.8710280
   3.5169820 115.8298960 133.4067870   6.8864320 120.9153500 132.3610840
   6.4245850 120.1440740 132.6898010   7.6989870 120.9419570 132.8663290
   3.1127630 123.2011510 131.9814830   2.4939070 123.6569010 131.4109270
   3.9679410 123.3562970 131.5804530   2.3065880 119.1850500 133.5881870
   2.2374160 118.2440440 133.4271000   3.0685740 119.2751910 134.1604440
   3.3371050 111.9920880 133.8150800   3.7135870 111.1192760 133.7024470
   3.2390560 112.3279580 132.9241240   7.1195170 109.4871320 130.7479140
   7.9404790 108.9967890 130.7904620   7.1529250 110.0768980 131.5010980
  11.4094720 111.5038070 137.3122770  10.7046890 111.8919780 136.7937880
  11.6752640 112.1988360 137.9143700   3.9790980 118.0850750 129.3746740
   3.3608250 118.5500200 128.8109460   4.4914230 118.7778230 129.7916250
   7.3556650 111.4271700 133.5206680   6.6512220 111.7156590 134.1009790
   7.7168810 112.2371810 133.1606240   8.9719430 121.0446830 135.7834160
   8.2882950 121.7145940 135.7750830   9.5113720 121.2427480 135.0179020
  10.4243570 110.8726490 133.9115890   9.4768480 110.9065470 134.0431320
  10.7493560 111.6865440 134.2965250   6.5078170 122.8890960 134.4979340
   6.5205330 122.4853250 133.6301600   5.9553390 123.6638250 134.3940770
   7.8023590 119.6107180 129.5869510   7.6919920 118.6681510 129.7118930
   7.7991840 119.9722820 130.4732270   5.9063610 117.7920800 135.8261950
   6.3232400 117.5780910 134.9915410   6.6303430 118.0493590 136.3970570
   3.3443870 115.2372500 128.9432000   2.4173150 115.1709880 129.1720470
   3.4968690 116.1752630 128.8287240   3.3312950 111.5089500 125.9399160
   2.3916620 111.6703460 126.0251620   3.6496210 112.2275180 125.3935150
   9.8525710 116.1908020 135.9178190   9.0244340 116.2601110 135.4428320
  10.4476190 116.7762330 135.4494020   7.3741160 116.7992800 129.4467250
   6.7553580 116.4612350 128.7993550   7.3565610 116.1552560 130.1546440
   6.8167720 112.9777340 136.8633060   6.4038900 113.8031050 137.1173050
   6.0843670 112.3922380 136.6709420   7.5067820 123.0236670 137.5514040
   7.0298380 123.8308860 137.3586650   6.8229610 122.3715000 137.7040250
   5.5505860 116.0379610 126.4540000   5.9899140 115.2002040 126.3077820
   6.2634280 116.6709010 126.5404140   3.6601240 120.9775680 130.4221240
   4.0997150 121.7200010 130.0076630   3.5988130 121.2202250 131.3460200
   9.1323000 107.2922420 124.7681040   8.8195660 107.3849250 125.6680110
   9.8935470 107.8703450 124.7178470  11.0867030 122.7848610 142.6205430
  11.5626750 123.2631500 143.2994510  11.7074190 122.7166100 141.8950930
  10.4900280 119.9761460 139.7805440  10.6163340 119.7373340 138.8622620
  10.5321660 119.1446000 140.2527520   4.3517020 123.6789460 138.3500250
   4.8661690 123.5897470 139.1522680   3.5086100 124.0249160 138.6428160
   6.3271420 123.9644800 127.7784250   6.1672560 123.6747740 128.6766080
   6.1618130 123.1884930 127.2429480   6.0297550 121.4732360 126.3382250
   5.3362710 121.4709650 125.6784530   6.7720410 121.0491680 125.9076420
   5.5947480 123.0995070 130.4130740   6.0504430 122.3184450 130.7269360
   5.9340000 123.8101890 130.9571920  10.3424290 112.0293920 140.7455180
   9.7268560 112.5373590 140.2170640  10.0220710 111.1292250 140.6881120
   2.4038610 110.8685810 138.2117370   1.9417980 111.0768830 139.0237310
   2.0016720 110.0545160 137.9088040   7.4043120 112.0894760 139.3414030
   6.5536710 111.7900510 139.6623100   7.2444910 112.3336770 138.4297850
   4.4992830 113.5896510 141.4412820   4.8246240 112.7560260 141.1015050
   5.2873160 114.1125030 141.5891150   5.1380780 113.1314230 128.9353950
   4.5389670 113.8550030 128.7517570   5.6860390 113.0691010 128.1530400
   3.7445650 111.7677770 130.9657230   4.1375220 112.0849970 130.1525920
   4.1062500 110.8889650 131.0801750   2.0537820 110.5185080 142.2254090
   1.3636140 110.3257280 142.8600180   2.7970120 110.8019720 142.7578390
   4.3300790 114.3583520 135.0608010   3.5981910 114.8670330 135.4098110
   3.9325130 113.5413500 134.7596790   4.7926700 109.8117200 134.4730950
   4.8099440 110.2625850 135.3172800   4.5442280 108.9122840 134.6864390
   8.2197450 107.2249380 140.3117330   8.5443220 106.4939040 140.8375310
   8.2553960 106.9063020 139.4098320   8.1455290 117.3374490 133.9203360
   8.8654410 117.8329780 133.5299470   7.9437110 116.6592380 133.2757230
   3.6065230 108.7312450 128.0632750   2.7929840 108.2325620 127.9878060
   3.4127180 109.5710700 127.6469100   3.5274090 117.4083550 139.8072360
   3.4611400 116.4879220 139.5529950   2.8979230 117.5058990 140.5217000
   6.3213620 113.1032100 126.3594910   7.2093240 113.4149330 126.1846250
   6.2918710 112.2304350 125.9675490   2.3174210 119.2755790 127.0383080
   2.6589910 120.0198020 126.5426400   1.4886920 119.5886910 127.4007910
   3.4590820 120.2304120 139.5576160   3.4735360 119.2985080 139.3395070
   2.7515920 120.3163880 140.1965930   8.5927890 114.4143940 125.8274770
   8.5091610 114.8458160 124.9771210   9.3122080 114.8742290 126.2601590
   9.6702030 116.8711460 138.9044740   8.9450220 117.4640240 138.7074130
  10.1977490 116.8635000 138.1058110   9.6215140 121.2686200 128.5556900
   8.9791300 120.6141820 128.8300620   9.2345800 121.6741290 127.7797570
   5.2001620 118.5971630 132.4028590   5.5525440 117.9999760 131.7429960
   4.3163950 118.2715860 132.5736840   2.8924720 121.8721690 136.6516660
   3.5366940 122.0781070 137.3290080   3.2554160 121.1110090 136.1987510
   4.1656800 119.8754040 135.3694110   4.8079030 119.1747200 135.4826280
   4.6906150 120.6552480 135.1891000   8.0112520 120.1602660 125.0933250
   7.7850100 119.4433100 125.6857890   7.6208720 119.9115100 124.2555000
   5.9394420 120.6748940 138.5730170   6.2750660 121.2615630 139.2508090
   5.0194760 120.5441650 138.8027960   7.5928770 118.0774600 126.7547410
   7.3050470 118.5387290 127.5425290   8.3880940 117.6172370 127.0231630
   1.7683000 120.7240270 141.7418230   1.4479870 120.0049510 142.2863920
   1.0941360 121.3995340 141.8154290   4.9836600 110.9566430 137.1055030
   5.3517420 110.1361640 137.4334600   4.1234800 111.0168320 137.5210680
   8.3498630 109.9123370 127.9142590   7.7211790 110.0169040 127.2000820
   7.8550550 110.1320150 128.7036470   2.7956770 121.6328960 125.3476570
   2.8968750 121.4292950 124.4178550   1.8958510 121.3787240 125.5524350
   1.9438590 113.6106020 137.3293000   2.4423840 114.0851840 137.9944850
   2.0861540 112.6869540 137.5363030   4.3498090 108.9159980 130.7696260
   4.2265870 108.9346110 129.8205770   5.2982650 108.9638920 130.8894660
   9.1505450 109.8273980 138.1721390   8.6479050 110.5679380 138.5115200
   9.9662110 110.2157980 137.8558180   7.4427460 115.0707160 131.6182750
   6.5017600 115.0857390 131.7930440   7.7571530 114.2843120 132.0643050
   9.4453040 122.2416010 133.2937010   9.5700460 123.0647180 133.7660820
  10.3118600 122.0306740 132.9461160   4.7593480 119.6273160 142.1015130
   4.1531640 119.6504760 141.3610880   4.4547590 118.8956200 142.6382380
   6.1893850 123.3553450 140.7124540   7.1415600 123.2711470 140.6624780
   6.0422070 124.0195160 141.3858330   9.0803050 122.7347660 126.2116450
   8.7944560 122.3212800 125.3970630   8.8822600 123.6635370 126.0916970
   3.7853010 117.7900970 125.2564050   3.2363110 118.2370270 125.9006790
   4.4072270 117.2850220 125.7801720   7.8387950 119.1443070 141.1886310
   8.5797420 119.4818830 140.6853770   7.0760630 119.3135130 140.6356080
   1.9655770 115.7729500 124.4006450   2.4861430 115.0578520 124.0347600
   2.6124170 116.4115370 124.7006960   6.5133610 117.1957900 139.7241520
   6.9274630 117.3502980 140.5731940   5.5784610 117.3213120 139.8867300
   6.9855780 114.5354060 141.7280670   7.5676550 113.7806380 141.6401150
   7.1617550 115.0661500 140.9512150   3.6112740 114.8794560 139.0775290
   3.7308950 114.2835700 139.8170130   4.4706740 114.9164250 138.6576590
   5.9500640 115.4331750 137.6537800   5.4235860 115.9574370 137.0502940
   6.2931980 116.0659140 138.2847530   5.1974940 111.0381720 140.5684130
   4.5090460 110.3763260 140.5034120   5.9180960 110.5919990 141.0132590
   5.8275340 107.6333350 126.6274390   6.1077630 106.7901250 126.9833810
   5.0541070 107.8656460 127.1413140   1.9818470 124.6882600 139.0681830
   1.9077170 125.5917740 139.3754200   1.0797310 124.3694500 139.0403900
   2.5303800 123.8541110 126.6908190   3.4254590 124.1926080 126.7126950
   2.5621430 123.1320520 126.0632470   9.5098150 122.3844780 139.3974390
   8.9100140 122.4437340 138.6538310   9.6392050 121.4449760 139.5271240
  10.7499600 120.1262600 124.7344100   9.9192560 120.1939250 125.2051330
  10.9271430 121.0166720 124.4310960  10.2056060 116.8710080 127.2378300
  10.9674970 117.4406730 127.3437990  10.2210430 116.3037280 128.0086610
  11.2116030 117.7260180 132.0820230  11.5824860 116.9427500 131.6756200
  11.8517960 118.4149280 131.9037530   8.1949790 119.1096760 137.4950550
   7.3809630 119.5393920 137.7576340   8.6023990 119.7215170 136.8819600
  10.2575230 117.1644450 124.3950820  10.5324070 118.0723330 124.2670040
  10.0685970 117.1006980 125.3312810   6.6550840 110.1889300 125.6904450
   7.0735720 110.0020280 124.8501110   6.3486900 109.3368350 126.0007380
  10.1540570 115.1013440 129.3880250   9.7784170 114.3341370 128.9561540
   9.4243690 115.4836140 129.8755180   9.5440190 114.2484960 139.0219770
   9.3126280 114.0197710 138.1217720   9.8044740 115.1684510 138.9764660
   7.9828260 109.4741390 141.7999470   8.8598440 109.4824790 142.1833470
   7.9949100 108.7372230 141.1891820   9.4291530 113.3270930 132.6887490
   9.9529010 112.8333580 132.0577660  10.0150950 113.4621290 133.4335060
   9.6081250 113.4110800 136.2107040   8.6583960 113.3774340 136.3252030
   9.7894260 114.3210910 135.9756810   8.9191500 112.5844280 128.6279900
   9.4150620 112.3515150 129.4128780   8.7207570 111.7456120 128.2117540
  10.3478660 111.2205230 131.1617580  10.2377940 111.0661270 132.0999850
  11.1086250 110.6926170 130.9192990   8.6944380 107.1599360 137.6200580
   9.3316600 107.7733500 137.9859770   8.8419270 107.1960020 136.6749810
  11.2368930 109.0513150 124.4023720  12.1618240 108.9194330 124.1942010
  11.2144720 109.1305970 125.3560170  11.3107420 109.8223810 127.0280430
  10.5158920 109.7568930 127.5573340  11.5150700 110.7574450 127.0165780
   8.2525840 123.8615360 131.0218820   8.8484910 123.5399930 130.3453240
   8.5103990 123.3887180 131.8132090   2.0648860 108.3125550 140.5275680
   2.0037750 108.9047380 141.2771090   3.0049240 108.2051510 140.3825940
   4.7023420 107.9695610 140.1667970   5.3163830 108.2874900 139.5049050
   5.2472980 107.4844200 140.7863830  11.1198600 123.8687240 137.5729810
  10.6256880 124.2656110 136.8556940  10.5111890 123.2436450 137.9667090
   5.4431460 106.5327750 136.4937260   4.5691300 106.8662860 136.2910190
   5.3342210 106.0600930 137.3189130   6.3503440 108.7398620 137.8778980
   6.0216800 107.9250380 137.4980710   7.2985740 108.6968430 137.7544670
   8.8038050 124.5110660 134.8516550   8.3441020 125.2626470 134.4774570
   8.1750510 123.7917130 134.7931350   1.9729270 123.7107390 134.8533660
   2.2607080 123.4561690 133.9766670   2.4852490 123.1584750 135.4439230
   3.1906280 107.4497590 135.4330170   2.4078070 107.9243090 135.7126930
   2.8969210 106.5452420 135.3243350   7.7427350 108.1520690 133.4779260
   8.1835440 108.0965790 132.6300860   7.4734940 109.0678700 133.5489440
   9.6065920 107.7835930 131.4888080   9.5454320 106.8397150 131.3419100
  10.3857950 107.8916020 132.0341540   5.5785480 106.5326790 132.1829270
   6.1814850 107.1047000 132.6577790   4.8378470 107.0966230 131.9603170
   8.7220080 106.9348350 127.4569550   8.9170710 107.8331800 127.7236980
   7.9349950 106.7035430 127.9502500   2.0401630 124.6323490 142.2201860
   2.9668940 124.3967760 142.2637820   2.0252060 125.4595490 141.7387890
  10.2746690 124.1749060 129.2176110  10.4498880 123.4886800 128.5737030
   9.5768260 124.6996110 128.8252780   5.8280700 106.7121820 142.5624210
   5.7146150 107.0316430 143.4575730   6.6450440 107.1134330 142.2661490
   8.6079190 123.8593350 142.0442900   9.4004510 123.3642580 141.8368860
   8.9012340 124.5383490 142.6518510   4.7338850 114.7314290 112.9258950
   4.6532900 113.8168900 112.6550660   4.3203270 115.2281360 112.2198660
   2.8656890 116.5093310 114.8068220   2.0898990 116.0293750 115.0966790
   3.5169820 115.8298960 114.6324380   6.8864320 120.9153500 113.5867350
   6.4245850 120.1440740 113.9154520   7.6989870 120.9419570 114.0919800
   3.1127630 123.2011510 113.2071340   2.4939070 123.6569010 112.6365780
   3.9679410 123.3562970 112.8061040   2.3065880 119.1850500 114.8138380
   2.2374160 118.2440440 114.6527510   3.0685740 119.2751910 115.3860950
   3.3371050 111.9920880 115.0407310   3.7135870 111.1192760 114.9280980
   3.2390560 112.3279580 114.1497750   7.1195170 109.4871320 111.9735650
   7.9404790 108.9967890 112.0161130   7.1529250 110.0768980 112.7267490
  11.4094720 111.5038070 118.5379280  10.7046890 111.8919780 118.0194390
  11.6752640 112.1988360 119.1400210   3.9790980 118.0850750 110.6003250
   3.3608250 118.5500200 110.0365970   4.4914230 118.7778230 111.0172760
   7.3556650 111.4271700 114.7463190   6.6512220 111.7156590 115.3266300
   7.7168810 112.2371810 114.3862750   8.9719430 121.0446830 117.0090670
   8.2882950 121.7145940 117.0007340   9.5113720 121.2427480 116.2435530
  10.4243570 110.8726490 115.1372400   9.4768480 110.9065470 115.2687830
  10.7493560 111.6865440 115.5221760   6.5078170 122.8890960 115.7235850
   6.5205330 122.4853250 114.8558110   5.9553390 123.6638250 115.6197280
   7.8023590 119.6107180 110.8126020   7.6919920 118.6681510 110.9375440
   7.7991840 119.9722820 111.6988780   5.9063610 117.7920800 117.0518460
   6.3232400 117.5780910 116.2171920   6.6303430 118.0493590 117.6227080
   3.3443870 115.2372500 110.1688510   2.4173150 115.1709880 110.3976980
   3.4968690 116.1752630 110.0543750   3.3312950 111.5089500 107.1655670
   2.3916620 111.6703460 107.2508130   3.6496210 112.2275180 106.6191660
   9.8525710 116.1908020 117.1434700   9.0244340 116.2601110 116.6684830
  10.4476190 116.7762330 116.6750530   7.3741160 116.7992800 110.6723760
   6.7553580 116.4612350 110.0250060   7.3565610 116.1552560 111.3802950
   6.8167720 112.9777340 118.0889570   6.4038900 113.8031050 118.3429560
   6.0843670 112.3922380 117.8965930   7.5067820 123.0236670 118.7770550
   7.0298380 123.8308860 118.5843160   6.8229610 122.3715000 118.9296760
   5.5505860 116.0379610 107.6796510   5.9899140 115.2002040 107.5334330
   6.2634280 116.6709010 107.7660650   3.6601240 120.9775680 111.6477750
   4.0997150 121.7200010 111.2333140   3.5988130 121.2202250 112.5716710
   9.1323000 107.2922420 105.9937550   8.8195660 107.3849250 106.8936620
   9.8935470 107.8703450 105.9434980  11.0867030 122.7848610 123.8461940
  11.5626750 123.2631500 124.5251020  11.7074190 122.7166100 123.1207440
  10.4900280 119.9761460 121.0061950  10.6163340 119.7373340 120.0879130
  10.5321660 119.1446000 121.4784030   4.3517020 123.6789460 119.5756760
   4.8661690 123.5897470 120.3779190   3.5086100 124.0249160 119.8684670
   6.3271420 123.9644800 109.0040760   6.1672560 123.6747740 109.9022590
   6.1618130 123.1884930 108.4685990   6.0297550 121.4732360 107.5638760
   5.3362710 121.4709650 106.9041040   6.7720410 121.0491680 107.1332930
   5.5947480 123.0995070 111.6387250   6.0504430 122.3184450 111.9525870
   5.9340000 123.8101890 112.1828430  10.3424290 112.0293920 121.9711690
   9.7268560 112.5373590 121.4427150  10.0220710 111.1292250 121.9137630
   2.4038610 110.8685810 119.4373880   1.9417980 111.0768830 120.2493820
   2.0016720 110.0545160 119.1344550   7.4043120 112.0894760 120.5670540
   6.5536710 111.7900510 120.8879610   7.2444910 112.3336770 119.6554360
   4.4992830 113.5896510 122.6669330   4.8246240 112.7560260 122.3271560
   5.2873160 114.1125030 122.8147660   5.1380780 113.1314230 110.1610460
   4.5389670 113.8550030 109.9774080   5.6860390 113.0691010 109.3786910
   3.7445650 111.7677770 112.1913740   4.1375220 112.0849970 111.3782430
   4.1062500 110.8889650 112.3058260   2.0537820 110.5185080 123.4510600
   1.3636140 110.3257280 124.0856690   2.7970120 110.8019720 123.9834900
   4.3300790 114.3583520 116.2864520   3.5981910 114.8670330 116.6354620
   3.9325130 113.5413500 115.9853300   4.7926700 109.8117200 115.6987460
   4.8099440 110.2625850 116.5429310   4.5442280 108.9122840 115.9120900
   8.2197450 107.2249380 121.5373840   8.5443220 106.4939040 122.0631820
   8.2553960 106.9063020 120.6354830   8.1455290 117.3374490 115.1459870
   8.8654410 117.8329780 114.7555980   7.9437110 116.6592380 114.5013740
   3.6065230 108.7312450 109.2889260   2.7929840 108.2325620 109.2134570
   3.4127180 109.5710700 108.8725610   3.5274090 117.4083550 121.0328870
   3.4611400 116.4879220 120.7786460   2.8979230 117.5058990 121.7473510
   6.3213620 113.1032100 107.5851420   7.2093240 113.4149330 107.4102760
   6.2918710 112.2304350 107.1932000   2.3174210 119.2755790 108.2639590
   2.6589910 120.0198020 107.7682910   1.4886920 119.5886910 108.6264420
   3.4590820 120.2304120 120.7832670   3.4735360 119.2985080 120.5651580
   2.7515920 120.3163880 121.4222440   8.5927890 114.4143940 107.0531280
   8.5091610 114.8458160 106.2027720   9.3122080 114.8742290 107.4858100
   9.6702030 116.8711460 120.1301250   8.9450220 117.4640240 119.9330640
  10.1977490 116.8635000 119.3314620   9.6215140 121.2686200 109.7813410
   8.9791300 120.6141820 110.0557130   9.2345800 121.6741290 109.0054080
   5.2001620 118.5971630 113.6285100   5.5525440 117.9999760 112.9686470
   4.3163950 118.2715860 113.7993350   2.8924720 121.8721690 117.8773170
   3.5366940 122.0781070 118.5546590   3.2554160 121.1110090 117.4244020
   4.1656800 119.8754040 116.5950620   4.8079030 119.1747200 116.7082790
   4.6906150 120.6552480 116.4147510   8.0112520 120.1602660 106.3189760
   7.7850100 119.4433100 106.9114400   7.6208720 119.9115100 105.4811510
   5.9394420 120.6748940 119.7986680   6.2750660 121.2615630 120.4764600
   5.0194760 120.5441650 120.0284470   7.5928770 118.0774600 107.9803920
   7.3050470 118.5387290 108.7681800   8.3880940 117.6172370 108.2488140
   1.7683000 120.7240270 122.9674740   1.4479870 120.0049510 123.5120430
   1.0941360 121.3995340 123.0410800   4.9836600 110.9566430 118.3311540
   5.3517420 110.1361640 118.6591110   4.1234800 111.0168320 118.7467190
   8.3498630 109.9123370 109.1399100   7.7211790 110.0169040 108.4257330
   7.8550550 110.1320150 109.9292980   2.7956770 121.6328960 106.5733080
   2.8968750 121.4292950 105.6435060   1.8958510 121.3787240 106.7780860
   1.9438590 113.6106020 118.5549510   2.4423840 114.0851840 119.2201360
   2.0861540 112.6869540 118.7619540   4.3498090 108.9159980 111.9952770
   4.2265870 108.9346110 111.0462280   5.2982650 108.9638920 112.1151170
   9.1505450 109.8273980 119.3977900   8.6479050 110.5679380 119.7371710
   9.9662110 110.2157980 119.0814690   7.4427460 115.0707160 112.8439260
   6.5017600 115.0857390 113.0186950   7.7571530 114.2843120 113.2899560
   9.4453040 122.2416010 114.5193520   9.5700460 123.0647180 114.9917330
  10.3118600 122.0306740 114.1717670   4.7593480 119.6273160 123.3271640
   4.1531640 119.6504760 122.5867390   4.4547590 118.8956200 123.8638890
   6.1893850 123.3553450 121.9381050   7.1415600 123.2711470 121.8881290
   6.0422070 124.0195160 122.6114840   9.0803050 122.7347660 107.4372960
   8.7944560 122.3212800 106.6227140   8.8822600 123.6635370 107.3173480
   3.7853010 117.7900970 106.4820560   3.2363110 118.2370270 107.1263300
   4.4072270 117.2850220 107.0058230   7.8387950 119.1443070 122.4142820
   8.5797420 119.4818830 121.9110280   7.0760630 119.3135130 121.8612590
   1.9655770 115.7729500 105.6262960   2.4861430 115.0578520 105.2604110
   2.6124170 116.4115370 105.9263470   6.5133610 117.1957900 120.9498030
   6.9274630 117.3502980 121.7988450   5.5784610 117.3213120 121.1123810
   6.9855780 114.5354060 122.9537180   7.5676550 113.7806380 122.8657660
   7.1617550 115.0661500 122.1768660   3.6112740 114.8794560 120.3031800
   3.7308950 114.2835700 121.0426640   4.4706740 114.9164250 119.8833100
   5.9500640 115.4331750 118.8794310   5.4235860 115.9574370 118.2759450
   6.2931980 116.0659140 119.5104040   5.1974940 111.0381720 121.7940640
   4.5090460 110.3763260 121.7290630   5.9180960 110.5919990 122.2389100
   5.8275340 107.6333350 107.8530900   6.1077630 106.7901250 108.2090320
   5.0541070 107.8656460 108.3669650   1.9818470 124.6882600 120.2938340
   1.9077170 125.5917740 120.6010710   1.0797310 124.3694500 120.2660410
   2.5303800 123.8541110 107.9164700   3.4254590 124.1926080 107.9383460
   2.5621430 123.1320520 107.2888980   9.5098150 122.3844780 120.6230900
   8.9100140 122.4437340 119.8794820   9.6392050 121.4449760 120.7527750
  10.7499600 120.1262600 105.9600610   9.9192560 120.1939250 106.4307840
  10.9271430 121.0166720 105.6567470  10.2056060 116.8710080 108.4634810
  10.9674970 117.4406730 108.5694500  10.2210430 116.3037280 109.2343120
  11.2116030 117.7260180 113.3076740  11.5824860 116.9427500 112.9012710
  11.8517960 118.4149280 113.1294040   8.1949790 119.1096760 118.7207060
   7.3809630 119.5393920 118.9832850   8.6023990 119.7215170 118.1076110
  10.2575230 117.1644450 105.6207330  10.5324070 118.0723330 105.4926550
  10.0685970 117.1006980 106.5569320   6.6550840 110.1889300 106.9160960
   7.0735720 110.0020280 106.0757620   6.3486900 109.3368350 107.2263890
  10.1540570 115.1013440 110.6136760   9.7784170 114.3341370 110.1818050
   9.4243690 115.4836140 111.1011690   9.5440190 114.2484960 120.2476280
   9.3126280 114.0197710 119.3474230   9.8044740 115.1684510 120.2021170
   7.9828260 109.4741390 123.0255980   8.8598440 109.4824790 123.4089980
   7.9949100 108.7372230 122.4148330   9.4291530 113.3270930 113.9144000
   9.9529010 112.8333580 113.2834170  10.0150950 113.4621290 114.6591570
   9.6081250 113.4110800 117.4363550   8.6583960 113.3774340 117.5508540
   9.7894260 114.3210910 117.2013320   8.9191500 112.5844280 109.8536410
   9.4150620 112.3515150 110.6385290   8.7207570 111.7456120 109.4374050
  10.3478660 111.2205230 112.3874090  10.2377940 111.0661270 113.3256360
  11.1086250 110.6926170 112.1449500   8.6944380 107.1599360 118.8457090
   9.3316600 107.7733500 119.2116280   8.8419270 107.1960020 117.9006320
  11.2368930 109.0513150 105.6280230  12.1618240 108.9194330 105.4198520
  11.2144720 109.1305970 106.5816680  11.3107420 109.8223810 108.2536940
  10.5158920 109.7568930 108.7829850  11.5150700 110.7574450 108.2422290
   8.2525840 123.8615360 112.2475330   8.8484910 123.5399930 111.5709750
   8.5103990 123.3887180 113.0388600   2.0648860 108.3125550 121.7532190
   2.0037750 108.9047380 122.5027600   3.0049240 108.2051510 121.6082450
   4.7023420 107.9695610 121.3924480   5.3163830 108.2874900 120.7305560
   5.2472980 107.4844200 122.0120340  11.1198600 123.8687240 118.7986320
  10.6256880 124.2656110 118.0813450  10.5111890 123.2436450 119.1923600
   5.4431460 106.5327750 117.7193770   4.5691300 106.8662860 117.5166700
   5.3342210 106.0600930 118.5445640   6.3503440 108.7398620 119.1035490
   6.0216800 107.9250380 118.7237220   7.2985740 108.6968430 118.9801180
   8.8038050 124.5110660 116.0773060   8.3441020 125.2626470 115.7031080
   8.1750510 123.7917130 116.0187860   1.9729270 123.7107390 116.0790170
   2.2607080 123.4561690 115.2023180   2.4852490 123.1584750 116.6695740
   3.1906280 107.4497590 116.6586680   2.4078070 107.9243090 116.9383440
   2.8969210 106.5452420 116.5499860   7.7427350 108.1520690 114.7035770
   8.1835440 108.0965790 113.8557370   7.4734940 109.0678700 114.7745950
   9.6065920 107.7835930 112.7144590   9.5454320 106.8397150 112.5675610
  10.3857950 107.8916020 113.2598050   5.5785480 106.5326790 113.4085780
   6.1814850 107.1047000 113.8834300   4.8378470 107.0966230 113.1859680
   8.7220080 106.9348350 108.6826060   8.9170710 107.8331800 108.9493490
   7.9349950 106.7035430 109.1759010   2.0401630 124.6323490 123.4458370
   2.9668940 124.3967760 123.4894330   2.0252060 125.4595490 122.9644400
  10.2746690 124.1749060 110.4432620  10.4498880 123.4886800 109.7993540
   9.5768260 124.6996110 110.0509290   5.8280700 106.7121820 123.7880720
   5.7146150 107.0316430 124.6832240   6.6450440 107.1134330 123.4918000
   8.6079190 123.8593350 123.2699410   9.4004510 123.3642580 123.0625370
   8.9012340 124.5383490 123.8775020   4.7338850 114.7314290  94.1515460
   4.6532900 113.8168900  93.8807170   4.3203270 115.2281360  93.4455170
   2.8656890 116.5093310  96.0324730   2.0898990 116.0293750  96.3223300
   3.5169820 115.8298960  95.8580890   6.8864320 120.9153500  94.8123860
   6.4245850 120.1440740  95.1411030   7.6989870 120.9419570  95.3176310
   3.1127630 123.2011510  94.4327850   2.4939070 123.6569010  93.8622290
   3.9679410 123.3562970  94.0317550   2.3065880 119.1850500  96.0394890
   2.2374160 118.2440440  95.8784020   3.0685740 119.2751910  96.6117460
   3.3371050 111.9920880  96.2663820   3.7135870 111.1192760  96.1537490
   3.2390560 112.3279580  95.3754260   7.1195170 109.4871320  93.1992160
   7.9404790 108.9967890  93.2417640   7.1529250 110.0768980  93.9524000
  11.4094720 111.5038070  99.7635790  10.7046890 111.8919780  99.2450900
  11.6752640 112.1988360 100.3656720   3.9790980 118.0850750  91.8259760
   3.3608250 118.5500200  91.2622480   4.4914230 118.7778230  92.2429270
   7.3556650 111.4271700  95.9719700   6.6512220 111.7156590  96.5522810
   7.7168810 112.2371810  95.6119260   8.9719430 121.0446830  98.2347180
   8.2882950 121.7145940  98.2263850   9.5113720 121.2427480  97.4692040
  10.4243570 110.8726490  96.3628910   9.4768480 110.9065470  96.4944340
  10.7493560 111.6865440  96.7478270   6.5078170 122.8890960  96.9492360
   6.5205330 122.4853250  96.0814620   5.9553390 123.6638250  96.8453790
   7.8023590 119.6107180  92.0382530   7.6919920 118.6681510  92.1631950
   7.7991840 119.9722820  92.9245290   5.9063610 117.7920800  98.2774970
   6.3232400 117.5780910  97.4428430   6.6303430 118.0493590  98.8483590
   3.3443870 115.2372500  91.3945020   2.4173150 115.1709880  91.6233490
   3.4968690 116.1752630  91.2800260   3.3312950 111.5089500  88.3912180
   2.3916620 111.6703460  88.4764640   3.6496210 112.2275180  87.8448170
   9.8525710 116.1908020  98.3691210   9.0244340 116.2601110  97.8941340
  10.4476190 116.7762330  97.9007040   7.3741160 116.7992800  91.8980270
   6.7553580 116.4612350  91.2506570   7.3565610 116.1552560  92.6059460
   6.8167720 112.9777340  99.3146080   6.4038900 113.8031050  99.5686070
   6.0843670 112.3922380  99.1222440   7.5067820 123.0236670 100.0027060
   7.0298380 123.8308860  99.8099670   6.8229610 122.3715000 100.1553270
   5.5505860 116.0379610  88.9053020   5.9899140 115.2002040  88.7590840
   6.2634280 116.6709010  88.9917160   3.6601240 120.9775680  92.8734260
   4.0997150 121.7200010  92.4589650   3.5988130 121.2202250  93.7973220
   9.1323000 107.2922420  87.2194060   8.8195660 107.3849250  88.1193130
   9.8935470 107.8703450  87.1691490  11.0867030 122.7848610 105.0718450
  11.5626750 123.2631500 105.7507530  11.7074190 122.7166100 104.3463950
  10.4900280 119.9761460 102.2318460  10.6163340 119.7373340 101.3135640
  10.5321660 119.1446000 102.7040540   4.3517020 123.6789460 100.8013270
   4.8661690 123.5897470 101.6035700   3.5086100 124.0249160 101.0941180
   6.3271420 123.9644800  90.2297270   6.1672560 123.6747740  91.1279100
   6.1618130 123.1884930  89.6942500   6.0297550 121.4732360  88.7895270
   5.3362710 121.4709650  88.1297550   6.7720410 121.0491680  88.3589440
   5.5947480 123.0995070  92.8643760   6.0504430 122.3184450  93.1782380
   5.9340000 123.8101890  93.4084940  10.3424290 112.0293920 103.1968200
   9.7268560 112.5373590 102.6683660  10.0220710 111.1292250 103.1394140
   2.4038610 110.8685810 100.6630390   1.9417980 111.0768830 101.4750330
   2.0016720 110.0545160 100.3601060   7.4043120 112.0894760 101.7927050
   6.5536710 111.7900510 102.1136120   7.2444910 112.3336770 100.8810870
   4.4992830 113.5896510 103.8925840   4.8246240 112.7560260 103.5528070
   5.2873160 114.1125030 104.0404170   5.1380780 113.1314230  91.3866970
   4.5389670 113.8550030  91.2030590   5.6860390 113.0691010  90.6043420
   3.7445650 111.7677770  93.4170250   4.1375220 112.0849970  92.6038940
   4.1062500 110.8889650  93.5314770   2.0537820 110.5185080 104.6767110
   1.3636140 110.3257280 105.3113200   2.7970120 110.8019720 105.2091410
   4.3300790 114.3583520  97.5121030   3.5981910 114.8670330  97.8611130
   3.9325130 113.5413500  97.2109810   4.7926700 109.8117200  96.9243970
   4.8099440 110.2625850  97.7685820   4.5442280 108.9122840  97.1377410
   8.2197450 107.2249380 102.7630350   8.5443220 106.4939040 103.2888330
   8.2553960 106.9063020 101.8611340   8.1455290 117.3374490  96.3716380
   8.8654410 117.8329780  95.9812490   7.9437110 116.6592380  95.7270250
   3.6065230 108.7312450  90.5145770   2.7929840 108.2325620  90.4391080
   3.4127180 109.5710700  90.0982120   3.5274090 117.4083550 102.2585380
   3.4611400 116.4879220 102.0042970   2.8979230 117.5058990 102.9730020
   6.3213620 113.1032100  88.8107930   7.2093240 113.4149330  88.6359270
   6.2918710 112.2304350  88.4188510   2.3174210 119.2755790  89.4896100
   2.6589910 120.0198020  88.9939420   1.4886920 119.5886910  89.8520930
   3.4590820 120.2304120 102.0089180   3.4735360 119.2985080 101.7908090
   2.7515920 120.3163880 102.6478950   8.5927890 114.4143940  88.2787790
   8.5091610 114.8458160  87.4284230   9.3122080 114.8742290  88.7114610
   9.6702030 116.8711460 101.3557760   8.9450220 117.4640240 101.1587150
  10.1977490 116.8635000 100.5571130   9.6215140 121.2686200  91.0069920
   8.9791300 120.6141820  91.2813640   9.2345800 121.6741290  90.2310590
   5.2001620 118.5971630  94.8541610   5.5525440 117.9999760  94.1942980
   4.3163950 118.2715860  95.0249860   2.8924720 121.8721690  99.1029680
   3.5366940 122.0781070  99.7803100   3.2554160 121.1110090  98.6500530
   4.1656800 119.8754040  97.8207130   4.8079030 119.1747200  97.9339300
   4.6906150 120.6552480  97.6404020   8.0112520 120.1602660  87.5446270
   7.7850100 119.4433100  88.1370910   7.6208720 119.9115100  86.7068020
   5.9394420 120.6748940 101.0243190   6.2750660 121.2615630 101.7021110
   5.0194760 120.5441650 101.2540980   7.5928770 118.0774600  89.2060430
   7.3050470 118.5387290  89.9938310   8.3880940 117.6172370  89.4744650
   1.7683000 120.7240270 104.1931250   1.4479870 120.0049510 104.7376940
   1.0941360 121.3995340 104.2667310   4.9836600 110.9566430  99.5568050
   5.3517420 110.1361640  99.8847620   4.1234800 111.0168320  99.9723700
   8.3498630 109.9123370  90.3655610   7.7211790 110.0169040  89.6513840
   7.8550550 110.1320150  91.1549490   2.7956770 121.6328960  87.7989590
   2.8968750 121.4292950  86.8691570   1.8958510 121.3787240  88.0037370
   1.9438590 113.6106020  99.7806020   2.4423840 114.0851840 100.4457870
   2.0861540 112.6869540  99.9876050   4.3498090 108.9159980  93.2209280
   4.2265870 108.9346110  92.2718790   5.2982650 108.9638920  93.3407680
   9.1505450 109.8273980 100.6234410   8.6479050 110.5679380 100.9628220
   9.9662110 110.2157980 100.3071200   7.4427460 115.0707160  94.0695770
   6.5017600 115.0857390  94.2443460   7.7571530 114.2843120  94.5156070
   9.4453040 122.2416010  95.7450030   9.5700460 123.0647180  96.2173840
  10.3118600 122.0306740  95.3974180   4.7593480 119.6273160 104.5528150
   4.1531640 119.6504760 103.8123900   4.4547590 118.8956200 105.0895400
   6.1893850 123.3553450 103.1637560   7.1415600 123.2711470 103.1137800
   6.0422070 124.0195160 103.8371350   9.0803050 122.7347660  88.6629470
   8.7944560 122.3212800  87.8483650   8.8822600 123.6635370  88.5429990
   3.7853010 117.7900970  87.7077070   3.2363110 118.2370270  88.3519810
   4.4072270 117.2850220  88.2314740   7.8387950 119.1443070 103.6399330
   8.5797420 119.4818830 103.1366790   7.0760630 119.3135130 103.0869100
   1.9655770 115.7729500  86.8519470   2.4861430 115.0578520  86.4860620
   2.6124170 116.4115370  87.1519980   6.5133610 117.1957900 102.1754540
   6.9274630 117.3502980 103.0244960   5.5784610 117.3213120 102.3380320
   6.9855780 114.5354060 104.1793690   7.5676550 113.7806380 104.0914170
   7.1617550 115.0661500 103.4025170   3.6112740 114.8794560 101.5288310
   3.7308950 114.2835700 102.2683150   4.4706740 114.9164250 101.1089610
   5.9500640 115.4331750 100.1050820   5.4235860 115.9574370  99.5015960
   6.2931980 116.0659140 100.7360550   5.1974940 111.0381720 103.0197150
   4.5090460 110.3763260 102.9547140   5.9180960 110.5919990 103.4645610
   5.8275340 107.6333350  89.0787410   6.1077630 106.7901250  89.4346830
   5.0541070 107.8656460  89.5926160   1.9818470 124.6882600 101.5194850
   1.9077170 125.5917740 101.8267220   1.0797310 124.3694500 101.4916920
   2.5303800 123.8541110  89.1421210   3.4254590 124.1926080  89.1639970
   2.5621430 123.1320520  88.5145490   9.5098150 122.3844780 101.8487410
   8.9100140 122.4437340 101.1051330   9.6392050 121.4449760 101.9784260
  10.7499600 120.1262600  87.1857120   9.9192560 120.1939250  87.6564350
  10.9271430 121.0166720  86.8823980  10.2056060 116.8710080  89.6891320
  10.9674970 117.4406730  89.7951010  10.2210430 116.3037280  90.4599630
  11.2116030 117.7260180  94.5333250  11.5824860 116.9427500  94.1269220
  11.8517960 118.4149280  94.3550550   8.1949790 119.1096760  99.9463570
   7.3809630 119.5393920 100.2089360   8.6023990 119.7215170  99.3332620
  10.2575230 117.1644450  86.8463840  10.5324070 118.0723330  86.7183060
  10.0685970 117.1006980  87.7825830   6.6550840 110.1889300  88.1417470
   7.0735720 110.0020280  87.3014130   6.3486900 109.3368350  88.4520400
  10.1540570 115.1013440  91.8393270   9.7784170 114.3341370  91.4074560
   9.4243690 115.4836140  92.3268200   9.5440190 114.2484960 101.4732790
   9.3126280 114.0197710 100.5730740   9.8044740 115.1684510 101.4277680
   7.9828260 109.4741390 104.2512490   8.8598440 109.4824790 104.6346490
   7.9949100 108.7372230 103.6404840   9.4291530 113.3270930  95.1400510
   9.9529010 112.8333580  94.5090680  10.0150950 113.4621290  95.8848080
   9.6081250 113.4110800  98.6620060   8.6583960 113.3774340  98.7765050
   9.7894260 114.3210910  98.4269830   8.9191500 112.5844280  91.0792920
   9.4150620 112.3515150  91.8641800   8.7207570 111.7456120  90.6630560
  10.3478660 111.2205230  93.6130600  10.2377940 111.0661270  94.5512870
  11.1086250 110.6926170  93.3706010   8.6944380 107.1599360 100.0713600
   9.3316600 107.7733500 100.4372790   8.8419270 107.1960020  99.1262830
  11.2368930 109.0513150  86.8536740  12.1618240 108.9194330  86.6455030
  11.2144720 109.1305970  87.8073190  11.3107420 109.8223810  89.4793450
  10.5158920 109.7568930  90.0086360  11.5150700 110.7574450  89.4678800
   8.2525840 123.8615360  93.4731840   8.8484910 123.5399930  92.7966260
   8.5103990 123.3887180  94.2645110   2.0648860 108.3125550 102.9788700
   2.0037750 108.9047380 103.7284110   3.0049240 108.2051510 102.8338960
   4.7023420 107.9695610 102.6180990   5.3163830 108.2874900 101.9562070
   5.2472980 107.4844200 103.2376850  11.1198600 123.8687240 100.0242830
  10.6256880 124.2656110  99.3069960  10.5111890 123.2436450 100.4180110
   5.4431460 106.5327750  98.9450280   4.5691300 106.8662860  98.7423210
   5.3342210 106.0600930  99.7702150   6.3503440 108.7398620 100.3292000
   6.0216800 107.9250380  99.9493730   7.2985740 108.6968430 100.2057690
   8.8038050 124.5110660  97.3029570   8.3441020 125.2626470  96.9287590
   8.1750510 123.7917130  97.2444370   1.9729270 123.7107390  97.3046680
   2.2607080 123.4561690  96.4279690   2.4852490 123.1584750  97.8952250
   3.1906280 107.4497590  97.8843190   2.4078070 107.9243090  98.1639950
   2.8969210 106.5452420  97.7756370   7.7427350 108.1520690  95.9292280
   8.1835440 108.0965790  95.0813880   7.4734940 109.0678700  96.0002460
   9.6065920 107.7835930  93.9401100   9.5454320 106.8397150  93.7932120
  10.3857950 107.8916020  94.4854560   5.5785480 106.5326790  94.6342290
   6.1814850 107.1047000  95.1090810   4.8378470 107.0966230  94.4116190
   8.7220080 106.9348350  89.9082570   8.9170710 107.8331800  90.1750000
   7.9349950 106.7035430  90.4015520   2.0401630 124.6323490 104.6714880
   2.9668940 124.3967760 104.7150840   2.0252060 125.4595490 104.1900910
  10.2746690 124.1749060  91.6689130  10.4498880 123.4886800  91.0250050
   9.5768260 124.6996110  91.2765800   5.8280700 106.7121820 105.0137230
   5.7146150 107.0316430 105.9088750   6.6450440 107.1134330 104.7174510
   8.6079190 123.8593350 104.4955920   9.4004510 123.3642580 104.2881880
   8.9012340 124.5383490 105.1031530   4.7338850 114.7314290  75.3771970
   4.6532900 113.8168900  75.1063680   4.3203270 115.2281360  74.6711680
   2.8656890 116.5093310  77.2581240   2.0898990 116.0293750  77.5479810
   3.5169820 115.8298960  77.0837400   6.8864320 120.9153500  76.0380370
   6.4245850 120.1440740  76.3667540   7.6989870 120.9419570  76.5432820
   3.1127630 123.2011510  75.6584360   2.4939070 123.6569010  75.0878800
   3.9679410 123.3562970  75.2574060   2.3065880 119.1850500  77.2651400
   2.2374160 118.2440440  77.1040530   3.0685740 119.2751910  77.8373970
   3.3371050 111.9920880  77.4920330   3.7135870 111.1192760  77.3794000
   3.2390560 112.3279580  76.6010770   7.1195170 109.4871320  74.4248670
   7.9404790 108.9967890  74.4674150   7.1529250 110.0768980  75.1780510
  11.4094720 111.5038070  80.9892300  10.7046890 111.8919780  80.4707410
  11.6752640 112.1988360  81.5913230   3.9790980 118.0850750  73.0516270
   3.3608250 118.5500200  72.4878990   4.4914230 118.7778230  73.4685780
   7.3556650 111.4271700  77.1976210   6.6512220 111.7156590  77.7779320
   7.7168810 112.2371810  76.8375770   8.9719430 121.0446830  79.4603690
   8.2882950 121.7145940  79.4520360   9.5113720 121.2427480  78.6948550
  10.4243570 110.8726490  77.5885420   9.4768480 110.9065470  77.7200850
  10.7493560 111.6865440  77.9734780   6.5078170 122.8890960  78.1748870
   6.5205330 122.4853250  77.3071130   5.9553390 123.6638250  78.0710300
   7.8023590 119.6107180  73.2639040   7.6919920 118.6681510  73.3888460
   7.7991840 119.9722820  74.1501800   5.9063610 117.7920800  79.5031480
   6.3232400 117.5780910  78.6684940   6.6303430 118.0493590  80.0740100
   3.3443870 115.2372500  72.6201530   2.4173150 115.1709880  72.8490000
   3.4968690 116.1752630  72.5056770   3.3312950 111.5089500  69.6168690
   2.3916620 111.6703460  69.7021150   3.6496210 112.2275180  69.0704680
   9.8525710 116.1908020  79.5947720   9.0244340 116.2601110  79.1197850
  10.4476190 116.7762330  79.1263550   7.3741160 116.7992800  73.1236780
   6.7553580 116.4612350  72.4763080   7.3565610 116.1552560  73.8315970
   6.8167720 112.9777340  80.5402590   6.4038900 113.8031050  80.7942580
   6.0843670 112.3922380  80.3478950   7.5067820 123.0236670  81.2283570
   7.0298380 123.8308860  81.0356180   6.8229610 122.3715000  81.3809780
   5.5505860 116.0379610  70.1309530   5.9899140 115.2002040  69.9847350
   6.2634280 116.6709010  70.2173670   3.6601240 120.9775680  74.0990770
   4.0997150 121.7200010  73.6846160   3.5988130 121.2202250  75.0229730
   9.1323000 107.2922420  68.4450570   8.8195660 107.3849250  69.3449640
   9.8935470 107.8703450  68.3948000  11.0867030 122.7848610  86.2974960
  11.5626750 123.2631500  86.9764040  11.7074190 122.7166100  85.5720460
  10.4900280 119.9761460  83.4574970  10.6163340 119.7373340  82.5392150
  10.5321660 119.1446000  83.9297050   4.3517020 123.6789460  82.0269780
   4.8661690 123.5897470  82.8292210   3.5086100 124.0249160  82.3197690
   6.3271420 123.9644800  71.4553780   6.1672560 123.6747740  72.3535610
   6.1618130 123.1884930  70.9199010   6.0297550 121.4732360  70.0151780
   5.3362710 121.4709650  69.3554060   6.7720410 121.0491680  69.5845950
   5.5947480 123.0995070  74.0900270   6.0504430 122.3184450  74.4038890
   5.9340000 123.8101890  74.6341450  10.3424290 112.0293920  84.4224710
   9.7268560 112.5373590  83.8940170  10.0220710 111.1292250  84.3650650
   2.4038610 110.8685810  81.8886900   1.9417980 111.0768830  82.7006840
   2.0016720 110.0545160  81.5857570   7.4043120 112.0894760  83.0183560
   6.5536710 111.7900510  83.3392630   7.2444910 112.3336770  82.1067380
   4.4992830 113.5896510  85.1182350   4.8246240 112.7560260  84.7784580
   5.2873160 114.1125030  85.2660680   5.1380780 113.1314230  72.6123480
   4.5389670 113.8550030  72.4287100   5.6860390 113.0691010  71.8299930
   3.7445650 111.7677770  74.6426760   4.1375220 112.0849970  73.8295450
   4.1062500 110.8889650  74.7571280   2.0537820 110.5185080  85.9023620
   1.3636140 110.3257280  86.5369710   2.7970120 110.8019720  86.4347920
   4.3300790 114.3583520  78.7377540   3.5981910 114.8670330  79.0867640
   3.9325130 113.5413500  78.4366320   4.7926700 109.8117200  78.1500480
   4.8099440 110.2625850  78.9942330   4.5442280 108.9122840  78.3633920
   8.2197450 107.2249380  83.9886860   8.5443220 106.4939040  84.5144840
   8.2553960 106.9063020  83.0867850   8.1455290 117.3374490  77.5972890
   8.8654410 117.8329780  77.2069000   7.9437110 116.6592380  76.9526760
   3.6065230 108.7312450  71.7402280   2.7929840 108.2325620  71.6647590
   3.4127180 109.5710700  71.3238630   3.5274090 117.4083550  83.4841890
   3.4611400 116.4879220  83.2299480   2.8979230 117.5058990  84.1986530
   6.3213620 113.1032100  70.0364440   7.2093240 113.4149330  69.8615780
   6.2918710 112.2304350  69.6445020   2.3174210 119.2755790  70.7152610
   2.6589910 120.0198020  70.2195930   1.4886920 119.5886910  71.0777440
   3.4590820 120.2304120  83.2345690   3.4735360 119.2985080  83.0164600
   2.7515920 120.3163880  83.8735460   8.5927890 114.4143940  69.5044300
   8.5091610 114.8458160  68.6540740   9.3122080 114.8742290  69.9371120
   9.6702030 116.8711460  82.5814270   8.9450220 117.4640240  82.3843660
  10.1977490 116.8635000  81.7827640   9.6215140 121.2686200  72.2326430
   8.9791300 120.6141820  72.5070150   9.2345800 121.6741290  71.4567100
   5.2001620 118.5971630  76.0798120   5.5525440 117.9999760  75.4199490
   4.3163950 118.2715860  76.2506370   2.8924720 121.8721690  80.3286190
   3.5366940 122.0781070  81.0059610   3.2554160 121.1110090  79.8757040
   4.1656800 119.8754040  79.0463640   4.8079030 119.1747200  79.1595810
   4.6906150 120.6552480  78.8660530   8.0112520 120.1602660  68.7702780
   7.7850100 119.4433100  69.3627420   7.6208720 119.9115100  67.9324530
   5.9394420 120.6748940  82.2499700   6.2750660 121.2615630  82.9277620
   5.0194760 120.5441650  82.4797490   7.5928770 118.0774600  70.4316940
   7.3050470 118.5387290  71.2194820   8.3880940 117.6172370  70.7001160
   1.7683000 120.7240270  85.4187760   1.4479870 120.0049510  85.9633450
   1.0941360 121.3995340  85.4923820   4.9836600 110.9566430  80.7824560
   5.3517420 110.1361640  81.1104130   4.1234800 111.0168320  81.1980210
   8.3498630 109.9123370  71.5912120   7.7211790 110.0169040  70.8770350
   7.8550550 110.1320150  72.3806000   2.7956770 121.6328960  69.0246100
   2.8968750 121.4292950  68.0948080   1.8958510 121.3787240  69.2293880
   1.9438590 113.6106020  81.0062530   2.4423840 114.0851840  81.6714380
   2.0861540 112.6869540  81.2132560   4.3498090 108.9159980  74.4465790
   4.2265870 108.9346110  73.4975300   5.2982650 108.9638920  74.5664190
   9.1505450 109.8273980  81.8490920   8.6479050 110.5679380  82.1884730
   9.9662110 110.2157980  81.5327710   7.4427460 115.0707160  75.2952280
   6.5017600 115.0857390  75.4699970   7.7571530 114.2843120  75.7412580
   9.4453040 122.2416010  76.9706540   9.5700460 123.0647180  77.4430350
  10.3118600 122.0306740  76.6230690   4.7593480 119.6273160  85.7784660
   4.1531640 119.6504760  85.0380410   4.4547590 118.8956200  86.3151910
   6.1893850 123.3553450  84.3894070   7.1415600 123.2711470  84.3394310
   6.0422070 124.0195160  85.0627860   9.0803050 122.7347660  69.8885980
   8.7944560 122.3212800  69.0740160   8.8822600 123.6635370  69.7686500
   3.7853010 117.7900970  68.9333580   3.2363110 118.2370270  69.5776320
   4.4072270 117.2850220  69.4571250   7.8387950 119.1443070  84.8655840
   8.5797420 119.4818830  84.3623300   7.0760630 119.3135130  84.3125610
   1.9655770 115.7729500  68.0775980   2.4861430 115.0578520  67.7117130
   2.6124170 116.4115370  68.3776490   6.5133610 117.1957900  83.4011050
   6.9274630 117.3502980  84.2501470   5.5784610 117.3213120  83.5636830
   6.9855780 114.5354060  85.4050200   7.5676550 113.7806380  85.3170680
   7.1617550 115.0661500  84.6281680   3.6112740 114.8794560  82.7544820
   3.7308950 114.2835700  83.4939660   4.4706740 114.9164250  82.3346120
   5.9500640 115.4331750  81.3307330   5.4235860 115.9574370  80.7272470
   6.2931980 116.0659140  81.9617060   5.1974940 111.0381720  84.2453660
   4.5090460 110.3763260  84.1803650   5.9180960 110.5919990  84.6902120
   5.8275340 107.6333350  70.3043920   6.1077630 106.7901250  70.6603340
   5.0541070 107.8656460  70.8182670   1.9818470 124.6882600  82.7451360
   1.9077170 125.5917740  83.0523730   1.0797310 124.3694500  82.7173430
   2.5303800 123.8541110  70.3677720   3.4254590 124.1926080  70.3896480
   2.5621430 123.1320520  69.7402000   9.5098150 122.3844780  83.0743920
   8.9100140 122.4437340  82.3307840   9.6392050 121.4449760  83.2040770
  10.7499600 120.1262600  68.4113630   9.9192560 120.1939250  68.8820860
  10.9271430 121.0166720  68.1080490  10.2056060 116.8710080  70.9147830
  10.9674970 117.4406730  71.0207520  10.2210430 116.3037280  71.6856140
  11.2116030 117.7260180  75.7589760  11.5824860 116.9427500  75.3525730
  11.8517960 118.4149280  75.5807060   8.1949790 119.1096760  81.1720080
   7.3809630 119.5393920  81.4345870   8.6023990 119.7215170  80.5589130
  10.2575230 117.1644450  68.0720350  10.5324070 118.0723330  67.9439570
  10.0685970 117.1006980  69.0082340   6.6550840 110.1889300  69.3673980
   7.0735720 110.0020280  68.5270640   6.3486900 109.3368350  69.6776910
  10.1540570 115.1013440  73.0649780   9.7784170 114.3341370  72.6331070
   9.4243690 115.4836140  73.5524710   9.5440190 114.2484960  82.6989300
   9.3126280 114.0197710  81.7987250   9.8044740 115.1684510  82.6534190
   7.9828260 109.4741390  85.4769000   8.8598440 109.4824790  85.8603000
   7.9949100 108.7372230  84.8661350   9.4291530 113.3270930  76.3657020
   9.9529010 112.8333580  75.7347190  10.0150950 113.4621290  77.1104590
   9.6081250 113.4110800  79.8876570   8.6583960 113.3774340  80.0021560
   9.7894260 114.3210910  79.6526340   8.9191500 112.5844280  72.3049430
   9.4150620 112.3515150  73.0898310   8.7207570 111.7456120  71.8887070
  10.3478660 111.2205230  74.8387110  10.2377940 111.0661270  75.7769380
  11.1086250 110.6926170  74.5962520   8.6944380 107.1599360  81.2970110
   9.3316600 107.7733500  81.6629300   8.8419270 107.1960020  80.3519340
  11.2368930 109.0513150  68.0793250  12.1618240 108.9194330  67.8711540
  11.2144720 109.1305970  69.0329700  11.3107420 109.8223810  70.7049960
  10.5158920 109.7568930  71.2342870  11.5150700 110.7574450  70.6935310
   8.2525840 123.8615360  74.6988350   8.8484910 123.5399930  74.0222770
   8.5103990 123.3887180  75.4901620   2.0648860 108.3125550  84.2045210
   2.0037750 108.9047380  84.9540620   3.0049240 108.2051510  84.0595470
   4.7023420 107.9695610  83.8437500   5.3163830 108.2874900  83.1818580
   5.2472980 107.4844200  84.4633360  11.1198600 123.8687240  81.2499340
  10.6256880 124.2656110  80.5326470  10.5111890 123.2436450  81.6436620
   5.4431460 106.5327750  80.1706790   4.5691300 106.8662860  79.9679720
   5.3342210 106.0600930  80.9958660   6.3503440 108.7398620  81.5548510
   6.0216800 107.9250380  81.1750240   7.2985740 108.6968430  81.4314200
   8.8038050 124.5110660  78.5286080   8.3441020 125.2626470  78.1544100
   8.1750510 123.7917130  78.4700880   1.9729270 123.7107390  78.5303190
   2.2607080 123.4561690  77.6536200   2.4852490 123.1584750  79.1208760
   3.1906280 107.4497590  79.1099700   2.4078070 107.9243090  79.3896460
   2.8969210 106.5452420  79.0012880   7.7427350 108.1520690  77.1548790
   8.1835440 108.0965790  76.3070390   7.4734940 109.0678700  77.2258970
   9.6065920 107.7835930  75.1657610   9.5454320 106.8397150  75.0188630
  10.3857950 107.8916020  75.7111070   5.5785480 106.5326790  75.8598800
   6.1814850 107.1047000  76.3347320   4.8378470 107.0966230  75.6372700
   8.7220080 106.9348350  71.1339080   8.9170710 107.8331800  71.4006510
   7.9349950 106.7035430  71.6272030   2.0401630 124.6323490  85.8971390
   2.9668940 124.3967760  85.9407350   2.0252060 125.4595490  85.4157420
  10.2746690 124.1749060  72.8945640  10.4498880 123.4886800  72.2506560
   9.5768260 124.6996110  72.5022310   5.8280700 106.7121820  86.2393740
   5.7146150 107.0316430  87.1345260   6.6450440 107.1134330  85.9431020
   8.6079190 123.8593350  85.7212430   9.4004510 123.3642580  85.5138390
   8.9012340 124.5383490  86.3288040   4.7338850 114.7314290  56.6028480
   4.6532900 113.8168900  56.3320190   4.3203270 115.2281360  55.8968190
   2.8656890 116.5093310  58.4837750   2.0898990 116.0293750  58.7736320
   3.5169820 115.8298960  58.3093910   6.8864320 120.9153500  57.2636880
   6.4245850 120.1440740  57.5924050   7.6989870 120.9419570  57.7689330
   3.1127630 123.2011510  56.8840870   2.4939070 123.6569010  56.3135310
   3.9679410 123.3562970  56.4830570   2.3065880 119.1850500  58.4907910
   2.2374160 118.2440440  58.3297040   3.0685740 119.2751910  59.0630480
   3.3371050 111.9920880  58.7176840   3.7135870 111.1192760  58.6050510
   3.2390560 112.3279580  57.8267280   7.1195170 109.4871320  55.6505180
   7.9404790 108.9967890  55.6930660   7.1529250 110.0768980  56.4037020
  11.4094720 111.5038070  62.2148810  10.7046890 111.8919780  61.6963920
  11.6752640 112.1988360  62.8169740   3.9790980 118.0850750  54.2772780
   3.3608250 118.5500200  53.7135500   4.4914230 118.7778230  54.6942290
   7.3556650 111.4271700  58.4232720   6.6512220 111.7156590  59.0035830
   7.7168810 112.2371810  58.0632280   8.9719430 121.0446830  60.6860200
   8.2882950 121.7145940  60.6776870   9.5113720 121.2427480  59.9205060
  10.4243570 110.8726490  58.8141930   9.4768480 110.9065470  58.9457360
  10.7493560 111.6865440  59.1991290   6.5078170 122.8890960  59.4005380
   6.5205330 122.4853250  58.5327640   5.9553390 123.6638250  59.2966810
   7.8023590 119.6107180  54.4895550   7.6919920 118.6681510  54.6144970
   7.7991840 119.9722820  55.3758310   5.9063610 117.7920800  60.7287990
   6.3232400 117.5780910  59.8941450   6.6303430 118.0493590  61.2996610
   3.3443870 115.2372500  53.8458040   2.4173150 115.1709880  54.0746510
   3.4968690 116.1752630  53.7313280   3.3312950 111.5089500  50.8425200
   2.3916620 111.6703460  50.9277660   3.6496210 112.2275180  50.2961190
   9.8525710 116.1908020  60.8204230   9.0244340 116.2601110  60.3454360
  10.4476190 116.7762330  60.3520060   7.3741160 116.7992800  54.3493290
   6.7553580 116.4612350  53.7019590   7.3565610 116.1552560  55.0572480
   6.8167720 112.9777340  61.7659100   6.4038900 113.8031050  62.0199090
   6.0843670 112.3922380  61.5735460   7.5067820 123.0236670  62.4540080
   7.0298380 123.8308860  62.2612690   6.8229610 122.3715000  62.6066290
   5.5505860 116.0379610  51.3566040   5.9899140 115.2002040  51.2103860
   6.2634280 116.6709010  51.4430180   3.6601240 120.9775680  55.3247280
   4.0997150 121.7200010  54.9102670   3.5988130 121.2202250  56.2486240
   9.1323000 107.2922420  49.6707080   8.8195660 107.3849250  50.5706150
   9.8935470 107.8703450  49.6204510  11.0867030 122.7848610  67.5231470
  11.5626750 123.2631500  68.2020550  11.7074190 122.7166100  66.7976970
  10.4900280 119.9761460  64.6831480  10.6163340 119.7373340  63.7648660
  10.5321660 119.1446000  65.1553560   4.3517020 123.6789460  63.2526290
   4.8661690 123.5897470  64.0548720   3.5086100 124.0249160  63.5454200
   6.3271420 123.9644800  52.6810290   6.1672560 123.6747740  53.5792120
   6.1618130 123.1884930  52.1455520   6.0297550 121.4732360  51.2408290
   5.3362710 121.4709650  50.5810570   6.7720410 121.0491680  50.8102460
   5.5947480 123.0995070  55.3156780   6.0504430 122.3184450  55.6295400
   5.9340000 123.8101890  55.8597960  10.3424290 112.0293920  65.6481220
   9.7268560 112.5373590  65.1196680  10.0220710 111.1292250  65.5907160
   2.4038610 110.8685810  63.1143410   1.9417980 111.0768830  63.9263350
   2.0016720 110.0545160  62.8114080   7.4043120 112.0894760  64.2440070
   6.5536710 111.7900510  64.5649140   7.2444910 112.3336770  63.3323890
   4.4992830 113.5896510  66.3438860   4.8246240 112.7560260  66.0041090
   5.2873160 114.1125030  66.4917190   5.1380780 113.1314230  53.8379990
   4.5389670 113.8550030  53.6543610   5.6860390 113.0691010  53.0556440
   3.7445650 111.7677770  55.8683270   4.1375220 112.0849970  55.0551960
   4.1062500 110.8889650  55.9827790   2.0537820 110.5185080  67.1280130
   1.3636140 110.3257280  67.7626220   2.7970120 110.8019720  67.6604430
   4.3300790 114.3583520  59.9634050   3.5981910 114.8670330  60.3124150
   3.9325130 113.5413500  59.6622830   4.7926700 109.8117200  59.3756990
   4.8099440 110.2625850  60.2198840   4.5442280 108.9122840  59.5890430
   8.2197450 107.2249380  65.2143370   8.5443220 106.4939040  65.7401350
   8.2553960 106.9063020  64.3124360   8.1455290 117.3374490  58.8229400
   8.8654410 117.8329780  58.4325510   7.9437110 116.6592380  58.1783270
   3.6065230 108.7312450  52.9658790   2.7929840 108.2325620  52.8904100
   3.4127180 109.5710700  52.5495140   3.5274090 117.4083550  64.7098400
   3.4611400 116.4879220  64.4555990   2.8979230 117.5058990  65.4243040
   6.3213620 113.1032100  51.2620950   7.2093240 113.4149330  51.0872290
   6.2918710 112.2304350  50.8701530   2.3174210 119.2755790  51.9409120
   2.6589910 120.0198020  51.4452440   1.4886920 119.5886910  52.3033950
   3.4590820 120.2304120  64.4602200   3.4735360 119.2985080  64.2421110
   2.7515920 120.3163880  65.0991970   8.5927890 114.4143940  50.7300810
   8.5091610 114.8458160  49.8797250   9.3122080 114.8742290  51.1627630
   9.6702030 116.8711460  63.8070780   8.9450220 117.4640240  63.6100170
  10.1977490 116.8635000  63.0084150   9.6215140 121.2686200  53.4582940
   8.9791300 120.6141820  53.7326660   9.2345800 121.6741290  52.6823610
   5.2001620 118.5971630  57.3054630   5.5525440 117.9999760  56.6456000
   4.3163950 118.2715860  57.4762880   2.8924720 121.8721690  61.5542700
   3.5366940 122.0781070  62.2316120   3.2554160 121.1110090  61.1013550
   4.1656800 119.8754040  60.2720150   4.8079030 119.1747200  60.3852320
   4.6906150 120.6552480  60.0917040   8.0112520 120.1602660  49.9959290
   7.7850100 119.4433100  50.5883930   7.6208720 119.9115100  49.1581040
   5.9394420 120.6748940  63.4756210   6.2750660 121.2615630  64.1534130
   5.0194760 120.5441650  63.7054000   7.5928770 118.0774600  51.6573450
   7.3050470 118.5387290  52.4451330   8.3880940 117.6172370  51.9257670
   1.7683000 120.7240270  66.6444270   1.4479870 120.0049510  67.1889960
   1.0941360 121.3995340  66.7180330   4.9836600 110.9566430  62.0081070
   5.3517420 110.1361640  62.3360640   4.1234800 111.0168320  62.4236720
   8.3498630 109.9123370  52.8168630   7.7211790 110.0169040  52.1026860
   7.8550550 110.1320150  53.6062510   2.7956770 121.6328960  50.2502610
   2.8968750 121.4292950  49.3204590   1.8958510 121.3787240  50.4550390
   1.9438590 113.6106020  62.2319040   2.4423840 114.0851840  62.8970890
   2.0861540 112.6869540  62.4389070   4.3498090 108.9159980  55.6722300
   4.2265870 108.9346110  54.7231810   5.2982650 108.9638920  55.7920700
   9.1505450 109.8273980  63.0747430   8.6479050 110.5679380  63.4141240
   9.9662110 110.2157980  62.7584220   7.4427460 115.0707160  56.5208790
   6.5017600 115.0857390  56.6956480   7.7571530 114.2843120  56.9669090
   9.4453040 122.2416010  58.1963050   9.5700460 123.0647180  58.6686860
  10.3118600 122.0306740  57.8487200   4.7593480 119.6273160  67.0041170
   4.1531640 119.6504760  66.2636920   4.4547590 118.8956200  67.5408420
   6.1893850 123.3553450  65.6150580   7.1415600 123.2711470  65.5650820
   6.0422070 124.0195160  66.2884370   9.0803050 122.7347660  51.1142490
   8.7944560 122.3212800  50.2996670   8.8822600 123.6635370  50.9943010
   3.7853010 117.7900970  50.1590090   3.2363110 118.2370270  50.8032830
   4.4072270 117.2850220  50.6827760   7.8387950 119.1443070  66.0912350
   8.5797420 119.4818830  65.5879810   7.0760630 119.3135130  65.5382120
   1.9655770 115.7729500  49.3032490   2.4861430 115.0578520  48.9373640
   2.6124170 116.4115370  49.6033000   6.5133610 117.1957900  64.6267560
   6.9274630 117.3502980  65.4757980   5.5784610 117.3213120  64.7893340
   6.9855780 114.5354060  66.6306710   7.5676550 113.7806380  66.5427190
   7.1617550 115.0661500  65.8538190   3.6112740 114.8794560  63.9801330
   3.7308950 114.2835700  64.7196170   4.4706740 114.9164250  63.5602630
   5.9500640 115.4331750  62.5563840   5.4235860 115.9574370  61.9528980
   6.2931980 116.0659140  63.1873570   5.1974940 111.0381720  65.4710170
   4.5090460 110.3763260  65.4060160   5.9180960 110.5919990  65.9158630
   5.8275340 107.6333350  51.5300430   6.1077630 106.7901250  51.8859850
   5.0541070 107.8656460  52.0439180   1.9818470 124.6882600  63.9707870
   1.9077170 125.5917740  64.2780240   1.0797310 124.3694500  63.9429940
   2.5303800 123.8541110  51.5934230   3.4254590 124.1926080  51.6152990
   2.5621430 123.1320520  50.9658510   9.5098150 122.3844780  64.3000430
   8.9100140 122.4437340  63.5564350   9.6392050 121.4449760  64.4297280
  10.7499600 120.1262600  49.6370140   9.9192560 120.1939250  50.1077370
  10.9271430 121.0166720  49.3337000  10.2056060 116.8710080  52.1404340
  10.9674970 117.4406730  52.2464030  10.2210430 116.3037280  52.9112650
  11.2116030 117.7260180  56.9846270  11.5824860 116.9427500  56.5782240
  11.8517960 118.4149280  56.8063570   8.1949790 119.1096760  62.3976590
   7.3809630 119.5393920  62.6602380   8.6023990 119.7215170  61.7845640
  10.2575230 117.1644450  49.2976860  10.5324070 118.0723330  49.1696080
  10.0685970 117.1006980  50.2338850   6.6550840 110.1889300  50.5930490
   7.0735720 110.0020280  49.7527150   6.3486900 109.3368350  50.9033420
  10.1540570 115.1013440  54.2906290   9.7784170 114.3341370  53.8587580
   9.4243690 115.4836140  54.7781220   9.5440190 114.2484960  63.9245810
   9.3126280 114.0197710  63.0243760   9.8044740 115.1684510  63.8790700
   7.9828260 109.4741390  66.7025510   8.8598440 109.4824790  67.0859510
   7.9949100 108.7372230  66.0917860   9.4291530 113.3270930  57.5913530
   9.9529010 112.8333580  56.9603700  10.0150950 113.4621290  58.3361100
   9.6081250 113.4110800  61.1133080   8.6583960 113.3774340  61.2278070
   9.7894260 114.3210910  60.8782850   8.9191500 112.5844280  53.5305940
   9.4150620 112.3515150  54.3154820   8.7207570 111.7456120  53.1143580
  10.3478660 111.2205230  56.0643620  10.2377940 111.0661270  57.0025890
  11.1086250 110.6926170  55.8219030   8.6944380 107.1599360  62.5226620
   9.3316600 107.7733500  62.8885810   8.8419270 107.1960020  61.5775850
  11.2368930 109.0513150  49.3049760  12.1618240 108.9194330  49.0968050
  11.2144720 109.1305970  50.2586210  11.3107420 109.8223810  51.9306470
  10.5158920 109.7568930  52.4599380  11.5150700 110.7574450  51.9191820
   8.2525840 123.8615360  55.9244860   8.8484910 123.5399930  55.2479280
   8.5103990 123.3887180  56.7158130   2.0648860 108.3125550  65.4301720
   2.0037750 108.9047380  66.1797130   3.0049240 108.2051510  65.2851980
   4.7023420 107.9695610  65.0694010   5.3163830 108.2874900  64.4075090
   5.2472980 107.4844200  65.6889870  11.1198600 123.8687240  62.4755850
  10.6256880 124.2656110  61.7582980  10.5111890 123.2436450  62.8693130
   5.4431460 106.5327750  61.3963300   4.5691300 106.8662860  61.1936230
   5.3342210 106.0600930  62.2215170   6.3503440 108.7398620  62.7805020
   6.0216800 107.9250380  62.4006750   7.2985740 108.6968430  62.6570710
   8.8038050 124.5110660  59.7542590   8.3441020 125.2626470  59.3800610
   8.1750510 123.7917130  59.6957390   1.9729270 123.7107390  59.7559700
   2.2607080 123.4561690  58.8792710   2.4852490 123.1584750  60.3465270
   3.1906280 107.4497590  60.3356210   2.4078070 107.9243090  60.6152970
   2.8969210 106.5452420  60.2269390   7.7427350 108.1520690  58.3805300
   8.1835440 108.0965790  57.5326900   7.4734940 109.0678700  58.4515480
   9.6065920 107.7835930  56.3914120   9.5454320 106.8397150  56.2445140
  10.3857950 107.8916020  56.9367580   5.5785480 106.5326790  57.0855310
   6.1814850 107.1047000  57.5603830   4.8378470 107.0966230  56.8629210
   8.7220080 106.9348350  52.3595590   8.9170710 107.8331800  52.6263020
   7.9349950 106.7035430  52.8528540   2.0401630 124.6323490  67.1227900
   2.9668940 124.3967760  67.1663860   2.0252060 125.4595490  66.6413930
  10.2746690 124.1749060  54.1202150  10.4498880 123.4886800  53.4763070
   9.5768260 124.6996110  53.7278820   5.8280700 106.7121820  67.4650250
   5.7146150 107.0316430  68.3601770   6.6450440 107.1134330  67.1687530
   8.6079190 123.8593350  66.9468940   9.4004510 123.3642580  66.7394900
   8.9012340 124.5383490  67.5544550   4.7338850 114.7314290  37.8284990
   4.6532900 113.8168900  37.5576700   4.3203270 115.2281360  37.1224700
   2.8656890 116.5093310  39.7094260   2.0898990 116.0293750  39.9992830
   3.5169820 115.8298960  39.5350420   6.8864320 120.9153500  38.4893390
   6.4245850 120.1440740  38.8180560   7.6989870 120.9419570  38.9945840
   3.1127630 123.2011510  38.1097380   2.4939070 123.6569010  37.5391820
   3.9679410 123.3562970  37.7087080   2.3065880 119.1850500  39.7164420
   2.2374160 118.2440440  39.5553550   3.0685740 119.2751910  40.2886990
   3.3371050 111.9920880  39.9433350   3.7135870 111.1192760  39.8307020
   3.2390560 112.3279580  39.0523790   7.1195170 109.4871320  36.8761690
   7.9404790 108.9967890  36.9187170   7.1529250 110.0768980  37.6293530
  11.4094720 111.5038070  43.4405320  10.7046890 111.8919780  42.9220430
  11.6752640 112.1988360  44.0426250   3.9790980 118.0850750  35.5029290
   3.3608250 118.5500200  34.9392010   4.4914230 118.7778230  35.9198800
   7.3556650 111.4271700  39.6489230   6.6512220 111.7156590  40.2292340
   7.7168810 112.2371810  39.2888790   8.9719430 121.0446830  41.9116710
   8.2882950 121.7145940  41.9033380   9.5113720 121.2427480  41.1461570
  10.4243570 110.8726490  40.0398440   9.4768480 110.9065470  40.1713870
  10.7493560 111.6865440  40.4247800   6.5078170 122.8890960  40.6261890
   6.5205330 122.4853250  39.7584150   5.9553390 123.6638250  40.5223320
   7.8023590 119.6107180  35.7152060   7.6919920 118.6681510  35.8401480
   7.7991840 119.9722820  36.6014820   5.9063610 117.7920800  41.9544500
   6.3232400 117.5780910  41.1197960   6.6303430 118.0493590  42.5253120
   3.3443870 115.2372500  35.0714550   2.4173150 115.1709880  35.3003020
   3.4968690 116.1752630  34.9569790   3.3312950 111.5089500  32.0681710
   2.3916620 111.6703460  32.1534170   3.6496210 112.2275180  31.5217700
   9.8525710 116.1908020  42.0460740   9.0244340 116.2601110  41.5710870
  10.4476190 116.7762330  41.5776570   7.3741160 116.7992800  35.5749800
   6.7553580 116.4612350  34.9276100   7.3565610 116.1552560  36.2828990
   6.8167720 112.9777340  42.9915610   6.4038900 113.8031050  43.2455600
   6.0843670 112.3922380  42.7991970   7.5067820 123.0236670  43.6796590
   7.0298380 123.8308860  43.4869200   6.8229610 122.3715000  43.8322800
   5.5505860 116.0379610  32.5822550   5.9899140 115.2002040  32.4360370
   6.2634280 116.6709010  32.6686690   3.6601240 120.9775680  36.5503790
   4.0997150 121.7200010  36.1359180   3.5988130 121.2202250  37.4742750
   9.1323000 107.2922420  30.8963590   8.8195660 107.3849250  31.7962660
   9.8935470 107.8703450  30.8461020  11.0867030 122.7848610  48.7487980
  11.5626750 123.2631500  49.4277060  11.7074190 122.7166100  48.0233480
  10.4900280 119.9761460  45.9087990  10.6163340 119.7373340  44.9905170
  10.5321660 119.1446000  46.3810070   4.3517020 123.6789460  44.4782800
   4.8661690 123.5897470  45.2805230   3.5086100 124.0249160  44.7710710
   6.3271420 123.9644800  33.9066800   6.1672560 123.6747740  34.8048630
   6.1618130 123.1884930  33.3712030   6.0297550 121.4732360  32.4664800
   5.3362710 121.4709650  31.8067080   6.7720410 121.0491680  32.0358970
   5.5947480 123.0995070  36.5413290   6.0504430 122.3184450  36.8551910
   5.9340000 123.8101890  37.0854470  10.3424290 112.0293920  46.8737730
   9.7268560 112.5373590  46.3453190  10.0220710 111.1292250  46.8163670
   2.4038610 110.8685810  44.3399920   1.9417980 111.0768830  45.1519860
   2.0016720 110.0545160  44.0370590   7.4043120 112.0894760  45.4696580
   6.5536710 111.7900510  45.7905650   7.2444910 112.3336770  44.5580400
   4.4992830 113.5896510  47.5695370   4.8246240 112.7560260  47.2297600
   5.2873160 114.1125030  47.7173700   5.1380780 113.1314230  35.0636500
   4.5389670 113.8550030  34.8800120   5.6860390 113.0691010  34.2812950
   3.7445650 111.7677770  37.0939780   4.1375220 112.0849970  36.2808470
   4.1062500 110.8889650  37.2084300   2.0537820 110.5185080  48.3536640
   1.3636140 110.3257280  48.9882730   2.7970120 110.8019720  48.8860940
   4.3300790 114.3583520  41.1890560   3.5981910 114.8670330  41.5380660
   3.9325130 113.5413500  40.8879340   4.7926700 109.8117200  40.6013500
   4.8099440 110.2625850  41.4455350   4.5442280 108.9122840  40.8146940
   8.2197450 107.2249380  46.4399880   8.5443220 106.4939040  46.9657860
   8.2553960 106.9063020  45.5380870   8.1455290 117.3374490  40.0485910
   8.8654410 117.8329780  39.6582020   7.9437110 116.6592380  39.4039780
   3.6065230 108.7312450  34.1915300   2.7929840 108.2325620  34.1160610
   3.4127180 109.5710700  33.7751650   3.5274090 117.4083550  45.9354910
   3.4611400 116.4879220  45.6812500   2.8979230 117.5058990  46.6499550
   6.3213620 113.1032100  32.4877460   7.2093240 113.4149330  32.3128800
   6.2918710 112.2304350  32.0958040   2.3174210 119.2755790  33.1665630
   2.6589910 120.0198020  32.6708950   1.4886920 119.5886910  33.5290460
   3.4590820 120.2304120  45.6858710   3.4735360 119.2985080  45.4677620
   2.7515920 120.3163880  46.3248480   8.5927890 114.4143940  31.9557320
   8.5091610 114.8458160  31.1053760   9.3122080 114.8742290  32.3884140
   9.6702030 116.8711460  45.0327290   8.9450220 117.4640240  44.8356680
  10.1977490 116.8635000  44.2340660   9.6215140 121.2686200  34.6839450
   8.9791300 120.6141820  34.9583170   9.2345800 121.6741290  33.9080120
   5.2001620 118.5971630  38.5311140   5.5525440 117.9999760  37.8712510
   4.3163950 118.2715860  38.7019390   2.8924720 121.8721690  42.7799210
   3.5366940 122.0781070  43.4572630   3.2554160 121.1110090  42.3270060
   4.1656800 119.8754040  41.4976660   4.8079030 119.1747200  41.6108830
   4.6906150 120.6552480  41.3173550   8.0112520 120.1602660  31.2215800
   7.7850100 119.4433100  31.8140440   7.6208720 119.9115100  30.3837550
   5.9394420 120.6748940  44.7012720   6.2750660 121.2615630  45.3790640
   5.0194760 120.5441650  44.9310510   7.5928770 118.0774600  32.8829960
   7.3050470 118.5387290  33.6707840   8.3880940 117.6172370  33.1514180
   1.7683000 120.7240270  47.8700780   1.4479870 120.0049510  48.4146470
   1.0941360 121.3995340  47.9436840   4.9836600 110.9566430  43.2337580
   5.3517420 110.1361640  43.5617150   4.1234800 111.0168320  43.6493230
   8.3498630 109.9123370  34.0425140   7.7211790 110.0169040  33.3283370
   7.8550550 110.1320150  34.8319020   2.7956770 121.6328960  31.4759120
   2.8968750 121.4292950  30.5461100   1.8958510 121.3787240  31.6806900
   1.9438590 113.6106020  43.4575550   2.4423840 114.0851840  44.1227400
   2.0861540 112.6869540  43.6645580   4.3498090 108.9159980  36.8978810
   4.2265870 108.9346110  35.9488320   5.2982650 108.9638920  37.0177210
   9.1505450 109.8273980  44.3003940   8.6479050 110.5679380  44.6397750
   9.9662110 110.2157980  43.9840730   7.4427460 115.0707160  37.7465300
   6.5017600 115.0857390  37.9212990   7.7571530 114.2843120  38.1925600
   9.4453040 122.2416010  39.4219560   9.5700460 123.0647180  39.8943370
  10.3118600 122.0306740  39.0743710   4.7593480 119.6273160  48.2297680
   4.1531640 119.6504760  47.4893430   4.4547590 118.8956200  48.7664930
   6.1893850 123.3553450  46.8407090   7.1415600 123.2711470  46.7907330
   6.0422070 124.0195160  47.5140880   9.0803050 122.7347660  32.3399000
   8.7944560 122.3212800  31.5253180   8.8822600 123.6635370  32.2199520
   3.7853010 117.7900970  31.3846600   3.2363110 118.2370270  32.0289340
   4.4072270 117.2850220  31.9084270   7.8387950 119.1443070  47.3168860
   8.5797420 119.4818830  46.8136320   7.0760630 119.3135130  46.7638630
   1.9655770 115.7729500  30.5289000   2.4861430 115.0578520  30.1630150
   2.6124170 116.4115370  30.8289510   6.5133610 117.1957900  45.8524070
   6.9274630 117.3502980  46.7014490   5.5784610 117.3213120  46.0149850
   6.9855780 114.5354060  47.8563220   7.5676550 113.7806380  47.7683700
   7.1617550 115.0661500  47.0794700   3.6112740 114.8794560  45.2057840
   3.7308950 114.2835700  45.9452680   4.4706740 114.9164250  44.7859140
   5.9500640 115.4331750  43.7820350   5.4235860 115.9574370  43.1785490
   6.2931980 116.0659140  44.4130080   5.1974940 111.0381720  46.6966680
   4.5090460 110.3763260  46.6316670   5.9180960 110.5919990  47.1415140
   5.8275340 107.6333350  32.7556940   6.1077630 106.7901250  33.1116360
   5.0541070 107.8656460  33.2695690   1.9818470 124.6882600  45.1964380
   1.9077170 125.5917740  45.5036750   1.0797310 124.3694500  45.1686450
   2.5303800 123.8541110  32.8190740   3.4254590 124.1926080  32.8409500
   2.5621430 123.1320520  32.1915020   9.5098150 122.3844780  45.5256940
   8.9100140 122.4437340  44.7820860   9.6392050 121.4449760  45.6553790
  10.7499600 120.1262600  30.8626650   9.9192560 120.1939250  31.3333880
  10.9271430 121.0166720  30.5593510  10.2056060 116.8710080  33.3660850
  10.9674970 117.4406730  33.4720540  10.2210430 116.3037280  34.1369160
  11.2116030 117.7260180  38.2102780  11.5824860 116.9427500  37.8038750
  11.8517960 118.4149280  38.0320080   8.1949790 119.1096760  43.6233100
   7.3809630 119.5393920  43.8858890   8.6023990 119.7215170  43.0102150
  10.2575230 117.1644450  30.5233370  10.5324070 118.0723330  30.3952590
  10.0685970 117.1006980  31.4595360   6.6550840 110.1889300  31.8187000
   7.0735720 110.0020280  30.9783660   6.3486900 109.3368350  32.1289930
  10.1540570 115.1013440  35.5162800   9.7784170 114.3341370  35.0844090
   9.4243690 115.4836140  36.0037730   9.5440190 114.2484960  45.1502320
   9.3126280 114.0197710  44.2500270   9.8044740 115.1684510  45.1047210
   7.9828260 109.4741390  47.9282020   8.8598440 109.4824790  48.3116020
   7.9949100 108.7372230  47.3174370   9.4291530 113.3270930  38.8170040
   9.9529010 112.8333580  38.1860210  10.0150950 113.4621290  39.5617610
   9.6081250 113.4110800  42.3389590   8.6583960 113.3774340  42.4534580
   9.7894260 114.3210910  42.1039360   8.9191500 112.5844280  34.7562450
   9.4150620 112.3515150  35.5411330   8.7207570 111.7456120  34.3400090
  10.3478660 111.2205230  37.2900130  10.2377940 111.0661270  38.2282400
  11.1086250 110.6926170  37.0475540   8.6944380 107.1599360  43.7483130
   9.3316600 107.7733500  44.1142320   8.8419270 107.1960020  42.8032360
  11.2368930 109.0513150  30.5306270  12.1618240 108.9194330  30.3224560
  11.2144720 109.1305970  31.4842720  11.3107420 109.8223810  33.1562980
  10.5158920 109.7568930  33.6855890  11.5150700 110.7574450  33.1448330
   8.2525840 123.8615360  37.1501370   8.8484910 123.5399930  36.4735790
   8.5103990 123.3887180  37.9414640   2.0648860 108.3125550  46.6558230
   2.0037750 108.9047380  47.4053640   3.0049240 108.2051510  46.5108490
   4.7023420 107.9695610  46.2950520   5.3163830 108.2874900  45.6331600
   5.2472980 107.4844200  46.9146380  11.1198600 123.8687240  43.7012360
  10.6256880 124.2656110  42.9839490  10.5111890 123.2436450  44.0949640
   5.4431460 106.5327750  42.6219810   4.5691300 106.8662860  42.4192740
   5.3342210 106.0600930  43.4471680   6.3503440 108.7398620  44.0061530
   6.0216800 107.9250380  43.6263260   7.2985740 108.6968430  43.8827220
   8.8038050 124.5110660  40.9799100   8.3441020 125.2626470  40.6057120
   8.1750510 123.7917130  40.9213900   1.9729270 123.7107390  40.9816210
   2.2607080 123.4561690  40.1049220   2.4852490 123.1584750  41.5721780
   3.1906280 107.4497590  41.5612720   2.4078070 107.9243090  41.8409480
   2.8969210 106.5452420  41.4525900   7.7427350 108.1520690  39.6061810
   8.1835440 108.0965790  38.7583410   7.4734940 109.0678700  39.6771990
   9.6065920 107.7835930  37.6170630   9.5454320 106.8397150  37.4701650
  10.3857950 107.8916020  38.1624090   5.5785480 106.5326790  38.3111820
   6.1814850 107.1047000  38.7860340   4.8378470 107.0966230  38.0885720
   8.7220080 106.9348350  33.5852100   8.9170710 107.8331800  33.8519530
   7.9349950 106.7035430  34.0785050   2.0401630 124.6323490  48.3484410
   2.9668940 124.3967760  48.3920370   2.0252060 125.4595490  47.8670440
  10.2746690 124.1749060  35.3458660  10.4498880 123.4886800  34.7019580
   9.5768260 124.6996110  34.9535330   5.8280700 106.7121820  48.6906760
   5.7146150 107.0316430  49.5858280   6.6450440 107.1134330  48.3944040
   8.6079190 123.8593350  48.1725450   9.4004510 123.3642580  47.9651410
   8.9012340 124.5383490  48.7801060   4.7338850 114.7314290  19.0541500
   4.6532900 113.8168900  18.7833210   4.3203270 115.2281360  18.3481210
   2.8656890 116.5093310  20.9350770   2.0898990 116.0293750  21.2249340
   3.5169820 115.8298960  20.7606930   6.8864320 120.9153500  19.7149900
   6.4245850 120.1440740  20.0437070   7.6989870 120.9419570  20.2202350
   3.1127630 123.2011510  19.3353890   2.4939070 123.6569010  18.7648330
   3.9679410 123.3562970  18.9343590   2.3065880 119.1850500  20.9420930
   2.2374160 118.2440440  20.7810060   3.0685740 119.2751910  21.5143500
   3.3371050 111.9920880  21.1689860   3.7135870 111.1192760  21.0563530
   3.2390560 112.3279580  20.2780300   7.1195170 109.4871320  18.1018200
   7.9404790 108.9967890  18.1443680   7.1529250 110.0768980  18.8550040
  11.4094720 111.5038070  24.6661830  10.7046890 111.8919780  24.1476940
  11.6752640 112.1988360  25.2682760   3.9790980 118.0850750  16.7285800
   3.3608250 118.5500200  16.1648520   4.4914230 118.7778230  17.1455310
   7.3556650 111.4271700  20.8745740   6.6512220 111.7156590  21.4548850
   7.7168810 112.2371810  20.5145300   8.9719430 121.0446830  23.1373220
   8.2882950 121.7145940  23.1289890   9.5113720 121.2427480  22.3718080
  10.4243570 110.8726490  21.2654950   9.4768480 110.9065470  21.3970380
  10.7493560 111.6865440  21.6504310   6.5078170 122.8890960  21.8518400
   6.5205330 122.4853250  20.9840660   5.9553390 123.6638250  21.7479830
   7.8023590 119.6107180  16.9408570   7.6919920 118.6681510  17.0657990
   7.7991840 119.9722820  17.8271330   5.9063610 117.7920800  23.1801010
   6.3232400 117.5780910  22.3454470   6.6303430 118.0493590  23.7509630
   3.3443870 115.2372500  16.2971060   2.4173150 115.1709880  16.5259530
   3.4968690 116.1752630  16.1826300   3.3312950 111.5089500  13.2938220
   2.3916620 111.6703460  13.3790680   3.6496210 112.2275180  12.7474210
   9.8525710 116.1908020  23.2717250   9.0244340 116.2601110  22.7967380
  10.4476190 116.7762330  22.8033080   7.3741160 116.7992800  16.8006310
   6.7553580 116.4612350  16.1532610   7.3565610 116.1552560  17.5085500
   6.8167720 112.9777340  24.2172120   6.4038900 113.8031050  24.4712110
   6.0843670 112.3922380  24.0248480   7.5067820 123.0236670  24.9053100
   7.0298380 123.8308860  24.7125710   6.8229610 122.3715000  25.0579310
   5.5505860 116.0379610  13.8079060   5.9899140 115.2002040  13.6616880
   6.2634280 116.6709010  13.8943200   3.6601240 120.9775680  17.7760300
   4.0997150 121.7200010  17.3615690   3.5988130 121.2202250  18.6999260
   9.1323000 107.2922420  12.1220100   8.8195660 107.3849250  13.0219170
   9.8935470 107.8703450  12.0717530  11.0867030 122.7848610  29.9744490
  11.5626750 123.2631500  30.6533570  11.7074190 122.7166100  29.2489990
  10.4900280 119.9761460  27.1344500  10.6163340 119.7373340  26.2161680
  10.5321660 119.1446000  27.6066580   4.3517020 123.6789460  25.7039310
   4.8661690 123.5897470  26.5061740   3.5086100 124.0249160  25.9967220
   6.3271420 123.9644800  15.1323310   6.1672560 123.6747740  16.0305140
   6.1618130 123.1884930  14.5968540   6.0297550 121.4732360  13.6921310
   5.3362710 121.4709650  13.0323590   6.7720410 121.0491680  13.2615480
   5.5947480 123.0995070  17.7669800   6.0504430 122.3184450  18.0808420
   5.9340000 123.8101890  18.3110980  10.3424290 112.0293920  28.0994240
   9.7268560 112.5373590  27.5709700  10.0220710 111.1292250  28.0420180
   2.4038610 110.8685810  25.5656430   1.9417980 111.0768830  26.3776370
   2.0016720 110.0545160  25.2627100   7.4043120 112.0894760  26.6953090
   6.5536710 111.7900510  27.0162160   7.2444910 112.3336770  25.7836910
   4.4992830 113.5896510  28.7951880   4.8246240 112.7560260  28.4554110
   5.2873160 114.1125030  28.9430210   5.1380780 113.1314230  16.2893010
   4.5389670 113.8550030  16.1056630   5.6860390 113.0691010  15.5069460
   3.7445650 111.7677770  18.3196290   4.1375220 112.0849970  17.5064980
   4.1062500 110.8889650  18.4340810   2.0537820 110.5185080  29.5793150
   1.3636140 110.3257280  30.2139240   2.7970120 110.8019720  30.1117450
   4.3300790 114.3583520  22.4147070   3.5981910 114.8670330  22.7637170
   3.9325130 113.5413500  22.1135850   4.7926700 109.8117200  21.8270010
   4.8099440 110.2625850  22.6711860   4.5442280 108.9122840  22.0403450
   8.2197450 107.2249380  27.6656390   8.5443220 106.4939040  28.1914370
   8.2553960 106.9063020  26.7637380   8.1455290 117.3374490  21.2742420
   8.8654410 117.8329780  20.8838530   7.9437110 116.6592380  20.6296290
   3.6065230 108.7312450  15.4171810   2.7929840 108.2325620  15.3417120
   3.4127180 109.5710700  15.0008160   3.5274090 117.4083550  27.1611420
   3.4611400 116.4879220  26.9069010   2.8979230 117.5058990  27.8756060
   6.3213620 113.1032100  13.7133970   7.2093240 113.4149330  13.5385310
   6.2918710 112.2304350  13.3214550   2.3174210 119.2755790  14.3922140
   2.6589910 120.0198020  13.8965460   1.4886920 119.5886910  14.7546970
   3.4590820 120.2304120  26.9115220   3.4735360 119.2985080  26.6934130
   2.7515920 120.3163880  27.5504990   8.5927890 114.4143940  13.1813830
   8.5091610 114.8458160  12.3310270   9.3122080 114.8742290  13.6140650
   9.6702030 116.8711460  26.2583800   8.9450220 117.4640240  26.0613190
  10.1977490 116.8635000  25.4597170   9.6215140 121.2686200  15.9095960
   8.9791300 120.6141820  16.1839680   9.2345800 121.6741290  15.1336630
   5.2001620 118.5971630  19.7567650   5.5525440 117.9999760  19.0969020
   4.3163950 118.2715860  19.9275900   2.8924720 121.8721690  24.0055720
   3.5366940 122.0781070  24.6829140   3.2554160 121.1110090  23.5526570
   4.1656800 119.8754040  22.7233170   4.8079030 119.1747200  22.8365340
   4.6906150 120.6552480  22.5430060   8.0112520 120.1602660  12.4472310
   7.7850100 119.4433100  13.0396950   7.6208720 119.9115100  11.6094060
   5.9394420 120.6748940  25.9269230   6.2750660 121.2615630  26.6047150
   5.0194760 120.5441650  26.1567020   7.5928770 118.0774600  14.1086470
   7.3050470 118.5387290  14.8964350   8.3880940 117.6172370  14.3770690
   1.7683000 120.7240270  29.0957290   1.4479870 120.0049510  29.6402980
   1.0941360 121.3995340  29.1693350   4.9836600 110.9566430  24.4594090
   5.3517420 110.1361640  24.7873660   4.1234800 111.0168320  24.8749740
   8.3498630 109.9123370  15.2681650   7.7211790 110.0169040  14.5539880
   7.8550550 110.1320150  16.0575530   2.7956770 121.6328960  12.7015630
   2.8968750 121.4292950  11.7717610   1.8958510 121.3787240  12.9063410
   1.9438590 113.6106020  24.6832060   2.4423840 114.0851840  25.3483910
   2.0861540 112.6869540  24.8902090   4.3498090 108.9159980  18.1235320
   4.2265870 108.9346110  17.1744830   5.2982650 108.9638920  18.2433720
   9.1505450 109.8273980  25.5260450   8.6479050 110.5679380  25.8654260
   9.9662110 110.2157980  25.2097240   7.4427460 115.0707160  18.9721810
   6.5017600 115.0857390  19.1469500   7.7571530 114.2843120  19.4182110
   9.4453040 122.2416010  20.6476070   9.5700460 123.0647180  21.1199880
  10.3118600 122.0306740  20.3000220   4.7593480 119.6273160  29.4554190
   4.1531640 119.6504760  28.7149940   4.4547590 118.8956200  29.9921440
   6.1893850 123.3553450  28.0663600   7.1415600 123.2711470  28.0163840
   6.0422070 124.0195160  28.7397390   9.0803050 122.7347660  13.5655510
   8.7944560 122.3212800  12.7509690   8.8822600 123.6635370  13.4456030
   3.7853010 117.7900970  12.6103110   3.2363110 118.2370270  13.2545850
   4.4072270 117.2850220  13.1340780   7.8387950 119.1443070  28.5425370
   8.5797420 119.4818830  28.0392830   7.0760630 119.3135130  27.9895140
   1.9655770 115.7729500  11.7545510   2.4861430 115.0578520  11.3886660
   2.6124170 116.4115370  12.0546020   6.5133610 117.1957900  27.0780580
   6.9274630 117.3502980  27.9271000   5.5784610 117.3213120  27.2406360
   6.9855780 114.5354060  29.0819730   7.5676550 113.7806380  28.9940210
   7.1617550 115.0661500  28.3051210   3.6112740 114.8794560  26.4314350
   3.7308950 114.2835700  27.1709190   4.4706740 114.9164250  26.0115650
   5.9500640 115.4331750  25.0076860   5.4235860 115.9574370  24.4042000
   6.2931980 116.0659140  25.6386590   5.1974940 111.0381720  27.9223190
   4.5090460 110.3763260  27.8573180   5.9180960 110.5919990  28.3671650
   5.8275340 107.6333350  13.9813450   6.1077630 106.7901250  14.3372870
   5.0541070 107.8656460  14.4952200   1.9818470 124.6882600  26.4220890
   1.9077170 125.5917740  26.7293260   1.0797310 124.3694500  26.3942960
   2.5303800 123.8541110  14.0447250   3.4254590 124.1926080  14.0666010
   2.5621430 123.1320520  13.4171530   9.5098150 122.3844780  26.7513450
   8.9100140 122.4437340  26.0077370   9.6392050 121.4449760  26.8810300
  10.7499600 120.1262600  12.0883160   9.9192560 120.1939250  12.5590390
  10.9271430 121.0166720  11.7850020  10.2056060 116.8710080  14.5917360
  10.9674970 117.4406730  14.6977050  10.2210430 116.3037280  15.3625670
  11.2116030 117.7260180  19.4359290  11.5824860 116.9427500  19.0295260
  11.8517960 118.4149280  19.2576590   8.1949790 119.1096760  24.8489610
   7.3809630 119.5393920  25.1115400   8.6023990 119.7215170  24.2358660
  10.2575230 117.1644450  11.7489880  10.5324070 118.0723330  11.6209100
  10.0685970 117.1006980  12.6851870   6.6550840 110.1889300  13.0443510
   7.0735720 110.0020280  12.2040170   6.3486900 109.3368350  13.3546440
  10.1540570 115.1013440  16.7419310   9.7784170 114.3341370  16.3100600
   9.4243690 115.4836140  17.2294240   9.5440190 114.2484960  26.3758830
   9.3126280 114.0197710  25.4756780   9.8044740 115.1684510  26.3303720
   7.9828260 109.4741390  29.1538530   8.8598440 109.4824790  29.5372530
   7.9949100 108.7372230  28.5430880   9.4291530 113.3270930  20.0426550
   9.9529010 112.8333580  19.4116720  10.0150950 113.4621290  20.7874120
   9.6081250 113.4110800  23.5646100   8.6583960 113.3774340  23.6791090
   9.7894260 114.3210910  23.3295870   8.9191500 112.5844280  15.9818960
   9.4150620 112.3515150  16.7667840   8.7207570 111.7456120  15.5656600
  10.3478660 111.2205230  18.5156640  10.2377940 111.0661270  19.4538910
  11.1086250 110.6926170  18.2732050   8.6944380 107.1599360  24.9739640
   9.3316600 107.7733500  25.3398830   8.8419270 107.1960020  24.0288870
  11.2368930 109.0513150  11.7562780  12.1618240 108.9194330  11.5481070
  11.2144720 109.1305970  12.7099230  11.3107420 109.8223810  14.3819490
  10.5158920 109.7568930  14.9112400  11.5150700 110.7574450  14.3704840
   8.2525840 123.8615360  18.3757880   8.8484910 123.5399930  17.6992300
   8.5103990 123.3887180  19.1671150   2.0648860 108.3125550  27.8814740
   2.0037750 108.9047380  28.6310150   3.0049240 108.2051510  27.7365000
   4.7023420 107.9695610  27.5207030   5.3163830 108.2874900  26.8588110
   5.2472980 107.4844200  28.1402890  11.1198600 123.8687240  24.9268870
  10.6256880 124.2656110  24.2096000  10.5111890 123.2436450  25.3206150
   5.4431460 106.5327750  23.8476320   4.5691300 106.8662860  23.6449250
   5.3342210 106.0600930  24.6728190   6.3503440 108.7398620  25.2318040
   6.0216800 107.9250380  24.8519770   7.2985740 108.6968430  25.1083730
   8.8038050 124.5110660  22.2055610   8.3441020 125.2626470  21.8313630
   8.1750510 123.7917130  22.1470410   1.9729270 123.7107390  22.2072720
   2.2607080 123.4561690  21.3305730   2.4852490 123.1584750  22.7978290
   3.1906280 107.4497590  22.7869230   2.4078070 107.9243090  23.0665990
   2.8969210 106.5452420  22.6782410   7.7427350 108.1520690  20.8318320
   8.1835440 108.0965790  19.9839920   7.4734940 109.0678700  20.9028500
   9.6065920 107.7835930  18.8427140   9.5454320 106.8397150  18.6958160
  10.3857950 107.8916020  19.3880600   5.5785480 106.5326790  19.5368330
   6.1814850 107.1047000  20.0116850   4.8378470 107.0966230  19.3142230
   8.7220080 106.9348350  14.8108610   8.9170710 107.8331800  15.0776040
   7.9349950 106.7035430  15.3041560   2.0401630 124.6323490  29.5740920
   2.9668940 124.3967760  29.6176880   2.0252060 125.4595490  29.0926950
  10.2746690 124.1749060  16.5715170  10.4498880 123.4886800  15.9276090
   9.5768260 124.6996110  16.1791840   5.8280700 106.7121820  29.9163270
   5.7146150 107.0316430  30.8114790   6.6450440 107.1134330  29.6200550
   8.6079190 123.8593350  29.3981960   9.4004510 123.3642580  29.1907920
   8.9012340 124.5383490  30.0057570   2.8656890 116.5093310   2.1607280
   2.0898990 116.0293750   2.4505850   3.5169820 115.8298960   1.9863440
   2.3065880 119.1850500   2.1677440   2.2374160 118.2440440   2.0066570
   3.0685740 119.2751910   2.7400010  11.4094720 111.5038070   5.8918340
  10.7046890 111.8919780   5.3733450  11.6752640 112.1988360   6.4939270
   7.3556650 111.4271700   2.1002250   6.6512220 111.7156590   2.6805360
   7.7168810 112.2371810   1.7401810   8.9719430 121.0446830   4.3629730
   8.2882950 121.7145940   4.3546400   9.5113720 121.2427480   3.5974590
  10.4243570 110.8726490   2.4911460   9.4768480 110.9065470   2.6226890
  10.7493560 111.6865440   2.8760820   6.5078170 122.8890960   3.0774910
   6.5205330 122.4853250   2.2097170   5.9553390 123.6638250   2.9736340
   5.9063610 117.7920800   4.4057520   6.3232400 117.5780910   3.5710980
   6.6303430 118.0493590   4.9766140   9.8525710 116.1908020   4.4973760
   9.0244340 116.2601110   4.0223890  10.4476190 116.7762330   4.0289590
   6.8167720 112.9777340   5.4428630   6.4038900 113.8031050   5.6968620
   6.0843670 112.3922380   5.2504990   7.5067820 123.0236670   6.1309610
   7.0298380 123.8308860   5.9382220   6.8229610 122.3715000   6.2835820
  11.0867030 122.7848610  11.2001000  11.5626750 123.2631500  11.8790080
  11.7074190 122.7166100  10.4746500  10.4900280 119.9761460   8.3601010
  10.6163340 119.7373340   7.4418190  10.5321660 119.1446000   8.8323090
   4.3517020 123.6789460   6.9295820   4.8661690 123.5897470   7.7318250
   3.5086100 124.0249160   7.2223730  10.3424290 112.0293920   9.3250750
   9.7268560 112.5373590   8.7966210  10.0220710 111.1292250   9.2676690
   2.4038610 110.8685810   6.7912940   1.9417980 111.0768830   7.6032880
   2.0016720 110.0545160   6.4883610   7.4043120 112.0894760   7.9209600
   6.5536710 111.7900510   8.2418670   7.2444910 112.3336770   7.0093420
   4.4992830 113.5896510  10.0208390   4.8246240 112.7560260   9.6810620
   5.2873160 114.1125030  10.1686720   2.0537820 110.5185080  10.8049660
   1.3636140 110.3257280  11.4395750   2.7970120 110.8019720  11.3373960
   4.3300790 114.3583520   3.6403580   3.5981910 114.8670330   3.9893680
   3.9325130 113.5413500   3.3392360   4.7926700 109.8117200   3.0526520
   4.8099440 110.2625850   3.8968370   4.5442280 108.9122840   3.2659960
   8.2197450 107.2249380   8.8912900   8.5443220 106.4939040   9.4170880
   8.2553960 106.9063020   7.9893890   8.1455290 117.3374490   2.4998930
   8.8654410 117.8329780   2.1095040   7.9437110 116.6592380   1.8552800
   3.5274090 117.4083550   8.3867930   3.4611400 116.4879220   8.1325520
   2.8979230 117.5058990   9.1012570   3.4590820 120.2304120   8.1371730
   3.4735360 119.2985080   7.9190640   2.7515920 120.3163880   8.7761500
   9.6702030 116.8711460   7.4840310   8.9450220 117.4640240   7.2869700
  10.1977490 116.8635000   6.6853680   2.8924720 121.8721690   5.2312230
   3.5366940 122.0781070   5.9085650   3.2554160 121.1110090   4.7783080
   4.1656800 119.8754040   3.9489680   4.8079030 119.1747200   4.0621850
   4.6906150 120.6552480   3.7686570   5.9394420 120.6748940   7.1525740
   6.2750660 121.2615630   7.8303660   5.0194760 120.5441650   7.3823530
   1.7683000 120.7240270  10.3213800   1.4479870 120.0049510  10.8659490
   1.0941360 121.3995340  10.3949860   4.9836600 110.9566430   5.6850600
   5.3517420 110.1361640   6.0130170   4.1234800 111.0168320   6.1006250
   1.9438590 113.6106020   5.9088570   2.4423840 114.0851840   6.5740420
   2.0861540 112.6869540   6.1158600   9.1505450 109.8273980   6.7516960
   8.6479050 110.5679380   7.0910770   9.9662110 110.2157980   6.4353750
   4.7593480 119.6273160  10.6810700   4.1531640 119.6504760   9.9406450
   4.4547590 118.8956200  11.2177950   6.1893850 123.3553450   9.2920110
   7.1415600 123.2711470   9.2420350   6.0422070 124.0195160   9.9653900
   7.8387950 119.1443070   9.7681880   8.5797420 119.4818830   9.2649340
   7.0760630 119.3135130   9.2151650   6.5133610 117.1957900   8.3037090
   6.9274630 117.3502980   9.1527510   5.5784610 117.3213120   8.4662870
   6.9855780 114.5354060  10.3076240   7.5676550 113.7806380  10.2196720
   7.1617550 115.0661500   9.5307720   3.6112740 114.8794560   7.6570860
   3.7308950 114.2835700   8.3965700   4.4706740 114.9164250   7.2372160
   5.9500640 115.4331750   6.2333370   5.4235860 115.9574370   5.6298510
   6.2931980 116.0659140   6.8643100   5.1974940 111.0381720   9.1479700
   4.5090460 110.3763260   9.0829690   5.9180960 110.5919990   9.5928160
   1.9818470 124.6882600   7.6477400   1.9077170 125.5917740   7.9549770
   1.0797310 124.3694500   7.6199470   9.5098150 122.3844780   7.9769960
   8.9100140 122.4437340   7.2333880   9.6392050 121.4449760   8.1066810
   8.1949790 119.1096760   6.0746120   7.3809630 119.5393920   6.3371910
   8.6023990 119.7215170   5.4615170   9.5440190 114.2484960   7.6015340
   9.3126280 114.0197710   6.7013290   9.8044740 115.1684510   7.5560230
   7.9828260 109.4741390  10.3795040   8.8598440 109.4824790  10.7629040
   7.9949100 108.7372230   9.7687390   9.6081250 113.4110800   4.7902610
   8.6583960 113.3774340   4.9047600   9.7894260 114.3210910   4.5552380
   8.6944380 107.1599360   6.1996150   9.3316600 107.7733500   6.5655340
   8.8419270 107.1960020   5.2545380   2.0648860 108.3125550   9.1071250
   2.0037750 108.9047380   9.8566660   3.0049240 108.2051510   8.9621510
   4.7023420 107.9695610   8.7463540   5.3163830 108.2874900   8.0844620
   5.2472980 107.4844200   9.3659400  11.1198600 123.8687240   6.1525380
  10.6256880 124.2656110   5.4352510  10.5111890 123.2436450   6.5462660
   5.4431460 106.5327750   5.0732830   4.5691300 106.8662860   4.8705760
   5.3342210 106.0600930   5.8984700   6.3503440 108.7398620   6.4574550
   6.0216800 107.9250380   6.0776280   7.2985740 108.6968430   6.3340240
   8.8038050 124.5110660   3.4312120   8.3441020 125.2626470   3.0570140
   8.1750510 123.7917130   3.3726920   1.9729270 123.7107390   3.4329230
   2.2607080 123.4561690   2.5562240   2.4852490 123.1584750   4.0234800
   3.1906280 107.4497590   4.0125740   2.4078070 107.9243090   4.2922500
   2.8969210 106.5452420   3.9038920   2.0401630 124.6323490  10.7997430
   2.9668940 124.3967760  10.8433390   2.0252060 125.4595490  10.3183460
   5.8280700 106.7121820  11.1419780   5.7146150 107.0316430  12.0371300
   6.6450440 107.1134330  10.8457060   8.6079190 123.8593350  10.6238470
   9.4004510 123.3642580  10.4164430   8.9012340 124.5383490  11.2314080
   4.7338850  95.9570800 150.4745930   4.6532900  95.0425410 150.2037640
   4.3203270  96.4537870 149.7685640   6.8864320 102.1410010 151.1354330
   6.4245850 101.3697250 151.4641500   7.6989870 102.1676080 151.6406780
   3.1127630 104.4268020 150.7558320   2.4939070 104.8825520 150.1852760
   3.9679410 104.5819480 150.3548020   7.1195170  90.7127830 149.5222630
   7.9404790  90.2224400 149.5648110   7.1529250  91.3025490 150.2754470
   3.9790980  99.3107260 148.1490230   3.3608250  99.7756710 147.5852950
   4.4914230 100.0034740 148.5659740   7.8023590 100.8363690 148.3613000
   7.6919920  99.8938020 148.4862420   7.7991840 101.1979330 149.2475760
   3.3443870  96.4629010 147.7175490   2.4173150  96.3966390 147.9463960
   3.4968690  97.4009140 147.6030730   3.3312950  92.7346010 144.7142650
   2.3916620  92.8959970 144.7995110   3.6496210  93.4531690 144.1678640
   7.3741160  98.0249310 148.2210740   6.7553580  97.6868860 147.5737040
   7.3565610  97.3809070 148.9289930   5.5505860  97.2636120 145.2283490
   5.9899140  96.4258550 145.0821310   6.2634280  97.8965520 145.3147630
   3.6601240 102.2032190 149.1964730   4.0997150 102.9456520 148.7820120
   3.5988130 102.4458760 150.1203690   9.1323000  88.5178930 143.5424530
   8.8195660  88.6105760 144.4423600   9.8935470  89.0959960 143.4921960
   6.3271420 105.1901310 146.5527740   6.1672560 104.9004250 147.4509570
   6.1618130 104.4141440 146.0172970   6.0297550 102.6988870 145.1125740
   5.3362710 102.6966160 144.4528020   6.7720410 102.2748190 144.6819910
   5.5947480 104.3251580 149.1874230   6.0504430 103.5440960 149.5012850
   5.9340000 105.0358400 149.7315410   5.1380780  94.3570740 147.7097440
   4.5389670  95.0806540 147.5261060   5.6860390  94.2947520 146.9273890
   3.7445650  92.9934280 149.7400720   4.1375220  93.3106480 148.9269410
   4.1062500  92.1146160 149.8545240   3.6065230  89.9568960 146.8376240
   2.7929840  89.4582130 146.7621550   3.4127180  90.7967210 146.4212590
   6.3213620  94.3288610 145.1338400   7.2093240  94.6405840 144.9589740
   6.2918710  93.4560860 144.7418980   2.3174210 100.5012300 145.8126570
   2.6589910 101.2454530 145.3169890   1.4886920 100.8143420 146.1751400
   8.5927890  95.6400450 144.6018260   8.5091610  96.0714670 143.7514700
   9.3122080  96.0998800 145.0345080   9.6215140 102.4942710 147.3300390
   8.9791300 101.8398330 147.6044110   9.2345800 102.8997800 146.5541060
   5.2001620  99.8228140 151.1772080   5.5525440  99.2256270 150.5173450
   4.3163950  99.4972370 151.3480330   8.0112520 101.3859170 143.8676740
   7.7850100 100.6689610 144.4601380   7.6208720 101.1371610 143.0298490
   7.5928770  99.3031110 145.5290900   7.3050470  99.7643800 146.3168780
   8.3880940  98.8428880 145.7975120   8.3498630  91.1379880 146.6886080
   7.7211790  91.2425550 145.9744310   7.8550550  91.3576660 147.4779960
   2.7956770 102.8585470 144.1220060   2.8968750 102.6549460 143.1922040
   1.8958510 102.6043750 144.3267840   4.3498090  90.1416490 149.5439750
   4.2265870  90.1602620 148.5949260   5.2982650  90.1895430 149.6638150
   7.4427460  96.2963670 150.3926240   6.5017600  96.3113900 150.5673930
   7.7571530  95.5099630 150.8386540   9.0803050 103.9604170 144.9859940
   8.7944560 103.5469310 144.1714120   8.8822600 104.8891880 144.8660460
   3.7853010  99.0157480 144.0307540   3.2363110  99.4626780 144.6750280
   4.4072270  98.5106730 144.5545210   1.9655770  96.9986010 143.1749940
   2.4861430  96.2835030 142.8091090   2.6124170  97.6371880 143.4750450
   5.8275340  88.8589860 145.4017880   6.1077630  88.0157760 145.7577300
   5.0541070  89.0912970 145.9156630   2.5303800 105.0797620 145.4651680
   3.4254590 105.4182590 145.4870440   2.5621430 104.3577030 144.8375960
  10.7499600 101.3519110 143.5087590   9.9192560 101.4195760 143.9794820
  10.9271430 102.2423230 143.2054450  10.2056060  98.0966590 146.0121790
  10.9674970  98.6663240 146.1181480  10.2210430  97.5293790 146.7830100
  11.2116030  98.9516690 150.8563720  11.5824860  98.1684010 150.4499690
  11.8517960  99.6405790 150.6781020  10.2575230  98.3900960 143.1694310
  10.5324070  99.2979840 143.0413530  10.0685970  98.3263490 144.1056300
   6.6550840  91.4145810 144.4647940   7.0735720  91.2276790 143.6244600
   6.3486900  90.5624860 144.7750870  10.1540570  96.3269950 148.1623740
   9.7784170  95.5597880 147.7305030   9.4243690  96.7092650 148.6498670
   9.4291530  94.5527440 151.4630980   9.9529010  94.0590090 150.8321150
  10.0150950  94.6877800 152.2078550   8.9191500  93.8100790 147.4023390
   9.4150620  93.5771660 148.1872270   8.7207570  92.9712630 146.9861030
  10.3478660  92.4461740 149.9361070  10.2377940  92.2917780 150.8743340
  11.1086250  91.9182680 149.6936480  11.2368930  90.2769660 143.1767210
  12.1618240  90.1450840 142.9685500  11.2144720  90.3562480 144.1303660
  11.3107420  91.0480320 145.8023920  10.5158920  90.9825440 146.3316830
  11.5150700  91.9830960 145.7909270   8.2525840 105.0871870 149.7962310
   8.8484910 104.7656440 149.1196730   8.5103990 104.6143690 150.5875580
   7.7427350  89.3777200 152.2522750   8.1835440  89.3222300 151.4044350
   7.4734940  90.2935210 152.3232930   9.6065920  89.0092440 150.2631570
   9.5454320  88.0653660 150.1162590  10.3857950  89.1172530 150.8085030
   5.5785480  87.7583300 150.9572760   6.1814850  88.3303510 151.4321280
   4.8378470  88.3222740 150.7346660   8.7220080  88.1604860 146.2313040
   8.9170710  89.0588310 146.4980470   7.9349950  87.9291940 146.7245990
  10.2746690 105.4005570 147.9919600  10.4498880 104.7143310 147.3480520
   9.5768260 105.9252620 147.5996270   4.7338850  95.9570800 131.7002440
   4.6532900  95.0425410 131.4294150   4.3203270  96.4537870 130.9942150
   2.8656890  97.7349820 133.5811710   2.0898990  97.2550260 133.8710280
   3.5169820  97.0555470 133.4067870   6.8864320 102.1410010 132.3610840
   6.4245850 101.3697250 132.6898010   7.6989870 102.1676080 132.8663290
   3.1127630 104.4268020 131.9814830   2.4939070 104.8825520 131.4109270
   3.9679410 104.5819480 131.5804530   2.3065880 100.4107010 133.5881870
   2.2374160  99.4696950 133.4271000   3.0685740 100.5008420 134.1604440
   3.3371050  93.2177390 133.8150800   3.7135870  92.3449270 133.7024470
   3.2390560  93.5536090 132.9241240   7.1195170  90.7127830 130.7479140
   7.9404790  90.2224400 130.7904620   7.1529250  91.3025490 131.5010980
  11.4094720  92.7294580 137.3122770  10.7046890  93.1176290 136.7937880
  11.6752640  93.4244870 137.9143700   3.9790980  99.3107260 129.3746740
   3.3608250  99.7756710 128.8109460   4.4914230 100.0034740 129.7916250
   7.3556650  92.6528210 133.5206680   6.6512220  92.9413100 134.1009790
   7.7168810  93.4628320 133.1606240   8.9719430 102.2703340 135.7834160
   8.2882950 102.9402450 135.7750830   9.5113720 102.4683990 135.0179020
  10.4243570  92.0983000 133.9115890   9.4768480  92.1321980 134.0431320
  10.7493560  92.9121950 134.2965250   6.5078170 104.1147470 134.4979340
   6.5205330 103.7109760 133.6301600   5.9553390 104.8894760 134.3940770
   7.8023590 100.8363690 129.5869510   7.6919920  99.8938020 129.7118930
   7.7991840 101.1979330 130.4732270   5.9063610  99.0177310 135.8261950
   6.3232400  98.8037420 134.9915410   6.6303430  99.2750100 136.3970570
   3.3443870  96.4629010 128.9432000   2.4173150  96.3966390 129.1720470
   3.4968690  97.4009140 128.8287240   3.3312950  92.7346010 125.9399160
   2.3916620  92.8959970 126.0251620   3.6496210  93.4531690 125.3935150
   9.8525710  97.4164530 135.9178190   9.0244340  97.4857620 135.4428320
  10.4476190  98.0018840 135.4494020   7.3741160  98.0249310 129.4467250
   6.7553580  97.6868860 128.7993550   7.3565610  97.3809070 130.1546440
   6.8167720  94.2033850 136.8633060   6.4038900  95.0287560 137.1173050
   6.0843670  93.6178890 136.6709420   7.5067820 104.2493180 137.5514040
   7.0298380 105.0565370 137.3586650   6.8229610 103.5971510 137.7040250
   5.5505860  97.2636120 126.4540000   5.9899140  96.4258550 126.3077820
   6.2634280  97.8965520 126.5404140   3.6601240 102.2032190 130.4221240
   4.0997150 102.9456520 130.0076630   3.5988130 102.4458760 131.3460200
   9.1323000  88.5178930 124.7681040   8.8195660  88.6105760 125.6680110
   9.8935470  89.0959960 124.7178470  11.0867030 104.0105120 142.6205430
  11.5626750 104.4888010 143.2994510  11.7074190 103.9422610 141.8950930
  10.4900280 101.2017970 139.7805440  10.6163340 100.9629850 138.8622620
  10.5321660 100.3702510 140.2527520   4.3517020 104.9045970 138.3500250
   4.8661690 104.8153980 139.1522680   3.5086100 105.2505670 138.6428160
   6.3271420 105.1901310 127.7784250   6.1672560 104.9004250 128.6766080
   6.1618130 104.4141440 127.2429480   6.0297550 102.6988870 126.3382250
   5.3362710 102.6966160 125.6784530   6.7720410 102.2748190 125.9076420
   5.5947480 104.3251580 130.4130740   6.0504430 103.5440960 130.7269360
   5.9340000 105.0358400 130.9571920  10.3424290  93.2550430 140.7455180
   9.7268560  93.7630100 140.2170640  10.0220710  92.3548760 140.6881120
   2.4038610  92.0942320 138.2117370   1.9417980  92.3025340 139.0237310
   2.0016720  91.2801670 137.9088040   7.4043120  93.3151270 139.3414030
   6.5536710  93.0157020 139.6623100   7.2444910  93.5593280 138.4297850
   4.4992830  94.8153020 141.4412820   4.8246240  93.9816770 141.1015050
   5.2873160  95.3381540 141.5891150   5.1380780  94.3570740 128.9353950
   4.5389670  95.0806540 128.7517570   5.6860390  94.2947520 128.1530400
   3.7445650  92.9934280 130.9657230   4.1375220  93.3106480 130.1525920
   4.1062500  92.1146160 131.0801750   2.0537820  91.7441590 142.2254090
   1.3636140  91.5513790 142.8600180   2.7970120  92.0276230 142.7578390
   4.3300790  95.5840030 135.0608010   3.5981910  96.0926840 135.4098110
   3.9325130  94.7670010 134.7596790   4.7926700  91.0373710 134.4730950
   4.8099440  91.4882360 135.3172800   4.5442280  90.1379350 134.6864390
   8.2197450  88.4505890 140.3117330   8.5443220  87.7195550 140.8375310
   8.2553960  88.1319530 139.4098320   8.1455290  98.5631000 133.9203360
   8.8654410  99.0586290 133.5299470   7.9437110  97.8848890 133.2757230
   3.6065230  89.9568960 128.0632750   2.7929840  89.4582130 127.9878060
   3.4127180  90.7967210 127.6469100   3.5274090  98.6340060 139.8072360
   3.4611400  97.7135730 139.5529950   2.8979230  98.7315500 140.5217000
   6.3213620  94.3288610 126.3594910   7.2093240  94.6405840 126.1846250
   6.2918710  93.4560860 125.9675490   2.3174210 100.5012300 127.0383080
   2.6589910 101.2454530 126.5426400   1.4886920 100.8143420 127.4007910
   3.4590820 101.4560630 139.5576160   3.4735360 100.5241590 139.3395070
   2.7515920 101.5420390 140.1965930   8.5927890  95.6400450 125.8274770
   8.5091610  96.0714670 124.9771210   9.3122080  96.0998800 126.2601590
   9.6702030  98.0967970 138.9044740   8.9450220  98.6896750 138.7074130
  10.1977490  98.0891510 138.1058110   9.6215140 102.4942710 128.5556900
   8.9791300 101.8398330 128.8300620   9.2345800 102.8997800 127.7797570
   5.2001620  99.8228140 132.4028590   5.5525440  99.2256270 131.7429960
   4.3163950  99.4972370 132.5736840   2.8924720 103.0978200 136.6516660
   3.5366940 103.3037580 137.3290080   3.2554160 102.3366600 136.1987510
   4.1656800 101.1010550 135.3694110   4.8079030 100.4003710 135.4826280
   4.6906150 101.8808990 135.1891000   8.0112520 101.3859170 125.0933250
   7.7850100 100.6689610 125.6857890   7.6208720 101.1371610 124.2555000
   5.9394420 101.9005450 138.5730170   6.2750660 102.4872140 139.2508090
   5.0194760 101.7698160 138.8027960   7.5928770  99.3031110 126.7547410
   7.3050470  99.7643800 127.5425290   8.3880940  98.8428880 127.0231630
   1.7683000 101.9496780 141.7418230   1.4479870 101.2306020 142.2863920
   1.0941360 102.6251850 141.8154290   4.9836600  92.1822940 137.1055030
   5.3517420  91.3618150 137.4334600   4.1234800  92.2424830 137.5210680
   8.3498630  91.1379880 127.9142590   7.7211790  91.2425550 127.2000820
   7.8550550  91.3576660 128.7036470   2.7956770 102.8585470 125.3476570
   2.8968750 102.6549460 124.4178550   1.8958510 102.6043750 125.5524350
   1.9438590  94.8362530 137.3293000   2.4423840  95.3108350 137.9944850
   2.0861540  93.9126050 137.5363030   4.3498090  90.1416490 130.7696260
   4.2265870  90.1602620 129.8205770   5.2982650  90.1895430 130.8894660
   9.1505450  91.0530490 138.1721390   8.6479050  91.7935890 138.5115200
   9.9662110  91.4414490 137.8558180   7.4427460  96.2963670 131.6182750
   6.5017600  96.3113900 131.7930440   7.7571530  95.5099630 132.0643050
   9.4453040 103.4672520 133.2937010   9.5700460 104.2903690 133.7660820
  10.3118600 103.2563250 132.9461160   4.7593480 100.8529670 142.1015130
   4.1531640 100.8761270 141.3610880   4.4547590 100.1212710 142.6382380
   6.1893850 104.5809960 140.7124540   7.1415600 104.4967980 140.6624780
   6.0422070 105.2451670 141.3858330   9.0803050 103.9604170 126.2116450
   8.7944560 103.5469310 125.3970630   8.8822600 104.8891880 126.0916970
   3.7853010  99.0157480 125.2564050   3.2363110  99.4626780 125.9006790
   4.4072270  98.5106730 125.7801720   7.8387950 100.3699580 141.1886310
   8.5797420 100.7075340 140.6853770   7.0760630 100.5391640 140.6356080
   1.9655770  96.9986010 124.4006450   2.4861430  96.2835030 124.0347600
   2.6124170  97.6371880 124.7006960   6.5133610  98.4214410 139.7241520
   6.9274630  98.5759490 140.5731940   5.5784610  98.5469630 139.8867300
   6.9855780  95.7610570 141.7280670   7.5676550  95.0062890 141.6401150
   7.1617550  96.2918010 140.9512150   3.6112740  96.1051070 139.0775290
   3.7308950  95.5092210 139.8170130   4.4706740  96.1420760 138.6576590
   5.9500640  96.6588260 137.6537800   5.4235860  97.1830880 137.0502940
   6.2931980  97.2915650 138.2847530   5.1974940  92.2638230 140.5684130
   4.5090460  91.6019770 140.5034120   5.9180960  91.8176500 141.0132590
   5.8275340  88.8589860 126.6274390   6.1077630  88.0157760 126.9833810
   5.0541070  89.0912970 127.1413140   1.9818470 105.9139110 139.0681830
   1.9077170 106.8174250 139.3754200   1.0797310 105.5951010 139.0403900
   2.5303800 105.0797620 126.6908190   3.4254590 105.4182590 126.7126950
   2.5621430 104.3577030 126.0632470   9.5098150 103.6101290 139.3974390
   8.9100140 103.6693850 138.6538310   9.6392050 102.6706270 139.5271240
  10.7499600 101.3519110 124.7344100   9.9192560 101.4195760 125.2051330
  10.9271430 102.2423230 124.4310960  10.2056060  98.0966590 127.2378300
  10.9674970  98.6663240 127.3437990  10.2210430  97.5293790 128.0086610
  11.2116030  98.9516690 132.0820230  11.5824860  98.1684010 131.6756200
  11.8517960  99.6405790 131.9037530   8.1949790 100.3353270 137.4950550
   7.3809630 100.7650430 137.7576340   8.6023990 100.9471680 136.8819600
  10.2575230  98.3900960 124.3950820  10.5324070  99.2979840 124.2670040
  10.0685970  98.3263490 125.3312810   6.6550840  91.4145810 125.6904450
   7.0735720  91.2276790 124.8501110   6.3486900  90.5624860 126.0007380
  10.1540570  96.3269950 129.3880250   9.7784170  95.5597880 128.9561540
   9.4243690  96.7092650 129.8755180   9.5440190  95.4741470 139.0219770
   9.3126280  95.2454220 138.1217720   9.8044740  96.3941020 138.9764660
   7.9828260  90.6997900 141.7999470   8.8598440  90.7081300 142.1833470
   7.9949100  89.9628740 141.1891820   9.4291530  94.5527440 132.6887490
   9.9529010  94.0590090 132.0577660  10.0150950  94.6877800 133.4335060
   9.6081250  94.6367310 136.2107040   8.6583960  94.6030850 136.3252030
   9.7894260  95.5467420 135.9756810   8.9191500  93.8100790 128.6279900
   9.4150620  93.5771660 129.4128780   8.7207570  92.9712630 128.2117540
  10.3478660  92.4461740 131.1617580  10.2377940  92.2917780 132.0999850
  11.1086250  91.9182680 130.9192990   8.6944380  88.3855870 137.6200580
   9.3316600  88.9990010 137.9859770   8.8419270  88.4216530 136.6749810
  11.2368930  90.2769660 124.4023720  12.1618240  90.1450840 124.1942010
  11.2144720  90.3562480 125.3560170  11.3107420  91.0480320 127.0280430
  10.5158920  90.9825440 127.5573340  11.5150700  91.9830960 127.0165780
   8.2525840 105.0871870 131.0218820   8.8484910 104.7656440 130.3453240
   8.5103990 104.6143690 131.8132090   2.0648860  89.5382060 140.5275680
   2.0037750  90.1303890 141.2771090   3.0049240  89.4308020 140.3825940
   4.7023420  89.1952120 140.1667970   5.3163830  89.5131410 139.5049050
   5.2472980  88.7100710 140.7863830  11.1198600 105.0943750 137.5729810
  10.6256880 105.4912620 136.8556940  10.5111890 104.4692960 137.9667090
   5.4431460  87.7584260 136.4937260   4.5691300  88.0919370 136.2910190
   5.3342210  87.2857440 137.3189130   6.3503440  89.9655130 137.8778980
   6.0216800  89.1506890 137.4980710   7.2985740  89.9224940 137.7544670
   8.8038050 105.7367170 134.8516550   8.3441020 106.4882980 134.4774570
   8.1750510 105.0173640 134.7931350   1.9729270 104.9363900 134.8533660
   2.2607080 104.6818200 133.9766670   2.4852490 104.3841260 135.4439230
   3.1906280  88.6754100 135.4330170   2.4078070  89.1499600 135.7126930
   2.8969210  87.7708930 135.3243350   7.7427350  89.3777200 133.4779260
   8.1835440  89.3222300 132.6300860   7.4734940  90.2935210 133.5489440
   9.6065920  89.0092440 131.4888080   9.5454320  88.0653660 131.3419100
  10.3857950  89.1172530 132.0341540   5.5785480  87.7583300 132.1829270
   6.1814850  88.3303510 132.6577790   4.8378470  88.3222740 131.9603170
   8.7220080  88.1604860 127.4569550   8.9170710  89.0588310 127.7236980
   7.9349950  87.9291940 127.9502500   2.0401630 105.8580000 142.2201860
   2.9668940 105.6224270 142.2637820   2.0252060 106.6852000 141.7387890
  10.2746690 105.4005570 129.2176110  10.4498880 104.7143310 128.5737030
   9.5768260 105.9252620 128.8252780   5.8280700  87.9378330 142.5624210
   5.7146150  88.2572940 143.4575730   6.6450440  88.3390840 142.2661490
   8.6079190 105.0849860 142.0442900   9.4004510 104.5899090 141.8368860
   8.9012340 105.7640000 142.6518510   4.7338850  95.9570800 112.9258950
   4.6532900  95.0425410 112.6550660   4.3203270  96.4537870 112.2198660
   2.8656890  97.7349820 114.8068220   2.0898990  97.2550260 115.0966790
   3.5169820  97.0555470 114.6324380   6.8864320 102.1410010 113.5867350
   6.4245850 101.3697250 113.9154520   7.6989870 102.1676080 114.0919800
   3.1127630 104.4268020 113.2071340   2.4939070 104.8825520 112.6365780
   3.9679410 104.5819480 112.8061040   2.3065880 100.4107010 114.8138380
   2.2374160  99.4696950 114.6527510   3.0685740 100.5008420 115.3860950
   3.3371050  93.2177390 115.0407310   3.7135870  92.3449270 114.9280980
   3.2390560  93.5536090 114.1497750   7.1195170  90.7127830 111.9735650
   7.9404790  90.2224400 112.0161130   7.1529250  91.3025490 112.7267490
  11.4094720  92.7294580 118.5379280  10.7046890  93.1176290 118.0194390
  11.6752640  93.4244870 119.1400210   3.9790980  99.3107260 110.6003250
   3.3608250  99.7756710 110.0365970   4.4914230 100.0034740 111.0172760
   7.3556650  92.6528210 114.7463190   6.6512220  92.9413100 115.3266300
   7.7168810  93.4628320 114.3862750   8.9719430 102.2703340 117.0090670
   8.2882950 102.9402450 117.0007340   9.5113720 102.4683990 116.2435530
  10.4243570  92.0983000 115.1372400   9.4768480  92.1321980 115.2687830
  10.7493560  92.9121950 115.5221760   6.5078170 104.1147470 115.7235850
   6.5205330 103.7109760 114.8558110   5.9553390 104.8894760 115.6197280
   7.8023590 100.8363690 110.8126020   7.6919920  99.8938020 110.9375440
   7.7991840 101.1979330 111.6988780   5.9063610  99.0177310 117.0518460
   6.3232400  98.8037420 116.2171920   6.6303430  99.2750100 117.6227080
   3.3443870  96.4629010 110.1688510   2.4173150  96.3966390 110.3976980
   3.4968690  97.4009140 110.0543750   3.3312950  92.7346010 107.1655670
   2.3916620  92.8959970 107.2508130   3.6496210  93.4531690 106.6191660
   9.8525710  97.4164530 117.1434700   9.0244340  97.4857620 116.6684830
  10.4476190  98.0018840 116.6750530   7.3741160  98.0249310 110.6723760
   6.7553580  97.6868860 110.0250060   7.3565610  97.3809070 111.3802950
   6.8167720  94.2033850 118.0889570   6.4038900  95.0287560 118.3429560
   6.0843670  93.6178890 117.8965930   7.5067820 104.2493180 118.7770550
   7.0298380 105.0565370 118.5843160   6.8229610 103.5971510 118.9296760
   5.5505860  97.2636120 107.6796510   5.9899140  96.4258550 107.5334330
   6.2634280  97.8965520 107.7660650   3.6601240 102.2032190 111.6477750
   4.0997150 102.9456520 111.2333140   3.5988130 102.4458760 112.5716710
   9.1323000  88.5178930 105.9937550   8.8195660  88.6105760 106.8936620
   9.8935470  89.0959960 105.9434980  11.0867030 104.0105120 123.8461940
  11.5626750 104.4888010 124.5251020  11.7074190 103.9422610 123.1207440
  10.4900280 101.2017970 121.0061950  10.6163340 100.9629850 120.0879130
  10.5321660 100.3702510 121.4784030   4.3517020 104.9045970 119.5756760
   4.8661690 104.8153980 120.3779190   3.5086100 105.2505670 119.8684670
   6.3271420 105.1901310 109.0040760   6.1672560 104.9004250 109.9022590
   6.1618130 104.4141440 108.4685990   6.0297550 102.6988870 107.5638760
   5.3362710 102.6966160 106.9041040   6.7720410 102.2748190 107.1332930
   5.5947480 104.3251580 111.6387250   6.0504430 103.5440960 111.9525870
   5.9340000 105.0358400 112.1828430  10.3424290  93.2550430 121.9711690
   9.7268560  93.7630100 121.4427150  10.0220710  92.3548760 121.9137630
   2.4038610  92.0942320 119.4373880   1.9417980  92.3025340 120.2493820
   2.0016720  91.2801670 119.1344550   7.4043120  93.3151270 120.5670540
   6.5536710  93.0157020 120.8879610   7.2444910  93.5593280 119.6554360
   4.4992830  94.8153020 122.6669330   4.8246240  93.9816770 122.3271560
   5.2873160  95.3381540 122.8147660   5.1380780  94.3570740 110.1610460
   4.5389670  95.0806540 109.9774080   5.6860390  94.2947520 109.3786910
   3.7445650  92.9934280 112.1913740   4.1375220  93.3106480 111.3782430
   4.1062500  92.1146160 112.3058260   2.0537820  91.7441590 123.4510600
   1.3636140  91.5513790 124.0856690   2.7970120  92.0276230 123.9834900
   4.3300790  95.5840030 116.2864520   3.5981910  96.0926840 116.6354620
   3.9325130  94.7670010 115.9853300   4.7926700  91.0373710 115.6987460
   4.8099440  91.4882360 116.5429310   4.5442280  90.1379350 115.9120900
   8.2197450  88.4505890 121.5373840   8.5443220  87.7195550 122.0631820
   8.2553960  88.1319530 120.6354830   8.1455290  98.5631000 115.1459870
   8.8654410  99.0586290 114.7555980   7.9437110  97.8848890 114.5013740
   3.6065230  89.9568960 109.2889260   2.7929840  89.4582130 109.2134570
   3.4127180  90.7967210 108.8725610   3.5274090  98.6340060 121.0328870
   3.4611400  97.7135730 120.7786460   2.8979230  98.7315500 121.7473510
   6.3213620  94.3288610 107.5851420   7.2093240  94.6405840 107.4102760
   6.2918710  93.4560860 107.1932000   2.3174210 100.5012300 108.2639590
   2.6589910 101.2454530 107.7682910   1.4886920 100.8143420 108.6264420
   3.4590820 101.4560630 120.7832670   3.4735360 100.5241590 120.5651580
   2.7515920 101.5420390 121.4222440   8.5927890  95.6400450 107.0531280
   8.5091610  96.0714670 106.2027720   9.3122080  96.0998800 107.4858100
   9.6702030  98.0967970 120.1301250   8.9450220  98.6896750 119.9330640
  10.1977490  98.0891510 119.3314620   9.6215140 102.4942710 109.7813410
   8.9791300 101.8398330 110.0557130   9.2345800 102.8997800 109.0054080
   5.2001620  99.8228140 113.6285100   5.5525440  99.2256270 112.9686470
   4.3163950  99.4972370 113.7993350   2.8924720 103.0978200 117.8773170
   3.5366940 103.3037580 118.5546590   3.2554160 102.3366600 117.4244020
   4.1656800 101.1010550 116.5950620   4.8079030 100.4003710 116.7082790
   4.6906150 101.8808990 116.4147510   8.0112520 101.3859170 106.3189760
   7.7850100 100.6689610 106.9114400   7.6208720 101.1371610 105.4811510
   5.9394420 101.9005450 119.7986680   6.2750660 102.4872140 120.4764600
   5.0194760 101.7698160 120.0284470   7.5928770  99.3031110 107.9803920
   7.3050470  99.7643800 108.7681800   8.3880940  98.8428880 108.2488140
   1.7683000 101.9496780 122.9674740   1.4479870 101.2306020 123.5120430
   1.0941360 102.6251850 123.0410800   4.9836600  92.1822940 118.3311540
   5.3517420  91.3618150 118.6591110   4.1234800  92.2424830 118.7467190
   8.3498630  91.1379880 109.1399100   7.7211790  91.2425550 108.4257330
   7.8550550  91.3576660 109.9292980   2.7956770 102.8585470 106.5733080
   2.8968750 102.6549460 105.6435060   1.8958510 102.6043750 106.7780860
   1.9438590  94.8362530 118.5549510   2.4423840  95.3108350 119.2201360
   2.0861540  93.9126050 118.7619540   4.3498090  90.1416490 111.9952770
   4.2265870  90.1602620 111.0462280   5.2982650  90.1895430 112.1151170
   9.1505450  91.0530490 119.3977900   8.6479050  91.7935890 119.7371710
   9.9662110  91.4414490 119.0814690   7.4427460  96.2963670 112.8439260
   6.5017600  96.3113900 113.0186950   7.7571530  95.5099630 113.2899560
   9.4453040 103.4672520 114.5193520   9.5700460 104.2903690 114.9917330
  10.3118600 103.2563250 114.1717670   4.7593480 100.8529670 123.3271640
   4.1531640 100.8761270 122.5867390   4.4547590 100.1212710 123.8638890
   6.1893850 104.5809960 121.9381050   7.1415600 104.4967980 121.8881290
   6.0422070 105.2451670 122.6114840   9.0803050 103.9604170 107.4372960
   8.7944560 103.5469310 106.6227140   8.8822600 104.8891880 107.3173480
   3.7853010  99.0157480 106.4820560   3.2363110  99.4626780 107.1263300
   4.4072270  98.5106730 107.0058230   7.8387950 100.3699580 122.4142820
   8.5797420 100.7075340 121.9110280   7.0760630 100.5391640 121.8612590
   1.9655770  96.9986010 105.6262960   2.4861430  96.2835030 105.2604110
   2.6124170  97.6371880 105.9263470   6.5133610  98.4214410 120.9498030
   6.9274630  98.5759490 121.7988450   5.5784610  98.5469630 121.1123810
   6.9855780  95.7610570 122.9537180   7.5676550  95.0062890 122.8657660
   7.1617550  96.2918010 122.1768660   3.6112740  96.1051070 120.3031800
   3.7308950  95.5092210 121.0426640   4.4706740  96.1420760 119.8833100
   5.9500640  96.6588260 118.8794310   5.4235860  97.1830880 118.2759450
   6.2931980  97.2915650 119.5104040   5.1974940  92.2638230 121.7940640
   4.5090460  91.6019770 121.7290630   5.9180960  91.8176500 122.2389100
   5.8275340  88.8589860 107.8530900   6.1077630  88.0157760 108.2090320
   5.0541070  89.0912970 108.3669650   1.9818470 105.9139110 120.2938340
   1.9077170 106.8174250 120.6010710   1.0797310 105.5951010 120.2660410
   2.5303800 105.0797620 107.9164700   3.4254590 105.4182590 107.9383460
   2.5621430 104.3577030 107.2888980   9.5098150 103.6101290 120.6230900
   8.9100140 103.6693850 119.8794820   9.6392050 102.6706270 120.7527750
  10.7499600 101.3519110 105.9600610   9.9192560 101.4195760 106.4307840
  10.9271430 102.2423230 105.6567470  10.2056060  98.0966590 108.4634810
  10.9674970  98.6663240 108.5694500  10.2210430  97.5293790 109.2343120
  11.2116030  98.9516690 113.3076740  11.5824860  98.1684010 112.9012710
  11.8517960  99.6405790 113.1294040   8.1949790 100.3353270 118.7207060
   7.3809630 100.7650430 118.9832850   8.6023990 100.9471680 118.1076110
  10.2575230  98.3900960 105.6207330  10.5324070  99.2979840 105.4926550
  10.0685970  98.3263490 106.5569320   6.6550840  91.4145810 106.9160960
   7.0735720  91.2276790 106.0757620   6.3486900  90.5624860 107.2263890
  10.1540570  96.3269950 110.6136760   9.7784170  95.5597880 110.1818050
   9.4243690  96.7092650 111.1011690   9.5440190  95.4741470 120.2476280
   9.3126280  95.2454220 119.3474230   9.8044740  96.3941020 120.2021170
   7.9828260  90.6997900 123.0255980   8.8598440  90.7081300 123.4089980
   7.9949100  89.9628740 122.4148330   9.4291530  94.5527440 113.9144000
   9.9529010  94.0590090 113.2834170  10.0150950  94.6877800 114.6591570
   9.6081250  94.6367310 117.4363550   8.6583960  94.6030850 117.5508540
   9.7894260  95.5467420 117.2013320   8.9191500  93.8100790 109.8536410
   9.4150620  93.5771660 110.6385290   8.7207570  92.9712630 109.4374050
  10.3478660  92.4461740 112.3874090  10.2377940  92.2917780 113.3256360
  11.1086250  91.9182680 112.1449500   8.6944380  88.3855870 118.8457090
   9.3316600  88.9990010 119.2116280   8.8419270  88.4216530 117.9006320
  11.2368930  90.2769660 105.6280230  12.1618240  90.1450840 105.4198520
  11.2144720  90.3562480 106.5816680  11.3107420  91.0480320 108.2536940
  10.5158920  90.9825440 108.7829850  11.5150700  91.9830960 108.2422290
   8.2525840 105.0871870 112.2475330   8.8484910 104.7656440 111.5709750
   8.5103990 104.6143690 113.0388600   2.0648860  89.5382060 121.7532190
   2.0037750  90.1303890 122.5027600   3.0049240  89.4308020 121.6082450
   4.7023420  89.1952120 121.3924480   5.3163830  89.5131410 120.7305560
   5.2472980  88.7100710 122.0120340  11.1198600 105.0943750 118.7986320
  10.6256880 105.4912620 118.0813450  10.5111890 104.4692960 119.1923600
   5.4431460  87.7584260 117.7193770   4.5691300  88.0919370 117.5166700
   5.3342210  87.2857440 118.5445640   6.3503440  89.9655130 119.1035490
   6.0216800  89.1506890 118.7237220   7.2985740  89.9224940 118.9801180
   8.8038050 105.7367170 116.0773060   8.3441020 106.4882980 115.7031080
   8.1750510 105.0173640 116.0187860   1.9729270 104.9363900 116.0790170
   2.2607080 104.6818200 115.2023180   2.4852490 104.3841260 116.6695740
   3.1906280  88.6754100 116.6586680   2.4078070  89.1499600 116.9383440
   2.8969210  87.7708930 116.5499860   7.7427350  89.3777200 114.7035770
   8.1835440  89.3222300 113.8557370   7.4734940  90.2935210 114.7745950
   9.6065920  89.0092440 112.7144590   9.5454320  88.0653660 112.5675610
  10.3857950  89.1172530 113.2598050   5.5785480  87.7583300 113.4085780
   6.1814850  88.3303510 113.8834300   4.8378470  88.3222740 113.1859680
   8.7220080  88.1604860 108.6826060   8.9170710  89.0588310 108.9493490
   7.9349950  87.9291940 109.1759010   2.0401630 105.8580000 123.4458370
   2.9668940 105.6224270 123.4894330   2.0252060 106.6852000 122.9644400
  10.2746690 105.4005570 110.4432620  10.4498880 104.7143310 109.7993540
   9.5768260 105.9252620 110.0509290   5.8280700  87.9378330 123.7880720
   5.7146150  88.2572940 124.6832240   6.6450440  88.3390840 123.4918000
   8.6079190 105.0849860 123.2699410   9.4004510 104.5899090 123.0625370
   8.9012340 105.7640000 123.8775020   4.7338850  95.9570800  94.1515460
   4.6532900  95.0425410  93.8807170   4.3203270  96.4537870  93.4455170
   2.8656890  97.7349820  96.0324730   2.0898990  97.2550260  96.3223300
   3.5169820  97.0555470  95.8580890   6.8864320 102.1410010  94.8123860
   6.4245850 101.3697250  95.1411030   7.6989870 102.1676080  95.3176310
   3.1127630 104.4268020  94.4327850   2.4939070 104.8825520  93.8622290
   3.9679410 104.5819480  94.0317550   2.3065880 100.4107010  96.0394890
   2.2374160  99.4696950  95.8784020   3.0685740 100.5008420  96.6117460
   3.3371050  93.2177390  96.2663820   3.7135870  92.3449270  96.1537490
   3.2390560  93.5536090  95.3754260   7.1195170  90.7127830  93.1992160
   7.9404790  90.2224400  93.2417640   7.1529250  91.3025490  93.9524000
  11.4094720  92.7294580  99.7635790  10.7046890  93.1176290  99.2450900
  11.6752640  93.4244870 100.3656720   3.9790980  99.3107260  91.8259760
   3.3608250  99.7756710  91.2622480   4.4914230 100.0034740  92.2429270
   7.3556650  92.6528210  95.9719700   6.6512220  92.9413100  96.5522810
   7.7168810  93.4628320  95.6119260   8.9719430 102.2703340  98.2347180
   8.2882950 102.9402450  98.2263850   9.5113720 102.4683990  97.4692040
  10.4243570  92.0983000  96.3628910   9.4768480  92.1321980  96.4944340
  10.7493560  92.9121950  96.7478270   6.5078170 104.1147470  96.9492360
   6.5205330 103.7109760  96.0814620   5.9553390 104.8894760  96.8453790
   7.8023590 100.8363690  92.0382530   7.6919920  99.8938020  92.1631950
   7.7991840 101.1979330  92.9245290   5.9063610  99.0177310  98.2774970
   6.3232400  98.8037420  97.4428430   6.6303430  99.2750100  98.8483590
   3.3443870  96.4629010  91.3945020   2.4173150  96.3966390  91.6233490
   3.4968690  97.4009140  91.2800260   3.3312950  92.7346010  88.3912180
   2.3916620  92.8959970  88.4764640   3.6496210  93.4531690  87.8448170
   9.8525710  97.4164530  98.3691210   9.0244340  97.4857620  97.8941340
  10.4476190  98.0018840  97.9007040   7.3741160  98.0249310  91.8980270
   6.7553580  97.6868860  91.2506570   7.3565610  97.3809070  92.6059460
   6.8167720  94.2033850  99.3146080   6.4038900  95.0287560  99.5686070
   6.0843670  93.6178890  99.1222440   7.5067820 104.2493180 100.0027060
   7.0298380 105.0565370  99.8099670   6.8229610 103.5971510 100.1553270
   5.5505860  97.2636120  88.9053020   5.9899140  96.4258550  88.7590840
   6.2634280  97.8965520  88.9917160   3.6601240 102.2032190  92.8734260
   4.0997150 102.9456520  92.4589650   3.5988130 102.4458760  93.7973220
   9.1323000  88.5178930  87.2194060   8.8195660  88.6105760  88.1193130
   9.8935470  89.0959960  87.1691490  11.0867030 104.0105120 105.0718450
  11.5626750 104.4888010 105.7507530  11.7074190 103.9422610 104.3463950
  10.4900280 101.2017970 102.2318460  10.6163340 100.9629850 101.3135640
  10.5321660 100.3702510 102.7040540   4.3517020 104.9045970 100.8013270
   4.8661690 104.8153980 101.6035700   3.5086100 105.2505670 101.0941180
   6.3271420 105.1901310  90.2297270   6.1672560 104.9004250  91.1279100
   6.1618130 104.4141440  89.6942500   6.0297550 102.6988870  88.7895270
   5.3362710 102.6966160  88.1297550   6.7720410 102.2748190  88.3589440
   5.5947480 104.3251580  92.8643760   6.0504430 103.5440960  93.1782380
   5.9340000 105.0358400  93.4084940  10.3424290  93.2550430 103.1968200
   9.7268560  93.7630100 102.6683660  10.0220710  92.3548760 103.1394140
   2.4038610  92.0942320 100.6630390   1.9417980  92.3025340 101.4750330
   2.0016720  91.2801670 100.3601060   7.4043120  93.3151270 101.7927050
   6.5536710  93.0157020 102.1136120   7.2444910  93.5593280 100.8810870
   4.4992830  94.8153020 103.8925840   4.8246240  93.9816770 103.5528070
   5.2873160  95.3381540 104.0404170   5.1380780  94.3570740  91.3866970
   4.5389670  95.0806540  91.2030590   5.6860390  94.2947520  90.6043420
   3.7445650  92.9934280  93.4170250   4.1375220  93.3106480  92.6038940
   4.1062500  92.1146160  93.5314770   2.0537820  91.7441590 104.6767110
   1.3636140  91.5513790 105.3113200   2.7970120  92.0276230 105.2091410
   4.3300790  95.5840030  97.5121030   3.5981910  96.0926840  97.8611130
   3.9325130  94.7670010  97.2109810   4.7926700  91.0373710  96.9243970
   4.8099440  91.4882360  97.7685820   4.5442280  90.1379350  97.1377410
   8.2197450  88.4505890 102.7630350   8.5443220  87.7195550 103.2888330
   8.2553960  88.1319530 101.8611340   8.1455290  98.5631000  96.3716380
   8.8654410  99.0586290  95.9812490   7.9437110  97.8848890  95.7270250
   3.6065230  89.9568960  90.5145770   2.7929840  89.4582130  90.4391080
   3.4127180  90.7967210  90.0982120   3.5274090  98.6340060 102.2585380
   3.4611400  97.7135730 102.0042970   2.8979230  98.7315500 102.9730020
   6.3213620  94.3288610  88.8107930   7.2093240  94.6405840  88.6359270
   6.2918710  93.4560860  88.4188510   2.3174210 100.5012300  89.4896100
   2.6589910 101.2454530  88.9939420   1.4886920 100.8143420  89.8520930
   3.4590820 101.4560630 102.0089180   3.4735360 100.5241590 101.7908090
   2.7515920 101.5420390 102.6478950   8.5927890  95.6400450  88.2787790
   8.5091610  96.0714670  87.4284230   9.3122080  96.0998800  88.7114610
   9.6702030  98.0967970 101.3557760   8.9450220  98.6896750 101.1587150
  10.1977490  98.0891510 100.5571130   9.6215140 102.4942710  91.0069920
   8.9791300 101.8398330  91.2813640   9.2345800 102.8997800  90.2310590
   5.2001620  99.8228140  94.8541610   5.5525440  99.2256270  94.1942980
   4.3163950  99.4972370  95.0249860   2.8924720 103.0978200  99.1029680
   3.5366940 103.3037580  99.7803100   3.2554160 102.3366600  98.6500530
   4.1656800 101.1010550  97.8207130   4.8079030 100.4003710  97.9339300
   4.6906150 101.8808990  97.6404020   8.0112520 101.3859170  87.5446270
   7.7850100 100.6689610  88.1370910   7.6208720 101.1371610  86.7068020
   5.9394420 101.9005450 101.0243190   6.2750660 102.4872140 101.7021110
   5.0194760 101.7698160 101.2540980   7.5928770  99.3031110  89.2060430
   7.3050470  99.7643800  89.9938310   8.3880940  98.8428880  89.4744650
   1.7683000 101.9496780 104.1931250   1.4479870 101.2306020 104.7376940
   1.0941360 102.6251850 104.2667310   4.9836600  92.1822940  99.5568050
   5.3517420  91.3618150  99.8847620   4.1234800  92.2424830  99.9723700
   8.3498630  91.1379880  90.3655610   7.7211790  91.2425550  89.6513840
   7.8550550  91.3576660  91.1549490   2.7956770 102.8585470  87.7989590
   2.8968750 102.6549460  86.8691570   1.8958510 102.6043750  88.0037370
   1.9438590  94.8362530  99.7806020   2.4423840  95.3108350 100.4457870
   2.0861540  93.9126050  99.9876050   4.3498090  90.1416490  93.2209280
   4.2265870  90.1602620  92.2718790   5.2982650  90.1895430  93.3407680
   9.1505450  91.0530490 100.6234410   8.6479050  91.7935890 100.9628220
   9.9662110  91.4414490 100.3071200   7.4427460  96.2963670  94.0695770
   6.5017600  96.3113900  94.2443460   7.7571530  95.5099630  94.5156070
   9.4453040 103.4672520  95.7450030   9.5700460 104.2903690  96.2173840
  10.3118600 103.2563250  95.3974180   4.7593480 100.8529670 104.5528150
   4.1531640 100.8761270 103.8123900   4.4547590 100.1212710 105.0895400
   6.1893850 104.5809960 103.1637560   7.1415600 104.4967980 103.1137800
   6.0422070 105.2451670 103.8371350   9.0803050 103.9604170  88.6629470
   8.7944560 103.5469310  87.8483650   8.8822600 104.8891880  88.5429990
   3.7853010  99.0157480  87.7077070   3.2363110  99.4626780  88.3519810
   4.4072270  98.5106730  88.2314740   7.8387950 100.3699580 103.6399330
   8.5797420 100.7075340 103.1366790   7.0760630 100.5391640 103.0869100
   1.9655770  96.9986010  86.8519470   2.4861430  96.2835030  86.4860620
   2.6124170  97.6371880  87.1519980   6.5133610  98.4214410 102.1754540
   6.9274630  98.5759490 103.0244960   5.5784610  98.5469630 102.3380320
   6.9855780  95.7610570 104.1793690   7.5676550  95.0062890 104.0914170
   7.1617550  96.2918010 103.4025170   3.6112740  96.1051070 101.5288310
   3.7308950  95.5092210 102.2683150   4.4706740  96.1420760 101.1089610
   5.9500640  96.6588260 100.1050820   5.4235860  97.1830880  99.5015960
   6.2931980  97.2915650 100.7360550   5.1974940  92.2638230 103.0197150
   4.5090460  91.6019770 102.9547140   5.9180960  91.8176500 103.4645610
   5.8275340  88.8589860  89.0787410   6.1077630  88.0157760  89.4346830
   5.0541070  89.0912970  89.5926160   1.9818470 105.9139110 101.5194850
   1.9077170 106.8174250 101.8267220   1.0797310 105.5951010 101.4916920
   2.5303800 105.0797620  89.1421210   3.4254590 105.4182590  89.1639970
   2.5621430 104.3577030  88.5145490   9.5098150 103.6101290 101.8487410
   8.9100140 103.6693850 101.1051330   9.6392050 102.6706270 101.9784260
  10.7499600 101.3519110  87.1857120   9.9192560 101.4195760  87.6564350
  10.9271430 102.2423230  86.8823980  10.2056060  98.0966590  89.6891320
  10.9674970  98.6663240  89.7951010  10.2210430  97.5293790  90.4599630
  11.2116030  98.9516690  94.5333250  11.5824860  98.1684010  94.1269220
  11.8517960  99.6405790  94.3550550   8.1949790 100.3353270  99.9463570
   7.3809630 100.7650430 100.2089360   8.6023990 100.9471680  99.3332620
  10.2575230  98.3900960  86.8463840  10.5324070  99.2979840  86.7183060
  10.0685970  98.3263490  87.7825830   6.6550840  91.4145810  88.1417470
   7.0735720  91.2276790  87.3014130   6.3486900  90.5624860  88.4520400
  10.1540570  96.3269950  91.8393270   9.7784170  95.5597880  91.4074560
   9.4243690  96.7092650  92.3268200   9.5440190  95.4741470 101.4732790
   9.3126280  95.2454220 100.5730740   9.8044740  96.3941020 101.4277680
   7.9828260  90.6997900 104.2512490   8.8598440  90.7081300 104.6346490
   7.9949100  89.9628740 103.6404840   9.4291530  94.5527440  95.1400510
   9.9529010  94.0590090  94.5090680  10.0150950  94.6877800  95.8848080
   9.6081250  94.6367310  98.6620060   8.6583960  94.6030850  98.7765050
   9.7894260  95.5467420  98.4269830   8.9191500  93.8100790  91.0792920
   9.4150620  93.5771660  91.8641800   8.7207570  92.9712630  90.6630560
  10.3478660  92.4461740  93.6130600  10.2377940  92.2917780  94.5512870
  11.1086250  91.9182680  93.3706010   8.6944380  88.3855870 100.0713600
   9.3316600  88.9990010 100.4372790   8.8419270  88.4216530  99.1262830
  11.2368930  90.2769660  86.8536740  12.1618240  90.1450840  86.6455030
  11.2144720  90.3562480  87.8073190  11.3107420  91.0480320  89.4793450
  10.5158920  90.9825440  90.0086360  11.5150700  91.9830960  89.4678800
   8.2525840 105.0871870  93.4731840   8.8484910 104.7656440  92.7966260
   8.5103990 104.6143690  94.2645110   2.0648860  89.5382060 102.9788700
   2.0037750  90.1303890 103.7284110   3.0049240  89.4308020 102.8338960
   4.7023420  89.1952120 102.6180990   5.3163830  89.5131410 101.9562070
   5.2472980  88.7100710 103.2376850  11.1198600 105.0943750 100.0242830
  10.6256880 105.4912620  99.3069960  10.5111890 104.4692960 100.4180110
   5.4431460  87.7584260  98.9450280   4.5691300  88.0919370  98.7423210
   5.3342210  87.2857440  99.7702150   6.3503440  89.9655130 100.3292000
   6.0216800  89.1506890  99.9493730   7.2985740  89.9224940 100.2057690
   8.8038050 105.7367170  97.3029570   8.3441020 106.4882980  96.9287590
   8.1750510 105.0173640  97.2444370   1.9729270 104.9363900  97.3046680
   2.2607080 104.6818200  96.4279690   2.4852490 104.3841260  97.8952250
   3.1906280  88.6754100  97.8843190   2.4078070  89.1499600  98.1639950
   2.8969210  87.7708930  97.7756370   7.7427350  89.3777200  95.9292280
   8.1835440  89.3222300  95.0813880   7.4734940  90.2935210  96.0002460
   9.6065920  89.0092440  93.9401100   9.5454320  88.0653660  93.7932120
  10.3857950  89.1172530  94.4854560   5.5785480  87.7583300  94.6342290
   6.1814850  88.3303510  95.1090810   4.8378470  88.3222740  94.4116190
   8.7220080  88.1604860  89.9082570   8.9170710  89.0588310  90.1750000
   7.9349950  87.9291940  90.4015520   2.0401630 105.8580000 104.6714880
   2.9668940 105.6224270 104.7150840   2.0252060 106.6852000 104.1900910
  10.2746690 105.4005570  91.6689130  10.4498880 104.7143310  91.0250050
   9.5768260 105.9252620  91.2765800   5.8280700  87.9378330 105.0137230
   5.7146150  88.2572940 105.9088750   6.6450440  88.3390840 104.7174510
   8.6079190 105.0849860 104.4955920   9.4004510 104.5899090 104.2881880
   8.9012340 105.7640000 105.1031530   4.7338850  95.9570800  75.3771970
   4.6532900  95.0425410  75.1063680   4.3203270  96.4537870  74.6711680
   2.8656890  97.7349820  77.2581240   2.0898990  97.2550260  77.5479810
   3.5169820  97.0555470  77.0837400   6.8864320 102.1410010  76.0380370
   6.4245850 101.3697250  76.3667540   7.6989870 102.1676080  76.5432820
   3.1127630 104.4268020  75.6584360   2.4939070 104.8825520  75.0878800
   3.9679410 104.5819480  75.2574060   2.3065880 100.4107010  77.2651400
   2.2374160  99.4696950  77.1040530   3.0685740 100.5008420  77.8373970
   3.3371050  93.2177390  77.4920330   3.7135870  92.3449270  77.3794000
   3.2390560  93.5536090  76.6010770   7.1195170  90.7127830  74.4248670
   7.9404790  90.2224400  74.4674150   7.1529250  91.3025490  75.1780510
  11.4094720  92.7294580  80.9892300  10.7046890  93.1176290  80.4707410
  11.6752640  93.4244870  81.5913230   3.9790980  99.3107260  73.0516270
   3.3608250  99.7756710  72.4878990   4.4914230 100.0034740  73.4685780
   7.3556650  92.6528210  77.1976210   6.6512220  92.9413100  77.7779320
   7.7168810  93.4628320  76.8375770   8.9719430 102.2703340  79.4603690
   8.2882950 102.9402450  79.4520360   9.5113720 102.4683990  78.6948550
  10.4243570  92.0983000  77.5885420   9.4768480  92.1321980  77.7200850
  10.7493560  92.9121950  77.9734780   6.5078170 104.1147470  78.1748870
   6.5205330 103.7109760  77.3071130   5.9553390 104.8894760  78.0710300
   7.8023590 100.8363690  73.2639040   7.6919920  99.8938020  73.3888460
   7.7991840 101.1979330  74.1501800   5.9063610  99.0177310  79.5031480
   6.3232400  98.8037420  78.6684940   6.6303430  99.2750100  80.0740100
   3.3443870  96.4629010  72.6201530   2.4173150  96.3966390  72.8490000
   3.4968690  97.4009140  72.5056770   3.3312950  92.7346010  69.6168690
   2.3916620  92.8959970  69.7021150   3.6496210  93.4531690  69.0704680
   9.8525710  97.4164530  79.5947720   9.0244340  97.4857620  79.1197850
  10.4476190  98.0018840  79.1263550   7.3741160  98.0249310  73.1236780
   6.7553580  97.6868860  72.4763080   7.3565610  97.3809070  73.8315970
   6.8167720  94.2033850  80.5402590   6.4038900  95.0287560  80.7942580
   6.0843670  93.6178890  80.3478950   7.5067820 104.2493180  81.2283570
   7.0298380 105.0565370  81.0356180   6.8229610 103.5971510  81.3809780
   5.5505860  97.2636120  70.1309530   5.9899140  96.4258550  69.9847350
   6.2634280  97.8965520  70.2173670   3.6601240 102.2032190  74.0990770
   4.0997150 102.9456520  73.6846160   3.5988130 102.4458760  75.0229730
   9.1323000  88.5178930  68.4450570   8.8195660  88.6105760  69.3449640
   9.8935470  89.0959960  68.3948000  11.0867030 104.0105120  86.2974960
  11.5626750 104.4888010  86.9764040  11.7074190 103.9422610  85.5720460
  10.4900280 101.2017970  83.4574970  10.6163340 100.9629850  82.5392150
  10.5321660 100.3702510  83.9297050   4.3517020 104.9045970  82.0269780
   4.8661690 104.8153980  82.8292210   3.5086100 105.2505670  82.3197690
   6.3271420 105.1901310  71.4553780   6.1672560 104.9004250  72.3535610
   6.1618130 104.4141440  70.9199010   6.0297550 102.6988870  70.0151780
   5.3362710 102.6966160  69.3554060   6.7720410 102.2748190  69.5845950
   5.5947480 104.3251580  74.0900270   6.0504430 103.5440960  74.4038890
   5.9340000 105.0358400  74.6341450  10.3424290  93.2550430  84.4224710
   9.7268560  93.7630100  83.8940170  10.0220710  92.3548760  84.3650650
   2.4038610  92.0942320  81.8886900   1.9417980  92.3025340  82.7006840
   2.0016720  91.2801670  81.5857570   7.4043120  93.3151270  83.0183560
   6.5536710  93.0157020  83.3392630   7.2444910  93.5593280  82.1067380
   4.4992830  94.8153020  85.1182350   4.8246240  93.9816770  84.7784580
   5.2873160  95.3381540  85.2660680   5.1380780  94.3570740  72.6123480
   4.5389670  95.0806540  72.4287100   5.6860390  94.2947520  71.8299930
   3.7445650  92.9934280  74.6426760   4.1375220  93.3106480  73.8295450
   4.1062500  92.1146160  74.7571280   2.0537820  91.7441590  85.9023620
   1.3636140  91.5513790  86.5369710   2.7970120  92.0276230  86.4347920
   4.3300790  95.5840030  78.7377540   3.5981910  96.0926840  79.0867640
   3.9325130  94.7670010  78.4366320   4.7926700  91.0373710  78.1500480
   4.8099440  91.4882360  78.9942330   4.5442280  90.1379350  78.3633920
   8.2197450  88.4505890  83.9886860   8.5443220  87.7195550  84.5144840
   8.2553960  88.1319530  83.0867850   8.1455290  98.5631000  77.5972890
   8.8654410  99.0586290  77.2069000   7.9437110  97.8848890  76.9526760
   3.6065230  89.9568960  71.7402280   2.7929840  89.4582130  71.6647590
   3.4127180  90.7967210  71.3238630   3.5274090  98.6340060  83.4841890
   3.4611400  97.7135730  83.2299480   2.8979230  98.7315500  84.1986530
   6.3213620  94.3288610  70.0364440   7.2093240  94.6405840  69.8615780
   6.2918710  93.4560860  69.6445020   2.3174210 100.5012300  70.7152610
   2.6589910 101.2454530  70.2195930   1.4886920 100.8143420  71.0777440
   3.4590820 101.4560630  83.2345690   3.4735360 100.5241590  83.0164600
   2.7515920 101.5420390  83.8735460   8.5927890  95.6400450  69.5044300
   8.5091610  96.0714670  68.6540740   9.3122080  96.0998800  69.9371120
   9.6702030  98.0967970  82.5814270   8.9450220  98.6896750  82.3843660
  10.1977490  98.0891510  81.7827640   9.6215140 102.4942710  72.2326430
   8.9791300 101.8398330  72.5070150   9.2345800 102.8997800  71.4567100
   5.2001620  99.8228140  76.0798120   5.5525440  99.2256270  75.4199490
   4.3163950  99.4972370  76.2506370   2.8924720 103.0978200  80.3286190
   3.5366940 103.3037580  81.0059610   3.2554160 102.3366600  79.8757040
   4.1656800 101.1010550  79.0463640   4.8079030 100.4003710  79.1595810
   4.6906150 101.8808990  78.8660530   8.0112520 101.3859170  68.7702780
   7.7850100 100.6689610  69.3627420   7.6208720 101.1371610  67.9324530
   5.9394420 101.9005450  82.2499700   6.2750660 102.4872140  82.9277620
   5.0194760 101.7698160  82.4797490   7.5928770  99.3031110  70.4316940
   7.3050470  99.7643800  71.2194820   8.3880940  98.8428880  70.7001160
   1.7683000 101.9496780  85.4187760   1.4479870 101.2306020  85.9633450
   1.0941360 102.6251850  85.4923820   4.9836600  92.1822940  80.7824560
   5.3517420  91.3618150  81.1104130   4.1234800  92.2424830  81.1980210
   8.3498630  91.1379880  71.5912120   7.7211790  91.2425550  70.8770350
   7.8550550  91.3576660  72.3806000   2.7956770 102.8585470  69.0246100
   2.8968750 102.6549460  68.0948080   1.8958510 102.6043750  69.2293880
   1.9438590  94.8362530  81.0062530   2.4423840  95.3108350  81.6714380
   2.0861540  93.9126050  81.2132560   4.3498090  90.1416490  74.4465790
   4.2265870  90.1602620  73.4975300   5.2982650  90.1895430  74.5664190
   9.1505450  91.0530490  81.8490920   8.6479050  91.7935890  82.1884730
   9.9662110  91.4414490  81.5327710   7.4427460  96.2963670  75.2952280
   6.5017600  96.3113900  75.4699970   7.7571530  95.5099630  75.7412580
   9.4453040 103.4672520  76.9706540   9.5700460 104.2903690  77.4430350
  10.3118600 103.2563250  76.6230690   4.7593480 100.8529670  85.7784660
   4.1531640 100.8761270  85.0380410   4.4547590 100.1212710  86.3151910
   6.1893850 104.5809960  84.3894070   7.1415600 104.4967980  84.3394310
   6.0422070 105.2451670  85.0627860   9.0803050 103.9604170  69.8885980
   8.7944560 103.5469310  69.0740160   8.8822600 104.8891880  69.7686500
   3.7853010  99.0157480  68.9333580   3.2363110  99.4626780  69.5776320
   4.4072270  98.5106730  69.4571250   7.8387950 100.3699580  84.8655840
   8.5797420 100.7075340  84.3623300   7.0760630 100.5391640  84.3125610
   1.9655770  96.9986010  68.0775980   2.4861430  96.2835030  67.7117130
   2.6124170  97.6371880  68.3776490   6.5133610  98.4214410  83.4011050
   6.9274630  98.5759490  84.2501470   5.5784610  98.5469630  83.5636830
   6.9855780  95.7610570  85.4050200   7.5676550  95.0062890  85.3170680
   7.1617550  96.2918010  84.6281680   3.6112740  96.1051070  82.7544820
   3.7308950  95.5092210  83.4939660   4.4706740  96.1420760  82.3346120
   5.9500640  96.6588260  81.3307330   5.4235860  97.1830880  80.7272470
   6.2931980  97.2915650  81.9617060   5.1974940  92.2638230  84.2453660
   4.5090460  91.6019770  84.1803650   5.9180960  91.8176500  84.6902120
   5.8275340  88.8589860  70.3043920   6.1077630  88.0157760  70.6603340
   5.0541070  89.0912970  70.8182670   1.9818470 105.9139110  82.7451360
   1.9077170 106.8174250  83.0523730   1.0797310 105.5951010  82.7173430
   2.5303800 105.0797620  70.3677720   3.4254590 105.4182590  70.3896480
   2.5621430 104.3577030  69.7402000   9.5098150 103.6101290  83.0743920
   8.9100140 103.6693850  82.3307840   9.6392050 102.6706270  83.2040770
  10.7499600 101.3519110  68.4113630   9.9192560 101.4195760  68.8820860
  10.9271430 102.2423230  68.1080490  10.2056060  98.0966590  70.9147830
  10.9674970  98.6663240  71.0207520  10.2210430  97.5293790  71.6856140
  11.2116030  98.9516690  75.7589760  11.5824860  98.1684010  75.3525730
  11.8517960  99.6405790  75.5807060   8.1949790 100.3353270  81.1720080
   7.3809630 100.7650430  81.4345870   8.6023990 100.9471680  80.5589130
  10.2575230  98.3900960  68.0720350  10.5324070  99.2979840  67.9439570
  10.0685970  98.3263490  69.0082340   6.6550840  91.4145810  69.3673980
   7.0735720  91.2276790  68.5270640   6.3486900  90.5624860  69.6776910
  10.1540570  96.3269950  73.0649780   9.7784170  95.5597880  72.6331070
   9.4243690  96.7092650  73.5524710   9.5440190  95.4741470  82.6989300
   9.3126280  95.2454220  81.7987250   9.8044740  96.3941020  82.6534190
   7.9828260  90.6997900  85.4769000   8.8598440  90.7081300  85.8603000
   7.9949100  89.9628740  84.8661350   9.4291530  94.5527440  76.3657020
   9.9529010  94.0590090  75.7347190  10.0150950  94.6877800  77.1104590
   9.6081250  94.6367310  79.8876570   8.6583960  94.6030850  80.0021560
   9.7894260  95.5467420  79.6526340   8.9191500  93.8100790  72.3049430
   9.4150620  93.5771660  73.0898310   8.7207570  92.9712630  71.8887070
  10.3478660  92.4461740  74.8387110  10.2377940  92.2917780  75.7769380
  11.1086250  91.9182680  74.5962520   8.6944380  88.3855870  81.2970110
   9.3316600  88.9990010  81.6629300   8.8419270  88.4216530  80.3519340
  11.2368930  90.2769660  68.0793250  12.1618240  90.1450840  67.8711540
  11.2144720  90.3562480  69.0329700  11.3107420  91.0480320  70.7049960
  10.5158920  90.9825440  71.2342870  11.5150700  91.9830960  70.6935310
   8.2525840 105.0871870  74.6988350   8.8484910 104.7656440  74.0222770
   8.5103990 104.6143690  75.4901620   2.0648860  89.5382060  84.2045210
   2.0037750  90.1303890  84.9540620   3.0049240  89.4308020  84.0595470
   4.7023420  89.1952120  83.8437500   5.3163830  89.5131410  83.1818580
   5.2472980  88.7100710  84.4633360  11.1198600 105.0943750  81.2499340
  10.6256880 105.4912620  80.5326470  10.5111890 104.4692960  81.6436620
   5.4431460  87.7584260  80.1706790   4.5691300  88.0919370  79.9679720
   5.3342210  87.2857440  80.9958660   6.3503440  89.9655130  81.5548510
   6.0216800  89.1506890  81.1750240   7.2985740  89.9224940  81.4314200
   8.8038050 105.7367170  78.5286080   8.3441020 106.4882980  78.1544100
   8.1750510 105.0173640  78.4700880   1.9729270 104.9363900  78.5303190
   2.2607080 104.6818200  77.6536200   2.4852490 104.3841260  79.1208760
   3.1906280  88.6754100  79.1099700   2.4078070  89.1499600  79.3896460
   2.8969210  87.7708930  79.0012880   7.7427350  89.3777200  77.1548790
   8.1835440  89.3222300  76.3070390   7.4734940  90.2935210  77.2258970
   9.6065920  89.0092440  75.1657610   9.5454320  88.0653660  75.0188630
  10.3857950  89.1172530  75.7111070   5.5785480  87.7583300  75.8598800
   6.1814850  88.3303510  76.3347320   4.8378470  88.3222740  75.6372700
   8.7220080  88.1604860  71.1339080   8.9170710  89.0588310  71.4006510
   7.9349950  87.9291940  71.6272030   2.0401630 105.8580000  85.8971390
   2.9668940 105.6224270  85.9407350   2.0252060 106.6852000  85.4157420
  10.2746690 105.4005570  72.8945640  10.4498880 104.7143310  72.2506560
   9.5768260 105.9252620  72.5022310   5.8280700  87.9378330  86.2393740
   5.7146150  88.2572940  87.1345260   6.6450440  88.3390840  85.9431020
   8.6079190 105.0849860  85.7212430   9.4004510 104.5899090  85.5138390
   8.9012340 105.7640000  86.3288040   4.7338850  95.9570800  56.6028480
   4.6532900  95.0425410  56.3320190   4.3203270  96.4537870  55.8968190
   2.8656890  97.7349820  58.4837750   2.0898990  97.2550260  58.7736320
   3.5169820  97.0555470  58.3093910   6.8864320 102.1410010  57.2636880
   6.4245850 101.3697250  57.5924050   7.6989870 102.1676080  57.7689330
   3.1127630 104.4268020  56.8840870   2.4939070 104.8825520  56.3135310
   3.9679410 104.5819480  56.4830570   2.3065880 100.4107010  58.4907910
   2.2374160  99.4696950  58.3297040   3.0685740 100.5008420  59.0630480
   3.3371050  93.2177390  58.7176840   3.7135870  92.3449270  58.6050510
   3.2390560  93.5536090  57.8267280   7.1195170  90.7127830  55.6505180
   7.9404790  90.2224400  55.6930660   7.1529250  91.3025490  56.4037020
  11.4094720  92.7294580  62.2148810  10.7046890  93.1176290  61.6963920
  11.6752640  93.4244870  62.8169740   3.9790980  99.3107260  54.2772780
   3.3608250  99.7756710  53.7135500   4.4914230 100.0034740  54.6942290
   7.3556650  92.6528210  58.4232720   6.6512220  92.9413100  59.0035830
   7.7168810  93.4628320  58.0632280   8.9719430 102.2703340  60.6860200
   8.2882950 102.9402450  60.6776870   9.5113720 102.4683990  59.9205060
  10.4243570  92.0983000  58.8141930   9.4768480  92.1321980  58.9457360
  10.7493560  92.9121950  59.1991290   6.5078170 104.1147470  59.4005380
   6.5205330 103.7109760  58.5327640   5.9553390 104.8894760  59.2966810
   7.8023590 100.8363690  54.4895550   7.6919920  99.8938020  54.6144970
   7.7991840 101.1979330  55.3758310   5.9063610  99.0177310  60.7287990
   6.3232400  98.8037420  59.8941450   6.6303430  99.2750100  61.2996610
   3.3443870  96.4629010  53.8458040   2.4173150  96.3966390  54.0746510
   3.4968690  97.4009140  53.7313280   3.3312950  92.7346010  50.8425200
   2.3916620  92.8959970  50.9277660   3.6496210  93.4531690  50.2961190
   9.8525710  97.4164530  60.8204230   9.0244340  97.4857620  60.3454360
  10.4476190  98.0018840  60.3520060   7.3741160  98.0249310  54.3493290
   6.7553580  97.6868860  53.7019590   7.3565610  97.3809070  55.0572480
   6.8167720  94.2033850  61.7659100   6.4038900  95.0287560  62.0199090
   6.0843670  93.6178890  61.5735460   7.5067820 104.2493180  62.4540080
   7.0298380 105.0565370  62.2612690   6.8229610 103.5971510  62.6066290
   5.5505860  97.2636120  51.3566040   5.9899140  96.4258550  51.2103860
   6.2634280  97.8965520  51.4430180   3.6601240 102.2032190  55.3247280
   4.0997150 102.9456520  54.9102670   3.5988130 102.4458760  56.2486240
   9.1323000  88.5178930  49.6707080   8.8195660  88.6105760  50.5706150
   9.8935470  89.0959960  49.6204510  11.0867030 104.0105120  67.5231470
  11.5626750 104.4888010  68.2020550  11.7074190 103.9422610  66.7976970
  10.4900280 101.2017970  64.6831480  10.6163340 100.9629850  63.7648660
  10.5321660 100.3702510  65.1553560   4.3517020 104.9045970  63.2526290
   4.8661690 104.8153980  64.0548720   3.5086100 105.2505670  63.5454200
   6.3271420 105.1901310  52.6810290   6.1672560 104.9004250  53.5792120
   6.1618130 104.4141440  52.1455520   6.0297550 102.6988870  51.2408290
   5.3362710 102.6966160  50.5810570   6.7720410 102.2748190  50.8102460
   5.5947480 104.3251580  55.3156780   6.0504430 103.5440960  55.6295400
   5.9340000 105.0358400  55.8597960  10.3424290  93.2550430  65.6481220
   9.7268560  93.7630100  65.1196680  10.0220710  92.3548760  65.5907160
   2.4038610  92.0942320  63.1143410   1.9417980  92.3025340  63.9263350
   2.0016720  91.2801670  62.8114080   7.4043120  93.3151270  64.2440070
   6.5536710  93.0157020  64.5649140   7.2444910  93.5593280  63.3323890
   4.4992830  94.8153020  66.3438860   4.8246240  93.9816770  66.0041090
   5.2873160  95.3381540  66.4917190   5.1380780  94.3570740  53.8379990
   4.5389670  95.0806540  53.6543610   5.6860390  94.2947520  53.0556440
   3.7445650  92.9934280  55.8683270   4.1375220  93.3106480  55.0551960
   4.1062500  92.1146160  55.9827790   2.0537820  91.7441590  67.1280130
   1.3636140  91.5513790  67.7626220   2.7970120  92.0276230  67.6604430
   4.3300790  95.5840030  59.9634050   3.5981910  96.0926840  60.3124150
   3.9325130  94.7670010  59.6622830   4.7926700  91.0373710  59.3756990
   4.8099440  91.4882360  60.2198840   4.5442280  90.1379350  59.5890430
   8.2197450  88.4505890  65.2143370   8.5443220  87.7195550  65.7401350
   8.2553960  88.1319530  64.3124360   8.1455290  98.5631000  58.8229400
   8.8654410  99.0586290  58.4325510   7.9437110  97.8848890  58.1783270
   3.6065230  89.9568960  52.9658790   2.7929840  89.4582130  52.8904100
   3.4127180  90.7967210  52.5495140   3.5274090  98.6340060  64.7098400
   3.4611400  97.7135730  64.4555990   2.8979230  98.7315500  65.4243040
   6.3213620  94.3288610  51.2620950   7.2093240  94.6405840  51.0872290
   6.2918710  93.4560860  50.8701530   2.3174210 100.5012300  51.9409120
   2.6589910 101.2454530  51.4452440   1.4886920 100.8143420  52.3033950
   3.4590820 101.4560630  64.4602200   3.4735360 100.5241590  64.2421110
   2.7515920 101.5420390  65.0991970   8.5927890  95.6400450  50.7300810
   8.5091610  96.0714670  49.8797250   9.3122080  96.0998800  51.1627630
   9.6702030  98.0967970  63.8070780   8.9450220  98.6896750  63.6100170
  10.1977490  98.0891510  63.0084150   9.6215140 102.4942710  53.4582940
   8.9791300 101.8398330  53.7326660   9.2345800 102.8997800  52.6823610
   5.2001620  99.8228140  57.3054630   5.5525440  99.2256270  56.6456000
   4.3163950  99.4972370  57.4762880   2.8924720 103.0978200  61.5542700
   3.5366940 103.3037580  62.2316120   3.2554160 102.3366600  61.1013550
   4.1656800 101.1010550  60.2720150   4.8079030 100.4003710  60.3852320
   4.6906150 101.8808990  60.0917040   8.0112520 101.3859170  49.9959290
   7.7850100 100.6689610  50.5883930   7.6208720 101.1371610  49.1581040
   5.9394420 101.9005450  63.4756210   6.2750660 102.4872140  64.1534130
   5.0194760 101.7698160  63.7054000   7.5928770  99.3031110  51.6573450
   7.3050470  99.7643800  52.4451330   8.3880940  98.8428880  51.9257670
   1.7683000 101.9496780  66.6444270   1.4479870 101.2306020  67.1889960
   1.0941360 102.6251850  66.7180330   4.9836600  92.1822940  62.0081070
   5.3517420  91.3618150  62.3360640   4.1234800  92.2424830  62.4236720
   8.3498630  91.1379880  52.8168630   7.7211790  91.2425550  52.1026860
   7.8550550  91.3576660  53.6062510   2.7956770 102.8585470  50.2502610
   2.8968750 102.6549460  49.3204590   1.8958510 102.6043750  50.4550390
   1.9438590  94.8362530  62.2319040   2.4423840  95.3108350  62.8970890
   2.0861540  93.9126050  62.4389070   4.3498090  90.1416490  55.6722300
   4.2265870  90.1602620  54.7231810   5.2982650  90.1895430  55.7920700
   9.1505450  91.0530490  63.0747430   8.6479050  91.7935890  63.4141240
   9.9662110  91.4414490  62.7584220   7.4427460  96.2963670  56.5208790
   6.5017600  96.3113900  56.6956480   7.7571530  95.5099630  56.9669090
   9.4453040 103.4672520  58.1963050   9.5700460 104.2903690  58.6686860
  10.3118600 103.2563250  57.8487200   4.7593480 100.8529670  67.0041170
   4.1531640 100.8761270  66.2636920   4.4547590 100.1212710  67.5408420
   6.1893850 104.5809960  65.6150580   7.1415600 104.4967980  65.5650820
   6.0422070 105.2451670  66.2884370   9.0803050 103.9604170  51.1142490
   8.7944560 103.5469310  50.2996670   8.8822600 104.8891880  50.9943010
   3.7853010  99.0157480  50.1590090   3.2363110  99.4626780  50.8032830
   4.4072270  98.5106730  50.6827760   7.8387950 100.3699580  66.0912350
   8.5797420 100.7075340  65.5879810   7.0760630 100.5391640  65.5382120
   1.9655770  96.9986010  49.3032490   2.4861430  96.2835030  48.9373640
   2.6124170  97.6371880  49.6033000   6.5133610  98.4214410  64.6267560
   6.9274630  98.5759490  65.4757980   5.5784610  98.5469630  64.7893340
   6.9855780  95.7610570  66.6306710   7.5676550  95.0062890  66.5427190
   7.1617550  96.2918010  65.8538190   3.6112740  96.1051070  63.9801330
   3.7308950  95.5092210  64.7196170   4.4706740  96.1420760  63.5602630
   5.9500640  96.6588260  62.5563840   5.4235860  97.1830880  61.9528980
   6.2931980  97.2915650  63.1873570   5.1974940  92.2638230  65.4710170
   4.5090460  91.6019770  65.4060160   5.9180960  91.8176500  65.9158630
   5.8275340  88.8589860  51.5300430   6.1077630  88.0157760  51.8859850
   5.0541070  89.0912970  52.0439180   1.9818470 105.9139110  63.9707870
   1.9077170 106.8174250  64.2780240   1.0797310 105.5951010  63.9429940
   2.5303800 105.0797620  51.5934230   3.4254590 105.4182590  51.6152990
   2.5621430 104.3577030  50.9658510   9.5098150 103.6101290  64.3000430
   8.9100140 103.6693850  63.5564350   9.6392050 102.6706270  64.4297280
  10.7499600 101.3519110  49.6370140   9.9192560 101.4195760  50.1077370
  10.9271430 102.2423230  49.3337000  10.2056060  98.0966590  52.1404340
  10.9674970  98.6663240  52.2464030  10.2210430  97.5293790  52.9112650
  11.2116030  98.9516690  56.9846270  11.5824860  98.1684010  56.5782240
  11.8517960  99.6405790  56.8063570   8.1949790 100.3353270  62.3976590
   7.3809630 100.7650430  62.6602380   8.6023990 100.9471680  61.7845640
  10.2575230  98.3900960  49.2976860  10.5324070  99.2979840  49.1696080
  10.0685970  98.3263490  50.2338850   6.6550840  91.4145810  50.5930490
   7.0735720  91.2276790  49.7527150   6.3486900  90.5624860  50.9033420
  10.1540570  96.3269950  54.2906290   9.7784170  95.5597880  53.8587580
   9.4243690  96.7092650  54.7781220   9.5440190  95.4741470  63.9245810
   9.3126280  95.2454220  63.0243760   9.8044740  96.3941020  63.8790700
   7.9828260  90.6997900  66.7025510   8.8598440  90.7081300  67.0859510
   7.9949100  89.9628740  66.0917860   9.4291530  94.5527440  57.5913530
   9.9529010  94.0590090  56.9603700  10.0150950  94.6877800  58.3361100
   9.6081250  94.6367310  61.1133080   8.6583960  94.6030850  61.2278070
   9.7894260  95.5467420  60.8782850   8.9191500  93.8100790  53.5305940
   9.4150620  93.5771660  54.3154820   8.7207570  92.9712630  53.1143580
  10.3478660  92.4461740  56.0643620  10.2377940  92.2917780  57.0025890
  11.1086250  91.9182680  55.8219030   8.6944380  88.3855870  62.5226620
   9.3316600  88.9990010  62.8885810   8.8419270  88.4216530  61.5775850
  11.2368930  90.2769660  49.3049760  12.1618240  90.1450840  49.0968050
  11.2144720  90.3562480  50.2586210  11.3107420  91.0480320  51.9306470
  10.5158920  90.9825440  52.4599380  11.5150700  91.9830960  51.9191820
   8.2525840 105.0871870  55.9244860   8.8484910 104.7656440  55.2479280
   8.5103990 104.6143690  56.7158130   2.0648860  89.5382060  65.4301720
   2.0037750  90.1303890  66.1797130   3.0049240  89.4308020  65.2851980
   4.7023420  89.1952120  65.0694010   5.3163830  89.5131410  64.4075090
   5.2472980  88.7100710  65.6889870  11.1198600 105.0943750  62.4755850
  10.6256880 105.4912620  61.7582980  10.5111890 104.4692960  62.8693130
   5.4431460  87.7584260  61.3963300   4.5691300  88.0919370  61.1936230
   5.3342210  87.2857440  62.2215170   6.3503440  89.9655130  62.7805020
   6.0216800  89.1506890  62.4006750   7.2985740  89.9224940  62.6570710
   8.8038050 105.7367170  59.7542590   8.3441020 106.4882980  59.3800610
   8.1750510 105.0173640  59.6957390   1.9729270 104.9363900  59.7559700
   2.2607080 104.6818200  58.8792710   2.4852490 104.3841260  60.3465270
   3.1906280  88.6754100  60.3356210   2.4078070  89.1499600  60.6152970
   2.8969210  87.7708930  60.2269390   7.7427350  89.3777200  58.3805300
   8.1835440  89.3222300  57.5326900   7.4734940  90.2935210  58.4515480
   9.6065920  89.0092440  56.3914120   9.5454320  88.0653660  56.2445140
  10.3857950  89.1172530  56.9367580   5.5785480  87.7583300  57.0855310
   6.1814850  88.3303510  57.5603830   4.8378470  88.3222740  56.8629210
   8.7220080  88.1604860  52.3595590   8.9170710  89.0588310  52.6263020
   7.9349950  87.9291940  52.8528540   2.0401630 105.8580000  67.1227900
   2.9668940 105.6224270  67.1663860   2.0252060 106.6852000  66.6413930
  10.2746690 105.4005570  54.1202150  10.4498880 104.7143310  53.4763070
   9.5768260 105.9252620  53.7278820   5.8280700  87.9378330  67.4650250
   5.7146150  88.2572940  68.3601770   6.6450440  88.3390840  67.1687530
   8.6079190 105.0849860  66.9468940   9.4004510 104.5899090  66.7394900
   8.9012340 105.7640000  67.5544550   4.7338850  95.9570800  37.8284990
   4.6532900  95.0425410  37.5576700   4.3203270  96.4537870  37.1224700
   2.8656890  97.7349820  39.7094260   2.0898990  97.2550260  39.9992830
   3.5169820  97.0555470  39.5350420   6.8864320 102.1410010  38.4893390
   6.4245850 101.3697250  38.8180560   7.6989870 102.1676080  38.9945840
   3.1127630 104.4268020  38.1097380   2.4939070 104.8825520  37.5391820
   3.9679410 104.5819480  37.7087080   2.3065880 100.4107010  39.7164420
   2.2374160  99.4696950  39.5553550   3.0685740 100.5008420  40.2886990
   3.3371050  93.2177390  39.9433350   3.7135870  92.3449270  39.8307020
   3.2390560  93.5536090  39.0523790   7.1195170  90.7127830  36.8761690
   7.9404790  90.2224400  36.9187170   7.1529250  91.3025490  37.6293530
  11.4094720  92.7294580  43.4405320  10.7046890  93.1176290  42.9220430
  11.6752640  93.4244870  44.0426250   3.9790980  99.3107260  35.5029290
   3.3608250  99.7756710  34.9392010   4.4914230 100.0034740  35.9198800
   7.3556650  92.6528210  39.6489230   6.6512220  92.9413100  40.2292340
   7.7168810  93.4628320  39.2888790   8.9719430 102.2703340  41.9116710
   8.2882950 102.9402450  41.9033380   9.5113720 102.4683990  41.1461570
  10.4243570  92.0983000  40.0398440   9.4768480  92.1321980  40.1713870
  10.7493560  92.9121950  40.4247800   6.5078170 104.1147470  40.6261890
   6.5205330 103.7109760  39.7584150   5.9553390 104.8894760  40.5223320
   7.8023590 100.8363690  35.7152060   7.6919920  99.8938020  35.8401480
   7.7991840 101.1979330  36.6014820   5.9063610  99.0177310  41.9544500
   6.3232400  98.8037420  41.1197960   6.6303430  99.2750100  42.5253120
   3.3443870  96.4629010  35.0714550   2.4173150  96.3966390  35.3003020
   3.4968690  97.4009140  34.9569790   3.3312950  92.7346010  32.0681710
   2.3916620  92.8959970  32.1534170   3.6496210  93.4531690  31.5217700
   9.8525710  97.4164530  42.0460740   9.0244340  97.4857620  41.5710870
  10.4476190  98.0018840  41.5776570   7.3741160  98.0249310  35.5749800
   6.7553580  97.6868860  34.9276100   7.3565610  97.3809070  36.2828990
   6.8167720  94.2033850  42.9915610   6.4038900  95.0287560  43.2455600
   6.0843670  93.6178890  42.7991970   7.5067820 104.2493180  43.6796590
   7.0298380 105.0565370  43.4869200   6.8229610 103.5971510  43.8322800
   5.5505860  97.2636120  32.5822550   5.9899140  96.4258550  32.4360370
   6.2634280  97.8965520  32.6686690   3.6601240 102.2032190  36.5503790
   4.0997150 102.9456520  36.1359180   3.5988130 102.4458760  37.4742750
   9.1323000  88.5178930  30.8963590   8.8195660  88.6105760  31.7962660
   9.8935470  89.0959960  30.8461020  11.0867030 104.0105120  48.7487980
  11.5626750 104.4888010  49.4277060  11.7074190 103.9422610  48.0233480
  10.4900280 101.2017970  45.9087990  10.6163340 100.9629850  44.9905170
  10.5321660 100.3702510  46.3810070   4.3517020 104.9045970  44.4782800
   4.8661690 104.8153980  45.2805230   3.5086100 105.2505670  44.7710710
   6.3271420 105.1901310  33.9066800   6.1672560 104.9004250  34.8048630
   6.1618130 104.4141440  33.3712030   6.0297550 102.6988870  32.4664800
   5.3362710 102.6966160  31.8067080   6.7720410 102.2748190  32.0358970
   5.5947480 104.3251580  36.5413290   6.0504430 103.5440960  36.8551910
   5.9340000 105.0358400  37.0854470  10.3424290  93.2550430  46.8737730
   9.7268560  93.7630100  46.3453190  10.0220710  92.3548760  46.8163670
   2.4038610  92.0942320  44.3399920   1.9417980  92.3025340  45.1519860
   2.0016720  91.2801670  44.0370590   7.4043120  93.3151270  45.4696580
   6.5536710  93.0157020  45.7905650   7.2444910  93.5593280  44.5580400
   4.4992830  94.8153020  47.5695370   4.8246240  93.9816770  47.2297600
   5.2873160  95.3381540  47.7173700   5.1380780  94.3570740  35.0636500
   4.5389670  95.0806540  34.8800120   5.6860390  94.2947520  34.2812950
   3.7445650  92.9934280  37.0939780   4.1375220  93.3106480  36.2808470
   4.1062500  92.1146160  37.2084300   2.0537820  91.7441590  48.3536640
   1.3636140  91.5513790  48.9882730   2.7970120  92.0276230  48.8860940
   4.3300790  95.5840030  41.1890560   3.5981910  96.0926840  41.5380660
   3.9325130  94.7670010  40.8879340   4.7926700  91.0373710  40.6013500
   4.8099440  91.4882360  41.4455350   4.5442280  90.1379350  40.8146940
   8.2197450  88.4505890  46.4399880   8.5443220  87.7195550  46.9657860
   8.2553960  88.1319530  45.5380870   8.1455290  98.5631000  40.0485910
   8.8654410  99.0586290  39.6582020   7.9437110  97.8848890  39.4039780
   3.6065230  89.9568960  34.1915300   2.7929840  89.4582130  34.1160610
   3.4127180  90.7967210  33.7751650   3.5274090  98.6340060  45.9354910
   3.4611400  97.7135730  45.6812500   2.8979230  98.7315500  46.6499550
   6.3213620  94.3288610  32.4877460   7.2093240  94.6405840  32.3128800
   6.2918710  93.4560860  32.0958040   2.3174210 100.5012300  33.1665630
   2.6589910 101.2454530  32.6708950   1.4886920 100.8143420  33.5290460
   3.4590820 101.4560630  45.6858710   3.4735360 100.5241590  45.4677620
   2.7515920 101.5420390  46.3248480   8.5927890  95.6400450  31.9557320
   8.5091610  96.0714670  31.1053760   9.3122080  96.0998800  32.3884140
   9.6702030  98.0967970  45.0327290   8.9450220  98.6896750  44.8356680
  10.1977490  98.0891510  44.2340660   9.6215140 102.4942710  34.6839450
   8.9791300 101.8398330  34.9583170   9.2345800 102.8997800  33.9080120
   5.2001620  99.8228140  38.5311140   5.5525440  99.2256270  37.8712510
   4.3163950  99.4972370  38.7019390   2.8924720 103.0978200  42.7799210
   3.5366940 103.3037580  43.4572630   3.2554160 102.3366600  42.3270060
   4.1656800 101.1010550  41.4976660   4.8079030 100.4003710  41.6108830
   4.6906150 101.8808990  41.3173550   8.0112520 101.3859170  31.2215800
   7.7850100 100.6689610  31.8140440   7.6208720 101.1371610  30.3837550
   5.9394420 101.9005450  44.7012720   6.2750660 102.4872140  45.3790640
   5.0194760 101.7698160  44.9310510   7.5928770  99.3031110  32.8829960
   7.3050470  99.7643800  33.6707840   8.3880940  98.8428880  33.1514180
   1.7683000 101.9496780  47.8700780   1.4479870 101.2306020  48.4146470
   1.0941360 102.6251850  47.9436840   4.9836600  92.1822940  43.2337580
   5.3517420  91.3618150  43.5617150   4.1234800  92.2424830  43.6493230
   8.3498630  91.1379880  34.0425140   7.7211790  91.2425550  33.3283370
   7.8550550  91.3576660  34.8319020   2.7956770 102.8585470  31.4759120
   2.8968750 102.6549460  30.5461100   1.8958510 102.6043750  31.6806900
   1.9438590  94.8362530  43.4575550   2.4423840  95.3108350  44.1227400
   2.0861540  93.9126050  43.6645580   4.3498090  90.1416490  36.8978810
   4.2265870  90.1602620  35.9488320   5.2982650  90.1895430  37.0177210
   9.1505450  91.0530490  44.3003940   8.6479050  91.7935890  44.6397750
   9.9662110  91.4414490  43.9840730   7.4427460  96.2963670  37.7465300
   6.5017600  96.3113900  37.9212990   7.7571530  95.5099630  38.1925600
   9.4453040 103.4672520  39.4219560   9.5700460 104.2903690  39.8943370
  10.3118600 103.2563250  39.0743710   4.7593480 100.8529670  48.2297680
   4.1531640 100.8761270  47.4893430   4.4547590 100.1212710  48.7664930
   6.1893850 104.5809960  46.8407090   7.1415600 104.4967980  46.7907330
   6.0422070 105.2451670  47.5140880   9.0803050 103.9604170  32.3399000
   8.7944560 103.5469310  31.5253180   8.8822600 104.8891880  32.2199520
   3.7853010  99.0157480  31.3846600   3.2363110  99.4626780  32.0289340
   4.4072270  98.5106730  31.9084270   7.8387950 100.3699580  47.3168860
   8.5797420 100.7075340  46.8136320   7.0760630 100.5391640  46.7638630
   1.9655770  96.9986010  30.5289000   2.4861430  96.2835030  30.1630150
   2.6124170  97.6371880  30.8289510   6.5133610  98.4214410  45.8524070
   6.9274630  98.5759490  46.7014490   5.5784610  98.5469630  46.0149850
   6.9855780  95.7610570  47.8563220   7.5676550  95.0062890  47.7683700
   7.1617550  96.2918010  47.0794700   3.6112740  96.1051070  45.2057840
   3.7308950  95.5092210  45.9452680   4.4706740  96.1420760  44.7859140
   5.9500640  96.6588260  43.7820350   5.4235860  97.1830880  43.1785490
   6.2931980  97.2915650  44.4130080   5.1974940  92.2638230  46.6966680
   4.5090460  91.6019770  46.6316670   5.9180960  91.8176500  47.1415140
   5.8275340  88.8589860  32.7556940   6.1077630  88.0157760  33.1116360
   5.0541070  89.0912970  33.2695690   1.9818470 105.9139110  45.1964380
   1.9077170 106.8174250  45.5036750   1.0797310 105.5951010  45.1686450
   2.5303800 105.0797620  32.8190740   3.4254590 105.4182590  32.8409500
   2.5621430 104.3577030  32.1915020   9.5098150 103.6101290  45.5256940
   8.9100140 103.6693850  44.7820860   9.6392050 102.6706270  45.6553790
  10.7499600 101.3519110  30.8626650   9.9192560 101.4195760  31.3333880
  10.9271430 102.2423230  30.5593510  10.2056060  98.0966590  33.3660850
  10.9674970  98.6663240  33.4720540  10.2210430  97.5293790  34.1369160
  11.2116030  98.9516690  38.2102780  11.5824860  98.1684010  37.8038750
  11.8517960  99.6405790  38.0320080   8.1949790 100.3353270  43.6233100
   7.3809630 100.7650430  43.8858890   8.6023990 100.9471680  43.0102150
  10.2575230  98.3900960  30.5233370  10.5324070  99.2979840  30.3952590
  10.0685970  98.3263490  31.4595360   6.6550840  91.4145810  31.8187000
   7.0735720  91.2276790  30.9783660   6.3486900  90.5624860  32.1289930
  10.1540570  96.3269950  35.5162800   9.7784170  95.5597880  35.0844090
   9.4243690  96.7092650  36.0037730   9.5440190  95.4741470  45.1502320
   9.3126280  95.2454220  44.2500270   9.8044740  96.3941020  45.1047210
   7.9828260  90.6997900  47.9282020   8.8598440  90.7081300  48.3116020
   7.9949100  89.9628740  47.3174370   9.4291530  94.5527440  38.8170040
   9.9529010  94.0590090  38.1860210  10.0150950  94.6877800  39.5617610
   9.6081250  94.6367310  42.3389590   8.6583960  94.6030850  42.4534580
   9.7894260  95.5467420  42.1039360   8.9191500  93.8100790  34.7562450
   9.4150620  93.5771660  35.5411330   8.7207570  92.9712630  34.3400090
  10.3478660  92.4461740  37.2900130  10.2377940  92.2917780  38.2282400
  11.1086250  91.9182680  37.0475540   8.6944380  88.3855870  43.7483130
   9.3316600  88.9990010  44.1142320   8.8419270  88.4216530  42.8032360
  11.2368930  90.2769660  30.5306270  12.1618240  90.1450840  30.3224560
  11.2144720  90.3562480  31.4842720  11.3107420  91.0480320  33.1562980
  10.5158920  90.9825440  33.6855890  11.5150700  91.9830960  33.1448330
   8.2525840 105.0871870  37.1501370   8.8484910 104.7656440  36.4735790
   8.5103990 104.6143690  37.9414640   2.0648860  89.5382060  46.6558230
   2.0037750  90.1303890  47.4053640   3.0049240  89.4308020  46.5108490
   4.7023420  89.1952120  46.2950520   5.3163830  89.5131410  45.6331600
   5.2472980  88.7100710  46.9146380  11.1198600 105.0943750  43.7012360
  10.6256880 105.4912620  42.9839490  10.5111890 104.4692960  44.0949640
   5.4431460  87.7584260  42.6219810   4.5691300  88.0919370  42.4192740
   5.3342210  87.2857440  43.4471680   6.3503440  89.9655130  44.0061530
   6.0216800  89.1506890  43.6263260   7.2985740  89.9224940  43.8827220
   8.8038050 105.7367170  40.9799100   8.3441020 106.4882980  40.6057120
   8.1750510 105.0173640  40.9213900   1.9729270 104.9363900  40.9816210
   2.2607080 104.6818200  40.1049220   2.4852490 104.3841260  41.5721780
   3.1906280  88.6754100  41.5612720   2.4078070  89.1499600  41.8409480
   2.8969210  87.7708930  41.4525900   7.7427350  89.3777200  39.6061810
   8.1835440  89.3222300  38.7583410   7.4734940  90.2935210  39.6771990
   9.6065920  89.0092440  37.6170630   9.5454320  88.0653660  37.4701650
  10.3857950  89.1172530  38.1624090   5.5785480  87.7583300  38.3111820
   6.1814850  88.3303510  38.7860340   4.8378470  88.3222740  38.0885720
   8.7220080  88.1604860  33.5852100   8.9170710  89.0588310  33.8519530
   7.9349950  87.9291940  34.0785050   2.0401630 105.8580000  48.3484410
   2.9668940 105.6224270  48.3920370   2.0252060 106.6852000  47.8670440
  10.2746690 105.4005570  35.3458660  10.4498880 104.7143310  34.7019580
   9.5768260 105.9252620  34.9535330   5.8280700  87.9378330  48.6906760
   5.7146150  88.2572940  49.5858280   6.6450440  88.3390840  48.3944040
   8.6079190 105.0849860  48.1725450   9.4004510 104.5899090  47.9651410
   8.9012340 105.7640000  48.7801060   4.7338850  95.9570800  19.0541500
   4.6532900  95.0425410  18.7833210   4.3203270  96.4537870  18.3481210
   2.8656890  97.7349820  20.9350770   2.0898990  97.2550260  21.2249340
   3.5169820  97.0555470  20.7606930   6.8864320 102.1410010  19.7149900
   6.4245850 101.3697250  20.0437070   7.6989870 102.1676080  20.2202350
   3.1127630 104.4268020  19.3353890   2.4939070 104.8825520  18.7648330
   3.9679410 104.5819480  18.9343590   2.3065880 100.4107010  20.9420930
   2.2374160  99.4696950  20.7810060   3.0685740 100.5008420  21.5143500
   3.3371050  93.2177390  21.1689860   3.7135870  92.3449270  21.0563530
   3.2390560  93.5536090  20.2780300   7.1195170  90.7127830  18.1018200
   7.9404790  90.2224400  18.1443680   7.1529250  91.3025490  18.8550040
  11.4094720  92.7294580  24.6661830  10.7046890  93.1176290  24.1476940
  11.6752640  93.4244870  25.2682760   3.9790980  99.3107260  16.7285800
   3.3608250  99.7756710  16.1648520   4.4914230 100.0034740  17.1455310
   7.3556650  92.6528210  20.8745740   6.6512220  92.9413100  21.4548850
   7.7168810  93.4628320  20.5145300   8.9719430 102.2703340  23.1373220
   8.2882950 102.9402450  23.1289890   9.5113720 102.4683990  22.3718080
  10.4243570  92.0983000  21.2654950   9.4768480  92.1321980  21.3970380
  10.7493560  92.9121950  21.6504310   6.5078170 104.1147470  21.8518400
   6.5205330 103.7109760  20.9840660   5.9553390 104.8894760  21.7479830
   7.8023590 100.8363690  16.9408570   7.6919920  99.8938020  17.0657990
   7.7991840 101.1979330  17.8271330   5.9063610  99.0177310  23.1801010
   6.3232400  98.8037420  22.3454470   6.6303430  99.2750100  23.7509630
   3.3443870  96.4629010  16.2971060   2.4173150  96.3966390  16.5259530
   3.4968690  97.4009140  16.1826300   3.3312950  92.7346010  13.2938220
   2.3916620  92.8959970  13.3790680   3.6496210  93.4531690  12.7474210
   9.8525710  97.4164530  23.2717250   9.0244340  97.4857620  22.7967380
  10.4476190  98.0018840  22.8033080   7.3741160  98.0249310  16.8006310
   6.7553580  97.6868860  16.1532610   7.3565610  97.3809070  17.5085500
   6.8167720  94.2033850  24.2172120   6.4038900  95.0287560  24.4712110
   6.0843670  93.6178890  24.0248480   7.5067820 104.2493180  24.9053100
   7.0298380 105.0565370  24.7125710   6.8229610 103.5971510  25.0579310
   5.5505860  97.2636120  13.8079060   5.9899140  96.4258550  13.6616880
   6.2634280  97.8965520  13.8943200   3.6601240 102.2032190  17.7760300
   4.0997150 102.9456520  17.3615690   3.5988130 102.4458760  18.6999260
   9.1323000  88.5178930  12.1220100   8.8195660  88.6105760  13.0219170
   9.8935470  89.0959960  12.0717530  11.0867030 104.0105120  29.9744490
  11.5626750 104.4888010  30.6533570  11.7074190 103.9422610  29.2489990
  10.4900280 101.2017970  27.1344500  10.6163340 100.9629850  26.2161680
  10.5321660 100.3702510  27.6066580   4.3517020 104.9045970  25.7039310
   4.8661690 104.8153980  26.5061740   3.5086100 105.2505670  25.9967220
   6.3271420 105.1901310  15.1323310   6.1672560 104.9004250  16.0305140
   6.1618130 104.4141440  14.5968540   6.0297550 102.6988870  13.6921310
   5.3362710 102.6966160  13.0323590   6.7720410 102.2748190  13.2615480
   5.5947480 104.3251580  17.7669800   6.0504430 103.5440960  18.0808420
   5.9340000 105.0358400  18.3110980  10.3424290  93.2550430  28.0994240
   9.7268560  93.7630100  27.5709700  10.0220710  92.3548760  28.0420180
   2.4038610  92.0942320  25.5656430   1.9417980  92.3025340  26.3776370
   2.0016720  91.2801670  25.2627100   7.4043120  93.3151270  26.6953090
   6.5536710  93.0157020  27.0162160   7.2444910  93.5593280  25.7836910
   4.4992830  94.8153020  28.7951880   4.8246240  93.9816770  28.4554110
   5.2873160  95.3381540  28.9430210   5.1380780  94.3570740  16.2893010
   4.5389670  95.0806540  16.1056630   5.6860390  94.2947520  15.5069460
   3.7445650  92.9934280  18.3196290   4.1375220  93.3106480  17.5064980
   4.1062500  92.1146160  18.4340810   2.0537820  91.7441590  29.5793150
   1.3636140  91.5513790  30.2139240   2.7970120  92.0276230  30.1117450
   4.3300790  95.5840030  22.4147070   3.5981910  96.0926840  22.7637170
   3.9325130  94.7670010  22.1135850   4.7926700  91.0373710  21.8270010
   4.8099440  91.4882360  22.6711860   4.5442280  90.1379350  22.0403450
   8.2197450  88.4505890  27.6656390   8.5443220  87.7195550  28.1914370
   8.2553960  88.1319530  26.7637380   8.1455290  98.5631000  21.2742420
   8.8654410  99.0586290  20.8838530   7.9437110  97.8848890  20.6296290
   3.6065230  89.9568960  15.4171810   2.7929840  89.4582130  15.3417120
   3.4127180  90.7967210  15.0008160   3.5274090  98.6340060  27.1611420
   3.4611400  97.7135730  26.9069010   2.8979230  98.7315500  27.8756060
   6.3213620  94.3288610  13.7133970   7.2093240  94.6405840  13.5385310
   6.2918710  93.4560860  13.3214550   2.3174210 100.5012300  14.3922140
   2.6589910 101.2454530  13.8965460   1.4886920 100.8143420  14.7546970
   3.4590820 101.4560630  26.9115220   3.4735360 100.5241590  26.6934130
   2.7515920 101.5420390  27.5504990   8.5927890  95.6400450  13.1813830
   8.5091610  96.0714670  12.3310270   9.3122080  96.0998800  13.6140650
   9.6702030  98.0967970  26.2583800   8.9450220  98.6896750  26.0613190
  10.1977490  98.0891510  25.4597170   9.6215140 102.4942710  15.9095960
   8.9791300 101.8398330  16.1839680   9.2345800 102.8997800  15.1336630
   5.2001620  99.8228140  19.7567650   5.5525440  99.2256270  19.0969020
   4.3163950  99.4972370  19.9275900   2.8924720 103.0978200  24.0055720
   3.5366940 103.3037580  24.6829140   3.2554160 102.3366600  23.5526570
   4.1656800 101.1010550  22.7233170   4.8079030 100.4003710  22.8365340
   4.6906150 101.8808990  22.5430060   8.0112520 101.3859170  12.4472310
   7.7850100 100.6689610  13.0396950   7.6208720 101.1371610  11.6094060
   5.9394420 101.9005450  25.9269230   6.2750660 102.4872140  26.6047150
   5.0194760 101.7698160  26.1567020   7.5928770  99.3031110  14.1086470
   7.3050470  99.7643800  14.8964350   8.3880940  98.8428880  14.3770690
   1.7683000 101.9496780  29.0957290   1.4479870 101.2306020  29.6402980
   1.0941360 102.6251850  29.1693350   4.9836600  92.1822940  24.4594090
   5.3517420  91.3618150  24.7873660   4.1234800  92.2424830  24.8749740
   8.3498630  91.1379880  15.2681650   7.7211790  91.2425550  14.5539880
   7.8550550  91.3576660  16.0575530   2.7956770 102.8585470  12.7015630
   2.8968750 102.6549460  11.7717610   1.8958510 102.6043750  12.9063410
   1.9438590  94.8362530  24.6832060   2.4423840  95.3108350  25.3483910
   2.0861540  93.9126050  24.8902090   4.3498090  90.1416490  18.1235320
   4.2265870  90.1602620  17.1744830   5.2982650  90.1895430  18.2433720
   9.1505450  91.0530490  25.5260450   8.6479050  91.7935890  25.8654260
   9.9662110  91.4414490  25.2097240   7.4427460  96.2963670  18.9721810
   6.5017600  96.3113900  19.1469500   7.7571530  95.5099630  19.4182110
   9.4453040 103.4672520  20.6476070   9.5700460 104.2903690  21.1199880
  10.3118600 103.2563250  20.3000220   4.7593480 100.8529670  29.4554190
   4.1531640 100.8761270  28.7149940   4.4547590 100.1212710  29.9921440
   6.1893850 104.5809960  28.0663600   7.1415600 104.4967980  28.0163840
   6.0422070 105.2451670  28.7397390   9.0803050 103.9604170  13.5655510
   8.7944560 103.5469310  12.7509690   8.8822600 104.8891880  13.4456030
   3.7853010  99.0157480  12.6103110   3.2363110  99.4626780  13.2545850
   4.4072270  98.5106730  13.1340780   7.8387950 100.3699580  28.5425370
   8.5797420 100.7075340  28.0392830   7.0760630 100.5391640  27.9895140
   1.9655770  96.9986010  11.7545510   2.4861430  96.2835030  11.3886660
   2.6124170  97.6371880  12.0546020   6.5133610  98.4214410  27.0780580
   6.9274630  98.5759490  27.9271000   5.5784610  98.5469630  27.2406360
   6.9855780  95.7610570  29.0819730   7.5676550  95.0062890  28.9940210
   7.1617550  96.2918010  28.3051210   3.6112740  96.1051070  26.4314350
   3.7308950  95.5092210  27.1709190   4.4706740  96.1420760  26.0115650
   5.9500640  96.6588260  25.0076860   5.4235860  97.1830880  24.4042000
   6.2931980  97.2915650  25.6386590   5.1974940  92.2638230  27.9223190
   4.5090460  91.6019770  27.8573180   5.9180960  91.8176500  28.3671650
   5.8275340  88.8589860  13.9813450   6.1077630  88.0157760  14.3372870
   5.0541070  89.0912970  14.4952200   1.9818470 105.9139110  26.4220890
   1.9077170 106.8174250  26.7293260   1.0797310 105.5951010  26.3942960
   2.5303800 105.0797620  14.0447250   3.4254590 105.4182590  14.0666010
   2.5621430 104.3577030  13.4171530   9.5098150 103.6101290  26.7513450
   8.9100140 103.6693850  26.0077370   9.6392050 102.6706270  26.8810300
  10.7499600 101.3519110  12.0883160   9.9192560 101.4195760  12.5590390
  10.9271430 102.2423230  11.7850020  10.2056060  98.0966590  14.5917360
  10.9674970  98.6663240  14.6977050  10.2210430  97.5293790  15.3625670
  11.2116030  98.9516690  19.4359290  11.5824860  98.1684010  19.0295260
  11.8517960  99.6405790  19.2576590   8.1949790 100.3353270  24.8489610
   7.3809630 100.7650430  25.1115400   8.6023990 100.9471680  24.2358660
  10.2575230  98.3900960  11.7489880  10.5324070  99.2979840  11.6209100
  10.0685970  98.3263490  12.6851870   6.6550840  91.4145810  13.0443510
   7.0735720  91.2276790  12.2040170   6.3486900  90.5624860  13.3546440
  10.1540570  96.3269950  16.7419310   9.7784170  95.5597880  16.3100600
   9.4243690  96.7092650  17.2294240   9.5440190  95.4741470  26.3758830
   9.3126280  95.2454220  25.4756780   9.8044740  96.3941020  26.3303720
   7.9828260  90.6997900  29.1538530   8.8598440  90.7081300  29.5372530
   7.9949100  89.9628740  28.5430880   9.4291530  94.5527440  20.0426550
   9.9529010  94.0590090  19.4116720  10.0150950  94.6877800  20.7874120
   9.6081250  94.6367310  23.5646100   8.6583960  94.6030850  23.6791090
   9.7894260  95.5467420  23.3295870   8.9191500  93.8100790  15.9818960
   9.4150620  93.5771660  16.7667840   8.7207570  92.9712630  15.5656600
  10.3478660  92.4461740  18.5156640  10.2377940  92.2917780  19.4538910
  11.1086250  91.9182680  18.2732050   8.6944380  88.3855870  24.9739640
   9.3316600  88.9990010  25.3398830   8.8419270  88.4216530  24.0288870
  11.2368930  90.2769660  11.7562780  12.1618240  90.1450840  11.5481070
  11.2144720  90.3562480  12.7099230  11.3107420  91.0480320  14.3819490
  10.5158920  90.9825440  14.9112400  11.5150700  91.9830960  14.3704840
   8.2525840 105.0871870  18.3757880   8.8484910 104.7656440  17.6992300
   8.5103990 104.6143690  19.1671150   2.0648860  89.5382060  27.8814740
   2.0037750  90.1303890  28.6310150   3.0049240  89.4308020  27.7365000
   4.7023420  89.1952120  27.5207030   5.3163830  89.5131410  26.8588110
   5.2472980  88.7100710  28.1402890  11.1198600 105.0943750  24.9268870
  10.6256880 105.4912620  24.2096000  10.5111890 104.4692960  25.3206150
   5.4431460  87.7584260  23.8476320   4.5691300  88.0919370  23.6449250
   5.3342210  87.2857440  24.6728190   6.3503440  89.9655130  25.2318040
   6.0216800  89.1506890  24.8519770   7.2985740  89.9224940  25.1083730
   8.8038050 105.7367170  22.2055610   8.3441020 106.4882980  21.8313630
   8.1750510 105.0173640  22.1470410   1.9729270 104.9363900  22.2072720
   2.2607080 104.6818200  21.3305730   2.4852490 104.3841260  22.7978290
   3.1906280  88.6754100  22.7869230   2.4078070  89.1499600  23.0665990
   2.8969210  87.7708930  22.6782410   7.7427350  89.3777200  20.8318320
   8.1835440  89.3222300  19.9839920   7.4734940  90.2935210  20.9028500
   9.6065920  89.0092440  18.8427140   9.5454320  88.0653660  18.6958160
  10.3857950  89.1172530  19.3880600   5.5785480  87.7583300  19.5368330
   6.1814850  88.3303510  20.0116850   4.8378470  88.3222740  19.3142230
   8.7220080  88.1604860  14.8108610   8.9170710  89.0588310  15.0776040
   7.9349950  87.9291940  15.3041560   2.0401630 105.8580000  29.5740920
   2.9668940 105.6224270  29.6176880   2.0252060 106.6852000  29.0926950
  10.2746690 105.4005570  16.5715170  10.4498880 104.7143310  15.9276090
   9.5768260 105.9252620  16.1791840   5.8280700  87.9378330  29.9163270
   5.7146150  88.2572940  30.8114790   6.6450440  88.3390840  29.6200550
   8.6079190 105.0849860  29.3981960   9.4004510 104.5899090  29.1907920
   8.9012340 105.7640000  30.0057570   2.8656890  97.7349820   2.1607280
   2.0898990  97.2550260   2.4505850   3.5169820  97.0555470   1.9863440
   2.3065880 100.4107010   2.1677440   2.2374160  99.4696950   2.0066570
   3.0685740 100.5008420   2.7400010  11.4094720  92.7294580   5.8918340
  10.7046890  93.1176290   5.3733450  11.6752640  93.4244870   6.4939270
   7.3556650  92.6528210   2.1002250   6.6512220  92.9413100   2.6805360
   7.7168810  93.4628320   1.7401810   8.9719430 102.2703340   4.3629730
   8.2882950 102.9402450   4.3546400   9.5113720 102.4683990   3.5974590
  10.4243570  92.0983000   2.4911460   9.4768480  92.1321980   2.6226890
  10.7493560  92.9121950   2.8760820   6.5078170 104.1147470   3.0774910
   6.5205330 103.7109760   2.2097170   5.9553390 104.8894760   2.9736340
   5.9063610  99.0177310   4.4057520   6.3232400  98.8037420   3.5710980
   6.6303430  99.2750100   4.9766140   9.8525710  97.4164530   4.4973760
   9.0244340  97.4857620   4.0223890  10.4476190  98.0018840   4.0289590
   6.8167720  94.2033850   5.4428630   6.4038900  95.0287560   5.6968620
   6.0843670  93.6178890   5.2504990   7.5067820 104.2493180   6.1309610
   7.0298380 105.0565370   5.9382220   6.8229610 103.5971510   6.2835820
  11.0867030 104.0105120  11.2001000  11.5626750 104.4888010  11.8790080
  11.7074190 103.9422610  10.4746500  10.4900280 101.2017970   8.3601010
  10.6163340 100.9629850   7.4418190  10.5321660 100.3702510   8.8323090
   4.3517020 104.9045970   6.9295820   4.8661690 104.8153980   7.7318250
   3.5086100 105.2505670   7.2223730  10.3424290  93.2550430   9.3250750
   9.7268560  93.7630100   8.7966210  10.0220710  92.3548760   9.2676690
   2.4038610  92.0942320   6.7912940   1.9417980  92.3025340   7.6032880
   2.0016720  91.2801670   6.4883610   7.4043120  93.3151270   7.9209600
   6.5536710  93.0157020   8.2418670   7.2444910  93.5593280   7.0093420
   4.4992830  94.8153020  10.0208390   4.8246240  93.9816770   9.6810620
   5.2873160  95.3381540  10.1686720   2.0537820  91.7441590  10.8049660
   1.3636140  91.5513790  11.4395750   2.7970120  92.0276230  11.3373960
   4.3300790  95.5840030   3.6403580   3.5981910  96.0926840   3.9893680
   3.9325130  94.7670010   3.3392360   4.7926700  91.0373710   3.0526520
   4.8099440  91.4882360   3.8968370   4.5442280  90.1379350   3.2659960
   8.2197450  88.4505890   8.8912900   8.5443220  87.7195550   9.4170880
   8.2553960  88.1319530   7.9893890   8.1455290  98.5631000   2.4998930
   8.8654410  99.0586290   2.1095040   7.9437110  97.8848890   1.8552800
   3.5274090  98.6340060   8.3867930   3.4611400  97.7135730   8.1325520
   2.8979230  98.7315500   9.1012570   3.4590820 101.4560630   8.1371730
   3.4735360 100.5241590   7.9190640   2.7515920 101.5420390   8.7761500
   9.6702030  98.0967970   7.4840310   8.9450220  98.6896750   7.2869700
  10.1977490  98.0891510   6.6853680   2.8924720 103.0978200   5.2312230
   3.5366940 103.3037580   5.9085650   3.2554160 102.3366600   4.7783080
   4.1656800 101.1010550   3.9489680   4.8079030 100.4003710   4.0621850
   4.6906150 101.8808990   3.7686570   5.9394420 101.9005450   7.1525740
   6.2750660 102.4872140   7.8303660   5.0194760 101.7698160   7.3823530
   1.7683000 101.9496780  10.3213800   1.4479870 101.2306020  10.8659490
   1.0941360 102.6251850  10.3949860   4.9836600  92.1822940   5.6850600
   5.3517420  91.3618150   6.0130170   4.1234800  92.2424830   6.1006250
   1.9438590  94.8362530   5.9088570   2.4423840  95.3108350   6.5740420
   2.0861540  93.9126050   6.1158600   9.1505450  91.0530490   6.7516960
   8.6479050  91.7935890   7.0910770   9.9662110  91.4414490   6.4353750
   4.7593480 100.8529670  10.6810700   4.1531640 100.8761270   9.9406450
   4.4547590 100.1212710  11.2177950   6.1893850 104.5809960   9.2920110
   7.1415600 104.4967980   9.2420350   6.0422070 105.2451670   9.9653900
   7.8387950 100.3699580   9.7681880   8.5797420 100.7075340   9.2649340
   7.0760630 100.5391640   9.2151650   6.5133610  98.4214410   8.3037090
   6.9274630  98.5759490   9.1527510   5.5784610  98.5469630   8.4662870
   6.9855780  95.7610570  10.3076240   7.5676550  95.0062890  10.2196720
   7.1617550  96.2918010   9.5307720   3.6112740  96.1051070   7.6570860
   3.7308950  95.5092210   8.3965700   4.4706740  96.1420760   7.2372160
   5.9500640  96.6588260   6.2333370   5.4235860  97.1830880   5.6298510
   6.2931980  97.2915650   6.8643100   5.1974940  92.2638230   9.1479700
   4.5090460  91.6019770   9.0829690   5.9180960  91.8176500   9.5928160
   1.9818470 105.9139110   7.6477400   1.9077170 106.8174250   7.9549770
   1.0797310 105.5951010   7.6199470   9.5098150 103.6101290   7.9769960
   8.9100140 103.6693850   7.2333880   9.6392050 102.6706270   8.1066810
   8.1949790 100.3353270   6.0746120   7.3809630 100.7650430   6.3371910
   8.6023990 100.9471680   5.4615170   9.5440190  95.4741470   7.6015340
   9.3126280  95.2454220   6.7013290   9.8044740  96.3941020   7.5560230
   7.9828260  90.6997900  10.3795040   8.8598440  90.7081300  10.7629040
   7.9949100  89.9628740   9.7687390   9.6081250  94.6367310   4.7902610
   8.6583960  94.6030850   4.9047600   9.7894260  95.5467420   4.5552380
   8.6944380  88.3855870   6.1996150   9.3316600  88.9990010   6.5655340
   8.8419270  88.4216530   5.2545380   2.0648860  89.5382060   9.1071250
   2.0037750  90.1303890   9.8566660   3.0049240  89.4308020   8.9621510
   4.7023420  89.1952120   8.7463540   5.3163830  89.5131410   8.0844620
   5.2472980  88.7100710   9.3659400  11.1198600 105.0943750   6.1525380
  10.6256880 105.4912620   5.4352510  10.5111890 104.4692960   6.5462660
   5.4431460  87.7584260   5.0732830   4.5691300  88.0919370   4.8705760
   5.3342210  87.2857440   5.8984700   6.3503440  89.9655130   6.4574550
   6.0216800  89.1506890   6.0776280   7.2985740  89.9224940   6.3340240
   8.8038050 105.7367170   3.4312120   8.3441020 106.4882980   3.0570140
   8.1750510 105.0173640   3.3726920   1.9729270 104.9363900   3.4329230
   2.2607080 104.6818200   2.5562240   2.4852490 104.3841260   4.0234800
   3.1906280  88.6754100   4.0125740   2.4078070  89.1499600   4.2922500
   2.8969210  87.7708930   3.9038920   2.0401630 105.8580000  10.7997430
   2.9668940 105.6224270  10.8433390   2.0252060 106.6852000  10.3183460
   5.8280700  87.9378330  11.1419780   5.7146150  88.2572940  12.0371300
   6.6450440  88.3390840  10.8457060   8.6079190 105.0849860  10.6238470
   9.4004510 104.5899090  10.4164430   8.9012340 105.7640000  11.2314080
   4.7338850  77.1827310 150.4745930   4.6532900  76.2681920 150.2037640
   4.3203270  77.6794380 149.7685640   6.8864320  83.3666520 151.1354330
   6.4245850  82.5953760 151.4641500   7.6989870  83.3932590 151.6406780
   3.1127630  85.6524530 150.7558320   2.4939070  86.1082030 150.1852760
   3.9679410  85.8075990 150.3548020   7.1195170  71.9384340 149.5222630
   7.9404790  71.4480910 149.5648110   7.1529250  72.5282000 150.2754470
   3.9790980  80.5363770 148.1490230   3.3608250  81.0013220 147.5852950
   4.4914230  81.2291250 148.5659740   7.8023590  82.0620200 148.3613000
   7.6919920  81.1194530 148.4862420   7.7991840  82.4235840 149.2475760
   3.3443870  77.6885520 147.7175490   2.4173150  77.6222900 147.9463960
   3.4968690  78.6265650 147.6030730   3.3312950  73.9602520 144.7142650
   2.3916620  74.1216480 144.7995110   3.6496210  74.6788200 144.1678640
   7.3741160  79.2505820 148.2210740   6.7553580  78.9125370 147.5737040
   7.3565610  78.6065580 148.9289930   5.5505860  78.4892630 145.2283490
   5.9899140  77.6515060 145.0821310   6.2634280  79.1222030 145.3147630
   3.6601240  83.4288700 149.1964730   4.0997150  84.1713030 148.7820120
   3.5988130  83.6715270 150.1203690   9.1323000  69.7435440 143.5424530
   8.8195660  69.8362270 144.4423600   9.8935470  70.3216470 143.4921960
   6.3271420  86.4157820 146.5527740   6.1672560  86.1260760 147.4509570
   6.1618130  85.6397950 146.0172970   6.0297550  83.9245380 145.1125740
   5.3362710  83.9222670 144.4528020   6.7720410  83.5004700 144.6819910
   5.5947480  85.5508090 149.1874230   6.0504430  84.7697470 149.5012850
   5.9340000  86.2614910 149.7315410   5.1380780  75.5827250 147.7097440
   4.5389670  76.3063050 147.5261060   5.6860390  75.5204030 146.9273890
   3.7445650  74.2190790 149.7400720   4.1375220  74.5362990 148.9269410
   4.1062500  73.3402670 149.8545240   3.6065230  71.1825470 146.8376240
   2.7929840  70.6838640 146.7621550   3.4127180  72.0223720 146.4212590
   6.3213620  75.5545120 145.1338400   7.2093240  75.8662350 144.9589740
   6.2918710  74.6817370 144.7418980   2.3174210  81.7268810 145.8126570
   2.6589910  82.4711040 145.3169890   1.4886920  82.0399930 146.1751400
   8.5927890  76.8656960 144.6018260   8.5091610  77.2971180 143.7514700
   9.3122080  77.3255310 145.0345080   9.6215140  83.7199220 147.3300390
   8.9791300  83.0654840 147.6044110   9.2345800  84.1254310 146.5541060
   5.2001620  81.0484650 151.1772080   5.5525440  80.4512780 150.5173450
   4.3163950  80.7228880 151.3480330   8.0112520  82.6115680 143.8676740
   7.7850100  81.8946120 144.4601380   7.6208720  82.3628120 143.0298490
   7.5928770  80.5287620 145.5290900   7.3050470  80.9900310 146.3168780
   8.3880940  80.0685390 145.7975120   8.3498630  72.3636390 146.6886080
   7.7211790  72.4682060 145.9744310   7.8550550  72.5833170 147.4779960
   2.7956770  84.0841980 144.1220060   2.8968750  83.8805970 143.1922040
   1.8958510  83.8300260 144.3267840   4.3498090  71.3673000 149.5439750
   4.2265870  71.3859130 148.5949260   5.2982650  71.4151940 149.6638150
   7.4427460  77.5220180 150.3926240   6.5017600  77.5370410 150.5673930
   7.7571530  76.7356140 150.8386540   9.0803050  85.1860680 144.9859940
   8.7944560  84.7725820 144.1714120   8.8822600  86.1148390 144.8660460
   3.7853010  80.2413990 144.0307540   3.2363110  80.6883290 144.6750280
   4.4072270  79.7363240 144.5545210   1.9655770  78.2242520 143.1749940
   2.4861430  77.5091540 142.8091090   2.6124170  78.8628390 143.4750450
   5.8275340  70.0846370 145.4017880   6.1077630  69.2414270 145.7577300
   5.0541070  70.3169480 145.9156630   2.5303800  86.3054130 145.4651680
   3.4254590  86.6439100 145.4870440   2.5621430  85.5833540 144.8375960
  10.7499600  82.5775620 143.5087590   9.9192560  82.6452270 143.9794820
  10.9271430  83.4679740 143.2054450  10.2056060  79.3223100 146.0121790
  10.9674970  79.8919750 146.1181480  10.2210430  78.7550300 146.7830100
  11.2116030  80.1773200 150.8563720  11.5824860  79.3940520 150.4499690
  11.8517960  80.8662300 150.6781020  10.2575230  79.6157470 143.1694310
  10.5324070  80.5236350 143.0413530  10.0685970  79.5520000 144.1056300
   6.6550840  72.6402320 144.4647940   7.0735720  72.4533300 143.6244600
   6.3486900  71.7881370 144.7750870  10.1540570  77.5526460 148.1623740
   9.7784170  76.7854390 147.7305030   9.4243690  77.9349160 148.6498670
   9.4291530  75.7783950 151.4630980   9.9529010  75.2846600 150.8321150
  10.0150950  75.9134310 152.2078550   8.9191500  75.0357300 147.4023390
   9.4150620  74.8028170 148.1872270   8.7207570  74.1969140 146.9861030
  10.3478660  73.6718250 149.9361070  10.2377940  73.5174290 150.8743340
  11.1086250  73.1439190 149.6936480  11.2368930  71.5026170 143.1767210
  12.1618240  71.3707350 142.9685500  11.2144720  71.5818990 144.1303660
  11.3107420  72.2736830 145.8023920  10.5158920  72.2081950 146.3316830
  11.5150700  73.2087470 145.7909270   8.2525840  86.3128380 149.7962310
   8.8484910  85.9912950 149.1196730   8.5103990  85.8400200 150.5875580
   7.7427350  70.6033710 152.2522750   8.1835440  70.5478810 151.4044350
   7.4734940  71.5191720 152.3232930   9.6065920  70.2348950 150.2631570
   9.5454320  69.2910170 150.1162590  10.3857950  70.3429040 150.8085030
   5.5785480  68.9839810 150.9572760   6.1814850  69.5560020 151.4321280
   4.8378470  69.5479250 150.7346660   8.7220080  69.3861370 146.2313040
   8.9170710  70.2844820 146.4980470   7.9349950  69.1548450 146.7245990
  10.2746690  86.6262080 147.9919600  10.4498880  85.9399820 147.3480520
   9.5768260  87.1509130 147.5996270   4.7338850  77.1827310 131.7002440
   4.6532900  76.2681920 131.4294150   4.3203270  77.6794380 130.9942150
   2.8656890  78.9606330 133.5811710   2.0898990  78.4806770 133.8710280
   3.5169820  78.2811980 133.4067870   6.8864320  83.3666520 132.3610840
   6.4245850  82.5953760 132.6898010   7.6989870  83.3932590 132.8663290
   3.1127630  85.6524530 131.9814830   2.4939070  86.1082030 131.4109270
   3.9679410  85.8075990 131.5804530   2.3065880  81.6363520 133.5881870
   2.2374160  80.6953460 133.4271000   3.0685740  81.7264930 134.1604440
   3.3371050  74.4433900 133.8150800   3.7135870  73.5705780 133.7024470
   3.2390560  74.7792600 132.9241240   7.1195170  71.9384340 130.7479140
   7.9404790  71.4480910 130.7904620   7.1529250  72.5282000 131.5010980
  11.4094720  73.9551090 137.3122770  10.7046890  74.3432800 136.7937880
  11.6752640  74.6501380 137.9143700   3.9790980  80.5363770 129.3746740
   3.3608250  81.0013220 128.8109460   4.4914230  81.2291250 129.7916250
   7.3556650  73.8784720 133.5206680   6.6512220  74.1669610 134.1009790
   7.7168810  74.6884830 133.1606240   8.9719430  83.4959850 135.7834160
   8.2882950  84.1658960 135.7750830   9.5113720  83.6940500 135.0179020
  10.4243570  73.3239510 133.9115890   9.4768480  73.3578490 134.0431320
  10.7493560  74.1378460 134.2965250   6.5078170  85.3403980 134.4979340
   6.5205330  84.9366270 133.6301600   5.9553390  86.1151270 134.3940770
   7.8023590  82.0620200 129.5869510   7.6919920  81.1194530 129.7118930
   7.7991840  82.4235840 130.4732270   5.9063610  80.2433820 135.8261950
   6.3232400  80.0293930 134.9915410   6.6303430  80.5006610 136.3970570
   3.3443870  77.6885520 128.9432000   2.4173150  77.6222900 129.1720470
   3.4968690  78.6265650 128.8287240   3.3312950  73.9602520 125.9399160
   2.3916620  74.1216480 126.0251620   3.6496210  74.6788200 125.3935150
   9.8525710  78.6421040 135.9178190   9.0244340  78.7114130 135.4428320
  10.4476190  79.2275350 135.4494020   7.3741160  79.2505820 129.4467250
   6.7553580  78.9125370 128.7993550   7.3565610  78.6065580 130.1546440
   6.8167720  75.4290360 136.8633060   6.4038900  76.2544070 137.1173050
   6.0843670  74.8435400 136.6709420   7.5067820  85.4749690 137.5514040
   7.0298380  86.2821880 137.3586650   6.8229610  84.8228020 137.7040250
   5.5505860  78.4892630 126.4540000   5.9899140  77.6515060 126.3077820
   6.2634280  79.1222030 126.5404140   3.6601240  83.4288700 130.4221240
   4.0997150  84.1713030 130.0076630   3.5988130  83.6715270 131.3460200
   9.1323000  69.7435440 124.7681040   8.8195660  69.8362270 125.6680110
   9.8935470  70.3216470 124.7178470  11.0867030  85.2361630 142.6205430
  11.5626750  85.7144520 143.2994510  11.7074190  85.1679120 141.8950930
  10.4900280  82.4274480 139.7805440  10.6163340  82.1886360 138.8622620
  10.5321660  81.5959020 140.2527520   4.3517020  86.1302480 138.3500250
   4.8661690  86.0410490 139.1522680   3.5086100  86.4762180 138.6428160
   6.3271420  86.4157820 127.7784250   6.1672560  86.1260760 128.6766080
   6.1618130  85.6397950 127.2429480   6.0297550  83.9245380 126.3382250
   5.3362710  83.9222670 125.6784530   6.7720410  83.5004700 125.9076420
   5.5947480  85.5508090 130.4130740   6.0504430  84.7697470 130.7269360
   5.9340000  86.2614910 130.9571920  10.3424290  74.4806940 140.7455180
   9.7268560  74.9886610 140.2170640  10.0220710  73.5805270 140.6881120
   2.4038610  73.3198830 138.2117370   1.9417980  73.5281850 139.0237310
   2.0016720  72.5058180 137.9088040   7.4043120  74.5407780 139.3414030
   6.5536710  74.2413530 139.6623100   7.2444910  74.7849790 138.4297850
   4.4992830  76.0409530 141.4412820   4.8246240  75.2073280 141.1015050
   5.2873160  76.5638050 141.5891150   5.1380780  75.5827250 128.9353950
   4.5389670  76.3063050 128.7517570   5.6860390  75.5204030 128.1530400
   3.7445650  74.2190790 130.9657230   4.1375220  74.5362990 130.1525920
   4.1062500  73.3402670 131.0801750   2.0537820  72.9698100 142.2254090
   1.3636140  72.7770300 142.8600180   2.7970120  73.2532740 142.7578390
   4.3300790  76.8096540 135.0608010   3.5981910  77.3183350 135.4098110
   3.9325130  75.9926520 134.7596790   4.7926700  72.2630220 134.4730950
   4.8099440  72.7138870 135.3172800   4.5442280  71.3635860 134.6864390
   8.2197450  69.6762400 140.3117330   8.5443220  68.9452060 140.8375310
   8.2553960  69.3576040 139.4098320   8.1455290  79.7887510 133.9203360
   8.8654410  80.2842800 133.5299470   7.9437110  79.1105400 133.2757230
   3.6065230  71.1825470 128.0632750   2.7929840  70.6838640 127.9878060
   3.4127180  72.0223720 127.6469100   3.5274090  79.8596570 139.8072360
   3.4611400  78.9392240 139.5529950   2.8979230  79.9572010 140.5217000
   6.3213620  75.5545120 126.3594910   7.2093240  75.8662350 126.1846250
   6.2918710  74.6817370 125.9675490   2.3174210  81.7268810 127.0383080
   2.6589910  82.4711040 126.5426400   1.4886920  82.0399930 127.4007910
   3.4590820  82.6817140 139.5576160   3.4735360  81.7498100 139.3395070
   2.7515920  82.7676900 140.1965930   8.5927890  76.8656960 125.8274770
   8.5091610  77.2971180 124.9771210   9.3122080  77.3255310 126.2601590
   9.6702030  79.3224480 138.9044740   8.9450220  79.9153260 138.7074130
  10.1977490  79.3148020 138.1058110   9.6215140  83.7199220 128.5556900
   8.9791300  83.0654840 128.8300620   9.2345800  84.1254310 127.7797570
   5.2001620  81.0484650 132.4028590   5.5525440  80.4512780 131.7429960
   4.3163950  80.7228880 132.5736840   2.8924720  84.3234710 136.6516660
   3.5366940  84.5294090 137.3290080   3.2554160  83.5623110 136.1987510
   4.1656800  82.3267060 135.3694110   4.8079030  81.6260220 135.4826280
   4.6906150  83.1065500 135.1891000   8.0112520  82.6115680 125.0933250
   7.7850100  81.8946120 125.6857890   7.6208720  82.3628120 124.2555000
   5.9394420  83.1261960 138.5730170   6.2750660  83.7128650 139.2508090
   5.0194760  82.9954670 138.8027960   7.5928770  80.5287620 126.7547410
   7.3050470  80.9900310 127.5425290   8.3880940  80.0685390 127.0231630
   1.7683000  83.1753290 141.7418230   1.4479870  82.4562530 142.2863920
   1.0941360  83.8508360 141.8154290   4.9836600  73.4079450 137.1055030
   5.3517420  72.5874660 137.4334600   4.1234800  73.4681340 137.5210680
   8.3498630  72.3636390 127.9142590   7.7211790  72.4682060 127.2000820
   7.8550550  72.5833170 128.7036470   2.7956770  84.0841980 125.3476570
   2.8968750  83.8805970 124.4178550   1.8958510  83.8300260 125.5524350
   1.9438590  76.0619040 137.3293000   2.4423840  76.5364860 137.9944850
   2.0861540  75.1382560 137.5363030   4.3498090  71.3673000 130.7696260
   4.2265870  71.3859130 129.8205770   5.2982650  71.4151940 130.8894660
   9.1505450  72.2787000 138.1721390   8.6479050  73.0192400 138.5115200
   9.9662110  72.6671000 137.8558180   7.4427460  77.5220180 131.6182750
   6.5017600  77.5370410 131.7930440   7.7571530  76.7356140 132.0643050
   9.4453040  84.6929030 133.2937010   9.5700460  85.5160200 133.7660820
  10.3118600  84.4819760 132.9461160   4.7593480  82.0786180 142.1015130
   4.1531640  82.1017780 141.3610880   4.4547590  81.3469220 142.6382380
   6.1893850  85.8066470 140.7124540   7.1415600  85.7224490 140.6624780
   6.0422070  86.4708180 141.3858330   9.0803050  85.1860680 126.2116450
   8.7944560  84.7725820 125.3970630   8.8822600  86.1148390 126.0916970
   3.7853010  80.2413990 125.2564050   3.2363110  80.6883290 125.9006790
   4.4072270  79.7363240 125.7801720   7.8387950  81.5956090 141.1886310
   8.5797420  81.9331850 140.6853770   7.0760630  81.7648150 140.6356080
   1.9655770  78.2242520 124.4006450   2.4861430  77.5091540 124.0347600
   2.6124170  78.8628390 124.7006960   6.5133610  79.6470920 139.7241520
   6.9274630  79.8016000 140.5731940   5.5784610  79.7726140 139.8867300
   6.9855780  76.9867080 141.7280670   7.5676550  76.2319400 141.6401150
   7.1617550  77.5174520 140.9512150   3.6112740  77.3307580 139.0775290
   3.7308950  76.7348720 139.8170130   4.4706740  77.3677270 138.6576590
   5.9500640  77.8844770 137.6537800   5.4235860  78.4087390 137.0502940
   6.2931980  78.5172160 138.2847530   5.1974940  73.4894740 140.5684130
   4.5090460  72.8276280 140.5034120   5.9180960  73.0433010 141.0132590
   5.8275340  70.0846370 126.6274390   6.1077630  69.2414270 126.9833810
   5.0541070  70.3169480 127.1413140   1.9818470  87.1395620 139.0681830
   1.9077170  88.0430760 139.3754200   1.0797310  86.8207520 139.0403900
   2.5303800  86.3054130 126.6908190   3.4254590  86.6439100 126.7126950
   2.5621430  85.5833540 126.0632470   9.5098150  84.8357800 139.3974390
   8.9100140  84.8950360 138.6538310   9.6392050  83.8962780 139.5271240
  10.7499600  82.5775620 124.7344100   9.9192560  82.6452270 125.2051330
  10.9271430  83.4679740 124.4310960  10.2056060  79.3223100 127.2378300
  10.9674970  79.8919750 127.3437990  10.2210430  78.7550300 128.0086610
  11.2116030  80.1773200 132.0820230  11.5824860  79.3940520 131.6756200
  11.8517960  80.8662300 131.9037530   8.1949790  81.5609780 137.4950550
   7.3809630  81.9906940 137.7576340   8.6023990  82.1728190 136.8819600
  10.2575230  79.6157470 124.3950820  10.5324070  80.5236350 124.2670040
  10.0685970  79.5520000 125.3312810   6.6550840  72.6402320 125.6904450
   7.0735720  72.4533300 124.8501110   6.3486900  71.7881370 126.0007380
  10.1540570  77.5526460 129.3880250   9.7784170  76.7854390 128.9561540
   9.4243690  77.9349160 129.8755180   9.5440190  76.6997980 139.0219770
   9.3126280  76.4710730 138.1217720   9.8044740  77.6197530 138.9764660
   7.9828260  71.9254410 141.7999470   8.8598440  71.9337810 142.1833470
   7.9949100  71.1885250 141.1891820   9.4291530  75.7783950 132.6887490
   9.9529010  75.2846600 132.0577660  10.0150950  75.9134310 133.4335060
   9.6081250  75.8623820 136.2107040   8.6583960  75.8287360 136.3252030
   9.7894260  76.7723930 135.9756810   8.9191500  75.0357300 128.6279900
   9.4150620  74.8028170 129.4128780   8.7207570  74.1969140 128.2117540
  10.3478660  73.6718250 131.1617580  10.2377940  73.5174290 132.0999850
  11.1086250  73.1439190 130.9192990   8.6944380  69.6112380 137.6200580
   9.3316600  70.2246520 137.9859770   8.8419270  69.6473040 136.6749810
  11.2368930  71.5026170 124.4023720  12.1618240  71.3707350 124.1942010
  11.2144720  71.5818990 125.3560170  11.3107420  72.2736830 127.0280430
  10.5158920  72.2081950 127.5573340  11.5150700  73.2087470 127.0165780
   8.2525840  86.3128380 131.0218820   8.8484910  85.9912950 130.3453240
   8.5103990  85.8400200 131.8132090   2.0648860  70.7638570 140.5275680
   2.0037750  71.3560400 141.2771090   3.0049240  70.6564530 140.3825940
   4.7023420  70.4208630 140.1667970   5.3163830  70.7387920 139.5049050
   5.2472980  69.9357220 140.7863830  11.1198600  86.3200260 137.5729810
  10.6256880  86.7169130 136.8556940  10.5111890  85.6949470 137.9667090
   5.4431460  68.9840770 136.4937260   4.5691300  69.3175880 136.2910190
   5.3342210  68.5113950 137.3189130   6.3503440  71.1911640 137.8778980
   6.0216800  70.3763400 137.4980710   7.2985740  71.1481450 137.7544670
   8.8038050  86.9623680 134.8516550   8.3441020  87.7139490 134.4774570
   8.1750510  86.2430150 134.7931350   1.9729270  86.1620410 134.8533660
   2.2607080  85.9074710 133.9766670   2.4852490  85.6097770 135.4439230
   3.1906280  69.9010610 135.4330170   2.4078070  70.3756110 135.7126930
   2.8969210  68.9965440 135.3243350   7.7427350  70.6033710 133.4779260
   8.1835440  70.5478810 132.6300860   7.4734940  71.5191720 133.5489440
   9.6065920  70.2348950 131.4888080   9.5454320  69.2910170 131.3419100
  10.3857950  70.3429040 132.0341540   5.5785480  68.9839810 132.1829270
   6.1814850  69.5560020 132.6577790   4.8378470  69.5479250 131.9603170
   8.7220080  69.3861370 127.4569550   8.9170710  70.2844820 127.7236980
   7.9349950  69.1548450 127.9502500   2.0401630  87.0836510 142.2201860
   2.9668940  86.8480780 142.2637820   2.0252060  87.9108510 141.7387890
  10.2746690  86.6262080 129.2176110  10.4498880  85.9399820 128.5737030
   9.5768260  87.1509130 128.8252780   5.8280700  69.1634840 142.5624210
   5.7146150  69.4829450 143.4575730   6.6450440  69.5647350 142.2661490
   8.6079190  86.3106370 142.0442900   9.4004510  85.8155600 141.8368860
   8.9012340  86.9896510 142.6518510   4.7338850  77.1827310 112.9258950
   4.6532900  76.2681920 112.6550660   4.3203270  77.6794380 112.2198660
   2.8656890  78.9606330 114.8068220   2.0898990  78.4806770 115.0966790
   3.5169820  78.2811980 114.6324380   6.8864320  83.3666520 113.5867350
   6.4245850  82.5953760 113.9154520   7.6989870  83.3932590 114.0919800
   3.1127630  85.6524530 113.2071340   2.4939070  86.1082030 112.6365780
   3.9679410  85.8075990 112.8061040   2.3065880  81.6363520 114.8138380
   2.2374160  80.6953460 114.6527510   3.0685740  81.7264930 115.3860950
   3.3371050  74.4433900 115.0407310   3.7135870  73.5705780 114.9280980
   3.2390560  74.7792600 114.1497750   7.1195170  71.9384340 111.9735650
   7.9404790  71.4480910 112.0161130   7.1529250  72.5282000 112.7267490
  11.4094720  73.9551090 118.5379280  10.7046890  74.3432800 118.0194390
  11.6752640  74.6501380 119.1400210   3.9790980  80.5363770 110.6003250
   3.3608250  81.0013220 110.0365970   4.4914230  81.2291250 111.0172760
   7.3556650  73.8784720 114.7463190   6.6512220  74.1669610 115.3266300
   7.7168810  74.6884830 114.3862750   8.9719430  83.4959850 117.0090670
   8.2882950  84.1658960 117.0007340   9.5113720  83.6940500 116.2435530
  10.4243570  73.3239510 115.1372400   9.4768480  73.3578490 115.2687830
  10.7493560  74.1378460 115.5221760   6.5078170  85.3403980 115.7235850
   6.5205330  84.9366270 114.8558110   5.9553390  86.1151270 115.6197280
   7.8023590  82.0620200 110.8126020   7.6919920  81.1194530 110.9375440
   7.7991840  82.4235840 111.6988780   5.9063610  80.2433820 117.0518460
   6.3232400  80.0293930 116.2171920   6.6303430  80.5006610 117.6227080
   3.3443870  77.6885520 110.1688510   2.4173150  77.6222900 110.3976980
   3.4968690  78.6265650 110.0543750   3.3312950  73.9602520 107.1655670
   2.3916620  74.1216480 107.2508130   3.6496210  74.6788200 106.6191660
   9.8525710  78.6421040 117.1434700   9.0244340  78.7114130 116.6684830
  10.4476190  79.2275350 116.6750530   7.3741160  79.2505820 110.6723760
   6.7553580  78.9125370 110.0250060   7.3565610  78.6065580 111.3802950
   6.8167720  75.4290360 118.0889570   6.4038900  76.2544070 118.3429560
   6.0843670  74.8435400 117.8965930   7.5067820  85.4749690 118.7770550
   7.0298380  86.2821880 118.5843160   6.8229610  84.8228020 118.9296760
   5.5505860  78.4892630 107.6796510   5.9899140  77.6515060 107.5334330
   6.2634280  79.1222030 107.7660650   3.6601240  83.4288700 111.6477750
   4.0997150  84.1713030 111.2333140   3.5988130  83.6715270 112.5716710
   9.1323000  69.7435440 105.9937550   8.8195660  69.8362270 106.8936620
   9.8935470  70.3216470 105.9434980  11.0867030  85.2361630 123.8461940
  11.5626750  85.7144520 124.5251020  11.7074190  85.1679120 123.1207440
  10.4900280  82.4274480 121.0061950  10.6163340  82.1886360 120.0879130
  10.5321660  81.5959020 121.4784030   4.3517020  86.1302480 119.5756760
   4.8661690  86.0410490 120.3779190   3.5086100  86.4762180 119.8684670
   6.3271420  86.4157820 109.0040760   6.1672560  86.1260760 109.9022590
   6.1618130  85.6397950 108.4685990   6.0297550  83.9245380 107.5638760
   5.3362710  83.9222670 106.9041040   6.7720410  83.5004700 107.1332930
   5.5947480  85.5508090 111.6387250   6.0504430  84.7697470 111.9525870
   5.9340000  86.2614910 112.1828430  10.3424290  74.4806940 121.9711690
   9.7268560  74.9886610 121.4427150  10.0220710  73.5805270 121.9137630
   2.4038610  73.3198830 119.4373880   1.9417980  73.5281850 120.2493820
   2.0016720  72.5058180 119.1344550   7.4043120  74.5407780 120.5670540
   6.5536710  74.2413530 120.8879610   7.2444910  74.7849790 119.6554360
   4.4992830  76.0409530 122.6669330   4.8246240  75.2073280 122.3271560
   5.2873160  76.5638050 122.8147660   5.1380780  75.5827250 110.1610460
   4.5389670  76.3063050 109.9774080   5.6860390  75.5204030 109.3786910
   3.7445650  74.2190790 112.1913740   4.1375220  74.5362990 111.3782430
   4.1062500  73.3402670 112.3058260   2.0537820  72.9698100 123.4510600
   1.3636140  72.7770300 124.0856690   2.7970120  73.2532740 123.9834900
   4.3300790  76.8096540 116.2864520   3.5981910  77.3183350 116.6354620
   3.9325130  75.9926520 115.9853300   4.7926700  72.2630220 115.6987460
   4.8099440  72.7138870 116.5429310   4.5442280  71.3635860 115.9120900
   8.2197450  69.6762400 121.5373840   8.5443220  68.9452060 122.0631820
   8.2553960  69.3576040 120.6354830   8.1455290  79.7887510 115.1459870
   8.8654410  80.2842800 114.7555980   7.9437110  79.1105400 114.5013740
   3.6065230  71.1825470 109.2889260   2.7929840  70.6838640 109.2134570
   3.4127180  72.0223720 108.8725610   3.5274090  79.8596570 121.0328870
   3.4611400  78.9392240 120.7786460   2.8979230  79.9572010 121.7473510
   6.3213620  75.5545120 107.5851420   7.2093240  75.8662350 107.4102760
   6.2918710  74.6817370 107.1932000   2.3174210  81.7268810 108.2639590
   2.6589910  82.4711040 107.7682910   1.4886920  82.0399930 108.6264420
   3.4590820  82.6817140 120.7832670   3.4735360  81.7498100 120.5651580
   2.7515920  82.7676900 121.4222440   8.5927890  76.8656960 107.0531280
   8.5091610  77.2971180 106.2027720   9.3122080  77.3255310 107.4858100
   9.6702030  79.3224480 120.1301250   8.9450220  79.9153260 119.9330640
  10.1977490  79.3148020 119.3314620   9.6215140  83.7199220 109.7813410
   8.9791300  83.0654840 110.0557130   9.2345800  84.1254310 109.0054080
   5.2001620  81.0484650 113.6285100   5.5525440  80.4512780 112.9686470
   4.3163950  80.7228880 113.7993350   2.8924720  84.3234710 117.8773170
   3.5366940  84.5294090 118.5546590   3.2554160  83.5623110 117.4244020
   4.1656800  82.3267060 116.5950620   4.8079030  81.6260220 116.7082790
   4.6906150  83.1065500 116.4147510   8.0112520  82.6115680 106.3189760
   7.7850100  81.8946120 106.9114400   7.6208720  82.3628120 105.4811510
   5.9394420  83.1261960 119.7986680   6.2750660  83.7128650 120.4764600
   5.0194760  82.9954670 120.0284470   7.5928770  80.5287620 107.9803920
   7.3050470  80.9900310 108.7681800   8.3880940  80.0685390 108.2488140
   1.7683000  83.1753290 122.9674740   1.4479870  82.4562530 123.5120430
   1.0941360  83.8508360 123.0410800   4.9836600  73.4079450 118.3311540
   5.3517420  72.5874660 118.6591110   4.1234800  73.4681340 118.7467190
   8.3498630  72.3636390 109.1399100   7.7211790  72.4682060 108.4257330
   7.8550550  72.5833170 109.9292980   2.7956770  84.0841980 106.5733080
   2.8968750  83.8805970 105.6435060   1.8958510  83.8300260 106.7780860
   1.9438590  76.0619040 118.5549510   2.4423840  76.5364860 119.2201360
   2.0861540  75.1382560 118.7619540   4.3498090  71.3673000 111.9952770
   4.2265870  71.3859130 111.0462280   5.2982650  71.4151940 112.1151170
   9.1505450  72.2787000 119.3977900   8.6479050  73.0192400 119.7371710
   9.9662110  72.6671000 119.0814690   7.4427460  77.5220180 112.8439260
   6.5017600  77.5370410 113.0186950   7.7571530  76.7356140 113.2899560
   9.4453040  84.6929030 114.5193520   9.5700460  85.5160200 114.9917330
  10.3118600  84.4819760 114.1717670   4.7593480  82.0786180 123.3271640
   4.1531640  82.1017780 122.5867390   4.4547590  81.3469220 123.8638890
   6.1893850  85.8066470 121.9381050   7.1415600  85.7224490 121.8881290
   6.0422070  86.4708180 122.6114840   9.0803050  85.1860680 107.4372960
   8.7944560  84.7725820 106.6227140   8.8822600  86.1148390 107.3173480
   3.7853010  80.2413990 106.4820560   3.2363110  80.6883290 107.1263300
   4.4072270  79.7363240 107.0058230   7.8387950  81.5956090 122.4142820
   8.5797420  81.9331850 121.9110280   7.0760630  81.7648150 121.8612590
   1.9655770  78.2242520 105.6262960   2.4861430  77.5091540 105.2604110
   2.6124170  78.8628390 105.9263470   6.5133610  79.6470920 120.9498030
   6.9274630  79.8016000 121.7988450   5.5784610  79.7726140 121.1123810
   6.9855780  76.9867080 122.9537180   7.5676550  76.2319400 122.8657660
   7.1617550  77.5174520 122.1768660   3.6112740  77.3307580 120.3031800
   3.7308950  76.7348720 121.0426640   4.4706740  77.3677270 119.8833100
   5.9500640  77.8844770 118.8794310   5.4235860  78.4087390 118.2759450
   6.2931980  78.5172160 119.5104040   5.1974940  73.4894740 121.7940640
   4.5090460  72.8276280 121.7290630   5.9180960  73.0433010 122.2389100
   5.8275340  70.0846370 107.8530900   6.1077630  69.2414270 108.2090320
   5.0541070  70.3169480 108.3669650   1.9818470  87.1395620 120.2938340
   1.9077170  88.0430760 120.6010710   1.0797310  86.8207520 120.2660410
   2.5303800  86.3054130 107.9164700   3.4254590  86.6439100 107.9383460
   2.5621430  85.5833540 107.2888980   9.5098150  84.8357800 120.6230900
   8.9100140  84.8950360 119.8794820   9.6392050  83.8962780 120.7527750
  10.7499600  82.5775620 105.9600610   9.9192560  82.6452270 106.4307840
  10.9271430  83.4679740 105.6567470  10.2056060  79.3223100 108.4634810
  10.9674970  79.8919750 108.5694500  10.2210430  78.7550300 109.2343120
  11.2116030  80.1773200 113.3076740  11.5824860  79.3940520 112.9012710
  11.8517960  80.8662300 113.1294040   8.1949790  81.5609780 118.7207060
   7.3809630  81.9906940 118.9832850   8.6023990  82.1728190 118.1076110
  10.2575230  79.6157470 105.6207330  10.5324070  80.5236350 105.4926550
  10.0685970  79.5520000 106.5569320   6.6550840  72.6402320 106.9160960
   7.0735720  72.4533300 106.0757620   6.3486900  71.7881370 107.2263890
  10.1540570  77.5526460 110.6136760   9.7784170  76.7854390 110.1818050
   9.4243690  77.9349160 111.1011690   9.5440190  76.6997980 120.2476280
   9.3126280  76.4710730 119.3474230   9.8044740  77.6197530 120.2021170
   7.9828260  71.9254410 123.0255980   8.8598440  71.9337810 123.4089980
   7.9949100  71.1885250 122.4148330   9.4291530  75.7783950 113.9144000
   9.9529010  75.2846600 113.2834170  10.0150950  75.9134310 114.6591570
   9.6081250  75.8623820 117.4363550   8.6583960  75.8287360 117.5508540
   9.7894260  76.7723930 117.2013320   8.9191500  75.0357300 109.8536410
   9.4150620  74.8028170 110.6385290   8.7207570  74.1969140 109.4374050
  10.3478660  73.6718250 112.3874090  10.2377940  73.5174290 113.3256360
  11.1086250  73.1439190 112.1449500   8.6944380  69.6112380 118.8457090
   9.3316600  70.2246520 119.2116280   8.8419270  69.6473040 117.9006320
  11.2368930  71.5026170 105.6280230  12.1618240  71.3707350 105.4198520
  11.2144720  71.5818990 106.5816680  11.3107420  72.2736830 108.2536940
  10.5158920  72.2081950 108.7829850  11.5150700  73.2087470 108.2422290
   8.2525840  86.3128380 112.2475330   8.8484910  85.9912950 111.5709750
   8.5103990  85.8400200 113.0388600   2.0648860  70.7638570 121.7532190
   2.0037750  71.3560400 122.5027600   3.0049240  70.6564530 121.6082450
   4.7023420  70.4208630 121.3924480   5.3163830  70.7387920 120.7305560
   5.2472980  69.9357220 122.0120340  11.1198600  86.3200260 118.7986320
  10.6256880  86.7169130 118.0813450  10.5111890  85.6949470 119.1923600
   5.4431460  68.9840770 117.7193770   4.5691300  69.3175880 117.5166700
   5.3342210  68.5113950 118.5445640   6.3503440  71.1911640 119.1035490
   6.0216800  70.3763400 118.7237220   7.2985740  71.1481450 118.9801180
   8.8038050  86.9623680 116.0773060   8.3441020  87.7139490 115.7031080
   8.1750510  86.2430150 116.0187860   1.9729270  86.1620410 116.0790170
   2.2607080  85.9074710 115.2023180   2.4852490  85.6097770 116.6695740
   3.1906280  69.9010610 116.6586680   2.4078070  70.3756110 116.9383440
   2.8969210  68.9965440 116.5499860   7.7427350  70.6033710 114.7035770
   8.1835440  70.5478810 113.8557370   7.4734940  71.5191720 114.7745950
   9.6065920  70.2348950 112.7144590   9.5454320  69.2910170 112.5675610
  10.3857950  70.3429040 113.2598050   5.5785480  68.9839810 113.4085780
   6.1814850  69.5560020 113.8834300   4.8378470  69.5479250 113.1859680
   8.7220080  69.3861370 108.6826060   8.9170710  70.2844820 108.9493490
   7.9349950  69.1548450 109.1759010   2.0401630  87.0836510 123.4458370
   2.9668940  86.8480780 123.4894330   2.0252060  87.9108510 122.9644400
  10.2746690  86.6262080 110.4432620  10.4498880  85.9399820 109.7993540
   9.5768260  87.1509130 110.0509290   5.8280700  69.1634840 123.7880720
   5.7146150  69.4829450 124.6832240   6.6450440  69.5647350 123.4918000
   8.6079190  86.3106370 123.2699410   9.4004510  85.8155600 123.0625370
   8.9012340  86.9896510 123.8775020   4.7338850  77.1827310  94.1515460
   4.6532900  76.2681920  93.8807170   4.3203270  77.6794380  93.4455170
   2.8656890  78.9606330  96.0324730   2.0898990  78.4806770  96.3223300
   3.5169820  78.2811980  95.8580890   6.8864320  83.3666520  94.8123860
   6.4245850  82.5953760  95.1411030   7.6989870  83.3932590  95.3176310
   3.1127630  85.6524530  94.4327850   2.4939070  86.1082030  93.8622290
   3.9679410  85.8075990  94.0317550   2.3065880  81.6363520  96.0394890
   2.2374160  80.6953460  95.8784020   3.0685740  81.7264930  96.6117460
   3.3371050  74.4433900  96.2663820   3.7135870  73.5705780  96.1537490
   3.2390560  74.7792600  95.3754260   7.1195170  71.9384340  93.1992160
   7.9404790  71.4480910  93.2417640   7.1529250  72.5282000  93.9524000
  11.4094720  73.9551090  99.7635790  10.7046890  74.3432800  99.2450900
  11.6752640  74.6501380 100.3656720   3.9790980  80.5363770  91.8259760
   3.3608250  81.0013220  91.2622480   4.4914230  81.2291250  92.2429270
   7.3556650  73.8784720  95.9719700   6.6512220  74.1669610  96.5522810
   7.7168810  74.6884830  95.6119260   8.9719430  83.4959850  98.2347180
   8.2882950  84.1658960  98.2263850   9.5113720  83.6940500  97.4692040
  10.4243570  73.3239510  96.3628910   9.4768480  73.3578490  96.4944340
  10.7493560  74.1378460  96.7478270   6.5078170  85.3403980  96.9492360
   6.5205330  84.9366270  96.0814620   5.9553390  86.1151270  96.8453790
   7.8023590  82.0620200  92.0382530   7.6919920  81.1194530  92.1631950
   7.7991840  82.4235840  92.9245290   5.9063610  80.2433820  98.2774970
   6.3232400  80.0293930  97.4428430   6.6303430  80.5006610  98.8483590
   3.3443870  77.6885520  91.3945020   2.4173150  77.6222900  91.6233490
   3.4968690  78.6265650  91.2800260   3.3312950  73.9602520  88.3912180
   2.3916620  74.1216480  88.4764640   3.6496210  74.6788200  87.8448170
   9.8525710  78.6421040  98.3691210   9.0244340  78.7114130  97.8941340
  10.4476190  79.2275350  97.9007040   7.3741160  79.2505820  91.8980270
   6.7553580  78.9125370  91.2506570   7.3565610  78.6065580  92.6059460
   6.8167720  75.4290360  99.3146080   6.4038900  76.2544070  99.5686070
   6.0843670  74.8435400  99.1222440   7.5067820  85.4749690 100.0027060
   7.0298380  86.2821880  99.8099670   6.8229610  84.8228020 100.1553270
   5.5505860  78.4892630  88.9053020   5.9899140  77.6515060  88.7590840
   6.2634280  79.1222030  88.9917160   3.6601240  83.4288700  92.8734260
   4.0997150  84.1713030  92.4589650   3.5988130  83.6715270  93.7973220
   9.1323000  69.7435440  87.2194060   8.8195660  69.8362270  88.1193130
   9.8935470  70.3216470  87.1691490  11.0867030  85.2361630 105.0718450
  11.5626750  85.7144520 105.7507530  11.7074190  85.1679120 104.3463950
  10.4900280  82.4274480 102.2318460  10.6163340  82.1886360 101.3135640
  10.5321660  81.5959020 102.7040540   4.3517020  86.1302480 100.8013270
   4.8661690  86.0410490 101.6035700   3.5086100  86.4762180 101.0941180
   6.3271420  86.4157820  90.2297270   6.1672560  86.1260760  91.1279100
   6.1618130  85.6397950  89.6942500   6.0297550  83.9245380  88.7895270
   5.3362710  83.9222670  88.1297550   6.7720410  83.5004700  88.3589440
   5.5947480  85.5508090  92.8643760   6.0504430  84.7697470  93.1782380
   5.9340000  86.2614910  93.4084940  10.3424290  74.4806940 103.1968200
   9.7268560  74.9886610 102.6683660  10.0220710  73.5805270 103.1394140
   2.4038610  73.3198830 100.6630390   1.9417980  73.5281850 101.4750330
   2.0016720  72.5058180 100.3601060   7.4043120  74.5407780 101.7927050
   6.5536710  74.2413530 102.1136120   7.2444910  74.7849790 100.8810870
   4.4992830  76.0409530 103.8925840   4.8246240  75.2073280 103.5528070
   5.2873160  76.5638050 104.0404170   5.1380780  75.5827250  91.3866970
   4.5389670  76.3063050  91.2030590   5.6860390  75.5204030  90.6043420
   3.7445650  74.2190790  93.4170250   4.1375220  74.5362990  92.6038940
   4.1062500  73.3402670  93.5314770   2.0537820  72.9698100 104.6767110
   1.3636140  72.7770300 105.3113200   2.7970120  73.2532740 105.2091410
   4.3300790  76.8096540  97.5121030   3.5981910  77.3183350  97.8611130
   3.9325130  75.9926520  97.2109810   4.7926700  72.2630220  96.9243970
   4.8099440  72.7138870  97.7685820   4.5442280  71.3635860  97.1377410
   8.2197450  69.6762400 102.7630350   8.5443220  68.9452060 103.2888330
   8.2553960  69.3576040 101.8611340   8.1455290  79.7887510  96.3716380
   8.8654410  80.2842800  95.9812490   7.9437110  79.1105400  95.7270250
   3.6065230  71.1825470  90.5145770   2.7929840  70.6838640  90.4391080
   3.4127180  72.0223720  90.0982120   3.5274090  79.8596570 102.2585380
   3.4611400  78.9392240 102.0042970   2.8979230  79.9572010 102.9730020
   6.3213620  75.5545120  88.8107930   7.2093240  75.8662350  88.6359270
   6.2918710  74.6817370  88.4188510   2.3174210  81.7268810  89.4896100
   2.6589910  82.4711040  88.9939420   1.4886920  82.0399930  89.8520930
   3.4590820  82.6817140 102.0089180   3.4735360  81.7498100 101.7908090
   2.7515920  82.7676900 102.6478950   8.5927890  76.8656960  88.2787790
   8.5091610  77.2971180  87.4284230   9.3122080  77.3255310  88.7114610
   9.6702030  79.3224480 101.3557760   8.9450220  79.9153260 101.1587150
  10.1977490  79.3148020 100.5571130   9.6215140  83.7199220  91.0069920
   8.9791300  83.0654840  91.2813640   9.2345800  84.1254310  90.2310590
   5.2001620  81.0484650  94.8541610   5.5525440  80.4512780  94.1942980
   4.3163950  80.7228880  95.0249860   2.8924720  84.3234710  99.1029680
   3.5366940  84.5294090  99.7803100   3.2554160  83.5623110  98.6500530
   4.1656800  82.3267060  97.8207130   4.8079030  81.6260220  97.9339300
   4.6906150  83.1065500  97.6404020   8.0112520  82.6115680  87.5446270
   7.7850100  81.8946120  88.1370910   7.6208720  82.3628120  86.7068020
   5.9394420  83.1261960 101.0243190   6.2750660  83.7128650 101.7021110
   5.0194760  82.9954670 101.2540980   7.5928770  80.5287620  89.2060430
   7.3050470  80.9900310  89.9938310   8.3880940  80.0685390  89.4744650
   1.7683000  83.1753290 104.1931250   1.4479870  82.4562530 104.7376940
   1.0941360  83.8508360 104.2667310   4.9836600  73.4079450  99.5568050
   5.3517420  72.5874660  99.8847620   4.1234800  73.4681340  99.9723700
   8.3498630  72.3636390  90.3655610   7.7211790  72.4682060  89.6513840
   7.8550550  72.5833170  91.1549490   2.7956770  84.0841980  87.7989590
   2.8968750  83.8805970  86.8691570   1.8958510  83.8300260  88.0037370
   1.9438590  76.0619040  99.7806020   2.4423840  76.5364860 100.4457870
   2.0861540  75.1382560  99.9876050   4.3498090  71.3673000  93.2209280
   4.2265870  71.3859130  92.2718790   5.2982650  71.4151940  93.3407680
   9.1505450  72.2787000 100.6234410   8.6479050  73.0192400 100.9628220
   9.9662110  72.6671000 100.3071200   7.4427460  77.5220180  94.0695770
   6.5017600  77.5370410  94.2443460   7.7571530  76.7356140  94.5156070
   9.4453040  84.6929030  95.7450030   9.5700460  85.5160200  96.2173840
  10.3118600  84.4819760  95.3974180   4.7593480  82.0786180 104.5528150
   4.1531640  82.1017780 103.8123900   4.4547590  81.3469220 105.0895400
   6.1893850  85.8066470 103.1637560   7.1415600  85.7224490 103.1137800
   6.0422070  86.4708180 103.8371350   9.0803050  85.1860680  88.6629470
   8.7944560  84.7725820  87.8483650   8.8822600  86.1148390  88.5429990
   3.7853010  80.2413990  87.7077070   3.2363110  80.6883290  88.3519810
   4.4072270  79.7363240  88.2314740   7.8387950  81.5956090 103.6399330
   8.5797420  81.9331850 103.1366790   7.0760630  81.7648150 103.0869100
   1.9655770  78.2242520  86.8519470   2.4861430  77.5091540  86.4860620
   2.6124170  78.8628390  87.1519980   6.5133610  79.6470920 102.1754540
   6.9274630  79.8016000 103.0244960   5.5784610  79.7726140 102.3380320
   6.9855780  76.9867080 104.1793690   7.5676550  76.2319400 104.0914170
   7.1617550  77.5174520 103.4025170   3.6112740  77.3307580 101.5288310
   3.7308950  76.7348720 102.2683150   4.4706740  77.3677270 101.1089610
   5.9500640  77.8844770 100.1050820   5.4235860  78.4087390  99.5015960
   6.2931980  78.5172160 100.7360550   5.1974940  73.4894740 103.0197150
   4.5090460  72.8276280 102.9547140   5.9180960  73.0433010 103.4645610
   5.8275340  70.0846370  89.0787410   6.1077630  69.2414270  89.4346830
   5.0541070  70.3169480  89.5926160   1.9818470  87.1395620 101.5194850
   1.9077170  88.0430760 101.8267220   1.0797310  86.8207520 101.4916920
   2.5303800  86.3054130  89.1421210   3.4254590  86.6439100  89.1639970
   2.5621430  85.5833540  88.5145490   9.5098150  84.8357800 101.8487410
   8.9100140  84.8950360 101.1051330   9.6392050  83.8962780 101.9784260
  10.7499600  82.5775620  87.1857120   9.9192560  82.6452270  87.6564350
  10.9271430  83.4679740  86.8823980  10.2056060  79.3223100  89.6891320
  10.9674970  79.8919750  89.7951010  10.2210430  78.7550300  90.4599630
  11.2116030  80.1773200  94.5333250  11.5824860  79.3940520  94.1269220
  11.8517960  80.8662300  94.3550550   8.1949790  81.5609780  99.9463570
   7.3809630  81.9906940 100.2089360   8.6023990  82.1728190  99.3332620
  10.2575230  79.6157470  86.8463840  10.5324070  80.5236350  86.7183060
  10.0685970  79.5520000  87.7825830   6.6550840  72.6402320  88.1417470
   7.0735720  72.4533300  87.3014130   6.3486900  71.7881370  88.4520400
  10.1540570  77.5526460  91.8393270   9.7784170  76.7854390  91.4074560
   9.4243690  77.9349160  92.3268200   9.5440190  76.6997980 101.4732790
   9.3126280  76.4710730 100.5730740   9.8044740  77.6197530 101.4277680
   7.9828260  71.9254410 104.2512490   8.8598440  71.9337810 104.6346490
   7.9949100  71.1885250 103.6404840   9.4291530  75.7783950  95.1400510
   9.9529010  75.2846600  94.5090680  10.0150950  75.9134310  95.8848080
   9.6081250  75.8623820  98.6620060   8.6583960  75.8287360  98.7765050
   9.7894260  76.7723930  98.4269830   8.9191500  75.0357300  91.0792920
   9.4150620  74.8028170  91.8641800   8.7207570  74.1969140  90.6630560
  10.3478660  73.6718250  93.6130600  10.2377940  73.5174290  94.5512870
  11.1086250  73.1439190  93.3706010   8.6944380  69.6112380 100.0713600
   9.3316600  70.2246520 100.4372790   8.8419270  69.6473040  99.1262830
  11.2368930  71.5026170  86.8536740  12.1618240  71.3707350  86.6455030
  11.2144720  71.5818990  87.8073190  11.3107420  72.2736830  89.4793450
  10.5158920  72.2081950  90.0086360  11.5150700  73.2087470  89.4678800
   8.2525840  86.3128380  93.4731840   8.8484910  85.9912950  92.7966260
   8.5103990  85.8400200  94.2645110   2.0648860  70.7638570 102.9788700
   2.0037750  71.3560400 103.7284110   3.0049240  70.6564530 102.8338960
   4.7023420  70.4208630 102.6180990   5.3163830  70.7387920 101.9562070
   5.2472980  69.9357220 103.2376850  11.1198600  86.3200260 100.0242830
  10.6256880  86.7169130  99.3069960  10.5111890  85.6949470 100.4180110
   5.4431460  68.9840770  98.9450280   4.5691300  69.3175880  98.7423210
   5.3342210  68.5113950  99.7702150   6.3503440  71.1911640 100.3292000
   6.0216800  70.3763400  99.9493730   7.2985740  71.1481450 100.2057690
   8.8038050  86.9623680  97.3029570   8.3441020  87.7139490  96.9287590
   8.1750510  86.2430150  97.2444370   1.9729270  86.1620410  97.3046680
   2.2607080  85.9074710  96.4279690   2.4852490  85.6097770  97.8952250
   3.1906280  69.9010610  97.8843190   2.4078070  70.3756110  98.1639950
   2.8969210  68.9965440  97.7756370   7.7427350  70.6033710  95.9292280
   8.1835440  70.5478810  95.0813880   7.4734940  71.5191720  96.0002460
   9.6065920  70.2348950  93.9401100   9.5454320  69.2910170  93.7932120
  10.3857950  70.3429040  94.4854560   5.5785480  68.9839810  94.6342290
   6.1814850  69.5560020  95.1090810   4.8378470  69.5479250  94.4116190
   8.7220080  69.3861370  89.9082570   8.9170710  70.2844820  90.1750000
   7.9349950  69.1548450  90.4015520   2.0401630  87.0836510 104.6714880
   2.9668940  86.8480780 104.7150840   2.0252060  87.9108510 104.1900910
  10.2746690  86.6262080  91.6689130  10.4498880  85.9399820  91.0250050
   9.5768260  87.1509130  91.2765800   5.8280700  69.1634840 105.0137230
   5.7146150  69.4829450 105.9088750   6.6450440  69.5647350 104.7174510
   8.6079190  86.3106370 104.4955920   9.4004510  85.8155600 104.2881880
   8.9012340  86.9896510 105.1031530   4.7338850  77.1827310  75.3771970
   4.6532900  76.2681920  75.1063680   4.3203270  77.6794380  74.6711680
   2.8656890  78.9606330  77.2581240   2.0898990  78.4806770  77.5479810
   3.5169820  78.2811980  77.0837400   6.8864320  83.3666520  76.0380370
   6.4245850  82.5953760  76.3667540   7.6989870  83.3932590  76.5432820
   3.1127630  85.6524530  75.6584360   2.4939070  86.1082030  75.0878800
   3.9679410  85.8075990  75.2574060   2.3065880  81.6363520  77.2651400
   2.2374160  80.6953460  77.1040530   3.0685740  81.7264930  77.8373970
   3.3371050  74.4433900  77.4920330   3.7135870  73.5705780  77.3794000
   3.2390560  74.7792600  76.6010770   7.1195170  71.9384340  74.4248670
   7.9404790  71.4480910  74.4674150   7.1529250  72.5282000  75.1780510
  11.4094720  73.9551090  80.9892300  10.7046890  74.3432800  80.4707410
  11.6752640  74.6501380  81.5913230   3.9790980  80.5363770  73.0516270
   3.3608250  81.0013220  72.4878990   4.4914230  81.2291250  73.4685780
   7.3556650  73.8784720  77.1976210   6.6512220  74.1669610  77.7779320
   7.7168810  74.6884830  76.8375770   8.9719430  83.4959850  79.4603690
   8.2882950  84.1658960  79.4520360   9.5113720  83.6940500  78.6948550
  10.4243570  73.3239510  77.5885420   9.4768480  73.3578490  77.7200850
  10.7493560  74.1378460  77.9734780   6.5078170  85.3403980  78.1748870
   6.5205330  84.9366270  77.3071130   5.9553390  86.1151270  78.0710300
   7.8023590  82.0620200  73.2639040   7.6919920  81.1194530  73.3888460
   7.7991840  82.4235840  74.1501800   5.9063610  80.2433820  79.5031480
   6.3232400  80.0293930  78.6684940   6.6303430  80.5006610  80.0740100
   3.3443870  77.6885520  72.6201530   2.4173150  77.6222900  72.8490000
   3.4968690  78.6265650  72.5056770   3.3312950  73.9602520  69.6168690
   2.3916620  74.1216480  69.7021150   3.6496210  74.6788200  69.0704680
   9.8525710  78.6421040  79.5947720   9.0244340  78.7114130  79.1197850
  10.4476190  79.2275350  79.1263550   7.3741160  79.2505820  73.1236780
   6.7553580  78.9125370  72.4763080   7.3565610  78.6065580  73.8315970
   6.8167720  75.4290360  80.5402590   6.4038900  76.2544070  80.7942580
   6.0843670  74.8435400  80.3478950   7.5067820  85.4749690  81.2283570
   7.0298380  86.2821880  81.0356180   6.8229610  84.8228020  81.3809780
   5.5505860  78.4892630  70.1309530   5.9899140  77.6515060  69.9847350
   6.2634280  79.1222030  70.2173670   3.6601240  83.4288700  74.0990770
   4.0997150  84.1713030  73.6846160   3.5988130  83.6715270  75.0229730
   9.1323000  69.7435440  68.4450570   8.8195660  69.8362270  69.3449640
   9.8935470  70.3216470  68.3948000  11.0867030  85.2361630  86.2974960
  11.5626750  85.7144520  86.9764040  11.7074190  85.1679120  85.5720460
  10.4900280  82.4274480  83.4574970  10.6163340  82.1886360  82.5392150
  10.5321660  81.5959020  83.9297050   4.3517020  86.1302480  82.0269780
   4.8661690  86.0410490  82.8292210   3.5086100  86.4762180  82.3197690
   6.3271420  86.4157820  71.4553780   6.1672560  86.1260760  72.3535610
   6.1618130  85.6397950  70.9199010   6.0297550  83.9245380  70.0151780
   5.3362710  83.9222670  69.3554060   6.7720410  83.5004700  69.5845950
   5.5947480  85.5508090  74.0900270   6.0504430  84.7697470  74.4038890
   5.9340000  86.2614910  74.6341450  10.3424290  74.4806940  84.4224710
   9.7268560  74.9886610  83.8940170  10.0220710  73.5805270  84.3650650
   2.4038610  73.3198830  81.8886900   1.9417980  73.5281850  82.7006840
   2.0016720  72.5058180  81.5857570   7.4043120  74.5407780  83.0183560
   6.5536710  74.2413530  83.3392630   7.2444910  74.7849790  82.1067380
   4.4992830  76.0409530  85.1182350   4.8246240  75.2073280  84.7784580
   5.2873160  76.5638050  85.2660680   5.1380780  75.5827250  72.6123480
   4.5389670  76.3063050  72.4287100   5.6860390  75.5204030  71.8299930
   3.7445650  74.2190790  74.6426760   4.1375220  74.5362990  73.8295450
   4.1062500  73.3402670  74.7571280   2.0537820  72.9698100  85.9023620
   1.3636140  72.7770300  86.5369710   2.7970120  73.2532740  86.4347920
   4.3300790  76.8096540  78.7377540   3.5981910  77.3183350  79.0867640
   3.9325130  75.9926520  78.4366320   4.7926700  72.2630220  78.1500480
   4.8099440  72.7138870  78.9942330   4.5442280  71.3635860  78.3633920
   8.2197450  69.6762400  83.9886860   8.5443220  68.9452060  84.5144840
   8.2553960  69.3576040  83.0867850   8.1455290  79.7887510  77.5972890
   8.8654410  80.2842800  77.2069000   7.9437110  79.1105400  76.9526760
   3.6065230  71.1825470  71.7402280   2.7929840  70.6838640  71.6647590
   3.4127180  72.0223720  71.3238630   3.5274090  79.8596570  83.4841890
   3.4611400  78.9392240  83.2299480   2.8979230  79.9572010  84.1986530
   6.3213620  75.5545120  70.0364440   7.2093240  75.8662350  69.8615780
   6.2918710  74.6817370  69.6445020   2.3174210  81.7268810  70.7152610
   2.6589910  82.4711040  70.2195930   1.4886920  82.0399930  71.0777440
   3.4590820  82.6817140  83.2345690   3.4735360  81.7498100  83.0164600
   2.7515920  82.7676900  83.8735460   8.5927890  76.8656960  69.5044300
   8.5091610  77.2971180  68.6540740   9.3122080  77.3255310  69.9371120
   9.6702030  79.3224480  82.5814270   8.9450220  79.9153260  82.3843660
  10.1977490  79.3148020  81.7827640   9.6215140  83.7199220  72.2326430
   8.9791300  83.0654840  72.5070150   9.2345800  84.1254310  71.4567100
   5.2001620  81.0484650  76.0798120   5.5525440  80.4512780  75.4199490
   4.3163950  80.7228880  76.2506370   2.8924720  84.3234710  80.3286190
   3.5366940  84.5294090  81.0059610   3.2554160  83.5623110  79.8757040
   4.1656800  82.3267060  79.0463640   4.8079030  81.6260220  79.1595810
   4.6906150  83.1065500  78.8660530   8.0112520  82.6115680  68.7702780
   7.7850100  81.8946120  69.3627420   7.6208720  82.3628120  67.9324530
   5.9394420  83.1261960  82.2499700   6.2750660  83.7128650  82.9277620
   5.0194760  82.9954670  82.4797490   7.5928770  80.5287620  70.4316940
   7.3050470  80.9900310  71.2194820   8.3880940  80.0685390  70.7001160
   1.7683000  83.1753290  85.4187760   1.4479870  82.4562530  85.9633450
   1.0941360  83.8508360  85.4923820   4.9836600  73.4079450  80.7824560
   5.3517420  72.5874660  81.1104130   4.1234800  73.4681340  81.1980210
   8.3498630  72.3636390  71.5912120   7.7211790  72.4682060  70.8770350
   7.8550550  72.5833170  72.3806000   2.7956770  84.0841980  69.0246100
   2.8968750  83.8805970  68.0948080   1.8958510  83.8300260  69.2293880
   1.9438590  76.0619040  81.0062530   2.4423840  76.5364860  81.6714380
   2.0861540  75.1382560  81.2132560   4.3498090  71.3673000  74.4465790
   4.2265870  71.3859130  73.4975300   5.2982650  71.4151940  74.5664190
   9.1505450  72.2787000  81.8490920   8.6479050  73.0192400  82.1884730
   9.9662110  72.6671000  81.5327710   7.4427460  77.5220180  75.2952280
   6.5017600  77.5370410  75.4699970   7.7571530  76.7356140  75.7412580
   9.4453040  84.6929030  76.9706540   9.5700460  85.5160200  77.4430350
  10.3118600  84.4819760  76.6230690   4.7593480  82.0786180  85.7784660
   4.1531640  82.1017780  85.0380410   4.4547590  81.3469220  86.3151910
   6.1893850  85.8066470  84.3894070   7.1415600  85.7224490  84.3394310
   6.0422070  86.4708180  85.0627860   9.0803050  85.1860680  69.8885980
   8.7944560  84.7725820  69.0740160   8.8822600  86.1148390  69.7686500
   3.7853010  80.2413990  68.9333580   3.2363110  80.6883290  69.5776320
   4.4072270  79.7363240  69.4571250   7.8387950  81.5956090  84.8655840
   8.5797420  81.9331850  84.3623300   7.0760630  81.7648150  84.3125610
   1.9655770  78.2242520  68.0775980   2.4861430  77.5091540  67.7117130
   2.6124170  78.8628390  68.3776490   6.5133610  79.6470920  83.4011050
   6.9274630  79.8016000  84.2501470   5.5784610  79.7726140  83.5636830
   6.9855780  76.9867080  85.4050200   7.5676550  76.2319400  85.3170680
   7.1617550  77.5174520  84.6281680   3.6112740  77.3307580  82.7544820
   3.7308950  76.7348720  83.4939660   4.4706740  77.3677270  82.3346120
   5.9500640  77.8844770  81.3307330   5.4235860  78.4087390  80.7272470
   6.2931980  78.5172160  81.9617060   5.1974940  73.4894740  84.2453660
   4.5090460  72.8276280  84.1803650   5.9180960  73.0433010  84.6902120
   5.8275340  70.0846370  70.3043920   6.1077630  69.2414270  70.6603340
   5.0541070  70.3169480  70.8182670   1.9818470  87.1395620  82.7451360
   1.9077170  88.0430760  83.0523730   1.0797310  86.8207520  82.7173430
   2.5303800  86.3054130  70.3677720   3.4254590  86.6439100  70.3896480
   2.5621430  85.5833540  69.7402000   9.5098150  84.8357800  83.0743920
   8.9100140  84.8950360  82.3307840   9.6392050  83.8962780  83.2040770
  10.7499600  82.5775620  68.4113630   9.9192560  82.6452270  68.8820860
  10.9271430  83.4679740  68.1080490  10.2056060  79.3223100  70.9147830
  10.9674970  79.8919750  71.0207520  10.2210430  78.7550300  71.6856140
  11.2116030  80.1773200  75.7589760  11.5824860  79.3940520  75.3525730
  11.8517960  80.8662300  75.5807060   8.1949790  81.5609780  81.1720080
   7.3809630  81.9906940  81.4345870   8.6023990  82.1728190  80.5589130
  10.2575230  79.6157470  68.0720350  10.5324070  80.5236350  67.9439570
  10.0685970  79.5520000  69.0082340   6.6550840  72.6402320  69.3673980
   7.0735720  72.4533300  68.5270640   6.3486900  71.7881370  69.6776910
  10.1540570  77.5526460  73.0649780   9.7784170  76.7854390  72.6331070
   9.4243690  77.9349160  73.5524710   9.5440190  76.6997980  82.6989300
   9.3126280  76.4710730  81.7987250   9.8044740  77.6197530  82.6534190
   7.9828260  71.9254410  85.4769000   8.8598440  71.9337810  85.8603000
   7.9949100  71.1885250  84.8661350   9.4291530  75.7783950  76.3657020
   9.9529010  75.2846600  75.7347190  10.0150950  75.9134310  77.1104590
   9.6081250  75.8623820  79.8876570   8.6583960  75.8287360  80.0021560
   9.7894260  76.7723930  79.6526340   8.9191500  75.0357300  72.3049430
   9.4150620  74.8028170  73.0898310   8.7207570  74.1969140  71.8887070
  10.3478660  73.6718250  74.8387110  10.2377940  73.5174290  75.7769380
  11.1086250  73.1439190  74.5962520   8.6944380  69.6112380  81.2970110
   9.3316600  70.2246520  81.6629300   8.8419270  69.6473040  80.3519340
   8.2525840  86.3128380  74.6988350   8.8484910  85.9912950  74.0222770
   8.5103990  85.8400200  75.4901620   2.0648860  70.7638570  84.2045210
   2.0037750  71.3560400  84.9540620   3.0049240  70.6564530  84.0595470
   4.7023420  70.4208630  83.8437500   5.3163830  70.7387920  83.1818580
   5.2472980  69.9357220  84.4633360  11.1198600  86.3200260  81.2499340
  10.6256880  86.7169130  80.5326470  10.5111890  85.6949470  81.6436620
   5.4431460  68.9840770  80.1706790   4.5691300  69.3175880  79.9679720
   5.3342210  68.5113950  80.9958660   6.3503440  71.1911640  81.5548510
   6.0216800  70.3763400  81.1750240   7.2985740  71.1481450  81.4314200
   8.8038050  86.9623680  78.5286080   8.3441020  87.7139490  78.1544100
   8.1750510  86.2430150  78.4700880   1.9729270  86.1620410  78.5303190
   2.2607080  85.9074710  77.6536200   2.4852490  85.6097770  79.1208760
   3.1906280  69.9010610  79.1099700   2.4078070  70.3756110  79.3896460
   2.8969210  68.9965440  79.0012880   7.7427350  70.6033710  77.1548790
   8.1835440  70.5478810  76.3070390   7.4734940  71.5191720  77.2258970
   9.6065920  70.2348950  75.1657610   9.5454320  69.2910170  75.0188630
  10.3857950  70.3429040  75.7111070   5.5785480  68.9839810  75.8598800
   6.1814850  69.5560020  76.3347320   4.8378470  69.5479250  75.6372700
   8.7220080  69.3861370  71.1339080   8.9170710  70.2844820  71.4006510
   7.9349950  69.1548450  71.6272030   2.0401630  87.0836510  85.8971390
   2.9668940  86.8480780  85.9407350   2.0252060  87.9108510  85.4157420
  10.2746690  86.6262080  72.8945640  10.4498880  85.9399820  72.2506560
   9.5768260  87.1509130  72.5022310   5.8280700  69.1634840  86.2393740
   5.7146150  69.4829450  87.1345260   6.6450440  69.5647350  85.9431020
   8.6079190  86.3106370  85.7212430   9.4004510  85.8155600  85.5138390
   8.9012340  86.9896510  86.3288040   4.7338850  77.1827310  56.6028480
   4.6532900  76.2681920  56.3320190   4.3203270  77.6794380  55.8968190
   2.8656890  78.9606330  58.4837750   2.0898990  78.4806770  58.7736320
   3.5169820  78.2811980  58.3093910   6.8864320  83.3666520  57.2636880
   6.4245850  82.5953760  57.5924050   7.6989870  83.3932590  57.7689330
   3.1127630  85.6524530  56.8840870   2.4939070  86.1082030  56.3135310
   3.9679410  85.8075990  56.4830570   2.3065880  81.6363520  58.4907910
   2.2374160  80.6953460  58.3297040   3.0685740  81.7264930  59.0630480
   3.3371050  74.4433900  58.7176840   3.7135870  73.5705780  58.6050510
   3.2390560  74.7792600  57.8267280   7.1195170  71.9384340  55.6505180
   7.9404790  71.4480910  55.6930660   7.1529250  72.5282000  56.4037020
  11.4094720  73.9551090  62.2148810  10.7046890  74.3432800  61.6963920
  11.6752640  74.6501380  62.8169740   3.9790980  80.5363770  54.2772780
   3.3608250  81.0013220  53.7135500   4.4914230  81.2291250  54.6942290
   7.3556650  73.8784720  58.4232720   6.6512220  74.1669610  59.0035830
   7.7168810  74.6884830  58.0632280   8.9719430  83.4959850  60.6860200
   8.2882950  84.1658960  60.6776870   9.5113720  83.6940500  59.9205060
  10.4243570  73.3239510  58.8141930   9.4768480  73.3578490  58.9457360
  10.7493560  74.1378460  59.1991290   6.5078170  85.3403980  59.4005380
   6.5205330  84.9366270  58.5327640   5.9553390  86.1151270  59.2966810
   7.8023590  82.0620200  54.4895550   7.6919920  81.1194530  54.6144970
   7.7991840  82.4235840  55.3758310   5.9063610  80.2433820  60.7287990
   6.3232400  80.0293930  59.8941450   6.6303430  80.5006610  61.2996610
   3.3443870  77.6885520  53.8458040   2.4173150  77.6222900  54.0746510
   3.4968690  78.6265650  53.7313280   3.3312950  73.9602520  50.8425200
   2.3916620  74.1216480  50.9277660   3.6496210  74.6788200  50.2961190
   9.8525710  78.6421040  60.8204230   9.0244340  78.7114130  60.3454360
  10.4476190  79.2275350  60.3520060   7.3741160  79.2505820  54.3493290
   6.7553580  78.9125370  53.7019590   7.3565610  78.6065580  55.0572480
   6.8167720  75.4290360  61.7659100   6.4038900  76.2544070  62.0199090
   6.0843670  74.8435400  61.5735460   7.5067820  85.4749690  62.4540080
   7.0298380  86.2821880  62.2612690   6.8229610  84.8228020  62.6066290
   5.5505860  78.4892630  51.3566040   5.9899140  77.6515060  51.2103860
   6.2634280  79.1222030  51.4430180   3.6601240  83.4288700  55.3247280
   4.0997150  84.1713030  54.9102670   3.5988130  83.6715270  56.2486240
   9.1323000  69.7435440  49.6707080   8.8195660  69.8362270  50.5706150
   9.8935470  70.3216470  49.6204510  11.0867030  85.2361630  67.5231470
  11.5626750  85.7144520  68.2020550  11.7074190  85.1679120  66.7976970
  10.4900280  82.4274480  64.6831480  10.6163340  82.1886360  63.7648660
  10.5321660  81.5959020  65.1553560   4.3517020  86.1302480  63.2526290
   4.8661690  86.0410490  64.0548720   3.5086100  86.4762180  63.5454200
   6.3271420  86.4157820  52.6810290   6.1672560  86.1260760  53.5792120
   6.1618130  85.6397950  52.1455520   6.0297550  83.9245380  51.2408290
   5.3362710  83.9222670  50.5810570   6.7720410  83.5004700  50.8102460
   5.5947480  85.5508090  55.3156780   6.0504430  84.7697470  55.6295400
   5.9340000  86.2614910  55.8597960  10.3424290  74.4806940  65.6481220
   9.7268560  74.9886610  65.1196680  10.0220710  73.5805270  65.5907160
   2.4038610  73.3198830  63.1143410   1.9417980  73.5281850  63.9263350
   2.0016720  72.5058180  62.8114080   7.4043120  74.5407780  64.2440070
   6.5536710  74.2413530  64.5649140   7.2444910  74.7849790  63.3323890
   4.4992830  76.0409530  66.3438860   4.8246240  75.2073280  66.0041090
   5.2873160  76.5638050  66.4917190   5.1380780  75.5827250  53.8379990
   4.5389670  76.3063050  53.6543610   5.6860390  75.5204030  53.0556440
   3.7445650  74.2190790  55.8683270   4.1375220  74.5362990  55.0551960
   4.1062500  73.3402670  55.9827790   2.0537820  72.9698100  67.1280130
   1.3636140  72.7770300  67.7626220   2.7970120  73.2532740  67.6604430
   4.3300790  76.8096540  59.9634050   3.5981910  77.3183350  60.3124150
   3.9325130  75.9926520  59.6622830   4.7926700  72.2630220  59.3756990
   4.8099440  72.7138870  60.2198840   4.5442280  71.3635860  59.5890430
   8.2197450  69.6762400  65.2143370   8.5443220  68.9452060  65.7401350
   8.2553960  69.3576040  64.3124360   8.1455290  79.7887510  58.8229400
   8.8654410  80.2842800  58.4325510   7.9437110  79.1105400  58.1783270
   3.6065230  71.1825470  52.9658790   2.7929840  70.6838640  52.8904100
   3.4127180  72.0223720  52.5495140   3.5274090  79.8596570  64.7098400
   3.4611400  78.9392240  64.4555990   2.8979230  79.9572010  65.4243040
   6.3213620  75.5545120  51.2620950   7.2093240  75.8662350  51.0872290
   6.2918710  74.6817370  50.8701530   2.3174210  81.7268810  51.9409120
   2.6589910  82.4711040  51.4452440   1.4886920  82.0399930  52.3033950
   3.4590820  82.6817140  64.4602200   3.4735360  81.7498100  64.2421110
   2.7515920  82.7676900  65.0991970   8.5927890  76.8656960  50.7300810
   8.5091610  77.2971180  49.8797250   9.3122080  77.3255310  51.1627630
   9.6702030  79.3224480  63.8070780   8.9450220  79.9153260  63.6100170
  10.1977490  79.3148020  63.0084150   9.6215140  83.7199220  53.4582940
   8.9791300  83.0654840  53.7326660   9.2345800  84.1254310  52.6823610
   5.2001620  81.0484650  57.3054630   5.5525440  80.4512780  56.6456000
   4.3163950  80.7228880  57.4762880   2.8924720  84.3234710  61.5542700
   3.5366940  84.5294090  62.2316120   3.2554160  83.5623110  61.1013550
   4.1656800  82.3267060  60.2720150   4.8079030  81.6260220  60.3852320
   4.6906150  83.1065500  60.0917040   8.0112520  82.6115680  49.9959290
   7.7850100  81.8946120  50.5883930   7.6208720  82.3628120  49.1581040
   5.9394420  83.1261960  63.4756210   6.2750660  83.7128650  64.1534130
   5.0194760  82.9954670  63.7054000   7.5928770  80.5287620  51.6573450
   7.3050470  80.9900310  52.4451330   8.3880940  80.0685390  51.9257670
   1.7683000  83.1753290  66.6444270   1.4479870  82.4562530  67.1889960
   1.0941360  83.8508360  66.7180330   4.9836600  73.4079450  62.0081070
   5.3517420  72.5874660  62.3360640   4.1234800  73.4681340  62.4236720
   8.3498630  72.3636390  52.8168630   7.7211790  72.4682060  52.1026860
   7.8550550  72.5833170  53.6062510   2.7956770  84.0841980  50.2502610
   2.8968750  83.8805970  49.3204590   1.8958510  83.8300260  50.4550390
   1.9438590  76.0619040  62.2319040   2.4423840  76.5364860  62.8970890
   2.0861540  75.1382560  62.4389070   4.3498090  71.3673000  55.6722300
   4.2265870  71.3859130  54.7231810   5.2982650  71.4151940  55.7920700
   9.1505450  72.2787000  63.0747430   8.6479050  73.0192400  63.4141240
   9.9662110  72.6671000  62.7584220   7.4427460  77.5220180  56.5208790
   6.5017600  77.5370410  56.6956480   7.7571530  76.7356140  56.9669090
   9.4453040  84.6929030  58.1963050   9.5700460  85.5160200  58.6686860
  10.3118600  84.4819760  57.8487200   4.7593480  82.0786180  67.0041170
   4.1531640  82.1017780  66.2636920   4.4547590  81.3469220  67.5408420
   6.1893850  85.8066470  65.6150580   7.1415600  85.7224490  65.5650820
   6.0422070  86.4708180  66.2884370   9.0803050  85.1860680  51.1142490
   8.7944560  84.7725820  50.2996670   8.8822600  86.1148390  50.9943010
   3.7853010  80.2413990  50.1590090   3.2363110  80.6883290  50.8032830
   4.4072270  79.7363240  50.6827760   7.8387950  81.5956090  66.0912350
   8.5797420  81.9331850  65.5879810   7.0760630  81.7648150  65.5382120
   1.9655770  78.2242520  49.3032490   2.4861430  77.5091540  48.9373640
   2.6124170  78.8628390  49.6033000   6.5133610  79.6470920  64.6267560
   6.9274630  79.8016000  65.4757980   5.5784610  79.7726140  64.7893340
   6.9855780  76.9867080  66.6306710   7.5676550  76.2319400  66.5427190
   7.1617550  77.5174520  65.8538190   3.6112740  77.3307580  63.9801330
   3.7308950  76.7348720  64.7196170   4.4706740  77.3677270  63.5602630
   5.9500640  77.8844770  62.5563840   5.4235860  78.4087390  61.9528980
   6.2931980  78.5172160  63.1873570   5.1974940  73.4894740  65.4710170
   4.5090460  72.8276280  65.4060160   5.9180960  73.0433010  65.9158630
   5.8275340  70.0846370  51.5300430   6.1077630  69.2414270  51.8859850
   5.0541070  70.3169480  52.0439180   1.9818470  87.1395620  63.9707870
   1.9077170  88.0430760  64.2780240   1.0797310  86.8207520  63.9429940
   2.5303800  86.3054130  51.5934230   3.4254590  86.6439100  51.6152990
   2.5621430  85.5833540  50.9658510   9.5098150  84.8357800  64.3000430
   8.9100140  84.8950360  63.5564350   9.6392050  83.8962780  64.4297280
  10.7499600  82.5775620  49.6370140   9.9192560  82.6452270  50.1077370
  10.9271430  83.4679740  49.3337000  10.2056060  79.3223100  52.1404340
  10.9674970  79.8919750  52.2464030  10.2210430  78.7550300  52.9112650
  11.2116030  80.1773200  56.9846270  11.5824860  79.3940520  56.5782240
  11.8517960  80.8662300  56.8063570   8.1949790  81.5609780  62.3976590
   7.3809630  81.9906940  62.6602380   8.6023990  82.1728190  61.7845640
  10.2575230  79.6157470  49.2976860  10.5324070  80.5236350  49.1696080
  10.0685970  79.5520000  50.2338850   6.6550840  72.6402320  50.5930490
   7.0735720  72.4533300  49.7527150   6.3486900  71.7881370  50.9033420
  10.1540570  77.5526460  54.2906290   9.7784170  76.7854390  53.8587580
   9.4243690  77.9349160  54.7781220   9.5440190  76.6997980  63.9245810
   9.3126280  76.4710730  63.0243760   9.8044740  77.6197530  63.8790700
   7.9828260  71.9254410  66.7025510   8.8598440  71.9337810  67.0859510
   7.9949100  71.1885250  66.0917860   9.4291530  75.7783950  57.5913530
   9.9529010  75.2846600  56.9603700  10.0150950  75.9134310  58.3361100
   9.6081250  75.8623820  61.1133080   8.6583960  75.8287360  61.2278070
   9.7894260  76.7723930  60.8782850   8.9191500  75.0357300  53.5305940
   9.4150620  74.8028170  54.3154820   8.7207570  74.1969140  53.1143580
  10.3478660  73.6718250  56.0643620  10.2377940  73.5174290  57.0025890
  11.1086250  73.1439190  55.8219030   8.6944380  69.6112380  62.5226620
   9.3316600  70.2246520  62.8885810   8.8419270  69.6473040  61.5775850
  11.2368930  71.5026170  49.3049760  12.1618240  71.3707350  49.0968050
  11.2144720  71.5818990  50.2586210  11.3107420  72.2736830  51.9306470
  10.5158920  72.2081950  52.4599380  11.5150700  73.2087470  51.9191820
   8.2525840  86.3128380  55.9244860   8.8484910  85.9912950  55.2479280
   8.5103990  85.8400200  56.7158130   2.0648860  70.7638570  65.4301720
   2.0037750  71.3560400  66.1797130   3.0049240  70.6564530  65.2851980
   4.7023420  70.4208630  65.0694010   5.3163830  70.7387920  64.4075090
   5.2472980  69.9357220  65.6889870  11.1198600  86.3200260  62.4755850
  10.6256880  86.7169130  61.7582980  10.5111890  85.6949470  62.8693130
   5.4431460  68.9840770  61.3963300   4.5691300  69.3175880  61.1936230
   5.3342210  68.5113950  62.2215170   6.3503440  71.1911640  62.7805020
   6.0216800  70.3763400  62.4006750   7.2985740  71.1481450  62.6570710
   8.8038050  86.9623680  59.7542590   8.3441020  87.7139490  59.3800610
   8.1750510  86.2430150  59.6957390   1.9729270  86.1620410  59.7559700
   2.2607080  85.9074710  58.8792710   2.4852490  85.6097770  60.3465270
   3.1906280  69.9010610  60.3356210   2.4078070  70.3756110  60.6152970
   2.8969210  68.9965440  60.2269390   7.7427350  70.6033710  58.3805300
   8.1835440  70.5478810  57.5326900   7.4734940  71.5191720  58.4515480
   9.6065920  70.2348950  56.3914120   9.5454320  69.2910170  56.2445140
  10.3857950  70.3429040  56.9367580   5.5785480  68.9839810  57.0855310
   6.1814850  69.5560020  57.5603830   4.8378470  69.5479250  56.8629210
   8.7220080  69.3861370  52.3595590   8.9170710  70.2844820  52.6263020
   7.9349950  69.1548450  52.8528540   2.0401630  87.0836510  67.1227900
   2.9668940  86.8480780  67.1663860   2.0252060  87.9108510  66.6413930
  10.2746690  86.6262080  54.1202150  10.4498880  85.9399820  53.4763070
   9.5768260  87.1509130  53.7278820   5.8280700  69.1634840  67.4650250
   5.7146150  69.4829450  68.3601770   6.6450440  69.5647350  67.1687530
   8.6079190  86.3106370  66.9468940   9.4004510  85.8155600  66.7394900
   8.9012340  86.9896510  67.5544550   4.7338850  77.1827310  37.8284990
   4.6532900  76.2681920  37.5576700   4.3203270  77.6794380  37.1224700
   2.8656890  78.9606330  39.7094260   2.0898990  78.4806770  39.9992830
   3.5169820  78.2811980  39.5350420   6.8864320  83.3666520  38.4893390
   6.4245850  82.5953760  38.8180560   7.6989870  83.3932590  38.9945840
   3.1127630  85.6524530  38.1097380   2.4939070  86.1082030  37.5391820
   3.9679410  85.8075990  37.7087080   2.3065880  81.6363520  39.7164420
   2.2374160  80.6953460  39.5553550   3.0685740  81.7264930  40.2886990
   3.3371050  74.4433900  39.9433350   3.7135870  73.5705780  39.8307020
   3.2390560  74.7792600  39.0523790   7.1195170  71.9384340  36.8761690
   7.9404790  71.4480910  36.9187170   7.1529250  72.5282000  37.6293530
  11.4094720  73.9551090  43.4405320  10.7046890  74.3432800  42.9220430
  11.6752640  74.6501380  44.0426250   3.9790980  80.5363770  35.5029290
   3.3608250  81.0013220  34.9392010   4.4914230  81.2291250  35.9198800
   7.3556650  73.8784720  39.6489230   6.6512220  74.1669610  40.2292340
   7.7168810  74.6884830  39.2888790   8.9719430  83.4959850  41.9116710
   8.2882950  84.1658960  41.9033380   9.5113720  83.6940500  41.1461570
  10.4243570  73.3239510  40.0398440   9.4768480  73.3578490  40.1713870
  10.7493560  74.1378460  40.4247800   6.5078170  85.3403980  40.6261890
   6.5205330  84.9366270  39.7584150   5.9553390  86.1151270  40.5223320
   7.8023590  82.0620200  35.7152060   7.6919920  81.1194530  35.8401480
   7.7991840  82.4235840  36.6014820   5.9063610  80.2433820  41.9544500
   6.3232400  80.0293930  41.1197960   6.6303430  80.5006610  42.5253120
   3.3443870  77.6885520  35.0714550   2.4173150  77.6222900  35.3003020
   3.4968690  78.6265650  34.9569790   3.3312950  73.9602520  32.0681710
   2.3916620  74.1216480  32.1534170   3.6496210  74.6788200  31.5217700
   9.8525710  78.6421040  42.0460740   9.0244340  78.7114130  41.5710870
  10.4476190  79.2275350  41.5776570   7.3741160  79.2505820  35.5749800
   6.7553580  78.9125370  34.9276100   7.3565610  78.6065580  36.2828990
   6.8167720  75.4290360  42.9915610   6.4038900  76.2544070  43.2455600
   6.0843670  74.8435400  42.7991970   7.5067820  85.4749690  43.6796590
   7.0298380  86.2821880  43.4869200   6.8229610  84.8228020  43.8322800
   5.5505860  78.4892630  32.5822550   5.9899140  77.6515060  32.4360370
   6.2634280  79.1222030  32.6686690   3.6601240  83.4288700  36.5503790
   4.0997150  84.1713030  36.1359180   3.5988130  83.6715270  37.4742750
   9.1323000  69.7435440  30.8963590   8.8195660  69.8362270  31.7962660
   9.8935470  70.3216470  30.8461020  11.0867030  85.2361630  48.7487980
  11.5626750  85.7144520  49.4277060  11.7074190  85.1679120  48.0233480
  10.4900280  82.4274480  45.9087990  10.6163340  82.1886360  44.9905170
  10.5321660  81.5959020  46.3810070   4.3517020  86.1302480  44.4782800
   4.8661690  86.0410490  45.2805230   3.5086100  86.4762180  44.7710710
   6.3271420  86.4157820  33.9066800   6.1672560  86.1260760  34.8048630
   6.1618130  85.6397950  33.3712030   6.0297550  83.9245380  32.4664800
   5.3362710  83.9222670  31.8067080   6.7720410  83.5004700  32.0358970
   5.5947480  85.5508090  36.5413290   6.0504430  84.7697470  36.8551910
   5.9340000  86.2614910  37.0854470  10.3424290  74.4806940  46.8737730
   9.7268560  74.9886610  46.3453190  10.0220710  73.5805270  46.8163670
   2.4038610  73.3198830  44.3399920   1.9417980  73.5281850  45.1519860
   2.0016720  72.5058180  44.0370590   7.4043120  74.5407780  45.4696580
   6.5536710  74.2413530  45.7905650   7.2444910  74.7849790  44.5580400
   4.4992830  76.0409530  47.5695370   4.8246240  75.2073280  47.2297600
   5.2873160  76.5638050  47.7173700   5.1380780  75.5827250  35.0636500
   4.5389670  76.3063050  34.8800120   5.6860390  75.5204030  34.2812950
   3.7445650  74.2190790  37.0939780   4.1375220  74.5362990  36.2808470
   4.1062500  73.3402670  37.2084300   2.0537820  72.9698100  48.3536640
   1.3636140  72.7770300  48.9882730   2.7970120  73.2532740  48.8860940
   4.3300790  76.8096540  41.1890560   3.5981910  77.3183350  41.5380660
   3.9325130  75.9926520  40.8879340   4.7926700  72.2630220  40.6013500
   4.8099440  72.7138870  41.4455350   4.5442280  71.3635860  40.8146940
   8.2197450  69.6762400  46.4399880   8.5443220  68.9452060  46.9657860
   8.2553960  69.3576040  45.5380870   8.1455290  79.7887510  40.0485910
   8.8654410  80.2842800  39.6582020   7.9437110  79.1105400  39.4039780
   3.6065230  71.1825470  34.1915300   2.7929840  70.6838640  34.1160610
   3.4127180  72.0223720  33.7751650   3.5274090  79.8596570  45.9354910
   3.4611400  78.9392240  45.6812500   2.8979230  79.9572010  46.6499550
   6.3213620  75.5545120  32.4877460   7.2093240  75.8662350  32.3128800
   6.2918710  74.6817370  32.0958040   2.3174210  81.7268810  33.1665630
   2.6589910  82.4711040  32.6708950   1.4886920  82.0399930  33.5290460
   3.4590820  82.6817140  45.6858710   3.4735360  81.7498100  45.4677620
   2.7515920  82.7676900  46.3248480   8.5927890  76.8656960  31.9557320
   8.5091610  77.2971180  31.1053760   9.3122080  77.3255310  32.3884140
   9.6702030  79.3224480  45.0327290   8.9450220  79.9153260  44.8356680
  10.1977490  79.3148020  44.2340660   9.6215140  83.7199220  34.6839450
   8.9791300  83.0654840  34.9583170   9.2345800  84.1254310  33.9080120
   5.2001620  81.0484650  38.5311140   5.5525440  80.4512780  37.8712510
   4.3163950  80.7228880  38.7019390   2.8924720  84.3234710  42.7799210
   3.5366940  84.5294090  43.4572630   3.2554160  83.5623110  42.3270060
   4.1656800  82.3267060  41.4976660   4.8079030  81.6260220  41.6108830
   4.6906150  83.1065500  41.3173550   8.0112520  82.6115680  31.2215800
   7.7850100  81.8946120  31.8140440   7.6208720  82.3628120  30.3837550
   5.9394420  83.1261960  44.7012720   6.2750660  83.7128650  45.3790640
   5.0194760  82.9954670  44.9310510   7.5928770  80.5287620  32.8829960
   7.3050470  80.9900310  33.6707840   8.3880940  80.0685390  33.1514180
   1.7683000  83.1753290  47.8700780   1.4479870  82.4562530  48.4146470
   1.0941360  83.8508360  47.9436840   4.9836600  73.4079450  43.2337580
   5.3517420  72.5874660  43.5617150   4.1234800  73.4681340  43.6493230
   8.3498630  72.3636390  34.0425140   7.7211790  72.4682060  33.3283370
   7.8550550  72.5833170  34.8319020   2.7956770  84.0841980  31.4759120
   2.8968750  83.8805970  30.5461100   1.8958510  83.8300260  31.6806900
   1.9438590  76.0619040  43.4575550   2.4423840  76.5364860  44.1227400
   2.0861540  75.1382560  43.6645580   4.3498090  71.3673000  36.8978810
   4.2265870  71.3859130  35.9488320   5.2982650  71.4151940  37.0177210
   9.1505450  72.2787000  44.3003940   8.6479050  73.0192400  44.6397750
   9.9662110  72.6671000  43.9840730   7.4427460  77.5220180  37.7465300
   6.5017600  77.5370410  37.9212990   7.7571530  76.7356140  38.1925600
   9.4453040  84.6929030  39.4219560   9.5700460  85.5160200  39.8943370
  10.3118600  84.4819760  39.0743710   4.7593480  82.0786180  48.2297680
   4.1531640  82.1017780  47.4893430   4.4547590  81.3469220  48.7664930
   6.1893850  85.8066470  46.8407090   7.1415600  85.7224490  46.7907330
   6.0422070  86.4708180  47.5140880   9.0803050  85.1860680  32.3399000
   8.7944560  84.7725820  31.5253180   8.8822600  86.1148390  32.2199520
   3.7853010  80.2413990  31.3846600   3.2363110  80.6883290  32.0289340
   4.4072270  79.7363240  31.9084270   7.8387950  81.5956090  47.3168860
   8.5797420  81.9331850  46.8136320   7.0760630  81.7648150  46.7638630
   1.9655770  78.2242520  30.5289000   2.4861430  77.5091540  30.1630150
   2.6124170  78.8628390  30.8289510   6.5133610  79.6470920  45.8524070
   6.9274630  79.8016000  46.7014490   5.5784610  79.7726140  46.0149850
   6.9855780  76.9867080  47.8563220   7.5676550  76.2319400  47.7683700
   7.1617550  77.5174520  47.0794700   3.6112740  77.3307580  45.2057840
   3.7308950  76.7348720  45.9452680   4.4706740  77.3677270  44.7859140
   5.9500640  77.8844770  43.7820350   5.4235860  78.4087390  43.1785490
   6.2931980  78.5172160  44.4130080   5.1974940  73.4894740  46.6966680
   4.5090460  72.8276280  46.6316670   5.9180960  73.0433010  47.1415140
   5.8275340  70.0846370  32.7556940   6.1077630  69.2414270  33.1116360
   5.0541070  70.3169480  33.2695690   1.9818470  87.1395620  45.1964380
   1.9077170  88.0430760  45.5036750   1.0797310  86.8207520  45.1686450
   2.5303800  86.3054130  32.8190740   3.4254590  86.6439100  32.8409500
   2.5621430  85.5833540  32.1915020   9.5098150  84.8357800  45.5256940
   8.9100140  84.8950360  44.7820860   9.6392050  83.8962780  45.6553790
  10.7499600  82.5775620  30.8626650   9.9192560  82.6452270  31.3333880
  10.9271430  83.4679740  30.5593510  10.2056060  79.3223100  33.3660850
  10.9674970  79.8919750  33.4720540  10.2210430  78.7550300  34.1369160
  11.2116030  80.1773200  38.2102780  11.5824860  79.3940520  37.8038750
  11.8517960  80.8662300  38.0320080   8.1949790  81.5609780  43.6233100
   7.3809630  81.9906940  43.8858890   8.6023990  82.1728190  43.0102150
  10.2575230  79.6157470  30.5233370  10.5324070  80.5236350  30.3952590
  10.0685970  79.5520000  31.4595360   6.6550840  72.6402320  31.8187000
   7.0735720  72.4533300  30.9783660   6.3486900  71.7881370  32.1289930
  10.1540570  77.5526460  35.5162800   9.7784170  76.7854390  35.0844090
   9.4243690  77.9349160  36.0037730   9.5440190  76.6997980  45.1502320
   9.3126280  76.4710730  44.2500270   9.8044740  77.6197530  45.1047210
   7.9828260  71.9254410  47.9282020   8.8598440  71.9337810  48.3116020
   7.9949100  71.1885250  47.3174370   9.4291530  75.7783950  38.8170040
   9.9529010  75.2846600  38.1860210  10.0150950  75.9134310  39.5617610
   9.6081250  75.8623820  42.3389590   8.6583960  75.8287360  42.4534580
   9.7894260  76.7723930  42.1039360   8.9191500  75.0357300  34.7562450
   9.4150620  74.8028170  35.5411330   8.7207570  74.1969140  34.3400090
  10.3478660  73.6718250  37.2900130  10.2377940  73.5174290  38.2282400
  11.1086250  73.1439190  37.0475540   8.6944380  69.6112380  43.7483130
   9.3316600  70.2246520  44.1142320   8.8419270  69.6473040  42.8032360
  11.2368930  71.5026170  30.5306270  12.1618240  71.3707350  30.3224560
  11.2144720  71.5818990  31.4842720  11.3107420  72.2736830  33.1562980
  10.5158920  72.2081950  33.6855890  11.5150700  73.2087470  33.1448330
   8.2525840  86.3128380  37.1501370   8.8484910  85.9912950  36.4735790
   8.5103990  85.8400200  37.9414640   2.0648860  70.7638570  46.6558230
   2.0037750  71.3560400  47.4053640   3.0049240  70.6564530  46.5108490
   4.7023420  70.4208630  46.2950520   5.3163830  70.7387920  45.6331600
   5.2472980  69.9357220  46.9146380  11.1198600  86.3200260  43.7012360
  10.6256880  86.7169130  42.9839490  10.5111890  85.6949470  44.0949640
   5.4431460  68.9840770  42.6219810   4.5691300  69.3175880  42.4192740
   5.3342210  68.5113950  43.4471680   6.3503440  71.1911640  44.0061530
   6.0216800  70.3763400  43.6263260   7.2985740  71.1481450  43.8827220
   8.8038050  86.9623680  40.9799100   8.3441020  87.7139490  40.6057120
   8.1750510  86.2430150  40.9213900   1.9729270  86.1620410  40.9816210
   2.2607080  85.9074710  40.1049220   2.4852490  85.6097770  41.5721780
   3.1906280  69.9010610  41.5612720   2.4078070  70.3756110  41.8409480
   2.8969210  68.9965440  41.4525900   7.7427350  70.6033710  39.6061810
   8.1835440  70.5478810  38.7583410   7.4734940  71.5191720  39.6771990
   9.6065920  70.2348950  37.6170630   9.5454320  69.2910170  37.4701650
  10.3857950  70.3429040  38.1624090   5.5785480  68.9839810  38.3111820
   6.1814850  69.5560020  38.7860340   4.8378470  69.5479250  38.0885720
   8.7220080  69.3861370  33.5852100   8.9170710  70.2844820  33.8519530
   7.9349950  69.1548450  34.0785050   2.0401630  87.0836510  48.3484410
   2.9668940  86.8480780  48.3920370   2.0252060  87.9108510  47.8670440
  10.2746690  86.6262080  35.3458660  10.4498880  85.9399820  34.7019580
   9.5768260  87.1509130  34.9535330   5.8280700  69.1634840  48.6906760
   5.7146150  69.4829450  49.5858280   6.6450440  69.5647350  48.3944040
   8.6079190  86.3106370  48.1725450   9.4004510  85.8155600  47.9651410
   8.9012340  86.9896510  48.7801060   4.7338850  77.1827310  19.0541500
   4.6532900  76.2681920  18.7833210   4.3203270  77.6794380  18.3481210
   2.8656890  78.9606330  20.9350770   2.0898990  78.4806770  21.2249340
   3.5169820  78.2811980  20.7606930   6.8864320  83.3666520  19.7149900
   6.4245850  82.5953760  20.0437070   7.6989870  83.3932590  20.2202350
   3.1127630  85.6524530  19.3353890   2.4939070  86.1082030  18.7648330
   3.9679410  85.8075990  18.9343590   2.3065880  81.6363520  20.9420930
   2.2374160  80.6953460  20.7810060   3.0685740  81.7264930  21.5143500
   3.3371050  74.4433900  21.1689860   3.7135870  73.5705780  21.0563530
   3.2390560  74.7792600  20.2780300   7.1195170  71.9384340  18.1018200
   7.9404790  71.4480910  18.1443680   7.1529250  72.5282000  18.8550040
  11.4094720  73.9551090  24.6661830  10.7046890  74.3432800  24.1476940
  11.6752640  74.6501380  25.2682760   3.9790980  80.5363770  16.7285800
   3.3608250  81.0013220  16.1648520   4.4914230  81.2291250  17.1455310
   7.3556650  73.8784720  20.8745740   6.6512220  74.1669610  21.4548850
   7.7168810  74.6884830  20.5145300   8.9719430  83.4959850  23.1373220
   8.2882950  84.1658960  23.1289890   9.5113720  83.6940500  22.3718080
  10.4243570  73.3239510  21.2654950   9.4768480  73.3578490  21.3970380
  10.7493560  74.1378460  21.6504310   6.5078170  85.3403980  21.8518400
   6.5205330  84.9366270  20.9840660   5.9553390  86.1151270  21.7479830
   7.8023590  82.0620200  16.9408570   7.6919920  81.1194530  17.0657990
   7.7991840  82.4235840  17.8271330   5.9063610  80.2433820  23.1801010
   6.3232400  80.0293930  22.3454470   6.6303430  80.5006610  23.7509630
   3.3443870  77.6885520  16.2971060   2.4173150  77.6222900  16.5259530
   3.4968690  78.6265650  16.1826300   3.3312950  73.9602520  13.2938220
   2.3916620  74.1216480  13.3790680   3.6496210  74.6788200  12.7474210
   9.8525710  78.6421040  23.2717250   9.0244340  78.7114130  22.7967380
  10.4476190  79.2275350  22.8033080   7.3741160  79.2505820  16.8006310
   6.7553580  78.9125370  16.1532610   7.3565610  78.6065580  17.5085500
   6.8167720  75.4290360  24.2172120   6.4038900  76.2544070  24.4712110
   6.0843670  74.8435400  24.0248480   7.5067820  85.4749690  24.9053100
   7.0298380  86.2821880  24.7125710   6.8229610  84.8228020  25.0579310
   5.5505860  78.4892630  13.8079060   5.9899140  77.6515060  13.6616880
   6.2634280  79.1222030  13.8943200   3.6601240  83.4288700  17.7760300
   4.0997150  84.1713030  17.3615690   3.5988130  83.6715270  18.6999260
   9.1323000  69.7435440  12.1220100   8.8195660  69.8362270  13.0219170
   9.8935470  70.3216470  12.0717530  11.0867030  85.2361630  29.9744490
  11.5626750  85.7144520  30.6533570  11.7074190  85.1679120  29.2489990
  10.4900280  82.4274480  27.1344500  10.6163340  82.1886360  26.2161680
  10.5321660  81.5959020  27.6066580   4.3517020  86.1302480  25.7039310
   4.8661690  86.0410490  26.5061740   3.5086100  86.4762180  25.9967220
   6.3271420  86.4157820  15.1323310   6.1672560  86.1260760  16.0305140
   6.1618130  85.6397950  14.5968540   6.0297550  83.9245380  13.6921310
   5.3362710  83.9222670  13.0323590   6.7720410  83.5004700  13.2615480
   5.5947480  85.5508090  17.7669800   6.0504430  84.7697470  18.0808420
   5.9340000  86.2614910  18.3110980  10.3424290  74.4806940  28.0994240
   9.7268560  74.9886610  27.5709700  10.0220710  73.5805270  28.0420180
   2.4038610  73.3198830  25.5656430   1.9417980  73.5281850  26.3776370
   2.0016720  72.5058180  25.2627100   7.4043120  74.5407780  26.6953090
   6.5536710  74.2413530  27.0162160   7.2444910  74.7849790  25.7836910
   4.4992830  76.0409530  28.7951880   4.8246240  75.2073280  28.4554110
   5.2873160  76.5638050  28.9430210   5.1380780  75.5827250  16.2893010
   4.5389670  76.3063050  16.1056630   5.6860390  75.5204030  15.5069460
   3.7445650  74.2190790  18.3196290   4.1375220  74.5362990  17.5064980
   4.1062500  73.3402670  18.4340810   2.0537820  72.9698100  29.5793150
   1.3636140  72.7770300  30.2139240   2.7970120  73.2532740  30.1117450
   4.3300790  76.8096540  22.4147070   3.5981910  77.3183350  22.7637170
   3.9325130  75.9926520  22.1135850   4.7926700  72.2630220  21.8270010
   4.8099440  72.7138870  22.6711860   4.5442280  71.3635860  22.0403450
   8.2197450  69.6762400  27.6656390   8.5443220  68.9452060  28.1914370
   8.2553960  69.3576040  26.7637380   8.1455290  79.7887510  21.2742420
   8.8654410  80.2842800  20.8838530   7.9437110  79.1105400  20.6296290
   3.6065230  71.1825470  15.4171810   2.7929840  70.6838640  15.3417120
   3.4127180  72.0223720  15.0008160   3.5274090  79.8596570  27.1611420
   3.4611400  78.9392240  26.9069010   2.8979230  79.9572010  27.8756060
   6.3213620  75.5545120  13.7133970   7.2093240  75.8662350  13.5385310
   6.2918710  74.6817370  13.3214550   2.3174210  81.7268810  14.3922140
   2.6589910  82.4711040  13.8965460   1.4886920  82.0399930  14.7546970
   3.4590820  82.6817140  26.9115220   3.4735360  81.7498100  26.6934130
   2.7515920  82.7676900  27.5504990   8.5927890  76.8656960  13.1813830
   8.5091610  77.2971180  12.3310270   9.3122080  77.3255310  13.6140650
   9.6702030  79.3224480  26.2583800   8.9450220  79.9153260  26.0613190
  10.1977490  79.3148020  25.4597170   9.6215140  83.7199220  15.9095960
   8.9791300  83.0654840  16.1839680   9.2345800  84.1254310  15.1336630
   5.2001620  81.0484650  19.7567650   5.5525440  80.4512780  19.0969020
   4.3163950  80.7228880  19.9275900   2.8924720  84.3234710  24.0055720
   3.5366940  84.5294090  24.6829140   3.2554160  83.5623110  23.5526570
   4.1656800  82.3267060  22.7233170   4.8079030  81.6260220  22.8365340
   4.6906150  83.1065500  22.5430060   8.0112520  82.6115680  12.4472310
   7.7850100  81.8946120  13.0396950   7.6208720  82.3628120  11.6094060
   5.9394420  83.1261960  25.9269230   6.2750660  83.7128650  26.6047150
   5.0194760  82.9954670  26.1567020   7.5928770  80.5287620  14.1086470
   7.3050470  80.9900310  14.8964350   8.3880940  80.0685390  14.3770690
   1.7683000  83.1753290  29.0957290   1.4479870  82.4562530  29.6402980
   1.0941360  83.8508360  29.1693350   4.9836600  73.4079450  24.4594090
   5.3517420  72.5874660  24.7873660   4.1234800  73.4681340  24.8749740
   8.3498630  72.3636390  15.2681650   7.7211790  72.4682060  14.5539880
   7.8550550  72.5833170  16.0575530   2.7956770  84.0841980  12.7015630
   2.8968750  83.8805970  11.7717610   1.8958510  83.8300260  12.9063410
   1.9438590  76.0619040  24.6832060   2.4423840  76.5364860  25.3483910
   2.0861540  75.1382560  24.8902090   4.3498090  71.3673000  18.1235320
   4.2265870  71.3859130  17.1744830   5.2982650  71.4151940  18.2433720
   9.1505450  72.2787000  25.5260450   8.6479050  73.0192400  25.8654260
   9.9662110  72.6671000  25.2097240   7.4427460  77.5220180  18.9721810
   6.5017600  77.5370410  19.1469500   7.7571530  76.7356140  19.4182110
   9.4453040  84.6929030  20.6476070   9.5700460  85.5160200  21.1199880
  10.3118600  84.4819760  20.3000220   4.7593480  82.0786180  29.4554190
   4.1531640  82.1017780  28.7149940   4.4547590  81.3469220  29.9921440
   6.1893850  85.8066470  28.0663600   7.1415600  85.7224490  28.0163840
   6.0422070  86.4708180  28.7397390   9.0803050  85.1860680  13.5655510
   8.7944560  84.7725820  12.7509690   8.8822600  86.1148390  13.4456030
   3.7853010  80.2413990  12.6103110   3.2363110  80.6883290  13.2545850
   4.4072270  79.7363240  13.1340780   7.8387950  81.5956090  28.5425370
   8.5797420  81.9331850  28.0392830   7.0760630  81.7648150  27.9895140
   1.9655770  78.2242520  11.7545510   2.4861430  77.5091540  11.3886660
   2.6124170  78.8628390  12.0546020   6.5133610  79.6470920  27.0780580
   6.9274630  79.8016000  27.9271000   5.5784610  79.7726140  27.2406360
   6.9855780  76.9867080  29.0819730   7.5676550  76.2319400  28.9940210
   7.1617550  77.5174520  28.3051210   3.6112740  77.3307580  26.4314350
   3.7308950  76.7348720  27.1709190   4.4706740  77.3677270  26.0115650
   5.9500640  77.8844770  25.0076860   5.4235860  78.4087390  24.4042000
   6.2931980  78.5172160  25.6386590   5.1974940  73.4894740  27.9223190
   4.5090460  72.8276280  27.8573180   5.9180960  73.0433010  28.3671650
   5.8275340  70.0846370  13.9813450   6.1077630  69.2414270  14.3372870
   5.0541070  70.3169480  14.4952200   1.9818470  87.1395620  26.4220890
   1.9077170  88.0430760  26.7293260   1.0797310  86.8207520  26.3942960
   2.5303800  86.3054130  14.0447250   3.4254590  86.6439100  14.0666010
   2.5621430  85.5833540  13.4171530   9.5098150  84.8357800  26.7513450
   8.9100140  84.8950360  26.0077370   9.6392050  83.8962780  26.8810300
  10.7499600  82.5775620  12.0883160   9.9192560  82.6452270  12.5590390
  10.9271430  83.4679740  11.7850020  10.2056060  79.3223100  14.5917360
  10.9674970  79.8919750  14.6977050  10.2210430  78.7550300  15.3625670
  11.2116030  80.1773200  19.4359290  11.5824860  79.3940520  19.0295260
  11.8517960  80.8662300  19.2576590   8.1949790  81.5609780  24.8489610
   7.3809630  81.9906940  25.1115400   8.6023990  82.1728190  24.2358660
  10.2575230  79.6157470  11.7489880  10.5324070  80.5236350  11.6209100
  10.0685970  79.5520000  12.6851870   6.6550840  72.6402320  13.0443510
   7.0735720  72.4533300  12.2040170   6.3486900  71.7881370  13.3546440
  10.1540570  77.5526460  16.7419310   9.7784170  76.7854390  16.3100600
   9.4243690  77.9349160  17.2294240   9.5440190  76.6997980  26.3758830
   9.3126280  76.4710730  25.4756780   9.8044740  77.6197530  26.3303720
   7.9828260  71.9254410  29.1538530   8.8598440  71.9337810  29.5372530
   7.9949100  71.1885250  28.5430880   9.4291530  75.7783950  20.0426550
   9.9529010  75.2846600  19.4116720  10.0150950  75.9134310  20.7874120
   9.6081250  75.8623820  23.5646100   8.6583960  75.8287360  23.6791090
   9.7894260  76.7723930  23.3295870   8.9191500  75.0357300  15.9818960
   9.4150620  74.8028170  16.7667840   8.7207570  74.1969140  15.5656600
  10.3478660  73.6718250  18.5156640  10.2377940  73.5174290  19.4538910
  11.1086250  73.1439190  18.2732050   8.6944380  69.6112380  24.9739640
   9.3316600  70.2246520  25.3398830   8.8419270  69.6473040  24.0288870
  11.2368930  71.5026170  11.7562780  12.1618240  71.3707350  11.5481070
  11.2144720  71.5818990  12.7099230  11.3107420  72.2736830  14.3819490
  10.5158920  72.2081950  14.9112400  11.5150700  73.2087470  14.3704840
   8.2525840  86.3128380  18.3757880   8.8484910  85.9912950  17.6992300
   8.5103990  85.8400200  19.1671150   2.0648860  70.7638570  27.8814740
   2.0037750  71.3560400  28.6310150   3.0049240  70.6564530  27.7365000
   4.7023420  70.4208630  27.5207030   5.3163830  70.7387920  26.8588110
   5.2472980  69.9357220  28.1402890  11.1198600  86.3200260  24.9268870
  10.6256880  86.7169130  24.2096000  10.5111890  85.6949470  25.3206150
   5.4431460  68.9840770  23.8476320   4.5691300  69.3175880  23.6449250
   5.3342210  68.5113950  24.6728190   6.3503440  71.1911640  25.2318040
   6.0216800  70.3763400  24.8519770   7.2985740  71.1481450  25.1083730
   8.8038050  86.9623680  22.2055610   8.3441020  87.7139490  21.8313630
   8.1750510  86.2430150  22.1470410   1.9729270  86.1620410  22.2072720
   2.2607080  85.9074710  21.3305730   2.4852490  85.6097770  22.7978290
   3.1906280  69.9010610  22.7869230   2.4078070  70.3756110  23.0665990
   2.8969210  68.9965440  22.6782410   7.7427350  70.6033710  20.8318320
   8.1835440  70.5478810  19.9839920   7.4734940  71.5191720  20.9028500
   9.6065920  70.2348950  18.8427140   9.5454320  69.2910170  18.6958160
  10.3857950  70.3429040  19.3880600   5.5785480  68.9839810  19.5368330
   6.1814850  69.5560020  20.0116850   4.8378470  69.5479250  19.3142230
   8.7220080  69.3861370  14.8108610   8.9170710  70.2844820  15.0776040
   7.9349950  69.1548450  15.3041560   2.0401630  87.0836510  29.5740920
   2.9668940  86.8480780  29.6176880   2.0252060  87.9108510  29.0926950
  10.2746690  86.6262080  16.5715170  10.4498880  85.9399820  15.9276090
   9.5768260  87.1509130  16.1791840   5.8280700  69.1634840  29.9163270
   5.7146150  69.4829450  30.8114790   6.6450440  69.5647350  29.6200550
   8.6079190  86.3106370  29.3981960   9.4004510  85.8155600  29.1907920
   8.9012340  86.9896510  30.0057570   2.8656890  78.9606330   2.1607280
   2.0898990  78.4806770   2.4505850   3.5169820  78.2811980   1.9863440
   2.3065880  81.6363520   2.1677440   2.2374160  80.6953460   2.0066570
   3.0685740  81.7264930   2.7400010  11.4094720  73.9551090   5.8918340
  10.7046890  74.3432800   5.3733450  11.6752640  74.6501380   6.4939270
   7.3556650  73.8784720   2.1002250   6.6512220  74.1669610   2.6805360
   7.7168810  74.6884830   1.7401810   8.9719430  83.4959850   4.3629730
   8.2882950  84.1658960   4.3546400   9.5113720  83.6940500   3.5974590
  10.4243570  73.3239510   2.4911460   9.4768480  73.3578490   2.6226890
  10.7493560  74.1378460   2.8760820   6.5078170  85.3403980   3.0774910
   6.5205330  84.9366270   2.2097170   5.9553390  86.1151270   2.9736340
   5.9063610  80.2433820   4.4057520   6.3232400  80.0293930   3.5710980
   6.6303430  80.5006610   4.9766140   9.8525710  78.6421040   4.4973760
   9.0244340  78.7114130   4.0223890  10.4476190  79.2275350   4.0289590
   6.8167720  75.4290360   5.4428630   6.4038900  76.2544070   5.6968620
   6.0843670  74.8435400   5.2504990   7.5067820  85.4749690   6.1309610
   7.0298380  86.2821880   5.9382220   6.8229610  84.8228020   6.2835820
  11.0867030  85.2361630  11.2001000  11.5626750  85.7144520  11.8790080
  11.7074190  85.1679120  10.4746500  10.4900280  82.4274480   8.3601010
  10.6163340  82.1886360   7.4418190  10.5321660  81.5959020   8.8323090
   4.3517020  86.1302480   6.9295820   4.8661690  86.0410490   7.7318250
   3.5086100  86.4762180   7.2223730  10.3424290  74.4806940   9.3250750
   9.7268560  74.9886610   8.7966210  10.0220710  73.5805270   9.2676690
   2.4038610  73.3198830   6.7912940   1.9417980  73.5281850   7.6032880
   2.0016720  72.5058180   6.4883610   7.4043120  74.5407780   7.9209600
   6.5536710  74.2413530   8.2418670   7.2444910  74.7849790   7.0093420
   4.4992830  76.0409530  10.0208390   4.8246240  75.2073280   9.6810620
   5.2873160  76.5638050  10.1686720   2.0537820  72.9698100  10.8049660
   1.3636140  72.7770300  11.4395750   2.7970120  73.2532740  11.3373960
   4.3300790  76.8096540   3.6403580   3.5981910  77.3183350   3.9893680
   3.9325130  75.9926520   3.3392360   4.7926700  72.2630220   3.0526520
   4.8099440  72.7138870   3.8968370   4.5442280  71.3635860   3.2659960
   8.2197450  69.6762400   8.8912900   8.5443220  68.9452060   9.4170880
   8.2553960  69.3576040   7.9893890   8.1455290  79.7887510   2.4998930
   8.8654410  80.2842800   2.1095040   7.9437110  79.1105400   1.8552800
   3.5274090  79.8596570   8.3867930   3.4611400  78.9392240   8.1325520
   2.8979230  79.9572010   9.1012570   3.4590820  82.6817140   8.1371730
   3.4735360  81.7498100   7.9190640   2.7515920  82.7676900   8.7761500
   9.6702030  79.3224480   7.4840310   8.9450220  79.9153260   7.2869700
  10.1977490  79.3148020   6.6853680   2.8924720  84.3234710   5.2312230
   3.5366940  84.5294090   5.9085650   3.2554160  83.5623110   4.7783080
   4.1656800  82.3267060   3.9489680   4.8079030  81.6260220   4.0621850
   4.6906150  83.1065500   3.7686570   5.9394420  83.1261960   7.1525740
   6.2750660  83.7128650   7.8303660   5.0194760  82.9954670   7.3823530
   1.7683000  83.1753290  10.3213800   1.4479870  82.4562530  10.8659490
   1.0941360  83.8508360  10.3949860   4.9836600  73.4079450   5.6850600
   5.3517420  72.5874660   6.0130170   4.1234800  73.4681340   6.1006250
   1.9438590  76.0619040   5.9088570   2.4423840  76.5364860   6.5740420
   2.0861540  75.1382560   6.1158600   9.1505450  72.2787000   6.7516960
   8.6479050  73.0192400   7.0910770   9.9662110  72.6671000   6.4353750
   4.7593480  82.0786180  10.6810700   4.1531640  82.1017780   9.9406450
   4.4547590  81.3469220  11.2177950   6.1893850  85.8066470   9.2920110
   7.1415600  85.7224490   9.2420350   6.0422070  86.4708180   9.9653900
   7.8387950  81.5956090   9.7681880   8.5797420  81.9331850   9.2649340
   7.0760630  81.7648150   9.2151650   6.5133610  79.6470920   8.3037090
   6.9274630  79.8016000   9.1527510   5.5784610  79.7726140   8.4662870
   6.9855780  76.9867080  10.3076240   7.5676550  76.2319400  10.2196720
   7.1617550  77.5174520   9.5307720   3.6112740  77.3307580   7.6570860
   3.7308950  76.7348720   8.3965700   4.4706740  77.3677270   7.2372160
   5.9500640  77.8844770   6.2333370   5.4235860  78.4087390   5.6298510
   6.2931980  78.5172160   6.8643100   5.1974940  73.4894740   9.1479700
   4.5090460  72.8276280   9.0829690   5.9180960  73.0433010   9.5928160
   1.9818470  87.1395620   7.6477400   1.9077170  88.0430760   7.9549770
   1.0797310  86.8207520   7.6199470   9.5098150  84.8357800   7.9769960
   8.9100140  84.8950360   7.2333880   9.6392050  83.8962780   8.1066810
   8.1949790  81.5609780   6.0746120   7.3809630  81.9906940   6.3371910
   8.6023990  82.1728190   5.4615170   9.5440190  76.6997980   7.6015340
   9.3126280  76.4710730   6.7013290   9.8044740  77.6197530   7.5560230
   7.9828260  71.9254410  10.3795040   8.8598440  71.9337810  10.7629040
   7.9949100  71.1885250   9.7687390   9.6081250  75.8623820   4.7902610
   8.6583960  75.8287360   4.9047600   9.7894260  76.7723930   4.5552380
   8.6944380  69.6112380   6.1996150   9.3316600  70.2246520   6.5655340
   8.8419270  69.6473040   5.2545380   2.0648860  70.7638570   9.1071250
   2.0037750  71.3560400   9.8566660   3.0049240  70.6564530   8.9621510
   4.7023420  70.4208630   8.7463540   5.3163830  70.7387920   8.0844620
   5.2472980  69.9357220   9.3659400  11.1198600  86.3200260   6.1525380
  10.6256880  86.7169130   5.4352510  10.5111890  85.6949470   6.5462660
   5.4431460  68.9840770   5.0732830   4.5691300  69.3175880   4.8705760
   5.3342210  68.5113950   5.8984700   6.3503440  71.1911640   6.4574550
   6.0216800  70.3763400   6.0776280   7.2985740  71.1481450   6.3340240
   8.8038050  86.9623680   3.4312120   8.3441020  87.7139490   3.0570140
   8.1750510  86.2430150   3.3726920   1.9729270  86.1620410   3.4329230
   2.2607080  85.9074710   2.5562240   2.4852490  85.6097770   4.0234800
   3.1906280  69.9010610   4.0125740   2.4078070  70.3756110   4.2922500
   2.8969210  68.9965440   3.9038920   2.0401630  87.0836510  10.7997430
   2.9668940  86.8480780  10.8433390   2.0252060  87.9108510  10.3183460
   5.8280700  69.1634840  11.1419780   5.7146150  69.4829450  12.0371300
   6.6450440  69.5647350  10.8457060   8.6079190  86.3106370  10.6238470
   9.4004510  85.8155600  10.4164430   8.9012340  86.9896510  11.2314080
   4.7338850  58.4083820 150.4745930   4.6532900  57.4938430 150.2037640
   4.3203270  58.9050890 149.7685640   6.8864320  64.5923030 151.1354330
   6.4245850  63.8210270 151.4641500   7.6989870  64.6189100 151.6406780
   3.1127630  66.8781040 150.7558320   2.4939070  67.3338540 150.1852760
   3.9679410  67.0332500 150.3548020   7.1195170  53.1640850 149.5222630
   7.9404790  52.6737420 149.5648110   7.1529250  53.7538510 150.2754470
   3.9790980  61.7620280 148.1490230   3.3608250  62.2269730 147.5852950
   4.4914230  62.4547760 148.5659740   7.8023590  63.2876710 148.3613000
   7.6919920  62.3451040 148.4862420   7.7991840  63.6492350 149.2475760
   3.3443870  58.9142030 147.7175490   2.4173150  58.8479410 147.9463960
   3.4968690  59.8522160 147.6030730   3.3312950  55.1859030 144.7142650
   2.3916620  55.3472990 144.7995110   3.6496210  55.9044710 144.1678640
   7.3741160  60.4762330 148.2210740   6.7553580  60.1381880 147.5737040
   7.3565610  59.8322090 148.9289930   5.5505860  59.7149140 145.2283490
   5.9899140  58.8771570 145.0821310   6.2634280  60.3478540 145.3147630
   3.6601240  64.6545210 149.1964730   4.0997150  65.3969540 148.7820120
   3.5988130  64.8971780 150.1203690   9.1323000  50.9691950 143.5424530
   8.8195660  51.0618780 144.4423600   9.8935470  51.5472980 143.4921960
   6.3271420  67.6414330 146.5527740   6.1672560  67.3517270 147.4509570
   6.1618130  66.8654460 146.0172970   6.0297550  65.1501890 145.1125740
   5.3362710  65.1479180 144.4528020   6.7720410  64.7261210 144.6819910
   5.5947480  66.7764600 149.1874230   6.0504430  65.9953980 149.5012850
   5.9340000  67.4871420 149.7315410   5.1380780  56.8083760 147.7097440
   4.5389670  57.5319560 147.5261060   5.6860390  56.7460540 146.9273890
   3.7445650  55.4447300 149.7400720   4.1375220  55.7619500 148.9269410
   4.1062500  54.5659180 149.8545240   3.6065230  52.4081980 146.8376240
   2.7929840  51.9095150 146.7621550   3.4127180  53.2480230 146.4212590
   6.3213620  56.7801630 145.1338400   7.2093240  57.0918860 144.9589740
   6.2918710  55.9073880 144.7418980   2.3174210  62.9525320 145.8126570
   2.6589910  63.6967550 145.3169890   1.4886920  63.2656440 146.1751400
   8.5927890  58.0913470 144.6018260   8.5091610  58.5227690 143.7514700
   9.3122080  58.5511820 145.0345080   9.6215140  64.9455730 147.3300390
   8.9791300  64.2911350 147.6044110   9.2345800  65.3510820 146.5541060
   5.2001620  62.2741160 151.1772080   5.5525440  61.6769290 150.5173450
   4.3163950  61.9485390 151.3480330   8.0112520  63.8372190 143.8676740
   7.7850100  63.1202630 144.4601380   7.6208720  63.5884630 143.0298490
   7.5928770  61.7544130 145.5290900   7.3050470  62.2156820 146.3168780
   8.3880940  61.2941900 145.7975120   8.3498630  53.5892900 146.6886080
   7.7211790  53.6938570 145.9744310   7.8550550  53.8089680 147.4779960
   2.7956770  65.3098490 144.1220060   2.8968750  65.1062480 143.1922040
   1.8958510  65.0556770 144.3267840   4.3498090  52.5929510 149.5439750
   4.2265870  52.6115640 148.5949260   5.2982650  52.6408450 149.6638150
   7.4427460  58.7476690 150.3926240   6.5017600  58.7626920 150.5673930
   7.7571530  57.9612650 150.8386540   9.0803050  66.4117190 144.9859940
   8.7944560  65.9982330 144.1714120   8.8822600  67.3404900 144.8660460
   3.7853010  61.4670500 144.0307540   3.2363110  61.9139800 144.6750280
   4.4072270  60.9619750 144.5545210   1.9655770  59.4499030 143.1749940
   2.4861430  58.7348050 142.8091090   2.6124170  60.0884900 143.4750450
   5.8275340  51.3102880 145.4017880   6.1077630  50.4670780 145.7577300
   5.0541070  51.5425990 145.9156630   2.5303800  67.5310640 145.4651680
   3.4254590  67.8695610 145.4870440   2.5621430  66.8090050 144.8375960
  10.7499600  63.8032130 143.5087590   9.9192560  63.8708780 143.9794820
  10.9271430  64.6936250 143.2054450  10.2056060  60.5479610 146.0121790
  10.9674970  61.1176260 146.1181480  10.2210430  59.9806810 146.7830100
  11.2116030  61.4029710 150.8563720  11.5824860  60.6197030 150.4499690
  11.8517960  62.0918810 150.6781020  10.2575230  60.8413980 143.1694310
  10.5324070  61.7492860 143.0413530  10.0685970  60.7776510 144.1056300
   6.6550840  53.8658830 144.4647940   7.0735720  53.6789810 143.6244600
   6.3486900  53.0137880 144.7750870  10.1540570  58.7782970 148.1623740
   9.7784170  58.0110900 147.7305030   9.4243690  59.1605670 148.6498670
   9.4291530  57.0040460 151.4630980   9.9529010  56.5103110 150.8321150
  10.0150950  57.1390820 152.2078550   8.9191500  56.2613810 147.4023390
   9.4150620  56.0284680 148.1872270   8.7207570  55.4225650 146.9861030
  10.3478660  54.8974760 149.9361070  10.2377940  54.7430800 150.8743340
  11.1086250  54.3695700 149.6936480  11.2368930  52.7282680 143.1767210
  12.1618240  52.5963860 142.9685500  11.2144720  52.8075500 144.1303660
  11.3107420  53.4993340 145.8023920  10.5158920  53.4338460 146.3316830
  11.5150700  54.4343980 145.7909270   8.2525840  67.5384890 149.7962310
   8.8484910  67.2169460 149.1196730   8.5103990  67.0656710 150.5875580
   7.7427350  51.8290220 152.2522750   8.1835440  51.7735320 151.4044350
   7.4734940  52.7448230 152.3232930   9.6065920  51.4605460 150.2631570
   9.5454320  50.5166680 150.1162590  10.3857950  51.5685550 150.8085030
   5.5785480  50.2096320 150.9572760   6.1814850  50.7816530 151.4321280
   4.8378470  50.7735760 150.7346660   8.7220080  50.6117880 146.2313040
   8.9170710  51.5101330 146.4980470   7.9349950  50.3804960 146.7245990
  10.2746690  67.8518590 147.9919600  10.4498880  67.1656330 147.3480520
   9.5768260  68.3765640 147.5996270   4.7338850  58.4083820 131.7002440
   4.6532900  57.4938430 131.4294150   4.3203270  58.9050890 130.9942150
   2.8656890  60.1862840 133.5811710   2.0898990  59.7063280 133.8710280
   3.5169820  59.5068490 133.4067870   6.8864320  64.5923030 132.3610840
   6.4245850  63.8210270 132.6898010   7.6989870  64.6189100 132.8663290
   3.1127630  66.8781040 131.9814830   2.4939070  67.3338540 131.4109270
   3.9679410  67.0332500 131.5804530   2.3065880  62.8620030 133.5881870
   2.2374160  61.9209970 133.4271000   3.0685740  62.9521440 134.1604440
   3.3371050  55.6690410 133.8150800   3.7135870  54.7962290 133.7024470
   3.2390560  56.0049110 132.9241240   7.1195170  53.1640850 130.7479140
   7.9404790  52.6737420 130.7904620   7.1529250  53.7538510 131.5010980
  11.4094720  55.1807600 137.3122770  10.7046890  55.5689310 136.7937880
  11.6752640  55.8757890 137.9143700   3.9790980  61.7620280 129.3746740
   3.3608250  62.2269730 128.8109460   4.4914230  62.4547760 129.7916250
   7.3556650  55.1041230 133.5206680   6.6512220  55.3926120 134.1009790
   7.7168810  55.9141340 133.1606240   8.9719430  64.7216360 135.7834160
   8.2882950  65.3915470 135.7750830   9.5113720  64.9197010 135.0179020
  10.4243570  54.5496020 133.9115890   9.4768480  54.5835000 134.0431320
  10.7493560  55.3634970 134.2965250   6.5078170  66.5660490 134.4979340
   6.5205330  66.1622780 133.6301600   5.9553390  67.3407780 134.3940770
   7.8023590  63.2876710 129.5869510   7.6919920  62.3451040 129.7118930
   7.7991840  63.6492350 130.4732270   5.9063610  61.4690330 135.8261950
   6.3232400  61.2550440 134.9915410   6.6303430  61.7263120 136.3970570
   3.3443870  58.9142030 128.9432000   2.4173150  58.8479410 129.1720470
   3.4968690  59.8522160 128.8287240   3.3312950  55.1859030 125.9399160
   2.3916620  55.3472990 126.0251620   3.6496210  55.9044710 125.3935150
   9.8525710  59.8677550 135.9178190   9.0244340  59.9370640 135.4428320
  10.4476190  60.4531860 135.4494020   7.3741160  60.4762330 129.4467250
   6.7553580  60.1381880 128.7993550   7.3565610  59.8322090 130.1546440
   6.8167720  56.6546870 136.8633060   6.4038900  57.4800580 137.1173050
   6.0843670  56.0691910 136.6709420   7.5067820  66.7006200 137.5514040
   7.0298380  67.5078390 137.3586650   6.8229610  66.0484530 137.7040250
   5.5505860  59.7149140 126.4540000   5.9899140  58.8771570 126.3077820
   6.2634280  60.3478540 126.5404140   3.6601240  64.6545210 130.4221240
   4.0997150  65.3969540 130.0076630   3.5988130  64.8971780 131.3460200
   9.1323000  50.9691950 124.7681040   8.8195660  51.0618780 125.6680110
   9.8935470  51.5472980 124.7178470  11.0867030  66.4618140 142.6205430
  11.5626750  66.9401030 143.2994510  11.7074190  66.3935630 141.8950930
  10.4900280  63.6530990 139.7805440  10.6163340  63.4142870 138.8622620
  10.5321660  62.8215530 140.2527520   4.3517020  67.3558990 138.3500250
   4.8661690  67.2667000 139.1522680   3.5086100  67.7018690 138.6428160
   6.3271420  67.6414330 127.7784250   6.1672560  67.3517270 128.6766080
   6.1618130  66.8654460 127.2429480   6.0297550  65.1501890 126.3382250
   5.3362710  65.1479180 125.6784530   6.7720410  64.7261210 125.9076420
   5.5947480  66.7764600 130.4130740   6.0504430  65.9953980 130.7269360
   5.9340000  67.4871420 130.9571920  10.3424290  55.7063450 140.7455180
   9.7268560  56.2143120 140.2170640  10.0220710  54.8061780 140.6881120
   2.4038610  54.5455340 138.2117370   1.9417980  54.7538360 139.0237310
   2.0016720  53.7314690 137.9088040   7.4043120  55.7664290 139.3414030
   6.5536710  55.4670040 139.6623100   7.2444910  56.0106300 138.4297850
   4.4992830  57.2666040 141.4412820   4.8246240  56.4329790 141.1015050
   5.2873160  57.7894560 141.5891150   5.1380780  56.8083760 128.9353950
   4.5389670  57.5319560 128.7517570   5.6860390  56.7460540 128.1530400
   3.7445650  55.4447300 130.9657230   4.1375220  55.7619500 130.1525920
   4.1062500  54.5659180 131.0801750   2.0537820  54.1954610 142.2254090
   1.3636140  54.0026810 142.8600180   2.7970120  54.4789250 142.7578390
   4.3300790  58.0353050 135.0608010   3.5981910  58.5439860 135.4098110
   3.9325130  57.2183030 134.7596790   4.7926700  53.4886730 134.4730950
   4.8099440  53.9395380 135.3172800   4.5442280  52.5892370 134.6864390
   8.2197450  50.9018910 140.3117330   8.5443220  50.1708570 140.8375310
   8.2553960  50.5832550 139.4098320   8.1455290  61.0144020 133.9203360
   8.8654410  61.5099310 133.5299470   7.9437110  60.3361910 133.2757230
   3.6065230  52.4081980 128.0632750   2.7929840  51.9095150 127.9878060
   3.4127180  53.2480230 127.6469100   3.5274090  61.0853080 139.8072360
   3.4611400  60.1648750 139.5529950   2.8979230  61.1828520 140.5217000
   6.3213620  56.7801630 126.3594910   7.2093240  57.0918860 126.1846250
   6.2918710  55.9073880 125.9675490   2.3174210  62.9525320 127.0383080
   2.6589910  63.6967550 126.5426400   1.4886920  63.2656440 127.4007910
   3.4590820  63.9073650 139.5576160   3.4735360  62.9754610 139.3395070
   2.7515920  63.9933410 140.1965930   8.5927890  58.0913470 125.8274770
   8.5091610  58.5227690 124.9771210   9.3122080  58.5511820 126.2601590
   9.6702030  60.5480990 138.9044740   8.9450220  61.1409770 138.7074130
  10.1977490  60.5404530 138.1058110   9.6215140  64.9455730 128.5556900
   8.9791300  64.2911350 128.8300620   9.2345800  65.3510820 127.7797570
   5.2001620  62.2741160 132.4028590   5.5525440  61.6769290 131.7429960
   4.3163950  61.9485390 132.5736840   2.8924720  65.5491220 136.6516660
   3.5366940  65.7550600 137.3290080   3.2554160  64.7879620 136.1987510
   4.1656800  63.5523570 135.3694110   4.8079030  62.8516730 135.4826280
   4.6906150  64.3322010 135.1891000   8.0112520  63.8372190 125.0933250
   7.7850100  63.1202630 125.6857890   7.6208720  63.5884630 124.2555000
   5.9394420  64.3518470 138.5730170   6.2750660  64.9385160 139.2508090
   5.0194760  64.2211180 138.8027960   7.5928770  61.7544130 126.7547410
   7.3050470  62.2156820 127.5425290   8.3880940  61.2941900 127.0231630
   1.7683000  64.4009800 141.7418230   1.4479870  63.6819040 142.2863920
   1.0941360  65.0764870 141.8154290   4.9836600  54.6335960 137.1055030
   5.3517420  53.8131170 137.4334600   4.1234800  54.6937850 137.5210680
   8.3498630  53.5892900 127.9142590   7.7211790  53.6938570 127.2000820
   7.8550550  53.8089680 128.7036470   2.7956770  65.3098490 125.3476570
   2.8968750  65.1062480 124.4178550   1.8958510  65.0556770 125.5524350
   1.9438590  57.2875550 137.3293000   2.4423840  57.7621370 137.9944850
   2.0861540  56.3639070 137.5363030   4.3498090  52.5929510 130.7696260
   4.2265870  52.6115640 129.8205770   5.2982650  52.6408450 130.8894660
   9.1505450  53.5043510 138.1721390   8.6479050  54.2448910 138.5115200
   9.9662110  53.8927510 137.8558180   7.4427460  58.7476690 131.6182750
   6.5017600  58.7626920 131.7930440   7.7571530  57.9612650 132.0643050
   9.4453040  65.9185540 133.2937010   9.5700460  66.7416710 133.7660820
  10.3118600  65.7076270 132.9461160   4.7593480  63.3042690 142.1015130
   4.1531640  63.3274290 141.3610880   4.4547590  62.5725730 142.6382380
   6.1893850  67.0322980 140.7124540   7.1415600  66.9481000 140.6624780
   6.0422070  67.6964690 141.3858330   9.0803050  66.4117190 126.2116450
   8.7944560  65.9982330 125.3970630   8.8822600  67.3404900 126.0916970
   3.7853010  61.4670500 125.2564050   3.2363110  61.9139800 125.9006790
   4.4072270  60.9619750 125.7801720   7.8387950  62.8212600 141.1886310
   8.5797420  63.1588360 140.6853770   7.0760630  62.9904660 140.6356080
   1.9655770  59.4499030 124.4006450   2.4861430  58.7348050 124.0347600
   2.6124170  60.0884900 124.7006960   6.5133610  60.8727430 139.7241520
   6.9274630  61.0272510 140.5731940   5.5784610  60.9982650 139.8867300
   6.9855780  58.2123590 141.7280670   7.5676550  57.4575910 141.6401150
   7.1617550  58.7431030 140.9512150   3.6112740  58.5564090 139.0775290
   3.7308950  57.9605230 139.8170130   4.4706740  58.5933780 138.6576590
   5.9500640  59.1101280 137.6537800   5.4235860  59.6343900 137.0502940
   6.2931980  59.7428670 138.2847530   5.1974940  54.7151250 140.5684130
   4.5090460  54.0532790 140.5034120   5.9180960  54.2689520 141.0132590
   5.8275340  51.3102880 126.6274390   6.1077630  50.4670780 126.9833810
   5.0541070  51.5425990 127.1413140   1.9818470  68.3652130 139.0681830
   1.9077170  69.2687270 139.3754200   1.0797310  68.0464030 139.0403900
   2.5303800  67.5310640 126.6908190   3.4254590  67.8695610 126.7126950
   2.5621430  66.8090050 126.0632470   9.5098150  66.0614310 139.3974390
   8.9100140  66.1206870 138.6538310   9.6392050  65.1219290 139.5271240
  10.7499600  63.8032130 124.7344100   9.9192560  63.8708780 125.2051330
  10.9271430  64.6936250 124.4310960  10.2056060  60.5479610 127.2378300
  10.9674970  61.1176260 127.3437990  10.2210430  59.9806810 128.0086610
  11.2116030  61.4029710 132.0820230  11.5824860  60.6197030 131.6756200
  11.8517960  62.0918810 131.9037530   8.1949790  62.7866290 137.4950550
   7.3809630  63.2163450 137.7576340   8.6023990  63.3984700 136.8819600
  10.2575230  60.8413980 124.3950820  10.5324070  61.7492860 124.2670040
  10.0685970  60.7776510 125.3312810   6.6550840  53.8658830 125.6904450
   7.0735720  53.6789810 124.8501110   6.3486900  53.0137880 126.0007380
  10.1540570  58.7782970 129.3880250   9.7784170  58.0110900 128.9561540
   9.4243690  59.1605670 129.8755180   9.5440190  57.9254490 139.0219770
   9.3126280  57.6967240 138.1217720   9.8044740  58.8454040 138.9764660
   7.9828260  53.1510920 141.7999470   8.8598440  53.1594320 142.1833470
   7.9949100  52.4141760 141.1891820   9.4291530  57.0040460 132.6887490
   9.9529010  56.5103110 132.0577660  10.0150950  57.1390820 133.4335060
   9.6081250  57.0880330 136.2107040   8.6583960  57.0543870 136.3252030
   9.7894260  57.9980440 135.9756810   8.9191500  56.2613810 128.6279900
   9.4150620  56.0284680 129.4128780   8.7207570  55.4225650 128.2117540
  10.3478660  54.8974760 131.1617580  10.2377940  54.7430800 132.0999850
  11.1086250  54.3695700 130.9192990   8.6944380  50.8368890 137.6200580
   9.3316600  51.4503030 137.9859770   8.8419270  50.8729550 136.6749810
  11.2368930  52.7282680 124.4023720  12.1618240  52.5963860 124.1942010
  11.2144720  52.8075500 125.3560170  11.3107420  53.4993340 127.0280430
  10.5158920  53.4338460 127.5573340  11.5150700  54.4343980 127.0165780
   8.2525840  67.5384890 131.0218820   8.8484910  67.2169460 130.3453240
   8.5103990  67.0656710 131.8132090   2.0648860  51.9895080 140.5275680
   2.0037750  52.5816910 141.2771090   3.0049240  51.8821040 140.3825940
   4.7023420  51.6465140 140.1667970   5.3163830  51.9644430 139.5049050
   5.2472980  51.1613730 140.7863830  11.1198600  67.5456770 137.5729810
  10.6256880  67.9425640 136.8556940  10.5111890  66.9205980 137.9667090
   5.4431460  50.2097280 136.4937260   4.5691300  50.5432390 136.2910190
   5.3342210  49.7370460 137.3189130   6.3503440  52.4168150 137.8778980
   6.0216800  51.6019910 137.4980710   7.2985740  52.3737960 137.7544670
   8.8038050  68.1880190 134.8516550   8.3441020  68.9396000 134.4774570
   8.1750510  67.4686660 134.7931350   1.9729270  67.3876920 134.8533660
   2.2607080  67.1331220 133.9766670   2.4852490  66.8354280 135.4439230
   3.1906280  51.1267120 135.4330170   2.4078070  51.6012620 135.7126930
   2.8969210  50.2221950 135.3243350   7.7427350  51.8290220 133.4779260
   8.1835440  51.7735320 132.6300860   7.4734940  52.7448230 133.5489440
   9.6065920  51.4605460 131.4888080   9.5454320  50.5166680 131.3419100
  10.3857950  51.5685550 132.0341540   5.5785480  50.2096320 132.1829270
   6.1814850  50.7816530 132.6577790   4.8378470  50.7735760 131.9603170
   8.7220080  50.6117880 127.4569550   8.9170710  51.5101330 127.7236980
   7.9349950  50.3804960 127.9502500   2.0401630  68.3093020 142.2201860
   2.9668940  68.0737290 142.2637820   2.0252060  69.1365020 141.7387890
  10.2746690  67.8518590 129.2176110  10.4498880  67.1656330 128.5737030
   9.5768260  68.3765640 128.8252780   5.8280700  50.3891350 142.5624210
   5.7146150  50.7085960 143.4575730   6.6450440  50.7903860 142.2661490
   8.6079190  67.5362880 142.0442900   9.4004510  67.0412110 141.8368860
   8.9012340  68.2153020 142.6518510   4.7338850  58.4083820 112.9258950
   4.6532900  57.4938430 112.6550660   4.3203270  58.9050890 112.2198660
   2.8656890  60.1862840 114.8068220   2.0898990  59.7063280 115.0966790
   3.5169820  59.5068490 114.6324380   6.8864320  64.5923030 113.5867350
   6.4245850  63.8210270 113.9154520   7.6989870  64.6189100 114.0919800
   3.1127630  66.8781040 113.2071340   2.4939070  67.3338540 112.6365780
   3.9679410  67.0332500 112.8061040   2.3065880  62.8620030 114.8138380
   2.2374160  61.9209970 114.6527510   3.0685740  62.9521440 115.3860950
   3.3371050  55.6690410 115.0407310   3.7135870  54.7962290 114.9280980
   3.2390560  56.0049110 114.1497750   7.1195170  53.1640850 111.9735650
   7.9404790  52.6737420 112.0161130   7.1529250  53.7538510 112.7267490
  11.4094720  55.1807600 118.5379280  10.7046890  55.5689310 118.0194390
  11.6752640  55.8757890 119.1400210   3.9790980  61.7620280 110.6003250
   3.3608250  62.2269730 110.0365970   4.4914230  62.4547760 111.0172760
   7.3556650  55.1041230 114.7463190   6.6512220  55.3926120 115.3266300
   7.7168810  55.9141340 114.3862750   8.9719430  64.7216360 117.0090670
   8.2882950  65.3915470 117.0007340   9.5113720  64.9197010 116.2435530
  10.4243570  54.5496020 115.1372400   9.4768480  54.5835000 115.2687830
  10.7493560  55.3634970 115.5221760   6.5078170  66.5660490 115.7235850
   6.5205330  66.1622780 114.8558110   5.9553390  67.3407780 115.6197280
   7.8023590  63.2876710 110.8126020   7.6919920  62.3451040 110.9375440
   7.7991840  63.6492350 111.6988780   5.9063610  61.4690330 117.0518460
   6.3232400  61.2550440 116.2171920   6.6303430  61.7263120 117.6227080
   3.3443870  58.9142030 110.1688510   2.4173150  58.8479410 110.3976980
   3.4968690  59.8522160 110.0543750   3.3312950  55.1859030 107.1655670
   2.3916620  55.3472990 107.2508130   3.6496210  55.9044710 106.6191660
   9.8525710  59.8677550 117.1434700   9.0244340  59.9370640 116.6684830
  10.4476190  60.4531860 116.6750530   7.3741160  60.4762330 110.6723760
   6.7553580  60.1381880 110.0250060   7.3565610  59.8322090 111.3802950
   6.8167720  56.6546870 118.0889570   6.4038900  57.4800580 118.3429560
   6.0843670  56.0691910 117.8965930   7.5067820  66.7006200 118.7770550
   7.0298380  67.5078390 118.5843160   6.8229610  66.0484530 118.9296760
   5.5505860  59.7149140 107.6796510   5.9899140  58.8771570 107.5334330
   6.2634280  60.3478540 107.7660650   3.6601240  64.6545210 111.6477750
   4.0997150  65.3969540 111.2333140   3.5988130  64.8971780 112.5716710
   9.1323000  50.9691950 105.9937550   8.8195660  51.0618780 106.8936620
   9.8935470  51.5472980 105.9434980  11.0867030  66.4618140 123.8461940
  11.5626750  66.9401030 124.5251020  11.7074190  66.3935630 123.1207440
  10.4900280  63.6530990 121.0061950  10.6163340  63.4142870 120.0879130
  10.5321660  62.8215530 121.4784030   4.3517020  67.3558990 119.5756760
   4.8661690  67.2667000 120.3779190   3.5086100  67.7018690 119.8684670
   6.3271420  67.6414330 109.0040760   6.1672560  67.3517270 109.9022590
   6.1618130  66.8654460 108.4685990   6.0297550  65.1501890 107.5638760
   5.3362710  65.1479180 106.9041040   6.7720410  64.7261210 107.1332930
   5.5947480  66.7764600 111.6387250   6.0504430  65.9953980 111.9525870
   5.9340000  67.4871420 112.1828430  10.3424290  55.7063450 121.9711690
   9.7268560  56.2143120 121.4427150  10.0220710  54.8061780 121.9137630
   2.4038610  54.5455340 119.4373880   1.9417980  54.7538360 120.2493820
   2.0016720  53.7314690 119.1344550   7.4043120  55.7664290 120.5670540
   6.5536710  55.4670040 120.8879610   7.2444910  56.0106300 119.6554360
   4.4992830  57.2666040 122.6669330   4.8246240  56.4329790 122.3271560
   5.2873160  57.7894560 122.8147660   5.1380780  56.8083760 110.1610460
   4.5389670  57.5319560 109.9774080   5.6860390  56.7460540 109.3786910
   3.7445650  55.4447300 112.1913740   4.1375220  55.7619500 111.3782430
   4.1062500  54.5659180 112.3058260   2.0537820  54.1954610 123.4510600
   1.3636140  54.0026810 124.0856690   2.7970120  54.4789250 123.9834900
   4.3300790  58.0353050 116.2864520   3.5981910  58.5439860 116.6354620
   3.9325130  57.2183030 115.9853300   4.7926700  53.4886730 115.6987460
   4.8099440  53.9395380 116.5429310   4.5442280  52.5892370 115.9120900
   8.2197450  50.9018910 121.5373840   8.5443220  50.1708570 122.0631820
   8.2553960  50.5832550 120.6354830   8.1455290  61.0144020 115.1459870
   8.8654410  61.5099310 114.7555980   7.9437110  60.3361910 114.5013740
   3.6065230  52.4081980 109.2889260   2.7929840  51.9095150 109.2134570
   3.4127180  53.2480230 108.8725610   3.5274090  61.0853080 121.0328870
   3.4611400  60.1648750 120.7786460   2.8979230  61.1828520 121.7473510
   6.3213620  56.7801630 107.5851420   7.2093240  57.0918860 107.4102760
   6.2918710  55.9073880 107.1932000   2.3174210  62.9525320 108.2639590
   2.6589910  63.6967550 107.7682910   1.4886920  63.2656440 108.6264420
   3.4590820  63.9073650 120.7832670   3.4735360  62.9754610 120.5651580
   2.7515920  63.9933410 121.4222440   8.5927890  58.0913470 107.0531280
   8.5091610  58.5227690 106.2027720   9.3122080  58.5511820 107.4858100
   9.6702030  60.5480990 120.1301250   8.9450220  61.1409770 119.9330640
  10.1977490  60.5404530 119.3314620   9.6215140  64.9455730 109.7813410
   8.9791300  64.2911350 110.0557130   9.2345800  65.3510820 109.0054080
   5.2001620  62.2741160 113.6285100   5.5525440  61.6769290 112.9686470
   4.3163950  61.9485390 113.7993350   2.8924720  65.5491220 117.8773170
   3.5366940  65.7550600 118.5546590   3.2554160  64.7879620 117.4244020
   4.1656800  63.5523570 116.5950620   4.8079030  62.8516730 116.7082790
   4.6906150  64.3322010 116.4147510   8.0112520  63.8372190 106.3189760
   7.7850100  63.1202630 106.9114400   7.6208720  63.5884630 105.4811510
   5.9394420  64.3518470 119.7986680   6.2750660  64.9385160 120.4764600
   5.0194760  64.2211180 120.0284470   7.5928770  61.7544130 107.9803920
   7.3050470  62.2156820 108.7681800   8.3880940  61.2941900 108.2488140
   1.7683000  64.4009800 122.9674740   1.4479870  63.6819040 123.5120430
   1.0941360  65.0764870 123.0410800   4.9836600  54.6335960 118.3311540
   5.3517420  53.8131170 118.6591110   4.1234800  54.6937850 118.7467190
   8.3498630  53.5892900 109.1399100   7.7211790  53.6938570 108.4257330
   7.8550550  53.8089680 109.9292980   2.7956770  65.3098490 106.5733080
   2.8968750  65.1062480 105.6435060   1.8958510  65.0556770 106.7780860
   1.9438590  57.2875550 118.5549510   2.4423840  57.7621370 119.2201360
   2.0861540  56.3639070 118.7619540   4.3498090  52.5929510 111.9952770
   4.2265870  52.6115640 111.0462280   5.2982650  52.6408450 112.1151170
   9.1505450  53.5043510 119.3977900   8.6479050  54.2448910 119.7371710
   9.9662110  53.8927510 119.0814690   7.4427460  58.7476690 112.8439260
   6.5017600  58.7626920 113.0186950   7.7571530  57.9612650 113.2899560
   9.4453040  65.9185540 114.5193520   9.5700460  66.7416710 114.9917330
  10.3118600  65.7076270 114.1717670   4.7593480  63.3042690 123.3271640
   4.1531640  63.3274290 122.5867390   4.4547590  62.5725730 123.8638890
   6.1893850  67.0322980 121.9381050   7.1415600  66.9481000 121.8881290
   6.0422070  67.6964690 122.6114840   9.0803050  66.4117190 107.4372960
   8.7944560  65.9982330 106.6227140   8.8822600  67.3404900 107.3173480
   3.7853010  61.4670500 106.4820560   3.2363110  61.9139800 107.1263300
   4.4072270  60.9619750 107.0058230   7.8387950  62.8212600 122.4142820
   8.5797420  63.1588360 121.9110280   7.0760630  62.9904660 121.8612590
   1.9655770  59.4499030 105.6262960   2.4861430  58.7348050 105.2604110
   2.6124170  60.0884900 105.9263470   6.5133610  60.8727430 120.9498030
   6.9274630  61.0272510 121.7988450   5.5784610  60.9982650 121.1123810
   6.9855780  58.2123590 122.9537180   7.5676550  57.4575910 122.8657660
   7.1617550  58.7431030 122.1768660   3.6112740  58.5564090 120.3031800
   3.7308950  57.9605230 121.0426640   4.4706740  58.5933780 119.8833100
   5.9500640  59.1101280 118.8794310   5.4235860  59.6343900 118.2759450
   6.2931980  59.7428670 119.5104040   5.1974940  54.7151250 121.7940640
   4.5090460  54.0532790 121.7290630   5.9180960  54.2689520 122.2389100
   5.8275340  51.3102880 107.8530900   6.1077630  50.4670780 108.2090320
   5.0541070  51.5425990 108.3669650   1.9818470  68.3652130 120.2938340
   1.9077170  69.2687270 120.6010710   1.0797310  68.0464030 120.2660410
   2.5303800  67.5310640 107.9164700   3.4254590  67.8695610 107.9383460
   2.5621430  66.8090050 107.2888980   9.5098150  66.0614310 120.6230900
   8.9100140  66.1206870 119.8794820   9.6392050  65.1219290 120.7527750
  10.7499600  63.8032130 105.9600610   9.9192560  63.8708780 106.4307840
  10.9271430  64.6936250 105.6567470  10.2056060  60.5479610 108.4634810
  10.9674970  61.1176260 108.5694500  10.2210430  59.9806810 109.2343120
  11.2116030  61.4029710 113.3076740  11.5824860  60.6197030 112.9012710
  11.8517960  62.0918810 113.1294040   8.1949790  62.7866290 118.7207060
   7.3809630  63.2163450 118.9832850   8.6023990  63.3984700 118.1076110
  10.2575230  60.8413980 105.6207330  10.5324070  61.7492860 105.4926550
  10.0685970  60.7776510 106.5569320   6.6550840  53.8658830 106.9160960
   7.0735720  53.6789810 106.0757620   6.3486900  53.0137880 107.2263890
  10.1540570  58.7782970 110.6136760   9.7784170  58.0110900 110.1818050
   9.4243690  59.1605670 111.1011690   9.5440190  57.9254490 120.2476280
   9.3126280  57.6967240 119.3474230   9.8044740  58.8454040 120.2021170
   7.9828260  53.1510920 123.0255980   8.8598440  53.1594320 123.4089980
   7.9949100  52.4141760 122.4148330   9.4291530  57.0040460 113.9144000
   9.9529010  56.5103110 113.2834170  10.0150950  57.1390820 114.6591570
   9.6081250  57.0880330 117.4363550   8.6583960  57.0543870 117.5508540
   9.7894260  57.9980440 117.2013320   8.9191500  56.2613810 109.8536410
   9.4150620  56.0284680 110.6385290   8.7207570  55.4225650 109.4374050
  10.3478660  54.8974760 112.3874090  10.2377940  54.7430800 113.3256360
  11.1086250  54.3695700 112.1449500   8.6944380  50.8368890 118.8457090
   9.3316600  51.4503030 119.2116280   8.8419270  50.8729550 117.9006320
  11.2368930  52.7282680 105.6280230  12.1618240  52.5963860 105.4198520
  11.2144720  52.8075500 106.5816680  11.3107420  53.4993340 108.2536940
  10.5158920  53.4338460 108.7829850  11.5150700  54.4343980 108.2422290
   8.2525840  67.5384890 112.2475330   8.8484910  67.2169460 111.5709750
   8.5103990  67.0656710 113.0388600   2.0648860  51.9895080 121.7532190
   2.0037750  52.5816910 122.5027600   3.0049240  51.8821040 121.6082450
   4.7023420  51.6465140 121.3924480   5.3163830  51.9644430 120.7305560
   5.2472980  51.1613730 122.0120340  11.1198600  67.5456770 118.7986320
  10.6256880  67.9425640 118.0813450  10.5111890  66.9205980 119.1923600
   5.4431460  50.2097280 117.7193770   4.5691300  50.5432390 117.5166700
   5.3342210  49.7370460 118.5445640   6.3503440  52.4168150 119.1035490
   6.0216800  51.6019910 118.7237220   7.2985740  52.3737960 118.9801180
   8.8038050  68.1880190 116.0773060   8.3441020  68.9396000 115.7031080
   8.1750510  67.4686660 116.0187860   1.9729270  67.3876920 116.0790170
   2.2607080  67.1331220 115.2023180   2.4852490  66.8354280 116.6695740
   3.1906280  51.1267120 116.6586680   2.4078070  51.6012620 116.9383440
   2.8969210  50.2221950 116.5499860   7.7427350  51.8290220 114.7035770
   8.1835440  51.7735320 113.8557370   7.4734940  52.7448230 114.7745950
   9.6065920  51.4605460 112.7144590   9.5454320  50.5166680 112.5675610
  10.3857950  51.5685550 113.2598050   5.5785480  50.2096320 113.4085780
   6.1814850  50.7816530 113.8834300   4.8378470  50.7735760 113.1859680
   8.7220080  50.6117880 108.6826060   8.9170710  51.5101330 108.9493490
   7.9349950  50.3804960 109.1759010   2.0401630  68.3093020 123.4458370
   2.9668940  68.0737290 123.4894330   2.0252060  69.1365020 122.9644400
  10.2746690  67.8518590 110.4432620  10.4498880  67.1656330 109.7993540
   9.5768260  68.3765640 110.0509290   5.8280700  50.3891350 123.7880720
   5.7146150  50.7085960 124.6832240   6.6450440  50.7903860 123.4918000
   8.6079190  67.5362880 123.2699410   9.4004510  67.0412110 123.0625370
   8.9012340  68.2153020 123.8775020   4.7338850  58.4083820  94.1515460
   4.6532900  57.4938430  93.8807170   4.3203270  58.9050890  93.4455170
   2.8656890  60.1862840  96.0324730   2.0898990  59.7063280  96.3223300
   3.5169820  59.5068490  95.8580890   6.8864320  64.5923030  94.8123860
   6.4245850  63.8210270  95.1411030   7.6989870  64.6189100  95.3176310
   3.1127630  66.8781040  94.4327850   2.4939070  67.3338540  93.8622290
   3.9679410  67.0332500  94.0317550   2.3065880  62.8620030  96.0394890
   2.2374160  61.9209970  95.8784020   3.0685740  62.9521440  96.6117460
   3.3371050  55.6690410  96.2663820   3.7135870  54.7962290  96.1537490
   3.2390560  56.0049110  95.3754260   7.1195170  53.1640850  93.1992160
   7.9404790  52.6737420  93.2417640   7.1529250  53.7538510  93.9524000
  11.4094720  55.1807600  99.7635790  10.7046890  55.5689310  99.2450900
  11.6752640  55.8757890 100.3656720   3.9790980  61.7620280  91.8259760
   3.3608250  62.2269730  91.2622480   4.4914230  62.4547760  92.2429270
   7.3556650  55.1041230  95.9719700   6.6512220  55.3926120  96.5522810
   7.7168810  55.9141340  95.6119260   8.9719430  64.7216360  98.2347180
   8.2882950  65.3915470  98.2263850   9.5113720  64.9197010  97.4692040
  10.4243570  54.5496020  96.3628910   9.4768480  54.5835000  96.4944340
  10.7493560  55.3634970  96.7478270   6.5078170  66.5660490  96.9492360
   6.5205330  66.1622780  96.0814620   5.9553390  67.3407780  96.8453790
   7.8023590  63.2876710  92.0382530   7.6919920  62.3451040  92.1631950
   7.7991840  63.6492350  92.9245290   5.9063610  61.4690330  98.2774970
   6.3232400  61.2550440  97.4428430   6.6303430  61.7263120  98.8483590
   3.3443870  58.9142030  91.3945020   2.4173150  58.8479410  91.6233490
   3.4968690  59.8522160  91.2800260   3.3312950  55.1859030  88.3912180
   2.3916620  55.3472990  88.4764640   3.6496210  55.9044710  87.8448170
   9.8525710  59.8677550  98.3691210   9.0244340  59.9370640  97.8941340
  10.4476190  60.4531860  97.9007040   7.3741160  60.4762330  91.8980270
   6.7553580  60.1381880  91.2506570   7.3565610  59.8322090  92.6059460
   6.8167720  56.6546870  99.3146080   6.4038900  57.4800580  99.5686070
   6.0843670  56.0691910  99.1222440   7.5067820  66.7006200 100.0027060
   7.0298380  67.5078390  99.8099670   6.8229610  66.0484530 100.1553270
   5.5505860  59.7149140  88.9053020   5.9899140  58.8771570  88.7590840
   6.2634280  60.3478540  88.9917160   3.6601240  64.6545210  92.8734260
   4.0997150  65.3969540  92.4589650   3.5988130  64.8971780  93.7973220
   9.1323000  50.9691950  87.2194060   8.8195660  51.0618780  88.1193130
   9.8935470  51.5472980  87.1691490  11.0867030  66.4618140 105.0718450
  11.5626750  66.9401030 105.7507530  11.7074190  66.3935630 104.3463950
  10.4900280  63.6530990 102.2318460  10.6163340  63.4142870 101.3135640
  10.5321660  62.8215530 102.7040540   4.3517020  67.3558990 100.8013270
   4.8661690  67.2667000 101.6035700   3.5086100  67.7018690 101.0941180
   6.3271420  67.6414330  90.2297270   6.1672560  67.3517270  91.1279100
   6.1618130  66.8654460  89.6942500   6.0297550  65.1501890  88.7895270
   5.3362710  65.1479180  88.1297550   6.7720410  64.7261210  88.3589440
   5.5947480  66.7764600  92.8643760   6.0504430  65.9953980  93.1782380
   5.9340000  67.4871420  93.4084940  10.3424290  55.7063450 103.1968200
   9.7268560  56.2143120 102.6683660  10.0220710  54.8061780 103.1394140
   2.4038610  54.5455340 100.6630390   1.9417980  54.7538360 101.4750330
   2.0016720  53.7314690 100.3601060   7.4043120  55.7664290 101.7927050
   6.5536710  55.4670040 102.1136120   7.2444910  56.0106300 100.8810870
   4.4992830  57.2666040 103.8925840   4.8246240  56.4329790 103.5528070
   5.2873160  57.7894560 104.0404170   5.1380780  56.8083760  91.3866970
   4.5389670  57.5319560  91.2030590   5.6860390  56.7460540  90.6043420
   3.7445650  55.4447300  93.4170250   4.1375220  55.7619500  92.6038940
   4.1062500  54.5659180  93.5314770   2.0537820  54.1954610 104.6767110
   1.3636140  54.0026810 105.3113200   2.7970120  54.4789250 105.2091410
   4.3300790  58.0353050  97.5121030   3.5981910  58.5439860  97.8611130
   3.9325130  57.2183030  97.2109810   4.7926700  53.4886730  96.9243970
   4.8099440  53.9395380  97.7685820   4.5442280  52.5892370  97.1377410
   8.2197450  50.9018910 102.7630350   8.5443220  50.1708570 103.2888330
   8.2553960  50.5832550 101.8611340   8.1455290  61.0144020  96.3716380
   8.8654410  61.5099310  95.9812490   7.9437110  60.3361910  95.7270250
   3.6065230  52.4081980  90.5145770   2.7929840  51.9095150  90.4391080
   3.4127180  53.2480230  90.0982120   3.5274090  61.0853080 102.2585380
   3.4611400  60.1648750 102.0042970   2.8979230  61.1828520 102.9730020
   6.3213620  56.7801630  88.8107930   7.2093240  57.0918860  88.6359270
   6.2918710  55.9073880  88.4188510   2.3174210  62.9525320  89.4896100
   2.6589910  63.6967550  88.9939420   1.4886920  63.2656440  89.8520930
   3.4590820  63.9073650 102.0089180   3.4735360  62.9754610 101.7908090
   2.7515920  63.9933410 102.6478950   8.5927890  58.0913470  88.2787790
   8.5091610  58.5227690  87.4284230   9.3122080  58.5511820  88.7114610
   9.6702030  60.5480990 101.3557760   8.9450220  61.1409770 101.1587150
  10.1977490  60.5404530 100.5571130   9.6215140  64.9455730  91.0069920
   8.9791300  64.2911350  91.2813640   9.2345800  65.3510820  90.2310590
   5.2001620  62.2741160  94.8541610   5.5525440  61.6769290  94.1942980
   4.3163950  61.9485390  95.0249860   2.8924720  65.5491220  99.1029680
   3.5366940  65.7550600  99.7803100   3.2554160  64.7879620  98.6500530
   4.1656800  63.5523570  97.8207130   4.8079030  62.8516730  97.9339300
   4.6906150  64.3322010  97.6404020   8.0112520  63.8372190  87.5446270
   7.7850100  63.1202630  88.1370910   7.6208720  63.5884630  86.7068020
   5.9394420  64.3518470 101.0243190   6.2750660  64.9385160 101.7021110
   5.0194760  64.2211180 101.2540980   7.5928770  61.7544130  89.2060430
   7.3050470  62.2156820  89.9938310   8.3880940  61.2941900  89.4744650
   1.7683000  64.4009800 104.1931250   1.4479870  63.6819040 104.7376940
   1.0941360  65.0764870 104.2667310   4.9836600  54.6335960  99.5568050
   5.3517420  53.8131170  99.8847620   4.1234800  54.6937850  99.9723700
   8.3498630  53.5892900  90.3655610   7.7211790  53.6938570  89.6513840
   7.8550550  53.8089680  91.1549490   2.7956770  65.3098490  87.7989590
   2.8968750  65.1062480  86.8691570   1.8958510  65.0556770  88.0037370
   1.9438590  57.2875550  99.7806020   2.4423840  57.7621370 100.4457870
   2.0861540  56.3639070  99.9876050   4.3498090  52.5929510  93.2209280
   4.2265870  52.6115640  92.2718790   5.2982650  52.6408450  93.3407680
   9.1505450  53.5043510 100.6234410   8.6479050  54.2448910 100.9628220
   9.9662110  53.8927510 100.3071200   7.4427460  58.7476690  94.0695770
   6.5017600  58.7626920  94.2443460   7.7571530  57.9612650  94.5156070
   9.4453040  65.9185540  95.7450030   9.5700460  66.7416710  96.2173840
  10.3118600  65.7076270  95.3974180   4.7593480  63.3042690 104.5528150
   4.1531640  63.3274290 103.8123900   4.4547590  62.5725730 105.0895400
   6.1893850  67.0322980 103.1637560   7.1415600  66.9481000 103.1137800
   6.0422070  67.6964690 103.8371350   9.0803050  66.4117190  88.6629470
   8.7944560  65.9982330  87.8483650   8.8822600  67.3404900  88.5429990
   3.7853010  61.4670500  87.7077070   3.2363110  61.9139800  88.3519810
   4.4072270  60.9619750  88.2314740   7.8387950  62.8212600 103.6399330
   8.5797420  63.1588360 103.1366790   7.0760630  62.9904660 103.0869100
   1.9655770  59.4499030  86.8519470   2.4861430  58.7348050  86.4860620
   2.6124170  60.0884900  87.1519980   6.5133610  60.8727430 102.1754540
   6.9274630  61.0272510 103.0244960   5.5784610  60.9982650 102.3380320
   6.9855780  58.2123590 104.1793690   7.5676550  57.4575910 104.0914170
   7.1617550  58.7431030 103.4025170   3.6112740  58.5564090 101.5288310
   3.7308950  57.9605230 102.2683150   4.4706740  58.5933780 101.1089610
   5.9500640  59.1101280 100.1050820   5.4235860  59.6343900  99.5015960
   6.2931980  59.7428670 100.7360550   5.1974940  54.7151250 103.0197150
   4.5090460  54.0532790 102.9547140   5.9180960  54.2689520 103.4645610
   5.8275340  51.3102880  89.0787410   6.1077630  50.4670780  89.4346830
   5.0541070  51.5425990  89.5926160   1.9818470  68.3652130 101.5194850
   1.9077170  69.2687270 101.8267220   1.0797310  68.0464030 101.4916920
   2.5303800  67.5310640  89.1421210   3.4254590  67.8695610  89.1639970
   2.5621430  66.8090050  88.5145490   9.5098150  66.0614310 101.8487410
   8.9100140  66.1206870 101.1051330   9.6392050  65.1219290 101.9784260
  10.7499600  63.8032130  87.1857120   9.9192560  63.8708780  87.6564350
  10.9271430  64.6936250  86.8823980  10.2056060  60.5479610  89.6891320
  10.9674970  61.1176260  89.7951010  10.2210430  59.9806810  90.4599630
  11.2116030  61.4029710  94.5333250  11.5824860  60.6197030  94.1269220
  11.8517960  62.0918810  94.3550550   8.1949790  62.7866290  99.9463570
   7.3809630  63.2163450 100.2089360   8.6023990  63.3984700  99.3332620
  10.2575230  60.8413980  86.8463840  10.5324070  61.7492860  86.7183060
  10.0685970  60.7776510  87.7825830   6.6550840  53.8658830  88.1417470
   7.0735720  53.6789810  87.3014130   6.3486900  53.0137880  88.4520400
  10.1540570  58.7782970  91.8393270   9.7784170  58.0110900  91.4074560
   9.4243690  59.1605670  92.3268200   9.5440190  57.9254490 101.4732790
   9.3126280  57.6967240 100.5730740   9.8044740  58.8454040 101.4277680
   7.9828260  53.1510920 104.2512490   8.8598440  53.1594320 104.6346490
   7.9949100  52.4141760 103.6404840   9.4291530  57.0040460  95.1400510
   9.9529010  56.5103110  94.5090680  10.0150950  57.1390820  95.8848080
   9.6081250  57.0880330  98.6620060   8.6583960  57.0543870  98.7765050
   9.7894260  57.9980440  98.4269830   8.9191500  56.2613810  91.0792920
   9.4150620  56.0284680  91.8641800   8.7207570  55.4225650  90.6630560
  10.3478660  54.8974760  93.6130600  10.2377940  54.7430800  94.5512870
  11.1086250  54.3695700  93.3706010   8.6944380  50.8368890 100.0713600
   9.3316600  51.4503030 100.4372790   8.8419270  50.8729550  99.1262830
  11.2368930  52.7282680  86.8536740  12.1618240  52.5963860  86.6455030
  11.2144720  52.8075500  87.8073190  11.3107420  53.4993340  89.4793450
  10.5158920  53.4338460  90.0086360  11.5150700  54.4343980  89.4678800
   8.2525840  67.5384890  93.4731840   8.8484910  67.2169460  92.7966260
   8.5103990  67.0656710  94.2645110   2.0648860  51.9895080 102.9788700
   2.0037750  52.5816910 103.7284110   3.0049240  51.8821040 102.8338960
   4.7023420  51.6465140 102.6180990   5.3163830  51.9644430 101.9562070
   5.2472980  51.1613730 103.2376850  11.1198600  67.5456770 100.0242830
  10.6256880  67.9425640  99.3069960  10.5111890  66.9205980 100.4180110
   5.4431460  50.2097280  98.9450280   4.5691300  50.5432390  98.7423210
   5.3342210  49.7370460  99.7702150   6.3503440  52.4168150 100.3292000
   6.0216800  51.6019910  99.9493730   7.2985740  52.3737960 100.2057690
   8.8038050  68.1880190  97.3029570   8.3441020  68.9396000  96.9287590
   8.1750510  67.4686660  97.2444370   1.9729270  67.3876920  97.3046680
   2.2607080  67.1331220  96.4279690   2.4852490  66.8354280  97.8952250
   3.1906280  51.1267120  97.8843190   2.4078070  51.6012620  98.1639950
   2.8969210  50.2221950  97.7756370   7.7427350  51.8290220  95.9292280
   8.1835440  51.7735320  95.0813880   7.4734940  52.7448230  96.0002460
   9.6065920  51.4605460  93.9401100   9.5454320  50.5166680  93.7932120
  10.3857950  51.5685550  94.4854560   5.5785480  50.2096320  94.6342290
   6.1814850  50.7816530  95.1090810   4.8378470  50.7735760  94.4116190
   8.7220080  50.6117880  89.9082570   8.9170710  51.5101330  90.1750000
   7.9349950  50.3804960  90.4015520   2.0401630  68.3093020 104.6714880
   2.9668940  68.0737290 104.7150840   2.0252060  69.1365020 104.1900910
  10.2746690  67.8518590  91.6689130  10.4498880  67.1656330  91.0250050
   9.5768260  68.3765640  91.2765800   5.8280700  50.3891350 105.0137230
   5.7146150  50.7085960 105.9088750   6.6450440  50.7903860 104.7174510
   8.6079190  67.5362880 104.4955920   9.4004510  67.0412110 104.2881880
   8.9012340  68.2153020 105.1031530   4.7338850  58.4083820  75.3771970
   4.6532900  57.4938430  75.1063680   4.3203270  58.9050890  74.6711680
   2.8656890  60.1862840  77.2581240   2.0898990  59.7063280  77.5479810
   3.5169820  59.5068490  77.0837400   6.8864320  64.5923030  76.0380370
   6.4245850  63.8210270  76.3667540   7.6989870  64.6189100  76.5432820
   3.1127630  66.8781040  75.6584360   2.4939070  67.3338540  75.0878800
   3.9679410  67.0332500  75.2574060   2.3065880  62.8620030  77.2651400
   2.2374160  61.9209970  77.1040530   3.0685740  62.9521440  77.8373970
   3.3371050  55.6690410  77.4920330   3.7135870  54.7962290  77.3794000
   3.2390560  56.0049110  76.6010770   7.1195170  53.1640850  74.4248670
   7.9404790  52.6737420  74.4674150   7.1529250  53.7538510  75.1780510
  11.4094720  55.1807600  80.9892300  10.7046890  55.5689310  80.4707410
  11.6752640  55.8757890  81.5913230   3.9790980  61.7620280  73.0516270
   3.3608250  62.2269730  72.4878990   4.4914230  62.4547760  73.4685780
   7.3556650  55.1041230  77.1976210   6.6512220  55.3926120  77.7779320
   7.7168810  55.9141340  76.8375770   8.9719430  64.7216360  79.4603690
   8.2882950  65.3915470  79.4520360   9.5113720  64.9197010  78.6948550
  10.4243570  54.5496020  77.5885420   9.4768480  54.5835000  77.7200850
  10.7493560  55.3634970  77.9734780   6.5078170  66.5660490  78.1748870
   6.5205330  66.1622780  77.3071130   5.9553390  67.3407780  78.0710300
   7.8023590  63.2876710  73.2639040   7.6919920  62.3451040  73.3888460
   7.7991840  63.6492350  74.1501800   5.9063610  61.4690330  79.5031480
   6.3232400  61.2550440  78.6684940   6.6303430  61.7263120  80.0740100
   3.3443870  58.9142030  72.6201530   2.4173150  58.8479410  72.8490000
   3.4968690  59.8522160  72.5056770   3.3312950  55.1859030  69.6168690
   2.3916620  55.3472990  69.7021150   3.6496210  55.9044710  69.0704680
   9.8525710  59.8677550  79.5947720   9.0244340  59.9370640  79.1197850
  10.4476190  60.4531860  79.1263550   7.3741160  60.4762330  73.1236780
   6.7553580  60.1381880  72.4763080   7.3565610  59.8322090  73.8315970
   6.8167720  56.6546870  80.5402590   6.4038900  57.4800580  80.7942580
   6.0843670  56.0691910  80.3478950   7.5067820  66.7006200  81.2283570
   7.0298380  67.5078390  81.0356180   6.8229610  66.0484530  81.3809780
   5.5505860  59.7149140  70.1309530   5.9899140  58.8771570  69.9847350
   6.2634280  60.3478540  70.2173670   3.6601240  64.6545210  74.0990770
   4.0997150  65.3969540  73.6846160   3.5988130  64.8971780  75.0229730
   9.1323000  50.9691950  68.4450570   8.8195660  51.0618780  69.3449640
   9.8935470  51.5472980  68.3948000  11.0867030  66.4618140  86.2974960
  11.5626750  66.9401030  86.9764040  11.7074190  66.3935630  85.5720460
  10.4900280  63.6530990  83.4574970  10.6163340  63.4142870  82.5392150
  10.5321660  62.8215530  83.9297050   4.3517020  67.3558990  82.0269780
   4.8661690  67.2667000  82.8292210   3.5086100  67.7018690  82.3197690
   6.3271420  67.6414330  71.4553780   6.1672560  67.3517270  72.3535610
   6.1618130  66.8654460  70.9199010   6.0297550  65.1501890  70.0151780
   5.3362710  65.1479180  69.3554060   6.7720410  64.7261210  69.5845950
   5.5947480  66.7764600  74.0900270   6.0504430  65.9953980  74.4038890
   5.9340000  67.4871420  74.6341450  10.3424290  55.7063450  84.4224710
   9.7268560  56.2143120  83.8940170  10.0220710  54.8061780  84.3650650
   2.4038610  54.5455340  81.8886900   1.9417980  54.7538360  82.7006840
   2.0016720  53.7314690  81.5857570   7.4043120  55.7664290  83.0183560
   6.5536710  55.4670040  83.3392630   7.2444910  56.0106300  82.1067380
   4.4992830  57.2666040  85.1182350   4.8246240  56.4329790  84.7784580
   5.2873160  57.7894560  85.2660680   5.1380780  56.8083760  72.6123480
   4.5389670  57.5319560  72.4287100   5.6860390  56.7460540  71.8299930
   3.7445650  55.4447300  74.6426760   4.1375220  55.7619500  73.8295450
   4.1062500  54.5659180  74.7571280   2.0537820  54.1954610  85.9023620
   1.3636140  54.0026810  86.5369710   2.7970120  54.4789250  86.4347920
   4.3300790  58.0353050  78.7377540   3.5981910  58.5439860  79.0867640
   3.9325130  57.2183030  78.4366320   4.7926700  53.4886730  78.1500480
   4.8099440  53.9395380  78.9942330   4.5442280  52.5892370  78.3633920
   8.2197450  50.9018910  83.9886860   8.5443220  50.1708570  84.5144840
   8.2553960  50.5832550  83.0867850   8.1455290  61.0144020  77.5972890
   8.8654410  61.5099310  77.2069000   7.9437110  60.3361910  76.9526760
   3.6065230  52.4081980  71.7402280   2.7929840  51.9095150  71.6647590
   3.4127180  53.2480230  71.3238630   3.5274090  61.0853080  83.4841890
   3.4611400  60.1648750  83.2299480   2.8979230  61.1828520  84.1986530
   6.3213620  56.7801630  70.0364440   7.2093240  57.0918860  69.8615780
   6.2918710  55.9073880  69.6445020   2.3174210  62.9525320  70.7152610
   2.6589910  63.6967550  70.2195930   1.4886920  63.2656440  71.0777440
   3.4590820  63.9073650  83.2345690   3.4735360  62.9754610  83.0164600
   2.7515920  63.9933410  83.8735460   8.5927890  58.0913470  69.5044300
   8.5091610  58.5227690  68.6540740   9.3122080  58.5511820  69.9371120
   9.6702030  60.5480990  82.5814270   8.9450220  61.1409770  82.3843660
  10.1977490  60.5404530  81.7827640   9.6215140  64.9455730  72.2326430
   8.9791300  64.2911350  72.5070150   9.2345800  65.3510820  71.4567100
   5.2001620  62.2741160  76.0798120   5.5525440  61.6769290  75.4199490
   4.3163950  61.9485390  76.2506370   2.8924720  65.5491220  80.3286190
   3.5366940  65.7550600  81.0059610   3.2554160  64.7879620  79.8757040
   4.1656800  63.5523570  79.0463640   4.8079030  62.8516730  79.1595810
   4.6906150  64.3322010  78.8660530   8.0112520  63.8372190  68.7702780
   7.7850100  63.1202630  69.3627420   7.6208720  63.5884630  67.9324530
   5.9394420  64.3518470  82.2499700   6.2750660  64.9385160  82.9277620
   5.0194760  64.2211180  82.4797490   7.5928770  61.7544130  70.4316940
   7.3050470  62.2156820  71.2194820   8.3880940  61.2941900  70.7001160
   1.7683000  64.4009800  85.4187760   1.4479870  63.6819040  85.9633450
   1.0941360  65.0764870  85.4923820   4.9836600  54.6335960  80.7824560
   5.3517420  53.8131170  81.1104130   4.1234800  54.6937850  81.1980210
   8.3498630  53.5892900  71.5912120   7.7211790  53.6938570  70.8770350
   7.8550550  53.8089680  72.3806000   2.7956770  65.3098490  69.0246100
   2.8968750  65.1062480  68.0948080   1.8958510  65.0556770  69.2293880
   1.9438590  57.2875550  81.0062530   2.4423840  57.7621370  81.6714380
   2.0861540  56.3639070  81.2132560   4.3498090  52.5929510  74.4465790
   4.2265870  52.6115640  73.4975300   5.2982650  52.6408450  74.5664190
   9.1505450  53.5043510  81.8490920   8.6479050  54.2448910  82.1884730
   9.9662110  53.8927510  81.5327710   7.4427460  58.7476690  75.2952280
   6.5017600  58.7626920  75.4699970   7.7571530  57.9612650  75.7412580
   9.4453040  65.9185540  76.9706540   9.5700460  66.7416710  77.4430350
  10.3118600  65.7076270  76.6230690   4.7593480  63.3042690  85.7784660
   4.1531640  63.3274290  85.0380410   4.4547590  62.5725730  86.3151910
   6.1893850  67.0322980  84.3894070   7.1415600  66.9481000  84.3394310
   6.0422070  67.6964690  85.0627860   9.0803050  66.4117190  69.8885980
   8.7944560  65.9982330  69.0740160   8.8822600  67.3404900  69.7686500
   3.7853010  61.4670500  68.9333580   3.2363110  61.9139800  69.5776320
   4.4072270  60.9619750  69.4571250   7.8387950  62.8212600  84.8655840
   8.5797420  63.1588360  84.3623300   7.0760630  62.9904660  84.3125610
   1.9655770  59.4499030  68.0775980   2.4861430  58.7348050  67.7117130
   2.6124170  60.0884900  68.3776490   6.5133610  60.8727430  83.4011050
   6.9274630  61.0272510  84.2501470   5.5784610  60.9982650  83.5636830
   6.9855780  58.2123590  85.4050200   7.5676550  57.4575910  85.3170680
   7.1617550  58.7431030  84.6281680   3.6112740  58.5564090  82.7544820
   3.7308950  57.9605230  83.4939660   4.4706740  58.5933780  82.3346120
   5.9500640  59.1101280  81.3307330   5.4235860  59.6343900  80.7272470
   6.2931980  59.7428670  81.9617060   5.1974940  54.7151250  84.2453660
   4.5090460  54.0532790  84.1803650   5.9180960  54.2689520  84.6902120
   5.8275340  51.3102880  70.3043920   6.1077630  50.4670780  70.6603340
   5.0541070  51.5425990  70.8182670   1.9818470  68.3652130  82.7451360
   1.9077170  69.2687270  83.0523730   1.0797310  68.0464030  82.7173430
   2.5303800  67.5310640  70.3677720   3.4254590  67.8695610  70.3896480
   2.5621430  66.8090050  69.7402000   9.5098150  66.0614310  83.0743920
   8.9100140  66.1206870  82.3307840   9.6392050  65.1219290  83.2040770
  10.7499600  63.8032130  68.4113630   9.9192560  63.8708780  68.8820860
  10.9271430  64.6936250  68.1080490  10.2056060  60.5479610  70.9147830
  10.9674970  61.1176260  71.0207520  10.2210430  59.9806810  71.6856140
  11.2116030  61.4029710  75.7589760  11.5824860  60.6197030  75.3525730
  11.8517960  62.0918810  75.5807060   8.1949790  62.7866290  81.1720080
   7.3809630  63.2163450  81.4345870   8.6023990  63.3984700  80.5589130
  10.2575230  60.8413980  68.0720350  10.5324070  61.7492860  67.9439570
  10.0685970  60.7776510  69.0082340   6.6550840  53.8658830  69.3673980
   7.0735720  53.6789810  68.5270640   6.3486900  53.0137880  69.6776910
  10.1540570  58.7782970  73.0649780   9.7784170  58.0110900  72.6331070
   9.4243690  59.1605670  73.5524710   9.5440190  57.9254490  82.6989300
   9.3126280  57.6967240  81.7987250   9.8044740  58.8454040  82.6534190
   7.9828260  53.1510920  85.4769000   8.8598440  53.1594320  85.8603000
   7.9949100  52.4141760  84.8661350   9.4291530  57.0040460  76.3657020
   9.9529010  56.5103110  75.7347190  10.0150950  57.1390820  77.1104590
   9.6081250  57.0880330  79.8876570   8.6583960  57.0543870  80.0021560
   9.7894260  57.9980440  79.6526340   8.9191500  56.2613810  72.3049430
   9.4150620  56.0284680  73.0898310   8.7207570  55.4225650  71.8887070
  10.3478660  54.8974760  74.8387110  10.2377940  54.7430800  75.7769380
  11.1086250  54.3695700  74.5962520   8.6944380  50.8368890  81.2970110
   9.3316600  51.4503030  81.6629300   8.8419270  50.8729550  80.3519340
  11.2368930  52.7282680  68.0793250  12.1618240  52.5963860  67.8711540
  11.2144720  52.8075500  69.0329700  11.3107420  53.4993340  70.7049960
  10.5158920  53.4338460  71.2342870  11.5150700  54.4343980  70.6935310
   8.2525840  67.5384890  74.6988350   8.8484910  67.2169460  74.0222770
   8.5103990  67.0656710  75.4901620   2.0648860  51.9895080  84.2045210
   2.0037750  52.5816910  84.9540620   3.0049240  51.8821040  84.0595470
   4.7023420  51.6465140  83.8437500   5.3163830  51.9644430  83.1818580
   5.2472980  51.1613730  84.4633360  11.1198600  67.5456770  81.2499340
  10.6256880  67.9425640  80.5326470  10.5111890  66.9205980  81.6436620
   5.4431460  50.2097280  80.1706790   4.5691300  50.5432390  79.9679720
   5.3342210  49.7370460  80.9958660   6.3503440  52.4168150  81.5548510
   6.0216800  51.6019910  81.1750240   7.2985740  52.3737960  81.4314200
   8.8038050  68.1880190  78.5286080   8.3441020  68.9396000  78.1544100
   8.1750510  67.4686660  78.4700880   1.9729270  67.3876920  78.5303190
   2.2607080  67.1331220  77.6536200   2.4852490  66.8354280  79.1208760
   3.1906280  51.1267120  79.1099700   2.4078070  51.6012620  79.3896460
   2.8969210  50.2221950  79.0012880   7.7427350  51.8290220  77.1548790
   8.1835440  51.7735320  76.3070390   7.4734940  52.7448230  77.2258970
   9.6065920  51.4605460  75.1657610   9.5454320  50.5166680  75.0188630
  10.3857950  51.5685550  75.7111070   5.5785480  50.2096320  75.8598800
   6.1814850  50.7816530  76.3347320   4.8378470  50.7735760  75.6372700
   8.7220080  50.6117880  71.1339080   8.9170710  51.5101330  71.4006510
   7.9349950  50.3804960  71.6272030   2.0401630  68.3093020  85.8971390
   2.9668940  68.0737290  85.9407350   2.0252060  69.1365020  85.4157420
  10.2746690  67.8518590  72.8945640  10.4498880  67.1656330  72.2506560
   9.5768260  68.3765640  72.5022310   5.8280700  50.3891350  86.2393740
   5.7146150  50.7085960  87.1345260   6.6450440  50.7903860  85.9431020
   8.6079190  67.5362880  85.7212430   9.4004510  67.0412110  85.5138390
   8.9012340  68.2153020  86.3288040   4.7338850  58.4083820  56.6028480
   4.6532900  57.4938430  56.3320190   4.3203270  58.9050890  55.8968190
   2.8656890  60.1862840  58.4837750   2.0898990  59.7063280  58.7736320
   3.5169820  59.5068490  58.3093910   6.8864320  64.5923030  57.2636880
   6.4245850  63.8210270  57.5924050   7.6989870  64.6189100  57.7689330
   3.1127630  66.8781040  56.8840870   2.4939070  67.3338540  56.3135310
   3.9679410  67.0332500  56.4830570   2.3065880  62.8620030  58.4907910
   2.2374160  61.9209970  58.3297040   3.0685740  62.9521440  59.0630480
   3.3371050  55.6690410  58.7176840   3.7135870  54.7962290  58.6050510
   3.2390560  56.0049110  57.8267280   7.1195170  53.1640850  55.6505180
   7.9404790  52.6737420  55.6930660   7.1529250  53.7538510  56.4037020
  11.4094720  55.1807600  62.2148810  10.7046890  55.5689310  61.6963920
  11.6752640  55.8757890  62.8169740   3.9790980  61.7620280  54.2772780
   3.3608250  62.2269730  53.7135500   4.4914230  62.4547760  54.6942290
   7.3556650  55.1041230  58.4232720   6.6512220  55.3926120  59.0035830
   7.7168810  55.9141340  58.0632280   8.9719430  64.7216360  60.6860200
   8.2882950  65.3915470  60.6776870   9.5113720  64.9197010  59.9205060
  10.4243570  54.5496020  58.8141930   9.4768480  54.5835000  58.9457360
  10.7493560  55.3634970  59.1991290   6.5078170  66.5660490  59.4005380
   6.5205330  66.1622780  58.5327640   5.9553390  67.3407780  59.2966810
   7.8023590  63.2876710  54.4895550   7.6919920  62.3451040  54.6144970
   7.7991840  63.6492350  55.3758310   5.9063610  61.4690330  60.7287990
   6.3232400  61.2550440  59.8941450   6.6303430  61.7263120  61.2996610
   3.3443870  58.9142030  53.8458040   2.4173150  58.8479410  54.0746510
   3.4968690  59.8522160  53.7313280   3.3312950  55.1859030  50.8425200
   2.3916620  55.3472990  50.9277660   3.6496210  55.9044710  50.2961190
   9.8525710  59.8677550  60.8204230   9.0244340  59.9370640  60.3454360
  10.4476190  60.4531860  60.3520060   7.3741160  60.4762330  54.3493290
   6.7553580  60.1381880  53.7019590   7.3565610  59.8322090  55.0572480
   6.8167720  56.6546870  61.7659100   6.4038900  57.4800580  62.0199090
   6.0843670  56.0691910  61.5735460   7.5067820  66.7006200  62.4540080
   7.0298380  67.5078390  62.2612690   6.8229610  66.0484530  62.6066290
   5.5505860  59.7149140  51.3566040   5.9899140  58.8771570  51.2103860
   6.2634280  60.3478540  51.4430180   3.6601240  64.6545210  55.3247280
   4.0997150  65.3969540  54.9102670   3.5988130  64.8971780  56.2486240
   9.1323000  50.9691950  49.6707080   8.8195660  51.0618780  50.5706150
   9.8935470  51.5472980  49.6204510  11.0867030  66.4618140  67.5231470
  11.5626750  66.9401030  68.2020550  11.7074190  66.3935630  66.7976970
  10.4900280  63.6530990  64.6831480  10.6163340  63.4142870  63.7648660
  10.5321660  62.8215530  65.1553560   4.3517020  67.3558990  63.2526290
   4.8661690  67.2667000  64.0548720   3.5086100  67.7018690  63.5454200
   6.3271420  67.6414330  52.6810290   6.1672560  67.3517270  53.5792120
   6.1618130  66.8654460  52.1455520   6.0297550  65.1501890  51.2408290
   5.3362710  65.1479180  50.5810570   6.7720410  64.7261210  50.8102460
   5.5947480  66.7764600  55.3156780   6.0504430  65.9953980  55.6295400
   5.9340000  67.4871420  55.8597960  10.3424290  55.7063450  65.6481220
   9.7268560  56.2143120  65.1196680  10.0220710  54.8061780  65.5907160
   2.4038610  54.5455340  63.1143410   1.9417980  54.7538360  63.9263350
   2.0016720  53.7314690  62.8114080   7.4043120  55.7664290  64.2440070
   6.5536710  55.4670040  64.5649140   7.2444910  56.0106300  63.3323890
   4.4992830  57.2666040  66.3438860   4.8246240  56.4329790  66.0041090
   5.2873160  57.7894560  66.4917190   5.1380780  56.8083760  53.8379990
   4.5389670  57.5319560  53.6543610   5.6860390  56.7460540  53.0556440
   3.7445650  55.4447300  55.8683270   4.1375220  55.7619500  55.0551960
   4.1062500  54.5659180  55.9827790   2.0537820  54.1954610  67.1280130
   1.3636140  54.0026810  67.7626220   2.7970120  54.4789250  67.6604430
   4.3300790  58.0353050  59.9634050   3.5981910  58.5439860  60.3124150
   3.9325130  57.2183030  59.6622830   4.7926700  53.4886730  59.3756990
   4.8099440  53.9395380  60.2198840   4.5442280  52.5892370  59.5890430
   8.2197450  50.9018910  65.2143370   8.5443220  50.1708570  65.7401350
   8.2553960  50.5832550  64.3124360   8.1455290  61.0144020  58.8229400
   8.8654410  61.5099310  58.4325510   7.9437110  60.3361910  58.1783270
   3.6065230  52.4081980  52.9658790   2.7929840  51.9095150  52.8904100
   3.4127180  53.2480230  52.5495140   3.5274090  61.0853080  64.7098400
   3.4611400  60.1648750  64.4555990   2.8979230  61.1828520  65.4243040
   6.3213620  56.7801630  51.2620950   7.2093240  57.0918860  51.0872290
   6.2918710  55.9073880  50.8701530   2.3174210  62.9525320  51.9409120
   2.6589910  63.6967550  51.4452440   1.4886920  63.2656440  52.3033950
   3.4590820  63.9073650  64.4602200   3.4735360  62.9754610  64.2421110
   2.7515920  63.9933410  65.0991970   8.5927890  58.0913470  50.7300810
   8.5091610  58.5227690  49.8797250   9.3122080  58.5511820  51.1627630
   9.6702030  60.5480990  63.8070780   8.9450220  61.1409770  63.6100170
  10.1977490  60.5404530  63.0084150   9.6215140  64.9455730  53.4582940
   8.9791300  64.2911350  53.7326660   9.2345800  65.3510820  52.6823610
   5.2001620  62.2741160  57.3054630   5.5525440  61.6769290  56.6456000
   4.3163950  61.9485390  57.4762880   2.8924720  65.5491220  61.5542700
   3.5366940  65.7550600  62.2316120   3.2554160  64.7879620  61.1013550
   4.1656800  63.5523570  60.2720150   4.8079030  62.8516730  60.3852320
   4.6906150  64.3322010  60.0917040   8.0112520  63.8372190  49.9959290
   7.7850100  63.1202630  50.5883930   7.6208720  63.5884630  49.1581040
   5.9394420  64.3518470  63.4756210   6.2750660  64.9385160  64.1534130
   5.0194760  64.2211180  63.7054000   7.5928770  61.7544130  51.6573450
   7.3050470  62.2156820  52.4451330   8.3880940  61.2941900  51.9257670
   1.7683000  64.4009800  66.6444270   1.4479870  63.6819040  67.1889960
   1.0941360  65.0764870  66.7180330   4.9836600  54.6335960  62.0081070
   5.3517420  53.8131170  62.3360640   4.1234800  54.6937850  62.4236720
   8.3498630  53.5892900  52.8168630   7.7211790  53.6938570  52.1026860
   7.8550550  53.8089680  53.6062510   2.7956770  65.3098490  50.2502610
   2.8968750  65.1062480  49.3204590   1.8958510  65.0556770  50.4550390
   1.9438590  57.2875550  62.2319040   2.4423840  57.7621370  62.8970890
   2.0861540  56.3639070  62.4389070   4.3498090  52.5929510  55.6722300
   4.2265870  52.6115640  54.7231810   5.2982650  52.6408450  55.7920700
   9.1505450  53.5043510  63.0747430   8.6479050  54.2448910  63.4141240
   9.9662110  53.8927510  62.7584220   7.4427460  58.7476690  56.5208790
   6.5017600  58.7626920  56.6956480   7.7571530  57.9612650  56.9669090
   9.4453040  65.9185540  58.1963050   9.5700460  66.7416710  58.6686860
  10.3118600  65.7076270  57.8487200   4.7593480  63.3042690  67.0041170
   4.1531640  63.3274290  66.2636920   4.4547590  62.5725730  67.5408420
   6.1893850  67.0322980  65.6150580   7.1415600  66.9481000  65.5650820
   6.0422070  67.6964690  66.2884370   9.0803050  66.4117190  51.1142490
   8.7944560  65.9982330  50.2996670   8.8822600  67.3404900  50.9943010
   3.7853010  61.4670500  50.1590090   3.2363110  61.9139800  50.8032830
   4.4072270  60.9619750  50.6827760   7.8387950  62.8212600  66.0912350
   8.5797420  63.1588360  65.5879810   7.0760630  62.9904660  65.5382120
   1.9655770  59.4499030  49.3032490   2.4861430  58.7348050  48.9373640
   2.6124170  60.0884900  49.6033000   6.5133610  60.8727430  64.6267560
   6.9274630  61.0272510  65.4757980   5.5784610  60.9982650  64.7893340
   6.9855780  58.2123590  66.6306710   7.5676550  57.4575910  66.5427190
   7.1617550  58.7431030  65.8538190   3.6112740  58.5564090  63.9801330
   3.7308950  57.9605230  64.7196170   4.4706740  58.5933780  63.5602630
   5.9500640  59.1101280  62.5563840   5.4235860  59.6343900  61.9528980
   6.2931980  59.7428670  63.1873570   5.1974940  54.7151250  65.4710170
   4.5090460  54.0532790  65.4060160   5.9180960  54.2689520  65.9158630
   5.8275340  51.3102880  51.5300430   6.1077630  50.4670780  51.8859850
   5.0541070  51.5425990  52.0439180   1.9818470  68.3652130  63.9707870
   1.9077170  69.2687270  64.2780240   1.0797310  68.0464030  63.9429940
   2.5303800  67.5310640  51.5934230   3.4254590  67.8695610  51.6152990
   2.5621430  66.8090050  50.9658510   9.5098150  66.0614310  64.3000430
   8.9100140  66.1206870  63.5564350   9.6392050  65.1219290  64.4297280
  10.7499600  63.8032130  49.6370140   9.9192560  63.8708780  50.1077370
  10.9271430  64.6936250  49.3337000  10.2056060  60.5479610  52.1404340
  10.9674970  61.1176260  52.2464030  10.2210430  59.9806810  52.9112650
  11.2116030  61.4029710  56.9846270  11.5824860  60.6197030  56.5782240
  11.8517960  62.0918810  56.8063570   8.1949790  62.7866290  62.3976590
   7.3809630  63.2163450  62.6602380   8.6023990  63.3984700  61.7845640
  10.2575230  60.8413980  49.2976860  10.5324070  61.7492860  49.1696080
  10.0685970  60.7776510  50.2338850   6.6550840  53.8658830  50.5930490
   7.0735720  53.6789810  49.7527150   6.3486900  53.0137880  50.9033420
  10.1540570  58.7782970  54.2906290   9.7784170  58.0110900  53.8587580
   9.4243690  59.1605670  54.7781220   9.5440190  57.9254490  63.9245810
   9.3126280  57.6967240  63.0243760   9.8044740  58.8454040  63.8790700
   7.9828260  53.1510920  66.7025510   8.8598440  53.1594320  67.0859510
   7.9949100  52.4141760  66.0917860   9.4291530  57.0040460  57.5913530
   9.9529010  56.5103110  56.9603700  10.0150950  57.1390820  58.3361100
   9.6081250  57.0880330  61.1133080   8.6583960  57.0543870  61.2278070
   9.7894260  57.9980440  60.8782850   8.9191500  56.2613810  53.5305940
   9.4150620  56.0284680  54.3154820   8.7207570  55.4225650  53.1143580
  10.3478660  54.8974760  56.0643620  10.2377940  54.7430800  57.0025890
  11.1086250  54.3695700  55.8219030   8.6944380  50.8368890  62.5226620
   9.3316600  51.4503030  62.8885810   8.8419270  50.8729550  61.5775850
  11.2368930  52.7282680  49.3049760  12.1618240  52.5963860  49.0968050
  11.2144720  52.8075500  50.2586210  11.3107420  53.4993340  51.9306470
  10.5158920  53.4338460  52.4599380  11.5150700  54.4343980  51.9191820
   8.2525840  67.5384890  55.9244860   8.8484910  67.2169460  55.2479280
   8.5103990  67.0656710  56.7158130   2.0648860  51.9895080  65.4301720
   2.0037750  52.5816910  66.1797130   3.0049240  51.8821040  65.2851980
   4.7023420  51.6465140  65.0694010   5.3163830  51.9644430  64.4075090
   5.2472980  51.1613730  65.6889870  11.1198600  67.5456770  62.4755850
  10.6256880  67.9425640  61.7582980  10.5111890  66.9205980  62.8693130
   5.4431460  50.2097280  61.3963300   4.5691300  50.5432390  61.1936230
   5.3342210  49.7370460  62.2215170   6.3503440  52.4168150  62.7805020
   6.0216800  51.6019910  62.4006750   7.2985740  52.3737960  62.6570710
   8.8038050  68.1880190  59.7542590   8.3441020  68.9396000  59.3800610
   8.1750510  67.4686660  59.6957390   1.9729270  67.3876920  59.7559700
   2.2607080  67.1331220  58.8792710   2.4852490  66.8354280  60.3465270
   3.1906280  51.1267120  60.3356210   2.4078070  51.6012620  60.6152970
   2.8969210  50.2221950  60.2269390   7.7427350  51.8290220  58.3805300
   8.1835440  51.7735320  57.5326900   7.4734940  52.7448230  58.4515480
   9.6065920  51.4605460  56.3914120   9.5454320  50.5166680  56.2445140
  10.3857950  51.5685550  56.9367580   5.5785480  50.2096320  57.0855310
   6.1814850  50.7816530  57.5603830   4.8378470  50.7735760  56.8629210
   8.7220080  50.6117880  52.3595590   8.9170710  51.5101330  52.6263020
   7.9349950  50.3804960  52.8528540   2.0401630  68.3093020  67.1227900
   2.9668940  68.0737290  67.1663860   2.0252060  69.1365020  66.6413930
  10.2746690  67.8518590  54.1202150  10.4498880  67.1656330  53.4763070
   9.5768260  68.3765640  53.7278820   5.8280700  50.3891350  67.4650250
   5.7146150  50.7085960  68.3601770   6.6450440  50.7903860  67.1687530
   8.6079190  67.5362880  66.9468940   9.4004510  67.0412110  66.7394900
   8.9012340  68.2153020  67.5544550   4.7338850  58.4083820  37.8284990
   4.6532900  57.4938430  37.5576700   4.3203270  58.9050890  37.1224700
   2.8656890  60.1862840  39.7094260   2.0898990  59.7063280  39.9992830
   3.5169820  59.5068490  39.5350420   6.8864320  64.5923030  38.4893390
   6.4245850  63.8210270  38.8180560   7.6989870  64.6189100  38.9945840
   3.1127630  66.8781040  38.1097380   2.4939070  67.3338540  37.5391820
   3.9679410  67.0332500  37.7087080   2.3065880  62.8620030  39.7164420
   2.2374160  61.9209970  39.5553550   3.0685740  62.9521440  40.2886990
   3.3371050  55.6690410  39.9433350   3.7135870  54.7962290  39.8307020
   3.2390560  56.0049110  39.0523790   7.1195170  53.1640850  36.8761690
   7.9404790  52.6737420  36.9187170   7.1529250  53.7538510  37.6293530
  11.4094720  55.1807600  43.4405320  10.7046890  55.5689310  42.9220430
  11.6752640  55.8757890  44.0426250   3.9790980  61.7620280  35.5029290
   3.3608250  62.2269730  34.9392010   4.4914230  62.4547760  35.9198800
   7.3556650  55.1041230  39.6489230   6.6512220  55.3926120  40.2292340
   7.7168810  55.9141340  39.2888790   8.9719430  64.7216360  41.9116710
   8.2882950  65.3915470  41.9033380   9.5113720  64.9197010  41.1461570
  10.4243570  54.5496020  40.0398440   9.4768480  54.5835000  40.1713870
  10.7493560  55.3634970  40.4247800   6.5078170  66.5660490  40.6261890
   6.5205330  66.1622780  39.7584150   5.9553390  67.3407780  40.5223320
   7.8023590  63.2876710  35.7152060   7.6919920  62.3451040  35.8401480
   7.7991840  63.6492350  36.6014820   5.9063610  61.4690330  41.9544500
   6.3232400  61.2550440  41.1197960   6.6303430  61.7263120  42.5253120
   3.3443870  58.9142030  35.0714550   2.4173150  58.8479410  35.3003020
   3.4968690  59.8522160  34.9569790   3.3312950  55.1859030  32.0681710
   2.3916620  55.3472990  32.1534170   3.6496210  55.9044710  31.5217700
   9.8525710  59.8677550  42.0460740   9.0244340  59.9370640  41.5710870
  10.4476190  60.4531860  41.5776570   7.3741160  60.4762330  35.5749800
   6.7553580  60.1381880  34.9276100   7.3565610  59.8322090  36.2828990
   6.8167720  56.6546870  42.9915610   6.4038900  57.4800580  43.2455600
   6.0843670  56.0691910  42.7991970   7.5067820  66.7006200  43.6796590
   7.0298380  67.5078390  43.4869200   6.8229610  66.0484530  43.8322800
   5.5505860  59.7149140  32.5822550   5.9899140  58.8771570  32.4360370
   6.2634280  60.3478540  32.6686690   3.6601240  64.6545210  36.5503790
   4.0997150  65.3969540  36.1359180   3.5988130  64.8971780  37.4742750
   9.1323000  50.9691950  30.8963590   8.8195660  51.0618780  31.7962660
   9.8935470  51.5472980  30.8461020  11.0867030  66.4618140  48.7487980
  11.5626750  66.9401030  49.4277060  11.7074190  66.3935630  48.0233480
  10.4900280  63.6530990  45.9087990  10.6163340  63.4142870  44.9905170
  10.5321660  62.8215530  46.3810070   4.3517020  67.3558990  44.4782800
   4.8661690  67.2667000  45.2805230   3.5086100  67.7018690  44.7710710
   6.3271420  67.6414330  33.9066800   6.1672560  67.3517270  34.8048630
   6.1618130  66.8654460  33.3712030   6.0297550  65.1501890  32.4664800
   5.3362710  65.1479180  31.8067080   6.7720410  64.7261210  32.0358970
   5.5947480  66.7764600  36.5413290   6.0504430  65.9953980  36.8551910
   5.9340000  67.4871420  37.0854470  10.3424290  55.7063450  46.8737730
   9.7268560  56.2143120  46.3453190  10.0220710  54.8061780  46.8163670
   2.4038610  54.5455340  44.3399920   1.9417980  54.7538360  45.1519860
   2.0016720  53.7314690  44.0370590   7.4043120  55.7664290  45.4696580
   6.5536710  55.4670040  45.7905650   7.2444910  56.0106300  44.5580400
   4.4992830  57.2666040  47.5695370   4.8246240  56.4329790  47.2297600
   5.2873160  57.7894560  47.7173700   5.1380780  56.8083760  35.0636500
   4.5389670  57.5319560  34.8800120   5.6860390  56.7460540  34.2812950
   3.7445650  55.4447300  37.0939780   4.1375220  55.7619500  36.2808470
   4.1062500  54.5659180  37.2084300   2.0537820  54.1954610  48.3536640
   1.3636140  54.0026810  48.9882730   2.7970120  54.4789250  48.8860940
   4.3300790  58.0353050  41.1890560   3.5981910  58.5439860  41.5380660
   3.9325130  57.2183030  40.8879340   4.7926700  53.4886730  40.6013500
   4.8099440  53.9395380  41.4455350   4.5442280  52.5892370  40.8146940
   8.2197450  50.9018910  46.4399880   8.5443220  50.1708570  46.9657860
   8.2553960  50.5832550  45.5380870   8.1455290  61.0144020  40.0485910
   8.8654410  61.5099310  39.6582020   7.9437110  60.3361910  39.4039780
   3.6065230  52.4081980  34.1915300   2.7929840  51.9095150  34.1160610
   3.4127180  53.2480230  33.7751650   3.5274090  61.0853080  45.9354910
   3.4611400  60.1648750  45.6812500   2.8979230  61.1828520  46.6499550
   6.3213620  56.7801630  32.4877460   7.2093240  57.0918860  32.3128800
   6.2918710  55.9073880  32.0958040   2.3174210  62.9525320  33.1665630
   2.6589910  63.6967550  32.6708950   1.4886920  63.2656440  33.5290460
   3.4590820  63.9073650  45.6858710   3.4735360  62.9754610  45.4677620
   2.7515920  63.9933410  46.3248480   8.5927890  58.0913470  31.9557320
   8.5091610  58.5227690  31.1053760   9.3122080  58.5511820  32.3884140
   9.6702030  60.5480990  45.0327290   8.9450220  61.1409770  44.8356680
  10.1977490  60.5404530  44.2340660   9.6215140  64.9455730  34.6839450
   8.9791300  64.2911350  34.9583170   9.2345800  65.3510820  33.9080120
   5.2001620  62.2741160  38.5311140   5.5525440  61.6769290  37.8712510
   4.3163950  61.9485390  38.7019390   2.8924720  65.5491220  42.7799210
   3.5366940  65.7550600  43.4572630   3.2554160  64.7879620  42.3270060
   4.1656800  63.5523570  41.4976660   4.8079030  62.8516730  41.6108830
   4.6906150  64.3322010  41.3173550   8.0112520  63.8372190  31.2215800
   7.7850100  63.1202630  31.8140440   7.6208720  63.5884630  30.3837550
   5.9394420  64.3518470  44.7012720   6.2750660  64.9385160  45.3790640
   5.0194760  64.2211180  44.9310510   7.5928770  61.7544130  32.8829960
   7.3050470  62.2156820  33.6707840   8.3880940  61.2941900  33.1514180
   1.7683000  64.4009800  47.8700780   1.4479870  63.6819040  48.4146470
   1.0941360  65.0764870  47.9436840   4.9836600  54.6335960  43.2337580
   5.3517420  53.8131170  43.5617150   4.1234800  54.6937850  43.6493230
   8.3498630  53.5892900  34.0425140   7.7211790  53.6938570  33.3283370
   7.8550550  53.8089680  34.8319020   2.7956770  65.3098490  31.4759120
   2.8968750  65.1062480  30.5461100   1.8958510  65.0556770  31.6806900
   1.9438590  57.2875550  43.4575550   2.4423840  57.7621370  44.1227400
   2.0861540  56.3639070  43.6645580   4.3498090  52.5929510  36.8978810
   4.2265870  52.6115640  35.9488320   5.2982650  52.6408450  37.0177210
   9.1505450  53.5043510  44.3003940   8.6479050  54.2448910  44.6397750
   9.9662110  53.8927510  43.9840730   7.4427460  58.7476690  37.7465300
   6.5017600  58.7626920  37.9212990   7.7571530  57.9612650  38.1925600
   9.4453040  65.9185540  39.4219560   9.5700460  66.7416710  39.8943370
  10.3118600  65.7076270  39.0743710   4.7593480  63.3042690  48.2297680
   4.1531640  63.3274290  47.4893430   4.4547590  62.5725730  48.7664930
   6.1893850  67.0322980  46.8407090   7.1415600  66.9481000  46.7907330
   6.0422070  67.6964690  47.5140880   9.0803050  66.4117190  32.3399000
   8.7944560  65.9982330  31.5253180   8.8822600  67.3404900  32.2199520
   3.7853010  61.4670500  31.3846600   3.2363110  61.9139800  32.0289340
   4.4072270  60.9619750  31.9084270   7.8387950  62.8212600  47.3168860
   8.5797420  63.1588360  46.8136320   7.0760630  62.9904660  46.7638630
   1.9655770  59.4499030  30.5289000   2.4861430  58.7348050  30.1630150
   2.6124170  60.0884900  30.8289510   6.5133610  60.8727430  45.8524070
   6.9274630  61.0272510  46.7014490   5.5784610  60.9982650  46.0149850
   6.9855780  58.2123590  47.8563220   7.5676550  57.4575910  47.7683700
   7.1617550  58.7431030  47.0794700   3.6112740  58.5564090  45.2057840
   3.7308950  57.9605230  45.9452680   4.4706740  58.5933780  44.7859140
   5.9500640  59.1101280  43.7820350   5.4235860  59.6343900  43.1785490
   6.2931980  59.7428670  44.4130080   5.1974940  54.7151250  46.6966680
   4.5090460  54.0532790  46.6316670   5.9180960  54.2689520  47.1415140
   5.8275340  51.3102880  32.7556940   6.1077630  50.4670780  33.1116360
   5.0541070  51.5425990  33.2695690   1.9818470  68.3652130  45.1964380
   1.9077170  69.2687270  45.5036750   1.0797310  68.0464030  45.1686450
   2.5303800  67.5310640  32.8190740   3.4254590  67.8695610  32.8409500
   2.5621430  66.8090050  32.1915020   9.5098150  66.0614310  45.5256940
   8.9100140  66.1206870  44.7820860   9.6392050  65.1219290  45.6553790
  10.7499600  63.8032130  30.8626650   9.9192560  63.8708780  31.3333880
  10.9271430  64.6936250  30.5593510  10.2056060  60.5479610  33.3660850
  10.9674970  61.1176260  33.4720540  10.2210430  59.9806810  34.1369160
  11.2116030  61.4029710  38.2102780  11.5824860  60.6197030  37.8038750
  11.8517960  62.0918810  38.0320080   8.1949790  62.7866290  43.6233100
   7.3809630  63.2163450  43.8858890   8.6023990  63.3984700  43.0102150
  10.2575230  60.8413980  30.5233370  10.5324070  61.7492860  30.3952590
  10.0685970  60.7776510  31.4595360   6.6550840  53.8658830  31.8187000
   7.0735720  53.6789810  30.9783660   6.3486900  53.0137880  32.1289930
  10.1540570  58.7782970  35.5162800   9.7784170  58.0110900  35.0844090
   9.4243690  59.1605670  36.0037730   9.5440190  57.9254490  45.1502320
   9.3126280  57.6967240  44.2500270   9.8044740  58.8454040  45.1047210
   7.9828260  53.1510920  47.9282020   8.8598440  53.1594320  48.3116020
   7.9949100  52.4141760  47.3174370   9.4291530  57.0040460  38.8170040
   9.9529010  56.5103110  38.1860210  10.0150950  57.1390820  39.5617610
   9.6081250  57.0880330  42.3389590   8.6583960  57.0543870  42.4534580
   9.7894260  57.9980440  42.1039360   8.9191500  56.2613810  34.7562450
   9.4150620  56.0284680  35.5411330   8.7207570  55.4225650  34.3400090
  10.3478660  54.8974760  37.2900130  10.2377940  54.7430800  38.2282400
  11.1086250  54.3695700  37.0475540   8.6944380  50.8368890  43.7483130
   9.3316600  51.4503030  44.1142320   8.8419270  50.8729550  42.8032360
  11.2368930  52.7282680  30.5306270  12.1618240  52.5963860  30.3224560
  11.2144720  52.8075500  31.4842720  11.3107420  53.4993340  33.1562980
  10.5158920  53.4338460  33.6855890  11.5150700  54.4343980  33.1448330
   8.2525840  67.5384890  37.1501370   8.8484910  67.2169460  36.4735790
   8.5103990  67.0656710  37.9414640   2.0648860  51.9895080  46.6558230
   2.0037750  52.5816910  47.4053640   3.0049240  51.8821040  46.5108490
   4.7023420  51.6465140  46.2950520   5.3163830  51.9644430  45.6331600
   5.2472980  51.1613730  46.9146380  11.1198600  67.5456770  43.7012360
  10.6256880  67.9425640  42.9839490  10.5111890  66.9205980  44.0949640
   5.4431460  50.2097280  42.6219810   4.5691300  50.5432390  42.4192740
   5.3342210  49.7370460  43.4471680   6.3503440  52.4168150  44.0061530
   6.0216800  51.6019910  43.6263260   7.2985740  52.3737960  43.8827220
   8.8038050  68.1880190  40.9799100   8.3441020  68.9396000  40.6057120
   8.1750510  67.4686660  40.9213900   1.9729270  67.3876920  40.9816210
   2.2607080  67.1331220  40.1049220   2.4852490  66.8354280  41.5721780
   3.1906280  51.1267120  41.5612720   2.4078070  51.6012620  41.8409480
   2.8969210  50.2221950  41.4525900   7.7427350  51.8290220  39.6061810
   8.1835440  51.7735320  38.7583410   7.4734940  52.7448230  39.6771990
   9.6065920  51.4605460  37.6170630   9.5454320  50.5166680  37.4701650
  10.3857950  51.5685550  38.1624090   5.5785480  50.2096320  38.3111820
   6.1814850  50.7816530  38.7860340   4.8378470  50.7735760  38.0885720
   8.7220080  50.6117880  33.5852100   8.9170710  51.5101330  33.8519530
   7.9349950  50.3804960  34.0785050   2.0401630  68.3093020  48.3484410
   2.9668940  68.0737290  48.3920370   2.0252060  69.1365020  47.8670440
  10.2746690  67.8518590  35.3458660  10.4498880  67.1656330  34.7019580
   9.5768260  68.3765640  34.9535330   5.8280700  50.3891350  48.6906760
   5.7146150  50.7085960  49.5858280   6.6450440  50.7903860  48.3944040
   8.6079190  67.5362880  48.1725450   9.4004510  67.0412110  47.9651410
   8.9012340  68.2153020  48.7801060   4.7338850  58.4083820  19.0541500
   4.6532900  57.4938430  18.7833210   4.3203270  58.9050890  18.3481210
   2.8656890  60.1862840  20.9350770   2.0898990  59.7063280  21.2249340
   3.5169820  59.5068490  20.7606930   6.8864320  64.5923030  19.7149900
   6.4245850  63.8210270  20.0437070   7.6989870  64.6189100  20.2202350
   3.1127630  66.8781040  19.3353890   2.4939070  67.3338540  18.7648330
   3.9679410  67.0332500  18.9343590   2.3065880  62.8620030  20.9420930
   2.2374160  61.9209970  20.7810060   3.0685740  62.9521440  21.5143500
   3.3371050  55.6690410  21.1689860   3.7135870  54.7962290  21.0563530
   3.2390560  56.0049110  20.2780300   7.1195170  53.1640850  18.1018200
   7.9404790  52.6737420  18.1443680   7.1529250  53.7538510  18.8550040
  11.4094720  55.1807600  24.6661830  10.7046890  55.5689310  24.1476940
  11.6752640  55.8757890  25.2682760   3.9790980  61.7620280  16.7285800
   3.3608250  62.2269730  16.1648520   4.4914230  62.4547760  17.1455310
   7.3556650  55.1041230  20.8745740   6.6512220  55.3926120  21.4548850
   7.7168810  55.9141340  20.5145300   8.9719430  64.7216360  23.1373220
   8.2882950  65.3915470  23.1289890   9.5113720  64.9197010  22.3718080
  10.4243570  54.5496020  21.2654950   9.4768480  54.5835000  21.3970380
  10.7493560  55.3634970  21.6504310   6.5078170  66.5660490  21.8518400
   6.5205330  66.1622780  20.9840660   5.9553390  67.3407780  21.7479830
   7.8023590  63.2876710  16.9408570   7.6919920  62.3451040  17.0657990
   7.7991840  63.6492350  17.8271330   5.9063610  61.4690330  23.1801010
   6.3232400  61.2550440  22.3454470   6.6303430  61.7263120  23.7509630
   3.3443870  58.9142030  16.2971060   2.4173150  58.8479410  16.5259530
   3.4968690  59.8522160  16.1826300   3.3312950  55.1859030  13.2938220
   2.3916620  55.3472990  13.3790680   3.6496210  55.9044710  12.7474210
   9.8525710  59.8677550  23.2717250   9.0244340  59.9370640  22.7967380
  10.4476190  60.4531860  22.8033080   7.3741160  60.4762330  16.8006310
   6.7553580  60.1381880  16.1532610   7.3565610  59.8322090  17.5085500
   6.8167720  56.6546870  24.2172120   6.4038900  57.4800580  24.4712110
   6.0843670  56.0691910  24.0248480   7.5067820  66.7006200  24.9053100
   7.0298380  67.5078390  24.7125710   6.8229610  66.0484530  25.0579310
   5.5505860  59.7149140  13.8079060   5.9899140  58.8771570  13.6616880
   6.2634280  60.3478540  13.8943200   3.6601240  64.6545210  17.7760300
   4.0997150  65.3969540  17.3615690   3.5988130  64.8971780  18.6999260
   9.1323000  50.9691950  12.1220100   8.8195660  51.0618780  13.0219170
   9.8935470  51.5472980  12.0717530  11.0867030  66.4618140  29.9744490
  11.5626750  66.9401030  30.6533570  11.7074190  66.3935630  29.2489990
  10.4900280  63.6530990  27.1344500  10.6163340  63.4142870  26.2161680
  10.5321660  62.8215530  27.6066580   4.3517020  67.3558990  25.7039310
   4.8661690  67.2667000  26.5061740   3.5086100  67.7018690  25.9967220
   6.3271420  67.6414330  15.1323310   6.1672560  67.3517270  16.0305140
   6.1618130  66.8654460  14.5968540   6.0297550  65.1501890  13.6921310
   5.3362710  65.1479180  13.0323590   6.7720410  64.7261210  13.2615480
   5.5947480  66.7764600  17.7669800   6.0504430  65.9953980  18.0808420
   5.9340000  67.4871420  18.3110980  10.3424290  55.7063450  28.0994240
   9.7268560  56.2143120  27.5709700  10.0220710  54.8061780  28.0420180
   2.4038610  54.5455340  25.5656430   1.9417980  54.7538360  26.3776370
   2.0016720  53.7314690  25.2627100   7.4043120  55.7664290  26.6953090
   6.5536710  55.4670040  27.0162160   7.2444910  56.0106300  25.7836910
   4.4992830  57.2666040  28.7951880   4.8246240  56.4329790  28.4554110
   5.2873160  57.7894560  28.9430210   5.1380780  56.8083760  16.2893010
   4.5389670  57.5319560  16.1056630   5.6860390  56.7460540  15.5069460
   3.7445650  55.4447300  18.3196290   4.1375220  55.7619500  17.5064980
   4.1062500  54.5659180  18.4340810   2.0537820  54.1954610  29.5793150
   1.3636140  54.0026810  30.2139240   2.7970120  54.4789250  30.1117450
   4.3300790  58.0353050  22.4147070   3.5981910  58.5439860  22.7637170
   3.9325130  57.2183030  22.1135850   4.7926700  53.4886730  21.8270010
   4.8099440  53.9395380  22.6711860   4.5442280  52.5892370  22.0403450
   8.2197450  50.9018910  27.6656390   8.5443220  50.1708570  28.1914370
   8.2553960  50.5832550  26.7637380   8.1455290  61.0144020  21.2742420
   8.8654410  61.5099310  20.8838530   7.9437110  60.3361910  20.6296290
   3.6065230  52.4081980  15.4171810   2.7929840  51.9095150  15.3417120
   3.4127180  53.2480230  15.0008160   3.5274090  61.0853080  27.1611420
   3.4611400  60.1648750  26.9069010   2.8979230  61.1828520  27.8756060
   6.3213620  56.7801630  13.7133970   7.2093240  57.0918860  13.5385310
   6.2918710  55.9073880  13.3214550   2.3174210  62.9525320  14.3922140
   2.6589910  63.6967550  13.8965460   1.4886920  63.2656440  14.7546970
   3.4590820  63.9073650  26.9115220   3.4735360  62.9754610  26.6934130
   2.7515920  63.9933410  27.5504990   8.5927890  58.0913470  13.1813830
   8.5091610  58.5227690  12.3310270   9.3122080  58.5511820  13.6140650
   9.6702030  60.5480990  26.2583800   8.9450220  61.1409770  26.0613190
  10.1977490  60.5404530  25.4597170   9.6215140  64.9455730  15.9095960
   8.9791300  64.2911350  16.1839680   9.2345800  65.3510820  15.1336630
   5.2001620  62.2741160  19.7567650   5.5525440  61.6769290  19.0969020
   4.3163950  61.9485390  19.9275900   2.8924720  65.5491220  24.0055720
   3.5366940  65.7550600  24.6829140   3.2554160  64.7879620  23.5526570
   4.1656800  63.5523570  22.7233170   4.8079030  62.8516730  22.8365340
   4.6906150  64.3322010  22.5430060   8.0112520  63.8372190  12.4472310
   7.7850100  63.1202630  13.0396950   7.6208720  63.5884630  11.6094060
   5.9394420  64.3518470  25.9269230   6.2750660  64.9385160  26.6047150
   5.0194760  64.2211180  26.1567020   7.5928770  61.7544130  14.1086470
   7.3050470  62.2156820  14.8964350   8.3880940  61.2941900  14.3770690
   1.7683000  64.4009800  29.0957290   1.4479870  63.6819040  29.6402980
   1.0941360  65.0764870  29.1693350   4.9836600  54.6335960  24.4594090
   5.3517420  53.8131170  24.7873660   4.1234800  54.6937850  24.8749740
   8.3498630  53.5892900  15.2681650   7.7211790  53.6938570  14.5539880
   7.8550550  53.8089680  16.0575530   2.7956770  65.3098490  12.7015630
   2.8968750  65.1062480  11.7717610   1.8958510  65.0556770  12.9063410
   1.9438590  57.2875550  24.6832060   2.4423840  57.7621370  25.3483910
   2.0861540  56.3639070  24.8902090   4.3498090  52.5929510  18.1235320
   4.2265870  52.6115640  17.1744830   5.2982650  52.6408450  18.2433720
   9.1505450  53.5043510  25.5260450   8.6479050  54.2448910  25.8654260
   9.9662110  53.8927510  25.2097240   7.4427460  58.7476690  18.9721810
   6.5017600  58.7626920  19.1469500   7.7571530  57.9612650  19.4182110
   9.4453040  65.9185540  20.6476070   9.5700460  66.7416710  21.1199880
  10.3118600  65.7076270  20.3000220   4.7593480  63.3042690  29.4554190
   4.1531640  63.3274290  28.7149940   4.4547590  62.5725730  29.9921440
   6.1893850  67.0322980  28.0663600   7.1415600  66.9481000  28.0163840
   6.0422070  67.6964690  28.7397390   9.0803050  66.4117190  13.5655510
   8.7944560  65.9982330  12.7509690   8.8822600  67.3404900  13.4456030
   3.7853010  61.4670500  12.6103110   3.2363110  61.9139800  13.2545850
   4.4072270  60.9619750  13.1340780   7.8387950  62.8212600  28.5425370
   8.5797420  63.1588360  28.0392830   7.0760630  62.9904660  27.9895140
   1.9655770  59.4499030  11.7545510   2.4861430  58.7348050  11.3886660
   2.6124170  60.0884900  12.0546020   6.5133610  60.8727430  27.0780580
   6.9274630  61.0272510  27.9271000   5.5784610  60.9982650  27.2406360
   6.9855780  58.2123590  29.0819730   7.5676550  57.4575910  28.9940210
   7.1617550  58.7431030  28.3051210   3.6112740  58.5564090  26.4314350
   3.7308950  57.9605230  27.1709190   4.4706740  58.5933780  26.0115650
   5.9500640  59.1101280  25.0076860   5.4235860  59.6343900  24.4042000
   6.2931980  59.7428670  25.6386590   5.1974940  54.7151250  27.9223190
   4.5090460  54.0532790  27.8573180   5.9180960  54.2689520  28.3671650
   5.8275340  51.3102880  13.9813450   6.1077630  50.4670780  14.3372870
   5.0541070  51.5425990  14.4952200   1.9818470  68.3652130  26.4220890
   1.9077170  69.2687270  26.7293260   1.0797310  68.0464030  26.3942960
   2.5303800  67.5310640  14.0447250   3.4254590  67.8695610  14.0666010
   2.5621430  66.8090050  13.4171530   9.5098150  66.0614310  26.7513450
   8.9100140  66.1206870  26.0077370   9.6392050  65.1219290  26.8810300
  10.7499600  63.8032130  12.0883160   9.9192560  63.8708780  12.5590390
  10.9271430  64.6936250  11.7850020  10.2056060  60.5479610  14.5917360
  10.9674970  61.1176260  14.6977050  10.2210430  59.9806810  15.3625670
  11.2116030  61.4029710  19.4359290  11.5824860  60.6197030  19.0295260
  11.8517960  62.0918810  19.2576590   8.1949790  62.7866290  24.8489610
   7.3809630  63.2163450  25.1115400   8.6023990  63.3984700  24.2358660
  10.2575230  60.8413980  11.7489880  10.5324070  61.7492860  11.6209100
  10.0685970  60.7776510  12.6851870   6.6550840  53.8658830  13.0443510
   7.0735720  53.6789810  12.2040170   6.3486900  53.0137880  13.3546440
  10.1540570  58.7782970  16.7419310   9.7784170  58.0110900  16.3100600
   9.4243690  59.1605670  17.2294240   9.5440190  57.9254490  26.3758830
   9.3126280  57.6967240  25.4756780   9.8044740  58.8454040  26.3303720
   7.9828260  53.1510920  29.1538530   8.8598440  53.1594320  29.5372530
   7.9949100  52.4141760  28.5430880   9.4291530  57.0040460  20.0426550
   9.9529010  56.5103110  19.4116720  10.0150950  57.1390820  20.7874120
   9.6081250  57.0880330  23.5646100   8.6583960  57.0543870  23.6791090
   9.7894260  57.9980440  23.3295870   8.9191500  56.2613810  15.9818960
   9.4150620  56.0284680  16.7667840   8.7207570  55.4225650  15.5656600
  10.3478660  54.8974760  18.5156640  10.2377940  54.7430800  19.4538910
  11.1086250  54.3695700  18.2732050   8.6944380  50.8368890  24.9739640
   9.3316600  51.4503030  25.3398830   8.8419270  50.8729550  24.0288870
  11.2368930  52.7282680  11.7562780  12.1618240  52.5963860  11.5481070
  11.2144720  52.8075500  12.7099230  11.3107420  53.4993340  14.3819490
  10.5158920  53.4338460  14.9112400  11.5150700  54.4343980  14.3704840
   8.2525840  67.5384890  18.3757880   8.8484910  67.2169460  17.6992300
   8.5103990  67.0656710  19.1671150   2.0648860  51.9895080  27.8814740
   2.0037750  52.5816910  28.6310150   3.0049240  51.8821040  27.7365000
   4.7023420  51.6465140  27.5207030   5.3163830  51.9644430  26.8588110
   5.2472980  51.1613730  28.1402890  11.1198600  67.5456770  24.9268870
  10.6256880  67.9425640  24.2096000  10.5111890  66.9205980  25.3206150
   5.4431460  50.2097280  23.8476320   4.5691300  50.5432390  23.6449250
   5.3342210  49.7370460  24.6728190   6.3503440  52.4168150  25.2318040
   6.0216800  51.6019910  24.8519770   7.2985740  52.3737960  25.1083730
   8.8038050  68.1880190  22.2055610   8.3441020  68.9396000  21.8313630
   8.1750510  67.4686660  22.1470410   1.9729270  67.3876920  22.2072720
   2.2607080  67.1331220  21.3305730   2.4852490  66.8354280  22.7978290
   3.1906280  51.1267120  22.7869230   2.4078070  51.6012620  23.0665990
   2.8969210  50.2221950  22.6782410   7.7427350  51.8290220  20.8318320
   8.1835440  51.7735320  19.9839920   7.4734940  52.7448230  20.9028500
   9.6065920  51.4605460  18.8427140   9.5454320  50.5166680  18.6958160
  10.3857950  51.5685550  19.3880600   5.5785480  50.2096320  19.5368330
   6.1814850  50.7816530  20.0116850   4.8378470  50.7735760  19.3142230
   8.7220080  50.6117880  14.8108610   8.9170710  51.5101330  15.0776040
   7.9349950  50.3804960  15.3041560   2.0401630  68.3093020  29.5740920
   2.9668940  68.0737290  29.6176880   2.0252060  69.1365020  29.0926950
  10.2746690  67.8518590  16.5715170  10.4498880  67.1656330  15.9276090
   9.5768260  68.3765640  16.1791840   5.8280700  50.3891350  29.9163270
   5.7146150  50.7085960  30.8114790   6.6450440  50.7903860  29.6200550
   8.6079190  67.5362880  29.3981960   9.4004510  67.0412110  29.1907920
   8.9012340  68.2153020  30.0057570   2.8656890  60.1862840   2.1607280
   2.0898990  59.7063280   2.4505850   3.5169820  59.5068490   1.9863440
   2.3065880  62.8620030   2.1677440   2.2374160  61.9209970   2.0066570
   3.0685740  62.9521440   2.7400010  11.4094720  55.1807600   5.8918340
  10.7046890  55.5689310   5.3733450  11.6752640  55.8757890   6.4939270
   7.3556650  55.1041230   2.1002250   6.6512220  55.3926120   2.6805360
   7.7168810  55.9141340   1.7401810   8.9719430  64.7216360   4.3629730
   8.2882950  65.3915470   4.3546400   9.5113720  64.9197010   3.5974590
  10.4243570  54.5496020   2.4911460   9.4768480  54.5835000   2.6226890
  10.7493560  55.3634970   2.8760820   6.5078170  66.5660490   3.0774910
   6.5205330  66.1622780   2.2097170   5.9553390  67.3407780   2.9736340
   5.9063610  61.4690330   4.4057520   6.3232400  61.2550440   3.5710980
   6.6303430  61.7263120   4.9766140   9.8525710  59.8677550   4.4973760
   9.0244340  59.9370640   4.0223890  10.4476190  60.4531860   4.0289590
   6.8167720  56.6546870   5.4428630   6.4038900  57.4800580   5.6968620
   6.0843670  56.0691910   5.2504990   7.5067820  66.7006200   6.1309610
   7.0298380  67.5078390   5.9382220   6.8229610  66.0484530   6.2835820
  11.0867030  66.4618140  11.2001000  11.5626750  66.9401030  11.8790080
  11.7074190  66.3935630  10.4746500  10.4900280  63.6530990   8.3601010
  10.6163340  63.4142870   7.4418190  10.5321660  62.8215530   8.8323090
   4.3517020  67.3558990   6.9295820   4.8661690  67.2667000   7.7318250
   3.5086100  67.7018690   7.2223730  10.3424290  55.7063450   9.3250750
   9.7268560  56.2143120   8.7966210  10.0220710  54.8061780   9.2676690
   2.4038610  54.5455340   6.7912940   1.9417980  54.7538360   7.6032880
   2.0016720  53.7314690   6.4883610   7.4043120  55.7664290   7.9209600
   6.5536710  55.4670040   8.2418670   7.2444910  56.0106300   7.0093420
   4.4992830  57.2666040  10.0208390   4.8246240  56.4329790   9.6810620
   5.2873160  57.7894560  10.1686720   2.0537820  54.1954610  10.8049660
   1.3636140  54.0026810  11.4395750   2.7970120  54.4789250  11.3373960
   4.3300790  58.0353050   3.6403580   3.5981910  58.5439860   3.9893680
   3.9325130  57.2183030   3.3392360   4.7926700  53.4886730   3.0526520
   4.8099440  53.9395380   3.8968370   4.5442280  52.5892370   3.2659960
   8.2197450  50.9018910   8.8912900   8.5443220  50.1708570   9.4170880
   8.2553960  50.5832550   7.9893890   8.1455290  61.0144020   2.4998930
   8.8654410  61.5099310   2.1095040   7.9437110  60.3361910   1.8552800
   3.5274090  61.0853080   8.3867930   3.4611400  60.1648750   8.1325520
   2.8979230  61.1828520   9.1012570   3.4590820  63.9073650   8.1371730
   3.4735360  62.9754610   7.9190640   2.7515920  63.9933410   8.7761500
   9.6702030  60.5480990   7.4840310   8.9450220  61.1409770   7.2869700
  10.1977490  60.5404530   6.6853680   2.8924720  65.5491220   5.2312230
   3.5366940  65.7550600   5.9085650   3.2554160  64.7879620   4.7783080
   4.1656800  63.5523570   3.9489680   4.8079030  62.8516730   4.0621850
   4.6906150  64.3322010   3.7686570   5.9394420  64.3518470   7.1525740
   6.2750660  64.9385160   7.8303660   5.0194760  64.2211180   7.3823530
   1.7683000  64.4009800  10.3213800   1.4479870  63.6819040  10.8659490
   1.0941360  65.0764870  10.3949860   4.9836600  54.6335960   5.6850600
   5.3517420  53.8131170   6.0130170   4.1234800  54.6937850   6.1006250
   1.9438590  57.2875550   5.9088570   2.4423840  57.7621370   6.5740420
   2.0861540  56.3639070   6.1158600   9.1505450  53.5043510   6.7516960
   8.6479050  54.2448910   7.0910770   9.9662110  53.8927510   6.4353750
   4.7593480  63.3042690  10.6810700   4.1531640  63.3274290   9.9406450
   4.4547590  62.5725730  11.2177950   6.1893850  67.0322980   9.2920110
   7.1415600  66.9481000   9.2420350   6.0422070  67.6964690   9.9653900
   7.8387950  62.8212600   9.7681880   8.5797420  63.1588360   9.2649340
   7.0760630  62.9904660   9.2151650   6.5133610  60.8727430   8.3037090
   6.9274630  61.0272510   9.1527510   5.5784610  60.9982650   8.4662870
   6.9855780  58.2123590  10.3076240   7.5676550  57.4575910  10.2196720
   7.1617550  58.7431030   9.5307720   3.6112740  58.5564090   7.6570860
   3.7308950  57.9605230   8.3965700   4.4706740  58.5933780   7.2372160
   5.9500640  59.1101280   6.2333370   5.4235860  59.6343900   5.6298510
   6.2931980  59.7428670   6.8643100   5.1974940  54.7151250   9.1479700
   4.5090460  54.0532790   9.0829690   5.9180960  54.2689520   9.5928160
   1.9818470  68.3652130   7.6477400   1.9077170  69.2687270   7.9549770
   1.0797310  68.0464030   7.6199470   9.5098150  66.0614310   7.9769960
   8.9100140  66.1206870   7.2333880   9.6392050  65.1219290   8.1066810
   8.1949790  62.7866290   6.0746120   7.3809630  63.2163450   6.3371910
   8.6023990  63.3984700   5.4615170   9.5440190  57.9254490   7.6015340
   9.3126280  57.6967240   6.7013290   9.8044740  58.8454040   7.5560230
   7.9828260  53.1510920  10.3795040   8.8598440  53.1594320  10.7629040
   7.9949100  52.4141760   9.7687390   9.6081250  57.0880330   4.7902610
   8.6583960  57.0543870   4.9047600   9.7894260  57.9980440   4.5552380
   8.6944380  50.8368890   6.1996150   9.3316600  51.4503030   6.5655340
   8.8419270  50.8729550   5.2545380   2.0648860  51.9895080   9.1071250
   2.0037750  52.5816910   9.8566660   3.0049240  51.8821040   8.9621510
   4.7023420  51.6465140   8.7463540   5.3163830  51.9644430   8.0844620
   5.2472980  51.1613730   9.3659400  11.1198600  67.5456770   6.1525380
  10.6256880  67.9425640   5.4352510  10.5111890  66.9205980   6.5462660
   5.4431460  50.2097280   5.0732830   4.5691300  50.5432390   4.8705760
   5.3342210  49.7370460   5.8984700   6.3503440  52.4168150   6.4574550
   6.0216800  51.6019910   6.0776280   7.2985740  52.3737960   6.3340240
   8.8038050  68.1880190   3.4312120   8.3441020  68.9396000   3.0570140
   8.1750510  67.4686660   3.3726920   1.9729270  67.3876920   3.4329230
   2.2607080  67.1331220   2.5562240   2.4852490  66.8354280   4.0234800
   3.1906280  51.1267120   4.0125740   2.4078070  51.6012620   4.2922500
   2.8969210  50.2221950   3.9038920   2.0401630  68.3093020  10.7997430
   2.9668940  68.0737290  10.8433390   2.0252060  69.1365020  10.3183460
   5.8280700  50.3891350  11.1419780   5.7146150  50.7085960  12.0371300
   6.6450440  50.7903860  10.8457060   8.6079190  67.5362880  10.6238470
   9.4004510  67.0412110  10.4164430   8.9012340  68.2153020  11.2314080
   4.7338850  39.6340330 150.4745930   4.6532900  38.7194940 150.2037640
   4.3203270  40.1307400 149.7685640   6.8864320  45.8179540 151.1354330
   6.4245850  45.0466780 151.4641500   7.6989870  45.8445610 151.6406780
   3.1127630  48.1037550 150.7558320   2.4939070  48.5595050 150.1852760
   3.9679410  48.2589010 150.3548020   7.1195170  34.3897360 149.5222630
   7.9404790  33.8993930 149.5648110   7.1529250  34.9795020 150.2754470
   3.9790980  42.9876790 148.1490230   3.3608250  43.4526240 147.5852950
   4.4914230  43.6804270 148.5659740   7.8023590  44.5133220 148.3613000
   7.6919920  43.5707550 148.4862420   7.7991840  44.8748860 149.2475760
   3.3443870  40.1398540 147.7175490   2.4173150  40.0735920 147.9463960
   3.4968690  41.0778670 147.6030730   3.3312950  36.4115540 144.7142650
   2.3916620  36.5729500 144.7995110   3.6496210  37.1301220 144.1678640
   7.3741160  41.7018840 148.2210740   6.7553580  41.3638390 147.5737040
   7.3565610  41.0578600 148.9289930   5.5505860  40.9405650 145.2283490
   5.9899140  40.1028080 145.0821310   6.2634280  41.5735050 145.3147630
   3.6601240  45.8801720 149.1964730   4.0997150  46.6226050 148.7820120
   3.5988130  46.1228290 150.1203690   9.1323000  32.1948460 143.5424530
   8.8195660  32.2875290 144.4423600   9.8935470  32.7729490 143.4921960
   6.3271420  48.8670840 146.5527740   6.1672560  48.5773780 147.4509570
   6.1618130  48.0910970 146.0172970   6.0297550  46.3758400 145.1125740
   5.3362710  46.3735690 144.4528020   6.7720410  45.9517720 144.6819910
   5.5947480  48.0021110 149.1874230   6.0504430  47.2210490 149.5012850
   5.9340000  48.7127930 149.7315410   5.1380780  38.0340270 147.7097440
   4.5389670  38.7576070 147.5261060   5.6860390  37.9717050 146.9273890
   3.7445650  36.6703810 149.7400720   4.1375220  36.9876010 148.9269410
   4.1062500  35.7915690 149.8545240   3.6065230  33.6338490 146.8376240
   2.7929840  33.1351660 146.7621550   3.4127180  34.4736740 146.4212590
   6.3213620  38.0058140 145.1338400   7.2093240  38.3175370 144.9589740
   6.2918710  37.1330390 144.7418980   2.3174210  44.1781830 145.8126570
   2.6589910  44.9224060 145.3169890   1.4886920  44.4912950 146.1751400
   8.5927890  39.3169980 144.6018260   8.5091610  39.7484200 143.7514700
   9.3122080  39.7768330 145.0345080   9.6215140  46.1712240 147.3300390
   8.9791300  45.5167860 147.6044110   9.2345800  46.5767330 146.5541060
   5.2001620  43.4997670 151.1772080   5.5525440  42.9025800 150.5173450
   4.3163950  43.1741900 151.3480330   8.0112520  45.0628700 143.8676740
   7.7850100  44.3459140 144.4601380   7.6208720  44.8141140 143.0298490
   7.5928770  42.9800640 145.5290900   7.3050470  43.4413330 146.3168780
   8.3880940  42.5198410 145.7975120   8.3498630  34.8149410 146.6886080
   7.7211790  34.9195080 145.9744310   7.8550550  35.0346190 147.4779960
   2.7956770  46.5355000 144.1220060   2.8968750  46.3318990 143.1922040
   1.8958510  46.2813280 144.3267840   4.3498090  33.8186020 149.5439750
   4.2265870  33.8372150 148.5949260   5.2982650  33.8664960 149.6638150
   7.4427460  39.9733200 150.3926240   6.5017600  39.9883430 150.5673930
   7.7571530  39.1869160 150.8386540   9.0803050  47.6373700 144.9859940
   8.7944560  47.2238840 144.1714120   8.8822600  48.5661410 144.8660460
   3.7853010  42.6927010 144.0307540   3.2363110  43.1396310 144.6750280
   4.4072270  42.1876260 144.5545210   1.9655770  40.6755540 143.1749940
   2.4861430  39.9604560 142.8091090   2.6124170  41.3141410 143.4750450
   5.8275340  32.5359390 145.4017880   6.1077630  31.6927290 145.7577300
   5.0541070  32.7682500 145.9156630   2.5303800  48.7567150 145.4651680
   3.4254590  49.0952120 145.4870440   2.5621430  48.0346560 144.8375960
  10.7499600  45.0288640 143.5087590   9.9192560  45.0965290 143.9794820
  10.9271430  45.9192760 143.2054450  10.2056060  41.7736120 146.0121790
  10.9674970  42.3432770 146.1181480  10.2210430  41.2063320 146.7830100
  11.2116030  42.6286220 150.8563720  11.5824860  41.8453540 150.4499690
  11.8517960  43.3175320 150.6781020  10.2575230  42.0670490 143.1694310
  10.5324070  42.9749370 143.0413530  10.0685970  42.0033020 144.1056300
   6.6550840  35.0915340 144.4647940   7.0735720  34.9046320 143.6244600
   6.3486900  34.2394390 144.7750870  10.1540570  40.0039480 148.1623740
   9.7784170  39.2367410 147.7305030   9.4243690  40.3862180 148.6498670
   9.4291530  38.2296970 151.4630980   9.9529010  37.7359620 150.8321150
  10.0150950  38.3647330 152.2078550   8.9191500  37.4870320 147.4023390
   9.4150620  37.2541190 148.1872270   8.7207570  36.6482160 146.9861030
  10.3478660  36.1231270 149.9361070  10.2377940  35.9687310 150.8743340
  11.1086250  35.5952210 149.6936480  11.2368930  33.9539190 143.1767210
  12.1618240  33.8220370 142.9685500  11.2144720  34.0332010 144.1303660
  11.3107420  34.7249850 145.8023920  10.5158920  34.6594970 146.3316830
  11.5150700  35.6600490 145.7909270   8.2525840  48.7641400 149.7962310
   8.8484910  48.4425970 149.1196730   8.5103990  48.2913220 150.5875580
   7.7427350  33.0546730 152.2522750   8.1835440  32.9991830 151.4044350
   7.4734940  33.9704740 152.3232930   9.6065920  32.6861970 150.2631570
   9.5454320  31.7423190 150.1162590  10.3857950  32.7942060 150.8085030
   5.5785480  31.4352830 150.9572760   6.1814850  32.0073040 151.4321280
   4.8378470  31.9992270 150.7346660   8.7220080  31.8374390 146.2313040
   8.9170710  32.7357840 146.4980470   7.9349950  31.6061470 146.7245990
  10.2746690  49.0775100 147.9919600  10.4498880  48.3912840 147.3480520
   9.5768260  49.6022150 147.5996270   4.7338850  39.6340330 131.7002440
   4.6532900  38.7194940 131.4294150   4.3203270  40.1307400 130.9942150
   2.8656890  41.4119350 133.5811710   2.0898990  40.9319790 133.8710280
   3.5169820  40.7325000 133.4067870   6.8864320  45.8179540 132.3610840
   6.4245850  45.0466780 132.6898010   7.6989870  45.8445610 132.8663290
   3.1127630  48.1037550 131.9814830   2.4939070  48.5595050 131.4109270
   3.9679410  48.2589010 131.5804530   2.3065880  44.0876540 133.5881870
   2.2374160  43.1466480 133.4271000   3.0685740  44.1777950 134.1604440
   3.3371050  36.8946920 133.8150800   3.7135870  36.0218800 133.7024470
   3.2390560  37.2305620 132.9241240   7.1195170  34.3897360 130.7479140
   7.9404790  33.8993930 130.7904620   7.1529250  34.9795020 131.5010980
  11.4094720  36.4064110 137.3122770  10.7046890  36.7945820 136.7937880
  11.6752640  37.1014400 137.9143700   3.9790980  42.9876790 129.3746740
   3.3608250  43.4526240 128.8109460   4.4914230  43.6804270 129.7916250
   7.3556650  36.3297740 133.5206680   6.6512220  36.6182630 134.1009790
   7.7168810  37.1397850 133.1606240   8.9719430  45.9472870 135.7834160
   8.2882950  46.6171980 135.7750830   9.5113720  46.1453520 135.0179020
  10.4243570  35.7752530 133.9115890   9.4768480  35.8091510 134.0431320
  10.7493560  36.5891480 134.2965250   6.5078170  47.7917000 134.4979340
   6.5205330  47.3879290 133.6301600   5.9553390  48.5664290 134.3940770
   7.8023590  44.5133220 129.5869510   7.6919920  43.5707550 129.7118930
   7.7991840  44.8748860 130.4732270   5.9063610  42.6946840 135.8261950
   6.3232400  42.4806950 134.9915410   6.6303430  42.9519630 136.3970570
   3.3443870  40.1398540 128.9432000   2.4173150  40.0735920 129.1720470
   3.4968690  41.0778670 128.8287240   3.3312950  36.4115540 125.9399160
   2.3916620  36.5729500 126.0251620   3.6496210  37.1301220 125.3935150
   9.8525710  41.0934060 135.9178190   9.0244340  41.1627150 135.4428320
  10.4476190  41.6788370 135.4494020   7.3741160  41.7018840 129.4467250
   6.7553580  41.3638390 128.7993550   7.3565610  41.0578600 130.1546440
   6.8167720  37.8803380 136.8633060   6.4038900  38.7057090 137.1173050
   6.0843670  37.2948420 136.6709420   7.5067820  47.9262710 137.5514040
   7.0298380  48.7334900 137.3586650   6.8229610  47.2741040 137.7040250
   5.5505860  40.9405650 126.4540000   5.9899140  40.1028080 126.3077820
   6.2634280  41.5735050 126.5404140   3.6601240  45.8801720 130.4221240
   4.0997150  46.6226050 130.0076630   3.5988130  46.1228290 131.3460200
   9.1323000  32.1948460 124.7681040   8.8195660  32.2875290 125.6680110
   9.8935470  32.7729490 124.7178470  11.0867030  47.6874650 142.6205430
  11.5626750  48.1657540 143.2994510  11.7074190  47.6192140 141.8950930
  10.4900280  44.8787500 139.7805440  10.6163340  44.6399380 138.8622620
  10.5321660  44.0472040 140.2527520   4.3517020  48.5815500 138.3500250
   4.8661690  48.4923510 139.1522680   3.5086100  48.9275200 138.6428160
   6.3271420  48.8670840 127.7784250   6.1672560  48.5773780 128.6766080
   6.1618130  48.0910970 127.2429480   6.0297550  46.3758400 126.3382250
   5.3362710  46.3735690 125.6784530   6.7720410  45.9517720 125.9076420
   5.5947480  48.0021110 130.4130740   6.0504430  47.2210490 130.7269360
   5.9340000  48.7127930 130.9571920  10.3424290  36.9319960 140.7455180
   9.7268560  37.4399630 140.2170640  10.0220710  36.0318290 140.6881120
   2.4038610  35.7711850 138.2117370   1.9417980  35.9794870 139.0237310
   2.0016720  34.9571200 137.9088040   7.4043120  36.9920800 139.3414030
   6.5536710  36.6926550 139.6623100   7.2444910  37.2362810 138.4297850
   4.4992830  38.4922550 141.4412820   4.8246240  37.6586300 141.1015050
   5.2873160  39.0151070 141.5891150   5.1380780  38.0340270 128.9353950
   4.5389670  38.7576070 128.7517570   5.6860390  37.9717050 128.1530400
   3.7445650  36.6703810 130.9657230   4.1375220  36.9876010 130.1525920
   4.1062500  35.7915690 131.0801750   2.0537820  35.4211120 142.2254090
   1.3636140  35.2283320 142.8600180   2.7970120  35.7045760 142.7578390
   4.3300790  39.2609560 135.0608010   3.5981910  39.7696370 135.4098110
   3.9325130  38.4439540 134.7596790   4.7926700  34.7143240 134.4730950
   4.8099440  35.1651890 135.3172800   4.5442280  33.8148880 134.6864390
   8.2197450  32.1275420 140.3117330   8.5443220  31.3965080 140.8375310
   8.2553960  31.8089060 139.4098320   8.1455290  42.2400530 133.9203360
   8.8654410  42.7355820 133.5299470   7.9437110  41.5618420 133.2757230
   3.6065230  33.6338490 128.0632750   2.7929840  33.1351660 127.9878060
   3.4127180  34.4736740 127.6469100   3.5274090  42.3109590 139.8072360
   3.4611400  41.3905260 139.5529950   2.8979230  42.4085030 140.5217000
   6.3213620  38.0058140 126.3594910   7.2093240  38.3175370 126.1846250
   6.2918710  37.1330390 125.9675490   2.3174210  44.1781830 127.0383080
   2.6589910  44.9224060 126.5426400   1.4886920  44.4912950 127.4007910
   3.4590820  45.1330160 139.5576160   3.4735360  44.2011120 139.3395070
   2.7515920  45.2189920 140.1965930   8.5927890  39.3169980 125.8274770
   8.5091610  39.7484200 124.9771210   9.3122080  39.7768330 126.2601590
   9.6702030  41.7737500 138.9044740   8.9450220  42.3666280 138.7074130
  10.1977490  41.7661040 138.1058110   9.6215140  46.1712240 128.5556900
   8.9791300  45.5167860 128.8300620   9.2345800  46.5767330 127.7797570
   5.2001620  43.4997670 132.4028590   5.5525440  42.9025800 131.7429960
   4.3163950  43.1741900 132.5736840   2.8924720  46.7747730 136.6516660
   3.5366940  46.9807110 137.3290080   3.2554160  46.0136130 136.1987510
   4.1656800  44.7780080 135.3694110   4.8079030  44.0773240 135.4826280
   4.6906150  45.5578520 135.1891000   8.0112520  45.0628700 125.0933250
   7.7850100  44.3459140 125.6857890   7.6208720  44.8141140 124.2555000
   5.9394420  45.5774980 138.5730170   6.2750660  46.1641670 139.2508090
   5.0194760  45.4467690 138.8027960   7.5928770  42.9800640 126.7547410
   7.3050470  43.4413330 127.5425290   8.3880940  42.5198410 127.0231630
   1.7683000  45.6266310 141.7418230   1.4479870  44.9075550 142.2863920
   1.0941360  46.3021380 141.8154290   4.9836600  35.8592470 137.1055030
   5.3517420  35.0387680 137.4334600   4.1234800  35.9194360 137.5210680
   8.3498630  34.8149410 127.9142590   7.7211790  34.9195080 127.2000820
   7.8550550  35.0346190 128.7036470   2.7956770  46.5355000 125.3476570
   2.8968750  46.3318990 124.4178550   1.8958510  46.2813280 125.5524350
   1.9438590  38.5132060 137.3293000   2.4423840  38.9877880 137.9944850
   2.0861540  37.5895580 137.5363030   4.3498090  33.8186020 130.7696260
   4.2265870  33.8372150 129.8205770   5.2982650  33.8664960 130.8894660
   9.1505450  34.7300020 138.1721390   8.6479050  35.4705420 138.5115200
   9.9662110  35.1184020 137.8558180   7.4427460  39.9733200 131.6182750
   6.5017600  39.9883430 131.7930440   7.7571530  39.1869160 132.0643050
   9.4453040  47.1442050 133.2937010   9.5700460  47.9673220 133.7660820
  10.3118600  46.9332780 132.9461160   4.7593480  44.5299200 142.1015130
   4.1531640  44.5530800 141.3610880   4.4547590  43.7982240 142.6382380
   6.1893850  48.2579490 140.7124540   7.1415600  48.1737510 140.6624780
   6.0422070  48.9221200 141.3858330   9.0803050  47.6373700 126.2116450
   8.7944560  47.2238840 125.3970630   8.8822600  48.5661410 126.0916970
   3.7853010  42.6927010 125.2564050   3.2363110  43.1396310 125.9006790
   4.4072270  42.1876260 125.7801720   7.8387950  44.0469110 141.1886310
   8.5797420  44.3844870 140.6853770   7.0760630  44.2161170 140.6356080
   1.9655770  40.6755540 124.4006450   2.4861430  39.9604560 124.0347600
   2.6124170  41.3141410 124.7006960   6.5133610  42.0983940 139.7241520
   6.9274630  42.2529020 140.5731940   5.5784610  42.2239160 139.8867300
   6.9855780  39.4380100 141.7280670   7.5676550  38.6832420 141.6401150
   7.1617550  39.9687540 140.9512150   3.6112740  39.7820600 139.0775290
   3.7308950  39.1861740 139.8170130   4.4706740  39.8190290 138.6576590
   5.9500640  40.3357790 137.6537800   5.4235860  40.8600410 137.0502940
   6.2931980  40.9685180 138.2847530   5.1974940  35.9407760 140.5684130
   4.5090460  35.2789300 140.5034120   5.9180960  35.4946030 141.0132590
   5.8275340  32.5359390 126.6274390   6.1077630  31.6927290 126.9833810
   5.0541070  32.7682500 127.1413140   1.9818470  49.5908640 139.0681830
   1.9077170  50.4943780 139.3754200   1.0797310  49.2720540 139.0403900
   2.5303800  48.7567150 126.6908190   3.4254590  49.0952120 126.7126950
   2.5621430  48.0346560 126.0632470   9.5098150  47.2870820 139.3974390
   8.9100140  47.3463380 138.6538310   9.6392050  46.3475800 139.5271240
  10.7499600  45.0288640 124.7344100   9.9192560  45.0965290 125.2051330
  10.9271430  45.9192760 124.4310960  10.2056060  41.7736120 127.2378300
  10.9674970  42.3432770 127.3437990  10.2210430  41.2063320 128.0086610
  11.2116030  42.6286220 132.0820230  11.5824860  41.8453540 131.6756200
  11.8517960  43.3175320 131.9037530   8.1949790  44.0122800 137.4950550
   7.3809630  44.4419960 137.7576340   8.6023990  44.6241210 136.8819600
  10.2575230  42.0670490 124.3950820  10.5324070  42.9749370 124.2670040
  10.0685970  42.0033020 125.3312810   6.6550840  35.0915340 125.6904450
   7.0735720  34.9046320 124.8501110   6.3486900  34.2394390 126.0007380
  10.1540570  40.0039480 129.3880250   9.7784170  39.2367410 128.9561540
   9.4243690  40.3862180 129.8755180   9.5440190  39.1511000 139.0219770
   9.3126280  38.9223750 138.1217720   9.8044740  40.0710550 138.9764660
   7.9828260  34.3767430 141.7999470   8.8598440  34.3850830 142.1833470
   7.9949100  33.6398270 141.1891820   9.4291530  38.2296970 132.6887490
   9.9529010  37.7359620 132.0577660  10.0150950  38.3647330 133.4335060
   9.6081250  38.3136840 136.2107040   8.6583960  38.2800380 136.3252030
   9.7894260  39.2236950 135.9756810   8.9191500  37.4870320 128.6279900
   9.4150620  37.2541190 129.4128780   8.7207570  36.6482160 128.2117540
  10.3478660  36.1231270 131.1617580  10.2377940  35.9687310 132.0999850
  11.1086250  35.5952210 130.9192990   8.6944380  32.0625400 137.6200580
   9.3316600  32.6759540 137.9859770   8.8419270  32.0986060 136.6749810
  11.2368930  33.9539190 124.4023720  12.1618240  33.8220370 124.1942010
  11.2144720  34.0332010 125.3560170  11.3107420  34.7249850 127.0280430
  10.5158920  34.6594970 127.5573340  11.5150700  35.6600490 127.0165780
   8.2525840  48.7641400 131.0218820   8.8484910  48.4425970 130.3453240
   8.5103990  48.2913220 131.8132090   2.0648860  33.2151590 140.5275680
   2.0037750  33.8073420 141.2771090   3.0049240  33.1077550 140.3825940
   4.7023420  32.8721650 140.1667970   5.3163830  33.1900940 139.5049050
   5.2472980  32.3870240 140.7863830  11.1198600  48.7713280 137.5729810
  10.6256880  49.1682150 136.8556940  10.5111890  48.1462490 137.9667090
   5.4431460  31.4353790 136.4937260   4.5691300  31.7688900 136.2910190
   5.3342210  30.9626970 137.3189130   6.3503440  33.6424660 137.8778980
   6.0216800  32.8276420 137.4980710   7.2985740  33.5994470 137.7544670
   8.8038050  49.4136700 134.8516550   8.3441020  50.1652510 134.4774570
   8.1750510  48.6943170 134.7931350   1.9729270  48.6133430 134.8533660
   2.2607080  48.3587730 133.9766670   2.4852490  48.0610790 135.4439230
   3.1906280  32.3523630 135.4330170   2.4078070  32.8269130 135.7126930
   2.8969210  31.4478460 135.3243350   7.7427350  33.0546730 133.4779260
   8.1835440  32.9991830 132.6300860   7.4734940  33.9704740 133.5489440
   9.6065920  32.6861970 131.4888080   9.5454320  31.7423190 131.3419100
  10.3857950  32.7942060 132.0341540   5.5785480  31.4352830 132.1829270
   6.1814850  32.0073040 132.6577790   4.8378470  31.9992270 131.9603170
   8.7220080  31.8374390 127.4569550   8.9170710  32.7357840 127.7236980
   7.9349950  31.6061470 127.9502500   2.0401630  49.5349530 142.2201860
   2.9668940  49.2993800 142.2637820   2.0252060  50.3621530 141.7387890
  10.2746690  49.0775100 129.2176110  10.4498880  48.3912840 128.5737030
   9.5768260  49.6022150 128.8252780   5.8280700  31.6147860 142.5624210
   5.7146150  31.9342470 143.4575730   6.6450440  32.0160370 142.2661490
   8.6079190  48.7619390 142.0442900   9.4004510  48.2668620 141.8368860
   8.9012340  49.4409530 142.6518510   4.7338850  39.6340330 112.9258950
   4.6532900  38.7194940 112.6550660   4.3203270  40.1307400 112.2198660
   2.8656890  41.4119350 114.8068220   2.0898990  40.9319790 115.0966790
   3.5169820  40.7325000 114.6324380   6.8864320  45.8179540 113.5867350
   6.4245850  45.0466780 113.9154520   7.6989870  45.8445610 114.0919800
   3.1127630  48.1037550 113.2071340   2.4939070  48.5595050 112.6365780
   3.9679410  48.2589010 112.8061040   2.3065880  44.0876540 114.8138380
   2.2374160  43.1466480 114.6527510   3.0685740  44.1777950 115.3860950
   3.3371050  36.8946920 115.0407310   3.7135870  36.0218800 114.9280980
   3.2390560  37.2305620 114.1497750   7.1195170  34.3897360 111.9735650
   7.9404790  33.8993930 112.0161130   7.1529250  34.9795020 112.7267490
  11.4094720  36.4064110 118.5379280  10.7046890  36.7945820 118.0194390
  11.6752640  37.1014400 119.1400210   3.9790980  42.9876790 110.6003250
   3.3608250  43.4526240 110.0365970   4.4914230  43.6804270 111.0172760
   7.3556650  36.3297740 114.7463190   6.6512220  36.6182630 115.3266300
   7.7168810  37.1397850 114.3862750   8.9719430  45.9472870 117.0090670
   8.2882950  46.6171980 117.0007340   9.5113720  46.1453520 116.2435530
  10.4243570  35.7752530 115.1372400   9.4768480  35.8091510 115.2687830
  10.7493560  36.5891480 115.5221760   6.5078170  47.7917000 115.7235850
   6.5205330  47.3879290 114.8558110   5.9553390  48.5664290 115.6197280
   7.8023590  44.5133220 110.8126020   7.6919920  43.5707550 110.9375440
   7.7991840  44.8748860 111.6988780   5.9063610  42.6946840 117.0518460
   6.3232400  42.4806950 116.2171920   6.6303430  42.9519630 117.6227080
   3.3443870  40.1398540 110.1688510   2.4173150  40.0735920 110.3976980
   3.4968690  41.0778670 110.0543750   3.3312950  36.4115540 107.1655670
   2.3916620  36.5729500 107.2508130   3.6496210  37.1301220 106.6191660
   9.8525710  41.0934060 117.1434700   9.0244340  41.1627150 116.6684830
  10.4476190  41.6788370 116.6750530   7.3741160  41.7018840 110.6723760
   6.7553580  41.3638390 110.0250060   7.3565610  41.0578600 111.3802950
   6.8167720  37.8803380 118.0889570   6.4038900  38.7057090 118.3429560
   6.0843670  37.2948420 117.8965930   7.5067820  47.9262710 118.7770550
   7.0298380  48.7334900 118.5843160   6.8229610  47.2741040 118.9296760
   5.5505860  40.9405650 107.6796510   5.9899140  40.1028080 107.5334330
   6.2634280  41.5735050 107.7660650   3.6601240  45.8801720 111.6477750
   4.0997150  46.6226050 111.2333140   3.5988130  46.1228290 112.5716710
   9.1323000  32.1948460 105.9937550   8.8195660  32.2875290 106.8936620
   9.8935470  32.7729490 105.9434980  11.0867030  47.6874650 123.8461940
  11.5626750  48.1657540 124.5251020  11.7074190  47.6192140 123.1207440
  10.4900280  44.8787500 121.0061950  10.6163340  44.6399380 120.0879130
  10.5321660  44.0472040 121.4784030   4.3517020  48.5815500 119.5756760
   4.8661690  48.4923510 120.3779190   3.5086100  48.9275200 119.8684670
   6.3271420  48.8670840 109.0040760   6.1672560  48.5773780 109.9022590
   6.1618130  48.0910970 108.4685990   6.0297550  46.3758400 107.5638760
   5.3362710  46.3735690 106.9041040   6.7720410  45.9517720 107.1332930
   5.5947480  48.0021110 111.6387250   6.0504430  47.2210490 111.9525870
   5.9340000  48.7127930 112.1828430  10.3424290  36.9319960 121.9711690
   9.7268560  37.4399630 121.4427150  10.0220710  36.0318290 121.9137630
   2.4038610  35.7711850 119.4373880   1.9417980  35.9794870 120.2493820
   2.0016720  34.9571200 119.1344550   7.4043120  36.9920800 120.5670540
   6.5536710  36.6926550 120.8879610   7.2444910  37.2362810 119.6554360
   4.4992830  38.4922550 122.6669330   4.8246240  37.6586300 122.3271560
   5.2873160  39.0151070 122.8147660   5.1380780  38.0340270 110.1610460
   4.5389670  38.7576070 109.9774080   5.6860390  37.9717050 109.3786910
   3.7445650  36.6703810 112.1913740   4.1375220  36.9876010 111.3782430
   4.1062500  35.7915690 112.3058260   2.0537820  35.4211120 123.4510600
   1.3636140  35.2283320 124.0856690   2.7970120  35.7045760 123.9834900
   4.3300790  39.2609560 116.2864520   3.5981910  39.7696370 116.6354620
   3.9325130  38.4439540 115.9853300   4.7926700  34.7143240 115.6987460
   4.8099440  35.1651890 116.5429310   4.5442280  33.8148880 115.9120900
   8.2197450  32.1275420 121.5373840   8.5443220  31.3965080 122.0631820
   8.2553960  31.8089060 120.6354830   8.1455290  42.2400530 115.1459870
   8.8654410  42.7355820 114.7555980   7.9437110  41.5618420 114.5013740
   3.6065230  33.6338490 109.2889260   2.7929840  33.1351660 109.2134570
   3.4127180  34.4736740 108.8725610   3.5274090  42.3109590 121.0328870
   3.4611400  41.3905260 120.7786460   2.8979230  42.4085030 121.7473510
   6.3213620  38.0058140 107.5851420   7.2093240  38.3175370 107.4102760
   6.2918710  37.1330390 107.1932000   2.3174210  44.1781830 108.2639590
   2.6589910  44.9224060 107.7682910   1.4886920  44.4912950 108.6264420
   3.4590820  45.1330160 120.7832670   3.4735360  44.2011120 120.5651580
   2.7515920  45.2189920 121.4222440   8.5927890  39.3169980 107.0531280
   8.5091610  39.7484200 106.2027720   9.3122080  39.7768330 107.4858100
   9.6702030  41.7737500 120.1301250   8.9450220  42.3666280 119.9330640
  10.1977490  41.7661040 119.3314620   9.6215140  46.1712240 109.7813410
   8.9791300  45.5167860 110.0557130   9.2345800  46.5767330 109.0054080
   5.2001620  43.4997670 113.6285100   5.5525440  42.9025800 112.9686470
   4.3163950  43.1741900 113.7993350   2.8924720  46.7747730 117.8773170
   3.5366940  46.9807110 118.5546590   3.2554160  46.0136130 117.4244020
   4.1656800  44.7780080 116.5950620   4.8079030  44.0773240 116.7082790
   4.6906150  45.5578520 116.4147510   8.0112520  45.0628700 106.3189760
   7.7850100  44.3459140 106.9114400   7.6208720  44.8141140 105.4811510
   5.9394420  45.5774980 119.7986680   6.2750660  46.1641670 120.4764600
   5.0194760  45.4467690 120.0284470   7.5928770  42.9800640 107.9803920
   7.3050470  43.4413330 108.7681800   8.3880940  42.5198410 108.2488140
   1.7683000  45.6266310 122.9674740   1.4479870  44.9075550 123.5120430
   1.0941360  46.3021380 123.0410800   4.9836600  35.8592470 118.3311540
   5.3517420  35.0387680 118.6591110   4.1234800  35.9194360 118.7467190
   8.3498630  34.8149410 109.1399100   7.7211790  34.9195080 108.4257330
   7.8550550  35.0346190 109.9292980   2.7956770  46.5355000 106.5733080
   2.8968750  46.3318990 105.6435060   1.8958510  46.2813280 106.7780860
   1.9438590  38.5132060 118.5549510   2.4423840  38.9877880 119.2201360
   2.0861540  37.5895580 118.7619540   4.3498090  33.8186020 111.9952770
   4.2265870  33.8372150 111.0462280   5.2982650  33.8664960 112.1151170
   9.1505450  34.7300020 119.3977900   8.6479050  35.4705420 119.7371710
   9.9662110  35.1184020 119.0814690   7.4427460  39.9733200 112.8439260
   6.5017600  39.9883430 113.0186950   7.7571530  39.1869160 113.2899560
   9.4453040  47.1442050 114.5193520   9.5700460  47.9673220 114.9917330
  10.3118600  46.9332780 114.1717670   4.7593480  44.5299200 123.3271640
   4.1531640  44.5530800 122.5867390   4.4547590  43.7982240 123.8638890
   6.1893850  48.2579490 121.9381050   7.1415600  48.1737510 121.8881290
   6.0422070  48.9221200 122.6114840   9.0803050  47.6373700 107.4372960
   8.7944560  47.2238840 106.6227140   8.8822600  48.5661410 107.3173480
   3.7853010  42.6927010 106.4820560   3.2363110  43.1396310 107.1263300
   4.4072270  42.1876260 107.0058230   7.8387950  44.0469110 122.4142820
   8.5797420  44.3844870 121.9110280   7.0760630  44.2161170 121.8612590
   1.9655770  40.6755540 105.6262960   2.4861430  39.9604560 105.2604110
   2.6124170  41.3141410 105.9263470   6.5133610  42.0983940 120.9498030
   6.9274630  42.2529020 121.7988450   5.5784610  42.2239160 121.1123810
   6.9855780  39.4380100 122.9537180   7.5676550  38.6832420 122.8657660
   7.1617550  39.9687540 122.1768660   3.6112740  39.7820600 120.3031800
   3.7308950  39.1861740 121.0426640   4.4706740  39.8190290 119.8833100
   5.9500640  40.3357790 118.8794310   5.4235860  40.8600410 118.2759450
   6.2931980  40.9685180 119.5104040   5.1974940  35.9407760 121.7940640
   4.5090460  35.2789300 121.7290630   5.9180960  35.4946030 122.2389100
   5.8275340  32.5359390 107.8530900   6.1077630  31.6927290 108.2090320
   5.0541070  32.7682500 108.3669650   1.9818470  49.5908640 120.2938340
   1.9077170  50.4943780 120.6010710   1.0797310  49.2720540 120.2660410
   2.5303800  48.7567150 107.9164700   3.4254590  49.0952120 107.9383460
   2.5621430  48.0346560 107.2888980   9.5098150  47.2870820 120.6230900
   8.9100140  47.3463380 119.8794820   9.6392050  46.3475800 120.7527750
  10.7499600  45.0288640 105.9600610   9.9192560  45.0965290 106.4307840
  10.9271430  45.9192760 105.6567470  10.2056060  41.7736120 108.4634810
  10.9674970  42.3432770 108.5694500  10.2210430  41.2063320 109.2343120
  11.2116030  42.6286220 113.3076740  11.5824860  41.8453540 112.9012710
  11.8517960  43.3175320 113.1294040   8.1949790  44.0122800 118.7207060
   7.3809630  44.4419960 118.9832850   8.6023990  44.6241210 118.1076110
  10.2575230  42.0670490 105.6207330  10.5324070  42.9749370 105.4926550
  10.0685970  42.0033020 106.5569320   6.6550840  35.0915340 106.9160960
   7.0735720  34.9046320 106.0757620   6.3486900  34.2394390 107.2263890
  10.1540570  40.0039480 110.6136760   9.7784170  39.2367410 110.1818050
   9.4243690  40.3862180 111.1011690   9.5440190  39.1511000 120.2476280
   9.3126280  38.9223750 119.3474230   9.8044740  40.0710550 120.2021170
   7.9828260  34.3767430 123.0255980   8.8598440  34.3850830 123.4089980
   7.9949100  33.6398270 122.4148330   9.4291530  38.2296970 113.9144000
   9.9529010  37.7359620 113.2834170  10.0150950  38.3647330 114.6591570
   9.6081250  38.3136840 117.4363550   8.6583960  38.2800380 117.5508540
   9.7894260  39.2236950 117.2013320   8.9191500  37.4870320 109.8536410
   9.4150620  37.2541190 110.6385290   8.7207570  36.6482160 109.4374050
  10.3478660  36.1231270 112.3874090  10.2377940  35.9687310 113.3256360
  11.1086250  35.5952210 112.1449500   8.6944380  32.0625400 118.8457090
   9.3316600  32.6759540 119.2116280   8.8419270  32.0986060 117.9006320
  11.2368930  33.9539190 105.6280230  12.1618240  33.8220370 105.4198520
  11.2144720  34.0332010 106.5816680  11.3107420  34.7249850 108.2536940
  10.5158920  34.6594970 108.7829850  11.5150700  35.6600490 108.2422290
   8.2525840  48.7641400 112.2475330   8.8484910  48.4425970 111.5709750
   8.5103990  48.2913220 113.0388600   2.0648860  33.2151590 121.7532190
   2.0037750  33.8073420 122.5027600   3.0049240  33.1077550 121.6082450
   4.7023420  32.8721650 121.3924480   5.3163830  33.1900940 120.7305560
   5.2472980  32.3870240 122.0120340  11.1198600  48.7713280 118.7986320
  10.6256880  49.1682150 118.0813450  10.5111890  48.1462490 119.1923600
   5.4431460  31.4353790 117.7193770   4.5691300  31.7688900 117.5166700
   5.3342210  30.9626970 118.5445640   6.3503440  33.6424660 119.1035490
   6.0216800  32.8276420 118.7237220   7.2985740  33.5994470 118.9801180
   8.8038050  49.4136700 116.0773060   8.3441020  50.1652510 115.7031080
   8.1750510  48.6943170 116.0187860   1.9729270  48.6133430 116.0790170
   2.2607080  48.3587730 115.2023180   2.4852490  48.0610790 116.6695740
   3.1906280  32.3523630 116.6586680   2.4078070  32.8269130 116.9383440
   2.8969210  31.4478460 116.5499860   7.7427350  33.0546730 114.7035770
   8.1835440  32.9991830 113.8557370   7.4734940  33.9704740 114.7745950
   9.6065920  32.6861970 112.7144590   9.5454320  31.7423190 112.5675610
  10.3857950  32.7942060 113.2598050   5.5785480  31.4352830 113.4085780
   6.1814850  32.0073040 113.8834300   4.8378470  31.9992270 113.1859680
   8.7220080  31.8374390 108.6826060   8.9170710  32.7357840 108.9493490
   7.9349950  31.6061470 109.1759010   2.0401630  49.5349530 123.4458370
   2.9668940  49.2993800 123.4894330   2.0252060  50.3621530 122.9644400
  10.2746690  49.0775100 110.4432620  10.4498880  48.3912840 109.7993540
   9.5768260  49.6022150 110.0509290   5.8280700  31.6147860 123.7880720
   5.7146150  31.9342470 124.6832240   6.6450440  32.0160370 123.4918000
   8.6079190  48.7619390 123.2699410   9.4004510  48.2668620 123.0625370
   8.9012340  49.4409530 123.8775020   4.7338850  39.6340330  94.1515460
   4.6532900  38.7194940  93.8807170   4.3203270  40.1307400  93.4455170
   2.8656890  41.4119350  96.0324730   2.0898990  40.9319790  96.3223300
   3.5169820  40.7325000  95.8580890   6.8864320  45.8179540  94.8123860
   6.4245850  45.0466780  95.1411030   7.6989870  45.8445610  95.3176310
   3.1127630  48.1037550  94.4327850   2.4939070  48.5595050  93.8622290
   3.9679410  48.2589010  94.0317550   2.3065880  44.0876540  96.0394890
   2.2374160  43.1466480  95.8784020   3.0685740  44.1777950  96.6117460
   3.3371050  36.8946920  96.2663820   3.7135870  36.0218800  96.1537490
   3.2390560  37.2305620  95.3754260   7.1195170  34.3897360  93.1992160
   7.9404790  33.8993930  93.2417640   7.1529250  34.9795020  93.9524000
  11.4094720  36.4064110  99.7635790  10.7046890  36.7945820  99.2450900
  11.6752640  37.1014400 100.3656720   3.9790980  42.9876790  91.8259760
   3.3608250  43.4526240  91.2622480   4.4914230  43.6804270  92.2429270
   7.3556650  36.3297740  95.9719700   6.6512220  36.6182630  96.5522810
   7.7168810  37.1397850  95.6119260   8.9719430  45.9472870  98.2347180
   8.2882950  46.6171980  98.2263850   9.5113720  46.1453520  97.4692040
  10.4243570  35.7752530  96.3628910   9.4768480  35.8091510  96.4944340
  10.7493560  36.5891480  96.7478270   6.5078170  47.7917000  96.9492360
   6.5205330  47.3879290  96.0814620   5.9553390  48.5664290  96.8453790
   7.8023590  44.5133220  92.0382530   7.6919920  43.5707550  92.1631950
   7.7991840  44.8748860  92.9245290   5.9063610  42.6946840  98.2774970
   6.3232400  42.4806950  97.4428430   6.6303430  42.9519630  98.8483590
   3.3443870  40.1398540  91.3945020   2.4173150  40.0735920  91.6233490
   3.4968690  41.0778670  91.2800260   3.3312950  36.4115540  88.3912180
   2.3916620  36.5729500  88.4764640   3.6496210  37.1301220  87.8448170
   9.8525710  41.0934060  98.3691210   9.0244340  41.1627150  97.8941340
  10.4476190  41.6788370  97.9007040   7.3741160  41.7018840  91.8980270
   6.7553580  41.3638390  91.2506570   7.3565610  41.0578600  92.6059460
   6.8167720  37.8803380  99.3146080   6.4038900  38.7057090  99.5686070
   6.0843670  37.2948420  99.1222440   7.5067820  47.9262710 100.0027060
   7.0298380  48.7334900  99.8099670   6.8229610  47.2741040 100.1553270
   5.5505860  40.9405650  88.9053020   5.9899140  40.1028080  88.7590840
   6.2634280  41.5735050  88.9917160   3.6601240  45.8801720  92.8734260
   4.0997150  46.6226050  92.4589650   3.5988130  46.1228290  93.7973220
   9.1323000  32.1948460  87.2194060   8.8195660  32.2875290  88.1193130
   9.8935470  32.7729490  87.1691490  11.0867030  47.6874650 105.0718450
  11.5626750  48.1657540 105.7507530  11.7074190  47.6192140 104.3463950
  10.4900280  44.8787500 102.2318460  10.6163340  44.6399380 101.3135640
  10.5321660  44.0472040 102.7040540   4.3517020  48.5815500 100.8013270
   4.8661690  48.4923510 101.6035700   3.5086100  48.9275200 101.0941180
   6.3271420  48.8670840  90.2297270   6.1672560  48.5773780  91.1279100
   6.1618130  48.0910970  89.6942500   6.0297550  46.3758400  88.7895270
   5.3362710  46.3735690  88.1297550   6.7720410  45.9517720  88.3589440
   5.5947480  48.0021110  92.8643760   6.0504430  47.2210490  93.1782380
   5.9340000  48.7127930  93.4084940  10.3424290  36.9319960 103.1968200
   9.7268560  37.4399630 102.6683660  10.0220710  36.0318290 103.1394140
   2.4038610  35.7711850 100.6630390   1.9417980  35.9794870 101.4750330
   2.0016720  34.9571200 100.3601060   7.4043120  36.9920800 101.7927050
   6.5536710  36.6926550 102.1136120   7.2444910  37.2362810 100.8810870
   4.4992830  38.4922550 103.8925840   4.8246240  37.6586300 103.5528070
   5.2873160  39.0151070 104.0404170   5.1380780  38.0340270  91.3866970
   4.5389670  38.7576070  91.2030590   5.6860390  37.9717050  90.6043420
   3.7445650  36.6703810  93.4170250   4.1375220  36.9876010  92.6038940
   4.1062500  35.7915690  93.5314770   2.0537820  35.4211120 104.6767110
   1.3636140  35.2283320 105.3113200   2.7970120  35.7045760 105.2091410
   4.3300790  39.2609560  97.5121030   3.5981910  39.7696370  97.8611130
   3.9325130  38.4439540  97.2109810   4.7926700  34.7143240  96.9243970
   4.8099440  35.1651890  97.7685820   4.5442280  33.8148880  97.1377410
   8.2197450  32.1275420 102.7630350   8.5443220  31.3965080 103.2888330
   8.2553960  31.8089060 101.8611340   8.1455290  42.2400530  96.3716380
   8.8654410  42.7355820  95.9812490   7.9437110  41.5618420  95.7270250
   3.6065230  33.6338490  90.5145770   2.7929840  33.1351660  90.4391080
   3.4127180  34.4736740  90.0982120   3.5274090  42.3109590 102.2585380
   3.4611400  41.3905260 102.0042970   2.8979230  42.4085030 102.9730020
   6.3213620  38.0058140  88.8107930   7.2093240  38.3175370  88.6359270
   6.2918710  37.1330390  88.4188510   2.3174210  44.1781830  89.4896100
   2.6589910  44.9224060  88.9939420   1.4886920  44.4912950  89.8520930
   3.4590820  45.1330160 102.0089180   3.4735360  44.2011120 101.7908090
   2.7515920  45.2189920 102.6478950   8.5927890  39.3169980  88.2787790
   8.5091610  39.7484200  87.4284230   9.3122080  39.7768330  88.7114610
   9.6702030  41.7737500 101.3557760   8.9450220  42.3666280 101.1587150
  10.1977490  41.7661040 100.5571130   9.6215140  46.1712240  91.0069920
   8.9791300  45.5167860  91.2813640   9.2345800  46.5767330  90.2310590
   5.2001620  43.4997670  94.8541610   5.5525440  42.9025800  94.1942980
   4.3163950  43.1741900  95.0249860   2.8924720  46.7747730  99.1029680
   3.5366940  46.9807110  99.7803100   3.2554160  46.0136130  98.6500530
   4.1656800  44.7780080  97.8207130   4.8079030  44.0773240  97.9339300
   4.6906150  45.5578520  97.6404020   8.0112520  45.0628700  87.5446270
   7.7850100  44.3459140  88.1370910   7.6208720  44.8141140  86.7068020
   5.9394420  45.5774980 101.0243190   6.2750660  46.1641670 101.7021110
   5.0194760  45.4467690 101.2540980   7.5928770  42.9800640  89.2060430
   7.3050470  43.4413330  89.9938310   8.3880940  42.5198410  89.4744650
   1.7683000  45.6266310 104.1931250   1.4479870  44.9075550 104.7376940
   1.0941360  46.3021380 104.2667310   4.9836600  35.8592470  99.5568050
   5.3517420  35.0387680  99.8847620   4.1234800  35.9194360  99.9723700
   8.3498630  34.8149410  90.3655610   7.7211790  34.9195080  89.6513840
   7.8550550  35.0346190  91.1549490   2.7956770  46.5355000  87.7989590
   2.8968750  46.3318990  86.8691570   1.8958510  46.2813280  88.0037370
   1.9438590  38.5132060  99.7806020   2.4423840  38.9877880 100.4457870
   2.0861540  37.5895580  99.9876050   4.3498090  33.8186020  93.2209280
   4.2265870  33.8372150  92.2718790   5.2982650  33.8664960  93.3407680
   9.1505450  34.7300020 100.6234410   8.6479050  35.4705420 100.9628220
   9.9662110  35.1184020 100.3071200   7.4427460  39.9733200  94.0695770
   6.5017600  39.9883430  94.2443460   7.7571530  39.1869160  94.5156070
   9.4453040  47.1442050  95.7450030   9.5700460  47.9673220  96.2173840
  10.3118600  46.9332780  95.3974180   4.7593480  44.5299200 104.5528150
   4.1531640  44.5530800 103.8123900   4.4547590  43.7982240 105.0895400
   6.1893850  48.2579490 103.1637560   7.1415600  48.1737510 103.1137800
   6.0422070  48.9221200 103.8371350   9.0803050  47.6373700  88.6629470
   8.7944560  47.2238840  87.8483650   8.8822600  48.5661410  88.5429990
   3.7853010  42.6927010  87.7077070   3.2363110  43.1396310  88.3519810
   4.4072270  42.1876260  88.2314740   7.8387950  44.0469110 103.6399330
   8.5797420  44.3844870 103.1366790   7.0760630  44.2161170 103.0869100
   1.9655770  40.6755540  86.8519470   2.4861430  39.9604560  86.4860620
   2.6124170  41.3141410  87.1519980   6.5133610  42.0983940 102.1754540
   6.9274630  42.2529020 103.0244960   5.5784610  42.2239160 102.3380320
   6.9855780  39.4380100 104.1793690   7.5676550  38.6832420 104.0914170
   7.1617550  39.9687540 103.4025170   3.6112740  39.7820600 101.5288310
   3.7308950  39.1861740 102.2683150   4.4706740  39.8190290 101.1089610
   5.9500640  40.3357790 100.1050820   5.4235860  40.8600410  99.5015960
   6.2931980  40.9685180 100.7360550   5.1974940  35.9407760 103.0197150
   4.5090460  35.2789300 102.9547140   5.9180960  35.4946030 103.4645610
   5.8275340  32.5359390  89.0787410   6.1077630  31.6927290  89.4346830
   5.0541070  32.7682500  89.5926160   1.9818470  49.5908640 101.5194850
   1.9077170  50.4943780 101.8267220   1.0797310  49.2720540 101.4916920
   2.5303800  48.7567150  89.1421210   3.4254590  49.0952120  89.1639970
   2.5621430  48.0346560  88.5145490   9.5098150  47.2870820 101.8487410
   8.9100140  47.3463380 101.1051330   9.6392050  46.3475800 101.9784260
  10.7499600  45.0288640  87.1857120   9.9192560  45.0965290  87.6564350
  10.9271430  45.9192760  86.8823980  10.2056060  41.7736120  89.6891320
  10.9674970  42.3432770  89.7951010  10.2210430  41.2063320  90.4599630
  11.2116030  42.6286220  94.5333250  11.5824860  41.8453540  94.1269220
  11.8517960  43.3175320  94.3550550   8.1949790  44.0122800  99.9463570
   7.3809630  44.4419960 100.2089360   8.6023990  44.6241210  99.3332620
  10.2575230  42.0670490  86.8463840  10.5324070  42.9749370  86.7183060
  10.0685970  42.0033020  87.7825830   6.6550840  35.0915340  88.1417470
   7.0735720  34.9046320  87.3014130   6.3486900  34.2394390  88.4520400
  10.1540570  40.0039480  91.8393270   9.7784170  39.2367410  91.4074560
   9.4243690  40.3862180  92.3268200   9.5440190  39.1511000 101.4732790
   9.3126280  38.9223750 100.5730740   9.8044740  40.0710550 101.4277680
   7.9828260  34.3767430 104.2512490   8.8598440  34.3850830 104.6346490
   7.9949100  33.6398270 103.6404840   9.4291530  38.2296970  95.1400510
   9.9529010  37.7359620  94.5090680  10.0150950  38.3647330  95.8848080
   9.6081250  38.3136840  98.6620060   8.6583960  38.2800380  98.7765050
   9.7894260  39.2236950  98.4269830   8.9191500  37.4870320  91.0792920
   9.4150620  37.2541190  91.8641800   8.7207570  36.6482160  90.6630560
  10.3478660  36.1231270  93.6130600  10.2377940  35.9687310  94.5512870
  11.1086250  35.5952210  93.3706010   8.6944380  32.0625400 100.0713600
   9.3316600  32.6759540 100.4372790   8.8419270  32.0986060  99.1262830
  11.2368930  33.9539190  86.8536740  12.1618240  33.8220370  86.6455030
  11.2144720  34.0332010  87.8073190  11.3107420  34.7249850  89.4793450
  10.5158920  34.6594970  90.0086360  11.5150700  35.6600490  89.4678800
   8.2525840  48.7641400  93.4731840   8.8484910  48.4425970  92.7966260
   8.5103990  48.2913220  94.2645110   2.0648860  33.2151590 102.9788700
   2.0037750  33.8073420 103.7284110   3.0049240  33.1077550 102.8338960
   4.7023420  32.8721650 102.6180990   5.3163830  33.1900940 101.9562070
   5.2472980  32.3870240 103.2376850  11.1198600  48.7713280 100.0242830
  10.6256880  49.1682150  99.3069960  10.5111890  48.1462490 100.4180110
   5.4431460  31.4353790  98.9450280   4.5691300  31.7688900  98.7423210
   5.3342210  30.9626970  99.7702150   6.3503440  33.6424660 100.3292000
   6.0216800  32.8276420  99.9493730   7.2985740  33.5994470 100.2057690
   8.8038050  49.4136700  97.3029570   8.3441020  50.1652510  96.9287590
   8.1750510  48.6943170  97.2444370   1.9729270  48.6133430  97.3046680
   2.2607080  48.3587730  96.4279690   2.4852490  48.0610790  97.8952250
   3.1906280  32.3523630  97.8843190   2.4078070  32.8269130  98.1639950
   2.8969210  31.4478460  97.7756370   7.7427350  33.0546730  95.9292280
   8.1835440  32.9991830  95.0813880   7.4734940  33.9704740  96.0002460
   9.6065920  32.6861970  93.9401100   9.5454320  31.7423190  93.7932120
  10.3857950  32.7942060  94.4854560   5.5785480  31.4352830  94.6342290
   6.1814850  32.0073040  95.1090810   4.8378470  31.9992270  94.4116190
   8.7220080  31.8374390  89.9082570   8.9170710  32.7357840  90.1750000
   7.9349950  31.6061470  90.4015520   2.0401630  49.5349530 104.6714880
   2.9668940  49.2993800 104.7150840   2.0252060  50.3621530 104.1900910
  10.2746690  49.0775100  91.6689130  10.4498880  48.3912840  91.0250050
   9.5768260  49.6022150  91.2765800   5.8280700  31.6147860 105.0137230
   5.7146150  31.9342470 105.9088750   6.6450440  32.0160370 104.7174510
   8.6079190  48.7619390 104.4955920   9.4004510  48.2668620 104.2881880
   8.9012340  49.4409530 105.1031530   4.7338850  39.6340330  75.3771970
   4.6532900  38.7194940  75.1063680   4.3203270  40.1307400  74.6711680
   2.8656890  41.4119350  77.2581240   2.0898990  40.9319790  77.5479810
   3.5169820  40.7325000  77.0837400   6.8864320  45.8179540  76.0380370
   6.4245850  45.0466780  76.3667540   7.6989870  45.8445610  76.5432820
   3.1127630  48.1037550  75.6584360   2.4939070  48.5595050  75.0878800
   3.9679410  48.2589010  75.2574060   2.3065880  44.0876540  77.2651400
   2.2374160  43.1466480  77.1040530   3.0685740  44.1777950  77.8373970
   3.3371050  36.8946920  77.4920330   3.7135870  36.0218800  77.3794000
   3.2390560  37.2305620  76.6010770   7.1195170  34.3897360  74.4248670
   7.9404790  33.8993930  74.4674150   7.1529250  34.9795020  75.1780510
  11.4094720  36.4064110  80.9892300  10.7046890  36.7945820  80.4707410
  11.6752640  37.1014400  81.5913230   3.9790980  42.9876790  73.0516270
   3.3608250  43.4526240  72.4878990   4.4914230  43.6804270  73.4685780
   7.3556650  36.3297740  77.1976210   6.6512220  36.6182630  77.7779320
   7.7168810  37.1397850  76.8375770   8.9719430  45.9472870  79.4603690
   8.2882950  46.6171980  79.4520360   9.5113720  46.1453520  78.6948550
  10.4243570  35.7752530  77.5885420   9.4768480  35.8091510  77.7200850
  10.7493560  36.5891480  77.9734780   6.5078170  47.7917000  78.1748870
   6.5205330  47.3879290  77.3071130   5.9553390  48.5664290  78.0710300
   7.8023590  44.5133220  73.2639040   7.6919920  43.5707550  73.3888460
   7.7991840  44.8748860  74.1501800   5.9063610  42.6946840  79.5031480
   6.3232400  42.4806950  78.6684940   6.6303430  42.9519630  80.0740100
   3.3443870  40.1398540  72.6201530   2.4173150  40.0735920  72.8490000
   3.4968690  41.0778670  72.5056770   3.3312950  36.4115540  69.6168690
   2.3916620  36.5729500  69.7021150   3.6496210  37.1301220  69.0704680
   9.8525710  41.0934060  79.5947720   9.0244340  41.1627150  79.1197850
  10.4476190  41.6788370  79.1263550   7.3741160  41.7018840  73.1236780
   6.7553580  41.3638390  72.4763080   7.3565610  41.0578600  73.8315970
   6.8167720  37.8803380  80.5402590   6.4038900  38.7057090  80.7942580
   6.0843670  37.2948420  80.3478950   7.5067820  47.9262710  81.2283570
   7.0298380  48.7334900  81.0356180   6.8229610  47.2741040  81.3809780
   5.5505860  40.9405650  70.1309530   5.9899140  40.1028080  69.9847350
   6.2634280  41.5735050  70.2173670   3.6601240  45.8801720  74.0990770
   4.0997150  46.6226050  73.6846160   3.5988130  46.1228290  75.0229730
   9.1323000  32.1948460  68.4450570   8.8195660  32.2875290  69.3449640
   9.8935470  32.7729490  68.3948000  11.0867030  47.6874650  86.2974960
  11.5626750  48.1657540  86.9764040  11.7074190  47.6192140  85.5720460
  10.4900280  44.8787500  83.4574970  10.6163340  44.6399380  82.5392150
  10.5321660  44.0472040  83.9297050   4.3517020  48.5815500  82.0269780
   4.8661690  48.4923510  82.8292210   3.5086100  48.9275200  82.3197690
   6.3271420  48.8670840  71.4553780   6.1672560  48.5773780  72.3535610
   6.1618130  48.0910970  70.9199010   6.0297550  46.3758400  70.0151780
   5.3362710  46.3735690  69.3554060   6.7720410  45.9517720  69.5845950
   5.5947480  48.0021110  74.0900270   6.0504430  47.2210490  74.4038890
   5.9340000  48.7127930  74.6341450  10.3424290  36.9319960  84.4224710
   9.7268560  37.4399630  83.8940170  10.0220710  36.0318290  84.3650650
   2.4038610  35.7711850  81.8886900   1.9417980  35.9794870  82.7006840
   2.0016720  34.9571200  81.5857570   7.4043120  36.9920800  83.0183560
   6.5536710  36.6926550  83.3392630   7.2444910  37.2362810  82.1067380
   4.4992830  38.4922550  85.1182350   4.8246240  37.6586300  84.7784580
   5.2873160  39.0151070  85.2660680   5.1380780  38.0340270  72.6123480
   4.5389670  38.7576070  72.4287100   5.6860390  37.9717050  71.8299930
   3.7445650  36.6703810  74.6426760   4.1375220  36.9876010  73.8295450
   4.1062500  35.7915690  74.7571280   2.0537820  35.4211120  85.9023620
   1.3636140  35.2283320  86.5369710   2.7970120  35.7045760  86.4347920
   4.3300790  39.2609560  78.7377540   3.5981910  39.7696370  79.0867640
   3.9325130  38.4439540  78.4366320   4.7926700  34.7143240  78.1500480
   4.8099440  35.1651890  78.9942330   4.5442280  33.8148880  78.3633920
   8.2197450  32.1275420  83.9886860   8.5443220  31.3965080  84.5144840
   8.2553960  31.8089060  83.0867850   8.1455290  42.2400530  77.5972890
   8.8654410  42.7355820  77.2069000   7.9437110  41.5618420  76.9526760
   3.6065230  33.6338490  71.7402280   2.7929840  33.1351660  71.6647590
   3.4127180  34.4736740  71.3238630   3.5274090  42.3109590  83.4841890
   3.4611400  41.3905260  83.2299480   2.8979230  42.4085030  84.1986530
   6.3213620  38.0058140  70.0364440   7.2093240  38.3175370  69.8615780
   6.2918710  37.1330390  69.6445020   2.3174210  44.1781830  70.7152610
   2.6589910  44.9224060  70.2195930   1.4886920  44.4912950  71.0777440
   3.4590820  45.1330160  83.2345690   3.4735360  44.2011120  83.0164600
   2.7515920  45.2189920  83.8735460   8.5927890  39.3169980  69.5044300
   8.5091610  39.7484200  68.6540740   9.3122080  39.7768330  69.9371120
   9.6702030  41.7737500  82.5814270   8.9450220  42.3666280  82.3843660
  10.1977490  41.7661040  81.7827640   9.6215140  46.1712240  72.2326430
   8.9791300  45.5167860  72.5070150   9.2345800  46.5767330  71.4567100
   5.2001620  43.4997670  76.0798120   5.5525440  42.9025800  75.4199490
   4.3163950  43.1741900  76.2506370   2.8924720  46.7747730  80.3286190
   3.5366940  46.9807110  81.0059610   3.2554160  46.0136130  79.8757040
   4.1656800  44.7780080  79.0463640   4.8079030  44.0773240  79.1595810
   4.6906150  45.5578520  78.8660530   8.0112520  45.0628700  68.7702780
   7.7850100  44.3459140  69.3627420   7.6208720  44.8141140  67.9324530
   5.9394420  45.5774980  82.2499700   6.2750660  46.1641670  82.9277620
   5.0194760  45.4467690  82.4797490   7.5928770  42.9800640  70.4316940
   7.3050470  43.4413330  71.2194820   8.3880940  42.5198410  70.7001160
   1.7683000  45.6266310  85.4187760   1.4479870  44.9075550  85.9633450
   1.0941360  46.3021380  85.4923820   4.9836600  35.8592470  80.7824560
   5.3517420  35.0387680  81.1104130   4.1234800  35.9194360  81.1980210
   8.3498630  34.8149410  71.5912120   7.7211790  34.9195080  70.8770350
   7.8550550  35.0346190  72.3806000   2.7956770  46.5355000  69.0246100
   2.8968750  46.3318990  68.0948080   1.8958510  46.2813280  69.2293880
   1.9438590  38.5132060  81.0062530   2.4423840  38.9877880  81.6714380
   2.0861540  37.5895580  81.2132560   4.3498090  33.8186020  74.4465790
   4.2265870  33.8372150  73.4975300   5.2982650  33.8664960  74.5664190
   9.1505450  34.7300020  81.8490920   8.6479050  35.4705420  82.1884730
   9.9662110  35.1184020  81.5327710   7.4427460  39.9733200  75.2952280
   6.5017600  39.9883430  75.4699970   7.7571530  39.1869160  75.7412580
   9.4453040  47.1442050  76.9706540   9.5700460  47.9673220  77.4430350
  10.3118600  46.9332780  76.6230690   4.7593480  44.5299200  85.7784660
   4.1531640  44.5530800  85.0380410   4.4547590  43.7982240  86.3151910
   6.1893850  48.2579490  84.3894070   7.1415600  48.1737510  84.3394310
   6.0422070  48.9221200  85.0627860   9.0803050  47.6373700  69.8885980
   8.7944560  47.2238840  69.0740160   8.8822600  48.5661410  69.7686500
   3.7853010  42.6927010  68.9333580   3.2363110  43.1396310  69.5776320
   4.4072270  42.1876260  69.4571250   7.8387950  44.0469110  84.8655840
   8.5797420  44.3844870  84.3623300   7.0760630  44.2161170  84.3125610
   1.9655770  40.6755540  68.0775980   2.4861430  39.9604560  67.7117130
   2.6124170  41.3141410  68.3776490   6.5133610  42.0983940  83.4011050
   6.9274630  42.2529020  84.2501470   5.5784610  42.2239160  83.5636830
   6.9855780  39.4380100  85.4050200   7.5676550  38.6832420  85.3170680
   7.1617550  39.9687540  84.6281680   3.6112740  39.7820600  82.7544820
   3.7308950  39.1861740  83.4939660   4.4706740  39.8190290  82.3346120
   5.9500640  40.3357790  81.3307330   5.4235860  40.8600410  80.7272470
   6.2931980  40.9685180  81.9617060   5.1974940  35.9407760  84.2453660
   4.5090460  35.2789300  84.1803650   5.9180960  35.4946030  84.6902120
   5.8275340  32.5359390  70.3043920   6.1077630  31.6927290  70.6603340
   5.0541070  32.7682500  70.8182670   1.9818470  49.5908640  82.7451360
   1.9077170  50.4943780  83.0523730   1.0797310  49.2720540  82.7173430
   2.5303800  48.7567150  70.3677720   3.4254590  49.0952120  70.3896480
   2.5621430  48.0346560  69.7402000   9.5098150  47.2870820  83.0743920
   8.9100140  47.3463380  82.3307840   9.6392050  46.3475800  83.2040770
  10.7499600  45.0288640  68.4113630   9.9192560  45.0965290  68.8820860
  10.9271430  45.9192760  68.1080490  10.2056060  41.7736120  70.9147830
  10.9674970  42.3432770  71.0207520  10.2210430  41.2063320  71.6856140
  11.2116030  42.6286220  75.7589760  11.5824860  41.8453540  75.3525730
  11.8517960  43.3175320  75.5807060   8.1949790  44.0122800  81.1720080
   7.3809630  44.4419960  81.4345870   8.6023990  44.6241210  80.5589130
  10.2575230  42.0670490  68.0720350  10.5324070  42.9749370  67.9439570
  10.0685970  42.0033020  69.0082340   6.6550840  35.0915340  69.3673980
   7.0735720  34.9046320  68.5270640   6.3486900  34.2394390  69.6776910
  10.1540570  40.0039480  73.0649780   9.7784170  39.2367410  72.6331070
   9.4243690  40.3862180  73.5524710   9.5440190  39.1511000  82.6989300
   9.3126280  38.9223750  81.7987250   9.8044740  40.0710550  82.6534190
   7.9828260  34.3767430  85.4769000   8.8598440  34.3850830  85.8603000
   7.9949100  33.6398270  84.8661350   9.4291530  38.2296970  76.3657020
   9.9529010  37.7359620  75.7347190  10.0150950  38.3647330  77.1104590
   9.6081250  38.3136840  79.8876570   8.6583960  38.2800380  80.0021560
   9.7894260  39.2236950  79.6526340   8.9191500  37.4870320  72.3049430
   9.4150620  37.2541190  73.0898310   8.7207570  36.6482160  71.8887070
  10.3478660  36.1231270  74.8387110  10.2377940  35.9687310  75.7769380
  11.1086250  35.5952210  74.5962520   8.6944380  32.0625400  81.2970110
   9.3316600  32.6759540  81.6629300   8.8419270  32.0986060  80.3519340
  11.2368930  33.9539190  68.0793250  12.1618240  33.8220370  67.8711540
  11.2144720  34.0332010  69.0329700  11.3107420  34.7249850  70.7049960
  10.5158920  34.6594970  71.2342870  11.5150700  35.6600490  70.6935310
   8.2525840  48.7641400  74.6988350   8.8484910  48.4425970  74.0222770
   8.5103990  48.2913220  75.4901620   2.0648860  33.2151590  84.2045210
   2.0037750  33.8073420  84.9540620   3.0049240  33.1077550  84.0595470
   4.7023420  32.8721650  83.8437500   5.3163830  33.1900940  83.1818580
   5.2472980  32.3870240  84.4633360  11.1198600  48.7713280  81.2499340
  10.6256880  49.1682150  80.5326470  10.5111890  48.1462490  81.6436620
   5.4431460  31.4353790  80.1706790   4.5691300  31.7688900  79.9679720
   5.3342210  30.9626970  80.9958660   6.3503440  33.6424660  81.5548510
   6.0216800  32.8276420  81.1750240   7.2985740  33.5994470  81.4314200
   8.8038050  49.4136700  78.5286080   8.3441020  50.1652510  78.1544100
   8.1750510  48.6943170  78.4700880   1.9729270  48.6133430  78.5303190
   2.2607080  48.3587730  77.6536200   2.4852490  48.0610790  79.1208760
   3.1906280  32.3523630  79.1099700   2.4078070  32.8269130  79.3896460
   2.8969210  31.4478460  79.0012880   7.7427350  33.0546730  77.1548790
   8.1835440  32.9991830  76.3070390   7.4734940  33.9704740  77.2258970
   9.6065920  32.6861970  75.1657610   9.5454320  31.7423190  75.0188630
  10.3857950  32.7942060  75.7111070   5.5785480  31.4352830  75.8598800
   6.1814850  32.0073040  76.3347320   4.8378470  31.9992270  75.6372700
   8.7220080  31.8374390  71.1339080   8.9170710  32.7357840  71.4006510
   7.9349950  31.6061470  71.6272030   2.0401630  49.5349530  85.8971390
   2.9668940  49.2993800  85.9407350   2.0252060  50.3621530  85.4157420
  10.2746690  49.0775100  72.8945640  10.4498880  48.3912840  72.2506560
   9.5768260  49.6022150  72.5022310   5.8280700  31.6147860  86.2393740
   5.7146150  31.9342470  87.1345260   6.6450440  32.0160370  85.9431020
   8.6079190  48.7619390  85.7212430   9.4004510  48.2668620  85.5138390
   8.9012340  49.4409530  86.3288040   4.7338850  39.6340330  56.6028480
   4.6532900  38.7194940  56.3320190   4.3203270  40.1307400  55.8968190
   2.8656890  41.4119350  58.4837750   2.0898990  40.9319790  58.7736320
   3.5169820  40.7325000  58.3093910   6.8864320  45.8179540  57.2636880
   6.4245850  45.0466780  57.5924050   7.6989870  45.8445610  57.7689330
   3.1127630  48.1037550  56.8840870   2.4939070  48.5595050  56.3135310
   3.9679410  48.2589010  56.4830570   2.3065880  44.0876540  58.4907910
   2.2374160  43.1466480  58.3297040   3.0685740  44.1777950  59.0630480
   3.3371050  36.8946920  58.7176840   3.7135870  36.0218800  58.6050510
   3.2390560  37.2305620  57.8267280   7.1195170  34.3897360  55.6505180
   7.9404790  33.8993930  55.6930660   7.1529250  34.9795020  56.4037020
  11.4094720  36.4064110  62.2148810  10.7046890  36.7945820  61.6963920
  11.6752640  37.1014400  62.8169740   3.9790980  42.9876790  54.2772780
   3.3608250  43.4526240  53.7135500   4.4914230  43.6804270  54.6942290
   7.3556650  36.3297740  58.4232720   6.6512220  36.6182630  59.0035830
   7.7168810  37.1397850  58.0632280   8.9719430  45.9472870  60.6860200
   8.2882950  46.6171980  60.6776870   9.5113720  46.1453520  59.9205060
  10.4243570  35.7752530  58.8141930   9.4768480  35.8091510  58.9457360
  10.7493560  36.5891480  59.1991290   6.5078170  47.7917000  59.4005380
   6.5205330  47.3879290  58.5327640   5.9553390  48.5664290  59.2966810
   7.8023590  44.5133220  54.4895550   7.6919920  43.5707550  54.6144970
   7.7991840  44.8748860  55.3758310   5.9063610  42.6946840  60.7287990
   6.3232400  42.4806950  59.8941450   6.6303430  42.9519630  61.2996610
   3.3443870  40.1398540  53.8458040   2.4173150  40.0735920  54.0746510
   3.4968690  41.0778670  53.7313280   3.3312950  36.4115540  50.8425200
   2.3916620  36.5729500  50.9277660   3.6496210  37.1301220  50.2961190
   9.8525710  41.0934060  60.8204230   9.0244340  41.1627150  60.3454360
  10.4476190  41.6788370  60.3520060   7.3741160  41.7018840  54.3493290
   6.7553580  41.3638390  53.7019590   7.3565610  41.0578600  55.0572480
   6.8167720  37.8803380  61.7659100   6.4038900  38.7057090  62.0199090
   6.0843670  37.2948420  61.5735460   7.5067820  47.9262710  62.4540080
   7.0298380  48.7334900  62.2612690   6.8229610  47.2741040  62.6066290
   5.5505860  40.9405650  51.3566040   5.9899140  40.1028080  51.2103860
   6.2634280  41.5735050  51.4430180   3.6601240  45.8801720  55.3247280
   4.0997150  46.6226050  54.9102670   3.5988130  46.1228290  56.2486240
   9.1323000  32.1948460  49.6707080   8.8195660  32.2875290  50.5706150
   9.8935470  32.7729490  49.6204510  11.0867030  47.6874650  67.5231470
  11.5626750  48.1657540  68.2020550  11.7074190  47.6192140  66.7976970
  10.4900280  44.8787500  64.6831480  10.6163340  44.6399380  63.7648660
  10.5321660  44.0472040  65.1553560   4.3517020  48.5815500  63.2526290
   4.8661690  48.4923510  64.0548720   3.5086100  48.9275200  63.5454200
   6.3271420  48.8670840  52.6810290   6.1672560  48.5773780  53.5792120
   6.1618130  48.0910970  52.1455520   6.0297550  46.3758400  51.2408290
   5.3362710  46.3735690  50.5810570   6.7720410  45.9517720  50.8102460
   5.5947480  48.0021110  55.3156780   6.0504430  47.2210490  55.6295400
   5.9340000  48.7127930  55.8597960  10.3424290  36.9319960  65.6481220
   9.7268560  37.4399630  65.1196680  10.0220710  36.0318290  65.5907160
   2.4038610  35.7711850  63.1143410   1.9417980  35.9794870  63.9263350
   2.0016720  34.9571200  62.8114080   7.4043120  36.9920800  64.2440070
   6.5536710  36.6926550  64.5649140   7.2444910  37.2362810  63.3323890
   4.4992830  38.4922550  66.3438860   4.8246240  37.6586300  66.0041090
   5.2873160  39.0151070  66.4917190   5.1380780  38.0340270  53.8379990
   4.5389670  38.7576070  53.6543610   5.6860390  37.9717050  53.0556440
   3.7445650  36.6703810  55.8683270   4.1375220  36.9876010  55.0551960
   4.1062500  35.7915690  55.9827790   2.0537820  35.4211120  67.1280130
   1.3636140  35.2283320  67.7626220   2.7970120  35.7045760  67.6604430
   4.3300790  39.2609560  59.9634050   3.5981910  39.7696370  60.3124150
   3.9325130  38.4439540  59.6622830   4.7926700  34.7143240  59.3756990
   4.8099440  35.1651890  60.2198840   4.5442280  33.8148880  59.5890430
   8.2197450  32.1275420  65.2143370   8.5443220  31.3965080  65.7401350
   8.2553960  31.8089060  64.3124360   8.1455290  42.2400530  58.8229400
   8.8654410  42.7355820  58.4325510   7.9437110  41.5618420  58.1783270
   3.6065230  33.6338490  52.9658790   2.7929840  33.1351660  52.8904100
   3.4127180  34.4736740  52.5495140   3.5274090  42.3109590  64.7098400
   3.4611400  41.3905260  64.4555990   2.8979230  42.4085030  65.4243040
   6.3213620  38.0058140  51.2620950   7.2093240  38.3175370  51.0872290
   6.2918710  37.1330390  50.8701530   2.3174210  44.1781830  51.9409120
   2.6589910  44.9224060  51.4452440   1.4886920  44.4912950  52.3033950
   3.4590820  45.1330160  64.4602200   3.4735360  44.2011120  64.2421110
   2.7515920  45.2189920  65.0991970   8.5927890  39.3169980  50.7300810
   8.5091610  39.7484200  49.8797250   9.3122080  39.7768330  51.1627630
   9.6702030  41.7737500  63.8070780   8.9450220  42.3666280  63.6100170
  10.1977490  41.7661040  63.0084150   9.6215140  46.1712240  53.4582940
   8.9791300  45.5167860  53.7326660   9.2345800  46.5767330  52.6823610
   5.2001620  43.4997670  57.3054630   5.5525440  42.9025800  56.6456000
   4.3163950  43.1741900  57.4762880   2.8924720  46.7747730  61.5542700
   3.5366940  46.9807110  62.2316120   3.2554160  46.0136130  61.1013550
   4.1656800  44.7780080  60.2720150   4.8079030  44.0773240  60.3852320
   4.6906150  45.5578520  60.0917040   8.0112520  45.0628700  49.9959290
   7.7850100  44.3459140  50.5883930   7.6208720  44.8141140  49.1581040
   5.9394420  45.5774980  63.4756210   6.2750660  46.1641670  64.1534130
   5.0194760  45.4467690  63.7054000   7.5928770  42.9800640  51.6573450
   7.3050470  43.4413330  52.4451330   8.3880940  42.5198410  51.9257670
   1.7683000  45.6266310  66.6444270   1.4479870  44.9075550  67.1889960
   1.0941360  46.3021380  66.7180330   4.9836600  35.8592470  62.0081070
   5.3517420  35.0387680  62.3360640   4.1234800  35.9194360  62.4236720
   8.3498630  34.8149410  52.8168630   7.7211790  34.9195080  52.1026860
   7.8550550  35.0346190  53.6062510   2.7956770  46.5355000  50.2502610
   2.8968750  46.3318990  49.3204590   1.8958510  46.2813280  50.4550390
   1.9438590  38.5132060  62.2319040   2.4423840  38.9877880  62.8970890
   2.0861540  37.5895580  62.4389070   4.3498090  33.8186020  55.6722300
   4.2265870  33.8372150  54.7231810   5.2982650  33.8664960  55.7920700
   9.1505450  34.7300020  63.0747430   8.6479050  35.4705420  63.4141240
   9.9662110  35.1184020  62.7584220   7.4427460  39.9733200  56.5208790
   6.5017600  39.9883430  56.6956480   7.7571530  39.1869160  56.9669090
   9.4453040  47.1442050  58.1963050   9.5700460  47.9673220  58.6686860
  10.3118600  46.9332780  57.8487200   4.7593480  44.5299200  67.0041170
   4.1531640  44.5530800  66.2636920   4.4547590  43.7982240  67.5408420
   6.1893850  48.2579490  65.6150580   7.1415600  48.1737510  65.5650820
   6.0422070  48.9221200  66.2884370   9.0803050  47.6373700  51.1142490
   8.7944560  47.2238840  50.2996670   8.8822600  48.5661410  50.9943010
   3.7853010  42.6927010  50.1590090   3.2363110  43.1396310  50.8032830
   4.4072270  42.1876260  50.6827760   7.8387950  44.0469110  66.0912350
   8.5797420  44.3844870  65.5879810   7.0760630  44.2161170  65.5382120
   1.9655770  40.6755540  49.3032490   2.4861430  39.9604560  48.9373640
   2.6124170  41.3141410  49.6033000   6.5133610  42.0983940  64.6267560
   6.9274630  42.2529020  65.4757980   5.5784610  42.2239160  64.7893340
   6.9855780  39.4380100  66.6306710   7.5676550  38.6832420  66.5427190
   7.1617550  39.9687540  65.8538190   3.6112740  39.7820600  63.9801330
   3.7308950  39.1861740  64.7196170   4.4706740  39.8190290  63.5602630
   5.9500640  40.3357790  62.5563840   5.4235860  40.8600410  61.9528980
   6.2931980  40.9685180  63.1873570   5.1974940  35.9407760  65.4710170
   4.5090460  35.2789300  65.4060160   5.9180960  35.4946030  65.9158630
   5.8275340  32.5359390  51.5300430   6.1077630  31.6927290  51.8859850
   5.0541070  32.7682500  52.0439180   1.9818470  49.5908640  63.9707870
   1.9077170  50.4943780  64.2780240   1.0797310  49.2720540  63.9429940
   2.5303800  48.7567150  51.5934230   3.4254590  49.0952120  51.6152990
   2.5621430  48.0346560  50.9658510   9.5098150  47.2870820  64.3000430
   8.9100140  47.3463380  63.5564350   9.6392050  46.3475800  64.4297280
  10.7499600  45.0288640  49.6370140   9.9192560  45.0965290  50.1077370
  10.9271430  45.9192760  49.3337000  10.2056060  41.7736120  52.1404340
  10.9674970  42.3432770  52.2464030  10.2210430  41.2063320  52.9112650
  11.2116030  42.6286220  56.9846270  11.5824860  41.8453540  56.5782240
  11.8517960  43.3175320  56.8063570   8.1949790  44.0122800  62.3976590
   7.3809630  44.4419960  62.6602380   8.6023990  44.6241210  61.7845640
  10.2575230  42.0670490  49.2976860  10.5324070  42.9749370  49.1696080
  10.0685970  42.0033020  50.2338850   6.6550840  35.0915340  50.5930490
   7.0735720  34.9046320  49.7527150   6.3486900  34.2394390  50.9033420
  10.1540570  40.0039480  54.2906290   9.7784170  39.2367410  53.8587580
   9.4243690  40.3862180  54.7781220   9.5440190  39.1511000  63.9245810
   9.3126280  38.9223750  63.0243760   9.8044740  40.0710550  63.8790700
   7.9828260  34.3767430  66.7025510   8.8598440  34.3850830  67.0859510
   7.9949100  33.6398270  66.0917860   9.4291530  38.2296970  57.5913530
   9.9529010  37.7359620  56.9603700  10.0150950  38.3647330  58.3361100
   9.6081250  38.3136840  61.1133080   8.6583960  38.2800380  61.2278070
   9.7894260  39.2236950  60.8782850   8.9191500  37.4870320  53.5305940
   9.4150620  37.2541190  54.3154820   8.7207570  36.6482160  53.1143580
  10.3478660  36.1231270  56.0643620  10.2377940  35.9687310  57.0025890
  11.1086250  35.5952210  55.8219030   8.6944380  32.0625400  62.5226620
   9.3316600  32.6759540  62.8885810   8.8419270  32.0986060  61.5775850
  11.2368930  33.9539190  49.3049760  12.1618240  33.8220370  49.0968050
  11.2144720  34.0332010  50.2586210  11.3107420  34.7249850  51.9306470
  10.5158920  34.6594970  52.4599380  11.5150700  35.6600490  51.9191820
   8.2525840  48.7641400  55.9244860   8.8484910  48.4425970  55.2479280
   8.5103990  48.2913220  56.7158130   2.0648860  33.2151590  65.4301720
   2.0037750  33.8073420  66.1797130   3.0049240  33.1077550  65.2851980
   4.7023420  32.8721650  65.0694010   5.3163830  33.1900940  64.4075090
   5.2472980  32.3870240  65.6889870  11.1198600  48.7713280  62.4755850
  10.6256880  49.1682150  61.7582980  10.5111890  48.1462490  62.8693130
   5.4431460  31.4353790  61.3963300   4.5691300  31.7688900  61.1936230
   5.3342210  30.9626970  62.2215170   6.3503440  33.6424660  62.7805020
   6.0216800  32.8276420  62.4006750   7.2985740  33.5994470  62.6570710
   8.8038050  49.4136700  59.7542590   8.3441020  50.1652510  59.3800610
   8.1750510  48.6943170  59.6957390   1.9729270  48.6133430  59.7559700
   2.2607080  48.3587730  58.8792710   2.4852490  48.0610790  60.3465270
   3.1906280  32.3523630  60.3356210   2.4078070  32.8269130  60.6152970
   2.8969210  31.4478460  60.2269390   7.7427350  33.0546730  58.3805300
   8.1835440  32.9991830  57.5326900   7.4734940  33.9704740  58.4515480
   9.6065920  32.6861970  56.3914120   9.5454320  31.7423190  56.2445140
  10.3857950  32.7942060  56.9367580   5.5785480  31.4352830  57.0855310
   6.1814850  32.0073040  57.5603830   4.8378470  31.9992270  56.8629210
   8.7220080  31.8374390  52.3595590   8.9170710  32.7357840  52.6263020
   7.9349950  31.6061470  52.8528540   2.0401630  49.5349530  67.1227900
   2.9668940  49.2993800  67.1663860   2.0252060  50.3621530  66.6413930
  10.2746690  49.0775100  54.1202150  10.4498880  48.3912840  53.4763070
   9.5768260  49.6022150  53.7278820   5.8280700  31.6147860  67.4650250
   5.7146150  31.9342470  68.3601770   6.6450440  32.0160370  67.1687530
   8.6079190  48.7619390  66.9468940   9.4004510  48.2668620  66.7394900
   8.9012340  49.4409530  67.5544550   4.7338850  39.6340330  37.8284990
   4.6532900  38.7194940  37.5576700   4.3203270  40.1307400  37.1224700
   2.8656890  41.4119350  39.7094260   2.0898990  40.9319790  39.9992830
   3.5169820  40.7325000  39.5350420   6.8864320  45.8179540  38.4893390
   6.4245850  45.0466780  38.8180560   7.6989870  45.8445610  38.9945840
   3.1127630  48.1037550  38.1097380   2.4939070  48.5595050  37.5391820
   3.9679410  48.2589010  37.7087080   2.3065880  44.0876540  39.7164420
   2.2374160  43.1466480  39.5553550   3.0685740  44.1777950  40.2886990
   3.3371050  36.8946920  39.9433350   3.7135870  36.0218800  39.8307020
   3.2390560  37.2305620  39.0523790   7.1195170  34.3897360  36.8761690
   7.9404790  33.8993930  36.9187170   7.1529250  34.9795020  37.6293530
  11.4094720  36.4064110  43.4405320  10.7046890  36.7945820  42.9220430
  11.6752640  37.1014400  44.0426250   3.9790980  42.9876790  35.5029290
   3.3608250  43.4526240  34.9392010   4.4914230  43.6804270  35.9198800
   7.3556650  36.3297740  39.6489230   6.6512220  36.6182630  40.2292340
   7.7168810  37.1397850  39.2888790   8.9719430  45.9472870  41.9116710
   8.2882950  46.6171980  41.9033380   9.5113720  46.1453520  41.1461570
  10.4243570  35.7752530  40.0398440   9.4768480  35.8091510  40.1713870
  10.7493560  36.5891480  40.4247800   6.5078170  47.7917000  40.6261890
   6.5205330  47.3879290  39.7584150   5.9553390  48.5664290  40.5223320
   7.8023590  44.5133220  35.7152060   7.6919920  43.5707550  35.8401480
   7.7991840  44.8748860  36.6014820   5.9063610  42.6946840  41.9544500
   6.3232400  42.4806950  41.1197960   6.6303430  42.9519630  42.5253120
   3.3443870  40.1398540  35.0714550   2.4173150  40.0735920  35.3003020
   3.4968690  41.0778670  34.9569790   3.3312950  36.4115540  32.0681710
   2.3916620  36.5729500  32.1534170   3.6496210  37.1301220  31.5217700
   9.8525710  41.0934060  42.0460740   9.0244340  41.1627150  41.5710870
  10.4476190  41.6788370  41.5776570   7.3741160  41.7018840  35.5749800
   6.7553580  41.3638390  34.9276100   7.3565610  41.0578600  36.2828990
   6.8167720  37.8803380  42.9915610   6.4038900  38.7057090  43.2455600
   6.0843670  37.2948420  42.7991970   7.5067820  47.9262710  43.6796590
   7.0298380  48.7334900  43.4869200   6.8229610  47.2741040  43.8322800
   5.5505860  40.9405650  32.5822550   5.9899140  40.1028080  32.4360370
   6.2634280  41.5735050  32.6686690   3.6601240  45.8801720  36.5503790
   4.0997150  46.6226050  36.1359180   3.5988130  46.1228290  37.4742750
   9.1323000  32.1948460  30.8963590   8.8195660  32.2875290  31.7962660
   9.8935470  32.7729490  30.8461020  11.0867030  47.6874650  48.7487980
  11.5626750  48.1657540  49.4277060  11.7074190  47.6192140  48.0233480
  10.4900280  44.8787500  45.9087990  10.6163340  44.6399380  44.9905170
  10.5321660  44.0472040  46.3810070   4.3517020  48.5815500  44.4782800
   4.8661690  48.4923510  45.2805230   3.5086100  48.9275200  44.7710710
   6.3271420  48.8670840  33.9066800   6.1672560  48.5773780  34.8048630
   6.1618130  48.0910970  33.3712030   6.0297550  46.3758400  32.4664800
   5.3362710  46.3735690  31.8067080   6.7720410  45.9517720  32.0358970
   5.5947480  48.0021110  36.5413290   6.0504430  47.2210490  36.8551910
   5.9340000  48.7127930  37.0854470  10.3424290  36.9319960  46.8737730
   9.7268560  37.4399630  46.3453190  10.0220710  36.0318290  46.8163670
   2.4038610  35.7711850  44.3399920   1.9417980  35.9794870  45.1519860
   2.0016720  34.9571200  44.0370590   7.4043120  36.9920800  45.4696580
   6.5536710  36.6926550  45.7905650   7.2444910  37.2362810  44.5580400
   4.4992830  38.4922550  47.5695370   4.8246240  37.6586300  47.2297600
   5.2873160  39.0151070  47.7173700   5.1380780  38.0340270  35.0636500
   4.5389670  38.7576070  34.8800120   5.6860390  37.9717050  34.2812950
   3.7445650  36.6703810  37.0939780   4.1375220  36.9876010  36.2808470
   4.1062500  35.7915690  37.2084300   2.0537820  35.4211120  48.3536640
   1.3636140  35.2283320  48.9882730   2.7970120  35.7045760  48.8860940
   4.3300790  39.2609560  41.1890560   3.5981910  39.7696370  41.5380660
   3.9325130  38.4439540  40.8879340   4.7926700  34.7143240  40.6013500
   4.8099440  35.1651890  41.4455350   4.5442280  33.8148880  40.8146940
   8.2197450  32.1275420  46.4399880   8.5443220  31.3965080  46.9657860
   8.2553960  31.8089060  45.5380870   8.1455290  42.2400530  40.0485910
   8.8654410  42.7355820  39.6582020   7.9437110  41.5618420  39.4039780
   3.6065230  33.6338490  34.1915300   2.7929840  33.1351660  34.1160610
   3.4127180  34.4736740  33.7751650   3.5274090  42.3109590  45.9354910
   3.4611400  41.3905260  45.6812500   2.8979230  42.4085030  46.6499550
   6.3213620  38.0058140  32.4877460   7.2093240  38.3175370  32.3128800
   6.2918710  37.1330390  32.0958040   2.3174210  44.1781830  33.1665630
   2.6589910  44.9224060  32.6708950   1.4886920  44.4912950  33.5290460
   3.4590820  45.1330160  45.6858710   3.4735360  44.2011120  45.4677620
   2.7515920  45.2189920  46.3248480   8.5927890  39.3169980  31.9557320
   8.5091610  39.7484200  31.1053760   9.3122080  39.7768330  32.3884140
   9.6702030  41.7737500  45.0327290   8.9450220  42.3666280  44.8356680
  10.1977490  41.7661040  44.2340660   9.6215140  46.1712240  34.6839450
   8.9791300  45.5167860  34.9583170   9.2345800  46.5767330  33.9080120
   5.2001620  43.4997670  38.5311140   5.5525440  42.9025800  37.8712510
   4.3163950  43.1741900  38.7019390   2.8924720  46.7747730  42.7799210
   3.5366940  46.9807110  43.4572630   3.2554160  46.0136130  42.3270060
   4.1656800  44.7780080  41.4976660   4.8079030  44.0773240  41.6108830
   4.6906150  45.5578520  41.3173550   8.0112520  45.0628700  31.2215800
   7.7850100  44.3459140  31.8140440   7.6208720  44.8141140  30.3837550
   5.9394420  45.5774980  44.7012720   6.2750660  46.1641670  45.3790640
   5.0194760  45.4467690  44.9310510   7.5928770  42.9800640  32.8829960
   7.3050470  43.4413330  33.6707840   8.3880940  42.5198410  33.1514180
   1.7683000  45.6266310  47.8700780   1.4479870  44.9075550  48.4146470
   1.0941360  46.3021380  47.9436840   4.9836600  35.8592470  43.2337580
   5.3517420  35.0387680  43.5617150   4.1234800  35.9194360  43.6493230
   8.3498630  34.8149410  34.0425140   7.7211790  34.9195080  33.3283370
   7.8550550  35.0346190  34.8319020   2.7956770  46.5355000  31.4759120
   2.8968750  46.3318990  30.5461100   1.8958510  46.2813280  31.6806900
   1.9438590  38.5132060  43.4575550   2.4423840  38.9877880  44.1227400
   2.0861540  37.5895580  43.6645580   4.3498090  33.8186020  36.8978810
   4.2265870  33.8372150  35.9488320   5.2982650  33.8664960  37.0177210
   9.1505450  34.7300020  44.3003940   8.6479050  35.4705420  44.6397750
   9.9662110  35.1184020  43.9840730   7.4427460  39.9733200  37.7465300
   6.5017600  39.9883430  37.9212990   7.7571530  39.1869160  38.1925600
   9.4453040  47.1442050  39.4219560   9.5700460  47.9673220  39.8943370
  10.3118600  46.9332780  39.0743710   4.7593480  44.5299200  48.2297680
   4.1531640  44.5530800  47.4893430   4.4547590  43.7982240  48.7664930
   6.1893850  48.2579490  46.8407090   7.1415600  48.1737510  46.7907330
   6.0422070  48.9221200  47.5140880   9.0803050  47.6373700  32.3399000
   8.7944560  47.2238840  31.5253180   8.8822600  48.5661410  32.2199520
   3.7853010  42.6927010  31.3846600   3.2363110  43.1396310  32.0289340
   4.4072270  42.1876260  31.9084270   7.8387950  44.0469110  47.3168860
   8.5797420  44.3844870  46.8136320   7.0760630  44.2161170  46.7638630
   1.9655770  40.6755540  30.5289000   2.4861430  39.9604560  30.1630150
   2.6124170  41.3141410  30.8289510   6.5133610  42.0983940  45.8524070
   6.9274630  42.2529020  46.7014490   5.5784610  42.2239160  46.0149850
   6.9855780  39.4380100  47.8563220   7.5676550  38.6832420  47.7683700
   7.1617550  39.9687540  47.0794700   3.6112740  39.7820600  45.2057840
   3.7308950  39.1861740  45.9452680   4.4706740  39.8190290  44.7859140
   5.9500640  40.3357790  43.7820350   5.4235860  40.8600410  43.1785490
   6.2931980  40.9685180  44.4130080   5.1974940  35.9407760  46.6966680
   4.5090460  35.2789300  46.6316670   5.9180960  35.4946030  47.1415140
   5.8275340  32.5359390  32.7556940   6.1077630  31.6927290  33.1116360
   5.0541070  32.7682500  33.2695690   1.9818470  49.5908640  45.1964380
   1.9077170  50.4943780  45.5036750   1.0797310  49.2720540  45.1686450
   2.5303800  48.7567150  32.8190740   3.4254590  49.0952120  32.8409500
   2.5621430  48.0346560  32.1915020   9.5098150  47.2870820  45.5256940
   8.9100140  47.3463380  44.7820860   9.6392050  46.3475800  45.6553790
  10.7499600  45.0288640  30.8626650   9.9192560  45.0965290  31.3333880
  10.9271430  45.9192760  30.5593510  10.2056060  41.7736120  33.3660850
  10.9674970  42.3432770  33.4720540  10.2210430  41.2063320  34.1369160
  11.2116030  42.6286220  38.2102780  11.5824860  41.8453540  37.8038750
  11.8517960  43.3175320  38.0320080   8.1949790  44.0122800  43.6233100
   7.3809630  44.4419960  43.8858890   8.6023990  44.6241210  43.0102150
  10.2575230  42.0670490  30.5233370  10.5324070  42.9749370  30.3952590
  10.0685970  42.0033020  31.4595360   6.6550840  35.0915340  31.8187000
   7.0735720  34.9046320  30.9783660   6.3486900  34.2394390  32.1289930
  10.1540570  40.0039480  35.5162800   9.7784170  39.2367410  35.0844090
   9.4243690  40.3862180  36.0037730   9.5440190  39.1511000  45.1502320
   9.3126280  38.9223750  44.2500270   9.8044740  40.0710550  45.1047210
   7.9828260  34.3767430  47.9282020   8.8598440  34.3850830  48.3116020
   7.9949100  33.6398270  47.3174370   9.4291530  38.2296970  38.8170040
   9.9529010  37.7359620  38.1860210  10.0150950  38.3647330  39.5617610
   9.6081250  38.3136840  42.3389590   8.6583960  38.2800380  42.4534580
   9.7894260  39.2236950  42.1039360   8.9191500  37.4870320  34.7562450
   9.4150620  37.2541190  35.5411330   8.7207570  36.6482160  34.3400090
  10.3478660  36.1231270  37.2900130  10.2377940  35.9687310  38.2282400
  11.1086250  35.5952210  37.0475540   8.6944380  32.0625400  43.7483130
   9.3316600  32.6759540  44.1142320   8.8419270  32.0986060  42.8032360
  11.2368930  33.9539190  30.5306270  12.1618240  33.8220370  30.3224560
  11.2144720  34.0332010  31.4842720  11.3107420  34.7249850  33.1562980
  10.5158920  34.6594970  33.6855890  11.5150700  35.6600490  33.1448330
   8.2525840  48.7641400  37.1501370   8.8484910  48.4425970  36.4735790
   8.5103990  48.2913220  37.9414640   2.0648860  33.2151590  46.6558230
   2.0037750  33.8073420  47.4053640   3.0049240  33.1077550  46.5108490
   4.7023420  32.8721650  46.2950520   5.3163830  33.1900940  45.6331600
   5.2472980  32.3870240  46.9146380  11.1198600  48.7713280  43.7012360
  10.6256880  49.1682150  42.9839490  10.5111890  48.1462490  44.0949640
   5.4431460  31.4353790  42.6219810   4.5691300  31.7688900  42.4192740
   5.3342210  30.9626970  43.4471680   6.3503440  33.6424660  44.0061530
   6.0216800  32.8276420  43.6263260   7.2985740  33.5994470  43.8827220
   8.8038050  49.4136700  40.9799100   8.3441020  50.1652510  40.6057120
   8.1750510  48.6943170  40.9213900   1.9729270  48.6133430  40.9816210
   2.2607080  48.3587730  40.1049220   2.4852490  48.0610790  41.5721780
   3.1906280  32.3523630  41.5612720   2.4078070  32.8269130  41.8409480
   2.8969210  31.4478460  41.4525900   7.7427350  33.0546730  39.6061810
   8.1835440  32.9991830  38.7583410   7.4734940  33.9704740  39.6771990
   9.6065920  32.6861970  37.6170630   9.5454320  31.7423190  37.4701650
  10.3857950  32.7942060  38.1624090   5.5785480  31.4352830  38.3111820
   6.1814850  32.0073040  38.7860340   4.8378470  31.9992270  38.0885720
   8.7220080  31.8374390  33.5852100   8.9170710  32.7357840  33.8519530
   7.9349950  31.6061470  34.0785050   2.0401630  49.5349530  48.3484410
   2.9668940  49.2993800  48.3920370   2.0252060  50.3621530  47.8670440
  10.2746690  49.0775100  35.3458660  10.4498880  48.3912840  34.7019580
   9.5768260  49.6022150  34.9535330   5.8280700  31.6147860  48.6906760
   5.7146150  31.9342470  49.5858280   6.6450440  32.0160370  48.3944040
   8.6079190  48.7619390  48.1725450   9.4004510  48.2668620  47.9651410
   8.9012340  49.4409530  48.7801060   4.7338850  39.6340330  19.0541500
   4.6532900  38.7194940  18.7833210   4.3203270  40.1307400  18.3481210
   2.8656890  41.4119350  20.9350770   2.0898990  40.9319790  21.2249340
   3.5169820  40.7325000  20.7606930   6.8864320  45.8179540  19.7149900
   6.4245850  45.0466780  20.0437070   7.6989870  45.8445610  20.2202350
   3.1127630  48.1037550  19.3353890   2.4939070  48.5595050  18.7648330
   3.9679410  48.2589010  18.9343590   2.3065880  44.0876540  20.9420930
   2.2374160  43.1466480  20.7810060   3.0685740  44.1777950  21.5143500
   3.3371050  36.8946920  21.1689860   3.7135870  36.0218800  21.0563530
   3.2390560  37.2305620  20.2780300   7.1195170  34.3897360  18.1018200
   7.9404790  33.8993930  18.1443680   7.1529250  34.9795020  18.8550040
  11.4094720  36.4064110  24.6661830  10.7046890  36.7945820  24.1476940
  11.6752640  37.1014400  25.2682760   3.9790980  42.9876790  16.7285800
   3.3608250  43.4526240  16.1648520   4.4914230  43.6804270  17.1455310
   7.3556650  36.3297740  20.8745740   6.6512220  36.6182630  21.4548850
   7.7168810  37.1397850  20.5145300   8.9719430  45.9472870  23.1373220
   8.2882950  46.6171980  23.1289890   9.5113720  46.1453520  22.3718080
  10.4243570  35.7752530  21.2654950   9.4768480  35.8091510  21.3970380
  10.7493560  36.5891480  21.6504310   6.5078170  47.7917000  21.8518400
   6.5205330  47.3879290  20.9840660   5.9553390  48.5664290  21.7479830
   7.8023590  44.5133220  16.9408570   7.6919920  43.5707550  17.0657990
   7.7991840  44.8748860  17.8271330   5.9063610  42.6946840  23.1801010
   6.3232400  42.4806950  22.3454470   6.6303430  42.9519630  23.7509630
   3.3443870  40.1398540  16.2971060   2.4173150  40.0735920  16.5259530
   3.4968690  41.0778670  16.1826300   3.3312950  36.4115540  13.2938220
   2.3916620  36.5729500  13.3790680   3.6496210  37.1301220  12.7474210
   9.8525710  41.0934060  23.2717250   9.0244340  41.1627150  22.7967380
  10.4476190  41.6788370  22.8033080   7.3741160  41.7018840  16.8006310
   6.7553580  41.3638390  16.1532610   7.3565610  41.0578600  17.5085500
   6.8167720  37.8803380  24.2172120   6.4038900  38.7057090  24.4712110
   6.0843670  37.2948420  24.0248480   7.5067820  47.9262710  24.9053100
   7.0298380  48.7334900  24.7125710   6.8229610  47.2741040  25.0579310
   5.5505860  40.9405650  13.8079060   5.9899140  40.1028080  13.6616880
   6.2634280  41.5735050  13.8943200   3.6601240  45.8801720  17.7760300
   4.0997150  46.6226050  17.3615690   3.5988130  46.1228290  18.6999260
   9.1323000  32.1948460  12.1220100   8.8195660  32.2875290  13.0219170
   9.8935470  32.7729490  12.0717530  11.0867030  47.6874650  29.9744490
  11.5626750  48.1657540  30.6533570  11.7074190  47.6192140  29.2489990
  10.4900280  44.8787500  27.1344500  10.6163340  44.6399380  26.2161680
  10.5321660  44.0472040  27.6066580   4.3517020  48.5815500  25.7039310
   4.8661690  48.4923510  26.5061740   3.5086100  48.9275200  25.9967220
   6.3271420  48.8670840  15.1323310   6.1672560  48.5773780  16.0305140
   6.1618130  48.0910970  14.5968540   6.0297550  46.3758400  13.6921310
   5.3362710  46.3735690  13.0323590   6.7720410  45.9517720  13.2615480
   5.5947480  48.0021110  17.7669800   6.0504430  47.2210490  18.0808420
   5.9340000  48.7127930  18.3110980  10.3424290  36.9319960  28.0994240
   9.7268560  37.4399630  27.5709700  10.0220710  36.0318290  28.0420180
   2.4038610  35.7711850  25.5656430   1.9417980  35.9794870  26.3776370
   2.0016720  34.9571200  25.2627100   7.4043120  36.9920800  26.6953090
   6.5536710  36.6926550  27.0162160   7.2444910  37.2362810  25.7836910
   4.4992830  38.4922550  28.7951880   4.8246240  37.6586300  28.4554110
   5.2873160  39.0151070  28.9430210   5.1380780  38.0340270  16.2893010
   4.5389670  38.7576070  16.1056630   5.6860390  37.9717050  15.5069460
   3.7445650  36.6703810  18.3196290   4.1375220  36.9876010  17.5064980
   4.1062500  35.7915690  18.4340810   2.0537820  35.4211120  29.5793150
   1.3636140  35.2283320  30.2139240   2.7970120  35.7045760  30.1117450
   4.3300790  39.2609560  22.4147070   3.5981910  39.7696370  22.7637170
   3.9325130  38.4439540  22.1135850   4.7926700  34.7143240  21.8270010
   4.8099440  35.1651890  22.6711860   4.5442280  33.8148880  22.0403450
   8.2197450  32.1275420  27.6656390   8.5443220  31.3965080  28.1914370
   8.2553960  31.8089060  26.7637380   8.1455290  42.2400530  21.2742420
   8.8654410  42.7355820  20.8838530   7.9437110  41.5618420  20.6296290
   3.6065230  33.6338490  15.4171810   2.7929840  33.1351660  15.3417120
   3.4127180  34.4736740  15.0008160   3.5274090  42.3109590  27.1611420
   3.4611400  41.3905260  26.9069010   2.8979230  42.4085030  27.8756060
   6.3213620  38.0058140  13.7133970   7.2093240  38.3175370  13.5385310
   6.2918710  37.1330390  13.3214550   2.3174210  44.1781830  14.3922140
   2.6589910  44.9224060  13.8965460   1.4886920  44.4912950  14.7546970
   3.4590820  45.1330160  26.9115220   3.4735360  44.2011120  26.6934130
   2.7515920  45.2189920  27.5504990   8.5927890  39.3169980  13.1813830
   8.5091610  39.7484200  12.3310270   9.3122080  39.7768330  13.6140650
   9.6702030  41.7737500  26.2583800   8.9450220  42.3666280  26.0613190
  10.1977490  41.7661040  25.4597170   9.6215140  46.1712240  15.9095960
   8.9791300  45.5167860  16.1839680   9.2345800  46.5767330  15.1336630
   5.2001620  43.4997670  19.7567650   5.5525440  42.9025800  19.0969020
   4.3163950  43.1741900  19.9275900   2.8924720  46.7747730  24.0055720
   3.5366940  46.9807110  24.6829140   3.2554160  46.0136130  23.5526570
   4.1656800  44.7780080  22.7233170   4.8079030  44.0773240  22.8365340
   4.6906150  45.5578520  22.5430060   8.0112520  45.0628700  12.4472310
   7.7850100  44.3459140  13.0396950   7.6208720  44.8141140  11.6094060
   5.9394420  45.5774980  25.9269230   6.2750660  46.1641670  26.6047150
   5.0194760  45.4467690  26.1567020   7.5928770  42.9800640  14.1086470
   7.3050470  43.4413330  14.8964350   8.3880940  42.5198410  14.3770690
   1.7683000  45.6266310  29.0957290   1.4479870  44.9075550  29.6402980
   1.0941360  46.3021380  29.1693350   4.9836600  35.8592470  24.4594090
   5.3517420  35.0387680  24.7873660   4.1234800  35.9194360  24.8749740
   8.3498630  34.8149410  15.2681650   7.7211790  34.9195080  14.5539880
   7.8550550  35.0346190  16.0575530   2.7956770  46.5355000  12.7015630
   2.8968750  46.3318990  11.7717610   1.8958510  46.2813280  12.9063410
   1.9438590  38.5132060  24.6832060   2.4423840  38.9877880  25.3483910
   2.0861540  37.5895580  24.8902090   4.3498090  33.8186020  18.1235320
   4.2265870  33.8372150  17.1744830   5.2982650  33.8664960  18.2433720
   9.1505450  34.7300020  25.5260450   8.6479050  35.4705420  25.8654260
   9.9662110  35.1184020  25.2097240   7.4427460  39.9733200  18.9721810
   6.5017600  39.9883430  19.1469500   7.7571530  39.1869160  19.4182110
   9.4453040  47.1442050  20.6476070   9.5700460  47.9673220  21.1199880
  10.3118600  46.9332780  20.3000220   4.7593480  44.5299200  29.4554190
   4.1531640  44.5530800  28.7149940   4.4547590  43.7982240  29.9921440
   6.1893850  48.2579490  28.0663600   7.1415600  48.1737510  28.0163840
   6.0422070  48.9221200  28.7397390   9.0803050  47.6373700  13.5655510
   8.7944560  47.2238840  12.7509690   8.8822600  48.5661410  13.4456030
   3.7853010  42.6927010  12.6103110   3.2363110  43.1396310  13.2545850
   4.4072270  42.1876260  13.1340780   7.8387950  44.0469110  28.5425370
   8.5797420  44.3844870  28.0392830   7.0760630  44.2161170  27.9895140
   1.9655770  40.6755540  11.7545510   2.4861430  39.9604560  11.3886660
   2.6124170  41.3141410  12.0546020   6.5133610  42.0983940  27.0780580
   6.9274630  42.2529020  27.9271000   5.5784610  42.2239160  27.2406360
   6.9855780  39.4380100  29.0819730   7.5676550  38.6832420  28.9940210
   7.1617550  39.9687540  28.3051210   3.6112740  39.7820600  26.4314350
   3.7308950  39.1861740  27.1709190   4.4706740  39.8190290  26.0115650
   5.9500640  40.3357790  25.0076860   5.4235860  40.8600410  24.4042000
   6.2931980  40.9685180  25.6386590   5.1974940  35.9407760  27.9223190
   4.5090460  35.2789300  27.8573180   5.9180960  35.4946030  28.3671650
   5.8275340  32.5359390  13.9813450   6.1077630  31.6927290  14.3372870
   5.0541070  32.7682500  14.4952200   1.9818470  49.5908640  26.4220890
   1.9077170  50.4943780  26.7293260   1.0797310  49.2720540  26.3942960
   2.5303800  48.7567150  14.0447250   3.4254590  49.0952120  14.0666010
   2.5621430  48.0346560  13.4171530   9.5098150  47.2870820  26.7513450
   8.9100140  47.3463380  26.0077370   9.6392050  46.3475800  26.8810300
  10.7499600  45.0288640  12.0883160   9.9192560  45.0965290  12.5590390
  10.9271430  45.9192760  11.7850020  10.2056060  41.7736120  14.5917360
  10.9674970  42.3432770  14.6977050  10.2210430  41.2063320  15.3625670
  11.2116030  42.6286220  19.4359290  11.5824860  41.8453540  19.0295260
  11.8517960  43.3175320  19.2576590   8.1949790  44.0122800  24.8489610
   7.3809630  44.4419960  25.1115400   8.6023990  44.6241210  24.2358660
  10.2575230  42.0670490  11.7489880  10.5324070  42.9749370  11.6209100
  10.0685970  42.0033020  12.6851870   6.6550840  35.0915340  13.0443510
   7.0735720  34.9046320  12.2040170   6.3486900  34.2394390  13.3546440
  10.1540570  40.0039480  16.7419310   9.7784170  39.2367410  16.3100600
   9.4243690  40.3862180  17.2294240   9.5440190  39.1511000  26.3758830
   9.3126280  38.9223750  25.4756780   9.8044740  40.0710550  26.3303720
   7.9828260  34.3767430  29.1538530   8.8598440  34.3850830  29.5372530
   7.9949100  33.6398270  28.5430880   9.4291530  38.2296970  20.0426550
   9.9529010  37.7359620  19.4116720  10.0150950  38.3647330  20.7874120
   9.6081250  38.3136840  23.5646100   8.6583960  38.2800380  23.6791090
   9.7894260  39.2236950  23.3295870   8.9191500  37.4870320  15.9818960
   9.4150620  37.2541190  16.7667840   8.7207570  36.6482160  15.5656600
  10.3478660  36.1231270  18.5156640  10.2377940  35.9687310  19.4538910
  11.1086250  35.5952210  18.2732050   8.6944380  32.0625400  24.9739640
   9.3316600  32.6759540  25.3398830   8.8419270  32.0986060  24.0288870
  11.2368930  33.9539190  11.7562780  12.1618240  33.8220370  11.5481070
  11.2144720  34.0332010  12.7099230  11.3107420  34.7249850  14.3819490
  10.5158920  34.6594970  14.9112400  11.5150700  35.6600490  14.3704840
   8.2525840  48.7641400  18.3757880   8.8484910  48.4425970  17.6992300
   8.5103990  48.2913220  19.1671150   2.0648860  33.2151590  27.8814740
   2.0037750  33.8073420  28.6310150   3.0049240  33.1077550  27.7365000
   4.7023420  32.8721650  27.5207030   5.3163830  33.1900940  26.8588110
   5.2472980  32.3870240  28.1402890  11.1198600  48.7713280  24.9268870
  10.6256880  49.1682150  24.2096000  10.5111890  48.1462490  25.3206150
   5.4431460  31.4353790  23.8476320   4.5691300  31.7688900  23.6449250
   5.3342210  30.9626970  24.6728190   6.3503440  33.6424660  25.2318040
   6.0216800  32.8276420  24.8519770   7.2985740  33.5994470  25.1083730
   8.8038050  49.4136700  22.2055610   8.3441020  50.1652510  21.8313630
   8.1750510  48.6943170  22.1470410   1.9729270  48.6133430  22.2072720
   2.2607080  48.3587730  21.3305730   2.4852490  48.0610790  22.7978290
   3.1906280  32.3523630  22.7869230   2.4078070  32.8269130  23.0665990
   2.8969210  31.4478460  22.6782410   7.7427350  33.0546730  20.8318320
   8.1835440  32.9991830  19.9839920   7.4734940  33.9704740  20.9028500
   9.6065920  32.6861970  18.8427140   9.5454320  31.7423190  18.6958160
  10.3857950  32.7942060  19.3880600   5.5785480  31.4352830  19.5368330
   6.1814850  32.0073040  20.0116850   4.8378470  31.9992270  19.3142230
   8.7220080  31.8374390  14.8108610   8.9170710  32.7357840  15.0776040
   7.9349950  31.6061470  15.3041560   2.0401630  49.5349530  29.5740920
   2.9668940  49.2993800  29.6176880   2.0252060  50.3621530  29.0926950
  10.2746690  49.0775100  16.5715170  10.4498880  48.3912840  15.9276090
   9.5768260  49.6022150  16.1791840   5.8280700  31.6147860  29.9163270
   5.7146150  31.9342470  30.8114790   6.6450440  32.0160370  29.6200550
   8.6079190  48.7619390  29.3981960   9.4004510  48.2668620  29.1907920
   8.9012340  49.4409530  30.0057570   2.8656890  41.4119350   2.1607280
   2.0898990  40.9319790   2.4505850   3.5169820  40.7325000   1.9863440
   2.3065880  44.0876540   2.1677440   2.2374160  43.1466480   2.0066570
   3.0685740  44.1777950   2.7400010  11.4094720  36.4064110   5.8918340
  10.7046890  36.7945820   5.3733450  11.6752640  37.1014400   6.4939270
   7.3556650  36.3297740   2.1002250   6.6512220  36.6182630   2.6805360
   7.7168810  37.1397850   1.7401810   8.9719430  45.9472870   4.3629730
   8.2882950  46.6171980   4.3546400   9.5113720  46.1453520   3.5974590
  10.4243570  35.7752530   2.4911460   9.4768480  35.8091510   2.6226890
  10.7493560  36.5891480   2.8760820   6.5078170  47.7917000   3.0774910
   6.5205330  47.3879290   2.2097170   5.9553390  48.5664290   2.9736340
   5.9063610  42.6946840   4.4057520   6.3232400  42.4806950   3.5710980
   6.6303430  42.9519630   4.9766140   9.8525710  41.0934060   4.4973760
   9.0244340  41.1627150   4.0223890  10.4476190  41.6788370   4.0289590
   6.8167720  37.8803380   5.4428630   6.4038900  38.7057090   5.6968620
   6.0843670  37.2948420   5.2504990   7.5067820  47.9262710   6.1309610
   7.0298380  48.7334900   5.9382220   6.8229610  47.2741040   6.2835820
  11.0867030  47.6874650  11.2001000  11.5626750  48.1657540  11.8790080
  11.7074190  47.6192140  10.4746500  10.4900280  44.8787500   8.3601010
  10.6163340  44.6399380   7.4418190  10.5321660  44.0472040   8.8323090
   4.3517020  48.5815500   6.9295820   4.8661690  48.4923510   7.7318250
   3.5086100  48.9275200   7.2223730  10.3424290  36.9319960   9.3250750
   9.7268560  37.4399630   8.7966210  10.0220710  36.0318290   9.2676690
   2.4038610  35.7711850   6.7912940   1.9417980  35.9794870   7.6032880
   2.0016720  34.9571200   6.4883610   7.4043120  36.9920800   7.9209600
   6.5536710  36.6926550   8.2418670   7.2444910  37.2362810   7.0093420
   4.4992830  38.4922550  10.0208390   4.8246240  37.6586300   9.6810620
   5.2873160  39.0151070  10.1686720   2.0537820  35.4211120  10.8049660
   1.3636140  35.2283320  11.4395750   2.7970120  35.7045760  11.3373960
   4.3300790  39.2609560   3.6403580   3.5981910  39.7696370   3.9893680
   3.9325130  38.4439540   3.3392360   4.7926700  34.7143240   3.0526520
   4.8099440  35.1651890   3.8968370   4.5442280  33.8148880   3.2659960
   8.2197450  32.1275420   8.8912900   8.5443220  31.3965080   9.4170880
   8.2553960  31.8089060   7.9893890   8.1455290  42.2400530   2.4998930
   8.8654410  42.7355820   2.1095040   7.9437110  41.5618420   1.8552800
   3.5274090  42.3109590   8.3867930   3.4611400  41.3905260   8.1325520
   2.8979230  42.4085030   9.1012570   3.4590820  45.1330160   8.1371730
   3.4735360  44.2011120   7.9190640   2.7515920  45.2189920   8.7761500
   9.6702030  41.7737500   7.4840310   8.9450220  42.3666280   7.2869700
  10.1977490  41.7661040   6.6853680   2.8924720  46.7747730   5.2312230
   3.5366940  46.9807110   5.9085650   3.2554160  46.0136130   4.7783080
   4.1656800  44.7780080   3.9489680   4.8079030  44.0773240   4.0621850
   4.6906150  45.5578520   3.7686570   5.9394420  45.5774980   7.1525740
   6.2750660  46.1641670   7.8303660   5.0194760  45.4467690   7.3823530
   1.7683000  45.6266310  10.3213800   1.4479870  44.9075550  10.8659490
   1.0941360  46.3021380  10.3949860   4.9836600  35.8592470   5.6850600
   5.3517420  35.0387680   6.0130170   4.1234800  35.9194360   6.1006250
   1.9438590  38.5132060   5.9088570   2.4423840  38.9877880   6.5740420
   2.0861540  37.5895580   6.1158600   9.1505450  34.7300020   6.7516960
   8.6479050  35.4705420   7.0910770   9.9662110  35.1184020   6.4353750
   4.7593480  44.5299200  10.6810700   4.1531640  44.5530800   9.9406450
   4.4547590  43.7982240  11.2177950   6.1893850  48.2579490   9.2920110
   7.1415600  48.1737510   9.2420350   6.0422070  48.9221200   9.9653900
   7.8387950  44.0469110   9.7681880   8.5797420  44.3844870   9.2649340
   7.0760630  44.2161170   9.2151650   6.5133610  42.0983940   8.3037090
   6.9274630  42.2529020   9.1527510   5.5784610  42.2239160   8.4662870
   6.9855780  39.4380100  10.3076240   7.5676550  38.6832420  10.2196720
   7.1617550  39.9687540   9.5307720   3.6112740  39.7820600   7.6570860
   3.7308950  39.1861740   8.3965700   4.4706740  39.8190290   7.2372160
   5.9500640  40.3357790   6.2333370   5.4235860  40.8600410   5.6298510
   6.2931980  40.9685180   6.8643100   5.1974940  35.9407760   9.1479700
   4.5090460  35.2789300   9.0829690   5.9180960  35.4946030   9.5928160
   1.9818470  49.5908640   7.6477400   1.9077170  50.4943780   7.9549770
   1.0797310  49.2720540   7.6199470   9.5098150  47.2870820   7.9769960
   8.9100140  47.3463380   7.2333880   9.6392050  46.3475800   8.1066810
   8.1949790  44.0122800   6.0746120   7.3809630  44.4419960   6.3371910
   8.6023990  44.6241210   5.4615170   9.5440190  39.1511000   7.6015340
   9.3126280  38.9223750   6.7013290   9.8044740  40.0710550   7.5560230
   7.9828260  34.3767430  10.3795040   8.8598440  34.3850830  10.7629040
   7.9949100  33.6398270   9.7687390   9.6081250  38.3136840   4.7902610
   8.6583960  38.2800380   4.9047600   9.7894260  39.2236950   4.5552380
   8.6944380  32.0625400   6.1996150   9.3316600  32.6759540   6.5655340
   8.8419270  32.0986060   5.2545380   2.0648860  33.2151590   9.1071250
   2.0037750  33.8073420   9.8566660   3.0049240  33.1077550   8.9621510
   4.7023420  32.8721650   8.7463540   5.3163830  33.1900940   8.0844620
   5.2472980  32.3870240   9.3659400  11.1198600  48.7713280   6.1525380
  10.6256880  49.1682150   5.4352510  10.5111890  48.1462490   6.5462660
   5.4431460  31.4353790   5.0732830   4.5691300  31.7688900   4.8705760
   5.3342210  30.9626970   5.8984700   6.3503440  33.6424660   6.4574550
   6.0216800  32.8276420   6.0776280   7.2985740  33.5994470   6.3340240
   8.8038050  49.4136700   3.4312120   8.3441020  50.1652510   3.0570140
   8.1750510  48.6943170   3.3726920   1.9729270  48.6133430   3.4329230
   2.2607080  48.3587730   2.5562240   2.4852490  48.0610790   4.0234800
   3.1906280  32.3523630   4.0125740   2.4078070  32.8269130   4.2922500
   2.8969210  31.4478460   3.9038920   2.0401630  49.5349530  10.7997430
   2.9668940  49.2993800  10.8433390   2.0252060  50.3621530  10.3183460
   5.8280700  31.6147860  11.1419780   5.7146150  31.9342470  12.0371300
   6.6450440  32.0160370  10.8457060   8.6079190  48.7619390  10.6238470
   9.4004510  48.2668620  10.4164430   8.9012340  49.4409530  11.2314080
   4.7338850  20.8596840 150.4745930   4.6532900  19.9451450 150.2037640
   4.3203270  21.3563910 149.7685640   6.8864320  27.0436050 151.1354330
   6.4245850  26.2723290 151.4641500   7.6989870  27.0702120 151.6406780
   3.1127630  29.3294060 150.7558320   2.4939070  29.7851560 150.1852760
   3.9679410  29.4845520 150.3548020   7.1195170  15.6153870 149.5222630
   7.9404790  15.1250440 149.5648110   7.1529250  16.2051530 150.2754470
   3.9790980  24.2133300 148.1490230   3.3608250  24.6782750 147.5852950
   4.4914230  24.9060780 148.5659740   7.8023590  25.7389730 148.3613000
   7.6919920  24.7964060 148.4862420   7.7991840  26.1005370 149.2475760
   3.3443870  21.3655050 147.7175490   2.4173150  21.2992430 147.9463960
   3.4968690  22.3035180 147.6030730   3.3312950  17.6372050 144.7142650
   2.3916620  17.7986010 144.7995110   3.6496210  18.3557730 144.1678640
   7.3741160  22.9275350 148.2210740   6.7553580  22.5894900 147.5737040
   7.3565610  22.2835110 148.9289930   5.5505860  22.1662160 145.2283490
   5.9899140  21.3284590 145.0821310   6.2634280  22.7991560 145.3147630
   3.6601240  27.1058230 149.1964730   4.0997150  27.8482560 148.7820120
   3.5988130  27.3484800 150.1203690   9.1323000  13.4204970 143.5424530
   8.8195660  13.5131800 144.4423600   9.8935470  13.9986000 143.4921960
   6.3271420  30.0927350 146.5527740   6.1672560  29.8030290 147.4509570
   6.1618130  29.3167480 146.0172970   6.0297550  27.6014910 145.1125740
   5.3362710  27.5992200 144.4528020   6.7720410  27.1774230 144.6819910
   5.5947480  29.2277620 149.1874230   6.0504430  28.4467000 149.5012850
   5.9340000  29.9384440 149.7315410   5.1380780  19.2596780 147.7097440
   4.5389670  19.9832580 147.5261060   5.6860390  19.1973560 146.9273890
   3.7445650  17.8960320 149.7400720   4.1375220  18.2132520 148.9269410
   4.1062500  17.0172200 149.8545240   3.6065230  14.8595000 146.8376240
   2.7929840  14.3608170 146.7621550   3.4127180  15.6993250 146.4212590
   6.3213620  19.2314650 145.1338400   7.2093240  19.5431880 144.9589740
   6.2918710  18.3586900 144.7418980   2.3174210  25.4038340 145.8126570
   2.6589910  26.1480570 145.3169890   1.4886920  25.7169460 146.1751400
   8.5927890  20.5426490 144.6018260   8.5091610  20.9740710 143.7514700
   9.3122080  21.0024840 145.0345080   9.6215140  27.3968750 147.3300390
   8.9791300  26.7424370 147.6044110   9.2345800  27.8023840 146.5541060
   5.2001620  24.7254180 151.1772080   5.5525440  24.1282310 150.5173450
   4.3163950  24.3998410 151.3480330   8.0112520  26.2885210 143.8676740
   7.7850100  25.5715650 144.4601380   7.6208720  26.0397650 143.0298490
   7.5928770  24.2057150 145.5290900   7.3050470  24.6669840 146.3168780
   8.3880940  23.7454920 145.7975120   8.3498630  16.0405920 146.6886080
   7.7211790  16.1451590 145.9744310   7.8550550  16.2602700 147.4779960
   2.7956770  27.7611510 144.1220060   2.8968750  27.5575500 143.1922040
   1.8958510  27.5069790 144.3267840   4.3498090  15.0442530 149.5439750
   4.2265870  15.0628660 148.5949260   5.2982650  15.0921470 149.6638150
   7.4427460  21.1989710 150.3926240   6.5017600  21.2139940 150.5673930
   7.7571530  20.4125670 150.8386540   9.0803050  28.8630210 144.9859940
   8.7944560  28.4495350 144.1714120   8.8822600  29.7917920 144.8660460
   3.7853010  23.9183520 144.0307540   3.2363110  24.3652820 144.6750280
   4.4072270  23.4132770 144.5545210   1.9655770  21.9012050 143.1749940
   2.4861430  21.1861070 142.8091090   2.6124170  22.5397920 143.4750450
   5.8275340  13.7615900 145.4017880   6.1077630  12.9183800 145.7577300
   5.0541070  13.9939010 145.9156630   2.5303800  29.9823660 145.4651680
   3.4254590  30.3208630 145.4870440   2.5621430  29.2603070 144.8375960
  10.7499600  26.2545150 143.5087590   9.9192560  26.3221800 143.9794820
  10.9271430  27.1449270 143.2054450  10.2056060  22.9992630 146.0121790
  10.9674970  23.5689280 146.1181480  10.2210430  22.4319830 146.7830100
  11.2116030  23.8542730 150.8563720  11.5824860  23.0710050 150.4499690
  11.8517960  24.5431830 150.6781020  10.2575230  23.2927000 143.1694310
  10.5324070  24.2005880 143.0413530  10.0685970  23.2289530 144.1056300
   6.6550840  16.3171850 144.4647940   7.0735720  16.1302830 143.6244600
   6.3486900  15.4650900 144.7750870  10.1540570  21.2295990 148.1623740
   9.7784170  20.4623920 147.7305030   9.4243690  21.6118690 148.6498670
   9.4291530  19.4553480 151.4630980   9.9529010  18.9616130 150.8321150
  10.0150950  19.5903840 152.2078550   8.9191500  18.7126830 147.4023390
   9.4150620  18.4797700 148.1872270   8.7207570  17.8738670 146.9861030
  10.3478660  17.3487780 149.9361070  10.2377940  17.1943820 150.8743340
  11.1086250  16.8208720 149.6936480  11.2368930  15.1795700 143.1767210
  12.1618240  15.0476880 142.9685500  11.2144720  15.2588520 144.1303660
  11.3107420  15.9506360 145.8023920  10.5158920  15.8851480 146.3316830
  11.5150700  16.8857000 145.7909270   8.2525840  29.9897910 149.7962310
   8.8484910  29.6682480 149.1196730   8.5103990  29.5169730 150.5875580
   7.7427350  14.2803240 152.2522750   8.1835440  14.2248340 151.4044350
   7.4734940  15.1961250 152.3232930   9.6065920  13.9118480 150.2631570
   9.5454320  12.9679700 150.1162590  10.3857950  14.0198570 150.8085030
   5.5785480  12.6609340 150.9572760   6.1814850  13.2329550 151.4321280
   4.8378470  13.2248780 150.7346660   8.7220080  13.0630900 146.2313040
   8.9170710  13.9614350 146.4980470   7.9349950  12.8317980 146.7245990
  10.2746690  30.3031610 147.9919600  10.4498880  29.6169350 147.3480520
   9.5768260  30.8278660 147.5996270   4.7338850  20.8596840 131.7002440
   4.6532900  19.9451450 131.4294150   4.3203270  21.3563910 130.9942150
   2.8656890  22.6375860 133.5811710   2.0898990  22.1576300 133.8710280
   3.5169820  21.9581510 133.4067870   6.8864320  27.0436050 132.3610840
   6.4245850  26.2723290 132.6898010   7.6989870  27.0702120 132.8663290
   3.1127630  29.3294060 131.9814830   2.4939070  29.7851560 131.4109270
   3.9679410  29.4845520 131.5804530   2.3065880  25.3133050 133.5881870
   2.2374160  24.3722990 133.4271000   3.0685740  25.4034460 134.1604440
   3.3371050  18.1203430 133.8150800   3.7135870  17.2475310 133.7024470
   3.2390560  18.4562130 132.9241240   7.1195170  15.6153870 130.7479140
   7.9404790  15.1250440 130.7904620   7.1529250  16.2051530 131.5010980
  11.4094720  17.6320620 137.3122770  10.7046890  18.0202330 136.7937880
  11.6752640  18.3270910 137.9143700   3.9790980  24.2133300 129.3746740
   3.3608250  24.6782750 128.8109460   4.4914230  24.9060780 129.7916250
   7.3556650  17.5554250 133.5206680   6.6512220  17.8439140 134.1009790
   7.7168810  18.3654360 133.1606240   8.9719430  27.1729380 135.7834160
   8.2882950  27.8428490 135.7750830   9.5113720  27.3710030 135.0179020
  10.4243570  17.0009040 133.9115890   9.4768480  17.0348020 134.0431320
  10.7493560  17.8147990 134.2965250   6.5078170  29.0173510 134.4979340
   6.5205330  28.6135800 133.6301600   5.9553390  29.7920800 134.3940770
   7.8023590  25.7389730 129.5869510   7.6919920  24.7964060 129.7118930
   7.7991840  26.1005370 130.4732270   5.9063610  23.9203350 135.8261950
   6.3232400  23.7063460 134.9915410   6.6303430  24.1776140 136.3970570
   3.3443870  21.3655050 128.9432000   2.4173150  21.2992430 129.1720470
   3.4968690  22.3035180 128.8287240   3.3312950  17.6372050 125.9399160
   2.3916620  17.7986010 126.0251620   3.6496210  18.3557730 125.3935150
   9.8525710  22.3190570 135.9178190   9.0244340  22.3883660 135.4428320
  10.4476190  22.9044880 135.4494020   7.3741160  22.9275350 129.4467250
   6.7553580  22.5894900 128.7993550   7.3565610  22.2835110 130.1546440
   6.8167720  19.1059890 136.8633060   6.4038900  19.9313600 137.1173050
   6.0843670  18.5204930 136.6709420   7.5067820  29.1519220 137.5514040
   7.0298380  29.9591410 137.3586650   6.8229610  28.4997550 137.7040250
   5.5505860  22.1662160 126.4540000   5.9899140  21.3284590 126.3077820
   6.2634280  22.7991560 126.5404140   3.6601240  27.1058230 130.4221240
   4.0997150  27.8482560 130.0076630   3.5988130  27.3484800 131.3460200
   9.1323000  13.4204970 124.7681040   8.8195660  13.5131800 125.6680110
   9.8935470  13.9986000 124.7178470  11.0867030  28.9131160 142.6205430
  11.5626750  29.3914050 143.2994510  11.7074190  28.8448650 141.8950930
  10.4900280  26.1044010 139.7805440  10.6163340  25.8655890 138.8622620
  10.5321660  25.2728550 140.2527520   4.3517020  29.8072010 138.3500250
   4.8661690  29.7180020 139.1522680   3.5086100  30.1531710 138.6428160
   6.3271420  30.0927350 127.7784250   6.1672560  29.8030290 128.6766080
   6.1618130  29.3167480 127.2429480   6.0297550  27.6014910 126.3382250
   5.3362710  27.5992200 125.6784530   6.7720410  27.1774230 125.9076420
   5.5947480  29.2277620 130.4130740   6.0504430  28.4467000 130.7269360
   5.9340000  29.9384440 130.9571920  10.3424290  18.1576470 140.7455180
   9.7268560  18.6656140 140.2170640  10.0220710  17.2574800 140.6881120
   2.4038610  16.9968360 138.2117370   1.9417980  17.2051380 139.0237310
   2.0016720  16.1827710 137.9088040   7.4043120  18.2177310 139.3414030
   6.5536710  17.9183060 139.6623100   7.2444910  18.4619320 138.4297850
   4.4992830  19.7179060 141.4412820   4.8246240  18.8842810 141.1015050
   5.2873160  20.2407580 141.5891150   5.1380780  19.2596780 128.9353950
   4.5389670  19.9832580 128.7517570   5.6860390  19.1973560 128.1530400
   3.7445650  17.8960320 130.9657230   4.1375220  18.2132520 130.1525920
   4.1062500  17.0172200 131.0801750   2.0537820  16.6467630 142.2254090
   1.3636140  16.4539830 142.8600180   2.7970120  16.9302270 142.7578390
   4.3300790  20.4866070 135.0608010   3.5981910  20.9952880 135.4098110
   3.9325130  19.6696050 134.7596790   4.7926700  15.9399750 134.4730950
   4.8099440  16.3908400 135.3172800   4.5442280  15.0405390 134.6864390
   8.2197450  13.3531930 140.3117330   8.5443220  12.6221590 140.8375310
   8.2553960  13.0345570 139.4098320   8.1455290  23.4657040 133.9203360
   8.8654410  23.9612330 133.5299470   7.9437110  22.7874930 133.2757230
   3.6065230  14.8595000 128.0632750   2.7929840  14.3608170 127.9878060
   3.4127180  15.6993250 127.6469100   3.5274090  23.5366100 139.8072360
   3.4611400  22.6161770 139.5529950   2.8979230  23.6341540 140.5217000
   6.3213620  19.2314650 126.3594910   7.2093240  19.5431880 126.1846250
   6.2918710  18.3586900 125.9675490   2.3174210  25.4038340 127.0383080
   2.6589910  26.1480570 126.5426400   1.4886920  25.7169460 127.4007910
   3.4590820  26.3586670 139.5576160   3.4735360  25.4267630 139.3395070
   2.7515920  26.4446430 140.1965930   8.5927890  20.5426490 125.8274770
   8.5091610  20.9740710 124.9771210   9.3122080  21.0024840 126.2601590
   9.6702030  22.9994010 138.9044740   8.9450220  23.5922790 138.7074130
  10.1977490  22.9917550 138.1058110   9.6215140  27.3968750 128.5556900
   8.9791300  26.7424370 128.8300620   9.2345800  27.8023840 127.7797570
   5.2001620  24.7254180 132.4028590   5.5525440  24.1282310 131.7429960
   4.3163950  24.3998410 132.5736840   2.8924720  28.0004240 136.6516660
   3.5366940  28.2063620 137.3290080   3.2554160  27.2392640 136.1987510
   4.1656800  26.0036590 135.3694110   4.8079030  25.3029750 135.4826280
   4.6906150  26.7835030 135.1891000   8.0112520  26.2885210 125.0933250
   7.7850100  25.5715650 125.6857890   7.6208720  26.0397650 124.2555000
   5.9394420  26.8031490 138.5730170   6.2750660  27.3898180 139.2508090
   5.0194760  26.6724200 138.8027960   7.5928770  24.2057150 126.7547410
   7.3050470  24.6669840 127.5425290   8.3880940  23.7454920 127.0231630
   1.7683000  26.8522820 141.7418230   1.4479870  26.1332060 142.2863920
   1.0941360  27.5277890 141.8154290   4.9836600  17.0848980 137.1055030
   5.3517420  16.2644190 137.4334600   4.1234800  17.1450870 137.5210680
   8.3498630  16.0405920 127.9142590   7.7211790  16.1451590 127.2000820
   7.8550550  16.2602700 128.7036470   2.7956770  27.7611510 125.3476570
   2.8968750  27.5575500 124.4178550   1.8958510  27.5069790 125.5524350
   1.9438590  19.7388570 137.3293000   2.4423840  20.2134390 137.9944850
   2.0861540  18.8152090 137.5363030   4.3498090  15.0442530 130.7696260
   4.2265870  15.0628660 129.8205770   5.2982650  15.0921470 130.8894660
   9.1505450  15.9556530 138.1721390   8.6479050  16.6961930 138.5115200
   9.9662110  16.3440530 137.8558180   7.4427460  21.1989710 131.6182750
   6.5017600  21.2139940 131.7930440   7.7571530  20.4125670 132.0643050
   9.4453040  28.3698560 133.2937010   9.5700460  29.1929730 133.7660820
  10.3118600  28.1589290 132.9461160   4.7593480  25.7555710 142.1015130
   4.1531640  25.7787310 141.3610880   4.4547590  25.0238750 142.6382380
   6.1893850  29.4836000 140.7124540   7.1415600  29.3994020 140.6624780
   6.0422070  30.1477710 141.3858330   9.0803050  28.8630210 126.2116450
   8.7944560  28.4495350 125.3970630   8.8822600  29.7917920 126.0916970
   3.7853010  23.9183520 125.2564050   3.2363110  24.3652820 125.9006790
   4.4072270  23.4132770 125.7801720   7.8387950  25.2725620 141.1886310
   8.5797420  25.6101380 140.6853770   7.0760630  25.4417680 140.6356080
   1.9655770  21.9012050 124.4006450   2.4861430  21.1861070 124.0347600
   2.6124170  22.5397920 124.7006960   6.5133610  23.3240450 139.7241520
   6.9274630  23.4785530 140.5731940   5.5784610  23.4495670 139.8867300
   6.9855780  20.6636610 141.7280670   7.5676550  19.9088930 141.6401150
   7.1617550  21.1944050 140.9512150   3.6112740  21.0077110 139.0775290
   3.7308950  20.4118250 139.8170130   4.4706740  21.0446800 138.6576590
   5.9500640  21.5614300 137.6537800   5.4235860  22.0856920 137.0502940
   6.2931980  22.1941690 138.2847530   5.1974940  17.1664270 140.5684130
   4.5090460  16.5045810 140.5034120   5.9180960  16.7202540 141.0132590
   5.8275340  13.7615900 126.6274390   6.1077630  12.9183800 126.9833810
   5.0541070  13.9939010 127.1413140   1.9818470  30.8165150 139.0681830
   1.9077170  31.7200290 139.3754200   1.0797310  30.4977050 139.0403900
   2.5303800  29.9823660 126.6908190   3.4254590  30.3208630 126.7126950
   2.5621430  29.2603070 126.0632470   9.5098150  28.5127330 139.3974390
   8.9100140  28.5719890 138.6538310   9.6392050  27.5732310 139.5271240
  10.7499600  26.2545150 124.7344100   9.9192560  26.3221800 125.2051330
  10.9271430  27.1449270 124.4310960  10.2056060  22.9992630 127.2378300
  10.9674970  23.5689280 127.3437990  10.2210430  22.4319830 128.0086610
  11.2116030  23.8542730 132.0820230  11.5824860  23.0710050 131.6756200
  11.8517960  24.5431830 131.9037530   8.1949790  25.2379310 137.4950550
   7.3809630  25.6676470 137.7576340   8.6023990  25.8497720 136.8819600
  10.2575230  23.2927000 124.3950820  10.5324070  24.2005880 124.2670040
  10.0685970  23.2289530 125.3312810   6.6550840  16.3171850 125.6904450
   7.0735720  16.1302830 124.8501110   6.3486900  15.4650900 126.0007380
  10.1540570  21.2295990 129.3880250   9.7784170  20.4623920 128.9561540
   9.4243690  21.6118690 129.8755180   9.5440190  20.3767510 139.0219770
   9.3126280  20.1480260 138.1217720   9.8044740  21.2967060 138.9764660
   7.9828260  15.6023940 141.7999470   8.8598440  15.6107340 142.1833470
   7.9949100  14.8654780 141.1891820   9.4291530  19.4553480 132.6887490
   9.9529010  18.9616130 132.0577660  10.0150950  19.5903840 133.4335060
   9.6081250  19.5393350 136.2107040   8.6583960  19.5056890 136.3252030
   9.7894260  20.4493460 135.9756810   8.9191500  18.7126830 128.6279900
   9.4150620  18.4797700 129.4128780   8.7207570  17.8738670 128.2117540
  10.3478660  17.3487780 131.1617580  10.2377940  17.1943820 132.0999850
  11.1086250  16.8208720 130.9192990   8.6944380  13.2881910 137.6200580
   9.3316600  13.9016050 137.9859770   8.8419270  13.3242570 136.6749810
  11.2368930  15.1795700 124.4023720  12.1618240  15.0476880 124.1942010
  11.2144720  15.2588520 125.3560170  11.3107420  15.9506360 127.0280430
  10.5158920  15.8851480 127.5573340  11.5150700  16.8857000 127.0165780
   8.2525840  29.9897910 131.0218820   8.8484910  29.6682480 130.3453240
   8.5103990  29.5169730 131.8132090   2.0648860  14.4408100 140.5275680
   2.0037750  15.0329930 141.2771090   3.0049240  14.3334060 140.3825940
   4.7023420  14.0978160 140.1667970   5.3163830  14.4157450 139.5049050
   5.2472980  13.6126750 140.7863830  11.1198600  29.9969790 137.5729810
  10.6256880  30.3938660 136.8556940  10.5111890  29.3719000 137.9667090
   5.4431460  12.6610300 136.4937260   4.5691300  12.9945410 136.2910190
   5.3342210  12.1883480 137.3189130   6.3503440  14.8681170 137.8778980
   6.0216800  14.0532930 137.4980710   7.2985740  14.8250980 137.7544670
   8.8038050  30.6393210 134.8516550   8.3441020  31.3909020 134.4774570
   8.1750510  29.9199680 134.7931350   1.9729270  29.8389940 134.8533660
   2.2607080  29.5844240 133.9766670   2.4852490  29.2867300 135.4439230
   3.1906280  13.5780140 135.4330170   2.4078070  14.0525640 135.7126930
   2.8969210  12.6734970 135.3243350   7.7427350  14.2803240 133.4779260
   8.1835440  14.2248340 132.6300860   7.4734940  15.1961250 133.5489440
   9.6065920  13.9118480 131.4888080   9.5454320  12.9679700 131.3419100
  10.3857950  14.0198570 132.0341540   5.5785480  12.6609340 132.1829270
   6.1814850  13.2329550 132.6577790   4.8378470  13.2248780 131.9603170
   8.7220080  13.0630900 127.4569550   8.9170710  13.9614350 127.7236980
   7.9349950  12.8317980 127.9502500   2.0401630  30.7606040 142.2201860
   2.9668940  30.5250310 142.2637820   2.0252060  31.5878040 141.7387890
  10.2746690  30.3031610 129.2176110  10.4498880  29.6169350 128.5737030
   9.5768260  30.8278660 128.8252780   5.8280700  12.8404370 142.5624210
   5.7146150  13.1598980 143.4575730   6.6450440  13.2416880 142.2661490
   8.6079190  29.9875900 142.0442900   9.4004510  29.4925130 141.8368860
   8.9012340  30.6666040 142.6518510   4.7338850  20.8596840 112.9258950
   4.6532900  19.9451450 112.6550660   4.3203270  21.3563910 112.2198660
   2.8656890  22.6375860 114.8068220   2.0898990  22.1576300 115.0966790
   3.5169820  21.9581510 114.6324380   6.8864320  27.0436050 113.5867350
   6.4245850  26.2723290 113.9154520   7.6989870  27.0702120 114.0919800
   3.1127630  29.3294060 113.2071340   2.4939070  29.7851560 112.6365780
   3.9679410  29.4845520 112.8061040   2.3065880  25.3133050 114.8138380
   2.2374160  24.3722990 114.6527510   3.0685740  25.4034460 115.3860950
   3.3371050  18.1203430 115.0407310   3.7135870  17.2475310 114.9280980
   3.2390560  18.4562130 114.1497750   7.1195170  15.6153870 111.9735650
   7.9404790  15.1250440 112.0161130   7.1529250  16.2051530 112.7267490
  11.4094720  17.6320620 118.5379280  10.7046890  18.0202330 118.0194390
  11.6752640  18.3270910 119.1400210   3.9790980  24.2133300 110.6003250
   3.3608250  24.6782750 110.0365970   4.4914230  24.9060780 111.0172760
   7.3556650  17.5554250 114.7463190   6.6512220  17.8439140 115.3266300
   7.7168810  18.3654360 114.3862750   8.9719430  27.1729380 117.0090670
   8.2882950  27.8428490 117.0007340   9.5113720  27.3710030 116.2435530
  10.4243570  17.0009040 115.1372400   9.4768480  17.0348020 115.2687830
  10.7493560  17.8147990 115.5221760   6.5078170  29.0173510 115.7235850
   6.5205330  28.6135800 114.8558110   5.9553390  29.7920800 115.6197280
   7.8023590  25.7389730 110.8126020   7.6919920  24.7964060 110.9375440
   7.7991840  26.1005370 111.6988780   5.9063610  23.9203350 117.0518460
   6.3232400  23.7063460 116.2171920   6.6303430  24.1776140 117.6227080
   3.3443870  21.3655050 110.1688510   2.4173150  21.2992430 110.3976980
   3.4968690  22.3035180 110.0543750   3.3312950  17.6372050 107.1655670
   2.3916620  17.7986010 107.2508130   3.6496210  18.3557730 106.6191660
   9.8525710  22.3190570 117.1434700   9.0244340  22.3883660 116.6684830
  10.4476190  22.9044880 116.6750530   7.3741160  22.9275350 110.6723760
   6.7553580  22.5894900 110.0250060   7.3565610  22.2835110 111.3802950
   6.8167720  19.1059890 118.0889570   6.4038900  19.9313600 118.3429560
   6.0843670  18.5204930 117.8965930   7.5067820  29.1519220 118.7770550
   7.0298380  29.9591410 118.5843160   6.8229610  28.4997550 118.9296760
   5.5505860  22.1662160 107.6796510   5.9899140  21.3284590 107.5334330
   6.2634280  22.7991560 107.7660650   3.6601240  27.1058230 111.6477750
   4.0997150  27.8482560 111.2333140   3.5988130  27.3484800 112.5716710
   9.1323000  13.4204970 105.9937550   8.8195660  13.5131800 106.8936620
   9.8935470  13.9986000 105.9434980  11.0867030  28.9131160 123.8461940
  11.5626750  29.3914050 124.5251020  11.7074190  28.8448650 123.1207440
  10.4900280  26.1044010 121.0061950  10.6163340  25.8655890 120.0879130
  10.5321660  25.2728550 121.4784030   4.3517020  29.8072010 119.5756760
   4.8661690  29.7180020 120.3779190   3.5086100  30.1531710 119.8684670
   6.3271420  30.0927350 109.0040760   6.1672560  29.8030290 109.9022590
   6.1618130  29.3167480 108.4685990   6.0297550  27.6014910 107.5638760
   5.3362710  27.5992200 106.9041040   6.7720410  27.1774230 107.1332930
   5.5947480  29.2277620 111.6387250   6.0504430  28.4467000 111.9525870
   5.9340000  29.9384440 112.1828430  10.3424290  18.1576470 121.9711690
   9.7268560  18.6656140 121.4427150  10.0220710  17.2574800 121.9137630
   2.4038610  16.9968360 119.4373880   1.9417980  17.2051380 120.2493820
   2.0016720  16.1827710 119.1344550   7.4043120  18.2177310 120.5670540
   6.5536710  17.9183060 120.8879610   7.2444910  18.4619320 119.6554360
   4.4992830  19.7179060 122.6669330   4.8246240  18.8842810 122.3271560
   5.2873160  20.2407580 122.8147660   5.1380780  19.2596780 110.1610460
   4.5389670  19.9832580 109.9774080   5.6860390  19.1973560 109.3786910
   3.7445650  17.8960320 112.1913740   4.1375220  18.2132520 111.3782430
   4.1062500  17.0172200 112.3058260   2.0537820  16.6467630 123.4510600
   1.3636140  16.4539830 124.0856690   2.7970120  16.9302270 123.9834900
   4.3300790  20.4866070 116.2864520   3.5981910  20.9952880 116.6354620
   3.9325130  19.6696050 115.9853300   4.7926700  15.9399750 115.6987460
   4.8099440  16.3908400 116.5429310   4.5442280  15.0405390 115.9120900
   8.2197450  13.3531930 121.5373840   8.5443220  12.6221590 122.0631820
   8.2553960  13.0345570 120.6354830   8.1455290  23.4657040 115.1459870
   8.8654410  23.9612330 114.7555980   7.9437110  22.7874930 114.5013740
   3.6065230  14.8595000 109.2889260   2.7929840  14.3608170 109.2134570
   3.4127180  15.6993250 108.8725610   3.5274090  23.5366100 121.0328870
   3.4611400  22.6161770 120.7786460   2.8979230  23.6341540 121.7473510
   6.3213620  19.2314650 107.5851420   7.2093240  19.5431880 107.4102760
   6.2918710  18.3586900 107.1932000   2.3174210  25.4038340 108.2639590
   2.6589910  26.1480570 107.7682910   1.4886920  25.7169460 108.6264420
   3.4590820  26.3586670 120.7832670   3.4735360  25.4267630 120.5651580
   2.7515920  26.4446430 121.4222440   8.5927890  20.5426490 107.0531280
   8.5091610  20.9740710 106.2027720   9.3122080  21.0024840 107.4858100
   9.6702030  22.9994010 120.1301250   8.9450220  23.5922790 119.9330640
  10.1977490  22.9917550 119.3314620   9.6215140  27.3968750 109.7813410
   8.9791300  26.7424370 110.0557130   9.2345800  27.8023840 109.0054080
   5.2001620  24.7254180 113.6285100   5.5525440  24.1282310 112.9686470
   4.3163950  24.3998410 113.7993350   2.8924720  28.0004240 117.8773170
   3.5366940  28.2063620 118.5546590   3.2554160  27.2392640 117.4244020
   4.1656800  26.0036590 116.5950620   4.8079030  25.3029750 116.7082790
   4.6906150  26.7835030 116.4147510   8.0112520  26.2885210 106.3189760
   7.7850100  25.5715650 106.9114400   7.6208720  26.0397650 105.4811510
   5.9394420  26.8031490 119.7986680   6.2750660  27.3898180 120.4764600
   5.0194760  26.6724200 120.0284470   7.5928770  24.2057150 107.9803920
   7.3050470  24.6669840 108.7681800   8.3880940  23.7454920 108.2488140
   1.7683000  26.8522820 122.9674740   1.4479870  26.1332060 123.5120430
   1.0941360  27.5277890 123.0410800   4.9836600  17.0848980 118.3311540
   5.3517420  16.2644190 118.6591110   4.1234800  17.1450870 118.7467190
   8.3498630  16.0405920 109.1399100   7.7211790  16.1451590 108.4257330
   7.8550550  16.2602700 109.9292980   2.7956770  27.7611510 106.5733080
   2.8968750  27.5575500 105.6435060   1.8958510  27.5069790 106.7780860
   1.9438590  19.7388570 118.5549510   2.4423840  20.2134390 119.2201360
   2.0861540  18.8152090 118.7619540   4.3498090  15.0442530 111.9952770
   4.2265870  15.0628660 111.0462280   5.2982650  15.0921470 112.1151170
   9.1505450  15.9556530 119.3977900   8.6479050  16.6961930 119.7371710
   9.9662110  16.3440530 119.0814690   7.4427460  21.1989710 112.8439260
   6.5017600  21.2139940 113.0186950   7.7571530  20.4125670 113.2899560
   9.4453040  28.3698560 114.5193520   9.5700460  29.1929730 114.9917330
  10.3118600  28.1589290 114.1717670   4.7593480  25.7555710 123.3271640
   4.1531640  25.7787310 122.5867390   4.4547590  25.0238750 123.8638890
   6.1893850  29.4836000 121.9381050   7.1415600  29.3994020 121.8881290
   6.0422070  30.1477710 122.6114840   9.0803050  28.8630210 107.4372960
   8.7944560  28.4495350 106.6227140   8.8822600  29.7917920 107.3173480
   3.7853010  23.9183520 106.4820560   3.2363110  24.3652820 107.1263300
   4.4072270  23.4132770 107.0058230   7.8387950  25.2725620 122.4142820
   8.5797420  25.6101380 121.9110280   7.0760630  25.4417680 121.8612590
   1.9655770  21.9012050 105.6262960   2.4861430  21.1861070 105.2604110
   2.6124170  22.5397920 105.9263470   6.5133610  23.3240450 120.9498030
   6.9274630  23.4785530 121.7988450   5.5784610  23.4495670 121.1123810
   6.9855780  20.6636610 122.9537180   7.5676550  19.9088930 122.8657660
   7.1617550  21.1944050 122.1768660   3.6112740  21.0077110 120.3031800
   3.7308950  20.4118250 121.0426640   4.4706740  21.0446800 119.8833100
   5.9500640  21.5614300 118.8794310   5.4235860  22.0856920 118.2759450
   6.2931980  22.1941690 119.5104040   5.1974940  17.1664270 121.7940640
   4.5090460  16.5045810 121.7290630   5.9180960  16.7202540 122.2389100
   5.8275340  13.7615900 107.8530900   6.1077630  12.9183800 108.2090320
   5.0541070  13.9939010 108.3669650   1.9818470  30.8165150 120.2938340
   1.9077170  31.7200290 120.6010710   1.0797310  30.4977050 120.2660410
   2.5303800  29.9823660 107.9164700   3.4254590  30.3208630 107.9383460
   2.5621430  29.2603070 107.2888980   9.5098150  28.5127330 120.6230900
   8.9100140  28.5719890 119.8794820   9.6392050  27.5732310 120.7527750
  10.7499600  26.2545150 105.9600610   9.9192560  26.3221800 106.4307840
  10.9271430  27.1449270 105.6567470  10.2056060  22.9992630 108.4634810
  10.9674970  23.5689280 108.5694500  10.2210430  22.4319830 109.2343120
  11.2116030  23.8542730 113.3076740  11.5824860  23.0710050 112.9012710
  11.8517960  24.5431830 113.1294040   8.1949790  25.2379310 118.7207060
   7.3809630  25.6676470 118.9832850   8.6023990  25.8497720 118.1076110
  10.2575230  23.2927000 105.6207330  10.5324070  24.2005880 105.4926550
  10.0685970  23.2289530 106.5569320   6.6550840  16.3171850 106.9160960
   7.0735720  16.1302830 106.0757620   6.3486900  15.4650900 107.2263890
  10.1540570  21.2295990 110.6136760   9.7784170  20.4623920 110.1818050
   9.4243690  21.6118690 111.1011690   9.5440190  20.3767510 120.2476280
   9.3126280  20.1480260 119.3474230   9.8044740  21.2967060 120.2021170
   7.9828260  15.6023940 123.0255980   8.8598440  15.6107340 123.4089980
   7.9949100  14.8654780 122.4148330   9.4291530  19.4553480 113.9144000
   9.9529010  18.9616130 113.2834170  10.0150950  19.5903840 114.6591570
   9.6081250  19.5393350 117.4363550   8.6583960  19.5056890 117.5508540
   9.7894260  20.4493460 117.2013320   8.9191500  18.7126830 109.8536410
   9.4150620  18.4797700 110.6385290   8.7207570  17.8738670 109.4374050
  10.3478660  17.3487780 112.3874090  10.2377940  17.1943820 113.3256360
  11.1086250  16.8208720 112.1449500   8.6944380  13.2881910 118.8457090
   9.3316600  13.9016050 119.2116280   8.8419270  13.3242570 117.9006320
  11.2368930  15.1795700 105.6280230  12.1618240  15.0476880 105.4198520
  11.2144720  15.2588520 106.5816680  11.3107420  15.9506360 108.2536940
  10.5158920  15.8851480 108.7829850  11.5150700  16.8857000 108.2422290
   8.2525840  29.9897910 112.2475330   8.8484910  29.6682480 111.5709750
   8.5103990  29.5169730 113.0388600   2.0648860  14.4408100 121.7532190
   2.0037750  15.0329930 122.5027600   3.0049240  14.3334060 121.6082450
   4.7023420  14.0978160 121.3924480   5.3163830  14.4157450 120.7305560
   5.2472980  13.6126750 122.0120340  11.1198600  29.9969790 118.7986320
  10.6256880  30.3938660 118.0813450  10.5111890  29.3719000 119.1923600
   5.4431460  12.6610300 117.7193770   4.5691300  12.9945410 117.5166700
   5.3342210  12.1883480 118.5445640   6.3503440  14.8681170 119.1035490
   6.0216800  14.0532930 118.7237220   7.2985740  14.8250980 118.9801180
   8.8038050  30.6393210 116.0773060   8.3441020  31.3909020 115.7031080
   8.1750510  29.9199680 116.0187860   1.9729270  29.8389940 116.0790170
   2.2607080  29.5844240 115.2023180   2.4852490  29.2867300 116.6695740
   3.1906280  13.5780140 116.6586680   2.4078070  14.0525640 116.9383440
   2.8969210  12.6734970 116.5499860   7.7427350  14.2803240 114.7035770
   8.1835440  14.2248340 113.8557370   7.4734940  15.1961250 114.7745950
   9.6065920  13.9118480 112.7144590   9.5454320  12.9679700 112.5675610
  10.3857950  14.0198570 113.2598050   5.5785480  12.6609340 113.4085780
   6.1814850  13.2329550 113.8834300   4.8378470  13.2248780 113.1859680
   8.7220080  13.0630900 108.6826060   8.9170710  13.9614350 108.9493490
   7.9349950  12.8317980 109.1759010   2.0401630  30.7606040 123.4458370
   2.9668940  30.5250310 123.4894330   2.0252060  31.5878040 122.9644400
  10.2746690  30.3031610 110.4432620  10.4498880  29.6169350 109.7993540
   9.5768260  30.8278660 110.0509290   5.8280700  12.8404370 123.7880720
   5.7146150  13.1598980 124.6832240   6.6450440  13.2416880 123.4918000
   8.6079190  29.9875900 123.2699410   9.4004510  29.4925130 123.0625370
   8.9012340  30.6666040 123.8775020   4.7338850  20.8596840  94.1515460
   4.6532900  19.9451450  93.8807170   4.3203270  21.3563910  93.4455170
   2.8656890  22.6375860  96.0324730   2.0898990  22.1576300  96.3223300
   3.5169820  21.9581510  95.8580890   6.8864320  27.0436050  94.8123860
   6.4245850  26.2723290  95.1411030   7.6989870  27.0702120  95.3176310
   3.1127630  29.3294060  94.4327850   2.4939070  29.7851560  93.8622290
   3.9679410  29.4845520  94.0317550   2.3065880  25.3133050  96.0394890
   2.2374160  24.3722990  95.8784020   3.0685740  25.4034460  96.6117460
   3.3371050  18.1203430  96.2663820   3.7135870  17.2475310  96.1537490
   3.2390560  18.4562130  95.3754260   7.1195170  15.6153870  93.1992160
   7.9404790  15.1250440  93.2417640   7.1529250  16.2051530  93.9524000
  11.4094720  17.6320620  99.7635790  10.7046890  18.0202330  99.2450900
  11.6752640  18.3270910 100.3656720   3.9790980  24.2133300  91.8259760
   3.3608250  24.6782750  91.2622480   4.4914230  24.9060780  92.2429270
   7.3556650  17.5554250  95.9719700   6.6512220  17.8439140  96.5522810
   7.7168810  18.3654360  95.6119260   8.9719430  27.1729380  98.2347180
   8.2882950  27.8428490  98.2263850   9.5113720  27.3710030  97.4692040
  10.4243570  17.0009040  96.3628910   9.4768480  17.0348020  96.4944340
  10.7493560  17.8147990  96.7478270   6.5078170  29.0173510  96.9492360
   6.5205330  28.6135800  96.0814620   5.9553390  29.7920800  96.8453790
   7.8023590  25.7389730  92.0382530   7.6919920  24.7964060  92.1631950
   7.7991840  26.1005370  92.9245290   5.9063610  23.9203350  98.2774970
   6.3232400  23.7063460  97.4428430   6.6303430  24.1776140  98.8483590
   3.3443870  21.3655050  91.3945020   2.4173150  21.2992430  91.6233490
   3.4968690  22.3035180  91.2800260   3.3312950  17.6372050  88.3912180
   2.3916620  17.7986010  88.4764640   3.6496210  18.3557730  87.8448170
   9.8525710  22.3190570  98.3691210   9.0244340  22.3883660  97.8941340
  10.4476190  22.9044880  97.9007040   7.3741160  22.9275350  91.8980270
   6.7553580  22.5894900  91.2506570   7.3565610  22.2835110  92.6059460
   6.8167720  19.1059890  99.3146080   6.4038900  19.9313600  99.5686070
   6.0843670  18.5204930  99.1222440   7.5067820  29.1519220 100.0027060
   7.0298380  29.9591410  99.8099670   6.8229610  28.4997550 100.1553270
   5.5505860  22.1662160  88.9053020   5.9899140  21.3284590  88.7590840
   6.2634280  22.7991560  88.9917160   3.6601240  27.1058230  92.8734260
   4.0997150  27.8482560  92.4589650   3.5988130  27.3484800  93.7973220
   9.1323000  13.4204970  87.2194060   8.8195660  13.5131800  88.1193130
   9.8935470  13.9986000  87.1691490  11.0867030  28.9131160 105.0718450
  11.5626750  29.3914050 105.7507530  11.7074190  28.8448650 104.3463950
  10.4900280  26.1044010 102.2318460  10.6163340  25.8655890 101.3135640
  10.5321660  25.2728550 102.7040540   4.3517020  29.8072010 100.8013270
   4.8661690  29.7180020 101.6035700   3.5086100  30.1531710 101.0941180
   6.3271420  30.0927350  90.2297270   6.1672560  29.8030290  91.1279100
   6.1618130  29.3167480  89.6942500   6.0297550  27.6014910  88.7895270
   5.3362710  27.5992200  88.1297550   6.7720410  27.1774230  88.3589440
   5.5947480  29.2277620  92.8643760   6.0504430  28.4467000  93.1782380
   5.9340000  29.9384440  93.4084940  10.3424290  18.1576470 103.1968200
   9.7268560  18.6656140 102.6683660  10.0220710  17.2574800 103.1394140
   2.4038610  16.9968360 100.6630390   1.9417980  17.2051380 101.4750330
   2.0016720  16.1827710 100.3601060   7.4043120  18.2177310 101.7927050
   6.5536710  17.9183060 102.1136120   7.2444910  18.4619320 100.8810870
   4.4992830  19.7179060 103.8925840   4.8246240  18.8842810 103.5528070
   5.2873160  20.2407580 104.0404170   5.1380780  19.2596780  91.3866970
   4.5389670  19.9832580  91.2030590   5.6860390  19.1973560  90.6043420
   3.7445650  17.8960320  93.4170250   4.1375220  18.2132520  92.6038940
   4.1062500  17.0172200  93.5314770   2.0537820  16.6467630 104.6767110
   1.3636140  16.4539830 105.3113200   2.7970120  16.9302270 105.2091410
   4.3300790  20.4866070  97.5121030   3.5981910  20.9952880  97.8611130
   3.9325130  19.6696050  97.2109810   4.7926700  15.9399750  96.9243970
   4.8099440  16.3908400  97.7685820   4.5442280  15.0405390  97.1377410
   8.2197450  13.3531930 102.7630350   8.5443220  12.6221590 103.2888330
   8.2553960  13.0345570 101.8611340   8.1455290  23.4657040  96.3716380
   8.8654410  23.9612330  95.9812490   7.9437110  22.7874930  95.7270250
   3.6065230  14.8595000  90.5145770   2.7929840  14.3608170  90.4391080
   3.4127180  15.6993250  90.0982120   3.5274090  23.5366100 102.2585380
   3.4611400  22.6161770 102.0042970   2.8979230  23.6341540 102.9730020
   6.3213620  19.2314650  88.8107930   7.2093240  19.5431880  88.6359270
   6.2918710  18.3586900  88.4188510   2.3174210  25.4038340  89.4896100
   2.6589910  26.1480570  88.9939420   1.4886920  25.7169460  89.8520930
   3.4590820  26.3586670 102.0089180   3.4735360  25.4267630 101.7908090
   2.7515920  26.4446430 102.6478950   8.5927890  20.5426490  88.2787790
   8.5091610  20.9740710  87.4284230   9.3122080  21.0024840  88.7114610
   9.6702030  22.9994010 101.3557760   8.9450220  23.5922790 101.1587150
  10.1977490  22.9917550 100.5571130   9.6215140  27.3968750  91.0069920
   8.9791300  26.7424370  91.2813640   9.2345800  27.8023840  90.2310590
   5.2001620  24.7254180  94.8541610   5.5525440  24.1282310  94.1942980
   4.3163950  24.3998410  95.0249860   2.8924720  28.0004240  99.1029680
   3.5366940  28.2063620  99.7803100   3.2554160  27.2392640  98.6500530
   4.1656800  26.0036590  97.8207130   4.8079030  25.3029750  97.9339300
   4.6906150  26.7835030  97.6404020   8.0112520  26.2885210  87.5446270
   7.7850100  25.5715650  88.1370910   7.6208720  26.0397650  86.7068020
   5.9394420  26.8031490 101.0243190   6.2750660  27.3898180 101.7021110
   5.0194760  26.6724200 101.2540980   7.5928770  24.2057150  89.2060430
   7.3050470  24.6669840  89.9938310   8.3880940  23.7454920  89.4744650
   1.7683000  26.8522820 104.1931250   1.4479870  26.1332060 104.7376940
   1.0941360  27.5277890 104.2667310   4.9836600  17.0848980  99.5568050
   5.3517420  16.2644190  99.8847620   4.1234800  17.1450870  99.9723700
   8.3498630  16.0405920  90.3655610   7.7211790  16.1451590  89.6513840
   7.8550550  16.2602700  91.1549490   2.7956770  27.7611510  87.7989590
   2.8968750  27.5575500  86.8691570   1.8958510  27.5069790  88.0037370
   1.9438590  19.7388570  99.7806020   2.4423840  20.2134390 100.4457870
   2.0861540  18.8152090  99.9876050   4.3498090  15.0442530  93.2209280
   4.2265870  15.0628660  92.2718790   5.2982650  15.0921470  93.3407680
   9.1505450  15.9556530 100.6234410   8.6479050  16.6961930 100.9628220
   9.9662110  16.3440530 100.3071200   7.4427460  21.1989710  94.0695770
   6.5017600  21.2139940  94.2443460   7.7571530  20.4125670  94.5156070
   9.4453040  28.3698560  95.7450030   9.5700460  29.1929730  96.2173840
  10.3118600  28.1589290  95.3974180   4.7593480  25.7555710 104.5528150
   4.1531640  25.7787310 103.8123900   4.4547590  25.0238750 105.0895400
   6.1893850  29.4836000 103.1637560   7.1415600  29.3994020 103.1137800
   6.0422070  30.1477710 103.8371350   9.0803050  28.8630210  88.6629470
   8.7944560  28.4495350  87.8483650   8.8822600  29.7917920  88.5429990
   3.7853010  23.9183520  87.7077070   3.2363110  24.3652820  88.3519810
   4.4072270  23.4132770  88.2314740   7.8387950  25.2725620 103.6399330
   8.5797420  25.6101380 103.1366790   7.0760630  25.4417680 103.0869100
   1.9655770  21.9012050  86.8519470   2.4861430  21.1861070  86.4860620
   2.6124170  22.5397920  87.1519980   6.5133610  23.3240450 102.1754540
   6.9274630  23.4785530 103.0244960   5.5784610  23.4495670 102.3380320
   6.9855780  20.6636610 104.1793690   7.5676550  19.9088930 104.0914170
   7.1617550  21.1944050 103.4025170   3.6112740  21.0077110 101.5288310
   3.7308950  20.4118250 102.2683150   4.4706740  21.0446800 101.1089610
   5.9500640  21.5614300 100.1050820   5.4235860  22.0856920  99.5015960
   6.2931980  22.1941690 100.7360550   5.1974940  17.1664270 103.0197150
   4.5090460  16.5045810 102.9547140   5.9180960  16.7202540 103.4645610
   5.8275340  13.7615900  89.0787410   6.1077630  12.9183800  89.4346830
   5.0541070  13.9939010  89.5926160   1.9818470  30.8165150 101.5194850
   1.9077170  31.7200290 101.8267220   1.0797310  30.4977050 101.4916920
   2.5303800  29.9823660  89.1421210   3.4254590  30.3208630  89.1639970
   2.5621430  29.2603070  88.5145490   9.5098150  28.5127330 101.8487410
   8.9100140  28.5719890 101.1051330   9.6392050  27.5732310 101.9784260
  10.7499600  26.2545150  87.1857120   9.9192560  26.3221800  87.6564350
  10.9271430  27.1449270  86.8823980  10.2056060  22.9992630  89.6891320
  10.9674970  23.5689280  89.7951010  10.2210430  22.4319830  90.4599630
  11.2116030  23.8542730  94.5333250  11.5824860  23.0710050  94.1269220
  11.8517960  24.5431830  94.3550550   8.1949790  25.2379310  99.9463570
   7.3809630  25.6676470 100.2089360   8.6023990  25.8497720  99.3332620
  10.2575230  23.2927000  86.8463840  10.5324070  24.2005880  86.7183060
  10.0685970  23.2289530  87.7825830   6.6550840  16.3171850  88.1417470
   7.0735720  16.1302830  87.3014130   6.3486900  15.4650900  88.4520400
  10.1540570  21.2295990  91.8393270   9.7784170  20.4623920  91.4074560
   9.4243690  21.6118690  92.3268200   9.5440190  20.3767510 101.4732790
   9.3126280  20.1480260 100.5730740   9.8044740  21.2967060 101.4277680
   7.9828260  15.6023940 104.2512490   8.8598440  15.6107340 104.6346490
   7.9949100  14.8654780 103.6404840   9.4291530  19.4553480  95.1400510
   9.9529010  18.9616130  94.5090680  10.0150950  19.5903840  95.8848080
   9.6081250  19.5393350  98.6620060   8.6583960  19.5056890  98.7765050
   9.7894260  20.4493460  98.4269830   8.9191500  18.7126830  91.0792920
   9.4150620  18.4797700  91.8641800   8.7207570  17.8738670  90.6630560
  10.3478660  17.3487780  93.6130600  10.2377940  17.1943820  94.5512870
  11.1086250  16.8208720  93.3706010   8.6944380  13.2881910 100.0713600
   9.3316600  13.9016050 100.4372790   8.8419270  13.3242570  99.1262830
  11.2368930  15.1795700  86.8536740  12.1618240  15.0476880  86.6455030
  11.2144720  15.2588520  87.8073190  11.3107420  15.9506360  89.4793450
  10.5158920  15.8851480  90.0086360  11.5150700  16.8857000  89.4678800
   8.2525840  29.9897910  93.4731840   8.8484910  29.6682480  92.7966260
   8.5103990  29.5169730  94.2645110   2.0648860  14.4408100 102.9788700
   2.0037750  15.0329930 103.7284110   3.0049240  14.3334060 102.8338960
   4.7023420  14.0978160 102.6180990   5.3163830  14.4157450 101.9562070
   5.2472980  13.6126750 103.2376850  11.1198600  29.9969790 100.0242830
  10.6256880  30.3938660  99.3069960  10.5111890  29.3719000 100.4180110
   5.4431460  12.6610300  98.9450280   4.5691300  12.9945410  98.7423210
   5.3342210  12.1883480  99.7702150   6.3503440  14.8681170 100.3292000
   6.0216800  14.0532930  99.9493730   7.2985740  14.8250980 100.2057690
   8.8038050  30.6393210  97.3029570   8.3441020  31.3909020  96.9287590
   8.1750510  29.9199680  97.2444370   1.9729270  29.8389940  97.3046680
   2.2607080  29.5844240  96.4279690   2.4852490  29.2867300  97.8952250
   3.1906280  13.5780140  97.8843190   2.4078070  14.0525640  98.1639950
   2.8969210  12.6734970  97.7756370   7.7427350  14.2803240  95.9292280
   8.1835440  14.2248340  95.0813880   7.4734940  15.1961250  96.0002460
   9.6065920  13.9118480  93.9401100   9.5454320  12.9679700  93.7932120
  10.3857950  14.0198570  94.4854560   5.5785480  12.6609340  94.6342290
   6.1814850  13.2329550  95.1090810   4.8378470  13.2248780  94.4116190
   8.7220080  13.0630900  89.9082570   8.9170710  13.9614350  90.1750000
   7.9349950  12.8317980  90.4015520   2.0401630  30.7606040 104.6714880
   2.9668940  30.5250310 104.7150840   2.0252060  31.5878040 104.1900910
  10.2746690  30.3031610  91.6689130  10.4498880  29.6169350  91.0250050
   9.5768260  30.8278660  91.2765800   5.8280700  12.8404370 105.0137230
   5.7146150  13.1598980 105.9088750   6.6450440  13.2416880 104.7174510
   8.6079190  29.9875900 104.4955920   9.4004510  29.4925130 104.2881880
   8.9012340  30.6666040 105.1031530   4.7338850  20.8596840  75.3771970
   4.6532900  19.9451450  75.1063680   4.3203270  21.3563910  74.6711680
   2.8656890  22.6375860  77.2581240   2.0898990  22.1576300  77.5479810
   3.5169820  21.9581510  77.0837400   6.8864320  27.0436050  76.0380370
   6.4245850  26.2723290  76.3667540   7.6989870  27.0702120  76.5432820
   3.1127630  29.3294060  75.6584360   2.4939070  29.7851560  75.0878800
   3.9679410  29.4845520  75.2574060   2.3065880  25.3133050  77.2651400
   2.2374160  24.3722990  77.1040530   3.0685740  25.4034460  77.8373970
   3.3371050  18.1203430  77.4920330   3.7135870  17.2475310  77.3794000
   3.2390560  18.4562130  76.6010770   7.1195170  15.6153870  74.4248670
   7.9404790  15.1250440  74.4674150   7.1529250  16.2051530  75.1780510
  11.4094720  17.6320620  80.9892300  10.7046890  18.0202330  80.4707410
  11.6752640  18.3270910  81.5913230   3.9790980  24.2133300  73.0516270
   3.3608250  24.6782750  72.4878990   4.4914230  24.9060780  73.4685780
   7.3556650  17.5554250  77.1976210   6.6512220  17.8439140  77.7779320
   7.7168810  18.3654360  76.8375770   8.9719430  27.1729380  79.4603690
   8.2882950  27.8428490  79.4520360   9.5113720  27.3710030  78.6948550
  10.4243570  17.0009040  77.5885420   9.4768480  17.0348020  77.7200850
  10.7493560  17.8147990  77.9734780   6.5078170  29.0173510  78.1748870
   6.5205330  28.6135800  77.3071130   5.9553390  29.7920800  78.0710300
   7.8023590  25.7389730  73.2639040   7.6919920  24.7964060  73.3888460
   7.7991840  26.1005370  74.1501800   5.9063610  23.9203350  79.5031480
   6.3232400  23.7063460  78.6684940   6.6303430  24.1776140  80.0740100
   3.3443870  21.3655050  72.6201530   2.4173150  21.2992430  72.8490000
   3.4968690  22.3035180  72.5056770   3.3312950  17.6372050  69.6168690
   2.3916620  17.7986010  69.7021150   3.6496210  18.3557730  69.0704680
   9.8525710  22.3190570  79.5947720   9.0244340  22.3883660  79.1197850
  10.4476190  22.9044880  79.1263550   7.3741160  22.9275350  73.1236780
   6.7553580  22.5894900  72.4763080   7.3565610  22.2835110  73.8315970
   6.8167720  19.1059890  80.5402590   6.4038900  19.9313600  80.7942580
   6.0843670  18.5204930  80.3478950   7.5067820  29.1519220  81.2283570
   7.0298380  29.9591410  81.0356180   6.8229610  28.4997550  81.3809780
   5.5505860  22.1662160  70.1309530   5.9899140  21.3284590  69.9847350
   6.2634280  22.7991560  70.2173670   3.6601240  27.1058230  74.0990770
   4.0997150  27.8482560  73.6846160   3.5988130  27.3484800  75.0229730
   9.1323000  13.4204970  68.4450570   8.8195660  13.5131800  69.3449640
   9.8935470  13.9986000  68.3948000  11.0867030  28.9131160  86.2974960
  11.5626750  29.3914050  86.9764040  11.7074190  28.8448650  85.5720460
  10.4900280  26.1044010  83.4574970  10.6163340  25.8655890  82.5392150
  10.5321660  25.2728550  83.9297050   4.3517020  29.8072010  82.0269780
   4.8661690  29.7180020  82.8292210   3.5086100  30.1531710  82.3197690
   6.3271420  30.0927350  71.4553780   6.1672560  29.8030290  72.3535610
   6.1618130  29.3167480  70.9199010   6.0297550  27.6014910  70.0151780
   5.3362710  27.5992200  69.3554060   6.7720410  27.1774230  69.5845950
   5.5947480  29.2277620  74.0900270   6.0504430  28.4467000  74.4038890
   5.9340000  29.9384440  74.6341450  10.3424290  18.1576470  84.4224710
   9.7268560  18.6656140  83.8940170  10.0220710  17.2574800  84.3650650
   2.4038610  16.9968360  81.8886900   1.9417980  17.2051380  82.7006840
   2.0016720  16.1827710  81.5857570   7.4043120  18.2177310  83.0183560
   6.5536710  17.9183060  83.3392630   7.2444910  18.4619320  82.1067380
   4.4992830  19.7179060  85.1182350   4.8246240  18.8842810  84.7784580
   5.2873160  20.2407580  85.2660680   5.1380780  19.2596780  72.6123480
   4.5389670  19.9832580  72.4287100   5.6860390  19.1973560  71.8299930
   3.7445650  17.8960320  74.6426760   4.1375220  18.2132520  73.8295450
   4.1062500  17.0172200  74.7571280   2.0537820  16.6467630  85.9023620
   1.3636140  16.4539830  86.5369710   2.7970120  16.9302270  86.4347920
   4.3300790  20.4866070  78.7377540   3.5981910  20.9952880  79.0867640
   3.9325130  19.6696050  78.4366320   4.7926700  15.9399750  78.1500480
   4.8099440  16.3908400  78.9942330   4.5442280  15.0405390  78.3633920
   8.2197450  13.3531930  83.9886860   8.5443220  12.6221590  84.5144840
   8.2553960  13.0345570  83.0867850   8.1455290  23.4657040  77.5972890
   8.8654410  23.9612330  77.2069000   7.9437110  22.7874930  76.9526760
   3.6065230  14.8595000  71.7402280   2.7929840  14.3608170  71.6647590
   3.4127180  15.6993250  71.3238630   3.5274090  23.5366100  83.4841890
   3.4611400  22.6161770  83.2299480   2.8979230  23.6341540  84.1986530
   6.3213620  19.2314650  70.0364440   7.2093240  19.5431880  69.8615780
   6.2918710  18.3586900  69.6445020   2.3174210  25.4038340  70.7152610
   2.6589910  26.1480570  70.2195930   1.4886920  25.7169460  71.0777440
   3.4590820  26.3586670  83.2345690   3.4735360  25.4267630  83.0164600
   2.7515920  26.4446430  83.8735460   8.5927890  20.5426490  69.5044300
   8.5091610  20.9740710  68.6540740   9.3122080  21.0024840  69.9371120
   9.6702030  22.9994010  82.5814270   8.9450220  23.5922790  82.3843660
  10.1977490  22.9917550  81.7827640   9.6215140  27.3968750  72.2326430
   8.9791300  26.7424370  72.5070150   9.2345800  27.8023840  71.4567100
   5.2001620  24.7254180  76.0798120   5.5525440  24.1282310  75.4199490
   4.3163950  24.3998410  76.2506370   2.8924720  28.0004240  80.3286190
   3.5366940  28.2063620  81.0059610   3.2554160  27.2392640  79.8757040
   4.1656800  26.0036590  79.0463640   4.8079030  25.3029750  79.1595810
   4.6906150  26.7835030  78.8660530   8.0112520  26.2885210  68.7702780
   7.7850100  25.5715650  69.3627420   7.6208720  26.0397650  67.9324530
   5.9394420  26.8031490  82.2499700   6.2750660  27.3898180  82.9277620
   5.0194760  26.6724200  82.4797490   7.5928770  24.2057150  70.4316940
   7.3050470  24.6669840  71.2194820   8.3880940  23.7454920  70.7001160
   1.7683000  26.8522820  85.4187760   1.4479870  26.1332060  85.9633450
   1.0941360  27.5277890  85.4923820   4.9836600  17.0848980  80.7824560
   5.3517420  16.2644190  81.1104130   4.1234800  17.1450870  81.1980210
   8.3498630  16.0405920  71.5912120   7.7211790  16.1451590  70.8770350
   7.8550550  16.2602700  72.3806000   2.7956770  27.7611510  69.0246100
   2.8968750  27.5575500  68.0948080   1.8958510  27.5069790  69.2293880
   1.9438590  19.7388570  81.0062530   2.4423840  20.2134390  81.6714380
   2.0861540  18.8152090  81.2132560   4.3498090  15.0442530  74.4465790
   4.2265870  15.0628660  73.4975300   5.2982650  15.0921470  74.5664190
   9.1505450  15.9556530  81.8490920   8.6479050  16.6961930  82.1884730
   9.9662110  16.3440530  81.5327710   7.4427460  21.1989710  75.2952280
   6.5017600  21.2139940  75.4699970   7.7571530  20.4125670  75.7412580
   9.4453040  28.3698560  76.9706540   9.5700460  29.1929730  77.4430350
  10.3118600  28.1589290  76.6230690   4.7593480  25.7555710  85.7784660
   4.1531640  25.7787310  85.0380410   4.4547590  25.0238750  86.3151910
   6.1893850  29.4836000  84.3894070   7.1415600  29.3994020  84.3394310
   6.0422070  30.1477710  85.0627860   9.0803050  28.8630210  69.8885980
   8.7944560  28.4495350  69.0740160   8.8822600  29.7917920  69.7686500
   3.7853010  23.9183520  68.9333580   3.2363110  24.3652820  69.5776320
   4.4072270  23.4132770  69.4571250   7.8387950  25.2725620  84.8655840
   8.5797420  25.6101380  84.3623300   7.0760630  25.4417680  84.3125610
   1.9655770  21.9012050  68.0775980   2.4861430  21.1861070  67.7117130
   2.6124170  22.5397920  68.3776490   6.5133610  23.3240450  83.4011050
   6.9274630  23.4785530  84.2501470   5.5784610  23.4495670  83.5636830
   6.9855780  20.6636610  85.4050200   7.5676550  19.9088930  85.3170680
   7.1617550  21.1944050  84.6281680   3.6112740  21.0077110  82.7544820
   3.7308950  20.4118250  83.4939660   4.4706740  21.0446800  82.3346120
   5.9500640  21.5614300  81.3307330   5.4235860  22.0856920  80.7272470
   6.2931980  22.1941690  81.9617060   5.1974940  17.1664270  84.2453660
   4.5090460  16.5045810  84.1803650   5.9180960  16.7202540  84.6902120
   5.8275340  13.7615900  70.3043920   6.1077630  12.9183800  70.6603340
   5.0541070  13.9939010  70.8182670   1.9818470  30.8165150  82.7451360
   1.9077170  31.7200290  83.0523730   1.0797310  30.4977050  82.7173430
   2.5303800  29.9823660  70.3677720   3.4254590  30.3208630  70.3896480
   2.5621430  29.2603070  69.7402000   9.5098150  28.5127330  83.0743920
   8.9100140  28.5719890  82.3307840   9.6392050  27.5732310  83.2040770
  10.7499600  26.2545150  68.4113630   9.9192560  26.3221800  68.8820860
  10.9271430  27.1449270  68.1080490  10.2056060  22.9992630  70.9147830
  10.9674970  23.5689280  71.0207520  10.2210430  22.4319830  71.6856140
  11.2116030  23.8542730  75.7589760  11.5824860  23.0710050  75.3525730
  11.8517960  24.5431830  75.5807060   8.1949790  25.2379310  81.1720080
   7.3809630  25.6676470  81.4345870   8.6023990  25.8497720  80.5589130
  10.2575230  23.2927000  68.0720350  10.5324070  24.2005880  67.9439570
  10.0685970  23.2289530  69.0082340   6.6550840  16.3171850  69.3673980
   7.0735720  16.1302830  68.5270640   6.3486900  15.4650900  69.6776910
  10.1540570  21.2295990  73.0649780   9.7784170  20.4623920  72.6331070
   9.4243690  21.6118690  73.5524710   9.5440190  20.3767510  82.6989300
   9.3126280  20.1480260  81.7987250   9.8044740  21.2967060  82.6534190
   7.9828260  15.6023940  85.4769000   8.8598440  15.6107340  85.8603000
   7.9949100  14.8654780  84.8661350   9.4291530  19.4553480  76.3657020
   9.9529010  18.9616130  75.7347190  10.0150950  19.5903840  77.1104590
   9.6081250  19.5393350  79.8876570   8.6583960  19.5056890  80.0021560
   9.7894260  20.4493460  79.6526340   8.9191500  18.7126830  72.3049430
   9.4150620  18.4797700  73.0898310   8.7207570  17.8738670  71.8887070
  10.3478660  17.3487780  74.8387110  10.2377940  17.1943820  75.7769380
  11.1086250  16.8208720  74.5962520   8.6944380  13.2881910  81.2970110
   9.3316600  13.9016050  81.6629300   8.8419270  13.3242570  80.3519340
  11.2368930  15.1795700  68.0793250  12.1618240  15.0476880  67.8711540
  11.2144720  15.2588520  69.0329700  11.3107420  15.9506360  70.7049960
  10.5158920  15.8851480  71.2342870  11.5150700  16.8857000  70.6935310
   8.2525840  29.9897910  74.6988350   8.8484910  29.6682480  74.0222770
   8.5103990  29.5169730  75.4901620   2.0648860  14.4408100  84.2045210
   2.0037750  15.0329930  84.9540620   3.0049240  14.3334060  84.0595470
   4.7023420  14.0978160  83.8437500   5.3163830  14.4157450  83.1818580
   5.2472980  13.6126750  84.4633360  11.1198600  29.9969790  81.2499340
  10.6256880  30.3938660  80.5326470  10.5111890  29.3719000  81.6436620
   5.4431460  12.6610300  80.1706790   4.5691300  12.9945410  79.9679720
   5.3342210  12.1883480  80.9958660   6.3503440  14.8681170  81.5548510
   6.0216800  14.0532930  81.1750240   7.2985740  14.8250980  81.4314200
   8.8038050  30.6393210  78.5286080   8.3441020  31.3909020  78.1544100
   8.1750510  29.9199680  78.4700880   1.9729270  29.8389940  78.5303190
   2.2607080  29.5844240  77.6536200   2.4852490  29.2867300  79.1208760
   3.1906280  13.5780140  79.1099700   2.4078070  14.0525640  79.3896460
   2.8969210  12.6734970  79.0012880   7.7427350  14.2803240  77.1548790
   8.1835440  14.2248340  76.3070390   7.4734940  15.1961250  77.2258970
   9.6065920  13.9118480  75.1657610   9.5454320  12.9679700  75.0188630
  10.3857950  14.0198570  75.7111070   5.5785480  12.6609340  75.8598800
   6.1814850  13.2329550  76.3347320   4.8378470  13.2248780  75.6372700
   8.7220080  13.0630900  71.1339080   8.9170710  13.9614350  71.4006510
   7.9349950  12.8317980  71.6272030   2.0401630  30.7606040  85.8971390
   2.9668940  30.5250310  85.9407350   2.0252060  31.5878040  85.4157420
  10.2746690  30.3031610  72.8945640  10.4498880  29.6169350  72.2506560
   9.5768260  30.8278660  72.5022310   5.8280700  12.8404370  86.2393740
   5.7146150  13.1598980  87.1345260   6.6450440  13.2416880  85.9431020
   8.6079190  29.9875900  85.7212430   9.4004510  29.4925130  85.5138390
   8.9012340  30.6666040  86.3288040   4.7338850  20.8596840  56.6028480
   4.6532900  19.9451450  56.3320190   4.3203270  21.3563910  55.8968190
   2.8656890  22.6375860  58.4837750   2.0898990  22.1576300  58.7736320
   3.5169820  21.9581510  58.3093910   6.8864320  27.0436050  57.2636880
   6.4245850  26.2723290  57.5924050   7.6989870  27.0702120  57.7689330
   3.1127630  29.3294060  56.8840870   2.4939070  29.7851560  56.3135310
   3.9679410  29.4845520  56.4830570   2.3065880  25.3133050  58.4907910
   2.2374160  24.3722990  58.3297040   3.0685740  25.4034460  59.0630480
   3.3371050  18.1203430  58.7176840   3.7135870  17.2475310  58.6050510
   3.2390560  18.4562130  57.8267280   7.1195170  15.6153870  55.6505180
   7.9404790  15.1250440  55.6930660   7.1529250  16.2051530  56.4037020
  11.4094720  17.6320620  62.2148810  10.7046890  18.0202330  61.6963920
  11.6752640  18.3270910  62.8169740   3.9790980  24.2133300  54.2772780
   3.3608250  24.6782750  53.7135500   4.4914230  24.9060780  54.6942290
   7.3556650  17.5554250  58.4232720   6.6512220  17.8439140  59.0035830
   7.7168810  18.3654360  58.0632280   8.9719430  27.1729380  60.6860200
   8.2882950  27.8428490  60.6776870   9.5113720  27.3710030  59.9205060
  10.4243570  17.0009040  58.8141930   9.4768480  17.0348020  58.9457360
  10.7493560  17.8147990  59.1991290   6.5078170  29.0173510  59.4005380
   6.5205330  28.6135800  58.5327640   5.9553390  29.7920800  59.2966810
   7.8023590  25.7389730  54.4895550   7.6919920  24.7964060  54.6144970
   7.7991840  26.1005370  55.3758310   5.9063610  23.9203350  60.7287990
   6.3232400  23.7063460  59.8941450   6.6303430  24.1776140  61.2996610
   3.3443870  21.3655050  53.8458040   2.4173150  21.2992430  54.0746510
   3.4968690  22.3035180  53.7313280   3.3312950  17.6372050  50.8425200
   2.3916620  17.7986010  50.9277660   3.6496210  18.3557730  50.2961190
   9.8525710  22.3190570  60.8204230   9.0244340  22.3883660  60.3454360
  10.4476190  22.9044880  60.3520060   7.3741160  22.9275350  54.3493290
   6.7553580  22.5894900  53.7019590   7.3565610  22.2835110  55.0572480
   6.8167720  19.1059890  61.7659100   6.4038900  19.9313600  62.0199090
   6.0843670  18.5204930  61.5735460   7.5067820  29.1519220  62.4540080
   7.0298380  29.9591410  62.2612690   6.8229610  28.4997550  62.6066290
   5.5505860  22.1662160  51.3566040   5.9899140  21.3284590  51.2103860
   6.2634280  22.7991560  51.4430180   3.6601240  27.1058230  55.3247280
   4.0997150  27.8482560  54.9102670   3.5988130  27.3484800  56.2486240
   9.1323000  13.4204970  49.6707080   8.8195660  13.5131800  50.5706150
   9.8935470  13.9986000  49.6204510  11.0867030  28.9131160  67.5231470
  11.5626750  29.3914050  68.2020550  11.7074190  28.8448650  66.7976970
  10.4900280  26.1044010  64.6831480  10.6163340  25.8655890  63.7648660
  10.5321660  25.2728550  65.1553560   4.3517020  29.8072010  63.2526290
   4.8661690  29.7180020  64.0548720   3.5086100  30.1531710  63.5454200
   6.3271420  30.0927350  52.6810290   6.1672560  29.8030290  53.5792120
   6.1618130  29.3167480  52.1455520   6.0297550  27.6014910  51.2408290
   5.3362710  27.5992200  50.5810570   6.7720410  27.1774230  50.8102460
   5.5947480  29.2277620  55.3156780   6.0504430  28.4467000  55.6295400
   5.9340000  29.9384440  55.8597960  10.3424290  18.1576470  65.6481220
   9.7268560  18.6656140  65.1196680  10.0220710  17.2574800  65.5907160
   2.4038610  16.9968360  63.1143410   1.9417980  17.2051380  63.9263350
   2.0016720  16.1827710  62.8114080   7.4043120  18.2177310  64.2440070
   6.5536710  17.9183060  64.5649140   7.2444910  18.4619320  63.3323890
   4.4992830  19.7179060  66.3438860   4.8246240  18.8842810  66.0041090
   5.2873160  20.2407580  66.4917190   5.1380780  19.2596780  53.8379990
   4.5389670  19.9832580  53.6543610   5.6860390  19.1973560  53.0556440
   3.7445650  17.8960320  55.8683270   4.1375220  18.2132520  55.0551960
   4.1062500  17.0172200  55.9827790   2.0537820  16.6467630  67.1280130
   1.3636140  16.4539830  67.7626220   2.7970120  16.9302270  67.6604430
   4.3300790  20.4866070  59.9634050   3.5981910  20.9952880  60.3124150
   3.9325130  19.6696050  59.6622830   4.7926700  15.9399750  59.3756990
   4.8099440  16.3908400  60.2198840   4.5442280  15.0405390  59.5890430
   8.2197450  13.3531930  65.2143370   8.5443220  12.6221590  65.7401350
   8.2553960  13.0345570  64.3124360   8.1455290  23.4657040  58.8229400
   8.8654410  23.9612330  58.4325510   7.9437110  22.7874930  58.1783270
   3.6065230  14.8595000  52.9658790   2.7929840  14.3608170  52.8904100
   3.4127180  15.6993250  52.5495140   3.5274090  23.5366100  64.7098400
   3.4611400  22.6161770  64.4555990   2.8979230  23.6341540  65.4243040
   6.3213620  19.2314650  51.2620950   7.2093240  19.5431880  51.0872290
   6.2918710  18.3586900  50.8701530   2.3174210  25.4038340  51.9409120
   2.6589910  26.1480570  51.4452440   1.4886920  25.7169460  52.3033950
   3.4590820  26.3586670  64.4602200   3.4735360  25.4267630  64.2421110
   2.7515920  26.4446430  65.0991970   8.5927890  20.5426490  50.7300810
   8.5091610  20.9740710  49.8797250   9.3122080  21.0024840  51.1627630
   9.6702030  22.9994010  63.8070780   8.9450220  23.5922790  63.6100170
  10.1977490  22.9917550  63.0084150   9.6215140  27.3968750  53.4582940
   8.9791300  26.7424370  53.7326660   9.2345800  27.8023840  52.6823610
   5.2001620  24.7254180  57.3054630   5.5525440  24.1282310  56.6456000
   4.3163950  24.3998410  57.4762880   2.8924720  28.0004240  61.5542700
   3.5366940  28.2063620  62.2316120   3.2554160  27.2392640  61.1013550
   4.1656800  26.0036590  60.2720150   4.8079030  25.3029750  60.3852320
   4.6906150  26.7835030  60.0917040   8.0112520  26.2885210  49.9959290
   7.7850100  25.5715650  50.5883930   7.6208720  26.0397650  49.1581040
   5.9394420  26.8031490  63.4756210   6.2750660  27.3898180  64.1534130
   5.0194760  26.6724200  63.7054000   7.5928770  24.2057150  51.6573450
   7.3050470  24.6669840  52.4451330   8.3880940  23.7454920  51.9257670
   1.7683000  26.8522820  66.6444270   1.4479870  26.1332060  67.1889960
   1.0941360  27.5277890  66.7180330   4.9836600  17.0848980  62.0081070
   5.3517420  16.2644190  62.3360640   4.1234800  17.1450870  62.4236720
   8.3498630  16.0405920  52.8168630   7.7211790  16.1451590  52.1026860
   7.8550550  16.2602700  53.6062510   2.7956770  27.7611510  50.2502610
   2.8968750  27.5575500  49.3204590   1.8958510  27.5069790  50.4550390
   1.9438590  19.7388570  62.2319040   2.4423840  20.2134390  62.8970890
   2.0861540  18.8152090  62.4389070   4.3498090  15.0442530  55.6722300
   4.2265870  15.0628660  54.7231810   5.2982650  15.0921470  55.7920700
   9.1505450  15.9556530  63.0747430   8.6479050  16.6961930  63.4141240
   9.9662110  16.3440530  62.7584220   7.4427460  21.1989710  56.5208790
   6.5017600  21.2139940  56.6956480   7.7571530  20.4125670  56.9669090
   9.4453040  28.3698560  58.1963050   9.5700460  29.1929730  58.6686860
  10.3118600  28.1589290  57.8487200   4.7593480  25.7555710  67.0041170
   4.1531640  25.7787310  66.2636920   4.4547590  25.0238750  67.5408420
   6.1893850  29.4836000  65.6150580   7.1415600  29.3994020  65.5650820
   6.0422070  30.1477710  66.2884370   9.0803050  28.8630210  51.1142490
   8.7944560  28.4495350  50.2996670   8.8822600  29.7917920  50.9943010
   3.7853010  23.9183520  50.1590090   3.2363110  24.3652820  50.8032830
   4.4072270  23.4132770  50.6827760   7.8387950  25.2725620  66.0912350
   8.5797420  25.6101380  65.5879810   7.0760630  25.4417680  65.5382120
   1.9655770  21.9012050  49.3032490   2.4861430  21.1861070  48.9373640
   2.6124170  22.5397920  49.6033000   6.5133610  23.3240450  64.6267560
   6.9274630  23.4785530  65.4757980   5.5784610  23.4495670  64.7893340
   6.9855780  20.6636610  66.6306710   7.5676550  19.9088930  66.5427190
   7.1617550  21.1944050  65.8538190   3.6112740  21.0077110  63.9801330
   3.7308950  20.4118250  64.7196170   4.4706740  21.0446800  63.5602630
   5.9500640  21.5614300  62.5563840   5.4235860  22.0856920  61.9528980
   6.2931980  22.1941690  63.1873570   5.1974940  17.1664270  65.4710170
   4.5090460  16.5045810  65.4060160   5.9180960  16.7202540  65.9158630
   5.8275340  13.7615900  51.5300430   6.1077630  12.9183800  51.8859850
   5.0541070  13.9939010  52.0439180   1.9818470  30.8165150  63.9707870
   1.9077170  31.7200290  64.2780240   1.0797310  30.4977050  63.9429940
   2.5303800  29.9823660  51.5934230   3.4254590  30.3208630  51.6152990
   2.5621430  29.2603070  50.9658510   9.5098150  28.5127330  64.3000430
   8.9100140  28.5719890  63.5564350   9.6392050  27.5732310  64.4297280
  10.7499600  26.2545150  49.6370140   9.9192560  26.3221800  50.1077370
  10.9271430  27.1449270  49.3337000  10.2056060  22.9992630  52.1404340
  10.9674970  23.5689280  52.2464030  10.2210430  22.4319830  52.9112650
  11.2116030  23.8542730  56.9846270  11.5824860  23.0710050  56.5782240
  11.8517960  24.5431830  56.8063570   8.1949790  25.2379310  62.3976590
   7.3809630  25.6676470  62.6602380   8.6023990  25.8497720  61.7845640
  10.2575230  23.2927000  49.2976860  10.5324070  24.2005880  49.1696080
  10.0685970  23.2289530  50.2338850   6.6550840  16.3171850  50.5930490
   7.0735720  16.1302830  49.7527150   6.3486900  15.4650900  50.9033420
  10.1540570  21.2295990  54.2906290   9.7784170  20.4623920  53.8587580
   9.4243690  21.6118690  54.7781220   9.5440190  20.3767510  63.9245810
   9.3126280  20.1480260  63.0243760   9.8044740  21.2967060  63.8790700
   7.9828260  15.6023940  66.7025510   8.8598440  15.6107340  67.0859510
   7.9949100  14.8654780  66.0917860   9.4291530  19.4553480  57.5913530
   9.9529010  18.9616130  56.9603700  10.0150950  19.5903840  58.3361100
   9.6081250  19.5393350  61.1133080   8.6583960  19.5056890  61.2278070
   9.7894260  20.4493460  60.8782850   8.9191500  18.7126830  53.5305940
   9.4150620  18.4797700  54.3154820   8.7207570  17.8738670  53.1143580
  10.3478660  17.3487780  56.0643620  10.2377940  17.1943820  57.0025890
  11.1086250  16.8208720  55.8219030   8.6944380  13.2881910  62.5226620
   9.3316600  13.9016050  62.8885810   8.8419270  13.3242570  61.5775850
  11.2368930  15.1795700  49.3049760  12.1618240  15.0476880  49.0968050
  11.2144720  15.2588520  50.2586210  11.3107420  15.9506360  51.9306470
  10.5158920  15.8851480  52.4599380  11.5150700  16.8857000  51.9191820
   8.2525840  29.9897910  55.9244860   8.8484910  29.6682480  55.2479280
   8.5103990  29.5169730  56.7158130   2.0648860  14.4408100  65.4301720
   2.0037750  15.0329930  66.1797130   3.0049240  14.3334060  65.2851980
   4.7023420  14.0978160  65.0694010   5.3163830  14.4157450  64.4075090
   5.2472980  13.6126750  65.6889870  11.1198600  29.9969790  62.4755850
  10.6256880  30.3938660  61.7582980  10.5111890  29.3719000  62.8693130
   5.4431460  12.6610300  61.3963300   4.5691300  12.9945410  61.1936230
   5.3342210  12.1883480  62.2215170   6.3503440  14.8681170  62.7805020
   6.0216800  14.0532930  62.4006750   7.2985740  14.8250980  62.6570710
   8.8038050  30.6393210  59.7542590   8.3441020  31.3909020  59.3800610
   8.1750510  29.9199680  59.6957390   1.9729270  29.8389940  59.7559700
   2.2607080  29.5844240  58.8792710   2.4852490  29.2867300  60.3465270
   3.1906280  13.5780140  60.3356210   2.4078070  14.0525640  60.6152970
   2.8969210  12.6734970  60.2269390   7.7427350  14.2803240  58.3805300
   8.1835440  14.2248340  57.5326900   7.4734940  15.1961250  58.4515480
   9.6065920  13.9118480  56.3914120   9.5454320  12.9679700  56.2445140
  10.3857950  14.0198570  56.9367580   5.5785480  12.6609340  57.0855310
   6.1814850  13.2329550  57.5603830   4.8378470  13.2248780  56.8629210
   8.7220080  13.0630900  52.3595590   8.9170710  13.9614350  52.6263020
   7.9349950  12.8317980  52.8528540   2.0401630  30.7606040  67.1227900
   2.9668940  30.5250310  67.1663860   2.0252060  31.5878040  66.6413930
  10.2746690  30.3031610  54.1202150  10.4498880  29.6169350  53.4763070
   9.5768260  30.8278660  53.7278820   5.8280700  12.8404370  67.4650250
   5.7146150  13.1598980  68.3601770   6.6450440  13.2416880  67.1687530
   8.6079190  29.9875900  66.9468940   9.4004510  29.4925130  66.7394900
   8.9012340  30.6666040  67.5544550   4.7338850  20.8596840  37.8284990
   4.6532900  19.9451450  37.5576700   4.3203270  21.3563910  37.1224700
   2.8656890  22.6375860  39.7094260   2.0898990  22.1576300  39.9992830
   3.5169820  21.9581510  39.5350420   6.8864320  27.0436050  38.4893390
   6.4245850  26.2723290  38.8180560   7.6989870  27.0702120  38.9945840
   3.1127630  29.3294060  38.1097380   2.4939070  29.7851560  37.5391820
   3.9679410  29.4845520  37.7087080   2.3065880  25.3133050  39.7164420
   2.2374160  24.3722990  39.5553550   3.0685740  25.4034460  40.2886990
   3.3371050  18.1203430  39.9433350   3.7135870  17.2475310  39.8307020
   3.2390560  18.4562130  39.0523790   7.1195170  15.6153870  36.8761690
   7.9404790  15.1250440  36.9187170   7.1529250  16.2051530  37.6293530
  11.4094720  17.6320620  43.4405320  10.7046890  18.0202330  42.9220430
  11.6752640  18.3270910  44.0426250   3.9790980  24.2133300  35.5029290
   3.3608250  24.6782750  34.9392010   4.4914230  24.9060780  35.9198800
   7.3556650  17.5554250  39.6489230   6.6512220  17.8439140  40.2292340
   7.7168810  18.3654360  39.2888790   8.9719430  27.1729380  41.9116710
   8.2882950  27.8428490  41.9033380   9.5113720  27.3710030  41.1461570
  10.4243570  17.0009040  40.0398440   9.4768480  17.0348020  40.1713870
  10.7493560  17.8147990  40.4247800   6.5078170  29.0173510  40.6261890
   6.5205330  28.6135800  39.7584150   5.9553390  29.7920800  40.5223320
   7.8023590  25.7389730  35.7152060   7.6919920  24.7964060  35.8401480
   7.7991840  26.1005370  36.6014820   5.9063610  23.9203350  41.9544500
   6.3232400  23.7063460  41.1197960   6.6303430  24.1776140  42.5253120
   3.3443870  21.3655050  35.0714550   2.4173150  21.2992430  35.3003020
   3.4968690  22.3035180  34.9569790   3.3312950  17.6372050  32.0681710
   2.3916620  17.7986010  32.1534170   3.6496210  18.3557730  31.5217700
   9.8525710  22.3190570  42.0460740   9.0244340  22.3883660  41.5710870
  10.4476190  22.9044880  41.5776570   7.3741160  22.9275350  35.5749800
   6.7553580  22.5894900  34.9276100   7.3565610  22.2835110  36.2828990
   6.8167720  19.1059890  42.9915610   6.4038900  19.9313600  43.2455600
   6.0843670  18.5204930  42.7991970   7.5067820  29.1519220  43.6796590
   7.0298380  29.9591410  43.4869200   6.8229610  28.4997550  43.8322800
   5.5505860  22.1662160  32.5822550   5.9899140  21.3284590  32.4360370
   6.2634280  22.7991560  32.6686690   3.6601240  27.1058230  36.5503790
   4.0997150  27.8482560  36.1359180   3.5988130  27.3484800  37.4742750
   9.1323000  13.4204970  30.8963590   8.8195660  13.5131800  31.7962660
   9.8935470  13.9986000  30.8461020  11.0867030  28.9131160  48.7487980
  11.5626750  29.3914050  49.4277060  11.7074190  28.8448650  48.0233480
  10.4900280  26.1044010  45.9087990  10.6163340  25.8655890  44.9905170
  10.5321660  25.2728550  46.3810070   4.3517020  29.8072010  44.4782800
   4.8661690  29.7180020  45.2805230   3.5086100  30.1531710  44.7710710
   6.3271420  30.0927350  33.9066800   6.1672560  29.8030290  34.8048630
   6.1618130  29.3167480  33.3712030   6.0297550  27.6014910  32.4664800
   5.3362710  27.5992200  31.8067080   6.7720410  27.1774230  32.0358970
   5.5947480  29.2277620  36.5413290   6.0504430  28.4467000  36.8551910
   5.9340000  29.9384440  37.0854470  10.3424290  18.1576470  46.8737730
   9.7268560  18.6656140  46.3453190  10.0220710  17.2574800  46.8163670
   2.4038610  16.9968360  44.3399920   1.9417980  17.2051380  45.1519860
   2.0016720  16.1827710  44.0370590   7.4043120  18.2177310  45.4696580
   6.5536710  17.9183060  45.7905650   7.2444910  18.4619320  44.5580400
   4.4992830  19.7179060  47.5695370   4.8246240  18.8842810  47.2297600
   5.2873160  20.2407580  47.7173700   5.1380780  19.2596780  35.0636500
   4.5389670  19.9832580  34.8800120   5.6860390  19.1973560  34.2812950
   3.7445650  17.8960320  37.0939780   4.1375220  18.2132520  36.2808470
   4.1062500  17.0172200  37.2084300   2.0537820  16.6467630  48.3536640
   1.3636140  16.4539830  48.9882730   2.7970120  16.9302270  48.8860940
   4.3300790  20.4866070  41.1890560   3.5981910  20.9952880  41.5380660
   3.9325130  19.6696050  40.8879340   4.7926700  15.9399750  40.6013500
   4.8099440  16.3908400  41.4455350   4.5442280  15.0405390  40.8146940
   8.2197450  13.3531930  46.4399880   8.5443220  12.6221590  46.9657860
   8.2553960  13.0345570  45.5380870   8.1455290  23.4657040  40.0485910
   8.8654410  23.9612330  39.6582020   7.9437110  22.7874930  39.4039780
   3.6065230  14.8595000  34.1915300   2.7929840  14.3608170  34.1160610
   3.4127180  15.6993250  33.7751650   3.5274090  23.5366100  45.9354910
   3.4611400  22.6161770  45.6812500   2.8979230  23.6341540  46.6499550
   6.3213620  19.2314650  32.4877460   7.2093240  19.5431880  32.3128800
   6.2918710  18.3586900  32.0958040   2.3174210  25.4038340  33.1665630
   2.6589910  26.1480570  32.6708950   1.4886920  25.7169460  33.5290460
   3.4590820  26.3586670  45.6858710   3.4735360  25.4267630  45.4677620
   2.7515920  26.4446430  46.3248480   8.5927890  20.5426490  31.9557320
   8.5091610  20.9740710  31.1053760   9.3122080  21.0024840  32.3884140
   9.6702030  22.9994010  45.0327290   8.9450220  23.5922790  44.8356680
  10.1977490  22.9917550  44.2340660   9.6215140  27.3968750  34.6839450
   8.9791300  26.7424370  34.9583170   9.2345800  27.8023840  33.9080120
   5.2001620  24.7254180  38.5311140   5.5525440  24.1282310  37.8712510
   4.3163950  24.3998410  38.7019390   2.8924720  28.0004240  42.7799210
   3.5366940  28.2063620  43.4572630   3.2554160  27.2392640  42.3270060
   4.1656800  26.0036590  41.4976660   4.8079030  25.3029750  41.6108830
   4.6906150  26.7835030  41.3173550   8.0112520  26.2885210  31.2215800
   7.7850100  25.5715650  31.8140440   7.6208720  26.0397650  30.3837550
   5.9394420  26.8031490  44.7012720   6.2750660  27.3898180  45.3790640
   5.0194760  26.6724200  44.9310510   7.5928770  24.2057150  32.8829960
   7.3050470  24.6669840  33.6707840   8.3880940  23.7454920  33.1514180
   1.7683000  26.8522820  47.8700780   1.4479870  26.1332060  48.4146470
   1.0941360  27.5277890  47.9436840   4.9836600  17.0848980  43.2337580
   5.3517420  16.2644190  43.5617150   4.1234800  17.1450870  43.6493230
   8.3498630  16.0405920  34.0425140   7.7211790  16.1451590  33.3283370
   7.8550550  16.2602700  34.8319020   2.7956770  27.7611510  31.4759120
   2.8968750  27.5575500  30.5461100   1.8958510  27.5069790  31.6806900
   1.9438590  19.7388570  43.4575550   2.4423840  20.2134390  44.1227400
   2.0861540  18.8152090  43.6645580   4.3498090  15.0442530  36.8978810
   4.2265870  15.0628660  35.9488320   5.2982650  15.0921470  37.0177210
   9.1505450  15.9556530  44.3003940   8.6479050  16.6961930  44.6397750
   9.9662110  16.3440530  43.9840730   7.4427460  21.1989710  37.7465300
   6.5017600  21.2139940  37.9212990   7.7571530  20.4125670  38.1925600
   9.4453040  28.3698560  39.4219560   9.5700460  29.1929730  39.8943370
  10.3118600  28.1589290  39.0743710   4.7593480  25.7555710  48.2297680
   4.1531640  25.7787310  47.4893430   4.4547590  25.0238750  48.7664930
   6.1893850  29.4836000  46.8407090   7.1415600  29.3994020  46.7907330
   6.0422070  30.1477710  47.5140880   9.0803050  28.8630210  32.3399000
   8.7944560  28.4495350  31.5253180   8.8822600  29.7917920  32.2199520
   3.7853010  23.9183520  31.3846600   3.2363110  24.3652820  32.0289340
   4.4072270  23.4132770  31.9084270   7.8387950  25.2725620  47.3168860
   8.5797420  25.6101380  46.8136320   7.0760630  25.4417680  46.7638630
   1.9655770  21.9012050  30.5289000   2.4861430  21.1861070  30.1630150
   2.6124170  22.5397920  30.8289510   6.5133610  23.3240450  45.8524070
   6.9274630  23.4785530  46.7014490   5.5784610  23.4495670  46.0149850
   6.9855780  20.6636610  47.8563220   7.5676550  19.9088930  47.7683700
   7.1617550  21.1944050  47.0794700   3.6112740  21.0077110  45.2057840
   3.7308950  20.4118250  45.9452680   4.4706740  21.0446800  44.7859140
   5.9500640  21.5614300  43.7820350   5.4235860  22.0856920  43.1785490
   6.2931980  22.1941690  44.4130080   5.1974940  17.1664270  46.6966680
   4.5090460  16.5045810  46.6316670   5.9180960  16.7202540  47.1415140
   5.8275340  13.7615900  32.7556940   6.1077630  12.9183800  33.1116360
   5.0541070  13.9939010  33.2695690   1.9818470  30.8165150  45.1964380
   1.9077170  31.7200290  45.5036750   1.0797310  30.4977050  45.1686450
   2.5303800  29.9823660  32.8190740   3.4254590  30.3208630  32.8409500
   2.5621430  29.2603070  32.1915020   9.5098150  28.5127330  45.5256940
   8.9100140  28.5719890  44.7820860   9.6392050  27.5732310  45.6553790
  10.7499600  26.2545150  30.8626650   9.9192560  26.3221800  31.3333880
  10.9271430  27.1449270  30.5593510  10.2056060  22.9992630  33.3660850
  10.9674970  23.5689280  33.4720540  10.2210430  22.4319830  34.1369160
  11.2116030  23.8542730  38.2102780  11.5824860  23.0710050  37.8038750
  11.8517960  24.5431830  38.0320080   8.1949790  25.2379310  43.6233100
   7.3809630  25.6676470  43.8858890   8.6023990  25.8497720  43.0102150
  10.2575230  23.2927000  30.5233370  10.5324070  24.2005880  30.3952590
  10.0685970  23.2289530  31.4595360   6.6550840  16.3171850  31.8187000
   7.0735720  16.1302830  30.9783660   6.3486900  15.4650900  32.1289930
  10.1540570  21.2295990  35.5162800   9.7784170  20.4623920  35.0844090
   9.4243690  21.6118690  36.0037730   9.5440190  20.3767510  45.1502320
   9.3126280  20.1480260  44.2500270   9.8044740  21.2967060  45.1047210
   7.9828260  15.6023940  47.9282020   8.8598440  15.6107340  48.3116020
   7.9949100  14.8654780  47.3174370   9.4291530  19.4553480  38.8170040
   9.9529010  18.9616130  38.1860210  10.0150950  19.5903840  39.5617610
   9.6081250  19.5393350  42.3389590   8.6583960  19.5056890  42.4534580
   9.7894260  20.4493460  42.1039360   8.9191500  18.7126830  34.7562450
   9.4150620  18.4797700  35.5411330   8.7207570  17.8738670  34.3400090
  10.3478660  17.3487780  37.2900130  10.2377940  17.1943820  38.2282400
  11.1086250  16.8208720  37.0475540   8.6944380  13.2881910  43.7483130
   9.3316600  13.9016050  44.1142320   8.8419270  13.3242570  42.8032360
  11.2368930  15.1795700  30.5306270  12.1618240  15.0476880  30.3224560
  11.2144720  15.2588520  31.4842720  11.3107420  15.9506360  33.1562980
  10.5158920  15.8851480  33.6855890  11.5150700  16.8857000  33.1448330
   8.2525840  29.9897910  37.1501370   8.8484910  29.6682480  36.4735790
   8.5103990  29.5169730  37.9414640   2.0648860  14.4408100  46.6558230
   2.0037750  15.0329930  47.4053640   3.0049240  14.3334060  46.5108490
   4.7023420  14.0978160  46.2950520   5.3163830  14.4157450  45.6331600
   5.2472980  13.6126750  46.9146380  11.1198600  29.9969790  43.7012360
  10.6256880  30.3938660  42.9839490  10.5111890  29.3719000  44.0949640
   5.4431460  12.6610300  42.6219810   4.5691300  12.9945410  42.4192740
   5.3342210  12.1883480  43.4471680   6.3503440  14.8681170  44.0061530
   6.0216800  14.0532930  43.6263260   7.2985740  14.8250980  43.8827220
   8.8038050  30.6393210  40.9799100   8.3441020  31.3909020  40.6057120
   8.1750510  29.9199680  40.9213900   1.9729270  29.8389940  40.9816210
   2.2607080  29.5844240  40.1049220   2.4852490  29.2867300  41.5721780
   3.1906280  13.5780140  41.5612720   2.4078070  14.0525640  41.8409480
   2.8969210  12.6734970  41.4525900   7.7427350  14.2803240  39.6061810
   8.1835440  14.2248340  38.7583410   7.4734940  15.1961250  39.6771990
   9.6065920  13.9118480  37.6170630   9.5454320  12.9679700  37.4701650
  10.3857950  14.0198570  38.1624090   5.5785480  12.6609340  38.3111820
   6.1814850  13.2329550  38.7860340   4.8378470  13.2248780  38.0885720
   8.7220080  13.0630900  33.5852100   8.9170710  13.9614350  33.8519530
   7.9349950  12.8317980  34.0785050   2.0401630  30.7606040  48.3484410
   2.9668940  30.5250310  48.3920370   2.0252060  31.5878040  47.8670440
  10.2746690  30.3031610  35.3458660  10.4498880  29.6169350  34.7019580
   9.5768260  30.8278660  34.9535330   5.8280700  12.8404370  48.6906760
   5.7146150  13.1598980  49.5858280   6.6450440  13.2416880  48.3944040
   8.6079190  29.9875900  48.1725450   9.4004510  29.4925130  47.9651410
   8.9012340  30.6666040  48.7801060   4.7338850  20.8596840  19.0541500
   4.6532900  19.9451450  18.7833210   4.3203270  21.3563910  18.3481210
   2.8656890  22.6375860  20.9350770   2.0898990  22.1576300  21.2249340
   3.5169820  21.9581510  20.7606930   6.8864320  27.0436050  19.7149900
   6.4245850  26.2723290  20.0437070   7.6989870  27.0702120  20.2202350
   3.1127630  29.3294060  19.3353890   2.4939070  29.7851560  18.7648330
   3.9679410  29.4845520  18.9343590   2.3065880  25.3133050  20.9420930
   2.2374160  24.3722990  20.7810060   3.0685740  25.4034460  21.5143500
   3.3371050  18.1203430  21.1689860   3.7135870  17.2475310  21.0563530
   3.2390560  18.4562130  20.2780300   7.1195170  15.6153870  18.1018200
   7.9404790  15.1250440  18.1443680   7.1529250  16.2051530  18.8550040
  11.4094720  17.6320620  24.6661830  10.7046890  18.0202330  24.1476940
  11.6752640  18.3270910  25.2682760   3.9790980  24.2133300  16.7285800
   3.3608250  24.6782750  16.1648520   4.4914230  24.9060780  17.1455310
   7.3556650  17.5554250  20.8745740   6.6512220  17.8439140  21.4548850
   7.7168810  18.3654360  20.5145300   8.9719430  27.1729380  23.1373220
   8.2882950  27.8428490  23.1289890   9.5113720  27.3710030  22.3718080
  10.4243570  17.0009040  21.2654950   9.4768480  17.0348020  21.3970380
  10.7493560  17.8147990  21.6504310   6.5078170  29.0173510  21.8518400
   6.5205330  28.6135800  20.9840660   5.9553390  29.7920800  21.7479830
   7.8023590  25.7389730  16.9408570   7.6919920  24.7964060  17.0657990
   7.7991840  26.1005370  17.8271330   5.9063610  23.9203350  23.1801010
   6.3232400  23.7063460  22.3454470   6.6303430  24.1776140  23.7509630
   3.3443870  21.3655050  16.2971060   2.4173150  21.2992430  16.5259530
   3.4968690  22.3035180  16.1826300   3.3312950  17.6372050  13.2938220
   2.3916620  17.7986010  13.3790680   3.6496210  18.3557730  12.7474210
   9.8525710  22.3190570  23.2717250   9.0244340  22.3883660  22.7967380
  10.4476190  22.9044880  22.8033080   7.3741160  22.9275350  16.8006310
   6.7553580  22.5894900  16.1532610   7.3565610  22.2835110  17.5085500
   6.8167720  19.1059890  24.2172120   6.4038900  19.9313600  24.4712110
   6.0843670  18.5204930  24.0248480   7.5067820  29.1519220  24.9053100
   7.0298380  29.9591410  24.7125710   6.8229610  28.4997550  25.0579310
   5.5505860  22.1662160  13.8079060   5.9899140  21.3284590  13.6616880
   6.2634280  22.7991560  13.8943200   3.6601240  27.1058230  17.7760300
   4.0997150  27.8482560  17.3615690   3.5988130  27.3484800  18.6999260
   9.1323000  13.4204970  12.1220100   8.8195660  13.5131800  13.0219170
   9.8935470  13.9986000  12.0717530  11.0867030  28.9131160  29.9744490
  11.5626750  29.3914050  30.6533570  11.7074190  28.8448650  29.2489990
  10.4900280  26.1044010  27.1344500  10.6163340  25.8655890  26.2161680
  10.5321660  25.2728550  27.6066580   4.3517020  29.8072010  25.7039310
   4.8661690  29.7180020  26.5061740   3.5086100  30.1531710  25.9967220
   6.3271420  30.0927350  15.1323310   6.1672560  29.8030290  16.0305140
   6.1618130  29.3167480  14.5968540   6.0297550  27.6014910  13.6921310
   5.3362710  27.5992200  13.0323590   6.7720410  27.1774230  13.2615480
   5.5947480  29.2277620  17.7669800   6.0504430  28.4467000  18.0808420
   5.9340000  29.9384440  18.3110980  10.3424290  18.1576470  28.0994240
   9.7268560  18.6656140  27.5709700  10.0220710  17.2574800  28.0420180
   2.4038610  16.9968360  25.5656430   1.9417980  17.2051380  26.3776370
   2.0016720  16.1827710  25.2627100   7.4043120  18.2177310  26.6953090
   6.5536710  17.9183060  27.0162160   7.2444910  18.4619320  25.7836910
   4.4992830  19.7179060  28.7951880   4.8246240  18.8842810  28.4554110
   5.2873160  20.2407580  28.9430210   5.1380780  19.2596780  16.2893010
   4.5389670  19.9832580  16.1056630   5.6860390  19.1973560  15.5069460
   3.7445650  17.8960320  18.3196290   4.1375220  18.2132520  17.5064980
   4.1062500  17.0172200  18.4340810   2.0537820  16.6467630  29.5793150
   1.3636140  16.4539830  30.2139240   2.7970120  16.9302270  30.1117450
   4.3300790  20.4866070  22.4147070   3.5981910  20.9952880  22.7637170
   3.9325130  19.6696050  22.1135850   4.7926700  15.9399750  21.8270010
   4.8099440  16.3908400  22.6711860   4.5442280  15.0405390  22.0403450
   8.2197450  13.3531930  27.6656390   8.5443220  12.6221590  28.1914370
   8.2553960  13.0345570  26.7637380   8.1455290  23.4657040  21.2742420
   8.8654410  23.9612330  20.8838530   7.9437110  22.7874930  20.6296290
   3.6065230  14.8595000  15.4171810   2.7929840  14.3608170  15.3417120
   3.4127180  15.6993250  15.0008160   3.5274090  23.5366100  27.1611420
   3.4611400  22.6161770  26.9069010   2.8979230  23.6341540  27.8756060
   6.3213620  19.2314650  13.7133970   7.2093240  19.5431880  13.5385310
   6.2918710  18.3586900  13.3214550   2.3174210  25.4038340  14.3922140
   2.6589910  26.1480570  13.8965460   1.4886920  25.7169460  14.7546970
   3.4590820  26.3586670  26.9115220   3.4735360  25.4267630  26.6934130
   2.7515920  26.4446430  27.5504990   8.5927890  20.5426490  13.1813830
   8.5091610  20.9740710  12.3310270   9.3122080  21.0024840  13.6140650
   9.6702030  22.9994010  26.2583800   8.9450220  23.5922790  26.0613190
  10.1977490  22.9917550  25.4597170   9.6215140  27.3968750  15.9095960
   8.9791300  26.7424370  16.1839680   9.2345800  27.8023840  15.1336630
   5.2001620  24.7254180  19.7567650   5.5525440  24.1282310  19.0969020
   4.3163950  24.3998410  19.9275900   2.8924720  28.0004240  24.0055720
   3.5366940  28.2063620  24.6829140   3.2554160  27.2392640  23.5526570
   4.1656800  26.0036590  22.7233170   4.8079030  25.3029750  22.8365340
   4.6906150  26.7835030  22.5430060   8.0112520  26.2885210  12.4472310
   7.7850100  25.5715650  13.0396950   7.6208720  26.0397650  11.6094060
   5.9394420  26.8031490  25.9269230   6.2750660  27.3898180  26.6047150
   5.0194760  26.6724200  26.1567020   7.5928770  24.2057150  14.1086470
   7.3050470  24.6669840  14.8964350   8.3880940  23.7454920  14.3770690
   1.7683000  26.8522820  29.0957290   1.4479870  26.1332060  29.6402980
   1.0941360  27.5277890  29.1693350   4.9836600  17.0848980  24.4594090
   5.3517420  16.2644190  24.7873660   4.1234800  17.1450870  24.8749740
   8.3498630  16.0405920  15.2681650   7.7211790  16.1451590  14.5539880
   7.8550550  16.2602700  16.0575530   2.7956770  27.7611510  12.7015630
   2.8968750  27.5575500  11.7717610   1.8958510  27.5069790  12.9063410
   1.9438590  19.7388570  24.6832060   2.4423840  20.2134390  25.3483910
   2.0861540  18.8152090  24.8902090   4.3498090  15.0442530  18.1235320
   4.2265870  15.0628660  17.1744830   5.2982650  15.0921470  18.2433720
   9.1505450  15.9556530  25.5260450   8.6479050  16.6961930  25.8654260
   9.9662110  16.3440530  25.2097240   7.4427460  21.1989710  18.9721810
   6.5017600  21.2139940  19.1469500   7.7571530  20.4125670  19.4182110
   9.4453040  28.3698560  20.6476070   9.5700460  29.1929730  21.1199880
  10.3118600  28.1589290  20.3000220   4.7593480  25.7555710  29.4554190
   4.1531640  25.7787310  28.7149940   4.4547590  25.0238750  29.9921440
   6.1893850  29.4836000  28.0663600   7.1415600  29.3994020  28.0163840
   6.0422070  30.1477710  28.7397390   9.0803050  28.8630210  13.5655510
   8.7944560  28.4495350  12.7509690   8.8822600  29.7917920  13.4456030
   3.7853010  23.9183520  12.6103110   3.2363110  24.3652820  13.2545850
   4.4072270  23.4132770  13.1340780   7.8387950  25.2725620  28.5425370
   8.5797420  25.6101380  28.0392830   7.0760630  25.4417680  27.9895140
   1.9655770  21.9012050  11.7545510   2.4861430  21.1861070  11.3886660
   2.6124170  22.5397920  12.0546020   6.5133610  23.3240450  27.0780580
   6.9274630  23.4785530  27.9271000   5.5784610  23.4495670  27.2406360
   6.9855780  20.6636610  29.0819730   7.5676550  19.9088930  28.9940210
   7.1617550  21.1944050  28.3051210   3.6112740  21.0077110  26.4314350
   3.7308950  20.4118250  27.1709190   4.4706740  21.0446800  26.0115650
   5.9500640  21.5614300  25.0076860   5.4235860  22.0856920  24.4042000
   6.2931980  22.1941690  25.6386590   5.1974940  17.1664270  27.9223190
   4.5090460  16.5045810  27.8573180   5.9180960  16.7202540  28.3671650
   5.8275340  13.7615900  13.9813450   6.1077630  12.9183800  14.3372870
   5.0541070  13.9939010  14.4952200   1.9818470  30.8165150  26.4220890
   1.9077170  31.7200290  26.7293260   1.0797310  30.4977050  26.3942960
   2.5303800  29.9823660  14.0447250   3.4254590  30.3208630  14.0666010
   2.5621430  29.2603070  13.4171530   9.5098150  28.5127330  26.7513450
   8.9100140  28.5719890  26.0077370   9.6392050  27.5732310  26.8810300
  10.7499600  26.2545150  12.0883160   9.9192560  26.3221800  12.5590390
  10.9271430  27.1449270  11.7850020  10.2056060  22.9992630  14.5917360
  10.9674970  23.5689280  14.6977050  10.2210430  22.4319830  15.3625670
  11.2116030  23.8542730  19.4359290  11.5824860  23.0710050  19.0295260
  11.8517960  24.5431830  19.2576590   8.1949790  25.2379310  24.8489610
   7.3809630  25.6676470  25.1115400   8.6023990  25.8497720  24.2358660
  10.2575230  23.2927000  11.7489880  10.5324070  24.2005880  11.6209100
  10.0685970  23.2289530  12.6851870   6.6550840  16.3171850  13.0443510
   7.0735720  16.1302830  12.2040170   6.3486900  15.4650900  13.3546440
  10.1540570  21.2295990  16.7419310   9.7784170  20.4623920  16.3100600
   9.4243690  21.6118690  17.2294240   9.5440190  20.3767510  26.3758830
   9.3126280  20.1480260  25.4756780   9.8044740  21.2967060  26.3303720
   7.9828260  15.6023940  29.1538530   8.8598440  15.6107340  29.5372530
   7.9949100  14.8654780  28.5430880   9.4291530  19.4553480  20.0426550
   9.9529010  18.9616130  19.4116720  10.0150950  19.5903840  20.7874120
   9.6081250  19.5393350  23.5646100   8.6583960  19.5056890  23.6791090
   9.7894260  20.4493460  23.3295870   8.9191500  18.7126830  15.9818960
   9.4150620  18.4797700  16.7667840   8.7207570  17.8738670  15.5656600
  10.3478660  17.3487780  18.5156640  10.2377940  17.1943820  19.4538910
  11.1086250  16.8208720  18.2732050   8.6944380  13.2881910  24.9739640
   9.3316600  13.9016050  25.3398830   8.8419270  13.3242570  24.0288870
  11.2368930  15.1795700  11.7562780  12.1618240  15.0476880  11.5481070
  11.2144720  15.2588520  12.7099230  11.3107420  15.9506360  14.3819490
  10.5158920  15.8851480  14.9112400  11.5150700  16.8857000  14.3704840
   8.2525840  29.9897910  18.3757880   8.8484910  29.6682480  17.6992300
   8.5103990  29.5169730  19.1671150   2.0648860  14.4408100  27.8814740
   2.0037750  15.0329930  28.6310150   3.0049240  14.3334060  27.7365000
   4.7023420  14.0978160  27.5207030   5.3163830  14.4157450  26.8588110
   5.2472980  13.6126750  28.1402890  11.1198600  29.9969790  24.9268870
  10.6256880  30.3938660  24.2096000  10.5111890  29.3719000  25.3206150
   5.4431460  12.6610300  23.8476320   4.5691300  12.9945410  23.6449250
   5.3342210  12.1883480  24.6728190   6.3503440  14.8681170  25.2318040
   6.0216800  14.0532930  24.8519770   7.2985740  14.8250980  25.1083730
   8.8038050  30.6393210  22.2055610   8.3441020  31.3909020  21.8313630
   8.1750510  29.9199680  22.1470410   1.9729270  29.8389940  22.2072720
   2.2607080  29.5844240  21.3305730   2.4852490  29.2867300  22.7978290
   3.1906280  13.5780140  22.7869230   2.4078070  14.0525640  23.0665990
   2.8969210  12.6734970  22.6782410   7.7427350  14.2803240  20.8318320
   8.1835440  14.2248340  19.9839920   7.4734940  15.1961250  20.9028500
   9.6065920  13.9118480  18.8427140   9.5454320  12.9679700  18.6958160
  10.3857950  14.0198570  19.3880600   5.5785480  12.6609340  19.5368330
   6.1814850  13.2329550  20.0116850   4.8378470  13.2248780  19.3142230
   8.7220080  13.0630900  14.8108610   8.9170710  13.9614350  15.0776040
   7.9349950  12.8317980  15.3041560   2.0401630  30.7606040  29.5740920
   2.9668940  30.5250310  29.6176880   2.0252060  31.5878040  29.0926950
  10.2746690  30.3031610  16.5715170  10.4498880  29.6169350  15.9276090
   9.5768260  30.8278660  16.1791840   5.8280700  12.8404370  29.9163270
   5.7146150  13.1598980  30.8114790   6.6450440  13.2416880  29.6200550
   8.6079190  29.9875900  29.3981960   9.4004510  29.4925130  29.1907920
   8.9012340  30.6666040  30.0057570   2.8656890  22.6375860   2.1607280
   2.0898990  22.1576300   2.4505850   3.5169820  21.9581510   1.9863440
   2.3065880  25.3133050   2.1677440   2.2374160  24.3722990   2.0066570
   3.0685740  25.4034460   2.7400010  11.4094720  17.6320620   5.8918340
  10.7046890  18.0202330   5.3733450  11.6752640  18.3270910   6.4939270
   7.3556650  17.5554250   2.1002250   6.6512220  17.8439140   2.6805360
   7.7168810  18.3654360   1.7401810   8.9719430  27.1729380   4.3629730
   8.2882950  27.8428490   4.3546400   9.5113720  27.3710030   3.5974590
  10.4243570  17.0009040   2.4911460   9.4768480  17.0348020   2.6226890
  10.7493560  17.8147990   2.8760820   6.5078170  29.0173510   3.0774910
   6.5205330  28.6135800   2.2097170   5.9553390  29.7920800   2.9736340
   5.9063610  23.9203350   4.4057520   6.3232400  23.7063460   3.5710980
   6.6303430  24.1776140   4.9766140   9.8525710  22.3190570   4.4973760
   9.0244340  22.3883660   4.0223890  10.4476190  22.9044880   4.0289590
   6.8167720  19.1059890   5.4428630   6.4038900  19.9313600   5.6968620
   6.0843670  18.5204930   5.2504990   7.5067820  29.1519220   6.1309610
   7.0298380  29.9591410   5.9382220   6.8229610  28.4997550   6.2835820
  11.0867030  28.9131160  11.2001000  11.5626750  29.3914050  11.8790080
  11.7074190  28.8448650  10.4746500  10.4900280  26.1044010   8.3601010
  10.6163340  25.8655890   7.4418190  10.5321660  25.2728550   8.8323090
   4.3517020  29.8072010   6.9295820   4.8661690  29.7180020   7.7318250
   3.5086100  30.1531710   7.2223730  10.3424290  18.1576470   9.3250750
   9.7268560  18.6656140   8.7966210  10.0220710  17.2574800   9.2676690
   2.4038610  16.9968360   6.7912940   1.9417980  17.2051380   7.6032880
   2.0016720  16.1827710   6.4883610   7.4043120  18.2177310   7.9209600
   6.5536710  17.9183060   8.2418670   7.2444910  18.4619320   7.0093420
   4.4992830  19.7179060  10.0208390   4.8246240  18.8842810   9.6810620
   5.2873160  20.2407580  10.1686720   2.0537820  16.6467630  10.8049660
   1.3636140  16.4539830  11.4395750   2.7970120  16.9302270  11.3373960
   4.3300790  20.4866070   3.6403580   3.5981910  20.9952880   3.9893680
   3.9325130  19.6696050   3.3392360   4.7926700  15.9399750   3.0526520
   4.8099440  16.3908400   3.8968370   4.5442280  15.0405390   3.2659960
   8.2197450  13.3531930   8.8912900   8.5443220  12.6221590   9.4170880
   8.2553960  13.0345570   7.9893890   8.1455290  23.4657040   2.4998930
   8.8654410  23.9612330   2.1095040   7.9437110  22.7874930   1.8552800
   3.5274090  23.5366100   8.3867930   3.4611400  22.6161770   8.1325520
   2.8979230  23.6341540   9.1012570   3.4590820  26.3586670   8.1371730
   3.4735360  25.4267630   7.9190640   2.7515920  26.4446430   8.7761500
   9.6702030  22.9994010   7.4840310   8.9450220  23.5922790   7.2869700
  10.1977490  22.9917550   6.6853680   2.8924720  28.0004240   5.2312230
   3.5366940  28.2063620   5.9085650   3.2554160  27.2392640   4.7783080
   4.1656800  26.0036590   3.9489680   4.8079030  25.3029750   4.0621850
   4.6906150  26.7835030   3.7686570   5.9394420  26.8031490   7.1525740
   6.2750660  27.3898180   7.8303660   5.0194760  26.6724200   7.3823530
   1.7683000  26.8522820  10.3213800   1.4479870  26.1332060  10.8659490
   1.0941360  27.5277890  10.3949860   4.9836600  17.0848980   5.6850600
   5.3517420  16.2644190   6.0130170   4.1234800  17.1450870   6.1006250
   1.9438590  19.7388570   5.9088570   2.4423840  20.2134390   6.5740420
   2.0861540  18.8152090   6.1158600   9.1505450  15.9556530   6.7516960
   8.6479050  16.6961930   7.0910770   9.9662110  16.3440530   6.4353750
   4.7593480  25.7555710  10.6810700   4.1531640  25.7787310   9.9406450
   4.4547590  25.0238750  11.2177950   6.1893850  29.4836000   9.2920110
   7.1415600  29.3994020   9.2420350   6.0422070  30.1477710   9.9653900
   7.8387950  25.2725620   9.7681880   8.5797420  25.6101380   9.2649340
   7.0760630  25.4417680   9.2151650   6.5133610  23.3240450   8.3037090
   6.9274630  23.4785530   9.1527510   5.5784610  23.4495670   8.4662870
   6.9855780  20.6636610  10.3076240   7.5676550  19.9088930  10.2196720
   7.1617550  21.1944050   9.5307720   3.6112740  21.0077110   7.6570860
   3.7308950  20.4118250   8.3965700   4.4706740  21.0446800   7.2372160
   5.9500640  21.5614300   6.2333370   5.4235860  22.0856920   5.6298510
   6.2931980  22.1941690   6.8643100   5.1974940  17.1664270   9.1479700
   4.5090460  16.5045810   9.0829690   5.9180960  16.7202540   9.5928160
   1.9818470  30.8165150   7.6477400   1.9077170  31.7200290   7.9549770
   1.0797310  30.4977050   7.6199470   9.5098150  28.5127330   7.9769960
   8.9100140  28.5719890   7.2333880   9.6392050  27.5732310   8.1066810
   8.1949790  25.2379310   6.0746120   7.3809630  25.6676470   6.3371910
   8.6023990  25.8497720   5.4615170   9.5440190  20.3767510   7.6015340
   9.3126280  20.1480260   6.7013290   9.8044740  21.2967060   7.5560230
   7.9828260  15.6023940  10.3795040   8.8598440  15.6107340  10.7629040
   7.9949100  14.8654780   9.7687390   9.6081250  19.5393350   4.7902610
   8.6583960  19.5056890   4.9047600   9.7894260  20.4493460   4.5552380
   8.6944380  13.2881910   6.1996150   9.3316600  13.9016050   6.5655340
   8.8419270  13.3242570   5.2545380   2.0648860  14.4408100   9.1071250
   2.0037750  15.0329930   9.8566660   3.0049240  14.3334060   8.9621510
   4.7023420  14.0978160   8.7463540   5.3163830  14.4157450   8.0844620
   5.2472980  13.6126750   9.3659400  11.1198600  29.9969790   6.1525380
  10.6256880  30.3938660   5.4352510  10.5111890  29.3719000   6.5462660
   5.4431460  12.6610300   5.0732830   4.5691300  12.9945410   4.8705760
   5.3342210  12.1883480   5.8984700   6.3503440  14.8681170   6.4574550
   6.0216800  14.0532930   6.0776280   7.2985740  14.8250980   6.3340240
   8.8038050  30.6393210   3.4312120   8.3441020  31.3909020   3.0570140
   8.1750510  29.9199680   3.3726920   1.9729270  29.8389940   3.4329230
   2.2607080  29.5844240   2.5562240   2.4852490  29.2867300   4.0234800
   3.1906280  13.5780140   4.0125740   2.4078070  14.0525640   4.2922500
   2.8969210  12.6734970   3.9038920   2.0401630  30.7606040  10.7997430
   2.9668940  30.5250310  10.8433390   2.0252060  31.5878040  10.3183460
   5.8280700  12.8404370  11.1419780   5.7146150  13.1598980  12.0371300
   6.6450440  13.2416880  10.8457060   8.6079190  29.9875900  10.6238470
   9.4004510  29.4925130  10.4164430   8.9012340  30.6666040  11.2314080
   6.8864320   8.2692560 151.1354330   6.4245850   7.4979800 151.4641500
   7.6989870   8.2958630 151.6406780   3.1127630  10.5550570 150.7558320
   2.4939070  11.0108070 150.1852760   3.9679410  10.7102030 150.3548020
   3.9790980   5.4389810 148.1490230   3.3608250   5.9039260 147.5852950
   4.4914230   6.1317290 148.5659740   7.8023590   6.9646240 148.3613000
   7.6919920   6.0220570 148.4862420   7.7991840   7.3261880 149.2475760
   3.3443870   2.5911560 147.7175490   2.4173150   2.5248940 147.9463960
   3.4968690   3.5291690 147.6030730   7.3741160   4.1531860 148.2210740
   6.7553580   3.8151410 147.5737040   7.3565610   3.5091620 148.9289930
   5.5505860   3.3918670 145.2283490   5.9899140   2.5541100 145.0821310
   6.2634280   4.0248070 145.3147630   3.6601240   8.3314740 149.1964730
   4.0997150   9.0739070 148.7820120   3.5988130   8.5741310 150.1203690
   6.3271420  11.3183860 146.5527740   6.1672560  11.0286800 147.4509570
   6.1618130  10.5423990 146.0172970   6.0297550   8.8271420 145.1125740
   5.3362710   8.8248710 144.4528020   6.7720410   8.4030740 144.6819910
   5.5947480  10.4534130 149.1874230   6.0504430   9.6723510 149.5012850
   5.9340000  11.1640950 149.7315410   2.3174210   6.6294850 145.8126570
   2.6589910   7.3737080 145.3169890   1.4886920   6.9425970 146.1751400
   8.5927890   1.7683000 144.6018260   8.5091610   2.1997220 143.7514700
   9.3122080   2.2281350 145.0345080   9.6215140   8.6225260 147.3300390
   8.9791300   7.9680880 147.6044110   9.2345800   9.0280350 146.5541060
   5.2001620   5.9510690 151.1772080   5.5525440   5.3538820 150.5173450
   4.3163950   5.6254920 151.3480330   8.0112520   7.5141720 143.8676740
   7.7850100   6.7972160 144.4601380   7.6208720   7.2654160 143.0298490
   7.5928770   5.4313660 145.5290900   7.3050470   5.8926350 146.3168780
   8.3880940   4.9711430 145.7975120   2.7956770   8.9868020 144.1220060
   2.8968750   8.7832010 143.1922040   1.8958510   8.7326300 144.3267840
   9.0803050  10.0886720 144.9859940   8.7944560   9.6751860 144.1714120
   8.8822600  11.0174430 144.8660460   3.7853010   5.1440030 144.0307540
   3.2363110   5.5909330 144.6750280   4.4072270   4.6389280 144.5545210
   1.9655770   3.1268560 143.1749940   2.4861430   2.4117580 142.8091090
   2.6124170   3.7654430 143.4750450   2.5303800  11.2080170 145.4651680
   3.4254590  11.5465140 145.4870440   2.5621430  10.4859580 144.8375960
  10.7499600   7.4801660 143.5087590   9.9192560   7.5478310 143.9794820
  10.9271430   8.3705780 143.2054450  10.2056060   4.2249140 146.0121790
  10.9674970   4.7945790 146.1181480  10.2210430   3.6576340 146.7830100
  11.2116030   5.0799240 150.8563720  11.5824860   4.2966560 150.4499690
  11.8517960   5.7688340 150.6781020  10.2575230   4.5183510 143.1694310
  10.5324070   5.4262390 143.0413530  10.0685970   4.4546040 144.1056300
  10.1540570   2.4552500 148.1623740   9.7784170   1.6880430 147.7305030
   9.4243690   2.8375200 148.6498670   8.2525840  11.2154420 149.7962310
   8.8484910  10.8938990 149.1196730   8.5103990  10.7426240 150.5875580
  10.2746690  11.5288120 147.9919600  10.4498880  10.8425860 147.3480520
   9.5768260  12.0535170 147.5996270   2.8656890   3.8632370 133.5811710
   2.0898990   3.3832810 133.8710280   3.5169820   3.1838020 133.4067870
   6.8864320   8.2692560 132.3610840   6.4245850   7.4979800 132.6898010
   7.6989870   8.2958630 132.8663290   3.1127630  10.5550570 131.9814830
   2.4939070  11.0108070 131.4109270   3.9679410  10.7102030 131.5804530
   2.3065880   6.5389560 133.5881870   2.2374160   5.5979500 133.4271000
   3.0685740   6.6290970 134.1604440   3.9790980   5.4389810 129.3746740
   3.3608250   5.9039260 128.8109460   4.4914230   6.1317290 129.7916250
   8.9719430   8.3985890 135.7834160   8.2882950   9.0685000 135.7750830
   9.5113720   8.5966540 135.0179020   6.5078170  10.2430020 134.4979340
   6.5205330   9.8392310 133.6301600   5.9553390  11.0177310 134.3940770
   7.8023590   6.9646240 129.5869510   7.6919920   6.0220570 129.7118930
   7.7991840   7.3261880 130.4732270   5.9063610   5.1459860 135.8261950
   6.3232400   4.9319970 134.9915410   6.6303430   5.4032650 136.3970570
   3.3443870   2.5911560 128.9432000   2.4173150   2.5248940 129.1720470
   3.4968690   3.5291690 128.8287240   9.8525710   3.5447080 135.9178190
   9.0244340   3.6140170 135.4428320  10.4476190   4.1301390 135.4494020
   7.3741160   4.1531860 129.4467250   6.7553580   3.8151410 128.7993550
   7.3565610   3.5091620 130.1546440   7.5067820  10.3775730 137.5514040
   7.0298380  11.1847920 137.3586650   6.8229610   9.7254060 137.7040250
   5.5505860   3.3918670 126.4540000   5.9899140   2.5541100 126.3077820
   6.2634280   4.0248070 126.5404140   3.6601240   8.3314740 130.4221240
   4.0997150   9.0739070 130.0076630   3.5988130   8.5741310 131.3460200
  11.0867030  10.1387670 142.6205430  11.5626750  10.6170560 143.2994510
  11.7074190  10.0705160 141.8950930  10.4900280   7.3300520 139.7805440
  10.6163340   7.0912400 138.8622620  10.5321660   6.4985060 140.2527520
   4.3517020  11.0328520 138.3500250   4.8661690  10.9436530 139.1522680
   3.5086100  11.3788220 138.6428160   6.3271420  11.3183860 127.7784250
   6.1672560  11.0286800 128.6766080   6.1618130  10.5423990 127.2429480
   6.0297550   8.8271420 126.3382250   5.3362710   8.8248710 125.6784530
   6.7720410   8.4030740 125.9076420   5.5947480  10.4534130 130.4130740
   6.0504430   9.6723510 130.7269360   5.9340000  11.1640950 130.9571920
   8.1455290   4.6913550 133.9203360   8.8654410   5.1868840 133.5299470
   7.9437110   4.0131440 133.2757230   3.5274090   4.7622610 139.8072360
   3.4611400   3.8418280 139.5529950   2.8979230   4.8598050 140.5217000
   2.3174210   6.6294850 127.0383080   2.6589910   7.3737080 126.5426400
   1.4886920   6.9425970 127.4007910   3.4590820   7.5843180 139.5576160
   3.4735360   6.6524140 139.3395070   2.7515920   7.6702940 140.1965930
   8.5927890   1.7683000 125.8274770   8.5091610   2.1997220 124.9771210
   9.3122080   2.2281350 126.2601590   9.6702030   4.2250520 138.9044740
   8.9450220   4.8179300 138.7074130  10.1977490   4.2174060 138.1058110
   9.6215140   8.6225260 128.5556900   8.9791300   7.9680880 128.8300620
   9.2345800   9.0280350 127.7797570   5.2001620   5.9510690 132.4028590
   5.5525440   5.3538820 131.7429960   4.3163950   5.6254920 132.5736840
   2.8924720   9.2260750 136.6516660   3.5366940   9.4320130 137.3290080
   3.2554160   8.4649150 136.1987510   4.1656800   7.2293100 135.3694110
   4.8079030   6.5286260 135.4826280   4.6906150   8.0091540 135.1891000
   8.0112520   7.5141720 125.0933250   7.7850100   6.7972160 125.6857890
   7.6208720   7.2654160 124.2555000   5.9394420   8.0288000 138.5730170
   6.2750660   8.6154690 139.2508090   5.0194760   7.8980710 138.8027960
   7.5928770   5.4313660 126.7547410   7.3050470   5.8926350 127.5425290
   8.3880940   4.9711430 127.0231630   1.7683000   8.0779330 141.7418230
   1.4479870   7.3588570 142.2863920   1.0941360   8.7534400 141.8154290
   2.7956770   8.9868020 125.3476570   2.8968750   8.7832010 124.4178550
   1.8958510   8.7326300 125.5524350   9.4453040   9.5955070 133.2937010
   9.5700460  10.4186240 133.7660820  10.3118600   9.3845800 132.9461160
   4.7593480   6.9812220 142.1015130   4.1531640   7.0043820 141.3610880
   4.4547590   6.2495260 142.6382380   6.1893850  10.7092510 140.7124540
   7.1415600  10.6250530 140.6624780   6.0422070  11.3734220 141.3858330
   9.0803050  10.0886720 126.2116450   8.7944560   9.6751860 125.3970630
   8.8822600  11.0174430 126.0916970   3.7853010   5.1440030 125.2564050
   3.2363110   5.5909330 125.9006790   4.4072270   4.6389280 125.7801720
   7.8387950   6.4982130 141.1886310   8.5797420   6.8357890 140.6853770
   7.0760630   6.6674190 140.6356080   1.9655770   3.1268560 124.4006450
   2.4861430   2.4117580 124.0347600   2.6124170   3.7654430 124.7006960
   6.5133610   4.5496960 139.7241520   6.9274630   4.7042040 140.5731940
   5.5784610   4.6752180 139.8867300   5.9500640   2.7870810 137.6537800
   5.4235860   3.3113430 137.0502940   6.2931980   3.4198200 138.2847530
   1.9818470  12.0421660 139.0681830   1.9077170  12.9456800 139.3754200
   1.0797310  11.7233560 139.0403900   2.5303800  11.2080170 126.6908190
   3.4254590  11.5465140 126.7126950   2.5621430  10.4859580 126.0632470
   9.5098150   9.7383840 139.3974390   8.9100140   9.7976400 138.6538310
   9.6392050   8.7988820 139.5271240  10.7499600   7.4801660 124.7344100
   9.9192560   7.5478310 125.2051330  10.9271430   8.3705780 124.4310960
  10.2056060   4.2249140 127.2378300  10.9674970   4.7945790 127.3437990
  10.2210430   3.6576340 128.0086610  11.2116030   5.0799240 132.0820230
  11.5824860   4.2966560 131.6756200  11.8517960   5.7688340 131.9037530
   8.1949790   6.4635820 137.4950550   7.3809630   6.8932980 137.7576340
   8.6023990   7.0754230 136.8819600  10.2575230   4.5183510 124.3950820
  10.5324070   5.4262390 124.2670040  10.0685970   4.4546040 125.3312810
  10.1540570   2.4552500 129.3880250   9.7784170   1.6880430 128.9561540
   9.4243690   2.8375200 129.8755180   8.2525840  11.2154420 131.0218820
   8.8484910  10.8938990 130.3453240   8.5103990  10.7426240 131.8132090
  11.1198600  11.2226300 137.5729810  10.6256880  11.6195170 136.8556940
  10.5111890  10.5975510 137.9667090   8.8038050  11.8649720 134.8516550
   8.3441020  12.6165530 134.4774570   8.1750510  11.1456190 134.7931350
   1.9729270  11.0646450 134.8533660   2.2607080  10.8100750 133.9766670
   2.4852490  10.5123810 135.4439230   2.0401630  11.9862550 142.2201860
   2.9668940  11.7506820 142.2637820   2.0252060  12.8134550 141.7387890
  10.2746690  11.5288120 129.2176110  10.4498880  10.8425860 128.5737030
   9.5768260  12.0535170 128.8252780   8.6079190  11.2132410 142.0442900
   9.4004510  10.7181640 141.8368860   8.9012340  11.8922550 142.6518510
   2.8656890   3.8632370 114.8068220   2.0898990   3.3832810 115.0966790
   3.5169820   3.1838020 114.6324380   6.8864320   8.2692560 113.5867350
   6.4245850   7.4979800 113.9154520   7.6989870   8.2958630 114.0919800
   3.1127630  10.5550570 113.2071340   2.4939070  11.0108070 112.6365780
   3.9679410  10.7102030 112.8061040   2.3065880   6.5389560 114.8138380
   2.2374160   5.5979500 114.6527510   3.0685740   6.6290970 115.3860950
   3.9790980   5.4389810 110.6003250   3.3608250   5.9039260 110.0365970
   4.4914230   6.1317290 111.0172760   8.9719430   8.3985890 117.0090670
   8.2882950   9.0685000 117.0007340   9.5113720   8.5966540 116.2435530
   6.5078170  10.2430020 115.7235850   6.5205330   9.8392310 114.8558110
   5.9553390  11.0177310 115.6197280   7.8023590   6.9646240 110.8126020
   7.6919920   6.0220570 110.9375440   7.7991840   7.3261880 111.6988780
   5.9063610   5.1459860 117.0518460   6.3232400   4.9319970 116.2171920
   6.6303430   5.4032650 117.6227080   3.3443870   2.5911560 110.1688510
   2.4173150   2.5248940 110.3976980   3.4968690   3.5291690 110.0543750
   9.8525710   3.5447080 117.1434700   9.0244340   3.6140170 116.6684830
  10.4476190   4.1301390 116.6750530   7.3741160   4.1531860 110.6723760
   6.7553580   3.8151410 110.0250060   7.3565610   3.5091620 111.3802950
   7.5067820  10.3775730 118.7770550   7.0298380  11.1847920 118.5843160
   6.8229610   9.7254060 118.9296760   5.5505860   3.3918670 107.6796510
   5.9899140   2.5541100 107.5334330   6.2634280   4.0248070 107.7660650
   3.6601240   8.3314740 111.6477750   4.0997150   9.0739070 111.2333140
   3.5988130   8.5741310 112.5716710  11.0867030  10.1387670 123.8461940
  11.5626750  10.6170560 124.5251020  11.7074190  10.0705160 123.1207440
  10.4900280   7.3300520 121.0061950  10.6163340   7.0912400 120.0879130
  10.5321660   6.4985060 121.4784030   4.3517020  11.0328520 119.5756760
   4.8661690  10.9436530 120.3779190   3.5086100  11.3788220 119.8684670
   6.3271420  11.3183860 109.0040760   6.1672560  11.0286800 109.9022590
   6.1618130  10.5423990 108.4685990   6.0297550   8.8271420 107.5638760
   5.3362710   8.8248710 106.9041040   6.7720410   8.4030740 107.1332930
   5.5947480  10.4534130 111.6387250   6.0504430   9.6723510 111.9525870
   5.9340000  11.1640950 112.1828430   8.1455290   4.6913550 115.1459870
   8.8654410   5.1868840 114.7555980   7.9437110   4.0131440 114.5013740
   3.5274090   4.7622610 121.0328870   3.4611400   3.8418280 120.7786460
   2.8979230   4.8598050 121.7473510   2.3174210   6.6294850 108.2639590
   2.6589910   7.3737080 107.7682910   1.4886920   6.9425970 108.6264420
   3.4590820   7.5843180 120.7832670   3.4735360   6.6524140 120.5651580
   2.7515920   7.6702940 121.4222440   8.5927890   1.7683000 107.0531280
   8.5091610   2.1997220 106.2027720   9.3122080   2.2281350 107.4858100
   9.6702030   4.2250520 120.1301250   8.9450220   4.8179300 119.9330640
  10.1977490   4.2174060 119.3314620   9.6215140   8.6225260 109.7813410
   8.9791300   7.9680880 110.0557130   9.2345800   9.0280350 109.0054080
   5.2001620   5.9510690 113.6285100   5.5525440   5.3538820 112.9686470
   4.3163950   5.6254920 113.7993350   2.8924720   9.2260750 117.8773170
   3.5366940   9.4320130 118.5546590   3.2554160   8.4649150 117.4244020
   4.1656800   7.2293100 116.5950620   4.8079030   6.5286260 116.7082790
   4.6906150   8.0091540 116.4147510   8.0112520   7.5141720 106.3189760
   7.7850100   6.7972160 106.9114400   7.6208720   7.2654160 105.4811510
   5.9394420   8.0288000 119.7986680   6.2750660   8.6154690 120.4764600
   5.0194760   7.8980710 120.0284470   7.5928770   5.4313660 107.9803920
   7.3050470   5.8926350 108.7681800   8.3880940   4.9711430 108.2488140
   1.7683000   8.0779330 122.9674740   1.4479870   7.3588570 123.5120430
   1.0941360   8.7534400 123.0410800   2.7956770   8.9868020 106.5733080
   2.8968750   8.7832010 105.6435060   1.8958510   8.7326300 106.7780860
   9.4453040   9.5955070 114.5193520   9.5700460  10.4186240 114.9917330
  10.3118600   9.3845800 114.1717670   4.7593480   6.9812220 123.3271640
   4.1531640   7.0043820 122.5867390   4.4547590   6.2495260 123.8638890
   6.1893850  10.7092510 121.9381050   7.1415600  10.6250530 121.8881290
   6.0422070  11.3734220 122.6114840   9.0803050  10.0886720 107.4372960
   8.7944560   9.6751860 106.6227140   8.8822600  11.0174430 107.3173480
   3.7853010   5.1440030 106.4820560   3.2363110   5.5909330 107.1263300
   4.4072270   4.6389280 107.0058230   7.8387950   6.4982130 122.4142820
   8.5797420   6.8357890 121.9110280   7.0760630   6.6674190 121.8612590
   1.9655770   3.1268560 105.6262960   2.4861430   2.4117580 105.2604110
   2.6124170   3.7654430 105.9263470   6.5133610   4.5496960 120.9498030
   6.9274630   4.7042040 121.7988450   5.5784610   4.6752180 121.1123810
   5.9500640   2.7870810 118.8794310   5.4235860   3.3113430 118.2759450
   6.2931980   3.4198200 119.5104040   1.9818470  12.0421660 120.2938340
   1.9077170  12.9456800 120.6010710   1.0797310  11.7233560 120.2660410
   2.5303800  11.2080170 107.9164700   3.4254590  11.5465140 107.9383460
   2.5621430  10.4859580 107.2888980   9.5098150   9.7383840 120.6230900
   8.9100140   9.7976400 119.8794820   9.6392050   8.7988820 120.7527750
  10.7499600   7.4801660 105.9600610   9.9192560   7.5478310 106.4307840
  10.9271430   8.3705780 105.6567470  10.2056060   4.2249140 108.4634810
  10.9674970   4.7945790 108.5694500  10.2210430   3.6576340 109.2343120
  11.2116030   5.0799240 113.3076740  11.5824860   4.2966560 112.9012710
  11.8517960   5.7688340 113.1294040   8.1949790   6.4635820 118.7207060
   7.3809630   6.8932980 118.9832850   8.6023990   7.0754230 118.1076110
  10.2575230   4.5183510 105.6207330  10.5324070   5.4262390 105.4926550
  10.0685970   4.4546040 106.5569320  10.1540570   2.4552500 110.6136760
   9.7784170   1.6880430 110.1818050   9.4243690   2.8375200 111.1011690
   8.2525840  11.2154420 112.2475330   8.8484910  10.8938990 111.5709750
   8.5103990  10.7426240 113.0388600  11.1198600  11.2226300 118.7986320
  10.6256880  11.6195170 118.0813450  10.5111890  10.5975510 119.1923600
   8.8038050  11.8649720 116.0773060   8.3441020  12.6165530 115.7031080
   8.1750510  11.1456190 116.0187860   1.9729270  11.0646450 116.0790170
   2.2607080  10.8100750 115.2023180   2.4852490  10.5123810 116.6695740
   2.0401630  11.9862550 123.4458370   2.9668940  11.7506820 123.4894330
   2.0252060  12.8134550 122.9644400  10.2746690  11.5288120 110.4432620
  10.4498880  10.8425860 109.7993540   9.5768260  12.0535170 110.0509290
   8.6079190  11.2132410 123.2699410   9.4004510  10.7181640 123.0625370
   8.9012340  11.8922550 123.8775020   2.8656890   3.8632370  96.0324730
   2.0898990   3.3832810  96.3223300   3.5169820   3.1838020  95.8580890
   6.8864320   8.2692560  94.8123860   6.4245850   7.4979800  95.1411030
   7.6989870   8.2958630  95.3176310   3.1127630  10.5550570  94.4327850
   2.4939070  11.0108070  93.8622290   3.9679410  10.7102030  94.0317550
   2.3065880   6.5389560  96.0394890   2.2374160   5.5979500  95.8784020
   3.0685740   6.6290970  96.6117460   3.9790980   5.4389810  91.8259760
   3.3608250   5.9039260  91.2622480   4.4914230   6.1317290  92.2429270
   8.9719430   8.3985890  98.2347180   8.2882950   9.0685000  98.2263850
   9.5113720   8.5966540  97.4692040   6.5078170  10.2430020  96.9492360
   6.5205330   9.8392310  96.0814620   5.9553390  11.0177310  96.8453790
   7.8023590   6.9646240  92.0382530   7.6919920   6.0220570  92.1631950
   7.7991840   7.3261880  92.9245290   5.9063610   5.1459860  98.2774970
   6.3232400   4.9319970  97.4428430   6.6303430   5.4032650  98.8483590
   3.3443870   2.5911560  91.3945020   2.4173150   2.5248940  91.6233490
   3.4968690   3.5291690  91.2800260   9.8525710   3.5447080  98.3691210
   9.0244340   3.6140170  97.8941340  10.4476190   4.1301390  97.9007040
   7.3741160   4.1531860  91.8980270   6.7553580   3.8151410  91.2506570
   7.3565610   3.5091620  92.6059460   7.5067820  10.3775730 100.0027060
   7.0298380  11.1847920  99.8099670   6.8229610   9.7254060 100.1553270
   5.5505860   3.3918670  88.9053020   5.9899140   2.5541100  88.7590840
   6.2634280   4.0248070  88.9917160   3.6601240   8.3314740  92.8734260
   4.0997150   9.0739070  92.4589650   3.5988130   8.5741310  93.7973220
  11.0867030  10.1387670 105.0718450  11.5626750  10.6170560 105.7507530
  11.7074190  10.0705160 104.3463950  10.4900280   7.3300520 102.2318460
  10.6163340   7.0912400 101.3135640  10.5321660   6.4985060 102.7040540
   4.3517020  11.0328520 100.8013270   4.8661690  10.9436530 101.6035700
   3.5086100  11.3788220 101.0941180   6.3271420  11.3183860  90.2297270
   6.1672560  11.0286800  91.1279100   6.1618130  10.5423990  89.6942500
   6.0297550   8.8271420  88.7895270   5.3362710   8.8248710  88.1297550
   6.7720410   8.4030740  88.3589440   5.5947480  10.4534130  92.8643760
   6.0504430   9.6723510  93.1782380   5.9340000  11.1640950  93.4084940
   8.1455290   4.6913550  96.3716380   8.8654410   5.1868840  95.9812490
   7.9437110   4.0131440  95.7270250   3.5274090   4.7622610 102.2585380
   3.4611400   3.8418280 102.0042970   2.8979230   4.8598050 102.9730020
   2.3174210   6.6294850  89.4896100   2.6589910   7.3737080  88.9939420
   1.4886920   6.9425970  89.8520930   3.4590820   7.5843180 102.0089180
   3.4735360   6.6524140 101.7908090   2.7515920   7.6702940 102.6478950
   8.5927890   1.7683000  88.2787790   8.5091610   2.1997220  87.4284230
   9.3122080   2.2281350  88.7114610   9.6702030   4.2250520 101.3557760
   8.9450220   4.8179300 101.1587150  10.1977490   4.2174060 100.5571130
   9.6215140   8.6225260  91.0069920   8.9791300   7.9680880  91.2813640
   9.2345800   9.0280350  90.2310590   5.2001620   5.9510690  94.8541610
   5.5525440   5.3538820  94.1942980   4.3163950   5.6254920  95.0249860
   2.8924720   9.2260750  99.1029680   3.5366940   9.4320130  99.7803100
   3.2554160   8.4649150  98.6500530   4.1656800   7.2293100  97.8207130
   4.8079030   6.5286260  97.9339300   4.6906150   8.0091540  97.6404020
   8.0112520   7.5141720  87.5446270   7.7850100   6.7972160  88.1370910
   7.6208720   7.2654160  86.7068020   5.9394420   8.0288000 101.0243190
   6.2750660   8.6154690 101.7021110   5.0194760   7.8980710 101.2540980
   7.5928770   5.4313660  89.2060430   7.3050470   5.8926350  89.9938310
   8.3880940   4.9711430  89.4744650   1.7683000   8.0779330 104.1931250
   1.4479870   7.3588570 104.7376940   1.0941360   8.7534400 104.2667310
   2.7956770   8.9868020  87.7989590   2.8968750   8.7832010  86.8691570
   1.8958510   8.7326300  88.0037370   9.4453040   9.5955070  95.7450030
   9.5700460  10.4186240  96.2173840  10.3118600   9.3845800  95.3974180
   4.7593480   6.9812220 104.5528150   4.1531640   7.0043820 103.8123900
   4.4547590   6.2495260 105.0895400   6.1893850  10.7092510 103.1637560
   7.1415600  10.6250530 103.1137800   6.0422070  11.3734220 103.8371350
   9.0803050  10.0886720  88.6629470   8.7944560   9.6751860  87.8483650
   8.8822600  11.0174430  88.5429990   3.7853010   5.1440030  87.7077070
   3.2363110   5.5909330  88.3519810   4.4072270   4.6389280  88.2314740
   7.8387950   6.4982130 103.6399330   8.5797420   6.8357890 103.1366790
   7.0760630   6.6674190 103.0869100   1.9655770   3.1268560  86.8519470
   2.4861430   2.4117580  86.4860620   2.6124170   3.7654430  87.1519980
   6.5133610   4.5496960 102.1754540   6.9274630   4.7042040 103.0244960
   5.5784610   4.6752180 102.3380320   5.9500640   2.7870810 100.1050820
   5.4235860   3.3113430  99.5015960   6.2931980   3.4198200 100.7360550
   1.9818470  12.0421660 101.5194850   1.9077170  12.9456800 101.8267220
   1.0797310  11.7233560 101.4916920   2.5303800  11.2080170  89.1421210
   3.4254590  11.5465140  89.1639970   2.5621430  10.4859580  88.5145490
   9.5098150   9.7383840 101.8487410   8.9100140   9.7976400 101.1051330
   9.6392050   8.7988820 101.9784260  10.7499600   7.4801660  87.1857120
   9.9192560   7.5478310  87.6564350  10.9271430   8.3705780  86.8823980
  10.2056060   4.2249140  89.6891320  10.9674970   4.7945790  89.7951010
  10.2210430   3.6576340  90.4599630  11.2116030   5.0799240  94.5333250
  11.5824860   4.2966560  94.1269220  11.8517960   5.7688340  94.3550550
   8.1949790   6.4635820  99.9463570   7.3809630   6.8932980 100.2089360
   8.6023990   7.0754230  99.3332620  10.2575230   4.5183510  86.8463840
  10.5324070   5.4262390  86.7183060  10.0685970   4.4546040  87.7825830
  10.1540570   2.4552500  91.8393270   9.7784170   1.6880430  91.4074560
   9.4243690   2.8375200  92.3268200   8.2525840  11.2154420  93.4731840
   8.8484910  10.8938990  92.7966260   8.5103990  10.7426240  94.2645110
  11.1198600  11.2226300 100.0242830  10.6256880  11.6195170  99.3069960
  10.5111890  10.5975510 100.4180110   8.8038050  11.8649720  97.3029570
   8.3441020  12.6165530  96.9287590   8.1750510  11.1456190  97.2444370
   1.9729270  11.0646450  97.3046680   2.2607080  10.8100750  96.4279690
   2.4852490  10.5123810  97.8952250   2.0401630  11.9862550 104.6714880
   2.9668940  11.7506820 104.7150840   2.0252060  12.8134550 104.1900910
  10.2746690  11.5288120  91.6689130  10.4498880  10.8425860  91.0250050
   9.5768260  12.0535170  91.2765800   8.6079190  11.2132410 104.4955920
   9.4004510  10.7181640 104.2881880   8.9012340  11.8922550 105.1031530
   2.8656890   3.8632370  77.2581240   2.0898990   3.3832810  77.5479810
   3.5169820   3.1838020  77.0837400   6.8864320   8.2692560  76.0380370
   6.4245850   7.4979800  76.3667540   7.6989870   8.2958630  76.5432820
   3.1127630  10.5550570  75.6584360   2.4939070  11.0108070  75.0878800
   3.9679410  10.7102030  75.2574060   2.3065880   6.5389560  77.2651400
   2.2374160   5.5979500  77.1040530   3.0685740   6.6290970  77.8373970
   3.9790980   5.4389810  73.0516270   3.3608250   5.9039260  72.4878990
   4.4914230   6.1317290  73.4685780   8.9719430   8.3985890  79.4603690
   8.2882950   9.0685000  79.4520360   9.5113720   8.5966540  78.6948550
   6.5078170  10.2430020  78.1748870   6.5205330   9.8392310  77.3071130
   5.9553390  11.0177310  78.0710300   7.8023590   6.9646240  73.2639040
   7.6919920   6.0220570  73.3888460   7.7991840   7.3261880  74.1501800
   5.9063610   5.1459860  79.5031480   6.3232400   4.9319970  78.6684940
   6.6303430   5.4032650  80.0740100   3.3443870   2.5911560  72.6201530
   2.4173150   2.5248940  72.8490000   3.4968690   3.5291690  72.5056770
   9.8525710   3.5447080  79.5947720   9.0244340   3.6140170  79.1197850
  10.4476190   4.1301390  79.1263550   7.3741160   4.1531860  73.1236780
   6.7553580   3.8151410  72.4763080   7.3565610   3.5091620  73.8315970
   7.5067820  10.3775730  81.2283570   7.0298380  11.1847920  81.0356180
   6.8229610   9.7254060  81.3809780   5.5505860   3.3918670  70.1309530
   5.9899140   2.5541100  69.9847350   6.2634280   4.0248070  70.2173670
   3.6601240   8.3314740  74.0990770   4.0997150   9.0739070  73.6846160
   3.5988130   8.5741310  75.0229730  11.0867030  10.1387670  86.2974960
  11.5626750  10.6170560  86.9764040  11.7074190  10.0705160  85.5720460
  10.4900280   7.3300520  83.4574970  10.6163340   7.0912400  82.5392150
  10.5321660   6.4985060  83.9297050   4.3517020  11.0328520  82.0269780
   4.8661690  10.9436530  82.8292210   3.5086100  11.3788220  82.3197690
   6.3271420  11.3183860  71.4553780   6.1672560  11.0286800  72.3535610
   6.1618130  10.5423990  70.9199010   6.0297550   8.8271420  70.0151780
   5.3362710   8.8248710  69.3554060   6.7720410   8.4030740  69.5845950
   5.5947480  10.4534130  74.0900270   6.0504430   9.6723510  74.4038890
   5.9340000  11.1640950  74.6341450   8.1455290   4.6913550  77.5972890
   8.8654410   5.1868840  77.2069000   7.9437110   4.0131440  76.9526760
   3.5274090   4.7622610  83.4841890   3.4611400   3.8418280  83.2299480
   2.8979230   4.8598050  84.1986530   2.3174210   6.6294850  70.7152610
   2.6589910   7.3737080  70.2195930   1.4886920   6.9425970  71.0777440
   3.4590820   7.5843180  83.2345690   3.4735360   6.6524140  83.0164600
   2.7515920   7.6702940  83.8735460   8.5927890   1.7683000  69.5044300
   8.5091610   2.1997220  68.6540740   9.3122080   2.2281350  69.9371120
   9.6702030   4.2250520  82.5814270   8.9450220   4.8179300  82.3843660
  10.1977490   4.2174060  81.7827640   9.6215140   8.6225260  72.2326430
   8.9791300   7.9680880  72.5070150   9.2345800   9.0280350  71.4567100
   5.2001620   5.9510690  76.0798120   5.5525440   5.3538820  75.4199490
   4.3163950   5.6254920  76.2506370   2.8924720   9.2260750  80.3286190
   3.5366940   9.4320130  81.0059610   3.2554160   8.4649150  79.8757040
   4.1656800   7.2293100  79.0463640   4.8079030   6.5286260  79.1595810
   4.6906150   8.0091540  78.8660530   8.0112520   7.5141720  68.7702780
   7.7850100   6.7972160  69.3627420   7.6208720   7.2654160  67.9324530
   5.9394420   8.0288000  82.2499700   6.2750660   8.6154690  82.9277620
   5.0194760   7.8980710  82.4797490   7.5928770   5.4313660  70.4316940
   7.3050470   5.8926350  71.2194820   8.3880940   4.9711430  70.7001160
   1.7683000   8.0779330  85.4187760   1.4479870   7.3588570  85.9633450
   1.0941360   8.7534400  85.4923820   2.7956770   8.9868020  69.0246100
   2.8968750   8.7832010  68.0948080   1.8958510   8.7326300  69.2293880
   9.4453040   9.5955070  76.9706540   9.5700460  10.4186240  77.4430350
  10.3118600   9.3845800  76.6230690   4.7593480   6.9812220  85.7784660
   4.1531640   7.0043820  85.0380410   4.4547590   6.2495260  86.3151910
   6.1893850  10.7092510  84.3894070   7.1415600  10.6250530  84.3394310
   6.0422070  11.3734220  85.0627860   9.0803050  10.0886720  69.8885980
   8.7944560   9.6751860  69.0740160   8.8822600  11.0174430  69.7686500
   3.7853010   5.1440030  68.9333580   3.2363110   5.5909330  69.5776320
   4.4072270   4.6389280  69.4571250   7.8387950   6.4982130  84.8655840
   8.5797420   6.8357890  84.3623300   7.0760630   6.6674190  84.3125610
   1.9655770   3.1268560  68.0775980   2.4861430   2.4117580  67.7117130
   2.6124170   3.7654430  68.3776490   6.5133610   4.5496960  83.4011050
   6.9274630   4.7042040  84.2501470   5.5784610   4.6752180  83.5636830
   5.9500640   2.7870810  81.3307330   5.4235860   3.3113430  80.7272470
   6.2931980   3.4198200  81.9617060   1.9818470  12.0421660  82.7451360
   1.9077170  12.9456800  83.0523730   1.0797310  11.7233560  82.7173430
   2.5303800  11.2080170  70.3677720   3.4254590  11.5465140  70.3896480
   2.5621430  10.4859580  69.7402000   9.5098150   9.7383840  83.0743920
   8.9100140   9.7976400  82.3307840   9.6392050   8.7988820  83.2040770
  10.7499600   7.4801660  68.4113630   9.9192560   7.5478310  68.8820860
  10.9271430   8.3705780  68.1080490  10.2056060   4.2249140  70.9147830
  10.9674970   4.7945790  71.0207520  10.2210430   3.6576340  71.6856140
  11.2116030   5.0799240  75.7589760  11.5824860   4.2966560  75.3525730
  11.8517960   5.7688340  75.5807060   8.1949790   6.4635820  81.1720080
   7.3809630   6.8932980  81.4345870   8.6023990   7.0754230  80.5589130
  10.2575230   4.5183510  68.0720350  10.5324070   5.4262390  67.9439570
  10.0685970   4.4546040  69.0082340  10.1540570   2.4552500  73.0649780
   9.7784170   1.6880430  72.6331070   9.4243690   2.8375200  73.5524710
   8.2525840  11.2154420  74.6988350   8.8484910  10.8938990  74.0222770
   8.5103990  10.7426240  75.4901620  11.1198600  11.2226300  81.2499340
  10.6256880  11.6195170  80.5326470  10.5111890  10.5975510  81.6436620
   8.8038050  11.8649720  78.5286080   8.3441020  12.6165530  78.1544100
   8.1750510  11.1456190  78.4700880   1.9729270  11.0646450  78.5303190
   2.2607080  10.8100750  77.6536200   2.4852490  10.5123810  79.1208760
   2.0401630  11.9862550  85.8971390   2.9668940  11.7506820  85.9407350
   2.0252060  12.8134550  85.4157420  10.2746690  11.5288120  72.8945640
  10.4498880  10.8425860  72.2506560   9.5768260  12.0535170  72.5022310
   8.6079190  11.2132410  85.7212430   9.4004510  10.7181640  85.5138390
   8.9012340  11.8922550  86.3288040   2.8656890   3.8632370  58.4837750
   2.0898990   3.3832810  58.7736320   3.5169820   3.1838020  58.3093910
   6.8864320   8.2692560  57.2636880   6.4245850   7.4979800  57.5924050
   7.6989870   8.2958630  57.7689330   3.1127630  10.5550570  56.8840870
   2.4939070  11.0108070  56.3135310   3.9679410  10.7102030  56.4830570
   2.3065880   6.5389560  58.4907910   2.2374160   5.5979500  58.3297040
   3.0685740   6.6290970  59.0630480   3.9790980   5.4389810  54.2772780
   3.3608250   5.9039260  53.7135500   4.4914230   6.1317290  54.6942290
   8.9719430   8.3985890  60.6860200   8.2882950   9.0685000  60.6776870
   9.5113720   8.5966540  59.9205060   6.5078170  10.2430020  59.4005380
   6.5205330   9.8392310  58.5327640   5.9553390  11.0177310  59.2966810
   7.8023590   6.9646240  54.4895550   7.6919920   6.0220570  54.6144970
   7.7991840   7.3261880  55.3758310   5.9063610   5.1459860  60.7287990
   6.3232400   4.9319970  59.8941450   6.6303430   5.4032650  61.2996610
   3.3443870   2.5911560  53.8458040   2.4173150   2.5248940  54.0746510
   3.4968690   3.5291690  53.7313280   9.8525710   3.5447080  60.8204230
   9.0244340   3.6140170  60.3454360  10.4476190   4.1301390  60.3520060
   7.3741160   4.1531860  54.3493290   6.7553580   3.8151410  53.7019590
   7.3565610   3.5091620  55.0572480   7.5067820  10.3775730  62.4540080
   7.0298380  11.1847920  62.2612690   6.8229610   9.7254060  62.6066290
   5.5505860   3.3918670  51.3566040   5.9899140   2.5541100  51.2103860
   6.2634280   4.0248070  51.4430180   3.6601240   8.3314740  55.3247280
   4.0997150   9.0739070  54.9102670   3.5988130   8.5741310  56.2486240
  11.0867030  10.1387670  67.5231470  11.5626750  10.6170560  68.2020550
  11.7074190  10.0705160  66.7976970  10.4900280   7.3300520  64.6831480
  10.6163340   7.0912400  63.7648660  10.5321660   6.4985060  65.1553560
   4.3517020  11.0328520  63.2526290   4.8661690  10.9436530  64.0548720
   3.5086100  11.3788220  63.5454200   6.3271420  11.3183860  52.6810290
   6.1672560  11.0286800  53.5792120   6.1618130  10.5423990  52.1455520
   6.0297550   8.8271420  51.2408290   5.3362710   8.8248710  50.5810570
   6.7720410   8.4030740  50.8102460   5.5947480  10.4534130  55.3156780
   6.0504430   9.6723510  55.6295400   5.9340000  11.1640950  55.8597960
   8.1455290   4.6913550  58.8229400   8.8654410   5.1868840  58.4325510
   7.9437110   4.0131440  58.1783270   3.5274090   4.7622610  64.7098400
   3.4611400   3.8418280  64.4555990   2.8979230   4.8598050  65.4243040
   2.3174210   6.6294850  51.9409120   2.6589910   7.3737080  51.4452440
   1.4886920   6.9425970  52.3033950   3.4590820   7.5843180  64.4602200
   3.4735360   6.6524140  64.2421110   2.7515920   7.6702940  65.0991970
   8.5927890   1.7683000  50.7300810   8.5091610   2.1997220  49.8797250
   9.3122080   2.2281350  51.1627630   9.6702030   4.2250520  63.8070780
   8.9450220   4.8179300  63.6100170  10.1977490   4.2174060  63.0084150
   9.6215140   8.6225260  53.4582940   8.9791300   7.9680880  53.7326660
   9.2345800   9.0280350  52.6823610   5.2001620   5.9510690  57.3054630
   5.5525440   5.3538820  56.6456000   4.3163950   5.6254920  57.4762880
   2.8924720   9.2260750  61.5542700   3.5366940   9.4320130  62.2316120
   3.2554160   8.4649150  61.1013550   4.1656800   7.2293100  60.2720150
   4.8079030   6.5286260  60.3852320   4.6906150   8.0091540  60.0917040
   8.0112520   7.5141720  49.9959290   7.7850100   6.7972160  50.5883930
   7.6208720   7.2654160  49.1581040   5.9394420   8.0288000  63.4756210
   6.2750660   8.6154690  64.1534130   5.0194760   7.8980710  63.7054000
   7.5928770   5.4313660  51.6573450   7.3050470   5.8926350  52.4451330
   8.3880940   4.9711430  51.9257670   1.7683000   8.0779330  66.6444270
   1.4479870   7.3588570  67.1889960   1.0941360   8.7534400  66.7180330
   2.7956770   8.9868020  50.2502610   2.8968750   8.7832010  49.3204590
   1.8958510   8.7326300  50.4550390   9.4453040   9.5955070  58.1963050
   9.5700460  10.4186240  58.6686860  10.3118600   9.3845800  57.8487200
   4.7593480   6.9812220  67.0041170   4.1531640   7.0043820  66.2636920
   4.4547590   6.2495260  67.5408420   6.1893850  10.7092510  65.6150580
   7.1415600  10.6250530  65.5650820   6.0422070  11.3734220  66.2884370
   9.0803050  10.0886720  51.1142490   8.7944560   9.6751860  50.2996670
   8.8822600  11.0174430  50.9943010   3.7853010   5.1440030  50.1590090
   3.2363110   5.5909330  50.8032830   4.4072270   4.6389280  50.6827760
   7.8387950   6.4982130  66.0912350   8.5797420   6.8357890  65.5879810
   7.0760630   6.6674190  65.5382120   1.9655770   3.1268560  49.3032490
   2.4861430   2.4117580  48.9373640   2.6124170   3.7654430  49.6033000
   6.5133610   4.5496960  64.6267560   6.9274630   4.7042040  65.4757980
   5.5784610   4.6752180  64.7893340   5.9500640   2.7870810  62.5563840
   5.4235860   3.3113430  61.9528980   6.2931980   3.4198200  63.1873570
   1.9818470  12.0421660  63.9707870   1.9077170  12.9456800  64.2780240
   1.0797310  11.7233560  63.9429940   2.5303800  11.2080170  51.5934230
   3.4254590  11.5465140  51.6152990   2.5621430  10.4859580  50.9658510
   9.5098150   9.7383840  64.3000430   8.9100140   9.7976400  63.5564350
   9.6392050   8.7988820  64.4297280  10.7499600   7.4801660  49.6370140
   9.9192560   7.5478310  50.1077370  10.9271430   8.3705780  49.3337000
  10.2056060   4.2249140  52.1404340  10.9674970   4.7945790  52.2464030
  10.2210430   3.6576340  52.9112650  11.2116030   5.0799240  56.9846270
  11.5824860   4.2966560  56.5782240  11.8517960   5.7688340  56.8063570
   8.1949790   6.4635820  62.3976590   7.3809630   6.8932980  62.6602380
   8.6023990   7.0754230  61.7845640  10.2575230   4.5183510  49.2976860
  10.5324070   5.4262390  49.1696080  10.0685970   4.4546040  50.2338850
  10.1540570   2.4552500  54.2906290   9.7784170   1.6880430  53.8587580
   9.4243690   2.8375200  54.7781220   8.2525840  11.2154420  55.9244860
   8.8484910  10.8938990  55.2479280   8.5103990  10.7426240  56.7158130
  11.1198600  11.2226300  62.4755850  10.6256880  11.6195170  61.7582980
  10.5111890  10.5975510  62.8693130   8.8038050  11.8649720  59.7542590
   8.3441020  12.6165530  59.3800610   8.1750510  11.1456190  59.6957390
   1.9729270  11.0646450  59.7559700   2.2607080  10.8100750  58.8792710
   2.4852490  10.5123810  60.3465270   2.0401630  11.9862550  67.1227900
   2.9668940  11.7506820  67.1663860   2.0252060  12.8134550  66.6413930
  10.2746690  11.5288120  54.1202150  10.4498880  10.8425860  53.4763070
   9.5768260  12.0535170  53.7278820   8.6079190  11.2132410  66.9468940
   9.4004510  10.7181640  66.7394900   8.9012340  11.8922550  67.5544550
   2.8656890   3.8632370  39.7094260   2.0898990   3.3832810  39.9992830
   3.5169820   3.1838020  39.5350420   6.8864320   8.2692560  38.4893390
   6.4245850   7.4979800  38.8180560   7.6989870   8.2958630  38.9945840
   3.1127630  10.5550570  38.1097380   2.4939070  11.0108070  37.5391820
   3.9679410  10.7102030  37.7087080   2.3065880   6.5389560  39.7164420
   2.2374160   5.5979500  39.5553550   3.0685740   6.6290970  40.2886990
   3.9790980   5.4389810  35.5029290   3.3608250   5.9039260  34.9392010
   4.4914230   6.1317290  35.9198800   8.9719430   8.3985890  41.9116710
   8.2882950   9.0685000  41.9033380   9.5113720   8.5966540  41.1461570
   6.5078170  10.2430020  40.6261890   6.5205330   9.8392310  39.7584150
   5.9553390  11.0177310  40.5223320   7.8023590   6.9646240  35.7152060
   7.6919920   6.0220570  35.8401480   7.7991840   7.3261880  36.6014820
   5.9063610   5.1459860  41.9544500   6.3232400   4.9319970  41.1197960
   6.6303430   5.4032650  42.5253120   3.3443870   2.5911560  35.0714550
   2.4173150   2.5248940  35.3003020   3.4968690   3.5291690  34.9569790
   9.8525710   3.5447080  42.0460740   9.0244340   3.6140170  41.5710870
  10.4476190   4.1301390  41.5776570   7.3741160   4.1531860  35.5749800
   6.7553580   3.8151410  34.9276100   7.3565610   3.5091620  36.2828990
   7.5067820  10.3775730  43.6796590   7.0298380  11.1847920  43.4869200
   6.8229610   9.7254060  43.8322800   5.5505860   3.3918670  32.5822550
   5.9899140   2.5541100  32.4360370   6.2634280   4.0248070  32.6686690
   3.6601240   8.3314740  36.5503790   4.0997150   9.0739070  36.1359180
   3.5988130   8.5741310  37.4742750  11.0867030  10.1387670  48.7487980
  11.5626750  10.6170560  49.4277060  11.7074190  10.0705160  48.0233480
  10.4900280   7.3300520  45.9087990  10.6163340   7.0912400  44.9905170
  10.5321660   6.4985060  46.3810070   4.3517020  11.0328520  44.4782800
   4.8661690  10.9436530  45.2805230   3.5086100  11.3788220  44.7710710
   6.3271420  11.3183860  33.9066800   6.1672560  11.0286800  34.8048630
   6.1618130  10.5423990  33.3712030   6.0297550   8.8271420  32.4664800
   5.3362710   8.8248710  31.8067080   6.7720410   8.4030740  32.0358970
   5.5947480  10.4534130  36.5413290   6.0504430   9.6723510  36.8551910
   5.9340000  11.1640950  37.0854470   8.1455290   4.6913550  40.0485910
   8.8654410   5.1868840  39.6582020   7.9437110   4.0131440  39.4039780
   3.5274090   4.7622610  45.9354910   3.4611400   3.8418280  45.6812500
   2.8979230   4.8598050  46.6499550   2.3174210   6.6294850  33.1665630
   2.6589910   7.3737080  32.6708950   1.4886920   6.9425970  33.5290460
   3.4590820   7.5843180  45.6858710   3.4735360   6.6524140  45.4677620
   2.7515920   7.6702940  46.3248480   8.5927890   1.7683000  31.9557320
   8.5091610   2.1997220  31.1053760   9.3122080   2.2281350  32.3884140
   9.6702030   4.2250520  45.0327290   8.9450220   4.8179300  44.8356680
  10.1977490   4.2174060  44.2340660   9.6215140   8.6225260  34.6839450
   8.9791300   7.9680880  34.9583170   9.2345800   9.0280350  33.9080120
   5.2001620   5.9510690  38.5311140   5.5525440   5.3538820  37.8712510
   4.3163950   5.6254920  38.7019390   2.8924720   9.2260750  42.7799210
   3.5366940   9.4320130  43.4572630   3.2554160   8.4649150  42.3270060
   4.1656800   7.2293100  41.4976660   4.8079030   6.5286260  41.6108830
   4.6906150   8.0091540  41.3173550   8.0112520   7.5141720  31.2215800
   7.7850100   6.7972160  31.8140440   7.6208720   7.2654160  30.3837550
   5.9394420   8.0288000  44.7012720   6.2750660   8.6154690  45.3790640
   5.0194760   7.8980710  44.9310510   7.5928770   5.4313660  32.8829960
   7.3050470   5.8926350  33.6707840   8.3880940   4.9711430  33.1514180
   1.7683000   8.0779330  47.8700780   1.4479870   7.3588570  48.4146470
   1.0941360   8.7534400  47.9436840   2.7956770   8.9868020  31.4759120
   2.8968750   8.7832010  30.5461100   1.8958510   8.7326300  31.6806900
   9.4453040   9.5955070  39.4219560   9.5700460  10.4186240  39.8943370
  10.3118600   9.3845800  39.0743710   4.7593480   6.9812220  48.2297680
   4.1531640   7.0043820  47.4893430   4.4547590   6.2495260  48.7664930
   6.1893850  10.7092510  46.8407090   7.1415600  10.6250530  46.7907330
   6.0422070  11.3734220  47.5140880   9.0803050  10.0886720  32.3399000
   8.7944560   9.6751860  31.5253180   8.8822600  11.0174430  32.2199520
   3.7853010   5.1440030  31.3846600   3.2363110   5.5909330  32.0289340
   4.4072270   4.6389280  31.9084270   7.8387950   6.4982130  47.3168860
   8.5797420   6.8357890  46.8136320   7.0760630   6.6674190  46.7638630
   1.9655770   3.1268560  30.5289000   2.4861430   2.4117580  30.1630150
   2.6124170   3.7654430  30.8289510   6.5133610   4.5496960  45.8524070
   6.9274630   4.7042040  46.7014490   5.5784610   4.6752180  46.0149850
   5.9500640   2.7870810  43.7820350   5.4235860   3.3113430  43.1785490
   6.2931980   3.4198200  44.4130080   1.9818470  12.0421660  45.1964380
   1.9077170  12.9456800  45.5036750   1.0797310  11.7233560  45.1686450
   2.5303800  11.2080170  32.8190740   3.4254590  11.5465140  32.8409500
   2.5621430  10.4859580  32.1915020   9.5098150   9.7383840  45.5256940
   8.9100140   9.7976400  44.7820860   9.6392050   8.7988820  45.6553790
  10.7499600   7.4801660  30.8626650   9.9192560   7.5478310  31.3333880
  10.9271430   8.3705780  30.5593510  10.2056060   4.2249140  33.3660850
  10.9674970   4.7945790  33.4720540  10.2210430   3.6576340  34.1369160
  11.2116030   5.0799240  38.2102780  11.5824860   4.2966560  37.8038750
  11.8517960   5.7688340  38.0320080   8.1949790   6.4635820  43.6233100
   7.3809630   6.8932980  43.8858890   8.6023990   7.0754230  43.0102150
  10.2575230   4.5183510  30.5233370  10.5324070   5.4262390  30.3952590
  10.0685970   4.4546040  31.4595360  10.1540570   2.4552500  35.5162800
   9.7784170   1.6880430  35.0844090   9.4243690   2.8375200  36.0037730
   8.2525840  11.2154420  37.1501370   8.8484910  10.8938990  36.4735790
   8.5103990  10.7426240  37.9414640  11.1198600  11.2226300  43.7012360
  10.6256880  11.6195170  42.9839490  10.5111890  10.5975510  44.0949640
   8.8038050  11.8649720  40.9799100   8.3441020  12.6165530  40.6057120
   8.1750510  11.1456190  40.9213900   1.9729270  11.0646450  40.9816210
   2.2607080  10.8100750  40.1049220   2.4852490  10.5123810  41.5721780
   2.0401630  11.9862550  48.3484410   2.9668940  11.7506820  48.3920370
   2.0252060  12.8134550  47.8670440  10.2746690  11.5288120  35.3458660
  10.4498880  10.8425860  34.7019580   9.5768260  12.0535170  34.9535330
   8.6079190  11.2132410  48.1725450   9.4004510  10.7181640  47.9651410
   8.9012340  11.8922550  48.7801060   2.8656890   3.8632370  20.9350770
   2.0898990   3.3832810  21.2249340   3.5169820   3.1838020  20.7606930
   6.8864320   8.2692560  19.7149900   6.4245850   7.4979800  20.0437070
   7.6989870   8.2958630  20.2202350   3.1127630  10.5550570  19.3353890
   2.4939070  11.0108070  18.7648330   3.9679410  10.7102030  18.9343590
   2.3065880   6.5389560  20.9420930   2.2374160   5.5979500  20.7810060
   3.0685740   6.6290970  21.5143500   3.9790980   5.4389810  16.7285800
   3.3608250   5.9039260  16.1648520   4.4914230   6.1317290  17.1455310
   8.9719430   8.3985890  23.1373220   8.2882950   9.0685000  23.1289890
   9.5113720   8.5966540  22.3718080   6.5078170  10.2430020  21.8518400
   6.5205330   9.8392310  20.9840660   5.9553390  11.0177310  21.7479830
   7.8023590   6.9646240  16.9408570   7.6919920   6.0220570  17.0657990
   7.7991840   7.3261880  17.8271330   5.9063610   5.1459860  23.1801010
   6.3232400   4.9319970  22.3454470   6.6303430   5.4032650  23.7509630
   3.3443870   2.5911560  16.2971060   2.4173150   2.5248940  16.5259530
   3.4968690   3.5291690  16.1826300   9.8525710   3.5447080  23.2717250
   9.0244340   3.6140170  22.7967380  10.4476190   4.1301390  22.8033080
   7.3741160   4.1531860  16.8006310   6.7553580   3.8151410  16.1532610
   7.3565610   3.5091620  17.5085500   7.5067820  10.3775730  24.9053100
   7.0298380  11.1847920  24.7125710   6.8229610   9.7254060  25.0579310
   5.5505860   3.3918670  13.8079060   5.9899140   2.5541100  13.6616880
   6.2634280   4.0248070  13.8943200   3.6601240   8.3314740  17.7760300
   4.0997150   9.0739070  17.3615690   3.5988130   8.5741310  18.6999260
  11.0867030  10.1387670  29.9744490  11.5626750  10.6170560  30.6533570
  11.7074190  10.0705160  29.2489990  10.4900280   7.3300520  27.1344500
  10.6163340   7.0912400  26.2161680  10.5321660   6.4985060  27.6066580
   4.3517020  11.0328520  25.7039310   4.8661690  10.9436530  26.5061740
   3.5086100  11.3788220  25.9967220   6.3271420  11.3183860  15.1323310
   6.1672560  11.0286800  16.0305140   6.1618130  10.5423990  14.5968540
   6.0297550   8.8271420  13.6921310   5.3362710   8.8248710  13.0323590
   6.7720410   8.4030740  13.2615480   5.5947480  10.4534130  17.7669800
   6.0504430   9.6723510  18.0808420   5.9340000  11.1640950  18.3110980
   8.1455290   4.6913550  21.2742420   8.8654410   5.1868840  20.8838530
   7.9437110   4.0131440  20.6296290   3.5274090   4.7622610  27.1611420
   3.4611400   3.8418280  26.9069010   2.8979230   4.8598050  27.8756060
   2.3174210   6.6294850  14.3922140   2.6589910   7.3737080  13.8965460
   1.4886920   6.9425970  14.7546970   3.4590820   7.5843180  26.9115220
   3.4735360   6.6524140  26.6934130   2.7515920   7.6702940  27.5504990
   8.5927890   1.7683000  13.1813830   8.5091610   2.1997220  12.3310270
   9.3122080   2.2281350  13.6140650   9.6702030   4.2250520  26.2583800
   8.9450220   4.8179300  26.0613190  10.1977490   4.2174060  25.4597170
   9.6215140   8.6225260  15.9095960   8.9791300   7.9680880  16.1839680
   9.2345800   9.0280350  15.1336630   5.2001620   5.9510690  19.7567650
   5.5525440   5.3538820  19.0969020   4.3163950   5.6254920  19.9275900
   2.8924720   9.2260750  24.0055720   3.5366940   9.4320130  24.6829140
   3.2554160   8.4649150  23.5526570   4.1656800   7.2293100  22.7233170
   4.8079030   6.5286260  22.8365340   4.6906150   8.0091540  22.5430060
   8.0112520   7.5141720  12.4472310   7.7850100   6.7972160  13.0396950
   7.6208720   7.2654160  11.6094060   5.9394420   8.0288000  25.9269230
   6.2750660   8.6154690  26.6047150   5.0194760   7.8980710  26.1567020
   7.5928770   5.4313660  14.1086470   7.3050470   5.8926350  14.8964350
   8.3880940   4.9711430  14.3770690   1.7683000   8.0779330  29.0957290
   1.4479870   7.3588570  29.6402980   1.0941360   8.7534400  29.1693350
   2.7956770   8.9868020  12.7015630   2.8968750   8.7832010  11.7717610
   1.8958510   8.7326300  12.9063410   9.4453040   9.5955070  20.6476070
   9.5700460  10.4186240  21.1199880  10.3118600   9.3845800  20.3000220
   4.7593480   6.9812220  29.4554190   4.1531640   7.0043820  28.7149940
   4.4547590   6.2495260  29.9921440   6.1893850  10.7092510  28.0663600
   7.1415600  10.6250530  28.0163840   6.0422070  11.3734220  28.7397390
   9.0803050  10.0886720  13.5655510   8.7944560   9.6751860  12.7509690
   8.8822600  11.0174430  13.4456030   3.7853010   5.1440030  12.6103110
   3.2363110   5.5909330  13.2545850   4.4072270   4.6389280  13.1340780
   7.8387950   6.4982130  28.5425370   8.5797420   6.8357890  28.0392830
   7.0760630   6.6674190  27.9895140   1.9655770   3.1268560  11.7545510
   2.4861430   2.4117580  11.3886660   2.6124170   3.7654430  12.0546020
   6.5133610   4.5496960  27.0780580   6.9274630   4.7042040  27.9271000
   5.5784610   4.6752180  27.2406360   5.9500640   2.7870810  25.0076860
   5.4235860   3.3113430  24.4042000   6.2931980   3.4198200  25.6386590
   1.9818470  12.0421660  26.4220890   1.9077170  12.9456800  26.7293260
   1.0797310  11.7233560  26.3942960   2.5303800  11.2080170  14.0447250
   3.4254590  11.5465140  14.0666010   2.5621430  10.4859580  13.4171530
   9.5098150   9.7383840  26.7513450   8.9100140   9.7976400  26.0077370
   9.6392050   8.7988820  26.8810300  10.7499600   7.4801660  12.0883160
   9.9192560   7.5478310  12.5590390  10.9271430   8.3705780  11.7850020
  10.2056060   4.2249140  14.5917360  10.9674970   4.7945790  14.6977050
  10.2210430   3.6576340  15.3625670  11.2116030   5.0799240  19.4359290
  11.5824860   4.2966560  19.0295260  11.8517960   5.7688340  19.2576590
   8.1949790   6.4635820  24.8489610   7.3809630   6.8932980  25.1115400
   8.6023990   7.0754230  24.2358660  10.2575230   4.5183510  11.7489880
  10.5324070   5.4262390  11.6209100  10.0685970   4.4546040  12.6851870
  10.1540570   2.4552500  16.7419310   9.7784170   1.6880430  16.3100600
   9.4243690   2.8375200  17.2294240   8.2525840  11.2154420  18.3757880
   8.8484910  10.8938990  17.6992300   8.5103990  10.7426240  19.1671150
  11.1198600  11.2226300  24.9268870  10.6256880  11.6195170  24.2096000
  10.5111890  10.5975510  25.3206150   8.8038050  11.8649720  22.2055610
   8.3441020  12.6165530  21.8313630   8.1750510  11.1456190  22.1470410
   1.9729270  11.0646450  22.2072720   2.2607080  10.8100750  21.3305730
   2.4852490  10.5123810  22.7978290   2.0401630  11.9862550  29.5740920
   2.9668940  11.7506820  29.6176880   2.0252060  12.8134550  29.0926950
  10.2746690  11.5288120  16.5715170  10.4498880  10.8425860  15.9276090
   9.5768260  12.0535170  16.1791840   8.6079190  11.2132410  29.3981960
   9.4004510  10.7181640  29.1907920   8.9012340  11.8922550  30.0057570
   2.8656890   3.8632370   2.1607280   2.0898990   3.3832810   2.4505850
   3.5169820   3.1838020   1.9863440   2.3065880   6.5389560   2.1677440
   2.2374160   5.5979500   2.0066570   3.0685740   6.6290970   2.7400010
   8.9719430   8.3985890   4.3629730   8.2882950   9.0685000   4.3546400
   9.5113720   8.5966540   3.5974590   6.5078170  10.2430020   3.0774910
   6.5205330   9.8392310   2.2097170   5.9553390  11.0177310   2.9736340
   5.9063610   5.1459860   4.4057520   6.3232400   4.9319970   3.5710980
   6.6303430   5.4032650   4.9766140   9.8525710   3.5447080   4.4973760
   9.0244340   3.6140170   4.0223890  10.4476190   4.1301390   4.0289590
   7.5067820  10.3775730   6.1309610   7.0298380  11.1847920   5.9382220
   6.8229610   9.7254060   6.2835820  11.0867030  10.1387670  11.2001000
  11.5626750  10.6170560  11.8790080  11.7074190  10.0705160  10.4746500
  10.4900280   7.3300520   8.3601010  10.6163340   7.0912400   7.4418190
  10.5321660   6.4985060   8.8323090   4.3517020  11.0328520   6.9295820
   4.8661690  10.9436530   7.7318250   3.5086100  11.3788220   7.2223730
   8.1455290   4.6913550   2.4998930   8.8654410   5.1868840   2.1095040
   7.9437110   4.0131440   1.8552800   3.5274090   4.7622610   8.3867930
   3.4611400   3.8418280   8.1325520   2.8979230   4.8598050   9.1012570
   3.4590820   7.5843180   8.1371730   3.4735360   6.6524140   7.9190640
   2.7515920   7.6702940   8.7761500   9.6702030   4.2250520   7.4840310
   8.9450220   4.8179300   7.2869700  10.1977490   4.2174060   6.6853680
   2.8924720   9.2260750   5.2312230   3.5366940   9.4320130   5.9085650
   3.2554160   8.4649150   4.7783080   4.1656800   7.2293100   3.9489680
   4.8079030   6.5286260   4.0621850   4.6906150   8.0091540   3.7686570
   5.9394420   8.0288000   7.1525740   6.2750660   8.6154690   7.8303660
   5.0194760   7.8980710   7.3823530   1.7683000   8.0779330  10.3213800
   1.4479870   7.3588570  10.8659490   1.0941360   8.7534400  10.3949860
   4.7593480   6.9812220  10.6810700   4.1531640   7.0043820   9.9406450
   4.4547590   6.2495260  11.2177950   6.1893850  10.7092510   9.2920110
   7.1415600  10.6250530   9.2420350   6.0422070  11.3734220   9.9653900
   7.8387950   6.4982130   9.7681880   8.5797420   6.8357890   9.2649340
   7.0760630   6.6674190   9.2151650   6.5133610   4.5496960   8.3037090
   6.9274630   4.7042040   9.1527510   5.5784610   4.6752180   8.4662870
   5.9500640   2.7870810   6.2333370   5.4235860   3.3113430   5.6298510
   6.2931980   3.4198200   6.8643100   1.9818470  12.0421660   7.6477400
   1.9077170  12.9456800   7.9549770   1.0797310  11.7233560   7.6199470
   9.5098150   9.7383840   7.9769960   8.9100140   9.7976400   7.2333880
   9.6392050   8.7988820   8.1066810   8.1949790   6.4635820   6.0746120
   7.3809630   6.8932980   6.3371910   8.6023990   7.0754230   5.4615170
  11.1198600  11.2226300   6.1525380  10.6256880  11.6195170   5.4352510
  10.5111890  10.5975510   6.5462660   8.8038050  11.8649720   3.4312120
   8.3441020  12.6165530   3.0570140   8.1750510  11.1456190   3.3726920
   1.9729270  11.0646450   3.4329230   2.2607080  10.8100750   2.5562240
   2.4852490  10.5123810   4.0234800   2.0401630  11.9862550  10.7997430
   2.9668940  11.7506820  10.8433390   2.0252060  12.8134550  10.3183460
   8.6079190  11.2132410  10.6238470   9.4004510  10.7181640  10.4164430
   8.9012340  11.8922550  11.2314080
 154.7587690 156.0696740 154.0205750  90.0000000  90.0000000  90.0000000
